/*--------------------------------*- C++ -*----------------------------------*\
  =========                 |
  \\      /  F ield         | OpenFOAM: The Open Source CFD Toolbox
   \\    /   O peration     | Website:  https://openfoam.org
    \\  /    A nd           | Version:  7
     \\/     M anipulation  |
\*---------------------------------------------------------------------------*/
FoamFile
{
    version     2.0;
    format      ascii;
    class       volVectorField;
    location    "2.5";
    object      U;
}
// * * * * * * * * * * * * * * * * * * * * * * * * * * * * * * * * * * * * * //

dimensions      [0 1 -1 0 0 0 0];

internalField   nonuniform List<vector> 
2413
(
(-0.111177 -0.20492 0)
(-0.101308 -0.203151 0)
(-0.0916225 -0.201614 0)
(-0.0821322 -0.199983 0)
(-0.0727942 -0.1984 0)
(-0.0635981 -0.196701 0)
(-0.054529 -0.194932 0)
(-0.0456074 -0.193028 0)
(-0.0368397 -0.191029 0)
(-0.028221 -0.188945 0)
(-0.0197227 -0.186802 0)
(-0.0112981 -0.184645 0)
(-0.0028858 -0.182525 0)
(0.00557597 -0.180485 0)
(0.0141343 -0.178545 0)
(0.0228151 -0.176743 0)
(0.0316176 -0.175081 0)
(0.0405328 -0.173585 0)
(0.0495595 -0.172262 0)
(0.0587052 -0.171081 0)
(0.0679646 -0.170012 0)
(0.0773456 -0.168996 0)
(0.086975 -0.168074 0)
(0.097166 -0.167274 0)
(0.108043 -0.16654 0)
(0.117588 -0.164889 0)
(0.122276 -0.161051 0)
(0.124355 -0.156371 0)
(0.124228 -0.150931 0)
(0.121496 -0.144727 0)
(0.116716 -0.138134 0)
(0.111588 -0.131994 0)
(0.108729 -0.127002 0)
(0.109184 -0.123221 0)
(0.111544 -0.119896 0)
(0.115034 -0.116334 0)
(0.11968 -0.112571 0)
(0.124968 -0.10812 0)
(0.131394 -0.103624 0)
(0.138125 -0.0984127 0)
(0.145704 -0.0933 0)
(0.153713 -0.0881661 0)
(0.162532 -0.083723 0)
(0.171822 -0.0799005 0)
(0.180125 -0.0753906 0)
(0.185265 -0.0702225 0)
(0.184245 -0.0599805 0)
(0.1593 -0.02795 0)
(0.101953 0.0326654 0)
(0.0446118 0.0871509 0)
(0.0240463 0.124134 0)
(-0.640766 -0.27218 0)
(-0.623356 -0.273145 0)
(-0.606182 -0.274058 0)
(-0.589207 -0.274864 0)
(-0.572405 -0.275545 0)
(-0.55584 -0.275635 0)
(-0.539486 -0.275662 0)
(-0.523302 -0.275709 0)
(-0.507152 -0.275245 0)
(-0.491039 -0.274635 0)
(-0.475092 -0.273895 0)
(-0.459264 -0.273021 0)
(-0.443595 -0.271924 0)
(-0.428243 -0.27031 0)
(-0.412998 -0.26816 0)
(-0.397932 -0.265841 0)
(-0.383003 -0.262898 0)
(-0.368198 -0.259297 0)
(-0.353248 -0.255507 0)
(-0.338195 -0.251594 0)
(-0.323113 -0.247517 0)
(-0.307813 -0.244008 0)
(-0.292518 -0.240322 0)
(-0.277237 -0.23673 0)
(-0.261902 -0.233743 0)
(-0.247166 -0.230587 0)
(-0.232695 -0.227913 0)
(-0.218767 -0.225158 0)
(-0.20535 -0.222681 0)
(-0.192424 -0.219955 0)
(-0.179874 -0.217475 0)
(-0.167846 -0.214662 0)
(-0.156236 -0.212059 0)
(-0.145108 -0.209229 0)
(-0.134344 -0.206894 0)
(-0.123973 -0.204518 0)
(-0.113881 -0.202593 0)
(-0.1041 -0.200588 0)
(-0.0945528 -0.198704 0)
(-0.0852069 -0.197033 0)
(-0.0760295 -0.195393 0)
(-0.0669626 -0.193924 0)
(-0.0580129 -0.192467 0)
(-0.0491962 -0.19103 0)
(-0.0405394 -0.189525 0)
(-0.0320524 -0.187952 0)
(-0.0237333 -0.186289 0)
(-0.0155618 -0.184544 0)
(-0.00749071 -0.182759 0)
(0.000544385 -0.180997 0)
(0.00860484 -0.179303 0)
(0.016746 -0.177705 0)
(0.0250113 -0.17621 0)
(0.0334279 -0.174807 0)
(0.0419998 -0.173516 0)
(0.0507235 -0.172377 0)
(0.0596109 -0.171369 0)
(0.0686698 -0.170474 0)
(0.0779112 -0.169636 0)
(0.0874203 -0.16887 0)
(0.0974813 -0.168187 0)
(0.108466 -0.167623 0)
(0.119513 -0.166732 0)
(0.126783 -0.163779 0)
(0.129554 -0.159282 0)
(0.130619 -0.154007 0)
(0.128845 -0.147888 0)
(0.124433 -0.141025 0)
(0.118532 -0.134057 0)
(0.113994 -0.127962 0)
(0.11342 -0.123158 0)
(0.11566 -0.119208 0)
(0.119569 -0.115302 0)
(0.124616 -0.111089 0)
(0.130495 -0.106409 0)
(0.137348 -0.101657 0)
(0.144448 -0.0962814 0)
(0.152183 -0.090977 0)
(0.159913 -0.0853973 0)
(0.168094 -0.0802817 0)
(0.176543 -0.0757318 0)
(0.185143 -0.071964 0)
(0.192509 -0.0677878 0)
(0.196617 -0.0626829 0)
(0.194971 -0.0541562 0)
(0.171852 -0.0255345 0)
(0.113813 0.031743 0)
(0.0594038 0.0900751 0)
(-0.634033 -0.269131 0)
(-0.61604 -0.269673 0)
(-0.598485 -0.270454 0)
(-0.581131 -0.271269 0)
(-0.563945 -0.271768 0)
(-0.54686 -0.272094 0)
(-0.530072 -0.272288 0)
(-0.513618 -0.271818 0)
(-0.497357 -0.271319 0)
(-0.481226 -0.270581 0)
(-0.465205 -0.269932 0)
(-0.449283 -0.26944 0)
(-0.433525 -0.268809 0)
(-0.417971 -0.26756 0)
(-0.402575 -0.265784 0)
(-0.38746 -0.263632 0)
(-0.372529 -0.260927 0)
(-0.357845 -0.258115 0)
(-0.343205 -0.255131 0)
(-0.328699 -0.251372 0)
(-0.314189 -0.247185 0)
(-0.299463 -0.243315 0)
(-0.284712 -0.23912 0)
(-0.269771 -0.235204 0)
(-0.254783 -0.231672 0)
(-0.239924 -0.228207 0)
(-0.225167 -0.225068 0)
(-0.211108 -0.221845 0)
(-0.197489 -0.219198 0)
(-0.1845 -0.21648 0)
(-0.172019 -0.213963 0)
(-0.160083 -0.21116 0)
(-0.148522 -0.208733 0)
(-0.137431 -0.206022 0)
(-0.126708 -0.203689 0)
(-0.116429 -0.201114 0)
(-0.10646 -0.198963 0)
(-0.0968281 -0.196953 0)
(-0.0874588 -0.195258 0)
(-0.0782934 -0.193822 0)
(-0.0693153 -0.192394 0)
(-0.0604915 -0.191059 0)
(-0.0518233 -0.189678 0)
(-0.0433149 -0.188325 0)
(-0.0349782 -0.18697 0)
(-0.026822 -0.185632 0)
(-0.0188547 -0.184291 0)
(-0.0110517 -0.182985 0)
(-0.00335684 -0.18166 0)
(0.00429936 -0.180285 0)
(0.0119807 -0.178895 0)
(0.0197377 -0.177535 0)
(0.0276 -0.176276 0)
(0.035595 -0.175135 0)
(0.0437548 -0.174089 0)
(0.052113 -0.173129 0)
(0.0606964 -0.172236 0)
(0.0695133 -0.171424 0)
(0.0785707 -0.170667 0)
(0.0879213 -0.169971 0)
(0.097772 -0.169325 0)
(0.108555 -0.168792 0)
(0.120335 -0.168225 0)
(0.130275 -0.166328 0)
(0.134499 -0.162023 0)
(0.136646 -0.156819 0)
(0.136128 -0.150672 0)
(0.132642 -0.143532 0)
(0.126653 -0.135799 0)
(0.120586 -0.128527 0)
(0.118376 -0.122463 0)
(0.120192 -0.117757 0)
(0.124352 -0.113507 0)
(0.129636 -0.108819 0)
(0.136038 -0.103969 0)
(0.143132 -0.0988784 0)
(0.150599 -0.0934214 0)
(0.158481 -0.0879648 0)
(0.166209 -0.082241 0)
(0.174028 -0.0768077 0)
(0.181591 -0.0715969 0)
(0.189258 -0.067279 0)
(0.196641 -0.0637821 0)
(0.202583 -0.0600395 0)
(0.205472 -0.0551378 0)
(0.203398 -0.0482845 0)
(0.181482 -0.0235724 0)
(0.125376 0.031277 0)
(-0.629238 -0.265102 0)
(-0.610584 -0.266231 0)
(-0.592203 -0.267032 0)
(-0.574129 -0.267914 0)
(-0.556336 -0.268618 0)
(-0.538912 -0.268827 0)
(-0.521735 -0.268723 0)
(-0.504674 -0.268274 0)
(-0.487867 -0.267822 0)
(-0.471352 -0.267123 0)
(-0.455122 -0.266275 0)
(-0.439122 -0.265362 0)
(-0.423304 -0.264373 0)
(-0.407554 -0.263279 0)
(-0.391869 -0.262194 0)
(-0.376441 -0.260729 0)
(-0.36134 -0.258525 0)
(-0.3465 -0.256003 0)
(-0.331878 -0.252976 0)
(-0.31756 -0.24941 0)
(-0.303367 -0.245923 0)
(-0.289232 -0.242503 0)
(-0.275252 -0.238437 0)
(-0.2611 -0.234382 0)
(-0.246801 -0.230352 0)
(-0.232366 -0.226521 0)
(-0.217987 -0.222905 0)
(-0.203812 -0.219507 0)
(-0.189859 -0.216551 0)
(-0.176735 -0.213589 0)
(-0.164169 -0.211097 0)
(-0.152237 -0.208513 0)
(-0.14081 -0.206262 0)
(-0.129879 -0.203588 0)
(-0.119286 -0.201299 0)
(-0.109107 -0.198847 0)
(-0.099206 -0.196834 0)
(-0.0896053 -0.194707 0)
(-0.0802823 -0.192726 0)
(-0.0712194 -0.191053 0)
(-0.0623918 -0.189501 0)
(-0.053761 -0.188241 0)
(-0.0453161 -0.187136 0)
(-0.0370544 -0.186211 0)
(-0.028992 -0.185371 0)
(-0.021146 -0.18458 0)
(-0.0135203 -0.183782 0)
(-0.00608495 -0.182882 0)
(0.00121187 -0.181889 0)
(0.00843546 -0.180829 0)
(0.0156674 -0.17972 0)
(0.0229879 -0.178581 0)
(0.0304597 -0.177431 0)
(0.0380997 -0.17632 0)
(0.0459055 -0.175326 0)
(0.0538882 -0.17445 0)
(0.0621167 -0.173607 0)
(0.0706624 -0.172784 0)
(0.0795481 -0.171967 0)
(0.0888025 -0.171182 0)
(0.0985634 -0.17041 0)
(0.109232 -0.169689 0)
(0.121237 -0.168999 0)
(0.133111 -0.167754 0)
(0.140006 -0.163935 0)
(0.142789 -0.158807 0)
(0.143639 -0.152726 0)
(0.141302 -0.145573 0)
(0.13576 -0.137494 0)
(0.128646 -0.12933 0)
(0.124435 -0.122094 0)
(0.125449 -0.11656 0)
(0.129592 -0.111887 0)
(0.135103 -0.106829 0)
(0.141931 -0.101838 0)
(0.149233 -0.0964707 0)
(0.157028 -0.0909827 0)
(0.165015 -0.0853914 0)
(0.172866 -0.0796799 0)
(0.180524 -0.0741224 0)
(0.187648 -0.0686887 0)
(0.194499 -0.0638878 0)
(0.200852 -0.0598142 0)
(0.206647 -0.0567801 0)
(0.211022 -0.0540054 0)
(0.212107 -0.0497046 0)
(0.209233 -0.0438645 0)
(0.187602 -0.0227461 0)
(-0.626536 -0.262329 0)
(-0.607049 -0.263119 0)
(-0.58781 -0.263897 0)
(-0.568838 -0.264839 0)
(-0.550172 -0.265453 0)
(-0.532013 -0.265565 0)
(-0.514273 -0.265673 0)
(-0.496689 -0.265307 0)
(-0.479269 -0.26456 0)
(-0.462164 -0.263468 0)
(-0.445453 -0.262468 0)
(-0.42908 -0.261643 0)
(-0.412991 -0.260794 0)
(-0.397071 -0.259724 0)
(-0.381261 -0.258229 0)
(-0.365614 -0.256329 0)
(-0.350112 -0.254427 0)
(-0.334848 -0.25283 0)
(-0.320021 -0.250662 0)
(-0.305564 -0.247787 0)
(-0.291393 -0.244517 0)
(-0.277441 -0.240783 0)
(-0.26389 -0.236778 0)
(-0.250357 -0.233227 0)
(-0.236984 -0.229701 0)
(-0.223622 -0.226144 0)
(-0.210147 -0.22235 0)
(-0.196433 -0.218669 0)
(-0.18281 -0.215108 0)
(-0.169534 -0.211837 0)
(-0.156607 -0.209213 0)
(-0.144435 -0.206556 0)
(-0.133044 -0.204493 0)
(-0.122264 -0.202248 0)
(-0.111919 -0.200252 0)
(-0.10191 -0.197822 0)
(-0.0921312 -0.195645 0)
(-0.0826327 -0.193563 0)
(-0.0733536 -0.191716 0)
(-0.0643714 -0.190087 0)
(-0.0556505 -0.188548 0)
(-0.0471083 -0.187299 0)
(-0.0387709 -0.186211 0)
(-0.0306483 -0.185309 0)
(-0.0227527 -0.184524 0)
(-0.0150962 -0.183855 0)
(-0.00767315 -0.183247 0)
(-0.000465438 -0.182655 0)
(0.00655945 -0.182039 0)
(0.0134566 -0.181376 0)
(0.0202935 -0.180672 0)
(0.0271463 -0.179926 0)
(0.0340937 -0.179143 0)
(0.0412197 -0.178272 0)
(0.0485932 -0.177256 0)
(0.0562429 -0.176164 0)
(0.064144 -0.175165 0)
(0.0723618 -0.17426 0)
(0.0810061 -0.173312 0)
(0.0901142 -0.172348 0)
(0.0997924 -0.171347 0)
(0.110364 -0.170338 0)
(0.122337 -0.169395 0)
(0.135395 -0.168323 0)
(0.145384 -0.165276 0)
(0.149239 -0.160113 0)
(0.15141 -0.154018 0)
(0.15042 -0.146801 0)
(0.145784 -0.138498 0)
(0.138289 -0.129563 0)
(0.131924 -0.121256 0)
(0.131395 -0.114692 0)
(0.1351 -0.109449 0)
(0.140774 -0.104139 0)
(0.147827 -0.0988957 0)
(0.155322 -0.0932883 0)
(0.163322 -0.0876885 0)
(0.171339 -0.0819341 0)
(0.179255 -0.0762188 0)
(0.186793 -0.0706448 0)
(0.193707 -0.0652923 0)
(0.199912 -0.0603299 0)
(0.2052 -0.0558635 0)
(0.209841 -0.0524627 0)
(0.213532 -0.0500835 0)
(0.21591 -0.0480882 0)
(0.21517 -0.0450822 0)
(0.211697 -0.0402522 0)
(-0.625712 -0.25907 0)
(-0.605344 -0.260408 0)
(-0.585302 -0.26114 0)
(-0.565529 -0.261901 0)
(-0.545999 -0.262568 0)
(-0.526814 -0.262772 0)
(-0.508225 -0.262985 0)
(-0.489974 -0.263025 0)
(-0.471922 -0.262453 0)
(-0.454207 -0.261151 0)
(-0.436846 -0.259746 0)
(-0.419771 -0.258383 0)
(-0.403053 -0.257081 0)
(-0.386745 -0.256007 0)
(-0.370772 -0.254901 0)
(-0.354993 -0.253464 0)
(-0.339264 -0.25163 0)
(-0.323698 -0.249465 0)
(-0.308462 -0.246928 0)
(-0.293469 -0.244757 0)
(-0.278947 -0.242497 0)
(-0.265037 -0.2397 0)
(-0.251575 -0.236428 0)
(-0.238177 -0.23276 0)
(-0.225315 -0.228532 0)
(-0.212694 -0.224858 0)
(-0.200201 -0.221797 0)
(-0.187763 -0.219001 0)
(-0.175332 -0.215601 0)
(-0.162599 -0.212214 0)
(-0.149784 -0.208989 0)
(-0.137469 -0.20574 0)
(-0.125727 -0.20347 0)
(-0.114536 -0.201332 0)
(-0.104272 -0.199715 0)
(-0.0946211 -0.198004 0)
(-0.0852723 -0.196357 0)
(-0.076057 -0.194319 0)
(-0.0668564 -0.192393 0)
(-0.0578082 -0.190524 0)
(-0.0490926 -0.188992 0)
(-0.0406195 -0.187746 0)
(-0.0323621 -0.186568 0)
(-0.0243277 -0.185647 0)
(-0.0165399 -0.184933 0)
(-0.00900839 -0.18437 0)
(-0.00172914 -0.183927 0)
(0.00531525 -0.183556 0)
(0.0121562 -0.183193 0)
(0.0188435 -0.182761 0)
(0.0254382 -0.182209 0)
(0.0320072 -0.181521 0)
(0.038618 -0.18072 0)
(0.045337 -0.179845 0)
(0.0522367 -0.178901 0)
(0.0594131 -0.177881 0)
(0.0669666 -0.176702 0)
(0.0749004 -0.175445 0)
(0.0832675 -0.174283 0)
(0.0921927 -0.173029 0)
(0.101756 -0.171726 0)
(0.112197 -0.170389 0)
(0.124023 -0.169121 0)
(0.137579 -0.167943 0)
(0.150087 -0.165714 0)
(0.156139 -0.160768 0)
(0.159236 -0.154823 0)
(0.159708 -0.147734 0)
(0.156334 -0.139483 0)
(0.149195 -0.130169 0)
(0.141103 -0.121078 0)
(0.138451 -0.113409 0)
(0.141394 -0.10749 0)
(0.147136 -0.102016 0)
(0.154286 -0.0964873 0)
(0.162038 -0.0907496 0)
(0.17017 -0.0850106 0)
(0.17823 -0.0791528 0)
(0.186127 -0.0734205 0)
(0.193554 -0.0678902 0)
(0.200204 -0.0625769 0)
(0.205871 -0.0576066 0)
(0.210435 -0.0531144 0)
(0.213859 -0.0492756 0)
(0.216195 -0.0464998 0)
(0.217745 -0.0450694 0)
(0.217527 -0.0443387 0)
(0.2153 -0.0433816 0)
(-0.625893 -0.254535 0)
(-0.604748 -0.256144 0)
(-0.584246 -0.257973 0)
(-0.564055 -0.259311 0)
(-0.543967 -0.260256 0)
(-0.523829 -0.260259 0)
(-0.504151 -0.260506 0)
(-0.485113 -0.260882 0)
(-0.466512 -0.260672 0)
(-0.448283 -0.259793 0)
(-0.430127 -0.258796 0)
(-0.41206 -0.257432 0)
(-0.39443 -0.255564 0)
(-0.37734 -0.25368 0)
(-0.3607 -0.251859 0)
(-0.344457 -0.250282 0)
(-0.328612 -0.24899 0)
(-0.313096 -0.247528 0)
(-0.297676 -0.245669 0)
(-0.282243 -0.243376 0)
(-0.26724 -0.240336 0)
(-0.252756 -0.2375 0)
(-0.238746 -0.235172 0)
(-0.225431 -0.232646 0)
(-0.21292 -0.229428 0)
(-0.200492 -0.226084 0)
(-0.18842 -0.222044 0)
(-0.17683 -0.218126 0)
(-0.165446 -0.21526 0)
(-0.154086 -0.213471 0)
(-0.14282 -0.211036 0)
(-0.131385 -0.208003 0)
(-0.119445 -0.205289 0)
(-0.107864 -0.202258 0)
(-0.0971199 -0.199978 0)
(-0.087083 -0.198118 0)
(-0.077747 -0.196996 0)
(-0.0689951 -0.195871 0)
(-0.0604346 -0.19454 0)
(-0.0517747 -0.193024 0)
(-0.0429399 -0.191111 0)
(-0.0343845 -0.189588 0)
(-0.0261913 -0.188458 0)
(-0.0182159 -0.187496 0)
(-0.0104487 -0.186635 0)
(-0.00294151 -0.185985 0)
(0.00431792 -0.185503 0)
(0.0113538 -0.185078 0)
(0.0181785 -0.184674 0)
(0.0248098 -0.184238 0)
(0.0312767 -0.183728 0)
(0.0376312 -0.183098 0)
(0.0439481 -0.182318 0)
(0.0503144 -0.181368 0)
(0.0568219 -0.180265 0)
(0.0635707 -0.179056 0)
(0.0706874 -0.177762 0)
(0.0782937 -0.176292 0)
(0.0864081 -0.1747 0)
(0.0950688 -0.173275 0)
(0.104422 -0.171706 0)
(0.11468 -0.170085 0)
(0.126283 -0.168498 0)
(0.139804 -0.167074 0)
(0.153974 -0.165311 0)
(0.163133 -0.16087 0)
(0.166983 -0.154946 0)
(0.169094 -0.147914 0)
(0.167257 -0.139641 0)
(0.16105 -0.130084 0)
(0.15186 -0.120302 0)
(0.146553 -0.111451 0)
(0.148149 -0.104635 0)
(0.153702 -0.0989606 0)
(0.160764 -0.0930876 0)
(0.168742 -0.0872429 0)
(0.176911 -0.0813157 0)
(0.184991 -0.0753992 0)
(0.192791 -0.0696727 0)
(0.200035 -0.0641964 0)
(0.20637 -0.0589633 0)
(0.211493 -0.0540719 0)
(0.215291 -0.0496038 0)
(0.217687 -0.0457527 0)
(0.218498 -0.0428154 0)
(0.218214 -0.0412711 0)
(0.217049 -0.0413129 0)
(0.21525 -0.0423627 0)
(-0.626947 -0.251564 0)
(-0.605684 -0.254606 0)
(-0.58437 -0.256062 0)
(-0.563688 -0.256905 0)
(-0.543192 -0.257833 0)
(-0.522806 -0.258906 0)
(-0.502118 -0.259853 0)
(-0.481713 -0.260233 0)
(-0.46193 -0.259743 0)
(-0.442949 -0.259007 0)
(-0.424356 -0.258435 0)
(-0.40613 -0.257509 0)
(-0.3882 -0.255966 0)
(-0.370282 -0.254363 0)
(-0.352484 -0.252267 0)
(-0.335191 -0.249811 0)
(-0.318584 -0.247329 0)
(-0.302511 -0.245384 0)
(-0.286855 -0.244061 0)
(-0.271653 -0.242811 0)
(-0.256744 -0.240701 0)
(-0.241805 -0.238386 0)
(-0.227079 -0.235509 0)
(-0.213117 -0.232162 0)
(-0.199917 -0.229159 0)
(-0.187434 -0.227001 0)
(-0.176063 -0.224263 0)
(-0.165044 -0.221197 0)
(-0.154025 -0.217777 0)
(-0.143304 -0.214202 0)
(-0.133111 -0.211325 0)
(-0.12295 -0.210262 0)
(-0.112844 -0.209493 0)
(-0.102759 -0.207149 0)
(-0.0920741 -0.204621 0)
(-0.0811195 -0.201663 0)
(-0.0708575 -0.199162 0)
(-0.0615581 -0.197512 0)
(-0.0530351 -0.196528 0)
(-0.045017 -0.195817 0)
(-0.037052 -0.195036 0)
(-0.0287156 -0.193426 0)
(-0.0202958 -0.191653 0)
(-0.0122348 -0.190422 0)
(-0.00447148 -0.189438 0)
(0.00308522 -0.188506 0)
(0.0104348 -0.187736 0)
(0.0175489 -0.187108 0)
(0.0244522 -0.186537 0)
(0.0311612 -0.185924 0)
(0.0376764 -0.185218 0)
(0.044011 -0.184385 0)
(0.0502066 -0.183409 0)
(0.0563397 -0.182279 0)
(0.062522 -0.180988 0)
(0.0688849 -0.179566 0)
(0.0755632 -0.178066 0)
(0.0827118 -0.176559 0)
(0.0904495 -0.174835 0)
(0.098834 -0.172807 0)
(0.10793 -0.171056 0)
(0.117907 -0.169279 0)
(0.129167 -0.167432 0)
(0.142337 -0.165764 0)
(0.157329 -0.164166 0)
(0.169533 -0.160604 0)
(0.174643 -0.154831 0)
(0.178262 -0.148096 0)
(0.178169 -0.139996 0)
(0.173334 -0.130578 0)
(0.163996 -0.12041 0)
(0.156196 -0.110523 0)
(0.15595 -0.10267 0)
(0.161003 -0.0966488 0)
(0.167928 -0.0904844 0)
(0.176049 -0.0845196 0)
(0.184255 -0.078425 0)
(0.192337 -0.072448 0)
(0.199937 -0.0666431 0)
(0.206867 -0.0611496 0)
(0.212804 -0.0559847 0)
(0.217342 -0.051154 0)
(0.220406 -0.0467692 0)
(0.221814 -0.0430857 0)
(0.221273 -0.0403593 0)
(0.219331 -0.0389002 0)
(0.216826 -0.0387755 0)
(0.214451 -0.0399146 0)
(-0.628048 -0.246612 0)
(-0.606805 -0.250337 0)
(-0.58542 -0.254091 0)
(-0.563825 -0.257409 0)
(-0.543029 -0.259139 0)
(-0.522664 -0.260428 0)
(-0.502078 -0.260699 0)
(-0.481708 -0.260566 0)
(-0.461207 -0.260276 0)
(-0.44035 -0.260517 0)
(-0.420086 -0.259746 0)
(-0.400741 -0.258492 0)
(-0.382144 -0.257036 0)
(-0.363969 -0.256006 0)
(-0.346219 -0.254384 0)
(-0.328701 -0.252335 0)
(-0.311172 -0.249923 0)
(-0.293825 -0.247328 0)
(-0.27712 -0.24465 0)
(-0.261192 -0.242267 0)
(-0.24584 -0.240516 0)
(-0.231054 -0.23938 0)
(-0.216862 -0.237773 0)
(-0.202805 -0.235299 0)
(-0.1887 -0.232465 0)
(-0.175246 -0.229224 0)
(-0.163148 -0.225542 0)
(-0.15198 -0.22309 0)
(-0.141822 -0.221356 0)
(-0.132184 -0.219036 0)
(-0.122552 -0.216083 0)
(-0.112668 -0.213205 0)
(-0.103212 -0.210485 0)
(-0.0940375 -0.209106 0)
(-0.0849333 -0.209214 0)
(-0.0757386 -0.208 0)
(-0.0661857 -0.205969 0)
(-0.0561097 -0.203208 0)
(-0.0463835 -0.200328 0)
(-0.0376084 -0.198649 0)
(-0.0296901 -0.197654 0)
(-0.0221726 -0.19731 0)
(-0.014564 -0.196412 0)
(-0.00650834 -0.194551 0)
(0.00148358 -0.192832 0)
(0.0091301 -0.191617 0)
(0.016584 -0.190522 0)
(0.0238762 -0.189397 0)
(0.0309816 -0.188386 0)
(0.0378841 -0.187404 0)
(0.0445634 -0.186384 0)
(0.0510062 -0.185281 0)
(0.0572263 -0.18405 0)
(0.0632781 -0.182662 0)
(0.0692649 -0.181131 0)
(0.0753376 -0.179494 0)
(0.081662 -0.177759 0)
(0.0883777 -0.175923 0)
(0.0956357 -0.174178 0)
(0.10358 -0.172447 0)
(0.112279 -0.170246 0)
(0.121901 -0.167997 0)
(0.132782 -0.166041 0)
(0.145461 -0.164127 0)
(0.160518 -0.162414 0)
(0.175008 -0.159641 0)
(0.182341 -0.154051 0)
(0.18719 -0.147489 0)
(0.188962 -0.139473 0)
(0.185779 -0.130176 0)
(0.177135 -0.119625 0)
(0.167197 -0.108782 0)
(0.164306 -0.0997234 0)
(0.16831 -0.0930715 0)
(0.174961 -0.0867005 0)
(0.18307 -0.0806175 0)
(0.191335 -0.0744777 0)
(0.199415 -0.0685028 0)
(0.206792 -0.0626536 0)
(0.21328 -0.0571187 0)
(0.218614 -0.0520007 0)
(0.222533 -0.0473618 0)
(0.224828 -0.043257 0)
(0.225041 -0.039874 0)
(0.223169 -0.0376098 0)
(0.21999 -0.0364489 0)
(0.216383 -0.0361994 0)
(0.213162 -0.0368534 0)
(-0.632827 -0.246526 0)
(-0.610027 -0.249289 0)
(-0.58768 -0.251576 0)
(-0.565582 -0.254265 0)
(-0.54367 -0.257868 0)
(-0.522123 -0.261576 0)
(-0.501 -0.263867 0)
(-0.480488 -0.26485 0)
(-0.46061 -0.265772 0)
(-0.440488 -0.265251 0)
(-0.419995 -0.263913 0)
(-0.399348 -0.262409 0)
(-0.378779 -0.260858 0)
(-0.358923 -0.259588 0)
(-0.340147 -0.257446 0)
(-0.322152 -0.255542 0)
(-0.304663 -0.253732 0)
(-0.287568 -0.251647 0)
(-0.270567 -0.249297 0)
(-0.253442 -0.246742 0)
(-0.236667 -0.243739 0)
(-0.220851 -0.240903 0)
(-0.206015 -0.238718 0)
(-0.191871 -0.237837 0)
(-0.17844 -0.23665 0)
(-0.165602 -0.234652 0)
(-0.152831 -0.231592 0)
(-0.140252 -0.228484 0)
(-0.129053 -0.224939 0)
(-0.119319 -0.221877 0)
(-0.110335 -0.220057 0)
(-0.101971 -0.218917 0)
(-0.0937395 -0.21689 0)
(-0.0847939 -0.214572 0)
(-0.0756435 -0.211899 0)
(-0.0671412 -0.210528 0)
(-0.058744 -0.210256 0)
(-0.0501815 -0.209383 0)
(-0.0413278 -0.207549 0)
(-0.032008 -0.204858 0)
(-0.0229425 -0.202023 0)
(-0.0146641 -0.200209 0)
(-0.00721441 -0.199076 0)
(8.72097e-06 -0.198649 0)
(0.00742832 -0.197184 0)
(0.0152394 -0.195031 0)
(0.0229058 -0.193293 0)
(0.0303342 -0.191824 0)
(0.037644 -0.190319 0)
(0.0448107 -0.188782 0)
(0.0517596 -0.187269 0)
(0.0584469 -0.185738 0)
(0.064847 -0.184167 0)
(0.0709762 -0.182514 0)
(0.0769143 -0.180749 0)
(0.0828073 -0.178898 0)
(0.0888439 -0.177007 0)
(0.0952157 -0.175068 0)
(0.102061 -0.172983 0)
(0.109471 -0.170845 0)
(0.117636 -0.168867 0)
(0.126781 -0.166834 0)
(0.137173 -0.164434 0)
(0.149326 -0.162148 0)
(0.163941 -0.160282 0)
(0.179704 -0.158171 0)
(0.189914 -0.153125 0)
(0.195789 -0.146816 0)
(0.199434 -0.139162 0)
(0.198112 -0.130206 0)
(0.190908 -0.119684 0)
(0.179845 -0.10831 0)
(0.174039 -0.0981096 0)
(0.176501 -0.0905576 0)
(0.182706 -0.0839485 0)
(0.190611 -0.077645 0)
(0.198865 -0.071429 0)
(0.206891 -0.0654122 0)
(0.214063 -0.0594778 0)
(0.220065 -0.0537981 0)
(0.224598 -0.0485988 0)
(0.227723 -0.0441243 0)
(0.229044 -0.0404205 0)
(0.228056 -0.0377113 0)
(0.22523 -0.0360649 0)
(0.221391 -0.0349898 0)
(0.217205 -0.0343261 0)
(0.213341 -0.0341492 0)
(-0.645917 -0.246996 0)
(-0.620225 -0.251599 0)
(-0.594859 -0.255707 0)
(-0.57028 -0.25862 0)
(-0.546487 -0.260183 0)
(-0.523595 -0.26152 0)
(-0.50137 -0.263574 0)
(-0.479581 -0.266218 0)
(-0.458335 -0.268674 0)
(-0.437855 -0.270597 0)
(-0.417829 -0.270775 0)
(-0.398169 -0.270551 0)
(-0.378449 -0.269293 0)
(-0.358306 -0.267196 0)
(-0.337906 -0.264372 0)
(-0.317943 -0.261533 0)
(-0.298805 -0.259251 0)
(-0.280833 -0.25659 0)
(-0.263642 -0.254472 0)
(-0.246994 -0.252611 0)
(-0.230707 -0.250095 0)
(-0.214358 -0.247526 0)
(-0.197914 -0.244842 0)
(-0.182169 -0.241961 0)
(-0.167841 -0.239226 0)
(-0.154558 -0.237703 0)
(-0.142093 -0.236942 0)
(-0.130497 -0.235663 0)
(-0.119462 -0.232961 0)
(-0.108491 -0.229725 0)
(-0.0981908 -0.226291 0)
(-0.0894378 -0.222763 0)
(-0.0815387 -0.220203 0)
(-0.0740208 -0.219779 0)
(-0.0665785 -0.218955 0)
(-0.058502 -0.216508 0)
(-0.0498646 -0.214043 0)
(-0.0417238 -0.212748 0)
(-0.0337873 -0.211935 0)
(-0.025659 -0.210744 0)
(-0.0172222 -0.208629 0)
(-0.00843754 -0.205471 0)
(-2.7952e-05 -0.202798 0)
(0.00774935 -0.200652 0)
(0.0149029 -0.199379 0)
(0.0219632 -0.198525 0)
(0.029343 -0.196458 0)
(0.0370018 -0.194033 0)
(0.0445156 -0.19208 0)
(0.051893 -0.190112 0)
(0.0591051 -0.188081 0)
(0.0660918 -0.1861 0)
(0.072783 -0.184117 0)
(0.0791461 -0.182085 0)
(0.0852148 -0.180014 0)
(0.0911052 -0.177924 0)
(0.0969913 -0.175816 0)
(0.10307 -0.173692 0)
(0.109534 -0.171579 0)
(0.116524 -0.169392 0)
(0.124159 -0.167041 0)
(0.132654 -0.164674 0)
(0.142439 -0.162448 0)
(0.154035 -0.160136 0)
(0.167978 -0.15777 0)
(0.184111 -0.15573 0)
(0.197271 -0.151429 0)
(0.204092 -0.145198 0)
(0.209619 -0.137823 0)
(0.210259 -0.128988 0)
(0.204867 -0.11849 0)
(0.19364 -0.106701 0)
(0.184706 -0.0953789 0)
(0.184736 -0.086653 0)
(0.190194 -0.07981 0)
(0.197713 -0.0733328 0)
(0.205911 -0.0671266 0)
(0.213834 -0.0611437 0)
(0.220855 -0.0553478 0)
(0.226412 -0.049791 0)
(0.230181 -0.0447214 0)
(0.232116 -0.0403006 0)
(0.232094 -0.0368874 0)
(0.22996 -0.0348717 0)
(0.226595 -0.0336388 0)
(0.222576 -0.0326512 0)
(0.21818 -0.031551 0)
(0.213504 -0.0304304 0)
(-0.662491 -0.251948 0)
(-0.636129 -0.255171 0)
(-0.609711 -0.258217 0)
(-0.583371 -0.261623 0)
(-0.556974 -0.265151 0)
(-0.531092 -0.268549 0)
(-0.506101 -0.270939 0)
(-0.482166 -0.272288 0)
(-0.459118 -0.27325 0)
(-0.43703 -0.274409 0)
(-0.415627 -0.275699 0)
(-0.394919 -0.276548 0)
(-0.374811 -0.276583 0)
(-0.355309 -0.276303 0)
(-0.335987 -0.274694 0)
(-0.31681 -0.272869 0)
(-0.297265 -0.26949 0)
(-0.277593 -0.265906 0)
(-0.25836 -0.262356 0)
(-0.240296 -0.259504 0)
(-0.223405 -0.256504 0)
(-0.207272 -0.254324 0)
(-0.19172 -0.252377 0)
(-0.176472 -0.250168 0)
(-0.161101 -0.247364 0)
(-0.145982 -0.244654 0)
(-0.132071 -0.241986 0)
(-0.119674 -0.239805 0)
(-0.108393 -0.238577 0)
(-0.0981166 -0.237471 0)
(-0.0886215 -0.234993 0)
(-0.0793433 -0.231626 0)
(-0.0701799 -0.227941 0)
(-0.0619218 -0.224356 0)
(-0.0547689 -0.221127 0)
(-0.0476841 -0.22073 0)
(-0.0404859 -0.220222 0)
(-0.0328047 -0.217835 0)
(-0.0247429 -0.215134 0)
(-0.0169808 -0.213785 0)
(-0.00941757 -0.212571 0)
(-0.00166602 -0.210817 0)
(0.00647088 -0.208026 0)
(0.0147496 -0.204457 0)
(0.0226236 -0.201905 0)
(0.0299445 -0.19945 0)
(0.036987 -0.198215 0)
(0.0440607 -0.196658 0)
(0.0515371 -0.19391 0)
(0.0591348 -0.191254 0)
(0.0665861 -0.188868 0)
(0.0738591 -0.186421 0)
(0.0808755 -0.184021 0)
(0.0875533 -0.181675 0)
(0.0938778 -0.179301 0)
(0.0999177 -0.176899 0)
(0.10582 -0.174498 0)
(0.111774 -0.172102 0)
(0.117962 -0.169696 0)
(0.124551 -0.167297 0)
(0.13171 -0.164892 0)
(0.139658 -0.162411 0)
(0.148773 -0.159896 0)
(0.159668 -0.157441 0)
(0.172956 -0.155027 0)
(0.18891 -0.152767 0)
(0.204144 -0.149265 0)
(0.212476 -0.143353 0)
(0.219469 -0.136448 0)
(0.222111 -0.127999 0)
(0.218722 -0.118028 0)
(0.208409 -0.10644 0)
(0.197115 -0.0944037 0)
(0.194257 -0.0844613 0)
(0.198591 -0.0770991 0)
(0.205547 -0.0702794 0)
(0.2135 -0.0638106 0)
(0.22115 -0.0576048 0)
(0.227817 -0.0517884 0)
(0.232782 -0.0463796 0)
(0.235805 -0.041602 0)
(0.236628 -0.037533 0)
(0.235263 -0.0345371 0)
(0.232183 -0.0327258 0)
(0.228405 -0.0312809 0)
(0.22433 -0.0301925 0)
(0.220123 -0.029068 0)
(0.215381 -0.0275536 0)
(-0.675059 -0.256076 0)
(-0.649366 -0.261649 0)
(-0.62308 -0.266485 0)
(-0.596663 -0.270372 0)
(-0.57007 -0.273218 0)
(-0.543631 -0.275612 0)
(-0.517308 -0.277943 0)
(-0.491337 -0.280404 0)
(-0.465829 -0.282508 0)
(-0.441299 -0.284266 0)
(-0.417613 -0.284876 0)
(-0.394999 -0.285141 0)
(-0.373123 -0.284763 0)
(-0.352204 -0.284469 0)
(-0.331971 -0.283342 0)
(-0.312396 -0.281947 0)
(-0.293468 -0.280266 0)
(-0.274832 -0.277864 0)
(-0.256347 -0.275114 0)
(-0.237657 -0.27148 0)
(-0.219026 -0.267201 0)
(-0.200979 -0.263202 0)
(-0.184315 -0.259985 0)
(-0.168847 -0.257282 0)
(-0.154141 -0.255349 0)
(-0.139984 -0.253535 0)
(-0.12599 -0.251059 0)
(-0.11214 -0.248182 0)
(-0.0990682 -0.24546 0)
(-0.0875306 -0.242771 0)
(-0.0773624 -0.240622 0)
(-0.0682129 -0.23867 0)
(-0.0598655 -0.235918 0)
(-0.0517859 -0.232482 0)
(-0.0436553 -0.228516 0)
(-0.035892 -0.224829 0)
(-0.0289552 -0.22159 0)
(-0.0220207 -0.220646 0)
(-0.0150271 -0.219991 0)
(-0.00760813 -0.217565 0)
(-1.09783e-05 -0.214474 0)
(0.00736706 -0.212808 0)
(0.014631 -0.211337 0)
(0.0220226 -0.209104 0)
(0.0297545 -0.205584 0)
(0.0375933 -0.202179 0)
(0.0452121 -0.199302 0)
(0.0522902 -0.196801 0)
(0.0593519 -0.195508 0)
(0.0665956 -0.192998 0)
(0.0741859 -0.18979 0)
(0.0817051 -0.186976 0)
(0.0890263 -0.184169 0)
(0.0960509 -0.181313 0)
(0.102728 -0.178554 0)
(0.109045 -0.17587 0)
(0.115102 -0.173196 0)
(0.12107 -0.17051 0)
(0.127138 -0.167811 0)
(0.133471 -0.165099 0)
(0.140238 -0.162383 0)
(0.147684 -0.159665 0)
(0.156199 -0.156952 0)
(0.166386 -0.154266 0)
(0.17896 -0.151624 0)
(0.194443 -0.149112 0)
(0.2107 -0.145982 0)
(0.221023 -0.14053 0)
(0.229045 -0.13395 0)
(0.233557 -0.125789 0)
(0.232189 -0.116158 0)
(0.223465 -0.104706 0)
(0.210661 -0.0920944 0)
(0.204283 -0.0809662 0)
(0.206817 -0.0728844 0)
(0.213045 -0.0659592 0)
(0.220688 -0.059505 0)
(0.228106 -0.0533654 0)
(0.234276 -0.0475996 0)
(0.238506 -0.0423641 0)
(0.240448 -0.0377943 0)
(0.240357 -0.0342256 0)
(0.23798 -0.0316977 0)
(0.234352 -0.0295465 0)
(0.230138 -0.0275231 0)
(0.225462 -0.0257591 0)
(0.220816 -0.024511 0)
(0.215988 -0.0243485 0)
(-0.671911 -0.260903 0)
(-0.649271 -0.267067 0)
(-0.625909 -0.272609 0)
(-0.60201 -0.277772 0)
(-0.577307 -0.282375 0)
(-0.552131 -0.286387 0)
(-0.526417 -0.289391 0)
(-0.500661 -0.291627 0)
(-0.474823 -0.293189 0)
(-0.449381 -0.294572 0)
(-0.424079 -0.295482 0)
(-0.399475 -0.296201 0)
(-0.375472 -0.296224 0)
(-0.35263 -0.295963 0)
(-0.330634 -0.294569 0)
(-0.309554 -0.292738 0)
(-0.289331 -0.290677 0)
(-0.269958 -0.288358 0)
(-0.25131 -0.285888 0)
(-0.23327 -0.283375 0)
(-0.21556 -0.280051 0)
(-0.198 -0.276509 0)
(-0.180431 -0.272269 0)
(-0.163216 -0.267874 0)
(-0.146951 -0.263733 0)
(-0.132194 -0.260726 0)
(-0.118444 -0.258575 0)
(-0.105305 -0.256635 0)
(-0.0925725 -0.254307 0)
(-0.0801012 -0.251194 0)
(-0.0682232 -0.247999 0)
(-0.0576088 -0.244627 0)
(-0.048401 -0.241339 0)
(-0.0401555 -0.238466 0)
(-0.0326533 -0.235011 0)
(-0.0252938 -0.231426 0)
(-0.0177824 -0.227556 0)
(-0.0104278 -0.22366 0)
(-0.00366742 -0.220473 0)
(0.00317278 -0.219392 0)
(0.0099646 -0.218441 0)
(0.017076 -0.215649 0)
(0.0242705 -0.212359 0)
(0.0312257 -0.210352 0)
(0.0382024 -0.208578 0)
(0.045372 -0.205736 0)
(0.0528801 -0.201937 0)
(0.0604854 -0.198756 0)
(0.0678882 -0.195375 0)
(0.0750888 -0.193106 0)
(0.0823215 -0.191169 0)
(0.089741 -0.187791 0)
(0.0972807 -0.184501 0)
(0.104602 -0.181473 0)
(0.111632 -0.178299 0)
(0.118316 -0.175065 0)
(0.124669 -0.171904 0)
(0.130805 -0.168806 0)
(0.136894 -0.165735 0)
(0.143112 -0.162672 0)
(0.149633 -0.15962 0)
(0.156697 -0.156599 0)
(0.164701 -0.153622 0)
(0.174252 -0.150693 0)
(0.186125 -0.147831 0)
(0.200953 -0.145075 0)
(0.21751 -0.142226 0)
(0.22977 -0.137272 0)
(0.238581 -0.131189 0)
(0.244693 -0.123688 0)
(0.245295 -0.114772 0)
(0.238588 -0.104065 0)
(0.225638 -0.0915756 0)
(0.216064 -0.0795328 0)
(0.216183 -0.0703758 0)
(0.221362 -0.0630811 0)
(0.228348 -0.0564148 0)
(0.235296 -0.0502051 0)
(0.240905 -0.0444461 0)
(0.244343 -0.0392706 0)
(0.2452 -0.034884 0)
(0.244187 -0.0314533 0)
(0.241223 -0.0288958 0)
(0.237484 -0.0265444 0)
(0.233183 -0.0242244 0)
(0.227768 -0.0220858 0)
(0.220884 -0.0210923 0)
(0.213585 -0.0231113 0)
(-0.650841 -0.262526 0)
(-0.630961 -0.270009 0)
(-0.610488 -0.27707 0)
(-0.589715 -0.283731 0)
(-0.568336 -0.289698 0)
(-0.546633 -0.295066 0)
(-0.524138 -0.299461 0)
(-0.501159 -0.303063 0)
(-0.477362 -0.305596 0)
(-0.453391 -0.307547 0)
(-0.428838 -0.30844 0)
(-0.404366 -0.308818 0)
(-0.379745 -0.308373 0)
(-0.355721 -0.307833 0)
(-0.332118 -0.306832 0)
(-0.309296 -0.305408 0)
(-0.287497 -0.303431 0)
(-0.266725 -0.300729 0)
(-0.246866 -0.29771 0)
(-0.227916 -0.294755 0)
(-0.209814 -0.2914 0)
(-0.192455 -0.288 0)
(-0.175649 -0.284506 0)
(-0.159187 -0.280603 0)
(-0.142919 -0.276422 0)
(-0.126845 -0.271625 0)
(-0.111431 -0.267253 0)
(-0.0973481 -0.26354 0)
(-0.0845214 -0.260619 0)
(-0.0723291 -0.258388 0)
(-0.0605745 -0.255681 0)
(-0.0493409 -0.252277 0)
(-0.0387768 -0.248387 0)
(-0.0292469 -0.244302 0)
(-0.0210004 -0.240083 0)
(-0.0134615 -0.236429 0)
(-0.00650952 -0.232577 0)
(0.000362576 -0.228799 0)