/*--------------------------------*- C++ -*----------------------------------*\
  =========                 |
  \\      /  F ield         | OpenFOAM: The Open Source CFD Toolbox
   \\    /   O peration     | Website:  https://openfoam.org
    \\  /    A nd           | Version:  7
     \\/     M anipulation  |
\*---------------------------------------------------------------------------*/
FoamFile
{
    version     2.0;
    format      ascii;
    class       volScalarField;
    location    "0.317";
    object      p;
}
// * * * * * * * * * * * * * * * * * * * * * * * * * * * * * * * * * * * * * //

dimensions      [0 2 -2 0 0 0 0];

internalField   nonuniform List<scalar> 
12359
(
0.0661793
0.075444
0.0503358
0.107335
0.0694808
0.153894
0.187394
0.17079
0.226239
0.141861
0.206961
0.280617
0.491462
0.114556
0.102571
0.394695
0.449498
0.0545395
0.054197
0.0874773
0.123139
0.254264
0.0816293
0.0932664
0.078239
0.0838529
0.0514291
0.0512795
0.0535484
0.0519032
0.0522925
0.0508075
0.0504885
0.0516454
0.0503698
0.0524609
0.0597332
0.06459
0.0680446
0.0620127
0.073205
0.0632601
0.0572764
0.0565663
0.0529084
0.0532555
0.0527156
0.0520552
0.0538722
0.0515065
0.0511944
0.0509953
0.050711
0.0549836
0.0506601
0.0505236
0.0560013
0.0504708
0.0504667
0.0504276
0.050555
0.0503475
0.0510588
0.508812
0.0555326
0.131411
0.0589265
0.0509903
0.0602178
0.349569
0.533831
0.0714464
0.050326
0.0611944
0.0980788
0.0503613
0.0507245
0.0503418
0.0580218
0.31728
0.128913
0.0457922
0.0494624
0.0514827
-0.059634
0.0263269
0.0456604
0.0481453
-0.0605978
-0.0537923
0.0501068
0.470479
0.0500912
0.0499549
0.050232
0.00715807
0.049487
0.050207
0.058929
0.0553204
0.107707
0.0502241
0.0266089
-0.113886
0.0444353
0.0148591
0.0492395
-0.057324
0.0301287
0.0144982
0.0495162
0.0459369
0.11055
0.0905303
0.0504962
0.0464891
0.0933411
0.0448645
-0.0633055
0.0494949
0.0496478
0.175446
0.0480489
0.00617992
0.044592
0.0462133
0.039002
0.0512599
0.0503349
0.044512
0.0467444
-0.00216913
-0.00383974
-0.00259294
0.0492706
0.00680445
0.0465716
0.00694747
0.0502561
0.0381309
0.0496259
0.0673847
0.0160159
0.0492414
0.00922221
0.145795
0.0494672
-0.046434
0.0442749
0.128228
0.0011193
0.0502432
0.0161744
0.047936
0.0500331
-0.18983
0.108321
-0.00159964
0.0495535
0.0509276
0.0462987
0.0509214
0.00427408
0.0132535
0.0494364
0.0463041
0.0473177
0.175428
0.0146471
-0.0652683
0.0503375
0.0503509
0.0135408
0.0782553
0.0444294
0.0417694
0.053621
0.0533735
0.110647
0.0430967
0.113959
0.050012
0.0503321
0.0454715
0.0575727
0.208353
0.0450695
0.0494333
0.00410326
0.0447658
0.049737
0.00722435
0.0120054
0.0478621
0.0136777
-0.11788
0.0338565
0.0459721
0.0166554
0.0450314
0.151004
0.00326949
0.0563174
0.0145429
0.0131615
0.0499914
0.0123922
0.0569726
0.00204132
0.0438976
0.0497552
-0.000140344
-0.000233983
-0.600433
0.199476
0.0502565
0.0456562
0.0504581
0.0453972
0.0679425
0.101144
0.044048
0.00624556
0.465723
0.0442212
0.0497261
0.0690682
0.0303317
0.0465703
0.0467026
0.0466598
0.0494369
0.0104739
0.0567221
0.049009
0.0555472
0.049488
0.0154169
0.0491469
0.280453
0.0494004
0.0243047
0.0493495
0.0561751
0.0454179
-0.0466925
0.0504467
0.00234669
0.0449236
0.0124683
0.00263593
0.0640719
0.0529577
0.0469406
0.333272
-0.614517
0.0494987
0.0437607
0.386254
-0.0403922
0.0558531
0.0466859
0.045949
0.0132772
0.076824
-0.500922
-0.0580309
0.0446515
0.0440594
0.00734376
0.0135139
0.0616416
0.0146205
0.0472173
0.0437181
0.0494099
0.0438901
-0.112206
0.0435045
0.0491038
0.0502124
0.0127554
0.0418694
0.0590099
0.0243244
0.0495573
0.0474304
0.0502367
0.0502144
0.0508882
0.00454044
0.0453823
-0.511091
0.0492456
0.049233
0.0264866
0.0451015
0.101133
0.0503543
0.051232
0.0501248
-0.100506
0.045294
0.0501315
0.0458869
0.0498888
0.0443182
0.0462089
0.0466944
0.0449842
0.0546384
0.203654
0.0441634
0.0523669
0.0646976
0.023316
-0.0466643
0.0441073
0.059579
0.37247
0.0502105
0.0205009
0.0490828
0.0341589
0.0492275
0.043732
0.222123
0.0196974
0.20811
0.0583623
0.0489782
0.0117556
0.00494272
0.048855
0.0109299
0.0124858
0.048812
0.0506229
0.0506166
0.0506818
0.0506555
0.282387
0.0495353
0.105267
0.000823971
0.056324
0.0142875
0.0198334
0.0267596
0.035082
0.0190082
0.035279
0.0582534
0.0213845
0.0226743
0.0923928
0.0682277
0.0157118
0.0665677
0.0664803
0.0171819
0.106607
0.0462622
0.0507205
0.032506
0.050683
0.046087
-0.219764
0.505702
0.0462641
0.0502846
0.0492874
0.0499091
0.0189189
0.0500342
0.05002
-0.0704499
0.0135308
-0.0484473
0.0481
0.0109713
0.0418248
0.0496379
0.0165217
0.0323808
0.110439
0.0326742
0.0465583
0.0490786
0.0130673
0.0107178
0.0434794
0.297621
0.0164435
0.00599445
0.0505798
0.0475558
0.0502656
0.405869
0.0131698
0.0481819
0.0636898
0.0654423
0.0496376
0.0496118
0.0498442
-0.057453
0.100954
0.0607568
0.0193967
1.2543e-05
0.0506228
0.114235
0.050269
-0.000177288
-0.0510133
0.304025
0.0554253
0.0921305
0.0294537
0.0238742
0.0368505
0.0321431
0.0519747
0.0369195
0.0164697
0.0500342
-0.038079
0.0595434
-0.004536
0.00919855
0.0564547
0.0971898
-0.153533
0.0183858
0.0406623
0.00520455
0.00900035
0.0200662
0.0451042
0.0497854
0.0539265
0.0492237
-0.00294449
0.0468166
0.0835954
0.0860781
0.0384633
-0.0549876
0.105454
0.0550429
0.0485182
0.393459
0.0488663
0.0481223
0.00665883
0.0502902
0.0483785
0.0480944
0.238368
0.189152
0.0510359
0.048159
0.110921
0.0486828
0.019697
0.015813
0.0139826
0.0486966
0.0498873
0.0492027
0.0501562
0.0859362
0.0203085
0.023212
0.0531933
0.0531099
0.0039211
0.0520488
0.0479429
0.0433012
0.120271
0.00585111
0.0502368
0.048469
0.0128438
0.0319741
0.049618
0.0463808
0.114412
0.0201993
0.00807845
0.0218792
0.0486826
0.0483152
-0.00436421
-0.0042348
0.0501383
0.03793
0.0512002
0.00517144
0.290856
0.049829
0.0470156
0.0488257
0.0158349
0.0548768
0.0540293
0.0464519
0.0505387
0.0312231
0.0767685
0.0408592
-0.0346929
0.0491262
-0.0397478
0.0481483
-0.167886
0.0192294
-0.00147253
0.0504701
0.0529459
0.0228979
0.0455441
0.0511403
0.0575111
0.055662
0.0558035
0.0704077
0.0147607
0.0142183
0.0494747
0.0452423
0.0200881
-0.00315967
0.0494747
0.0490875
0.012998
0.048831
0.226136
-0.159674
-0.0538248
0.049476
0.0426718
0.00113382
0.0544125
0.044732
0.45302
0.0491235
0.114987
0.0888501
0.0425723
0.0448986
0.0512898
0.0389504
0.000255203
0.0315315
0.052742
0.0495033
0.0503341
0.0548105
0.0535767
0.0561654
0.0149859
0.0509256
0.0491368
0.0215256
-0.0455662
0.0521699
0.000153061
0.0492984
0.0533527
0.0959335
0.00136029
0.00222648
0.0973406
0.0469916
0.00146812
0.0496701
0.0503861
0.0025133
0.0383087
0.0464273
0.0385038
0.0499549
0.0490893
0.0457615
0.0501886
0.00135258
0.103589
0.0597815
0.118617
0.0166346
0.0405304
0.113045
0.0637129
-0.00412009
0.0141228
0.0644912
0.0551259
0.0504082
0.0382545
0.0219684
0.0494705
0.0503008
0.0487867
0.0504497
-0.0142687
0.03837
0.0351919
0.105356
0.0578761
0.238583
0.00478988
0.00188337
0.0453793
-0.000195824
0.0499417
0.0511213
0.0491575
0.10919
0.114495
0.0475248
0.031672
0.209773
0.0164823
0.00632827
0.0394151
0.0646402
-0.134711
0.0484592
0.0514251
0.0499728
-0.00863586
0.0513024
0.0324373
-0.0545531
0.0491228
0.0783285
0.0579523
0.0424531
0.0525185
0.0477782
0.0507268
0.0544222
0.0507869
0.0506631
0.0538183
0.00616952
0.0108479
0.0424328
0.339761
0.00101001
0.425332
0.018129
0.0251245
0.0541556
0.0190794
0.0576151
0.00863526
0.334562
0.0983689
0.0563282
0.0447348
0.0549165
0.0535777
0.0223446
0.049783
-0.00415976
0.050775
0.100369
0.048874
-0.0123007
0.00908749
0.011962
0.0570287
0.0399576
0.00927962
0.0781429
0.00651933
0.0413582
0.00453667
0.0440381
0.0495133
0.0511192
-0.233483
0.0707308
0.0429301
0.0494233
0.0510092
0.0552287
0.0835255
0.010951
0.0187656
0.0487471
0.0444813
0.0561747
0.0428369
0.0409547
0.00339052
0.0563733
0.0577551
0.0101017
0.0444276
0.0412679
0.104806
0.0494724
0.0564467
-0.279012
0.0504354
0.00840757
0.0522207
0.0417475
0.0888399
0.010334
0.0521507
0.0197651
0.0499887
0.111662
0.0440645
0.0126722
0.0116987
0.113497
0.0498449
0.000794444
-0.00350632
0.0573188
0.0433726
0.0448948
0.0365052
0.232677
0.0542324
0.0502676
0.0556153
0.0500515
-0.128852
0.0428774
0.0106334
0.0326579
0.0194315
0.530834
0.0429704
-0.0584097
0.011443
-0.0512439
0.0194929
0.0526111
0.0429361
0.0325359
-0.0470304
-0.0347063
0.0481936
0.0481611
0.118222
0.0476741
0.20272
0.0210358
0.0694018
0.0451205
0.393751
-0.10668
0.0433944
0.0495198
0.0497022
0.0941946
0.0552957
0.060059
0.0527307
0.015807
0.0776848
-0.0150453
0.359271
0.0487968
0.083457
0.0153001
0.123587
0.0447666
0.114836
0.00815259
0.0954684
0.0527117
0.0494307
0.0104573
0.00753766
0.0187178
0.118212
0.0133312
0.0261496
0.0519695
0.0491748
0.0397892
0.250043
0.0396727
0.0126842
0.0672918
0.0208807
0.0372373
0.0534359
-0.00253419
0.0334711
0.0442534
-0.00764261
0.0589645
0.0272199
0.193591
0.0495038
0.0331725
0.050748
0.0572893
0.0464322
0.0516363
0.0494742
0.00286053
0.0435305
0.0784463
0.0137488
0.0955073
0.031818
0.0323815
0.0110994
-0.210737
0.0504225
0.0570047
0.0260408
-0.0712358
0.00800584
0.0497563
0.51968
0.0494392
0.0444454
-0.17795
0.0552406
0.0500873
0.0501397
0.0658248
0.0901649
0.0504313
0.0563004
0.109808
0.0512942
0.0536882
0.0531001
0.0484729
0.0910359
-0.015173
0.0544241
0.116904
0.0113366
0.0104315
0.00629826
0.0161238
0.053111
0.0444555
-0.0395463
0.00486711
0.0735514
0.0488883
0.0504768
0.118239
-9.39246e-05
0.034334
0.0396207
0.0340472
0.0526644
0.044006
0.083908
-0.251063
0.345082
0.0830203
0.0509599
0.0440694
0.080077
0.354307
0.111275
0.0497869
0.00163823
-0.0110549
-0.260258
0.0369596
-0.177218
0.0504472
0.0529324
0.0504899
0.0075278
0.0755237
-0.175435
0.0438984
-0.0865115
0.0474515
0.0513204
0.0111952
0.0545735
0.00244708
-0.0359719
0.0560151
0.0362859
0.0253202
0.0373425
0.0558467
0.0765603
0.0731896
0.0317966
0.0778081
0.0560314
0.050531
0.0534471
0.051037
0.104865
0.0236977
-0.00594159
0.00391686
0.0861571
0.0255826
0.0241784
0.0433792
-0.00713427
0.0350876
0.0553733
0.0499858
0.00114813
0.109121
0.0439239
0.0404159
0.0570405
0.0241506
0.103134
0.115745
0.0247041
0.269684
0.0229462
0.0870488
-0.0322659
0.0542363
0.0179455
0.0119274
0.0479017
0.0348185
0.0414906
0.0447508
0.0496591
0.0459666
-0.0122163
0.000287388
0.0451749
-0.107283
0.101341
0.050937
0.0523317
0.00292465
0.0508732
0.0772283
0.0144209
0.0059866
0.0507812
0.0530976
0.0496029
0.0508509
0.118576
-0.136248
0.0509618
0.0563388
0.0494824
-0.153084
0.0232677
0.0155728
0.0492302
0.0508604
0.0529361
0.0254858
0.0844535
0.0286642
0.0483586
0.0532505
0.0507262
0.0215755
0.0844576
0.0405171
0.050298
0.0315194
0.0261191
0.0758778
0.0458952
-0.0151027
0.144281
0.0478366
0.0335318
0.0529888
0.0442522
-0.207602
0.0558688
0.0509513
0.0121149
0.1053
0.0827359
-0.148447
0.0766279
0.0359088
0.0281951
0.0570104
0.040692
0.0356393
0.0562461
0.146188
0.0507502
-0.345673
0.0836179
0.179611
0.0406061
-0.00485946
0.0958393
-0.000589113
0.266129
0.00722696
0.0268897
0.0347689
0.0393187
0.0494574
0.0445385
0.0885632
0.00198442
0.0564298
0.0479172
0.00672754
0.0177701
0.00689432
0.0807371
0.00176654
0.00648259
0.0490553
0.0709903
-0.0418451
0.0873954
0.0494247
0.0356758
0.0538578
0.0494305
0.0697508
0.0504348
0.0446187
0.244421
0.0922505
-0.0151244
0.0504699
0.0499356
0.050079
0.0565825
0.0539861
-0.000601272
0.0541308
0.0498328
-0.016368
0.022097
0.00544717
0.0694523
0.0514185
0.0425769
0.0920007
0.0352039
0.050503
-0.0397041
0.0116737
0.111956
0.0505127
-0.247963
0.0977274
0.0512375
0.00300242
0.0390602
-0.0120535
0.0365943
0.00249341
0.0952859
0.0504802
0.0521195
0.0232704
0.0398126
0.05511
-0.00528547
0.0554053
0.0555442
0.0975182
0.047232
0.0536804
0.0363386
0.0104979
0.0510191
0.0554324
0.0535567
0.0493371
0.0967114
-0.0388923
0.0268128
0.0566731
0.0542254
0.0424652
0.0495135
-0.202848
0.0797901
0.0502271
0.0716794
0.0425463
0.0997584
0.1527
0.000687298
0.0555176
0.00662306
-0.000381373
0.0492216
0.0412837
0.000996812
0.0444213
0.0502819
0.0729616
0.028113
0.0542126
0.0503096
0.0420695
0.0850918
0.0508795
0.0323246
0.0504414
0.0413185
0.0676331
0.134792
0.0498827
-0.205996
0.0806554
0.0168672
-0.106835
0.0929036
0.0324068
-0.0284734
0.0571072
0.141195
0.209618
0.0541196
0.0449454
0.0449314
0.0522725
0.0541145
0.00749118
-0.0804214
-0.147567
0.00957932
0.147091
-0.00608327
0.0107803
-0.0402459
0.0497658
0.0525174
0.0473786
0.0257009
0.0496605
0.00879679
0.0373847
-0.00503552
0.0495269
0.0527858
0.0476063
-0.162202
0.1187
0.0787418
0.0619523
0.122603
0.0450894
0.0508892
-0.0159745
0.0371356
-0.0116648
0.00795859
0.0229755
0.00553967
0.015954
0.0575661
0.0492095
0.049585
-0.127042
0.0423151
0.0412368
0.053533
0.0027561
0.0194878
0.0499233
0.0204612
-0.0126304
-1.09288e-05
0.0947186
0.0541393
0.0500153
0.00568573
0.056724
0.0497613
0.000362277
0.00870194
0.0536337
0.137397
0.000757768
0.0500233
0.0500508
0.0492932
0.107508
-0.145748
0.039717
0.0111726
0.0529606
0.0534516
0.011894
0.0501923
0.184102
0.0160271
-0.0366112
0.152746
0.0310469
0.0492307
0.0495864
0.0338028
0.0568814
0.0492639
-0.195602
0.00644357
0.0448665
0.217989
0.101902
0.0441101
0.0494764
0.0500948
0.0533086
-0.0701791
0.159723
0.0339794
0.0778959
0.066998
0.00719627
-0.0797194
0.0393455
0.0549847
0.0534032
0.0174126
0.0418192
0.0488144
0.0523573
0.00502759
0.0540003
0.0334667
0.0558068
0.0818816
-0.00939921
0.0474182
0.0524618
-0.00179089
0.00442833
0.0593646
0.0521539
0.0769986
-0.00021819
0.0389095
0.0178756
0.0745358
0.017719
-0.0266927
0.0538161
0.156699
0.0492741
0.104873
0.00162455
0.0501724
0.0496924
0.387461
0.0503081
0.0565249
0.02623
0.0552215
0.0553509
0.0583289
0.0502155
0.050061
4.43923e-05
-0.0249982
0.047945
0.343665
0.0380024
0.0521438
0.243906
0.0983867
0.055187
0.0460866
0.0518365
0.088551
-0.289769
0.0550618
0.0478682
0.0493227
0.0523992
0.0643251
0.0172488
0.0545977
0.0651226
0.0533695
-0.16165
-0.00572957
0.00851504
0.110314
0.0377545
0.0522336
0.00539979
-0.120857
0.0537027
0.0495271
0.0521652
0.0461615
0.0551504
0.0488782
-0.00188251
0.0457117
0.0440753
0.302452
-0.0014118
-0.00524469
0.00485908
0.0550026
0.00186828
0.0864479
-0.0914558
0.0481662
0.0105155
0.0501829
0.240768
0.0495289
0.0499454
0.0306348
0.0493554
0.0262179
0.0596789
0.0552753
0.0479515
-0.0816058
0.0873447
0.0117516
0.0524309
0.0370353
-0.0381884
-0.00592363
0.0794514
0.0753693
0.0504258
0.0559271
0.0464528
0.0522357
0.0479353
0.0523821
0.090189
0.0746799
0.00800132
-0.108916
0.0255069
-0.00788285
0.0327799
-0.112919
0.0488542
-0.0285353
0.0522523
-0.00875859
-0.00370072
0.0259486
0.0498355
0.0297718
0.0111603
0.0326217
-0.00637643
0.237837
-0.107576
0.0522101
-0.00122186
0.0477954
-0.00307359
0.0915451
0.00465991
0.0451898
0.0582729
0.0107461
0.0530588
0.0379898
0.0503378
0.0451588
0.0495516
0.0560017
0.00700463
0.00127621
0.0497901
0.0846666
-0.0797036
0.49048
0.0491499
0.0737929
0.0272675
0.198963
0.0320153
-0.193025
-0.0350031
0.0477465
0.0252358
0.0657666
0.176162
0.0482944
0.0680918
0.0785791
0.0475965
-0.0896132
-0.00276858
0.0521171
0.0255166
-0.0274061
0.0765682
-0.0796971
0.0387381
0.0799062
0.0545798
0.0491418
0.0561333
0.0451818
-0.075344
-0.000530661
-0.0637038
0.0507962
-0.0719755
0.0305837
0.00470735
0.111176
0.0256902
0.0283614
-0.053294
0.0385008
0.0376015
0.00582869
0.0694865
0.0262846
0.00949553
0.0701142
-0.0916741
0.0860455
0.0353088
0.0882674
0.050728
0.112309
-0.000208984
0.100318
0.0538479
-0.0337495
0.0498203
0.0345016
0.00915245
-0.000611288
0.0576256
0.00664165
0.045703
0.506111
0.0559334
0.00577085
0.0916146
0.000355777
0.00793234
0.0502562
0.0320139
0.0495408
0.460329
0.0499757
0.0496903
0.0492937
-0.0123184
0.0441643
0.0448864
-0.00768141
0.0284865
0.0645791
0.0443204
0.0496103
0.106833
0.0480101
0.104585
0.00822954
0.0861379
0.0399758
0.0424128
0.026636
-0.0131245
0.0102757
0.0438375
0.536243
0.0499602
0.0496719
0.056146
-0.0846497
0.0537732
0.0312838
0.0785255
0.0539896
0.0420649
0.00403404
-0.0211749
0.0341705
-0.0440404
0.0549316
0.0456647
0.0149652
0.0198162
-0.000425404
0.0521787
0.0258697
0.0721589
0.203988
0.0375422
0.0497262
0.0451205
0.180035
0.0503064
0.0503083
-0.0358373
0.0327555
-0.0412211
0.0420726
0.0495312
0.193524
-0.0120799
0.0443045
0.0552756
0.0479018
-0.103026
0.0503152
0.0344228
-0.0254889
0.0503089
0.049597
0.00997792
0.0491593
0.0503184
0.0140816
0.0517614
0.0495784
0.0221153
0.0492568
-0.0115251
0.0495272
0.0592974
0.11903
0.00874124
0.050322
0.00640231
-0.185515
0.0421248
0.0743169
0.0476643
0.0332919
0.0482557
-0.016357
-0.00434878
0.0461044
0.0495984
0.134244
0.0299847
0.0164377
0.0121935
0.129586
0.0491777
0.00703474
0.0495838
-0.0174945
-0.00499963
-0.00284699
0.00857399
0.156022
-0.0722143
0.00575433
0.0109677
0.0467304
0.0524523
0.00219522
0.137313
0.098989
0.0338598
-0.0731491
0.0490639
-0.0619189
0.200421
0.0491118
-0.00565319
-0.0108374
0.0810769
0.00849025
0.00799813
0.0729071
0.0496649
-0.0111086
-0.0666672
0.244549
0.0550488
0.00319736
-0.0280954
0.143608
0.0516327
0.0495686
0.00674523
-0.0509412
0.041484
0.0683611
0.0498555
0.0491649
0.0570168
0.0547789
0.0260752
0.0555932
0.0495454
-0.0151482
0.036414
-0.0231848
0.0165233
0.0498454
0.0496069
0.144938
0.0545767
0.0803369
0.0611623
-0.0376205
0.0812893
0.0488786
-0.0221145
0.059217
0.0495702
0.0282358
0.037753
0.0418808
0.0943506
0.0262004
-0.126865
0.0409791
0.0494219
-0.0249808
0.0492493
-0.00547414
0.0317085
-0.0261287
-0.0466013
0.0964386
-0.0291908
0.0498854
-0.00722546
0.0537399
0.0719994
-0.0212167
0.0202349
-0.0216889
-0.0649791
0.172017
-0.00961609
0.0608747
0.0488638
0.0494582
0.0492257
-0.0294754
0.14102
0.0489234
-0.0129513
-0.0168699
0.0153254
0.0035032
0.0281896
0.109261
-0.0246786
0.0547514
0.0129342
0.0255598
0.0501762
0.0501935
0.0515863
0.054893
0.0119394
0.0497661
0.052313
0.0560668
0.0742077
0.000574103
0.0494818
-0.0168682
0.0495251
0.00513888
0.0143529
0.0519644
0.0452642
0.0024813
-0.0180181
0.0369849
0.0769609
0.0546734
0.027347
0.032708
0.049622
0.0538551
0.054137
0.0520294
0.0496651
0.069739
0.0496504
0.12586
0.0137544
-0.0942889
0.0496887
0.0596083
0.0498005
0.0497942
0.123172
0.0591709
0.0490664
0.338895
0.134993
0.0383116
0.0650687
0.0373138
0.120346
0.0211511
0.00969891
0.0545719
0.0560431
0.0495952
0.0506817
-0.00992869
0.0492178
0.0516454
0.124498
0.0520557
0.0537543
0.0282615
0.0496368
-0.0325486
0.0497223
0.0515885
0.00829374
0.00993074
-0.0583188
0.108862
0.0706795
0.0518278
0.0082703
0.0517664
0.0260575
0.0055776
0.0559274
-0.0274597
0.0503621
0.0271927
0.0702932
0.0528031
0.101749
0.0496887
0.055833
0.0495961
0.0298363
0.0491264
0.0524594
0.0247392
0.0459066
0.0707868
0.027657
0.0496312
0.0275119
0.0132165
0.0558426
0.00922124
-0.012912
0.0495918
0.0313134
0.109681
0.00381261
0.0564775
0.0442585
0.0446869
0.0256359
0.0571698
0.153388
0.0548849
0.0498488
0.0498772
-0.0164513
-0.00820339
-0.0188093
0.295087
0.100332
0.0498897
0.0266961
0.0121776
0.050211
-0.0473587
0.0541262
0.105206
-0.000207938
0.0516425
0.145739
-0.00695737
-0.0140536
0.0235924
0.0294925
0.0501213
0.0492067
0.0624573
0.0496207
0.0495746
0.137063
0.0521889
0.0641313
0.0489174
0.0391224
0.0447706
0.384717
0.0418746
0.0443432
-0.00731264
0.104052
0.0940758
0.0346815
0.10917
0.0497771
0.0460638
0.00552376
0.0717368
0.124231
0.0512895
-0.000617693
0.0404863
0.0491159
0.0522922
0.0496659
0.0636488
0.0419533
0.0501125
0.0306508
0.260194
0.0502162
0.0125368
0.0323789
0.0494144
0.0632761
0.0523696
0.0284001
0.0497326
0.0496042
0.0155717
0.0298984
0.0915438
0.142709
-0.2398
0.0556704
0.0646459
-0.030831
0.0336855
0.052308
0.0404723
-0.00119094
0.0496591
0.0534024
0.0495868
0.0303192
0.0656251
0.0192136
0.0496587
0.0613373
0.0349689
0.0544219
0.117984
0.0457431
0.0493905
0.0496565
0.0298652
0.023504
0.31603
0.060664
0.0825957
0.00542884
0.00562007
0.0494259
0.0994277
0.0496502
0.0496154
0.0501826
-0.001808
0.0550204
0.0355619
0.00727412
0.0213269
0.00693056
0.0303869
0.0649157
0.112923
0.0472146
0.0119694
0.0917683
0.033301
0.128598
0.0537478
-0.166386
0.142763
0.133386
0.0490576
-0.115959
0.00656113
0.00862127
0.137494
0.000105309
0.059272
0.0565906
0.0393315
0.0363464
0.0333847
0.211882
0.0742449
0.05418
0.0146542
0.0543479
0.0368163
0.0244541
0.093739
0.0365844
0.0684185
0.0840472
0.00577584
0.095698
0.0322928
0.050472
0.060333
0.0491258
0.0443442
0.0482359
0.0545485
0.0211911
-0.0384111
0.0493761
0.162657
0.0487489
0.0417782
0.00993313
0.0308332
0.0339763
0.0479898
0.00779914
0.0128224
0.25357
0.0496445
0.00967154
0.0367405
0.0133923
0.0501922
0.0498653
0.150001
0.0242058
0.0332286
-0.102068
0.0274307
0.0393381
0.137384
0.0154602
0.11842
0.0557504
0.0189478
0.0379889
0.045978
-0.0227686
0.00746764
0.0208738
0.0335244
0.0490462
0.00672479
0.00639889
-0.000955458
0.0402408
0.0376827
0.416781
-0.0384162
0.048675
-0.0101645
0.0210702
-0.0957712
0.0495613
0.0322573
0.0331365
0.049553
0.00465111
0.0284214
0.0533257
-8.10411e-05
-0.0188354
-0.00140634
0.0560148
0.0242596
0.0502278
0.0452122
-0.0245163
0.0826011
0.0286823
0.00758662
0.147183
0.0251592
0.0204199
0.0220872
0.00759988
-0.0231426
0.0480021
0.0225158
0.0170824
0.0925459
0.283371
0.013929
0.0356388
0.021559
0.0495586
0.0931551
0.0320496
0.00976226
0.0493516
0.0361619
0.00650242
0.0144343
0.149951
0.0111308
0.0303102
0.0302663
0.05476
0.00433066
0.0272686
0.0743295
0.0597401
0.0560102
0.0108329
0.0367328
0.0424292
0.0390383
0.0497178
0.00609273
0.062743
0.0301387
-0.00135297
-0.0416418
0.0442765
0.028254
0.0172721
0.0247255
0.0496809
0.100039
0.0988767
0.0730074
0.050169
0.235646
0.00746574
0.0537871
0.0897574
0.0491326
0.0579035
0.0335167
0.0265927
0.0539526
-0.0944441
0.0509738
0.059715
0.0433364
-0.00994878
-0.0271647
-5.14494e-05
0.0630149
0.0100162
0.0502028
0.0300811
0.0752415
0.0509943
0.15112
0.0179414
0.0286339
0.00863649
0.0670698
0.0226053
0.0385497
0.0493113
0.049475
0.0472914
0.0636649
0.121287
0.0168746
0.149138
0.0833564
0.0903347
0.0516439
0.0699841
0.00766172
0.0496078
-0.0176899
-0.0145131
0.0527455
0.0496161
0.0411717
0.0477169
0.049446
0.0652887
0.0351621
0.132378
0.0171083
0.036188
0.0891876
-0.0081623
0.00625148
0.0861027
0.0138164
0.0246863
0.0706506
0.0492039
0.0630753
0.0285872
0.122128
0.127356
0.223968
0.049487
0.124314
0.033583
0.0325432
0.104625
0.107806
0.099426
-0.0201006
0.0216046
0.066505
0.0219816
0.0403894
0.0464536
0.0915079
0.0489764
0.0176698
-0.0239484
0.0598823
-0.0220589
0.0485886
0.0830261
0.0552227
0.0314596
0.103256
0.162613
0.0217451
0.04379
0.0179215
0.0342152
0.0711962
0.000157288
0.0827853
-0.00125907
0.049498
0.0220495
-0.147973
0.097837
0.0367248
-0.0333444
0.0108326
0.0423977
0.0485356
0.10375
0.0934053
0.034513
0.057942
0.0513115
0.00646154
0.0445702
0.0052904
0.0809351
0.0364148
0.142157
0.0495054
0.0459767
0.00264249
0.0385154
0.03919
0.0664239
0.0568856
0.0305485
0.167923
0.108317
0.049313
0.0065631
0.0449806
0.0492438
0.133283
0.0490088
0.0227879
0.0256103
0.0489556
0.0490713
0.0527109
0.00789965
0.0617076
0.0980193
0.0290709
0.126895
0.0331334
0.0341453
0.037825
0.0789681
0.0497142
0.0399424
0.0381551
0.0275581
-0.0158261
0.0103468
0.0669739
0.0448002
0.0559682
0.0323602
0.0433152
0.061411
0.0225365
0.10646
0.0329321
0.0492726
0.00874151
0.087219
0.00794835
0.0494433
0.134866
-0.0205896
0.046221
0.0983428
0.00656532
0.0537978
0.0964591
0.00461185
0.089691
0.114482
0.00520144
0.0483567
0.0794781
0.0765477
0.0145322
0.0465296
0.0320884
0.0494639
0.0489424
0.0491945
0.0143096
0.0182905
0.0216641
0.0826237
-0.044563
0.169557
-0.0408629
0.0287673
0.0428653
-0.0282835
0.0501729
-0.0822545
0.0340336
0.024007
0.0194611
0.0295071
0.0655043
0.0420841
0.0333828
0.0546079
0.0494174
0.0783109
-0.0265498
0.0146998
0.0068861
0.0181536
0.052831
0.0284958
0.0170399
0.0552521
0.0249311
0.0392484
0.118788
0.0862387
0.0816643
0.0934827
-0.00100574
0.00029397
0.00648755
0.0238421
-0.00143935
0.0157804
0.0591378
0.0437304
0.131069
0.0745421
0.00791603
0.0497499
0.0957784
0.124555
0.0743304
0.0794266
0.0573512
0.0177601
0.113978
0.0296762
0.0242919
0.0346438
0.0337901
0.0485495
0.0292035
0.0302798
0.0543738
0.0211649
0.0308884
0.0449722
0.104137
0.0444316
0.040005
0.0756846
0.056225
0.0488759
0.0515359
0.00274182
0.0169689
0.0503322
0.0723881
-0.0371087
0.00724358
0.0563795
0.0205277
-0.0141297
-0.0313307
-0.00234152
0.0343752
0.0348615
0.0557064
0.0339421
0.026773
-7.04425e-05
-0.000881383
0.00396011
0.000867241
0.0356605
0.0484545
0.0481904
0.129434
0.0627748
0.0360664
0.0394525
-0.000719502
0.0453144
0.0281864
0.150183
0.087815
0.0121471
0.0547889
0.0173628
0.049098
0.0095125
0.00116279
0.0283722
0.0491787
0.0595847
0.16637
0.0426473
0.0891878
-0.0115487
0.0495477
0.0352755
0.0945056
0.101578
0.0705499
0.0502695
0.0460068
0.0470382
0.0501173
0.0492277
0.0418481
0.00764804
0.0491722
0.0569211
0.0543305
-0.383755
0.120399
0.0470406
0.0494824
0.0114267
0.0176802
0.0243788
0.0767383
0.0187335
0.048664
0.0429866
0.0057469
0.0500521
0.0151192
0.0926285
0.0715456
0.0478533
0.0130529
0.0497958
0.0400513
0.0381005
0.0424597
-0.00170592
0.0599028
0.0354657
0.0340769
0.111045
0.0818098
0.0490872
0.0496088
0.0371655
0.032796
0.0149601
0.0214819
0.040686
0.00847111
0.080539
0.0501442
0.0387607
0.00639915
0.0413393
0.0852467
0.0641278
0.0522365
0.151072
0.0231558
0.126695
0.140124
0.0285093
-0.00217731
0.00019186
0.123218
0.0410683
0.00779642
0.0745638
0.0369694
0.0224802
0.0891817
0.0725914
0.0515931
0.0032888
0.0325226
0.0289355
0.0413563
0.00670143
0.0512364
0.0807492
0.0510459
0.0582233
0.086453
0.055494
0.0433228
0.106252
0.00826977
0.0916082
0.0295358
0.0725948
0.00937168
0.0623132
0.0128477
0.050752
0.0313829
0.0105975
0.0679444
0.0284414
0.0507165
0.0428752
0.0161387
0.0462858
0.0356474
0.0569128
0.0371081
0.0234106
-6.25812e-05
0.0958226
0.104611
0.100341
0.0419762
0.0420191
0.0362946
0.0200806
0.0295983
0.0498839
0.0549663
0.0704923
0.0253628
0.0591412
0.00575359
0.0319524
0.0575238
0.0339541
0.0332169
0.0444519
0.0308011
0.0384798
0.133649
0.262535
0.0236659
0.0269535
0.0300132
0.0322407
0.0400685
0.0356723
0.0342391
0.0239417
0.014132
0.0482188
0.0494672
0.0484386
0.00719752
0.0494295
0.0304668
0.0434094
0.0317999
0.0601882
0.0347299
0.122539
-0.00499311
0.049083
0.0358543
0.0912778
0.0423852
0.0615012
0.0882148
0.054201
0.0493169
0.0306025
0.00505271
0.0860594
0.00492384
0.115077
0.083062
0.00463757
0.0637836
0.0688202
0.0113693
0.043801
0.0488259
0.0507604
0.037224
0.0489797
0.0331797
-0.0259181
0.0481672
0.0805158
0.0440705
0.0629364
0.0636407
0.159698
0.0554932
0.0428307
0.00557254
0.0144191
0.0872561
0.0321981
0.0837238
0.050639
0.038581
0.0655893
0.0465113
0.0336364
0.0501575
0.0506744
0.0322623
0.0489369
0.0355751
0.0619386
0.0810554
0.0157069
0.0487069
0.00750659
0.00284917
0.0681681
0.0592656
0.0515132
0.0686531
0.132554
0.0494498
0.0412609
0.0475269
0.061403
0.0398766
0.0362751
0.0402923
0.0742916
0.0836863
0.033203
0.0796325
0.0904631
0.0604899
0.108092
0.0581
0.0788001
0.027164
0.0433095
0.0225813
0.0502379
0.0654769
0.0510178
0.0836162
0.0027467
0.0555419
-0.00946101
0.0451721
0.0277584
0.117341
0.00855834
0.0475478
0.0491193
0.00587596
0.107549
0.027988
0.0303081
0.0170549
0.0453705
0.0809492
0.0386507
0.0478219
0.0371113
0.00919692
0.0434453
0.0413417
0.387178
0.0402792
0.0510513
0.0596395
0.0650858
0.0437249
0.0326261
0.0494753
0.10204
0.0425408
0.0494589
0.0142987
0.0376948
0.0298395
0.0419223
0.0636706
0.04312
0.0454301
0.0447572
0.0348317
0.080424
0.0494991
0.0399539
0.0580848
0.046115
0.0408073
0.0555487
0.055598
0.0600781
0.0603486
0.0495619
0.0441316
0.051558
0.0299678
-0.000943219
-0.000231755
0.147471
0.0749349
-0.00760329
0.0317566
0.0489392
0.0521742
0.0589269
0.0743104
0.0498557
0.0285707
0.0762734
0.057312
0.0270753
-0.00720234
0.0224674
0.0488581
0.0386383
0.0493452
0.0941593
0.236472
0.0404793
0.0577572
0.0428951
0.00687681
0.0491195
0.0728073
0.0287647
0.0462332
0.0500139
0.0343205
0.0968754
0.0394901
0.0567815
0.0268885
0.0429357
0.0443951
0.0879663
0.0609976
0.0413384
0.0515861
0.0400445
0.0551348
0.038902
0.0497915
0.0401781
0.0491993
0.0551104
0.0117524
0.0687923
0.0172649
0.0740238
0.0740324
0.0535052
0.0397604
0.0363855
0.077552
0.0921616
0.0114709
0.0426087
0.0558493
0.0586928
0.0406957
0.0480181
0.044618
0.0379005
0.029283
0.029011
0.0451757
0.0156746
0.0404399
0.0795111
0.0414741
0.0436966
0.0394932
0.0248623
0.0842468
0.0543197
-0.000971869
0.0402675
0.0421563
0.0108052
0.0523133
0.000682097
0.0517613
0.0425525
0.047285
0.0476135
0.0503951
0.0435609
0.00480373
0.0494749
0.0217947
0.0721486
0.0518858
0.0582941
0.0341211
0.0962335
0.0609314
0.0498823
0.0359248
-0.0521781
0.0496038
0.00586743
-0.0641429
0.0660926
0.085679
0.0532427
0.0418946
0.0310695
0.0717924
0.0592845
0.0495884
0.0925452
0.0119682
0.0814802
0.0495045
0.0488819
0.0441643
0.0450111
0.0456668
0.066379
0.0768436
0.0467096
-0.00107387
0.0465969
0.0535969
0.0424487
0.0332365
-5.23551e-05
0.0489426
0.0429136
0.0246538
0.0432953
0.0470076
0.0518639
0.127457
0.0738666
0.0499549
0.0628247
0.0538308
0.0425126
0.0760784
0.0599602
0.0447918
0.0632362
0.0378414
0.0629375
0.0852441
0.00283018
0.0246266
0.0500504
0.0705011
0.0478222
0.0519951
0.050896
0.0428203
0.0019639
0.000470831
0.0591466
0.0344069
0.0360265
0.0290048
0.0486332
0.0481964
0.0499591
0.0711434
0.0357757
0.0495455
0.0426139
0.0547426
0.0239636
0.0102914
0.0495641
0.0490547
0.0374062
0.0487261
0.0480566
0.0433016
0.0459438
0.0407928
0.066367
0.0620458
0.0350243
0.0473759
0.0532261
0.0584567
0.0430725
0.049489
0.0437852
0.0317648
0.00169646
0.00584193
0.0365536
0.122507
0.0434648
-0.0543531
0.0889074
0.0429619
0.0417909
0.0539604
0.0490727
0.0495659
0.0538227
0.0570169
0.0425709
0.0511543
0.0487025
0.0967967
0.00634737
0.0344122
0.0497106
0.0551804
0.0631964
0.0705046
0.0334561
0.0518176
0.0494229
0.0479499
0.0438784
0.0299336
0.0276483
0.00668726
0.0620646
0.047856
0.041258
0.0563734
0.0538061
0.0532767
0.0467987
0.0583308
0.0495674
0.016224
-0.00181854
0.0487024
0.0666422
0.0424718
0.0454352
0.0470104
0.050829
-0.0329966
0.0635631
-0.000387326
0.0440495
0.00912198
0.052499
0.0691927
0.128509
0.0555651
0.0497497
0.0314454
0.0243424
0.110771
0.0426643
0.0670085
0.0457102
0.0490893
0.06564
0.0471012
0.121208
5.7073e-05
0.0786155
0.0527953
0.0483378
0.0495368
0.0479703
-0.0249984
0.0397846
0.0489889
0.0564438
0.0477967
0.0490664
0.0488604
0.0116538
0.00415326
0.0546277
0.0484588
0.0823064
0.0558013
0.102026