/*--------------------------------*- C++ -*----------------------------------*\
  =========                 |
  \\      /  F ield         | OpenFOAM: The Open Source CFD Toolbox
   \\    /   O peration     | Website:  https://openfoam.org
    \\  /    A nd           | Version:  7
     \\/     M anipulation  |
\*---------------------------------------------------------------------------*/
FoamFile
{
    version     2.0;
    format      ascii;
    class       volScalarField;
    location    "11";
    object      p;
}
// * * * * * * * * * * * * * * * * * * * * * * * * * * * * * * * * * * * * * //

dimensions      [0 2 -2 0 0 0 0];

internalField   nonuniform List<scalar> 
15200
(
-0.300572
-0.316035
-0.35066
-0.436127
-0.474057
-0.374152
-0.227863
-0.11172
-0.0349168
0.00575501
0.0254581
0.031152
0.0320341
0.0290454
0.0254907
-0.301693
-0.316241
-0.350857
-0.438399
-0.479762
-0.380847
-0.232771
-0.115335
-0.0379365
0.00331043
0.0233508
0.0293669
0.0304327
0.0277234
0.0243157
-0.303868
-0.3166
-0.351139
-0.442445
-0.489834
-0.392755
-0.241677
-0.122313
-0.0439462
-0.00178368
0.0188492
0.025618
0.027082
0.0249922
0.021919
-0.306967
-0.317016
-0.351306
-0.447396
-0.502024
-0.407549
-0.252965
-0.131992
-0.0526347
-0.009468
0.0119726
0.0199158
0.0220767
0.0209391
0.0184841
-0.310813
-0.317368
-0.351107
-0.452152
-0.513665
-0.422146
-0.264901
-0.143195
-0.0632759
-0.0191996
0.00325493
0.0126882
0.0159199
0.015976
0.0144021
-0.315207
-0.31753
-0.350284
-0.455527
-0.522205
-0.433325
-0.275999
-0.154548
-0.0748195
-0.0300606
-0.00646348
0.0046187
0.00920035
0.0105806
0.0100302
-0.319945
-0.317399
-0.348611
-0.456443
-0.526989
-0.439625
-0.284603
-0.164874
-0.0862209
-0.0411153
-0.0163831
-0.00366446
0.00237814
0.00511139
0.00560799
-0.324839
-0.316919
-0.346003
-0.45423
-0.524876
-0.439876
-0.289826
-0.173408
-0.0966906
-0.0516389
-0.0259125
-0.0117178
-0.00424134
-0.000218369
0.00127628
-0.32974
-0.316075
-0.34265
-0.447717
-0.517675
-0.434158
-0.291456
-0.179822
-0.105776
-0.0611828
-0.0347001
-0.0192791
-0.0104821
-0.00529763
-0.00287559
-0.334544
-0.31485
-0.33843
-0.437324
-0.505984
-0.423409
-0.289756
-0.18411
-0.113306
-0.0695334
-0.0425816
-0.0262093
-0.0162565
-0.010065
-0.00678769
-0.339186
-0.313408
-0.333491
-0.423655
-0.490305
-0.408948
-0.285292
-0.186452
-0.119287
-0.0766359
-0.0495088
-0.0324462
-0.0215259
-0.0144832
-0.0104396
-0.343622
-0.311952
-0.328071
-0.408573
-0.471093
-0.392056
-0.27875
-0.187126
-0.123825
-0.0825268
-0.0554966
-0.0379748
-0.0262739
-0.0185392
-0.0138219
-0.347803
-0.310749
-0.322283
-0.393729
-0.449186
-0.373813
-0.270792
-0.186434
-0.12707
-0.087291
-0.0605938
-0.0428054
-0.0305004
-0.0222364
-0.0169184
-0.351637
-0.309993
-0.316095
-0.380248
-0.425866
-0.355063
-0.261969
-0.184661
-0.129184
-0.0910343
-0.0648645
-0.0469601
-0.0342204
-0.0255746
-0.0197174
-0.354939
-0.309645
-0.30957
-0.368044
-0.402399
-0.33642
-0.252688
-0.182047
-0.130323
-0.0938682
-0.068375
-0.0504712
-0.0374581
-0.0285452
-0.0221991
-0.357494
-0.309418
-0.302849
-0.35624
-0.379712
-0.318315
-0.243231
-0.178782
-0.13063
-0.0958998
-0.0711874
-0.0533796
-0.0402463
-0.0311344
-0.0243257
-0.358982
-0.309186
-0.296034
-0.344156
-0.35835
-0.301033
-0.233783
-0.175016
-0.13023
-0.0972268
-0.0733577
-0.0557352
-0.0426259
-0.0333286
-0.0260625
-0.358929
-0.309363
-0.289106
-0.331609
-0.338547
-0.284741
-0.224461
-0.170858
-0.12923
-0.0979346
-0.0749376
-0.057596
-0.0446338
-0.0351209
-0.0274248
-0.356936
-0.310847
-0.282071
-0.318706
-0.320318
-0.269507
-0.215341
-0.166396
-0.127721
-0.0980953
-0.0759799
-0.0590207
-0.0462849
-0.0365296
-0.0285226
-0.352862
-0.314643
-0.275139
-0.30563
-0.303549
-0.255329
-0.206467
-0.161697
-0.125781
-0.0977702
-0.0765409
-0.0600566
-0.0475754
-0.037621
-0.0296045
-0.346805
-0.32137
-0.268717
-0.292555
-0.288072
-0.242147
-0.197865
-0.156814
-0.123471
-0.0970125
-0.0766769
-0.0607335
-0.0485123
-0.0385024
-0.0308285
-0.338888
-0.330801
-0.263217
-0.279607
-0.273699
-0.229864
-0.189547
-0.151794
-0.120845
-0.0958709
-0.0764366
-0.0610718
-0.0491321
-0.0392823
-0.0318323
-0.329083
-0.341487
-0.258862
-0.266861
-0.260248
-0.218371
-0.181512
-0.146677
-0.117947
-0.0943899
-0.0758603
-0.061092
-0.049475
-0.0398806
-0.0325637
-0.317218
-0.350679
-0.255582
-0.254357
-0.247559
-0.207558
-0.173746
-0.141493
-0.114817
-0.0926092
-0.0749815
-0.0608177
-0.0495546
-0.0402555
-0.033098
-0.303203
-0.354937
-0.253017
-0.242134
-0.235502
-0.197325
-0.16623
-0.136268
-0.111487
-0.0905643
-0.0738293
-0.060269
-0.0493867
-0.040406
-0.0334056
-0.287425
-0.351442
-0.250637
-0.230258
-0.223984
-0.187584
-0.15894
-0.131018
-0.107987
-0.0882864
-0.0724286
-0.059468
-0.0489836
-0.0403313
-0.0335156
-0.271076
-0.339334
-0.247908
-0.218828
-0.21295
-0.17826
-0.151851
-0.125757
-0.104342
-0.0858024
-0.0708026
-0.0584333
-0.0483616
-0.0400515
-0.0334207
-0.256016
-0.3201
-0.244442
-0.207939
-0.202372
-0.169292
-0.144938
-0.120494
-0.100576
-0.0831359
-0.0689714
-0.0571852
-0.0475385
-0.0395715
-0.0331385
-0.244149
-0.29677
-0.240071
-0.197607
-0.192228
-0.160632
-0.138179
-0.115232
-0.0967069
-0.0803074
-0.0669542
-0.0557422
-0.0465296
-0.0389088
-0.0326725
-0.236735
-0.272475
-0.234827
-0.187749
-0.182494
-0.15224
-0.131552
-0.109974
-0.0927494
-0.0773355
-0.0647677
-0.0541224
-0.0453512
-0.0380703
-0.0320362
-0.234119
-0.249422
-0.228816
-0.178266
-0.173138
-0.144081
-0.125039
-0.104721
-0.0887165
-0.0742361
-0.062428
-0.0523426
-0.0440155
-0.0370715
-0.0312439
-0.235955
-0.228663
-0.222205
-0.169073
-0.16412
-0.136126
-0.118626
-0.0994719
-0.0846183
-0.0710232
-0.0599497
-0.0504183
-0.0425368
-0.0359226
-0.0303128
-0.241571
-0.210413
-0.215181
-0.160103
-0.155399
-0.128348
-0.1123
-0.0942252
-0.0804634
-0.0677087
-0.0573467
-0.0483637
-0.0409258
-0.0346384
-0.0292592
-0.250201
-0.194505
-0.20789
-0.151305
-0.146936
-0.12072
-0.106049
-0.0889795
-0.0762583
-0.0643034
-0.0546322
-0.0461909
-0.0391937
-0.0332311
-0.0280978
-0.26108
-0.180635
-0.200427
-0.142635
-0.138693
-0.11322
-0.0998632
-0.083734
-0.0720075
-0.0608176
-0.0518183
-0.0439103
-0.0373491
-0.0317158
-0.0268455
-0.273478
-0.168468
-0.192848
-0.134052
-0.130636
-0.105825
-0.0937307
-0.0784878
-0.0677133
-0.057261
-0.0489162
-0.0415302
-0.0354012
-0.030104
-0.0255164
-0.286707
-0.157675
-0.185184
-0.125519
-0.12273
-0.0985219
-0.0876402
-0.0732381
-0.0633812
-0.0536409
-0.0459357
-0.0390588
-0.0333583
-0.0284041
-0.0241195
-0.30013
-0.147937
-0.177444
-0.117002
-0.114935
-0.0912938
-0.0815893
-0.0679734
-0.0590282
-0.0499559
-0.0428857
-0.0365036
-0.0312298
-0.0266199
-0.0226503
-0.313169
-0.138955
-0.169623
-0.108475
-0.10722
-0.0841077
-0.0756006
-0.0626638
-0.0546879
-0.046193
-0.0397763
-0.0338724
-0.0290256
-0.0247553
-0.0210932
-0.325301
-0.130453
-0.161693
-0.0999074
-0.0995862
-0.0768886
-0.0697342
-0.05726
-0.0503986
-0.0423393
-0.0366187
-0.0311734
-0.0267552
-0.0228149
-0.0194351
-0.33607
-0.122184
-0.153611
-0.0912353
-0.0921076
-0.0695136
-0.0640681
-0.0517244
-0.0461676
-0.03841
-0.0334153
-0.0284194
-0.0244212
-0.0208023
-0.0176892
-0.345083
-0.113938
-0.145345
-0.0823276
-0.0849277
-0.0618734
-0.058613
-0.0461047
-0.041919
-0.034478
-0.0301458
-0.0256295
-0.0220201
-0.0187162
-0.0159084
-0.352007
-0.105511
-0.136942
-0.0729974
-0.0781462
-0.0540208
-0.0531902
-0.0405904
-0.0374905
-0.0306474
-0.0267931
-0.0228067
-0.0195576
-0.0165697
-0.0140863
-0.356566
-0.0966446
-0.128594
-0.0631357
-0.0715839
-0.0462991
-0.0474492
-0.0353516
-0.0328828
-0.0268791
-0.0234012
-0.0199375
-0.0170465
-0.0143743
-0.0122178
-0.358537
-0.0869783
-0.12055
-0.0529396
-0.0646522
-0.0390465
-0.0413763
-0.0303196
-0.0281768
-0.0231154
-0.0200043
-0.0170222
-0.0144968
-0.0121394
-0.0103046
-0.357745
-0.0761861
-0.112749
-0.0428905
-0.0570888
-0.0322023
-0.0350725
-0.0253961
-0.0234515
-0.0193182
-0.016614
-0.0140737
-0.0119177
-0.00987339
-0.00835208
-0.354106
-0.0643939
-0.104399
-0.0333843
-0.0489883
-0.0256318
-0.0286477
-0.0205007
-0.018759
-0.015477
-0.0132279
-0.0111075
-0.00931823
-0.00758462
-0.00636804
-0.347663
-0.0524425
-0.0946852
-0.0243459
-0.0404894
-0.0192104
-0.0221887
-0.015583
-0.0141239
-0.0116011
-0.0098415
-0.00813494
-0.00670712
-0.00528043
-0.00436033
-0.338545
-0.0400811
-0.0837755
-0.015595
-0.0317189
-0.0128445
-0.0157558
-0.0106207
-0.00955001
-0.00770875
-0.00645405
-0.00516284
-0.00409087
-0.00296658
-0.00233693
-0.326741
-0.0272165
-0.0718758
-0.00697912
-0.0227781
-0.00647057
-0.00938509
-0.00561323
-0.005031
-0.00381884
-0.00306969
-0.00219644
-0.0014751
-0.000647881
-0.000306046
-0.311828
-0.0141082
-0.0591718
0.00161313
-0.013745
-5.1541e-05
-0.00309459
-0.000573039
-0.000558646
5.36457e-05
0.000303992
0.000758445
0.0011337
0.00166906
0.00172639
-0.293526
-0.000951649
-0.0458095
0.0102599
-0.00467814
0.00642903
0.00310958
0.00448076
0.00387231
0.00389792
0.00365815
0.00369509
0.00372752
0.00397439
0.00375641
-0.272128
0.0124298
-0.0319118
0.0190122
0.00437901
0.0129718
0.00922751
0.00952767
0.00826261
0.00770617
0.00698429
0.00660702
0.00629843
0.00625476
0.00577418
-0.247911
0.0261553
-0.0175862
0.0278984
0.0133942
0.0195664
0.0152613
0.0145484
0.0126088
0.011472
0.0102751
0.00948895
0.00883916
0.00849315
0.00774856
-0.221148
0.0402946
-0.00292947
0.0369289
0.0223429
0.026195
0.0212123
0.0195261
0.0169047
0.0151895
0.0135246
0.012336
0.0113398
0.0106647
0.00961809
-0.192111
0.0548739
0.0119699
0.0460989
0.0312054
0.0328355
0.0270791
0.0244461
0.0211422
0.0188529
0.016728
0.0151419
0.0137828
0.0127316
0.0113158
-0.161086
0.0698892
0.027029
0.0553915
0.0399647
0.0394631
0.0328578
0.0292953
0.0253127
0.0224566
0.01988
0.0178967
0.016144
0.0146525
0.0128343
-0.128362
0.0853121
0.0421694
0.06478
0.0486048
0.0460524
0.038541
0.0340621
0.0294075
0.0259945
0.0229739
0.0205872
0.0184039
0.0164228
0.0142717
-0.0942385
0.101095
0.0573156
0.07423
0.057109
0.0525775
0.0441191
0.038735
0.0334179
0.0294596
0.0259995
0.0231978
0.0205608
0.018114
0.0158049
-0.0590208
0.117175
0.0723947
0.0837013
0.0654598
0.059013
0.0495805
0.0433033
0.0373352
0.0328435
0.0289446
0.0257156
0.0226302
0.0198224
0.0175889
-0.0230162
0.133475
0.0873354
0.0931494
0.0736378
0.0653339
0.054912
0.0477557
0.0411501
0.0361363
0.0317975
0.0281357
0.0246342
0.0215685
0.0197334
0.0134667
0.149907
0.102068
0.102527
0.081622
0.071516
0.0600995
0.0520813
0.044853
0.0393273
0.0345492
0.0304628
0.0266032
0.0234014
0.0217849
0.0501208
0.166375
0.116523
0.111784
0.0893898
0.0775356
0.0651283
0.0562684
0.0484335
0.0424058
0.0371934
0.0327064
0.0285596
0.0252854
0.0236557
0.0866427
0.182776
0.130633
0.12087
0.0969169
0.0833697
0.0699833
0.0603055
0.0518809
0.0453622
0.0397262
0.0348708
0.0304918
0.0271441
0.0253801
0.122735
0.199
0.14433
0.129734
0.104178
0.0889959
0.0746495
0.0641805
0.0551848
0.0481883
0.0421462
0.0369595
0.0323856
0.0289348
0.0269745
0.158108
0.214935
0.15755
0.138327
0.111147
0.0943923
0.0791117
0.0678815
0.0583349
0.0508767
0.0444501
0.0389658
0.0342187
0.0306402
0.0284612
0.192484
0.230467
0.170228
0.146599
0.117799
0.0995378
0.0833549
0.0713966
0.0613216
0.0534216
0.0466356
0.0408837
0.0359733
0.0322478
0.0298436
0.225594
0.245481
0.182302
0.154501
0.124105
0.104412
0.0873646
0.074714
0.0641356
0.0558163
0.0486968
0.0427032
0.0376373
0.0337565
0.0311252
0.257185
0.259864
0.19371
0.161988
0.130042
0.108995
0.0911266
0.0778228
0.0667687
0.0580556
0.0506289
0.0444151
0.039199
0.0351609
0.0323062
0.287018
0.273503
0.204394
0.169017
0.135582
0.113268
0.0946272
0.0807121
0.0692126
0.0601333
0.0524255
0.046012
0.0406528
0.0364591
0.0333855
0.31487
0.286292
0.214299
0.175545
0.140704
0.117214
0.0978536
0.0833721
0.0714602
0.0620435
0.0540801
0.0474856
0.041992
0.0376478
0.0343632
0.340539
0.298126
0.223373
0.181535
0.145382
0.120816
0.100794
0.0857936
0.0735043
0.0637808
0.0555874
0.0488302
0.0432119
0.0387243
0.0352389
0.363843
0.308907
0.231567
0.186952
0.149598
0.124058
0.103437
0.0879682
0.0753386
0.0653395
0.0569414
0.0500399
0.0443084
0.0396862
0.036013
0.384616
0.318543
0.238837
0.191763
0.15333
0.126926
0.105772
0.0898882
0.0769571
0.066715
0.0581373
0.0511097
0.0452774
0.0405316
0.0366859
0.402709
0.326956
0.245144
0.19594
0.156563
0.129408
0.107791
0.0915469
0.0783546
0.0679025
0.0591708
0.0520353
0.0461154
0.0412586
0.0372587
0.417991
0.334074
0.250453
0.19946
0.159281
0.131494
0.109486
0.0929385
0.0795265
0.0688983
0.0600379
0.0528128
0.0468192
0.0418661
0.0377325
0.430352
0.339841
0.254736
0.2023
0.16147
0.133173
0.110849
0.0940578
0.0804688
0.0696989
0.0607355
0.0534389
0.047386
0.0423531
0.0381088
0.439702
0.344208
0.257968
0.204445
0.163122
0.134439
0.111877
0.0949008
0.0811783
0.0703018
0.061261
0.053911
0.0478132
0.0427188
0.0383892
0.445974
0.34714
0.260133
0.205882
0.164227
0.135286
0.112564
0.0954646
0.0816526
0.0707048
0.0616125
0.054227
0.0480992
0.0429628
0.0385752
0.449121
0.348611
0.261219
0.206602
0.164781
0.13571
0.112909
0.0957469
0.0818902
0.0709066
0.0617885
0.0543853
0.0482425
0.0430848
0.0386678
0.449121
0.348611
0.261219
0.206602
0.164781
0.13571
0.112909
0.0957469
0.0818902
0.0709066
0.0617885
0.0543853
0.0482425
0.0430848
0.0386678
0.445974
0.34714
0.260133
0.205882
0.164227
0.135286
0.112564
0.0954645
0.0816526
0.0707048
0.0616125
0.054227
0.0480992
0.0429628
0.0385752
0.439702
0.344208
0.257968
0.204445
0.163122
0.134439
0.111877
0.0949008
0.0811782
0.0703018
0.061261
0.053911
0.0478132
0.0427188
0.0383892
0.430352
0.339841
0.254736
0.2023
0.16147
0.133173
0.110849
0.0940578
0.0804687
0.0696989
0.0607355
0.0534389
0.0473859
0.0423531
0.0381088
0.417991
0.334074
0.250453
0.19946
0.159281
0.131494
0.109486
0.0929384
0.0795265
0.0688983
0.0600379
0.0528128
0.0468192
0.0418661
0.0377325
0.402708
0.326955
0.245144
0.19594
0.156563
0.129408
0.107791
0.0915469
0.0783546
0.0679025
0.0591707
0.0520353
0.0461154
0.0412586
0.0372587
0.384616
0.318543
0.238837
0.191763
0.15333
0.126926
0.105772
0.0898882
0.0769571
0.066715
0.0581373
0.0511097
0.0452774
0.0405315
0.0366859
0.363843
0.308907
0.231567
0.186952
0.149598
0.124058
0.103436
0.0879681
0.0753385
0.0653395
0.0569413
0.0500399
0.0443084
0.0396862
0.036013
0.340539
0.298126
0.223373
0.181535
0.145382
0.120816
0.100794
0.0857936
0.0735043
0.0637807
0.0555873
0.0488302
0.0432119
0.0387243
0.0352389
0.31487
0.286292
0.214299
0.175545
0.140703
0.117214
0.0978536
0.0833721
0.0714601
0.0620434
0.0540801
0.0474855
0.0419919
0.0376478
0.0343632
0.287018
0.273503
0.204394
0.169017
0.135582
0.113268
0.0946271
0.080712
0.0692125
0.0601332
0.0524255
0.0460119
0.0406528
0.036459
0.0333855
0.257185
0.259863
0.193709
0.161988
0.130042
0.108995
0.0911265
0.0778227
0.0667686
0.0580556
0.0506289
0.0444151
0.0391989
0.0351609
0.0323061
0.225594
0.245481
0.182301
0.154501
0.124105
0.104412
0.0873645
0.074714
0.0641355
0.0558162
0.0486968
0.0427032
0.0376372
0.0337564
0.0311252
0.192483
0.230467
0.170228
0.146598
0.117799
0.0995377
0.0833548
0.0713965
0.0613215
0.0534215
0.0466355
0.0408837
0.0359732
0.0322477
0.0298436
0.158108
0.214935
0.15755
0.138327
0.111147
0.0943922
0.0791116
0.0678814
0.0583349
0.0508767
0.04445
0.0389658
0.0342187
0.0306402
0.0284612
0.122734
0.199
0.14433
0.129734
0.104178
0.0889957
0.0746494
0.0641804
0.0551848
0.0481882
0.0421462
0.0369594
0.0323856
0.0289347
0.0269744
0.086642
0.182775
0.130632
0.12087
0.0969167
0.0833695
0.0699832
0.0603054
0.0518808
0.0453621
0.0397261
0.0348707
0.0304918
0.0271441
0.0253801
0.0501201
0.166375
0.116522
0.111783
0.0893896
0.0775354
0.0651282
0.0562683
0.0484334
0.0424057
0.0371934
0.0327064
0.0285595
0.0252854
0.0236556
0.013466
0.149907
0.102067
0.102526
0.0816218
0.0715158
0.0600994
0.0520812
0.0448529
0.0393272
0.0345492
0.0304627
0.0266031
0.0234014
0.0217849
-0.023017
0.133475
0.0873351
0.0931491
0.0736376
0.0653337
0.0549119
0.0477556
0.04115
0.0361362
0.0317974
0.0281357
0.0246341
0.0215684
0.0197334
-0.0590216
0.117175
0.0723944
0.083701
0.0654596
0.0590128
0.0495803
0.0433031
0.0373351
0.0328434
0.0289445
0.0257155
0.0226301
0.0198224
0.0175889
-0.0942394
0.101095
0.0573152
0.0742297
0.0571088
0.0525773
0.0441189
0.0387349
0.0334178
0.0294596
0.0259994
0.0231978
0.0205607
0.0181139
0.0158048
-0.128363
0.0853117
0.042169
0.0647797
0.0486045
0.0460522
0.0385408
0.0340619
0.0294074
0.0259944
0.0229738
0.0205871
0.0184039
0.0164228
0.0142716
-0.161086
0.0698887
0.0270286
0.0553912
0.0399645
0.039463
0.0328576
0.0292952
0.0253126
0.0224565
0.0198799
0.0178967
0.016144
0.0146524
0.0128343
-0.192112
0.0548735
0.0119694
0.0460986
0.0312051
0.0328353
0.027079
0.024446
0.0211421
0.0188528
0.0167279
0.0151418
0.0137828
0.0127315
0.0113157
-0.221149
0.0402942
-0.00292994
0.0369286
0.0223426
0.0261948
0.0212121
0.019526
0.0169046
0.0151894
0.0135246
0.012336
0.0113398
0.0106646
0.00961806
-0.247912
0.0261548
-0.0175867
0.0278981
0.0133939
0.0195661
0.0152611
0.0145483
0.0126087
0.0114719
0.010275
0.00948889
0.00883911
0.00849311
0.00774853
-0.272129
0.0124293
-0.0319123
0.0190118
0.00437871
0.0129716
0.00922733
0.00952753
0.00826249
0.00770608
0.00698422
0.00660696
0.00629838
0.00625472
0.00577415
-0.293527
-0.000952179
-0.04581
0.0102596
-0.00467844
0.00642882
0.0031094
0.00448062
0.0038722
0.00389783
0.00365808
0.00369503
0.00372747
0.00397435
0.00375638
-0.311829
-0.0141087
-0.0591723
0.00161278
-0.0137453
-5.17524e-05
-0.00309477
-0.000573177
-0.000558757
5.3557e-05
0.000303921
0.000758388
0.00113365
0.00166903
0.00172637
-0.326743
-0.0272171
-0.0718763
-0.00697948
-0.0227784
-0.00647078
-0.00938528
-0.00561337
-0.00503111
-0.00381892
-0.00306976
-0.00219649
-0.00147514
-0.000647916
-0.000306072
-0.338547
-0.0400817
-0.0837761
-0.0155954
-0.0317192
-0.0128447
-0.015756
-0.0106209
-0.00955012
-0.00770883
-0.00645412
-0.0051629
-0.00409091
-0.00296661
-0.00233696
-0.347664
-0.0524431
-0.0946858
-0.0243462
-0.0404897
-0.0192106
-0.0221889
-0.0155831
-0.014124
-0.0116012
-0.00984156
-0.00813499
-0.00670716
-0.00528046
-0.00436035
-0.354108
-0.0643945
-0.104399
-0.0333847
-0.0489887
-0.025632
-0.0286479
-0.0205008
-0.0187591
-0.0154771
-0.013228
-0.0111075
-0.00931826
-0.00758464
-0.00636806
-0.357746
-0.0761868
-0.11275
-0.0428909
-0.0570892
-0.0322025
-0.0350727
-0.0253963
-0.0234516
-0.0193182
-0.016614
-0.0140737
-0.0119177
-0.00987342
-0.00835209
-0.358538
-0.086979
-0.120551
-0.0529399
-0.0646526
-0.0390467
-0.0413765
-0.0303197
-0.0281769
-0.0231154
-0.0200044
-0.0170222
-0.0144969
-0.0121394
-0.0103046
-0.356568
-0.0966453
-0.128595
-0.0631361
-0.0715843
-0.0462993
-0.0474493
-0.0353517
-0.0328829
-0.0268791
-0.0234013
-0.0199376
-0.0170466
-0.0143743
-0.0122178
-0.352008
-0.105512
-0.136943
-0.0729978
-0.0781466
-0.054021
-0.0531904
-0.0405906
-0.0374906
-0.0306475
-0.0267931
-0.0228067
-0.0195576
-0.0165697
-0.0140863
-0.345084
-0.113938
-0.145345
-0.082328
-0.084928
-0.0618736
-0.0586132
-0.0461048
-0.0419191
-0.034478
-0.0301459
-0.0256296
-0.0220201
-0.0187162
-0.0159084
-0.336072
-0.122185
-0.153612
-0.0912357
-0.0921079
-0.0695138
-0.0640682
-0.0517245
-0.0461677
-0.0384101
-0.0334153
-0.0284195
-0.0244212
-0.0208023
-0.0176892
-0.325302
-0.130454
-0.161694
-0.0999078
-0.0995865
-0.0768888
-0.0697344
-0.0572601
-0.0503987
-0.0423393
-0.0366187
-0.0311735
-0.0267552
-0.0228149
-0.0194351
-0.31317
-0.138956
-0.169623
-0.108476
-0.10722
-0.0841079
-0.0756007
-0.0626639
-0.0546879
-0.046193
-0.0397763
-0.0338724
-0.0290256
-0.0247553
-0.0210932
-0.300132
-0.147938
-0.177445
-0.117003
-0.114935
-0.0912939
-0.0815894
-0.0679735
-0.0590282
-0.0499559
-0.0428857
-0.0365036
-0.0312298
-0.0266199
-0.0226503
-0.286708
-0.157676
-0.185185
-0.125519
-0.12273
-0.0985221
-0.0876403
-0.0732381
-0.0633812
-0.0536409
-0.0459357
-0.0390588
-0.0333582
-0.0284041
-0.0241195
-0.273479
-0.168469
-0.192849
-0.134053
-0.130637
-0.105825
-0.0937307
-0.0784878
-0.0677133
-0.057261
-0.0489162
-0.0415302
-0.0354012
-0.030104
-0.0255163
-0.261082
-0.180636
-0.200427
-0.142636
-0.138693
-0.11322
-0.0998632
-0.083734
-0.0720075
-0.0608175
-0.0518183
-0.0439102
-0.0373491
-0.0317158
-0.0268455
-0.250202
-0.194506
-0.207891
-0.151306
-0.146936
-0.120721
-0.106049
-0.0889795
-0.0762583
-0.0643034
-0.0546321
-0.0461909
-0.0391937
-0.0332311
-0.0280977
-0.241572
-0.210414
-0.215182
-0.160104
-0.155399
-0.128348
-0.1123
-0.0942251
-0.0804633
-0.0677086
-0.0573467
-0.0483636
-0.0409257
-0.0346383
-0.0292591
-0.235956
-0.228664
-0.222206
-0.169073
-0.16412
-0.136126
-0.118626
-0.0994719
-0.0846183
-0.0710231
-0.0599496
-0.0504182
-0.0425368
-0.0359226
-0.0303128
-0.23412
-0.249423
-0.228817
-0.178266
-0.173138
-0.144081
-0.125039
-0.104721
-0.0887164
-0.074236
-0.0624279
-0.0523426
-0.0440155
-0.0370715
-0.0312439
-0.236736
-0.272476
-0.234828
-0.187749
-0.182494
-0.15224
-0.131552
-0.109974
-0.0927493
-0.0773354
-0.0647676
-0.0541223
-0.0453511
-0.0380702
-0.0320361
-0.24415
-0.296772
-0.240072
-0.197608
-0.192228
-0.160632
-0.138179
-0.115232
-0.0967067
-0.0803073
-0.066954
-0.0557421
-0.0465295
-0.0389087
-0.0326724
-0.256017
-0.320102
-0.244443
-0.20794
-0.202372
-0.169292
-0.144938
-0.120494
-0.100576
-0.0831357
-0.0689713
-0.0571851
-0.0475384
-0.0395714
-0.0331384
-0.271077
-0.339335
-0.247909
-0.218829
-0.21295
-0.178259
-0.151851
-0.125757
-0.104342
-0.0858023
-0.0708024
-0.0584332
-0.0483615
-0.0400514
-0.0334206
-0.287426
-0.351444
-0.250638
-0.230258
-0.223984
-0.187583
-0.15894
-0.131018
-0.107986
-0.0882863
-0.0724284
-0.0594679
-0.0489835
-0.0403312
-0.0335155
-0.303204
-0.354939
-0.253018
-0.242134
-0.235502
-0.197325
-0.16623
-0.136267
-0.111486
-0.0905641
-0.0738291
-0.0602689
-0.0493866
-0.0404059
-0.0334055
-0.31722
-0.350681
-0.255583
-0.254357
-0.247559
-0.207558
-0.173746
-0.141493
-0.114816
-0.0926089
-0.0749813
-0.0608176
-0.0495544
-0.0402555
-0.0330979
-0.329084
-0.341489
-0.258863
-0.266861
-0.260248
-0.218371
-0.181511
-0.146677
-0.117947
-0.0943896
-0.0758601
-0.0610919
-0.0494749
-0.0398805
-0.0325637
-0.338889
-0.330803
-0.263218
-0.279607
-0.273698
-0.229864
-0.189546
-0.151794
-0.120845
-0.0958707
-0.0764363
-0.0610716
-0.049132
-0.0392822
-0.0318322
-0.346806
-0.321372
-0.268718
-0.292555
-0.288071
-0.242146
-0.197865
-0.156813
-0.123471
-0.0970122
-0.0766766
-0.0607334
-0.0485122
-0.0385023
-0.0308284
-0.352863
-0.314645
-0.27514
-0.30563
-0.303548
-0.255328
-0.206466
-0.161696
-0.12578
-0.0977698
-0.0765407
-0.0600564
-0.0475753
-0.0376209
-0.0296045
-0.356937
-0.310849
-0.282072
-0.318706
-0.320317
-0.269506
-0.21534
-0.166396
-0.127721
-0.0980949
-0.0759796
-0.0590205
-0.0462848
-0.0365295
-0.0285225
-0.358931
-0.309365
-0.289108
-0.331609
-0.338546
-0.284739
-0.22446
-0.170858
-0.129229
-0.0979342
-0.0749374
-0.0575958
-0.0446336
-0.0351208
-0.0274247
-0.358984
-0.309189
-0.296035
-0.344155
-0.358348
-0.301032
-0.233781
-0.175015
-0.130229
-0.0972264
-0.0733574
-0.055735
-0.0426258
-0.0333285
-0.0260624
-0.357496
-0.309421
-0.302851
-0.35624
-0.37971
-0.318313
-0.24323
-0.178781
-0.13063
-0.0958994
-0.0711871
-0.0533794
-0.0402462
-0.0311343
-0.0243256
-0.35494
-0.309647
-0.309572
-0.368043
-0.402396
-0.336418
-0.252687
-0.182046
-0.130323
-0.0938678
-0.0683747
-0.050471
-0.037458
-0.0285451
-0.022199
-0.351639
-0.309995
-0.316097
-0.380247
-0.425863
-0.355061
-0.261967
-0.18466
-0.129184
-0.0910339
-0.0648642
-0.04696
-0.0342203
-0.0255745
-0.0197173
-0.347805
-0.310751
-0.322285
-0.393728
-0.449184
-0.373811
-0.27079
-0.186433
-0.127069
-0.0872906
-0.0605935
-0.0428052
-0.0305003
-0.0222363
-0.0169184
-0.343624
-0.311954
-0.328072
-0.408572
-0.471089
-0.392053
-0.278748
-0.187125
-0.123824
-0.0825264
-0.0554963
-0.0379747
-0.0262738
-0.0185391
-0.0138218
-0.339188
-0.31341
-0.333492
-0.423654
-0.490301
-0.408945
-0.28529
-0.186451
-0.119287
-0.0766355
-0.0495085
-0.032446
-0.0215258
-0.0144831
-0.0104395
-0.334545
-0.314851
-0.33843
-0.437322
-0.50598
-0.423406
-0.289754
-0.184108
-0.113305
-0.069533
-0.0425814
-0.0262092
-0.0162564
-0.0100649
-0.00678764
-0.329741
-0.316077
-0.34265
-0.447715
-0.51767
-0.434154
-0.291454
-0.179821
-0.105776
-0.0611825
-0.0346999
-0.019279
-0.0104821
-0.00529758
-0.00287555
-0.32484
-0.31692
-0.346003
-0.454228
-0.524872
-0.439873
-0.289824
-0.173407
-0.09669
-0.0516385
-0.0259123
-0.0117177
-0.00424129
-0.000218328
0.00127632
-0.319946
-0.317401
-0.348612
-0.456441
-0.526983
-0.439622
-0.284601
-0.164873
-0.0862203
-0.041115
-0.016383
-0.0036644
0.00237818
0.00511142
0.00560802
-0.315208
-0.317531
-0.350284
-0.455526
-0.522205
-0.433322
-0.275997
-0.154547
-0.074819
-0.0300603
-0.00646338
0.00461874
0.00920036
0.0105807
0.0100302
-0.310814
-0.317369
-0.351107
-0.452151
-0.513664
-0.422144
-0.264899
-0.143194
-0.0632754
-0.0191994
0.003255
0.0126883
0.0159199
0.015976
0.0144021
-0.306967
-0.317017
-0.351306
-0.447395
-0.502024
-0.407547
-0.252964
-0.131991
-0.0526343
-0.00946784
0.0119727
0.0199157
0.0220766
0.0209391
0.0184841
-0.303869
-0.316601
-0.351139
-0.442445
-0.489833
-0.392753
-0.241676
-0.122312
-0.0439459
-0.00178357
0.0188492
0.025618
0.027082
0.0249922
0.021919
-0.301694
-0.316242
-0.350858
-0.438398
-0.479761
-0.380847
-0.23277
-0.115334
-0.0379363
0.00331049
0.0233508
0.0293669
0.0304327
0.0277233
0.0243157
-0.300572
-0.316035
-0.35066
-0.436127
-0.474057
-0.374152
-0.227863
-0.11172
-0.0349167
0.00575503
0.0254581
0.031152
0.032034
0.0290454
0.0254907
0.0217861
0.0184578
0.0159073
0.0141655
0.0127811
0.011484
0.0102943
0.00927003
0.00832885
0.00734544
0.00628397
0.00520207
0.00420064
0.00334941
0.00265392
0.00209175
0.00164099
0.00127541
0.000983891
0.00074675
0.000554432
0.000399092
0.000274289
0.000174912
9.66725e-05
3.59511e-05
-1.03409e-05
-4.47626e-05
-6.93755e-05
-8.57413e-05
-9.5196e-05
-9.87958e-05
-9.76024e-05
-9.22961e-05
-8.37381e-05
-7.23209e-05
-5.876e-05
-4.32753e-05
-2.6567e-05
-8.65689e-06
0.0207134
0.0175698
0.0152848
0.0136951
0.0123544
0.0110832
0.0099382
0.00896898
0.00808421
0.00715968
0.00615429
0.00511917
0.00415106
0.00331992
0.0026358
0.00208039
0.00163364
0.00127053
0.000980445
0.000744273
0.000552583
0.000397675
0.000273187
0.000174044
9.59769e-05
3.53914e-05
-1.0794e-05
-4.5132e-05
-6.96783e-05
-8.59908e-05
-9.5402e-05
-9.89654e-05
-9.77421e-05
-9.24099e-05
-8.38306e-05
-7.23942e-05
-5.88165e-05
-4.33172e-05
-2.6593e-05
-8.66945e-06
0.0184825
0.0157902
0.0140895
0.01282
0.0115982
0.0104065
0.00935542
0.00847848
0.00768022
0.00684352
0.00592555
0.00496809
0.00405809
0.00326341
0.00260058
0.00205803
0.00161905
0.00126075
0.000973566
0.00073932
0.000548883
0.000394838
0.000270982
0.000172306
9.45861e-05
3.42723e-05
-1.17001e-05
-4.58708e-05
-7.02842e-05
-8.64898e-05
-9.5814e-05
-9.93046e-05
-9.80214e-05
-9.26373e-05
-8.40152e-05
-7.25405e-05
-5.89292e-05
-4.3401e-05
-2.66448e-05
-8.69454e-06
0.0153842
0.0133604
0.012453
0.011646
0.0106264
0.00957301
0.00866036
0.00789993
0.00719618
0.00645261
0.00563252
0.00476753
0.00393036
0.00318356
0.00254986
0.00202535
0.00159736
0.00124604
0.000963285
0.000731898
0.000543327
0.000390579
0.000267674
0.000169699
9.24998e-05
3.25943e-05
-1.30584e-05
-4.69779e-05
-7.11918e-05
-8.72374e-05
-9.6431e-05
-9.98124e-05
-9.84395e-05
-9.29777e-05
-8.42915e-05
-7.27594e-05
-5.9098e-05
-4.35262e-05
-2.67223e-05
-8.73211e-06
0.0118345
0.0105762
0.0105295
0.0102529
0.00949803
0.00863559
0.00789818
0.00727365
0.00667127
0.0060223
0.00530201
0.00453408
0.00377637
0.00308433
0.00248544
0.00198308
0.00156883
0.00122644
0.000949652
0.000722013
0.000535909
0.000384896
0.000263259
0.000166222
8.97186e-05
3.03584e-05
-1.48677e-05
-4.84524e-05
-7.24002e-05
-8.82323e-05
-9.72519e-05
-0.000100488
-9.89954e-05
-9.34302e-05
-8.46588e-05
-7.30503e-05
-5.93222e-05
-4.36924e-05
-2.68256e-05
-8.78206e-06
0.00811928
0.00765314
0.00844591
0.00869615
0.00825662
0.00763067
0.00709213
0.00661578
0.00612255
0.00557146
0.00495096
0.00427971
0.00360295
0.00296915
0.00240899
0.00193195
0.00153373
0.00120201
0.000932727
0.000709663
0.000526621
0.000377783
0.000257738
0.000161875
8.62428e-05
2.75659e-05
-1.71266e-05
-5.02928e-05
-7.39077e-05
-8.9473e-05
-9.82753e-05
-0.00010133
-9.9688e-05
-9.39938e-05
-8.51161e-05
-7.34123e-05
-5.96013e-05
-4.3899e-05
-2.69542e-05
-8.84428e-06
0.00440964
0.00473326
0.00628924
0.00700785
0.00692292
0.00657602
0.00625339
0.00593264
0.00555604
0.00510763
0.00458736
0.00401102
0.00341455
0.00284058
0.00232178
0.00187261
0.00149239
0.00117288
0.000912591
0.000694843
0.00051545
0.000369234
0.000251106
0.000156658
8.20733e-05
2.42185e-05
-1.98334e-05
-5.24972e-05
-7.57126e-05
-9.09577e-05
-9.94993e-05
-0.000102336
-0.000100516
-9.4667e-05
-8.56621e-05
-7.38443e-05
-5.99345e-05
-4.41453e-05
-2.71081e-05
-8.91859e-06
0.00079983
0.00189763
0.00408179
0.00524747
0.00551492
0.00547801
0.00538576
0.00522712
0.0049744
0.00463373
0.00421436
0.00373113
0.00321374
0.00270031
0.00222474
0.00180554
0.00144522
0.00113936
0.000889354
0.000677528
0.000502381
0.000359242
0.000243361
0.000150574
7.72116e-05
2.03188e-05
-2.2986e-05
-5.50642e-05
-7.78133e-05
-9.26848e-05
-0.000100922
-0.000103505
-0.000101476
-9.54482e-05
-8.62953e-05
-7.4345e-05
-6.03208e-05
-4.44303e-05
-2.72869e-05
-9.00478e-06
-0.0026851
-0.000874043
0.00186966
0.00345202
0.00405534
0.00433958
0.00448985
0.00450065
0.00437853
0.00415017
0.00383258
0.00344119
0.00300192
0.00254942
0.00211848
0.00173114
0.00139265
0.00110147
0.000863082
0.000657676
0.000487394
0.000347799
0.0002345
0.000143622
7.16587e-05
1.58697e-05
-2.65816e-05
-5.79912e-05
-8.02071e-05
-9.46516e-05
-0.00010254
-0.000104834
-0.000102568
-9.63356e-05
-8.70141e-05
-7.4913e-05
-6.0759e-05
-4.4753e-05
-2.74902e-05
-9.10259e-06
-0.00596605
-0.00356792
-0.000328786
0.00164738
0.00258758
0.00316257
0.00355945
0.00375268
0.00376906
0.00365672
0.00344165
0.00314144
0.00277978
0.00238857
0.0020034
0.00164966
0.00133521
0.0010571
0.000833875
0.000635217
0.00047046
0.000334896
0.00022452
0.000135807
6.54149e-05
1.08746e-05
-3.06167e-05
-6.12746e-05
-8.28902e-05
-9.68543e-05
-0.000104352
-0.000106321
-0.000103788
-9.73268e-05
-8.78164e-05
-7.55465e-05
-6.12478e-05
-4.5112e-05
-2.77177e-05
-9.21167e-06
-0.00903018
-0.00616763
-0.00250631
-0.000152073
0.00112514
0.00197478
0.00259161
0.00297609
0.00314416
0.00315276
0.00304106