/*--------------------------------*- C++ -*----------------------------------*\
  =========                 |
  \\      /  F ield         | OpenFOAM: The Open Source CFD Toolbox
   \\    /   O peration     | Website:  https://openfoam.org
    \\  /    A nd           | Version:  7
     \\/     M anipulation  |
\*---------------------------------------------------------------------------*/
FoamFile
{
    version     2.0;
    format      ascii;
    class       volScalarField;
    location    "8";
    object      T;
}
// * * * * * * * * * * * * * * * * * * * * * * * * * * * * * * * * * * * * * //

dimensions      [0 0 0 1 0 0 0];

internalField   nonuniform List<scalar> 
2413
(
1.12933
1.12817
1.12707
1.12616
1.12534
1.12453
1.12375
1.123
1.12226
1.12159
1.12098
1.12024
1.11942
1.11862
1.11779
1.11689
1.11594
1.11493
1.11381
1.1126
1.11127
1.1098
1.10832
1.10693
1.10561
1.10442
1.10343
1.1026
1.10192
1.10129
1.10064
1.09997
1.09938
1.0988
1.09843
1.09808
1.09798
1.0983
1.09965
1.10282
1.10894
1.11887
1.1317
1.14859
1.16529
1.18368
1.19816
1.20727
1.21587
1.22255
1.22692
1.22885
1.22981
1.22965
1.2291
1.22845
1.22756
1.22636
1.13756
1.13684
1.1362
1.13565
1.13518
1.13482
1.13471
1.13476
1.13492
1.1352
1.13562
1.13622
1.13703
1.13792
1.13903
1.14034
1.14167
1.14346
1.14513
1.14695
1.14901
1.1508
1.15281
1.15478
1.15629
1.15784
1.15915
1.16006
1.16067
1.16119
1.16148
1.1616
1.16172
1.1618
1.16182
1.16183
1.16177
1.16166
1.16148
1.16118
1.16079
1.16026
1.15959
1.15882
1.15791
1.15671
1.15533
1.15398
1.15249
1.15086
1.14911
1.14727
1.14541
1.14364
1.14209
1.14039
1.13891
1.13769
1.13667
1.13585
1.13523
1.13475
1.13438
1.1341
1.13382
1.13348
1.13312
1.13276
1.13232
1.13178
1.13109
1.13026
1.12928
1.12819
1.12707
1.12605
1.12524
1.12446
1.12367
1.12291
1.12218
1.12152
1.12089
1.12028
1.11955
1.1187
1.11783
1.11704
1.11624
1.11538
1.11444
1.11339
1.11221
1.11096
1.10966
1.10834
1.10705
1.10588
1.10482
1.10386
1.10302
1.10229
1.10163
1.10101
1.10035
1.09969
1.099
1.09826
1.09753
1.0969
1.09641
1.09608
1.09581
1.09558
1.09573
1.09685
1.09962
1.10551
1.11514
1.1289
1.1473
1.16575
1.18594
1.19914
1.2089
1.21713
1.22306
1.22589
1.22781
1.22785
1.22741
1.22629
1.13728
1.1366
1.13601
1.1355
1.13509
1.13492
1.13494
1.13511
1.13541
1.13584
1.13648
1.13728
1.13836
1.13957
1.14087
1.14269
1.14443
1.1465
1.14876
1.15111
1.15369
1.15596
1.15792
1.15984
1.1611
1.16188
1.16242
1.16244
1.16237
1.1622
1.16198
1.16173
1.16145
1.16116
1.1609
1.16067
1.16043
1.16019
1.15988
1.15951
1.15904
1.15842
1.15766
1.15676
1.15562
1.15428
1.15291
1.15144
1.14983
1.14811
1.14632
1.14451
1.14277
1.14121
1.13959
1.13802
1.1367
1.13561
1.13474
1.13407
1.13358
1.1332
1.13287
1.13253
1.13213
1.13169
1.1313
1.13086
1.13032
1.12967
1.12888
1.12795
1.12692
1.12586
1.12494
1.12415
1.12342
1.1227
1.12198
1.12129
1.12063
1.12002
1.11941
1.11873
1.11798
1.11717
1.11631
1.11545
1.11456
1.11358
1.11252
1.11146
1.11036
1.10926
1.10814
1.10701
1.1059
1.10488
1.10399
1.10321
1.10251
1.1019
1.10132
1.10076
1.10013
1.09949
1.09878
1.098
1.09723
1.09646
1.0957
1.09497
1.09433
1.09386
1.09355
1.09328
1.09304
1.09316
1.09411
1.09675
1.10302
1.11332
1.12911
1.14902
1.16899
1.18912
1.20077
1.20992
1.2175
1.22189
1.22459
1.22538
1.13716
1.1365
1.13596
1.13552
1.13531
1.13533
1.13548
1.13583
1.13632
1.13701
1.13799
1.13907
1.1404
1.14209
1.14368
1.14589
1.14822
1.15071
1.15356
1.15615
1.15867
1.16089
1.16262
1.16385
1.16433
1.16425
1.16396
1.16345
1.16284
1.16218
1.16152
1.16091
1.16032
1.15979
1.15936
1.15901
1.15871
1.1584
1.15805
1.15764
1.1571
1.15638
1.15551
1.15448
1.15323
1.15191
1.15048
1.14891
1.14724
1.1455
1.14374
1.142
1.14034
1.13881
1.13728
1.1359
1.13476
1.13384
1.13313
1.13259
1.13215
1.13175
1.13133
1.13087
1.1304
1.12994
1.12947
1.12889
1.12821
1.12744
1.12657
1.12558
1.12457
1.12372
1.12302
1.12232
1.12162
1.12095
1.12029
1.11967
1.11911
1.11846
1.11772
1.11691
1.1161
1.11522
1.11431
1.11344
1.1126
1.11171
1.11076
1.10977
1.10875
1.10773
1.10675
1.10579
1.10485
1.10395
1.10314
1.10238
1.10167
1.10103
1.10042
1.09983
1.09924
1.09864
1.09801
1.09731
1.09659
1.09584
1.09508
1.09439
1.09373
1.09306
1.09239
1.09173
1.09124
1.09096
1.09076
1.09053
1.09069
1.09181
1.09507
1.10255
1.11451
1.13241
1.15319
1.17394
1.19207
1.20238
1.20995
1.21802
1.13743
1.13688
1.13644
1.13615
1.13612
1.13621
1.13654
1.13705
1.13777
1.13873
1.14
1.14157
1.14318
1.1454
1.14763
1.15016
1.15301
1.15572
1.15855
1.16106
1.16306
1.16475
1.16574
1.1658
1.16561
1.16509
1.16431
1.16336
1.16234
1.16131
1.16033
1.15946
1.15872
1.15812
1.15764
1.15723
1.15686
1.1565
1.15609
1.15561
1.15498
1.1542
1.15328
1.15218
1.15091
1.14956
1.14807
1.14646
1.14477
1.14305
1.14133
1.13966
1.13813
1.13667
1.13527
1.13409
1.13311
1.13233
1.13169
1.13116
1.13068
1.13021
1.12973
1.12923
1.12872
1.12817
1.12754
1.12681
1.126
1.12513
1.12424
1.12331
1.12247
1.12178
1.12112
1.12049
1.11988
1.1193
1.1188
1.1182
1.11746
1.11665
1.11581
1.115
1.11423
1.11346
1.1126
1.11168
1.11076
1.10985
1.10893
1.10802
1.10711
1.10621
1.10534
1.10447
1.10364
1.10282
1.10205
1.10131
1.1006
1.09994
1.0993
1.09869
1.09813
1.09757
1.097
1.0964
1.09577
1.09509
1.09432
1.09353
1.09279
1.09213
1.09148
1.09082
1.09021
1.08971
1.08925
1.08879
1.08852
1.0885
1.08857
1.08907
1.09077
1.09523
1.1041
1.11854
1.13725
1.15953
1.17888
1.19874
1.13784
1.13742
1.13711
1.13713
1.13727
1.13759
1.13814
1.13893
1.14004
1.14136
1.14288
1.145
1.14716
1.14979
1.15259
1.15513
1.15804
1.16063
1.16287
1.16473
1.16607
1.16675
1.16671
1.16641
1.16578
1.16484
1.16369
1.16242
1.16112
1.15986
1.15874
1.15782
1.15708
1.15645
1.1559
1.15543
1.15499
1.15456
1.15409
1.15353
1.15286
1.15205
1.15104
1.14989
1.14866
1.14729
1.14579
1.14419
1.14253
1.14085
1.13918
1.13759
1.13615
1.13475
1.13351
1.13248
1.13162
1.1309
1.13027
1.12972
1.12921
1.12871
1.12818
1.1276
1.12695
1.12622
1.12545
1.12464
1.12377
1.12286
1.12203
1.12131
1.1206
1.11992
1.11928
1.11868
1.11815
1.11772
1.1173
1.11665
1.11588
1.11508
1.11423
1.11331
1.11238
1.11147
1.11055
1.10964
1.10876
1.10792
1.10707
1.10624
1.10542
1.10461
1.10384
1.10308
1.10235
1.10161
1.10086
1.1001
1.09935
1.09863
1.09796
1.09733
1.09678
1.09624
1.09569
1.09509
1.09448
1.09382
1.09307
1.09225
1.0916
1.09111
1.09067
1.09024
1.08977
1.08923
1.08868
1.08818
1.08773
1.08735
1.08711
1.087
1.08702
1.08727
1.08817
1.0908
1.09661
1.1077
1.12266
1.15436
1.13829
1.13824
1.13834
1.1386
1.1391
1.13979
1.14065
1.14176
1.14311
1.14495
1.14691
1.1495
1.15217
1.15489
1.15765
1.1601
1.16228
1.16418
1.16561
1.16674
1.16718
1.16707
1.16669
1.16599
1.16499
1.16374
1.16233
1.16087
1.15945
1.15818
1.15711
1.15623
1.15548
1.1548
1.1542
1.15369
1.15321
1.15273
1.15221
1.15157
1.15079
1.14988
1.1489
1.1478
1.14657
1.1452
1.14371
1.14212
1.14048
1.13882
1.13722
1.13574
1.13433
1.13305
1.13193
1.13098
1.13018
1.12949
1.12886
1.12827
1.12771
1.12715
1.12653
1.12585
1.12508
1.12425
1.12338
1.12251
1.12163
1.1208
1.12008
1.11939
1.11876
1.11816
1.11762
1.11712
1.11659
1.11595
1.11523
1.11446
1.11368
1.11289
1.1121
1.11127
1.11038
1.10949
1.10858
1.10768
1.10682
1.10601
1.10523
1.10447
1.10373
1.103
1.1023
1.10159
1.1009
1.1002
1.09945
1.09867
1.09788
1.09713
1.09647
1.09582
1.09525
1.09472
1.09416
1.09357
1.09301
1.09246
1.09186
1.0912
1.09055
1.09001
1.08953
1.08908
1.08862
1.08813
1.08769
1.08741
1.08718
1.08689
1.08651
1.08608
1.08565
1.08557
1.08575
1.08601
1.08638
1.08769
1.09067
1.10592
1.13931
1.13964
1.14019
1.14087
1.14174
1.14282
1.1442
1.14579
1.14736
1.14985
1.15222
1.15473
1.15738
1.15978
1.16187
1.16366
1.16501
1.166
1.16677
1.16713
1.16702
1.16657
1.16578
1.16472
1.16346
1.16205
1.16057
1.15913
1.15776
1.15654
1.15548
1.1546
1.15387
1.15325
1.15271
1.15217
1.15163
1.15104
1.15036
1.14959
1.14878
1.14791
1.14693
1.14582
1.14458
1.14322
1.14176
1.14019
1.13858
1.13697
1.13543
1.13399
1.13266
1.13146
1.13039
1.12946
1.12868
1.12799
1.12735
1.12673
1.12614
1.12553
1.12486
1.1241
1.12325
1.1223
1.12128
1.12043
1.11971
1.11901
1.11832
1.11762
1.11696
1.11643
1.11607
1.11563
1.11503
1.11435
1.11361
1.11285
1.11206
1.11124
1.11037
1.10944
1.10849
1.10757
1.10667
1.1058
1.10497
1.10419
1.10345
1.10272
1.102
1.1013
1.10064
1.09997
1.09929
1.09862
1.09789
1.09711
1.0963
1.09554
1.09487
1.09422
1.09368
1.09319
1.09268
1.09213
1.09154
1.09094
1.09031
1.08957
1.08887
1.08844
1.0881
1.0878
1.08758
1.08739
1.08712
1.08677
1.08638
1.08603
1.08572
1.0854
1.085
1.08464
1.08455
1.08436
1.08432
1.08445
1.08466
1.08673
1.14106
1.14186
1.14284
1.14403
1.1455
1.14713
1.149
1.15103
1.15281
1.15527
1.15754
1.15964
1.16155
1.16318
1.16451
1.1654
1.16603
1.16653
1.16662
1.16646
1.16598
1.16517
1.16414
1.16296
1.16164
1.16023
1.15879
1.15736
1.15604
1.15486
1.15389
1.15312
1.15248
1.15191
1.15132
1.15069
1.15001
1.14927
1.14851
1.14776
1.14694
1.14603
1.14502
1.14387
1.14261
1.14129
1.13987
1.13833
1.13675
1.13521
1.13372
1.13231
1.13103
1.12985
1.1288
1.1279
1.12713
1.12643
1.12577
1.12514
1.12451
1.12386
1.12313
1.1223
1.12136
1.12038
1.11947
1.11868
1.11791
1.11719
1.11657
1.116
1.11548
1.11496
1.11435
1.11365
1.11294
1.11227
1.1116
1.11091
1.11013
1.10932
1.10846
1.10757
1.10667
1.10578
1.10492
1.10408
1.10325
1.10246
1.10171
1.10097
1.10024
1.09955
1.09891
1.09826
1.09758
1.09694
1.09625
1.0955
1.09472
1.09397
1.0933
1.09267
1.09206
1.09154
1.09101
1.09041
1.08979
1.08922
1.08867
1.08815
1.08765
1.08715
1.08675
1.08643
1.08611
1.0858
1.08555
1.08525
1.08504
1.085
1.08496
1.08487
1.08467
1.08437
1.08408
1.0838
1.08353
1.08327
1.0831
1.083
1.14385
1.14514
1.14673
1.14843
1.15052
1.15265
1.15447
1.15651
1.1584
1.16002
1.16166
1.16302
1.16413
1.16484
1.16539
1.1658
1.16587
1.1658
1.16549
1.16492
1.16414
1.16321
1.16217
1.16101
1.15972
1.15837
1.157
1.15568
1.15446
1.15339
1.1525
1.15179
1.15115
1.15055
1.14989
1.14916
1.14837
1.14759
1.1468
1.146
1.14511
1.14414
1.14307
1.1419
1.14067
1.13938
1.13797
1.13646
1.13495
1.13346
1.13201
1.13065
1.12939
1.12824
1.12721
1.12632
1.12553
1.1248
1.12411
1.12347
1.12283
1.12217
1.12142
1.12051
1.11942
1.11847
1.1178
1.11714
1.11643
1.11567
1.11497
1.1144
1.11392
1.1134
1.11279
1.11214
1.11147
1.1108
1.11009
1.10929
1.1084
1.10749
1.10661
1.10575
1.10489
1.10404
1.10321
1.10239
1.10157
1.10077
1.10001
1.09927
1.09854
1.09786
1.09724
1.09663
1.09596
1.09526
1.09456
1.09383
1.09305
1.09231
1.09165
1.09101
1.09038
1.08989
1.08941
1.0889
1.08837
1.08781
1.08719
1.08658
1.08594
1.08535
1.08506
1.08484
1.08459
1.08443
1.08429
1.08415
1.08403
1.08385
1.0837
1.0836
1.08345
1.08308
1.08284
1.08275
1.0826
1.08233
1.08208
1.08139
1.14778
1.14946
1.15166
1.15372
1.15592
1.1581
1.1598
1.16124
1.16253
1.16338
1.16401
1.16452
1.16497
1.16513
1.16508
1.16494
1.16468
1.16421
1.16351
1.16274
1.16194
1.16105
1.16005
1.15896
1.15781
1.15661
1.15539
1.15422
1.15313
1.15216
1.1513
1.15054
1.14979
1.14903
1.14824
1.14745
1.1467
1.14592
1.14507
1.14419
1.14324
1.14222
1.14113
1.13997
1.13874
1.13747
1.13606
1.1346
1.13313
1.13168
1.13028
1.12896
1.12775
1.12664
1.12565
1.12478
1.12399
1.12325
1.12255
1.12187
1.12117
1.1204
1.11951
1.11853
1.11762
1.11685
1.11611
1.11542
1.11478
1.11422
1.11371
1.11314
1.11249
1.11181
1.11111
1.11041
1.10973
1.10903
1.10826
1.10743
1.10655
1.10565
1.1048
1.10398
1.10316
1.10236
1.10158
1.1008
1.1
1.09921
1.09846
1.0977
1.09693
1.09618
1.0955
1.09486
1.09417
1.09346
1.09281
1.09215
1.09147
1.09085
1.09025
1.08964
1.08898
1.08839
1.08787
1.0873
1.0867
1.08605
1.08542
1.08487
1.08439
1.08392
1.0837
1.08355
1.08338
1.08313
1.08288
1.08273
1.08257
1.08231
1.08225
1.0823
1.08226
1.08216
1.08206
1.08195
1.0817
1.08133
1.08097
1.08025
1.15256
1.15446
1.15692
1.15906
1.16085
1.16255
1.16367
1.16425
1.16466
1.16476
1.16473
1.16466
1.16449
1.16417
1.16373
1.1632
1.16262
1.16191
1.16107
1.16032
1.15961
1.15879
1.15792
1.15702
1.15608
1.15506
1.15403
1.15301
1.15201
1.15106
1.15014
1.14925
1.14837
1.14753
1.14672
1.14592
1.1451
1.14419
1.14324
1.14232
1.14135
1.14032
1.13924
1.1381
1.13688
1.13557
1.13421
1.13278
1.13134
1.12992
1.12856
1.12729
1.12613
1.12507
1.12411
1.12324
1.12243
1.12169
1.12099
1.12028
1.11951
1.11866
1.1177
1.11669
1.1159
1.11522
1.11458
1.11399
1.11341
1.11286
1.11229
1.11162
1.11093
1.11029
1.10968
1.10902
1.10826
1.10741
1.10651
1.1056
1.10471
1.10385
1.10304
1.10228
1.10153
1.10076
1.09999
1.09922
1.0984
1.09758
1.09678
1.096
1.0952
1.09443
1.09377
1.09317
1.09257
1.09198
1.09138
1.09072
1.09003
1.08936
1.08876
1.08815
1.08744
1.08681
1.08631
1.0858
1.08527
1.08465
1.08396
1.08339
1.08292
1.08235
1.08214
1.08211
1.08201
1.08181
1.08167
1.0816
1.08147
1.08125
1.08104
1.08103
1.08096
1.08077
1.08049
1.08042
1.08024
1.07992
1.07968
1.07915
1.15771
1.15967
1.16158
1.16323
1.16434
1.16513
1.1654
1.16533
1.16514
1.16473
1.16417
1.16356
1.1629
1.16223
1.16151
1.16078
1.16006
1.15931
1.15849
1.15786
1.15725
1.1566
1.15594
1.15527
1.15454
1.15373
1.15286
1.15194
1.15098
1.14999
1.149
1.148
1.14698
1.14608
1.14529
1.14448
1.14355
1.14252
1.1415
1.14054
1.13956
1.13853
1.13744
1.13628
1.13505
1.13374
1.13239
1.13102
1.12961
1.12822
1.1269
1.12568
1.12456
1.12354
1.1226
1.12173
1.1209
1.12011
1.11934
1.11854
1.11768
1.1168
1.11589
1.11512
1.11445
1.11374
1.11307
1.1125
1.11201
1.11153
1.11102
1.11044
1.1098
1.1091
1.10832
1.10745
1.10653
1.1056
1.10469
1.1038
1.10296
1.10214
1.10136
1.1006
1.09984
1.09907
1.0983
1.09753
1.09674
1.09592
1.09515
1.09441
1.09369
1.093
1.09232
1.09166
1.091
1.09035
1.08976
1.08913
1.08844
1.08781
1.0873
1.0868
1.08626
1.08568
1.08509
1.08446
1.08378
1.08296
1.08213
1.08169
1.08141
1.08108
1.08104
1.08106
1.081
1.08082
1.08055
1.08039
1.0802
1.07991
1.07962
1.07963
1.07955
1.07937
1.07918
1.07914
1.07896
1.07864
1.07837
1.07779
1.16222
1.16369
1.16491
1.16573
1.16582
1.16577
1.16561
1.16521
1.16454
1.16361
1.16257
1.16156
1.16059
1.15972
1.15887
1.15809
1.1574
1.15672
1.156
1.15549
1.15502
1.15455
1.15414
1.15372
1.15319
1.15253
1.15175
1.15087
1.1499
1.14884
1.14778
1.14672
1.14562
1.1446
1.14375
1.14289
1.14192
1.14087
1.13984
1.13887
1.13788
1.13683
1.13573
1.13455
1.13329
1.13198
1.13065
1.12932
1.12793
1.12659
1.12533
1.12415
1.12304
1.122
1.12106
1.12022
1.11943
1.11864
1.11777
1.11682
1.11594
1.11517
1.11442
1.11375
1.11315
1.11256
1.11198
1.11137
1.1107
1.11003
1.10935
1.10868
1.10802
1.10732
1.10653
1.10566
1.10476
1.10385
1.10297
1.1021
1.10126
1.10044
1.09964
1.09888
1.09815
1.09742
1.09669
1.09595
1.09517
1.09436
1.09357
1.09281
1.09208
1.09137
1.0907
1.09002
1.08933
1.08877
1.08833
1.08785
1.08728
1.08662
1.08601
1.08545
1.08484
1.08417
1.08354
1.08293
1.0823
1.08154
1.08085
1.0805
1.08028
1.07995
1.0798
1.07984
1.07981
1.07962
1.0794
1.07932
1.07915
1.07889
1.07859
1.07846
1.07829
1.07804
1.07773
1.07762
1.0774
1.07708
1.07682
1.0763
1.16546
1.16617
1.16631
1.16623
1.16602
1.16563
1.16506
1.16426
1.16316
1.16187
1.16051
1.1592
1.15811
1.15715
1.15627
1.15549
1.15488
1.15428
1.1537
1.15334
1.15307
1.15277
1.15251
1.15226
1.15186
1.15128
1.15056
1.1497
1.14872
1.14762
1.14646
1.14533
1.14424
1.1431
1.1421
1.14122
1.14029
1.13929
1.13827
1.13727
1.13625
1.13517
1.13403
1.13283
1.13157
1.13028
1.129
1.12764
1.12627
1.12499
1.12378
1.12267
1.12162
1.12059
1.11961
1.11865
1.11772
1.11685
1.11595
1.11496
1.11433
1.11382
1.11323
1.1126
1.11198
1.11143
1.11094
1.1104
1.10973
1.10897
1.10816
1.10733
1.10649
1.10566
1.1048
1.10392
1.10302
1.10212
1.10123
1.10036
1.09954
1.09877
1.09803
1.09733
1.09663
1.09589
1.09512
1.0943
1.09344
1.09262
1.09187
1.09114
1.09043
1.08981
1.08928
1.08873
1.0881
1.08745
1.08691
1.08639
1.08579
1.08507
1.08451
1.08406
1.08358
1.08301
1.0824
1.08175
1.08108
1.08029
1.07949
1.07921
1.07905
1.0788
1.0788
1.07893
1.07894
1.07881
1.07855
1.07834
1.07804
1.07767
1.07738
1.07718
1.07685
1.07654
1.07626
1.07614
1.07594
1.07566
1.07543
1.07495
1.16716
1.167
1.16664
1.16616
1.1656
1.16491
1.16402
1.16289
1.16154
1.16008
1.15855
1.15711
1.15598
1.15496
1.15403
1.15323
1.15265
1.15221
1.15185
1.15159
1.15143
1.15123
1.151
1.15077
1.15041
1.1499
1.14923
1.14841
1.14744
1.14635
1.14517
1.14393
1.14278
1.14165
1.14052
1.13957
1.13869
1.13774
1.13674
1.13569
1.1346
1.13346
1.13227
1.13103
1.12977
1.12854
1.12729
1.12597
1.1247
1.12347
1.12228
1.12112
1.11999
1.11893
1.11793
1.11697
1.11608
1.11529
1.11449
1.1137
1.11308
1.11258
1.1121
1.11162
1.11109
1.11046
1.1097
1.10887
1.10807
1.10731
1.10652
1.10569
1.10483
1.10394
1.10304
1.10213
1.10122
1.10036
1.09954
1.09876
1.09804
1.09734
1.09662
1.09588
1.09507
1.09423
1.09339
1.09254
1.09171
1.09099
1.09035
1.08971
1.08905
1.08842
1.08787
1.08732
1.08667
1.08597
1.08545
1.085
1.08453
1.084
1.08346
1.08291
1.0823
1.08161
1.08093
1.08032
1.07973
1.0791
1.0786
1.07845
1.07832
1.07805
1.07781
1.07786
1.07785
1.07765
1.07739
1.07721
1.07691
1.07655
1.07628
1.076
1.07556
1.07532
1.07502
1.0748
1.07454
1.07427
1.07403
1.07355
1.16806
1.1674
1.16669
1.1659
1.16505
1.16408
1.16294
1.16165
1.16022
1.15867
1.15713
1.15573
1.15454
1.15346
1.1525
1.15164
1.1511
1.15079
1.15051
1.15022
1.15005
1.14989
1.14963
1.14929
1.14893
1.14846
1.14784
1.14706
1.14613
1.14506
1.1439
1.14265
1.14142
1.14023
1.13905
1.13801
1.13705
1.13606
1.13502
1.13396
1.13285
1.13163
1.13039
1.12919
1.12798
1.12674
1.12547
1.12422
1.123
1.12179
1.12061
1.11946
1.11838
1.11738
1.11642
1.11548
1.11466
1.11401
1.1134
1.11282
1.11229
1.1118
1.11128
1.11066
1.10993
1.10916
1.10836
1.10752
1.10666
1.10578
1.10489
1.104
1.1031
1.1022
1.10132
1.10047
1.09966
1.0989
1.09816
1.09743
1.09669
1.09591
1.09509
1.09425
1.09338
1.09255
1.09177
1.091
1.09023
1.08954
1.08891
1.08825
1.08756
1.08692
1.0864
1.08595
1.08549
1.08498
1.08442
1.0838
1.08317
1.0825
1.08193
1.08144
1.08091
1.08033
1.0798
1.07934
1.07886
1.07827
1.07765
1.07748
1.07735
1.07702
1.0768
1.07687
1.07686
1.07663
1.07645
1.07629
1.07596
1.07555
1.07523
1.07485
1.07435
1.07405
1.0737
1.07339
1.07312
1.07288
1.07268
1.07224
1.16871
1.1677
1.1667
1.16567
1.16459
1.16344
1.16218
1.16083
1.15947
1.15801
1.15656
1.1552
1.15394
1.1528
1.15179
1.15098
1.15035
1.14984
1.14936
1.14897
1.1488
1.14869
1.14849
1.1482
1.14784
1.14729
1.14662
1.14586
1.14492
1.14384
1.14268
1.14146
1.1402
1.13894
1.13771
1.13655
1.13544
1.13435
1.13326
1.13215
1.131
1.12983
1.12865
1.12744
1.12622
1.12499
1.12376
1.12254
1.12134
1.12017
1.11902
1.1179
1.11686
1.11597
1.11516
1.11437
1.11361
1.11304
1.11265
1.11229
1.11184
1.11125
1.11053
1.10972
1.10884
1.10794
1.10703
1.10609
1.10515
1.10422
1.10329
1.10238
1.10149
1.10065
1.09985
1.09908
1.09832
1.09758
1.09682
1.09602
1.09521
1.09438
1.09354
1.09271
1.09188
1.09111
1.09037
1.0896
1.08877
1.08806
1.08745
1.08681
1.08618
1.08572
1.08531
1.08482
1.08423
1.08364
1.0831
1.08252
1.08191
1.08132
1.08082
1.08036
1.07982
1.07919
1.0786
1.07819
1.07781
1.07728
1.07681
1.07676
1.07666
1.07636
1.07605
1.07604
1.07595
1.0756
1.07538
1.07521
1.07484
1.07444
1.0741
1.07364
1.07309
1.07285
1.07257
1.07227
1.07196
1.07169
1.07145
1.07099
1.16916
1.16791
1.16671
1.16552
1.16432
1.16313
1.16188
1.16058
1.15928
1.15792
1.15649
1.15514
1.15385
1.15266
1.15158
1.15067
1.14999
1.14946
1.14895
1.14847
1.14808
1.14777
1.14744
1.14709
1.14666
1.14605
1.1455
1.14488
1.1439
1.14281
1.14168
1.14044
1.13915
1.13785
1.13652
1.13522
1.13398
1.13279
1.13161
1.13041
1.12923
1.12807
1.1269
1.1257
1.12448
1.12324
1.12202
1.12083
1.11969
1.11861
1.11757
1.11657
1.11563
1.11481
1.1141
1.11348
1.113
1.11258
1.11212
1.11153
1.11082
1.11007
1.10929
1.10845
1.10754
1.10659
1.10564
1.10467
1.1037
1.10277
1.10186
1.10096
1.10011
1.0993
1.09852
1.09776
1.09701
1.09627
1.09549
1.09468
1.09386
1.09304
1.09223
1.0914
1.09055
1.08973
1.08897
1.08821
1.08738
1.0867
1.08618
1.08569
1.08515
1.08461
1.08411
1.08358
1.08297
1.08245
1.08205
1.0816
1.08105
1.08036
1.07968
1.0791
1.07853
1.07791
1.07745
1.07726
1.07706
1.07673
1.07636
)
;

boundaryField
{
    inlet
    {
        type            fixedValue;
        value           nonuniform 0();
    }
    outlet
    {
        type            inletOutlet;
        inletValue      uniform 1;
        value           nonuniform List<scalar> 
18
(
1.22638
1.22629
1.22538
1.21808
1.19869
1.15434
1.10591
1.08675
1.08303
1.08142
1.08028
1.07918
1.07781
1.07632
1.07497
1.07357
1.07226
1.07101
)
;
    }
    bottom
    {
        type            symmetryPlane;
    }
    top
    {
        type            symmetryPlane;
    }
    obstacle
    {
        type            zeroGradient;
    }
    front
    {
        type            empty;
    }
    back
    {
        type            empty;
    }
    procBoundary23to15
    {
        type            processor;
        value           nonuniform List<scalar> 
133
(
1.13147
1.1303
1.12912
1.12796
1.12695
1.12611
1.12532
1.12454
1.12377
1.12305
1.12239
1.1217
1.12091
1.1201
1.11926
1.11836
1.11742
1.11639
1.11524
1.11398
1.11255
1.111
1.10947
1.10803
1.10661
1.1053
1.10417
1.10318
1.10232
1.10169
1.10123
1.10079
1.10038
1.10027
1.10072
1.10241
1.10611
1.11275
1.12337
1.13604
1.15217
1.16753
1.18298
1.19842
1.20619
1.21408
1.22086
1.2263
1.22936
1.23086
1.23155
1.23115
1.2304
1.22957
1.22868
1.22784
1.22752
1.22723
1.1384
1.13766
1.13696
1.1363
1.13573
1.13524
1.13489
1.13473
1.13474
1.13481
1.13499
1.13542
1.13608
1.13694
1.13798
1.139
1.14006
1.14142
1.14262
1.14403
1.14545
1.1466
1.14817
1.14986
1.15123
1.15285
1.15466
1.15609
1.15738
1.15856
1.15954
1.16033
1.16098
1.16146
1.16182
1.16215
1.16236
1.16253
1.16251
1.16242
1.16224
1.1619
1.16139
1.1607
1.1599
1.15898
1.15783
1.1565
1.15514
1.15363
1.15197
1.15018
1.14831
1.14641
1.14467
1.14296
1.14133
1.14002
1.13886
1.1379
1.13717
1.13661
1.13614
1.13577
1.13549
1.13523
1.13494
1.13461
1.13422
1.13374
1.13314
1.13241
1.13152
1.13048
1.13048
)
;
    }
    procBoundary23to22
    {
        type            processor;
        value           nonuniform List<scalar> 
17
(
1.13837
1.13799
1.1379
1.13806
1.13837
1.13866
1.13921
1.14052
1.14287
1.14635
1.15073
1.15557
1.16039
1.1645
1.16722
1.16869
1.16973
)
;
    }
    procBoundary23to30
    {
        type            processor;
        value           uniform 1.17046;
    }
    procBoundary23to31
    {
        type            processor;
        value           nonuniform List<scalar> 
133
(
1.07614
1.0759
1.07543
1.07508
1.07506
1.0749
1.07446
1.07427
1.07411
1.07374
1.07341
1.07311
1.07264
1.07216
1.07186
1.07148
1.07111
1.07074
1.07045
1.07022
1.06977
1.16932
1.16801
1.16677
1.1655
1.16425
1.16303
1.16181
1.16059
1.15933
1.15801
1.15657
1.15517
1.15388
1.15272
1.15168
1.15074
1.14994
1.1493
1.14875
1.14821
1.14769
1.14727
1.14693
1.14656
1.14611
1.14552
1.1449
1.14427
1.1433
1.14216
1.14092
1.13957
1.13811
1.13672
1.13545
1.1342
1.13292
1.13164
1.13035
1.12906
1.12777
1.12651
1.12525
1.12402
1.1228
1.12162
1.12047
1.11936
1.11829
1.1173
1.11638
1.11548
1.11464
1.114
1.11347
1.11298
1.11247
1.11191
1.11128
1.11059
1.10983
1.10898
1.10809
1.10716
1.10619
1.10523
1.1043
1.10335
1.10241
1.1015
1.1006
1.09971
1.09886
1.09807
1.09731
1.09656
1.09584
1.09512
1.09434
1.09352
1.09268
1.0918
1.09094
1.09009
1.08924
1.08842
1.0877
1.087
1.0863
1.08572
1.0852
1.08466
1.08404
1.08342
1.08295
1.08252
1.08206
1.08157
1.08107
1.08052
1.0799
1.07918
1.07853
1.07802
1.07754
1.07703
1.07668
1.07651
1.0763
1.07591
1.07614
1.07551
)
;
    }
}


// ************************************************************************* //
