/*--------------------------------*- C++ -*----------------------------------*\
  =========                 |
  \\      /  F ield         | OpenFOAM: The Open Source CFD Toolbox
   \\    /   O peration     | Website:  https://openfoam.org
    \\  /    A nd           | Version:  7
     \\/     M anipulation  |
\*---------------------------------------------------------------------------*/
FoamFile
{
    version     2.0;
    format      ascii;
    class       volScalarField;
    location    "4";
    object      rho;
}
// * * * * * * * * * * * * * * * * * * * * * * * * * * * * * * * * * * * * * //

dimensions      [1 -3 0 0 0 0 0];

internalField   nonuniform List<scalar> 
2413
(
0.99863
0.98778
0.975968
0.970681
0.965192
0.957422
0.945725
0.938515
0.933137
0.926664
0.916522
0.907426
0.903173
0.898951
0.892604
0.884643
0.880978
0.877063
0.871384
0.862452
0.855551
0.849843
0.843433
0.839771
0.841751
0.85283
0.88845
0.979628
1.15088
1.36255
1.54299
1.71836
1.87583
1.92917
1.95685
2.00863
2.07923
2.12499
2.13683
2.13523
2.12542
2.11953
2.11071
2.10077
2.09952
2.09949
2.09851
2.10789
2.11395
2.119
2.1273
2.13765
2.16844
2.22014
2.27215
2.27883
2.27184
2.25868
2.24595
2.23925
2.23345
2.22968
2.23601
2.24676
2.24851
1.27057
1.25952
1.24635
1.22833
1.21577
1.2074
1.19643
1.17974
1.16536
1.15652
1.14657
1.13135
1.11686
1.11081
1.10381
1.09228
1.0778
1.07059
1.06397
1.05446
1.0394
1.0293
1.02362
1.01673
1.00579
0.994248
0.989381
0.984021
0.975992
0.964293
0.957016
0.951376
0.944758
0.934415
0.925359
0.92164
0.917718
0.911291
0.903611
0.900361
0.896723
0.891231
0.883235
0.876681
0.87113
0.863723
0.852941
0.849
0.849895
0.851718
0.859707
0.894415
0.989075
1.14475
1.34929
1.61442
1.75109
1.84218
1.96448
2.05043
2.15211
2.19226
2.1912
2.17797
2.16441
2.15067
2.1334
2.12813
2.12706
2.12661
2.13912
2.14723
2.15264
2.1595
2.16452
2.18784
2.24303
2.30901
2.33823
2.33393
2.32187
2.29993
2.28496
2.27862
2.27776
2.28284
2.2859
2.28143
1.28008
1.26946
1.25702
1.23959
1.22685
1.21934
1.20944
1.19394
1.1804
1.17234
1.16307
1.14869
1.13444
1.12826
1.12128
1.11017
1.0959
1.0884
1.0817
1.07227
1.05742
1.04738
1.04173
1.03476
1.02351
1.01224
1.00747
1.00206
0.994036
0.982446
0.975314
0.969875
0.963305
0.952756
0.94419
0.940949
0.937141
0.93051
0.92262
0.919123
0.9153
0.909449
0.900994
0.895233
0.89019
0.88455
0.875779
0.869829
0.866211
0.861706
0.861706
0.864587
0.876094
0.91359
1.00047
1.18796
1.40748
1.56866
1.75698
1.93768
2.10531
2.23644
2.25858
2.24649
2.22476
2.20269
2.17951
2.17329
2.16841
2.16645
2.17866
2.18924
2.19209
2.1967
2.19683
2.21023
2.25722
2.33527
2.39185
2.39896
2.38754
2.36576
2.34853
2.33484
2.32708
2.32578
2.32254
2.3117
1.2923
1.28245
1.27079
1.25406
1.24138
1.23425
1.22491
1.21029
1.19715
1.18926
1.18022
1.16622
1.15159
1.14516
1.13827
1.12727
1.11342
1.1062
1.09949
1.09012
1.07573
1.0659
1.05987
1.05272
1.04138
1.03013
1.02561
1.02037
1.01232
1.00096
0.994185
0.988864
0.982286
0.971703
0.963317
0.960232
0.956437
0.949697
0.941728
0.938041
0.933968
0.927802
0.918719
0.912938
0.908409
0.903408
0.895865
0.891238
0.888722
0.883913
0.876196
0.873078
0.874671
0.879313
0.894735
0.950922
1.08647
1.23604
1.41341
1.62507
1.89723
2.16846
2.27693
2.29216
2.28366
2.26152
2.23839
2.23251
2.22335
2.22252
2.23413
2.24681
2.24521
2.24622
2.23924
2.24452
2.27374
2.34426
2.43567
2.47664
2.4727
2.45269
2.42755
2.40395
2.38752
2.37575
2.36117
2.34238
1.30824
1.29887
1.28766
1.27145
1.25862
1.25126
1.24199
1.22769
1.21465
1.20688
1.19799
1.18431
1.16985
1.16303
1.15588
1.14488
1.13116
1.12401
1.11735
1.10811
1.09417
1.08459
1.07849
1.07109
1.05929
1.0483
1.04377
1.03835
1.03027
1.0191
1.01265
1.00765
1.00122
0.990724
0.982522
0.979452
0.975515
0.968389
0.960052
0.956297
0.952202
0.946013
0.936902
0.931361
0.927165
0.922317
0.914617
0.91061
0.9085
0.9048
0.897189
0.89048
0.885574
0.883366
0.885314
0.895899
0.939042
1.02759
1.14313
1.30173
1.50348
1.88593
2.18618
2.2846
2.29706
2.2886
2.27665
2.27162
2.27023
2.27639
2.29001
2.3071
2.31032
2.30792
2.29748
2.29193
2.30501
2.35387
2.45546
2.54565
2.57485
2.55938
2.52769
2.49053
2.45737
2.42949
2.40275
2.37618
1.32524
1.31615
1.30518
1.28931
1.27622
1.26844
1.25908
1.24488
1.2318
1.22412
1.21535
1.20183
1.18765
1.1807
1.17345
1.16235
1.14888
1.14207
1.13552
1.12627
1.11269
1.10363
1.09713
1.08934
1.07746
1.06652
1.06182
1.05629
1.04814
1.03716
1.03132
1.02664
1.02029
1.00988
1.00182
0.998464
0.994185
0.986795
0.978043
0.974007
0.96985
0.963678
0.954546
0.94954
0.945728
0.940942
0.933142
0.928763
0.926244
0.922822
0.915907
0.909085
0.903308
0.895709
0.890259
0.892026
0.900647
0.929168
0.991236
1.09937
1.22999
1.44606
1.87897
2.18727
2.29846
2.3009
2.2927
2.28604
2.28656
2.29385
2.30978
2.3301
2.34898
2.35349
2.3511
2.33688
2.3381
2.36324
2.43766
2.55306
2.64504
2.67158
2.63992
2.58958
2.53727
2.49126
2.45082
2.41585
1.34228
1.3333
1.32245
1.30699
1.29385
1.28565
1.27608
1.26188
1.249
1.24136
1.23263
1.21947
1.20579
1.19874
1.19134
1.18022
1.1669
1.16
1.15335
1.14396
1.13038
1.12159
1.11512
1.10721
1.09509
1.08496
1.08041
1.07476
1.06657
1.05591
1.05031
1.04559
1.03911
1.0285
1.0203
1.01677
1.01232
1.00471
0.995874
0.992087
0.988161
0.982222
0.973258
0.968333
0.964499
0.959434
0.950973
0.945573
0.942256
0.938143
0.931044
0.924895
0.920487
0.914161
0.904543
0.900466
0.901912
0.907199
0.925281
0.973978
1.06167
1.17264
1.4293
1.8905
2.20212
2.27674
2.28052
2.27918
2.28315
2.2934
2.31067
2.33589
2.3581
2.36675
2.36654
2.35411
2.34629
2.35625
2.40323
2.5074
2.64891
2.7456
2.74663
2.6999
2.62974
2.56262
2.5062
2.4618
1.35826
1.34928
1.33847
1.32316
1.31034
1.30203
1.29238
1.27827
1.26569
1.25818
1.24954
1.23651
1.22341
1.21652
1.20907
1.19792
1.185
1.17825
1.17153
1.16191
1.14842
1.13991
1.13316
1.12497
1.11262
1.10313
1.09863
1.09289
1.08467
1.07462
1.06932
1.06441
1.05767
1.04677
1.03813
1.03439
1.02984
1.02209
1.01294
1.00944
1.00593
1.00028
0.991413
0.986347
0.982448
0.977149
0.968267
0.961911
0.95784
0.953212
0.945389
0.939832
0.936335
0.931696
0.923736
0.917094
0.91223
0.911911
0.914773
0.925505
0.958609
1.01931
1.13225
1.45878
1.91499
2.13964
2.193
2.21606
2.23511
2.25518
2.2798
2.31186
2.34611
2.36608
2.36767
2.35954
2.34733
2.34638
2.36389
2.43202
2.58369
2.74125
2.82611
2.80071
2.73407
2.65206
2.58047
2.5252
1.37365
1.36458
1.35375
1.33861
1.32614
1.31783
1.30815
1.29414
1.2821
1.27464
1.26593
1.25307
1.24044
1.23361
1.2261
1.21499
1.20242
1.1958
1.18904
1.17925
1.16586
1.1576
1.15092
1.14264
1.1301
1.12174
1.11743
1.11154
1.10315
1.09383
1.08832
1.08283
1.07579
1.06474
1.05532
1.05153
1.0472
1.03972
1.03015
1.02664
1.02352
1.01812
1.00894
1.00299
0.998723
0.993064
0.983363
0.976448
0.972271
0.967561
0.959765
0.954284
0.951272
0.947793
0.940779
0.935335
0.930897
0.924477
0.920957
0.922603
0.928971
0.94738
0.988359
1.14073
1.54967
1.90562
2.02098
2.0608
2.09364
2.1266
2.16293
2.20678
2.25591
2.29952
2.32001
2.32499
2.31707
2.30716
2.30726
2.33251
2.42921
2.63241
2.7925
2.83316
2.79561
2.72806
2.65903
2.59976
1.38868
1.37964
1.36882
1.35365
1.34171
1.3336
1.32397
1.31007
1.29866
1.29139
1.28271
1.26985
1.25798
1.25138
1.24378
1.23253
1.22037
1.21389
1.20694
1.19695
1.18377
1.17587
1.16923
1.16075
1.14801
1.14056
1.13603
1.12979
1.12081
1.11248
1.10657
1.09997
1.09285
1.08264
1.07197
1.06765
1.06388
1.05736
1.04732
1.04291
1.04014
1.03518
1.02593
1.01878
1.01408
1.00831
0.998373
0.990566
0.986468
0.982064
0.974371
0.969259
0.966521
0.963139
0.956725
0.95155
0.948153
0.94294
0.934705
0.931033
0.932047
0.935406
0.944321
0.990311
1.23287
1.67915
1.8865
1.91938
1.93631
1.959
1.98896
2.02803
2.07744
2.13029
2.17256
2.19709
2.20654
2.203
2.19754
2.19953
2.23532
2.36881
2.6244
2.79861
2.79796
2.74775
2.68458
2.62932
1.40425
1.39517
1.38439
1.36931
1.35765
1.34972
1.34014
1.32631
1.31552
1.3085
1.29982
1.28694
1.27585
1.26934
1.26157
1.2502
1.23837
1.23189
1.22472
1.21436
1.20132
1.19385
1.18725
1.17867
1.16625
1.15949
1.15468
1.14808
1.13802
1.13031
1.12406
1.11583
1.10788
1.09981
1.08915
1.08231
1.07877
1.07375
1.06442
1.05771
1.05457
1.04989
1.04063
1.03178
1.02661
1.02108
1.01149
1.00351
0.999989
0.996211
0.989167
0.984089
0.981261
0.977688
0.971075
0.966214
0.963232
0.959146
0.952245
0.947202
0.942538
0.940969
0.943162
0.953957
1.04279
1.40879
1.77843
1.84074
1.85557
1.87021
1.88891
1.91165
1.93845
1.97011
2.00077
2.02458
2.04032
2.04583
2.04596
2.04334
2.04684
2.08868
2.25207
2.56088
2.72199
2.72096
2.67613
2.62941
1.4208
1.41184
1.40114
1.38597
1.37467
1.36698
1.3574
1.34348
1.3333
1.32644
1.31774
1.30479
1.29446
1.28813
1.28022
1.26839
1.25701
1.2503
1.24259
1.23171
1.2188
1.2116
1.20497
1.19611
1.18398
1.17757
1.17221
1.16509
1.15432
1.14648
1.14024
1.132
1.12137
1.11448
1.10687
1.09753
1.09276
1.08882
1.08154
1.07316
1.06885
1.06424
1.05589
1.04585
1.03947
1.03381
1.02494
1.0168
1.014
1.01102
1.0049
0.999719
0.996853
0.993095
0.98581
0.980363
0.977619
0.974158
0.967697
0.964382
0.961701
0.956389
0.952986
0.955312
0.975109
1.15697
1.60355
1.80286
1.83257
1.84413
1.85768
1.87567
1.89547
1.91541
1.93406
1.94594
1.95074
1.95161
1.9517
1.95046
1.94497
1.9457
1.98051
2.14676
2.43981
2.61482
2.62756
2.59852
1.43855
1.42949
1.41883
1.40371
1.39245
1.385
1.37551
1.36163
1.35192
1.34523
1.33642
1.32324
1.31334
1.30673
1.29836
1.28599
1.27488
1.26785
1.25971
1.24825
1.23584
1.22879
1.22172
1.21233
1.20064
1.19423
1.18817
1.18029
1.16925
1.16104
1.15434
1.14626
1.1342
1.12697
1.1214
1.11255
1.10556
1.10179
1.09586
1.08662
1.08083
1.07614
1.06861
1.05806
1.05139
1.04641
1.0389
1.03095
1.02843
1.02589
1.02026
1.01468
1.01151
1.00764
1.00041
0.994503
0.991716
0.988328
0.983349
0.981591
0.980203
0.97672
0.969681
0.966094
0.970736
1.02502
1.36497
1.74141
1.8264
1.8458
1.85959
1.87641
1.89563
1.91362
1.93046
1.94042
1.94298
1.94228
1.94081
1.93907
1.934
1.92645
1.9256
1.94817
2.08654
2.35381
2.50843
2.52348
1.45688
1.44781
1.43722
1.4219
1.41059
1.40336
1.39387
1.37989
1.37043
1.36367
1.35463
1.34116
1.33137
1.32437
1.3155
1.30235
1.29135
1.28393
1.27536
1.26314
1.25149
1.24459
1.23728
1.22724
1.21588
1.20941
1.20268
1.1938
1.18271
1.17474
1.16746
1.15916
1.14778
1.14039
1.13508
1.12783
1.12004
1.11537
1.10974
1.10111
1.0939
1.08816
1.08089
1.07046
1.06362
1.05937
1.05356
1.04637
1.04383
1.0415
1.03648
1.03041
1.02674
1.02262
1.01512
1.00876
1.00692
1.00406
0.999255
0.998378
0.997873
0.995123
0.990607
0.98388
0.982247
0.994531
1.14579
1.57409
1.79829
1.843
1.8598
1.87567
1.89508
1.91302
1.92977
1.94025
1.94365
1.94338
1.942
1.94043
1.93584
1.92833
1.92213
1.92424
1.94715
2.08116
2.3077
2.40612
1.47471
1.46545
1.45484
1.43948
1.42791
1.42068
1.41132
1.39753
1.38809
1.38119
1.37182
1.35792
1.34769
1.33998
1.33032
1.31638
1.30563
1.29798
1.2892
1.27672
1.2658
1.25894
1.25132
1.24054
1.2298
1.22308
1.21579
1.20613
1.19506
1.18734
1.17989
1.17087
1.16063
1.15425
1.14859
1.14125
1.13382
1.129
1.12332
1.11478
1.1073
1.10147
1.09469
1.08488
1.07855
1.07488
1.06998
1.06309
1.06026
1.05794
1.05305
1.0465
1.04265
1.03867
1.03169
1.02524
1.02344
1.02125
1.01664
1.01477
1.01474
1.01294
1.00914
1.00457
0.99832
0.999875
1.04306
1.34104
1.72685
1.84546
1.86575
1.87824
1.89559
1.9142
1.93171
1.94454
1.94978
1.95158
1.95089
1.94935
1.94557
1.93849
1.92955
1.92608
1.93431
1.97098
2.11904
2.27821
1.4912
1.48173
1.47113
1.45576
1.44376
1.43655
1.42715
1.41312
1.4034
1.39616
1.38636
1.37212
1.36166
1.35353
1.3435
1.32917
1.31853
1.31095
1.30202
1.28906
1.27913
1.2723
1.26442
1.25303
1.24272
1.23596
1.22846
1.21788
1.20739
1.20009
1.19286
1.18326
1.17375
1.16808
1.16255
1.1549
1.14755
1.14242
1.13662
1.12836
1.12076
1.11486
1.10848
1.09951
1.09397
1.09076
1.08647
1.08002
1.07679
1.07426
1.06963
1.06231
1.05805
1.05443
1.04821
1.04157
1.04039
1.03905
1.03458
1.03189
1.0318
1.03048
1.02617
1.02351
1.01849
1.01459
1.02466
1.14725
1.55118
1.82363
1.87221
1.88357
1.89767
1.91567
1.934
1.94854
1.95775
1.96278
1.96459
1.9637
1.96056
1.95528
1.94758
1.93975
1.94035
1.95691
2.02106
2.1715
1.50572
1.49607
1.48552
1.47018
1.458
1.45061
1.44125
1.42749
1.41733
1.40977
1.39966
1.38486
1.37377
1.36543
1.35514
1.34077
1.33075
1.32342
1.31457
1.30178
1.29214
1.28543
1.27738
1.26544
1.25562
1.24882
1.24118
1.23021
1.22009
1.21344
1.2067
1.19697
1.18862
1.18365
1.17825
1.1703
1.16357
1.15842
1.15248
1.14431
1.13736
1.13172
1.12564
1.11737
1.11241
1.10919
1.10492
1.09842
1.09477
1.09211
1.08768
1.08005
1.0754
1.07235
1.06705
1.06021
1.05855
1.05763
1.05388
1.04972
1.0489
1.04762
1.04316
1.03999
1.03753
1.03202
1.03289
1.06715
1.32542
1.73914
1.87283
1.89039
1.90176
1.91749
1.93529
1.95121
1.96354
1.97173
1.9771
1.97797
1.9756
1.97209
1.96864
1.96201
1.95696
1.96283
1.99214
2.09079
1.51926
1.50934
1.49882
1.48374
1.4711
1.46374
1.45447
1.44059
1.43012
1.42239
1.4121
1.39719
1.38585
1.37739
1.36715
1.35277
1.34292
1.33616
1.32754
1.31488
1.30577
1.29924
1.29106
1.27881
1.26904
1.26236
1.25472
1.24341
1.23423
1.22832
1.22183
1.21202
1.20458
1.19993
1.19443
1.18605
1.17974
1.17476
1.16879
1.16048
1.15403
1.14874
1.14281
1.13538
1.13076
1.12714
1.12292
1.11668
1.11203
1.10899
1.10496
1.09752
1.09158
1.0893
1.08551
1.07863
1.07594
1.07562
1.07311
1.06768
1.06603
1.06493
1.06113
1.0563
1.05518
1.0513
1.04791
1.05645
1.16007
1.5545
1.84241
1.89703
1.90931
1.92129
1.93638
1.95224
1.96623
1.9768
1.98466
1.98808
1.98686
1.98517
1.98538
1.98205
1.97527
1.97578
1.98744
2.03666
1.53226
1.52232
1.51208
1.4973
1.4845
1.47705
1.4678
1.45403
1.44291
1.43486
1.4246
1.40949
1.39774
1.38987
1.38021
1.36634
1.35682
1.35055
1.34224
1.32965
1.32015
1.3137
1.3056
1.2933
1.28366
1.27743
1.27007
1.25887
1.25025
1.24505
1.23889
1.22917
1.22244
1.21817
1.21263
1.20403
1.1981
1.19334
1.18725
1.17894
1.17307
1.16801
1.16171
1.15504
1.15061
1.14619
1.14168
1.13653
1.13088
1.12673
1.12319
1.1171
1.10966
1.10719
1.10488
1.09911
1.0944
1.09377
1.09219
1.08691
1.08319
1.08181
1.07879
1.07301
1.0712
1.06947
1.06422
1.0648
1.09416
1.33882
1.75307
1.89686
1.91965
1.92896
1.94037
1.95426
1.96777
1.97939
1.98868
1.99345
1.99394
1.99476
1.99655
1.9937
1.9889
1.98472
1.98787
2.00832
1.54604
1.53596
1.52603
1.51172
1.49856
1.49096
1.48194
1.46829
1.45654
1.44859
1.43864
1.42383
1.41178
1.40433
1.39537
1.38208
1.37216
1.36632
1.35851
1.34618
1.33608
1.32972
1.32185
1.30964
1.29979
1.29398
1.28703
1.27616
1.26814
1.26357
1.25766
1.24799
1.2415
1.23733
1.23161
1.22278
1.21708
1.21248
1.20615
1.19779
1.19236
1.18754
1.18058
1.17427
1.17019
1.16536
1.15926
1.15528
1.15041
1.14397
1.13987
1.13585
1.12868
1.12383
1.12246
1.11903
1.11284
1.11089
1.11003
1.10611
1.10045
1.0986
1.09624
1.09082
1.08726
1.0866
1.08253
1.07896
1.0865
1.18438
1.57215
1.87241
1.93012
1.93826
1.94619
1.95688
1.96903
1.98104
1.991
1.99594
1.99826
2.00185
2.00242
1.99856
1.99412
1.98887
1.98737
1.99478
1.56093
1.55089
1.54142
1.52789
1.51432
1.50657
1.4978
1.48447
1.47201
1.46376
1.45423
1.44009
1.42727
1.42056
1.41266
1.40025
1.38957
1.38384
1.37656
1.36469
1.35355
1.34704
1.33956
1.32786
1.31768
1.31236
1.30599
1.29553
1.28768
1.28343
1.27769
1.26805
1.26161
1.25747
1.25163
1.2426
1.23695
1.2324
1.2258
1.21732
1.21213
1.20743
1.20011
1.19357
1.18977
1.18516
1.17769
1.17338
1.16974
1.16321
1.15684
1.15391
1.14911
1.14229
1.14012
1.13808
1.13258
1.1284
1.12729
1.12447
1.11812
1.11485
1.11273
1.10838
1.10337
1.10239
1.10032
1.09442
1.09474
1.12192
1.36041
1.77677
1.93438
1.94982
1.95477
1.96231
1.97259
1.9841
1.99321
1.99778
2.00176
2.00476
2.00307
1.99777
1.99418
1.98973
1.98457
1.98705
1.57806
1.56761
1.55857
1.54567
1.53202
1.52376
1.51509
1.50246
1.48907
1.4807
1.47196
1.45899
1.44572
1.43901
1.43199
1.42075
1.40875
1.40241
1.39557
1.38447
1.37228
1.36557
1.35865
1.34771
1.33728
1.33225
1.32637
1.31637
1.30831
1.30413
1.29847
1.28876
1.28212
1.27791
1.27188
1.26269
1.25699
1.25233
1.24547
1.23694
1.23177
1.22693
1.21946
1.21283
1.20881
1.20406
1.1966
1.19154
1.18774
1.18191
1.1747
1.17137
1.16767
1.16106
1.15764
1.15595
1.15158
1.14585
1.1439
1.14139
1.13537
1.13071
1.12874
1.12522
1.11995
1.11818
1.11714
1.11184
1.10812
1.1151
1.21001
1.58956
1.91027
1.96235
1.96568
1.97072
1.97898
1.98848
1.99598
2.0008
2.0048
2.00466
2.00115
1.99619
1.99299
1.98938
1.98287
1.98007
1.59668
1.58609
1.57737
1.56524
1.5517
1.54277
1.53393
1.52206
1.50862
1.49936
1.49113
1.47986
1.4661
1.45843
1.45215
1.44215
1.42938
1.4219
1.41534
1.40517
1.39232
1.38513
1.37876
1.36878
1.35811
1.35312
1.34764
1.33803
1.32948
1.32514
1.31945
1.30964
1.3027
1.29831
1.29212
1.28278
1.27692
1.27205
1.26481
1.2563
1.25109
1.24605
1.23838
1.23207
1.22769
1.2225
1.21514
1.21014
1.20581
1.19963
1.1928
1.18941
1.18584
1.17933
1.1754
1.17345
1.16952
1.16317
1.16018
1.15741
1.15173
1.14607
1.14412
1.14115
1.13599
1.1337
1.13277
1.12945
1.12275
1.12316
1.14889
1.37593
1.80075
1.96693
1.97795
1.98099
1.98613
1.99302
1.99944
2.00425
2.00624
2.0044
1.9996
1.99431
1.99029
1.98724
1.98152
1.97709
1.61733
1.60623
1.5976
1.58557
1.57242
1.56328
1.55358
1.54237
1.53006
1.51916
1.51081
1.50121
1.4882
1.47877
1.47252
1.46368
1.45086
1.44181
1.4353
1.426
1.41311
1.40541
1.39952
1.39043
1.37953
1.37433
1.36903
1.35971
1.35063
1.34595
1.34017
1.33025
1.32294
1.31833
1.3119
1.30238
1.29636
1.29125
1.28365
1.27517
1.26995
1.26474
1.25677
1.25069
1.24625
1.24057
1.23297
1.22807
1.22369
1.21694
1.21031
1.20709
1.20347
1.19683
1.19246
1.19019
1.18623
1.17947
1.17576
1.17269
1.16713
1.16108
1.15921
1.15675
1.15155
1.14913
1.14819
1.14585
1.13916
1.13603
1.14255
1.22938
1.59809
1.93892
1.98797
1.99032
1.99281
1.99689
2.00221
2.00634
2.00712
2.00482
1.99882
1.99241
1.98894
1.98657
1.9819
1.976
1.63826
1.62653
1.61817
1.60633
1.59311
1.58432
1.57412
1.56189
1.55178
1.54059
1.5304
1.52188
1.51075
1.49943
1.49244
1.48433
1.4721
1.46192
1.45534
1.44677
1.43423
1.42608
1.4205
1.41208
1.40103
1.39537
1.39006
1.38091
1.37121
1.36614
1.36022
1.35018
1.34253
1.33765
1.33099
1.32126
1.31502
1.3097
1.30171
1.29331
1.28814
1.28278
1.27473
1.26876
1.26417
1.25819
1.25046
1.24537
1.24084
1.23388
1.22721
1.22398
1.22027
1.21344
1.20864
1.20609
1.20201
1.1947
1.19037
1.18723
1.18184
1.17575
1.17406
1.17203
1.16694
1.16386
1.16322
1.16092
1.1561
1.1498
1.15037
1.17337
1.37924
1.81826
1.98931
1.99851
1.99876
2.0001
2.00442
2.00785
2.00814
2.00532
1.99955
1.99361
1.99118
1.98856
1.98414
1.97808
1.65928
1.64662
1.63835
1.62702
1.61286
1.60418
1.59463
1.58108
1.57164
1.56207
1.55014
1.54128
1.5317
1.52018
1.51216
1.50431
1.49284
1.48183
1.47513
1.46709
1.455
1.44655
1.44112
1.43311
1.42182
1.41556
1.41009
1.40092
1.39075
1.38531
1.37928
1.36921
1.36125
1.35611
1.34916
1.33915
1.3327
1.32715
1.31885
1.31066
1.30556
1.30002
1.29198
1.28624
1.28137
1.2748
1.26732
1.26197
1.25702
1.25001
1.24335
1.23979
1.23603
1.22921
1.22349
1.22067
1.21671
1.20911
1.20402
1.20117
1.19626
1.19023
1.18867
1.18705
1.18237
1.17825
1.17767
1.17579
1.17173
1.16577
1.16196
1.16744
1.23976
1.595
1.95693
2.00568
2.00581
2.00499
2.00561
2.00618
2.00608
2.0038
1.99993
1.99637
1.99497
1.99293
1.98926
1.98407
1.67957
1.66508
1.65652
1.64623
1.63191
1.62249
1.61357
1.60033
1.59007
1.58127
1.5698
1.56032
1.55121
1.53974
1.53108
1.52337
1.51237
1.50105
1.49431
1.48668
1.47498
1.46618
1.46082
1.45305
1.44154
1.43464
1.42892
1.4197
1.40891
1.40313
1.39699
1.38685
1.37872
1.37336
1.36621
1.35607
1.34943
1.34367
1.33503
1.32706
1.32201
1.31619
1.30815
1.30256
1.29747
1.29031
1.28319
1.27763
1.27201
1.26526
1.259
1.25413
1.25024
1.24445
1.23757
1.23388
1.2302
1.22315
1.2171
1.21476
1.21087
1.20484
1.20303
1.20182
1.19767
1.19275
1.19165
1.19018
1.18575
1.18125
1.17468
1.17376
1.19177
1.36834
1.8247
2.00134
2.01112
2.01053
2.00837
2.00732
2.00623
2.00411
2.00228
2.00156
2.00099
1.99937
1.99623
1.99183
1.69761
1.68301
1.67291
1.66371
1.65031
1.63921
1.63011
1.61851
1.60799
1.59859
1.5876
1.57858
1.56956
1.55787
1.54901
1.54159
1.53113
1.51929
1.51247
1.50517
1.49362
1.48425
1.47892
1.4714
1.45962
1.45201
1.44615
1.43687
1.4256
1.41951
1.41333
1.40318
1.39479
1.38924
1.38184
1.37156
1.36489
1.35902
1.35022
1.34255
1.33754
1.33141
1.32319
1.31764
1.31239
1.30441
1.29746
1.29225
1.28582
1.27889
1.27401
1.26821
1.26286
1.2587
1.25227
1.24619
1.24254
1.23704
1.23023
1.22804
)
;

boundaryField
{
    inlet
    {
        type            calculated;
        value           nonuniform 0();
    }
    outlet
    {
        type            calculated;
        value           nonuniform 0();
    }
    bottom
    {
        type            symmetryPlane;
    }
    top
    {
        type            symmetryPlane;
    }
    obstacle
    {
        type            calculated;
        value           nonuniform 0();
    }
    front
    {
        type            empty;
    }
    back
    {
        type            empty;
    }
    procBoundary28to13
    {
        type            processor;
        value           nonuniform List<scalar> 
16
(
2.24344
2.26954
2.29548
2.32095
2.35052
2.38551
2.42718
2.48425
2.55454
2.58737
2.59284
2.57315
2.51611
2.42864
2.34225
2.27791
)
;
    }
    procBoundary28to20
    {
        type            processor;
        value           nonuniform List<scalar> 
89
(
0.979535
0.968711
0.956858
0.951891
0.946531
0.939001
0.927723
0.92041
0.914957
0.908559
0.898931
0.889351
0.884834
0.88038
0.874113
0.865919
0.86104
0.856676
0.849683
0.8399
0.837481
0.83503
0.836605
0.853305
0.919603
1.02565
1.16824
1.3577
1.53934
1.67214
1.77779
1.87694
1.94409
1.96836
1.99252
2.01484
2.04937
2.07918
2.08742
2.08528
2.08198
2.08087
2.07353
2.06823
2.07011
2.07157
2.07047
2.07501
2.07959
2.08186
2.08901
2.10457
2.13463
2.17853
2.21273
2.21069
2.20856
2.19945
2.1894
2.19029
2.18866
2.18356
2.19031
2.20058
2.20553
1.26806
1.25635
1.2412
1.22236
1.2098
1.20008
1.1875
1.16923
1.15406
1.1442
1.13295
1.11621
1.10096
1.09401
1.08636
1.07435
1.05915
1.052
1.04573
1.03625
1.02081
1.01097
1.00555
1.00555
)
;
    }
    procBoundary28to21
    {
        type            processor;
        value           nonuniform List<scalar> 
11
(
2.21849
2.15048
2.07826
2.02473
1.99626
1.98205
1.97557
1.97261
1.97226
1.97751
1.98574
)
;
    }
    procBoundary28to27
    {
        type            processor;
        value           nonuniform List<scalar> 
26
(
1.28397
1.29349
1.3054
1.32084
1.33779
1.35461
1.37065
1.38599
1.40097
1.4167
1.43331
1.4514
1.47001
1.4883
1.50505
1.52007
1.53395
1.54734
1.5616
1.5767
1.59389
1.61235
1.63231
1.6529
1.67297
1.69189
)
;
    }
    procBoundary28to35
    {
        type            processor;
        value           uniform 1.70807;
    }
    procBoundary28to36
    {
        type            processor;
        value           nonuniform List<scalar> 
89
(
1.2255
1.21985
1.21719
1.21628
1.21288
1.20763
1.20548
1.20383
1.19949
1.19412
1.18833
1.18194
1.18531
1.24164
1.58016
1.95901
2.01502
2.01584
2.01245
2.01072
2.00971
2.00939
2.01062
2.01153
2.01139
2.01039
2.00794
2.004
1.71333
1.70019
1.68726
1.67832
1.66746
1.65561
1.64505
1.63495
1.62535
1.61496
1.6035
1.59547
1.58703
1.575
1.56534
1.55839
1.54846
1.53609
1.52912
1.52234
1.51121
1.50073
1.49523
1.48798
1.47598
1.46745
1.46155
1.45255
1.44083
1.43441
1.42824
1.41805
1.40939
1.40366
1.39611
1.38578
1.37915
1.37328
1.36438
1.35689
1.35189
1.34543
1.33694
1.33131
1.32595
1.31754
1.31038
1.30565
1.29914
1.29141
1.28734
1.28264
1.27502
1.27088
1.26671
1.25938
1.25467
1.25099
1.24482
1.2255
1.24153
)
;
    }
}


// ************************************************************************* //
