/*--------------------------------*- C++ -*----------------------------------*\
  =========                 |
  \\      /  F ield         | OpenFOAM: The Open Source CFD Toolbox
   \\    /   O peration     | Website:  https://openfoam.org
    \\  /    A nd           | Version:  7
     \\/     M anipulation  |
\*---------------------------------------------------------------------------*/
FoamFile
{
    version     2.0;
    format      ascii;
    class       surfaceScalarField;
    location    "5";
    object      phi;
}
// * * * * * * * * * * * * * * * * * * * * * * * * * * * * * * * * * * * * * //

dimensions      [0 3 -1 0 0 0 0];

internalField   nonuniform List<scalar> 
1165
(
0.0700464
-7.02896e-05
0.0700425
-7.01226e-05
0.0700389
-6.97699e-05
0.0700354
-6.92349e-05
0.0700322
-6.85223e-05
0.0700291
-6.76376e-05
0.0700263
-6.65872e-05
-6.53782e-05
0.0717696
-5.35349e-05
0.0717647
-5.53432e-05
0.0717599
-5.70481e-05
0.071755
-5.86381e-05
0.0717501
-6.01024e-05
0.0717453
-6.14308e-05
0.0717406
-6.26141e-05
0.0717359
-6.36441e-05
0.0717313
-6.45138e-05
0.0717269
-6.52171e-05
0.0717226
-6.57495e-05
0.0717184
-6.61075e-05
0.0717144
-6.62891e-05
0.0717106
-6.62934e-05
0.071707
-6.61209e-05
0.0717035
-6.57732e-05
0.0717002
-6.5253e-05
0.0716972
-6.45641e-05
0.0716943
-6.3711e-05
-6.2699e-05
0.0734744
-4.90573e-05
0.0734699
-5.0814e-05
0.0734653
-5.24853e-05
0.0734608
-5.40601e-05
0.0734562
-5.55278e-05
0.0734516
-5.68784e-05
0.0734471
-5.81024e-05
0.0734427
-5.91912e-05
0.0734383
-6.01371e-05
0.073434
-6.09334e-05
0.0734298
-6.15742e-05
0.0734258
-6.20551e-05
0.0734219
-6.23725e-05
0.0734181
-6.25243e-05
0.0734145
-6.25091e-05
0.073411
-6.23271e-05
0.0734078
-6.19793e-05
0.0734047
-6.14676e-05
0.0734017
-6.0795e-05
-5.99652e-05
0.0752196
-4.49064e-05
0.0752153
-4.66011e-05
0.0752111
-4.8226e-05
0.0752068
-4.97708e-05
0.0752025
-5.12254e-05
0.0751982
-5.25798e-05
0.0751939
-5.38247e-05
0.0751897
-5.49513e-05
0.0751855
-5.59514e-05
0.0751814
-5.68179e-05
0.0751773
-5.75441e-05
0.0751734
-5.81247e-05
0.0751696
-5.85551e-05
0.0751659
-5.88317e-05
0.0751623
-5.89521e-05
0.0751589
-5.89149e-05
0.0751557
-5.87196e-05
0.0751526
-5.83668e-05
0.0751496
-5.78578e-05
-5.71948e-05
0.077006
-4.10634e-05
0.0770021
-4.26881e-05
0.0769981
-4.42568e-05
0.0769941
-4.57598e-05
0.0769901
-4.71874e-05
0.076986
-4.85303e-05
0.076982
-4.97791e-05
0.0769779
-5.09253e-05
0.0769739
-5.19604e-05
0.07697
-5.28769e-05
0.0769661
-5.36679e-05
0.0769623
-5.4327e-05
0.0769586
-5.48491e-05
0.076955
-5.52297e-05
0.0769515
-5.54651e-05
0.0769482
-5.55527e-05
0.0769449
-5.5491e-05
0.0769419
-5.52789e-05
0.0769389
-5.49166e-05
-5.44049e-05
0.0788347
-3.75093e-05
0.0788311
-3.90584e-05
0.0788274
-4.05634e-05
0.0788237
-4.20152e-05
0.0788199
-4.34049e-05
0.0788161
-4.47235e-05
0.0788123
-4.59621e-05
0.0788085
-4.71121e-05
0.0788047
-4.81655e-05
0.0788009
-4.91144e-05
0.0787972
-4.99515e-05
0.0787935
-5.06703e-05
0.0787899
-5.12648e-05
0.0787864
-5.17299e-05
0.078783
-5.20611e-05
0.0787797
-5.22548e-05
0.0787766
-5.23082e-05
0.0787735
-5.22195e-05
0.0787706
-5.19874e-05
-5.16115e-05
0.0807068
-3.42258e-05
0.0807035
-3.56955e-05
0.0807001
-3.71313e-05
0.0806966
-3.85248e-05
0.080693
-3.98677e-05
0.0806895
-4.11516e-05
0.0806859
-4.23681e-05
0.0806823
-4.3509e-05
0.0806787
-4.45661e-05
0.0806751
-4.55319e-05
0.0806715
-4.63989e-05
0.080668
-4.71604e-05
0.0806646
-4.78099e-05
0.0806612
-4.83418e-05
0.0806579
-4.8751e-05
0.0806546
-4.90331e-05
0.0806515
-4.91846e-05
0.0806485
-4.92024e-05
0.0806456
-4.90844e-05
-4.88292e-05
0.0826234
-3.11948e-05
0.0826202
-3.2583e-05
0.0826171
-3.39458e-05
0.0826138
-3.52757e-05
0.0826105
-3.6565e-05
0.0826072
-3.7806e-05
0.0826038
-3.89907e-05
0.0826004
-4.01113e-05
0.082597
-4.116e-05
0.0825936
-4.21294e-05
0.0825902
-4.3012e-05
0.0825868
-4.38011e-05
0.0825835
-4.449e-05
0.0825802
-4.50727e-05
0.082577
-4.55436e-05
0.0825739
-4.58979e-05
0.0825708
-4.61312e-05
0.0825679
-4.62397e-05
0.082565
-4.62205e-05
-4.60712e-05
0.0845854
-2.8399e-05
0.0845825
-2.97046e-05
0.0845795
-3.09922e-05
0.0845765
-3.22548e-05
0.0845734
-3.34855e-05
0.0845703
-3.4677e-05
0.0845671
-3.58221e-05
0.0845639
-3.69134e-05
0.0845607
-3.79434e-05
0.0845575
-3.8905e-05
0.0845543
-3.9791e-05
0.0845511
-4.05945e-05
0.0845479
-4.1309e-05
0.0845447
-4.1928e-05
0.0845416
-4.2446e-05
0.0845386
-4.28574e-05
0.0845356
-4.31575e-05
0.0845327
-4.33419e-05
0.0845299
-4.3407e-05
-4.33495e-05
0.086594
-2.58217e-05
0.0865913
-2.70449e-05
0.0865886
-2.8256e-05
0.0865858
-2.94489e-05
0.0865829
-3.06173e-05
0.08658
-3.17546e-05
0.086577
-3.2854e-05
0.086574
-3.39086e-05
0.086571
-3.49115e-05
0.0865679
-3.58558e-05
0.0865649
-3.67345e-05
0.0865618
-3.75411e-05
0.0865588
-3.82688e-05
0.0865557
-3.89115e-05
0.0865528
-3.94632e-05
0.0865498
-3.99182e-05
0.0865469
-4.02713e-05
0.0865441
-4.05178e-05
0.0865414
-4.06535e-05
-4.06744e-05
0.0886503
-2.3447e-05
0.0886478
-2.45886e-05
0.0886453
-2.57232e-05
0.0886427
-2.68452e-05
0.08864
-2.79489e-05
0.0886373
-2.90283e-05
0.0886345
-3.00773e-05
0.0886317
-3.10894e-05
0.0886288
-3.20583e-05
0.088626
-3.29773e-05
0.0886231
-3.38399e-05
0.0886202
-3.46397e-05
0.0886173
-3.53702e-05
0.0886144
-3.60253e-05
0.0886115
-3.65988e-05
0.0886087
-3.70851e-05
0.0886059
-3.74787e-05
0.0886032
-3.77746e-05
0.0886005
-3.79681e-05
-3.8055e-05
0.0907555
-2.12597e-05
0.0907532
-2.23214e-05
0.0907509
-2.338e-05
0.0907485
-2.44307e-05
0.090746
-2.54683e-05
0.0907434
-2.64875e-05
0.0907408
-2.74826e-05
0.0907382
-2.84478e-05
0.0907355
-2.93771e-05
0.0907328
-3.02644e-05
0.0907301
-3.11035e-05
0.0907273
-3.18882e-05
0.0907246
-3.26123e-05
0.0907218
-3.32699e-05
0.0907191
-3.38548e-05
0.0907163
-3.43614e-05
0.0907136
-3.47842e-05
0.090711
-3.51179e-05
0.0907084
-3.53576e-05
-3.54986e-05
0.0929107
-1.92454e-05
0.0929086
-2.02292e-05
0.0929065
-2.12131e-05
0.0929042
-2.21929e-05
0.0929019
-2.3164e-05
0.0928996
-2.41215e-05
0.0928971
-2.50604e-05
0.0928947
-2.59753e-05
0.0928922
-2.68608e-05
0.0928896
-2.77111e-05
0.092887
-2.85205e-05
0.0928844
-2.92832e-05
0.0928818
-2.99932e-05
0.0928792
-3.06447e-05
0.0928766
-3.1232e-05
0.0928739
-3.17493e-05
0.0928713
-3.21911e-05
0.0928688
-3.25521e-05
0.0928663
-3.28272e-05
-3.30116e-05
0.0951173
-1.73906e-05
0.0951153
-1.82989e-05
0.0951133
-1.92099e-05
0.0951112
-2.01197e-05
0.0951091
-2.10245e-05
0.0951069
-2.19197e-05
0.0951046
-2.28009e-05
0.0951023
-2.36632e-05
0.0951
-2.45015e-05
0.0950976
-2.53108e-05
0.0950951
-2.60856e-05
0.0950927
-2.68205e-05
0.0950902
-2.75098e-05
0.0950877
-2.81481e-05
0.0950852
-2.87297e-05
0.0950827
-2.92492e-05
0.0950802
-2.97011e-05
0.0950777
-3.008e-05
0.0950753
-3.03809e-05
-3.05988e-05
0.0973763
-1.56824e-05
0.0973745
-1.65179e-05
0.0973726
-1.7358e-05
0.0973707
-1.81994e-05
0.0973687
-1.90385e-05
0.0973667
-1.98715e-05
0.0973646
-2.06942e-05
0.0973624
-2.15023e-05
0.0973602
-2.22913e-05
0.0973579
-2.30564e-05
0.0973557
-2.37927e-05
0.0973533
-2.44951e-05
0.097351
-2.51583e-05
0.0973486
-2.57772e-05
0.0973462
-2.63465e-05
0.0973438
-2.68607e-05
0.0973414
-2.73147e-05
0.0973391
-2.77032e-05
0.0973367
-2.80212e-05
-2.82636e-05
0.099689
-1.41087e-05
0.0996874
-1.48743e-05
0.0996857
-1.56459e-05
0.0996839
-1.64206e-05
0.0996821
-1.71952e-05
0.0996801
-1.79664e-05
0.0996782
-1.87305e-05
0.0996762
-1.94837e-05
0.0996741
-2.02218e-05
0.099672
-2.09404e-05
0.0996698
-2.16352e-05
0.0996676
-2.23013e-05
0.0996654
-2.29341e-05
0.0996632
-2.35285e-05
0.0996609
-2.40796e-05
0.0996586
-2.45823e-05
0.0996563
-2.50315e-05
0.099654
-2.54223e-05
0.0996518
-2.57496e-05
-2.60084e-05
0.102057
-1.26582e-05
0.102055
-1.33568e-05
0.102054
-1.40623e-05
0.102052
-1.47723e-05
0.10205
-1.5484e-05
0.102049
-1.61944e-05
0.102047
-1.69003e-05
0.102045
-1.75982e-05
0.102043
-1.82844e-05
0.102041
-1.89551e-05
0.102039
-1.9606e-05
0.102037
-2.02331e-05
0.102035
-2.08318e-05
0.102033
-2.13975e-05
0.10203
-2.19256e-05
0.102028
-2.24114e-05
0.102026
-2.28499e-05
0.102024
-2.32365e-05
0.102022
-2.35662e-05
-2.38343e-05
0.104481
-1.132e-05
0.10448
-1.19545e-05
0.104478
-1.25966e-05
0.104477
-1.32441e-05
0.104475
-1.38946e-05
0.104473
-1.45454e-05
0.104472
-1.51938e-05
0.10447
-1.58366e-05
0.104468
-1.64706e-05
0.104466
-1.70923e-05
0.104464
-1.76979e-05
0.104462
-1.82837e-05
0.10446
-1.88455e-05
0.104458
-1.93791e-05
0.104456
-1.98802e-05
0.104454
-2.03445e-05
0.104452
-2.07673e-05
0.10445
-2.11441e-05
0.104448
-2.14703e-05
-2.17413e-05
0.106963
-1.00839e-05
0.106962
-1.06573e-05
0.10696
-1.12386e-05
0.106959
-1.18258e-05
0.106957
-1.2417e-05
0.106956
-1.30097e-05
0.106954
-1.36016e-05
0.106953
-1.41899e-05
0.106951
-1.47717e-05
0.106949
-1.53439e-05
0.106947
-1.59032e-05
0.106946
-1.6446e-05
0.106944
-1.69688e-05
0.106942
-1.74676e-05
0.10694
-1.79385e-05
0.106938
-1.83774e-05
0.106936
-1.87802e-05
0.106934
-1.91425e-05
0.106932
-1.94599e-05
-1.97283e-05
0.109504
-8.94043e-06
0.109503
-9.45554e-06
0.109501
-9.97853e-06
0.1095
-1.05078e-05
0.109499
-1.10416e-05
0.109497
-1.15778e-05
0.109496
-1.21144e-05
0.109494
-1.2649e-05
0.109493
-1.31789e-05
0.109491
-1.37015e-05
0.109489
-1.42138e-05
0.109488
-1.47126e-05
0.109486
-1.51947e-05
0.109484
-1.56566e-05
0.109482
-1.60947e-05
0.10948
-1.65052e-05
0.109478
-1.68843e-05
0.109477
-1.7228e-05
0.109475
-1.75323e-05
-1.77931e-05
0.112105
-7.88027e-06
0.112104
-8.3398e-06
0.112103
-8.80701e-06
0.112102
-9.28056e-06
0.112101
-9.75891e-06
0.112099
-1.02403e-05
0.112098
-1.0723e-05
0.112096
-1.12048e-05
0.112095
-1.16835e-05
0.112093
-1.21566e-05
0.112092
-1.26217e-05
0.11209
-1.30758e-05
0.112088
-1.35161e-05
0.112087
-1.39395e-05
0.112085
-1.43426e-05
0.112083
-1.47221e-05
0.112081
-1.50746e-05
0.11208
-1.53963e-05
0.112078
-1.56835e-05
-1.59325e-05
0.114769
-6.89469e-06
0.114768
-7.30116e-06
0.114767
-7.71496e-06
0.114766
-8.13494e-06
0.114764
-8.55981e-06
0.114763
-8.98809e-06
0.114762
-9.41817e-06
0.11476
-9.84827e-06
0.114759
-1.02764e-05
0.114758
-1.07006e-05
0.114756
-1.11184e-05
0.114755
-1.15274e-05
0.114753
-1.19251e-05
0.114751
-1.23087e-05
0.11475
-1.26753e-05
0.114748
-1.30218e-05
0.114746
-1.33451e-05
0.114744
-1.36419e-05
0.114743
-1.39089e-05
-1.41425e-05
0.117496
-5.9752e-06
0.117495
-6.33095e-06
0.117494
-6.69353e-06
0.117493
-7.06198e-06
0.117492
-7.43519e-06
0.11749
-7.81193e-06
0.117489
-8.19082e-06
0.117488
-8.57034e-06
0.117487
-8.94881e-06
0.117485
-9.32442e-06
0.117484
-9.69518e-06
0.117482
-1.0059e-05
0.117481
-1.04136e-05
0.117479
-1.07565e-05
0.117478
-1.10852e-05
0.117476
-1.13971e-05
0.117474
-1.16892e-05
0.117473
-1.19588e-05
0.117471
-1.22027e-05
-1.24179e-05
0.120288
-5.11355e-06
0.120287
-5.42069e-06
0.120286
-5.73404e-06
0.120285
-6.05281e-06
0.120284
-6.37606e-06
0.120283
-6.70278e-06
0.120281
-7.03179e-06
0.12028
-7.3618e-06
0.120279
-7.69142e-06
0.120278
-8.01907e-06
0.120276
-8.34308e-06
0.120275
-8.66162e-06
0.120273
-8.97275e-06
0.120272
-9.27438e-06
0.12027
-9.56429e-06
0.120269
-9.84015e-06
0.120267
-1.00995e-05
0.120266
-1.03398e-05
0.120264
-1.05584e-05
-1.07525e-05
0.123146
-4.3016e-06
0.123145
-4.56198e-06
0.123144
-4.82786e-06
0.123143
-5.09859e-06
0.123142
-5.3734e-06
0.123141
-5.65144e-06
0.12314
-5.93176e-06
0.123139
-6.21328e-06
0.123138
-6.49482e-06
0.123137
-6.77509e-06
0.123135
-7.05266e-06
0.123134
-7.32602e-06
0.123133
-7.59351e-06
0.123131
-7.85335e-06
0.12313
-8.10368e-06
0.123128
-8.34249e-06
0.123127
-8.56769e-06
0.123125
-8.77708e-06
0.123123
-8.96837e-06
-9.13919e-06
0.126073
-3.53124e-06
0.126072
-3.74642e-06
0.126071
-3.96631e-06
0.12607
-4.19038e-06
0.126069
-4.41803e-06
0.126068
-4.64856e-06
0.126067
-4.8812e-06
0.126066
-5.11508e-06
0.126065
-5.34924e-06
0.126063
-5.58263e-06
0.126062
-5.81407e-06
0.126061
-6.04232e-06
0.12606
-6.26601e-06
0.126058
-6.48369e-06
0.126057
-6.6938e-06
0.126055
-6.89468e-06
0.126054
-7.08459e-06
0.126052
-7.26168e-06
0.126051
-7.42405e-06
-7.5697e-06
0.129069
-2.79419e-06
0.129068
-2.96542e-06
0.129067
-3.14049e-06
0.129066
-3.31901e-06
0.129065
-3.50051e-06
0.129064
-3.68444e-06
0.129063
-3.8702e-06
0.129062
-4.05711e-06
0.129061
-4.24442e-06
0.12906
-4.43129e-06
0.129059
-4.61681e-06
0.129058
-4.79998e-06
0.129056
-4.97972e-06
0.129055
-5.15488e-06
0.129054
-5.32421e-06
0.129052
-5.4864e-06
0.129051
-5.64003e-06
0.129049
-5.78365e-06
0.129048
-5.9157e-06
-6.03459e-06
0.132136
-2.08205e-06
0.132136
-2.21019e-06
0.132135
-2.34128e-06
0.132134
-2.475e-06
0.132133
-2.61103e-06
0.132132
-2.74896e-06
0.132131
-2.88835e-06
0.13213
-3.02871e-06
0.132129
-3.16946e-06
0.132128
-3.31e-06
0.132127
-3.44964e-06
0.132126
-3.58764e-06
0.132124
-3.7232e-06
0.132123
-3.85545e-06
0.132122
-3.98345e-06
0.13212
-4.10623e-06
0.132119
-4.22272e-06
0.132117
-4.33181e-06
0.132116
-4.43235e-06
-4.52311e-06
0.135277
-1.38548e-06
0.135276
-1.47103e-06
0.135276
-1.55858e-06
0.135275
-1.64793e-06
0.135274
-1.73885e-06
0.135273
-1.83109e-06
0.135272
-1.92434e-06
0.135271
-2.01828e-06
0.13527
-2.11254e-06
0.135269
-2.2067e-06
0.135268
-2.30032e-06
0.135267
-2.3929e-06
0.135265
-2.48391e-06
0.135264
-2.57277e-06
0.135263
-2.65886e-06
0.135261
-2.74151e-06
0.13526
-2.82002e-06
0.135259
-2.89364e-06
0.135257
-2.9616e-06
-3.02307e-06
0.138493
-6.96201e-07
0.138492
-7.38949e-07
0.138491
-7.82751e-07
0.138491
-8.2751e-07
0.13849
-8.73109e-07
0.138489
-9.19412e-07
0.138488
-9.66266e-07
0.138487
-1.0135e-06
0.138486
-1.06092e-06
0.138485
-1.10833e-06
0.138483
-1.15549e-06
0.138482
-1.20215e-06
0.138481
-1.24804e-06
0.13848
-1.29287e-06
0.138478
-1.33633e-06
0.138477
-1.37809e-06
0.138476
-1.41778e-06
0.138474
-1.45503e-06
0.138473
-1.48945e-06
-1.52062e-06
0.141785
0.141784
0.141784
0.141783
0.141782
0.141781
0.14178
0.141779
0.141778
0.141777
0.141776
0.141775
0.141773
0.141772
0.141771
0.141769
0.141768
0.141766
0.141765
)
;

boundaryField
{
    inlet
    {
        type            calculated;
        value           nonuniform 0();
    }
    outlet
    {
        type            calculated;
        value           nonuniform 0();
    }
    cylinder
    {
        type            calculated;
        value           nonuniform 0();
    }
    top
    {
        type            symmetryPlane;
        value           uniform 0;
    }
    bottom
    {
        type            symmetryPlane;
        value           nonuniform 0();
    }
    defaultFaces
    {
        type            empty;
        value           nonuniform 0();
    }
    procBoundary54to45
    {
        type            processor;
        value           nonuniform List<scalar> 2(-0.0717744 -0.0734789);
    }
    procBoundary54to46
    {
        type            processor;
        value           nonuniform List<scalar> 
21
(
7.43562e-05
7.39928e-05
7.34362e-05
7.2692e-05
7.17667e-05
7.06679e-05
6.94039e-05
6.79836e-05
5.8358e-05
6.02043e-05
6.19269e-05
6.35141e-05
6.4955e-05
6.62396e-05
6.73592e-05
6.83063e-05
6.90749e-05
6.966e-05
7.00585e-05
-0.0700505
7.02685e-05
)
;
    }
    procBoundary54to47
    {
        type            processor;
        value           nonuniform List<scalar> 3(0.0700237 0.0716916 0.073399);
    }
    procBoundary54to53
    {
        type            processor;
        value           nonuniform List<scalar> 
28
(
-0.0752237
-0.0770098
-0.0788383
-0.0807101
-0.0826264
-0.0845882
-0.0865965
-0.0886527
-0.0907577
-0.0929128
-0.0951191
-0.097378
-0.0996906
-0.102058
-0.104482
-0.106964
-0.109505
-0.112106
-0.11477
-0.117497
-0.120288
-0.123147
-0.126073
-0.129069
-0.132137
-0.135278
-0.138494
-0.141786
)
;
    }
    procBoundary54to55
    {
        type            processor;
        value           nonuniform List<scalar> 
28
(
0.0751469
0.0769361
0.0787678
0.0806428
0.0825623
0.0845272
0.0865387
0.0885979
0.0907058
0.0928638
0.0950729
0.0973344
0.0996495
0.10202
0.104446
0.10693
0.109473
0.112076
0.114741
0.117469
0.120262
0.123122
0.126049
0.129046
0.132114
0.135256
0.138471
0.141763
)
;
    }
}


// ************************************************************************* //
