/*--------------------------------*- C++ -*----------------------------------*\
  =========                 |
  \\      /  F ield         | OpenFOAM: The Open Source CFD Toolbox
   \\    /   O peration     | Website:  https://openfoam.org
    \\  /    A nd           | Version:  7
     \\/     M anipulation  |
\*---------------------------------------------------------------------------*/
FoamFile
{
    version     2.0;
    format      ascii;
    class       volScalarField;
    location    "9";
    object      p;
}
// * * * * * * * * * * * * * * * * * * * * * * * * * * * * * * * * * * * * * //

dimensions      [1 -1 -2 0 0 0 0];

internalField   nonuniform List<scalar> 
2413
(
1.22426
1.21176
1.19851
1.18455
1.16983
1.15465
1.13953
1.12316
1.10589
1.08799
1.06985
1.0513
1.03183
1.01359
1.00672
1.02046
1.08755
1.20287
1.26778
1.26487
1.22255
1.1816
1.15746
1.1453
1.13823
1.13091
1.12068
1.10844
1.09913
1.09647
1.09944
1.1075
1.1226
1.14801
1.18352
1.22352
1.2598
1.28895
1.31164
1.3297
1.34506
1.35788
1.37003
1.38049
1.39066
1.40043
1.41106
1.42069
1.42812
1.4348
1.44001
1.04095
1.0403
1.04012
1.04072
1.04221
1.04481
1.04875
1.0539
1.0598
1.06612
1.07257
1.07902
1.08575
1.09353
1.10342
1.11639
1.13261
1.1508
1.16889
1.18505
1.19854
1.2097
1.21921
1.22756
1.235
1.24122
1.24581
1.24857
1.24982
1.24976
1.24898
1.24804
1.24735
1.24608
1.24489
1.2414
1.23692
1.22872
1.21835
1.20572
1.19248
1.17832
1.16364
1.14801
1.13192
1.11598
1.09947
1.08188
1.06324
1.04417
1.03018
1.03249
1.06921
1.18246
1.30497
1.34442
1.3162
1.26699
1.23079
1.2118
1.20189
1.19467
1.18615
1.17372
1.16018
1.15123
1.14845
1.1508
1.15784
1.17132
1.19386
1.22463
1.25892
1.29013
1.31591
1.33615
1.35381
1.36815
1.38077
1.39145
1.40057
1.40949
1.41886
1.42851
1.43745
1.44608
1.45296
1.45882
1.03769
1.03673
1.03604
1.0359
1.03658
1.03812
1.04071
1.04457
1.04959
1.05531
1.06144
1.06767
1.0739
1.08044
1.08803
1.09767
1.11019
1.12567
1.14299
1.16019
1.17564
1.18864
1.19944
1.20879
1.21719
1.22473
1.23137
1.23628
1.23926
1.24072
1.24076
1.2402
1.23922
1.23777
1.23677
1.23494
1.23239
1.22738
1.22114
1.21143
1.1998
1.18634
1.17227
1.15722
1.14186
1.12593
1.10983
1.09394
1.07778
1.06275
1.0578
1.07631
1.15462
1.29915
1.38583
1.3936
1.35061
1.30769
1.28183
1.26826
1.2588
1.24948
1.23829
1.22396
1.21067
1.20262
1.19986
1.20159
1.20781
1.22039
1.24147
1.26911
1.29826
1.3253
1.34745
1.36654
1.3831
1.39657
1.40816
1.41698
1.42445
1.43164
1.44044
1.44883
1.45693
1.46579
1.47206
1.47667
1.03459
1.03354
1.03256
1.03185
1.0317
1.03236
1.0339
1.03643
1.04019
1.04506
1.05063
1.05657
1.06261
1.06866
1.07505
1.08249
1.09186
1.1039
1.11867
1.13514
1.15157
1.16641
1.17894
1.18944
1.1986
1.207
1.2147
1.22147
1.22673
1.23026
1.23206
1.23221
1.23154
1.23051
1.22936
1.22762
1.22569
1.22243
1.21836
1.21189
1.20345
1.19256
1.18013
1.16637
1.15217
1.13765
1.12343
1.10943
1.09622
1.08913
1.10039
1.15257
1.27582
1.39123
1.43593
1.42352
1.38224
1.34945
1.33172
1.32183
1.31242
1.30099
1.28699
1.27136
1.25834
1.25099
1.24834
1.25021
1.25645
1.26826
1.28766
1.31222
1.3379
1.36144
1.38128
1.39865
1.41345
1.42544
1.43564
1.44264
1.4487
1.45502
1.46136
1.46904
1.47626
1.48346
1.48936
1.49191
1.03171
1.03049
1.02945
1.02853
1.02783
1.02765
1.02823
1.02965
1.03206
1.03564
1.04034
1.04575
1.05155
1.05748
1.06343
1.06974
1.07704
1.08613
1.09768
1.11174
1.12744
1.14318
1.15747
1.16961
1.17978
1.18875
1.19707
1.2048
1.21155
1.21722
1.22138
1.22356
1.22412
1.22349
1.22229
1.22047
1.21852
1.21579
1.21266
1.20798
1.20199
1.1942
1.1848
1.17409
1.1625
1.15073
1.13931
1.12894
1.12234
1.12748
1.1616
1.25749
1.37887
1.44604
1.46088
1.43848
1.41146
1.39182
1.37942
1.36949
1.3578
1.34451
1.33057
1.31635
1.30481
1.29696
1.29327
1.29408
1.29991
1.31148
1.32984
1.35241
1.37492
1.39512
1.41275
1.42857
1.44165
1.45225
1.46143
1.46712
1.47205
1.47758
1.4821
1.48783
1.49415
1.4988
1.50258
1.50392
1.02952
1.02804
1.02682
1.02574
1.02472
1.02391
1.02357
1.02396
1.02524
1.0275
1.03091
1.03546
1.04075
1.04649
1.05237
1.05831
1.06458
1.07176
1.08057
1.09162
1.10499
1.11994
1.13504
1.14884
1.16061
1.17051
1.17923
1.18737
1.19498
1.20177
1.20764
1.21224
1.21478
1.21599
1.21559
1.21419
1.21207
1.20927
1.20611
1.20215
1.19756
1.19186
1.18521
1.17806
1.17048
1.16331
1.15678
1.15281
1.15519
1.17836
1.24875
1.36002
1.44352
1.47573
1.47403
1.45468
1.43797
1.42747
1.41903
1.40911
1.3959
1.38027
1.36501
1.35158
1.34147
1.33492
1.33243
1.33412
1.33992
1.35065
1.36705
1.38609
1.40544
1.42299
1.43904
1.45355
1.46534
1.47482
1.48286
1.48779
1.4922
1.49557
1.49966
1.50349
1.50701
1.51043
1.51193
1.51303
1.02834
1.02653
1.02482
1.02338
1.02207
1.02082
1.01983
1.01932
1.01947
1.02055
1.02263
1.02591
1.03039
1.03566
1.0414
1.04732
1.0533
1.05957
1.06663
1.07515
1.08566
1.09833
1.11254
1.127
1.14034
1.1518
1.16146
1.16996
1.17783
1.18524
1.19199
1.19782
1.20263
1.20597
1.2073
1.20739
1.2057
1.20327
1.19998
1.19623
1.19233
1.18804
1.18358
1.17939
1.17573
1.17345
1.17297
1.17643
1.19481
1.24666
1.34316
1.43606
1.48154
1.491
1.48371
1.4706
1.4614
1.45612
1.45027
1.44061
1.42659
1.41092
1.39675
1.38506
1.37609
1.36997
1.3673
1.36806
1.37254
1.38143
1.39572
1.4123
1.42931
1.44514
1.46012
1.47316
1.48384
1.49259
1.49937
1.5036
1.50774
1.50991
1.51236
1.51477
1.5164
1.51816
1.51823
1.51871
1.02689
1.02533
1.02331
1.02138
1.01966
1.01803
1.01653
1.01532
1.01464
1.01468
1.01562
1.01755
1.02075
1.02519
1.03047
1.03626
1.04225
1.0483
1.05457
1.0615
1.06967
1.07963
1.09156
1.10499
1.11882
1.13174
1.14296
1.15249
1.1608
1.16842
1.17554
1.18213
1.18791
1.19277
1.19627
1.19805
1.19798
1.19678
1.19385
1.19062
1.18706
1.1836
1.18072
1.179
1.1789
1.18082
1.18554
1.20037
1.23965
1.31935
1.4174
1.48031
1.50262
1.50281
1.49551
1.48695
1.48216
1.47918
1.47438
1.4651
1.45189
1.43767
1.42472
1.41364
1.40471
1.39822
1.39475
1.39495
1.3984
1.40493
1.41635
1.43079
1.44572
1.46017
1.47421
1.48607
1.49584
1.50429
1.51023
1.51391
1.5169
1.51927
1.52056
1.52131
1.52227
1.52277
1.52274
1.52195
1.02443
1.02367
1.02174
1.01941
1.01721
1.0152
1.01342
1.01179
1.01047
1.00966
1.00962
1.01051
1.01238
1.01554
1.01996
1.02522
1.03103
1.03707
1.04316
1.04939
1.05612
1.0639
1.07325
1.08439
1.09702
1.1102
1.12275
1.13385
1.14335
1.15161
1.15901
1.16585
1.17214
1.17767
1.1822
1.18567
1.18748
1.18792
1.1865
1.18445
1.18155
1.17912
1.17764
1.17791
1.18042
1.1854
1.19684
1.22504
1.28442
1.37913
1.46008
1.5013
1.51184
1.51071
1.50433
1.49858
1.49587
1.49375
1.48927
1.48075
1.46933
1.45737
1.44602
1.43573
1.42699
1.42009
1.41582
1.4146
1.41661
1.42148
1.4304
1.4434
1.45698
1.47052
1.48345
1.4943
1.50298
1.5108
1.51597
1.51973
1.52188
1.52475
1.52522
1.52536
1.52587
1.52586
1.52595
1.52458
1.01947
1.02068
1.01964
1.01741
1.01489
1.01256
1.01044
1.00854
1.00692
1.00558
1.00477
1.00468
1.00548
1.00725
1.01031
1.01461
1.01979
1.02555
1.03157
1.03763
1.04376
1.05025
1.05757
1.06624
1.07657
1.08837
1.10091
1.11313
1.1242
1.13383
1.14214
1.14945
1.15597
1.1618
1.16686
1.17105
1.17402
1.17594
1.17653
1.17629
1.17507
1.17411
1.17423
1.17627
1.18059
1.18929
1.20856
1.24728
1.32563
1.41904
1.48118
1.50963
1.51582
1.51433
1.50856
1.50422
1.50213
1.50005
1.49549
1.48795
1.47856
1.46886
1.45923
1.44997
1.44162
1.43464
1.42973
1.42739
1.42823
1.43219
1.43976
1.45184
1.46451
1.47721
1.48891
1.49874
1.50658
1.51374
1.51831
1.52231
1.52478
1.52713
1.52753
1.52788
1.52844
1.52869
1.52906
1.52795
1.01129
1.01546
1.01643
1.0152
1.01292
1.01035
1.008
1.00591
1.00397
1.00228
1.00096
1.00009
0.999869
1.00045
1.00203
1.00488
1.00894
1.01393
1.01955
1.02547
1.03142
1.03737
1.04355
1.05039
1.0584
1.06791
1.07887
1.09074
1.10263
1.11373
1.12353
1.13199
1.13923
1.14546
1.15083
1.15536
1.15905
1.16197
1.16381
1.16538
1.16634
1.16769
1.16973
1.17358
1.18066
1.19389
1.21941
1.26995
1.35887
1.44314
1.49172
1.51266
1.51699
1.51475
1.50894
1.50485
1.50262
1.50021
1.4957
1.48914
1.48162
1.47386
1.46591
1.4579
1.45031
1.44367
1.43862
1.43587
1.43626
1.43993
1.44724
1.45875
1.4706
1.4822
1.49255
1.50122
1.50839
1.51505
1.51935
1.52347
1.52705
1.52885
1.52964
1.53016
1.53131
1.53197
1.53279
1.53203
0.999696
1.00718
1.01127
1.01227
1.01107
1.00885
1.00636
1.00389
1.00167
0.999676
0.997787
0.996262
0.995237
0.994836
0.995163
0.996447
0.99898
1.00271
1.0074
1.01276
1.01846
1.02421
1.02996
1.03586
1.04229
1.04966
1.05835
1.06842
1.07955
1.09102
1.10202
1.11197
1.1206
1.1279
1.13401
1.13907
1.14329
1.14686
1.14984
1.15272
1.1553
1.15874
1.16303
1.16961
1.18012
1.19827
1.22893
1.29203
1.38456
1.4589
1.49894
1.51541
1.51846
1.51531
1.50914
1.50452
1.50162
1.49866
1.49422
1.48851
1.48234
1.47609
1.46956
1.46274
1.45601
1.4499
1.44511
1.44254
1.44307
1.44686
1.4543
1.46531
1.47624
1.48669
1.49582
1.50337
1.51007
1.51638
1.52077
1.52499
1.52963
1.53111
1.53264
1.53348
1.53526
1.53632
1.53757
1.53693
0.986322
0.995864
1.00308
1.00725
1.00846
1.00733
1.00506
1.0025
0.999923
0.997408
0.995101
0.993046
0.991197
0.989881
0.989216
0.989266
0.990271
0.992454
0.995739
0.999954
1.00491
1.01031
1.01589
1.02149
1.02719
1.03322
1.03998
1.04781
1.05693
1.06712
1.07793
1.08869
1.09874
1.10765
1.1152
1.12146
1.12667
1.13116
1.13518
1.13913
1.14315
1.14811
1.15462
1.16403
1.17778
1.20075
1.23695
1.31055
1.40322
1.47041
1.50578
1.52021
1.5226
1.51876
1.51208
1.50666
1.5028
1.49907
1.49451
1.48928
1.48396
1.47871
1.4732
1.46728
1.4613
1.4558
1.45153
1.44946
1.45045
1.45453
1.46206
1.47245
1.48232
1.49154
1.49964
1.50653
1.51285
1.51886
1.52358
1.52815
1.5332
1.53475
1.53707
1.53844
1.54074
1.54206
1.54324
1.54273
0.974392
0.983016
0.992043
0.999131
1.00333
1.0046
1.00341
1.00094
0.998128
0.995312
0.992599
0.989976
0.987641
0.985685
0.984071
0.983057
0.982735
0.983382
0.985064
0.987729
0.991411
0.995961
1.00107
1.00643
1.01186
1.01734
1.02305
1.02923
1.03626
1.04434
1.05356
1.06363
1.07402
1.08406
1.09319
1.10114
1.10799
1.11402
1.11949
1.12477
1.13018
1.13665
1.14492
1.15684
1.17408
1.20011
1.24292
1.32364
1.41517
1.47866
1.51216
1.5264
1.529
1.52515
1.51817
1.51217
1.50745
1.50298
1.49818
1.49312
1.48823
1.48353
1.47866
1.47337
1.468
1.46312
1.45951
1.45806
1.45952
1.46375
1.471
1.48057
1.48937
1.49753
1.50489
1.51141
1.51744
1.52333
1.52832
1.53332
1.53838
1.54034
1.54297
1.54487
1.54728
1.54866
1.54964
1.54928
0.966728
0.971601
0.979478
0.987883
0.994606
0.998644
0.999804
0.998584
0.996044
0.993064
0.990063
0.987122
0.98433
0.98167
0.979356
0.977505
0.97617
0.975477
0.975643
0.976814
0.978981
0.982128
0.986134
0.990777
0.995828
1.00108
1.00643
1.01187
1.01766
1.02408
1.03141
1.03978
1.04904
1.05877
1.06845
1.07767
1.08626
1.09424
1.10169
1.10881
1.11594
1.12394
1.13386
1.1478
1.16846
1.19667
1.24613
1.33057
1.42114
1.4835
1.51669
1.53192
1.53557
1.53259
1.52584
1.51968
1.51448
1.50963
1.50479
1.49992
1.49531
1.49095
1.4865
1.48172
1.47688
1.47255
1.46946
1.46843
1.47007
1.4742
1.48083
1.48937
1.49733
1.50478
1.51163
1.51803
1.52406
1.52988
1.53515
1.54054
1.54538
1.54766
1.55029
1.5523
1.55481
1.55593
1.55655
1.55649
0.963347
0.964268
0.968054
0.974773
0.982307
0.988694
0.992648
0.993854
0.992757
0.990272
0.98722
0.984049
0.98094
0.977898
0.975077
0.972534
0.970393
0.968731
0.967652
0.967322
0.967826
0.96935
0.972025
0.975622
0.979989
0.984856
0.989986
0.995261
1.0007
1.0064
1.01256
1.01934
1.02683
1.03498
1.04367
1.05274
1.06202
1.07137
1.08069
1.08994
1.09921
1.10913
1.12087
1.13671
1.15981
1.18991
1.24452
1.33184
1.42358
1.48781
1.52198
1.53809
1.54259
1.54049
1.53416
1.52807
1.52274
1.5179
1.51329
1.50877
1.50452
1.50052
1.49653
1.49234
1.48815
1.48444
1.48183
1.481
1.48243
1.48613
1.4917
1.49892
1.50616
1.51305
1.51962
1.52606
1.53224
1.53829
1.54381
1.54915
1.55363
1.55603
1.55857
1.56062
1.56325
1.56443
1.56467
1.5648
0.962522
0.960728
0.960689
0.963151
0.96848
0.975131
0.981196
0.985259
0.986743
0.985964
0.983671
0.980562
0.977218
0.973919
0.970797
0.967868
0.96524
0.963013
0.961251
0.960055
0.959448
0.959512
0.960441
0.962437
0.965544
0.969507
0.974242
0.979486
0.985027
0.990719
0.996554
1.00252
1.00869
1.01521
1.02224
1.02993
1.03835
1.04756
1.05754
1.06815
1.07924
1.09101
1.10451
1.12216
1.14739
1.17948
1.23666
1.32542
1.4199
1.48963
1.52869
1.54717
1.55263
1.55072
1.54416
1.53765
1.53214
1.52746
1.52324
1.51922
1.51546
1.51194
1.50848
1.50487
1.50122
1.49792
1.49553
1.49459
1.4955
1.49843
1.5029
1.50881
1.51541
1.52189
1.5284
1.53505
1.54154
1.54766
1.55312
1.55821
1.5623
1.56456
1.56709
1.56946
1.572
1.57344
1.57309
1.57324
0.962921
0.959729
0.956962
0.955795
0.957077
0.961037
0.966823
0.972563
0.976654
0.978449
0.978097
0.976103
0.973168
0.969905
0.966694
0.963628
0.960779
0.958218
0.956049
0.954331
0.953102
0.95245
0.952424
0.953218
0.954944
0.957643
0.961346
0.965848
0.97093
0.976356
0.981959
0.987574
0.993241
0.999015
1.00498
1.01133
1.01832
1.02629
1.03551
1.04602
1.05768
1.07038
1.08499
1.1039
1.13086
1.16494
1.22265
1.3107
1.40849
1.48638
1.53342
1.55724
1.56579
1.56447
1.55774
1.55048
1.5445
1.53976
1.5358
1.53227
1.52906
1.52605
1.52307
1.5199
1.51659
1.51346
1.51093
1.50943
1.50942
1.51118
1.51445
1.51905
1.52469
1.5309
1.53745
1.54431
1.55089
1.55686
1.56217
1.56687
1.5705
1.57243
1.57476
1.57715
1.57928
1.58127
1.58107
1.58163
0.963296
0.95985
0.955914
0.952233
0.950139
0.950243
0.952816
0.957564
0.962805
0.966954
0.96909
0.969216
0.967817
0.965449
0.962629
0.959734
0.957013
0.954514
0.95228
0.950372
0.94884
0.947789
0.947236
0.947268
0.947989
0.949557
0.95193
0.955231
0.959444
0.964266
0.969459
0.974817
0.980281
0.985782
0.991273
0.996846
1.00276
1.00943
1.01727
1.02653
1.03724
1.04954
1.06416
1.08336
1.11112
1.14638
1.20307
1.28924
1.39021
1.47791
1.53475
1.56513
1.57946
1.58062
1.57481
1.56695
1.5604
1.55546
1.55165
1.54859
1.5459
1.54327
1.54044
1.53732
1.53391
1.5305
1.52745
1.52517
1.52397
1.52426
1.52621
1.52979
1.53454
1.54036
1.54684
1.55366
1.56012
1.56575
1.57049
1.57467
1.57775
1.5795
1.58175
1.58435
1.58653
1.58942
1.58946
1.59049
0.963325
0.960228
0.956273
0.9518
0.947564
0.944466
0.943365
0.944477
0.947782
0.952304
0.956403
0.959103
0.96002
0.959473
0.957945
0.955839
0.953543
0.95136
0.949463
0.947658
0.945977
0.94468
0.943814
0.943393
0.943437
0.944089
0.945403
0.947482
0.950337
0.95395
0.958364
0.963435
0.968846
0.974325
0.979761
0.98518
0.990754
0.99682
1.00377
1.01195
1.02153
1.03275
1.04625
1.06417
1.09059
1.12555
1.17868
1.26037
1.36264
1.46157
1.5322
1.57096
1.59145
1.59706
1.59334
1.58579
1.57885
1.57372
1.57006
1.56741
1.56514
1.56268
1.55984
1.55659
1.55294
1.54913
1.54544
1.5422
1.53975
1.53869
1.53927
1.54162
1.54545
1.5506
1.55662
1.56303
1.56902
1.5741
1.57789
1.58145
1.58416
1.58611
1.58873
1.59191
1.59448
1.5983
1.5986
1.60044
0.963054
0.960399
0.956878
0.95253
0.947634
0.942732
0.93855
0.93602
0.935667
0.937593
0.941351
0.94551
0.948856
0.95077
0.951286
0.950779
0.949631
0.94805
0.946339
0.944809
0.943616
0.942262
0.941096
0.940309
0.93995
0.940091
0.940736
0.941943
0.943792
0.946396
0.949855
0.954088
0.958922
0.964103
0.969431
0.974838
0.980389
0.986321
0.992973
1.00078
1.01004
1.02082
1.03342
1.0495
1.07282
1.10663
1.15399
1.2288
1.32763
1.4333
1.51977
1.57162
1.59812
1.61086
1.61239
1.60635
1.59916
1.594
1.59063
1.58855
1.58671
1.5845
1.58165
1.57809
1.5739
1.56938
1.56486
1.56072
1.55725
1.55499
1.55421
1.55533
1.55797
1.56204
1.56713
1.57264
1.57772
1.58215
1.58532
1.58818
1.59056
1.5931
1.59659
1.6006
1.60351
1.60822
1.60901
1.6117
0.962778
0.960372
0.957333
0.953507
0.948848
0.943544
0.938017
0.932913
0.929061
0.927418
0.928064
0.930828
0.934833
0.93866
0.941585
0.94329
0.943863
0.943573
0.942658
0.941547
0.940498
0.939775
0.938933
0.938137
0.937487
0.937132
0.937171
0.937803
0.939149
0.941256
0.94411
0.947616
0.951662
0.956113
0.9609
0.966028
0.971489
0.977406
0.984062
0.991875
1.00114
1.0119
1.02408
1.03863
1.05893
1.09062
1.13275
1.19939
1.29056
1.3955
1.49447
1.56364
1.59993
1.61905
1.62594
1.62648
1.62105
1.61509
1.61186
1.61092
1.61015
1.60829
1.60544
1.60159
1.59698
1.59199
1.5869
1.58197
1.57744
1.57387
1.57157
1.57104
1.57211
1.57471
1.57833
1.58252
1.58654
1.59029
1.5931
1.59549
1.59838
1.60133
1.60629
1.6109
1.61438
1.61958
1.62098
1.62449
0.963267
0.96068
0.957706
0.954125
0.949741
0.944548
0.938771
0.932771
0.927053
0.922329
0.919511
0.919015
0.920682
0.924152
0.928309
0.932036
0.934702
0.936181
0.9367
0.936655
0.936182
0.935783
0.93566
0.935486
0.935022
0.934659
0.93457
0.935016
0.936139
0.937954
0.940389
0.943313
0.946648
0.950384
0.954585
0.959284
0.964447
0.970229
0.976892
0.984796
0.994134
1.00493
1.01694
1.03046
1.04803
1.07599
1.11505
1.17431
1.25724
1.35553
1.45846
1.54427
1.59693
1.62394
1.63589
1.63959
1.63944
1.63748
1.63487
1.63366
1.63382
1.63311
1.6307
1.62696
1.62229
1.61706
1.61148
1.6057
1.59994
1.59479
1.59075
1.58835
1.58747
1.5881
1.59003
1.59271
1.59569
1.59885
1.60179
1.60425
1.60735
1.61145
1.61738
1.62279
1.62706
1.63211
1.63437
1.63864
0.964212
0.961174
0.958056
0.954551
0.950461
0.94567
0.940176
0.934094
0.927734
0.921603
0.916324
0.91256
0.910971
0.911436
0.913811
0.917517
0.92143
0.924881
0.927531
0.929335
0.930408
0.930683
0.930659
0.930574
0.93084
0.931293
0.932152
0.933347
0.934668
0.936298
0.938261
0.940523
0.943142
0.946324
0.95019
0.954586
0.959431
0.964926
0.971319
0.978903
0.987845
0.998273
1.01005
1.02309
1.03899
1.06277
1.10013
1.15117
1.22567
1.31564
1.41474
1.51167
1.58308
1.62268
1.64296
1.65016
1.65312
1.65537
1.65642
1.65787
1.65918
1.65913
1.65729
1.65397
1.64949
1.64426
1.63826
1.63157
1.6245
1.61765
1.61156
1.60681
1.60385
1.60238
1.60237
1.60331
1.60532
1.60786
1.6108
1.61335
1.61725
1.62229
1.62789
1.63391
1.63955
1.64521
1.64889
1.65382
0.966477
0.962567
0.958677
0.954701
0.95057
0.94608
0.94108
0.935518
0.929473
0.923098
0.916735
0.910948
0.906199
0.903041
0.901951
0.902772
0.905385
0.909372
0.913629
0.917356
0.920181
0.922029
0.923194
0.924101
0.925145
0.926458
0.927849
0.929464
0.931282
0.933243
0.935327
0.937595
0.940303
0.943695
0.947639
0.951944
0.95662
0.961819
0.96767
0.974426
0.982405
0.991992
1.00335
1.01624
1.03119
1.05139
1.08472
1.12957
1.19682
1.28033
1.37179
1.47047
1.55818
1.61501
1.6457
1.6601
1.66706
1.67206
1.67583
1.67949
1.68309
1.68479
1.68446
1.68214
1.67834
1.67318
1.66666
1.65881
1.65014
1.64136
1.63322
1.62619
1.62078
1.61699
1.6152
1.61418
1.61472
1.61581
1.61883
1.62153
1.62568
1.63121
1.63828
1.64533
1.65177
1.6581
1.66337
1.66952
0.97027
0.965457
0.96065
0.955927
0.951294
0.94663
0.941795
0.936631
0.931049
0.924985
0.918606
0.912177
0.906031
0.900637
0.896348
0.89369
0.89298
0.894024
0.896526
0.900067
0.903902
0.907674
0.911281
0.914607
0.917334
0.919733
0.92187
0.923842
0.925855
0.92796
0.930245
0.932942
0.936271
0.940213
0.944563
0.949093
0.953797
0.958678
0.963867
0.969469
0.976092
0.984301
0.994545
1.00685
1.02128
1.03918
1.0663
1.10769
1.16653
1.24545
1.33193
1.42586
1.52232
1.59924
1.6454
1.67049
1.68352
1.69156
1.69794
1.70275
1.70705
1.7097
1.71062
1.70976
1.7069
1.7019
1.69478
1.68583
1.67575
1.66537
1.65541
1.64643
1.63887
1.63254
1.62805
1.62483
1.62321
1.62281
1.62412
1.62704
1.63202
1.63842
1.64606
1.65368
1.66133
1.66908
1.67664
1.68524
0.974602
0.969427
0.964365
0.959341
0.954266
0.949132
0.94387
0.938415
0.932731
0.926753
0.920485
0.913904
0.907196
0.900633
0.894444
0.889021
0.884745
0.881978
0.881098
0.881898
0.884315
0.888258
0.892783
0.89738
0.901638
0.905445
0.908909
0.912147
0.915311
0.918541
0.922048
0.926309
0.931272
0.93653
0.941658
0.946765
0.951845
0.956803
0.961718
0.966923
0.973234
0.981353
0.991893
1.00466
1.01872
1.03409
1.05456
1.08886
1.13834
1.21056
1.29356
1.38109
1.47691
1.57017
1.63824
1.67816
1.69997
1.71262
1.72124
1.72736
1.73191
1.7352
1.73689
1.73671
1.73439
1.72933
1.72173
1.71198
1.70075
1.68879
1.67682
1.66557
1.65547
1.64684
1.63981
1.63403
1.62984
1.62772
1.62745
1.62988
1.63447
1.64182
1.64998
1.65861
1.668
1.6779
1.68814
1.69975
0.980156
0.974464
0.968707
0.962901
0.957075
0.951254
0.945452
0.939736
0.934034
0.928134
0.92179
0.914989
0.907913
0.900883
0.89398
0.887357
0.881256
0.875911
0.871932
0.869651
0.869079
0.870066
0.872287
0.875522
0.879588
0.884149
0.888998
0.89395
0.898902
0.903894
0.909054
0.914467
0.919914
0.925366
0.930982
0.93674
0.942496
0.948181
0.95393
0.960424
0.968152
0.977429
0.988319
1.00064
1.01386
1.02822
1.04563
1.07211
1.11421
1.17254
1.2533
1.33967
1.42875
1.5261
1.61517
1.67642
1.71263
1.73289
1.7456
1.75391
1.75978
1.76423
1.76635
1.76605
1.76313
1.75686
1.74798
1.73681
1.72406
1.71044
1.69657
1.68322
1.67086
1.65996
)
;

boundaryField
{
    inlet
    {
        type            fixedValue;
        value           nonuniform 0();
    }
    outlet
    {
        type            zeroGradient;
    }
    bottom
    {
        type            symmetryPlane;
    }
    top
    {
        type            symmetryPlane;
    }
    obstacle
    {
        type            zeroGradient;
    }
    front
    {
        type            empty;
    }
    back
    {
        type            empty;
    }
    procBoundary12to4
    {
        type            processor;
        value           nonuniform List<scalar> 
89
(
1.21795
1.20497
1.19094
1.17673
1.16235
1.14628
1.12989
1.11344
1.09689
1.07997
1.06199
1.04306
1.02293
1.00331
0.990798
0.994572
1.02999
1.11231
1.17806
1.19355
1.1682
1.13173
1.10591
1.09153
1.08337
1.07626
1.06769
1.05795
1.04951
1.04765
1.05199
1.06198
1.08002
1.10966
1.15049
1.19577
1.23602
1.26731
1.29127
1.31058
1.32738
1.34208
1.3548
1.3671
1.37806
1.3884
1.39844
1.40798
1.41426
1.42331
1.43047
1.04434
1.04415
1.04468
1.04619
1.04875
1.05276
1.05802
1.06408
1.0706
1.07728
1.08397
1.09093
1.09891
1.10903
1.12242
1.13933
1.1585
1.17755
1.19454
1.20862
1.22008
1.22974
1.23804
1.24532
1.25118
1.25543
1.2581
1.25915
1.25907
1.25871
1.2583
1.25774
1.25715
1.2546
1.25047
1.24399
1.2354
1.2354
)
;
    }
    procBoundary12to5
    {
        type            processor;
        value           nonuniform List<scalar> 
27
(
1.43918
1.45644
1.47632
1.49323
1.50481
1.5121
1.51665
1.52005
1.52322
1.52682
1.53128
1.53676
1.54282
1.54919
1.55663
1.56462
1.57313
1.58179
1.5909
1.6011
1.61241
1.62539
1.6399
1.65609
1.67411
1.69321
1.71115
)
;
    }
    procBoundary12to11
    {
        type            processor;
        value           nonuniform List<scalar> 
26
(
1.0418
1.0388
1.0358
1.03317
1.03121
1.0297
1.02727
1.02285
1.01498
1.00347
0.989592
0.977011
0.968814
0.965094
0.964302
0.964983
0.9658
0.96598
0.965587
0.964991
0.964774
0.96575
0.967402
0.970486
0.975085
0.979819
)
;
    }
    procBoundary12to19
    {
        type            processor;
        value           uniform 0.985672;
    }
    procBoundary12to20
    {
        type            processor;
        value           nonuniform List<scalar> 
89
(
1.65033
1.64208
1.63511
1.63081
1.62993
1.63127
1.63521
1.64227
1.65117
1.66157
1.67256
1.68467
1.69808
1.71346
0.987052
0.980935
0.974649
0.96825
0.961791
0.95535
0.948923
0.94251
0.936018
0.929439
0.922859
0.916256
0.909417
0.902461
0.895465
0.888534
0.881764
0.875386
0.869508
0.864401
0.86026
0.857231
0.855577
0.855668
0.857684
0.861075
0.865589
0.87108
0.877265
0.884034
0.891241
0.89862
0.906225
0.913906
0.921633
0.929439
0.937305
0.945221
0.953258
0.961361
0.969562
0.978235
0.987716
0.998595
1.01128
1.02563
1.04153
1.06202
1.09367
1.13817
1.21074
1.29567
1.38248
1.47539
1.57386
1.65954
1.71609
1.74925
1.76891
1.78101
1.78981
1.79602
1.7987
1.79833
1.7946
1.7871
1.77705
1.76452
1.74995
1.73406
1.71755
1.70129
1.68573
1.65033
1.67141
)
;
    }
}


// ************************************************************************* //
