/*--------------------------------*- C++ -*----------------------------------*\
  =========                 |
  \\      /  F ield         | OpenFOAM: The Open Source CFD Toolbox
   \\    /   O peration     | Website:  https://openfoam.org
    \\  /    A nd           | Version:  7
     \\/     M anipulation  |
\*---------------------------------------------------------------------------*/
FoamFile
{
    version     2.0;
    format      ascii;
    class       surfaceScalarField;
    location    "1.448";
    object      phi;
}
// * * * * * * * * * * * * * * * * * * * * * * * * * * * * * * * * * * * * * //

dimensions      [0 3 -1 0 0 0 0];

internalField   nonuniform List<scalar> 
18389
(
-7.97346e-05
7.97346e-05
4.3464e-05
-4.3464e-05
-5.20444e-05
5.20444e-05
4.01703e-05
-4.01703e-05
-5.18282e-05
5.18282e-05
-4.00428e-05
4.00428e-05
-3.47311e-05
3.47311e-05
3.90652e-05
-3.90652e-05
-3.57344e-05
3.57345e-05
4.14894e-05
-4.14894e-05
4.51184e-05
-4.51184e-05
-3.46812e-05
3.46812e-05
-1.58487e-05
1.58487e-05
-4.28622e-05
4.28622e-05
4.34814e-05
-4.34814e-05
2.45526e-05
-2.45526e-05
1.95103e-05
-1.95103e-05
4.58976e-05
-4.58976e-05
4.59307e-05
-4.59307e-05
4.33355e-05
-4.33355e-05
-4.25903e-05
4.25903e-05
3.56667e-05
-3.56667e-05
4.30045e-05
-4.30044e-05
-5.8459e-05
5.8459e-05
-4.97289e-05
4.97289e-05
-4.18082e-05
4.18082e-05
-4.45458e-05
4.45458e-05
4.56279e-05
-4.56279e-05
4.58607e-05
-4.58606e-05
4.41471e-05
-4.41471e-05
-4.13469e-05
4.13469e-05
-6.3074e-05
6.3074e-05
4.31167e-05
-4.31167e-05
-4.47512e-05
4.47512e-05
4.08602e-05
-4.08602e-05
4.67039e-05
-4.67039e-05
-4.55531e-05
4.55531e-05
5.35762e-05
-5.35762e-05
-5.8919e-05
5.8919e-05
3.78788e-05
-3.78788e-05
4.4872e-05
-4.4872e-05
4.53848e-05
-4.53848e-05
-4.10144e-05
4.10144e-05
4.49061e-05
-4.49061e-05
4.58769e-05
-4.58769e-05
-4.58602e-05
4.58602e-05
-4.58609e-05
4.58609e-05
-4.06688e-05
4.06688e-05
-4.5891e-05
4.5891e-05
4.59436e-05
-4.59436e-05
4.59576e-05
-4.59576e-05
4.46213e-05
-4.46213e-05
3.77324e-05
-3.77324e-05
-4.57703e-05
4.57703e-05
-5.55465e-05
5.55465e-05
-4.38139e-05
4.38139e-05
4.57545e-05
-4.57545e-05
-4.59943e-05
4.59944e-05
4.32276e-05
-4.32276e-05
-5.93197e-05
5.93197e-05
-4.71473e-05
4.71473e-05
4.96053e-05
-4.96053e-05
4.57374e-05
-4.57374e-05
-1.24307e-05
1.24307e-05
4.5777e-05
-4.5777e-05
4.15201e-05
-4.152e-05
5.12153e-05
-5.12153e-05
-4.58708e-05
4.58708e-05
4.23179e-05
-4.23179e-05
3.16311e-05
-3.16311e-05
3.18941e-06
-3.18941e-06
-4.41261e-05
4.41261e-05
3.28686e-05
-3.28686e-05
-3.6573e-05
3.6573e-05
3.97701e-05
-3.97701e-05
2.66256e-05
-2.66256e-05
2.61998e-05
-2.61998e-05
2.70487e-05
-2.70487e-05
2.43924e-05
-2.43923e-05
1.34382e-05
-1.34382e-05
0.00107545
-0.000882378
-0.000193073
0.00546709
-0.00207601
-0.00339107
-0.00594623
0.00594618
4.92556e-08
0.00335405
-0.00259793
-0.000756126
-0.00154358
0.00176187
-0.000218289
-0.00676637
0.0028456
0.00392078
0.00121532
0.00425177
0.00725576
-0.00587614
-0.00137962
0.00116472
-0.00191373
0.000749006
-0.000870021
-0.000673563
-0.00144236
-0.000314618
0.00175698
0.000159228
-2.83709e-06
-0.000156391
0.0007784
-0.00222077
-0.00360331
0.00012323
0.00348007
-0.00320233
0.00289123
0.000311103
-0.00571857
0.00727066
-0.00155209
-0.00370934
0.00289667
0.000812659
-0.000564375
-0.00303893
-0.00174648
0.0023877
-0.000641211
-0.000465336
0.00255842
-0.00209308
-0.00160881
0.00110872
0.000500084
0.000583529
0.00058183
-0.00160184
-0.00516453
0.00123199
-0.00178824
0.00055626
0.00578182
-0.00386244
-0.00191937
-0.000654623
0.0033095
-0.00265488
-0.00583474
0.00583567
0.0004882
0.00127367
-0.00634487
0.000972092
0.00537278
0.00233001
-0.00298463
-0.00379007
0.00311351
0.000676565
0.00214819
-0.0042242
0.00108901
-0.000203862
-0.000885145
0.00150251
-0.00128888
-0.000213626
-0.00280108
-0.000401246
0.00535114
-0.00535336
0.000367769
0.00113474
0.00522945
-0.00133744
-0.00389202
0.0020007
-0.000835977
0.00308566
0.00190872
-0.00499437
-0.000722339
-0.00306774
-8.85798e-05
-0.000155309
0.000243889
0.00393555
0.0033202
0.0011743
-0.00489853
0.00372423
0.00162826
0.00360119
-0.00498079
0.00632124
-0.00134045
-0.00113209
-0.000594413
0.00172651
0.00133829
0.00201576
0.000135293
0.000103627
-0.00023892
0.00502308
-0.00339482
0.00646009
-0.000842494
-0.0056176
0.00322179
-0.00265476
-0.000567028
0.00223205
0.000441972
-0.00267403
0.00295543
-0.000723379
0.00650368
-0.00539834
-0.00110533
0.000512302
-0.00387841
0.00336611
7.06761e-05
0.00638942
0.00481707
-0.00430477
-0.000535791
0.00105936
-0.000523567
-0.00175739
0.000625297
0.00191714
0.00224903
-0.00416617
0.00025344
-0.000333593
8.0153e-05
-0.00127367
-0.00284458
0.00411825
-2.6348e-05
0.00653004
-0.00281841
0.00228958
0.000528831
0.00038737
-1.22488e-05
-0.000375122
-0.00569227
-0.000253961
0.00187417
-0.00138597
0.00082776
0.00495406
0.000892573
0.000182881
0.002638
-0.00645993
0.00382193
-0.0011202
0.000584409
0.00263718
-0.00391085
0.00619708
-0.00226152
0.0010921
0.00117728
-0.000787339
0.00102778
-0.000240442
-0.00111028
-0.000498531
0.00190032
0.00132147
-0.000595824
0.00142983
-0.00123773
-0.0001921
-0.00265446
0.00198493
0.000669533
0.0011671
0.000262733
0.00114565
-0.00498809
0.00384243
-0.00476458
0.00142507
0.0033395
-0.0045543
0.00611794
-0.00156363
-0.00506265
8.18631e-05
-0.00201694
-0.000637517
-0.000213826
0.000125246
-0.00123327
0.00465643
-0.00342317
-0.00122821
-0.000685513
0.000103315
-0.000192026
8.87101e-05
0.000126295
-2.29797e-05
-0.00126596
0.00464577
-0.0033798
-0.000156011
2.44313e-05
0.00013158
-0.00556883
0.00170639
-0.00118774
-0.000569652
-0.00044952
-1.89431e-05
0.000468463
-0.000543397
9.38753e-05
0.00101374
7.52673e-05
-0.00180701
0.000619276
-0.000150233
1.70869e-05
0.000133146
0.00136798
-0.00234447
0.000976489
0.000271105
-0.000135811
-0.00392584
0.00514117
-0.00245626
0.000709784
-9.45835e-05
-0.000428261
0.000522845
0.00568668
-0.00217016
-0.00351652
7.62911e-05
0.00250778
-0.00258407
0.00447607
-0.0056233
0.00114724
0.00263381
0.00305286
0.00291303
-0.00283675
-0.00616578
0.000447216
-0.00647298
0.00362919
0.0028438
0.00229419
0.00390289
-0.00439323
0.00138629
0.00300694
0.00150133
-0.000269344
-0.00102818
0.00402274
-0.00299456
0.00463984
-0.00162737
-0.00301247
-0.00461249
0.00374682
0.000865679
0.00369357
-0.00503101
5.87326e-05
0.000328638
-0.00137483
0.00585091
-9.34073e-05
0.00214913
-0.00205571
-0.00206322
0.00260418
0.000178977
-0.00278315
-0.00127743
0.00264541
-0.000653423
0.0032576
0.00164027
-0.00173368
0.000917189
0.00397245
-0.00488964
-0.00504253
0.0038441
0.00119843
0.00255187
-0.00359409
0.00104223
-0.00334205
0.00412076
-0.000778707
0.000332581
-0.00367463
-0.000869774
0.000869775
-0.000448586
0.000354003
-0.000126982
-0.000973469
0.00110045
0.0050705
-0.00184372
-0.00322678
-0.00243315
-0.000367942
0.00290034
0.000157757
1.65537e-05
-0.000174311
-0.00146849
0.00112193
0.000346565
-0.000140929
-0.0049016
0.00506775
-0.00389346
0.000259807
-0.000100579
0.0044453
0.000577782
0.00406759
-0.00151571
0.000164848
-7.09079e-06
-0.00633297
-0.000980299
-0.000826716
0.00430076
-0.00190525
-0.00239551
0.00275591
0.00154485
0.00107769
-0.00563199
-0.00225518
-0.000563229
-0.00111873
-0.000959282
0.00207801
3.85319e-05
-0.00272164
0.00268311
-0.00235723
0.0012385
-0.00221813
0.0053038
-0.00462515
0.00160888
0.00301627
0.00254631
0.0006704
-0.000334435
-0.000335965
-0.00601392
0.000583099
0.00543082
-0.00418588
0.00583278
-0.0016469
0.00182586
0.00162907
-0.00345494
-0.00166905
0.000899589
0.00076946
-0.00271559
0.002079
0.000636596
0.0010966
0.000777565
0.000247197
-0.000328939
8.17434e-05
0.00491427
-0.00399709
-0.00638677
0.00557385
0.00081293
-0.00479529
-0.0016777
0.00334075
0.000654175
-0.00399493
0.000153924
-0.000162116
8.19158e-06
0.000590574
-0.00012534
-0.000465234
-0.00451867
0.00261343
0.000372345
-0.000559291
0.000186947
5.73985e-05
-0.000927175
-0.0025757
0.00448442
-0.0053057
-0.000323186
0.00562889
0.000204474
0.000179702
-0.000384175
0.000616507
-0.000616507
0.00168379
-0.000730661
-0.0021096
0.00180925
0.000300352
0.00440584
-0.00301955
-0.000162276
6.26466e-06
-0.00119526
0.00125266
0.000725241
0.00127546
0.00234926
-0.000270263
-0.00402069
-0.001285
0.00111284
-0.00499126
0.00321307
-0.00447903
0.000836508
-0.00213503
0.00129852
0.0033587
-0.00459197
-0.00271191
-0.00180676
-0.00483715
0.00469622
-0.000675652
-0.00533826
-0.00516034
0.00150024
-0.00145107
-4.91705e-05
0.0022291
0.000120165
-0.00601389
0.00204838
0.00396551
-0.00121933
0.000525993
0.000693337
0.00146015
0.00294569
-0.00462557
-0.00101812
0.0056437
-0.000212791
0.000138491
7.42997e-05
-0.00551639
0.00133052
0.00375303
-0.00493691
0.00118388
-0.00149051
-0.00061909
-0.000536673
-0.000637503
0.000138371
-0.000203836
6.54642e-05
0.00500627
-0.00386063
-0.00130112
0.0051261
-0.00382498
-0.000395923
-0.000799337
-0.00586108
0.000439166
0.0053965
-0.00617068
0.00456884
-0.000922223
-0.00546456
-0.00109191
-0.000376578
-0.0018158
0.00285681
-0.00104101
-0.000419202
0.000322093
9.71091e-05
-0.00173203
0.00141741
0.00159638
-9.61459e-05
0.000828946
-3.6749e-05
-0.00169528
0.00279612
0.00121866
-0.00303446
0.00604556
-0.000471709
0.00527918
7.19581e-05
-0.00528268
0.00439245
0.00114264
-0.00553509
0.000556447
-0.000768887
0.00021244
-4.04467e-05
-0.00040814
-2.246e-05
0.00606802
-0.000162226
0.00015687
5.35678e-06
0.000133301
2.06226e-05
0.00253435
-0.00335919
0.000824841
-0.00192554
0.000742095
0.00118344
0.0079242
-0.00345766
-0.00446653
0.00117185
0.00126266
-0.00243452
0.000105502
-0.000175448
6.99463e-05
-0.000805871
0.00133186
0.00116715
0.0031805
-0.00434765
-0.00561434
0.000165854
0.00544848
-0.00402174
0.00299356
0.00173512
0.00479492
0.00458352
0.00334066
-2.24372e-05
0.000188635
-0.000166198
-0.00131515
0.00440097
-0.00308581
0.000301237
-0.000341684
-0.000131302
-8.14892e-05
0.00410119
-0.00227534
0.00478336
-0.00503195
0.000248583
-0.00324727
0.00609825
-0.00285098
0.00252623
0.00157497
0.0057776
-0.000994236
-0.00140275
-0.00562045
0.00137225
0.0042482
0.000654634
0.000520698
-0.00117533
0.00126955
-0.00061492
0.000585348
-0.00111025
0.000524902
0.00110605
0.000276618
0.000393782
-0.000678291
0.00443132
0.001516
-0.000394079
0.00355097
-0.00614068
0.00258972
0.00153211
-0.00258391
0.0010518
-0.00432636
0.00117216
0.00315419
0.00291087
-0.00422602
-0.00491456
-0.00125612
-0.00410222
0.00127119
0.00283103
0.00125433
0.00314663
-0.00326444
-0.000837788
0.00222603
-0.00105418
-0.000686473
-0.00252739
0.00321386
0.0024035
0.000623504
-0.003027
-0.00158775
0.00119875
0.000389003
0.000269993
0.00148204
-0.00196385
0.000481813
-0.000110853
-0.00022274
-0.000264349
0.000153496
-0.00435584
-0.00025665
-0.000292252
0.00117016
-0.000877911
0.00435145
-0.00464611
0.000294659
-8.84204e-05
0.000117768
-2.93468e-05
0.000976588
0.00338103
-0.00435762
-0.000157001
6.85811e-05
-0.00475278
0.000711287
0.0040415
-0.000717438
0.000125586
0.00059185
5.88611e-05
-6.16982e-05
-0.000401319
0.000864668
-0.000347471
-0.000517197
-0.00603569
0.000637349
-0.00254968
-0.000128177
0.00267785
-0.00316833
0.00442265
0.00218082
-0.00108871
-0.00116719
-0.00116933
-5.88787e-05
-0.00351894
-0.00124564
0.0015042
-0.000399889
-0.00110431
0.00191852
0.00183915
-0.00375767
0.00505262
-0.00162218
-0.00343044
0.000794503
-0.00542007
-0.00137392
0.00300299
0.00196596
0.000776913
-0.00274287
-0.00349758
0.00447417
-0.000152925
2.69192e-06
0.000939126
-0.0044367
-0.00449762
-0.000148496
-0.000998353
-0.00461598
0.00463814
0.00149702
0.0035556
0.00416149
0.0011431
-0.0053046
3.6071e-05
5.93109e-05
-9.5382e-05
-0.00140256
0.00336852
0.00372175
0.0035489
-0.001397
0.00236887
-0.000971862
-0.00248147
0.000464534
-0.000878421
0.000751437
-0.000208259
0.000412734
-0.000217701
0.00169974
0.00376328
-0.00184476
-0.00106607
-0.000602988
-0.000107143
-0.000157206
0.00355041
-0.00163326
-0.00240373
0.00465277
0.000674522
-0.00309588
0.00242136
0.000634179
0.000761866
-0.00105412
0.00209917
-0.00131993
-0.00327327
0.00459319
-0.00216535
0.00480335
-0.000554327
0.00344555
0.000237867
-0.00022078
-0.00236241
0.000965419
0.00233364
-0.00387169
0.00153806
-0.0012003
5.73139e-05
-2.12429e-05
0.00214585
-0.00279635
0.000650508
-0.00116648
-0.000421271
-0.00353438
0.00450648
0.00119909
0.00167123
-0.00287032
-0.00168829
0.00366541
-0.00197712
0.00424335
-0.000862318
0.000234406
1.41172e-05
-0.000248523
-0.00372334
0.00203504
-0.00143617
0.00472586
-0.00328969
0.000878046
0.00130277
0.000176463
0.000440043
0.000253011
-0.000300698
4.76865e-05
0.00169955
0.000216111
-0.00191566
0.00301755
-0.00459657
0.00157903
-5.27872e-05
0.000374212
-0.000321425
0.00156023
-0.00036148
0.00139584
-0.00060946
-0.000786385
0.0028211
-0.003929
0.0011079
0.00267822
-0.00374346
0.00106524
-0.00517583
0.00192856
0.00390983
-0.000892276
-0.000640656
-0.00237166
0.00301232
0.001408
-0.00511849
0.0037105
0.00336053
-0.00145892
-0.00190162
-0.000678702
0.00172302
-0.00104432
0.00477139
-0.00303628
-0.000688011
-0.00196675
-0.00598301
0.00514052
3.84078e-06
0.000121658
-0.000125499
-0.00157706
0.00119769
0.000379373
-0.00491094
0.00631268
-0.00140176
-0.00188165
0.000728991
0.00115266
0.000405727
0.00268627
-0.00208673
-0.000599544
0.00343578
0.000488918
-0.00392471
0.000126647
-2.11448e-05
0.00517194
0.000336109
-0.00550805
-0.0019406
0.00379761
-0.00185701
0.00277225
-0.000648245
-0.00212401
0.000462561
0.000402107
-0.000436637
0.00387242
0.00202621
-0.00396681
0.000700273
-0.000265792
-0.000434481
-0.000642039
1.76622e-05
0.000624378
-0.00315227
-0.00576624
0.00576533
-0.000274469
0.000949119
-0.000674651
-0.00228619
-0.000195294
-0.00455875
0.0032388
-0.000878336
0.0011375
0.00360805
-0.00501918
0.00141113
0.00041066
-0.00296033
0.00232919
-0.00244171
0.000112507
-0.00157141
0.00148227
8.91364e-05
-0.00120791
-0.000369152
-0.0033916
0.00342974
-0.00223065
0.000457272
0.000133302
-0.00173195
0.00105325
-0.00279857
0.000754781
0.00204379
0.000242431
-8.0249e-06
-0.00347797
0.00102435
0.00245362
-0.00144493
0.00560642
0.000339417
-0.000952491
0.000613074
0.00211472
0.000657522
-0.00127775
0.00030428
0.00110983
0.00121936
-0.00143543
0.00496468
-0.00352925
-0.0048507
0.00577349
-0.000922785
-0.00117635
0.00228708
0.00410234
0.00107142
3.73042e-05
0.00586498
-0.00551852
-0.000346463
0.00356553
-0.00466566
0.00110013
0.00309394
-0.000690435
0.00542624
-0.0018182
-0.00250224
-0.000975732
-0.0021692
-0.000325589
0.0024948
0.00241184
-0.00196987
-0.00160816
-0.0042425
0.00274604
0.00149646
-0.000325224
0.00122481
0.00122238
0.00366128
-0.00488365
-0.000293142
0.000665486
0.00305956
-0.00238503
-0.00472438
-0.00125864
0.00647009
-0.00129815
0.00424606
0.00206001
0.000498412
0.00285501
-0.00212497
-0.000730035
0.00473851
-0.00245143
-7.28483e-05
-0.00332504
-0.000871753
0.00419679
0.000387924
-8.64744e-05
-0.00030145
-0.00514565
0.00610868
-0.000963037
-0.000738427
0.00190194
-0.00116351
-0.000697104
0.00525241
-0.00455531
0.00116986
-0.00190829
-0.000114432
-0.0057617
-0.000787339
0.00202372
0.00384126
-0.000241841
-0.00192736
0.000251398
-4.20066e-06
0.00036264
-0.00048798
0.003363
-0.000828648
-0.00522696
-0.000271642
-0.00014756
0.0001502
-0.000133577
-1.66223e-05
-0.00248323
0.000125993
-0.000423225
0.00158856
-0.00101001
-0.000578551
0.002475
0.000590235
-0.00306524
-0.000710538
0.00318553
-0.00520294
-0.000271472
0.00547441
0.00375085
0.00137526
0.00441542
-0.00123491
-0.000137991
0.00254983
0.00540387
-0.000206673
-0.00519721
-0.00608745
0.00425209
0.00183537
0.00321034
-0.00126761
-0.00435285
0.000201918
-0.000224355
0.000580932
0.00081491
0.0010668
0.000103353
-0.00117015
0.00421229
0.00119159
-0.000958619
0.00317212
-0.0022135
0.00474152
-0.00140076
-0.00217809
0.0027926
-0.00061451
-0.00117638
-0.000131528
0.000311533
-0.000180005
0.00344625
-0.00414336
0.00134307
-0.000985762
-0.000357304
0.0015946
-0.000396908
-0.00325109
0.00229247
0.0054858
-0.00434316
-3.06309e-05
0.000352725
-0.0053589
0.000447961
0.00545768
-0.00190672
-0.00100419
-0.00361426
0.00461846
-0.000647115
0.00288282
-0.00223571
0.00549725
-0.00286245
-0.0026348
-8.83982e-05
0.000593199
-0.00067732
0.000660611
1.67082e-05
-0.000687084
0.00172851
-0.00104143
-0.00314834
-0.00117802
0.000155575
-1.72035e-05
-0.00122459
-0.00478929
-0.00307771
0.00239124
-0.000421618
-0.000194888
-7.26388e-05
-8.95874e-05
-0.00120042
-0.000805649
-0.00523005
-0.0028383
0.00219119
-0.00081862
0.00118639
0.00112423
0.00438892
-0.00551314
0.00340768
-0.0027535
0.000468314
0.000774506
-0.00288449
0.00210999
0.00499229
-0.00494789
-4.43923e-05
-0.00320959
0.0036156
-0.000406004
0.000207798
-9.56104e-05
-0.000112188
-0.00496208
-0.00149787
-0.00175607
0.00369064
-0.00193456
0.00298188
-0.00220737
-0.00378427
0.00202821
0.00139498
-0.00258174
0.00118676
-0.00363308
0.00568146
0.00649799
-0.00219589
-0.0043021
-0.00240063
0.00237311
2.75299e-05
0.00562439
-0.00165195
0.00118674
-0.000924745
-0.000262
-9.1181e-06
0.000262129
0.000249222
-0.00077278
0.000523558
-0.00304517
0.00365188
-0.000973655
0.000844169
-0.00104803
0.00236211
-0.000631649
-0.00173046
0.00220869
-0.000509136
0.00453086
0.000629576
0.00173254
-0.00175312
0.00106604
0.000408594
-0.000464692
5.60981e-05
0.0022102
-0.00174549
-0.000464706
0.000835613
-0.00514778
-0.000544491
0.000369492
-0.000588344
0.000218851
-0.00410066
0.00547291
0.000942162
-0.00111664
0.000174475
-0.00151932
0.0021654
-0.000646082
-0.00149284
-0.00274966
-0.00537747
-0.000157623
0.0055351
0.0003016
0.000108312
4.18884e-05
0.000128543
-0.000128475
-6.79071e-08
0.00412555
-0.00290318
-0.00380316
-0.00233751
0.00346323
0.00303476
-0.00259718
0.000738722
0.00185846
-0.000844708
0.00223968
-0.00229639
-0.000104246
0.00272872
-0.00377757
0.00104884
0.00130582
-0.00013566
0.000461775
0.000551964
-0.00327811
0.000965786
0.00231232
0.000918304
-0.000594099
-4.79414e-05
-0.00428076
0.00172757
9.54514e-05
-0.00182302
-0.00396635
0.00146704
0.00249931
0.000522494
0.00146071
-0.000879779
-0.000246081
-0.0046605
0.00490659
0.000784968
-0.00247692
0.00169196
0.00120221
0.00131231
-0.000476913
-0.00170968
0.00218659
0.00258021
-0.00179525
0.00447182
-0.00353269
-0.000785047
-0.00264121
-0.000227443
0.000251874
-0.000701108
0.00176295
-0.00106185
0.00265907
-0.00366809
0.00100901
0.000136472
2.03976e-05
-0.00236258
-0.000915537
0.00142155
-0.00163643
0.000214878
-0.00277441
0.000687691
0.00127652
-0.00141877
0.000142245
0.00161892
-0.0018079
0.000188983
0.000676923
-0.0037293
-0.00116923
0.00135707
-0.00490901
0.00355194
-0.000915234
0.00357429
0.000116494
-7.73727e-05
-3.91211e-05
0.00476766
-0.00364343
-0.000339787
-0.00153475
-0.00401446
-0.00150194
0.00209111
0.000701479
-0.00101813
-0.000924151
-0.00452759
-0.00163819
-0.000379589
0.00124288
-0.000931193
-0.000311682
-0.00149482
-0.0010891
0.000659563
0.00225557
-0.00291513
-0.000114297
0.000670743
-0.00071609
3.87701e-05
-0.00245421
0.00196645
0.00139407
-0.000730928
0.00165531
-0.000924378
-8.68728e-05
-0.000116963
0.000318132
-0.00194545
0.000454946
0.00159958
-0.00231091
0.000711329
-0.00334674
0.00257776
0.000768972
0.00119097
0.00242092
-0.00361189
-0.00175191
0.0010508
-0.00294062
-0.00102572
-0.000800224
-0.00254651
-0.00167592
0.00125148
0.000424438
0.00176251
-3.49402e-05
-0.000765315
-0.00243202
0.00319732
-0.000683842
0.00291469
-0.00225512
-0.000858512
-0.00394762
0.00480615
-0.00234416
0.00233854
5.62776e-06
-0.000717438
-0.00155906
0.000549056
-0.0024049
0.00381981
-0.00141492
0.00323281
0.00288513
0.000194397
3.62202e-05
-0.000230618
0.00234006
-0.000603088
-0.00173697
0.000188072
-0.000184232
-0.00359014
0.00494721
-0.00329556
0.0052518
-0.00195623
-0.00351024
-0.00150894
-0.000912997
0.00323179
-0.0023188
0.00285564
0.0017766
-0.00418151
-0.00499824
-0.000147405
-0.000798947
0.00285063
-0.00205168
-0.000431692
0.000378904
-0.000527806
0.00167432
-0.00114651
-0.00404001
0.00334099
0.000699018
-0.00326936
0.00235636
-0.00387014
0.000676078
0.00319406
0.00140831
-0.00101135
-0.000396959
-0.00589958
0.000696644
0.00184651
-0.00141053
-0.000435979
0.0013958
-0.000399807
-0.000995992
7.83765e-05
0.000129422
0.00293352
-0.00064394
-0.000222431
-0.00348758
-0.000382562
0.000428124
-0.00305322
-0.000986793
-0.00233528
-8.87984e-06
-0.00292712
0.00228646
0.0007213
0.00260138
-0.00332268
0.000583884
-0.000858353
0.00141455
-0.00672049
0.00530594
-0.00579039
0.000995099
-0.00234886
0.00353983
0.000690688
0.000258432
-0.00273251
0.0034538
-0.000101283
0.00509357
0.000626907
0.00169983
-0.00232674
-0.00177472
0.00124691
0.0027461
-0.00369611
0.000950004
0.00510156
0.000665885
0.00154431
0.000313984
0.000386288
-0.000364118
-0.000404769
0.000180942
-0.00174454
0.00176684
-0.000888797
0.000846137
0.000614568
-0.000586957
0.00301133
-0.00242437
-0.00149523
0.00184082
-0.000345592
-0.00489698
0.00380171
0.00109527
-0.00480407
0.00150851
-4.09153e-05
3.91836e-05
1.73169e-06
-0.00280932
-0.000858764
0.00107081
-0.00128967
0.000218853
0.00136636
-0.00495651
0.00101048
5.63166e-05
0.00124708
0.000695632
0.00218719
-0.003668
0.000858683
0.000186663
-0.00503737
0.00189886
0.00120383
0.000698108
-0.0052738
-0.000492438
0.00565091
0.00118359
0.0071074
-0.0021852
-0.00492219
0.00078643
-0.000376876
-0.000409555
0.000722277
-0.00138042
0.000777426
-0.003861
-0.0012575
0.000311533
-0.000925068
-0.000420828
0.0013459
0.00232773
0.00400856
-0.00486707
0.00270224
0.000835179
-0.00353742
0.00124987
-0.000963813
-0.00028606
0.000745584
0.00159448
-0.000135035
0.00013827
-3.23502e-06
-0.000710598
0.00288364
-0.00217304
0.00362205
0.00110382
-0.00126113
-0.000414789
0.00141402
-0.00153252
0.000118502
4.77486e-05
6.87452e-05
-0.00447585
0.000965608
-0.00165217
0.000444252
-0.0036459
0.00293535
-0.000950474
6.80954e-05
0.000937196
0.00267874
-0.00361594
0.000844539
-0.00126012
0.00419472
-0.0029346
0.000318678
0.000279971
4.65816e-05
-0.000326554
7.82987e-05
-0.00539171
0.0053134
-0.00262962
-0.000787256
0.00341688
-0.00349688
0.00260434
0.000892546
-0.00278035
-0.000261802
-0.00171293
-0.00491132
0.000896862
-0.00145254
-0.000882739
-0.0010638
0.00379253
0.00170689
-0.00372609
0.0020192
0.000105666
2.28769e-05
0.00372647
-0.00201958
0.00286014
0.000967062
-0.00382719
-0.00130036
0.00174082
-0.000440461
0.00357329
0.00110602
-0.00467931
0.0071861
-0.00197548
-0.00521061
-0.00212644
-0.000711861
-0.00172355
0.00235045
0.00377245
-0.00493031
0.00115784
-0.00280072
0.00373792
0.00113449
-1.08435e-05
-0.00112365
0.00148223
0.000905461
-0.00551392
0.000599359
0.000429947
0.000356483
0.00292156
-0.00112453
-0.00252221
0.00247904
4.31722e-05
0.000505098
-0.00184036
0.00133526
-0.00387034
-0.00119231
0.00109129
-0.00254384
-0.00529918
0.000151407
-0.00124364
-0.000529398
0.00177304
0.00563656
-0.00449346
0.000104285
0.00028364
-0.00301345
0.00319243
0.00143931
-0.00107013
-0.000369177
0.00346763
0.00476093
-0.000959226
0.000650264
-0.00327988
0.00106363
-0.000938046
-5.2886e-05
0.000461479
0.000393963
-1.97512e-05
-0.00206572
-0.000457221
0.00152803
-0.000919133
-0.00349768
0.000765187
-2.80279e-05
-1.28874e-05
0.0059985
-0.00492079
0.00522259
-0.00439483
2.57988e-05
-0.00059185
0.000566051
0.00194872
-0.000458601
-0.00149011
0.00335899
-0.000757615
-0.00256766
0.00336122
-0.000793564
-0.00183266
0.000532302
0.0012784
-0.00095162
-0.000326785
-0.000118768
-0.000210171
0.002059
-0.000548564
-0.00151044
-0.00137984
-0.00239354
-0.000128666
0.0020888
-0.0027456
0.000656806
0.00280657
-0.000751308
-0.00205527
0.00410311
-0.00434919
0.000314593
0.00224296
-0.000643388
-0.000683305
0.000833106
-0.00367618
0.00504254
0.00125
0.000471792
-0.00171543
-0.00286898
0.00209598
0.00363402
0.00158857
-0.00113073
-0.00383734
-0.00115075
0.0013025
-0.00171681
0.000414316
0.00367508
-0.00318617
-0.00019383
0.00113599
-3.86758e-05
-0.000270586
0.000309262
-0.000706339
-0.00189085
0.00377156
-0.00491087
0.00113931
-0.00185812
0.00235214
-0.000494019
-0.00115874
0.0021319
0.000751728
-0.0022627
0.00375583
-0.00149313
0.00150406
-0.00113976
-0.000364302
-0.000995263
0.000277828
0.000189215
-0.000432007
0.000242792
-0.000425784
-0.00122639
-0.0024806
0.00250364
-2.30398e-05
0.00144934
-0.00371205
0.0016235
-0.00037201
0.00036536
-0.000417488
5.2128e-05
-0.000825537
0.000592557
0.00023298
-0.00079545
-0.00285329
0.000839566
0.00201373
-0.00199623
-0.000852982
-0.000710238
0.00156322
-0.00524518
0.00389577
0.00134941
-0.00119847
0.00122427
-0.000576389
-0.000115927
0.000692316
0.00286851
-0.000736612
-0.000770369
-0.000160191
0.000930559
0.0018389
-0.00136711
0.0016974
-0.000394901
-0.000134842
-0.000637147
-0.0042057
0.00484285
-0.00138229
0.00283031
0.00427708
-0.00239831
-8.22814e-05
0.0031174
-0.00473958
0.000733565
0.00158112
-0.00231469
0.00200375
-0.00280269
0.00199575
-0.000743686
-0.00125206
-0.00179592
0.00045608
0.00133984
0.00432133
0.00286476
-0.00552326
0.00134022
0.00418304
-0.00125453
-0.00399064
-0.000460359
-0.00133557
-0.00099745
-0.000561611
-0.00129151
-0.000425308
0.00114668
-0.000533927
0.00150513
-0.000971205
-0.00175708
0.00129672
-0.000944492
-0.000207196
0.00115169
0.00217012
-0.00286704
0.000696928
-1.17671e-05
0.000206164
0.00103173
0.00607103
-0.00141397
-0.00465707
-0.00203526
-0.00187211
0.00132982
0.000542284
0.00127077
-0.000977756
-0.00029301
-0.00228938
-0.0010314
0.0033208
-0.00266776
0.00358612
-0.000918365
-0.0009219
0.00111131
1.16558e-05
-0.00112297
0.00376069
-0.00493905
0.00117835
0.00174752
-0.00135517
-0.000392344
0.00242707
-0.00122486
0.00274247
-0.000634575
-0.000190962
-0.0040948
0.0022888
-0.00180217
-0.000486637
0.000560906
-0.00200887
0.00144797
-0.00251178
-0.000847414
0.000858951
-0.000657274
-0.000201678
-0.000180222
-0.0036451
0.000977343
0.000668421
-0.000479205
0.00258902
0.0009971
0.000319147
0.00129196
0.000703792
-0.00160274
0.0023363
-0.00149862
0.00098298
0.000515641
0.00355522
-0.000695071
-0.0038096
0.00610379
-0.00115018
-0.00248959
0.00683586
-0.00434627
-0.000890762
0.00356951
-0.0041418
0.000932222
-0.00210179
0.00424998
-0.00070211
-0.0016088
-0.0024511
0.00170374
0.000747356
-0.00128017
0.000362844
-0.000425691
6.28485e-05
-0.00137283
-0.000776871
-0.000153505
0.000930377
-0.00156284
0.00135738
0.000205459
0.00203084
0.000819782
6.24358e-05
-0.00130016
-0.000554745
-0.000825669
-0.00242322
-0.000483953
-0.00138815
-0.000171049
0.0015926
-0.000180756
0.00341175
-0.000515077
0.00133896
0.000199192
-0.000834902
-0.000953342
-0.00192968
0.00247714
-0.000547462
-0.00104034
-0.00572889
0.00351076
0.00146797
-0.000621839
0.00288631
-0.00121508
0.000969923
-0.00135874
-0.00453029
0.00588902
0.000620965
-0.00255065
0.000742072
-0.00369159
0.00269584
0.000995744
0.000886201
-0.00142013
0.00222257
-0.00311883
0.000896247
0.00119688
-0.00343016
0.00223328
0.000861225
0.0016874
-0.00254863
-0.000174299
0.00179321
0.0027393
0.00107828
0.0036191
-0.00041352
0.00078301
0.00315719
-0.00402893
0.000987692
-0.00327707
0.000436265
0.00412535
0.00146329
-1.07764e-05
-0.000275609
0.000286385
-0.00619331
0.00385625
0.00233707
-0.000833368
-0.00261242
0.00344579
0.00263958
-0.00177836
-0.00369719
0.000896465
-0.00132109
-0.000435992
-0.000152666
0.00131977
0.00372786
0.00123682
0.000224376
0.00130818
-0.000991242
-0.000316937
0.000874229
0.000593748
-0.000313917
0.00376782
-0.00493642
0.0011686
0.00307921
-0.000856645
-0.00139798
0.00190307
0.00125662
-0.00355462
0.002298
-0.00117123
0.00145536
0.000679036
-0.0021344
0.000191818
-0.000202595
0.00219833
-0.000860037
-0.00124891
0.000330423
0.0009246
-0.000347598
-0.000577003
0.00353324
-0.00227662
-0.000521133
0.00230064
-0.00177951
0.00101804
-0.00297369
0.00207691
0.000896781
0.000106652
-9.85534e-07
0.00467836
0.000545187
-0.00570973
-0.00519817
0.00392804
0.00127013
-0.00108038
-0.00269335
0.00377373
0.00222117
0.00372501
0.00282599
-0.00375435
0.000928361
-0.00146825
0.0010991
-0.000967784
0.00338057
-0.00241279
0.00149636
0.000562645
-0.00378464
-0.00240867
0.00108777
-0.00230063
0.00321779
-0.000917162
0.00343976
-0.000835415
0.00039711
-0.000822459
0.00253879
0.000900972
-0.000635895
0.00431098
-0.0013077
0.00171587
-0.000408168
0.00200531
-0.00126321
-0.000389974
0.00607679
-0.00491781
-0.000459667
0.000859216
-0.00246195
-0.00539163
-0.00172181
0.000414109
-0.00067815
0.000101761
-0.000871191
0.000211512
-0.00146704
0.000681311
0.00156165
-0.000905436
0.000135067
0.000805815
0.00251557
-0.0033214
-0.00109517
0.00187357
-0.00194654
-0.000474632
0.00196112
-0.00148649
-0.000895273
-0.00207841
-0.0019518
0.00147717
-0.00265701
0.00346282
-0.00163642
0.000588933
0.00104748
-0.000985763
0.00357478
0.00602791
-0.00230616
-0.00130151
-0.000420299
-0.00173802
0.00109599
0.000642028
0.000906923
-0.00452125
0.00361433
-0.00131052
0.000546921
0.000763593
-0.00403467
-0.0011635
0.000191714
-0.0011362
0.00193588
-0.000732051
-0.00135557
-0.00380798
0.00516355
0.00100005
7.13678e-05
0.00329733
-0.00252744
-0.000769884
0.000137144
0.00125865
0.000875675
-0.000668683
-0.000206993
-0.00134363
-0.00101878
-0.0010937
0.00513646
-0.00404275
0.000638927
-0.00249705
0.000145465
0.00126855
0.00377191
-0.00496385
0.00119194
0.00288264
-0.00204307
0.000101874
-0.000168201
6.63265e-05
0.00102948
0.000138131
0.000104299
0.00235947
0.00371156
-0.000585483
-0.000802134
0.00138762
0.000653968
0.0017705
-0.00242446
0.00240297
-0.00169614
-0.000706826
0.000475969
0.00147275
0.000426432
-0.000512812
-0.000797702
0.000600519
-0.0053249
0.000690518
-2.9907e-05
-0.0011645
-0.00132125
-0.00379705
0.0051183
0.00103216
0.00143672
-0.00189532
0.00254662
-0.000394846
-0.00490879
0.00530364
0.000120563
-1.86887e-05
0.000670165
0.00126572
0.00272627
0.000948961
-0.00367522
0.00137461
0.000471901
0.00258721
-0.00364118
0.0045481
0.00277353
0.000844257
-0.00361778
0.0016248
-0.000826341
-0.000798461
0.00132749
-0.00101791
-0.000309582
0.000424362
0.00106068
-0.00470186
0.000218401
-6.77521e-06
0.000198594
0.00606077
-0.00129312
0.00152538
-0.00212846
0.0025296
-0.00181808
-0.000711523
0.000871376
-0.00254409
0.00167272
0.00523408
-0.00281482
-0.000928631
-0.00157972
0.00501409
0.00148636
-0.00178137
0.000295012
0.00049937
-0.000103697
-0.000395672
-0.00100046
-0.00313875
0.00413922
0.00074338
0.00181839
-0.00256177
0.00176754
-0.000281181
0.002246
0.00140422
-0.000857298
-0.000937427