/*--------------------------------*- C++ -*----------------------------------*\
  =========                 |
  \\      /  F ield         | OpenFOAM: The Open Source CFD Toolbox
   \\    /   O peration     | Website:  https://openfoam.org
    \\  /    A nd           | Version:  7
     \\/     M anipulation  |
\*---------------------------------------------------------------------------*/
FoamFile
{
    version     2.0;
    format      ascii;
    class       volScalarField;
    location    "0.189";
    object      T;
}
// * * * * * * * * * * * * * * * * * * * * * * * * * * * * * * * * * * * * * //

dimensions      [0 2 -2 0 0 0 0];

internalField   nonuniform List<scalar> 
12359
(
1.74974e-91
-1.8814e-73
-1.42521e-249
3.58191e-47
-3.1126e-82
1.65627e-32
-3.88728e-27
-1.99667e-30
-5.42869e-21
-2.60998e-35
4.69302e-24
1.10301e-15
0.00596963
-2.10246e-44
-2.31768e-50
-1.89877e-08
-2.57332e-05
3.20844e-136
-8.71088e-140
-6.09208e-60
4.51707e-42
3.64128e-19
-6.02943e-66
5.04769e-57
2.23483e-69
7.53642e-63
-1.89198e-180
8.67546e-184
1.11054e-146
-1.17544e-171
-1.16188e-163
-7.77365e-202
1.08335e-221
-4.55275e-174
1.39325e-236
4.06781e-160
5.5625e-111
1.28554e-94
-3.83478e-86
-5.37909e-101
-5.09628e-76
3.38505e-98
8.69644e-120
-3.51113e-123
3.61361e-153
-7.9606e-150
-1.26916e-156
2.9008e-167
4.23823e-144
3.48262e-177
-3.18445e-187
-2.06435e-194
1.38111e-205
-7.27291e-133
-1.1845e-211
-3.13834e-218
-1.64735e-127
-2.93598e-225
5.71205e-229
-9.75439e-233
6.62482e-215
-4.50894e-243
9.45415e-191
1.56236
1.03389e-129
1.43091e-38
1.83713e-114
3.71966e-198
-2.64637e-107
1.57085e-10
57.1653
6.2542e-79
-3.79698e-254
5.70604e-104
1.94892e-54
2.78613e-240
1.01966e-208
3.79067e-246
-5.23147e-117
-7.59578e-13
6.09294e-37
-3.7955e-168
0
-5.42065e-105
3.69231e-05
-3.40422e-121
6.98363e-166
-7.47767e-232
0.00434473
8.24064e-06
7.92727e-287
1.0579
1.61897e-289
-6.43626e-136
-6.0243e-110
6.88649e-99
4.61801e-142
1.15413e-136
5.927e-70
-2.56282e-86
1.16972e-31
4.97205e-275
5.07948e-121
4.23907
4.12738e-178
2.07218e-51
1.96248e-299
3.6133e-05
1.01799e-130
3.96018e-53
1.17687e-144
9.23849e-168
-3.18612e-43
1.21906e-36
-1.17023e-110
8.39339e-208
-2.14875e-35
7.02579e-167
0.036748
0
-1.97955e-146
1.00098e-33
9.53965e-230
1.96909e-74
-2.65563e-166
-2.34161e-196
8.53693e-25
-7.40296e-104
-1.31936e-247
2.14067e-167
-5.23253e-207
2.66852e-18
6.3275e-15
1.28398e-15
-1.94696e-302
5.2116e-74
-4.74567e-207
-5.33542e-76
3.74885e-269
3.33009e-26
0
2.97474e-89
-1.8067e-68
-2.54813e-300
8.85749e-32
-2.55683e-38
0
6.37437e-06
3.90808e-177
-2.2706e-36
2.19611e-98
2.31885e-271
-3.78201e-67
2.59465e-227
8.02279e-297
95.0553
5.14864e-33
8.9084e-19
-1.04765e-142
1.78374e-213
-9.02614e-51
8.18187e-212
5.987e-75
9.19638e-70
0
-1.84357e-198
-2.1732e-53
-1.70817e-31
-1.95944e-72
0.00569663
1.06391e-243
1.95579e-241
1.33925e-74
7.79496e-72
3.37761e-180
1.38459e-26
-1.71427e-154
-1.11215e-156
2.16106e-42
4.96995e-28
-1.48414e-46
2.77929e-294
-8.33783e-248
1.55418e-167
8.73336e-72
-3.01622e-21
8.42565e-140
-1.10519e-114
3.48921e-95
-7.28041e-139
-5.61168e-113
6.38913e-101
3.3736e-101
-1.11214e-225
3.15642e-53
5.79071
-3.69519e-97
-8.44428e-139
-5.21119e-66
1.75399e-165
-2.36981e-36
2.3941e-96
4.89755e-86
7.19972e-54
1.17108e-36
-7.9392e-296
1.3028e-34
2.83802e-84
2.37118e-67
-8.35989e-152
-5.48413e-322
9.00066e-38
8.06902e-37
133.955
-1.66925e-20
-1.71491e-267
8.86411e-139
-2.55951e-112
1.05881e-137
2.50332e-87
3.32996e-37
-5.29008e-153
2.42976e-76
1.0207
-6.12822e-167
-1.01283e-321
1.42427e-85
1.79757e-133
1.58149e-28
8.98579e-136
1.92262e-134
0
1.93007e-31
-1.25695e-79
1.33637e-115
-2.54128e-81
0
-6.45277e-64
-3.29387e-114
1.12525e-06
-1.00345e-320
1.8364e-117
-1.29622e-124
4.53495e-14
-1.46034e-48
7.09562e-06
-3.88465e-231
7.49839e-69
-1.21373e-187
2.35757e-101
2.42121e-48
2.37709e-98
4.4303e-160
7.13676e-134
0.334473
106.689
0
-1.03401e-158
0.349638
108.636
-1.96529e-85
-7.1433e-50
1.56055e-31
1.39471e-54
2.75693e-73
44.9627
0.0235556
8.87566e-47
-1.52988e-160
4.8247e-73
3.45183e-73
8.74688e-70
-3.64962e-71
-7.79596e-136
-5.19843e-155
6.91692e-323
-3.56845e-157
1.01262
6.80941e-47
-4.29841e-281
2.21351e-273
3.91407e-55
-4.46915e-164
-2.07147e-115
1.91003e-119
0
1.15918e-31
1.26556e-272
9.734e-275
1.29972e-203
1.20965e-76
2.07372e-171
39.193
1.47011e-301
9.59592e-298
-7.75594e-120
3.00136e-189
2.82362e-38
-1.41066e-116
-2.16093e-192
-8.67005e-286
0.664523
5.44618e-30
4.85318e-287
8.85355e-138
-1.61278e-118
-1.04671e-185
-3.69023e-207
9.88765e-208
-7.00385e-184
3.1971e-144
-1.74034e-21
-1.22866e-186
2.23274e-164
8.12639e-96
-5.96844e-57
0.00344526
7.02993e-185
2.00552e-72
3.32779e-09
1.29783e-274
3.63881e-79
4.88411e-277
-1.24066e-96
-4.67433e-298
-1.41018e-183
-5.66001e-23
1.24652e-73
-1.64431e-22
-4.81136e-117
-1.92306e-125
1.79265e-102
2.42625e-98
-6.22634e-124
2.43089e-103
2.01218e-102
-3.55121e-255
-3.14701e-221
-7.14054e-222
4.06689e-218
-2.50412e-219
1.40632e-05
0
1.33571e-35
9.65617e-80
6.57774e-75
1.17388e-67
2.34855e-72
-2.04291e-119
3.96811e-98
2.42589e-73
4.34522e-99
2.26714e-73
-9.32076e-53
-4.94262e-51
9.80101e-43
1.48474e-87
1.29372e-22
7.49373e-91
1.07263e-90
2.03541e-67
3.41618e-28
-6.97023e-168
1.88518e-210
1.14963e-96
1.8632e-212
2.54426e-167
117.669
8.20185
2.16703e-167
1.01203e-264
-5.09503e-304
8.8795e-304
6.58897e-75
2.29036e-294
5.464e-296
0.0133781
8.79105e-71
7.18546e-06
-2.0187e-166
8.43449e-61
-2.91241e-166
-6.14222e-123
-1.45691e-47
4.42699e-98
1.21242e-47
4.76982e-100
-9.48589e-171
6.4742e-279
2.04147e-71
1.22107e-61
9.6114e-172
-1.4894e-15
-1.87805e-48
3.08522e-99
-2.99505e-64
-4.65162e-54
-1.33755e-265
4.07912
3.03063e-21
-1.30996e-164
6.51078e-15
1.91596e-92
0
0
1.82709e-309
1.73415e-05
1.55067e-29
8.85823e-71
1.08706e-80
1.05644e-99
-7.14395e-108
-5.8556e-48
-1.45712e-65
3.51757e-29
0.00559751
-3.1519e-14
1.98549e-74
4.7903e-44
1.4241e-128
5.08266e-47
4.36264e-103
1.18491e-94
-2.03574e-174
-6.03701e-105
-1.28491e-71
4.26956e-293
95.7655
-8.60162e-114
2.7068e-05
5.7914e-65
-6.95648e-127
3.57266e-41
0.309592
2.22332e-70
-9.71795e-93
2.86279e-100
5.6848e-63
-7.8563e-48
1.83093e-162
1.98301e-318
4.44457e-36
-4.67597e-296
3.40568e-19
-6.83111e-205
6.99249e-65
1.44572e-48
-1.12602e-149
8.20868e-05
1.61101e-34
5.31597e-89
-2.21819e-157
5.66384e-08
-2.85655e-262
-1.00241e-171
6.55542e-27
7.45514e-263
1.93223e-157
-2.39358e-173
2.46015e-10
8.95768
-1.31957e-106
-8.62642e-238
-1.14887e-45
-7.97756e-56
2.62974e-79
8.26226e-65
-1.38469e-73
-2.14791e-253
7.48831e-306
2.74931e-62
3.76152e-283
5.31677e-50
1.20295e-80
2.80508e-48
3.89791e-158
5.2017e-38
7.73833e-26
8.0909e-174
6.38882e-109
-3.23419e-170
-2.68477e-40
3.28459e-27
-2.67255e-269
-4.11174e-60
5.4741e-76
3.10193e-131
-1.37823e-57
-7.476e-204
3.33288e-30
-6.46704e-112
5.64721e-70
-3.03202e-49
-3.43149e-251
-5.59722e-110
8.16167e-17
1.52139e-13
3.45944e-285
3.72824e-89
1.75099e-14
1.024e-90
0.155939
4.93559e-311
-7.9641e-207
-8.41586e-260
-6.53386e-66
9.4037e-86
-9.14468e-98
-6.75362e-202
1.39126e-62
8.24865e-92
-4.16671e-76
2.13829e-157
3.09738e-07
-3.4153e-291
1.47578e-06
1.29358e-233
121.903
-2.11867e-110
4.69502e-18
-2.87549e-229
-8.27482e-161
-4.85993e-55
1.05663e-169
-6.5591e-194
8.07365e-120
-2.09636e-83
2.52814e-83
2.82905e-17
1.75265e-41
2.34717e-42
0
-2.87449e-169
5.39442e-77
5.83327e-13
0
-2.86734e-285
1.51656e-74
-3.19614e-257
-2.26104e-23
0.346264
22.727
0
8.36154e-118
9.06156e-47
-4.62644e-94
-7.38471e-182
65.9678
-3.17631e-289
4.80659e-33
4.80833e-47
1.57555e-118
-2.15189e-185
-1.20753e-190
6.69796e-151
3.44448e-81
5.72749e-102
3.87254e-104
0
4.11933e-246
-3.80951e-88
4.31952e-154
2.46568e-42
-3.36975e-67
1.11494e-201
-9.22099e-283
-1.28981e-51
97.5504
5.98276e-166
4.05113e-30
-2.7361e-306
3.88786e-103
5.85271e-34
-5.0174e-94
8.74379e-50
6.2562e-40
-2.28588e-87
2.36149e-73
0
-1.6879e-236
1.1745e-97
4.11076e-109
-9.70196e-89
1.36919e-110
-1.15872e-299
-6.74045e-284
1.06697e-196
-3.3969e-70
1.37091e-65
-3.27919e-46
-2.9055e-112
-9.24907e-44
-1.94178e-67
-7.30112e-91
-6.37609e-42
1.47566e-72
3.63652e-05
4.58337e-70
-2.36823e-71
-5.03687e-45
-5.35641e-241
4.01144e-36
-1.85776e-54
0
8.44516e-262
-1.2702e-255
-7.93537e-238
3.8459e-12
-5.28742e-91
1.40065e-139
-2.26848e-45
7.00916e-119
-3.32561e-21
4.80353e-92
4.20649e-80
2.82312e-195
5.51805e-22
-1.04815e-300
-1.29118e-70
7.10814e-158
9.85698e-27
2.69799e-41
-1.2089e-93
7.2826e-94
3.80195
-3.30267e-70
3.92498e-22
6.86571e-104
2.33898e-16
0.121916
2.79383e-243
6.14511e-164
-5.77106e-302
2.21428e-14
-9.4125e-165
1.90085e-101
0.000103857
-9.03627e-287
1.52268e-73
3.63989e-49
4.25273e-96
-3.2077e-163
9.4771e-95
1.64013e-220
1.09071e-91
2.2175e-218
5.01755e-223
-1.69243e-97
-1.0098e-74
7.86767e-75
2.46925e-94
-3.44244e-13
-9.79449e-96
8.45138
4.17177e-68
1.54371e-120
-8.26463e-94
2.46675e-70
3.091e-73
2.79727e-100
0.0993389
-1.92402e-49
6.85698e-76
-9.66368e-81
2.54543e-142
2.12707e-156
-3.93422e-52
9.15734e-317
0.164429
1.02017e-205
-4.02893e-48
1.41844e-33
1.95433e-13
8.25161e-39
5.62721e-59
1.4417e-52
-2.53486e-103
2.16407e-38
9.50962e-58
2.20384e-22
-5.27055e-81
1.48919e-25
-2.21216e-81
0
1.111e-74
132.714
9.79419e-19
2.82336e-137
0
1.20117e-199
-7.02544e-117
1.95e-66
2.52702e-76
-4.53022e-106
-7.78652e-255
-8.58151e-133
1.26877e-72
-8.46143e-138
6.42563e-157
1.0778e-25
-1.72513e-128
8.70777e-62
4.88686e-55
1.58577e-133
-6.77055e-127
9.18197e-39
0
-3.17245e-123
29.7442
8.50249e-235
6.63795e-30
1.25725e-34
4.13046e-128
1.30794e-45
2.00332e-54
-2.70303e-75
-3.56026e-47
9.76447e-169
1.92657e-45
3.69824e-182
2.70712e-103
3.23259e-57
-8.48336e-44
1.04815e-168
9.15042e-72
1.51647e-18
-3.01956e-63
2.86265e-101
1.33988e-163
4.57837e-35
3.4834e-09
4.17605e-146
-3.49465e-269
9.61415e-76
8.10328e-291
0.130384
-3.13e-81
5.08963e-19
9.08386e-107
-5.67403e-108
3.27491
5.79054e-97
5.58085e-05
3.27932e-78
18.7911
3.04782e-76
9.61853e-103
6.41046e-99
2.51318e-133
1.88305e-05
2.40043e-07
-2.29523e-240
2.3355e-237
-1.79439e-40
-7.36403e-223
0.000160434
-5.18583e-49
2.62307e-14
9.81726e-165
105.106
0.0138087
-4.58599e-80
0
-2.554e-175
-1.4179e-52
-3.47008e-115
-1.40917e-110
7.30206e-112
-2.3835e-72
2.08531e-59
2.92738
-3.83959e-13
-2.24539e-257
1.5159e-51
2.73608e-44
1.71184e-38
1.95758e-103
6.03197e-32
1.0383e-67
-4.00859e-51
1.56063e-162
0
1.82813e-41
1.67825e-37
-2.75083e-108
-1.32249e-42
2.27269e-20
1.06216e-122
-2.69883e-77
9.49486e-156
7.31485e-116
-7.77024e-21
-1.53802e-114
1.08147e-49
3.36467e-57
-9.11017e-86
5.64535e-149
9.26776e-105
1.37776e-19
3.1376e-109
7.16142e-105
3.13619
1.88859e-68
6.56977e-122
0.000595516
0
4.36549e-107
-8.59492e-84
-1.32512e-117
-9.49303e-199
1.6827e-78
0
1.37248e-14
2.20066e-173
-2.3293e-74
5.86765e-38
8.70778e-45
1.28538e-100
1.04263e-104
3.00435e-43
41.0039
-7.71226e-239
-4.87473e-125
-6.86259e-123
0.000476999
5.24291e-37
3.03856e-171
0.487557
0
6.68792e-175
110.778
-5.89499e-130
1.94181e-166
1.88953e-162
-1.12304e-59
-8.08068e-56
-8.30413e-233
-9.51765e-122
1.19985e-34
4.69707e-84
-1.63205e-88
4.52104e-113
2.61148e-241
-3.68206e-54
3.38404e-12
-6.49544e-91
-2.13388e-44
1.23843e-79
1.95872e-102
6.19596e-16
-5.92362e-46
4.36669e-111
-2.10433e-175
1.62769e-06
1.05125e-74
3.78268e-64
-7.86387e-155
-9.17663e-236
-2.1678e-47
1.14407e-21
1.00071e-112
3.33192e-46
1.0356e-110
5.20783e-110
-1.39257e-145
3.48094e-54
111.761
9.2749
3.91866e-53
-3.46983e-89
2.2899e-147
3.25099e-56
0.000790792
-3.64431e-47
4.00377e-173
5.93559e-25
1.99758e-13
4.83333
8.04958e-136
29.9494
-6.03183e-239
2.87779e-108
-2.13412e-234
8.99905e-17
1.2664e-62
30.12
2.82387e-182
0.00173256
6.19729e-220
1.31271e-90
1.78672e-59
-4.95827e-117
1.44564e-24
1.89777e-05
-3.0701e-126
1.11755e-148
1.76577e-113
1.42415e-136
-2.66262e-128
9.37086e-20
7.05719e-66
4.93952e-104
2.39715e-22
-3.24226e-129
3.18448e-230
-2.0293e-94
1.1488e-197
2.14091e-37
4.92294e-115
1.1761e-15
3.71652e-17
-5.04638e-59
2.39179e-55
-4.66753e-64
3.58391e-99
0.000870342
2.17982e-115
-6.97596e-135
-5.43318e-299
4.40819e-23
-5.47785e-49
4.0253e-184
3.87294e-41
-4.16389e-116
7.48084e-57
-3.19683e-52
-6.44223e-46
-5.68676e-66
67.8062
-2.79451e-63
-2.23181e-57
1.15145e-05
-4.97643e-118
1.52542e-10
9.74034e-48
1.13103e-226
3.02198e-113
-6.26766e-156
2.07955e-101
0
7.75281e-165
3.3866e-13
1.49843e-20
-1.35708e-167
119.955
2.82146e-40
5.71378e-209
3.78114e-17
4.92818e-26
2.66914e-215
3.35226e-15
1.12695e-39
1.9762e-17
2.03736e-218
-2.35646e-158
-1.44261e-139
2.62798e-216
3.34033e-47
5.51819
-1.36093e-176
3.78247e-17
0
0.730548
2.00609e-45
-7.76029e-69
1.63259e-290
1.50069e-178
2.1709e-106
4.68241e-68
9.67674e-22
1.74569e-55
1.00412e-130
-1.30979e-122
6.15414e-221
-4.1476e-48
1.55638e-52
-1.76819e-154
7.50371e-264
2.34714e-90
2.76468e-57
6.13223e-61
2.92278e-195
2.68056e-12
9.3361e-38
9.86542e-222
8.15691e-74
-1.01907e-123
6.64222e-107
135.989
-2.95971e-131
6.121e-210
1.04584e-76
-2.18506e-50
-2.4214e-62
0.676842
2.58051e-75
2.44663e-118
1.25882e-53
-7.75853e-119
9.01227e-122
3.40667e-116
-5.22181e-117
1.91774e-36
-1.32681e-104
8.69464
-1.3456e-60
2.13982e-13
-2.47407e-120
3.99656e-11
3.021e-43
4.61532e-25
9.37269e-19
5.52179e-71
4.22473e-123
3.98502e-127
-4.45006e-91
0
-8.3986e-110
2.32042e-49
8.47674e-34
-7.74802e-120
-1.05657e-224
-9.07155e-77
1.31448e-64
9.64567e-36
1.29824e-54
1.50604e-24
2.97546e-36
-2.09356e-153
3.2965e-69
0.000765933
5.61877e-51
0
4.73224e-140
-6.27717e-120
0
7.39378e-71
-1.17481e-240
-8.46644e-108
-1.54325e-21
2.77926e-46
1.75117e-12
-9.38338e-237
-5.21531e-183
3.84028e-289
-8.71989e-121
-1.23735e-142
1.53716e-24
-1.55032e-141
-1.64237e-182
2.4272e-10
-1.77596e-61
6.2595e-97
1.24156e-72
1.70065e-25
-1.3641e-137
4.94444e-17
7.07082e-128
2.01252e-232
2.73313e-06
5.36509e-83
1.92063e-28
8.84571e-137
31.8026
-1.61338e-55
-1.41787e-66
1.18785e-75
6.58199e-48
2.08232
1.74969e-121
4.50427e-26
2.68655e-58
-2.68591e-68
-2.61502e-172
5.60685e-114
1.50896e-10
-2.712e-108
1.16051e-16
-4.22771e-128
-5.98819e-133
4.35238e-18
-1.05767e-208
9.9407e-153
1.72972e-119
1.26173e-81
8.5117e-16
-7.14173e-129
-3.35935e-121
-2.77424e-310
8.0606e-57
1.69342e-06
7.9913e-70
-2.23536e-121
-1.10566e-86
6.01185e-139
-4.81035e-177
5.59456
-1.19362e-65
-4.3847e-271
1.7688e-67
4.02182e-141
-1.14285e-53
4.63278e-35
1.00452e-97
-2.16302e-117
1.00587e-25
1.55775e-19
-5.27552e-296
2.7713e-94
1.93695e-20
1.8463e-184
-8.74202e-249
-1.20544e-81
3.07702e-83
2.13135e-110
-1.67756e-246
-2.42416e-80
1.23252e-17
3.22412e-211
3.85358e-37
-1.1065e-235
2.08716e-156
3.22598e-76
4.93036e-07
6.00498e-307
0.731475
-6.57344e-64
1.7649e-35
4.64843
-6.35228e-59
4.93045e-93
0.00411196
-1.06056e-119
1.05818e-07
-2.91817e-25
-1.39738e-89
-7.16258e-112
-6.64967e-114
-9.88116e-134
-7.96196e-141
1.71225e-47
0.00175822
115.603
3.65427e-53
1.31413e-35
4.02682e-10
3.09675e-56
0.106204
-1.04526e-199
4.07178e-131
7.11986e-28
1.92025e-72
-3.57547e-162
9.49828e-54
6.20606e-124
1.92761
0
1.18021e-161
7.49088e-193
128.167
-6.85739e-45
9.63093e-61
2.66909e-107
5.70197e-27
2.36095e-116
1.06384e-182
9.30413e-11
7.61325e-122
1.47389e-10
5.79922e-47
6.06976e-117
9.43589e-26
-1.05684e-80
-1.7976e-125
-4.57667e-179
-1.64922e-174
0.043864
1.44307e-19
-3.1257e-159
2.74126e-26
2.55527e-98
6.16485e-43
4.90765e-303
4.57455e-85
4.98705e-11
6.23092e-29
-4.68374e-57
-1.21801e-92
-6.06056e-181
1.25115e-34
1.53641e-115
-1.45544e-184
9.61814e-16
1.96862e-31
-2.69466e-147
2.80651e-39
-1.14765e-91
-1.35521e-292
1.63055e-164
2.76425e-266
-8.55451e-53
24.6816
2.10715e-16
2.9524e-36
-5.03679e-154
2.97351e-113
1.41072e-81
1.27635e-276
2.73277e-12
-4.31418e-82
24.3493
8.17903e-34
9.01129e-117
3.46931e-149
-9.26186e-197
2.50507e-125
-4.16192e-118
1.95695e-159
5.19628
5.54016e-30
-5.08535e-55
-1.27873e-23
-3.20842e-56
1.41899e-183
0
1.86312e-160
1.60334e-39
0.0149919
-7.7823e-30
1.6981e-72
-3.14097e-67
5.09712e-89
4.03442e-31
0.00187714
0.00236788
-2.14554e-115
9.70205e-95
-2.33196e-50
-5.98505e-143
-4.20213e-258
-4.65797e-161
5.29456e-27
-1.53064e-143
1.81244e-95
-5.82711e-127
9.52714e-56
1.55041e-14
-4.50066e-135
-6.50546e-160
4.44736e-19
3.8358e-34
-5.21001e-114
-3.53411e-170
-5.07618e-69
2.03606e-14
7.59731e-40
-5.32441e-37
-2.01383e-72
-2.27093e-106
1.12905e-06
2.46697e-111
-7.97742e-30
-4.26447e-177
1.65003e-17
4.02895e-20
-2.10505e-233
-2.12355e-192
69.0687
2.18801e-164
6.01277e-101
1.97037e-44
-6.8703e-140
-4.69448e-139
-5.35204e-122
1.58233e-166
5.21546e-289
4.35595e-46
3.73911e-09
4.12042e-196
0.00114477
3.5892e-127
-5.11022e-166
1.59682e-17
1.2018e-12
9.16785e-41
3.21846e-119
1.26512e-157
-1.75406e-62
118.712
5.25616e-143
1.61822e-197
2.20552e-205
-1.16681e-143
-5.86027e-81
-3.14878e-51
1.29317e-146
6.91488e-94
5.92904e-156
2.06688
1.49645e-13
1.79817e-82
-2.89644e-51
4.51567e-125
-2.48577e-165
3.83527e-35
0.235315
3.17284e-100
-1.88181e-203
-1.70694e-167
6.03805e-20
-2.87232e-141
-1.09269e-178
2.34383e-22
6.8465e-121
-7.00179e-165
93.693
1.78463e-19
0.0273688
2.19998e-35
-1.14402e-143
1.32446e-32
1.30654e-14
0.0139368
-5.06798e-131
1.71128e-57
1.14507e-280
0.0167659
0
2.3792e-134
6.32276e-132
5.924e-203
6.14595e-68
-2.27049e-112
-2.5251e-140
-5.64044e-133
0.209492
3.26694e-20
1.04071e-74
-3.03351e-159
2.53755e-46
0.253673
6.5461e-17
5.10524e-59
-1.21486e-70
1.28685e-134
-7.09544e-116
-1.48524e-200
5.18938e-150
6.16297e-194
-6.56179e-162
-1.57613e-60
3.15611e-21
1.73086e-31
0.0454291
1.71435e-06
2.56837e-13
4.47853e-39
0.0167568
-8.90862e-181
1.9905e-08
-8.61181e-169
5.96095e-05
3.41894e-18
1.59239e-58
-6.47276e-147
2.95445e-56
1.49276e-44
2.03013e-103
17.2635
2.34293e-17
0.0449249
-6.18613e-164
6.17241e-15
5.49198e-10
4.2575e-18
1.8529e-10
1.41213e-16
1.13253e-166
-2.20697e-120
3.62658e-80
-3.22872e-152
3.48115e-45
2.77344e-138
-1.72797e-58
1.96449e-236
-4.68609e-125
8.71201e-46
1.04567e-69
-2.32746e-186
-2.62077e-66
0.0242811
57.6836
4.57278e-205
1.47143e-67
3.69899e-125
2.73399e-14
1.41998e-47
1.94684
2.4006e-07
-2.76452e-134
3.18419e-66
3.53173e-10
-1.37474e-29
3.33001e-08
2.37393e-74
1.20977e-16
1.3026e-190
0.0124562
7.80066e-21
2.0934e-168
9.59843e-11
7.99787e-06
2.41597e-62
0.098346
-3.1701e-130
2.52337e-12
-8.47059e-109
1.56143e-211
1.31022e-101
2.43963e-114
0.00334558
3.36732e-15
0.000623473
-2.44506e-184
0.138889
4.0283e-58
2.86485e-21
-1.44301e-43
2.58835e-69
7.55657e-82
9.73044e-05
-3.4326e-128
6.44601e-148
2.97161e-45
6.82172e-13
1.53269e-45
2.34202e-34
-2.00265e-79
0.00502083
1.58472e-42
4.21174e-46
3.42561e-13
2.93696e-209
8.97486e-11
7.48862e-30
2.94021e-11
-1.64936e-104
3.00337e-07
-1.82393e-197
2.96767e-47
2.98149e-84
8.52985e-19
2.85032e-98
2.41616e-46
6.87282e-12
55.3959
-2.80577e-130
9.80451e-77
2.0796e-63
1.76593e-26
7.96981e-39
3.97949e-133
4.56323e-61
-5.15032e-199
6.12276
-9.60623e-297
-1.17829e-198
3.02431e-264
2.0571e-13
-5.12875e-163
-8.0949e-57
0.00747639
3.07271e-85
-4.45084e-79
-7.25414e-155
1.86149e-249
1.41734e-13
1.48922e-203
-1.4489e-54
7.98106e-19
-3.27766e-64
1.06289e-08
-1.95483e-133
1.91352e-60
1.83618e-11
2.19332e-34
-1.03313e-101
62.9467
1.27984e-301
1.19337e-242
-7.35168e-119
137.849
3.5248e-106
3.48682e-115
6.03542e-11
-1.45694e-146
-3.08038e-131
1.17347e-28
4.86478e-10
4.27457e-50
1.17407e-05
-2.34664e-144
7.01636e-123
-3.86969e-79
1.66955e-82
5.16281e-19
-6.0315e-171
1.14579e-113
-7.00642e-76
-1.93614e-22
-2.83783e-94
-2.20429e-188
-1.45018e-60
-2.94266e-25
-3.1378e-254
-2.12324e-250
1.75701e-07
2.30037e-49
5.86375e-07
3.56962e-130
0
-8.72808e-24
9.76617e-14
7.04227e-182
6.39032e-141
1.00158e-199
1.234
1.65618e-253
7.67257e-52
4.59809e-09
-4.26479e-248
2.58792e-247
1.57703e-35
8.67621e-216
-1.41208e-249
1.4936e-76
3.35753e-19
-1.54323e-190
3.64658e-34
2.6087e-206
5.81403e-12
0
1.15481e-10
5.21089e-18
7.77122e-42
-1.40028e-247
1.12488e-28
1.8544
1.56734e-142
9.59672e-66
-1.27206e-219
5.67615e-20
4.04702e-208
3.35648e-11
6.84943e-18
3.34748e-117
3.6156e-258
1.46148e-18
2.24169e-21
-1.78608e-85
5.22102e-85
1.30554e-22
1.65905e-213
8.06157e-30
2.72065e-260
2.33837e-11
4.61375e-13
2.30657e-20
1.48983e-40
-1.6135e-31
0.302097
1.38403e-46
1.71193e-83
2.35277e-21
8.6405e-137
1.69633e-26
3.15328e-22
-4.76561e-58
1.3999e-123
0.00267895
7.65324e-284
0.000447083
78.2108
1.19567e-151
6.79416e-17
17.297
5.11174e-49
5.68563e-81
3.13401e-30
-4.63561e-74
-1.44368e-196
1.42443e-12
0.000428243
0.191719
-1.03196e-136
3.29684e-37
2.60308e-08
2.88262e-19
-6.87713e-160
1.65922e-238
6.44114e-67
6.16749e-05
1.67752e-12
2.07647e-23
5.69609e-311
3.03373e-209
7.31517e-21
1.21645e-144
4.10159e-71
2.52564e-139
2.41001e-253
3.21099e-11
2.51104e-133
1.83071e-09
-4.65177e-84
2.59584e-226
8.33341e-239
1.47984e-20
-7.48005e-138
9.3244e-49
3.75044e-23
0.000437379
4.0555e-70
-9.03868e-189
1.84532e-09
-3.31454e-115
-4.36755e-201
1.10255e-108
2.37781e-20
-1.1383e-141
1.33551e-19
2.6092e-74
134.583
8.53766e-22
-2.07143e-178
2.63344e-09
-8.80494e-263
4.14995e-14
3.37087e-59
1.62914e-08
1.32223e-05
-6.99049e-60
4.4237e-08
6.48332e-224
1.66524e-15
2.92982e-151
3.50521e-69
3.60552e-10
-2.83955e-46
3.32803e-10
0.000395273
-9.23355e-27
2.33586e-14
7.2479e-09
-9.8867e-185
5.35899e-205
-1.46176e-260
2.90003e-08
-7.20763e-33
-1.27918e-182
8.67264e-12
1.0897e-11
-2.4395e-70
1.59932e-27
1.19636e-86
3.7299e-47
1.41377e-08
-3.45518e-96
1.27524e-56
4.31435e-54
7.5493e-282
2.17778e-278
-3.0866e-183
-4.99748e-136
1.80994e-86
7.25304e-229
1.63907e-115
1.65375e-128
-1.54186e-80
1.2982e-45
9.14584e-161
2.78233e-11
0
5.57045e-18
1.09399e-08
-4.74083e-175
5.79373e-07
3.05357e-24
2.75164e-11
2.57625e-92
6.85707e-24
5.16704e-146
1.1501e-60
1.84857e-76
5.98054e-241
6.24781e-151
-1.89486e-124
-6.32435e-173
-1.71537e-265
1.76161e-74
-1.28646e-267
-1.35447e-42
1.40681e-42
0.00597458
7.43323e-232
4.10424e-82
9.63149e-227
-9.93325e-145
3.14323e-30
1.12517e-85
-9.28934e-180
101.856
9.4216e-20
5.20781e-49
1.21055e-81
1.24097e-22
3.73462e-32
-2.61634e-111
3.35551e-33
2.1312e-19
-1.48476e-128
1.20734e-262
-1.60917e-113
1.23646e-14
3.94922e-204
-9.97068e-185
4.13104e-19
-1.04549e-151
-2.73793e-145
9.0324e-123
-1.68319e-188
1.67867e-07
1.06053e-229
-6.72302e-187
3.46624e-42
5.19943e-33
0.0557723
1.37082e-18
-1.1847e-80
-5.60174e-177
8.90909e-33
-3.92575e-179
1.09135e-42
3.65011e-97
-6.46874e-129
8.33325e-09
3.6248e-241
7.69603e-34
1.10476e-72
1.17562e-21
-2.17799e-55
9.10474e-272
2.13933e-130
0
5.62855e-39
2.19505e-207
7.30375e-28
-3.41136e-72
-2.68217e-127
-1.4412e-77
1.50649e-62
-4.91608e-264
6.2571e-33
5.57859e-40
3.74207e-137
3.89317e-40
1.60346e-12
1.26747e-251
3.04945e-62
4.98198e-16
3.70145e-27
5.36666e-103
-2.02493e-63
-1.72717e-61
1.1731e-75
1.0315e-98
3.41592e-20
-4.43821e-98
-2.59099e-177
-7.21248e-179
5.0788e-08
8.46488e-13
1.08143e-10
3.1905e-09
-1.89921e-48
2.17915e-30
4.17289e-71
2.53032e-33
-2.75071e-179
0.00969522
-1.57008e-144
1.0447e-08
6.41762e-24
-4.19978e-181
-7.50564e-35
6.12916e-14
1.28333e-12
-2.04351e-69
9.81838e-42
-2.75714e-181
-7.98025e-294
1.22755e-21
-6.62904e-262
1.90054e-234
6.28137e-24
1.72189e-146
-3.80308e-91
-1.09844e-186
1.8988e-130
3.69249e-22
4.61802
-1.35165e-148
-8.00879e-153
1.06303e-15
-3.55275e-53
1.43029e-15
5.4623e-39
7.25879e-36
-2.40002e-148
-1.86096e-57
6.61692e-37
1.47008e-24
-6.89756e-42
1.02854e-189
2.7254e-21
2.21923e-48
9.20218e-29
1.31893e-113
-1.613e-184
3.86873e-24
-3.96868e-145
-1.15876e-252
2.06008e-35
7.26995e-12
-4.81299e-231
2.11427e-39
1.54482e-74
1.17081e-158
8.30577e-106
-9.06877e-159
1.73466e-35
-8.32947e-177
-1.26791e-186
-2.11003e-82
2.63157e-36
-3.22039e-55
4.67851e-39
4.68087
-4.48512e-132
1.68635e-83
4.69542e-05
5.57957e-53
-1.64946e-160
3.72885e-50
2.41888e-12
2.2148e-240
-3.25673e-149
6.42023e-256
1.08687e-40
6.57256e-21
-7.93749e-83
-6.92521e-270
2.21297e-109
5.13744e-103
-8.55649e-123
4.6241e-13
3.16793e-144
1.50905e-271
-3.05742e-263
1.50408e-44
-9.97577e-71
6.36959e-08
-8.06227e-114
-2.04955e-68
1.63199e-65
2.55394e-31
3.13969e-202
8.89948e-35
8.41124e-245
9.34741e-235
3.74481e-258
1.6486e-15
-7.76496e-142
5.34534e-38
2.25171e-49
-1.25869e-45
1.48436e-32
1.77863e-43
2.01484e-19
3.41778e-35
-1.00768e-140
2.36932e-56
-1.84286e-62
6.33164e-56
3.33342e-29
-1.77124e-148
10.8033
4.01897e-23
2.35278e-26
4.41447e-233
0.204647
2.16877e-31
6.07632e-34
-9.87722e-39
3.44275e-22
5.65925e-84
-2.12463e-132
1.49451e-132
3.23803e-144
6.0234e-138
-6.05498e-25
8.48107e-32
-5.29567e-150
3.25115e-46
-7.3453e-125
1.16948e-133
-1.84345e-87
-1.85562e-62
-3.1135e-109
2.81885e-76
-3.87787e-62
3.84832e-55
6.79758e-37
9.28154e-78
-1.19641e-227
-1.05518e-109
1.45275e-139
1.38874e-15
7.30013e-206
-7.43447e-146
-7.2254e-43
0.00130157
1.59154e-176
2.67346e-07
-5.38057e-182
-1.90674e-146
4.58589e-82
2.58996e-46
9.21358e-55
2.558e-201
1.73342e-40
1.13139e-40
5.11111e-16
1.30362e-232
9.16793e-52
-9.6834e-68
3.94725e-103
-5.57284e-257
4.98438e-309
8.53872e-37
-3.31121e-70
4.9219e-97
7.48363
1.64708e-36
2.60396e-51
-3.39511e-34
-8.24806e-84
1.73762e-15
-1.32448e-130
-2.92843e-84
6.0545e-115
-1.5316e-124
1.83707e-08
9.99609e-51
7.99601e-35
9.72556e-58
6.87009e-195
2.99241e-39
5.44139e-38
1.05679e-16
4.44467e-126
6.57772e-52
-1.02152e-06
2.8594e-07
-3.81165e-184
8.228e-14
-3.42097e-90
1.46265
3.25673e-251
1.71162e-39
6.45624e-59
1.53159e-280
1.26922e-33
3.38564e-107
1.23967e-107
2.06586e-27
3.57129e-10
5.44669e-18
7.23774e-107
1.77885e-43
3.4458e-246
-4.0486e-141
3.27296e-09
-5.86104e-44
5.25591e-128
3.22503e-39
-6.80669e-29
2.88028e-45
-5.29423e-71
-4.95014e-65
7.46578e-49
6.25652e-09
1.50868e-192
-7.19056e-68
-1.7607e-87
1.03779e-39
1.87222e-10
7.11827e-44
4.43069e-52
-1.36758e-115
1.65705e-255
9.77368e-38
2.08884e-50
1.38959e-43
2.44103e-198
3.61612e-90
1.48017e-54
9.31822e-46
-3.75194e-33
1.63742e-38
1.50445e-117
2.07909e-47
-7.93439e-144
3.07947e-30
1.27106e-87
9.59795e-38
7.32473e-85
2.89486e-105
2.40258e-46
2.0027e-90
4.77821e-100
4.01784e-120
-2.13233e-194
5.59494e-65
8.56181e-71
1.2208e-88
0.14471
6.63401e-06
-2.21705e-156
3.29878e-130
-3.24091e-69
-5.42593e-69
1.5639e-269
1.03872e-41
-3.08604e-50
-7.67762e-46
-2.00541e-249
5.37087e-19
6.71922e-41
3.71513e-23
7.7728e-43
-4.5397e-233
-6.06917e-124
5.89856e-99
2.68188e-47
1.34157e-12
0.893839
5.16725e-189
-4.30695e-92
-3.99087e-105
1.07133e-14
1.3175e-08
1.6023e-17
2.85301e-71
7.01176e-45
1.06949e-247
2.16944e-62
-4.55026e-73
-8.59355e-187
-7.90801e-30
-1.57136e-72
1.12095e-56
1.80563e-43
-6.13721e-93
-6.13591e-71
8.72411e-51
-8.55361e-235
0
-4.97111e-66
-5.37287e-92
1.14892e-11
-6.27073e-89
-3.07845e-31
4.10021e-19
-4.38379e-57
-1.1818e-187
-1.35664e-82
3.54473e-42
-1.51884e-192
1.44086e-06
2.21391e-08
-5.01104e-156
3.89843e-245
-4.20687e-153
6.72792e-194
-1.03646e-284
1.06846e-83
6.86577e-105
-2.36179e-40
-1.1991e-73
3.60505e-49
1.00763e-64
2.81932e-15
1.09456e-44
1.647e-45
5.82312e-78
-4.6235e-86
-4.62368e-50
-3.79506e-234
2.26215e-103
8.59659e-111
-2.076e-44
-9.6744e-36
7.51993e-13
-1.12041e-287
-3.43605e-37
9.35637e-61
1.03549e-79
1.90589e-32
-4.36648e-52
2.53415e-35
2.44726e-09
-3.54631e-66
7.93312e-27
-4.26995e-87
5.65302e-128
5.23192e-62
7.03145e-48
-3.87825e-195
-3.65964e-77
1.67431e-07
-2.2245e-107
8.49708e-10
2.52238e-186
2.01884e-48
-1.15788e-124
5.98379e-119
2.69796e-41
-3.07506e-28
3.81939e-35
-9.05e-104
-1.18097e-80
2.55344e-80
3.96022e-26
1.8312e-35
-5.38269e-64
7.00804e-24
3.45012e-284
-3.83775e-69
1.82192
1.05951e-20
-3.83675e-111
8.95076e-05
2.61212e-37
5.27211e-102
5.89397e-218
5.21391e-15
8.69032e-48
2.69951e-82
-5.16433e-54
6.31604e-186
3.08321e-48
-7.93599e-115
2.20127e-28
2.43951e-51
6.36912e-51
3.71292e-38
0
2.63898e-146
3.19543e-99
-1.24283e-131
5.11279e-134
5.37656e-78
8.48567e-104
2.58395e-102
-6.15992e-31
2.7942e-38
3.41591e-268
6.89976e-33
-1.54477e-142
-5.80082e-233
-3.14463e-38
-1.09834e-177
-1.37398e-85
-1.01501e-85
-2.43957e-197
8.27702e-193
5.82106e-115
7.65555e-54
-1.04928e-83
1.8721e-44
1.43822e-58
-7.1348e-37
3.26803e-41
1.432e-83
4.1515e-69
2.14882e-54
-4.37284e-301
-1.89928e-89
6.14989e-117
3.10533e-86
6.94658e-07
2.00687e-56
-5.79236e-94
2.81999e-65
1.36105e-87
4.27343e-108
-3.73889e-107
-1.13879e-85
2.15233e-117
-4.2213e-45
5.92254e-62
-1.00936e-235
3.65743e-55
2.7105e-66
1.80101e-52
-6.19653e-218
-3.90458e-39
1.84751e-10
-1.97748e-137
-9.22543e-57
5.21898e-41
-3.33279e-154
4.80239e-38
2.91711e-27
3.90657e-51
-6.32726e-49
9.846e-32
-3.13221e-64
1.59528e-71
1.61553e-57
5.83025e-47
3.47358e-174
2.01041e-118
-4.04384e-293
1.63032e-139
6.24059e-218
5.43857e-80
4.20413e-72
2.75808e-44
6.5327e-58
0.154589
-3.46991e-28
0.894948
8.75465e-60
2.10198e-14
0.0322753
5.71402e-24
1.10565
5.76236e-114
-1.1353e-72
-2.41341e-86
8.5213e-88
-2.77679e-66
1.20597e-149
4.87223e-77
-3.60228e-127
-3.31191e-220
3.65144e-73
0.00207589
1.63511e-83
2.88853e-51
-3.80928e-84
4.91345e-117
6.60882e-63
-1.42767e-70
-9.10322e-134
-1.59084e-75
5.32649e-122
1.34135e-33
1.70895e-54
2.05872e-57
-2.55445e-60
5.44978e-07
8.69088e-25
1.38472e-49
-2.35696e-87
14.3279
-9.58926e-86
-7.01214e-76
5.70073e-45
-8.0448e-41
1.08715e-80
3.51025e-34
-2.72515e-190
-8.67328e-52
-1.41272e-38
1.84619e-60
2.09614e-61
4.76208e-103
-5.81454e-74
-8.25587e-48
2.43174e-113
2.3059e-46
5.01355e-79
-9.22346e-101
6.72949e-188
3.26664e-89
2.78635e-64
4.30852e-112
-7.79881e-89
6.46403e-101
-1.24122e-144
-8.26946e-47
-7.76159e-117
3.90163e-24
4.47005e-64
-2.64391e-87
-2.39413e-198
1.61373e-137
4.70908e-39
-4.07815e-75
2.19943e-246
-1.20948e-63
0.025164
1.25483e-52
9.41009e-106
2.2727e-89
9.60117e-08
0.000134319
2.05706
2.30856e-140
4.04303e-142
4.74695e-130
-4.09729e-99
1.98558e-48
4.25458e-13
2.53248e-10
1.68433e-22
2.17936e-50
1.06e-119
2.95941e-213
1.91969e-209
-5.42175e-38
-1.51143e-106
1.4035e-40
3.91601e-136
7.21494e-20
1.10932e-124
5.01673e-72
1.32112e-16
-1.22008e-58
2.526e-40
-4.09498e-139
-1.31588e-78
-4.24799e-231
1.25297e-35
2.17282e-51
2.75417e-112
2.6168e-220
1.48722e-94
-3.97138e-32
-5.55282e-151
-4.76225e-64
4.38583e-08
7.38413e-245
8.19101e-106
-1.58047e-53
-4.56956e-55
4.33583e-66
2.03758e-162
3.07411e-148
-1.53809e-144
2.63306e-263
1.11909e-208
3.98266e-97
5.90706e-61
-9.08518e-232
6.24805e-102
-7.46353e-148
121.007
-9.53143e-40
-2.12355e-142
-7.51691e-290
3.67129e-48
-4.2016e-82
1.50511e-33
5.97351e-65
-8.00129e-81
-4.52736e-224
6.78891e-145
3.64873e-38
6.7434e-289
3.91121e-87
4.54699e-41
5.74034e-71
1.79386e-203
6.27206e-78
3.92798e-268
8.77558e-95
-7.14051e-97
-7.62581e-149
8.33404e-23
4.39475e-76