/*--------------------------------*- C++ -*----------------------------------*\
  =========                 |
  \\      /  F ield         | OpenFOAM: The Open Source CFD Toolbox
   \\    /   O peration     | Website:  https://openfoam.org
    \\  /    A nd           | Version:  7
     \\/     M anipulation  |
\*---------------------------------------------------------------------------*/
FoamFile
{
    version     2.0;
    format      ascii;
    class       volScalarField;
    location    "10";
    object      T;
}
// * * * * * * * * * * * * * * * * * * * * * * * * * * * * * * * * * * * * * //

dimensions      [0 0 0 1 0 0 0];

internalField   nonuniform List<scalar> 
2413
(
0.954203
0.95479
0.955304
0.956287
0.957176
0.958564
0.960582
0.962287
0.964601
0.967755
0.969739
0.971495
0.97382
0.974806
0.975066
0.976055
0.978363
0.985606
1.00962
1.0531
1.07945
1.08239
1.08214
1.08133
1.08061
1.0801
1.0796
1.07899
1.07838
1.07766
1.07676
1.07579
1.07478
1.07378
1.07282
1.07186
1.07089
1.0699
1.06888
1.06786
1.06684
1.06578
1.06481
1.06399
1.06313
1.06224
1.0614
1.06056
1.05969
1.05883
1.058
1.05717
1.0563
1.05559
1.05499
1.05433
1.05359
1.05282
1.05202
1.05115
1.05024
1.04931
1.04837
1.04741
1.04649
1.04579
1.04516
1.04459
1.04396
1.04328
1.0426
1.04187
1.04109
1.0403
1.03955
1.03885
1.03815
1.03757
1.03657
0.993782
0.992459
0.991207
0.990096
0.989011
0.987827
0.986518
0.985243
0.984213
0.983374
0.982548
0.981592
0.980458
0.979213
0.977962
0.976766
0.975672
0.974698
0.973786
0.972837
0.971822
0.970804
0.969793
0.968696
0.967526
0.966516
0.965769
0.965145
0.964478
0.963611
0.962529
0.961418
0.960394
0.959392
0.958416
0.95762
0.95702
0.956534
0.956044
0.955472
0.954887
0.954389
0.953905
0.953391
0.953023
0.952739
0.952586
0.952605
0.952601
0.952561
0.952605
0.952945
0.953021
0.953131
0.953626
0.95386
0.954472
0.955316
0.955996
0.95727
0.95858
0.959944
0.962273
0.964491
0.966007
0.968109
0.970082
0.970595
0.971399
0.973097
0.977128
0.991755
1.02966
1.06885
1.0796
1.07971
1.07925
1.07879
1.0787
1.07846
1.0779
1.07727
1.07652
1.07571
1.07486
1.07392
1.07296
1.07204
1.07112
1.07018
1.06921
1.06818
1.06712
1.0661
1.06517
1.06437
1.0636
1.06273
1.06182
1.06095
1.06005
1.05906
1.05818
1.05741
1.0567
1.05602
1.0554
1.05481
1.05414
1.05338
1.0526
1.05178
1.05087
1.04988
1.04885
1.04786
1.04701
1.04628
1.04554
1.04479
1.04405
1.04327
1.0425
1.04175
1.04102
1.04033
1.03966
1.039
1.03833
1.03762
1.03701
1.03599
0.994288
0.993351
0.992546
0.991702
0.990696
0.98953
0.988304
0.987136
0.986042
0.984929
0.983716
0.982411
0.981161
0.980105
0.979185
0.978258
0.97723
0.976107
0.975
0.974041
0.973237
0.972492
0.971685
0.970705
0.969585
0.968486
0.967413
0.966256
0.965069
0.964081
0.963364
0.962729
0.961967
0.96097
0.959909
0.958934
0.957966
0.956958
0.956062
0.955443
0.955017
0.954639
0.954183
0.953658
0.953139
0.952534
0.952133
0.952091
0.952168
0.952269
0.952395
0.952745
0.952868
0.952912
0.953301
0.953443
0.953454
0.953957
0.954419
0.955168
0.956435
0.957366
0.958741
0.960813
0.962239
0.963826
0.966181
0.967242
0.967884
0.969193
0.971609
0.9797
1.0068
1.05103
1.07458
1.07712
1.07707
1.0771
1.0773
1.07701
1.07645
1.07568
1.07508
1.07465
1.07397
1.07311
1.07224
1.07138
1.07049
1.06954
1.06853
1.06743
1.06635
1.06548
1.06472
1.06397
1.06316
1.06227
1.06135
1.06047
1.05958
1.05871
1.05791
1.05715
1.05641
1.05564
1.05488
1.05421
1.05352
1.05275
1.05196
1.05111
1.05018
1.0493
1.04847
1.04766
1.04687
1.04604
1.04513
1.04427
1.04348
1.04272
1.04203
1.04131
1.04055
1.03979
1.03902
1.03828
1.03754
1.03683
1.03624
1.03526
0.996199
0.995206
0.994169
0.99299
0.991651
0.990287
0.989158
0.988269
0.987434
0.986525
0.985486
0.984344
0.983192
0.982084
0.981028
0.98003
0.979082
0.978144
0.977213
0.976285
0.975278
0.974103
0.972796
0.971646
0.970849
0.970184
0.969437
0.968475
0.967392
0.966313
0.965182
0.963955
0.962851
0.962033
0.961346
0.960616
0.959701
0.958638
0.957679
0.956916
0.956262
0.955627
0.954989
0.954377
0.953785
0.953236
0.95278
0.95239
0.952182
0.952132
0.952138
0.952299
0.952532
0.952776
0.953099
0.953329
0.953247
0.953409
0.953654
0.953878
0.954735
0.955639
0.956552
0.958239
0.959701
0.960894
0.962897
0.964586
0.965196
0.966292
0.968055
0.972513
0.989273
1.02898
1.06512
1.07439
1.07547
1.07588
1.07574
1.07532
1.07475
1.07405
1.07364
1.07353
1.07308
1.07234
1.0716
1.07082
1.0699
1.06889
1.06785
1.06677
1.06582
1.06506
1.06431
1.06349
1.06264
1.06177
1.06089
1.06005
1.05924
1.05832
1.05739
1.05664
1.05593
1.05526
1.0546
1.05389
1.05312
1.05229
1.05146
1.05061
1.04973
1.0489
1.04803
1.0471
1.04625
1.04553
1.04483
1.04409
1.04328
1.04241
1.04152
1.04063
1.03978
1.03901
1.0383
1.03763
1.03696
1.03629
1.03565
1.03458
0.997707
0.996877
0.995838
0.994613
0.993356
0.99219
0.991122
0.990072
0.988952
0.987706
0.986435
0.985399
0.984591
0.983845
0.98306
0.982214
0.981335
0.980377
0.97927
0.978051
0.976844
0.975741
0.97478
0.973913
0.972956
0.971787
0.970632
0.969773
0.969102
0.968426
0.967607
0.966614
0.965557
0.964481
0.96329
0.961966
0.96077
0.959911
0.959236
0.958578
0.957872
0.957111
0.95634
0.955588
0.954867
0.954201
0.953587
0.9531
0.952841
0.952759
0.952767
0.952782
0.952729
0.952566
0.952484
0.952625
0.952771
0.953038
0.953327
0.953433
0.953882
0.954676
0.955188
0.956217
0.957701
0.958787
0.960293
0.962348
0.96313
0.963958
0.965419
0.96809
0.977715
1.00744
1.04992
1.07092
1.07426
1.07439
1.07408
1.07359
1.07317
1.07282
1.07261
1.07268
1.07223
1.0715
1.07077
1.06996
1.06905
1.06809
1.06714
1.0662
1.06542
1.06474
1.06394
1.06304
1.06213
1.06125
1.06038
1.05954
1.05872
1.05789
1.05714
1.05645
1.05569
1.05488
1.05404
1.05315
1.05234
1.05155
1.05078
1.05
1.04924
1.04853
1.0478
1.04701
1.04617
1.04529
1.04436
1.04343
1.04252
1.04166
1.04086
1.0401
1.03938
1.03863
1.03785
1.03705
1.03625
1.03548
1.03482
1.03387
0.999145
0.997996
0.996694
0.995336
0.9941
0.993103
0.992256
0.991431
0.990542
0.989546
0.988486
0.987472
0.986532
0.985603
0.984585
0.983408
0.982178
0.981158
0.980336
0.979482
0.978477
0.977378
0.976305
0.975338
0.974493
0.973705
0.972924
0.972091
0.971105
0.969964
0.96885
0.967971
0.967262
0.966546
0.965669
0.964588
0.963506
0.962561
0.961661
0.960682
0.95955
0.958348
0.957262
0.956371
0.955619
0.954961
0.954382
0.953915
0.953578
0.953361
0.953211
0.953015
0.952811
0.952668
0.952583
0.952558
0.952458
0.952547
0.953043
0.953279
0.953539
0.954235
0.954706
0.955283
0.956452
0.957345
0.95828
0.960042
0.961348
0.962069
0.96338
0.965309
0.970726
0.990313
1.03061
1.06464
1.07258
1.07273
1.07242
1.07209
1.07195
1.07198
1.07229
1.07201
1.07128
1.07052
1.06975
1.06895
1.06815
1.06739
1.06664
1.06584
1.0651
1.06436
1.06348
1.06253
1.06161
1.06074
1.0599
1.05909
1.05832
1.05757
1.05681
1.05604
1.0552
1.05431
1.05344
1.05262
1.05184
1.05108
1.0503
1.04949
1.04869
1.04789
1.04709
1.04627
1.04542
1.04455
1.04369
1.04286
1.04204
1.04126
1.04049
1.0397
1.03888
1.03804
1.03722
1.03644
1.03571
1.035
1.03432
1.03329
1.00013
0.999101
0.997987
0.996884
0.995846
0.994835
0.993778
0.992597
0.991302
0.990234
0.989596
0.98906
0.988465
0.987659
0.986529
0.985194
0.983782
0.982413
0.981264
0.980404
0.979693
0.978993
0.978214
0.9773
0.97624
0.975177
0.974305
0.973582
0.972859
0.972056
0.971201
0.9703
0.969276
0.968077
0.966838
0.965902
0.965248
0.964645
0.963945
0.963022
0.961874
0.960684
0.959654
0.958799
0.958029
0.957273
0.956534
0.955857
0.955242
0.954652
0.954095
0.95353
0.952932
0.952672
0.952699
0.952783
0.95277
0.952715
0.952871
0.953027
0.953234
0.953975
0.954617
0.954873
0.955602
0.956521
0.957227
0.958456
0.960013
0.960582
0.961444
0.962966
0.966203
0.978139
1.01078
1.05301
1.07038
1.07133
1.07116
1.07109
1.07116
1.0716
1.07161
1.07102
1.07032
1.06958
1.0688
1.06799
1.06736
1.06679
1.06615
1.06545
1.06475
1.06395
1.06302
1.06209
1.0612
1.06037
1.05956
1.05876
1.05796
1.05716
1.05635
1.05555
1.0547
1.0538
1.05293
1.05207
1.05122
1.05044
1.04964
1.04885
1.04809
1.04732
1.04654
1.04574
1.04493
1.04409
1.04323
1.04239
1.04154
1.04072
1.03995
1.03919
1.03845
1.03768
1.03691
1.03608
1.03519
1.03422
1.03358
1.03278
1.00106
0.999723
0.998516
0.997603
0.996853
0.996096
0.99521
0.994149
0.99306
0.992113
0.991251
0.990321
0.989183
0.987829
0.986548
0.9856
0.984853
0.984055
0.983106
0.982081
0.981033
0.979976
0.979019
0.978237
0.977558
0.97687
0.976049
0.975031
0.973943
0.97302
0.972291
0.971617
0.970888
0.970048
0.969154
0.968269
0.967317
0.966185
0.964903
0.963798
0.963058
0.962502
0.961982
0.961418
0.960736
0.959887
0.958917
0.957932
0.956984
0.95606
0.955179
0.95442
0.953782
0.953391
0.953267
0.953286
0.953361
0.953414
0.953552
0.953672
0.953719
0.954059
0.95445
0.954648
0.95507
0.956093
0.95663
0.957205
0.958496
0.959273
0.959804
0.96099
0.963204
0.970244
0.993622
1.03637
1.0658
1.0702
1.0704
1.07064
1.07108
1.07114
1.0707
1.07013
1.06953
1.06886
1.06819
1.06758
1.06702
1.06639
1.06566
1.06496
1.06425
1.06344
1.06256
1.06168
1.06082
1.06001
1.05921
1.05842
1.0576
1.05677
1.05594
1.05511
1.05424
1.05335
1.05247
1.05157
1.05072
1.04994
1.04914
1.04835
1.04756
1.04677
1.04596
1.04514
1.04432
1.04352
1.04271
1.04193
1.04115
1.04036
1.03959
1.03881
1.03804
1.03723
1.03642
1.03554
1.0347
1.03391
1.03331
1.03248
1.00241
1.00126
1.0002
0.999239
0.998215
0.997004
0.995702
0.994691
0.994012
0.993399
0.992718
0.991822
0.990593
0.989167
0.987815
0.986586
0.985435
0.984556
0.983963
0.983395
0.982658
0.981732
0.980779
0.979861
0.978932
0.978021
0.977203
0.976446
0.975671
0.974857
0.973969
0.972962
0.971841
0.970751
0.96998
0.969426
0.96881
0.967909
0.966844
0.96605
0.965479
0.964909
0.964273
0.963557
0.962741
0.961818
0.960796
0.95968
0.9585
0.957313
0.956183
0.955264
0.954597
0.954171
0.953895
0.953798
0.953812
0.953901
0.954093
0.954213
0.954272
0.954448
0.954938
0.955359
0.955563
0.955964
0.956311
0.956477
0.957021
0.957972
0.9585
0.959396
0.961074
0.9654
0.980566
1.01764
1.05721
1.06941
1.07066
1.07095
1.07084
1.07032
1.06975
1.06937
1.06886
1.06829
1.0678
1.06733
1.06677
1.06605
1.06524
1.06458
1.06388
1.06308
1.06225
1.06141
1.06059
1.05977
1.05895
1.05811
1.05723
1.05633
1.05546
1.0546
1.05375
1.0529
1.05205
1.0512
1.05039
1.0496
1.04874
1.04787
1.04704
1.04624
1.04544
1.04464
1.04385
1.04306
1.04227
1.04148
1.04067
1.03988
1.03911
1.03836
1.03762
1.03683
1.03603
1.03515
1.03435
1.03357
1.03305
1.03243
1.00292
1.00205
1.00133
1.00059
0.999667
0.998516
0.997377
0.996449
0.995575
0.99457
0.993334
0.991966
0.990848
0.989999
0.989159
0.988202
0.987195
0.986199
0.985161
0.984156
0.98334
0.982672
0.982046
0.981359
0.98052
0.97951
0.978409
0.977397
0.976632
0.976009
0.975353
0.974564
0.973662
0.972712
0.971685
0.970562
0.969453
0.968714
0.968308
0.967954
0.967556
0.967028
0.966317
0.965439
0.964467
0.963474
0.962476
0.961447
0.96041
0.959412
0.958463
0.957589
0.956834
0.956218
0.955692
0.95519
0.954661
0.954387
0.954308
0.954275
0.954348
0.954673
0.955296
0.955822
0.955937
0.95592
0.95623
0.956411
0.956589
0.957318
0.958008
0.958584
0.959739
0.962374
0.971565
0.999312
1.04338
1.06817
1.07105
1.07098
1.07048
1.0698
1.06939
1.06903
1.06852
1.06803
1.06765
1.06722
1.06664
1.06585
1.06506
1.06441
1.06368
1.06288
1.06207
1.06126
1.06045
1.05961
1.05874
1.05785
1.05691
1.05597
1.05512
1.0543
1.05348
1.05267
1.05182
1.05094
1.05011
1.04929
1.04843
1.04753
1.0466
1.04572
1.0449
1.04413
1.04341
1.0427
1.04196
1.04119
1.04038
1.03956
1.03874
1.03793
1.03712
1.03633
1.03561
1.03485
1.03418
1.03352
1.03305
1.03265
1.00477
1.00381
1.00278
1.00155
1.00022
0.999118
0.998341
0.997649
0.996887
0.995945
0.994772
0.993454
0.992181
0.991019
0.989963
0.989099
0.988399
0.987709
0.986906
0.986024
0.985189
0.984397
0.983566
0.982656
0.981706
0.980782
0.979907
0.979064
0.978216
0.977303
0.976299
0.975291
0.974414
0.973664
0.972924
0.972125
0.971374
0.970813
0.970305
0.969734
0.969068
0.96827
0.967327
0.966287
0.965243
0.964274
0.963402
0.96262
0.961931
0.961282
0.960605
0.95986
0.959074
0.958295
0.957514
0.956639
0.955765
0.955441
0.955374
0.955365
0.955582
0.955906
0.956024
0.955972
0.955848
0.955752
0.955913
0.956422
0.956624
0.957048
0.957861
0.958186
0.958791
0.960428
0.965834
0.984543
1.02525
1.06316
1.07076
1.0706
1.07009
1.06987
1.06968
1.06927
1.06876
1.06825
1.06771
1.06698
1.06615
1.0655
1.06495
1.06437
1.06366
1.06291
1.06215
1.06138
1.06056
1.05966
1.05871
1.05774
1.05671
1.05575
1.05491
1.05408
1.05327
1.05247
1.05162
1.05076
1.04993
1.04906
1.04818
1.04731
1.04644
1.0456
1.04477
1.04391
1.04304
1.04222
1.04146
1.04072
1.03997
1.03924
1.03846
1.03762
1.03671
1.03589
1.03517
1.03451
1.03406
1.03361
1.03337
1.03339
1.00609
1.00526
1.0043
1.00315
1.00198
1.00098
1.00009
0.999083
0.997854
0.996483
0.99532
0.994514
0.993815
0.992979
0.99198
0.990911
0.989831
0.988798
0.987916
0.987222
0.986595
0.985922
0.985118
0.984144
0.983069
0.982037
0.981139
0.98035
0.979616
0.978867
0.978038
0.97713
0.976134
0.975104
0.974211
0.97349
0.972899
0.972388
0.971874
0.971286
0.970534
0.969551
0.968463
0.967442
0.966582
0.965875
0.965253
0.964685
0.964138
0.963556
0.962889
0.962064
0.96107
0.959948
0.958632
0.95728
0.956617
0.95643
0.956392
0.956522
0.956785
0.956855
0.956784
0.956513
0.956436
0.956431
0.9565
0.957009
0.957169
0.95727
0.957776
0.958035
0.958276
0.959243
0.962283
0.973812
1.00654
1.05166
1.06952
1.07043
1.07053
1.07057
1.0703
1.06981
1.06926
1.06865
1.0679
1.06697
1.0662
1.06559
1.06494
1.06427
1.06356
1.06281
1.0621
1.06139
1.06061
1.05972
1.05874
1.05775
1.05676
1.05587
1.05505
1.05421
1.05336
1.05249
1.05158
1.05069
1.04982
1.04889
1.04797
1.04709
1.04624
1.04541
1.04457
1.04372
1.04292
1.04219
1.04144
1.04064
1.03977
1.0389
1.038
1.03716
1.0363
1.03558
1.03491
1.03429
1.03395
1.03377
1.03384
1.03434
1.00774
1.00642
1.00501
1.00387
1.00313
1.0025
1.00182
1.00091
0.999696
0.998404
0.997184
0.99587
0.994671
0.993939
0.99331
0.992595
0.991788
0.990951
0.990116
0.989259
0.988341
0.98732
0.986239
0.985222
0.984308
0.983473
0.982671
0.981817
0.98084
0.97981
0.978941
0.978205
0.977441
0.976728
0.976167
0.975637
0.975051
0.974352
0.973485
0.972408
0.971124
0.969852
0.968975
0.968419
0.967963
0.967549
0.967137
0.966676
0.966114
0.96541
0.964542
0.963539
0.962471
0.961413
0.960358
0.959476
0.958928
0.958561
0.958291
0.95798
0.957506
0.956899
0.956615
0.956597
0.956783
0.957071
0.957201
0.95757
0.957764
0.957635
0.957789
0.958021
0.958062
0.958588
0.960385
0.967004
0.990128
1.03467
1.06568
1.0709
1.07135
1.0713
1.07092
1.07031
1.06962
1.06885
1.06793
1.06705
1.0665
1.06591
1.06521
1.06451
1.0638
1.06306
1.06231
1.06154
1.06069
1.05977
1.05882
1.05785
1.0569
1.05597
1.05506
1.05418
1.05331
1.05246
1.0516
1.05077
1.04993
1.04902
1.04809
1.04717
1.04624
1.04532
1.04444
1.04361
1.04284
1.04208
1.04128
1.04045
1.03958
1.03871
1.0378
1.03695
1.03606
1.03534
1.03466
1.03433
1.03436
1.03453
1.03492
1.03591
1.0095
1.00827
1.00707
1.00607
1.00513
1.00405
1.00276
1.00149
1.00051
0.999739
0.998984
0.998066
0.996988
0.995901
0.994841
0.99381
0.992921
0.992196
0.991526
0.990816
0.989966
0.988908
0.987715
0.986607
0.985695
0.984925
0.984217
0.983491
0.982694
0.981837
0.980975
0.980119
0.979269
0.978469
0.977668
0.976818
0.975994
0.975301
0.974615
0.973687
0.972465
0.97148
0.970984
0.970504
0.969904
0.969253
0.96867
0.968137
0.967537
0.966745
0.965687
0.964568
0.963621
0.962798
0.962081
0.961509
0.960996
0.960505
0.959996
0.959373
0.958539
0.957736
0.957411
0.957367
0.957483
0.957595
0.9577
0.957887
0.957882
0.957721
0.957818
0.958224
0.958334
0.958637
0.959694
0.963292
0.977554
1.01519
1.05747
1.07121
1.07204
1.07194
1.07152
1.0708
1.06998
1.06907
1.06807
1.06744
1.06694
1.06631
1.06561
1.06491
1.06419
1.0634
1.06258
1.06173
1.06084
1.05994
1.05905
1.05816
1.05726
1.05631
1.05533
1.05437
1.05342
1.05251
1.05164
1.05081
1.04997
1.04909
1.04821
1.04728
1.04631
1.04535
1.04445
1.04359
1.04277
1.04194
1.04113
1.04033
1.03953
1.03869
1.03779
1.03689
1.03601
1.03543
1.03493
1.03491
1.03504
1.03544
1.03616
1.03788
1.01038
1.00943
1.00866
1.00793
1.0071
1.00603
1.00473
1.00345
1.00234
1.00128
1.0002
0.999212
0.998412
0.997668
0.996846
0.995964
0.995119
0.994269
0.993317
0.992217
0.99103
0.98992
0.988988
0.988188
0.987419
0.986596
0.985672
0.984696
0.983765
0.982984
0.982402
0.981887
0.981313
0.980618
0.979772
0.97877
0.977621
0.976368
0.97526
0.974468
0.973887
0.973534
0.973189
0.972746
0.972151
0.971378
0.970481
0.969569
0.968606
0.967481
0.966418
0.965783
0.965338
0.964859
0.964313
0.963715
0.96304
0.962239
0.961244
0.96007
0.959192
0.958926
0.958831
0.958804
0.958779
0.958688
0.958526
0.95824
0.957972
0.957853
0.957882
0.958172
0.958489
0.958915
0.959677
0.961522
0.969461
0.996601
1.04278
1.07034
1.07282
1.07269
1.07225
1.07142
1.07046
1.06951
1.06873
1.06819
1.0676
1.06688
1.06614
1.06539
1.06463
1.06384
1.06305
1.06223
1.06137
1.06045
1.05947
1.05845
1.05744
1.05644
1.05547
1.05455
1.05368
1.05281
1.05194
1.05105
1.05014
1.04925
1.04838
1.04749
1.04655
1.04562
1.0447
1.04376
1.04281
1.04182
1.04088
1.03999
1.03922
1.03849
1.03778
1.03705
1.03638
1.03595
1.03584
1.03612
1.03655
1.03742
1.03846
1.04063
1.01267
1.01166
1.01063
1.00949
1.00824
1.00704
1.00603
1.00512
1.00418
1.00319
1.00221
1.00123
1.00017
0.999123
0.998233
0.997453
0.996687
0.995872
0.994948
0.993878
0.992732
0.991643
0.990691
0.989904
0.98921
0.988481
0.987643
0.986769
0.985954
0.985154
0.984322
0.983469
0.982568
0.981618
0.980706
0.979881
0.97904
0.978105
0.977208
0.976496
0.97596
0.975431
0.974836
0.97421
0.973568
0.9729
0.97214
0.971208
0.970084
0.968835
0.968032
0.967675
0.967313
0.966848
0.966269
0.965565
0.964704
0.963677
0.962404
0.96119
0.960684
0.960392
0.960193
0.960076
0.959935
0.959753
0.959407
0.958903
0.958548
0.958448
0.958549
0.958971
0.959314
0.95934
0.959598
0.960584
0.964569
0.981686
1.02304
1.06457
1.07339
1.07353
1.0732
1.07242
1.07145
1.07058
1.0699
1.06926
1.06859
1.06785
1.06707
1.06625
1.06535
1.06441
1.06348
1.06261
1.06177
1.06089
1.05992
1.05889
1.05785
1.05683
1.05585
1.05498
1.05418
1.05335
1.0525
1.05159
1.05062
1.04962
1.04861
1.04759
1.04659
1.04567
1.04476
1.04382
1.04286
1.04192
1.04101
1.04011
1.03924
1.0384
1.03759
1.03691
1.03683
1.03695
1.03739
1.03792
1.03853
1.0397
1.04097
1.04398
1.01474
1.01368
1.0125
1.01126
1.01007
1.009
1.00803
1.00706
1.00605
1.005
1.00398
1.003
1.00205
1.00117
1.00035
0.999526
0.998609
0.997565
0.996427
0.995303
0.994296
0.993406
0.992559
0.991701
0.99083
0.989956
0.989094
0.988332
0.987657
0.986954
0.986186
0.985381
0.984514
0.983532
0.982373
0.981195
0.980381
0.979825
0.97933
0.978852
0.978366
0.977807
0.977141
0.976344
0.975359
0.97419
0.972999
0.971968
0.971147
0.970485
0.970047
0.969693
0.969307
0.96883
0.968225
0.96745
0.966459
0.965303
0.964127
0.963324
0.962811
0.962337
0.961882
0.961397
0.960727
0.959822
0.959192
0.959035
0.95898
0.959025
0.959337
0.95977
0.959857
0.959711
0.959812
0.960342
0.962358
0.971865
1.0031
1.05062
1.07329
1.07441
1.07414
1.07354
1.07272
1.07191
1.07118
1.07044
1.06969
1.06891
1.06813
1.06733
1.06643
1.06546
1.06447
1.06348
1.06246
1.06141
1.06031
1.05925
1.05826
1.05731
1.05641
1.05558
1.0547
1.05385
1.05307
1.05221
1.05127
1.05027
1.04923
1.04816
1.04708
1.04601
1.04493
1.04383
1.04278
1.04183
1.04096
1.04011
1.03932
1.03864
1.03808
1.03773
1.03779
1.038
1.03846
1.0394
1.041
1.04287
1.04502
1.04894
1.01659
1.01549
1.0143
1.01305
1.01177
1.0106
1.00966
1.00885
1.008
1.0071
1.00615
1.00513
1.00406
1.00303
1.00209
1.0012
1.00028
0.999291
0.99828
0.997301
0.996385
0.995509
0.99464
0.993767
0.992907
0.992071
0.991253
0.990446
0.989596
0.98863
0.987519
0.986405
0.985501
0.984688
0.983784
0.982912
0.982256
0.981682
0.981099
0.980528
0.980034
0.979576
0.979027
0.978251
0.977166
0.975907
0.974783
0.973899
0.973191
0.972623
0.972099
0.971511
0.970823
0.970029
0.969153
0.968284
0.967469
0.966678
0.96597
0.965407
0.964872
0.964294
0.963624
0.96286
0.961887
0.960799
0.960215
0.960077
0.96003
0.960173
0.96044
0.960454
0.960208
0.959855
0.959813
0.960086
0.961173
0.966108
0.986436
1.0312
1.06941
1.07571
1.07559
1.07514
1.07444
1.07357
1.07271
1.07187
1.07103
1.07014
1.0692
1.06828
1.06734
1.06638
1.06539
1.06435
1.06328
1.06215
1.06103
1.06
1.05908
1.05822
1.05739
1.05654
1.05558
1.05456
1.05357
1.05253
1.05152
1.05055
1.04958
1.04859
1.04755
1.04647
1.04539
1.04432
1.04328
1.04225
1.04121
1.04022
1.03935
1.03879
1.03868
1.03878
1.03919
1.03994
1.04095
1.04258
1.04486
1.04764
1.04996
1.05564
1.01828
1.01728
1.01628
1.01528
1.01423
1.01313
1.01202
1.01095
1.00985
1.00872
1.00767
1.00675
1.00591
1.0051
1.00423
1.00328
1.00221
1.00107
0.999929
0.998864
0.997913
0.997044
0.996206
0.995381
0.994587
0.993847
0.993112
0.99232
0.99144
0.990458
0.989393
0.98834
0.987398
0.986519
0.985657
0.98494
0.984367
0.983815
0.983229
0.982574
0.981834
0.981013
0.980105
0.979097
0.978057
0.977188
0.976519
0.9759
0.975284
0.974714
0.974138
0.973437
0.97258
0.971635
0.970709
0.969896
0.969211
0.968608
0.968033
0.967403
0.966627
0.965597
0.964302
0.963043
0.962113
0.961689
0.961483
0.961359
0.961353
0.961417
0.961324
0.961062
0.960725
0.960419
0.960465
0.960648
0.961155
0.963505
0.974798
1.00986
1.05715
1.07609
1.07711
1.07693
1.07634
1.07539
1.07439
1.07348
1.0726
1.07168
)
;

boundaryField
{
    inlet
    {
        type            fixedValue;
        value           nonuniform 0();
    }
    outlet
    {
        type            inletOutlet;
        inletValue      uniform 1;
        value           nonuniform List<scalar> 
18
(
1.03658
1.03599
1.03527
1.03459
1.03388
1.0333
1.0328
1.03249
1.03246
1.03268
1.03343
1.0344
1.03598
1.03796
1.04072
1.04408
1.04902
1.05573
)
;
    }
    bottom
    {
        type            symmetryPlane;
    }
    top
    {
        type            symmetryPlane;
    }
    obstacle
    {
        type            zeroGradient;
    }
    front
    {
        type            empty;
    }
    back
    {
        type            empty;
    }
    procBoundary47to39
    {
        type            processor;
        value           nonuniform List<scalar> 
133
(
0.955983
0.956743
0.958017
0.959474
0.961087
0.963788
0.966377
0.968786
0.972336
0.97523
0.976688
0.978372
0.979941
0.980052
0.980234
0.981393
0.98512
0.998065
1.03192
1.07213
1.08439
1.0848
1.08428
1.08315
1.08204
1.08127
1.08063
1.07998
1.0793
1.07854
1.07764
1.07664
1.07561
1.07458
1.07358
1.07261
1.07163
1.07065
1.06966
1.06867
1.06768
1.06662
1.06557
1.06466
1.06375
1.06284
1.06194
1.06103
1.06012
1.05924
1.05839
1.05755
1.05663
1.05586
1.05522
1.05457
1.05385
1.05314
1.0524
1.0516
1.05072
1.04977
1.0488
1.04787
1.04709
1.04641
1.04573
1.045
1.04423
1.04354
1.04293
1.04235
1.04169
1.04101
1.04034
1.03965
1.0389
1.03827
1.03722
0.992404
0.991127
0.989832
0.988629
0.987582
0.986674
0.985782
0.98477
0.983612
0.982425
0.981319
0.980251
0.979111
0.977894
0.976765
0.975817
0.9749
0.973832
0.9726
0.97135
0.970165
0.969076
0.968187
0.967541
0.966962
0.966254
0.965328
0.964301
0.963297
0.962292
0.961248
0.960265
0.959503
0.958936
0.958421
0.957826
0.957102
0.956301
0.955603
0.955027
0.954484
0.95407
0.953845
0.9537
0.953601
0.953501
0.953221
0.953084
0.953024
0.952921
0.95307
0.953483
0.953619
0.953619
)
;
    }
    procBoundary47to46
    {
        type            processor;
        value           nonuniform List<scalar> 
17
(
0.994952
0.99547
0.997288
0.998421
1.00014
1.00105
1.00232
1.0035
1.00409
1.00583
1.0069
1.00889
1.01053
1.01161
1.0138
1.01572
1.01757
)
;
    }
    procBoundary47to54
    {
        type            processor;
        value           uniform 1.01931;
    }
    procBoundary47to55
    {
        type            processor;
        value           nonuniform List<scalar> 
133
(
1.07072
1.06972
1.06866
1.06755
1.06638
1.06518
1.06404
1.06291
1.06183
1.06089
1.06003
1.05921
1.05839
1.05752
1.05659
1.05557
1.05449
1.05335
1.05222
1.05107
1.04987
1.04867
1.04753
1.04652
1.04561
1.04473
1.0438
1.04276
1.04167
1.04078
1.04011
1.03992
1.04002
1.04046
1.04136
1.04281
1.04502
1.04774
1.05054
1.05434
1.05897
1.06872
1.02034
1.01912
1.0179
1.01677
1.01577
1.01488
1.01404
1.01316
1.01214
1.01101
1.00989
1.00882
1.00777
1.00675
1.00582
1.00494
1.00405
1.0031
1.00209
1.00107
1.00008
0.999133
0.998207
0.997293
0.996391
0.99551
0.99461
0.993651
0.99264
0.991633
0.990698
0.989856
0.989073
0.988311
0.987578
0.986918
0.986316
0.985728
0.985113
0.984421
0.983609
0.982678
0.981689
0.980717
0.979879
0.979228
0.97862
0.977934
0.977115
0.976198
0.97528
0.974387
0.973515
0.97272
0.97206
0.971491
0.970956
0.970414
0.969828
0.969162
0.968305
0.967097
0.965666
0.964507
0.963824
0.96337
0.963031
0.962811
0.962599
0.962241
0.961655
0.961115
0.960809
0.960693
0.960769
0.961008
0.96126
0.962303
0.968026
0.99117
1.03823
1.07335
1.07875
1.07869
1.07823
1.07731
1.07618
1.07511
1.07408
1.07072
1.07307
)
;
    }
}


// ************************************************************************* //
