/*--------------------------------*- C++ -*----------------------------------*\
  =========                 |
  \\      /  F ield         | OpenFOAM: The Open Source CFD Toolbox
   \\    /   O peration     | Website:  https://openfoam.org
    \\  /    A nd           | Version:  7
     \\/     M anipulation  |
\*---------------------------------------------------------------------------*/
FoamFile
{
    version     2.0;
    format      ascii;
    class       volVectorField;
    location    "0.166";
    object      U;
}
// * * * * * * * * * * * * * * * * * * * * * * * * * * * * * * * * * * * * * //

dimensions      [0 1 -1 0 0 0 0];

internalField   nonuniform List<vector> 
12359
(
(0.982903 0.000464887 1.51605e-16)
(0.970551 -0.000387137 1.55524e-18)
(0.999968 3.75277e-06 5.44752e-19)
(0.9288 0.000173979 5.7411e-18)
(0.977032 -0.000345903 -1.61601e-16)
(0.87534 -0.000427508 -9.53114e-18)
(0.827921 -0.00112789 -2.29889e-16)
(0.850576 -0.00811326 -6.12924e-17)
(0.770431 0.0268014 8.83241e-17)
(0.889045 0.00203489 -8.94765e-19)
(0.803223 -0.00276258 6.94138e-17)
(0.732212 -0.0036333 1.16647e-16)
(0.22636 0.0220469 6.97401e-17)
(0.922604 -0.0021109 1.3832e-18)
(0.938655 0.000639731 1.15269e-17)
(0.508035 0.0315537 2.91989e-18)
(0.397729 0.0170751 2.41315e-17)
(0.994632 -1.37719e-05 -4.81689e-17)
(0.995063 -3.44282e-05 -2.54186e-17)
(0.956866 0.00191872 1.21663e-17)
(0.912716 -0.000789221 9.98288e-20)
(0.768758 0.0297194 9.00217e-17)
(0.963634 -0.000476855 -7.42159e-18)
(0.951526 -0.00506625 -4.69525e-17)
(0.967241 -0.00162401 -1.42466e-17)
(0.959708 0.00172624 -4.57374e-18)
(0.998248 -1.62724e-05 -7.66833e-20)
(0.998341 -6.59876e-05 -5.93478e-19)
(0.995825 -4.17714e-07 -1.18322e-18)
(0.997663 -0.000166787 -1.42494e-18)
(0.997187 7.61127e-05 -7.3978e-19)
(0.998955 -7.00389e-05 8.24965e-19)
(0.999522 5.49178e-06 -4.81858e-18)
(0.997903 2.05301e-05 5.16364e-19)
(0.999843 -6.05901e-06 -1.21538e-19)
(0.99701 8.52465e-05 -1.37795e-18)
(0.990211 0.000192023 -1.105e-17)
(0.984311 0.000778791 -1.07442e-16)
(0.981189 0.0015004 -6.4649e-17)
(0.986031 -0.000614409 4.1995e-17)
(0.973284 8.70798e-05 5.5087e-20)
(0.984712 0.000486607 8.29712e-17)
(0.991292 -4.05125e-05 1.02317e-16)
(0.992362 -0.000386108 4.89005e-17)
(0.996465 1.88642e-05 2.10619e-18)
(0.99613 -3.75017e-05 1.99242e-19)
(0.996828 -0.000201611 3.60365e-18)
(0.997457 -1.57659e-05 -1.75136e-18)
(0.995461 -1.53578e-05 -6.0623e-18)
(0.998149 3.9169e-05 8.61242e-20)
(0.998554 -8.29282e-05 1.90591e-19)
(0.998762 2.54169e-05 4.11782e-19)
(0.999174 -1.90796e-06 4.13149e-19)
(0.994192 3.2383e-05 1.5473e-17)
(0.999099 -0.00010204 -4.75135e-18)
(0.999508 6.42684e-05 -3.46993e-18)
(0.993348 -4.8728e-05 7.79364e-18)
(0.999597 8.97378e-06 2.0719e-18)
(0.999632 8.33971e-06 -1.30939e-17)
(0.999724 1.14228e-05 -1.12882e-16)
(0.999429 -1.73165e-05 1.10011e-18)
(0.9999 -1.35315e-05 3.59562e-17)
(0.998626 7.34921e-06 2.04957e-19)
(0.180358 0.149986 -1.66994e-16)
(0.993799 8.22813e-05 2.21593e-17)
(0.90033 0.00117846 -5.15062e-20)
(0.989493 0.000189745 3.81214e-18)
(0.998882 6.7101e-05 1.10764e-18)
(0.988786 -0.00041555 4.55936e-18)
(0.618667 0.0151563 2.19188e-17)
(-0.0999921 -0.163176 8.93957e-17)
(0.973905 -0.0013825 -9.08704e-17)
(0.999989 -7.93623e-06 -1.28819e-19)
(0.986915 -0.000778324 4.32536e-17)
(0.943113 -0.00203329 2.01007e-17)
(0.99988 -1.43113e-05 4.94191e-17)
(0.999168 3.78171e-05 -2.79412e-18)
(1.00001 -2.26759e-05 6.11295e-18)
(0.990191 0.00027137 -6.84906e-17)
(0.594744 0.00270431 -2.06122e-17)
(0.928486 0.0606448 -4.50971e-17)
(1.00337 0.00237653 2.56578e-17)
(1.00002 -4.33868e-06 1.02933e-17)
(0.99875 0.0114998 2.43577e-17)
(1.10462 0.125555 -1.8491e-18)
(1.02001 0.00217853 2.1662e-19)
(1.00343 0.00243329 -2.68095e-17)
(1.00135 -1.18095e-05 1.01557e-18)
(1.10222 0.0479942 6.86056e-18)
(1.09702 0.138107 -5.6028e-18)
(1 6.38809e-05 1.8351e-17)
(0.355054 0.328713 -8.48649e-17)
(0.999974 -4.65126e-05 -3.77016e-17)
(0.999099 0.00549968 -6.81752e-19)
(0.99979 0.0110956 -2.86344e-17)
(1.02952 -0.00208809 4.18906e-20)
(1.00032 0.00463226 -1.47655e-17)
(0.999434 0.00523641 -8.97484e-18)
(0.990377 0.0261538 1.80584e-17)
(0.994846 0.0191099 3.13482e-17)
(0.93774 0.0879902 -3.90521e-17)
(0.999995 1.88152e-05 -4.38834e-19)
(1.01886 -0.000133502 -4.67856e-20)
(1.13477 0.0272136 -6.77245e-17)
(1.0042 0.000722655 1.05005e-17)
(1.03201 0.0187867 -1.12001e-17)
(1.0003 -3.27737e-05 -1.09557e-17)
(1.10305 0.124826 4.91753e-18)
(1.01962 -0.000263785 -2.43343e-19)
(1.03159 0.0170469 5.84911e-18)
(1.00011 0.00480153 -1.42352e-17)
(1.00272 0.00202899 -1.25731e-17)
(0.943017 0.0405836 -5.96001e-17)
(0.952813 0.0636085 1.84503e-20)
(0.998686 0.00890618 -4.36576e-17)
(1.00253 -5.39242e-05 7.30471e-19)
(0.964479 0.0773876 1.76711e-18)
(1.00416 0.00203385 -6.47304e-18)
(1.10543 0.0345353 3.43443e-18)
(0.999993 1.40305e-05 -3.19628e-19)
(0.999842 0.00454437 -2.81316e-17)
(0.861746 0.0226461 3.53022e-16)
(1.00174 1.65038e-05 3.33671e-18)
(1.03312 0.00274502 -4.43452e-18)
(1.00436 0.00183656 3.13574e-18)
(1.00296 0.000735003 -1.5263e-19)
(1.01063 0.0965353 -1.55045e-17)
(0.998775 0.0115397 -9.90256e-18)
(0.999983 1.28805e-05 -2.00354e-17)
(1.00428 0.00260325 2.39443e-17)
(1.00271 0.000442851 5.67131e-18)
(1.056 0.00832775 5.12429e-19)
(1.05486 0.0160307 5.37793e-18)
(1.05759 0.0071372 -4.4102e-19)
(1.00033 9.0216e-05 1.49689e-20)
(1.03232 0.00476186 7.25567e-18)
(1.00261 -0.00015233 6.61294e-19)
(1.03388 0.00474595 -4.33541e-18)
(1.00001 3.05036e-05 -8.20139e-17)
(1.01238 0.0815949 2.61739e-17)
(0.999983 2.44496e-05 1.04681e-17)
(0.984056 0.00199894 -1.14505e-16)
(1.02905 0.0108299 -8.67201e-18)
(1.00031 3.20586e-05 8.22427e-20)
(1.03924 0.0329663 8.7705e-18)
(0.906263 0.0205024 -7.453e-17)
(1.00001 1.75587e-05 -1.07462e-17)
(1.09278 0.105703 -1.9209e-17)
(1.00449 0.00133701 6.42958e-18)
(0.916465 0.0566577 1.19585e-16)
(1.02915 -0.00189915 -1.67337e-18)
(0.999993 2.37136e-05 5.82826e-17)
(1.02922 0.0122735 5.40493e-18)
(1.0016 0.000528665 -8.11449e-18)
(0.999998 -3.8568e-06 6.22163e-19)
(0.589974 1.33736 2.99245e-16)
(0.938268 0.0800875 1.01661e-16)
(1.05117 0.0123299 -4.61597e-19)
(0.999917 0.00479145 2.9567e-17)
(0.999004 0.000521172 1.23781e-18)
(1.00183 0.0447024 -4.06687e-17)
(0.998983 0.000540659 1.1136e-18)
(1.03349 0.00362882 1.21678e-18)
(1.03133 0.00917329 3.73409e-18)
(1.0001 5.19079e-05 -2.17356e-18)
(1.00274 0.00031192 -6.19341e-18)
(1.0004 0.0426024 -7.67301e-17)
(0.862678 0.0140748 2.70737e-16)
(1.03014 0.00841243 -8.16264e-18)
(1.11418 0.0481775 -3.96879e-18)
(0.99994 2.76372e-05 -1.42124e-16)
(0.999911 4.13931e-05 3.35042e-16)
(1.02911 0.0066442 -5.9635e-18)
(0.972203 0.00215215 -7.18422e-17)
(1.00425 0.00047759 3.30784e-18)
(1.00483 0.0840951 3.61491e-17)
(0.996119 0.000345431 -5.65794e-18)
(0.996699 0.000912301 4.87462e-18)
(0.933309 0.0421442 -1.80458e-17)
(1.00563 0.0876201 -1.89819e-17)
(0.938972 0.0107567 1.89366e-17)
(1.00001 -1.11978e-05 -3.75053e-18)
(0.99997 3.1449e-05 3.30303e-17)
(1.00375 0.00246612 -1.22409e-18)
(0.991955 0.0269709 -4.66179e-17)
(0.833475 0.0935153 -6.8052e-17)
(1.00448 0.00474986 -1.88136e-17)
(1.00048 0.00974136 -3.34034e-17)
(1.03463 0.00100124 -5.15075e-19)
(1.00425 0.0050274 1.2135e-17)
(0.999436 0.00997435 -3.44501e-17)
(1.03236 3.51388e-05 2.85729e-19)
(1.02821 0.00193632 -3.96424e-18)
(1.00153 -4.49696e-05 1.91295e-18)
(1.03125 0.0156014 5.18848e-18)
(1.14557 0.014474 1.16322e-16)
(1.0142 0.011005 5.88096e-19)
(1.00332 0.00552544 1.27855e-17)
(1.02926 0.0116744 -2.25842e-18)
(1.00409 0.00219158 4.1559e-18)
(0.890642 0.0341155 -9.0384e-17)
(1.03264 -0.000774464 2.77283e-19)
(0.993037 0.0176313 -5.37296e-19)
(1.03356 0.0186651 -7.96921e-18)
(1.0364 0.031354 3.00428e-18)
(1.00001 -1.19504e-05 4.17717e-18)
(1.03738 0.0326751 5.00091e-18)
(0.992802 0.0170954 4.23217e-17)
(1.03625 0.00272086 2.24587e-18)
(1.00525 0.0033187 2.55616e-17)
(1.00002 1.96088e-05 -5.33299e-18)
(1.04414 0.00323922 -3.47515e-18)
(1.04516 0.00900758 1.28046e-18)
(1.17405 0.0881115 1.23058e-17)
(0.846251 0.0896449 3.42886e-17)
(0.999974 0.00013469 1.15842e-17)
(1.00369 0.00528972 -7.7681e-18)
(0.999875 0.00990402 -5.82053e-17)
(1.00388 0.00569952 1.43997e-18)
(0.982256 0.00139183 1.28207e-16)
(0.949649 0.0569289 -2.06183e-16)
(1.00474 0.00275263 2.13488e-17)
(1.03304 0.00277561 -2.89912e-18)
(0.239715 0.27811 4.31453e-17)
(1.00413 0.00166753 -2.70339e-17)
(1.00002 2.46386e-05 -2.81159e-18)
(0.982522 0.00207452 5.35417e-16)
(1.016 -0.00201376 -8.17556e-19)
(1.00225 0.0824187 -4.70612e-17)
(1.0029 0.00569056 -8.15605e-18)
(1.00281 0.00564671 9.73668e-18)
(1.00008 4.77019e-05 -9.05413e-19)
(1.03806 0.0347713 -2.66134e-18)
(0.993056 0.0227282 -6.73529e-17)
(1.00104 0.00967516 1.42438e-17)
(0.99395 0.0203155 1.09621e-17)
(1 8.56783e-06 1.17834e-19)
(1.02997 0.0131814 1.60596e-18)
(1.00064 0.00963791 -4.07686e-18)
(0.701297 0.175416 6.25094e-17)
(1.00018 2.60062e-05 -3.62021e-19)
(1.0218 8.98261e-05 6.39598e-19)
(0.999846 0.00664796 1.43432e-17)
(1.00091 0.144512 -8.62615e-18)
(1.00256 0.0482299 3.17536e-17)
(1.09874 0.106941 -5.11711e-18)
(0.999746 7.76657e-05 2.39397e-17)
(1.03607 0.00382445 5.84647e-19)
(1.00331 2.73714e-05 1.11031e-17)
(1.03249 0.00158382 -5.10264e-18)
(1.04005 0.00695836 1.25461e-18)
(0.986995 3.60156e-05 -5.1127e-17)
(0.996995 0.000435761 4.24019e-17)
(1.00217 0.00552878 1.44305e-18)
(0.588684 0.430088 4.89895e-16)
(1.25087 0.0542284 1.1519e-16)
(0.999994 -7.02038e-06 3.00821e-19)
(1.00508 0.0025225 4.37474e-18)
(0.467685 0.356961 5.50982e-16)
(0.994562 0.00946288 -6.70634e-17)
(0.995025 0.0166611 7.9301e-18)
(1.00424 0.0419929 9.03907e-19)
(1.00343 0.072733 -7.49979e-17)
(1.03256 0.0154414 1.09017e-17)
(0.975157 0.000413782 9.4603e-17)
(1.46113 0.2566 3.51665e-18)
(1.10554 0.0335291 8.24013e-18)
(1.00442 0.0491934 1.57671e-17)
(1.00482 0.00223916 4.16635e-18)
(1.03164 0.00447132 -1.06425e-18)
(1.03016 0.00828032 5.09335e-18)
(0.988531 0.0254358 3.61331e-17)
(1.02965 0.0103424 -7.07184e-18)
(1.0021 0.00621102 -5.16516e-19)
(1.00548 0.00270803 -6.28857e-18)
(1.00013 5.92097e-05 -1.07684e-18)
(1.00521 0.0026921 -2.39838e-18)
(1.15821 0.0561445 1.67997e-17)
(1.00692 0.0449661 2.8974e-17)
(1.00048 0.000166995 -2.27694e-19)
(1 2.64701e-05 -2.9304e-17)
(1.03336 0.0149342 9.44102e-18)
(1.00797 0.00128812 1.21846e-17)
(0.991892 0.000602072 8.544e-17)
(1.02074 -0.000407007 -1.75991e-19)
(1.00003 4.07385e-06 6.27504e-19)
(1.00274 0.0700399 -2.4183e-17)
(1.00002 1.61386e-05 -2.00016e-17)
(0.999987 8.58923e-06 1.8203e-17)
(0.999219 6.51211e-05 1.25841e-17)
(1.03286 0.00187624 1.06626e-18)
(1.00366 0.00195453 -3.97308e-18)
(1.42695 0.424424 6.52889e-17)
(1.00032 3.80657e-05 4.99737e-18)
(1.00037 3.13205e-05 1.84212e-17)
(1.02007 0.00161151 -9.93361e-19)
(1.00345 0.000549047 8.39136e-18)
(0.947254 0.0699294 1.18756e-16)
(0.999298 0.00885658 1.96614e-17)
(0.998806 0.000213949 -5.55278e-17)
(0.999967 -2.02949e-05 -1.22426e-17)
(1.13511 0.0501551 1.07941e-17)
(1.00058 0.0730122 -9.40362e-18)
(0.999985 4.35253e-05 1.76013e-17)
(1.00349 0.00537757 5.30099e-18)
(0.999319 0.00789297 -9.50168e-18)
(1.00391 0.00129906 1.07225e-17)
(1.00273 9.86077e-05 -9.86491e-19)
(1.00269 0.000406652 -4.54104e-19)
(1.004 0.000732795 9.86952e-19)
(0.995908 0.000982211 1.97101e-16)
(0.827387 0.0655358 -1.43683e-16)
(1.00388 -0.0004401 -1.2036e-18)
(0.99757 2.58062e-05 -4.18615e-17)
(0.985712 0.000716676 -3.38613e-16)
(1.02445 0.0239297 1.4496e-17)
(1.09167 0.03211 -4.30394e-18)
(1.00524 -0.000176555 -7.87485e-18)
(0.99085 0.0236093 2.44943e-17)
(0.608836 0.101146 -4.38742e-16)
(1 -2.18383e-05 1.62802e-17)
(1.02519 0.0101886 1.48237e-18)
(1.00058 5.96615e-05 1.52462e-18)
(1.01351 0.011825 9.12407e-19)
(1.00039 3.87183e-05 -1.8968e-19)
(1.00456 -0.000363745 -1.96376e-18)
(0.823748 0.0411859 5.21657e-16)
(1.02612 0.0121593 -4.68231e-18)
(0.842826 0.0836612 -3.92386e-16)
(0.991328 0.000730202 -1.96152e-17)
(1.00067 0.00721425 -2.28453e-17)
(1.03035 0.000964656 1.39291e-18)
(1.03466 -0.00155962 -1.10237e-18)
(1.00039 0.00709573 -7.05383e-18)
(1.02935 -0.000583776 1.13272e-18)
(1.03019 0.00334202 -1.68637e-19)
(1.00075 0.000135081 -1.71769e-18)
(0.999317 0.000478032 -2.62131e-17)
(0.999272 0.000492363 -3.91583e-18)
(0.999265 0.000471701 5.77811e-17)
(0.999255 0.000466518 -2.6952e-17)
(0.598972 0.352571 -1.01235e-18)
(1.00001 3.2936e-05 -9.09202e-19)
(0.940769 0.0759637 -1.2107e-16)
(1.03453 0.00087742 -7.07678e-19)
(0.994002 0.0238325 1.23029e-17)
(1.03 0.0105835 -2.13403e-18)
(1.02777 0.0137693 9.14326e-19)
(1.01858 0.00133951 -2.85654e-20)
(1.01237 0.0112699 -1.99153e-18)
(1.02673 0.0123234 3.31054e-18)
(1.01232 0.0107338 4.70722e-19)
(0.992036 0.0267824 2.09646e-17)
(1.02672 0.0247796 -3.8607e-18)
(1.02575 0.0278053 3.5702e-18)
(0.95636 0.049954 -1.08482e-16)
(0.980978 0.00208326 -3.75916e-16)
(1.03341 0.0715928 1.66449e-18)
(0.982854 0.0013053 -2.15602e-16)
(0.985569 0.00122803 3.70383e-16)
(1.02837 0.0133858 -4.95132e-18)
(0.943004 0.0988815 -1.37415e-17)
(1.00257 0.00267503 -6.49453e-18)
(0.999234 -8.89943e-06 -1.39097e-17)
(1.01482 0.0100095 -9.90052e-19)
(0.999372 9.31366e-05 -3.06787e-17)
(1.00288 0.00243927 -3.05391e-18)
(0.99911 -0.0500476 5.44434e-17)
(0.300492 0.273547 8.76341e-17)
(1.00323 0.00283522 -9.36172e-18)
(0.999985 -8.71787e-07 9.77246e-18)
(1.00029 3.41946e-05 -3.86943e-20)
(0.999984 1.59495e-05 4.98937e-18)
(1.0265 0.0109068 -3.39805e-18)
(1.00002 5.07805e-05 -1.16542e-18)
(0.999999 3.2356e-05 -9.32867e-19)
(1.11701 0.0439773 3.64886e-18)
(1.02961 0.00792524 1.05144e-18)
(1.09334 0.153451 2.88493e-18)
(1.00116 0.00273186 -4.2944e-18)
(1.03288 0.010781 -4.10235e-18)
(1.00705 0.000673486 -1.50585e-17)
(1.00029 0.00855985 -5.03561e-18)
(1.03097 0.0257668 -1.69266e-17)
(1.0154 0.00986133 1.05839e-18)
(0.938172 6.30509e-05 5.87078e-17)
(1.01492 0.00879492 3.47068e-18)
(1.00285 0.00229879 -3.38576e-18)
(1.00051 0.000161954 -4.04955e-18)
(1.03013 0.00700012 1.25991e-17)
(1.03401 0.00868697 -6.46874e-20)
(1.0048 0.000680091 2.74182e-17)
(0.719953 0.0273494 1.24237e-15)
(1.0334 0.0248574 -1.02292e-17)
(1.03149 -0.00145727 1.83932e-19)
(0.998407 0.0330212 -1.50542e-17)
(1.00265 0.0385883 -1.14093e-17)
(0.999988 0.00013175 1.86865e-18)
(0.325707 0.471231 -1.05007e-15)
(1.03665 0.0746034 1.31205e-18)
(1.00109 0.00370413 -1.6272e-18)
(0.978242 0.181704 2.49408e-17)
(0.984586 0.00168364 6.54025e-16)
(0.999986 1.41542e-05 -1.29928e-17)
(0.999994 -3.29875e-06 -2.97531e-18)
(0.999974 3.66519e-06 -1.06614e-17)
(1.10494 0.157873 7.81371e-18)
(0.947266 0.0932828 1.64763e-18)
(0.990968 0.0267551 -4.64383e-17)
(1.0259 0.008769 5.98343e-18)
(1.03802 -0.000269491 1.46633e-18)
(1.00008 0.010342 2.71605e-17)
(0.929641 0.00235737 8.8429e-17)
(0.997901 0.0327165 -1.13461e-17)
(1.04742 0.00721272 4.90524e-18)
(1.0966 0.0314106 -2.17256e-18)
(0.726281 0.0545539 3.27415e-16)
(0.995583 0.0252161 -2.15678e-17)
(0.960238 0.0484392 -1.38947e-17)
(1.0168 0.00166565 -8.19233e-20)
(1.02633 0.0337496 4.75175e-18)
(1.01173 0.0112259 -5.43974e-18)
(1.01551 0.0106813 2.32807e-19)
(0.998104 -3.22857e-05 -8.05507e-17)
(1.01156 0.0104257 -1.56271e-19)
(1.02887 0.0105218 -2.07719e-17)
(0.999975 4.01242e-06 1.26564e-18)
(1.09145 -0.00231258 3.9715e-17)
(0.991125 0.000886 2.36255e-16)
(1.06703 0.00688893 -6.4272e-18)
(1.03174 0.00479692 -9.99436e-19)
(0.993676 0.00111141 -7.48211e-17)
(0.954053 0.0529882 -7.15151e-17)
(1.17951 0.211385 3.75851e-18)
(1.02644 0.0122897 4.03587e-18)
(1.00811 0.0145858 9.06535e-18)
(1.03513 -0.00194981 4.27014e-19)
(1.03516 0.00685167 -4.59176e-18)
(1.02755 0.0264478 -2.25085e-18)
(1.00412 0.00243137 -6.15351e-19)
(1.00002 5.91128e-06 1.73313e-17)
(1.00184 0.0661243 -7.06714e-18)
(1.0004 0.000134101 1.37371e-19)
(1.05274 0.0138419 2.11805e-19)
(1.00246 0.00021587 1.88028e-17)
(0.965319 0.00176386 -7.07396e-17)
(0.962919 0.037938 -2.74311e-17)
(1.01112 0.000284623 -1.15006e-18)
(1.09952 0.0991228 -2.9998e-17)
(0.945453 0.0714849 -3.94422e-17)
(0.994414 0.0170731 2.26778e-17)
(1.00103 0.00363556 -1.9784e-18)
(0.536303 0.0661148 -4.55366e-16)
(1.00066 -1.91934e-05 -3.72163e-18)
(1.00109 0.00292832 2.77907e-18)
(1.0425 0.0367261 2.13418e-18)
(0.999991 -2.38716e-05 -5.1703e-18)
(1.00095 0.00394383 1.1868e-18)
(1.00129 0.00267629 -9.90603e-18)
(0.802086 0.196918 6.63366e-17)
(0.662154 0.480991 3.92696e-17)
(0.997969 0.0107666 -2.94908e-17)
(1.0013 -0.000264485 -8.36919e-20)
(0.940448 0.0333651 -2.90267e-16)
(0.998253 0.0424035 4.0934e-17)
(1.02571 0.00947555 -4.12045e-18)
(1.02798 0.0120044 -3.25034e-19)
(1.02936 0.00884735 1.46736e-18)
(1.00083 -0.00010211 1.98996e-17)
(0.999986 4.4093e-05 -5.18397e-18)
(1.0011 0.0339153 6.19379e-19)
(1.00002 -5.21782e-05 -2.18235e-18)
(0.96716 0.0392657 7.13801e-17)
(1.02519 0.00957699 1.88382e-18)
(1.02591 0.031602 1.65435e-18)
(0.996764 0.000611994 -2.34505e-17)
(0.994845 0.0656111 7.06794e-17)
(1.04492 0.03377 -1.65178e-17)
(0.997812 0.000347733 -3.79948e-16)
(1.00136 0.0110152 5.81359e-18)
(1.00594 0.00142778 -5.98022e-18)
(0.926899 0.0510264 -1.43146e-16)
(1.04316 0.0351132 -5.17039e-18)
(0.999999 6.6764e-05 -9.13022e-18)
(0.999322 0.0373546 -1.56534e-17)
(1.03144 0.00506004 3.91208e-18)
(1.01452 0.000275968 -1.62454e-19)
(1.00151 0.0373454 2.0365e-17)
(1.0027 0.000460134 2.15282e-18)
(0.938711 0.0890181 2.21213e-17)
(1.02514 -0.00217891 -1.3092e-18)
(1.03199 0.00473434 -7.20576e-19)
(1.02698 0.0288838 -1.12245e-17)
(1.00088 -0.00010312 5.66671e-18)
(1.00175 0.0111237 3.04258e-18)
(1.05116 0.0559986 4.79378e-18)
(1.06145 0.00583343 -1.72572e-18)
(1.00001 1.27059e-05 -4.53652e-18)
(1.0106 0.0148422 -3.11528e-18)
(0.992072 0.168442 -1.90934e-18)
(1.03196 0.00183661 4.02171e-19)
(0.570207 0.498971 2.15421e-16)
(1.00002 6.6546e-06 9.8744e-18)
(1.00241 0.00051257 1.65878e-17)
(1.00066 4.67938e-05 2.30202e-19)
(1.03081 0.010229 -5.37217e-18)
(0.995246 0.019072 -2.26928e-17)
(0.996114 0.0124802 -3.7041e-18)
(1.00287 0.000218093 2.4774e-17)
(1.00255 0.0334693 4.52632e-17)
(1.01654 0.0111961 -8.11591e-20)
(0.972202 0.00398046 4.85752e-17)
(1.00876 0.001457 -1.10012e-17)
(1.08288 0.08188 3.28362e-17)
(1.00047 7.0731e-05 -1.20358e-17)
(1.08842 0.0892669 1.68363e-17)
(1.00164 -2.43278e-05 -9.20846e-19)
(0.539205 0.587909 2.91829e-16)
(1.02411 5.25432e-05 5.01691e-18)
(1.05065 0.056438 1.64353e-18)
(0.999634 8.37116e-05 1.98162e-16)
(0.996984 0.000541244 -8.60223e-18)
(1.02498 0.0237147 2.13154e-17)
(1.00358 0.00212743 -1.01065e-17)
(0.998708 0.000192112 8.28829e-17)
(0.992589 -0.000247293 8.75709e-16)
(0.994819 0.0196142 1.84725e-18)
(0.99573 0.018383 1.88106e-17)
(0.982865 0.156432 -3.59444e-17)
(1.0323 0.0294542 -5.39814e-18)
(1.03391 0.0282344 2.34593e-18)
(1.00001 1.07299e-05 8.32743e-19)
(1.00388 0.00197736 3.77452e-18)
(1.02535 0.0106423 -3.16064e-18)
(1.05847 0.0099344 2.85655e-18)
(0.999998 3.33361e-06 -1.53073e-17)
(1.00044 7.0276e-05 -5.22917e-19)
(1.0309 0.00793139 -4.07725e-18)
(1.00072 9.20091e-05 -3.26541e-18)
(0.817203 0.0513839 -2.82225e-16)
(1.18108 0.222225 -2.19698e-18)
(1.10005 0.00666147 -1.78174e-17)
(1.00001 3.27638e-06 1.09246e-17)
(1.00645 0.00957718 -1.09591e-17)
(1.04008 0.00570154 -1.48123e-19)
(0.995872 0.0133033 4.04291e-18)
(1.00371 0.00082388 -6.34874e-18)
(0.167909 0.468014 1.55851e-15)
(1.00044 8.18858e-05 -3.83903e-19)
(0.940064 0.0725409 6.89598e-17)
(0.964236 0.0444117 -1.38026e-16)
(1.00664 0.00885173 -2.91067e-18)
(1.00396 0.00114683 1.76683e-18)
(0.998406 0.000175982 -1.15072e-16)
(1.01011 -0.00038725 -4.87683e-18)
(1.03773 0.00049891 -6.84396e-19)
(1.01611 0.00764732 3.57716e-18)
(0.99725 0.0108558 -6.76634e-18)
(1 2.44775e-05 1.38768e-19)
(1 7.1182e-05 5.67947e-17)
(0.995673 0.0151158 -2.41399e-17)
(0.996472 0.00123429 -7.08483e-17)
(0.99447 0.0572498 5.29852e-19)
(1.03011 0.0118228 7.32881e-18)
(0.998936 -8.63875e-06 4.78783e-18)
(1.00043 0.000176112 5.40518e-20)
(1.02532 0.0258308 6.5647e-18)
(1.08545 0.00353558 -2.2887e-17)
(0.997793 0.000345213 1.84005e-17)
(1.0475 0.00535542 1.20951e-18)
(1.00027 6.27583e-05 2.37836e-20)
(0.996476 0.0108949 1.40967e-18)
(0.955856 0.0792865 2.27087e-17)
(1.03475 0.00117287 -5.66162e-20)
(1.0396 0.00358243 2.50793e-19)
(0.953226 0.0542417 4.16377e-17)
(1.00224 0.0179653 -3.64868e-18)
(1.03681 0.000100437 3.96359e-19)
(0.999998 8.51928e-06 7.02649e-18)
(0.999729 7.50424e-05 -2.92946e-16)
(1.03363 -0.00393696 -1.26855e-18)
(1.01114 0.010278 -1.23025e-17)
(1.00346 0.0180092 1.37075e-17)
(1.00978 0.00929961 -1.59653e-17)
(1 6.28767e-05 -5.18791e-17)
(1.00056 0.0001742 -1.53638e-19)
(1.0037 0.000699562 2.6497e-17)
(0.999182 0.0276763 -3.22249e-19)
(1.03581 0.00325132 -4.09536e-19)
(0.942571 0.038693 -7.31447e-17)
(0.989721 0.00090645 -1.86629e-16)
(0.931457 0.0341949 3.65383e-16)
(1.03118 0.0122629 -2.07778e-18)
(1.00863 0.015959 -1.51724e-17)
(0.936143 0.0458484 7.79646e-17)
(0.984132 0.021548 1.9689e-17)
(1.06291 0.00755077 -3.0593e-18)
(1.03028 0.0098238 1.94443e-17)
(0.988165 0.0189477 -6.59347e-17)
(0.993135 0.056535 -2.64916e-17)
(0.99977 0.000149432 -1.61906e-17)
(1.01188 0.0707915 -9.21949e-18)
(1.02517 0.0239754 -4.26822e-18)
(1.00001 -9.24725e-06 8.9442e-18)
(1 4.38387e-06 -2.54413e-17)
(1.00074 1.28312e-05 8.81868e-18)
(0.999551 0.000388883 -1.95911e-17)
(1.063 0.062361 -5.49647e-19)
(1.01093 0.015644 -8.89058e-18)
(1.01398 -0.000690703 -6.21896e-18)
(0.945261 0.0477717 -6.2069e-17)
(0.992652 0.000292034 1.0213e-15)
(0.816555 0.0259167 -1.19316e-15)
(1.03311 0.000437534 -5.16812e-19)
(1.03536 0.00189038 1.71545e-19)
(1.00317 0.000434624 1.06215e-18)
(1.0495 0.0339247 -1.17648e-17)
(0.999989 -1.03005e-06 3.65414e-17)
(1.0007 0.027289 -6.66958e-18)
(1.00045 0.00338104 -5.91502e-18)
(0.947859 0.0981134 6.49511e-18)
(0.937014 0.0484166 -4.25984e-17)
(1.002 0.0154202 -3.26369e-18)
(1.01598 0.0105827 -1.69349e-19)
(0.526555 0.703414 -1.73059e-17)
(1.02785 0.0105775 3.51039e-18)
(1.04549 0.0579868 -8.69435e-18)
(1.00933 0.0117658 1.04597e-17)
(0.979979 0.136343 2.51279e-17)
(1.16625 0.174977 -5.03001e-17)
(1.00104 -4.9442e-05 -3.46906e-18)
(0.998374 0.00316945 1.47006e-17)
(1.00001 6.76168e-06 5.94045e-18)
(1.05896 0.0586117 2.19757e-18)
(0.998528 0.00300234 3.04717e-17)
(1.01543 0.00841623 7.58421e-18)
(1.10464 0.0960751 -6.78577e-18)
(1.00046 0.000105771 5.25136e-19)
(0.97111 0.00277824 -2.16997e-16)
(0.993045 0.0496486 -1.16405e-17)
(1.0065 0.014242 1.5071e-17)
(0.997469 0.000218314 8.17577e-18)
(1.00223 0.0157243 -4.33002e-18)
(0.999138 0.000729987 -3.24302e-17)
(0.99575 0.0144823 -2.33317e-17)
(0.999126 0.000623193 2.15269e-18)
(0.999185 0.000803261 -8.30649e-18)
(0.995815 0.0125626 4.83458e-18)
(1.0329 0.00455131 2.6036e-18)
(1.03327 0.00720299 5.7544e-18)
(1.0069 0.0152728 -5.23881e-17)
(0.641902 0.0271825 -5.54774e-17)
(1.03464 -6.81492e-05 -3.52134e-19)
(0.381896 0.350556 -1.82692e-16)
(1.02803 0.012306 -2.21133e-18)
(1.02005 0.000908711 2.19867e-19)
(0.995452 0.0134444 -7.4381e-18)
(1.02559 0.0119956 -3.12515e-18)
(0.993663 0.0253204 -1.07543e-17)
(1.03136 0.00107304 4.58728e-19)
(0.545443 0.426346 -2.15536e-16)
(0.946683 0.0378114 9.06176e-17)
(0.993354 0.0237154 2.29771e-17)
(1.00449 0.0213654 -1.36504e-17)
(0.994503 0.00125998 -1.81653e-17)
(0.996219 0.000827373 3.14995e-17)
(1.02494 0.0257325 -1.59848e-18)
(0.999999 4.42465e-05 2.89681e-17)
(1.07122 0.00329879 4.40183e-19)
(0.999141 6.16916e-05 2.28242e-17)
(0.954968 0.0341775 1.68332e-17)
(0.998607 0.0744325 -4.01841e-17)
(1.06171 0.0528247 -7.45448e-18)
(1.03842 0.020618 -1.12329e-17)
(1.03199 0.0106574 5.77942e-19)
(0.992548 0.0497541 -4.43307e-17)
(1.00924 0.0120034 -3.48613e-18)
(1.03825 0.0217666 6.78935e-18)
(0.972109 0.0294329 -9.89779e-17)
(1.04486 0.0552774 8.57351e-18)
(1.00823 0.0204998 5.0613e-18)
(1.0443 0.0353305 1.47092e-17)
(1.00578 0.0214923 2.30437e-18)
(1.00001 1.59768e-05 -2.85881e-19)
(0.998661 0.0232815 -3.14129e-17)
(0.840806 -0.00116202 3.69629e-17)
(0.974445 0.130926 3.74797e-17)
(1.00643 0.00547249 -1.00331e-17)
(1.00009 5.85047e-05 3.80473e-18)
(0.999058 0.000259877 4.71461e-17)
(0.994956 0.00701091 1.22113e-18)
(0.964908 0.00211421 -8.9735e-16)
(1.03029 0.00568829 -1.68003e-21)
(1.02548 0.0017381 -1.61785e-18)
(1.00071 -1.33843e-05 1.79308e-17)
(1.00497 0.0065913 -2.31222e-17)
(0.994051 0.024522 -1.1227e-17)
(1.00594 0.00511299 -2.68937e-18)
(1.00878 0.000540625 1.22252e-17)
(1.04552 0.0303507 7.74505e-21)
(0.993847 0.000936812 8.01853e-17)
(0.991428 0.0334523 3.66789e-17)
(1.03378 0.011095 -2.87562e-18)
(1.00522 0.00585258 1.20341e-17)
(1.00697 0.00588286 -1.26386e-17)
(0.947204 0.0581706 -5.54593e-17)
(0.999997 -3.25799e-06 6.20843e-19)
(0.993666 0.00534004 3.66283e-18)
(1.34033 0.153995 3.07751e-17)
(0.999819 2.14089e-05 2.80646e-16)
(1.03993 0.0340737 -1.01023e-17)
(1.00109 0.0682641 -4.62291e-17)
(1.00709 0.00540711 3.08683e-18)
(0.959186 0.0422671 1.08518e-16)
(1.03239 0.0110442 2.23002e-18)
(0.999021 0.0234356 -4.57314e-17)
(1.02933 0.0324708 3.6277e-18)
(0.999614 0.0030212 1.3319e-18)
(0.939079 0.0369368 -8.74049e-17)
(1.00434 0.000142763 -1.6095e-20)
(1.02915 -0.000317424 -4.50196e-18)
(1.03372 0.0135331 4.95868e-18)
(0.936183 0.0412791 1.0955e-16)
(0.99983 0.00290103 -3.03019e-18)
(1.03638 0.00282194 5.73296e-19)
(1.0549 0.0161182 -5.55983e-18)
(0.992759 0.0328643 -2.17602e-17)
(1.00575 0.0126145 1.06081e-19)
(1.00435 0.0027046 -1.73628e-17)
(1.01123 0.059738 -2.06339e-17)
(0.751495 0.258161 -1.00696e-16)
(0.995299 0.0010381 4.43753e-17)
(0.999998 2.48576e-05 3.49175e-17)
(0.993981 0.0228433 -3.20871e-17)
(1.00001 -4.65016e-05 -1.85557e-18)
(1.16505 0.185777 -3.542e-18)
(1.00693 0.0207457 -3.27754e-17)
(1.03952 0.0832001 1.10855e-18)
(1.01485 0.00625548 5.85515e-19)
(1.02897 0.000253168 -1.65199e-17)
(0.208311 0.0345064 -4.20781e-15)
(1.00649 0.0143914 1.08465e-17)
(1.10202 0.19179 -8.73855e-18)
(1.0319 0.00517114 6.72115e-19)
(1.09273 0.00894407 -9.40402e-18)
(1.02618 0.01048 2.46815e-18)
(0.996996 0.01125 2.74722e-17)
(1.00612 0.0133801 -4.70031e-18)
(1.01677 0.000206114 -7.94557e-19)
(1.09306 0.0857115 1.10324e-17)
(1.08464 0.0772736 2.35932e-17)
(1.00122 -9.25588e-05 -4.22921e-20)
(1.00174 0.000311484 2.44713e-19)
(0.936289 0.0410354 -7.37959e-17)
(1.00223 -6.94331e-06 8.69212e-18)
(0.750828 0.350915 -3.60909e-17)
(1.02685 0.0303349 8.6528e-18)
(0.974183 0.163166 -8.02813e-18)
(1.00383 0.00275035 -1.31324e-18)
(0.247167 0.431597 8.16529e-17)
(1.14557 0.206658 -2.5342e-17)
(1.00589 0.0212706 5.75694e-18)
(0.999987 -1.14055e-05 5.61273e-19)
(0.999903 0.00262986 6.90668e-18)
(0.954948 0.0308472 4.00972e-17)
(0.994685 0.00769862 -2.18339e-18)
(0.990582 0.000454185 -1.29256e-16)
(0.99743 0.00890632 4.12864e-18)
(1.0289 0.00969799 5.43042e-18)
(0.974216 0.027929 6.33439e-17)
(1.07007 0.00603185 1.54317e-17)
(0.627303 0.0455994 -6.70867e-17)
(1.00091 6.5367e-05 3.68219e-18)
(0.966386 0.0352289 -1.7047e-18)
(1.03061 0.0246918 -9.6624e-18)
(0.921357 0.0599282 7.67268e-17)
(1.00447 0.0121868 3.12152e-17)
(0.928393 0.0777928 1.21626e-16)
(1.03471 0.00326655 -5.35447e-18)
(0.958182 0.0315141 1.67105e-16)
(0.997402 0.000671751 -1.97102e-17)
(1.0001 2.28443e-05 1.4131e-19)
(1.03591 0.02043 4.79078e-18)
(1.03937 0.0198709 -9.91239e-18)
(1.02523 -0.00152344 -9.93703e-18)
(0.933838 0.0339787 1.32361e-17)
(1.03508 0.0794966 4.44401e-18)
(1.02435 0.00122643 4.09966e-20)
(0.998293 0.0232124 -5.20348e-17)
(1.00036 0.00379554 -1.7243e-17)
(1.00852 0.00861289 -1.66431e-19)
(0.758294 0.0205625 -9.20596e-16)
(1.01033 0.00905266 1.50004e-17)
(1.03183 0.0183935 5.73421e-18)
(0.984066 0.0386138 9.40765e-18)
(1.02471 0.00775309 -1.64152e-19)
(1.01297 -0.000667461 7.42493e-18)
(0.996755 0.0104878 -1.31466e-18)
(1.05485 0.0152893 5.10009e-18)
(1.01421 0.00603112 7.47758e-18)
(1.00523 0.0120003 1.04333e-17)
(1.07492 0.00406081 1.49107e-17)
(0.992416 0.0275221 -2.20186e-17)
(1.0198 0.000951904 7.98494e-19)
(0.800993 0.316416 -8.47793e-17)
(1 3.53307e-05 -8.89929e-21)
(1.01461 0.0070447 1.25924e-17)
(0.998261 0.0192266 -5.00065e-18)
(0.992881 0.00657309 1.89378e-19)
(1.00265 0.000605213 2.17995e-17)
(0.996699 0.0238861 3.83926e-18)
(1.00001 -5.09927e-06 -3.95483e-18)
(1.04618 0.0999979 8.14678e-20)
(1.00575 9.92065e-05 -4.63038e-17)
(0.974843 0.00470453 -6.8197e-17)
(1.03425 0.0305848 1.41358e-17)
(0.957382 0.0424598 -2.7296e-17)
(1.01554 0.00854288 -4.24189e-18)
(1.01535 0.0074005 -1.92028e-17)
(1.03505 0.019798 -2.74081e-18)
(1.25382 -0.0343697 -2.64221e-17)
(0.999726 0.000146404 -9.01929e-18)
(0.993235 0.000378416 -2.84237e-16)
(1.02149 -0.00104307 2.1248e-19)
(1.11339 0.17753 5.48416e-19)
(1.03907 0.0209096 -2.12599e-17)
(0.999819 0.00284768 9.59417e-18)
(0.268638 0.172715 -9.40046e-16)
(1.00009 4.17488e-05 5.83104e-18)
(1.00495 0.000942997 8.78432e-18)
(1.05933 -0.0435806 1.14428e-16)
(0.994863 0.00493958 -1.19487e-18)
(0.99962 0.00305734 1.44312e-18)
(0.999593 0.00329367 -2.12888e-18)
(0.98453 0.0371413 -9.8022e-18)
(0.960772 0.0267733 -3.1567e-17)
(0.999684 8.8622e-05 2.57507e-17)
(0.993834 0.00622608 1.42156e-19)
(0.936748 0.0634981 9.16878e-17)
(1.00001 0.0189914 1.7924e-17)
(0.995518 0.0182244 2.30804e-17)
(0.997016 0.00863016 -3.9595e-18)
(1.00103 1.42254e-05 2.29921e-18)
(0.960743 0.0302779 -6.5249e-17)
(1.06451 0.0512381 -4.2578e-18)
(0.99487 0.0148354 2.04262e-17)
(0.933351 0.0325052 4.36405e-17)
(1.03057 0.00543634 -1.55555e-18)
(1.02982 -0.0028866 1.01873e-18)
(1.04461 0.0966146 3.66954e-17)
(1.03225 0.0243749 1.30823e-17)
(0.996769 0.00921026 -4.38271e-19)
(1.00429 0.000883227 7.66985e-18)
(1.08541 0.0889583 -1.24948e-17)
(1.03435 0.00294944 2.87899e-18)
(0.977184 0.0242607 -7.56613e-18)
(1.00065 0.00383221 3.53368e-18)
(0.999504 0.000342404 1.17309e-16)
(0.934355 0.00812149 -1.321e-16)
(1.04903 0.0357008 6.047e-18)
(1.01352 0.00578897 4.72747e-18)
(1.01359 0.0473096 -1.47571e-17)
(1.01391 0.00670231 -1.54453e-17)
(0.997108 0.00928985 1.08735e-18)
(1.00546 0.00499982 -4.39295e-18)
(0.967733 0.0307815 8.16609e-17)
(0.969109 -0.0117782 -5.34449e-17)
(0.405797 0.574046 -8.30465e-16)
(0.969234 0.0346659 4.83017e-18)
(0.999027 0.0163761 2.57368e-17)
(1.00526 0.00411546 -4.88229e-18)
(0.972015 0.0308396 1.10433e-16)
(0.531848 0.315266 1.83586e-16)
(0.939354 0.0299564 2.81356e-16)
(0.999904 0.00268737 -9.98231e-18)