/*--------------------------------*- C++ -*----------------------------------*\
  =========                 |
  \\      /  F ield         | OpenFOAM: The Open Source CFD Toolbox
   \\    /   O peration     | Website:  https://openfoam.org
    \\  /    A nd           | Version:  7
     \\/     M anipulation  |
\*---------------------------------------------------------------------------*/
FoamFile
{
    version     2.0;
    format      ascii;
    class       volScalarField;
    location    "5.5";
    object      rho;
}
// * * * * * * * * * * * * * * * * * * * * * * * * * * * * * * * * * * * * * //

dimensions      [1 -3 0 0 0 0 0];

internalField   nonuniform List<scalar> 
2413
(
1.05791
1.04412
1.03058
1.01698
1.00471
0.995762
0.990747
0.993017
1.08898
1.07663
1.0639
1.05135
1.0388
1.02593
1.01456
1.00632
1.11232
1.10205
1.09123
1.08056
1.06904
1.057
1.04486
1.03315
1.12585
1.11717
1.10831
1.09964
1.0902
1.08048
1.07022
1.05971
1.13445
1.12639
1.11849
1.11032
1.10225
1.09403
1.08521
1.07664
1.14354
1.1356
1.12755
1.11906
1.11108
1.10296
1.0949
1.08698
1.15352
1.1457
1.13765
1.12912
1.12109
1.11303
1.10492
1.09667
1.16385
1.15604
1.14816
1.13983
1.13182
1.12402
1.11599
1.10776
1.17536
1.16711
1.15928
1.15112
1.14299
1.13512
1.12722
1.11924
1.18815
1.1797
1.17159
1.16328
1.15501
1.14709
1.13921
1.13122
1.20262
1.19409
1.18556
1.1768
1.16821
1.16027
1.15218
1.14403
1.21899
1.21007
1.20107
1.19177
1.18325
1.17497
1.16655
1.15822
1.23618
1.2271
1.21777
1.20843
1.19968
1.19102
1.18231
1.17383
1.25228
1.24341
1.23434
1.22537
1.21657
1.2078
1.19913
1.1907
1.26568
1.25742
1.24901
1.24063
1.23221
1.22375
1.21542
1.20727
1.27697
1.26914
1.26134
1.25349
1.24549
1.23755
1.2298
1.2221
1.28775
1.28025
1.27277
1.26496
1.25717
1.24972
1.2423
1.23489
1.30044
1.29251
1.2845
1.27697
1.26936
1.26158
1.25406
1.24689
1.31491
1.30681
1.29888
1.29078
1.28272
1.27497
1.26728
1.25971
0.721289
0.720459
0.719239
0.717767
0.715552
0.712243
0.710493
0.709744
0.709452
0.709271
0.708884
0.708247
0.707048
0.705154
0.704213
0.995869
0.997045
0.998495
1.00227
1.00449
1.00744
1.01199
1.01349
1.01699
1.02011
1.02172
1.02654
1.0289
1.03131
1.03572
1.03647
1.03773
1.04002
1.04044
1.04217
1.0445
1.04693
1.04924
1.04972
1.04835
1.04663
1.04638
1.04718
1.04679
1.04482
1.04277
1.0419
1.04033
1.03841
1.03625
1.03334
1.02965
1.02562
1.02137
1.01692
1.01248
1.00826
1.00401
0.999738
0.995413
0.990874
0.985888
0.980038
0.97368
0.968709
0.965005
0.961503
0.957912
0.954072
0.949379
0.942588
0.935758
0.931753
0.92852
0.92524
0.921787
0.918029
0.913337
0.906327
0.898963
0.894674
0.891459
0.888359
0.885279
0.882085
0.878546
0.873779
0.866155
0.8596
0.856212
0.853207
0.850141
0.846948
0.843695
0.840396
0.836675
0.83075
0.822778
0.818628
0.816114
0.814013
0.812134
0.80998
0.80753
0.804627
0.799885
0.792797
0.788627
0.786422
0.784648
0.783155
0.781329
0.779195
0.776798
0.77372
0.768301
0.76135
0.758045
0.756169
0.754717
0.753753
0.752416
0.750715
0.748605
0.744835
0.739299
0.736566
0.735223
0.734437
0.734229
0.733372
0.732214
0.730562
0.72721
0.724398
1.00258
1.00245
1.00214
1.00215
1.00338
1.00333
1.00474
1.00578
1.00587
1.00838
1.00954
1.01191
1.01519
1.0165
1.02008
1.02273
1.02439
1.0284
1.03048
1.03283
1.03735
1.03912
1.04147
1.04508
1.0461
1.04817
1.05092
1.05229
1.05469
1.05548
1.05639
1.0587
1.0597
1.05892
1.05759
1.05769
1.0583
1.05736
1.05487
1.0516
1.05056
1.0495
1.04775
1.04576
1.04293
1.03916
1.03576
1.03273
1.02938
1.02592
1.02236
1.01843
1.01409
1.00936
1.00444
0.9997
0.995455
0.991522
0.987761
0.984171
0.980288
0.975541
0.969503
0.963217
0.958682
0.955172
0.951743
0.948137
0.944262
0.940016
0.934985
0.928791
0.923092
0.91924
0.916032
0.912834
0.909327
0.905256
0.901033
0.897243
0.893381
0.888122
0.881746
0.878175
0.875642
0.873338
0.87093
0.868288
0.865352
0.861308
0.854468
0.848958
0.846284
0.844003
0.841833
0.83945
0.836879
0.834014
0.830225
0.82352
0.816331
0.813083
0.81077
0.808686
0.806697
0.804603
0.802334
0.799541
0.794461
0.78742
0.783982
0.782083
0.780608
0.779749
0.778557
0.776914
0.774967
0.771661
0.766088
0.763012
1.02619
1.0238
1.02134
1.01953
1.01796
1.01627
1.01477
1.01335
1.0126
1.01241
1.01177
1.0111
1.01152
1.0121
1.01215
1.01344
1.01422
1.01572
1.01788
1.01926
1.02212
1.02396
1.02595
1.02956
1.03124
1.03401
1.0382
1.03953
1.0425
1.04592
1.04692
1.05029
1.05315
1.05362
1.05677
1.05851
1.05894
1.06188
1.06332
1.06279
1.0638
1.0646
1.06546
1.06557
1.06397
1.06309
1.06361
1.06351
1.06173
1.05982
1.05912
1.05815
1.0565
1.05432
1.05208
1.05014
1.04823
1.04615
1.04389
1.04112
1.03779
1.03381
1.02964
1.02577
1.02204
1.01821
1.01408
1.0096
1.00495
1.00023
0.995616
0.991245
0.986996
0.982601
0.977995
0.973706
0.969706
0.965664
0.961828
0.957985
0.953243
0.947247
0.942955
0.940185
0.937503
0.93473
0.931764
0.928238
0.92299
0.916488
0.912598
0.909957
0.907381
0.904897
0.902478
0.899873
0.896544
0.890952
0.883847
0.880041
0.877648
0.875537
0.87359
0.871353
0.868936
0.866194
0.861942
0.854867
0.850256
0.848056
0.846335
0.844849
0.843024
0.841064
0.838997
0.8364
0.831592
0.825976
0.823467
0.821878
1.05327
1.05078
1.04822
1.04564
1.04296
1.04045
1.03784
1.03543
1.0331
1.03086
1.02855
1.02634
1.02456
1.02287
1.02141
1.02011
1.01898
1.01807
1.01768
1.01719
1.01701
1.01742
1.01735
1.01816
1.01912
1.0197
1.02177
1.02276
1.02486
1.02704
1.0278
1.031
1.03346
1.03473
1.03883
1.0407
1.04261
1.04683
1.04843
1.05043
1.05421
1.05538
1.05689
1.06003
1.06098
1.06174
1.06396
1.06527
1.06628
1.06786
1.07005
1.07165
1.07125
1.07156
1.07208
1.07135
1.07129
1.07196
1.07114
1.06897
1.06745
1.06736
1.06708
1.06552
1.06301
1.06048
1.05915
1.05771
1.05593
1.05385
1.05154
1.04877
1.04592
1.04348
1.04103
1.03824
1.03522
1.03183
1.02792
1.02355
1.01903
1.01498
1.01166
1.00838
1.00489
1.00125
0.997062
0.991767
0.986126
0.981979
0.978963
0.975979
0.972705
0.96936
0.965835
0.961486
0.955901
0.949997
0.946473
0.944107
0.941355
0.938706
0.936283
0.933509
0.929959
0.924566
0.918104
0.914727
0.912643
0.910945
0.908802
0.906559
0.904275
0.901651
0.897336
0.891764
0.888937
0.887146
0.88555
0.883776
1.07137
1.06928
1.06709
1.06488
1.06262
1.06044
1.05829
1.05606
1.05373
1.05131
1.04928
1.04714
1.04486
1.04237
1.04024
1.03818
1.03598
1.03364
1.03144
1.02969
1.02767
1.02602
1.02478
1.02358
1.0224
1.02142
1.02076
1.02004
1.01992
1.01994
1.01931
1.01935
1.01999
1.02025
1.02127
1.02218
1.0234
1.0256
1.02691
1.02893
1.03128
1.03243
1.03471
1.03769
1.03928
1.04193
1.04602
1.04782
1.05006
1.0538
1.05554
1.0572
1.06047
1.06262
1.06319
1.06457
1.0678
1.06894
1.06893
1.07075
1.07166
1.07187
1.07359
1.07563
1.07548
1.07559
1.07637
1.07594
1.07568
1.07646
1.07598
1.07459
1.07333
1.07252
1.07281
1.07273
1.07107
1.06872
1.06722
1.06644
1.06499
1.0632
1.0615
1.05939
1.05719
1.05529
1.05343
1.05151
1.0495
1.04732
1.04478
1.04196
1.03891
1.0357
1.03246
1.029
1.0253
1.02185
1.01893
1.01584
1.01239
1.00898
1.00571
1.00213
0.997808
0.992688
0.989398
0.986785
0.983536
0.979935
0.976853
0.973701
0.969765
0.964944
0.961397
0.958665
0.956248
0.954048
0.951498
0.948475
1.08198
1.08003
1.07815
1.0763
1.07435
1.07237
1.07059
1.0687
1.06665
1.06441
1.06256
1.06083
1.05892
1.05689
1.05478
1.053
1.05108
1.04891
1.04674
1.04449
1.0425
1.04044
1.03829
1.03632
1.03438
1.03245
1.03059
1.02875
1.02698
1.0254
1.02382
1.02237
1.02112
1.02013
1.01929
1.01844
1.01769
1.01732
1.01714
1.01712
1.01713
1.01715
1.01771
1.01823
1.01858
1.01993
1.02114
1.02184
1.02395
1.02547
1.02639
1.02907
1.03139
1.03234
1.03501
1.03758
1.03912
1.04122
1.04421
1.04728
1.04905
1.05119
1.05506
1.05757
1.0588
1.06116
1.0637
1.06406
1.06484
1.06748
1.06859
1.06927
1.07134
1.07242
1.07337
1.07518
1.07576
1.07571
1.07592
1.0772
1.07815
1.07763
1.07761
1.07734
1.0761
1.07539
1.07601
1.07597
1.07506
1.07479
1.07354
1.07132
1.06992
1.06847
1.06689
1.06588
1.06522
1.06391
1.06243
1.0608
1.05924
1.05798
1.05666
1.05542
1.05405
1.05244
1.05069
1.04873
1.04643
1.04384
1.04133
1.03909
1.0369
1.03474
1.03283
1.03079
1.02819
1.02508
1.02196
1.01914
1.09151
1.0896
1.08781
1.08597
1.08402
1.08222
1.08036
1.07839
1.07625
1.07438
1.07263
1.07079
1.06893
1.06697
1.06525
1.06347
1.06156
1.05966
1.05761
1.05568
1.05376
1.05185
1.04999
1.04807
1.04626
1.04443
1.04253
1.0405
1.03851
1.03659
1.03458
1.0324
1.03019
1.02842
1.02671
1.02495
1.02317
1.02127
1.01978
1.0183
1.01677
1.01545
1.01415
1.01285
1.01152
1.01029
1.00933
1.00856
1.0082
1.0081
1.00815
1.00831
1.00858
1.00901
1.00924
1.00956
1.01042
1.01127
1.01225
1.01408
1.01602
1.01749
1.01951
1.02215
1.02368
1.02509
1.02736
1.0297
1.03102
1.03276
1.03591
1.03872
1.04061
1.04321
1.04743
1.0495
1.05083
1.05325
1.05608
1.05718
1.05837
1.06085
1.06271
1.06312
1.0643
1.0661
1.06711
1.06854
1.06951
1.07026
1.07148
1.07166
1.07167
1.07229
1.07244
1.07228
1.07265
1.07329
1.07384
1.07409
1.07383
1.07372
1.07333
1.07278
1.0731
1.07373
1.07295
1.07134
1.0692
1.06753
1.06652
1.06605
1.06566
1.06485
1.0637
1.06231
1.06064
1.05909
1.05786
1.05687
1.10268
1.10069
1.0988
1.09709
1.0953
1.0933
1.09129
1.08952
1.08759
1.08563
1.08352
1.0817
1.08005
1.07822
1.0764
1.07442
1.07257
1.07076
1.06879
1.06686
1.06484
1.06299
1.06135
1.0596
1.05778
1.05575
1.05392
1.05226
1.05038
1.04836
1.04614
1.04418
1.04245
1.04057
1.03868
1.03661
1.03474
1.03303
1.031
1.02895
1.02671
1.02465
1.02295
1.02112
1.01937
1.01747
1.01571
1.0142
1.0126
1.01124
1.00994
1.00864
1.00716
1.00563
1.00419
1.00263
1.00121
1.00005
0.999088
0.998162
0.997341
0.996599
0.996098
0.995883
0.995713
0.995847
0.996196
0.996685
0.997195
0.998198
0.999236
1.0001
1.00155
1.00377
1.00536
1.00683
1.0094
1.01155
1.01264
1.0142
1.01698
1.01863
1.01993
1.02232
1.02581
1.02774
1.02968
1.03299
1.03507
1.03673
1.03969
1.0421
1.04363
1.04609
1.04812
1.0492
1.05109
1.05352
1.05478
1.05637
1.05829
1.05866
1.0592
1.06047
1.063
1.06444
1.06486
1.06516
1.06475
1.0641
1.06383
1.06414
1.06539
1.06698
1.06787
1.06747
1.06712
1.06692
1.06637
1.06569
1.1143
1.11247
1.11066
1.10868
1.10675
1.10502
1.10318
1.10127
1.09913
1.09732
1.0956
1.09379
1.09198
1.08999
1.0883
1.08659
1.08471
1.08275
1.08064
1.07891
1.07722
1.07546
1.07359
1.07169
1.07014
1.06845
1.06655
1.06439
1.06254
1.06094
1.05912
1.05721
1.05509
1.05347
1.05196
1.05016
1.04831
1.04642
1.04442
1.04262
1.04077
1.03884
1.03683
1.03475
1.0331
1.03135
1.02944
1.02731
1.02539
1.02387
1.02211
1.02013
1.0179
1.01599
1.01432
1.01252
1.01047
1.00881
1.00767
1.00632
1.00471
1.00302
1.00177
1.0004
0.998887
0.997311
0.996053
0.994769
0.993265
0.991854
0.990519
0.989108
0.987719
0.986809
0.986037
0.985262
0.984645
0.984135
0.983466
0.983007
0.982996
0.983125
0.983609
0.98461
0.985823
0.98699
0.98839
0.989464
0.990343
0.991651
0.99316
0.994365
0.996088
0.998392
1.00001
1.00191
1.00495
1.00663
1.00797
1.01036
1.0119
1.01293
1.01493
1.01841
1.0209
1.0229
1.02575
1.02753
1.02796
1.0289
1.03078
1.03254
1.03461
1.0375
1.0411
1.04201
1.04244
1.04383
1.04485
1.04485
1.12628
1.12432
1.12237
1.12062
1.11887
1.117
1.11492
1.11318
1.11146
1.10961
1.10761
1.10548
1.10388
1.10227
1.10049
1.09846
1.09655
1.09495
1.09317
1.09123
1.08907
1.08746
1.08601
1.08435
1.08246
1.0805
1.07891
1.07716
1.07531
1.07324
1.07141
1.07001
1.0684
1.06673
1.06483
1.063
1.0615
1.05982
1.05802
1.05608
1.05415
1.05264
1.05107
1.04932
1.04734
1.04582
1.04417
1.04229
1.04068
1.03898
1.0369
1.03502
1.03354
1.03173
1.02976
1.02752
1.02574
1.02432
1.02267
1.02084
1.0189
1.01729
1.01557
1.0137
1.01172
1.00953
1.00795
1.0065
1.00484
1.00292
1.0012
0.999628
0.997731
0.996344
0.995369
0.994158
0.992616
0.991026
0.989504
0.987742
0.985896
0.984822
0.983856
0.982621
0.981587
0.980555
0.979337
0.977753
0.976338
0.975282
0.974269
0.973395
0.972677
0.972011
0.971563
0.971303
0.971091
0.970774
0.970767
0.970905
0.971141
0.971489
0.972178
0.973321
0.974506
0.975661
0.976641
0.977236
0.977912
0.97899
0.979896
0.980963
0.982831
0.985492
0.987606
0.988895
0.990108
0.991909
0.993646
0.995142
1.139
1.13715
1.13535
1.13336
1.13138
1.12972
1.12795
1.12596
1.12378
1.1221
1.12045
1.11862
1.11658
1.1145
1.11294
1.11125
1.10941
1.10733
1.10546
1.10385
1.10207
1.1003
1.09831
1.09655
1.09509
1.09338
1.09159
1.08955
1.08761
1.0861
1.0845
1.08283
1.08093
1.07924
1.07786
1.07626
1.07445
1.07237
1.07072
1.06929
1.06767
1.0659
1.06395
1.06252
1.06118
1.0596
1.0578
1.05584
1.05438
1.05283
1.05089
1.04923
1.04777
1.04605
1.04412
1.04268
1.04116
1.03931
1.03733
1.03597
1.03449
1.03273
1.03069
1.02862
1.02716
1.0255
1.02343
1.02191
1.02046
1.01851
1.01676
1.01503
1.01291
1.01134
1.00982
1.00794
1.00638
1.00486
1.00304
1.00067
0.999043
0.997756
0.996063
0.994465
0.99324
0.991781
0.989933
0.987776
0.986328
0.98498
0.983371
0.981977
0.981027
0.979918
0.978351
0.977033
0.975899
0.974563
0.972981
0.97156
0.970219
0.968615
0.967098
0.96602
0.964884
0.963709
0.962473
0.961167
0.959959
0.958849
0.957759
0.956923
0.956321
0.955822
0.9552
0.954606
0.954445
0.954493
0.954802
0.955652
1.15313
1.15108
1.14915
1.14749
1.14571
1.14364
1.14149
1.13977
1.13793
1.13599
1.1338
1.13189
1.13031
1.12852
1.12665
1.12449
1.12261
1.12097
1.11915
1.11732
1.11527
1.11336
1.11185
1.1102
1.10842
1.10635
1.10456
1.10307
1.10136
1.09946
1.09737
1.09589
1.09454
1.09291
1.09097
1.08906
1.08761
1.086
1.08425
1.08227
1.08048
1.07919
1.07771
1.07611
1.07425
1.07258
1.07121
1.0696
1.06785
1.06581
1.06425
1.06291
1.06136
1.0595
1.05805
1.05671
1.05503
1.05299
1.05151
1.05009
1.04834
1.04635
1.04493
1.04348
1.04179
1.03976
1.03808
1.03677
1.03523
1.03352
1.03152
1.0299
1.02847
1.02684
1.02485
1.02313
1.02173
1.01996
1.01791
1.01647
1.01501
1.01307
1.01147
1.01023
1.00857
1.00632
1.00465
1.00306
1.00098
0.999142
0.997911
0.996433
0.994586
0.992723
0.991085
0.989309
0.987143
0.98562
0.984341
0.982738
0.980974
0.978893
0.977123
0.975543
0.973734
0.972214
0.971421
0.970545
0.96921
0.968277
0.967579
0.966388
0.965862
0.966215
0.966591
0.966914
0.968548
0.969915
0.971636
0.974389
1.16868
1.16686
1.16503
1.16289
1.16071
1.15895
1.15706
1.155
1.15266
1.15089
1.14928
1.14744
1.14545
1.14322
1.14152
1.13977
1.1378
1.13567
1.1335
1.13199
1.13036
1.12851
1.12645
1.12436
1.12286
1.12114
1.11918
1.11704
1.11544
1.11392
1.11215
1.11026
1.10821
1.1067
1.10517
1.10344
1.10154
1.09951
1.09805
1.09654
1.09488
1.09308
1.09112
1.08973
1.08835
1.08671
1.08482
1.08287
1.08152
1.08002
1.07824
1.07623
1.07474
1.07357
1.0721
1.07029
1.06852
1.06709
1.06548
1.06357
1.06166
1.06036
1.059
1.05739
1.05561
1.0542
1.05268
1.05098
1.04895
1.04716
1.04591
1.0445
1.04288
1.04097
1.03954
1.0381
1.03614
1.0341
1.03277
1.03121
1.02925
1.0279
1.02656
1.02481
1.02272
1.02104
1.01931
1.01716
1.01545
1.01404
1.01246
1.01055
1.00891
1.00725
1.00529
1.00284
1.00075
0.999645
0.998308
0.996755
0.995608
0.99435
0.992341
0.990748
0.989669
0.988767
0.988705
0.989242
0.988918
0.989515
0.990051
0.99015
0.992039
0.993734
0.995818
1.00024
1.00311
1.00601
1.01135
1.01454
1.18549
1.18337
1.18148
1.17968
1.17769
1.17541
1.17347
1.17167
1.16971
1.16757
1.16552
1.16381
1.16202
1.15999
1.15786
1.15602
1.15414
1.15206
1.14993
1.14816
1.14642
1.14463
1.14269
1.14064
1.13882
1.13697
1.13489
1.13282
1.13131
1.12964
1.12761
1.12583
1.12419
1.12229
1.12004
1.11838
1.1169
1.11522
1.11326
1.1115
1.11003
1.10836
1.10654
1.10447
1.10279
1.10143
1.09985
1.09791
1.09622
1.09482
1.09298
1.09112
1.08966
1.08793
1.08608
1.08482
1.08339
1.08171
1.07968
1.07792
1.0764
1.07469
1.07275
1.07139
1.0702
1.06871
1.067
1.06496
1.06327
1.06167
1.05991
1.05795
1.05668
1.05549
1.05382
1.05201
1.05044
1.04866
1.04633
1.04471
1.04329
1.04152
1.03975
1.03842
1.03686
1.03506
1.0327
1.03074
1.02922
1.02743
1.02558
1.02441
1.02319
1.02169
1.02003
1.01781
1.01653
1.01587
1.01478
1.01434
1.0146
1.01417
1.014
1.01488
1.01496
1.01581
1.01816
1.01951
1.0223
1.02603
1.02804
1.03187
1.03683
1.03949
1.04393
1.04919
1.05132
1.05439
1.05913
1.06122
1.20233
1.20048
1.1984
1.1962
1.19447
1.19267
1.19067
1.18847
1.18675
1.18507
1.18316
1.18105
1.17883
1.17717
1.17537
1.17341
1.17123
1.16927
1.16766
1.16582
1.16383
1.16157
1.15976
1.1581
1.15614
1.15398
1.15178
1.15026
1.14859
1.14664
1.14476
1.14273
1.1407
1.13899
1.13719
1.13533
1.13324
1.13163
1.13017
1.12842
1.12657
1.12433
1.1225
1.121
1.11928
1.11723
1.11553
1.11422
1.11266
1.11084
1.10861
1.10697
1.1055
1.10356
1.1017
1.10047
1.09893
1.0972
1.09568
1.09398
1.09189
1.08962
1.08832
1.08704
1.08535
1.08364
1.08231
1.08077
1.07894
1.07645
1.07427
1.07297
1.07141
1.06953
1.06819
1.06682
1.06501
1.06289
1.06081
1.05862
1.05627
1.05479
1.05363
1.05218
1.05043
1.04887
1.04731
1.04541
1.04315
1.04135
1.04054
1.03986
1.03923
1.03893
1.03857
1.03785
1.03794
1.03858
1.03878
1.04036
1.04273
1.0444
1.04819
1.05171
1.05419
1.05856
1.06268
1.0658
1.06924
1.07268
1.07696
1.083
1.08573
1.08792
1.09127
1.09287
1.09299
1.09286
1.09368
1.09477
1.21736
1.21566
1.2139
1.21189
1.21001
1.20834
1.20651
1.20452
1.20278
1.20118
1.19944
1.19746
1.19542
1.1937
1.19194
1.18993
1.18791
1.18632
1.18468
1.18284
1.18087
1.17877
1.17689
1.17514
1.17331
1.17127
1.16933
1.16776
1.1661
1.16425
1.16216
1.15995
1.15822
1.15644
1.15447
1.15244
1.15092
1.14941
1.14762
1.14537
1.14341
1.14174
1.13978
1.13773
1.13633
1.13487
1.13308
1.13117
1.12954
1.12785
1.12602
1.12383
1.12192
1.12062
1.11912
1.11726
1.11556
1.11415
1.11254
1.11042
1.10814
1.10648
1.10469
1.10287
1.10155
1.10017
1.09852
1.09652
1.09451
1.09238
1.09013
1.08785
1.08637
1.08512
1.08344
1.08171
1.08014
1.07833
1.0759
1.07279
1.07128
1.07011
1.06857
1.06751
1.06681
1.06587
1.06472
1.06322
1.06169
1.06146
1.06158
1.06216
1.06462
1.06666
1.06752
1.07037
1.07339
1.07508
1.07871
1.08261
1.08558
1.09045
1.09705
1.10046
1.1043
1.10894
1.11104
1.11208
1.11363
1.11542
1.11734
1.12001
1.12259
1.12323
1.12296
1.12149
1.11857
1.11624
1.11535
1.11482
1.23027
1.22858
1.2271
1.22549
1.22358
1.22175
1.22022
1.2185
1.21656
1.21482
1.21343
1.21187
1.2101
1.2081
1.20642
1.20487
1.20312
1.2012
1.19937
1.19793
1.19629
1.19451
1.19253
1.19055
1.18898
1.18729
1.18536
1.18344
1.18194
1.18034
1.17835
1.17639
1.17467
1.17269
1.17064
1.1692
1.16769
1.16586
1.16397
1.16233
1.16051
1.15829
1.15628
1.15492
1.1533
1.15146
1.15003
1.14853
1.14673
1.14439
1.14247
1.14097
1.13926
1.13727
1.13564
1.13435
1.13284
1.13103
1.12881
1.12694
1.12508
1.12286
1.12117
1.11975
1.11798
1.11617
1.11468
1.11294
1.11087
1.10812
1.1054
1.10401
1.10249
1.10067
1.09932
1.09805
1.09655
1.09484
1.09247
1.09011
1.08907
1.08844
1.08827
1.08875
1.08936
1.08999
1.09037
1.09017
1.09151
1.09434
1.09627
1.09967
1.10562
1.10914
1.11303
1.11873
1.12156
1.12425
1.12805
1.13063
1.13356
1.13762
1.1422
1.14536
1.14672
1.14712
1.1465
1.14467
1.14353
1.14324
1.14336
1.14475
1.14509
1.14392
1.14228
1.13949
1.13501
1.13238
1.13117
1.1302
1.24245
1.2407
1.23917
1.23765
1.23594
1.2341
1.23252
1.23091
1.22916
1.2273
1.22568
1.22431
1.22277
1.221
1.21917
1.21763
1.21601
1.21411
1.21226
1.2109
1.20941
1.20758
1.20593
1.20444
1.20272
1.20069
1.19889
1.19744
1.19584
1.194
1.19236
1.19087
1.18918
1.18719
1.18515
1.18367
1.18205
1.18022
1.17873
1.17726
1.17555
1.17336
1.1715
1.17003
1.16822
1.16659
1.16509
1.16356
1.16198
1.16021
1.15824
1.15595
1.1543
1.15288
1.15126
1.14938
1.1477
1.14625
1.14449
1.14253
1.14005
1.13809
1.13645
1.13449
1.13278
1.13136
1.12977
1.12792
1.12581
1.12369
1.1216
1.11965
1.11827
1.11736
1.11676
1.1162
1.11555
1.11481
1.11365
1.11353
1.11405
1.11494
1.11783
1.12045
1.12275
1.12712
1.13013
1.13261
1.13736
1.14112
1.14434
1.14946
1.15556
1.15918
1.16297
1.16576
1.16673
1.16766
1.16827
1.16861
1.16946
1.17136
1.17343
1.17353
1.17274
1.17103
1.16767
1.16428
1.16292
1.162
1.16174
1.16155
1.16026
1.15878
1.15694
1.15361
1.14922
1.14735
1.14626
1.14553
1.25505
1.25318
1.25151
1.25002
1.24839
1.24654
1.24485
1.24331
1.24159
1.2397
1.2379
1.23653
1.23508
1.23344
1.23161
1.22997
1.22841
1.22667
1.2247
1.22309
1.22171
1.22
1.21845
1.21694
1.21513
1.21321
1.21164
1.20994
1.20798
1.20638
1.20506
1.20353
1.2018
1.19993
1.19831
1.19662
1.19469
1.19295
1.1916
1.19017
1.18863
1.18696
1.18492
1.18311
1.18148
1.17971
1.17789
1.17649
1.17506
1.17332
1.17143
1.16965
1.16776
1.1656
1.16358
1.16221
1.16076
1.15909
1.15718
1.15535
1.15357
1.1516
1.14943
1.14737
1.14609
1.14477
1.14342
1.14234
1.14118
1.13982
1.13839
1.13725
1.13692
1.13728
1.13816
1.14022
1.14164
1.14266
1.14561
1.14885
1.15103
1.15517
1.16027
1.16426
1.16962
1.17604
)
;

boundaryField
{
    inlet
    {
        type            calculated;
        value           nonuniform 0();
    }
    outlet
    {
        type            calculated;
        value           nonuniform 0();
    }
    bottom
    {
        type            symmetryPlane;
    }
    top
    {
        type            symmetryPlane;
    }
    obstacle
    {
        type            calculated;
        value           nonuniform 0();
    }
    front
    {
        type            empty;
    }
    back
    {
        type            empty;
    }
    procBoundary13to5
    {
        type            processor;
        value           nonuniform List<scalar> 
129
(
1.02205
1.00805
0.994949
0.983934
0.977423
0.980407
0.985192
0.996061
0.708919
0.707407
0.70576
0.703665
0.701318
0.699884
0.698842
0.697894
0.696808
0.695482
0.694126
0.693406
0.693103
0.693072
0.692783
1.00447
1.00727
1.01133
1.01623
1.01884
1.0235
1.02654
1.02847
1.03049
1.0313
1.03346
1.03674
1.03973
1.04182
1.04227
1.04117
1.03941
1.03813
1.03785
1.03871
1.03885
1.03772
1.03557
1.03135
1.02608
1.0234
1.02136
1.01893
1.01609
1.01278
1.00847
1.0023
0.995628
0.990998
0.98728
0.983661
0.979928
0.975865
0.970969
0.964514
0.957365
0.951991
0.94786
0.943955
0.940006
0.935924
0.931547
0.926228
0.918741
0.910966
0.906756
0.903656
0.900565
0.897399
0.894022
0.889867
0.88332
0.875184
0.870236
0.86696
0.863829
0.860677
0.857325
0.853358
0.847246
0.839184
0.83456
0.831724
0.82912
0.826505
0.823728
0.820611
0.815878
0.808095
0.803075
0.800437
0.79798
0.795583
0.793173
0.790646
0.78765
0.782478
0.775566
0.772235
0.770341
0.769191
0.767926
0.765959
0.763719
0.760859
0.756418
0.751441
0.748884
0.747173
0.745758
0.744403
0.742768
0.740953
0.738971
0.736645
0.733044
0.727559
0.72455
0.723086
0.721969
0.721969
)
;
    }
    procBoundary13to6
    {
        type            processor;
        value           nonuniform List<scalar> 5(0.704076 0.723693 0.761874 0.820707 0.882025);
    }
    procBoundary13to14
    {
        type            processor;
        value           nonuniform List<scalar> 
14
(
0.945422
1.01633
1.05612
1.06528
1.04547
0.997315
0.956811
0.976513
1.01722
1.06356
1.09587
1.11521
1.12976
1.14514
)
;
    }
    procBoundary13to20
    {
        type            processor;
        value           nonuniform List<scalar> 3(1.07117 1.10103 1.12211);
    }
    procBoundary13to21
    {
        type            processor;
        value           nonuniform List<scalar> 
129
(
1.33038
1.32242
1.31445
1.30649
1.29844
1.29035
1.28233
1.27447
1.17867
1.18154
1.18557
1.18763
1.18939
1.19195
1.19489
1.19705
1.19782
1.19781
1.19699
1.19492
1.19305
1.19226
1.1918
1.19207
1.19156
1.19032
1.18875
1.18626
1.18208
1.17917
1.17788
1.17695
1.17646
1.17554
1.17426
1.1728
1.17065
1.16696
1.16443
1.16338
1.16266
1.16231
1.26956
1.26762
1.26598
1.26437
1.26252
1.26056
1.25894
1.25724
1.25536
1.25327
1.25151
1.25014
1.24852
1.24661
1.24487
1.2434
1.24167
1.23957
1.23782
1.23639
1.23461
1.23281
1.23145
1.22989
1.22796
1.22621
1.2246
1.22275
1.22067
1.21922
1.21777
1.21597
1.21436
1.21292
1.21123
1.20926
1.20707
1.20555
1.20407
1.20232
1.20062
1.19921
1.19758
1.19574
1.1935
1.19124
1.18983
1.18834
1.18652
1.18475
1.18323
1.18151
1.17956
1.17709
1.17508
1.17368
1.17195
1.17022
1.16894
1.16752
1.16594
1.16434
1.16232
1.16084
1.16015
1.15935
1.1591
1.15967
1.16006
1.16028
1.16184
1.16293
1.16493
1.16831
1.1714
1.17535
1.18028
1.18622
1.19085
1.19391
1.19795
1.20295
1.20596
1.20888
1.2128
1.17867
1.21666
)
;
    }
    procBoundary13to28
    {
        type            processor;
        value           nonuniform List<scalar> 
16
(
1.134
1.14246
1.15172
1.16176
1.17234
1.18397
1.19701
1.21197
1.2284
1.24546
1.26097
1.27367
1.28454
1.29555
1.30804
1.32333
)
;
    }
}


// ************************************************************************* //
