/*--------------------------------*- C++ -*----------------------------------*\
  =========                 |
  \\      /  F ield         | OpenFOAM: The Open Source CFD Toolbox
   \\    /   O peration     | Website:  https://openfoam.org
    \\  /    A nd           | Version:  7
     \\/     M anipulation  |
\*---------------------------------------------------------------------------*/
FoamFile
{
    version     2.0;
    format      ascii;
    class       volVectorField;
    location    "4.5";
    object      U;
}
// * * * * * * * * * * * * * * * * * * * * * * * * * * * * * * * * * * * * * //

dimensions      [0 1 -1 0 0 0 0];

internalField   nonuniform List<vector> 
2413
(
(2 5.54843e-16 0)
(2 5.66465e-16 0)
(2 4.64124e-16 0)
(2 3.67307e-16 0)
(2 1.94633e-16 0)
(2 -2.844e-17 0)
(2 -2.77729e-16 0)
(2 -3.02103e-16 0)
(2 -1.92533e-16 0)
(2 -2.76578e-16 0)
(2 1.21971e-16 0)
(2 -2.62128e-16 0)
(2 -4.36514e-16 0)
(2 -3.83924e-16 0)
(2 -1.20078e-16 0)
(2 3.09742e-17 0)
(2 -1.8601e-16 0)
(2 -2.23089e-16 0)
(2 -3.81656e-16 0)
(2 -7.08042e-16 0)
(2 -1.0891e-15 0)
(2 -1.623e-15 0)
(2 -2.06114e-15 0)
(2 -2.42734e-15 0)
(2 -2.54146e-15 0)
(2 -2.50569e-15 0)
(2 -2.44031e-15 0)
(2 -2.5702e-15 0)
(2 -2.47681e-15 0)
(2 -2.2933e-15 0)
(2 -2.17525e-15 0)
(2 -2.0671e-15 0)
(2 -1.91019e-15 0)
(2 -1.49428e-15 0)
(2 -1.10385e-15 0)
(2 -1.31288e-15 0)
(2 -1.59245e-15 0)
(2 -1.77186e-15 0)
(2 -1.7606e-15 0)
(2 -1.70794e-15 0)
(2 -1.44373e-15 0)
(2 -1.30613e-15 0)
(2 -1.58217e-15 0)
(2 -1.77995e-15 0)
(2 -1.77437e-15 0)
(2 -1.51888e-15 0)
(2 -1.27324e-15 0)
(2 -9.51215e-16 0)
(2 -1.02368e-15 0)
(2 -5.6893e-16 0)
(2 -6.65811e-16 0)
(2 -1.83343e-16 0)
(2 3.22724e-16 0)
(2 9.18145e-16 0)
(2 1.12208e-15 0)
(2 1.668e-15 0)
(2 2.07538e-15 0)
(2 2.19283e-15 0)
(2 2.14367e-15 0)
(2 2.03075e-15 0)
(2 1.97626e-15 0)
(2 1.99788e-15 0)
(2 2.14921e-15 0)
(2 2.22615e-15 0)
(2 2.08838e-15 0)
(2 1.8176e-15 0)
(2 1.56805e-15 0)
(2 1.25916e-15 0)
(2 9.27858e-16 0)
(2 2.02156e-16 0)
(2 -2.72371e-16 0)
(2 -4.72219e-16 0)
(2 -7.74407e-16 0)
(2 -1.09457e-15 0)
(2 -1.12591e-15 0)
(2 -1.19578e-15 0)
(2 -1.02627e-15 0)
(2 -8.73358e-16 0)
(2 -6.79071e-16 0)
(2 -7.18533e-16 0)
(2 -6.80276e-16 0)
(2 -6.48545e-16 0)
(2 -6.53868e-16 0)
(2 -6.37721e-16 0)
(2 -5.53265e-16 0)
(2 -6.64035e-16 0)
(2 -5.3626e-16 0)
(2 -4.41911e-16 0)
(2 -3.42961e-16 0)
(2 -2.95106e-16 0)
(2 -1.66497e-16 0)
(2 1.36672e-16 0)
(2 6.62662e-16 0)
(2 6.80133e-16 0)
(2 6.62396e-16 0)
(2 7.97492e-16 0)
(2 8.3927e-16 0)
(2 9.31711e-16 0)
(2 1.10206e-15 0)
(2 1.11797e-15 0)
(2 1.27876e-15 0)
(2 1.36299e-15 0)
(2 9.52085e-16 0)
(2 8.04478e-16 0)
(2 7.40956e-16 0)
(2 7.81184e-16 0)
(2 8.34277e-16 0)
(2 8.1436e-16 0)
(2 1.07938e-15 0)
(2 1.54161e-15 0)
(2 1.61511e-15 0)
(2 1.77694e-15 0)
(2 1.86785e-15 0)
(2 2.00197e-15 0)
(2 1.56298e-15 0)
(2 1.37054e-15 0)
(2 1.37509e-15 0)
(2 1.25706e-15 0)
(2 1.21825e-15 0)
(2 1.0086e-15 0)
(2 7.96661e-16 0)
(2 7.87215e-16 0)
(2 7.23497e-16 0)
(2 5.89416e-16 0)
(2 6.0126e-16 0)
(2 5.63944e-16 0)
(2 4.55817e-16 0)
(2 3.88258e-16 0)
(2 4.89888e-16 0)
(2 7.13385e-16 0)
(2 7.06123e-16 0)
(2 9.07601e-16 0)
(2 9.63361e-16 0)
(2 1.0048e-15 0)
(2 1.00549e-15 0)
(2 9.36214e-16 0)
(2 7.58097e-16 0)
(2 5.26075e-16 0)
(2 6.01286e-16 0)
(2 6.30488e-16 0)
(2 5.20846e-16 0)
(2 3.8337e-16 0)
(2 2.73108e-16 0)
(2 2.87231e-16 0)
(2 4.56998e-16 0)
(2 4.57062e-16 0)
(2 6.20638e-16 0)
(2 5.92793e-16 0)
(2 5.32686e-16 0)
(2 2.06462e-16 0)
(2 -1.84058e-16 0)
(2 -2.02769e-16 0)
(2 -4.92413e-16 0)
(2 -8.48727e-16 0)
(2 -9.44991e-16 0)
(2 -1.0502e-15 0)
(2 -1.12945e-15 0)
(2 -1.18486e-15 0)
(2 -1.10674e-15 0)
(2 -1.11756e-15 0)
(2 -1.09216e-15 0)
(2 -1.13278e-15 0)
(2 -1.28074e-15 0)
(2 -1.50934e-15 0)
(2 -1.67545e-15 0)
(2 -1.69996e-15 0)
(2 -1.38235e-15 0)
(2 -5.74162e-16 0)
(2 -4.43906e-16 0)
(2 -5.43391e-16 0)
(2 -5.36331e-16 0)
(2 -1.87769e-16 0)
(2 -1.89997e-16 0)
(2 -1.4962e-16 0)
(2 -2.94398e-16 0)
(2 -5.64805e-16 0)
(2 -5.78797e-16 0)
(2 -3.61419e-16 0)
(2 -1.07353e-16 0)
(2 3.29577e-16 0)
(2 5.21825e-16 0)
(2 4.66437e-16 0)
(2 9.37904e-16 0)
(2 1.40668e-15 0)
(2 1.70919e-15 0)
(2 2.35711e-15 0)
(2 2.50297e-15 0)
(2 2.71041e-15 0)
(2 2.4432e-15 0)
(2 2.18159e-15 0)
(2 2.00093e-15 0)
(2 1.61231e-15 0)
(2 1.13314e-15 0)
(2 7.10369e-16 0)
(2 3.93485e-16 0)
(2 5.58974e-18 0)
(2 -1.91363e-16 0)
(2 -3.67671e-16 0)
(2 -3.06215e-16 0)
(2 -3.36319e-17 0)
(2 -1.1891e-17 0)
(2 -1.49051e-16 0)
(2 -2.48076e-16 0)
(2 -3.41958e-16 0)
(2 -2.55261e-16 0)
(2 -1.95367e-16 0)
(2 -4.41584e-16 0)
(2 -3.90907e-16 0)
(2 -1.91671e-16 0)
(2 -1.70048e-16 0)
(2 -3.09556e-16 0)
(2 -3.92604e-16 0)
(2 -4.28369e-16 0)
(2 -7.08493e-16 0)
(2 -7.27553e-16 0)
(2 -8.71127e-16 0)
(2 -1.0306e-15 0)
(2 -1.23435e-15 0)
(2 -1.23121e-15 0)
(2 -8.34732e-16 0)
(2 -6.88615e-16 0)
(2 -8.00837e-16 0)
(2 -7.21847e-16 0)
(2 -1.04073e-16 0)
(2 2.37136e-16 0)
(2 2.34995e-16 0)
(2 7.09432e-16 0)
(2 2.43215e-15 0)
(2 2.16702e-15 0)
(2 2.09554e-15 0)
(2 2.11795e-15 0)
(2 1.92645e-15 0)
(2 1.41727e-15 0)
(2 5.02349e-16 0)
(2 1.93679e-16 0)
(2 4.60176e-17 0)
(2 9.38852e-17 0)
(2 7.93391e-17 0)
(2 1.50895e-16 0)
(2 1.78844e-16 0)
(2 2.90264e-16 0)
(2 3.70749e-16 0)
(2 4.48234e-16 0)
(2 6.77308e-16 0)
(2 8.08321e-16 0)
(2 1.0783e-15 0)
(2 9.96798e-16 0)
(2 9.02513e-16 0)
(2 6.4814e-16 0)
(2 6.71448e-16 0)
(2 5.889e-16 0)
(2 3.15861e-16 0)
(2 -4.77891e-17 0)
(2 -2.91306e-16 0)
(2 -6.31158e-16 0)
(2 -8.16642e-16 0)
(2 -7.69651e-16 0)
(2 -6.61213e-16 0)
(2 -6.00732e-16 0)
(2 -4.62533e-16 0)
(2 -3.51073e-16 0)
(2 -3.45262e-16 0)
(2 -2.75094e-16 0)
(2 2.31487e-17 0)
(2 1.25017e-16 0)
(2 2.26454e-16 0)
(2 2.14717e-16 0)
(2 3.89583e-16 0)
(2 5.85733e-16 0)
(2 7.07659e-16 0)
(2 6.77296e-16 0)
(2 5.52463e-16 0)
(2 5.25685e-16 0)
(2 7.03114e-16 0)
(2 8.10466e-16 0)
(2 8.02109e-16 0)
(2 7.45887e-16 0)
(2 5.69751e-16 0)
(2 5.75403e-16 0)
(2 4.53885e-16 0)
(2 3.46302e-16 0)
(2 2.09761e-16 0)
(2 6.49323e-17 0)
(2 -3.63539e-17 0)
(2 1.49608e-16 0)
(2 7.08114e-17 0)
(2 -4.26343e-18 0)
(2 5.29709e-17 0)
(2 -5.31008e-17 0)
(2 -2.53951e-16 0)
(2 -2.60055e-16 0)
(2 -7.64364e-17 0)
(2 -5.30384e-17 0)
(2 -6.14964e-16 0)
(2 -9.2245e-16 0)
(2 -1.14657e-15 0)
(2 -1.61668e-15 0)
(2 -1.83601e-15 0)
(2 -1.6474e-15 0)
(2 -1.42324e-15 0)
(2 -8.63375e-16 0)
(2 1.44643e-16 0)
(2 6.11426e-16 0)
(2 4.90129e-16 0)
(2 4.47015e-16 0)
(2 -1.02046e-16 0)
(2 -7.64074e-17 0)
(2 5.18914e-16 0)
(2 1.22709e-15 0)
(2 1.82481e-15 0)
(2 1.96691e-15 0)
(2 1.97282e-15 0)
(2 1.77749e-15 0)
(2 1.7749e-15 0)
(2 1.6928e-15 0)
(2 1.51466e-15 0)
(2 1.52786e-15 0)
(2 1.76096e-15 0)
(2 1.88022e-15 0)
(2 1.69108e-15 0)
(2 1.6626e-15 0)
(2 1.49227e-15 0)
(2 1.29066e-15 0)
(2 8.64611e-16 0)
(2 6.05996e-16 0)
(2 -4.10579e-16 0)
(2 -6.86998e-16 0)
(2 -7.6512e-16 0)
(2 -5.9482e-16 0)
(2 -5.17502e-16 0)
(2 -5.8504e-16 0)
(2 -6.69738e-16 0)
(2 -5.88581e-16 0)
(2 -3.39163e-16 0)
(2 -3.50346e-16 0)
(2 -4.43703e-16 0)
(2 -3.73162e-16 0)
(2 -1.90679e-16 0)
(2 -1.81216e-16 0)
(2 -2.6731e-16 0)
(2 -2.97241e-16 0)
(2 -7.10467e-16 0)
(2 -5.95505e-16 0)
(2 -3.87918e-16 0)
(2 -3.70673e-16 0)
(2 -2.70437e-16 0)
(2 -2.26387e-16 0)
(2 -1.87847e-16 0)
(2 -1.43182e-16 0)
(2 -7.19488e-17 0)
(2 -1.77723e-17 0)
(2 5.4742e-16 0)
(2 8.07907e-16 0)
(2 1.16615e-15 0)
(2 1.52241e-15 0)
(2 1.70538e-15 0)
(2 1.64342e-15 0)
(2 1.5007e-15 0)
(2 1.40242e-15 0)
(2 1.52214e-15 0)
(2 1.8337e-15 0)
(2 1.89347e-15 0)
(2 1.87852e-15 0)
(2 1.61035e-15 0)
(2 1.22157e-15 0)
(2 1.32529e-15 0)
(2 1.49006e-15 0)
(2 1.46567e-15 0)
(2 1.43693e-15 0)
(2 1.50715e-15 0)
(2 1.66472e-15 0)
(2 1.98904e-15 0)
(2 2.11069e-15 0)
(2 2.08586e-15 0)
(2 2.14465e-15 0)
(2 2.14987e-15 0)
(2 2.23578e-15 0)
(2 2.02803e-15 0)
(2 1.81828e-15 0)
(2 1.58941e-15 0)
(2 1.33226e-15 0)
(2 1.15402e-15 0)
(2 8.97297e-16 0)
(2 9.79019e-16 0)
(2 8.25946e-16 0)
(2 6.2431e-16 0)
(2 3.90098e-16 0)
(2 1.36528e-16 0)
(2 -7.73065e-17 0)
(2 -2.62903e-16 0)
(2 -2.78811e-16 0)
(2 -3.65737e-16 0)
(2 -4.86278e-16 0)
(2 -6.61305e-16 0)
(2 -6.86872e-16 0)
(2 -7.58905e-16 0)
(2 -8.34014e-16 0)
(2 -7.95211e-16 0)
(2 -4.62231e-16 0)
(2 -3.4762e-16 0)
(2 -3.38483e-16 0)
(2 -3.74615e-16 0)
(2 -5.13784e-16 0)
(2 -6.1746e-16 0)
(2 -5.09793e-16 0)
(2 -4.11742e-16 0)
(2 -3.13976e-16 0)
(2 -5.20658e-16 0)
(2 -4.98848e-16 0)
(2 -3.57471e-16 0)
(2 -4.67763e-18 0)
(2 4.15845e-16 0)
(2 1.72341e-15 0)
(2 2.31962e-15 0)
(2 2.00985e-15 0)
(2 1.40611e-15 0)
(2 1.27496e-15 0)
(2 6.58066e-16 0)
(2 2.8582e-17 0)
(2 -4.21549e-16 0)
(2 -1.2024e-15 0)
(2 -1.7605e-15 0)
(2 -1.95286e-15 0)
(2 -2.01032e-15 0)
(2 -2.10556e-15 0)
(2 -2.15071e-15 0)
(2 -2.14435e-15 0)
(2 -2.29103e-15 0)
(2 -2.20245e-15 0)
(2 -2.09113e-15 0)
(2 -1.89936e-15 0)
(2 -1.82745e-15 0)
(2 -1.52727e-15 0)
(2 -8.75781e-16 0)
(2 -6.43316e-16 0)
(2 -7.14558e-16 0)
(2 -7.58877e-16 0)
(2 -2.88011e-16 0)
(2 1.33949e-16 0)
(2 2.13984e-16 0)
(2 7.75989e-17 0)
(2 4.83893e-17 0)
(2 -3.92403e-18 0)
(2 -1.19923e-16 0)
(2 -2.26783e-16 0)
(2 -8.8643e-17 0)
(2 6.00021e-16 0)
(2 7.5281e-16 0)
(2 6.01791e-16 0)
(2 4.52958e-16 0)
(2 1.11195e-15 0)
(2 1.7532e-15 0)
(2 1.40275e-15 0)
(2 1.12028e-15 0)
(2 5.40523e-16 0)
(2 1.02067e-16 0)
(2 -2.81129e-16 0)
(2 -4.23739e-16 0)
(2 -5.53099e-16 0)
(2 -3.02397e-16 0)
(2 2.90313e-16 0)
(2 4.48349e-16 0)
(2 3.89352e-16 0)
(2 1.50348e-16 0)
(2 -2.52645e-16 0)
(2 -6.13314e-16 0)
(2 -7.87383e-16 0)
(2 -3.31706e-16 0)
(2 -1.62362e-16 0)
(2 -4.2848e-16 0)
(2 -3.31473e-16 0)
(2 -2.48468e-16 0)
(2 -3.75569e-16 0)
(2 -6.58016e-16 0)
(2 -8.15636e-16 0)
(2 -8.90509e-16 0)
(2 -9.78367e-16 0)
(2 -9.09849e-16 0)
(2 -9.78429e-16 0)
(2 -5.82579e-16 0)
(2 -6.86862e-17 0)
(2 4.61745e-16 0)
(2 1.05976e-15 0)
(2 1.52307e-15 0)
(2 2.14069e-15 0)
(2 2.53396e-15 0)
(2 2.70384e-15 0)
(2 2.64636e-15 0)
(2 2.98113e-15 0)
(2 3.19638e-15 0)
(2 3.41413e-15 0)
(2 1.34307e-15 0)
(2 1.64921e-15 0)
(2 1.66492e-15 0)
(2 1.46923e-15 0)
(2 1.47184e-15 0)
(2 1.42252e-15 0)
(2 1.27341e-15 0)
(2 2.3799e-15 0)
(2 2.85184e-15 0)
(2 2.92451e-15 0)
(2 3.04224e-15 0)
(2 3.04454e-15 0)
(2 3.02416e-15 0)
(2 2.89875e-15 0)
(2 2.84835e-15 0)
(2 2.79742e-15 0)
(2 2.60394e-15 0)
(2 2.43246e-15 0)
(2 2.30435e-15 0)
(2 2.11956e-15 0)
(2 1.88955e-15 0)
(2 1.65038e-15 0)
(2 1.51759e-15 0)
(2 1.65416e-15 0)
(2 1.74825e-15 0)
(2 1.6436e-15 0)
(2 1.6394e-15 0)
(2 1.82088e-15 0)
(2 1.59423e-15 0)
(2 1.43954e-15 0)
(2 1.20673e-15 0)
(2 1.17541e-15 0)
(2 1.0032e-15 0)
(2 6.61678e-16 0)
(2 2.5198e-16 0)
(2 -1.73477e-17 0)
(2 -2.71431e-16 0)
(2 -3.92965e-16 0)
(2 -4.00847e-16 0)
(2 -3.84574e-16 0)
(2 -5.37315e-16 0)
(2 -5.94528e-16 0)
(2 -6.12238e-16 0)
(2 -7.07066e-16 0)
(2 -1.03362e-15 0)
(2 -1.12339e-15 0)
(2 -7.48863e-16 0)
(2 -6.12837e-16 0)
(2 -2.99658e-16 0)
(2 -3.40333e-16 0)
(2 -3.96507e-16 0)
(2 -4.05773e-16 0)
(2 -4.48457e-16 0)
(2 -4.41139e-16 0)
(2 -5.66646e-16 0)
(2 -8.63769e-16 0)
(2 -9.97729e-16 0)
(2 -9.8011e-16 0)
(2 -1.04701e-15 0)
(2 -1.10531e-15 0)
(2 -1.40672e-15 0)
(2 -1.85282e-15 0)
(2 -1.71464e-15 0)
(2 -1.42578e-15 0)
(2 -1.66998e-15 0)
(2 -2.29874e-15 0)
(2 -2.32673e-15 0)
(2 -2.14371e-15 0)
(2 -2.0564e-15 0)
(2 -1.76828e-15 0)
(2 -1.51343e-15 0)
(2 -1.31245e-15 0)
(2 -1.32443e-15 0)
(2 -1.34455e-15 0)
(2 -1.48637e-15 0)
(2 -1.35163e-15 0)
(2 -1.28627e-15 0)
(2 -9.51824e-16 0)
(2 6.90091e-17 0)
(2 8.11077e-16 0)
(2 9.75518e-16 0)
(2 6.11934e-16 0)
(2 5.40553e-16 0)
(2 6.48069e-16 0)
(2 7.40407e-16 0)
(2 7.78796e-16 0)
(2 8.09728e-16 0)
(2 1.1376e-15 0)
(2 9.83628e-16 0)
(2 8.81336e-16 0)
(2 9.80108e-16 0)
(2 1.20348e-15 0)
(2 1.13583e-15 0)
(2 1.1928e-15 0)
(2 1.15313e-15 0)
(2 1.11351e-15 0)
(2 1.18925e-15 0)
(2 1.20948e-15 0)
(2 1.16531e-15 0)
(2 1.24528e-15 0)
(2 1.19116e-15 0)
(2 9.45613e-16 0)
(2 7.30442e-16 0)
(2 6.47801e-16 0)
(2 6.67882e-16 0)
(2 5.7815e-16 0)
(2 4.30008e-16 0)
(2 4.71296e-16 0)
(2 3.8849e-16 0)
(2 1.12e-16 0)
(2 -1.54926e-16 0)
(2 -3.52699e-16 0)
(2 -4.22278e-16 0)
(2 -5.18551e-16 0)
(2 -6.8073e-16 0)
(2 -1.26769e-15 0)
(2 -1.6651e-15 0)
(2 -1.87738e-15 0)
(2 -2.13035e-15 0)
(2 -2.34182e-15 0)
(2 -2.49266e-15 0)
(2 -2.4742e-15 0)
(2 -2.07349e-15 0)
(2 -1.77814e-15 0)
(2 -1.29886e-15 0)
(2 -1.0327e-15 0)
(2 -6.70774e-16 0)
(2 -2.52845e-16 0)
(2 1.08148e-16 0)
(2 4.25864e-16 0)
(2 7.082e-17 0)
(2 1.56262e-16 0)
(2 1.76066e-15 0)
(2 1.35618e-15 0)
(2 8.49611e-16 0)
(2 4.79651e-16 0)
(2 4.93775e-16 0)
(2 1.12259e-15 0)
(2 1.79748e-15 0)
(2 2.05211e-15 0)
(2 2.1568e-15 0)
(2 2.39208e-15 0)
(2 2.55749e-15 0)
(2 2.67777e-15 0)
(2 2.62482e-15 0)
(2 2.5359e-15 0)
(2 2.42658e-15 0)
(2 2.06318e-15 0)
(2 1.64778e-15 0)
(2 1.56758e-15 0)
(2 1.43472e-15 0)
(2 1.15177e-15 0)
(2 1.07371e-15 0)
(2 1.0251e-15 0)
(2 8.75984e-16 0)
(2 7.23578e-16 0)
(2 5.82138e-16 0)
(2 5.18723e-16 0)
(2 4.41107e-16 0)
(2 3.11621e-16 0)
(2 2.65614e-16 0)
(2 1.50327e-16 0)
(2 -6.33413e-17 0)
(2 -5.36489e-17 0)
(2 -1.62514e-16 0)
(2 -4.43933e-16 0)
(2 -6.1877e-16 0)
(2 -7.67385e-16 0)
(2 -8.45089e-16 0)
(2 -9.97101e-16 0)
(2 -9.74041e-16 0)
(2 -1.06679e-15 0)
(2 -1.17082e-15 0)
(2 -1.12992e-15 0)
(2 -1.00804e-15 0)
(2 -7.04928e-16 0)
(2 -3.75541e-16 0)
(2 -2.5799e-16 0)
(2 -3.3087e-16 0)
(2 -3.54416e-16 0)
(2 -4.29008e-16 0)
(2 -7.15259e-16 0)
(2 -1.02913e-15 0)
(2 -1.02592e-15 0)
(2 -1.09747e-15 0)
(2 -2.16466e-15 0)
(2 -2.95849e-15 0)
(2 -2.94047e-15 0)
(2 -2.81488e-15 0)
(2 -2.56761e-15 0)
(2 -2.49532e-15 0)
(2 -2.38981e-15 0)
(2 -2.46652e-15 0)
(2 -2.68077e-15 0)
(2 -2.65725e-15 0)
(2 -1.87158e-15 0)
(2 -1.82624e-15 0)
(2 -1.88505e-15 0)
(2 -1.91775e-15 0)
(2 -1.92465e-15 0)
(2 -1.723e-15 0)
(2 -1.2896e-15 0)
(2 -1.1666e-15 0)
(2 -1.18404e-15 0)
(2 -1.06919e-15 0)
(2 -1.19467e-15 0)
(2 -9.77023e-16 0)
(2 -2.77254e-16 0)
(2 1.68103e-16 0)
(2 3.13643e-16 0)
(2 5.9928e-16 0)
(2 7.0301e-16 0)
(2 1.10259e-15 0)
(2 1.84242e-15 0)
(2 1.93102e-15 0)
(2 1.82679e-15 0)
(2 1.8719e-15 0)
(2 2.35752e-15 0)
(2 2.38239e-15 0)
(2 2.33342e-15 0)
(2 2.24873e-15 0)
(2 2.03514e-15 0)
(2 1.35341e-15 0)
(2 9.10495e-16 0)
(2 4.87286e-16 0)
(2 4.99684e-16 0)
(2 5.31298e-16 0)
(2 6.71698e-16 0)
(2 8.94991e-16 0)
(2 1.20461e-15 0)
(2 1.3773e-15 0)
(2 1.5206e-15 0)
(2 8.89948e-16 0)
(2 5.97998e-16 0)
(2 5.58272e-16 0)
(2 6.10795e-16 0)
(2 6.45084e-16 0)
(2 7.75276e-16 0)
(2 8.52283e-16 0)
(2 9.43394e-16 0)
(2 7.03348e-16 0)
(2 1.86263e-16 0)
(2 -5.10819e-17 0)
(2 -3.24034e-16 0)
(2 -6.51136e-16 0)
(2 -8.16875e-16 0)
(2 -1.03892e-15 0)
(2 -1.2446e-15 0)
(2 -2.05818e-15 0)
(2 -2.10798e-15 0)
(2 -2.12978e-15 0)
(2 -2.14641e-15 0)
(2 -1.99669e-15 0)
(2 -1.85225e-15 0)
(2 -1.7131e-15 0)
(2 -1.52697e-15 0)
(2 -1.46672e-15 0)
(2 -1.43558e-15 0)
(2 -1.19761e-15 0)
(2 -8.55009e-16 0)
(2 -5.02382e-16 0)
(2 -3.37548e-16 0)
(2 -5.26389e-16 0)
(2 -1.04323e-15 0)
(2 2.64376e-15 0)
(2 2.13226e-15 0)
(2 2.07339e-15 0)
(2 2.16112e-15 0)
(2 2.23876e-15 0)
(2 2.28531e-15 0)
(2 2.22478e-15 0)
(2 2.19544e-15 0)
(2 2.26249e-15 0)
(2 2.46016e-15 0)
(2 2.48814e-15 0)
(2 2.26292e-15 0)
(2 1.68368e-15 0)
(2 8.74048e-16 0)
(2 5.66611e-16 0)
(2 4.01114e-16 0)
(2 1.62609e-16 0)
(2 -9.80906e-18 0)
(2 -5.9186e-17 0)
(2 6.87092e-17 0)
(2 4.38456e-17 0)
(2 2.66748e-16 0)
(2 4.93356e-16 0)
(2 5.15087e-16 0)
(2 3.6784e-16 0)
(2 2.5431e-16 0)
(2 1.18459e-16 0)
(2 -8.99798e-17 0)
(2 -3.5708e-16 0)
(2 -4.82568e-16 0)
(2 -7.38438e-16 0)
(2 -8.63652e-16 0)
(2 -8.42374e-16 0)
(2 -7.46405e-16 0)
(2 -6.66521e-16 0)
(2 -5.85805e-16 0)
(2 -6.77351e-16 0)
(2 -1.15974e-15 0)
(2 -1.24958e-15 0)
(2 -1.28567e-15 0)
(2 -1.29154e-15 0)
(2 -1.25795e-15 0)
(2 -1.14865e-15 0)
(2 -9.92384e-16 0)
(2 -6.82669e-16 0)
(2 -5.33093e-16 0)
(2 -5.15319e-16 0)
(2 -5.7088e-16 0)
(2 -9.56314e-16 0)
(2 -1.11443e-15 0)
(2 -1.23718e-15 0)
(2 -1.55951e-15 0)
(2 -1.99938e-15 0)
(2 -2.71372e-15 0)
(2 -3.08992e-15 0)
(2 -3.21763e-15 0)
(2 -3.2586e-15 0)
(2 -3.05725e-15 0)
(2 -2.27085e-15 0)
(2 -2.11369e-15 0)
(2 -2.05569e-15 0)
(2 -2.10316e-15 0)
(2 -2.81544e-15 0)
(2 -3.13605e-15 0)
(2 -3.62844e-15 0)
(2 -3.74185e-15 0)
(2 -3.29038e-15 0)
(2 -2.88832e-15 0)
(2 -2.1027e-15 0)
(2 -2.05375e-15 0)
(2 -1.43429e-15 0)
(2 -1.36733e-15 0)
(2 -1.11378e-15 0)
(2 -6.98844e-16 0)
(2 -2.4178e-16 0)
(2 -1.91128e-17 0)
(2 -2.37045e-16 0)
(2 -5.6098e-16 0)
(2 -3.19845e-16 0)
(2 3.56176e-16 0)
(2 1.79155e-15 0)
(2 2.93975e-15 0)
(2 3.18382e-15 0)
(2 3.16364e-15 0)
(2 3.23791e-15 0)
(2 2.6737e-15 0)
(2 2.30933e-15 0)
(2 2.26414e-15 0)
(2 2.75482e-15 0)
(2 2.20148e-15 0)
(2 1.81241e-15 0)
(2 1.44157e-15 0)
(2 1.31872e-15 0)
(2 1.00487e-15 0)
(2 1.03307e-15 0)
(2 1.01238e-15 0)
(2 1.06159e-15 0)
(2 9.65093e-16 0)
(2 9.00432e-16 0)
(2 4.23273e-16 0)
(2 3.72149e-17 0)
(2 -4.11642e-17 0)
(2 2.3726e-16 0)
(2 2.56967e-16 0)
(2 2.49593e-16 0)
(2 2.32991e-16 0)
(2 3.36254e-16 0)
(2 4.33858e-16 0)
(2 4.44332e-16 0)
(2 3.36099e-16 0)
(2 1.82432e-16 0)
(2 1.19689e-16 0)
(2 1.47381e-16 0)
(2 2.23509e-16 0)
(2 3.58383e-16 0)
(2 3.29172e-16 0)
(2 4.14533e-16 0)
(2 9.65481e-16 0)
(2 1.42593e-15 0)
(2 1.6156e-15 0)
(2 1.82504e-15 0)
(2 2.29159e-15 0)
(2 2.35992e-15 0)
(2 2.10095e-15 0)
(2 1.58339e-15 0)
(2 1.48374e-15 0)
(2 1.5547e-15 0)
(2 1.01651e-15 0)
(2 2.97978e-16 0)
(2 -3.18799e-17 0)
(2 -5.05523e-17 0)
(2 -1.85405e-16 0)
(2 1.02707e-15 0)
(2 1.27107e-15 0)
(2 1.3418e-15 0)
(2 1.50656e-15 0)
(2 1.25862e-15 0)
(2 1.08176e-15 0)
(2 9.83778e-16 0)
(2 1.5839e-15 0)
(2 1.93332e-15 0)
(2 1.84502e-15 0)
(2 1.34451e-15 0)
(2 -9.0887e-18 0)
(2 -1.83971e-16 0)
(2 -6.44389e-16 0)
(2 -1.04098e-15 0)
(2 -1.21758e-15 0)
(2 -1.21307e-15 0)
(2 -1.30952e-15 0)
(2 -1.20679e-15 0)
(2 -7.26093e-16 0)
(2 -3.59028e-16 0)
(2 -7.45822e-17 0)
(2 2.70641e-17 0)
(2 1.94439e-16 0)
(2 3.55346e-16 0)
(2 3.08261e-16 0)
(2 3.83475e-16 0)
(2 2.7838e-16 0)
(2 3.37686e-16 0)
(2 2.59134e-16 0)
(2 3.4518e-16 0)
(2 3.39088e-16 0)
(2 2.00795e-16 0)
(2 1.78242e-16 0)
(2 -2.12108e-16 0)
(2 -3.75153e-16 0)
(2 -5.41842e-16 0)
(2 -7.56202e-16 0)
(2 -9.46345e-16 0)
(2 -1.18229e-15 0)
(2 -1.19428e-15 0)
(2 -1.13948e-15 0)
(2 -1.08683e-15 0)
(2 -8.1963e-16 0)
(2 -7.40011e-16 0)
(2 -6.46161e-16 0)
(2 -5.69129e-16 0)
(2 -4.5383e-16 0)
(2 -3.94244e-16 0)
(2 -5.27398e-16 0)
(2 -7.48878e-16 0)
(2 -9.76815e-16 0)
(2 -1.33515e-15 0)
(2 -1.64728e-15 0)
(2 -1.93125e-15 0)
(2 -2.08996e-15 0)
(2 -2.17551e-15 0)
(2 -2.10172e-15 0)
(2 -1.98144e-15 0)
(2 -1.72905e-15 0)
(2 -1.50842e-15 0)
(2 -1.2369e-15 0)
(2 -1.05856e-15 0)
(2 -1.02366e-15 0)
(2 -1.06274e-15 0)
(2 -1.10849e-15 0)
(2 -1.23092e-15 0)
(2 -1.28647e-15 0)
(2 -1.0786e-15 0)
(2 -1.05066e-15 0)
(2 -8.5327e-16 0)
(2 -5.13613e-16 0)
(2 -5.04902e-16 0)
(2 -7.87987e-16 0)
(2 -8.42371e-16 0)
(2 -9.31711e-16 0)
(2 -1.11972e-15 0)
(2 -1.24417e-15 0)
(2 -1.30376e-15 0)
(2 -1.28984e-15 0)
(2 -1.09833e-15 0)
(2 -9.51788e-16 0)
(2 1.37448e-16 0)
(2 5.68989e-16 0)
(2 5.62609e-16 0)
(2 1.7936e-16 0)
(2 -1.67896e-16 0)
(2 -3.09296e-16 0)
(2 -2.0722e-16 0)
(2 -5.38104e-17 0)
(2 -1.67244e-16 0)
(2 -2.89922e-16 0)
(2 -3.07915e-16 0)
(2 -2.74647e-16 0)
(2 -1.8656e-16 0)
(2 1.59457e-16 0)
(2 4.70081e-16 0)
(2 5.08443e-16 0)
(2 -2.05581e-16 0)
(2 -3.49442e-16 0)
(2 -4.44112e-17 0)
(2 1.81315e-16 0)
(2 1.41142e-16 0)
(2 4.52368e-17 0)
(2 1.80948e-16 0)
(2 2.11741e-16 0)
(2 -1.25155e-17 0)
(2 -1.29038e-16 0)
(2 -7.00155e-17 0)
(2 3.91613e-17 0)
(2 1.80143e-16 0)
(2 3.84503e-16 0)
(2 6.4393e-16 0)
(2 5.33297e-16 0)
(2 5.82271e-16 0)
(2 8.46062e-16 0)
(2 1.1331e-15 0)
(2 1.66416e-15 0)
(2 1.96632e-15 0)
(2 2.02895e-15 0)
(2 1.95706e-15 0)
(2 1.82631e-15 0)
(2 1.77641e-15 0)
(2 1.48516e-15 0)
(2 1.23609e-15 0)
(2 1.01863e-15 0)
(2 1.05509e-15 0)
(2 6.91795e-16 0)
(2 3.95178e-16 0)
(2 7.84844e-17 0)
(2 2.3101e-16 0)
(2 4.68291e-16 0)
(2 -1.54183e-15 0)
(2 -1.29975e-15 0)
(2 -8.80076e-16 0)
(2 -9.55577e-16 0)
(2 -7.78029e-16 0)
(2 -5.65324e-16 0)
(2 2.47248e-16 0)
(2 5.5842e-16 0)
(2 6.59403e-16 0)
(2 5.80549e-16 0)
(2 3.6632e-16 0)
(2 2.09589e-16 0)
(2 5.85766e-17 0)
(2 2.90389e-16 0)
(2 3.48478e-16 0)
(2 2.88695e-16 0)
(2 1.96962e-16 0)
(2 -5.01706e-17 0)
(2 -2.25239e-16 0)
(2 -3.46765e-16 0)
(2 -4.33039e-16 0)
(2 -3.31028e-16 0)
(2 -3.72859e-16 0)
(2 -4.04105e-16 0)
(2 -3.88256e-16 0)
(2 -3.35045e-16 0)
(2 -3.68712e-16 0)
(2 -3.29735e-16 0)
(2 -3.30534e-16 0)
(2 -3.84202e-16 0)
(2 -1.70687e-16 0)
(2 6.44592e-16 0)
(2 1.03745e-15 0)
(2 1.18379e-15 0)
(2 1.44341e-15 0)
(2 1.3507e-15 0)
(2 1.11678e-15 0)
(2 9.38252e-16 0)
(2 4.92882e-16 0)
(2 2.52599e-16 0)
(2 2.19543e-16 0)
(2 2.05999e-16 0)
(2 1.25029e-16 0)
(2 2.66991e-17 0)
(2 -1.97523e-17 0)
(2 -1.12895e-16 0)
(2 1.25641e-16 0)
(2 5.56411e-16 0)
(2 9.7591e-16 0)
(2 1.20755e-15 0)
(2 9.60581e-16 0)
(2 9.1484e-17 0)
(2 5.53633e-16 0)
(2 6.30215e-16 0)
(2 6.95802e-16 0)
(2 6.3366e-16 0)
(2 4.06653e-16 0)
(2 3.29706e-16 0)
(2 2.50746e-17 0)
(2 -1.49663e-16 0)
(2 -2.22856e-16 0)
(2 -7.92151e-17 0)
(2 1.55971e-16 0)
(2 2.68061e-16 0)
(2 3.46468e-16 0)
(2 3.75326e-16 0)
(2 2.94885e-16 0)
(2 1.23441e-16 0)
(2 -9.57928e-18 0)
(2 -1.8903e-16 0)
(2 -4.54219e-16 0)
(2 -4.52812e-16 0)
(2 -5.60024e-16 0)
(2 -8.39197e-16 0)
(2 -9.93369e-16 0)
(2 -1.37336e-15 0)
(2 -1.42301e-15 0)
(2 -1.60189e-15 0)
(2 -1.99832e-15 0)
(2 -2.37176e-15 0)
(2 -2.80132e-15 0)
(2 -2.73314e-15 0)
(2 -2.70113e-15 0)
(2 -2.47345e-15 0)
(2 -2.23356e-15 0)
(2 -2.24455e-15 0)
(2 -2.21225e-15 0)
(2 -2.32611e-15 0)
(2 -2.35843e-15 0)
(2 -2.32166e-15 0)
(2 -2.38718e-15 0)
(2 -2.22206e-15 0)
(2 -1.89048e-15 0)
(2 -1.6426e-15 0)
(2 -1.43553e-15 0)
(2 -1.4099e-15 0)
(2 -1.4793e-15 0)
(2 -1.4025e-15 0)
(2 -1.23112e-15 0)
(2 -9.70671e-16 0)
(2 -6.33877e-16 0)
(2 -5.61981e-16 0)
(2 -7.26702e-16 0)
(2 -8.50511e-16 0)
(2 -8.58419e-16 0)
(2 -8.196e-16 0)
(2 -9.41386e-16 0)
(2 -8.11175e-16 0)
(2 -6.1164e-16 0)
(2 -5.86023e-16 0)
(2 -4.80246e-16 0)
(2 1.11845e-16 0)
(2 1.76493e-16 0)
(2 3.78802e-16 0)
(2 4.19326e-16 0)
(2 5.03509e-16 0)
(2 5.14681e-16 0)
(2 9.26197e-16 0)
(2 1.18505e-15 0)
(2 5.91824e-16 0)
(2 6.88789e-18 0)
(2 -5.84125e-17 0)
(2 -7.40337e-17 0)
(2 -1.48233e-16 0)
(2 -1.36462e-17 0)
(2 3.82973e-17 0)
(2 4.38226e-16 0)
(2 7.6242e-16 0)
(2 9.8607e-16 0)
(2 1.02416e-15 0)
(2 9.39941e-16 0)
(2 9.25684e-16 0)
(2 -1.4647e-15 0)
(2 -1.62865e-15 0)
(2 -2.28613e-15 0)
(2 -2.20887e-15 0)
(2 -4.73009e-16 0)
(2 1.04896e-15 0)
(2 1.05612e-15 0)
(2 4.87752e-16 0)
(2 -1.98804e-16 0)
(2 -4.99364e-16 0)
(2 -4.0083e-16 0)
(2 -1.52167e-16 0)
(2 3.67911e-17 0)
(2 3.96276e-16 0)
(2 6.4173e-16 0)
(2 6.14919e-16 0)
(2 5.17141e-16 0)
(2 4.18787e-16 0)
(2 4.2528e-16 0)
(2 4.94491e-16 0)
(2 6.03302e-16 0)
(2 7.56026e-16 0)
(2 8.39827e-16 0)
(2 7.96756e-16 0)
(2 8.31563e-16 0)
(2 8.51469e-16 0)
(2 7.85553e-16 0)
(2 8.0557e-16 0)
(2 8.5529e-16 0)
(2 9.88143e-16 0)
(2 1.01048e-15 0)
(2 9.47223e-16 0)
(2 9.60015e-16 0)
(2 1.10172e-15 0)
(2 1.29308e-15 0)
(2 1.41869e-15 0)
(2 1.7125e-15 0)
(2 1.75235e-15 0)
(2 1.70385e-15 0)
(2 1.71795e-15 0)
(2 2.27781e-15 0)
(2 2.55608e-15 0)
(2 2.68626e-15 0)
(2 2.4523e-15 0)
(2 2.04239e-15 0)
(2 1.82614e-15 0)
(2 1.67005e-15 0)
(2 1.49625e-15 0)
(2 1.32004e-15 0)
(2 1.27374e-15 0)
(2 1.42561e-15 0)
(2 1.37552e-15 0)
(2 1.16744e-15 0)
(2 1.1576e-15 0)
(2 1.1697e-15 0)
(2 1.02218e-15 0)
(2 1.04095e-15 0)
(2 9.2704e-16 0)
(2 1.14654e-15 0)
(2 1.26756e-15 0)
(2 9.2712e-16 0)
(2 5.58924e-16 0)
(2 6.15519e-16 0)
(2 7.20119e-16 0)
(2 9.36686e-16 0)
(2 1.05804e-15 0)
(2 1.30437e-15 0)
(2 5.99603e-16 0)
(2 2.17209e-16 0)
(2 6.62065e-17 0)
(2 1.05092e-16 0)
(2 -1.27923e-16 0)
(2 -2.41963e-16 0)
(2 -1.01671e-15 0)
(2 -1.2961e-15 0)
(2 -1.68523e-15 0)
(2 -2.23193e-15 0)
(2 -2.30356e-15 0)
(2 -3.01517e-15 0)
(2 -3.68165e-15 0)
(2 -3.831e-15 0)
(2 -3.92578e-15 0)
(2 -3.86015e-15 0)
(2 -3.8634e-15 0)
(2 -3.65876e-15 0)
(2 -3.09233e-15 0)
(2 -2.67439e-15 0)
(2 -2.75703e-15 0)
(2 -2.92222e-15 0)
(2 -3.15379e-15 0)
(2 -2.9687e-15 0)
(2 -2.64442e-15 0)
(2 -2.35358e-15 0)
(2 -2.05886e-15 0)
(2 -1.75915e-15 0)
(2 -1.59657e-15 0)
(2 -1.15324e-15 0)
(2 -9.55429e-16 0)
(2 -9.80287e-16 0)
(2 -8.96611e-16 0)
(2 -4.93287e-16 0)
(2 -1.84995e-16 0)
(2 -9.42371e-17 0)
(2 -3.16174e-16 0)
(2 -4.57924e-16 0)
(2 -9.17562e-16 0)
(2 -1.07496e-15 0)
(2 -1.0972e-15 0)
(2 -1.0327e-15 0)
(2 -9.52262e-16 0)
(2 -9.28879e-16 0)
(2 -7.34697e-16 0)
(2 -1.57667e-16 0)
(2 -1.20986e-16 0)
(2 9.88738e-16 0)
(2 1.46481e-15 0)
(2 1.68313e-15 0)
(2 1.36259e-15 0)
(2 7.76693e-16 0)
(2 2.74976e-16 0)
(2 -1.78181e-16 0)
(2 -1.42268e-16 0)
(2 1.11079e-15 0)
(2 1.21327e-15 0)
(2 1.29899e-15 0)
(2 1.55451e-15 0)
(2 1.78557e-15 0)
(2 2.53089e-15 0)
(2 2.6909e-15 0)
(2 2.63474e-15 0)
(2 2.53701e-15 0)
(2 2.5406e-15 0)
(2 -7.15349e-16 0)
(2 -7.46587e-16 0)
(2 -1.01828e-15 0)
(2 -1.58442e-15 0)
(2 -2.14058e-15 0)
(2 -2.45366e-15 0)
(2 -3.231e-15 0)
(2 -3.28184e-15 0)
(2 -3.14365e-15 0)
(2 -2.93168e-15 0)
(2 -2.40688e-15 0)
(2 -1.95994e-15 0)
(2 -1.09053e-15 0)
(2 3.13159e-16 0)
(2 4.99078e-16 0)
(2 9.02327e-16 0)
(2 1.07639e-15 0)
(2 9.81679e-16 0)
(2 9.32596e-16 0)
(2 8.66392e-16 0)
(2 8.34554e-16 0)
(2 3.62349e-16 0)
(2 -1.203e-16 0)
(2 -4.34219e-16 0)
(2 -4.81815e-16 0)
(2 6.94167e-17 0)
(2 1.88822e-16 0)
(2 2.40659e-16 0)
(2 5.54247e-16 0)
(2 7.16682e-16 0)
(2 6.60592e-16 0)
(2 5.52275e-16 0)
(2 6.73651e-16 0)
(2 7.50836e-16 0)
(2 7.24233e-16 0)
(2 1.15852e-15 0)
(2 1.54772e-15 0)
(2 1.74214e-15 0)
(2 1.97313e-15 0)
(2 2.11717e-15 0)
(2 2.23098e-15 0)
(2 2.40604e-15 0)
(2 2.6957e-15 0)
(2 2.77774e-15 0)
(2 1.75035e-15 0)
(2 7.82972e-16 0)
(2 6.05566e-16 0)
(2 2.93873e-16 0)
(2 5.28995e-17 0)
(2 -1.14478e-16 0)
(2 -5.27095e-17 0)
(2 2.16868e-16 0)
(2 -1.4312e-16 0)
(2 -3.07133e-16 0)
(2 -3.48265e-16 0)
(2 -4.06864e-16 0)
(2 -4.32663e-16 0)
(2 -3.66431e-16 0)
(2 -4.93675e-16 0)
(2 -8.64795e-16 0)
(2 -6.66271e-16 0)
(2 -1.61125e-16 0)
(2 -6.80417e-18 0)
(2 2.23574e-17 0)
(2 4.20559e-16 0)
(2 5.83468e-16 0)
(2 7.08416e-16 0)
(2 7.22273e-16 0)
(2 6.00263e-16 0)
(2 4.72306e-16 0)
(2 3.55377e-16 0)
(2 5.78766e-17 0)
(2 -3.86631e-16 0)
(2 -8.49174e-16 0)
(2 -1.00288e-15 0)
(2 -1.22098e-15 0)
(2 -1.7176e-15 0)
(2 -2.00501e-15 0)
(2 -2.40036e-15 0)
(2 -2.81495e-15 0)
(2 -3.45671e-15 0)
(2 -4.10736e-15 0)
(2 -3.14216e-15 0)
(2 -2.40152e-15 0)
(2 -2.31127e-15 0)
(2 -2.16537e-15 0)
(2 -2.3783e-15 0)
(2 -2.97494e-15 0)
(2 -2.9469e-15 0)
(2 -2.9579e-15 0)
(2 -2.48914e-15 0)
(2 -2.33121e-15 0)
(2 -2.70442e-15 0)
(2 -2.59396e-15 0)
(2 -2.06726e-15 0)
(2 -1.88562e-15 0)
(2 -1.93037e-15 0)
(2 -1.67784e-15 0)
(2 -1.33015e-15 0)
(2 -8.23703e-16 0)
(2 -4.94595e-16 0)
(2 -2.89363e-16 0)
(2 -1.30761e-16 0)
(2 -2.60796e-17 0)
(2 -8.24002e-17 0)
(2 -1.63506e-16 0)
(2 -2.25164e-16 0)
(2 -2.15274e-16 0)
(2 -4.51941e-16 0)
(2 -4.92781e-16 0)
(2 -2.05825e-16 0)
(2 -1.53599e-16 0)
(2 1.33398e-16 0)
(2 3.26349e-16 0)
(2 5.73351e-16 0)
(2 1.46973e-15 0)
(2 1.6766e-15 0)
(2 1.6656e-15 0)
(2 2.11527e-15 0)
(2 2.40308e-15 0)
(2 2.29359e-15 0)
(2 2.29055e-15 0)
(2 2.89122e-15 0)
(2 3.30031e-15 0)
(2 3.35524e-15 0)
(2 3.3967e-15 0)
(2 3.37825e-15 0)
(2 3.27271e-15 0)
(2 3.12195e-15 0)
(2 3.30543e-15 0)
(2 3.45434e-15 0)
(2 3.55035e-15 0)
(2 -1.07618e-15 0)
(2 -1.17321e-15 0)
(2 -1.1547e-15 0)
(2 -1.7955e-15 0)
(2 -2.31753e-15 0)
(2 -2.71797e-15 0)
(2 -2.62361e-15 0)
(2 -2.31582e-15 0)
(2 -1.80239e-15 0)
(2 -1.60125e-15 0)
(2 -1.69206e-15 0)
(2 -2.03581e-15 0)
(2 -2.32149e-15 0)
(2 -2.54443e-15 0)
(2 -2.75773e-15 0)
(2 -2.78798e-15 0)
(2 -2.75994e-15 0)
(2 -2.66838e-15 0)
(2 -2.52215e-15 0)
(2 -2.23503e-15 0)
(2 -2.02879e-15 0)
(2 -1.82867e-15 0)
(2 -1.60495e-15 0)
(2 -1.54823e-15 0)
(2 -1.76503e-15 0)
(2 -1.73679e-15 0)
(2 -1.35392e-15 0)
(2 -1.12124e-15 0)
(2 -1.00021e-15 0)
(2 -1.02399e-15 0)
(2 -8.0531e-16 0)
(2 -6.00242e-16 0)
(2 -1.80575e-16 0)
(2 -2.17877e-16 0)
(2 -2.54501e-16 0)
(2 -3.14813e-16 0)
(2 -3.4177e-16 0)
(2 -3.38669e-16 0)
(2 -1.30791e-16 0)
(2 -2.55892e-16 0)
(2 -4.82413e-16 0)
(2 -5.22635e-16 0)
(2 -1.58153e-16 0)
(2 2.79612e-16 0)
(2 -6.58683e-16 0)
(2 -1.64041e-15 0)
(2 -2.14359e-15 0)
(2 -2.53278e-15 0)
(2 -3.12908e-15 0)
(2 -3.5177e-15 0)
(2 -3.50538e-15 0)
(2 -3.48808e-15 0)
(2 -3.03139e-15 0)
(2 -2.39715e-15 0)
(2 -2.37267e-15 0)
(2 -1.90144e-15 0)
(2 -1.73028e-15 0)
(2 -1.59074e-15 0)
(2 -1.51756e-15 0)
(2 -1.61738e-15 0)
(2 -1.79203e-15 0)
(2 -1.59159e-15 0)
(2 -1.15598e-15 0)
(2 -9.07121e-16 0)
(2 -9.35046e-16 0)
(2 -1.17889e-15 0)
(2 -7.84799e-16 0)
(2 -4.70981e-16 0)
(2 -1.87856e-16 0)
(2 7.68781e-17 0)
(2 2.0939e-16 0)
(2 2.37121e-16 0)
(2 5.1564e-16 0)
(2 5.64983e-16 0)
(2 5.35588e-16 0)
(2 4.98462e-16 0)
(2 6.40667e-16 0)
(2 8.68167e-16 0)
(2 7.75073e-16 0)
(2 2.69479e-16 0)
(2 -8.47672e-16 0)
(2 -7.09819e-16 0)
(2 -2.97716e-16 0)
(2 -4.31946e-16 0)
(2 -1.14476e-15 0)
(2 -1.34216e-15 0)
(2 -1.21774e-15 0)
(2 -6.12148e-16 0)
(2 1.52629e-16 0)
(2 6.3908e-16 0)
(2 7.11531e-16 0)
(2 5.9585e-16 0)
(2 5.60472e-16 0)
(2 2.85336e-16 0)
(2 -2.59748e-16 0)
(2 -4.09185e-16 0)
(2 -5.33857e-16 0)
(2 -9.98066e-16 0)
(2 -2.88308e-16 0)
(2 4.22717e-16 0)
(2 4.71088e-16 0)
(2 4.04422e-16 0)
(2 5.01407e-16 0)
(2 6.96846e-16 0)
(2 9.32308e-16 0)
(2 1.2287e-15 0)
(2 1.25438e-15 0)
(2 1.28745e-15 0)
(2 1.25292e-15 0)
(2 1.89553e-15 0)
(2 2.15576e-15 0)
(2 2.2987e-15 0)
(2 1.95532e-15 0)
(2 1.93329e-15 0)
(2 1.70445e-15 0)
(2 1.65914e-15 0)
(2 1.7021e-15 0)
(2 1.9126e-15 0)
(2 1.87349e-15 0)
(2 2.18668e-15 0)
(2 2.24026e-15 0)
(2 2.21002e-15 0)
(2 2.25651e-15 0)
(2 2.44805e-15 0)
(2 2.43009e-15 0)
(2 2.44008e-15 0)
(2 2.28173e-15 0)
(2 1.97851e-15 0)
(2 1.85786e-15 0)
(2 2.06007e-15 0)
(2 1.83094e-15 0)
(2 1.62605e-15 0)
(2 -1.23977e-17 0)
(2 -8.37456e-16 0)
(2 -1.05188e-15 0)
(2 -8.11119e-16 0)
(2 -6.08095e-16 0)
(2 -6.07929e-16 0)
(2 -4.87817e-16 0)
(2 -5.24428e-16 0)
(2 -4.57385e-16 0)
(2 -4.34879e-16 0)
(2 -6.56333e-16 0)
(2 -1.5307e-15 0)
(2 -1.52263e-15 0)
(2 -1.79798e-15 0)
(2 -1.89902e-15 0)
(2 -2.3075e-15 0)
(2 -2.39225e-15 0)
(2 -2.23831e-15 0)
(2 -2.14097e-15 0)
(2 -2.21803e-15 0)
(2 -2.32476e-15 0)
(2 -2.3028e-15 0)
(2 -2.02281e-15 0)
(2 -1.96608e-15 0)
(2 -1.7664e-15 0)
(2 -1.75406e-15 0)
(2 -1.67581e-15 0)
(2 -1.7911e-15 0)
(2 -1.87861e-15 0)
(2 -2.13555e-15 0)
(2 -2.12217e-15 0)
(2 -2.04574e-15 0)
(2 -2.11228e-15 0)
(2 -2.02587e-15 0)
(2 -1.59976e-15 0)
(2 -1.54445e-15 0)
(2 -1.72507e-15 0)
(2 -1.83047e-15 0)
(2 -1.92487e-15 0)
(2 -1.99941e-15 0)
(2 -2.04813e-15 0)
(2 -2.18022e-15 0)
(2 -2.23394e-15 0)
(2 -2.05845e-15 0)
(2 -2.01082e-15 0)