/*--------------------------------*- C++ -*----------------------------------*\
  =========                 |
  \\      /  F ield         | OpenFOAM: The Open Source CFD Toolbox
   \\    /   O peration     | Website:  https://openfoam.org
    \\  /    A nd           | Version:  7
     \\/     M anipulation  |
\*---------------------------------------------------------------------------*/
FoamFile
{
    version     2.0;
    format      ascii;
    class       volScalarField;
    location    "7";
    object      p;
}
// * * * * * * * * * * * * * * * * * * * * * * * * * * * * * * * * * * * * * //

dimensions      [1 -1 -2 0 0 0 0];

internalField   nonuniform List<scalar> 
2413
(
1.41087
1.43209
1.4416
1.44695
1.44979
1.44773
1.44186
1.43316
1.42237
1.40952
1.39903
1.39374
1.39234
1.39261
1.39282
1.39279
1.39268
1.39229
1.39182
1.39092
1.38931
1.3871
1.38401
1.38
1.37468
1.36846
1.36141
1.35405
1.34678
1.33977
1.33339
1.32775
1.3225
1.31841
1.31646
1.31583
1.3164
1.31808
1.32092
1.32548
1.33173
1.33878
1.34611
1.35158
1.35449
1.35628
1.35805
1.36011
1.36255
1.36479
1.36586
1.3651
1.36401
1.3631
1.36243
1.36131
1.35938
1.35773
1.35665
1.35535
1.35339
1.3506
1.34782
1.34571
1.34378
1.34168
1.33941
1.33663
1.33304
1.32883
1.32374
1.31748
1.3104
1.30252
1.29434
1.28598
1.27754
1.26897
1.26028
1.25153
1.24256
1.2334
1.22417
1.21488
1.20527
1.19512
1.18451
1.17375
1.47324
1.45925
1.44271
1.43308
1.43984
1.45153
1.45969
1.45952
1.44941
1.43307
1.41877
1.41018
1.40412
1.40023
1.39837
1.39701
1.39536
1.39311
1.39103
1.38964
1.38843
1.38713
1.38524
1.38282
1.37986
1.37604
1.37168
1.36697
1.36174
1.35599
1.3504
1.34557
1.34156
1.33879
1.33758
1.33713
1.33705
1.33751
1.33843
1.34021
1.34391
1.34849
1.3522
1.35544
1.35878
1.3626
1.3666
1.371
1.37593
1.37743
1.37725
1.3752
1.37226
1.37035
1.36879
1.36764
1.3665
1.3642
1.36145
1.3588
1.35665
1.3547
1.35266
1.35058
1.34889
1.34721
1.34499
1.34173
1.33753
1.33294
1.32783
1.32206
1.31542
1.30792
1.29975
1.29107
1.28212
1.27312
1.26422
1.25524
1.24577
1.23612
1.22659
1.21707
1.20747
1.19753
1.18734
1.17698
1.49911
1.52536
1.52713
1.50237
1.4748
1.45476
1.44695
1.44476
1.447
1.44533
1.4391
1.43249
1.42415
1.41579
1.40994
1.40632
1.40477
1.40501
1.40616
1.40758
1.40821
1.40768
1.40585
1.4027
1.3987
1.39412
1.38908
1.38329
1.37692
1.36999
1.36321
1.35775
1.35305
1.34944
1.34744
1.34679
1.34773
1.35077
1.35442
1.35781
1.36229
1.36716
1.37058
1.37291
1.37452
1.37519
1.3762
1.37813
1.38113
1.38351
1.38477
1.38528
1.38503
1.38324
1.38071
1.37841
1.37595
1.37354
1.37074
1.36812
1.36528
1.36243
1.35999
1.35736
1.35452
1.35154
1.34828
1.34442
1.34019
1.33569
1.33038
1.32429
1.31749
1.31026
1.30252
1.29398
1.28478
1.27541
1.26614
1.25683
1.24732
1.2379
1.22872
1.21921
1.20922
1.19904
1.18905
1.17901
1.40552
1.44629
1.48935
1.53067
1.53611
1.52414
1.50009
1.47013
1.44877
1.43884
1.43517
1.44048
1.44745
1.44966
1.44758
1.44218
1.43545
1.43042
1.42724
1.4249
1.42305
1.42146
1.4194
1.41648
1.41296
1.40896
1.4047
1.3998
1.39436
1.3879
1.38048
1.37341
1.36646
1.36056
1.35745
1.35617
1.3557
1.35571
1.35572
1.35654
1.35912
1.36378
1.37018
1.37724
1.38365
1.38801
1.3915
1.39478
1.39674
1.39731
1.3967
1.39402
1.38963
1.38595
1.38355
1.38187
1.38007
1.378
1.37594
1.37357
1.3708
1.36801
1.36494
1.36135
1.35787
1.3544
1.35025
1.34508
1.33921
1.33309
1.32686
1.32068
1.31441
1.30779
1.30029
1.2919
1.28294
1.27363
1.26448
1.25552
1.24632
1.23698
1.22782
1.21847
1.20856
1.19877
1.1891
1.17962
1.26963
1.35421
1.4266
1.48953
1.50954
1.52942
1.5369
1.52471
1.5001
1.4782
1.45613
1.44262
1.44009
1.44343
1.45165
1.45823
1.45955
1.45687
1.45363
1.45021
1.44681
1.44428
1.44191
1.43849
1.43391
1.42815
1.42155
1.41463
1.4084
1.40236
1.3955
1.38942
1.38466
1.38083
1.37809
1.37624
1.37515
1.37529
1.3767
1.37983
1.38445
1.38931
1.39345
1.39595
1.39653
1.39665
1.39669
1.39713
1.39888
1.40112
1.40253
1.4036
1.40336
1.40147
1.39772
1.39303
1.38875
1.38323
1.37662
1.37202
1.3689
1.36609
1.36296
1.35939
1.35559
1.3514
1.34666
1.34131
1.33541
1.32914
1.32259
1.31588
1.30905
1.30208
1.29479
1.2872
1.27919
1.27058
1.26155
1.25229
1.24283
1.23338
1.22429
1.21516
1.2054
1.19589
1.18641
1.17706
1.10433
1.19586
1.30132
1.40885
1.45714
1.50166
1.5253
1.53747
1.53943
1.53258
1.51505
1.4901
1.47363
1.46276
1.45903
1.46195
1.46398
1.46678
1.46927
1.47013
1.46802
1.46414
1.46004
1.45641
1.4538
1.45164
1.44761
1.44117
1.43426
1.42773
1.42077
1.41482
1.41087
1.40749
1.40436
1.40197
1.40034
1.40008
1.40046
1.40071
1.40148
1.4034
1.40597
1.40861
1.41183
1.41583
1.41954
1.42222
1.4239
1.42339
1.41986
1.41492
1.40917
1.40431
1.40207
1.40107
1.39965
1.39771
1.39283
1.38615
1.37958
1.37376
1.36873
1.36362
1.35793
1.35254
1.34766
1.34212
1.33555
1.32856
1.32165
1.31479
1.30793
1.30088
1.29332
1.28509
1.27628
1.2672
1.25793
1.24879
1.23998
1.23112
1.22214
1.21256
1.20274
1.19308
1.18328
1.17357
1.01807
1.05556
1.12209
1.23921
1.33899
1.43513
1.49817
1.51592
1.53346
1.55023
1.54522
1.53426
1.52085
1.50541
1.49218
1.48863
1.48688
1.48549
1.48675
1.48928
1.4891
1.48493
1.48004
1.47472
1.46872
1.46543
1.46335
1.46011
1.45627
1.45274
1.44799
1.44232
1.43781
1.43436
1.43154
1.42898
1.4266
1.42491
1.42349
1.42236
1.4226
1.42458
1.42734
1.42989
1.432
1.43321
1.43359
1.43354
1.43245
1.43027
1.42809
1.42652
1.42513
1.42358
1.4219
1.41842
1.41162
1.40301
1.3944
1.38794
1.38413
1.38172
1.37966
1.37699
1.37195
1.36469
1.35685
1.34936
1.34234
1.33532
1.32837
1.32129
1.31348
1.30488
1.29601
1.28717
1.27836
1.2695
1.26002
1.24961
1.2388
1.22813
1.21779
1.20783
1.19881
1.19049
1.18196
1.17275
1.0012
1.00654
1.02281
1.07304
1.15616
1.26343
1.38808
1.45508
1.51072
1.54742
1.55675
1.569
1.56538
1.55266
1.5316
1.51958
1.51356
1.50913
1.50973
1.5114
1.51207
1.51007
1.50448
1.50013
1.4946
1.48836
1.48568
1.48301
1.47928
1.47638
1.47312
1.46779
1.46267
1.45881
1.45533
1.45216
1.44997
1.44902
1.4484
1.44755
1.44695
1.44673
1.44686
1.44759
1.44848
1.44873
1.44847
1.44801
1.44702
1.44547
1.44338
1.44044
1.43696
1.4329
1.42808
1.42298
1.41817
1.41372
1.40921
1.40449
1.39934
1.39295
1.38521
1.37682
1.36859
1.36172
1.3564
1.35177
1.34714
1.34148
1.33422
1.32605
1.3175
1.30853
1.29905
1.28909
1.27858
1.26781
1.25708
1.24661
1.23633
1.22615
1.21574
1.20501
1.19429
1.184
1.1742
1.16486
1.00003
1.00027
1.00174
1.00926
1.03435
1.08477
1.19142
1.30196
1.40709
1.49815
1.53298
1.56206
1.58762
1.58462
1.57601
1.56438
1.5513
1.53609
1.53069
1.53145
1.5333
1.53463
1.53238
1.52604
1.5218
1.51411
1.50845
1.50692
1.50413
1.5016
1.49911
1.49489
1.48992
1.48583
1.48202
1.47805
1.47516
1.47388
1.47262
1.47096
1.46962
1.46883
1.46841
1.4681
1.46748
1.4662
1.46463
1.46338
1.46206
1.45993
1.45693
1.45347
1.44958
1.44519
1.44043
1.43543
1.42977
1.4231
1.41608
1.40931
1.40267
1.39635
1.39057
1.385
1.37916
1.37274
1.36547
1.35686
1.34722
1.3376
1.32864
1.32052
1.31289
1.3048
1.2955
1.28546
1.27532
1.26512
1.25484
1.24444
1.23352
1.22181
1.20986
1.19834
1.18757
1.17753
1.16839
1.15984
1
1
1.00005
1.00044
1.00293
1.01205
1.04378
1.11245
1.20774
1.34847
1.44154
1.51548
1.57266
1.59355
1.60839
1.60641
1.59518
1.57712
1.56256
1.55538
1.55235
1.55322
1.55477
1.55346
1.55118
1.54642
1.53827
1.53189
1.5268
1.52212
1.51989
1.51753
1.51431
1.51161
1.50885
1.50507
1.50206
1.49983
1.498
1.49628
1.49398
1.492
1.49085
1.48953
1.48721
1.48407
1.48082
1.47781
1.47493
1.47205
1.46881
1.4653
1.46247
1.45959
1.45521
1.44948
1.44308
1.43605
1.42837
1.4205
1.41298
1.40598
1.39899
1.39161
1.3839
1.37587
1.36758
1.35933
1.35132
1.34352
1.33556
1.32706
1.31762
1.30729
1.2965
1.28554
1.27465
1.26374
1.25247
1.24109
1.23031
1.21984
1.20906
1.19785
1.1867
1.17531
1.16405
1.15391
1
1
1
1.00001
1.00009
1.00065
1.00401
1.01795
1.0512
1.13442
1.24714
1.37191
1.4965
1.55218
1.59021
1.61947
1.61996
1.61341
1.59993
1.58729
1.58169
1.58117
1.58098
1.57985
1.57754
1.57371
1.56839
1.56254
1.55483
1.54976
1.54624
1.54201
1.53728
1.53404
1.53201
1.52999
1.5278
1.52532
1.52195
1.51911
1.5166
1.51367
1.51131
1.50987
1.5082
1.50548
1.50182
1.49769
1.4937
1.48957
1.48477
1.47964
1.47466
1.46962
1.4643
1.4587
1.45243
1.4459
1.43946
1.43275
1.4255
1.4178
1.40961
1.4009
1.39208
1.38339
1.37467
1.36585
1.35687
1.34756
1.33797
1.32832
1.31838
1.30822
1.29822
1.28778
1.27643
1.26508
1.25407
1.24258
1.23102
1.22009
1.20843
1.19581
1.18454
1.17388
1.16268
1.15238
1
1
1
1
1
1.00001
1.00013
1.00102
1.00506
1.02231
1.0692
1.14995
1.29494
1.42344
1.52843
1.60484
1.6208
1.63146
1.63108
1.61936
1.60651
1.60291
1.60371
1.60448
1.60512
1.60413
1.59954
1.59321
1.58483
1.57771
1.57331
1.56846
1.5643
1.56161
1.55873
1.55437
1.54962
1.54618
1.54275
1.53972
1.53764
1.53586
1.53294
1.52917
1.52633
1.52359
1.52034
1.51681
1.51342
1.50959
1.50481
1.49893
1.49204
1.48488
1.47805
1.47131
1.46436
1.45734
1.45067
1.44408
1.43723
1.42982
1.42174
1.41281
1.40333
1.39354
1.38345
1.37335
1.36339
1.35326
1.3429
1.33296
1.32337
1.31323
1.30273
1.29234
1.28126
1.26969
1.25899
1.24803
1.23564
1.22396
1.21324
1.20098
1.18838
1.17809
1.16686
1.15408
1
1
1
1
1
1
1
1.00002
1.00018
1.00136
1.00755
1.027
1.08591
1.19816
1.32768
1.49328
1.57936
1.62126
1.64313
1.64075
1.6336
1.62579
1.62034
1.62107
1.62602
1.62954
1.62926
1.62554
1.61794
1.61014
1.60424
1.59808
1.59287
1.58876
1.58455
1.57982
1.5752
1.57111
1.56691
1.56207
1.55706
1.55356
1.55136
1.54905
1.5466
1.54415
1.54077
1.53588
1.53034
1.52462
1.51894
1.5134
1.50757
1.5013
1.49458
1.48721
1.4794
1.47155
1.46398
1.45647
1.44911
1.44178
1.43375
1.42457
1.41465
1.40463
1.39445
1.3841
1.37376
1.36361
1.35313
1.34245
1.33205
1.32102
1.30912
1.29782
1.28659
1.27419
1.26236
1.2516
1.23959
1.22722
1.2171
1.20641
1.19335
1.18227
1.17264
1.1601
1
1
1
1
1
1
1
1
1
1.00003
1.00027
1.00183
1.00997
1.04112
1.10723
1.2512
1.41099
1.52962
1.62101
1.64734
1.65396
1.65057
1.64656
1.64459
1.64513
1.64568
1.64786
1.6483
1.64607
1.64195
1.63654
1.62991
1.62414
1.61888
1.61304
1.60704
1.60141
1.59602
1.59086
1.58574
1.58088
1.57631
1.57198
1.56817
1.56453
1.56145
1.55804
1.55365
1.54877
1.54359
1.53803
1.53155
1.52395
1.51598
1.50852
1.50145
1.49414
1.48659
1.47887
1.47093
1.46265
1.4542
1.44584
1.43672
1.42697
1.41734
1.40735
1.39652
1.38577
1.3756
1.36477
1.35289
1.34186
1.33099
1.31875
1.30675
1.29595
1.28391
1.2713
1.26067
1.24953
1.23629
1.22515
1.21537
1.20269
1.19025
1.18134
1.17047
1
1
1
1
1
1
1
1
1
1
1
1.00004
1.00042
1.00318
1.01451
1.0576
1.16672
1.30535
1.49106
1.58297
1.62944
1.65223
1.66208
1.66422
1.66451
1.66445
1.66516
1.66724
1.66827
1.66659
1.66232
1.65656
1.65184
1.64687
1.64093
1.63478
1.62919
1.62355
1.61743
1.61103
1.60492
1.59936
1.59414
1.58981
1.58555
1.58138
1.57689
1.57148
1.56565
1.55968
1.55346
1.54736
1.54082
1.53365
1.52646
1.5192
1.51141
1.50299
1.49428
1.48572
1.47691
1.46784
1.4588
1.44942
1.43985
1.43036
1.42083
1.41069
1.4001
1.38987
1.37896
1.36687
1.35468
1.34315
1.33011
1.31635
1.30526
1.2939
1.28084
1.27022
1.26083
1.24868
1.23689
1.22795
1.21652
1.20273
1.19281
1.18287
1
1
1
1
1
1
1
1
1
1
1
1
1.00001
1.00008
1.00074
1.00523
1.02809
1.08844
1.22329
1.41129
1.53739
1.62449
1.65103
1.66853
1.67628
1.67759
1.67996
1.6834
1.68514
1.68498
1.68363
1.68031
1.67541
1.6693
1.66278
1.65789
1.65414
1.64977
1.64436
1.63844
1.63217
1.62565
1.61885
1.61247
1.60641
1.60061
1.59514
1.58932
1.58345
1.57746
1.57088
1.56395
1.5567
1.54912
1.54226
1.53595
1.52901
1.52118
1.51242
1.50274
1.4922
1.48139
1.47118
1.46157
1.45193
1.44259
1.43365
1.42399
1.41361
1.40353
1.39323
1.38171
1.36957
1.35841
1.34641
1.33263
1.32097
1.31006
1.29657
1.28398
1.27417
1.26163
1.24747
1.23798
1.22745
1.2131
1.20327
1.19478
1
1
1
1
1
1
1
1
1
1
1
1
1
1
1.00001
1.00018
1.00174
1.01056
1.04582
1.15331
1.30205
1.49008
1.6045
1.64695
1.67017
1.68295
1.68564
1.68762
1.69314
1.69692
1.69806
1.69721
1.69421
1.6898
1.68415
1.67825
1.67324
1.66915
1.66563
1.66189
1.65731
1.65165
1.64494
1.63761
1.62998
1.62221
1.61491
1.60774
1.6007
1.59423
1.58766
1.5809
1.57392
1.56641
1.55896
1.55201
1.54461
1.5367
1.52841
1.5192
1.50887
1.49806
1.48742
1.47718
1.46702
1.45703
1.4475
1.43743
1.42655
1.41631
1.40625
1.39498
1.38341
1.37305
1.36202
1.34929
1.33845
1.3282
1.3153
1.30253
1.29223
1.27977
1.26453
1.25364
1.24288
1.22811
1.21716
1.20858
1
1
1
1
1
1
1
1
1
1
1
1
1
1
1
1
1.00004
1.00046
1.00388
1.02427
1.08377
1.22033
1.41088
1.55455
1.64929
1.69072
1.69952
1.70078
1.69907
1.69735
1.69995
1.70554
1.70693
1.7049
1.7
1.6942
1.68906
1.68442
1.68052
1.67831
1.6761
1.67247
1.66739
1.66118
1.65389
1.64564
1.63717
1.62875
1.62035
1.61251
1.60491
1.59737
1.5904
1.58301
1.57526
1.56787
1.56022
1.55221
1.54391
1.53474
1.52465
1.51423
1.50384
1.49357
1.4833
1.47328
1.4633
1.45281
1.4417
1.4309
1.42008
1.40864
1.39735
1.38752
1.37717
1.36529
1.35512
1.34526
1.33274
1.3201
1.30979
1.29755
1.2828
1.27216
1.26152
1.24725
1.23651
1.22758
1
1
1
1
1
1
1
1
1
1
1
1
1
1
1
1
1
1.00001
1.00013
1.00146
1.00959
1.04478
1.15072
1.23848
1.23192
1.22489
1.21783
1.21037
1.2026
1.19464
1.18655
1.17845
1.17019
1.16187
1.15343
1.14475
1.13577
1.38386
1.38182
1.37879
1.37505
1.3705
1.36611
1.3616
1.35802
1.35502
1.35287
1.35175
1.35121
1.35164
1.35319
1.3558
1.35893
1.36238
1.36564
1.36844
1.3706
1.372
1.37293
1.37305
1.3721
1.37019
1.36719
1.36336
1.35866
1.35353
1.34819
1.34294
1.33805
1.33366
1.33001
1.32721
1.32528
1.3239
1.32303
1.32264
1.32268
1.32303
1.32364
1.3245
1.32548
1.32668
1.32813
1.32989
1.33169
1.3338
1.33598
1.33814
1.34012
1.34184
1.34327
1.34424
1.34477
1.3448
1.34426
1.34305
1.34111
1.33848
1.33474
1.33012
1.32428
1.31754
1.30988
1.3018
1.29354
1.28518
1.2772
1.26965
1.26271
1.25629
1.25008
1.24385
1.23742
1.23044
1.22314
1.21579
1.20804
1.20005
1.19189
1.18364
1.17535
1.16686
1.15824
1.1495
1.14053
1.38749
1.38629
1.38451
1.38193
1.37825
1.37463
1.37046
1.36679
1.36388
1.36193
1.36127
1.36152
1.36284
1.36515
1.36778
1.3704
1.37283
1.3749
1.37634
1.37699
1.37677
1.37598
1.37426
1.37151
1.36767
1.36285
1.35747
1.35171
1.34571
1.33974
1.33415
1.32955
1.32583
1.32309
1.32127
1.32009
1.31937
1.31916
1.31938
1.3199
1.32068
1.32173
1.323
1.32439
1.32586
1.32747
1.32935
1.33154
1.33383
1.33592
1.33794
1.34
1.34197
1.34367
1.34497
1.34583
1.34635
1.34617
1.34567
1.34441
1.34235
1.33947
1.33596
1.33133
1.32538
1.31779
1.30984
1.30136
1.29308
1.2849
1.27709
1.26973
1.2628
1.25635
1.25002
1.24353
1.23668
1.22921
1.22147
1.21366
1.20556
1.1973
1.18896
1.18052
1.17204
1.16334
1.15443
1.14541
1.39098
1.3913
1.39086
1.38952
1.38699
1.38411
1.3806
1.37724
1.37432
1.37221
1.37127
1.37109
1.37175
1.37309
1.37457
1.37597
1.37706
1.37749
1.377
1.37572
1.37366
1.37082
1.36726
1.36319
1.35869
1.35381
1.34848
1.34289
1.33724
1.33179
1.32691
1.32286
1.31976
1.31755
1.31616
1.31563
1.31597
1.31679
1.31786
1.31913
1.32057
1.32214
1.32382
1.32555
1.32743
1.32934
1.33125
1.33318
1.33523
1.33751
1.33994
1.34197
1.34357
1.34491
1.34631
1.34748
1.34829
1.34845
1.34855
1.34779
1.34695
1.34515
1.34216
1.33836
1.33344
1.32757
1.32011
1.31157
1.30321
1.29459
1.28628
1.2784
1.27095
1.26383
1.2571
1.25038
1.24341
1.23601
1.22802
1.21979
1.21152
1.20295
1.19431
1.18566
1.17696
1.16817
1.1592
1.14996
1.39467
1.39652
1.39746
1.39744
1.39612
1.39415
1.39114
1.38767
1.38434
1.38142
1.37904
1.37705
1.37557
1.37472
1.37444
1.37434
1.37351
1.37184
1.3697
1.36739
1.365
1.36237
1.35953
1.35647
1.35299
1.3491
1.34462
1.33965
1.3345
1.32959
1.32543
1.32197
1.31977
1.31833
1.31768
1.31769
1.3183
1.31945
1.32083
1.32217
1.32357
1.3253
1.32725
1.32933
1.33139
1.33352
1.3356
1.3377
1.33965
1.34107
1.3424
1.34383
1.34584
1.34765
1.34881
1.3495
1.35014
1.35073
1.35111
1.35075
1.35025
1.34906
1.34742
1.34477
1.34072
1.33524
1.32886
1.3216
1.31354
1.30487
1.29636
1.28786
1.27978
1.27216
1.26477
1.25764
1.25044
1.24289
1.23486
1.22631
1.2175
1.20868
1.19966
1.19069
1.18176
1.1728
1.16374
1.15453
1.39811
1.40183
1.40419
1.40527
1.405
1.40384
1.4014
1.39776
1.39361
1.38894
1.38407
1.3795
1.37566
1.37259
1.36982
1.36686
1.36426
1.36232
1.36102
1.36015
1.35948
1.35864
1.35749
1.35597
1.35384
1.35119
1.34801
1.3444
1.34065
1.33697
1.33353
1.33061
1.32847
1.32697
1.32621
1.32576
1.32572
1.32623
1.32707
1.32808
1.32929
1.33084
1.33278
1.33494
1.33714
1.33909
1.34081
1.34262
1.34429
1.34572
1.34699
1.34782
1.34839
1.34905
1.35024
1.35175
1.35282
1.35293
1.35271
1.35225
1.35179
1.35116
1.35004
1.348
1.34517
1.34104
1.33557
1.32883
1.32106
1.31301
1.30481
1.2963
1.28787
1.27971
1.27187
1.26425
1.25672
1.24905
1.24105
1.23258
1.22361
1.21419
1.20476
1.19522
1.18581
1.17653
1.16729
1.15797
1.40023
1.4057
1.40976
1.41219
1.41282
1.41186
1.40954
1.40563
1.40018
1.39339
1.38594
1.37861
1.37215
1.36669
1.36226
1.35899
1.35737
1.35711
1.3578
1.35892
1.3601
1.36113
1.36182
1.36208
1.36162
1.36048
1.35867
1.35618
1.35312
1.34967
1.34604
1.3426
1.33943
1.33676
1.33454
1.33329
1.333
1.33348
1.33417
1.33491
1.3357
1.33666
1.33791
1.33946
1.34141
1.34345
1.34548
1.34738
1.349
1.35032
1.35121
1.35148
1.35151
1.35175
1.3519
1.35202
1.35237
1.35318
1.35414
1.35375
1.35225
1.35096
1.34967
1.34817
1.34632
1.34289
1.33829
1.3329
1.32641
1.31883
1.31047
1.30199
1.29367
1.28554
1.27761
1.26974
1.26186
1.25395
1.24587
1.23747
1.22857
1.21917
1.20935
1.1995
1.18975
1.18005
1.17048
1.16102
1.40743
1.41431
1.41909
1.42188
1.42229
1.42084
1.41799
1.41321
1.40629
1.39754
1.38825
1.37899
1.3706
1.36413
1.36013
1.3585
1.35856
1.3598
1.36184
1.36437
1.36724
1.37024
1.37291
1.37485
1.37577
1.37533
1.37348
1.37021
1.36586
1.361
1.35603
1.3513
1.34709
1.34365
1.34093
1.33907
1.33776
1.33679
1.33656
1.33723
1.33859
1.3404
1.34257
1.34476
1.3468
1.34848
1.34979
1.35093
1.35192
1.35271
1.35342
1.35393
1.35424
1.35419
1.3539
1.35377
1.35339
1.35269
1.35213
1.35147
1.35091
1.35013
1.34845
1.34662
1.34463
1.34204
1.33891
1.33426
1.32853
1.32184
1.31444
1.30646
1.29798
1.28943
1.28119
1.27327
1.26549
1.25768
1.24972
1.24152
1.23286
1.22359
1.21372
1.20353
1.19323
1.18314
1.17311
1.16328
1.40899
1.41743
1.42396
1.42857
1.43045
1.42918
1.42542
1.41875
1.40931
1.39912
1.38884
1.37958
1.37173
1.3663
1.36323
1.3624
1.3636
1.36619
1.37001
1.37484
1.38004
1.38464
1.38776
1.3889
1.38789
1.38496
1.38055
1.3749
1.36854
1.36201
1.35581
1.35026
1.34563
1.34219
1.33989
1.3382
1.33714
1.33658
1.33678
1.33775
1.33935
1.3415
1.34387
1.34644
1.34851
1.35024
1.35193
1.3538
1.35577
1.35724
1.35759
1.35716
1.35636
1.35578
1.35561
1.35505
1.35393
1.35307
1.35231
1.35114
1.34943
1.3475
1.34558
1.34422
1.34256
1.34042
1.33765
1.33395
1.32972
1.32404
1.31738
1.3098
1.30171
1.29345
1.2852
1.27713
1.26911
1.26099
1.25278
1.24451
1.23599
1.22699
1.21745
1.2075
1.1973
1.18697
1.17659
1.1664
1.42329
1.43045
1.43499
1.43794
1.43951
1.43942
1.43657
1.42938
1.41778
1.40449
1.39209
1.38237
1.3764
1.37469
1.3748
1.37607
1.37836
1.38145
1.3855
1.38983
1.3932
1.39494
1.39462
1.39206
1.38675
1.38037
1.37297
1.36514
1.35722
1.34947
1.34241
1.33613
1.33072
1.32694
1.32534
1.32553
1.32699
1.32951
1.33198
1.33419
1.33675
1.33985
1.34341
1.34714
1.34975
1.35183
1.35397
1.35621
1.35852
1.36032
1.36084
1.36023
1.3594
1.35901
1.35884
1.35825
1.35694
1.35538
1.35314
1.35119
1.34956
1.34776
1.34545
1.34347
1.34163
1.33968
1.33733
1.33447
1.33066
1.32554
1.31986
1.31327
1.30599
1.29791
1.28941
1.28086
1.27253
1.26433
1.25618
1.24803
1.23957
1.23059
1.22112
1.2113
1.20115
1.19067
1.18
1.16935
)
;

boundaryField
{
    inlet
    {
        type            fixedValue;
        value           nonuniform 0();
    }
    outlet
    {
        type            zeroGradient;
    }
    bottom
    {
        type            symmetryPlane;
    }
    top
    {
        type            symmetryPlane;
    }
    obstacle
    {
        type            zeroGradient;
    }
    front
    {
        type            empty;
    }
    back
    {
        type            empty;
    }
    procBoundary19to2
    {
        type            processor;
        value           nonuniform List<scalar> 
23
(
1.39109
1.48257
1.41871
1.31032
1.15868
1.03939
1.00395
1.00015
1
1
1
1
1
1
1.38486
1.38751
1.38961
1.39167
1.39328
1.39346
1.39898
1.40065
1.41239
)
;
    }
    procBoundary19to10
    {
        type            processor;
        value           nonuniform List<scalar> 5(1 1 1 1 1);
    }
    procBoundary19to11
    {
        type            processor;
        value           nonuniform List<scalar> 
89
(
1.2328
1.22607
1.21916
1.21207
1.20455
1.19675
1.18883
1.18087
1.17278
1.16472
1.15655
1.14816
1.13948
1.13045
1.3798
1.3774
1.37445
1.37117
1.36653
1.36201
1.35761
1.35357
1.34986
1.34711
1.34536
1.34403
1.34331
1.3432
1.34404
1.34562
1.34801
1.35116
1.35485
1.35859
1.36175
1.36405
1.36538
1.36588
1.36596
1.36504
1.36308
1.36007
1.35634
1.35199
1.34737
1.34278
1.33846
1.33464
1.33137
1.32874
1.32679
1.32546
1.32474
1.32459
1.32482
1.32546
1.32632
1.32729
1.32845
1.32977
1.33144
1.33326
1.33523
1.33743
1.33935
1.34112
1.34252
1.34361
1.3441
1.3444
1.3441
1.34307
1.341
1.3383
1.33467
1.32984
1.3248
1.31872
1.31119
1.30344
1.29514
1.28673
1.27857
1.2707
1.26354
1.25694
1.25072
1.24462
1.24462
)
;
    }
    procBoundary19to12
    {
        type            processor;
        value           uniform 1.12641;
    }
    procBoundary19to20
    {
        type            processor;
        value           nonuniform List<scalar> 
27
(
1.163
1.16644
1.16886
1.1703
1.16805
1.16471
1.16311
1.15571
1.15133
1.14462
1.14379
1.14403
1.14885
1.15754
1.16946
1.18278
1.19656
1.21536
1.13125
1.13613
1.1406
1.14497
1.14852
1.15149
1.1536
1.15635
1.15893
)
;
    }
    procBoundary19to27
    {
        type            processor;
        value           nonuniform List<scalar> 
89
(
1.32426
1.48779
1.63703
1.70533
1.71675
1.71561
1.70935
1.70777
1.70756
1.70825
1.70828
1.70716
1.70452
1.69979
1.69525
1.69189
1.69059
1.68925
1.68651
1.68257
1.67803
1.67293
1.66679
1.65959
1.65143
1.64266
1.63374
1.62489
1.61594
1.60764
1.59916
1.59027
1.58221
1.5742
1.56585
1.55795
1.54945
1.5402
1.5307
1.52085
1.51081
1.50046
1.49032
1.47993
1.46901
1.45755
1.44639
1.43525
1.42341
1.41269
1.40301
1.39275
1.38153
1.37192
1.3618
1.34924
1.33714
1.32666
1.31455
1.30066
1.29042
1.27996
1.26627
1.2557
1.2467
1
1
1
1
1
1
1
1
1
1
1
1
1
1
1
1
1
1
1
1.00003
1.00042
1.00397
1.32426
1.02283
)
;
    }
}


// ************************************************************************* //
