/*--------------------------------*- C++ -*----------------------------------*\
  =========                 |
  \\      /  F ield         | OpenFOAM: The Open Source CFD Toolbox
   \\    /   O peration     | Website:  https://openfoam.org
    \\  /    A nd           | Version:  7
     \\/     M anipulation  |
\*---------------------------------------------------------------------------*/
FoamFile
{
    version     2.0;
    format      ascii;
    class       volVectorField;
    location    "7";
    object      U;
}
// * * * * * * * * * * * * * * * * * * * * * * * * * * * * * * * * * * * * * //

dimensions      [0 1 -1 0 0 0 0];

internalField   nonuniform List<vector> 
2413
(
(1.29171 0.0721377 0)
(1.23106 0.0702956 0)
(1.17697 0.0754769 0)
(1.12575 0.0858839 0)
(1.07618 0.09315 0)
(1.02969 0.0927472 0)
(0.985607 0.0871914 0)
(0.944143 0.0808007 0)
(0.905938 0.0750525 0)
(0.870695 0.0694833 0)
(0.837463 0.0626354 0)
(0.805661 0.0531108 0)
(0.777764 0.0403395 0)
(0.753707 0.0278732 0)
(0.733185 0.017444 0)
(0.715519 0.00898999 0)
(0.700008 0.00211897 0)
(0.68618 -0.0035793 0)
(0.673729 -0.0081861 0)
(0.662626 -0.0106735 0)
(0.652903 -0.0113364 0)
(0.6444 -0.011157 0)
(0.636598 -0.0107933 0)
(0.629153 -0.0104517 0)
(0.621582 -0.00967513 0)
(0.613762 -0.00984056 0)
(0.605885 -0.0108292 0)
(0.597927 -0.0117014 0)
(0.590314 -0.0135326 0)
(0.583204 -0.0164641 0)
(0.57672 -0.0204891 0)
(0.570831 -0.0255044 0)
(0.564899 -0.0308169 0)
(0.559632 -0.0369291 0)
(0.556155 -0.0433826 0)
(0.553759 -0.0496192 0)
(0.552699 -0.0563921 0)
(0.552836 -0.064564 0)
(0.553757 -0.0750085 0)
(0.555678 -0.0871137 0)
(0.559325 -0.0983917 0)
(0.564486 -0.107032 0)
(0.571067 -0.112252 0)
(0.578562 -0.112606 0)
(0.585055 -0.109408 0)
(0.591643 -0.106058 0)
(0.598766 -0.103517 0)
(0.606843 -0.101714 0)
(0.615811 -0.100424 0)
(0.625313 -0.0997751 0)
(0.634641 -0.100631 0)
(0.643157 -0.100889 0)
(0.650749 -0.0997725 0)
(0.6584 -0.0979821 0)
(0.666578 -0.0950413 0)
(0.675082 -0.0895504 0)
(0.683434 -0.08152 0)
(0.69168 -0.0741013 0)
(0.699151 -0.0681267 0)
(0.706035 -0.0623443 0)
(0.712906 -0.0557883 0)
(0.719175 -0.0481222 0)
(0.725215 -0.0423804 0)
(0.730744 -0.0381894 0)
(0.736379 -0.0330106 0)
(0.742244 -0.0252522 0)
(0.748343 -0.0158315 0)
(0.753775 -0.00648721 0)
(0.758239 0.00133466 0)
(0.762409 0.00767485 0)
(0.76668 0.0146022 0)
(0.771537 0.0228961 0)
(0.776623 0.0317525 0)
(0.781924 0.0403459 0)
(0.78746 0.0485372 0)
(0.79307 0.0561395 0)
(0.79872 0.0631047 0)
(0.804337 0.069501 0)
(0.809881 0.0758555 0)
(0.815352 0.0828653 0)
(0.820838 0.0907219 0)
(0.826824 0.0987944 0)
(0.833673 0.106432 0)
(0.841237 0.113484 0)
(0.849106 0.120209 0)
(0.857164 0.126682 0)
(0.865494 0.132604 0)
(0.8745 0.137515 0)
(1.67836 0.206506 0)
(1.6489 0.177911 0)
(1.61545 0.155691 0)
(1.57963 0.14033 0)
(1.5372 0.134452 0)
(1.49444 0.13755 0)
(1.45353 0.142249 0)
(1.41582 0.141784 0)
(1.38216 0.133343 0)
(1.35037 0.12087 0)
(1.31598 0.107782 0)
(1.27759 0.0961231 0)
(1.23835 0.0870555 0)
(1.19995 0.0802878 0)
(1.16379 0.0745936 0)
(1.13118 0.0692468 0)
(1.10202 0.0631378 0)
(1.07534 0.0564547 0)
(1.0499 0.0491383 0)
(1.02506 0.0422056 0)
(1.00106 0.036311 0)
(0.978041 0.0312801 0)
(0.95618 0.026986 0)
(0.935428 0.0224165 0)
(0.915784 0.0175454 0)
(0.897101 0.0124404 0)
(0.8787 0.00704616 0)
(0.86063 0.00147931 0)
(0.843381 -0.0043721 0)
(0.826685 -0.00994782 0)
(0.810798 -0.0158512 0)
(0.795887 -0.021414 0)
(0.781478 -0.0276743 0)
(0.767991 -0.0367055 0)
(0.756177 -0.0479177 0)
(0.745158 -0.0582244 0)
(0.735125 -0.0662708 0)
(0.72624 -0.0709074 0)
(0.718254 -0.0724161 0)
(0.710802 -0.0742204 0)
(0.705069 -0.0774909 0)
(0.700922 -0.0803769 0)
(0.697627 -0.082667 0)
(0.69503 -0.0872791 0)
(0.69262 -0.0949117 0)
(0.69073 -0.103921 0)
(0.6893 -0.112629 0)
(0.690018 -0.119708 0)
(0.693154 -0.122207 0)
(0.696487 -0.120183 0)
(0.699288 -0.112778 0)
(0.701072 -0.101593 0)
(0.703007 -0.0922134 0)
(0.706681 -0.0874195 0)
(0.711405 -0.0859277 0)
(0.717139 -0.0862154 0)
(0.724003 -0.086126 0)
(0.730482 -0.0833372 0)
(0.73543 -0.078126 0)
(0.739961 -0.0718815 0)
(0.74507 -0.0657336 0)
(0.750997 -0.0594402 0)
(0.757037 -0.051962 0)
(0.762727 -0.0436781 0)
(0.768041 -0.0366274 0)
(0.773078 -0.0311959 0)
(0.777883 -0.0256404 0)
(0.782631 -0.0189864 0)
(0.787668 -0.0110513 0)
(0.792774 -0.0021738 0)
(0.797613 0.00652255 0)
(0.801971 0.0141102 0)
(0.805773 0.0212974 0)
(0.809901 0.0290008 0)
(0.814234 0.0374445 0)
(0.819262 0.0464349 0)
(0.825135 0.0552915 0)
(0.831586 0.0638027 0)
(0.838187 0.0721872 0)
(0.844612 0.0803801 0)
(0.850631 0.0874091 0)
(0.856836 0.0926943 0)
(0.863653 0.0971111 0)
(0.870801 0.102095 0)
(0.878109 0.108104 0)
(0.885684 0.114573 0)
(0.894069 0.120607 0)
(0.903769 0.125814 0)
(1.77057 0.218259 0)
(1.75912 0.238417 0)
(1.74953 0.240654 0)
(1.74673 0.224914 0)
(1.74201 0.201762 0)
(1.73108 0.185768 0)
(1.7141 0.179227 0)
(1.69408 0.178735 0)
(1.67318 0.182856 0)
(1.65455 0.185142 0)
(1.63557 0.182675 0)
(1.61318 0.172857 0)
(1.5892 0.159097 0)
(1.56401 0.144467 0)
(1.53678 0.1305 0)
(1.50814 0.118078 0)
(1.47891 0.108143 0)
(1.45009 0.100528 0)
(1.42184 0.0944014 0)
(1.39367 0.0884847 0)
(1.36558 0.0827855 0)
(1.33763 0.0773428 0)
(1.31014 0.0720297 0)
(1.28335 0.0668243 0)
(1.25729 0.0614132 0)
(1.23208 0.0556062 0)
(1.20717 0.0497203 0)
(1.18268 0.0429051 0)
(1.15877 0.0354995 0)
(1.13507 0.0284478 0)
(1.11182 0.0202746 0)
(1.08945 0.0109435 0)
(1.06814 0.00119561 0)
(1.04754 -0.00946339 0)
(1.0269 -0.0183471 0)
(1.00624 -0.0251125 0)
(0.986376 -0.0331056 0)
(0.96837 -0.0428502 0)
(0.952404 -0.0534287 0)
(0.9379 -0.0659892 0)
(0.923955 -0.080262 0)
(0.909825 -0.0923341 0)
(0.895528 -0.0977184 0)
(0.882104 -0.0948982 0)
(0.869099 -0.0861974 0)
(0.855505 -0.0788036 0)
(0.842873 -0.0767668 0)
(0.832344 -0.0777984 0)
(0.823961 -0.0811804 0)
(0.816055 -0.0854534 0)
(0.807906 -0.0909192 0)
(0.800177 -0.0982441 0)
(0.793728 -0.104542 0)
(0.789189 -0.107294 0)
(0.786867 -0.106476 0)
(0.787064 -0.101682 0)
(0.787878 -0.0915826 0)
(0.788358 -0.0801635 0)
(0.788515 -0.0723944 0)
(0.790116 -0.0679671 0)
(0.792781 -0.0647623 0)
(0.795879 -0.0620827 0)
(0.798696 -0.0592318 0)
(0.801793 -0.0552493 0)
(0.805056 -0.0493864 0)
(0.808655 -0.041821 0)
(0.812558 -0.0334875 0)
(0.816607 -0.0252083 0)
(0.820992 -0.0173045 0)
(0.825465 -0.00969981 0)
(0.829921 -0.00204119 0)
(0.834224 0.00632095 0)
(0.838202 0.015457 0)
(0.842146 0.0247481 0)
(0.845766 0.0330327 0)
(0.849332 0.0398808 0)
(0.852972 0.0461227 0)
(0.857216 0.0526356 0)
(0.862189 0.0597753 0)
(0.868153 0.0676979 0)
(0.875305 0.0762592 0)
(0.883425 0.0845536 0)
(0.891612 0.0920521 0)
(0.89921 0.0991297 0)
(0.906407 0.105924 0)
(0.913878 0.111924 0)
(0.922511 0.116323 0)
(0.932346 0.118914 0)
(1.83552 0.173399 0)
(1.80027 0.207221 0)
(1.78557 0.221386 0)
(1.77389 0.234363 0)
(1.77412 0.238112 0)
(1.77698 0.234443 0)
(1.78057 0.222145 0)
(1.78248 0.213722 0)
(1.78447 0.199287 0)
(1.7811 0.188909 0)
(1.77406 0.190065 0)
(1.76251 0.193141 0)
(1.75141 0.192595 0)
(1.74116 0.187776 0)
(1.72898 0.180135 0)
(1.71482 0.171296 0)
(1.70006 0.161163 0)
(1.68418 0.150077 0)
(1.66626 0.139849 0)
(1.64643 0.131182 0)
(1.6254 0.123585 0)
(1.604 0.11697 0)
(1.58277 0.111478 0)
(1.56169 0.106739 0)
(1.5405 0.102217 0)
(1.51921 0.0969937 0)
(1.49727 0.0924133 0)
(1.47502 0.0875905 0)
(1.45279 0.0815891 0)
(1.43048 0.0760425 0)
(1.4082 0.0696731 0)
(1.38597 0.0613668 0)
(1.36369 0.0530544 0)
(1.34089 0.0441274 0)
(1.31773 0.032367 0)
(1.29404 0.0203726 0)
(1.27059 0.00885122 0)
(1.24817 -0.00234407 0)
(1.22612 -0.010445 0)
(1.20381 -0.0143493 0)
(1.18067 -0.0169462 0)
(1.15676 -0.0214347 0)
(1.13301 -0.0272314 0)
(1.11095 -0.0329387 0)
(1.09161 -0.0401755 0)
(1.07405 -0.0508449 0)
(1.0565 -0.0648297 0)
(1.03795 -0.0777952 0)
(1.01851 -0.08443 0)
(0.998181 -0.0831039 0)
(0.977467 -0.0736451 0)
(0.957076 -0.0606624 0)
(0.937893 -0.0541367 0)
(0.921843 -0.0562313 0)
(0.908904 -0.0622859 0)
(0.898158 -0.0693699 0)
(0.888699 -0.0747671 0)
(0.880351 -0.0773705 0)
(0.873094 -0.0785568 0)
(0.867472 -0.0780883 0)
(0.863656 -0.0751346 0)
(0.861481 -0.0690011 0)
(0.85998 -0.0597783 0)
(0.85866 -0.0500022 0)
(0.857727 -0.0427066 0)
(0.857818 -0.0379215 0)
(0.859169 -0.0335931 0)
(0.861178 -0.0284967 0)
(0.863492 -0.0220202 0)
(0.865835 -0.0143008 0)
(0.868197 -0.00596498 0)
(0.87072 0.00237789 0)
(0.873422 0.0102671 0)
(0.876325 0.0178137 0)
(0.879265 0.0254027 0)
(0.882258 0.0335758 0)
(0.885317 0.042414 0)
(0.888611 0.0513124 0)
(0.892513 0.0590266 0)
(0.897071 0.0644015 0)
(0.902138 0.067911 0)
(0.907619 0.0715916 0)
(0.913372 0.0767119 0)
(0.919255 0.0833272 0)
(0.925876 0.0905495 0)
(0.934425 0.0971297 0)
(0.944927 0.102713 0)
(0.956555 0.107437 0)
(1.90059 0.128138 0)
(1.84839 0.189402 0)
(1.82592 0.197225 0)
(1.80646 0.212619 0)
(1.7898 0.227283 0)
(1.78011 0.237457 0)
(1.77993 0.242483 0)
(1.78481 0.23901 0)
(1.79416 0.227201 0)
(1.80069 0.213527 0)
(1.80181 0.209146 0)
(1.80626 0.198128 0)
(1.80556 0.185061 0)
(1.79976 0.184166 0)
(1.79105 0.188815 0)
(1.78302 0.189188 0)
(1.77761 0.184127 0)
(1.77175 0.176819 0)
(1.76347 0.171104 0)
(1.75406 0.166772 0)
(1.74448 0.162249 0)
(1.73464 0.157079 0)
(1.72426 0.152514 0)
(1.71314 0.148656 0)
(1.7014 0.143765 0)
(1.68948 0.137796 0)
(1.67717 0.132156 0)
(1.66438 0.125597 0)
(1.6508 0.11808 0)
(1.63659 0.111679 0)
(1.62231 0.104786 0)
(1.60705 0.0967147 0)
(1.59045 0.0890387 0)
(1.57353 0.0802822 0)
(1.55561 0.0714768 0)
(1.53571 0.0642143 0)
(1.51478 0.0554953 0)
(1.49306 0.0461296 0)
(1.47041 0.0381407 0)
(1.44757 0.028744 0)
(1.42472 0.0172088 0)
(1.40132 0.00578344 0)
(1.37741 -0.00416876 0)
(1.35396 -0.0117104 0)
(1.33124 -0.014578 0)
(1.30857 -0.011899 0)
(1.28465 -0.00796037 0)
(1.25879 -0.00769553 0)
(1.23118 -0.00880036 0)
(1.20365 -0.00869525 0)
(1.1783 -0.0128194 0)
(1.15602 -0.0250241 0)
(1.13491 -0.0411128 0)
(1.11314 -0.0549742 0)
(1.09027 -0.0616779 0)
(1.06599 -0.0583893 0)
(1.04145 -0.04584 0)
(1.01891 -0.0315215 0)
(0.999663 -0.0263647 0)
(0.984647 -0.0307453 0)
(0.972547 -0.0374582 0)
(0.962208 -0.0425814 0)
(0.953122 -0.04457 0)
(0.945102 -0.0434451 0)
(0.937879 -0.040064 0)
(0.931626 -0.0350819 0)
(0.926904 -0.028601 0)
(0.923556 -0.0212606 0)
(0.921192 -0.0138306 0)
(0.919606 -0.00684522 0)
(0.918629 -0.000386461 0)
(0.918396 0.00634646 0)
(0.918816 0.0137386 0)
(0.919603 0.0213827 0)
(0.920635 0.028551 0)
(0.921887 0.0346922 0)
(0.923328 0.0397419 0)
(0.9251 0.044641 0)
(0.927473 0.050237 0)
(0.930597 0.0565789 0)
(0.934414 0.0636584 0)
(0.938582 0.0708935 0)
(0.94321 0.0772505 0)
(0.948314 0.0822456 0)
(0.953912 0.0855383 0)
(0.960743 0.0873048 0)
(0.968359 0.0886385 0)
(0.976469 0.0905453 0)
(1.9606 0.0527656 0)
(1.91744 0.113928 0)
(1.89334 0.138822 0)
(1.84958 0.187387 0)
(1.81232 0.231848 0)
(1.79582 0.233966 0)
(1.79455 0.234297 0)
(1.78834 0.240407 0)
(1.7852 0.244344 0)
(1.78743 0.241257 0)
(1.79271 0.235138 0)
(1.80258 0.223203 0)
(1.80706 0.209586 0)
(1.80439 0.20769 0)
(1.8023 0.202949 0)
(1.80089 0.194422 0)
(1.79701 0.188633 0)
(1.79173 0.188125 0)
(1.78621 0.187033 0)
(1.7825 0.183231 0)
(1.78007 0.177707 0)
(1.77769 0.171364 0)
(1.774 0.166314 0)
(1.76885 0.164489 0)
(1.76277 0.163462 0)
(1.75705 0.160764 0)
(1.75205 0.157377 0)
(1.74719 0.153203 0)
(1.74194 0.147173 0)
(1.73637 0.140486 0)
(1.73046 0.134726 0)
(1.72329 0.128943 0)
(1.71492 0.121709 0)
(1.7062 0.112832 0)
(1.69623 0.103772 0)
(1.68403 0.0957074 0)
(1.67036 0.08666 0)
(1.65544 0.0762899 0)
(1.63928 0.0665255 0)
(1.62227 0.0581557 0)
(1.60395 0.0518935 0)
(1.58403 0.0480353 0)
(1.56334 0.0449951 0)
(1.54246 0.0416862 0)
(1.5212 0.0385285 0)
(1.50002 0.0341919 0)
(1.47913 0.027832 0)
(1.4573 0.0219377 0)
(1.4341 0.0173059 0)
(1.41059 0.0123665 0)
(1.38708 0.0105015 0)
(1.36323 0.0144554 0)
(1.338 0.0186154 0)
(1.3104 0.0181448 0)
(1.28062 0.0166414 0)
(1.25093 0.016012 0)
(1.22389 0.00932978 0)
(1.20067 -0.00568435 0)
(1.17916 -0.0210693 0)
(1.15741 -0.0304092 0)
(1.13488 -0.0323213 0)
(1.11184 -0.0274391 0)
(1.0894 -0.0175051 0)
(1.06947 -0.00652771 0)
(1.05272 0.000286239 0)
(1.03888 0.000686187 0)
(1.02737 -0.00257458 0)
(1.01727 -0.00497129 0)
(1.00817 -0.00443291 0)
(1.00003 -0.000897003 0)
(0.992964 0.00430255 0)
(0.987332 0.00993283 0)
(0.983186 0.0155241 0)
(0.980132 0.0207517 0)
(0.977822 0.0258776 0)
(0.976078 0.031736 0)
(0.974722 0.0387504 0)
(0.973858 0.0464848 0)
(0.973642 0.0532311 0)
(0.974082 0.0571548 0)
(0.975242 0.059016 0)
(0.977224 0.061198 0)
(0.98029 0.0645111 0)
(0.984131 0.0684738 0)
(0.98907 0.0730382 0)
(0.995035 0.0778737 0)
(1.00114 0.0821731 0)
(1.00759 0.0856222 0)
(1.99261 0.00924151 0)
(1.97578 0.0331718 0)
(1.95378 0.0641096 0)
(1.91001 0.117492 0)
(1.86278 0.184009 0)
(1.84558 0.196837 0)
(1.81953 0.220636 0)
(1.79955 0.248723 0)
(1.78949 0.251139 0)
(1.78396 0.248277 0)
(1.78649 0.246802 0)
(1.79046 0.241007 0)
(1.79493 0.231156 0)
(1.79694 0.223744 0)
(1.80102 0.214953 0)
(1.80088 0.206979 0)
(1.79772 0.205516 0)
(1.79283 0.204276 0)
(1.78957 0.20057 0)
(1.78746 0.1958 0)
(1.78541 0.191682 0)
(1.7838 0.18747 0)
(1.78205 0.183655 0)
(1.77984 0.180772 0)
(1.77855 0.176167 0)
(1.77712 0.169798 0)
(1.77463 0.165805 0)
(1.77221 0.163836 0)
(1.77045 0.16027 0)
(1.76897 0.154995 0)
(1.76714 0.150265 0)
(1.76489 0.145129 0)
(1.76215 0.137845 0)
(1.75833 0.129917 0)
(1.75293 0.124143 0)
(1.74636 0.119494 0)
(1.73949 0.112602 0)
(1.73154 0.104441 0)
(1.72215 0.0976498 0)
(1.71199 0.0916882 0)
(1.70069 0.0864065 0)
(1.68816 0.0814814 0)
(1.67504 0.0758594 0)
(1.6611 0.0702406 0)
(1.64617 0.0654993 0)
(1.63068 0.0619691 0)
(1.6147 0.0605036 0)
(1.598 0.0602988 0)
(1.58072 0.0600303 0)
(1.56262 0.060628 0)
(1.54351 0.0611134 0)
(1.52433 0.0580014 0)
(1.50492 0.0527064 0)
(1.484 0.0481624 0)
(1.4614 0.0425543 0)
(1.43816 0.0360761 0)
(1.41473 0.0343665 0)
(1.39033 0.0378898 0)
(1.36403 0.0402191 0)
(1.336 0.0391817 0)
(1.30762 0.0368808 0)
(1.28062 0.0330029 0)
(1.256 0.0249241 0)
(1.23399 0.0130509 0)
(1.21375 0.00250181 0)
(1.19411 -0.00201993 0)
(1.17412 -0.000205576 0)
(1.15361 0.00605026 0)
(1.1338 0.0144538 0)
(1.11619 0.0214989 0)
(1.10144 0.0247688 0)
(1.08934 0.0260031 0)
(1.07909 0.0279242 0)
(1.06986 0.0312062 0)
(1.06139 0.035301 0)
(1.05404 0.0394496 0)
(1.04803 0.0427808 0)
(1.04338 0.0450702 0)
(1.04003 0.0473319 0)
(1.0376 0.0508641 0)
(1.03566 0.056079 0)
(1.03448 0.0623729 0)
(1.03451 0.0680201 0)
(1.03567 0.071054 0)
(1.0381 0.0712088 0)
(1.04164 0.0700611 0)
(1.04595 0.0688691 0)
(1.05088 0.0690173 0)
(1.99946 0.000647292 0)
(1.99718 0.00364501 0)
(1.99006 0.0133709 0)
(1.97185 0.0356024 0)
(1.93269 0.0912907 0)
(1.9043 0.131063 0)
(1.86005 0.18204 0)
(1.82524 0.233833 0)
(1.8138 0.234647 0)
(1.80063 0.241179 0)
(1.79254 0.253157 0)
(1.7835 0.25435 0)
(1.78272 0.250529 0)
(1.78481 0.242866 0)
(1.78735 0.235285 0)
(1.79307 0.223534 0)
(1.79408 0.216756 0)
(1.79237 0.214699 0)
(1.7896 0.211157 0)
(1.78676 0.207767 0)
(1.7841 0.204952 0)
(1.78078 0.203156 0)
(1.77908 0.199853 0)
(1.77878 0.195174 0)
(1.77838 0.191242 0)
(1.77831 0.186321 0)
(1.77747 0.181694 0)
(1.77655 0.178241 0)
(1.7765 0.173513 0)
(1.77552 0.167812 0)
(1.77347 0.163509 0)
(1.77203 0.158735 0)
(1.77109 0.15218 0)
(1.76931 0.145285 0)
(1.76675 0.139082 0)
(1.76357 0.133257 0)
(1.75998 0.126887 0)
(1.7556 0.120668 0)
(1.75069 0.115181 0)
(1.74552 0.109896 0)
(1.73955 0.105051 0)
(1.73274 0.100606 0)
(1.72495 0.0970179 0)
(1.71598 0.0955065 0)
(1.70643 0.0950883 0)
(1.69691 0.094046 0)
(1.68724 0.0922448 0)
(1.67691 0.0903921 0)
(1.66596 0.0892056 0)
(1.65467 0.0882923 0)
(1.64327 0.086741 0)
(1.63157 0.0857911 0)
(1.61904 0.0863172 0)
(1.60547 0.0867554 0)
(1.59053 0.0870015 0)
(1.57378 0.0882128 0)
(1.55576 0.0885632 0)
(1.53756 0.0850782 0)
(1.51884 0.0784622 0)
(1.49864 0.0708274 0)
(1.47724 0.0626616 0)
(1.45524 0.0559217 0)
(1.43263 0.0541907 0)
(1.40904 0.0567037 0)
(1.38423 0.059283 0)
(1.3588 0.0600916 0)
(1.33391 0.0596786 0)
(1.31039 0.0573143 0)
(1.28886 0.051108 0)
(1.26911 0.0436161 0)
(1.25045 0.0383693 0)
(1.23223 0.0365662 0)
(1.21442 0.0384824 0)
(1.19745 0.042551 0)
(1.18186 0.0454857 0)
(1.1682 0.0469093 0)
(1.15646 0.0492252 0)
(1.14628 0.0529012 0)
(1.13738 0.0565274 0)
(1.12971 0.0593944 0)
(1.1233 0.0609148 0)
(1.11824 0.0611667 0)
(1.11469 0.0608887 0)
(1.1127 0.0614207 0)
(1.11199 0.0633391 0)
(1.11224 0.0655671 0)
(1.11354 0.0673071 0)
(1.11589 0.068422 0)
(1.99999 1.55914e-05 0)
(1.99988 0.000145174 0)
(1.9992 0.00100305 0)
(1.99603 0.00488871 0)
(1.98526 0.0194265 0)
(1.96469 0.0485933 0)
(1.93237 0.0890751 0)
(1.87586 0.169389 0)
(1.85307 0.196481 0)
(1.82593 0.225911 0)
(1.80207 0.257035 0)
(1.78983 0.255763 0)
(1.78044 0.255883 0)
(1.78023 0.255196 0)
(1.78063 0.24986 0)
(1.78233 0.241675 0)
(1.78182 0.236795 0)
(1.78392 0.230631 0)
(1.78716 0.222872 0)
(1.78584 0.218217 0)
(1.78229 0.216454 0)
(1.77873 0.214136 0)
(1.77474 0.212369 0)
(1.77361 0.207913 0)
(1.77422 0.201839 0)
(1.7735 0.197723 0)
(1.7749 0.191904 0)
(1.77585 0.185855 0)
(1.77506 0.182659 0)
(1.77288 0.180316 0)
(1.77068 0.176732 0)
(1.76936 0.171944 0)
(1.7684 0.166052 0)
(1.76726 0.159488 0)
(1.76528 0.154149 0)
(1.76275 0.149664 0)
(1.76061 0.143946 0)
(1.75862 0.137266 0)
(1.75598 0.131132 0)
(1.75253 0.126466 0)
(1.74826 0.123184 0)
(1.74355 0.120425 0)
(1.73867 0.118091 0)
(1.7338 0.116169 0)
(1.72923 0.113663 0)
(1.72452 0.110777 0)
(1.71894 0.109423 0)
(1.71247 0.109735 0)
(1.70581 0.11049 0)
(1.69967 0.11088 0)
(1.69407 0.1108 0)
(1.68845 0.110567 0)
(1.68223 0.110382 0)
(1.67503 0.110552 0)
(1.66688 0.110897 0)
(1.65801 0.110255 0)
(1.64867 0.108262 0)
(1.63867 0.106488 0)
(1.62753 0.106177 0)
(1.61495 0.106671 0)
(1.60084 0.107025 0)
(1.58511 0.107237 0)
(1.56828 0.106093 0)
(1.55107 0.101965 0)
(1.53328 0.0953602 0)
(1.51444 0.0879115 0)
(1.49483 0.0815848 0)
(1.47506 0.0784514 0)
(1.45503 0.0795347 0)
(1.43419 0.0826227 0)
(1.41264 0.0849362 0)
(1.39091 0.0859447 0)
(1.36979 0.0859176 0)
(1.35017 0.0847684 0)
(1.33201 0.0830073 0)
(1.31461 0.0815605 0)
(1.29807 0.0805765 0)
(1.28304 0.0791114 0)
(1.2696 0.076961 0)
(1.2576 0.0750152 0)
(1.24703 0.0746767 0)
(1.23765 0.0760426 0)
(1.22942 0.0777207 0)
(1.22251 0.0780837 0)
(1.21724 0.0767265 0)
(1.21357 0.0740539 0)
(1.21138 0.0702616 0)
(1.2107 0.0661947 0)
(2 1.11217e-07 0)
(2 2.05934e-06 0)
(1.99998 2.59741e-05 0)
(1.9998 0.000247289 0)
(1.99874 0.00160539 0)
(1.99468 0.00703551 0)
(1.98253 0.0223821 0)
(1.95181 0.0654486 0)
(1.92138 0.108856 0)
(1.88193 0.158934 0)
(1.82815 0.233642 0)
(1.80972 0.241575 0)
(1.7942 0.248985 0)
(1.78222 0.262464 0)
(1.77163 0.263878 0)
(1.77134 0.260102 0)
(1.77288 0.252506 0)
(1.77756 0.242501 0)
(1.77924 0.237094 0)
(1.77647 0.234449 0)
(1.77281 0.230797 0)
(1.77226 0.227519 0)
(1.77126 0.222671 0)
(1.76983 0.218169 0)
(1.76882 0.213245 0)
(1.76703 0.209669 0)
(1.76573 0.205673 0)
(1.7661 0.199735 0)
(1.76465 0.196376 0)
(1.76425 0.192011 0)
(1.76531 0.185485 0)
(1.76452 0.179973 0)
(1.7628 0.175694 0)
(1.76079 0.171329 0)
(1.75861 0.167379 0)
(1.75727 0.16283 0)
(1.75672 0.156811 0)
(1.75495 0.151295 0)
(1.75181 0.147967 0)
(1.74831 0.14565 0)
(1.74534 0.142741 0)
(1.7431 0.138672 0)
(1.74081 0.134225 0)
(1.73807 0.130624 0)
(1.73504 0.128043 0)
(1.73158 0.126741 0)
(1.72761 0.126786 0)
(1.72363 0.127112 0)
(1.72034 0.126767 0)
(1.71775 0.126229 0)
(1.71556 0.125658 0)
(1.71304 0.1259 0)
(1.70982 0.128291 0)
(1.70619 0.13131 0)
(1.70297 0.132665 0)
(1.69994 0.132878 0)
(1.69647 0.13318 0)
(1.69253 0.133379 0)
(1.68816 0.132773 0)
(1.68318 0.131191 0)
(1.67714 0.129145 0)
(1.66987 0.126833 0)
(1.66148 0.124473 0)
(1.652 0.122873 0)
(1.64128 0.122587 0)
(1.62921 0.123198 0)
(1.61592 0.123823 0)
(1.60174 0.124307 0)
(1.58723 0.123705 0)
(1.57255 0.121304 0)
(1.55758 0.117218 0)
(1.54215 0.112759 0)
(1.52627 0.10919 0)
(1.51005 0.10709 0)
(1.49355 0.106211 0)
(1.47682 0.105171 0)
(1.46002 0.103111 0)
(1.44376 0.100995 0)
(1.42844 0.0996955 0)
(1.41382 0.0984074 0)
(1.39999 0.0957061 0)
(1.3877 0.0919623 0)
(1.37689 0.0878283 0)
(1.36682 0.0833447 0)
(1.35812 0.079382 0)
(1.35115 0.0767601 0)
(1.34525 0.0743466 0)
(1.34057 0.0712561 0)
(2 2.43039e-10 0)
(2 9.20985e-09 0)
(2 2.39066e-07 0)
(2 4.01469e-06 0)
(1.99996 4.70248e-05 0)
(1.99971 0.000365793 0)
(1.99826 0.00215668 0)
(1.99221 0.010405 0)
(1.97921 0.0287531 0)
(1.94895 0.0672868 0)
(1.89701 0.141736 0)
(1.87125 0.173375 0)
(1.82699 0.219782 0)
(1.79064 0.270899 0)
(1.77229 0.268909 0)
(1.76558 0.263536 0)
(1.76689 0.26288 0)
(1.76842 0.259619 0)
(1.77059 0.25426 0)
(1.77164 0.246684 0)
(1.77203 0.238539 0)
(1.76876 0.23671 0)
(1.76508 0.235318 0)
(1.76168 0.23246 0)
(1.75934 0.228815 0)
(1.7582 0.224539 0)
(1.75969 0.217692 0)
(1.7595 0.211797 0)
(1.75888 0.206732 0)
(1.75958 0.199885 0)
(1.75799 0.195061 0)
(1.75522 0.192155 0)
(1.75293 0.18838 0)
(1.75229 0.183292 0)
(1.75278 0.17747 0)
(1.7531 0.171672 0)
(1.75198 0.167161 0)
(1.74923 0.164475 0)
(1.74605 0.161879 0)
(1.74399 0.157942 0)
(1.74218 0.153989 0)
(1.74007 0.150873 0)
(1.7374 0.148352 0)
(1.73423 0.146278 0)
(1.73116 0.14483 0)
(1.72858 0.144315 0)
(1.72649 0.144459 0)
(1.72501 0.143743 0)
(1.7238 0.142521 0)
(1.72264 0.141558 0)
(1.72148 0.141279 0)
(1.72022 0.142278 0)
(1.71926 0.143253 0)
(1.71915 0.142967 0)
(1.71931 0.142751 0)
(1.71929 0.14315 0)
(1.71913 0.143212 0)
(1.71854 0.1432 0)
(1.71744 0.144028 0)
(1.71608 0.145369 0)
(1.71455 0.146765 0)
(1.71267 0.148153 0)
(1.71038 0.149165 0)
(1.70765 0.149161 0)
(1.70421 0.148109 0)
(1.69986 0.146289 0)
(1.6945 0.143958 0)
(1.68806 0.141345 0)
(1.68075 0.139255 0)
(1.67292 0.138249 0)
(1.66459 0.137994 0)
(1.65566 0.138256 0)
(1.64622 0.139002 0)
(1.63621 0.139385 0)
(1.6257 0.138522 0)
(1.61503 0.137635 0)
(1.60403 0.1369 0)
(1.59256 0.134207 0)
(1.58109 0.130428 0)
(1.56975 0.127085 0)
(1.5582 0.122604 0)
(1.54697 0.117186 0)
(1.53662 0.11351 0)
(1.52634 0.109966 0)
(1.51642 0.103802 0)
(1.50766 0.0977144 0)
(1.50006 0.0929253 0)
(1.49342 0.086111 0)
(2 1.66737e-13 0)
(2 1.34301e-11 0)
(2 6.69363e-10 0)
(2 2.04274e-08 0)
(2 4.32973e-07 0)
(1.99999 6.42501e-06 0)
(1.99994 7.34485e-05 0)
(1.99957 0.000557399 0)
(1.99775 0.00302489 0)
(1.99092 0.0115208 0)
(1.97052 0.0398816 0)
(1.94115 0.0821162 0)
(1.89467 0.137202 0)
(1.83331 0.220119 0)
(1.80881 0.234412 0)
(1.78262 0.253082 0)
(1.76882 0.271811 0)
(1.75753 0.273784 0)
(1.75698 0.270182 0)
(1.759 0.262457 0)
(1.76275 0.253262 0)
(1.76517 0.247233 0)
(1.76293 0.244284 0)
(1.75933 0.241774 0)
(1.75587 0.238865 0)
(1.75305 0.235857 0)
(1.75107 0.231706 0)
(1.75065 0.225751 0)
(1.75013 0.220041 0)
(1.75068 0.213345 0)
(1.75061 0.207319 0)
(1.7496 0.202765 0)
(1.74876 0.197655 0)
(1.74771 0.192777 0)
(1.74594 0.189209 0)
(1.74355 0.186252 0)
(1.74187 0.182306 0)
(1.74123 0.177756 0)
(1.74061 0.173229 0)
(1.73939 0.169032 0)
(1.73714 0.165747 0)
(1.73405 0.164056 0)
(1.73054 0.162974 0)
(1.72811 0.160657 0)
(1.72696 0.157694 0)
(1.72625 0.155689 0)
(1.7259 0.154713 0)
(1.72565 0.153978 0)
(1.7252 0.153144 0)
(1.72447 0.152711 0)
(1.72349 0.153197 0)
(1.72256 0.154363 0)
(1.72228 0.155117 0)
(1.72247 0.155587 0)
(1.72281 0.1563 0)
(1.72356 0.156818 0)
(1.72474 0.157485 0)
(1.72614 0.158087 0)
(1.72764 0.158427 0)
(1.72921 0.158865 0)
(1.73087 0.15946 0)
(1.7324 0.159814 0)
(1.73379 0.159701 0)
(1.73495 0.159508 0)
(1.7356 0.15952 0)
(1.73565 0.159661 0)
(1.73514 0.160171 0)
(1.734 0.161269 0)
(1.73248 0.161941 0)
(1.73095 0.161673 0)
(1.72921 0.160653 0)
(1.72683 0.158913 0)
(1.72394 0.15707 0)
(1.72079 0.155568 0)
(1.7171 0.15362 0)
(1.71295 0.151466 0)
(1.70882 0.150132 0)
(1.70432 0.148195 0)
(1.69914 0.144919 0)
(1.69401 0.142829 0)
(1.68877 0.140834 0)
(1.68282 0.135264 0)
(1.67677 0.129112 0)
(1.67082 0.125389 0)
(1.66418 0.119114 0)
(1.65763 0.109544 0)
(1.65179 0.10303 0)
(1.64572 0.0974924 0)
(2 -4.42422e-16 0)
(2 5.42973e-15 0)
(2 5.22872e-13 0)
(2 2.93713e-11 0)
(2 1.23271e-09 0)
(2 3.57132e-08 0)
(2 7.55543e-07 0)
(1.99999 1.01494e-05 0)
(1.99992 9.82039e-05 0)
(1.99939 0.000780028 0)
(1.99691 0.00406568 0)
(1.98813 0.0164297 0)
(1.96748 0.0419449 0)
(1.91852 0.106592 0)
(1.86721 0.1735 0)
(1.83186 0.20637 0)
(1.78263 0.260646 0)
(1.76275 0.274071 0)
(1.75445 0.268513 0)
(1.75566 0.267086 0)
(1.75625 0.264263 0)
(1.75485 0.262007 0)
(1.75285 0.257942 0)
(1.75272 0.254174 0)
(1.75203 0.249367 0)
(1.74873 0.245862 0)
(1.74583 0.242008 0)
(1.74262 0.237798 0)
(1.74039 0.233323 0)
(1.74103 0.227096 0)
(1.74176 0.221017 0)
(1.74148 0.216291 0)
(1.74119 0.211225 0)
(1.74054 0.206379 0)
(1.73969 0.202122 0)
(1.7387 0.1979 0)
(1.73769 0.193316 0)
(1.73635 0.189112 0)
(1.73443 0.18588 0)
(1.73195 0.183285 0)
(1.72967 0.180327 0)
(1.72884 0.176832 0)
(1.72843 0.17309 0)
(1.7271 0.170203 0)
(1.72501 0.168741 0)
(1.72264 0.168436 0)
(1.72062 0.168802 0)
(1.71935 0.168774 0)
(1.71884 0.167885 0)
(1.71883 0.166989 0)
(1.7195 0.16629 0)
(1.72086 0.16548 0)
(1.72237 0.164805 0)
(1.72362 0.164471 0)
(1.72464 0.1644 0)
(1.72585 0.164592 0)
(1.72763 0.165011 0)
(1.7299 0.165784 0)
(1.73237 0.166542 0)
(1.73491 0.167393 0)
(1.73733 0.168841 0)
(1.73952 0.170112 0)
(1.74192 0.170557 0)
(1.74464 0.170917 0)
(1.74734 0.171261 0)
(1.74984 0.171279 0)
(1.75238 0.171554 0)
(1.75521 0.171762 0)
(1.75802 0.170964 0)
(1.76057 0.169975 0)
(1.76298 0.170079 0)
(1.76503 0.17027 0)
(1.76661 0.169586 0)
(1.76804 0.16945 0)
(1.76921 0.16928 0)
(1.76987 0.16753 0)
(1.7706 0.165895 0)
(1.77161 0.164653 0)
(1.7722 0.161016 0)
(1.77245 0.15679 0)
(1.77298 0.154886 0)
(1.77299 0.151266 0)
(1.77223 0.14462 0)
(1.77161 0.140592 0)
(1.77058 0.137265 0)
(1.76872 0.129002 0)
(1.76658 0.121533 0)
(1.76407 0.117504 0)
(2 -2.82144e-15 0)
(2 -2.89543e-15 0)
(2 -2.35987e-15 0)
(2 9.69052e-15 0)
(2 9.99631e-13 0)
(2 5.9388e-11 0)
(2 2.13802e-09 0)
(2 5.47311e-08 0)
(2 1.08408e-06 0)
(1.99999 1.53678e-05 0)
(1.99988 0.00015303 0)
(1.99919 0.00104473 0)
(1.99579 0.00534393 0)
(1.98209 0.023473 0)
(1.95543 0.0590348 0)
(1.91088 0.111647 0)
(1.82825 0.214175 0)
(1.79131 0.246267 0)
(1.7756 0.249317 0)
(1.76249 0.264769 0)
(1.74968 0.27259 0)
(1.74619 0.271705 0)
(1.74601 0.266889 0)
(1.74714 0.261218 0)
(1.74402 0.258198 0)
(1.74099 0.255109 0)
(1.7374 0.252115 0)
(1.73485 0.248987 0)
(1.73364 0.244438 0)
(1.7339 0.238813 0)
(1.7337 0.234145 0)
(1.7334 0.229672 0)
(1.73382 0.224012 0)
(1.73369 0.218867 0)
(1.73286 0.215116 0)
(1.73168 0.211484 0)
(1.73069 0.207227 0)
(1.72987 0.202935 0)
(1.72932 0.198758 0)
(1.72862 0.194768 0)
(1.72749 0.191158 0)
(1.72574 0.188867 0)
(1.72379 0.186767 0)
(1.72194 0.184613 0)
(1.72045 0.182924 0)
(1.7199 0.181065 0)
(1.71989 0.179328 0)
(1.71994 0.177816 0)
(1.71947 0.176613 0)
(1.71857 0.176402 0)
(1.71766 0.177015 0)
(1.71714 0.177445 0)
(1.71762 0.177147 0)
(1.71909 0.176351 0)
(1.7211 0.175375 0)
(1.72333 0.174594 0)
(1.7257 0.174641 0)
(1.72812 0.175589 0)
(1.73048 0.176606 0)
(1.73298 0.177888 0)
(1.73579 0.179642 0)
(1.73904 0.180351 0)
(1.74285 0.179808 0)
(1.74695 0.179522 0)
(1.75094 0.180008 0)
(1.75468 0.180143 0)
(1.75874 0.179972 0)
(1.76317 0.180317 0)
(1.76742 0.180411 0)
(1.77165 0.179891 0)
(1.77637 0.179633 0)
(1.78112 0.1793 0)
(1.78533 0.177914 0)
(1.78943 0.176932 0)
(1.79379 0.176818 0)
(1.79799 0.174657 0)
(1.80184 0.1715 0)
(1.8061 0.170251 0)
(1.81022 0.168268 0)
(1.81369 0.164439 0)
(1.81751 0.162386 0)
(1.8217 0.15996 0)
(1.82533 0.152961 0)
(1.82825 0.147198 0)
(1.83129 0.14475 0)
(1.83409 0.137709 0)
(1.8359 0.128082 0)
(1.8373 0.123567 0)
(2 -4.81394e-16 0)
(2 -9.88217e-16 0)
(2 -1.48351e-15 0)
(2 -1.40886e-15 0)
(2 -9.37603e-16 0)
(2 2.20323e-14 0)
(2 1.64763e-12 0)
(2 8.5924e-11 0)
(2 3.55947e-09 0)
(2 9.21357e-08 0)
(2 1.6896e-06 0)
(1.99998 2.28958e-05 0)
(1.99981 0.000233742 0)
(1.99866 0.00169384 0)
(1.99348 0.00865182 0)
(1.9765 0.0285634 0)
(1.92915 0.0875492 0)
(1.87386 0.154956 0)
(1.82496 0.202779 0)
(1.77081 0.268488 0)
(1.75147 0.278565 0)
(1.74388 0.270361 0)
(1.74404 0.26677 0)
(1.74309 0.26406 0)
(1.74086 0.261583 0)
(1.73672 0.26021 0)
(1.73189 0.258718 0)
(1.72924 0.256171 0)
(1.72785 0.252636 0)
(1.72657 0.249195 0)
(1.72545 0.246093 0)
(1.72564 0.24183 0)
(1.72683 0.236162 0)
(1.72708 0.23124 0)
(1.72637 0.227841 0)
(1.72532 0.224102 0)
(1.72464 0.219476 0)
(1.72403 0.215268 0)
(1.72349 0.211744 0)
(1.72275 0.208666 0)
(1.72212 0.205416 0)
(1.72155 0.2023 0)
(1.72116 0.199015 0)
(1.72066 0.195704 0)
(1.7198 0.193562 0)
(1.7189 0.191923 0)
(1.71788 0.190907 0)
(1.71677 0.19045 0)
(1.71574 0.189654 0)
(1.71514 0.189043 0)
(1.71527 0.188535 0)
(1.71614 0.187326 0)
(1.71732 0.186059 0)
(1.71853 0.18552 0)
(1.71967 0.185223 0)
(1.7211 0.184823 0)
(1.72308 0.184974 0)
(1.7256 0.185467 0)
(1.7288 0.18516 0)
(1.73237 0.184532 0)
(1.73608 0.18473 0)
(1.73982 0.184967 0)
(1.74344 0.184593 0)
(1.74704 0.185218 0)
(1.75066 0.187031 0)
(1.75464 0.18753 0)
(1.75923 0.187263 0)
(1.76424 0.188251 0)
(1.76935 0.188804 0)
(1.77491 0.187291 0)
(1.78044 0.186435 0)
(1.78568 0.187215 0)
(1.79091 0.186126 0)
(1.79662 0.183398 0)
(1.8026 0.18209 0)
(1.80858 0.179849 0)
(1.8144 0.175395 0)
(1.81999 0.173594 0)
(1.82564 0.172861 0)
(1.83141 0.168555 0)
(1.83667 0.165507 0)
(1.84237 0.16496 0)
(1.84825 0.160382 0)
(1.85312 0.154155 0)
(1.85793 0.152004 0)
(1.86307 0.147378 0)
(1.86771 0.137773 0)
(1.87124 0.132497 0)
(2 1.47217e-15 0)
(2 -4.22171e-18 0)
(2 -1.42386e-15 0)
(2 -2.18856e-15 0)
(2 -3.86979e-15 0)
(2 -3.45687e-15 0)
(2 -2.49934e-15 0)
(2 3.73535e-14 0)
(2 3.17357e-12 0)
(2 1.51156e-10 0)
(2 5.9675e-09 0)
(2 1.54834e-07 0)
(2 3.30248e-06 0)
(1.99996 4.30639e-05 0)
(1.99967 0.000404428 0)
(1.99756 0.00296206 0)
(1.98847 0.0139425 0)
(1.9591 0.0526415 0)
(1.91637 0.0998233 0)
(1.83647 0.18924 0)
(1.78246 0.249854 0)
(1.75985 0.259289 0)
(1.7474 0.269943 0)
(1.73733 0.272859 0)
(1.73136 0.271392 0)
(1.73058 0.268522 0)
(1.72958 0.263687 0)
(1.72686 0.258973 0)
(1.72308 0.256727 0)
(1.72017 0.255418 0)
(1.71823 0.253745 0)
(1.71772 0.250813 0)
(1.71833 0.246594 0)
(1.71864 0.242936 0)
(1.71883 0.23978 0)
(1.71924 0.235848 0)
(1.71927 0.231354 0)
(1.71863 0.227391 0)
(1.71778 0.22411 0)
(1.71694 0.22128 0)
(1.71641 0.218426 0)
(1.71615 0.215529 0)