/*--------------------------------*- C++ -*----------------------------------*\
  =========                 |
  \\      /  F ield         | OpenFOAM: The Open Source CFD Toolbox
   \\    /   O peration     | Website:  https://openfoam.org
    \\  /    A nd           | Version:  7
     \\/     M anipulation  |
\*---------------------------------------------------------------------------*/
FoamFile
{
    version     2.0;
    format      ascii;
    class       volVectorField;
    location    "0.706";
    object      U;
}
// * * * * * * * * * * * * * * * * * * * * * * * * * * * * * * * * * * * * * //

dimensions      [0 1 -1 0 0 0 0];

internalField   nonuniform List<vector> 
12359
(
(0.982426 -0.000425587 1.00081e-16)
(0.969126 -0.00119576 -8.57774e-17)
(0.999978 2.62537e-07 3.10494e-17)
(0.932115 0.00134663 -5.41821e-17)
(0.975893 -0.000803932 2.18638e-16)
(0.873236 0.00127943 -3.47269e-18)
(0.844634 -0.0029816 -1.06729e-16)
(0.864909 0.00229725 -6.95319e-17)
(0.796589 0.0207698 1.67941e-16)
(0.890261 -0.00314285 8.22735e-17)
(0.813604 0.00967125 -1.82197e-17)
(0.732212 0.0210399 6.39165e-17)
(0.333474 0.0648956 -6.81735e-17)
(0.928744 0.00161427 5.89193e-17)
(0.936974 -0.00151562 -5.82553e-17)
(0.518378 0.0112873 -5.4473e-17)
(0.41649 0.0340276 -8.32261e-17)
(0.994561 -1.25792e-05 8.05211e-17)
(0.994946 -3.63005e-06 -1.29865e-17)
(0.954153 -0.000962918 -2.80674e-18)
(0.921809 -0.00191261 3.33807e-17)
(0.775941 0.0200369 5.77068e-17)
(0.961371 -0.000561243 -8.65273e-17)
(0.950538 0.000732001 2.05381e-17)
(0.96671 -0.000385188 1.4913e-18)
(0.957377 -0.00163262 -1.5114e-16)
(0.998425 -7.29243e-05 -2.97781e-17)
(0.998596 -1.92911e-05 -1.96941e-17)
(0.995907 6.70846e-05 -1.15334e-16)
(0.997791 -3.37407e-05 -5.79696e-17)
(0.997331 -8.1155e-05 3.87551e-17)
(0.999296 -2.60469e-05 2.03403e-18)
(0.999752 3.42771e-07 4.4167e-17)
(0.997993 -5.73635e-05 -6.34878e-17)
(0.999925 -1.22269e-05 2.56331e-17)
(0.997073 1.33844e-05 1.5908e-17)
(0.988436 -0.000230868 1.19469e-16)
(0.98364 0.000143134 -2.15759e-16)
(0.9777 -0.000992822 3.26611e-16)
(0.985538 -0.000446888 2.39553e-16)
(0.971406 -0.0012393 4.78182e-17)
(0.984309 0.000295565 -3.67766e-17)
(0.991739 -0.000326126 1.06702e-17)
(0.992285 6.82783e-05 -7.66877e-17)
(0.996428 -0.00016529 5.84083e-17)
(0.996077 -0.00012002 9.20596e-18)
(0.99677 -0.000105195 -2.116e-18)
(0.997591 1.67981e-05 -2.23102e-17)
(0.995539 8.6581e-05 -6.42901e-17)
(0.998265 -8.39872e-05 -5.63511e-17)
(0.998736 -3.84756e-05 -2.95704e-17)
(0.999063 -3.36382e-06 -1.48965e-17)
(0.999458 -2.72385e-05 3.00059e-17)
(0.993978 -2.14569e-05 -2.85802e-17)
(0.999567 2.73197e-05 -2.53232e-17)
(0.999708 -2.59947e-06 -1.9718e-17)
(0.993148 -0.000193001 1.29059e-16)
(0.999811 -9.09862e-06 1.60012e-17)
(0.999789 3.64257e-07 -5.7928e-18)
(0.999864 -1.73071e-06 8.95191e-18)
(0.999641 -1.82726e-08 -3.53727e-17)
(0.999918 6.90023e-06 -3.80857e-17)
(0.998905 -9.50568e-05 -2.08336e-17)
(0.214086 0.0790187 -1.02997e-15)
(0.993595 -4.75543e-05 -5.3654e-17)
(0.910143 -0.00271258 6.27372e-17)
(0.989635 -0.000121992 -1.80238e-17)
(0.999131 -4.29363e-07 -1.95529e-17)
(0.987777 -0.000225338 -3.61683e-17)
(0.619805 0.0187041 6.00624e-17)
(-0.0263728 -0.0437499 6.59088e-15)
(0.974112 -0.00137083 5.59865e-17)
(0.999974 -1.36437e-05 -2.46112e-17)
(0.986738 -0.000618163 -1.5481e-16)
(0.942083 -0.00297432 -1.26336e-16)
(0.999887 -2.56632e-06 1.16666e-17)
(0.999501 -2.42947e-05 1.61598e-17)
(0.999932 -3.04852e-05 3.58051e-17)
(0.989865 -0.000198141 2.2362e-17)
(0.668264 0.00182524 1.02665e-16)
(0.926649 0.0614046 -1.11069e-16)
(1.00356 0.00278753 -6.67146e-18)
(1.00003 -9.93777e-07 1.91664e-19)
(0.99841 0.0128064 4.79043e-18)
(1.09854 0.147705 6.20366e-18)
(1.02291 -0.000108076 2.57879e-19)
(1.0038 0.00257894 -5.55984e-18)
(1.0016 -2.98076e-05 7.08979e-19)
(1.11518 0.0575418 1.11883e-18)
(1.08983 0.156358 2.87134e-18)
(0.999965 0.00013014 -2.50419e-19)
(0.215413 0.142026 -5.44988e-16)
(1 1.8276e-05 -1.72522e-17)
(0.999633 0.00632271 -1.46224e-17)
(0.999024 0.0107918 3.50991e-18)
(1.03533 0.00198611 -1.16636e-18)
(1.0001 0.00535191 -4.98401e-18)
(0.999459 0.00602536 2.97292e-19)
(0.990908 0.0291963 -4.20628e-19)
(0.994793 0.0182932 2.01997e-17)
(0.942623 0.0813648 -7.60875e-17)
(1 2.17951e-05 -7.04254e-18)
(1.02164 0.000808302 -2.66829e-18)
(1.22262 0.05672 -3.44781e-17)
(1.00477 0.00102735 -3.74706e-19)
(1.03309 0.0223253 -8.93785e-18)
(1.0003 4.4156e-05 4.56406e-18)
(1.09833 0.145114 2.63695e-17)
(1.01846 0.000702846 -1.02989e-17)
(1.03303 0.0202737 -7.99854e-18)
(1.00004 0.0047629 3.64254e-18)
(1.0035 0.00275358 1.8067e-18)
(0.934303 0.0434764 4.04419e-17)
(0.956795 0.071929 -3.11745e-17)
(0.999292 0.0107947 4.43857e-19)
(1.00283 -0.000690317 -5.15093e-18)
(0.950903 0.0765615 -7.66214e-17)
(1.00455 0.00244484 2.29924e-18)
(1.12412 0.046205 2.26929e-17)
(0.999999 1.48882e-05 -4.87694e-19)
(0.999964 0.00499444 -5.46204e-18)
(0.86617 0.0281312 -2.75534e-16)
(1.00165 0.000275303 -3.90997e-18)
(1.03705 0.00649118 1.15377e-18)
(1.00459 0.00236609 1.56023e-18)
(1.00342 0.000519371 -1.76338e-18)
(1.00828 0.0942081 -1.29274e-17)
(0.998072 0.0124737 8.84935e-19)
(0.999984 1.46568e-05 -5.65765e-17)
(1.00459 0.00204963 1.77609e-17)
(1.00258 0.000275241 -1.44948e-17)
(1.04973 0.0184655 -1.54949e-18)
(1.05221 0.0174425 6.17748e-18)
(1.05038 0.016338 -2.69804e-18)
(1.00024 4.62818e-05 -2.5205e-18)
(1.03704 0.00677863 9.10801e-18)
(1.003 -0.00040203 -7.77154e-18)
(1.03676 0.00675384 -3.29589e-18)
(1 8.67806e-05 -2.11496e-17)
(1.00986 0.0890059 1.58955e-18)
(0.999998 2.63743e-05 4.46554e-20)
(0.981988 0.00278488 2.38197e-16)
(1.03089 0.0131664 -1.14327e-18)
(1.00027 0.000104936 1.98304e-18)
(1.03937 0.0394722 -1.03103e-17)
(0.899998 0.0277602 3.85597e-18)
(1.00002 3.28174e-06 -1.24649e-18)
(1.08975 0.11444 1.97584e-17)
(1.00506 0.00119795 -1.32468e-17)
(0.919045 0.0578315 -9.56223e-17)
(1.03815 8.0847e-05 -4.66734e-19)
(0.999993 4.39596e-05 -1.22618e-17)
(1.03103 0.0137716 2.6115e-18)
(1.00182 0.000107304 -7.27842e-18)
(1.00001 -2.28782e-06 5.53915e-19)
(0.573649 1.30923 -4.60505e-18)
(0.935246 0.0875484 3.00105e-18)
(1.04988 0.0179681 2.05729e-18)
(1.00012 0.00538796 6.55109e-19)
(0.999148 0.000601221 2.31769e-17)
(1.00251 0.0455144 -1.36526e-17)
(0.999083 0.000716124 -1.15882e-17)
(1.03806 0.00572185 -5.08278e-18)
(1.03287 0.0109536 -4.90627e-18)
(1.00004 3.02707e-05 1.14127e-19)
(1.00315 0.000231486 -5.72653e-19)
(1.00181 0.0444676 -1.70827e-17)
(0.867419 0.0136732 3.38102e-16)
(1.03234 0.0106317 -7.52209e-19)
(1.12044 0.0532652 -1.22338e-17)
(0.999971 1.67907e-05 5.26903e-17)
(0.999985 2.59852e-05 -2.90698e-17)
(1.03253 0.00881251 -3.18115e-19)
(0.971768 0.00242733 1.78157e-17)
(1.00474 0.00103628 -5.45642e-18)
(1.00431 0.0878552 -2.24119e-17)
(0.996349 0.000486293 -4.18823e-17)
(0.996579 0.000817536 7.12636e-18)
(0.937396 0.0496342 8.88521e-17)
(1.00534 0.0855323 -1.01379e-17)
(0.939071 0.00594136 2.26188e-16)
(1.00001 4.63942e-05 3.34235e-18)
(0.99997 1.081e-05 8.94888e-17)
(1.0041 0.00280601 -6.5003e-19)
(0.991988 0.0277934 -9.20323e-18)
(0.816785 0.0983872 6.56759e-17)
(1.00411 0.00553076 -3.06331e-18)
(1.00032 0.0103918 -1.92558e-17)
(1.03875 0.000821951 -1.54762e-18)
(1.00461 0.00584676 -4.58367e-18)
(0.999513 0.0102538 -4.3978e-18)
(1.03703 0.00181585 -1.84863e-18)
(1.03458 -1.92536e-05 1.29414e-18)
(1.00193 7.33797e-05 8.062e-18)
(1.03433 0.0196091 -1.73862e-17)
(1.13564 0.0482339 -2.03457e-17)
(1.01478 0.0123013 6.52334e-18)
(1.0034 0.00620703 -2.09151e-20)
(1.03041 0.0151108 3.75789e-18)
(1.0044 0.00249716 2.49205e-18)
(0.8936 0.0271853 2.36914e-16)
(1.0386 0.00202162 -1.26558e-18)
(0.99332 0.0183501 -9.29261e-18)
(1.03303 0.0192423 -1.20537e-17)
(1.03546 0.0363444 -2.43147e-18)
(1.00001 4.93252e-05 5.6486e-18)
(1.03674 0.0361677 -7.775e-18)
(0.992525 0.0179802 -4.07691e-17)
(1.04023 0.0056045 2.80121e-19)
(1.00548 0.00355045 -4.84032e-18)
(1.00001 4.00529e-05 1.63677e-19)
(1.04474 0.0137335 -1.37006e-18)
(1.04506 0.014485 -3.24488e-18)
(1.09961 0.113337 -8.21323e-17)
(0.834397 0.0807488 1.33153e-16)
(0.999958 4.06896e-05 2.67408e-17)
(1.00378 0.00581653 -6.01836e-18)
(0.999108 0.0104429 6.35449e-18)
(1.00425 0.00573213 -3.96098e-18)
(0.982559 0.00172769 3.34324e-16)
(0.947652 0.0603119 -7.30813e-18)
(1.00512 0.00369856 -1.66889e-18)
(1.03709 0.00548311 2.29143e-18)
(0.430693 0.341493 -1.65887e-16)
(1.00536 0.00231154 1.27037e-17)
(1.00001 3.91367e-05 -2.88678e-18)
(0.981351 0.000837258 -5.37594e-17)
(1.01843 -0.0017524 -6.56552e-18)
(1.00169 0.08674 1.30431e-17)
(1.0026 0.00664653 -6.39678e-18)
(1.00286 0.00631608 1.63715e-17)
(1.00004 1.56045e-05 -1.35082e-18)
(1.0384 0.0397978 -1.07888e-18)
(0.99263 0.023156 2.8002e-17)
(1.00078 0.0104119 -2.15586e-19)
(0.994363 0.0207196 3.08485e-17)
(1.00001 2.7341e-05 -6.08227e-19)
(1.03137 0.0147428 3.22026e-18)
(1.00047 0.0107282 -7.4649e-18)
(0.633358 0.24721 7.42563e-17)
(1.00008 -1.66329e-06 -1.30523e-18)
(1.02397 0.00309933 2.22803e-18)
(0.999967 0.00732373 -2.8891e-18)
(0.983966 0.16382 -6.06745e-17)
(1.00481 0.0473539 -1.59549e-17)
(1.09091 0.117788 7.24217e-18)
(0.999875 4.30961e-05 -8.63754e-18)
(1.04014 0.00621036 6.72785e-19)
(1.0044 0.000175727 2.65622e-18)
(1.03383 -0.000425178 1.48921e-18)
(1.04282 0.0111265 5.21274e-18)
(0.985627 0.000586862 -4.49677e-16)
(0.996932 0.000590123 1.70152e-17)
(1.00229 0.00627153 2.43565e-18)
(0.516591 0.432252 8.82675e-17)
(1.25527 0.144146 -5.17977e-17)
(0.999987 1.7949e-05 2.37421e-18)
(1.00533 0.00331601 4.08552e-18)
(0.364662 0.323924 8.11357e-17)
(0.577392 0.00135395 3.98923e-17)
(0.993561 0.0188934 1.14804e-17)
(1.00346 0.047452 -1.3346e-17)
(1.00288 0.0785739 1.11629e-17)
(1.03383 0.0178699 -1.89984e-17)
(0.973607 0.000399075 1.93225e-16)
(1.35374 0.352601 -3.84548e-17)
(1.11316 0.0486564 1.10024e-17)
(1.00514 0.0501091 -1.08419e-18)
(1.0053 0.00270411 -1.9559e-17)
(1.03712 0.00828339 1.50341e-18)
(1.0326 0.00936 2.20208e-18)
(0.988041 0.0266482 1.78247e-17)
(1.03225 0.0125398 2.29544e-18)
(1.00248 0.00659236 -8.68276e-18)
(1.0056 0.00342272 -7.48328e-18)
(1.00004 5.74006e-05 -1.99602e-18)
(1.00542 0.00295207 -1.30952e-18)
(1.17338 0.104415 -2.04555e-17)
(1.00513 0.0515873 -1.83985e-17)
(1.00043 0.000140118 2.08366e-18)
(1 5.94401e-05 -1.03665e-17)
(1.0349 0.01753 -1.04064e-17)
(1.00716 0.00115515 1.99336e-18)
(0.991023 0.000601558 -1.68328e-16)
(1.02285 8.07986e-05 -6.13569e-18)
(1.00001 2.83573e-05 1.10283e-18)
(1.00256 0.0756168 -6.05569e-18)
(1 1.30786e-05 3.91706e-18)
(0.999995 -1.1341e-05 1.85364e-17)
(0.999394 0.000105401 2.28207e-17)
(1.03835 0.00516573 9.56887e-20)
(1.00386 0.00241971 1.13909e-17)
(1.41698 0.427048 -4.59888e-17)
(1.0003 7.16022e-06 -4.50303e-18)
(1.00029 4.0888e-05 6.97012e-18)
(1.02108 0.00149649 -3.46026e-18)
(1.00417 0.000358064 -7.50882e-18)
(0.94586 0.0702874 1.51386e-17)
(0.999049 0.00933528 -3.27768e-17)
(0.998881 0.000257288 5.28852e-17)
(0.999975 4.82667e-05 4.44387e-18)
(1.17394 0.0956683 -4.23724e-17)
(1.00414 0.0794121 1.39064e-17)
(0.999972 3.93431e-05 6.01071e-19)
(1.00372 0.00582951 7.5265e-18)
(0.999715 0.00885917 7.85196e-18)
(1.00458 0.000539847 -3.21664e-19)
(1.00333 -0.000650608 2.13189e-18)
(1.00275 0.000203863 -5.65287e-18)
(1.00455 0.000900711 -2.49157e-18)
(0.995547 0.00138985 2.10218e-17)
(0.834478 0.0610776 -1.67434e-16)
(1.00509 0.00182682 -9.14392e-18)
(0.997675 0.000113965 -7.4445e-17)
(0.985854 0.000876743 -3.63883e-16)
(1.0251 0.0264637 -7.61437e-18)
(1.1027 0.0403832 -3.86267e-19)
(1.00516 3.87313e-05 -5.07275e-18)
(0.990134 0.0251164 1.72464e-17)
(0.585981 0.0843432 6.87927e-17)
(0.999994 1.53769e-05 1.98464e-17)
(1.02687 0.0119755 -1.89459e-18)
(1.00051 0.000187725 -3.20041e-19)
(1.01418 0.0127611 4.23985e-18)
(1.00029 5.09523e-05 7.45883e-18)
(1.00584 -6.54892e-05 3.5987e-18)
(0.808418 0.042724 4.88954e-16)
(1.02785 0.0140325 2.02652e-18)
(0.804873 0.0863263 -1.68132e-16)
(0.991273 0.00039554 -1.31671e-16)
(1.00054 0.00791878 4.23969e-18)
(1.03386 0.000458332 1.39558e-19)
(1.03965 -0.00152685 -7.21328e-19)
(1.00061 0.00794527 3.38749e-18)
(1.03377 0.00112224 2.23171e-19)
(1.03381 0.00230526 -3.67015e-19)
(1.00082 7.30756e-05 -4.58858e-19)
(0.999521 0.000637973 -2.35169e-17)
(0.999504 0.000615674 3.38544e-18)
(0.999473 0.00061379 -1.89817e-17)
(0.999463 0.000571753 -1.16721e-17)
(0.693177 0.278049 -2.95619e-17)
(1.00003 4.10148e-05 3.89714e-18)
(0.939318 0.0794235 1.08181e-17)
(1.04058 0.00390204 -3.1842e-19)
(0.99302 0.0251414 -2.7576e-17)
(1.03251 0.0128447 2.18679e-18)
(1.02816 0.015499 -5.4509e-18)
(1.02078 0.00212253 -1.35376e-18)
(1.0135 0.0122603 -4.85526e-18)
(1.02871 0.0140033 -1.84364e-18)
(1.01326 0.0122953 -6.60853e-18)
(0.991056 0.0264586 1.28225e-17)
(1.02727 0.0278737 9.14375e-18)
(1.02583 0.0311223 7.721e-18)
(0.955007 0.0496708 -4.9182e-17)
(0.981158 0.00208375 6.07612e-17)
(1.03287 0.0805361 -1.59786e-17)
(0.983044 0.00159059 4.89965e-17)
(0.98348 0.00102982 1.76524e-16)
(1.03002 0.0154896 4.02365e-19)
(0.941742 0.0933666 3.59533e-17)
(1.00301 0.00271108 3.98267e-18)
(0.999693 0.000130925 8.05982e-17)
(1.01585 0.0113186 -5.66623e-18)
(0.99966 2.35706e-05 1.05965e-16)
(1.00334 0.00304519 -9.79077e-18)
(0.776243 0.0206772 6.34736e-17)
(0.18184 0.15874 -2.16736e-16)
(1.00325 0.00287411 -7.23911e-21)
(0.999987 2.04454e-05 -1.23448e-17)
(1.00022 -1.20498e-05 -1.93412e-18)
(0.999991 3.23938e-05 2.77355e-18)
(1.02846 0.0121306 -2.13248e-18)
(0.999998 2.62698e-05 8.05139e-19)
(0.999994 1.21709e-05 -4.29462e-18)
(1.12668 0.0597747 -2.26259e-17)
(1.03262 0.0108386 -4.65863e-19)
(1.0855 0.165653 -6.21271e-19)
(1.00149 0.00315938 1.65487e-18)
(1.03502 0.0128392 2.46859e-18)
(1.00681 0.000647449 4.06532e-18)
(1.00016 0.00873646 1.10385e-17)
(1.03183 0.0279714 8.06559e-18)
(1.01611 0.0107927 -9.07804e-18)
(0.932 0.00371853 3.01111e-16)
(1.01567 0.00993582 -7.49661e-18)
(1.0029 0.00257238 4.34237e-18)
(1.00052 0.000139146 -2.16233e-18)
(1.033 0.00991699 2.17365e-18)
(1.03558 0.0123524 -7.38255e-19)
(1.00574 0.00151012 9.09568e-18)
(0.709318 0.0237928 5.17634e-16)
(1.03147 0.0271339 -4.28694e-18)
(1.03717 -0.00132817 6.16203e-19)
(0.998396 0.0349206 -2.31873e-19)
(1.00124 0.0411466 -1.52105e-17)
(0.99999 0.000112192 -2.9251e-17)
(0.409158 0.553131 -9.20339e-17)
(1.03402 0.0810636 -2.8722e-17)
(1.00113 0.00342556 -3.44681e-18)
(0.971142 0.18237 -9.4113e-18)
(0.984113 0.000902563 3.11038e-17)
(0.999972 6.54006e-05 2.79693e-18)
(1.00001 3.31555e-05 3.77313e-19)
(0.999992 6.43778e-05 -1.35861e-18)
(1.09098 0.165696 -4.99903e-18)
(0.944218 0.0957859 7.01059e-17)
(0.988996 0.0283029 -2.37556e-17)
(1.02784 0.0103794 7.89776e-18)
(1.03804 -0.00258104 -2.75685e-18)
(0.999517 0.0114192 -5.32482e-19)
(0.942974 0.00733115 1.10939e-16)
(0.999293 0.0342821 7.2014e-18)
(1.04664 0.0155104 -4.74813e-18)
(1.10628 0.0410903 4.76519e-18)
(0.710564 0.0420889 2.53577e-16)
(0.994131 0.0248676 8.00843e-18)
(0.95535 0.0536452 5.2809e-17)
(1.01848 -8.71172e-05 -2.64898e-18)
(1.02552 0.0367198 -1.34959e-17)
(1.01167 0.0109487 -4.68396e-18)
(1.0164 0.0117673 -1.07071e-18)
(0.998105 0.000218292 4.96713e-17)
(1.01219 0.010801 -1.41843e-17)
(1.03041 0.0116591 2.71786e-18)
(1 2.15444e-05 -2.28444e-18)
(0.763443 -0.00554159 4.51814e-17)
(0.990478 0.00111071 -4.43599e-17)
(1.05238 0.00921685 3.27455e-18)
(1.03617 0.0104036 -5.50644e-18)
(0.993723 0.000969599 7.43284e-17)
(0.950959 0.0589013 6.99402e-18)
(1.17228 0.243284 1.0305e-18)
(1.02882 0.0143911 4.79191e-18)
(1.00849 0.0158291 -1.50851e-18)
(1.03879 -0.00072194 2.25704e-18)
(1.03632 0.0105267 -5.96146e-18)
(1.02877 0.0325988 3.08638e-18)
(1.00454 0.00286895 1.95959e-17)
(1.00001 1.24646e-05 -1.69419e-18)
(0.995065 0.0695125 -9.24269e-18)
(1.00028 0.000118512 -1.38354e-18)
(1.05066 0.0188392 -2.37839e-18)
(1.00255 0.000146345 3.44096e-19)
(0.966527 0.00306114 -4.99463e-17)
(0.962406 0.0407119 -3.24706e-17)
(1.01074 0.000683114 -1.65996e-17)
(1.10105 0.115826 -4.06618e-18)
(0.945716 0.0665106 -7.49846e-18)
(0.994801 0.0169903 1.72947e-17)
(1.00084 0.00388383 5.84827e-18)
(0.593822 0.0895773 -2.00386e-16)
(1.00068 0.000174999 7.60344e-19)
(1.0013 0.00293476 -4.30518e-18)
(1.04215 0.0415827 -1.34491e-18)
(0.999983 1.23291e-05 3.48214e-17)
(1.00123 0.00404093 -7.34692e-18)
(1.00151 0.00271735 2.81713e-18)
(0.732449 0.21968 -6.65004e-17)
(0.666226 0.474984 -3.86976e-17)
(0.998364 0.0116995 1.10746e-17)
(1.00158 -0.000351209 6.36753e-18)
(0.940529 0.0348092 -3.12353e-17)
(1.00011 0.0417508 4.35731e-19)
(1.02773 0.0111414 1.55074e-18)
(1.0313 0.0155604 9.26967e-18)
(1.03218 0.0109376 7.27153e-19)
(1.00091 3.025e-05 -2.03651e-18)
(0.999993 3.37485e-05 6.07134e-18)
(1.00037 0.0369289 -8.47843e-18)
(0.999993 9.55022e-06 -7.39578e-18)
(0.963463 0.0425962 -3.6131e-17)
(1.02728 0.0113651 -2.22965e-18)
(1.02587 0.0354521 1.58426e-18)
(0.996634 0.000720371 -5.5063e-17)
(0.997315 0.0663464 1.87914e-17)
(1.04544 0.0401296 -5.11257e-18)
(0.9979 8.20371e-05 -4.06615e-17)
(1.00132 0.0118975 -1.93949e-17)
(1.00562 0.00163642 1.5135e-17)
(0.920771 0.0504554 8.26012e-17)
(1.04386 0.0408904 -5.13421e-18)
(0.999989 6.23866e-05 3.57268e-17)
(1.0008 0.0388859 -1.67589e-17)
(1.03341 0.00785543 -8.3749e-19)
(1.01575 0.000223119 -2.50866e-18)
(0.999612 0.0397809 9.96531e-18)
(1.00296 -0.000321453 1.03734e-17)
(0.931259 0.0936184 -3.30664e-17)
(1.02799 0.00465938 -4.64009e-18)
(1.03743 0.00794733 2.71059e-18)
(1.02704 0.0322125 8.05074e-18)
(1.00094 0.000182648 -2.81277e-18)
(1.0011 0.011891 -2.00071e-17)
(1.05349 0.0592812 -1.47968e-17)
(1.05222 0.016211 -2.14464e-18)
(1 2.13549e-05 2.44112e-19)
(1.01087 0.0160047 1.45896e-18)
(0.988582 0.174225 2.69157e-18)
(1.03817 0.00179231 -2.22703e-18)
(0.521896 0.45906 1.49e-16)
(0.999997 3.91409e-05 7.90081e-19)
(1.00252 0.000328629 -1.38086e-17)
(1.00074 -3.33391e-05 1.08905e-18)
(1.03124 0.0139193 -4.46009e-19)
(0.994494 0.0188868 1.94444e-17)
(0.995935 0.0133614 -1.94986e-18)
(1.00316 6.6136e-05 -9.7046e-18)
(0.99952 0.0367578 5.10378e-19)
(1.01711 0.0126834 -5.70516e-18)
(0.973252 0.00288151 1.78285e-16)
(1.00899 0.000714403 4.06826e-18)
(1.08331 0.0877523 -8.62171e-18)
(1.0004 1.12972e-05 7.9524e-19)
(1.08824 0.105409 -2.64804e-17)
(1.00157 0.000170623 3.17724e-18)
(0.599694 0.582134 1.53101e-16)
(1.02839 0.0010414 2.01885e-18)
(1.0515 0.0638847 -1.32108e-17)
(0.999851 3.59493e-05 -5.80695e-17)
(0.996961 0.000740997 -3.73341e-17)
(1.02581 0.0275244 -2.97868e-18)
(1.0038 0.00217933 2.83741e-18)
(0.998968 0.000215473 -5.53982e-17)
(0.992039 0.000320145 3.82007e-16)
(0.99392 0.020542 -3.27309e-17)
(0.994575 0.0203834 -3.47106e-18)
(0.965701 0.156625 5.14954e-17)
(1.03359 0.0319925 -1.85465e-18)
(1.03386 0.0313332 -7.10982e-18)
(1.00001 1.49644e-05 2.24646e-18)
(1.00425 0.00218334 -5.80937e-18)
(1.02732 0.0128381 -1.39491e-18)
(1.05211 0.0157445 2.33231e-18)
(1.00001 6.86366e-06 -1.43596e-18)
(1.00039 0.000137466 -8.25921e-18)
(1.03301 0.00904246 -2.60893e-18)
(1.00076 0.000203123 1.60948e-18)
(0.800291 0.051579 -2.14519e-16)
(1.17194 0.244873 -3.20055e-18)
(1.09651 -0.0112628 3.88763e-17)
(1 4.22593e-06 5.43416e-18)
(1.00641 0.00927401 8.41489e-19)
(1.04276 0.0112304 4.28252e-18)
(0.995187 0.014053 4.10767e-17)
(1.00422 0.000771988 2.38828e-18)
(0.374964 0.640554 1.89842e-16)
(1.00035 5.7379e-05 -5.944e-18)
(0.929081 0.0739947 1.91827e-17)
(0.957947 0.0466864 -1.51031e-17)
(1.00697 0.00945014 -6.29163e-18)
(1.00437 0.000776813 -2.35476e-18)
(0.998748 0.000177577 -1.45267e-16)
(1.01056 0.000518453 8.31668e-18)
(1.04072 0.00387954 -2.08038e-20)
(1.01675 0.00876979 -9.11261e-18)
(0.997394 0.0114319 4.18508e-19)
(0.999996 8.12099e-06 7.22771e-19)
(0.999999 2.31595e-05 -4.82111e-17)
(0.994475 0.0172357 -2.57983e-17)
(0.996409 0.00138215 -1.32195e-16)
(0.993117 0.0605886 9.60445e-18)
(1.03121 0.0126206 3.02207e-18)
(0.999277 -2.19412e-05 -2.69536e-17)
(1.00039 0.000219994 9.74715e-19)
(1.02713 0.0291853 7.153e-18)
(0.768908 -0.0182767 4.43324e-18)
(0.997692 0.000219194 2.31585e-16)
(1.04657 0.0147516 4.1484e-19)
(1.00018 4.80924e-05 -5.039e-18)
(0.996279 0.01147 -2.13383e-17)
(0.952837 0.0837669 -4.00887e-17)
(1.03934 0.00145478 9.67134e-19)
(1.04162 0.0111659 3.79315e-18)
(0.951355 0.0543318 2.06069e-17)
(1.00241 0.0186564 -1.96419e-17)
(1.04012 0.00498447 1.75065e-18)
(1.00001 3.88042e-05 -3.5602e-19)
(0.999934 2.00828e-05 -1.37494e-16)
(1.03571 0.00145214 -6.75808e-19)
(1.01051 0.00980935 -3.93073e-18)
(1.00302 0.0192524 -1.31106e-17)
(1.01093 0.00964544 -4.87898e-18)
(0.999996 3.76541e-05 -3.45944e-19)
(1.00044 0.000221017 -5.2632e-19)
(1.00375 0.000329486 1.29385e-17)
(0.999276 0.0302503 -4.56281e-18)
(1.04045 0.00670702 2.02241e-18)
(0.943578 0.0398273 2.49675e-18)
(0.990318 0.000967807 3.05286e-16)
(0.926394 0.0346816 -1.36981e-16)
(1.03061 0.0144358 2.62446e-18)
(1.00862 0.0175748 1.15201e-17)
(0.931498 0.0493706 -1.6624e-16)
(0.985757 0.0214904 8.97157e-19)
(1.05015 0.00854234 4.00563e-19)
(1.03176 0.0116392 -4.6256e-19)
(0.985352 0.0205011 2.20757e-17)
(0.994513 0.0587414 -1.75416e-17)
(0.999901 9.08415e-05 3.09861e-17)
(1.01029 0.0641862 4.33694e-17)
(1.02668 0.0267296 -6.55348e-19)
(1.00002 -1.44173e-05 2.78264e-18)
(0.999998 3.97699e-06 3.62936e-17)
(1.0008 0.00015108 -6.3311e-18)
(0.999754 0.000261025 3.75546e-17)
(1.06421 0.0678623 -1.73281e-17)
(1.01056 0.01666 2.39254e-17)
(1.01378 0.00265853 -7.91463e-18)
(0.942387 0.0437828 -4.47902e-17)
(0.992117 0.000204189 -4.9956e-17)
(0.793567 0.0199498 -3.51602e-17)
(1.03749 0.002693 -1.23698e-18)
(1.03977 0.00361245 -1.63199e-18)
(1.00402 0.000152806 1.77317e-18)
(1.04975 0.0405955 4.51272e-19)
(1.00001 4.36591e-05 3.64091e-18)
(0.998483 0.0295933 6.14665e-18)
(1.00056 0.00361652 3.49804e-18)
(0.937122 0.111355 1.38726e-18)
(0.930855 0.0486416 -1.21412e-17)
(1.00199 0.0163769 9.98164e-18)
(1.01693 0.0119405 -3.79941e-19)
(0.420353 0.664134 1.71568e-16)
(1.03043 0.0128636 -3.29336e-19)
(1.04219 0.0620701 1.44353e-17)
(1.00924 0.0126145 4.28807e-18)
(0.976762 0.146725 -6.17723e-18)
(1.15535 0.212046 -1.8981e-17)
(1.00109 -0.000144688 2.03819e-18)
(0.998243 0.00339551 -5.17481e-18)
(1 1.34217e-05 1.92415e-18)
(1.05761 0.0640469 -1.30073e-17)
(0.998427 0.00313981 -7.36073e-18)
(1.01619 0.00961457 -5.83268e-18)
(1.09922 0.115624 -6.95832e-18)
(1.00038 0.0001089 -3.62713e-18)
(0.969813 0.00242118 -3.2651e-16)
(0.991813 0.0507612 1.02521e-17)
(1.00681 0.0150774 -3.27679e-19)
(0.997407 0.000169984 1.68688e-16)
(1.00185 0.0170112 2.29826e-17)
(0.999253 0.000903181 -2.54169e-18)
(0.995273 0.0153451 2.59365e-17)
(0.999261 0.000774535 6.79448e-18)
(0.999272 0.000981747 3.8998e-18)
(0.995677 0.0134206 -4.2775e-18)
(1.03736 0.00650439 2.2456e-18)
(1.03471 0.00867571 1.94885e-19)
(1.0068 0.0168703 4.55775e-19)
(0.667883 0.0410072 -2.07981e-16)
(1.03988 0.000394604 -7.29317e-19)
(0.243693 0.277553 2.76578e-17)
(1.02958 0.0145554 4.07733e-18)
(1.0235 -9.55188e-05 -2.70261e-18)
(0.99546 0.0144524 -2.84626e-17)
(1.0281 0.0149422 5.90479e-19)
(0.991984 0.0266859 2.05077e-17)
(1.03759 0.00135887 -1.56194e-18)
(0.578791 0.382935 1.32196e-17)
(0.94866 0.0339202 1.78664e-18)
(0.992262 0.0245157 -1.05414e-17)
(1.00509 0.0227047 1.04333e-17)
(0.994845 0.00110297 -1.16062e-18)
(0.996386 0.00101768 2.11393e-17)
(1.02615 0.0295353 9.78195e-18)
(0.999995 3.44871e-05 -5.78131e-18)
(1.04808 -0.000438165 -5.05343e-18)
(0.999451 4.98332e-05 -2.45243e-17)
(0.948247 0.0390099 2.64622e-17)
(0.998801 0.0744581 -9.38953e-19)
(1.06218 0.0611855 4.78308e-18)
(1.03894 0.0254337 -5.15454e-18)
(1.03495 0.0147604 -6.71585e-18)
(0.992278 0.0497769 -6.69445e-18)
(1.00894 0.0130078 3.98354e-18)
(1.03908 0.0254955 -5.03421e-18)
(0.972026 0.0302377 -3.3372e-19)
(1.0427 0.0622651 8.74301e-18)
(1.00784 0.0219459 6.91673e-18)
(1.04474 0.0399049 -6.7149e-18)
(1.0055 0.0227695 9.96569e-18)
(1.00001 2.49402e-05 -5.08615e-19)
(0.998838 0.0260274 -6.05663e-18)
(0.644856 0.0511618 9.54792e-17)
(0.972771 0.137575 -3.10172e-18)
(1.00648 0.00554078 4.8896e-18)
(1.00006 -1.10159e-05 2.27675e-18)
(0.999196 0.000158918 1.38941e-16)
(0.994524 0.00729148 1.00954e-18)
(0.96518 0.00235208 -2.53959e-17)
(1.03397 0.00703099 2.66612e-18)
(1.02928 0.000121442 1.69849e-18)
(1.00084 2.19536e-05 4.04283e-18)
(1.00491 0.00686535 4.37507e-18)
(0.993535 0.0276746 -1.04021e-19)
(1.00624 0.00528108 -1.18983e-17)
(1.00914 0.00115003 7.7134e-18)
(1.04586 0.0345647 -1.42955e-17)
(0.993665 0.0014108 -1.13639e-16)
(0.992678 0.0346679 1.03297e-17)
(1.03652 0.0150912 -5.59948e-18)
(1.00518 0.00619737 -3.58054e-18)
(1.00799 0.00654405 -3.04685e-18)
(0.944247 0.0636173 -3.32633e-17)
(1 -1.01804e-05 -3.30431e-18)
(0.993371 0.00532453 4.6808e-18)
(1.30018 0.190971 6.36634e-18)
(0.999881 2.64092e-05 1.81265e-16)
(1.0402 0.0381421 -5.28041e-18)
(0.996928 0.0734497 -1.71053e-17)
(1.00762 0.00662263 -1.77191e-18)
(0.958904 0.0455411 1.16801e-17)
(1.03619 0.0151708 -1.42145e-18)
(0.997789 0.0261691 9.9213e-18)
(1.02843 0.0338831 -2.07947e-18)
(0.999579 0.0032518 2.723e-18)
(0.936943 0.0357605 -6.5454e-17)
(1.00489 0.000767047 1.03264e-17)
(1.03202 0.00125017 1.21565e-18)
(1.03448 0.0155618 1.60501e-18)
(0.93105 0.0438914 -3.69297e-17)
(0.999849 0.00321058 -2.29672e-18)
(1.04127 0.00504861 3.86937e-18)
(1.05336 0.0225233 2.36419e-19)
(0.991774 0.034628 -2.31511e-17)
(1.00571 0.0134899 9.78707e-18)
(1.00467 0.00285923 5.2781e-18)
(1.0122 0.0623391 -1.24629e-18)
(0.791282 0.208311 -1.05586e-16)
(0.99556 0.000933058 -5.36302e-17)
(0.999966 3.9567e-05 1.80957e-17)
(0.993107 0.0252536 -1.77595e-17)
(0.999992 1.93901e-05 9.83476e-19)
(1.15457 0.20932 2.05125e-17)
(1.00651 0.0227643 -1.08206e-18)
(1.03693 0.0878109 -2.54004e-17)
(1.01573 0.00757634 7.73692e-18)
(1.02835 -0.00119334 -2.20867e-18)
(0.253933 0.122916 -9.14379e-16)
(1.00657 0.0155966 7.83705e-18)
(1.08421 0.195163 5.25351e-18)
(1.03398 0.00786124 2.80159e-18)
(1.02944 -0.0119403 -6.01247e-17)
(1.02786 0.0127017 -4.26872e-18)
(0.996755 0.0121744 7.82966e-18)
(1.00615 0.0142367 2.05268e-18)
(1.01601 0.000620716 -2.9676e-18)
(1.09497 0.0918762 -1.5047e-18)
(1.08375 0.088564 3.17243e-18)
(1.00106 7.19729e-05 -7.08971e-19)
(1.0016 9.78269e-05 -3.05898e-18)
(0.932158 0.0409266 1.35779e-16)
(1.00224 -0.000174332 -2.2202e-18)
(0.680151 0.397974 6.77002e-18)
(1.02814 0.0322744 1.76926e-17)
(0.969252 0.168636 -1.87898e-17)
(1.00422 0.00305948 5.59162e-19)
(0.0619108 0.271627 -2.67364e-16)
(1.13455 0.22685 -5.23622e-17)
(1.0059 0.0224836 2.24315e-18)
(0.999997 1.4818e-05 2.76101e-19)
(0.999867 0.0027284 -1.53949e-18)
(0.954268 0.0321146 -1.10966e-17)
(0.994288 0.00826398 -1.7232e-17)
(0.989573 0.000209025 1.37721e-16)
(0.996849 0.00998048 1.53214e-17)
(1.03094 0.0115192 -2.77849e-18)
(0.972245 0.0306572 -1.34325e-18)
(1.06711 -0.0199237 -2.56863e-17)
(0.61734 0.0386447 -2.67626e-17)
(1.00088 -5.40696e-05 6.89198e-18)
(0.965376 0.0368132 1.05618e-17)
(1.03335 0.0301575 6.11811e-19)
(0.924049 0.0587717 3.31644e-17)
(1.00459 0.0127888 8.79485e-18)
(0.935801 0.077698 -2.62135e-17)
(1.03671 0.00877951 -3.15004e-18)
(0.954496 0.035515 -3.0813e-17)
(0.997185 0.000495403 7.46175e-17)
(1.00008 2.91695e-05 7.703e-18)
(1.03702 0.0234866 1.85277e-18)
(1.04005 0.0250125 -1.76909e-19)
(1.02648 0.00109921 -6.54646e-19)
(0.934719 0.0345145 1.22021e-17)
(1.034 0.0871626 -1.2134e-17)
(1.02326 0.000583457 -4.24224e-18)
(0.997565 0.0244667 1.22078e-17)
(1.00045 0.0039863 -4.36994e-18)
(1.0095 0.00843052 -2.0038e-18)
(0.776118 0.0350429 9.83339e-17)
(1.00966 0.00886692 2.31588e-18)
(1.03469 0.0214997 -4.72052e-18)
(0.982378 0.0412503 5.89999e-18)
(1.02653 0.00936981 2.62659e-18)
(1.01157 -6.19266e-05 9.26067e-18)
(0.996072 0.0115433 -6.145e-18)
(1.05235 0.0212287 8.01124e-19)
(1.01506 0.00689507 -4.25349e-18)
(1.00523 0.0132544 2.14125e-17)
(1.05779 -0.00368951 -1.5929e-17)
(0.990129 0.0297902 -5.029e-18)
(1.02009 0.00161083 -3.74486e-18)
(0.799932 0.339705 -7.79146e-17)
(1 -2.31034e-06 -3.9602e-19)
(1.01516 0.00787948 1.79381e-18)
(0.99862 0.0210904 1.78972e-17)
(0.992308 0.00720236 3.37547e-18)
(1.00309 0.000578657 -4.66597e-18)
(0.997978 0.0240899 -9.7413e-18)
(1.00001 1.30296e-06 -1.54703e-18)
(1.04378 0.109194 -3.28026e-17)
(1.00573 0.00108366 5.76477e-18)
(0.971111 0.0063043 7.89931e-17)
(1.03515 0.0334292 1.03171e-17)
(0.954188 0.0486959 -8.62987e-18)
(1.01672 0.00911167 -9.94087e-18)
(1.01628 0.00841731 -3.43246e-18)
(1.03701 0.0245628 -3.34653e-18)
(1.10314 0.122176 4.19249e-17)
(0.999865 7.08361e-05 -4.94403e-18)
(0.992732 0.00084448 -1.4375e-16)
(1.02203 -0.000171936 -9.29088e-19)
(1.10493 0.186441 1.64891e-17)
(1.03985 0.0252313 -6.09933e-18)
(0.999782 0.00287399 -3.73623e-20)
(0.254056 0.139694 -8.55586e-16)
(1.00006 3.43739e-05 9.8291e-20)
(1.00503 0.00144951 -4.40452e-18)
(0.730413 0.00634575 -1.64073e-17)
(0.994589 0.00515701 -4.78058e-18)
(0.999611 0.00331325 -2.57002e-18)
(0.999469 0.00368953 4.46844e-18)
(0.983929 0.0389746 2.03982e-17)
(0.959872 0.0286153 -2.45499e-17)
(0.999832 2.2438e-05 -9.60147e-17)
(0.993565 0.00637069 4.04205e-18)
(0.941111 0.0669177 -5.26914e-20)
(0.998504 0.0208911 2.31176e-19)
(0.995407 0.0175676 4.98841e-18)
(0.996771 0.00930135 5.06908e-18)
(1.00114 0.000164743 -5.04795e-18)
(0.956768 0.0309327 6.52585e-17)
(1.06499 0.057773 -3.4367e-18)
(0.994539 0.0162111 -5.23885e-19)
(0.932034 0.0323041 -5.41135e-17)
(1.03371 0.00582392 2.29807e-18)
(1.03352 -0.00213856 4.58969e-19)
(1.03918 0.105335 -2.48023e-17)
(1.03265 0.0299303 -1.45452e-18)
(0.996526 0.00963733 1.50305e-17)
(1.00491 0.00158182 1.17e-17)
(1.08609 0.102948 -4.9401e-18)
(1.0382 0.00556166 -5.56385e-18)
(0.975207 0.0262429 -2.2407e-17)
(1.00075 0.00406849 -4.30938e-18)
(0.999731 0.000203199 7.03021e-18)
(0.924501 0.0146678 1.70154e-16)
(1.0495 0.0403694 -1.03797e-17)
(1.01432 0.00678346 -1.39704e-18)
(1.01124 0.0502632 -2.42102e-17)
(1.01494 0.00750669 -1.28629e-17)
(0.997178 0.00977509 -1.98849e-17)
(1.00556 0.00489105 2.63995e-18)
(0.96652 0.0340637 2.21144e-17)
(0.835071 0.0177776 4.69764e-17)
(0.315065 0.4331 1.37055e-16)
(0.96568 0.0367185 -4.06848e-17)
(0.999204 0.0181086 1.14593e-17)
(1.00547 0.00444064 4.07287e-18)
(0.96826 0.033072 -1.78265e-17)
(0.540741 0.319952 -9.33769e-17)
(0.933294 0.0343683 -8.16109e-17)
(0.999906 0.00304753 2.84783e-18)