2 	-9.37415 	-2.68069e-17 	-0.0156162
2 	-8.69899 	-2.63403e-17 	-0.0178734
2 	-8.03174 	-2.66103e-17 	-0.0204697
2 	-7.37229 	-2.36867e-17 	-0.0237994
2 	-6.88233 	-2.20773e-17 	-0.0274627
2 	-6.55837 	-2.08035e-17 	-0.0268935
2 	-6.07643 	-1.66025e-17 	-0.031916
2 	-5.43983 	-1.37768e-17 	-0.0383414
2 	-5.11668 	-1.13232e-17 	-0.0426712
2 	-4.96919 	-7.69532e-18 	-0.0437843
2 	-4.82676 	-4.62939e-18 	-0.044889
2 	-4.69874 	-3.5354e-18 	-0.047785
2 	-4.55243 	-2.61984e-18 	-0.0489713
2 	-4.43541 	3.28152e-19 	-0.0522386
2 	-4.29179 	3.46255e-18 	-0.053538
2 	-4.18433 	3.5744e-18 	-0.0570452
2 	-4.04319 	1.00512e-18 	-0.0584459
2 	-3.94409 	-1.44521e-18 	-0.0622289
2 	-3.83348 	-2.65016e-18 	-0.0637463
2 	-3.71316 	-2.0392e-18 	-0.0652638
2 	-3.62792 	-1.3985e-18 	-0.0694717
2 	-3.49179 	-8.96387e-19 	-0.0711082
2 	-3.41101 	9.47546e-19 	-0.0727463
2 	-3.3367 	1.32623e-18 	-0.0773815
2 	-3.20027 	1.11631e-18 	-0.0791475
2 	-3.13057 	-1.73472e-18 	-0.0841201
2 	-3.05876 	-4.18381e-18 	-0.0860172
2 	-2.9314 	-4.9004e-18 	-0.0879204
2 	-2.86733 	-1.80992e-18 	-0.0898304
2 	-2.80891 	-5.95056e-18 	-0.0954079
2 	-2.69742 	-6.49318e-18 	-0.0974572
2 	-2.61725 	-3.02e-18 	-0.0995165
2 	-2.56471 	-2.42489e-18 	-0.105593
2 	-2.487 	-3.79076e-19 	-0.107795
2 	-2.38935 	2.62267e-18 	-0.11001
2 	-2.32938 	4.54058e-18 	-0.11224
2 	-2.28387 	4.31438e-18 	-0.118962
2 	-2.20713 	3.88942e-18 	-0.12134
2 	-2.12186 	5.40974e-18 	-0.123737
2 	-2.05769 	6.0306e-18 	-0.126153
2 	-2.01763 	5.55112e-18 	-0.133507
2 	-1.96148 	5.55112e-18 	-0.136071
2 	-1.88587 	5.05886e-18 	-0.138659
2 	-1.81301 	2.81588e-18 	-0.141271
2 	-1.75942 	5.32577e-19 	-0.143909
2 	-1.72488 	1.73472e-18 	-0.152001
2 	-1.67476 	3.46945e-18 	-0.154784
2 	-1.60902 	6.03819e-18 	-0.157593
2 	-1.54532 	4.6287e-18 	-0.160429
2 	-1.48352 	9.07613e-19 	-0.163291
2 	-1.43952 	6.88169e-19 	-0.166177
2 	-1.40994 	1.05797e-19 	-0.174857
2 	-1.36514 	-3.1225e-18 	-0.17781
2 	-1.30832 	-6.245e-18 	-0.18076
2 	-1.25294 	-9.51333e-18 	-0.183694
2 	-1.19891 	-1.37089e-17 	-0.186597
2 	-1.14614 	-1.30591e-17 	-0.189447
2 	-1.09454 	-1.19972e-17 	-0.19222
2 	-1.06737 	-1.32857e-17 	-0.194886
2 	-1.04239 	-1.53562e-17 	-0.20262
2 	-0.99456 	-1.66533e-17 	-0.204844
2 	-0.946041 	-1.66533e-17 	-0.206861
2 	-0.898415 	-1.49186e-17 	-0.20865
2 	-0.851623 	-1.5284e-17 	-0.210196
2 	-0.805606 	-1.60417e-17 	-0.211496
2 	-0.760312 	-1.44925e-17 	-0.212552
2 	-0.715689 	-1.33064e-17 	-0.213378
2 	-0.671689 	-1.32017e-17 	-0.213994
2 	-0.628266 	2.8979e-18 	-0.214424
2 	-0.59159 	4.79349e-18 	-0.214693
2 	-0.570272 	3.46945e-18 	-0.218412
2 	-0.542975 	-1.73472e-18 	-0.218443
2 	-0.501025 	-5.20417e-18 	-0.218391
2 	-0.459485 	-4.85723e-18 	-0.218273
2 	-0.418319 	-5.89806e-18 	-0.218103
2 	-0.377489 	-5.55112e-18 	-0.217896
2 	-0.336961 	-5.20417e-18 	-0.217663
2 	-0.296701 	-4.85723e-18 	-0.217417
2 	-0.256674 	-5.20417e-18 	-0.217169
2 	-0.216849 	-5.55112e-18 	-0.216928
2 	-0.177193 	-6.93889e-18 	-0.216705
2 	-0.137675 	-8.32667e-18 	-0.216507
2 	-0.098263 	-8.67362e-18 	-0.216341
2 	-0.0589275 	-7.63278e-18 	-0.216213
2 	-0.0196374 	-6.59195e-18 	-0.216127
2 	0.0196374 	-4.16334e-18 	-0.216085
2 	0.0589275 	1.04083e-18 	-0.216087
2 	0.098263 	-1.04083e-18 	-0.216132
2 	0.137675 	-3.81639e-18 	-0.216216
2 	0.177193 	-3.46945e-18 	-0.216334
2 	0.216849 	-4.85723e-18 	-0.216479
2 	0.256674 	-3.1225e-18 	-0.216645
2 	0.296701 	-4.51028e-18 	-0.216822
2 	0.336961 	-1.11022e-17 	-0.217001
2 	0.377489 	-1.45717e-17 	-0.217171
2 	0.418319 	-1.56125e-17 	-0.217322
2 	0.459485 	-1.83881e-17 	-0.217443
2 	0.501025 	-2.15106e-17 	-0.217519
2 	0.542975 	-2.15106e-17 	-0.217538
2 	0.570272 	-2.17983e-17 	-0.217483
2 	0.59159 	-2.53314e-17 	-0.214222
2 	0.628266 	-2.86993e-17 	-0.213954
2 	0.671689 	-6.67125e-18 	-0.213532
2 	0.715689 	-7.23482e-18 	-0.212931
2 	0.760312 	-5.64545e-18 	-0.212125
2 	0.805606 	-6.50067e-18 	-0.211092
2 	0.851623 	-1.23349e-17 	-0.20982
2 	0.898415 	-1.63064e-17 	-0.208301
2 	0.946041 	-1.94289e-17 	-0.206539
2 	0.99456 	-2.56739e-17 	-0.204548
2 	1.04239 	-2.87057e-17 	-0.202348
2 	1.06737 	-2.8023e-17 	-0.195134
2 	1.09454 	-2.83036e-17 	-0.192451
2 	1.14614 	-3.12737e-17 	-0.189661
2 	1.19891 	-3.5393e-17 	-0.186793
2 	1.25294 	-3.6922e-17 	-0.183872
2 	1.30832 	-3.60822e-17 	-0.18092
2 	1.36514 	-3.60822e-17 	-0.177953
2 	1.40994 	-3.866e-17 	-0.174984
2 	1.43952 	-3.73838e-17 	-0.166557
2 	1.48352 	-3.55216e-17 	-0.163633
2 	1.54532 	-3.7807e-17 	-0.160737
2 	1.60902 	-3.98669e-17 	-0.157869
2 	1.67476 	-4.16334e-17 	-0.155031
2 	1.72488 	-3.99149e-17 	-0.152222
2 	1.75942 	-3.90354e-17 	-0.144247
2 	1.81301 	-3.69093e-17 	-0.141575
2 	1.88587 	-3.32785e-17 	-0.138933
2 	1.96148 	-3.57353e-17 	-0.136318
2 	2.01763 	-4.13628e-17 	-0.133728
2 	2.05769 	-4.46997e-17 	-0.126424
2 	2.12186 	-4.64151e-17 	-0.123982
2 	2.20713 	-4.62007e-17 	-0.121561
2 	2.28387 	-4.61212e-17 	-0.119161
2 	2.32938 	-4.76297e-17 	-0.112456
2 	2.38935 	-4.72073e-17 	-0.110207
2 	2.487 	-4.70865e-17 	-0.107973
2 	2.56471 	-4.53234e-17 	-0.105754
2 	2.61725 	-4.38368e-17 	-0.0996776
2 	2.69742 	-4.32693e-17 	-0.0976041
2 	2.80891 	-4.33156e-17 	-0.0955417
2 	2.86733 	-4.54199e-17 	-0.089956
2 	2.9314 	-4.41052e-17 	-0.0880356
2 	3.05876 	-4.37355e-17 	-0.0861227
2 	3.13057 	-4.52311e-17 	-0.0842166
2 	3.20027 	1.36035e-17 	-0.0792344
2 	3.3367 	9.07542e-18 	-0.0774616
2 	3.41101 	7.29654e-18 	-0.0728151
2 	3.49179 	6.57889e-18 	-0.0711721
2 	3.62792 	6.87268e-18 	-0.069531
2 	3.71316 	9.01913e-18 	-0.0653132
2 	3.83348 	9.43229e-18 	-0.0637925
2 	3.94409 	1.03342e-17 	-0.0622722
2 	4.04319 	1.03342e-17 	-0.058481
2 	4.18433 	9.30394e-18 	-0.0570783
2 	4.29179 	8.68347e-18 	-0.0535641
2 	4.43541 	9.66904e-18 	-0.0522634
2 	4.55243 	1.32242e-17 	-0.0489902
2 	4.69874 	1.26664e-17 	-0.0478032
2 	4.82676 	1.07572e-17 	-0.0449025
2 	4.96919 	1.10868e-17 	-0.0437975
2 	5.11668 	1.10351e-17 	-0.042684
2 	5.43983 	1.10351e-17 	-0.0383484
2 	6.07643 	1.11022e-17 	-0.0319193
2 	6.55837 	1.04074e-17 	-0.0268954
2 	6.88233 	1.28231e-17 	-0.0274646
2 	7.37229 	1.48667e-17 	-0.0238003
2 	8.03174 	9.26308e-18 	-0.0204701
2 	8.69899 	4.00573e-18 	-0.0178735
2 	9.37415 	2.91105e-18 	-0.0156162
