/*--------------------------------*- C++ -*----------------------------------*\
  =========                 |
  \\      /  F ield         | OpenFOAM: The Open Source CFD Toolbox
   \\    /   O peration     | Website:  https://openfoam.org
    \\  /    A nd           | Version:  7
     \\/     M anipulation  |
\*---------------------------------------------------------------------------*/
FoamFile
{
    version     2.0;
    format      ascii;
    class       volScalarField;
    location    "6";
    object      rho;
}
// * * * * * * * * * * * * * * * * * * * * * * * * * * * * * * * * * * * * * //

dimensions      [1 -3 0 0 0 0 0];

internalField   nonuniform List<scalar> 
2413
(
1.61671
1.61281
1.60819
1.60174
1.59713
1.59333
1.58827
1.58265
1.62324
1.61907
1.61443
1.60779
1.60262
1.59849
1.59303
1.587
1.63078
1.62618
1.6215
1.61473
1.60898
1.60466
1.59909
1.59248
1.63904
1.63426
1.62947
1.62273
1.61658
1.61183
1.6061
1.59906
1.64787
1.64291
1.63802
1.63125
1.62497
1.6201
1.61436
1.60732
1.65718
1.65226
1.64731
1.64044
1.63413
1.62925
1.62354
1.61658
1.66721
1.66226
1.65728
1.65029
1.64382
1.63913
1.63361
1.62675
1.67746
1.67257
1.66768
1.66072
1.6542
1.64967
1.64437
1.63763
1.68797
1.68305
1.67826
1.67144
1.66487
1.66051
1.65545
1.64888
1.69858
1.69342
1.68877
1.68215
1.67556
1.6713
1.66644
1.66003
1.7089
1.70345
1.69889
1.69261
1.68598
1.68166
1.67695
1.6707
1.71851
1.71279
1.70827
1.70227
1.69566
1.69124
1.68658
1.68048
1.72698
1.7212
1.71668
1.71084
1.70427
1.69973
1.69505
1.68904
1.73418
1.72851
1.72404
1.71831
1.71175
1.70712
1.70241
1.69648
1.74023
1.73472
1.73036
1.72467
1.7182
1.71357
1.70882
1.70297
1.74583
1.74042
1.73601
1.73026
1.72382
1.71923
1.71452
1.70881
1.75119
1.74594
1.74157
1.73575
1.72932
1.72475
1.71996
1.71425
1.75663
1.75142
1.74709
1.74122
1.73485
1.73032
1.72553
1.71988
1.76269
1.7574
1.75309
1.74725
1.74078
1.73623
1.73138
1.72564
1.4651
1.46201
1.45883
1.45598
1.45329
1.45032
1.44652
1.44315
1.4404
1.43734
1.43339
1.42934
1.42671
1.42396
1.42045
1.41617
1.41337
1.41083
1.40762
1.4032
1.39962
1.397
1.39393
1.38974
1.38554
1.38285
1.37994
1.37611
1.37159
1.36876
1.36601
1.36216
1.35758
1.3548
1.35226
1.34844
1.34466
1.34064
1.33615
1.33678
1.35261
1.46897
1.76948
1.97047
1.98702
1.98248
1.97025
1.95686
1.94568
1.93537
1.92566
1.91686
1.90767
1.89842
1.88993
1.88143
1.87273
1.86409
1.85556
1.84684
1.83791
1.82926
1.82077
1.81301
1.8063
1.79928
1.79178
1.78411
1.77657
1.76888
1.76029
1.75086
1.7418
1.73395
1.72584
1.71731
1.57875
1.57548
1.57208
1.56877
1.56493
1.56082
1.55845
1.55601
1.5528
1.54891
1.54563
1.54375
1.54141
1.53837
1.5351
1.53322
1.53126
1.52863
1.52573
1.52397
1.52214
1.51988
1.51724
1.51527
1.51381
1.51198
1.50997
1.50791
1.50627
1.5044
1.50218
1.49985
1.49748
1.49529
1.49291
1.49042
1.4877
1.4852
1.4827
1.48007
1.47717
1.47425
1.47167
1.46887
1.46575
1.46276
1.46003
1.45702
1.45415
1.45137
1.44792
1.44442
1.44167
1.43884
1.43509
1.43093
1.42825
1.42561
1.42215
1.41795
1.41526
1.41276
1.40954
1.40518
1.40188
1.39931
1.39621
1.39186
1.38798
1.38539
1.38249
1.37856
1.37436
1.37173
1.36901
1.36517
1.36069
1.35801
1.35531
1.35163
1.34755
1.34462
1.33978
1.3371
1.33992
1.37741
1.56844
1.88504
1.99772
1.99948
1.99213
1.97936
1.96667
1.95516
1.94508
1.93602
1.92654
1.9171
1.9083
1.89945
1.89048
1.88166
1.87297
1.86417
1.85554
1.84679
1.83742
1.82933
1.82212
1.8147
1.80726
1.7997
1.79215
1.78445
1.77609
1.76695
1.758
1.74963
1.74076
1.73187
1.58325
1.57967
1.57548
1.57202
1.56844
1.56408
1.56078
1.55821
1.55505
1.55103
1.54726
1.54535
1.54319
1.54006
1.53651
1.53426
1.53203
1.52916
1.52578
1.52346
1.52127
1.51872
1.51553
1.51343
1.51198
1.50995
1.5075
1.50509
1.50358
1.50174
1.49961
1.49724
1.49523
1.49341
1.49126
1.4889
1.48643
1.48431
1.48193
1.47937
1.47651
1.47399
1.47161
1.46904
1.46596
1.46306
1.46055
1.45754
1.45411
1.45153
1.44865
1.44508
1.44219
1.43958
1.43617
1.43203
1.42921
1.42668
1.42337
1.41925
1.41655
1.41412
1.41096
1.4067
1.40355
1.40097
1.39785
1.39345
1.38977
1.38721
1.38428
1.38031
1.37636
1.37384
1.37107
1.36725
1.36287
1.36031
1.35757
1.35368
1.34977
1.34692
1.34341
1.33773
1.33713
1.34476
1.41874
1.685
1.96178
2.00998
2.00885
2.00013
1.9867
1.9739
1.96355
1.95441
1.94503
1.93572
1.92688
1.91792
1.90882
1.89987
1.89077
1.88151
1.87249
1.8631
1.85329
1.84533
1.83769
1.82998
1.82259
1.81504
1.8073
1.79959
1.79147
1.7826
1.77397
1.76513
1.75574
1.7467
1.58844
1.58501
1.58037
1.57627
1.57292
1.56864
1.56435
1.56169
1.55873
1.55468
1.55034
1.54814
1.54598
1.54276
1.53887
1.53626
1.53394
1.53094
1.52716
1.52455
1.52252
1.51996
1.51664
1.51398
1.51202
1.50962
1.50677
1.50392
1.50193
1.49989
1.49759
1.495
1.49328
1.49148
1.48925
1.48662
1.4843
1.48243
1.48017
1.47764
1.47488
1.4727
1.4704
1.46781
1.46468
1.46203
1.4596
1.45682
1.45351
1.45099
1.44847
1.44516
1.44196
1.43939
1.43634
1.43238
1.42939
1.42691
1.42377
1.41975
1.41701
1.41464
1.41157
1.40745
1.40441
1.40187
1.39879
1.39448
1.39104
1.38856
1.38568
1.38166
1.37793
1.3755
1.37273
1.36887
1.36462
1.36205
1.35937
1.35532
1.35155
1.34885
1.34578
1.34077
1.33619
1.33716
1.35445
1.48106
1.80025
2.0024
2.02023
2.0169
2.00572
1.99233
1.98125
1.97159
1.96224
1.95329
1.94456
1.93556
1.92647
1.91751
1.90838
1.89906
1.88956
1.87931
1.86943
1.86126
1.85321
1.84536
1.83793
1.83033
1.82243
1.81466
1.80645
1.79763
1.78914
1.77995
1.77034
1.76148
1.59474
1.59156
1.58699
1.58208
1.57879
1.57493
1.57014
1.56672
1.56368
1.55976
1.55494
1.55198
1.54987
1.54676
1.54251
1.53951
1.53733
1.53436
1.5303
1.52738
1.52511
1.52228
1.5187
1.51559
1.51351
1.51105
1.50801
1.50476
1.50286
1.50084
1.49816
1.49501
1.49271
1.49049
1.48798
1.48507
1.48265
1.48065
1.47835
1.47568
1.47311
1.47103
1.4686
1.46583
1.46262
1.46013
1.45774
1.45499
1.45175
1.44943
1.44716
1.4441
1.44097
1.4386
1.43587
1.43212
1.42895
1.42642
1.42338
1.41939
1.41651
1.41414
1.41111
1.40701
1.40401
1.40164
1.39873
1.39473
1.39169
1.38934
1.38651
1.3826
1.37912
1.37667
1.37386
1.36994
1.36581
1.36314
1.36045
1.3564
1.35249
1.35033
1.3474
1.34366
1.33831
1.33568
1.33847
1.37245
1.56518
1.89414
2.02338
2.02819
2.02248
2.01064
1.99867
1.98819
1.97904
1.97054
1.96179
1.9526
1.94322
1.9338
1.92442
1.91515
1.90554
1.89524
1.88578
1.87731
1.86905
1.86115
1.85362
1.84596
1.838
1.83021
1.82191
1.81279
1.80372
1.79408
1.78435
1.7759
1.60272
1.59946
1.59505
1.58978
1.58612
1.58241
1.57742
1.57339
1.57037
1.56665
1.56173
1.55804
1.55582
1.55273
1.54831
1.54441
1.54193
1.53889
1.53462
1.53088
1.52843
1.52561
1.5219
1.51843
1.51646
1.5141
1.51086
1.50739
1.50524
1.50293
1.49999
1.49657
1.49422
1.49192
1.48922
1.48573
1.48308
1.48094
1.47847
1.47534
1.47254
1.47036
1.46792
1.46495
1.46183
1.45935
1.4568
1.45391
1.45049
1.44819
1.44586
1.44291
1.43973
1.43745
1.43494
1.43148
1.42828
1.4258
1.42293
1.41906
1.41617
1.41385
1.41099
1.40719
1.40443
1.40208
1.3992
1.39534
1.39244
1.39013
1.38733
1.38341
1.38025
1.37785
1.37506
1.37122
1.36766
1.36513
1.36235
1.35849
1.35455
1.35233
1.34962
1.34586
1.34186
1.33714
1.33598
1.34196
1.40363
1.66373
1.96072
2.03407
2.03418
2.02712
2.01599
2.0046
1.99524
1.98708
1.97854
1.96941
1.95996
1.95028
1.94045
1.93049
1.92006
1.91008
1.90128
1.89292
1.88483
1.87708
1.86959
1.86203
1.85407
1.8464
1.83818
1.82876
1.81889
1.80874
1.79895
1.79076
1.61197
1.60873
1.60438
1.59886
1.59501
1.59137
1.58633
1.58186
1.57873
1.57506
1.57022
1.56595
1.56337
1.56019
1.55576
1.55108
1.54822
1.54519
1.5409
1.53652
1.53384
1.53098
1.52706
1.52306
1.52068
1.51807
1.51461
1.51067
1.50824
1.50593
1.50289
1.49928
1.49688
1.49457
1.49168
1.48801
1.48534
1.48298
1.48024
1.47686
1.4742
1.472
1.46944
1.46622
1.46316
1.46078
1.45825
1.45503
1.45189
1.44961
1.44721
1.44414
1.4412
1.43882
1.43615
1.43264
1.42947
1.42691
1.42401
1.42021
1.41744
1.41522
1.41245
1.40886
1.40631
1.40406
1.40122
1.39744
1.39462
1.39225
1.38937
1.38541
1.38235
1.37995
1.37712
1.3732
1.36985
1.36744
1.36465
1.36084
1.35722
1.35489
1.35233
1.34841
1.34518
1.34115
1.33725
1.33754
1.34973
1.45267
1.76546
2.00487
2.04018
2.0391
2.03214
2.021
2.01089
2.00273
1.99448
1.98563
1.97638
1.96686
1.9571
1.94677
1.93577
1.92554
1.91643
1.90784
1.89979
1.89212
1.88478
1.87744
1.86983
1.86258
1.85453
1.84503
1.83468
1.82426
1.81463
1.8067
1.62217
1.61908
1.61482
1.60909
1.60498
1.60136
1.59632
1.59152
1.58833
1.58473
1.57992
1.57524
1.57241
1.56912
1.5646
1.55943
1.55611
1.55295
1.54866
1.54387
1.54078
1.53779
1.53379
1.52924
1.52647
1.52374
1.52012
1.51587
1.51323
1.51072
1.50741
1.50353
1.50081
1.4982
1.495
1.491
1.48817
1.48579
1.48298
1.47951
1.47703
1.47483
1.47216
1.46877
1.46587
1.46335
1.46059
1.45709
1.45408
1.45187
1.4494
1.44624
1.44348
1.44115
1.43845
1.43494
1.43181
1.4292
1.42627
1.42249
1.41976
1.41751
1.41475
1.41128
1.40892
1.4067
1.40387
1.40025
1.39755
1.39509
1.39209
1.38813
1.38519
1.38273
1.37983
1.37592
1.3729
1.37058
1.36785
1.36404
1.36089
1.35859
1.35593
1.35214
1.34901
1.34638
1.34145
1.33894
1.34068
1.36396
1.52195
1.85732
2.0308
2.04734
2.0449
2.03628
2.02543
2.01668
2.00867
2.00029
1.99143
1.98228
1.97286
1.9629
1.95253
1.94249
1.93301
1.92407
1.91572
1.90764
1.89989
1.89195
1.88448
1.87771
1.86991
1.86066
1.8504
1.84024
1.83106
1.8234
1.63284
1.62984
1.6258
1.61993
1.61537
1.61188
1.60701
1.60199
1.59876
1.59526
1.59052
1.58554
1.58239
1.57895
1.57435
1.5688
1.56506
1.56179
1.55754
1.55248
1.54912
1.54606
1.542
1.53717
1.53398
1.53099
1.52713
1.52254
1.51956
1.51679
1.51325
1.50908
1.50618
1.5034
1.49998
1.49584
1.49291
1.49031
1.48725
1.48351
1.48097
1.47866
1.47586
1.47236
1.46964
1.46716
1.4643
1.46065
1.45787
1.4555
1.45281
1.44949
1.44683
1.44445
1.44166
1.43816
1.43524
1.43268
1.42971
1.42604
1.42351
1.42127
1.41846
1.41517
1.41297
1.4107
1.40779
1.40431
1.40167
1.39908
1.39593
1.39195
1.38915
1.38669
1.38377
1.37999
1.37745
1.3753
1.37262
1.36891
1.36611
1.36391
1.36116
1.35733
1.35438
1.35217
1.34857
1.34315
1.34259
1.34643
1.38757
1.6078
1.92834
2.04866
2.05541
2.05047
2.03985
2.02981
2.02149
2.01338
2.00502
1.99641
1.98738
1.9778
1.96822
1.95878
1.94952
1.94077
1.93251
1.92454
1.91664
1.90792
1.90003
1.89287
1.88474
1.87551
1.8655
1.85596
1.84744
1.84001
1.64381
1.64074
1.63688
1.63112
1.62594
1.62251
1.61799
1.61273
1.60933
1.60599
1.60143
1.59617
1.59268
1.58923
1.5846
1.5788
1.57477
1.57142
1.56717
1.56197
1.55841
1.55523
1.55109
1.54608
1.54257
1.53935
1.53529
1.53045
1.52721
1.52422
1.52047
1.51616
1.51311
1.51012
1.50645
1.50213
1.4991
1.49632
1.49301
1.48913
1.48661
1.48419
1.48122
1.47769
1.47505
1.47244
1.46935
1.46558
1.46282
1.4603
1.45742
1.454
1.45153
1.44913
1.44622
1.44276
1.44006
1.4375
1.43443
1.43089
1.42859
1.42637
1.42345
1.42031
1.41825
1.41596
1.41291
1.40953
1.40698
1.40432
1.40099
1.39705
1.39454
1.39225
1.38936
1.38584
1.38379
1.38179
1.37909
1.37542
1.37287
1.37061
1.36775
1.36365
1.36097
1.35886
1.35593
1.3514
1.34715
1.34748
1.3546
1.42344
1.69942
1.98153
2.06171
2.06235
2.05515
2.04489
2.03573
2.02733
2.01912
2.01066
2.00146
1.99194
1.98285
1.97364
1.96449
1.95597
1.94799
1.94057
1.93284
1.92444
1.91693
1.90936
1.90069
1.89114
1.88121
1.87212
1.86392
1.85634
1.65463
1.65136
1.64762
1.64212
1.63636
1.63296
1.62897
1.62359
1.61978
1.61656
1.61222
1.60679
1.60289
1.59941
1.59485
1.58898
1.58466
1.58131
1.5771
1.57183
1.56816
1.56487
1.56067
1.55555
1.55187
1.54847
1.5442
1.53922
1.5358
1.53259
1.52861
1.5242
1.5211
1.51797
1.5141
1.50979
1.50672
1.50374
1.50015
1.49619
1.49365
1.49107
1.48785
1.48432
1.48173
1.47899
1.47564
1.47187
1.46914
1.46646
1.46331
1.45989
1.45751
1.45503
1.45198
1.4486
1.44613
1.44364
1.44043
1.43708
1.43502
1.43277
1.42967
1.42661
1.42464
1.4223
1.41904
1.41564
1.41319
1.41052
1.40699
1.4032
1.40118
1.39912
1.3962
1.39293
1.39114
1.3891
1.38619
1.3824
1.37984
1.3774
1.37429
1.37013
1.36745
1.36531
1.36245
1.35877
1.35499
1.35108
1.35167
1.36412
1.47383
1.78085
2.02113
2.07183
2.06869
2.06002
2.05011
2.04141
2.03356
2.02557
2.0171
2.00833
1.99909
1.9894
1.97999
1.97115
1.96286
1.95493
1.94656
1.9389
1.93241
1.92515
1.91644
1.9068
1.89725
1.88868
1.88059
1.87269
1.66493
1.66138
1.65771
1.65258
1.64649
1.64293
1.63943
1.63425
1.62986
1.62667
1.62259
1.61705
1.61268
1.60918
1.60477
1.59893
1.59441
1.59108
1.58692
1.58166
1.57791
1.57455
1.57026
1.56511
1.56136
1.5578
1.55339
1.54835
1.54482
1.54144
1.5372
1.53282
1.52973
1.52649
1.52244
1.51824
1.51518
1.51204
1.50813
1.50424
1.50162
1.49882
1.4953
1.49185
1.48921
1.48629
1.48264
1.47897
1.47619
1.47335
1.46991
1.46663
1.46427
1.46173
1.4585
1.45527
1.45295
1.45047
1.44708
1.44382
1.44188
1.43959
1.43623
1.43312
1.4312
1.42881
1.4253
1.42176
1.41938
1.41675
1.41301
1.40939
1.40763
1.40558
1.40244
1.39906
1.39711
1.39481
1.39154
1.3875
1.38484
1.38227
1.37894
1.37466
1.37215
1.36987
1.36687
1.3632
1.36037
1.35656
1.35261
1.3538
1.37581
1.52932
1.84832
2.05457
2.07816
2.07345
2.06439
2.05466
2.04592
2.0381
2.03104
2.02347
2.01419
2.00445
1.99535
1.98689
1.97892
1.97059
1.96135
1.95359
1.9471
1.93966
1.93079
1.92131
1.91248
1.90442
1.89639
1.88827
1.6745
1.67065
1.667
1.66216
1.65605
1.65223
1.64904
1.64425
1.63926
1.63598
1.63217
1.62676
1.62191
1.6184
1.61418
1.60841
1.60377
1.60043
1.5963
1.59102
1.58722
1.58378
1.57942
1.57428
1.57054
1.56692
1.56233
1.5574
1.55384
1.55031
1.54587
1.54155
1.53843
1.53507
1.53082
1.52686
1.5238
1.52051
1.51628
1.51258
1.50978
1.50672
1.50285
1.49953
1.49674
1.49361
1.48967
1.4862
1.48333
1.48032
1.47657
1.4736
1.47111
1.46839
1.46505
1.46194
1.4595
1.45695
1.45344
1.44997
1.44796
1.44564
1.44211
1.43866
1.43665
1.43422
1.43046
1.42655
1.42411
1.42149
1.41764
1.41386
1.4119
1.40964
1.40612
1.4024
1.40023
1.39778
1.39421
1.39007
1.38748
1.38495
1.38141
1.37714
1.37475
1.37251
1.36916
1.36551
1.36311
1.36027
1.35532
1.35221
1.35496
1.3921
1.58289
1.9141
2.07737
2.08706
2.08203
2.07219
2.06085
2.04959
2.0415
2.03432
2.02537
2.01624
2.00798
2.00049
1.99326
1.98524
1.97639
1.96902
1.96208
1.95376
1.94439
1.93513
1.92688
1.91904
1.91097
1.9029
1.68297
1.67898
1.67546
1.67089
1.66488
1.6608
1.65778
1.65328
1.64792
1.64441
1.64078
1.63562
1.63041
1.62684
1.62281
1.61725
1.61247
1.60912
1.605
1.59971
1.5959
1.5924
1.58792
1.58281
1.5791
1.57538
1.57066
1.56588
1.56233
1.55866
1.55392
1.54982
1.54665
1.54317
1.53877
1.53509
1.53196
1.52848
1.52404
1.52049
1.51745
1.51403
1.50982
1.50662
1.50363
1.50027
1.49617
1.49294
1.48997
1.4867
1.48277
1.48
1.47729
1.47419
1.47078
1.46779
1.46475
1.462
1.45876
1.45491
1.4523
1.44995
1.44651
1.44258
1.44013
1.43751
1.43359
1.42931
1.42674
1.42413
1.4203
1.41633
1.4142
1.41185
1.40824
1.4044
1.40216
1.39969
1.39606
1.39197
1.38941
1.38682
1.3832
1.37901
1.37666
1.37438
1.37098
1.36726
1.36513
1.36253
1.35868
1.35341
1.35177
1.3567
1.41091
1.64105
1.97367
2.09066
2.09322
2.08754
2.07575
2.06262
2.05433
2.04622
2.03659
2.02729
2.01903
2.01167
2.00471
1.99713
1.98939
1.98286
1.97537
1.96629
1.95679
1.94807
1.94011
1.93203
1.92374
1.91642
1.69038
1.68622
1.68285
1.6786
1.67286
1.66834
1.66541
1.66128
1.65574
1.65188
1.64845
1.64355
1.63816
1.63456
1.63068
1.62521
1.62035
1.61692
1.61281
1.60754
1.60367
1.60012
1.59552
1.59051
1.58687
1.58311
1.57822
1.57367
1.57009
1.56626
1.56136
1.55741
1.55413
1.55042
1.54581
1.54239
1.53916
1.5354
1.53091
1.52749
1.52416
1.52036
1.51602
1.51279
1.50959
1.50584
1.50172
1.49863
1.49553
1.49189
1.48806
1.48527
1.48235
1.47868
1.47528
1.47243
1.46901
1.46547
1.46251
1.45882
1.45527
1.45266
1.44942
1.44503
1.44194
1.43935
1.4357
1.43117
1.42845
1.42598
1.42233
1.4182
1.41595
1.4136
1.41001
1.40611
1.40383
1.40136
1.39769
1.3936
1.39103
1.38844
1.38477
1.38068
1.37839
1.37608
1.37267
1.36886
1.36679
1.3644
1.36075
1.35653
1.3518
1.35122
1.35947
1.43428
1.71637
2.0113
2.09168
2.09445
2.08916
2.07829
2.0685
2.05833
2.04781
2.03838
2.03004
2.02229
2.0148
2.00718
2.00058
1.99431
1.98613
1.97678
1.96781
1.95987
1.95189
1.94327
1.93506
1.9289
1.69694
1.69267
1.68936
1.68533
1.67994
1.67508
1.67212
1.66827
1.66272
1.65849
1.65518
1.65065
1.64519
1.64149
1.63775
1.63243
1.62754
1.62405
1.61984
1.61449
1.61061
1.60699
1.60228
1.59728
1.59367
1.58985
1.58483
1.58056
1.577
1.57298
1.56794
1.56415
1.56072
1.55669
1.55211
1.54878
1.54542
1.5413
1.53694
1.53353
1.52997
1.52559
1.52129
1.51795
1.51452
1.51039
1.50657
1.50346
1.50022
1.49615
1.49257
1.48958
1.48636
1.4822
1.47876
1.47579
1.47223
1.46803
1.46505
1.46177
1.45755
1.45447
1.45156
1.44734
1.44365
1.44103
1.43775
1.43321
1.43023
1.42781
1.42435
1.42007
1.41754
1.41513
1.41153
1.40752
1.40514
1.40264
1.39895
1.3948
1.39225
1.38972
1.3861
1.38212
1.37988
1.37758
1.37414
1.37049
1.36816
1.36579
1.3621
1.3585
1.35483
1.35045
1.35062
1.36343
1.46678
1.79005
2.03654
2.09098
2.09097
2.08632
2.07658
2.0652
2.05512
2.04707
2.03979
2.03212
2.024
2.01705
2.01131
2.00406
1.99494
1.98565
1.97757
1.97007
1.96189
1.95325
1.94596
1.94115
1.70296
1.69859
1.6953
1.69148
1.68635
1.68119
1.67816
1.67461
1.66917
1.66453
1.66122
1.6569
1.65139
1.64765
1.64402
1.63887
1.63391
1.63039
1.62622
1.6209
1.61697
1.6133
1.60836
1.60343
1.59983
1.59593
1.59083
1.58672
1.5832
1.57896
1.57396
1.57027
1.5667
1.56217
1.55766
1.55434
1.5508
1.54634
1.54227
1.53877
1.53497
1.53019
1.52609
1.52257
1.51885
1.51429
1.51081
1.50764
1.50415
1.49996
1.49662
1.49336
1.48971
1.48542
1.482
1.4787
1.47491
1.47063
1.46748
1.46425
1.45997
1.45647
1.45359
1.44965
1.44557
1.44287
1.4398
1.43543
1.43222
1.42975
1.42645
1.42213
1.41946
1.41703
1.41351
1.40929
1.40671
1.40416
1.40049
1.39637
1.39383
1.39132
1.38768
1.38371
1.38152
1.37924
1.37578
1.37216
1.36993
1.36742
1.36395
1.36036
1.35772
1.3535
1.34974
1.35096
1.3702
1.51315
1.84909
2.05971
2.09258
2.09157
2.08298
2.07112
2.06176
2.05409
2.04639
2.039
2.03182
2.02625
2.02033
2.01179
2.0024
1.99394
1.98686
1.97981
1.97165
1.96452
1.96004
1.9584
1.70861
1.70416
1.70074
1.69699
1.69228
1.68702
1.68377
1.68049
1.67541
1.67041
1.66703
1.66292
1.65734
1.65339
1.6498
1.64473
1.63979
1.63627
1.6321
1.62675
1.62278
1.61907
1.61406
1.60911
1.60552
1.60151
1.59634
1.59249
1.58899
1.58458
1.57966
1.57598
1.57223
1.56728
1.56295
1.55954
1.55578
1.55103
1.54722
1.54365
1.53956
1.53457
1.53061
1.52695
1.52279
1.51827
1.51501
1.51173
1.50786
1.50379
1.50051
1.49705
1.49286
1.48862
1.48519
1.48164
1.47739
1.47356
1.47031
1.46682
1.4625
1.45906
1.45602
1.45213
1.44791
1.44508
1.44208
1.43782
1.43446
1.43197
1.42877
1.42446
1.42164
1.41918
1.41571
1.4115
1.40887
1.40633
1.40271
1.39865
1.3961
1.39354
1.3899
1.38603
1.38374
1.38136
1.37792
1.3742
1.37201
1.36955
1.36594
1.3626
1.36034
1.35745
1.35238
1.35042
1.35255
1.38117
1.56729
1.88874
2.07453
2.09764
2.09169
2.08168
2.07198
2.06318
2.05463
2.04631
2.0393
2.03414
2.02717
2.01824
2.0109
2.00489
1.99822
1.99357
1.99254
1.99474
2.0027
2.01309
1.71436
1.70988
1.70639
1.70268
1.6981
1.69272
1.68935
1.68624
1.68145
1.67613
1.67261
1.66862
1.66306
1.65895
1.65541
1.65049
1.64549
1.64198
1.63787
1.6326
1.6286
1.62482
1.61969
1.61466
1.61106
1.60698
1.60177
1.59802
1.59456
1.58996
1.58522
1.58157
1.57764
1.5724
1.56812
1.56465
1.56059
1.55578
1.55218
1.54858
1.5441
1.53921
1.53533
1.53151
1.52683
1.52256
1.51936
1.51596
1.51174
1.50807
1.50468
1.50095
1.49637
1.49235
1.48871
1.4849
1.48033
1.47672
1.47342
1.46976
1.46545
1.46214
1.45901
1.4551
1.451
1.44813
1.44511
1.44095
1.43765
1.43506
1.43177
1.4275
1.4245
1.42179
1.4182
1.41398
1.41125
1.40862
1.40499
1.40101
1.39849
1.39596
1.39237
1.38869
1.38654
1.3842
1.38075
1.37728
1.37501
1.37255
1.36875
1.36547
1.3635
1.36099
1.35719
1.35259
1.35198
1.35528
1.39927
1.60895
1.92556
2.08412
2.09776
2.0924
2.08244
2.07222
2.06139
2.05179
2.04664
2.04211
2.03583
2.02945
2.02707
2.03039
2.03814
2.05249
2.07111
2.09481
2.1196
2.15321
1.72029
1.71577
1.71213
1.70855
1.70422
1.69894
1.69524
1.69222
1.68769
1.68216
1.67838
1.67445
1.66887
1.66451
1.661
1.6562
1.6512
1.64771
1.64368
1.63839
1.63435
1.63059
1.62546
1.62047
1.61684
)
;

boundaryField
{
    inlet
    {
        type            calculated;
        value           nonuniform 0();
    }
    outlet
    {
        type            calculated;
        value           nonuniform 0();
    }
    bottom
    {
        type            symmetryPlane;
    }
    top
    {
        type            symmetryPlane;
    }
    obstacle
    {
        type            calculated;
        value           nonuniform 0();
    }
    front
    {
        type            empty;
    }
    back
    {
        type            empty;
    }
    procBoundary37to29
    {
        type            processor;
        value           nonuniform List<scalar> 
129
(
1.61143
1.60757
1.60285
1.59659
1.59245
1.58893
1.58411
1.57904
1.46402
1.46074
1.45707
1.45421
1.45147
1.44835
1.44438
1.44098
1.43817
1.435
1.43104
1.42682
1.42387
1.42083
1.41729
1.41287
1.40961
1.40679
1.40351
1.39922
1.39524
1.39237
1.38916
1.38512
1.38066
1.37769
1.37466
1.37074
1.36598
1.36291
1.36005
1.35608
1.35126
1.3486
1.34598
1.34216
1.33812
1.3326
1.33156
1.33748
1.39546
1.62786
1.91044
1.96855
1.96818
1.95988
1.94649
1.93442
1.92469
1.91523
1.9057
1.89745
1.88904
1.88025
1.87198
1.86357
1.85476
1.84596
1.83713
1.82853
1.81963
1.81127
1.80395
1.7968
1.79051
1.7839
1.77633
1.76851
1.76074
1.75296
1.74444
1.73484
1.72583
1.71858
1.71112
1.70291
1.57579
1.573
1.56978
1.56635
1.56244
1.55869
1.55674
1.55465
1.55178
1.5482
1.54538
1.54375
1.54159
1.5388
1.53589
1.53419
1.53253
1.53039
1.52799
1.52653
1.52498
1.52297
1.52069
1.51872
1.51696
1.51487
1.51268
1.51044
1.50838
1.50623
1.5038
1.50132
1.49869
1.49614
1.49352
1.49082
1.48797
1.48507
1.4824
1.47966
1.47672
1.47358
1.47088
1.46807
1.46807
)
;
    }
    procBoundary37to30
    {
        type            processor;
        value           nonuniform List<scalar> 3(1.70914 1.72363 1.73858);
    }
    procBoundary37to36
    {
        type            processor;
        value           uniform 1.62286;
    }
    procBoundary37to38
    {
        type            processor;
        value           nonuniform List<scalar> 
16
(
1.7538
1.76888
1.78426
1.80044
1.81703
1.83336
1.84925
1.86507
1.88058
1.89577
1.91016
1.92316
1.93569
1.9566
2.03278
2.20931
)
;
    }
    procBoundary37to44
    {
        type            processor;
        value           nonuniform List<scalar> 
18
(
1.62978
1.63767
1.64589
1.65471
1.66406
1.67406
1.68431
1.69486
1.70553
1.71582
1.72533
1.73376
1.74087
1.74696
1.75254
1.75778
1.76329
1.76932
)
;
    }
    procBoundary37to45
    {
        type            processor;
        value           nonuniform List<scalar> 
129
(
1.76916
1.76369
1.75954
1.75378
1.74734
1.74278
1.73786
1.73206
1.61269
1.60745
1.60376
1.6003
1.59561
1.59092
1.58729
1.58319
1.57775
1.5736
1.57004
1.56567
1.56088
1.55735
1.5537
1.5489
1.54423
1.54041
1.53643
1.53137
1.52755
1.5243
1.52066
1.51626
1.5128
1.50929
1.50523
1.50049
1.49664
1.49288
1.48865
1.4842
1.48083
1.47744
1.47349
1.46947
1.46626
1.46295
1.45883
1.45504
1.45213
1.44895
1.44477
1.44152
1.43877
1.43536
1.43108
1.42807
1.4253
1.42163
1.41759
1.41492
1.41223
1.40859
1.40484
1.40239
1.39981
1.39617
1.39266
1.39045
1.388
1.38444
1.38106
1.37889
1.37643
1.37276
1.36943
1.36771
1.36544
1.36198
1.35836
1.35456
1.35428
1.35949
1.41736
1.64633
1.97795
2.0938
2.09723
2.09043
2.07853
2.06798
2.06305
2.06263
2.06168
2.06606
2.07782
2.09861
2.1269
2.15933
2.19496
2.22314
2.2522
2.27868
2.33352
1.72681
1.7222
1.71835
1.71482
1.71065
1.70537
1.7014
1.69841
1.69407
1.68836
1.68432
1.68045
1.67496
1.6705
1.66702
1.66241
1.65735
1.65381
1.64981
1.64453
1.64042
1.63663
1.63152
1.62647
1.61269
1.62289
)
;
    }
}


// ************************************************************************* //
