/*--------------------------------*- C++ -*----------------------------------*\
  =========                 |
  \\      /  F ield         | OpenFOAM: The Open Source CFD Toolbox
   \\    /   O peration     | Website:  https://openfoam.org
    \\  /    A nd           | Version:  7
     \\/     M anipulation  |
\*---------------------------------------------------------------------------*/
FoamFile
{
    version     2.0;
    format      ascii;
    class       volScalarField;
    location    "1";
    object      T;
}
// * * * * * * * * * * * * * * * * * * * * * * * * * * * * * * * * * * * * * //

dimensions      [0 0 0 1 0 0 0];

internalField   nonuniform List<scalar> 
1008
(
1
1
1
1
1
1
1
1
1
1
1
1
1
2.09961
2.79814
2.80176
2.80663
2.81995
2.84014
2.8648
2.8962
2.93993
2.99255
3.02279
1
1
1
1
1
1
1
1
1
1
1
1
1
2.07613
2.78953
2.79986
2.80513
2.81817
2.83782
2.86215
2.8932
2.93655
2.98869
3.01861
1
1
1
1
1
1
1
1
1
1
1
1
1
2.018
2.77496
2.79535
2.80124
2.81423
2.83336
2.85753
2.88844
2.93185
2.98373
3.01364
1
1
1
1
1
1
1
1
1
1
1
1
1
1.92178
2.74762
2.78581
2.79288
2.80632
2.82513
2.84986
2.88112
2.92453
2.97574
3.00478
1
1
1
1
1
1
1
1
1
1
1
1
1
1.78947
2.7022
2.7698
2.78068
2.79438
2.81267
2.8375
2.86776
2.90995
2.96071
2.99124
1
1
1
1
1
1
1
1
1
1
1
1
1
1.59376
2.62126
2.74445
2.76074
2.7765
2.79559
2.821
2.85072
2.89142
2.93825
2.95936
1
1
1
1
1
1
1
1
1
1
1
1
1
1.33141
2.50465
2.71788
2.73456
2.75622
2.77863
2.80202
2.82547
2.85616
2.89472
2.91472
1
1
1
1
1
1
1
1
1
1
1
1
1
1.05398
2.36105
2.69479
2.70708
2.73051
2.75323
2.77469
2.79251
2.81744
2.85846
2.90174
1
1
1
1
1
1
1
1
1
1
1
1
1
1.00068
2.17556
2.6656
2.69683
2.71778
2.73375
2.74955
2.7584
2.76145
2.74188
2.6742
1
1
1
1
1
1
1
1
1
1
1
1
1
1
1.87711
2.6021
2.67837
2.69921
2.71065
2.71868
2.7165
2.6972
2.65681
2.51576
1
1
1
1
1
1
1
1
1
1
1
1
1
1
1.42883
2.47252
2.65152
2.66311
2.67423
2.67517
2.66797
2.63746
2.58216
2.41465
1
1
1
1
1
1
1
1
1
1
1
1
1
1
1.04211
2.29311
2.60526
2.61485
2.62563
2.6234
2.61317
2.58357
2.51319
2.3648
1
1
1
1
1
1
1
1
1
1
1
1
1
1
1.00034
1.9413
2.52214
2.59107
2.58967
2.58144
2.56474
2.53232
2.4602
2.34999
1
1
1
1
1
1
1
1
1
1
1
1
1
1
1
1.34812
2.36652
2.55952
2.55037
2.54033
2.51955
2.48327
2.41956
2.33479
1
1
1
1
1
1
1
1
1
1
1
1
1
1
1
1.02447
2.12415
2.49159
2.51044
2.50182
2.47975
2.44305
2.38825
2.32112
1
1
1
1
1
1
1
1
1
1
1
1
1
1
1
1.0001
1.55686
2.34731
2.48267
2.46448
2.44251
2.40828
2.36057
2.30504
1
1
1
1
1
1
1
1
1
1
1
1
1
1
1
1
1.0694
2.11922
2.43444
2.42003
2.40234
2.37451
2.33542
2.28959
1
1
1
1
1
1
1
1
1
1
1
1
1
1
1
1
1.00083
1.55819
2.27483
2.39675
2.37051
2.34517
2.3134
2.27584
1
1
1
1
1
1
1
1
1
1
1
1
1
1
1
1
1
1.07406
2.03658
2.35531
2.33498
2.31045
2.28403
2.25359
1
1
1
1
1
1
1
1
1
1
1
1
1
1
1
1
1
1.00099
1.43839
2.17315
2.31343
2.28383
2.25944
2.23161
1
1
1
1
1
1
1
1
1
1
1
1
1
1
1
1
1
1
1.04432
1.851
2.25644
2.24839
2.22671
2.20408
1
1
1
1
1
1
1
1
1
1
1
1
1
1
1
1
1
1
1.00047
1.26464
2.0365
2.23013
2.19984
2.18091
1
1
1
1
1
1
1
1
1
1
1
1
1
1
1
1
1
1
1.82637
1.31448
1.17438
1.18417
1.21205
1.32833
1.41646
1.49762
1.64471
1.794
1.83731
1.82182
1.81216
1.82963
1.88031
1.89944
1.90021
1.89489
1.88196
1.87477
1.87447
1.87443
1.86596
1.84503
1.82893
1.82446
1.82351
1.82275
1.81871
1.81069
1.79887
1.79206
1.78937
2.05112
1.74437
1.66854
1.57161
1.42384
1.39189
1.36448
1.36683
1.39431
1.44377
1.47266
1.51157
1.55847
1.60858
1.67072
1.72596
1.75362
1.76281
1.76773
1.7715
1.77779
1.7878
1.78627
1.77609
1.77021
1.77069
1.77192
1.77112
1.76656
1.76004
1.75069
1.74764
1.7467
2.14188
1.92705
1.79307
1.67629
1.56021
1.48548
1.4352
1.37559
1.3318
1.33132
1.32974
1.34713
1.38414
1.42059
1.46181
1.51195
1.55143
1.57894
1.60522
1.62713
1.6446
1.6615
1.67339
1.67277
1.6724
1.67622
1.67574
1.66977
1.65801
1.6509
1.64894
1.64737
1.64577
2.17208
2.01929
1.89545
1.7747
1.66698
1.60555
1.54355
1.47247
1.42132
1.40238
1.37359
1.33489
1.3339
1.34154
1.35564
1.37491
1.40657
1.43899
1.4678
1.49116
1.50851
1.52312
1.54228
1.55411
1.56445
1.57815
1.57969
1.57623
1.56857
1.56224
1.55871
1.55385
1.54865
2.20514
2.07301
1.96507
1.85711
1.75851
1.69655
1.63115
1.55039
1.49825
1.46785
1.4324
1.38554
1.3645
1.35864
1.34326
1.34369
1.35107
1.36161
1.37369
1.38987
1.41121
1.42912
1.45159
1.46679
1.4788
1.48879
1.49474
1.49383
1.49107
1.49082
1.49451
1.49927
1.49825
2.22419
2.1168
2.02121
1.92071
1.83202
1.76453
1.70239
1.63365
1.58414
1.54487
1.50208
1.45441
1.43126
1.41644
1.39001
1.36052
1.35619
1.35255
1.33956
1.33172
1.33602
1.3467
1.36532
1.38907
1.40824
1.42229
1.43467
1.44206
1.44159
1.44265
1.44743
1.45474
1.45626
2.23615
2.14688
2.06333
1.97438
1.89535
1.83143
1.76414
1.69003
1.64743
1.61077
1.57191
1.52008
1.4909
1.46631
1.43481
1.39273
1.37136
1.35928
1.34065
1.32184
1.32112
1.32527
1.3276
1.32911
1.33492
1.3472
1.36384
1.38171
1.39555
1.40226
1.40819
1.42111
1.42559
2.23661
2.16537
2.09415
2.01726
1.94665
1.88633
1.8216
1.75368
1.70645
1.66508
1.62336
1.57679
1.54643
1.52181
1.49295
1.4492
1.41669
1.40129
1.38108
1.35185
1.33665
1.33532
1.32671
1.31473
1.30532
1.30261
1.30581
1.313
1.32481
1.34358
1.3623
1.37866
1.39335
2.23396
2.17688
2.11717
2.04882
1.98618
1.93174
1.86827
1.80289
1.75801
1.71682
1.6735
1.62839
1.59101
1.56026
1.53475
1.50001
1.46559
1.44514
1.4221
1.38992
1.36141
1.35232
1.33796
1.31788
1.30148
1.2962
1.29703
1.29685
1.29421
1.29628
1.30815
1.32149
1.33434
2.2289
2.17929
2.12804
2.07086
2.01479
1.96277
1.90653
1.85058
1.80256
1.75598
1.71019
1.67559
1.63982
1.603
1.57486
1.53976
1.50051
1.47934
1.46198
1.43545
1.40302
1.39027
1.3767
1.3546
1.32412
1.30925
1.30931
1.30365
1.29238
1.28708
1.28774
1.287
1.28118
2.21619
2.17556
2.13122
2.08072
2.03155
1.9836
1.93009
1.88118
1.8373
1.79137
1.74162
1.7084
1.67481
1.63566
1.6076
1.58078
1.54257
1.5121
1.49301
1.46747
1.43298
1.41824
1.40944
1.39258
1.36162
1.3356
1.32906
1.31816
1.30056
1.28741
1.28523
1.28409
1.27489
2.20026
2.16628
2.12792
2.08525
2.04095
1.99415
1.94525
1.90175
1.86014
1.81473
1.76862
1.73852
1.70756
1.66664
1.62973
1.60465
1.57167
1.54217
1.52469
1.50461
1.46958
1.44468
1.43688
1.4234
1.39839
1.37188
1.36196
1.35046
1.33116
1.30848
1.30208
1.29703
1.28338
2.17806
2.14957
2.11677
2.07993
2.04016
1.99678
1.95227
1.9123
1.87442
1.83328
1.7921
1.76133
1.72924
1.68871
1.6567
1.63241
1.59982
1.56219
1.54578
1.52967
1.50389
1.47932
1.46724
1.45261
1.42686
1.39617
1.38458
1.37432
1.35683
1.33154
1.32087
1.31439
1.29968
2.15909
2.13338
2.10379
2.07176
2.03671
1.9974
1.95727
1.91964
1.88379
1.84388
1.8105
1.78234
1.75103
1.70986
1.67517
1.65172
1.62158
1.58839
1.57027
1.55442
1.5275
1.4986
1.48939
1.47841
1.45702
1.42709
1.41102
1.3995
1.38202
1.35426
1.34061
1.33647
1.32497
)
;

boundaryField
{
    inlet
    {
        type            fixedValue;
        value           uniform 1;
    }
    outlet
    {
        type            inletOutlet;
        inletValue      nonuniform 0();
        value           nonuniform 0();
    }
    bottom
    {
        type            symmetryPlane;
    }
    top
    {
        type            symmetryPlane;
    }
    obstacle
    {
        type            zeroGradient;
    }
    defaultFaces
    {
        type            empty;
    }
    procBoundary0to1
    {
        type            processor;
        value           nonuniform List<scalar> 
14
(
1.78682
1.74466
1.64254
1.54239
1.49469
1.4562
1.4274
1.40046
1.34808
1.28263
1.26246
1.26474
1.27554
1.30187
)
;
    }
    procBoundary0to2
    {
        type            processor;
        value           nonuniform List<scalar> 
58
(
1
1.01409
1.54829
2.08405
2.18358
2.15417
1
1
1
1
1
1
1
1
1
1
1
1
1
1
1
1
1
1
1
2.13182
2.10953
2.08426
2.05583
2.02365
1.98965
1.95626
1.92451
1.89288
1.85463
1.82111
1.79474
1.76741
1.73016
1.69945
1.6721
1.64161
1.60461
1.58808
1.57755
1.5565
1.52474
1.50752
1.49445
1.47525
1.44986
1.4355
1.42461
1.40755
1.3787
1.3569
1.35059
1.34021
)
;
    }
}


// ************************************************************************* //
