/*--------------------------------*- C++ -*----------------------------------*\
  =========                 |
  \\      /  F ield         | OpenFOAM: The Open Source CFD Toolbox
   \\    /   O peration     | Website:  https://openfoam.org
    \\  /    A nd           | Version:  7
     \\/     M anipulation  |
\*---------------------------------------------------------------------------*/
FoamFile
{
    version     2.0;
    format      ascii;
    class       volScalarField;
    location    "0.067";
    object      T;
}
// * * * * * * * * * * * * * * * * * * * * * * * * * * * * * * * * * * * * * //

dimensions      [0 2 -2 0 0 0 0];

internalField   nonuniform List<scalar> 
12359
(
-3.65891e-104
-9.98743e-84
1.15696e-287
7.26908e-55
-2.21768e-95
4.20461e-38
1.61977e-31
-1.11438e-34
8.76246e-26
-8.02704e-42
-1.66961e-28
-9.15113e-19
-0.000123339
-1.40859e-51
-1.92866e-58
1.71737e-10
6.8729e-08
-6.16837e-156
7.45303e-160
-1.96022e-69
2.72668e-48
5.1739e-22
-3.19742e-76
4.85693e-66
6.29007e-80
9.37828e-73
-5.56777e-208
-4.84749e-211
4.32864e-168
9.86792e-195
4.98059e-187
9.89054e-231
-1.10103e-254
-8.90726e-199
-5.91705e-271
-3.31082e-183
3.22363e-126
9.6889e-109
1.48821e-99
-6.22197e-116
1.04968e-87
4.21769e-113
-1.60771e-137
-1.54803e-141
-1.02321e-175
1.52474e-172
2.06163e-179
-7.71158e-191
-7.14004e-164
5.51618e-203
9.44276e-215
1.21396e-222
-1.02116e-234
4.18086e-152
-3.7786e-243
8.66796e-251
9.78743e-145
1.14861e-258
-1.04637e-262
7.74503e-267
-4.14205e-247
-3.25196e-279
-1.20456e-218
0.0847318
-2.3651e-148
-2.38009e-45
-4.59783e-130
-1.20848e-226
-1.29419e-122
-3.90252e-13
15.6768
5.58546e-92
-8.61643e-292
4.06723e-119
8.28037e-63
5.59993e-275
1.38179e-238
2.22644e-284
9.17999e-134
9.32644e-16
-1.34047e-45
-4.1136e-202
0
7.4971e-126
3.72956e-09
-1.41483e-154
1.97956e-199
8.90428e-275
3.80087e-07
5.04048e-10
0
0.0752932
0
3.00878e-163
8.12456e-133
2.41696e-135
-5.1544e-170
1.7796e-165
1.29525e-88
-6.30982e-106
1.08857e-40
-1.7203e-318
-6.70703e-154
0.0739088
-9.24981e-215
4.64604e-76
0
1.26847e-09
7.35426e-170
4.22647e-78
-3.47203e-173
2.10889e-201
-1.79515e-53
1.28602e-47
3.32279e-133
-3.94846e-249
-4.17385e-47
-1.59385e-202
2.01245e-05
0
4.69577e-176
7.21608e-37
-4.21086e-273
1.03949e-105
-7.65345e-202
2.47637e-235
-7.27757e-36
-2.65272e-125
3.9681e-284
1.40716e-203
-1.14588e-249
8.31291e-31
1.52911e-25
9.4095e-27
0
-1.43928e-105
-2.4697e-247
-5.48149e-107
-1.14195e-311
-1.50932e-37
0
3.06313e-104
2.10525e-99
0
-2.8333e-49
1.51549e-44
0
8.11096e-11
1.35566e-213
-3.11804e-43
-9.85809e-135
-2.83472e-314
-5.63275e-97
-5.52202e-270
0
57.0455
1.86884e-42
1.1095e-31
1.64861e-171
-1.00469e-248
2.15925e-67
-9.8591e-247
4.46331e-106
8.78563e-99
0
8.42483e-238
-2.22968e-69
7.97965e-36
-3.35266e-101
1.79565e-07
-1.35462e-279
-9.82072e-278
1.77807e-104
1.17616e-82
-8.5468e-218
4.47999e-39
3.39897e-177
1.14627e-179
-1.79294e-52
2.77854e-41
-1.11732e-54
0
-6.58581e-287
1.92678e-201
1.26535e-90
-8.98556e-28
-1.02597e-169
2.82689e-138
1.46786e-130
-1.59149e-169
2.84743e-136
6.4413e-138
-8.63125e-138
2.50096e-268
-4.82935e-80
0.280054
-9.40065e-126
-7.19197e-168
1.90093e-93
-1.01809e-200
-1.69962e-43
4.95556e-132
5.09119e-104
2.13991e-79
1.36842e-55
0
3.8664e-53
5.61743e-102
3.50894e-97
6.10105e-185
0
4.69961e-58
7.60692e-57
91.9622
-7.97188e-27
2.10769e-309
-2.56495e-169
2.23461e-135
-4.24659e-169
-6.84346e-102
-8.03961e-49
3.6722e-188
7.29549e-108
0.0697225
3.92389e-204
0
-4.78491e-100
9.10051e-171
2.7548e-40
2.849e-163
8.87106e-162
0
-2.58196e-49
3.29354e-99
2.64425e-140
2.41006e-101
0
-4.06365e-92
2.7429e-138
3.71532e-10
0
5.01611e-152
1.05198e-149
1.60878e-20
2.62429e-64
3.80823e-11
-5.35211e-266
3.89558e-99
-1.04847e-225
-1.36738e-138
1.91332e-72
-2.88672e-112
3.81056e-184
9.15207e-161
0.0225882
69.5031
0
5.05528e-193
0.0219506
50.2975
-5.85512e-104
1.32804e-65
2.81906e-44
3.02392e-81
-3.59922e-84
16.2485
6.70085e-06
-2.66737e-62
1.85264e-195
-7.41311e-104
9.3085e-103
-2.97263e-87
-2.68026e-99
-4.70296e-163
7.47915e-189
0
2.23047e-191
0.0038909
-1.9448e-63
0
-2.17895e-316
-1.3343e-83
9.87076e-201
-1.22534e-132
1.9144e-154
0
-9.40722e-45
-1.1838e-315
-9.05264e-318
-1.28695e-235
2.19248e-108
3.70144e-206
15.7234
0
0
-5.60951e-152
1.0439e-228
8.0248e-49
6.15353e-140
2.75943e-220
0
0.00132888
3.92239e-42
0
2.4466e-166
2.24015e-142
-7.39809e-224
-3.18838e-247
-5.59689e-249
5.66603e-223
4.5691e-166
-2.52418e-28
-3.31567e-225
2.16387e-188
-1.63264e-111
-2.64789e-77
2.23392e-07
-1.89044e-225
-9.09722e-91
1.45993e-13
-7.67014e-318
-2.01148e-104
0
-3.90718e-123
0
-2.93855e-222
2.97554e-28
-1.59269e-98
-1.2705e-29
-3.44717e-135
-1.92103e-153
1.92707e-139
1.91495e-134
1.37875e-149
4.02483e-142
-2.26373e-139
6.32019e-303
1.96955e-256
5.61512e-258
2.83814e-253
2.01769e-254
2.18287e-08
0
1.6815e-45
2.60244e-112
1.99009e-94
-1.69685e-95
-5.57803e-97
9.08231e-153
2.41663e-126
-3.51102e-99
-1.08308e-127
-1.08609e-92
-2.03481e-72
-6.48685e-70
-1.32414e-54
5.90727e-102
1.31788e-33
2.46241e-106
3.52116e-108
-2.63598e-93
4.94805e-38
1.94861e-202
5.42391e-242
1.18096e-124
-2.06897e-243
9.14057e-201
50.5454
1.33541
7.93952e-201
1.38097e-305
0
0
-6.54647e-101
0
0
9.12318e-07
-1.40223e-99
9.55073e-10
-5.08832e-198
2.69649e-88
4.53219e-203
1.35406e-147
-2.74356e-68
2.57008e-126
2.20784e-55
1.95492e-128
1.05485e-204
0
3.24189e-101
-1.39814e-89
2.44388e-209
3.54798e-19
-1.16997e-69
3.39515e-135
7.11383e-83
2.37651e-71
1.81637e-307
0.577707
9.49825e-32
-4.25905e-196
1.34167e-21
5.92541e-108
0
0
0
2.76286e-09
1.09412e-39
-1.13183e-88
-1.76832e-108
-1.98773e-136
6.29549e-130
-1.30096e-56
-2.77143e-84
7.37105e-46
7.08002e-07
1.83795e-17
2.96019e-93
4.37428e-56
5.13169e-167
3.25225e-65
3.6388e-130
1.78701e-122
-6.21737e-200
2.79122e-132
1.82028e-101
0
35.4956
-4.41633e-130
7.82685e-11
-1.16976e-93
-1.29485e-145
1.96893e-52
0.0114278
-1.12317e-95
-2.82146e-116
1.09646e-136
-3.59057e-91
-2.56353e-65
-1.63743e-196
0
1.96054e-50
0
2.19281e-32
8.1978e-246
4.80091e-75
-2.5918e-61
-3.76396e-184
5.67028e-10
1.18981e-44
1.88575e-107
-1.13389e-186
2.75043e-12
1.20008e-310
-5.21187e-204
5.6278e-43
6.73241e-304
1.57036e-187
-9.76065e-206
3.1021e-14
2.34707
2.70029e-128
6.38889e-282
-1.83275e-57
4.87533e-73
-9.62494e-107
-1.14067e-91
-1.00634e-101
1.20775e-300
0
-2.31887e-81
0
5.7925e-64
-3.95796e-106
1.90195e-67
4.87755e-182
6.80625e-52
1.06898e-42
-7.87477e-199
-2.08253e-134
1.46907e-207
-1.0052e-51
-5.7659e-45
9.20418e-312
-2.46447e-77
-7.03781e-107
3.82069e-167
1.41909e-75
1.1708e-244
1.1502e-38
6.7857e-148
-3.66349e-100
-7.7601e-68
1.89153e-298
2.89464e-134
6.94316e-28
1.65754e-23
0
3.54696e-114
1.62317e-21
2.00524e-125
0.00514133
0
3.78179e-248
6.06814e-308
4.58354e-94
8.16917e-106
4.32002e-119
2.66005e-242
1.33314e-80
4.4269e-121
8.50402e-89
-1.17433e-194
7.66571e-14
0
1.08538e-12
2.10389e-278
83.1088
3.54686e-146
7.02305e-30
2.29117e-263
9.41619e-184
-5.35517e-75
7.30499e-204
4.8445e-222
3.04156e-137
2.93853e-104
-2.90657e-104
1.0019e-24
2.67167e-61
2.06281e-62
0
1.07898e-204
-2.78738e-102
2.12488e-22
0
0
-3.00435e-105
-3.54854e-305
-3.89652e-30
0.00904193
3.83725
0
-9.00216e-149
1.40156e-70
2.84883e-114
-4.83241e-220
30.6157
0
1.60758e-42
5.75295e-60
-1.21055e-147
-1.91147e-224
1.14231e-217
8.47871e-188
-2.60182e-114
1.45506e-131
-8.80143e-126
0
-1.93028e-282
-6.17871e-108
5.75494e-177
-9.43967e-57
-9.36013e-95
-9.14436e-232
0
-6.07752e-71
40.0079
6.27819e-190
2.02782e-47
0
-2.77096e-124
7.1777e-45
-2.75416e-128
2.72025e-74
-3.05244e-52
-1.69792e-110
8.89028e-105
0
-8.44847e-272
-1.19474e-133
4.65778e-136
3.65919e-112
5.04474e-138
0
0
8.04203e-236
2.94169e-90
1.57464e-95
-4.49267e-57
-3.44956e-128
-5.09276e-56
4.01396e-95
-2.39696e-113
-2.69653e-52
6.96216e-89
1.74569e-10
-2.60761e-97
-1.04642e-87
1.98312e-58
3.20707e-278
3.05727e-51
-1.43138e-74
0
1.11222e-300
2.35613e-303
1.79935e-276
1.93403e-21
3.9056e-115
5.89999e-175
-1.33866e-55
1.70052e-135
1.17339e-25
4.15208e-127
-2.38556e-113
2.85352e-234
7.3825e-37
0
8.24981e-89
3.60642e-188
3.74989e-36
-4.15242e-50
-1.13555e-118
8.89878e-123
0.436423
7.32543e-100
-2.18014e-35
1.82441e-127
1.6874e-23
0.00165142
-2.17273e-289
1.71105e-195
0
1.44618e-24
6.2721e-196
4.9226e-130
1.70403e-09
0
9.44769e-86
-6.77331e-64
-6.6931e-121
-2.96601e-186
-1.51232e-118
-8.52821e-258
4.35841e-111
-9.3787e-255
-3.64751e-261
-1.95002e-116
5.3799e-106
-1.73135e-105
8.50493e-118
-3.5198e-16
-3.02209e-130
1.98577
-2.71939e-93
5.97377e-155
-8.14564e-113
-9.06694e-95
2.70323e-92
-1.92527e-137
0.00238845
-8.2546e-61
1.9474e-95
2.75043e-100
4.33327e-164
2.48859e-179
-2.19837e-71
0
0.000937899
-2.22698e-237
-5.07662e-59
-2.05364e-46
5.61506e-24
-1.86585e-60
9.78494e-86
1.86746e-65
-1.252e-128
3.26386e-60
-5.76442e-72
-2.54405e-36
3.63602e-102
8.12599e-42
4.92667e-102
0
-5.2352e-95
65.2232
1.34524e-26
2.21476e-167
0
1.16005e-229
-4.41091e-143
5.11684e-77
-2.19074e-107
-2.51462e-143
1.6675e-302
-2.7237e-163
3.69903e-91
-3.46205e-169
2.32203e-192
3.04075e-42
-1.85019e-147
3.44959e-79
-3.09417e-82
2.6399e-164
-1.69852e-156
2.91507e-49
0
3.35169e-148
5.89136
4.30811e-270
-4.43463e-47
-1.66335e-48
3.36912e-158
-6.72129e-58
4.84993e-81
1.25287e-95
-8.06142e-64
-1.92958e-201
3.02363e-57
3.23099e-220
-3.37944e-140
6.29909e-84
-1.9296e-55
-7.91736e-201
5.86123e-103
2.76957e-31
-1.39901e-80
-8.04914e-127
-2.7931e-199
-3.05064e-49
9.96097e-13
2.26849e-168
-3.61297e-311
4.31156e-95
0
0.000999701
-7.93051e-102
8.12243e-29
4.69757e-136
-1.11036e-147
0.272826
-2.23835e-121
3.04606e-08
-1.78206e-109
2.27758
-5.96566e-103
-4.33109e-124
-9.4693e-124
1.47108e-169
4.51457e-11
2.74561e-14
7.05897e-284
2.76091e-279
-8.98173e-51
-1.78918e-265
3.92736e-07
-1.92923e-67
1.47087e-20
-4.35025e-199
65.5518
0.000118037
-2.46603e-100
0
-9.42038e-208
-2.21723e-64
3.23331e-139
-1.81921e-126
-2.55471e-135
4.46226e-101
-4.05772e-74
0.0904078
-6.67248e-15
-3.05072e-305
-8.4215e-65
1.06429e-64
-1.17149e-46
-2.61221e-130
1.12011e-40
-1.30707e-97
-1.47704e-62
-4.20207e-186
0
-1.31485e-64
-3.08649e-59
8.81783e-144
-1.41062e-54
1.14171e-30
6.03233e-158
4.29788e-98
-2.7217e-186
1.67929e-144
-1.32792e-25
-1.96477e-142
-3.85193e-75
5.30111e-73
-2.75707e-112
-2.28888e-187
-1.27989e-126
1.05885e-32
-1.10422e-139
-1.00756e-132
0.163245
-2.94668e-86
-4.04927e-155
2.82874e-06
0
-2.80996e-137
2.03991e-105
7.83724e-142
1.75191e-238
-1.8419e-99
0
1.33306e-22
2.6731e-211
2.72947e-86
6.1155e-57
1.98829e-56
5.92136e-130
9.9369e-134
-8.65329e-67
8.41698
1.3916e-275
-2.09336e-143
-3.13087e-156
7.37584e-07
3.40773e-58
-1.8778e-203
0.0185922
0
4.0305e-211
51.795
1.45442e-156
-7.15335e-199
-1.92169e-194
-5.43502e-74
-4.03365e-68
7.22419e-268
2.92975e-147
4.50388e-44
3.28192e-105
-1.48438e-109
1.31356e-136
1.48315e-287
-4.29446e-66
3.88436e-22
9.66454e-111
2.24192e-55
-3.15063e-111
-4.52075e-140
1.72299e-24
-3.29186e-66
4.09761e-134
-8.16848e-210
2.78849e-12
-3.78898e-106
-2.32559e-79
-1.53875e-184
8.11485e-274
2.33907e-56
2.74018e-36
-2.15242e-143
-1.65775e-64
-3.64653e-141
-8.67147e-133
-2.21835e-178
1.76148e-67
46.4254
2.0219
-3.35926e-67
-3.57944e-111
1.82895e-180
-1.57764e-70
5.18737e-06
-1.06371e-59
-2.95752e-205
2.82294e-41
3.04218e-23
0.684174
-2.7079e-171
4.54755
4.6106e-277
-5.49413e-131
3.67379e-272
9.7076e-26
-8.9094e-78
4.45885
6.09347e-222
5.5101e-06
-1.3475e-262
3.97181e-112
1.22226e-86
1.14597e-142
1.44515e-40
5.15037e-11
3.63228e-151
1.47509e-185
2.58697e-146
-9.17879e-171
1.19319e-153
5.53388e-28
-1.73744e-81
8.72951e-134
2.31742e-31
6.45153e-155
-4.61193e-267
-8.1221e-114
-8.8682e-227
1.93217e-47
7.69242e-150
2.25325e-26
4.73231e-27
-8.37927e-72
-4.85642e-78
-2.40912e-86
-2.57561e-124
3.72925e-06
-4.13983e-147
1.75045e-161
0
2.05174e-38
-7.00856e-62
2.31885e-224
-2.58264e-58
2.89077e-140
-4.06203e-78
-1.70595e-65
-5.05908e-58
-1.18987e-88
30.1411
-1.09164e-85
-8.02009e-70
1.69496e-11
-1.09827e-143
1.27754e-16
-1.77073e-72
-1.45349e-269
-7.38558e-145
5.43558e-194
-6.14467e-128
0
-4.79158e-199
2.3068e-23
5.20008e-34
7.4134e-203
54.7406
6.30448e-51
-8.42755e-243
4.83215e-26
9.94383e-43
-7.62978e-251
7.96518e-22
2.7845e-59
4.57674e-27
-3.07598e-255
2.32789e-181
6.40711e-168
-3.19255e-252
2.14584e-54
0.153983
-5.57439e-209
9.33729e-25
0
0.0128041
5.90834e-63
-1.04509e-96
0
7.17074e-211
-2.16121e-128
-4.37043e-92
2.14483e-30
-6.50816e-78
-1.84779e-157
-8.44495e-148
-1.37222e-258
-2.44861e-66
1.75288e-65
8.55067e-192
-5.33164e-302
-1.10982e-118
-4.52056e-80
-1.18106e-75
3.29681e-234
5.47358e-22
6.81963e-45
-2.31582e-264
1.51787e-97
-3.68481e-149
-5.41058e-135
70.2519
2.46699e-157
-1.44427e-244
-3.65557e-108
-2.45021e-63
-1.15775e-75
0.00614235
9.40859e-89
1.21683e-150
-2.12318e-76
-1.25863e-143
4.47169e-151
4.35056e-148
7.03858e-142
2.46469e-43
-2.10175e-126
1.93208
-1.45692e-73
1.65824e-18
-4.09662e-149
9.4699e-20
1.7122e-54
1.50322e-40
-1.37369e-22
-1.36304e-101
-9.30074e-157
-4.98521e-162
-7.31888e-114
0
2.29363e-137
9.99004e-62
1.23044e-52
2.83753e-145
-3.16863e-266
-3.73672e-108
-1.64862e-89
2.53213e-56
-2.52966e-68
1.30312e-40
1.87377e-57
1.99844e-182
-2.50516e-85
2.11199e-08
1.05554e-63
0
1.09582e-175
2.60865e-145
0
-3.76507e-87
3.7099e-278
5.39594e-135
3.10404e-26
4.30377e-58
8.5399e-23
2.89769e-275
-1.49299e-218
0
-2.94104e-146
1.09766e-170
7.65968e-40
6.10286e-169
-1.70074e-217
1.46489e-16
-1.72096e-83
2.49285e-132
-2.73541e-89
4.47564e-36
-2.02261e-168
4.8643e-24
-2.7389e-162
-1.30193e-269
1.04334e-12
-3.50661e-115
3.1155e-38
-6.3015e-165
5.79355
-3.18882e-69
-1.77331e-85
-1.82291e-107
1.24481e-66
0.0401173
1.30453e-152
7.23322e-43
-4.28684e-68
-1.24672e-87
-1.9358e-196
2.75157e-147
6.41164e-16
-6.73691e-130
1.16498e-28
9.78375e-155
3.34553e-159
1.61819e-25
3.20858e-250
2.60779e-175
5.3806e-150
-6.14637e-114
2.72762e-23
8.24959e-155
-3.72762e-146
0
5.28337e-66
2.82641e-13
-1.2482e-95
3.70616e-146
-6.22917e-109
8.26381e-171
1.91359e-209
0.355425
-1.64843e-79
1.37966e-313
-3.15116e-83
-8.14122e-173
-4.77117e-67
-2.78516e-41
-1.53172e-131
4.15644e-142
1.07583e-40
4.98975e-32
0
-3.6906e-117
2.16306e-33
6.30928e-222
-1.04004e-289
-2.45649e-96
9.18349e-113
1.49125e-133
-3.03125e-287
2.08878e-100
4.68177e-25
1.63923e-245
1.39358e-51
7.9498e-272
6.57418e-194
-1.97605e-93
2.17843e-10
0
0.0482673
-2.05846e-77
-6.6016e-52
0.154619
-4.49123e-73
9.62782e-121
9.56349e-05
3.49187e-144
2.06791e-11
-4.93367e-30
-7.42443e-110
-6.60982e-138
-2.67398e-140
-8.60726e-160
6.7397e-169
-8.08845e-72
1.05453e-06
51.8324
-5.78947e-79
1.15905e-41
2.50694e-18
7.20605e-83
0.000153756
-4.83367e-239
1.01175e-157
3.3059e-39
-1.03048e-97
2.52069e-193
-7.45168e-80
2.27424e-155
0.063458
0
-3.37437e-184
3.59323e-230
67.4575
-1.07768e-52
3.25311e-75
7.67817e-130
-4.02247e-35
9.61848e-144
9.74432e-216
1.3605e-17
8.67637e-153
1.09755e-16
-4.2557e-71
2.14033e-151
2.94912e-41
-1.24418e-111
-9.89931e-148
1.2666e-212
6.83412e-207
0.000709304
1.12387e-28
-1.79725e-194
3.52302e-37
3.34644e-134
-4.77396e-60
0
-6.19744e-110
1.07904e-17
1.19666e-46
-6.91537e-71
-1.57985e-111
-6.8624e-216
7.20374e-55
1.18145e-139
-3.23935e-220
4.14019e-25
-1.44717e-49
1.30192e-175
1.26201e-46
-4.71283e-126
0
-9.70256e-197
4.77622e-314
-3.13385e-63
2.72524
1.15176e-24
1.17437e-55
1.04044e-183
4.0198e-137
-1.88948e-113
-4.12891e-320
4.31215e-17
-2.65192e-113
5.23455
-2.16807e-40
3.39847e-150
-1.21977e-178
3.27925e-234
-3.18497e-161
-1.12189e-142
-7.05208e-191
0.18713
1.55161e-48
-3.43642e-73
5.17626e-29
-6.73975e-67
1.98943e-222
0
-3.61172e-192
5.35975e-54
6.65857e-07
1.52258e-38
6.5747e-96
-2.68829e-81
2.35224e-104
3.70384e-50
5.24448e-07
3.87243e-05
1.59279e-140
-2.87599e-114
-5.38703e-72
8.90277e-175
4.13441e-306
3.1494e-192
-1.00371e-44
2.62395e-171
2.63051e-123
1.45549e-152
2.82303e-69
3.18744e-25
-3.21541e-162
1.45838e-190
4.40021e-32
3.04345e-54
8.30998e-131
7.94405e-195
-1.78561e-83
4.23392e-25
1.14717e-55
6.96057e-53
-1.67583e-87
3.20561e-141
3.27453e-13
1.42499e-134
-1.31684e-38
-1.08234e-210
1.52219e-24
8.43343e-33
1.02727e-274
8.07254e-230
32.4992
-6.65381e-197
-3.68998e-123
5.71674e-63
-2.59728e-165
3.80971e-164
-1.42003e-143
-2.76452e-199
0
3.11506e-69
1.0795e-16
6.14287e-234
5.5205e-06
1.36821e-158
1.01287e-197
1.33466e-23
4.65874e-18
-9.84258e-55
1.2942e-146
3.4927e-189
-4.35174e-77
57.4461
-1.30459e-168
1.88839e-235
3.31589e-245
7.99055e-171
-9.99449e-99
-1.8847e-73
3.87617e-173
1.10468e-108
2.41408e-179
0.0341736
7.29021e-22
-1.40522e-115
4.1681e-62
5.04691e-156
1.56541e-196
9.11144e-56
0.000951013
-2.50919e-120
1.00417e-241
4.03701e-199
3.02644e-29
3.51373e-166
-5.16161e-213
1.58882e-36
1.71798e-148
-7.91654e-203
52.8847
6.31845e-33
3.17125e-05
5.13259e-56
2.77307e-167
4.6688e-51
8.24528e-21
9.74491e-06
1.58584e-157
2.20823e-84
0
0.000267325
0
7.92484e-162
2.71741e-169
-2.34128e-241
-2.90009e-93
-3.6468e-129
3.37427e-165
6.57129e-160
0.000455071
1.8534e-28
-1.25006e-105
3.23238e-190
-1.17571e-64
0.00161255
2.95092e-29
3.88483e-73
-2.5324e-85
-3.13843e-162
6.39633e-140
9.60569e-241
9.49396e-179
1.03433e-231
6.66251e-193
-8.08903e-75
7.99811e-30
-5.18243e-50
0.000155878
7.74891e-10
4.76638e-22
2.17087e-53
9.30402e-05
-5.73721e-216
1.59439e-15
7.43736e-201
1.16602e-07
2.62546e-31
-1.50569e-81
4.0693e-176
-1.04438e-77
-2.18475e-68
3.35806e-132
2.16131
2.30473e-23
7.58603e-05
3.05032e-195
8.57367e-24
8.609e-15
1.26656e-30
4.33549e-15
8.46236e-26
5.50463e-201
4.50025e-141
-3.89621e-112
1.05933e-181
6.45289e-64
-2.18718e-166
-2.92325e-77
1.02705e-279
2.13731e-150
-1.34506e-69
2.02121e-100
-2.46242e-222
-2.68478e-81
2.33295e-06
21.2978
-9.634e-244
2.79865e-83
5.13596e-159
2.33612e-19
1.66877e-65
0.115324
4.44387e-12
-4.69484e-162
-9.44084e-90
8.28446e-15
3.07602e-35
4.29748e-12
-3.54938e-91
1.17851e-23
-7.04276e-228
3.97517e-06
2.86249e-35
2.47593e-192
-1.23724e-16
8.07706e-12
4.68612e-77
3.33291e-05
2.1261e-161
1.03363e-17
-4.81224e-131
-5.14268e-251
1.17597e-122
3.17316e-141
4.26537e-07
2.47904e-26
1.3679e-08
-2.22974e-217
0.000165005
-4.94574e-80
4.0605e-34
-3.38643e-54
-1.33247e-93
4.78901e-111
3.60835e-10
7.1222e-159
-1.58722e-184
3.60081e-70
9.51369e-19
1.4542e-64
-7.60172e-54
-5.09445e-96
1.34386e-05
-2.94406e-54
5.70404e-63
5.25963e-19
8.10586e-239
1.83589e-15
2.1414e-47
2.75253e-16
1.85409e-125
1.83141e-14
-5.13304e-236
1.92972e-64
-1.08069e-117
2.80462e-31
-3.19271e-119
-2.04239e-70
5.43907e-18
20.2636
-1.30462e-149
-8.955e-109
-1.07627e-74
4.33258e-42
-2.07519e-60
1.30671e-160
-2.6995e-82
9.89876e-237
1.17195
0
1.83228e-236
1.27804e-311
3.68124e-24
2.16216e-199
-3.64116e-75
1.40763e-06
4.37002e-115
-1.60298e-96
-2.22717e-189
-2.52234e-293
2.10124e-19
3.24827e-242
-2.67988e-65
5.7101e-29
-5.9307e-79
4.97195e-13
-2.42974e-164
-6.68823e-84
8.84039e-19
-6.17784e-54
1.10096e-127
25.1204
0
-1.86123e-284
8.51264e-145
73.5743
8.93088e-128
3.23617e-148
6.14656e-16
4.51201e-175
-9.40381e-162
1.98199e-46
2.3286e-18
5.9401e-68
7.12557e-12
5.1801e-169
6.47742e-151
-2.26304e-109
-1.579e-110
1.18528e-31
2.10096e-203
1.41554e-145
-1.15291e-91
-2.27663e-29
3.61531e-119
-4.02957e-225
-4.58261e-79
-6.53078e-33
-3.85001e-295
1.7807e-290
1.19788e-12
1.06252e-67
1.19057e-11
-1.26094e-161
0
-2.64168e-31
7.79949e-25
1.4283e-219
-2.27943e-166
7.07629e-238
0.0104009
9.73161e-294
4.36377e-70
3.02676e-17
2.18549e-288
-4.57054e-291
-1.75656e-55
-1.1912e-255
-1.47178e-290
1.2324e-106
3.8951e-28
-6.67521e-228
6.98777e-49
-6.05644e-246
3.57482e-20
0
1.05155e-15
5.22554e-25
-1.42608e-64
4.79183e-287
-2.29377e-46
0.0658655
-7.61513e-175
4.4402e-81
1.11417e-262
5.26736e-29
2.32267e-247
1.05584e-19
1.06011e-30
3.56825e-144
-4.05418e-303
1.73596e-25
1.34218e-30
-1.79319e-117
-1.58047e-117
1.16376e-30
-3.75451e-253
-6.45786e-48
-1.42328e-305
4.07618e-21
1.01943e-20
1.30974e-34
-1.05754e-62
1.17123e-40
0.00134472
-1.99802e-71
-4.57336e-116
4.52031e-31
8.74047e-164
1.73399e-43
5.70645e-30
-5.85115e-69
-3.56406e-156
1.50957e-07
0
4.31583e-09
37.2844
1.03647e-180
2.00627e-29
2.05813
-5.85523e-62
-9.63506e-114
-6.97918e-48
-2.13091e-89
3.53115e-234
2.39367e-21
4.6809e-08
0.00655558
1.43253e-163
2.0567e-57
2.5981e-16
3.97902e-26
-3.90637e-191
2.9341e-282
-6.65025e-97
9.78641e-11
1.6427e-19
7.85043e-33
0
-1.90246e-248
8.8664e-30
-7.77515e-171
-6.34376e-96
-5.84516e-164
8.20575e-300
6.3024e-19
-1.64024e-168
3.01394e-18
-8.81047e-116
-3.2881e-264
-1.72469e-281
9.10518e-28
1.05341e-164
1.75968e-61
1.00778e-32
5.83659e-09
-2.93003e-86
6.8312e-226
8.70869e-16
-9.67634e-132
5.35927e-239
1.20461e-142
7.47874e-30
6.47383e-173
1.8785e-27
-4.06536e-100
71.3293
7.48082e-32
1.1946e-210
7.5626e-18
1.10489e-310
2.26639e-23
-3.90783e-80
9.03702e-14
1.41399e-11
-9.99835e-71
1.80542e-15
-1.11662e-261
1.30524e-26
8.19016e-174
3.94621e-85
3.87352e-19
-4.68575e-64
6.75783e-19
1.83181e-08
-6.52318e-35
2.27779e-25
4.17888e-13
-5.69991e-221
7.54993e-243
1.91656e-308
5.23599e-16
2.92796e-42
-3.98423e-218
4.24749e-20
8.35676e-22
-1.14815e-98
7.24142e-45
7.67916e-117
-3.77075e-61
1.56649e-16
5.85941e-117
-4.80021e-83
1.88631e-76
0
-2.91499e-322
1.41495e-217
1.17447e-162
-2.59409e-119
-2.15754e-268
-1.79487e-139
1.00862e-147
1.10215e-94
-5.61093e-69
-1.9031e-191
3.90004e-20
0
2.61702e-28
5.34332e-14
3.84924e-208
1.91231e-10
5.03666e-40
8.50584e-21
8.0384e-119
2.6534e-33
3.67073e-171
-3.8281e-85
-1.6025e-100
-8.19842e-284
1.74416e-173
-1.71585e-150
1.21336e-205
-3.41543e-311
1.98528e-91
-1.14371e-313
6.71737e-54
-1.22062e-63
8.48482e-06
-1.12525e-272
6.23409e-100
-7.43713e-266
1.56629e-173
6.518e-39
4.43279e-104
7.48189e-215
62.4038
5.19901e-27
7.1938e-68
-1.30351e-99
1.70867e-33
1.52219e-41
3.01691e-147
-5.12439e-52
7.02111e-28
-1.59849e-147
-3.92729e-308
1.99834e-136
5.63016e-26
-4.81337e-243
1.71198e-219
1.97647e-26
-1.9934e-180
3.0396e-173
-7.8591e-157
-7.48345e-225
4.48275e-15
-3.99918e-270
3.86451e-222
-3.1403e-65
-6.01748e-51
6.21454e-05
5.36154e-26
-9.28673e-97
2.64051e-210
8.52493e-53
7.68378e-213
1.06381e-60
5.34222e-133
2.73238e-147
1.2413e-14
2.5946e-275
1.83042e-48
2.76796e-89
5.32466e-31
-1.59839e-65
-6.67858e-318
1.43727e-149
0
-3.85993e-55
-1.73225e-246
3.60564e-39
-1.96791e-96
-2.63276e-154
-1.19934e-93
-1.93057e-87
-1.62552e-309
3.63202e-47
-9.42187e-59
-5.21511e-162
-4.23546e-62
1.468e-21
-6.97889e-296
-7.8284e-84
1.16811e-22
2.52709e-44
-4.21363e-124
-3.47278e-82
-3.79755e-80
-5.56149e-102
2.55482e-119
4.76537e-27
2.37611e-119
-1.28504e-210
-8.97846e-213
2.98471e-15
1.23757e-20
3.07153e-20
-1.15292e-12
-1.15318e-59
1.19027e-42
-2.37907e-97
8.31464e-52
-2.46959e-213
2.43697e-06
1.11508e-172
1.0819e-12
1.65239e-38
4.48452e-215
9.9353e-45
2.84996e-23
3.71463e-23
-2.22011e-93
-8.80241e-59
-7.15208e-216
0
8.65982e-31
-6.58937e-307
2.71624e-277
-8.57243e-32
-9.18828e-173
1.53864e-110
-9.01116e-224
-2.03311e-163
2.59529e-32
0.672108
1.31139e-181
-6.40425e-187
3.09783e-27
-3.86749e-66
3.46755e-22
-2.0474e-54
7.7077e-46
1.26711e-177
1.486e-75
1.9443e-58
2.11258e-34
3.21521e-54
-2.14879e-217
5.25616e-35
1.7713e-65
1.32645e-40
-4.43569e-137
-8.20465e-220
5.17693e-34
3.1425e-177
5.33818e-296
-2.36654e-50
-4.57494e-16
5.01023e-272
1.16737e-60
-2.80217e-98
-4.90427e-189
-3.04801e-125
4.12086e-190
1.39622e-50
-7.717e-210
-1.48728e-222
-2.32271e-113
-9.23402e-52
-2.45109e-67
1.69458e-43
0.468793
-5.63394e-152
-7.64345e-102
1.17704e-10
1.25444e-71
5.43887e-192
1.45377e-67
5.52656e-22
-4.08309e-282
8.57201e-178
-1.1372e-300
-2.92124e-57
1.22729e-29
-5.01652e-114
-2.87825e-316
2.53956e-132
2.07063e-132
1.29778e-148
1.57218e-18
3.02875e-174
5.87938e-321
-1.36227e-308
-1.7533e-62
-3.64371e-95
-3.24599e-11
-6.54211e-135
-2.35785e-83
7.30488e-95
4.43524e-50
-4.40993e-240
3.57465e-44
-5.83418e-287
-5.3198e-277
-8.43601e-300
2.44142e-25
-4.48333e-167
-7.41873e-53
-3.43151e-74
-1.82415e-62
8.97407e-52
-6.04587e-61
9.90252e-28
3.23388e-45
-8.67702e-169
4.03794e-83
-1.78064e-73
1.75876e-75
4.92865e-38
2.85793e-177
0.550722
7.74467e-31
3.61094e-35
1.71392e-276
0.000394703
3.58581e-50
1.51158e-54
-1.79742e-45
2.82809e-36
5.02627e-102
-1.01247e-149
-7.80523e-166
1.82738e-180
-2.14098e-173
-8.48926e-31
1.27579e-43
3.99325e-176
1.60976e-66
3.468e-151
6.41681e-170
1.14012e-115
-8.97803e-73
1.9291e-137
1.42935e-93
-3.60745e-75
2.00563e-82
4.38028e-48
-3.38978e-102
-2.75635e-262
-5.83061e-125
5.52657e-168
9.70558e-24
7.22342e-245
-1.95203e-171
-2.33401e-60
6.6444e-08
1.71515e-208
9.19174e-11
-4.03573e-216
4.08801e-179
-8.95481e-115
-1.18841e-64
7.53206e-74
9.93888e-240
-4.98251e-63
-1.51648e-61
1.10794e-21
-2.0023e-274
-2.38638e-77
-1.6859e-87
-5.27519e-140
-6.11542e-298
0
7.36885e-44
-5.00538e-94
2.34914e-125
0.582722
4.49794e-52
4.26271e-69
-1.46055e-43
-4.23536e-115
9.82528e-22
-4.43674e-150
-6.08056e-116
2.37733e-143
-7.33187e-152
5.65304e-16
-7.04806e-76
2.13763e-50
8.19769e-78
-1.34167e-231
-7.02868e-62
8.72397e-61
2.21629e-28
3.23664e-156
4.29726e-71
1.05793e-09
7.01816e-13
-8.55881e-219
3.26789e-24
-5.91874e-118
0.0223812
2.07554e-297
1.01266e-54
1.32479e-79
0
1.713e-53
8.38722e-141
8.79e-130
1.57826e-43
7.00253e-19
4.64673e-30
-4.10802e-129
6.62602e-62
6.6163e-288
-2.89745e-172
6.18635e-16
-7.25503e-57
1.31068e-164
-2.13992e-61
-1.13836e-36
1.79339e-64
-2.57693e-97
-5.64579e-88
-1.75171e-73
4.85817e-17
-7.38628e-231
-5.64002e-92
-5.06042e-120
-2.9035e-51
-2.41517e-14
-9.94858e-66
-3.01222e-71
7.04364e-152
1.28825e-302
3.59237e-49
1.95098e-69
-3.76727e-67
-8.27488e-236
3.37053e-117
-4.22375e-81
1.1617e-67
1.25874e-42
-1.40564e-59
1.20372e-152
-3.42022e-66
-1.70596e-169
1.18446e-48
2.44166e-117
9.89446e-51
6.2573e-103
-1.72289e-126
-7.45798e-71
8.15459e-117
-5.55943e-125
4.68266e-151
7.91288e-232
-1.01294e-94
7.9146e-87
2.51512e-117
0.000940731
1.6756e-12
-2.19935e-191
7.5796e-167
3.85627e-97
-2.041e-92
-4.14084e-315
9.02203e-53
-9.56165e-62
2.35292e-57
9.62739e-292
1.88366e-25
-1.1302e-63
6.45954e-33
-1.58755e-54
-1.06812e-276
-6.87237e-146
1.28641e-127
7.96238e-67
1.52174e-18
0.00453014
-7.7164e-224
-1.13105e-110
7.9805e-132
3.19777e-26
5.72293e-17
1.21826e-29
-6.71504e-88
-3.10776e-70
4.27456e-289
-1.14429e-85
-1.26377e-87
-1.54943e-221
-9.53347e-39
4.64798e-101
-2.16036e-79
-5.27768e-67
-1.27579e-109
-5.42697e-96
1.43327e-69
3.89681e-278
0
-2.93552e-84
1.22284e-111
9.16064e-17
-9.51718e-122
-5.18226e-40
6.51483e-27
-1.5962e-69
-6.87554e-221
-2.6698e-99
-3.33036e-65
6.30113e-230
9.90888e-13
6.50895e-16
4.44117e-186
-1.66052e-288
-3.14398e-188
1.77219e-231
0
1.69841e-102
1.28277e-134
-4.07481e-47
1.18406e-103
-1.02864e-67
-9.2673e-77
2.31184e-26
-1.82645e-68
-7.08699e-58
2.37824e-108
5.05965e-114
-4.42254e-64
2.15029e-277
2.93039e-125
3.75649e-145
9.44285e-57
-1.47455e-45
2.35311e-17
0
-4.31028e-47
3.0734e-82
-1.61103e-104
2.2564e-42
-9.85517e-62
9.71122e-46
2.99929e-17
-9.99679e-90
1.64857e-37
2.00609e-116
2.17474e-158
2.05381e-80
4.56746e-60
1.25818e-232
8.39201e-108
1.93394e-14
3.26727e-129
6.29593e-19
-7.44818e-220
-2.86569e-61
7.85801e-152
1.04694e-152
1.8616e-52
-1.44007e-36
2.95766e-50
3.7941e-130
5.85118e-112
-1.30273e-106
2.16026e-36
-1.10197e-54
-2.58743e-77
1.14697e-38
0
-9.22221e-94
0.0164699
6.46666e-29
1.21616e-139
4.89755e-10
-6.75232e-58
-2.50288e-127
7.39213e-258
3.12825e-21
3.24635e-60
2.35905e-108
-1.4756e-70
-6.37784e-213
-5.1391e-73
-5.77426e-142
3.3421e-46
-9.77521e-65
-1.05254e-69
8.0518e-45
0
1.68176e-175
1.06237e-135
3.0628e-163
-8.25669e-168
-2.24256e-95
-4.67439e-127
3.03996e-133
-2.55111e-36
6.73067e-49
1.87769e-316
3.10796e-52
-3.52362e-174
-5.07843e-277
7.27148e-49
-4.97756e-212
3.16391e-114
4.59757e-113
4.54549e-235
-3.12518e-229
6.60103e-139
-7.86029e-80
-1.48666e-101
3.22653e-56
-1.11924e-81
-1.32828e-47
1.06002e-56
1.35333e-109
-7.69042e-90
-2.55279e-68
0
7.22476e-113
1.45985e-145
1.10735e-115
2.56418e-13
-3.04587e-83
-3.61988e-111
1.02853e-83
1.13219e-105
1.42312e-137
3.16787e-134
-8.72735e-104
8.48272e-152
-7.16187e-56
-6.91382e-84
3.01768e-278
-1.06555e-81
-1.21258e-78
-4.09907e-78
2.02313e-257
8.75197e-50
8.58401e-20
-1.91587e-165
-3.67749e-70
-9.62506e-64
5.70361e-181
-1.73926e-49
1.35423e-44
3.35382e-64
-4.89323e-59
9.71473e-51
-1.24311e-82
5.36933e-88
-6.53532e-72
2.79376e-69
-1.85143e-209
2.19837e-150
0
-2.70824e-167
-6.507e-258
1.26557e-110
-5.76549e-97
-1.75242e-62
2.76656e-72
0.000375202
1.64075e-36
0.012232
-2.81813e-83
2.94913e-22
3.54765e-05
3.74729e-34
0.0107851
-7.62489e-145
-1.41748e-97
-1.85437e-117
2.3925e-117
1.25048e-80
-2.17596e-183
2.35294e-101
-7.79532e-152
7.34866e-260
9.74755e-90
1.91237e-07
9.87504e-115
-1.11658e-76
3.18402e-116
9.72411e-142
-2.94681e-87
8.13202e-99
4.43224e-153
-1.01916e-100
-6.82846e-153
2.83194e-43
3.41515e-68
2.79944e-71
-2.99217e-74
1.75125e-13
8.08495e-40
-1.21015e-74
6.73046e-116
1.96327
-1.98191e-117
4.70281e-94
5.60492e-61
1.02093e-51
6.17716e-97
5.03802e-54
-6.37402e-228
-1.95005e-63
-7.02231e-50
-1.90167e-75
1.68065e-76
-4.451e-125
6.49199e-103
-1.15356e-60
9.35102e-149
7.10397e-66
-9.10189e-104
-1.55164e-129
-1.53613e-222
3.7315e-119
-5.21879e-88
3.04146e-135
-3.12746e-116
1.55546e-131
-9.91995e-177
-7.70541e-58
-2.23783e-144
-1.73817e-35
3.88112e-79
2.27771e-106
3.40709e-236
1.8651e-165
8.01158e-60
1.72715e-105
5.06201e-284
7.19998e-79
1.56547e-05
-2.27856e-78
-6.46114e-130
-1.64522e-118
1.41768e-14
1.28434e-09
0.0898582
-2.63298e-175
4.68909e-178
-5.08839e-149
-1.09874e-127
2.10668e-68
3.43902e-23
5.80973e-19
4.59065e-36
-6.71386e-76
1.89999e-152
5.43974e-253
7.87033e-249
-1.23371e-48
-9.31851e-127
-8.65549e-57
-3.28354e-170
6.78521e-33
9.7165e-153
-3.65167e-100
8.81035e-23
-3.39147e-71
-8.13662e-62
-2.81323e-157
1.27651e-109
-5.29284e-274
-7.00584e-57
-2.57888e-77
5.43516e-147
-2.38579e-260
-5.91264e-113
-8.06223e-38
3.82343e-186
-1.98427e-78
3.4679e-15
8.39921e-290
4.40714e-136
-1.92089e-65
-4.72995e-68
-1.29422e-81
-1.04235e-194
5.24215e-178
-4.77311e-173
-8.63806e-307
4.13496e-249
-3.42016e-121
-6.96234e-89
-7.73594e-275
-3.0232e-124
-7.35393e-174
68.4859
-1.24394e-48
-8.58526e-171
0
-9.77022e-74
9.03218e-114
2.30364e-48
7.16029e-81
2.19956e-111
3.15127e-265
1.58738e-178
1.10317e-60
0
5.72631e-119
-2.08694e-52
2.81274e-87
4.59492e-242
-3.79779e-109
-1.73899e-312
1.63846e-117
1.73493e-122
1.27766e-183
3.42276e-37
-3.35124e-94
1.39643e-134
-7.27482e-132
-1.18846e-59
-1.72698e-87
-1.00229e-283
0
3.96832e-157
6.97026e-64
-4.83169e-111
7.14461e-154
-1.62514e-121
-1.31973e-51
1.43257e-86
2.22349e-293
9.17704e-166