/*--------------------------------*- C++ -*----------------------------------*\
  =========                 |
  \\      /  F ield         | OpenFOAM: The Open Source CFD Toolbox
   \\    /   O peration     | Website:  https://openfoam.org
    \\  /    A nd           | Version:  7
     \\/     M anipulation  |
\*---------------------------------------------------------------------------*/
FoamFile
{
    version     2.0;
    format      ascii;
    class       volScalarField;
    location    "0.479";
    object      p;
}
// * * * * * * * * * * * * * * * * * * * * * * * * * * * * * * * * * * * * * //

dimensions      [0 2 -2 0 0 0 0];

internalField   nonuniform List<scalar> 
12359
(
0.0640966
0.0734659
0.0481651
0.106375
0.0675676
0.153312
0.184394
0.165326
0.225007
0.141917
0.206166
0.275933
0.484996
0.113554
0.101005
0.390917
0.446437
0.0524386
0.0521019
0.0858184
0.121547
0.249014
0.0794699
0.0914127
0.0760615
0.0825752
0.0492471
0.0491383
0.0513934
0.0497354
0.0501063
0.0486456
0.0483209
0.0494909
0.048197
0.0503047
0.0575502
0.0624368
0.0661275
0.0599295
0.0713573
0.0610384
0.0551708
0.054348
0.0507869
0.0510341
0.0505717
0.0499262
0.0517138
0.0493689
0.0490298
0.0488829
0.0485562
0.0528089
0.0484763
0.0483567
0.0538703
0.0483044
0.0483001
0.0482459
0.0483965
0.0481905
0.0488923
0.506931
0.0533326
0.130644
0.0568221
0.0487965
0.0582116
0.344911
0.526603
0.069206
0.0481565
0.0589379
0.0961596
0.0481947
0.0485364
0.0481778
0.0559656
0.314157
0.122854
0.0436148
0.0472613
0.0492443
-0.0602828
0.0235087
0.0434385
0.0458974
-0.0658321
-0.0541405
0.0479541
0.464925
0.0479273
0.0478831
0.048012
0.0063464
0.0474069
0.0479998
0.0570969
0.053246
0.105118
0.0480586
0.0241085
-0.127864
0.0422656
0.0130205
0.0469828
-0.0589451
0.0277227
0.0130571
0.047319
0.0437092
0.107678
0.0902443
0.048271
0.0446848
0.0921319
0.0425622
-0.0691362
0.0473004
0.047434
0.173638
0.0458187
0.00519604
0.0424069
0.0439609
0.0363255
0.0491586
0.0481692
0.0422551
0.0449251
-0.00270945
-0.00369057
-0.00235693
0.0470423
0.00669605
0.0445836
0.00653669
0.048091
0.0369646
0.0474412
0.0655609
0.0143855
0.0470237
0.00821919
0.14588
0.0472669
-0.0479137
0.0421954
0.125214
0.00145474
0.0480729
0.0144916
0.0456909
0.0478591
-0.184962
0.106389
-0.00205874
0.0474596
0.0487298
0.0448132
0.0487899
0.00355397
0.0114558
0.0472368
0.0440469
0.0457138
0.171887
0.0131753
-0.0691225
0.0481726
0.0481865
0.0120927
0.076251
0.0423284
0.0404527
0.0514102
0.0511942
0.108477
0.0411111
0.11458
0.0478395
0.048172
0.0432871
0.0555065
0.205262
0.042944
0.0472704
0.00312611
0.042648
0.0476401
0.00585964
0.00950963
0.0456007
0.0119728
-0.135255
0.0319999
0.0437725
0.0150343
0.0427136
0.148489
0.00244751
0.0548145
0.0129284
0.0114321
0.047816
0.0106458
0.05538
0.00193216
0.0415882
0.0475691
0.00044391
0.00020106
-0.56042
0.194332
0.0480888
0.0433681
0.048328
0.0432038
0.0662239
0.0993488
0.0416478
0.00531253
0.469864
0.0419539
0.0475428
0.0667212
0.0273894
0.045036
0.0446048
0.0443492
0.0472443
0.00905207
0.0551426
0.0468362
0.0539878
0.0472921
0.0142152
0.0469003
0.300336
0.0471854
0.021512
0.0471348
0.0531553
0.0432974
-0.047781
0.0482628
0.00146201
0.0429798
0.0097476
0.00186671
0.0618097
0.0508101
0.0448573
0.314024
-0.597374
0.0473053
0.0415934
0.394064
-0.0311509
0.0541336
0.0446799
0.0443645
0.011809
0.0746214
-0.488971
-0.0625105
0.0426871
0.041781
0.00673111
0.0121301
0.059321
0.0132452
0.0449847
0.0415977
0.0472073
0.041625
-0.122811
0.0419767
0.0469205
0.0480487
0.0114961
0.0391772
0.0568459
0.0221814
0.0473612
0.0464673
0.0480638
0.0480492
0.0486769
0.00356621
0.0431713
-0.477625
0.0470193
0.0469775
0.0242981
0.0430889
0.0997475
0.0482927
0.0490706
0.0479677
-0.109709
0.0437997
0.0479723
0.043642
0.0479199
0.0426734
0.0444832
0.0446789
0.0428736
0.0523989
0.200743
0.0425502
0.0501949
0.0624675
0.0217838
-0.0503598
0.0422182
0.057697
0.369167
0.0480387
0.0186338
0.0468511
0.0322927
0.0470097
0.041737
0.220531
0.0178883
0.203944
0.0563972
0.0468107
0.00958121
0.00323577
0.0468039
0.00977591
0.00955526
0.0466239
0.0484575
0.0484499
0.0485101
0.0484899
0.295311
0.0473411
0.103687
0.000780131
0.0545135
0.0129049
0.0177909
0.0248298
0.0329406
0.0171934
0.0336104
0.0564595
0.0196637
0.0208313
0.0914281
0.0664622
0.0138528
0.0644572
0.0644743
0.0156604
0.101836
0.0441043
0.0485226
0.0306831
0.0484927
0.0438068
-0.201045
0.49393
0.0440107
0.048116
0.0470739
0.0477338
0.0169313
0.0478644
0.0478472
-0.0743335
0.0120502
-0.0506023
0.0460045
0.00961923
0.0393852
0.0473846
0.0152795
0.0304557
0.109816
0.030736
0.0443421
0.0468635
0.01145
0.00940464
0.0414114
0.292197
0.0149324
0.0046274
0.0489122
0.0457916
0.0481019
0.38572
0.0119069
0.0460462
0.0609859
0.0636877
0.0474538
0.0474233
0.0476695
-0.0594117
0.0959474
0.0585638
0.0175689
0.000213924
0.0482624
0.114479
0.0486921
6.66025e-05
-0.0550407
0.293618
0.0536828
0.0910934
0.027621
0.0215288
0.0350017
0.0303346
0.0497936
0.0348581
0.0147039
0.0478672
-0.0334638
0.0573579
-0.00464474
0.00799646
0.0542204
0.0950308
-0.149383
0.0167558
0.0387864
0.00361036
0.00788936
0.0186207
0.0426854
0.0476062
0.0509705
0.0470297
-0.00299394
0.0447306
0.082769
0.0843837
0.0360582
-0.0567434
0.103025
0.0530278
0.0465133
0.386813
0.0466757
0.0459795
0.00523701
0.0481166
0.0463502
0.0459474
0.240083
0.206944
0.0487272
0.0462991
0.107544
0.0471588
0.0178814
0.0144948
0.0126719
0.0466182
0.0477131
0.0465072
0.0479843
0.0835562
0.018438
0.0206511
0.0510226
0.0506822
0.00290645
0.0498785
0.0459799
0.0412242
0.120022
0.00436966
0.0480724
0.0466802
0.0110954
0.0298002
0.0478586
0.0443409
0.110465
0.0168783
0.00690596
0.0201911
0.0465021
0.0461242
-0.0057728
-0.00383898
0.047977
0.036043
0.0465475
0.00401964
0.281246
0.0476521
0.0449426
0.0466458
0.0140339
0.0529315
0.0519139
0.0443142
0.0481195
0.0292116
0.0748033
0.0374051
-0.0360887
0.046931
-0.0414982
0.0459263
-0.12741
0.016662
-0.00298474
0.048278
0.0507937
0.0211271
0.0433227
0.0489653
0.055493
0.0534338
0.0536193
0.0683881
0.0135969
0.0130376
0.0472784
0.0429685
0.0181057
-0.00326202
0.04728
0.0469164
0.0113142
0.0466311
0.224232
-0.157443
-0.0738738
0.0472807
0.0405233
0.00128834
0.0524692
0.0427169
0.450835
0.0469724
0.113577
0.0873853
0.0403108
0.0428612
0.0491441
0.0364679
0.000286691
0.0294896
0.0506669
0.0473085
0.04817
0.0527083
0.0514363
0.0540985
0.0135439
0.0487191
0.0469509
0.0199158
-0.0532957
0.0501005
0.000111619
0.0471048
0.0511962
0.0926055
0.000847852
0.00196023
0.0955719
0.0451095
0.00114216
0.0474885
0.0482341
0.0012899
0.0362374
0.0445361
0.0361089
0.0477784
0.0469052
0.0434777
0.0483525
0.00161538
0.102222
0.0577744
0.116802
0.014815
0.0386697
0.112291
0.0614335
-0.00366743
0.0127377
0.0626299
0.0534751
0.0482407
0.0356339
0.020121
0.0472701
0.0481295
0.0466258
0.0482794
-0.016092
0.0365044
0.0329477
0.103939
0.0557366
0.236418
0.00375574
0.00171336
0.0431897
-0.00146129
0.0477657
0.0492226
0.0469069
0.101334
0.112067
0.0454327
0.0295965
0.232539
0.0147878
0.00514633
0.0375698
0.0623296
-0.132149
0.0462628
0.0492793
0.0477995
-0.0103169
0.0491561
0.0304118
-0.0563356
0.0469634
0.076263
0.0560108
0.0404564
0.0502581
0.0456447
0.0485652
0.052419
0.0486185
0.048496
0.0518514
0.00539408
0.00943982
0.0404701
0.337181
0.000668535
0.405242
0.0163009
0.0227001
0.0522975
0.0173803
0.0553091
0.00744662
0.310271
0.0973018
0.0547952
0.0427702
0.0527278
0.0513714
0.0208215
0.047607
-0.00452646
0.0486425
0.0982912
0.0469849
-0.0138824
0.00751929
0.0106869
0.0550715
0.0380551
0.00823754
0.0759611
0.00482478
0.0394784
0.00280497
0.0420887
0.0473207
0.0488616
-0.228481
0.0695344
0.0406792
0.0472234
0.0488104
0.0531064
0.0818914
0.00939894
0.015382
0.0466445
0.0423045
0.0541093
0.0405739
0.0379992
0.00189894
0.0541791
0.0559125
0.00860608
0.0420926
0.0391492
0.102939
0.0472772
0.0543252
-0.276619
0.0482762
0.00695024
0.0495753
0.0394842
0.0879487
0.00916017
0.0497674
0.0186046
0.0478532
0.109327
0.0420362
0.00999487
0.0104609
0.11097
0.0477188
0.000798966
-0.00527705
0.0552138
0.0413593
0.0426498
0.0345841
0.241217
0.0521107
0.0481074
0.0537459
0.0478867
-0.13091
0.040904
0.0090183
0.0306251
0.0147126
0.520781
0.0409803
-0.0572064
0.00983393
-0.0659246
0.0174471
0.050588
0.0409281
0.030089
-0.0481769
-0.0365797
0.0461859
0.0462112
0.117882
0.0454954
0.207505
0.0195527
0.0678421
0.0429898
0.405055
-0.107021
0.0414437
0.0473261
0.0475308
0.0921998
0.0531604
0.0580249
0.0506017
0.0142343
0.0757258
-0.0137065
0.353421
0.0466397
0.0810003
0.0137625
0.117776
0.0427117
0.113142
0.00728823
0.0932732
0.0506295
0.0472231
0.00905706
0.00648316
0.0161007
0.116575
0.0115895
0.0228844
0.0501643
0.0469603
0.0373253
0.246859
0.0374713
0.0114284
0.0655359
0.0189253
0.0355187
0.0511739
-0.004289
0.031443
0.0421593
-0.0073074
0.0570041
0.0255273
0.192979
0.0473092
0.0311874
0.0488333
0.0551914
0.044243
0.0497024
0.0472746
0.000417144
0.0413617
0.0760512
0.0120108
0.0932286
0.0297513
0.0303474
0.00976444
-0.201542
0.0482548
0.0547688
0.0234059
-0.0725999
0.00687949
0.0476067
0.5146
0.0472341
0.0423906
-0.176142
0.0531312
0.0479341
0.0479526
0.0638899
0.0878497
0.0482696
0.054229
0.108758
0.0494366
0.0519679
0.0509071
0.0462834
0.0892372
-0.0164629
0.0526819
0.11394
0.00968347
0.00978439
0.00459668
0.0148016
0.0509197
0.0422707
-0.0413386
0.00417426
0.0714855
0.0466224
0.048307
0.115962
-0.00129965
0.032262
0.0366018
0.0319602
0.0505316
0.0415743
0.082264
-0.252843
0.371386
0.0805233
0.0487285
0.0415195
0.0779319
0.358337
0.110049
0.0476243
0.000503504
-0.0125515
-0.233916
0.0348633
-0.166292
0.0482791
0.0507951
0.0483222
0.00548894
0.0733847
-0.17006
0.0420376
-0.0881937
0.0453207
0.0491816
0.00984894
0.0524717
0.00097154
-0.0380753
0.0538988
0.0350653
0.023203
0.0352008
0.0537389
0.0749688
0.0710921
0.0297573
0.0763948
0.0539306
0.0483592
0.0512303
0.0488527
0.103654
0.0209988
-0.00755027
0.00190416
0.0842858
0.0236384
0.0222965
0.0413206
-0.0153709
0.0330334
0.053247
0.0478129
-0.000291755
0.107467
0.0422165
0.0387291
0.0549408
0.0224858
0.101086
0.114575
0.0225996
0.237122
0.0214332
0.0855131
-0.0353894
0.052147
0.0156225
0.0107267
0.0456388
0.0327948
0.0370778
0.0427482
0.0474803
0.0438211
-0.0138086
-0.00147831
0.0429061
-0.132149
0.0990095
0.048766
0.0496525
0.00187657
0.0486832
0.0762714
0.013009
0.00379266
0.0486208
0.0509474
0.0474873
0.048684
0.116608
-0.143461
0.0488028
0.0558773
0.047287
-0.151435
0.0208556
0.0139464
0.0470281
0.0486999
0.0506958
0.023647
0.0821168
0.0271102
0.0462487
0.0511078
0.0485629
0.0197607
0.0826946
0.0371108
0.0481245
0.0294413
0.0243525
0.073922
0.0436906
-0.0165473
0.144522
0.0455682
0.0317514
0.0508561
0.0421499
-0.192197
0.0537647
0.0488372
0.0105258
0.103383
0.0808274
-0.141301
0.0747533
0.0337753
0.0266178
0.0549229
0.0384374
0.0334993
0.0541532
0.14549
0.0488655
-0.339796
0.0819871
0.172699
0.0384351
-0.00482157
0.0938896
-0.00109837
0.2623
0.00645539
0.0244565
0.0325824
0.037433
0.0472588
0.0425017
0.0859756
0.00155079
0.0543615
0.0456049
0.00592506
0.0162505
0.00582007
0.0781773
0.000780266
0.00548005
0.046771
0.0692934
-0.0448397
0.0855224
0.0472177
0.033481
0.0517326
0.0472313
0.0679412
0.0482647
0.04253
0.243917
0.0900512
-0.0164777
0.0483024
0.0477782
0.0479086
0.0544936
0.0518617
-0.00134633
0.0520011
0.0476752
-0.0180792
0.020468
0.00436401
0.0675985
0.0491907
0.0399999
0.0890355
0.0330615
0.0483312
-0.0414325
0.0100362
0.110435
0.0483401
-0.260462
0.095539
0.0491583
0.00263301
0.0376898
-0.0113356
0.0345463
0.00105334
0.0924533
0.0482748
0.0499508
0.0201331
0.0363948
0.0531256
-0.00697705
0.0532788
0.0534274
0.0945723
0.0451665
0.0515658
0.034312
0.00906283
0.0483215
0.0533433
0.0514484
0.0471488
0.0944568
-0.0407675
0.0251153
0.0545411
0.0522357
0.0397646
0.0473465
-0.205969
0.0777184
0.0480621
0.0696213
0.039847
0.0975108
0.151399
0.000261147
0.0533928
0.00501513
-0.00190335
0.046995
0.039362
-0.000646811
0.0425433
0.0481129
0.0710204
0.026204
0.0522218
0.0481405
0.0402169
0.0824524
0.0487119
0.0302982
0.0482726
0.0368388
0.0655945
0.128356
0.0477035
-0.208163
0.0787032
0.0151283
-0.116654
0.0908826
0.030567
-0.0360409
0.055008
0.137779
0.203166
0.0520758
0.042807
0.0426438
0.0501306
0.0519876
0.00641747
-0.080289
-0.148895
0.00814436
0.147099
-0.00554927
0.00950694
-0.0422851
0.0475995
0.0503768
0.0466541
0.0239704
0.0475134
0.00778893
0.0351529
-0.00519898
0.0473348
0.0507169
0.0454826
-0.161695
0.11783
0.0762641
0.0598589
0.119345
0.0430386
0.0487348
-0.0175929
0.034919
-0.0137539
0.00690409
0.0210057
0.00455063
0.0141055
0.0554859
0.0469768
0.0474246
-0.12496
0.0399732
0.0382374
0.05189
0.00216337
0.0172878
0.0477429
0.018603
-0.0148547
-0.000160332
0.0925531
0.0517707
0.0478557
0.00453191
0.0546525
0.0476059
-0.00139858
0.00708519
0.0515034
0.137532
0.000762969
0.0478578
0.0478717
0.0471124
0.105612
-0.141653
0.0393477
0.00982587
0.0508209
0.0512875
0.0102147
0.0480271
0.171039
0.0138589
-0.0274555
0.151874
0.0290411
0.0471365
0.0474283
0.0318103
0.0547934
0.0470026
-0.190391
0.00528352
0.0426255
0.21518
0.0995204
0.0420929
0.0472798
0.0478893
0.0511368
-0.0729383
0.159769
0.0320393
0.0754205
0.0653325
0.00575099
-0.0805476
0.0156542
0.0528695
0.0515169
0.0157099
0.0393763
0.0466197
0.0502115
0.00373187
0.051873
0.0312588
0.0537007
0.0799948
-0.0111588
0.0452297
0.0503187
-0.00336196
0.00313846
0.0572524
0.0499655
0.074765
-0.000555124
0.0373918
0.0163805
0.0723921
0.0155469
-0.028637
0.0517193
0.15589
0.0470718
0.102662
4.47226e-05
0.0480034
0.047524
0.370438
0.0481772
0.0545181
0.025043
0.0531019
0.0532345
0.0562282
0.0480604
0.0478907
0.000194448
-0.0259114
0.0457673
0.334786
0.0358571
0.0499965
0.238472
0.0951231
0.0531692
0.0439242
0.0496916
0.086724
-0.294583
0.0529383
0.0456819
0.0471453
0.05024
0.0622611
0.0153982
0.0524701
0.0631006
0.0512123
-0.158676
-0.00736374
0.0072544
0.10882
0.0356474
0.0500882
0.00409243
-0.123474
0.051497
0.0473589
0.0500183
0.0450159
0.0530461
0.046729
-0.0028522
0.0435344
0.0420415
0.31972
-0.00114832
-0.00478612
0.00365028
0.052874
0.00121616
0.0837575
-0.0928689
0.0459658
0.00948668
0.048018
0.233759
0.0473343
0.047718
0.0278763
0.0471808
0.0244562
0.0577667
0.0531493
0.0458046
-0.0881271
0.084301
0.010081
0.0502869
0.0343426
-0.0401268
-0.00730701
0.077004
0.0730923
0.0482731
0.0538204
0.0442853
0.050118
0.0457632
0.0502394
0.0882417
0.073227
0.00674892
-0.107158
0.0237731
-0.00913561
0.0310601
-0.113159
0.0466683
-0.0301429
0.050106
-0.012849
-0.00573956
0.0240457
0.0478052
0.0280817
0.00977182
0.0306852
-0.00674666
0.23363
-0.105261
0.0500649
-0.00303058
0.0436561
-0.00473523
0.089363
0.00270251
0.043043
0.0561503
0.00900703
0.050917
0.0349473
0.048161
0.0438964
0.0473783
0.0538904
0.00588622
0.00102212
0.0476271
0.0828235
-0.0820978
0.487363
0.0469786
0.0721034
0.0248536
0.194584
0.030307
-0.187381
-0.0369309
0.0456047
0.0231212
0.0635646
0.175865
0.0472989
0.0661355
0.0767419
0.0454491
-0.0893052
-0.004098
0.050032
0.023458
-0.029352
0.0745025
-0.0854436
0.0364086
0.0769135
0.0527454
0.0469747
0.0540536
0.0430122
-0.0761817
-0.00014977
-0.0649524
0.0486434
-0.0800116
0.0285097
0.00309447
0.109626
0.0236285
0.0262393
-0.0552494
0.0362415
0.035684
0.00489655
0.0661288
0.0246998
0.00826285
0.0681392
-0.0948409
0.0831419
0.0330571
0.0863569
0.0485642
0.10911
-0.00012071
0.0984049
0.0515882
-0.0353676
0.0476536
0.0323579
0.00740869
-0.00129934
0.0556427
0.00542978
0.0415973
0.50258
0.0537374
0.00490028
0.0898627
-6.41375e-05
0.00686623
0.0480664
0.03016
0.0473789
0.46044
0.0478036
0.0475282
0.0471128
-0.0137658
0.0420592
0.0428173
-0.00693275
0.026556
0.0625486
0.0421564
0.0474343
0.10307
0.0458172
0.102153
0.00663587
0.0843475
0.0358
0.0401554
0.0246486
-0.0140998
0.00865358
0.0417965
0.532064
0.0477834
0.0474984
0.0540387
-0.123505
0.0516708
0.0292786
0.0753109
0.0518691
0.0398392
0.00278085
-0.0229585
0.0320189
-0.0458773
0.0528002
0.043516
0.0133741
0.01798
-0.000791489
0.0500339
0.0237682
0.07013
0.198384
0.0356221
0.0475586
0.0435153
0.177436
0.0481361
0.0481363
-0.0366177
0.0307952
-0.0413411
0.0398941
0.0473424
0.191525
-0.0135777
0.0422095
0.0531527
0.0456981
-0.107783
0.0481412
0.0323032
-0.0269278
0.0481399
0.0474216
0.00864756
0.0469884
0.0481494
0.0123311
0.050107
0.0474175
0.0205357
0.0470805
-0.0133419
0.0473325
0.0568624
0.116567
0.00778152
0.0481518
0.00485696
-0.181841
0.0397483
0.0726523
0.0454808
0.0333387
0.0460612
-0.0177762
-0.00549542
0.0440043
0.0474209
0.125912
0.027551
0.0143525
0.0103545
0.128365
0.0470083
0.00561698
0.0474055
-0.0191943
-0.0070399
-0.00425164
0.00765049
0.154647
-0.081872
0.00512673
0.00946886
0.045916
0.0503206
0.000870603
0.13436
0.09655
0.0319246
-0.0750833
0.046888
-0.0631347
0.202305
0.0470017
-0.00760557
-0.00950752
0.078935
0.00740172
0.00638657
0.0708147
0.0475026
-0.0129414
-0.0671427
0.258027
0.0529236
0.00267409
-0.0303641
0.141051
0.0494977
0.0473947
0.00559213
-0.0530985
0.0375294
0.0668185
0.0476743
0.0469961
0.0547066
0.052656
0.0239385
0.0534716
0.0473681
-0.0164276
0.0342738
-0.025128
0.014559
0.0476758
0.047433
0.142971
0.0524504
0.0783259
0.0588485
-0.0407254
0.079328
0.0467309
-0.0234779
0.056893
0.0474055
0.0261075
0.0370749
0.039639
0.0915089
0.0243013
-0.147217
0.039266
0.0472246
-0.0267666
0.0470693
-0.00654356
0.029699
-0.0275966
-0.0478849
0.0944325
-0.0313441
0.0477151
-0.00880091
0.051691
0.0704723
-0.0227656
0.0192269
-0.0233818
-0.0648688
0.17126
-0.0113365
0.0612464
0.0466772
0.0472862
0.0470464
-0.0309845
0.138014
0.04671
-0.0152815
-0.0186568
0.0137996
0.00213273
0.0262956
0.10759
-0.0268732
0.0526386
0.0115509
0.0240156
0.0480045
0.0480258
0.0494312
0.0527715
0.010491
0.0475948
0.0503175
0.054024
0.0720023
0.000545772
0.0472282
-0.0189114
0.0473318
0.00340329
0.0120726
0.0498145
0.0389072
0.00144255
-0.0196497
0.0350154
0.0746536
0.0525394
0.0254415
0.0307091
0.047448
0.0516703
0.0520287
0.0498829
0.0474866
0.0677713
0.0474713
0.124635
0.0122621
-0.0960067
0.0475166
0.0576808
0.0476301
0.0477057
0.119199
0.0568824
0.046878
0.327068
0.12736
0.0363728
0.062977
0.0370978
0.118351
0.0174012
0.0081804
0.0541212
0.0539282
0.0474171
0.048526
-0.0112876
0.0470397
0.0494929
0.120244
0.0499357
0.0516183
0.0263442
0.0474701
-0.0348657
0.0475498
0.0494353
0.00725856
0.00875768
-0.0634386
0.106529
0.068713
0.0496776
0.00677124
0.0496153
0.0243907
0.00404186
0.0538636
-0.0286382
0.048211
0.0247908
0.0684495
0.0505367
0.100189
0.0475097
0.053836
0.0474113
0.0278295
0.0469588
0.0509303
0.0229871
0.0437259
0.0688008
0.0257716
0.0474532
0.0256885
0.0114663
0.0537076
0.00777803
-0.0140546
0.0474152
0.0295929
0.106967
0.00262485
0.0544875
0.0425887
0.0428684
0.0237843
0.0550408
0.148331
0.0527089
0.0476836
0.0477167
-0.0175273
-0.00959358
-0.0208046
0.278854
0.0985263
0.048262
0.0244489
0.0103068
0.0480486
-0.0514738
0.0520003
0.101825
-0.00047804
0.0494866
0.140724
-0.00886868
-0.0156566
0.0216042
0.0278809
0.0479632
0.0470051
0.0592691
0.047443
0.0474019
0.133246
0.0500241
0.0620856
0.0467383
0.0367471
0.0434926
0.365811
0.0393103
0.0420145
-0.00906975
0.102013
0.0906657
0.0322612
0.107761
0.0476595
0.0446998
0.00422325
0.0701808
0.122353
0.0491167
-0.000405523
0.0400252
0.0490061
0.0502325
0.0475044
0.0618717
0.0394344
0.0479406
0.0285871
0.255077
0.048047
0.011108
0.0304323
0.0471638
0.0612182
0.0502264
0.0263094
0.0475638
0.0474397
0.0133367
0.0279863
0.0894844
0.140397
-0.226569
0.0536256
0.0625773
-0.0334267
0.0315943
0.0501635
0.0395229
-0.000989477
0.0474853
0.0512725
0.0474097
0.0283824
0.0628946
0.0171388
0.0474799
0.0592544
0.0325195
0.0523154
0.11607
0.0435654
0.0472086
0.0474782
0.0280505
0.0216043
0.308034
0.0585867
0.0806648
0.00525901
0.00433313
0.0472533
0.0976853
0.0474759
0.0474438
0.0480111
-0.00295076
0.0528751
0.0332707
0.00613043
0.0195493
0.00584274
0.0286979
0.0611853
0.111409
0.0450998
0.0104947
0.0902748
0.0313706
0.125709
0.0516195
-0.157956
0.139874
0.133149
0.0468839
-0.117289
0.00531418
0.00713263
0.135613
-0.00015654
0.0568286
0.0543845
0.0369629
0.034562
0.0318651
0.207165
0.0712766
0.0520416
0.0131182
0.0522322
0.0346013
0.0224757
0.0919686
0.0341346
0.0663605
0.0819105
0.00523977
0.0941855
0.0303885
0.0483177
0.0582621
0.0471601
0.0429549
0.0460549
0.0524661
0.0180546
-0.0415092
0.0471865
0.164425
0.0465479
0.0392323
0.00853182
0.0288889
0.0319996
0.0457886
0.00650099
0.0114768
0.248146
0.0474728
0.00804501
0.0350827
0.0106918
0.0480207
0.0476904
0.149393
0.0223278
0.0309787
-0.118292
0.0254962
0.0385565
0.134206
0.0133884
0.117336
0.0536904
0.0170329
0.0356219
0.0437619
-0.0245413
0.00613656
0.0190446
0.0318409
0.0468895
0.00566358
0.00533853
-0.000462303
0.0381126
0.0355946
0.409114
-0.0400573
0.0465375
-0.0115051
0.0188334
-0.102988
0.0473845
0.0302344
0.031218
0.0473709
0.00338331
0.0263893
0.0513546
-5.43079e-05
-0.0206128
-0.00164222
0.0539282
0.0223377
0.0480572
0.0429057
-0.0262197
0.0802656
0.0273819
0.00629636
0.146353
0.0235082
0.018847
0.0201872
0.00639327
-0.0252357
0.0458377
0.0206444
0.0147011
0.0906794
0.274368
0.0123713
0.0335933
0.0180677
0.0473814
0.0911618
0.0300476
0.00848636
0.0471804
0.0342111
0.00583587
0.0129888
0.146985
0.00984676
0.028292
0.0283199
0.0526204
0.00303212
0.02521
0.0722452
0.0577423
0.0540354
0.00955632
0.0348154
0.0404985
0.0369949
0.047552
0.00553359
0.0609016
0.0282021
-0.00231176
-0.0437481
0.0419039
0.0270536
0.0155292
0.0229927
0.0475023
0.097821
0.0969933
0.0705431
0.0479983
0.232095
0.00619208
0.0512217
0.0879839
0.0469581
0.0558016
0.0312811
0.0252222
0.0516434
-0.100001
0.0488236
0.0577421
0.0412869
-0.0112528
-0.0287372
-0.000573441
0.0610448
0.00856567
0.0480336
0.0281427
0.0731607
0.0488399
0.148859
0.016188
0.0266304
0.0076229
0.0650529
0.0207358
0.0367777
0.0471365
0.0472777
0.0453947
0.0616346
0.119633
0.0148178
0.1441
0.0806901
0.087995
0.0494913
0.0679909
0.00652901
0.0474479
-0.0193
-0.0157212
0.0506063
0.0474416
0.0385819
0.0455755
0.0472615
0.0632135
0.0328959
0.130101
0.0152657
0.0341678
0.0875106
-0.00901135
0.00496837
0.0844826
0.0121906
0.0226746
0.0688387
0.0470297
0.0610377
0.026662
0.120621
0.12546
0.217274
0.0473025
0.125197
0.0313912
0.0306662
0.102603
0.105729
0.0976433
-0.0219835
0.0199324
0.0650816
0.0199532
0.0381829
0.0444753
0.0892014
0.0468044
0.0157286
-0.0254396
0.0577795
-0.0242953
0.0464021
0.0821758
0.053116
0.0295136
0.100377
0.160219
0.020169
0.0416896
0.0159805
0.0324989
0.0697797
0.000118568
0.0809392
-0.00149229
0.0473147
0.0202098
-0.149271
0.0951822
0.034403
-0.0368656
0.00969251
0.0403144
0.0463615
0.100586
0.0920508
0.0326619
0.0556781
0.0491582
0.00547089
0.0423067
0.0042141
0.0799748
0.0345853
0.140053
0.0473149
0.043835
0.000689565
0.0362553
0.0368394
0.0644127
0.0548764
0.0285357
0.166344
0.106085
0.0471315
0.0051421
0.0426363
0.0470699
0.131477
0.0468244
0.0207471
0.0236301
0.0467693
0.0469237
0.0506598
0.00660283
0.0595533
0.0957904
0.0271964
0.128813
0.0312205
0.032261
0.0360273
0.0768787
0.0475253
0.0380295
0.0358532
0.0255749
-0.0171395
0.00846353
0.0649872
0.043306
0.0539415
0.0303255
0.0411931
0.0593374
0.021087
0.104619
0.0310787
0.047098
0.00774512
0.0856791
0.00634694
0.0472714
0.133519
-0.0223605
0.0439928
0.0963145
0.00561044
0.0516277
0.0940609
0.00321588
0.087688
0.112372
0.00400578
0.0465251
0.0774823
0.0745269
0.0131699
0.044326
0.0300222
0.0472778
0.0468648
0.0470222
0.0127182
0.0164742
0.0202654
0.0807617
-0.0492902
0.167157
-0.0431358
0.0267179
0.0406358
-0.0289468
0.0484573
-0.092593
0.0319903
0.0220206
0.0173884
0.0274559
0.0634019
0.0396938
0.0314451
0.0524924
0.0472459
0.076286
-0.0285732
0.0130241
0.00614537
0.0163458
0.0507035
0.0266312
0.0156332
0.0530944
0.0229263
0.0372168
0.116543
0.0839487
0.079254
0.0918482
-0.00154619
-9.82432e-05
0.00551474
0.0218372
-0.000823985
0.013738
0.0566952
0.0414741
0.130197
0.0724217
0.00671608
0.0475834
0.0938211
0.12598
0.0720745
0.0777694
0.0553681
0.0159601
0.112934
0.027653
0.0232157
0.0328054
0.0321679
0.0463574
0.0271856
0.0285548
0.0521605
0.0191578
0.0288699
0.0426277
0.102218
0.0422177
0.0391561
0.0740343
0.0539983
0.0467029
0.0494283
0.00228534
0.0151482
0.0481732
0.0702475
-0.0394155
0.00611102
0.0543115
0.0182896
-0.0153133
-0.0335617
-0.00244095
0.0315674
0.0331915
0.0535829
0.0323882
0.0248515
-0.000374156
-0.00102496
0.00264716
0.000774894
0.0335584
0.0462993
0.0460293
0.127457
0.0606726
0.0332661
0.0369574
-9.51619e-05
0.0431786
0.0262229
0.140462
0.0855805
0.0108531
0.0526269
0.0155762
0.0469243
0.00809098
0.00101653
0.0264651
0.0470065
0.0574703
0.164951
0.0402589
0.0873046
-0.0129213
0.0473725
0.0338422
0.0922072
0.0992253
0.06852
0.0481509
0.0438092
0.0447885
0.0479442
0.0470551
0.0398099
0.00632075
0.0469982
0.0549585
0.0522391
-0.378412
0.11631
0.0449124
0.0472972
0.0100359
0.015733
0.0224274
0.0752882
0.0167009
0.0464832
0.0407004
0.00470568
0.047865
0.0130167
0.0911883
0.0698606
0.0457039
0.0116656
0.0476188
0.0381239
0.0362216
0.0401701
-0.00236991
0.0581481
0.0339579
0.0323688
0.108926
0.0798925
0.0469121
0.0474269
0.0349654
0.0308661
0.013259
0.019348
0.0386977
0.00750958
0.0785028
0.0479731
0.036477
0.00586323
0.0378957
0.083274
0.0620738
0.0500982
0.148194
0.021372
0.123375
0.139572
0.0266118
-0.00206959
8.45916e-05
0.121884
0.0383083
0.00603568
0.0728242
0.0352034
0.0206014
0.0882625
0.0705734
0.0493755
0.00261024
0.0303898
0.0268137
0.0393732
0.00556839
0.0490755
0.0787817
0.0488993
0.0558141
0.0842132
0.0533819
0.0411534
0.103444
0.00721387
0.0898214
0.0274536
0.0706141
0.00816126
0.0600345
0.0114262
0.0485986
0.0294473
0.00923533
0.0658812
0.0262745
0.0485552
0.0407743
0.0142306
0.0444148
0.0339392
0.0547555
0.0354286
0.0213618
-0.000446958
0.0939024
0.102601
0.0986657
0.0398972
0.0391967
0.0341927
0.017974
0.0275785
0.0477085
0.0528469
0.068434
0.0233885
0.0569153
0.00455144
0.029928
0.0557403
0.0320954
0.0310706
0.0425993
0.0289121
0.0364053
0.132927
0.253629
0.0215936
0.0234819
0.0274266
0.0315291
0.0367001
0.0346647
0.0320607
0.0224319
0.0123829
0.0460426
0.0472817
0.0462864
0.00615601
0.0472651
0.0286283
0.0412803
0.0300771
0.0580736
0.0325982
0.121711
-0.00629471
0.0469139
0.0341246
0.0891473
0.0404426
0.0590368
0.0862719
0.0520206
0.0471411
0.0284654
0.00345478
0.0847585
0.00371043
0.114027
0.0820655
0.00379019
0.0617414
0.0666711
0.0100685
0.0416716
0.0467334
0.0486076
0.0353631
0.0468059
0.0311723
-0.0270091
0.0459857
0.0783109
0.0420745
0.0608473
0.0615672
0.159627
0.0533094
0.0407292
0.00488728
0.012855
0.0851876
0.0303815
0.081854
0.0484805
0.0366598
0.0635438
0.0444818
0.0317441
0.0479855
0.0485117
0.0302228
0.0467633
0.0336419
0.0600899
0.0794675
0.0134755
0.0465267
0.0066473
0.0015958
0.0661639
0.0576607
0.0494132
0.0666674
0.130675
0.0472659
0.0392623
0.0454291
0.0589716
0.0374391
0.034162
0.0378731
0.0722211
0.0817679
0.0313368
0.0777515
0.0887426
0.0585944
0.106323
0.0561805
0.0765469
0.0265077
0.0412337
0.0203669
0.0480681
0.062914
0.0488465
0.0818339
0.00209862
0.0533664
-0.0103968
0.0428204
0.0259065
0.115986
0.00717069
0.0454811
0.0469441
0.00438186
0.105936
0.0262063
0.0285412
0.0149546
0.0433309
0.0785006
0.0364981
0.0456561
0.035028
0.00802885
0.0412397
0.0391431
0.39023
0.0377915
0.0488958
0.0574468
0.0630178
0.0415955
0.030589
0.047291
0.100316
0.0416761
0.0472742
0.0124926
0.0356882
0.0278306
0.0399911
0.0616475
0.0408569
0.043326
0.0425677
0.0328125
0.0785508
0.0473133
0.0376512
0.0560863
0.0441057
0.0383346
0.0534126
0.053518
0.0579929
0.0584208
0.0473805
0.0418179
0.0492944
0.0280317
-0.00152537
-0.000746724
0.141963
0.072987
-0.00939967
0.0295469
0.0467892
0.0500256
0.0566581
0.0722745
0.0476825
0.0266458
0.074158
0.0553115
0.0250447
-0.0083549
0.0205789
0.0466747
0.036181
0.0471491
0.0925735
0.234045
0.0380121
0.0555928
0.0416506
0.00597067
0.0469449
0.0708058
0.0267141
0.0440008
0.0478408
0.0322661
0.0948788
0.0375658
0.0549831
0.0247899
0.0408908
0.0422684
0.0860481
0.0590351
0.0389447
0.049432
0.0375606
0.0530038
0.036944
0.0476146
0.038222
0.0470014
0.0529879
0.0107294
0.0667923
0.0151104
0.0719237
0.0720559
0.0513666
0.0374932
0.0343139
0.0757399
0.0901011
0.0103744
0.0404111
0.0537145
0.0565373
0.0386949
0.0458239
0.0423962
0.0360612
0.0272734
0.0272179
0.0428408
0.0142014
0.0380057
0.0776553
0.0394424
0.0416824
0.0383595
0.0231353
0.0823052
0.0521733
-0.000638603
0.0378607
0.0398444
0.00934676
0.0502017
0.000813974
0.0496095
0.0403429
0.045189
0.0453382
0.0482272
0.0410817
0.00380015
0.0472887
0.0198168
0.0701681
0.0497446
0.0563054
0.0321384
0.0942932
0.0589868
0.0477071
0.0337894
-0.057722
0.0474268
0.00518413
-0.0725604
0.0640554
0.0837263
0.0510982
0.0399451
0.0287635
0.06979
0.0571149
0.0474496
0.0908776
0.0106008
0.0799627
0.0473218
0.0467086
0.0420258
0.0430031
0.0434976
0.064337
0.0742205
0.0446322
-0.00119653
0.044352
0.0514674
0.0403006
0.0314825
0.000202197
0.0467682
0.0405667
0.0228942
0.0412543
0.0449232
0.0497395
0.125349
0.0713783
0.0477804
0.0608532
0.0515654
0.0406271
0.0737618
0.058008
0.0425488
0.061214
0.03561
0.060928
0.0831988
0.00139249
0.022545
0.0478761
0.0682947
0.0455778
0.0498435
0.0487238
0.0408193
0.00139529
0.000512171
0.0569905
0.0312795
0.0344181
0.027197
0.0464469
0.0460171
0.0477864
0.0695422
0.0338074
0.0473598
0.0404288
0.0526292
0.0217201
0.00837321
0.0473881
0.0468805
0.0351668
0.0466935
0.0458515
0.0412164
0.0436454
0.0384021
0.0644151
0.0600074
0.0331543
0.0451719
0.051048
0.0564137
0.0406078
0.0473031
0.0414764
0.0297702
0.00103056
0.00519837
0.0344292
0.121321
0.0410743
-0.0575675
0.0865832
0.0405037
0.0392664
0.0517791
0.0468375
0.0473913
0.0510091
0.0548439
0.0401766
0.0489965
0.0465273
0.0946182
0.00534816
0.0324876
0.047532
0.0530655
0.0611531
0.0685016
0.031473
0.049665
0.0472333
0.0457828
0.0414619
0.0278631
0.0256551
0.0053568
0.0599734
0.045685
0.0374339
0.0542315
0.0517111
0.0511606
0.0445931
0.0562204
0.0473815
0.0149908
-0.00184587
0.0465405
0.064517
0.0400589
0.0431243
0.0447229
0.0486699
-0.0352387
0.0615339
-5.30585e-06
0.0419724
0.00722978
0.0503616
0.0675251
0.125351
0.0533859
0.0475718
0.0294539
0.0211325
0.109391
0.0404005
0.0649891
0.0434141
0.0469144
0.0633508
0.0449336
0.119917
1.46673e-05
0.07703
0.0506575
0.0461263
0.0473517
0.0457404
-0.0265765
0.0373128
0.0468141
0.0543205
0.0456117
0.0468967
0.0466935
0.0102331
0.00368448
0.0525169