/*--------------------------------*- C++ -*----------------------------------*\
  =========                 |
  \\      /  F ield         | OpenFOAM: The Open Source CFD Toolbox
   \\    /   O peration     | Website:  https://openfoam.org
    \\  /    A nd           | Version:  7
     \\/     M anipulation  |
\*---------------------------------------------------------------------------*/
FoamFile
{
    version     2.0;
    format      ascii;
    class       surfaceScalarField;
    location    "1.7";
    object      phi;
}
// * * * * * * * * * * * * * * * * * * * * * * * * * * * * * * * * * * * * * //

dimensions      [0 3 -1 0 0 0 0];

internalField   nonuniform List<scalar> 
39700
(
7.62856e-11
-7.62593e-11
2.90676e-10
-2.14391e-10
5.48675e-10
-2.57999e-10
7.78408e-10
-2.29733e-10
9.36205e-10
-1.57797e-10
9.96193e-10
-5.99876e-11
9.43807e-10
5.23858e-11
7.7185e-10
1.71957e-10
4.77914e-10
2.93936e-10
6.2728e-11
4.15186e-10
-4.70889e-10
5.33617e-10
-1.11873e-09
6.47836e-10
-1.87563e-09
7.56909e-10
-2.73586e-09
8.60226e-10
-3.69327e-09
9.57407e-10
-4.7415e-09
1.04824e-09
-5.87412e-09
1.13262e-09
-7.08468e-09
1.21056e-09
-8.36679e-09
1.28211e-09
-9.71417e-09
1.34739e-09
-1.11207e-08
1.40655e-09
-1.25805e-08
1.45977e-09
-1.40878e-08
1.50726e-09
-1.5637e-08
1.54924e-09
-1.72229e-08
1.58593e-09
-1.88405e-08
1.61757e-09
-2.04849e-08
1.6444e-09
-2.21515e-08
1.66666e-09
-2.38361e-08
1.6846e-09
-2.55346e-08
1.69847e-09
-2.72431e-08
1.70849e-09
-2.8958e-08
1.7149e-09
-3.06759e-08
1.71793e-09
-3.23937e-08
1.71781e-09
-3.41085e-08
1.71475e-09
-3.58174e-08
1.70896e-09
-3.75181e-08
1.70066e-09
-3.92081e-08
1.69002e-09
-4.08854e-08
1.67725e-09
-4.25479e-08
1.66253e-09
-4.41939e-08
1.64602e-09
-4.58218e-08
1.6279e-09
-4.74301e-08
1.60832e-09
-4.90176e-08
1.58742e-09
-5.05829e-08
1.56537e-09
-5.21252e-08
1.54228e-09
-5.36435e-08
1.51828e-09
-5.5137e-08
1.4935e-09
-5.6605e-08
1.46804e-09
-5.8047e-08
1.44202e-09
-5.94626e-08
1.41553e-09
-6.08512e-08
1.38867e-09
-6.22127e-08
1.36151e-09
-6.35469e-08
1.33414e-09
-6.48535e-08
1.30664e-09
-6.61326e-08
1.27906e-09
-6.73841e-08
1.25148e-09
-6.8608e-08
1.22396e-09
-6.98046e-08
1.19653e-09
-7.09738e-08
1.16926e-09
-7.2116e-08
1.14218e-09
-7.32313e-08
1.11533e-09
-7.43201e-08
1.08875e-09
-7.53825e-08
1.06246e-09
-7.6419e-08
1.03649e-09
-7.74299e-08
1.01087e-09
-7.84155e-08
9.85615e-10
-7.93762e-08
9.60736e-10
-8.03125e-08
9.36248e-10
-8.12246e-08
9.12159e-10
-8.21131e-08
8.88478e-10
-8.29783e-08
8.65206e-10
-8.38207e-08
8.42345e-10
-8.46406e-08
8.19893e-10
-8.54384e-08
7.97846e-10
-8.62146e-08
7.76199e-10
-8.69696e-08
7.54942e-10
-8.77036e-08
7.34065e-10
-8.84172e-08
7.13555e-10
-8.91106e-08
6.93398e-10
-8.97841e-08
6.73577e-10
-9.04382e-08
6.54074e-10
-9.10731e-08
6.34869e-10
-9.1689e-08
6.15942e-10
-9.22863e-08
5.97268e-10
-9.28651e-08
5.78824e-10
-9.34257e-08
5.60583e-10
-9.39682e-08
5.42519e-10
-9.44928e-08
5.24602e-10
-9.49996e-08
5.06803e-10
-9.54887e-08
4.89091e-10
-9.59601e-08
4.71433e-10
-9.64139e-08
4.53797e-10
-9.68501e-08
4.36147e-10
-9.72685e-08
4.18448e-10
-9.76692e-08
4.00664e-10
-9.8052e-08
3.82759e-10
-9.84167e-08
3.64692e-10
-9.87631e-08
3.46427e-10
-9.9091e-08
3.27922e-10
-9.94001e-08
3.09138e-10
-9.96902e-08
2.90033e-10
-9.99607e-08
2.70568e-10
-1.00211e-07
2.50698e-10
-1.00442e-07
2.30384e-10
-1.00651e-07
2.09581e-10
-1.0084e-07
1.88247e-10
-1.01006e-07
1.6634e-10
-1.0115e-07
1.43817e-10
-1.0127e-07
1.20635e-10
-1.01367e-07
9.67533e-11
-1.01439e-07
7.2129e-11
-1.01486e-07
4.67212e-11
-1.01507e-07
2.04894e-11
-1.015e-07
-6.60574e-12
-1.01465e-07
-3.46022e-11
-1.01402e-07
-6.35371e-11
-1.01308e-07
-9.34459e-11
-1.01184e-07
-1.24362e-10
-1.01028e-07
-1.56319e-10
-1.00838e-07
-1.89345e-10
-1.00615e-07
-2.23467e-10
-1.00356e-07
-2.58711e-10
-1.00061e-07
-2.95096e-10
-9.97284e-08
-3.32642e-10
-9.9357e-08
-3.71362e-10
-9.89458e-08
-4.11269e-10
-9.84934e-08
-4.52368e-10
-9.79987e-08
-4.94662e-10
-9.74606e-08
-5.38146e-10
-9.68778e-08
-5.82812e-10
-9.62491e-08
-6.28647e-10
-9.55735e-08
-6.75631e-10
-9.48498e-08
-7.23738e-10
-9.40768e-08
-7.72935e-10
-9.32536e-08
-8.23183e-10
-9.23792e-08
-8.74432e-10
-9.14526e-08
-9.26628e-10
-9.04729e-08
-9.79707e-10
-8.94393e-08
-1.0336e-09
-8.83511e-08
-1.08822e-09
-8.72076e-08
-1.14349e-09
-8.60083e-08
-1.1993e-09
-8.47527e-08
-1.25555e-09
-8.34406e-08
-1.31211e-09
-8.20718e-08
-1.36886e-09
-8.06461e-08
-1.42566e-09
-7.91637e-08
-1.48237e-09
-7.76249e-08
-1.53881e-09
-7.60301e-08
-1.59484e-09
-7.43798e-08
-1.65025e-09
-7.2675e-08
-1.70487e-09
-7.09165e-08
-1.75849e-09
-6.91056e-08
-1.81091e-09
-6.72437e-08
-1.8619e-09
-6.53324e-08
-1.91124e-09
-6.33737e-08
-1.95869e-09
-6.13697e-08
-2.00401e-09
-5.93228e-08
-2.04693e-09
-5.72356e-08
-2.08719e-09
-5.51111e-08
-2.12454e-09
-5.29524e-08
-2.15869e-09
-5.0763e-08
-2.18937e-09
-4.85467e-08
-2.21629e-09
-4.63075e-08
-2.23917e-09
-4.40498e-08
-2.25771e-09
-4.17782e-08
-2.27163e-09
-3.94976e-08
-2.28064e-09
-3.72131e-08
-2.28444e-09
-3.49304e-08
-2.28275e-09
-3.26551e-08
-2.27528e-09
-3.03933e-08
-2.26176e-09
-2.81514e-08
-2.2419e-09
-2.5936e-08
-2.21545e-09
-2.37539e-08
-2.18215e-09
-2.16121e-08
-2.14174e-09
-1.95181e-08
-2.094e-09
-1.74794e-08
-2.0387e-09
-1.55038e-08
-1.97565e-09
-1.35991e-08
-1.90466e-09
-1.17735e-08
-1.82558e-09
-1.00352e-08
-1.73828e-09
-8.39257e-09
-1.64268e-09
-6.85385e-09
-1.53872e-09
-5.42741e-09
-1.42643e-09
-4.12152e-09
-1.30589e-09
-2.94422e-09
-1.1773e-09
-1.90326e-09
-1.04097e-09
-1.00586e-09
-8.974e-10
-2.58502e-10
-7.47359e-10
3.3347e-10
-5.91972e-10
7.66375e-10
-4.32904e-10
1.03901e-09
-2.72631e-10
1.15391e-09
-1.14907e-10
1.11942e-09
3.44936e-11
9.52858e-10
1.66557e-10
6.8565e-10
2.67207e-10
3.7178e-10
3.13871e-10
1.01923e-10
2.69857e-10
1.01924e-10
2.14484e-10
-2.90743e-10
6.23925e-10
-6.23832e-10
1.06555e-09
-6.99621e-10
1.41414e-09
-5.78321e-10
1.57832e-09
-3.21987e-10
1.49603e-09
2.23025e-11
1.12775e-09
4.2067e-10
4.5055e-10
8.49157e-10
-5.4646e-10
1.29095e-09
-1.86554e-09
1.73426e-09
-3.50275e-09
2.17083e-09
-5.44975e-09
2.59483e-09
-7.69504e-09
3.0022e-09
-1.02249e-08
3.39013e-09
-1.30243e-08
3.75674e-09
-1.60769e-08
4.10085e-09
-1.9366e-08
4.42178e-09
-2.28747e-08
4.71924e-09
-2.65859e-08
4.99325e-09
-3.04825e-08
5.24406e-09
-3.45481e-08
5.47207e-09
-3.87661e-08
5.67785e-09
-4.31209e-08
5.86204e-09
-4.75971e-08
6.02538e-09
-5.21798e-08
6.16867e-09
-5.6855e-08
6.29272e-09
-6.1609e-08
6.39841e-09
-6.64289e-08
6.48661e-09
-7.13025e-08
6.55821e-09
-7.62182e-08
6.61409e-09
-8.11648e-08
6.65513e-09
-8.61321e-08
6.68221e-09
-9.11104e-08
6.6962e-09
-9.60905e-08
6.69792e-09
-1.01064e-07
6.6882e-09
-1.06023e-07
6.66785e-09
-1.1096e-07
6.63763e-09
-1.15868e-07
6.5983e-09
-1.20741e-07
6.55057e-09
-1.25574e-07
6.49514e-09
-1.30361e-07
6.43268e-09
-1.35097e-07
6.36383e-09
-1.39777e-07
6.28919e-09
-1.44399e-07
6.20934e-09
-1.48959e-07
6.12484e-09
-1.53453e-07
6.0362e-09
-1.57878e-07
5.94392e-09
-1.62233e-07
5.84846e-09
-1.66516e-07
5.75027e-09
-1.70723e-07
5.64976e-09
-1.74855e-07
5.54731e-09
-1.7891e-07
5.44328e-09
-1.82886e-07
5.33802e-09
-1.86784e-07
5.23183e-09
-1.90602e-07
5.12501e-09
-1.94341e-07
5.01783e-09
-1.98e-07
4.91052e-09
-2.01579e-07
4.80333e-09
-2.05079e-07
4.69645e-09
-2.085e-07
4.59008e-09
-2.11842e-07
4.48438e-09
-2.15107e-07
4.3795e-09
-2.18293e-07
4.27559e-09
-2.21404e-07
4.17276e-09
-2.24438e-07
4.07112e-09
-2.27398e-07
3.97076e-09
-2.30284e-07
3.87175e-09
-2.33098e-07
3.77416e-09
-2.3584e-07
3.67803e-09
-2.38511e-07
3.58342e-09
-2.41113e-07
3.49034e-09
-2.43646e-07
3.39881e-09
-2.46113e-07
3.30883e-09
-2.48513e-07
3.22041e-09
-2.50849e-07
3.13353e-09
-2.53121e-07
3.04817e-09
-2.5533e-07
2.96428e-09
-2.57478e-07
2.88185e-09
-2.59565e-07
2.80081e-09
-2.61593e-07
2.72112e-09
-2.63562e-07
2.6427e-09
-2.65474e-07
2.5655e-09
-2.67328e-07
2.48943e-09
-2.69127e-07
2.41441e-09
-2.7087e-07
2.34036e-09
-2.72558e-07
2.26717e-09
-2.74192e-07
2.19476e-09
-2.75773e-07
2.12301e-09
-2.773e-07
2.05182e-09
-2.78774e-07
1.98107e-09
-2.80196e-07
1.91063e-09
-2.81565e-07
1.84039e-09
-2.82881e-07
1.77021e-09
-2.84145e-07
1.69997e-09
-2.85356e-07
1.62952e-09
-2.86514e-07
1.55873e-09
-2.87619e-07
1.48745e-09
-2.8867e-07
1.41553e-09
-2.89666e-07
1.34282e-09
-2.90607e-07
1.26918e-09
-2.91493e-07
1.19444e-09
-2.92321e-07
1.11845e-09
-2.93091e-07
1.04105e-09
-2.93803e-07
9.62072e-10
-2.94454e-07
8.81361e-10
-2.95043e-07
7.98752e-10
-2.95569e-07
7.14081e-10
-2.9603e-07
6.27183e-10
-2.96424e-07
5.37897e-10
-2.96749e-07
4.4606e-10
-2.97004e-07
3.5151e-10
-2.97186e-07
2.54088e-10
-2.97293e-07
1.53638e-10
-2.97322e-07
5.00066e-11
-2.97272e-07
-5.69567e-11
-2.97139e-07
-1.67397e-10
-2.96921e-07
-2.81453e-10
-2.96615e-07
-3.99259e-10
-2.96219e-07
-5.20942e-10
-2.95729e-07
-6.46622e-10
-2.95141e-07
-7.76408e-10
-2.94455e-07
-9.10401e-10
-2.93665e-07
-1.04869e-09
-2.92768e-07
-1.19136e-09
-2.91762e-07
-1.33846e-09
-2.90644e-07
-1.49006e-09
-2.89409e-07
-1.64618e-09
-2.88054e-07
-1.80685e-09
-2.86577e-07
-1.97206e-09
-2.84973e-07
-2.1418e-09
-2.8324e-07
-2.31604e-09
-2.81374e-07
-2.4947e-09
-2.79372e-07
-2.67772e-09
-2.77231e-07
-2.86497e-09
-2.74947e-07
-3.05633e-09
-2.72519e-07
-3.25163e-09
-2.69943e-07
-3.45069e-09
-2.67216e-07
-3.65329e-09
-2.64337e-07
-3.85918e-09
-2.61302e-07
-4.06806e-09
-2.58111e-07
-4.27964e-09
-2.54761e-07
-4.49355e-09
-2.5125e-07
-4.70942e-09
-2.47579e-07
-4.92681e-09
-2.43746e-07
-5.14526e-09
-2.39751e-07
-5.36429e-09
-2.35593e-07
-5.58334e-09
-2.31273e-07
-5.80185e-09
-2.26793e-07
-6.0192e-09
-2.22153e-07
-6.23473e-09
-2.17356e-07
-6.44776e-09
-2.12403e-07
-6.65754e-09
-2.07298e-07
-6.86331e-09
-2.02045e-07
-7.06427e-09
-1.96647e-07
-7.25956e-09
-1.9111e-07
-7.44832e-09
-1.85439e-07
-7.62963e-09
-1.79641e-07
-7.80254e-09
-1.73721e-07
-7.96609e-09
-1.67689e-07
-8.11928e-09
-1.61553e-07
-8.26108e-09
-1.55321e-07
-8.39044e-09
-1.49004e-07
-8.50632e-09
-1.42613e-07
-8.60763e-09
-1.36159e-07
-8.69328e-09
-1.29654e-07
-8.76218e-09
-1.23113e-07
-8.81322e-09
-1.16548e-07
-8.84532e-09
-1.09975e-07
-8.85738e-09
-1.03409e-07
-8.84833e-09
-9.68677e-08
-8.81709e-09
-9.03668e-08
-8.76264e-09
-8.39247e-08
-8.68396e-09
-7.75601e-08
-8.58008e-09
-7.12922e-08
-8.45004e-09
-6.5141e-08
-8.29297e-09
-5.91269e-08
-8.10805e-09
-5.32711e-08
-7.89451e-09
-4.75951e-08
-7.65167e-09
-4.21208e-08
-7.37896e-09
-3.68705e-08
-7.07591e-09
-3.18666e-08
-6.74219e-09
-2.71316e-08
-6.37765e-09
-2.2688e-08
-5.98234e-09
-1.85578e-08
-5.55659e-09
-1.47627e-08
-5.10105e-09
-1.13231e-08
-4.61682e-09
-8.25853e-09
-4.10558e-09
-5.58615e-09
-3.56979e-09
-3.32056e-09
-3.01295e-09
-1.47248e-09
-2.44006e-09
-4.72274e-11
-1.85815e-09
9.57374e-10
-1.27723e-09
1.55402e-09
-7.11557e-10
1.77017e-09
-1.81657e-10
1.65387e-09
2.82857e-10
1.28158e-09
6.395e-10
7.6731e-10
8.28137e-10
2.69742e-10
7.67424e-10
3.71666e-10
2.58661e-10
-5.49405e-10
7.01319e-10
-1.06649e-09
1.11947e-09
-1.11778e-09
1.36045e-09
-8.19296e-10
1.30914e-09
-2.70674e-10
8.82823e-10
4.48615e-10
2.55013e-11
1.27799e-09
-1.29775e-09
2.17241e-09
-3.10559e-09
3.09879e-09
-5.40423e-09
4.0329e-09
-8.19051e-09
4.95711e-09
-1.14543e-08
5.8586e-09
-1.51802e-08
6.72812e-09
-1.93492e-08
7.5591e-09
-2.39394e-08
8.34696e-09
-2.89272e-08
9.08864e-09
-3.42877e-08
9.78225e-09
-3.99952e-08
1.04268e-08
-4.60239e-08
1.10219e-08
-5.23477e-08
1.15679e-08
-5.8941e-08
1.20654e-08
-6.57785e-08
1.25153e-08
-7.28355e-08
1.2919e-08
-8.00879e-08
1.32778e-08
-8.75125e-08
1.35933e-08
-9.5087e-08
1.38672e-08
-1.0279e-07
1.41013e-08
-1.106e-07
1.42973e-08
-1.18499e-07
1.44572e-08
-1.26468e-07
1.45828e-08
-1.34489e-07
1.46759e-08
-1.42545e-07
1.47385e-08
-1.50621e-07
1.47723e-08
-1.58703e-07
1.47792e-08
-1.66775e-07
1.47609e-08
-1.74827e-07
1.47192e-08
-1.82845e-07
1.46557e-08
-1.90818e-07
1.4572e-08
-1.98738e-07
1.44698e-08
-2.06593e-07
1.43504e-08
-2.14376e-07
1.42155e-08
-2.22078e-07
1.40663e-08
-2.29693e-07
1.39042e-08
-2.37214e-07
1.37304e-08
-2.44636e-07
1.35463e-08
-2.51952e-07
1.33528e-08
-2.59159e-07
1.31512e-08
-2.66253e-07
1.29424e-08
-2.7323e-07
1.27273e-08
-2.80088e-07
1.2507e-08
-2.86823e-07
1.22823e-08
-2.93433e-07
1.20539e-08
-2.99918e-07
1.18226e-08
-3.06275e-07
1.15891e-08
-3.12504e-07
1.13541e-08
-3.18604e-07
1.11181e-08
-3.24576e-07
1.08817e-08
-3.30418e-07
1.06454e-08
-3.36131e-07
1.04096e-08
-3.41716e-07
1.01749e-08
-3.47173e-07
9.94147e-09
-3.52503e-07
9.70977e-09
-3.57708e-07
9.48007e-09
-3.62787e-07
9.25265e-09
-3.67744e-07
9.02775e-09
-3.72579e-07
8.80556e-09
-3.77293e-07
8.58626e-09
-3.81889e-07
8.36999e-09
-3.86368e-07
8.15688e-09
-3.90732e-07
7.947e-09
-3.94982e-07
7.74043e-09
-3.9912e-07
7.53721e-09
-4.03149e-07
7.33735e-09
-4.07069e-07
7.14084e-09
-4.10883e-07
6.94766e-09
-4.14593e-07
6.75776e-09
-4.182e-07
6.57108e-09
-4.21705e-07
6.38752e-09
-4.25111e-07
6.207e-09
-4.2842e-07
6.02939e-09
-4.31632e-07
5.85455e-09
-4.34748e-07
5.68233e-09
-4.37772e-07
5.51257e-09
-4.40702e-07
5.34509e-09
-4.43542e-07
5.1797e-09
-4.46291e-07
5.01618e-09
-4.4895e-07
4.85433e-09
-4.51521e-07
4.69391e-09
-4.54004e-07
4.53467e-09
-4.56399e-07
4.37638e-09
-4.58707e-07
4.21875e-09
-4.60928e-07
4.06153e-09
-4.63063e-07
3.90443e-09
-4.6511e-07
3.74715e-09
-4.6707e-07
3.5894e-09
-4.68942e-07
3.43086e-09
-4.70726e-07
3.27124e-09
-4.7242e-07
3.11019e-09
-4.74025e-07
2.9474e-09
-4.75538e-07
2.78252e-09
-4.76959e-07
2.61522e-09
-4.78286e-07
2.44516e-09
-4.79517e-07
2.27198e-09
-4.8065e-07
2.09534e-09
-4.81683e-07
1.91487e-09
-4.82615e-07
1.73023e-09
-4.83442e-07
1.54106e-09
-4.84162e-07
1.347e-09
-4.84771e-07
1.14769e-09
-4.85268e-07
9.4278e-10
-4.85649e-07
7.31926e-10
-4.85909e-07
5.14778e-10
-4.86047e-07
2.90998e-10
-4.86057e-07
6.02527e-11
-4.85936e-07
-1.77781e-10
-4.8568e-07
-4.23416e-10
-4.85285e-07
-6.76953e-10
-4.84745e-07
-9.38681e-10
-4.84057e-07
-1.20887e-09
-4.83216e-07
-1.48778e-09
-4.82217e-07
-1.77563e-09
-4.81055e-07
-2.07266e-09
-4.79724e-07
-2.37903e-09
-4.78221e-07
-2.69493e-09
-4.76539e-07
-3.02047e-09
-4.74673e-07
-3.35577e-09
-4.72618e-07
-3.70089e-09
-4.70369e-07
-4.05587e-09
-4.67921e-07
-4.42071e-09
-4.65267e-07
-4.79534e-09
-4.62403e-07
-5.17968e-09
-4.59324e-07
-5.57359e-09
-4.56025e-07
-5.97687e-09
-4.52501e-07
-6.38928e-09
-4.48747e-07
-6.81052e-09
-4.44758e-07
-7.24022e-09
-4.40531e-07
-7.67796e-09
-4.36061e-07
-8.12326e-09
-4.31345e-07
-8.57554e-09
-4.26379e-07
-9.03419e-09
-4.2116e-07
-9.49851e-09
-4.15685e-07
-9.96771e-09
-4.09954e-07
-1.0441e-08
-4.03963e-07
-1.09173e-08
-3.97713e-07
-1.13957e-08
-3.91202e-07
-1.18751e-08
-3.84431e-07
-1.23544e-08
-3.77401e-07
-1.28321e-08
-3.70113e-07
-1.33071e-08
-3.6257e-07
-1.37779e-08
-3.54775e-07
-1.42428e-08
-3.46732e-07
-1.47005e-08
-3.38446e-07
-1.51491e-08
-3.29923e-07
-1.55869e-08
-3.21171e-07
-1.60121e-08
-3.12197e-07
-1.64227e-08
-3.03009e-07
-1.68168e-08
-2.9362e-07
-1.71923e-08
-2.84039e-07
-1.75471e-08
-2.74279e-07
-1.78791e-08
-2.64354e-07
-1.8186e-08
-2.54279e-07
-1.84655e-08
-2.4407e-07
-1.87154e-08
-2.33744e-07
-1.89333e-08
-2.2332e-07
-1.9117e-08
-2.12819e-07
-1.92639e-08
-2.0226e-07
-1.93718e-08
-1.91667e-07
-1.94383e-08
-1.81063e-07
-1.94611e-08
-1.70474e-07
-1.94378e-08
-1.59925e-07
-1.93662e-08
-1.49443e-07
-1.92441e-08
-1.39058e-07
-1.90693e-08
-1.28798e-07
-1.88399e-08
-1.18694e-07
-1.85538e-08
-1.08778e-07
-1.82092e-08
-9.9082e-08
-1.78044e-08
-8.96386e-08
-1.73379e-08
-8.04818e-08
-1.68084e-08
-7.1646e-08
-1.62148e-08
-6.31655e-08
-1.55564e-08
-5.50752e-08
-1.48325e-08
-4.74096e-08
-1.40433e-08
-4.02028e-08
-1.31891e-08
-3.34883e-08
-1.22711e-08
-2.72982e-08
-1.12911e-08
-2.1663e-08
-1.0252e-08
-1.66104e-08
-9.15817e-09
-1.21648e-08
-8.01545e-09
-8.34553e-09
-6.83218e-09
-5.16583e-09
-5.61976e-09
-2.63014e-09
-4.39385e-09
-7.31418e-10
-3.17595e-09
5.52612e-10
-1.99559e-09
1.26438e-09
-8.9342e-10
1.47257e-09
7.46646e-11
1.27955e-09
8.32512e-10
8.29146e-10
1.27854e-09
3.14017e-10
1.28255e-09
6.85684e-10
2.3148e-10
-7.80885e-10
5.82946e-10
-1.41796e-09
8.25845e-10
-1.36067e-09
7.93635e-10
-7.87087e-10
3.6012e-10
1.62842e-10
-5.67644e-10
1.37638e-09
-2.05478e-09
2.76513e-09
-4.14366e-09
4.26129e-09
-6.85828e-09
5.8134e-09
-1.0208e-08
7.38264e-09
-1.41908e-08
8.93989e-09
-1.87957e-08
1.04635e-08
-2.40048e-08
1.19373e-08
-2.97953e-08
1.33496e-08
-3.61404e-08
1.46921e-08
-4.30107e-08
1.59589e-08
-5.03747e-08
1.71463e-08
-5.81998e-08
1.82519e-08
-6.64528e-08
1.92749e-08
-7.51002e-08
2.02152e-08
-8.41084e-08
2.10736e-08
-9.34445e-08
2.18514e-08
-1.03076e-07
2.25505e-08
-1.12971e-07
2.31731e-08
-1.231e-07
2.37216e-08
-1.33431e-07
2.41988e-08
-1.43938e-07
2.46076e-08
-1.54591e-07
2.4951e-08
-1.65366e-07
2.5232e-08
-1.76237e-07
2.54538e-08
-1.87181e-07
2.56195e-08
-1.98174e-07
2.57322e-08
-2.09197e-07
2.57951e-08
-2.20229e-07
2.58111e-08
-2.31252e-07
2.57833e-08
-2.42247e-07
2.57147e-08
-2.532e-07
2.56081e-08
-2.64094e-07
2.54663e-08
-2.74916e-07
2.5292e-08
-2.85653e-07
2.50877e-08
-2.96294e-07
2.4856e-08
-3.06827e-07
2.45994e-08
-3.17243e-07
2.432e-08
-3.27532e-07
2.402e-08
-3.37688e-07
2.37017e-08
-3.47702e-07
2.33669e-08
-3.57568e-07
2.30176e-08
-3.67281e-07
2.26555e-08
-3.76837e-07
2.22824e-08
-3.86229e-07
2.18998e-08
-3.95456e-07
2.15092e-08
-4.04514e-07
2.1112e-08
-4.13401e-07
2.07095e-08
-4.22115e-07
2.03029e-08
-4.30654e-07
1.98934e-08
-4.39018e-07
1.9482e-08
-4.47206e-07
1.90697e-08
-4.55218e-07
1.86574e-08
-4.63054e-07
1.82458e-08
-4.70715e-07
1.78357e-08
-4.78201e-07
1.74278e-08
-4.85514e-07
1.70227e-08
-4.92655e-07
1.6621e-08
-4.99626e-07
1.6223e-08
-5.06427e-07
1.58293e-08
-5.13062e-07
1.54401e-08
-5.19531e-07
1.50559e-08
-5.25838e-07
1.46768e-08
-5.31984e-07
1.43031e-08
-5.37972e-07
1.39349e-08
-5.43804e-07
1.35724e-08
-5.49483e-07
1.32156e-08
-5.5501e-07
1.28645e-08
-5.60388e-07
1.25192e-08
-5.6562e-07
1.21796e-08
-5.70708e-07
1.18456e-08
-5.75654e-07
1.15172e-08
-5.80461e-07
1.11941e-08
-5.8513e-07
1.08763e-08
-5.89664e-07
1.05634e-08
-5.94065e-07
1.02553e-08
-5.98334e-07
9.95174e-09
-6.02474e-07
9.65239e-09
-6.06486e-07
9.35694e-09
-6.10371e-07
9.06507e-09
-6.14131e-07
8.77642e-09
-6.17768e-07
8.49062e-09
-6.21281e-07
8.20726e-09
-6.24672e-07
7.92593e-09
-6.27942e-07
7.64619e-09
-6.31091e-07
7.36758e-09
-6.34119e-07
7.08962e-09
-6.37026e-07
6.81184e-09
-6.39813e-07
6.53372e-09
-6.42478e-07
6.25474e-09
-6.45022e-07
5.97437e-09
-6.47443e-07
5.69206e-09
-6.4974e-07
5.40726e-09
-6.51912e-07
5.1194e-09
-6.53957e-07
4.82789e-09
-6.55874e-07
4.53214e-09
-6.5766e-07
4.23157e-09
-6.59314e-07
3.92556e-09
-6.60832e-07
3.61351e-09
-6.62212e-07
3.29482e-09
-6.63451e-07
2.96885e-09
-6.64545e-07
2.635e-09
-6.6549e-07
2.29265e-09
-6.66284e-07
1.94119e-09
-6.66921e-07
1.58001e-09
-6.67398e-07
1.20851e-09
-6.67709e-07
8.26097e-10
-6.6785e-07
4.32185e-10
-6.67816e-07
2.62047e-11
-6.67601e-07
-3.92397e-10
-6.67201e-07
-8.24157e-10
-6.66608e-07
-1.26959e-09
-6.65818e-07
-1.72918e-09
-6.64823e-07
-2.2034e-09
-6.63618e-07
-2.69268e-09
-6.62196e-07
-3.19741e-09
-6.60551e-07
-3.71796e-09
-6.58675e-07
-4.25463e-09
-6.56563e-07
-4.80771e-09
-6.54206e-07
-5.37741e-09
-6.51598e-07
-5.9639e-09
-6.48731e-07
-6.56728e-09
-6.456e-07
-7.1876e-09
-6.42195e-07
-7.82484e-09
-6.38512e-07
-8.47889e-09
-6.34542e-07
-9.14959e-09
-6.30279e-07
-9.83666e-09
-6.25716e-07
-1.05398e-08
-6.20847e-07
-1.12585e-08
-6.15665e-07
-1.19922e-08
-6.10165e-07
-1.27404e-08
-6.04341e-07
-1.35022e-08
-5.98187e-07
-1.42768e-08
-5.91699e-07
-1.50633e-08
-5.84873e-07
-1.58604e-08
-5.77705e-07
-1.66671e-08
-5.7019e-07
-1.74819e-08
-5.62328e-07
-1.83033e-08
-5.54116e-07
-1.91298e-08
-5.45552e-07
-1.99595e-08
-5.36636e-07
-2.07905e-08
-5.2737e-07
-2.16209e-08
-5.17754e-07
-2.24484e-08
-5.0779e-07
-2.32706e-08
-4.97483e-07
-2.40851e-08
-4.86837e-07
-2.48892e-08
-4.75857e-07
-2.56803e-08
-4.64551e-07
-2.64553e-08
-4.52926e-07
-2.72112e-08
-4.40993e-07
-2.79449e-08
-4.28763e-07
-2.86531e-08
-4.16247e-07
-2.93323e-08
-4.03461e-07
-2.9979e-08
-3.90418e-07
-3.05897e-08
-3.77137e-07
-3.11604e-08
-3.63635e-07
-3.16875e-08
-3.49934e-07
-3.2167e-08
-3.36054e-07
-3.25951e-08
-3.2202e-07
-3.29676e-08
-3.07856e-07
-3.32807e-08
-2.9359e-07
-3.35302e-08
-2.7925e-07
-3.37121e-08
-2.64865e-07
-3.38225e-08
-2.50469e-07
-3.38573e-08
-2.36094e-07
-3.38126e-08
-2.21776e-07
-3.36847e-08
-2.0755e-07
-3.34697e-08
-1.93455e-07
-3.31641e-08
-1.79531e-07
-3.27645e-08
-1.65817e-07
-3.22676e-08
-1.52356e-07
-3.16705e-08
-1.3919e-07
-3.09704e-08
-1.26363e-07
-3.01648e-08
-1.13919e-07
-2.92519e-08
-1.01904e-07
-2.82299e-08
-9.03629e-08
-2.70978e-08
-7.93402e-08
-2.58552e-08
-6.88811e-08
-2.45024e-08
-5.90296e-08
-2.30407e-08
-4.98282e-08
-2.14724e-08
-4.13178e-08
-1.98015e-08
-3.35363e-08
-1.80336e-08
-2.65178e-08
-1.61766e-08
-2.02916e-08
-1.42416e-08
-1.48804e-08
-1.22434e-08
-1.02984e-08
-1.02018e-08
-6.54853e-09
-8.14368e-09
-3.6199e-09
-6.10458e-09
-1.48336e-09
-4.13212e-09
-8.70632e-11
-2.28972e-09
6.49207e-10
-6.61605e-10
8.40569e-10
6.4115e-10
6.44165e-10
1.47495e-09
2.68395e-10
1.65832e-09
9.54078e-10
1.6089e-10
-9.41774e-10
3.29961e-10
-1.58703e-09
2.823e-10
-1.31301e-09
-1.49923e-10
-3.54863e-10
-1.09502e-09
1.10794e-09
-2.64889e-09
2.93025e-09
-4.88014e-09
4.99638e-09
-7.83448e-09
7.21563e-09
-1.15386e-08
9.51753e-09
-1.60036e-08
1.18477e-08
-2.1228e-08
1.41643e-08
-2.72001e-08
1.64355e-08
-3.39002e-08
1.86374e-08
-4.13026e-08
2.0752e-08
-4.93766e-08
2.27661e-08
-5.80883e-08
2.46705e-08
-6.74009e-08
2.64589e-08
-7.72762e-08
2.81272e-08
-8.76747e-08
2.96734e-08
-9.85565e-08
3.10971e-08
-1.09882e-07
3.23987e-08
-1.2161e-07
3.35801e-08
-1.33703e-07
3.46436e-08
-1.46123e-07
3.55922e-08
-1.5883e-07
3.64294e-08
-1.71791e-07
3.71591e-08
-1.84969e-07
3.77854e-08
-1.9833e-07
3.83127e-08
-2.11844e-07
3.87455e-08
-2.25478e-07
3.90882e-08
-2.39204e-07
3.93457e-08
-2.52995e-07
3.95225e-08
-2.66823e-07
3.96233e-08
-2.80664e-07
3.96525e-08
-2.94496e-07
3.96148e-08
-3.08296e-07
3.95146e-08
-3.22044e-07
3.93561e-08
-3.35721e-07
3.91436e-08
-3.4931e-07
3.8881e-08
-3.62795e-07
3.85725e-08
-3.7616e-07
3.82217e-08
-3.89393e-07
3.78324e-08
-4.02481e-07
3.74079e-08
-4.15413e-07
3.69517e-08
-4.28178e-07
3.6467e-08
-4.40768e-07
3.59567e-08
-4.53174e-07
3.54238e-08
-4.6539e-07
3.48711e-08
-4.77408e-07
3.4301e-08
-4.89225e-07
3.3716e-08
-5.00834e-07
3.31185e-08
-5.12233e-07
3.25105e-08
-5.23417e-07
3.18941e-08
-5.34385e-07
3.12711e-08
-5.45135e-07
3.06433e-08
-5.55666e-07
3.00123e-08
-5.65975e-07
2.93796e-08
-5.76065e-07
2.87466e-08
-5.85933e-07
2.81145e-08
-5.95582e-07
2.74844e-08
-6.05012e-07
2.68575e-08
-6.14224e-07
2.62345e-08
-6.23219e-07
2.56165e-08
-6.32e-07
2.5004e-08
-6.40569e-07
2.43979e-08
-6.48927e-07
2.37985e-08
-6.57078e-07
2.32065e-08
-6.65023e-07
2.26222e-08
-6.72766e-07
2.2046e-08
-6.80309e-07
2.14781e-08
-6.87656e-07
2.09187e-08
-6.94808e-07
2.0368e-08
-7.01769e-07
1.98259e-08
-7.08543e-07
1.92925e-08
-7.15131e-07
1.87677e-08
-7.21537e-07
1.82515e-08
-7.27763e-07
1.77436e-08
-7.33813e-07
1.72438e-08
-7.39688e-07
1.67519e-08
-7.45393e-07
1.62676e-08
-7.50928e-07
1.57905e-08
-7.56296e-07
1.53202e-08
-7.615e-07
1.48563e-08
-7.66541e-07
1.43983e-08
-7.71422e-07
1.39458e-08
-7.76144e-07
1.34981e-08
-7.80708e-07
1.30547e-08
-7.85115e-07
1.26149e-08
-7.89368e-07
1.21782e-08
-7.93466e-07
1.17439e-08
-7.97409e-07
1.13113e-08
-8.01199e-07
1.08796e-08
-8.04836e-07
1.04482e-08
-8.08318e-07
1.00161e-08
-8.11646e-07
9.58275e-09
-8.14819e-07
9.1472e-09
-8.17835e-07
8.70865e-09
-8.20694e-07
8.26624e-09
-8.23394e-07
7.81912e-09
-8.25933e-07
7.36638e-09
-8.28308e-07
6.90715e-09
-8.30517e-07
6.44051e-09
-8.32556e-07
5.96554e-09
-8.34424e-07
5.48132e-09
-8.36116e-07
4.98692e-09
-8.37629e-07
4.4814e-09
-8.38958e-07
3.96383e-09
-8.40098e-07
3.43327e-09
-8.41046e-07
2.8888e-09
-8.41795e-07
2.32949e-09
-8.42341e-07
1.75443e-09
-8.42678e-07
1.16272e-09
-8.42799e-07
5.53485e-10
-8.42699e-07
-7.414e-11
-8.4237e-07
-7.20991e-10
-8.41807e-07
-1.38787e-09
-8.41001e-07
-2.07556e-09
-8.39945e-07
-2.7848e-09
-8.38632e-07
-3.51627e-09
-8.37054e-07
-4.27062e-09
-8.35203e-07
-5.04845e-09
-8.33071e-07
-5.85028e-09
-8.30649e-07
-6.67659e-09
-8.27929e-07
-7.52777e-09
-8.24902e-07
-8.40414e-09
-8.2156e-07
-9.30595e-09
-8.17894e-07
-1.02333e-08
-8.13895e-07
-1.11863e-08
-8.09555e-07
-1.21649e-08
-8.04865e-07
-1.31689e-08
-7.99817e-07
-1.41979e-08
-7.94402e-07
-1.52517e-08
-7.88612e-07
-1.63296e-08
-7.8244e-07
-1.7431e-08
-7.75877e-07
-1.8555e-08
-7.68917e-07
-1.97006e-08
-7.61552e-07
-2.08666e-08
-7.53777e-07
-2.20518e-08
-7.45586e-07
-2.32546e-08
-7.36973e-07
-2.44733e-08
-7.27934e-07
-2.5706e-08
-7.18465e-07
-2.69507e-08
-7.08564e-07
-2.8205e-08
-6.98227e-07
-2.94665e-08
-6.87454e-07
-3.07325e-08
-6.76244e-07
-3.20001e-08
-6.64599e-07
-3.3266e-08
-6.52521e-07
-3.45271e-08
-6.40012e-07
-3.57796e-08
-6.27077e-07
-3.70199e-08
-6.13722e-07
-3.82439e-08
-5.99955e-07
-3.94474e-08
-5.85784e-07
-4.0626e-08
-5.7122e-07
-4.17751e-08
-5.56276e-07
-4.28898e-08
-5.40963e-07
-4.39652e-08
-5.253e-07
-4.4996e-08
-5.09302e-07
-4.5977e-08
-4.92989e-07
-4.69025e-08
-4.76382e-07
-4.7767e-08
-4.59505e-07
-4.85648e-08
-4.42382e-07
-4.92898e-08
-4.25041e-07
-4.99362e-08
-4.07511e-07
-5.04979e-08
-3.89822e-07
-5.0969e-08
-3.72009e-07
-5.13433e-08
-3.54107e-07
-5.16148e-08
-3.36152e-07
-5.17774e-08
-3.18184e-07
-5.18252e-08
-3.00244e-07
-5.17524e-08
-2.82376e-07
-5.15533e-08
-2.64623e-07
-5.12223e-08
-2.47033e-07
-5.07542e-08
-2.29653e-07
-5.01439e-08
-2.12534e-07
-4.93867e-08
-1.95727e-07
-4.84783e-08
-1.79282e-07
-4.74147e-08
-1.63254e-07
-4.61927e-08
-1.47697e-07
-4.48094e-08
-1.32664e-07
-4.32629e-08
-1.1821e-07
-4.15518e-08
-1.04389e-07
-3.96761e-08
-9.12545e-08
-3.76367e-08
-7.88589e-08
-3.54363e-08
-6.72524e-08
-3.3079e-08
-5.64824e-08
-3.05714e-08
-4.65931e-08
-2.79229e-08
-3.76236e-08
-2.51462e-08
-2.96069e-08
-2.22584e-08
-2.25679e-08
-1.92823e-08
-1.65217e-08
-1.6248e-08
-1.14706e-08
-1.31948e-08
-7.40119e-09
-1.0174e-08
-4.28085e-09
-7.25247e-09
-2.05334e-09
-4.51722e-09
-6.34082e-10
-2.08087e-09
9.54735e-11
-8.84043e-11
2.94143e-10
1.27628e-09
1.69728e-10
1.78273e-09
1.1238e-09
6.43157e-11
-1.00609e-09
-1.18205e-11
-1.51089e-09
-4.34315e-10
-8.90519e-10
-1.36198e-09
5.72804e-10
-2.91801e-09
2.66396e-09
-5.19562e-09
5.20787e-09
-8.26237e-09
8.06313e-09
-1.21638e-08
1.11171e-08
-1.69269e-08
1.42806e-08
-2.25626e-08
1.74834e-08
-2.90691e-08
2.06707e-08
-3.64335e-08
2.38e-08
-4.46346e-08
2.68384e-08
-5.36439e-08
2.97613e-08
-6.34277e-08
3.255e-08
-7.39482e-08
3.5191e-08
-8.51644e-08
3.76751e-08
-9.70332e-08
3.99959e-08
-1.0951e-07
4.21502e-08
-1.22549e-07
4.41365e-08
-1.36106e-07
4.59552e-08
-1.50134e-07
4.7608e-08
-1.64588e-07
4.9098e-08
-1.79425e-07
5.04289e-08
-1.946e-07
5.16051e-08
-2.10073e-07
5.26318e-08
-2.25802e-07
5.35145e-08
-2.41748e-07
5.4259e-08
-2.57874e-07
5.48713e-08
-2.74144e-07
5.53578e-08
-2.90523e-07
5.57246e-08
-3.06978e-07
5.59782e-08
-3.2348e-07
5.6125e-08
-3.39999e-07
5.61711e-08
-3.56507e-07
5.6123e-08
-3.72979e-07
5.59866e-08
-3.89391e-07
5.57679e-08
-4.0572e-07
5.54729e-08
-4.21946e-07
5.51072e-08
-4.3805e-07
5.46762e-08
-4.54013e-07
5.41853e-08
-4.69821e-07
5.36396e-08
-4.85457e-07
5.3044e-08
-5.00908e-07
5.24033e-08
-5.16163e-07
5.17218e-08
-5.3121e-07
5.10038e-08
-5.4604e-07
5.02535e-08
-5.60643e-07
4.94747e-08
-5.75013e-07
4.8671e-08
-5.89143e-07
4.78458e-08
-6.03027e-07
4.70025e-08
-6.16661e-07
4.6144e-08
-6.3004e-07
4.52731e-08
-6.43161e-07
4.43926e-08
-6.56023e-07
4.3505e-08
-6.68623e-07
4.26124e-08
-6.8096e-07
4.1717e-08
-6.93034e-07
4.08208e-08
-7.04845e-07
3.99255e-08
-7.16394e-07
3.90328e-08
-7.27681e-07
3.81442e-08
-7.38707e-07
3.7261e-08
-7.49475e-07
3.63844e-08
-7.59987e-07
3.55155e-08
-7.70244e-07
3.46551e-08
-7.80249e-07
3.38042e-08
-7.90006e-07
3.29633e-08
-7.99517e-07
3.21332e-08
-8.08785e-07
3.13143e-08
-8.17814e-07
3.05068e-08
-8.26607e-07
2.97113e-08
-8.35166e-07
2.89277e-08
-8.43497e-07
2.81562e-08
-8.51601e-07
2.73968e-08
-8.59483e-07
2.66495e-08
-8.67145e-07
2.59141e-08
-8.74592e-07
2.51903e-08
-8.81826e-07
2.44779e-08
-8.88851e-07
2.37764e-08
-8.95669e-07
2.30856e-08
-9.02283e-07
2.24048e-08
-9.08697e-07
2.17336e-08
-9.14911e-07
2.10713e-08
-9.2093e-07
2.04172e-08
-9.26755e-07
1.97707e-08
-9.32388e-07
1.9131e-08
-9.37831e-07
1.84972e-08
-9.43084e-07
1.78686e-08
-9.4815e-07
1.72442e-08
-9.5303e-07
1.66231e-08
-9.57723e-07
1.60043e-08
-9.6223e-07
1.53867e-08
-9.66551e-07
1.47694e-08
-9.70686e-07
1.41513e-08
-9.74635e-07
1.35312e-08
-9.78395e-07
1.2908e-08
-9.81967e-07
1.22805e-08
-9.85349e-07
1.16476e-08
-9.88537e-07
1.10079e-08
-9.91531e-07
1.03603e-08
-9.94328e-07
9.70353e-09
-9.96923e-07
9.03627e-09
-9.99315e-07
8.35725e-09
-1.0015e-06
7.66518e-09
-1.00347e-06
6.95875e-09
-1.00523e-06
6.23664e-09
-1.00676e-06
5.49756e-09
-1.00807e-06
4.74018e-09
-1.00914e-06
3.96322e-09
-1.00998e-06
3.16539e-09
-1.01057e-06
2.3454e-09
-1.01091e-06
1.50201e-09
-1.01099e-06
6.33979e-10
-1.0108e-06
-2.59881e-10
-1.01034e-06
-1.18074e-09
-1.0096e-06
-2.12971e-09
-1.00857e-06
-3.10788e-09
-1.00724e-06
-4.11627e-09
-1.0056e-06
-5.15582e-09
-1.00364e-06
-6.22744e-09
-1.00136e-06
-7.33194e-09
-9.98737e-07
-8.47005e-09
-9.95771e-07
-9.6424e-09
-9.92449e-07
-1.08495e-08
-9.88762e-07
-1.20919e-08
-9.84698e-07
-1.33698e-08
-9.80248e-07
-1.46834e-08
-9.75401e-07
-1.60327e-08
-9.70149e-07
-1.74177e-08
-9.64479e-07
-1.88381e-08
-9.58384e-07
-2.02935e-08
-9.51852e-07
-2.17832e-08
-9.44875e-07
-2.33064e-08
-9.37444e-07
-2.48623e-08
-9.2955e-07
-2.64494e-08
-9.21184e-07
-2.80665e-08
-9.12338e-07
-2.97119e-08
-9.03007e-07
-3.13837e-08
-8.93182e-07
-3.30796e-08
-8.82857e-07
-3.47975e-08
-8.72029e-07
-3.65345e-08
-8.60692e-07
-3.82877e-08
-8.48843e-07
-4.00538e-08
-8.3648e-07
-4.18295e-08
-8.23602e-07
-4.36109e-08
-8.10208e-07
-4.53938e-08
-7.963e-07
-4.71738e-08
-7.81881e-07
-4.89464e-08
-7.66954e-07
-5.07063e-08
-7.51526e-07
-5.24484e-08
-7.35603e-07
-5.4167e-08
-7.19194e-07
-5.58562e-08
-7.0231e-07
-5.75099e-08
-6.84964e-07
-5.91214e-08
-6.67169e-07
-6.06842e-08
-6.48943e-07
-6.21911e-08
-6.30304e-07
-6.3635e-08
-6.11273e-07
-6.50083e-08
-5.91872e-07
-6.63033e-08
-5.72127e-07
-6.75123e-08
-5.52065e-07
-6.86271e-08
-5.31715e-07
-6.96396e-08
-5.1111e-07
-7.05415e-08
-4.90283e-07
-7.13244e-08
-4.69272e-07
-7.19798e-08
-4.48116e-07
-7.24995e-08
-4.26856e-07
-7.28749e-08
-4.05536e-07
-7.30978e-08
-3.84201e-07