/*--------------------------------*- C++ -*----------------------------------*\
  =========                 |
  \\      /  F ield         | OpenFOAM: The Open Source CFD Toolbox
   \\    /   O peration     | Website:  https://openfoam.org
    \\  /    A nd           | Version:  7
     \\/     M anipulation  |
\*---------------------------------------------------------------------------*/
FoamFile
{
    version     2.0;
    format      ascii;
    class       volScalarField;
    location    "1.348";
    object      p;
}
// * * * * * * * * * * * * * * * * * * * * * * * * * * * * * * * * * * * * * //

dimensions      [0 2 -2 0 0 0 0];

internalField   nonuniform List<scalar> 
12359
(
0.0619621
0.071544
0.0444119
0.105268
0.0656589
0.15241
0.183788
0.166496
0.224406
0.1405
0.204824
0.275308
0.482574
0.11258
0.0999623
0.393767
0.436952
0.0493716
0.0489458
0.0849294
0.121218
0.249597
0.0779409
0.0904532
0.0744676
0.0810987
0.0457178
0.0455722
0.0481811
0.0462776
0.0467475
0.0450078
0.0446045
0.0460494
0.0444485
0.0469586
0.0548823
0.0601738
0.0639866
0.0575067
0.0694656
0.0587298
0.0523299
0.0516143
0.0475255
0.047832
0.0472231
0.0465238
0.0485621
0.0458617
0.0454252
0.0452643
0.0449139
0.0498305
0.044819
0.0446385
0.0509273
0.044587
0.044567
0.0445019
0.0446905
0.04444
0.0453267
0.512597
0.0503247
0.12983
0.0540631
0.0451595
0.0556293
0.347158
0.529862
0.0674351
0.0444024
0.0564866
0.0954884
0.0444582
0.0449015
0.0444224
0.053279
0.316539
0.123714
0.0397232
0.0432786
0.047384
-0.0571288
0.0253695
0.0396087
0.0412098
-0.0687999
-0.0513271
0.0441622
0.474389
0.0440962
0.0449721
0.046013
0.00882375
0.0442458
0.0449866
0.0559795
0.0519056
0.106511
0.0442813
0.0255597
-0.123459
0.037773
0.0134534
0.0429843
-0.0559737
0.0288657
0.0138349
0.0442644
0.039896
0.107304
0.0891671
0.0462755
0.0396181
0.0910483
0.03865
-0.0736128
0.0433274
0.0443456
0.17239
0.041004
0.00611132
0.0384645
0.0391132
0.0373088
0.0472694
0.0444098
0.0381792
0.0399642
-0.00243425
-0.00396415
-0.00271835
0.0430316
0.00749142
0.0395953
0.00763488
0.0443201
0.037637
0.0434986
0.0634662
0.015435
0.0430048
0.00834953
0.144786
0.0432882
-0.0457349
0.0376831
0.124977
0.0021593
0.0442998
0.0154483
0.0409029
0.0440385
-0.179584
0.10704
-0.00161556
0.044345
0.0450812
0.0446
0.0451379
0.00456838
0.012484
0.0432624
0.0390831
0.0456395
0.171796
0.0140589
-0.0704978
0.0444249
0.0444508
0.0130075
0.0743534
0.0376474
0.041542
0.0481887
0.0479703
0.108786
0.0420997
0.112993
0.0440146
0.0444117
0.0394209
0.0549187
0.20361
0.040238
0.0450646
0.00550663
0.0400668
0.0453517
0.00839422
0.0120286
0.0407632
0.0126851
-0.133777
0.0318302
0.0410529
0.0157727
0.0388408
0.148787
0.00488079
0.0530023
0.0135301
0.011708
0.0439909
0.0106625
0.0536043
0.00245768
0.0386815
0.0436798
0.000184156
0.000207886
-0.525811
0.199391
0.0443232
0.04058
0.0462323
0.0404912
0.0641512
0.0992485
0.038614
0.00630083
0.464925
0.0380511
0.0436537
0.0649613
0.0285043
0.0449385
0.0418792
0.0417288
0.0432706
0.00917951
0.0534164
0.0445781
0.0524721
0.0433189
0.0147079
0.0447895
0.290894
0.0432176
0.0233116
0.0446068
0.0541679
0.0435707
-0.0459428
0.0445521
0.00221366
0.0371992
0.0124009
0.00178219
0.0595022
0.0475507
0.0421622
0.320366
-0.576449
0.0433349
0.0382258
0.397132
-0.0551473
0.0525371
0.0445288
0.044577
0.012545
0.0727905
-0.445486
-0.0681469
0.0435492
0.0383766
0.00788139
0.0131186
0.0586695
0.0140057
0.0422388
0.0384306
0.043273
0.0384147
-0.115564
0.0423707
0.0428596
0.0442695
0.0119164
0.0367108
0.054185
0.0237609
0.043414
0.0467245
0.04429
0.0442685
0.0450403
0.00454437
0.039127
-0.448749
0.0429603
0.043006
0.0255969
0.0376226
0.0991559
0.0458341
0.0454804
0.0441879
-0.103868
0.0439929
0.0441857
0.0408757
0.0454389
0.0366625
0.0392402
0.039683
0.0378979
0.0493702
0.202227
0.0365148
0.0468476
0.0601304
0.0220842
-0.0565494
0.0357151
0.0565483
0.368999
0.0442599
0.0194137
0.0427907
0.0320482
0.0429712
0.0354681
0.227471
0.0187325
0.204083
0.0536659
0.0442714
0.0123286
0.00713859
0.0442328
0.0114874
0.0125106
0.0423426
0.0447886
0.0447774
0.0448543
0.0448289
0.289026
0.043388
0.103099
0.00102606
0.0536216
0.0136199
0.0188213
0.025925
0.032751
0.0180032
0.0332149
0.0554358
0.0199975
0.0212895
0.09104
0.0642929
0.0146563
0.0624467
0.0623243
0.01635
0.103703
0.0402809
0.0448858
0.0306294
0.0448446
0.0400904
-0.186218
0.497323
0.040289
0.0443634
0.0430479
0.043875
0.0178759
0.0440471
0.0440244
-0.0750754
0.0130661
-0.0470098
0.0423158
0.0105722
0.0366203
0.0448924
0.0157939
0.0304341
0.108993
0.0306904
0.0405073
0.0428704
0.0125101
0.0101168
0.0371334
0.294879
0.0155335
0.0081838
0.0487088
0.0458444
0.0443403
0.382398
0.0127237
0.0424696
0.0623067
0.061353
0.04352
0.0434843
0.043799
-0.0555441
0.0980453
0.0577092
0.0186
0.00380921
0.0462269
0.112781
0.0481514
-1.41596e-05
-0.0605955
0.300996
0.0525782
0.0905897
0.0284294
0.0219701
0.0342853
0.0303279
0.0463027
0.034224
0.0158719
0.0440542
-0.0581744
0.0547771
-0.00722668
0.00909857
0.0514099
0.0946987
-0.143198
0.0174167
0.0379572
0.00777062
0.00870929
0.0186894
0.0390677
0.0437297
0.0516405
0.042974
-0.00308915
0.0398529
0.0808069
0.0839068
0.0354943
-0.0544695
0.102935
0.0515055
0.0430053
0.390969
0.0424653
0.0421238
0.00506857
0.0443704
0.0428984
0.0420612
0.235048
0.199165
0.0469655
0.0414526
0.108206
0.0471653
0.0187599
0.0151733
0.0136736
0.0422749
0.0438556
0.046787
0.0442014
0.0833553
0.0192774
0.0216234
0.0477691
0.0505851
0.00258317
0.0464042
0.0440283
0.0371619
0.118945
0.00443255
0.0442962
0.046588
0.012316
0.030282
0.0475723
0.0392773
0.111893
0.0189322
0.00787119
0.0205087
0.0421765
0.0442161
-0.005635
-0.00456443
0.0441931
0.0355367
0.0493135
0.00605806
0.282331
0.0437744
0.0400631
0.0424225
0.0147774
0.051568
0.0501118
0.0392254
0.0481777
0.0294189
0.0731348
0.0363309
-0.0349202
0.0429575
-0.040359
0.041311
-0.115206
0.018604
-0.0027645
0.0445625
0.0475225
0.0214871
0.0393364
0.0453939
0.0527473
0.0518238
0.0520742
0.0708223
0.0139071
0.0135063
0.0432998
0.0389552
0.0190555
-0.00362965
0.0433027
0.0429204
0.0124409
0.0423885
0.222171
-0.149213
-0.120071
0.0433028
0.0388251
0.00129214
0.050563
0.0379218
0.452109
0.0429106
0.112032
0.0868594
0.0386348
0.0376366
0.045548
0.0358665
0.000798432
0.0297128
0.0485933
0.0433419
0.044412
0.0512971
0.0481984
0.054283
0.0142299
0.0451003
0.0428928
0.0202253
-0.0862706
0.0466976
-6.39043e-05
0.0430931
0.0491325
0.093486
0.00104704
0.00183445
0.0950704
0.0439082
0.00193036
0.0435691
0.0444893
0.00248818
0.0353938
0.0433302
0.0353658
0.0439406
0.0428779
0.0385161
0.0475857
0.0019104
0.101518
0.0551349
0.116592
0.0158348
0.0379617
0.111496
0.0603751
-0.00570796
0.0136257
0.0613919
0.0530432
0.0445056
0.037089
0.0206312
0.0432927
0.0443817
0.0423092
0.0445539
-0.0158696
0.0358959
0.0330906
0.102768
0.0530455
0.231808
0.00589417
0.00170914
0.0381398
-0.00178849
0.04392
0.0485212
0.0434944
0.104291
0.112041
0.0440634
0.0297244
0.226238
0.0159293
0.00561444
0.03664
0.0651131
-0.126014
0.0418221
0.0459941
0.0439665
-0.0101209
0.0458592
0.0304059
-0.0537336
0.0429454
0.0746067
0.0559326
0.0394712
0.046973
0.0443511
0.0449038
0.0509169
0.0449552
0.044826
0.0500652
0.00637065
0.0105997
0.0395375
0.335929
0.00151543
0.408128
0.0169821
0.024168
0.0504756
0.0182716
0.0545872
0.00936488
0.317481
0.0961826
0.0536738
0.042074
0.0496749
0.0481584
0.0210925
0.0437265
-0.00890137
0.0449817
0.0975702
0.0476757
-0.014314
0.00782675
0.0114305
0.0546272
0.0370668
0.00831962
0.075138
0.00542204
0.0389271
0.00297676
0.0414
0.0433567
0.0480782
-0.198522
0.0702469
0.0384966
0.043246
0.0452146
0.0506237
0.0802856
0.0105051
0.0179273
0.0423256
0.0399233
0.0533769
0.0383835
0.036321
0.00194781
0.0514261
0.0556906
0.00940214
0.0397097
0.0374451
0.102288
0.0433031
0.0517469
-0.25191
0.0445449
0.0071724
0.0503648
0.037793
0.0872864
0.00992271
0.0489258
0.0185973
0.0443426
0.109559
0.037332
0.0129754
0.0109823
0.111043
0.0441934
0.00136191
-0.00592763
0.0546426
0.0401461
0.0389096
0.0356091
0.236081
0.0490743
0.0443434
0.052722
0.0440697
-0.123783
0.040289
0.0101221
0.0306507
0.0174121
0.515645
0.0398834
-0.0542646
0.0112984
-0.0930196
0.0184908
0.0485594
0.0398098
0.0303047
-0.0472724
-0.0355525
0.0415517
0.0411326
0.116985
0.0401547
0.208507
0.0195955
0.0699134
0.039259
0.404928
-0.100851
0.040805
0.0433649
0.0439651
0.0914611
0.0507483
0.0553158
0.0482912
0.015297
0.07471
-0.0326355
0.354208
0.0422969
0.0807043
0.0139402
0.11884
0.0412726
0.112025
0.00796377
0.0925995
0.0472492
0.043236
0.00945583
0.00660537
0.0188938
0.115943
0.012611
0.0245969
0.0491226
0.0436101
0.0362937
0.241696
0.0363791
0.0119163
0.0646907
0.0199953
0.0350484
0.0491355
-0.00513033
0.0313882
0.040806
-0.0179528
0.0559181
0.0267788
0.195398
0.0433417
0.0311121
0.0477245
0.052745
0.0391831
0.0485599
0.0432981
0.0019015
0.0368107
0.0745558
0.0121266
0.0929578
0.0299181
0.0304383
0.0101259
-0.188222
0.0445249
0.0519304
0.0253796
-0.0679451
0.00699174
0.0440665
0.502846
0.0432583
0.0378324
-0.158856
0.0504331
0.0444801
0.0446019
0.0633885
0.0872009
0.044559
0.0517166
0.107376
0.0482913
0.0503363
0.048635
0.0418526
0.0883846
-0.0169993
0.0510651
0.114403
0.0110605
0.0116265
0.00584317
0.0150824
0.0486891
0.0377949
-0.0396847
0.00503422
0.0704102
0.0433105
0.0445843
0.115365
-0.00150734
0.0320771
0.036488
0.0318848
0.0482473
0.0389398
0.0816389
-0.21714
0.37118
0.080351
0.0473136
0.0388694
0.077456
0.347053
0.108776
0.0440875
5.64455e-05
-0.0124517
-0.236067
0.0342775
-0.149606
0.044549
0.0486459
0.0446036
0.00648664
0.0722435
-0.156992
0.0361136
-0.0823552
0.0398714
0.0477988
0.0108395
0.0500111
0.000848252
-0.0425912
0.0513074
0.0345527
0.0244665
0.0344698
0.0511114
0.0749476
0.0699485
0.0299489
0.0776774
0.0512791
0.0446479
0.0496717
0.0452758
0.103008
0.0226303
-0.00730092
0.00291273
0.0831288
0.023962
0.022459
0.0402282
-0.00923553
0.0327247
0.0504699
0.043984
-0.000550761
0.106325
0.0360483
0.0391518
0.0526279
0.0228765
0.100307
0.113602
0.0229616
0.237854
0.0217039
0.0843411
-0.0398066
0.0496381
0.0189861
0.011135
0.0406661
0.0324453
0.0362662
0.0413675
0.0435629
0.0400176
-0.0139131
-0.00159344
0.0390182
-0.128951
0.0983392
0.045137
0.0503573
0.00157678
0.045026
0.0775035
0.0131919
0.00496145
0.0449662
0.0477214
0.0444372
0.0450261
0.11611
-0.132985
0.0453638
0.0567599
0.0433137
-0.14137
0.0209405
0.0147688
0.0430016
0.0452354
0.0486788
0.0242447
0.0840581
0.02725
0.0435166
0.0485262
0.0448966
0.0204635
0.0823834
0.0360752
0.0443741
0.0296704
0.0245398
0.0726966
0.0388504
-0.0165392
0.143198
0.0406468
0.0315966
0.0482531
0.0406895
-0.176059
0.0510442
0.0451977
0.0117987
0.102432
0.0796368
-0.134251
0.0730186
0.0333729
0.0267714
0.0524839
0.036971
0.0331997
0.0517463
0.144632
0.0467
-0.323453
0.0806283
0.179244
0.0370331
-0.00577498
0.0938343
-0.00192679
0.260411
0.00760622
0.0260913
0.0325495
0.0368104
0.0432583
0.0408629
0.0857993
0.00119095
0.0519166
0.040644
0.00711322
0.0168632
0.00582926
0.0779953
0.000313281
0.00540815
0.0434899
0.067996
-0.0502433
0.0850381
0.0432403
0.0333425
0.0491902
0.0432522
0.0664251
0.0445339
0.0410128
0.241759
0.0896038
-0.0170234
0.0445829
0.0441587
0.0440898
0.0519575
0.0489349
-0.00210575
0.0491099
0.0440346
-0.016024
0.0211226
0.00660056
0.0658598
0.0494445
0.0379839
0.090701
0.0328962
0.0446154
-0.0413192
0.0117731
0.110262
0.0454208
-0.228544
0.0947811
0.0484893
0.00323017
0.0369465
-0.0268488
0.0338661
0.000976489
0.0917144
0.0475997
0.0465211
0.0223747
0.039665
0.0508121
-0.00713792
0.0506165
0.0506778
0.0961967
0.0402093
0.0483453
0.0336986
0.0103121
0.049316
0.0506736
0.0489208
0.0431487
0.0936366
-0.0409506
0.0253865
0.0519897
0.0508359
0.0378019
0.043722
-0.187046
0.0765584
0.0442852
0.0683707
0.037803
0.0967066
0.150658
0.00114586
0.0509567
0.00514786
-0.00193625
0.0429376
0.0384799
-0.000749011
0.0375219
0.0443529
0.0693372
0.0266023
0.0498559
0.0443857
0.0395794
0.0832331
0.0450763
0.0308752
0.0445455
0.0361765
0.0640228
0.131533
0.0438373
-0.19448
0.077554
0.0151963
-0.114633
0.0899198
0.0305541
-0.0280703
0.0524942
0.141024
0.206825
0.0505678
0.0411334
0.040998
0.0473027
0.0490878
0.0068995
-0.0761118
-0.135553
0.00884173
0.145957
-0.00685101
0.0103809
-0.059189
0.0438521
0.0475917
0.0468706
0.0241918
0.0440697
0.00836923
0.0345239
-0.0123405
0.0433765
0.0474049
0.0412009
-0.142938
0.117107
0.0755655
0.0576636
0.12046
0.041146
0.0452396
-0.0160008
0.0342655
-0.0114666
0.00740869
0.0224605
0.00429741
0.0155876
0.0527944
0.0432926
0.0438237
-0.118945
0.0410651
0.0364794
0.0524885
0.00610553
0.0177441
0.0438896
0.0195856
-0.0130964
-8.00448e-05
0.0916611
0.0502039
0.0442767
0.0045982
0.0522668
0.0439396
-0.000384005
0.00730425
0.0484843
0.13609
0.00129787
0.0440339
0.0444627
0.0430883
0.104819
-0.129813
0.0405145
0.00997633
0.0476919
0.0489716
0.0116214
0.0442449
0.178276
0.0154825
-0.0546211
0.151349
0.0293443
0.0438998
0.0436488
0.031781
0.0524395
0.0435619
-0.173065
0.00520617
0.0425069
0.219891
0.09888
0.0365615
0.0433022
0.0445761
0.0512477
-0.0733977
0.159039
0.0320566
0.0745952
0.0631886
0.00578297
-0.0758025
0.0244565
0.0504665
0.049786
0.0161931
0.037258
0.0423593
0.0470101
0.00357998
0.0489523
0.0313336
0.0510844
0.0792789
-0.0111159
0.042426
0.0471237
-0.00362553
0.00326363
0.0546217
0.0465894
0.073762
-0.000724025
0.0377164
0.0166954
0.0712151
0.017414
-0.03354
0.0494574
0.156695
0.0433887
0.104303
2.36771e-05
0.0442404
0.043798
0.369541
0.0447778
0.0524741
0.0253671
0.0501588
0.0503105
0.0536152
0.0446342
0.0440772
0.000322599
-0.0251712
0.0415193
0.331373
0.0348854
0.046737
0.234751
0.0981262
0.0535904
0.0419014
0.0464807
0.0855688
-0.251128
0.050037
0.041401
0.0432708
0.0472659
0.0606295
0.0159961
0.0494884
0.0608132
0.047989
-0.148323
-0.00578865
0.00853551
0.107791
0.0348289
0.046834
0.00435983
-0.114541
0.0496087
0.0435403
0.0467502
0.0460473
0.0500927
0.0429743
-0.00355922
0.0415328
0.0380785
0.303645
-0.000950086
-0.00999693
0.00371061
0.0499365
0.000816178
0.0858894
-0.0869107
0.0432437
0.0103911
0.0442292
0.23532
0.0433747
0.0448348
0.0279495
0.0433216
0.0249733
0.0550538
0.0502474
0.0430184
-0.0914999
0.0863644
0.0112582
0.0471108
0.034595
-0.0589711
-0.00755635
0.0763035
0.0719569
0.0453763
0.0514452
0.0392584
0.0470475
0.0415652
0.0470263
0.0871843
0.0737644
0.00680987
-0.102575
0.0248313
-0.00819726
0.0316047
-0.106969
0.0428973
-0.0293126
0.0468264
-0.0104132
-0.00615645
0.0242503
0.0445724
0.0283123
0.0103179
0.0306871
-0.0177814
0.231635
-0.100446
0.0468294
-0.00186384
0.0462
-0.00512495
0.0897442
0.0038329
0.039239
0.0534602
0.0103821
0.0478281
0.0352461
0.0451613
0.0435025
0.0434635
0.051294
0.00637855
0.00153909
0.0439613
0.0816352
-0.081898
0.496093
0.0430435
0.0705253
0.0260726
0.192595
0.0304354
-0.175475
-0.0337664
0.0427666
0.0236964
0.0668834
0.173856
0.0488649
0.0644924
0.0776747
0.0412232
-0.0854013
-0.00468182
0.0466513
0.0253944
-0.0348736
0.0735938
-0.0872108
0.0354345
0.0786439
0.0503463
0.0430058
0.0519859
0.0412545
-0.072794
-0.00047267
-0.0632714
0.0451132
-0.0845006
0.0288062
0.00366455
0.108855
0.0240131
0.0268068
-0.0542434
0.035198
0.0351297
0.00504348
0.069516
0.024925
0.00841695
0.0665534
-0.0876926
0.083493
0.0332637
0.0874851
0.0449203
0.113001
-6.18782e-05
0.10014
0.0496261
-0.0355568
0.0439293
0.0324102
0.0093073
-0.000975486
0.0535898
0.0060099
0.0450847
0.503465
0.0510134
0.00581488
0.0886038
-0.000132406
0.00701062
0.0451408
0.030153
0.0435723
0.463251
0.0439753
0.0437572
0.0430929
-0.0143849
0.0381814
0.0424771
-0.0138245
0.0268697
0.0610003
0.0387951
0.0435248
0.106246
0.0414683
0.101563
0.00769593
0.0831396
0.039307
0.0380936
0.0248411
-0.0127217
0.00895727
0.040507
0.522934
0.0439458
0.0436115
0.051622
-0.1305
0.0495937
0.0295914
0.0788606
0.0488814
0.0379555
0.00277382
-0.0228302
0.0320681
-0.0460313
0.0498519
0.0414381
0.0144077
0.0189977
-0.000662378
0.0467352
0.0249613
0.068694
0.192411
0.0350943
0.043869
0.0433201
0.176526
0.0443715
0.0443788
-0.03493
0.0309098
-0.0394587
0.0379565
0.0433827
0.187125
-0.0143274
0.0376269
0.0502855
0.0414223
-0.108412
0.0443833
0.0324948
-0.0270314
0.0443826
0.0435105
0.00887051
0.0430072
0.0443941
0.0135409
0.0504212
0.0436694
0.0209522
0.0431843
-0.0125977
0.0433677
0.0578294
0.117956
0.00805221
0.0444016
0.00488976
-0.168078
0.0376171
0.0711459
0.0404623
0.0331943
0.04179
-0.0174605
-0.00589503
0.0420003
0.0435017
0.130361
0.0290784
0.0159073
0.0118415
0.128111
0.0430466
0.0056486
0.0434794
-0.019948
-0.00560718
-0.00478851
0.00768247
0.153917
-0.0870598
0.00525466
0.0111384
0.0470472
0.0474308
0.000662302
0.134399
0.0959181
0.0318842
-0.0717136
0.0428844
-0.0622753
0.195305
0.0437574
-0.00796541
-0.0252095
0.0781709
0.00865023
0.00657943
0.0695427
0.0437406
-0.0118759
-0.0642032
0.256886
0.0501175
0.00235747
-0.030897
0.140895
0.0462558
0.0434838
0.0065507
-0.0528091
0.0401525
0.0681074
0.0438053
0.043043
0.0559672
0.0497112
0.0244278
0.0506263
0.0434344
-0.0152457
0.0338083
-0.0261142
0.0159034
0.0438592
0.0435321
0.141308
0.0495834
0.0777212
0.0596376
-0.0471784
0.0781337
0.04284
-0.0221611
0.0543239
0.0435992
0.0269572
0.0378967
0.037413
0.0934347
0.0245604
-0.134543
0.0400784
0.0435769
-0.0272086
0.0430328
-0.0060652
0.0297021
-0.0251493
-0.0472961
0.0934716
-0.0310907
0.0439073
-0.00895196
0.0484498
0.0689675
-0.0235106
0.0194297
-0.0232257
-0.0629542
0.170874
-0.0115993
0.063664
0.0428533
0.0434459
0.0429996
-0.0311996
0.138348
0.0429451
-0.0144174
-0.0197029
0.0145611
0.00213917
0.0266694
0.107119
-0.029158
0.0506814
0.0119184
0.0242774
0.0442155
0.044241
0.0460043
0.0499263
0.0119712
0.0437537
0.0478649
0.0511877
0.070544
0.000558882
0.0438479
-0.0188502
0.0433679
0.0039173
0.0145775
0.0464753
0.0415298
0.00116165
-0.0202353
0.0346044
0.0762764
0.0495792
0.0256955
0.0307908
0.0435495
0.0485213
0.0493867
0.0465621
0.0435815
0.066256
0.0435602
0.123564
0.0124363
-0.0888037
0.0436525
0.0561259
0.0438028
0.0445464
0.119937
0.0552432
0.0431487
0.313382
0.132562
0.0361879
0.061351
0.0379265
0.118341
0.0192299
0.00832384
0.0549495
0.0510678
0.0434924
0.046385
-0.0118735
0.0431467
0.0460717
0.121529
0.0468226
0.0486436
0.0273173
0.0437541
-0.0352328
0.0436956
0.0459947
0.00769498
0.00885627
-0.0706742
0.108711
0.0671272
0.0463103
0.00690163
0.0462304
0.024514
0.00599956
0.050979
-0.0268611
0.0444694
0.0253157
0.0668347
0.0516584
0.0988831
0.0436078
0.0508886
0.0434697
0.0283073
0.0430028
0.0524549
0.0235141
0.041545
0.0672678
0.0261372
0.0435384
0.0261944
0.0117641
0.050882
0.00811081
-0.0134446
0.0434981
0.0296513
0.108702
0.00242562
0.0523886
0.0422139
0.0423251
0.0243399
0.0530839
0.149684
0.0506901
0.0441247
0.0441393
-0.0220054
-0.00810995
-0.022202
0.280322
0.0982328
0.0495652
0.0251325
0.010384
0.0445243
-0.0593398
0.0490515
0.103079
-0.00047753
0.0460761
0.141911
-0.00782314
-0.0166397
0.0222713
0.0282429
0.0443959
0.0429376
0.0600239
0.0435276
0.0435013
0.135164
0.0470338
0.0603569
0.0429025
0.0357044
0.0441026
0.364713
0.03717
0.0388017
-0.0092294
0.10127
0.0929142
0.0330183
0.106997
0.0444032
0.044585
0.00443232
0.0714918
0.122032
0.0455364
-0.000611658
0.0387632
0.0495514
0.0478531
0.0438233
0.0633609
0.037292
0.04415
0.0291805
0.255125
0.044296
0.0113113
0.0305383
0.043774
0.0590609
0.0470675
0.0265519
0.043984
0.0437289
0.0148285
0.0284179
0.0886411
0.139555
-0.223346
0.0507689
0.0609887
-0.039378
0.0317229
0.0469755
0.0389928
-0.000926736
0.043599
0.0482174
0.0434881
0.029082
0.0637302
0.0183183
0.0435702
0.0569831
0.0325041
0.0497271
0.11762
0.0406232
0.043216
0.0435715
0.0283936
0.0220935
0.306232
0.0562411
0.0794908
0.00559076
0.00431968
0.0434183
0.0979653
0.0435793
0.0435575
0.0442246
-0.00245965
0.0499062
0.0336155
0.00666792
0.0192181
0.00584415
0.0290442
0.0632983
0.111386
0.042154
0.0112329
0.0888378
0.0314883
0.125695
0.048608
-0.15424
0.140739
0.132794
0.0428147
-0.110427
0.00532236
0.00740264
0.134772
-0.000386014
0.0553462
0.0513674
0.0357598
0.0344709
0.0322789
0.210512
0.0725607
0.048937
0.0138797
0.0496137
0.0341019
0.0233785
0.0908151
0.0338843
0.064778
0.0807437
0.0056271
0.0948362
0.0303945
0.0445771
0.0556995
0.0441963
0.0443819
0.0417937
0.0493983
0.0184026
-0.0492661
0.0435276
0.163475
0.0427311
0.0371197
0.00984669
0.0291276
0.0321235
0.0415138
0.00701973
0.0116659
0.249211
0.0435988
0.00877833
0.0348443
0.0133661
0.0442402
0.0438222
0.148455
0.0230003
0.0311048
-0.118021
0.0257646
0.037814
0.134721
0.0148397
0.118679
0.0507232
0.0181862
0.0349929
0.0416646
-0.0280002
0.00682201
0.0191439
0.0318278
0.043006
0.00589257
0.00554267
-0.000913668
0.0365926
0.0356207
0.414568
-0.037904
0.0426691
-0.0136704
0.0202693
-0.103019
0.0434566
0.0307541
0.0313098
0.0434272
0.00355629
0.0269985
0.0490546
-3.27624e-05
-0.022973
-0.00148003
0.0517067
0.0228088
0.0442954
0.0401736
-0.0244508
0.0806193
0.0285111
0.0066705
0.145052
0.0236211
0.0194249
0.0206738
0.00707539
-0.0277424
0.0416815
0.0211449
0.0162705
0.0901718
0.275384
0.0127117
0.0336915
0.0213268
0.0434515
0.0906865
0.0302617
0.00873837
0.0433438
0.033818
0.00617477
0.0134448
0.146668
0.0101864
0.0288243
0.0284686
0.0496203
0.00305929
0.0258832
0.0722809
0.0559068
0.0518145
0.0100594
0.0344214
0.0393111
0.035877
0.0438133
0.00605803
0.0598394
0.0284386
-0.00435214
-0.0447476
0.0385833
0.0280862
0.0163994
0.0233142
0.0436001
0.0975056
0.0965554
0.0706545
0.044222
0.226026
0.0065909
0.0520888
0.0875897
0.0429196
0.0531462
0.0313967
0.0255253
0.0533027
-0.100483
0.0453153
0.055723
0.0399573
-0.011947
-0.0302077
-0.000511999
0.0598238
0.00897002
0.0442643
0.0282781
0.0718269
0.0453513
0.147695
0.0170822
0.0268333
0.00798758
0.0630521
0.0214179
0.0364845
0.0431503
0.0432999
0.0449989
0.0598418
0.122017
0.0162799
0.144875
0.0815432
0.0870744
0.0460558
0.0664134
0.00685162
0.0436957
-0.0249831
-0.0198508
0.0474478
0.0435356
0.0365794
0.0413186
0.0432867
0.0616775
0.0327545
0.129437
0.0162417
0.0341334
0.0862475
-0.0109875
0.00543735
0.0845689
0.0134391
0.0234586
0.0684833
0.0430068
0.0589001
0.0272406
0.119923
0.12728
0.217771
0.043337
0.124652
0.0315943
0.0306641
0.10252
0.104961
0.098089
-0.0247022
0.0204487
0.0661273
0.0209848
0.0366822
0.0442855
0.0886965
0.0428969
0.0167625
-0.0295446
0.0555687
-0.0255553
0.0425155
0.0815653
0.0505338
0.029835
0.100201
0.161694
0.0207397
0.0404381
0.0173656
0.032307
0.0700104
5.42342e-05
0.0796495
-0.00242049
0.0433557
0.0208892
-0.139359
0.0974196
0.0340354
-0.0418482
0.00985626
0.0392733
0.042133
0.102729
0.0909605
0.0325249
0.0553073
0.0455739
0.0057302
0.0406106
0.00402767
0.0786778
0.0344706
0.139635
0.0433522
0.040783
0.00349114
0.0352727
0.0356301
0.06286
0.0526866
0.0289174
0.165146
0.105424
0.0431157
0.00526594
0.0398429
0.0430604
0.13129
0.0431056
0.0216299
0.0242698
0.0428353
0.0430651
0.0482178
0.00747636
0.0579209
0.095499
0.0273564
0.127843
0.0314395
0.0320709
0.0357346
0.0760712
0.043635
0.0373971
0.0351171
0.0260744
-0.0222832
0.00937529
0.0629575
0.0430968
0.0523333
0.0304894
0.0398894
0.0576041
0.0219235
0.104015
0.0311201
0.0430944
0.00839584
0.0842353
0.00725074
0.0433687
0.133062
-0.0231615
0.0413154
0.095688
0.00584013
0.0485239
0.0943403
0.0032254
0.0867187
0.111565
0.0039694
0.0461649
0.0762394
0.0737202
0.0135851
0.0402469
0.0302985
0.0433035
0.0439124
0.0430469
0.0139708
0.0172298
0.0199574
0.079979
-0.0650849
0.166803
-0.064803
0.0269707
0.0421342
-0.0434601
0.0489959
-0.0971772
0.0319095
0.0225386
0.0186936
0.02788
0.0623741
0.03735
0.0314016
0.0498818
0.0433244
0.0750688
-0.0394241
0.0143539
0.00645994
0.0176386
0.0482048
0.0269662
0.0164419
0.0501033
0.0236902
0.0359803
0.116664
0.0833686
0.0785286
0.0905452
-0.00185188
-6.13685e-05
0.005909
0.0228189
-0.00503194
0.0153534
0.0557321
0.0420509
0.128755
0.0709162
0.0068766
0.043888
0.0932336
0.124881
0.0713936
0.0768643
0.0530457
0.0169308
0.111968
0.0283351
0.0231781
0.0326845
0.0318243
0.0424634
0.0276282
0.0287277
0.0498035
0.0203329
0.0291055
0.0397652
0.102002
0.0405188
0.0398107
0.0729392
0.052457
0.0427306
0.0465183
0.00235164
0.016219
0.0444143
0.0692287
-0.0536505
0.00653517
0.0520762
0.019688
-0.0199445
-0.0410217
-0.00584628
0.0322119
0.0329709
0.050676
0.0320325
0.0250798
-0.000269778
-0.00134666
0.00281642
0.000909894
0.0331783
0.0420462
0.0417208
0.127198
0.0584655
0.0336893
0.0358289
-0.000338673
0.0411066
0.0265269
0.147267
0.0843962
0.0111465
0.0496073
0.0165183
0.0428765
0.00834413
0.00069668
0.0271723
0.0430181
0.0555606
0.164254
0.0375978
0.0861529
-0.0172469
0.0434472
0.0331958
0.0916758
0.0988658
0.0673465
0.0447719
0.0406806
0.0418237
0.0441474
0.0431269
0.0389188
0.00726851
0.042974
0.0528668
0.0491453
-0.32687
0.116551
0.0419309
0.0433294
0.0105609
0.017108
0.0230266
0.0740678
0.0180057
0.0422777
0.0381604
0.00481368
0.0440498
0.0144779
0.0906932
0.0683599
0.0412959
0.0127754
0.0437474
0.0373093
0.0355595
0.0376019
-0.00311166
0.0568418
0.0334002
0.0320048
0.108352
0.0786667
0.0428389
0.0435008
0.0343718
0.0311082
0.0144169
0.0203784
0.0378749
0.00745135
0.0771592
0.0441889
0.0354019
0.00618752
0.0365902
0.0822505
0.0602869
0.047162
0.148874
0.0218738
0.123455
0.138091
0.027012
-0.0026315
0.000137624
0.123664
0.0365392
0.00632241
0.0715752
0.0343845
0.0226029
0.0877116
0.0692344
0.0468481
0.0028168
0.0307134
0.0275271
0.0384158
0.00633764
0.0456274
0.0774878
0.0454039
0.0545635
0.0831167
0.0504635
0.0378635
0.103794
0.00757141
0.0886098
0.0281364
0.0691418
0.00862472
0.058548
0.0120253
0.0450067
0.0297962
0.00961281
0.0643312
0.0266412
0.044953
0.0396891
0.0158464
0.044102
0.0333613
0.053256
0.0346289
0.0222513
-0.00124374
0.0930492
0.101798
0.0981431
0.0388109
0.03696
0.0337051
0.0192088
0.0279617
0.0438618
0.0502925
0.0671178
0.0240562
0.0558569
0.00482995
0.0302578
0.0538817
0.031732
0.0311879
0.0417492
0.0293735
0.0354757
0.131958
0.25716
0.0223302
0.0264683
0.0285899
0.031503
0.0363557
0.0348284
0.0321995
0.0226638
0.013802
0.0416929
0.04331
0.0420508
0.00644743
0.0434449
0.0288191
0.0385769
0.0299975
0.0563536
0.0325519
0.120691
-0.00734943
0.0429225
0.0339891
0.0882418
0.0391263
0.0577302
0.0878917
0.0489641
0.0432824
0.0291878
0.00628733
0.0843412
0.00351641
0.112707
0.0813488
0.00383808
0.0595319
0.0656203
0.0115001
0.0402581
0.0437137
0.0449292
0.0345524
0.0427032
0.0310941
-0.0391734
0.0416213
0.0769142
0.0404538
0.0586263
0.059371
0.159072
0.0503625
0.0394645
0.00559545
0.0143667
0.0841303
0.0302978
0.0806527
0.044846
0.0357067
0.0618398
0.0432645
0.0316648
0.0441969
0.0448877
0.030488
0.0426708
0.0330563
0.058858
0.0784926
0.0151372
0.0423404
0.00713009
0.00142445
0.0646241
0.058852
0.046516
0.065197
0.129741
0.0432912
0.0384189
0.0431014
0.0574711
0.0363077
0.0338392
0.0365189
0.0707319
0.080584
0.0313098
0.0764312
0.0873501
0.0567829
0.105955
0.0545229
0.0758545
0.0269687
0.0397278
0.0220101
0.0443009
0.0616639
0.0452802
0.0803267
0.00208093
0.05176
-0.0126891
0.0399466
0.0262298
0.115244
0.00793039
0.0432651
0.0428713
0.00486702
0.104852
0.0265846
0.0287653
0.0165854
0.0423573
0.0799003
0.0355396
0.0412912
0.0343031
0.00880665
0.0385103
0.0378607
0.388091
0.0364457
0.0453333
0.055749
0.0613127
0.0400144
0.0306741
0.0433233
0.0996225
0.0414363
0.0433024
0.0143373
0.034857
0.0284374
0.0389144
0.0596957
0.038152
0.0413929
0.0407904
0.0325201
0.0772504
0.0433531
0.036502
0.054859
0.042811
0.0366907
0.0504941
0.0513229
0.056158
0.0565333
0.043439
0.0401559
0.0468054
0.0282942
-0.00163396
-0.000738719
0.143759
0.0714774
-0.00977436
0.0298881
0.0429039
0.0466806
0.0548124
0.0708752
0.0438433
0.0271253
0.0733574
0.0540566
0.0255794
-0.0100621
0.0212421
0.0426933
0.0353707
0.0431575
0.0912505
0.230117
0.0366036
0.0538927
0.0415271
0.00677009
0.0428828
0.0693923
0.0271121
0.0415922
0.0440285
0.0321443
0.0940989
0.0368469
0.0531889
0.0252521
0.039603
0.0403086
0.0849574
0.0578494
0.0373032
0.0459863
0.0363579
0.0500783
0.0357319
0.0437428
0.0373576
0.0429454
0.0503515
0.0113046
0.0652262
0.0167721
0.0710343
0.0706238
0.0484451
0.03621
0.033712
0.0741761
0.0893394
0.0104779
0.038178
0.055409
0.0546282
0.0378722
0.0417083
0.0405047
0.0358916
0.0274239
0.0274523
0.0398452
0.0146509
0.0364874
0.07586
0.0383997
0.0401488
0.0380503
0.0234237
0.0810522
0.0501693
-0.000686388
0.0363452
0.0374703
0.0108126
0.0468354
0.000764066
0.0461974
0.0379944
0.0433976
0.0423721
0.0444887
0.0392114
0.00501906
0.0433185
0.0208331
0.0690444
0.046301
0.0546383
0.03213
0.0935164
0.057164
0.0438585
0.0333597
-0.0663135
0.0435122
0.00589643
-0.0803237
0.0624606
0.0824152
0.0479003
0.0387437
0.0290047
0.0683902
0.0551543
0.0440124
0.0896012
0.0111021
0.079024
0.0433646
0.0425056
0.0403526
0.0407301
0.0412389
0.0627935
0.0746547
0.0430431
-0.00144626
0.0402458
0.0485644
0.0390738
0.0314228
0.000463647
0.0426465
0.0379164
0.0234552
0.0365446
0.0430943
0.0462936
0.124985
0.0713281
0.0439486
0.0594081
0.049643
0.0381524
0.0734544
0.0560718
0.0406774
0.0595508
0.0347294
0.0592242
0.0823654
0.00187493
0.0232397
0.0440635
0.0671498
0.0426535
0.0464667
0.0451605
0.0393926
0.00156971
0.000380532
0.0550293
0.0323959
0.0339512
0.0272778
0.0425291
0.0416199
0.0439644
0.0689879
0.0333827
0.0434104
0.0379776
0.0502335
0.0231425
0.0095704
0.0434644
0.042802
0.0345153
0.0443415
0.0419498
0.0396813
0.0412697
0.0369329
0.0624195
0.0582535
0.0329395
0.0412183
0.0485859
0.0561375
0.0378873
0.043339
0.0399227
0.0299602
0.00118969
0.00571596
0.034022
0.120536
0.0383401
-0.0591924
0.085933
0.0377361
0.0369477
0.0493466
0.0441963
0.0434736
0.0523604
0.053193
0.0378199
0.0455372
0.0423181
0.0941202
0.00553291
0.0323566
0.0436378
0.0507509
0.0589012
0.0669805
0.0313928
0.0462539
0.0432451
0.0413937
0.0386552
0.0285096
0.0260009
0.00535418
0.0584115
0.0417098
0.0365803
0.0525213
0.049032
0.0479491
0.0401725
0.0542511
0.0434393
0.0153029
-0.00248423
0.0422492
0.0631389
0.0374184
0.0408058
0.0419125
0.0450992
-0.0485007
0.0599164
-0.000152277
0.0400416
0.00909054
0.0478388
0.0684045
0.125588
0.0511269
0.0436903
0.0296262
0.0238009
0.108595
0.036718
0.0633815
0.0410965
0.0428463
0.0623843
0.0405883
0.119362
0.000287408
0.0760652
0.0473874
0.0432007
0.0433991
0.0427568
-0.0263008
0.036089
0.0426887
0.0515433
0.0411979
0.0428833
0.0424757
0.0106862
0.00353148
0.0497876
0.0424767
0.0787881
0.0518675
0.0990491
0.378879
0.0218284
0.0402048
0.0712633