/*--------------------------------*- C++ -*----------------------------------*\
  =========                 |
  \\      /  F ield         | OpenFOAM: The Open Source CFD Toolbox
   \\    /   O peration     | Website:  https://openfoam.org
    \\  /    A nd           | Version:  7
     \\/     M anipulation  |
\*---------------------------------------------------------------------------*/
FoamFile
{
    version     2.0;
    format      ascii;
    class       volScalarField;
    location    "80";
    object      p;
}
// * * * * * * * * * * * * * * * * * * * * * * * * * * * * * * * * * * * * * //

dimensions      [0 2 -2 0 0 0 0];

internalField   nonuniform List<scalar> 
41600
(
-0.341018
-0.346225
-0.351502
-0.351944
-0.352764
-0.355495
-0.366232
-0.378193
-0.378128
-0.356637
-0.317448
-0.272616
-0.232965
-0.205221
-0.193086
-0.196254
-0.205759
-0.207612
-0.192439
-0.168516
-0.143598
-0.12446
-0.113114
-0.110805
-0.114984
-0.343547
-0.349524
-0.355828
-0.35658
-0.355645
-0.353985
-0.358111
-0.363152
-0.358442
-0.336208
-0.299796
-0.259939
-0.226248
-0.204841
-0.200199
-0.211147
-0.225427
-0.227753
-0.207051
-0.177546
-0.147032
-0.122373
-0.1068
-0.0999958
-0.0994548
-0.346219
-0.352933
-0.360323
-0.361393
-0.358655
-0.352462
-0.349772
-0.347633
-0.337946
-0.31456
-0.280558
-0.245364
-0.217458
-0.2026
-0.206041
-0.225254
-0.243921
-0.244953
-0.219344
-0.184355
-0.148881
-0.119471
-0.100241
-0.0899554
-0.0857543
-0.349031
-0.356444
-0.36498
-0.366375
-0.361797
-0.350962
-0.34131
-0.331796
-0.316842
-0.291887
-0.259859
-0.228902
-0.206526
-0.198435
-0.210488
-0.238165
-0.260632
-0.259793
-0.22903
-0.188866
-0.149121
-0.115959
-0.0936969
-0.0807974
-0.0740713
-0.351981
-0.360051
-0.36979
-0.371514
-0.365065
-0.349512
-0.332817
-0.315803
-0.295338
-0.26839
-0.237858
-0.210615
-0.193488
-0.192376
-0.213458
-0.249443
-0.274939
-0.27167
-0.235846
-0.191092
-0.147809
-0.111982
-0.0873878
-0.0725143
-0.0642026
-0.355064
-0.363743
-0.374736
-0.376789
-0.368445
-0.348132
-0.324378
-0.299819
-0.273654
-0.244307
-0.214735
-0.190655
-0.178505
-0.184555
-0.214886
-0.258672
-0.286306
-0.280106
-0.239621
-0.191117
-0.14509
-0.10763
-0.0814838
-0.0650477
-0.0558009
-0.358273
-0.367507
-0.3798
-0.382175
-0.371915
-0.346829
-0.316068
-0.284007
-0.252025
-0.219906
-0.190745
-0.169289
-0.161878
-0.175205
-0.214719
-0.265487
-0.294306
-0.284814
-0.240322
-0.189085
-0.141186
-0.102984
-0.0760739
-0.0583178
-0.0485432
-0.3616
-0.371331
-0.38496
-0.387639
-0.375443
-0.3456
-0.307953
-0.268529
-0.230705
-0.195548
-0.16625
-0.146918
-0.144034
-0.16465
-0.212915
-0.269582
-0.298609
-0.285685
-0.238065
-0.185187
-0.136361
-0.09815
-0.0711534
-0.052267
-0.0421983
-0.365036
-0.375199
-0.390188
-0.393142
-0.378987
-0.344434
-0.300088
-0.253538
-0.209957
-0.171569
-0.141703
-0.124072
-0.125509
-0.153271
-0.209458
-0.270725
-0.299028
-0.282783
-0.233099
-0.17966
-0.130881
-0.0932553
-0.0666479
-0.0468943
-0.0366085
-0.368567
-0.379091
-0.395456
-0.398641
-0.382501
-0.343308
-0.292516
-0.23918
-0.19005
-0.148363
-0.117627
-0.101382
-0.106918
-0.141476
-0.204388
-0.268806
-0.295557
-0.276349
-0.225786
-0.17279
-0.12498
-0.0884185
-0.0624595
-0.0422314
-0.0316517
-0.372183
-0.382991
-0.40073
-0.404086
-0.385928
-0.342193
-0.285271
-0.225587
-0.171251
-0.126349
-0.0945899
-0.0795336
-0.0889062
-0.129659
-0.197817
-0.263851
-0.288407
-0.266794
-0.216561
-0.164905
-0.11886
-0.0837233
-0.0585147
-0.0382694
-0.0272393
-0.375869
-0.386876
-0.405975
-0.409425
-0.389212
-0.341056
-0.27838
-0.212873
-0.153806
-0.105937
-0.0731607
-0.059206
-0.0720938
-0.118181
-0.189942
-0.256026
-0.277975
-0.254669
-0.205899
-0.156355
-0.112696
-0.0792171
-0.0548054
-0.0349123
-0.0233268
-0.37961
-0.390726
-0.411153
-0.414604
-0.392292
-0.339862
-0.271865
-0.201141
-0.137934
-0.0874832
-0.0538605
-0.0410064
-0.0570218
-0.107345
-0.181038
-0.245662
-0.264801
-0.240618
-0.194277
-0.147474
-0.10664
-0.0749244
-0.0513958
-0.0320217
-0.0199108
-0.38339
-0.39452
-0.416227
-0.419568
-0.395112
-0.338584
-0.265747
-0.190474
-0.123808
-0.0712794
-0.0371165
-0.0254155
-0.0441044
-0.0973959
-0.171414
-0.23323
-0.249546
-0.225322
-0.182152
-0.138561
-0.100802
-0.0708704
-0.0483595
-0.0295199
-0.0170001
-0.387194
-0.398235
-0.421158
-0.424262
-0.39762
-0.337206
-0.26004
-0.18094
-0.111523
-0.0575682
-0.0232443
-0.0127486
-0.0336021
-0.0885288
-0.161393
-0.219273
-0.232922
-0.209442
-0.169935
-0.129861
-0.0952413
-0.0671
-0.0457006
-0.0274307
-0.0145881
-0.391006
-0.401852
-0.425906
-0.428635
-0.399779
-0.335703
-0.254742
-0.172597
-0.101189
-0.0464457
-0.0123883
-0.00314492
-0.0256213
-0.0808875
-0.151246
-0.204365
-0.215625
-0.193565
-0.157974
-0.121557
-0.0899828
-0.0636682
-0.0433585
-0.025806
-0.0126579
-0.394809
-0.405349
-0.430435
-0.43264
-0.401551
-0.334052
-0.249896
-0.165467
-0.0928407
-0.0379441
-0.00455875
0.00340564
-0.0201314
-0.0745499
-0.141261
-0.189052
-0.198302
-0.178178
-0.146541
-0.113767
-0.0850493
-0.0606023
-0.0412816
-0.0246358
-0.0112046
-0.39859
-0.408708
-0.434708
-0.436235
-0.402894
-0.332271
-0.245523
-0.159562
-0.0864616
-0.0320059
0.000351442
0.00703316
-0.0169814
-0.0695607
-0.131555
-0.173832
-0.181509
-0.163647
-0.135834
-0.106552
-0.0804696
-0.0578843
-0.0394664
-0.023842
-0.0102314
-0.402332
-0.411911
-0.438692
-0.439382
-0.403799
-0.330373
-0.24164
-0.154868
-0.0819823
-0.0284885
0.00255098
0.0080003
-0.015907
-0.0656608
-0.122223
-0.159148
-0.165693
-0.150218
-0.125971
-0.0999366
-0.0762656
-0.0554714
-0.0379289
-0.0233267
-0.00972703
-0.406023
-0.414945
-0.442354
-0.442054
-0.404254
-0.328369
-0.238254
-0.151342
-0.0792798
-0.0271752
0.0023382
0.00668049
-0.0165154
-0.0627016
-0.113377
-0.145382
-0.151171
-0.138028
-0.117005
-0.0939162
-0.0724418
-0.0533224
-0.0366687
-0.023012
-0.00965348
-0.409652
-0.417795
-0.445665
-0.444227
-0.404252
-0.326277
-0.235363
-0.148916
-0.0781859
-0.0277911
8.69457e-05
0.00354346
-0.0184024
-0.0604711
-0.105175
-0.132832
-0.138122
-0.12712
-0.108937
-0.08847
-0.0689866
-0.0514047
-0.0356645
-0.0228513
-0.0099441
-0.413207
-0.420451
-0.448605
-0.445887
-0.4038
-0.324116
-0.232951
-0.147495
-0.0784995
-0.0300245
-0.00378305
-0.000916644
-0.0211814
-0.0588265
-0.0977944
-0.121681
-0.126603
-0.117464
-0.101731
-0.0835661
-0.0658792
-0.0496936
-0.0348833
-0.0228171
-0.0105179
-0.416681
-0.4229
-0.451154
-0.447031
-0.40291
-0.321902
-0.23099
-0.146967
-0.0800008
-0.033551
-0.00884976
-0.00625553
-0.0245389
-0.0576987
-0.0913643
-0.111988
-0.11657
-0.108982
-0.0953282
-0.0791666
-0.0630937
-0.0481695
-0.0342885
-0.0228919
-0.0112939
-0.420068
-0.425143
-0.453292
-0.447662
-0.401599
-0.319648
-0.229444
-0.147207
-0.0824658
-0.0380555
-0.0147291
-0.0121141
-0.0282416
-0.0570513
-0.0859307
-0.103704
-0.107915
-0.101574
-0.0896615
-0.0752317
-0.0606022
-0.0468161
-0.0338445
-0.0230604
-0.0122007
-0.423363
-0.427196
-0.454998
-0.447792
-0.39989
-0.317366
-0.228266
-0.148086
-0.085678
-0.0432503
-0.0210979
-0.0182193
-0.0321215
-0.0568443
-0.0814579
-0.0967115
-0.100497
-0.095126
-0.0846601
-0.0717212
-0.0583768
-0.0456187
-0.0335195
-0.0233076
-0.0131803
-0.426565
-0.429026
-0.456282
-0.44744
-0.397809
-0.315063
-0.227405
-0.149475
-0.0894369
-0.0488851
-0.0276994
-0.0243701
-0.0360571
-0.0570221
-0.0778571
-0.0908614
-0.0941673
-0.0895297
-0.0802552
-0.0685962
-0.0563912
-0.0445636
-0.0332869
-0.0236176
-0.0141884
-0.429675
-0.430639
-0.457143
-0.446628
-0.395386
-0.312747
-0.22681
-0.151254
-0.0935647
-0.0547522
-0.0343379
-0.0304231
-0.0399621
-0.0575196
-0.0750158
-0.0859994
-0.0887829
-0.0846816
-0.076382
-0.0658198
-0.0546208
-0.0436375
-0.0331247
-0.0239751
-0.015193
-0.432699
-0.432041
-0.457587
-0.445382
-0.392656
-0.31042
-0.226427
-0.15331
-0.0979084
-0.0606854
-0.0408694
-0.0362804
-0.0437759
-0.0582701
-0.0728183
-0.0819798
-0.084213
-0.0804876
-0.0729813
-0.063357
-0.0530436
-0.0428272
-0.0330156
-0.0243652
-0.016172
-0.435644
-0.433233
-0.457632
-0.443729
-0.389654
-0.308083
-0.226205
-0.155545
-0.102341
-0.0665562
-0.0471919
-0.0418781
-0.0474575
-0.0592123
-0.0711566
-0.078672
-0.0803413
-0.0768637
-0.0699991
-0.0611755
-0.0516398
-0.0421201
-0.0329461
-0.0247746
-0.0171111
-0.438519
-0.434214
-0.457308
-0.441691
-0.386416
-0.305737
-0.226097
-0.157873
-0.106759
-0.0722684
-0.0532366
-0.0471779
-0.0509802
-0.0602926
-0.0699352
-0.0759618
-0.0770662
-0.0737354
-0.0673868
-0.0592456
-0.0503917
-0.041504
-0.0329059
-0.0251916
-0.0180011
-0.441324
-0.434989
-0.456652
-0.439292
-0.38298
-0.303381
-0.22606
-0.160223
-0.111084
-0.0777529
-0.0589599
-0.0521598
-0.0543274
-0.0614656
-0.0690717
-0.0737516
-0.0742999
-0.0710372
-0.0651009
-0.0575399
-0.0492833
-0.0409673
-0.0328871
-0.0256063
-0.0188362
-0.444085
-0.435548
-0.455714
-0.43655
-0.379382
-0.301012
-0.226058
-0.162535
-0.115252
-0.0829623
-0.0643368
-0.056816
-0.0574897
-0.0626942
-0.0684963
-0.0719581
-0.0719665
-0.0687117
-0.0631026
-0.0560334
-0.0483002
-0.0404992
-0.0328837
-0.0260108
-0.0196116
-0.446816
-0.43589
-0.454547
-0.433486
-0.375655
-0.29863
-0.226057
-0.164764
-0.11922
-0.0878659
-0.0693561
-0.0611474
-0.060463
-0.0639482
-0.0681505
-0.0705108
-0.070001
-0.0667087
-0.0613572
-0.0547034
-0.0474291
-0.0400901
-0.032891
-0.026399
-0.0203242
-0.449522
-0.436018
-0.453206
-0.430121
-0.37183
-0.296234
-0.226032
-0.166874
-0.122956
-0.0924465
-0.0740161
-0.0651606
-0.0632466
-0.0652032
-0.0679854
-0.0693501
-0.0683474
-0.0649841
-0.0598336
-0.0535294
-0.0466585
-0.039731
-0.0329049
-0.0267665
-0.0209731
-0.45221
-0.435934
-0.451743
-0.426481
-0.367934
-0.293821
-0.22596
-0.168836
-0.12644
-0.0966963
-0.0783218
-0.0688654
-0.0658424
-0.06644
-0.0679605
-0.0684259
-0.0669578
-0.0634997
-0.058504
-0.0524927
-0.0459775
-0.0394136
-0.0329221
-0.02711
-0.0215572
-0.454882
-0.435647
-0.450198
-0.422598
-0.363989
-0.291392
-0.225824
-0.170633
-0.12966
-0.100615
-0.0822828
-0.072274
-0.0682537
-0.0676432
-0.068042
-0.0676956
-0.0657908
-0.062222
-0.0573434
-0.051577
-0.0453767
-0.0391302
-0.0329414
-0.0274258
-0.0220669
-0.457529
-0.435172
-0.448598
-0.418508
-0.360015
-0.288946
-0.225612
-0.172252
-0.132611
-0.104207
-0.0859113
-0.0753993
-0.070485
-0.0688008
-0.0682017
-0.0671231
-0.0648107
-0.0611217
-0.0563292
-0.0507678
-0.0448465
-0.0388743
-0.0329661
-0.0277087
-0.0224779
-0.460134
-0.43453
-0.446949
-0.41425
-0.356025
-0.286482
-0.225314
-0.173684
-0.135291
-0.107481
-0.0892213
-0.0782551
-0.0725415
-0.0699032
-0.0684164
-0.0666781
-0.0639869
-0.0601729
-0.0554414
-0.0500523
-0.0443773
-0.0386419
-0.0330028
-0.0279509
-0.0227705
-0.46267
-0.433754
-0.445236
-0.409865
-0.352034
-0.284001
-0.224923
-0.174926
-0.137705
-0.110448
-0.0922276
-0.0808546
-0.0744286
-0.0709433
-0.0686667
-0.0663345
-0.0632931
-0.059353
-0.0546622
-0.0494191
-0.0439597
-0.0384319
-0.0330553
-0.0281443
-0.022994
-0.465101
-0.432883
-0.443429
-0.405392
-0.348049
-0.281502
-0.224434
-0.175977
-0.13986
-0.11312
-0.0949454
-0.0832112
-0.0761522
-0.0719154
-0.0689365
-0.0660703
-0.0627064
-0.058642
-0.0539758
-0.0488573
-0.0435847
-0.0382454
-0.0331158
-0.0282901
-0.0233254
-0.467384
-0.43197
-0.441485
-0.400866
-0.344079
-0.278986
-0.223845
-0.176839
-0.141762
-0.115509
-0.0973895
-0.0853375
-0.077718
-0.0728152
-0.0692123
-0.0658667
-0.0622071
-0.058022
-0.0533682
-0.0483565
-0.0432452
-0.0380821
-0.0331688
-0.0284175
-0.0239236
-0.469474
-0.431075
-0.439358
-0.396316
-0.340128
-0.276452
-0.223155
-0.177516
-0.14342
-0.117629
-0.0995743
-0.0872456
-0.0791316
-0.0736398
-0.069483
-0.0657076
-0.061778
-0.0574774
-0.052827
-0.0479069
-0.0429356
-0.0379375
-0.0332096
-0.028596
-0.0244684
-0.471329
-0.43027
-0.437008
-0.391767
-0.336202
-0.273898
-0.222364
-0.178011
-0.144845
-0.119493
-0.101514
-0.0889467
-0.0803986
-0.0743869
-0.0697392
-0.0655793
-0.0614043
-0.0569945
-0.0523411
-0.0474997
-0.0426509
-0.0378052
-0.0332434
-0.0287901
-0.0248813
-0.472912
-0.42963
-0.434408
-0.387235
-0.332305
-0.271326
-0.221473
-0.178332
-0.146046
-0.121114
-0.103222
-0.0904518
-0.0815244
-0.0750549
-0.0699731
-0.0654702
-0.0610731
-0.0565611
-0.0519006
-0.0471271
-0.042386
-0.0376805
-0.0332672
-0.0289734
-0.0252175
-0.474195
-0.429231
-0.431547
-0.382734
-0.328438
-0.268733
-0.220484
-0.178483
-0.147035
-0.122505
-0.10471
-0.0917709
-0.0825143
-0.0756431
-0.0701783
-0.0653701
-0.0607731
-0.0561665
-0.0514964
-0.0467819
-0.0421361
-0.0375584
-0.0332792
-0.0291321
-0.0254906
-0.475161
-0.429142
-0.428432
-0.378272
-0.324605
-0.266119
-0.219399
-0.178471
-0.147819
-0.123678
-0.105991
-0.0929135
-0.0833732
-0.0761509
-0.0703495
-0.0652707
-0.0604946
-0.0558013
-0.0511207
-0.0464577
-0.0418967
-0.0374353
-0.0332765
-0.02926
-0.025718
-0.475799
-0.429419
-0.425086
-0.37385
-0.320807
-0.263482
-0.21822
-0.178302
-0.148411
-0.124644
-0.107076
-0.0938884
-0.0841061
-0.0765785
-0.0704823
-0.0651645
-0.060229
-0.0554573
-0.0507661
-0.0461487
-0.0416637
-0.0373081
-0.0332572
-0.029357
-0.0259051
-0.476108
-0.430091
-0.421546
-0.36947
-0.317046
-0.260823
-0.216949
-0.177984
-0.148818
-0.125414
-0.107975
-0.094704
-0.0847175
-0.0769261
-0.070573
-0.0650453
-0.059969
-0.0551271
-0.0504264
-0.0458497
-0.0414331
-0.0371739
-0.0332198
-0.0294237
-0.0260554
-0.476093
-0.431163
-0.417854
-0.365127
-0.31332
-0.258139
-0.215588
-0.177521
-0.14905
-0.125999
-0.108698
-0.0953679
-0.0852119
-0.0771941
-0.0706188
-0.0649078
-0.059708
-0.0548042
-0.0500958
-0.0455561
-0.0412018
-0.0370306
-0.0331633
-0.0294615
-0.0261714
-0.47576
-0.432602
-0.414056
-0.360818
-0.309631
-0.255428
-0.21414
-0.176921
-0.149115
-0.126407
-0.109254
-0.0958873
-0.0855933
-0.0773835
-0.0706172
-0.0647475
-0.0594406
-0.0544832
-0.0497692
-0.0452637
-0.0409665
-0.036876
-0.0330872
-0.0294717
-0.0262546
-0.475119
-0.434341
-0.410197
-0.356535
-0.305975
-0.252691
-0.212607
-0.176188
-0.149022
-0.126648
-0.109652
-0.0962691
-0.085866
-0.077495
-0.0705664
-0.0645606
-0.0591617
-0.0541589
-0.0494421
-0.0449688
-0.0407246
-0.0367086
-0.0329909
-0.0294554
-0.0263064
-0.474182
-0.436278
-0.406314
-0.352269
-0.302353
-0.249925
-0.210991
-0.175328
-0.148777
-0.126731
-0.1099
-0.0965195
-0.0860335
-0.0775297
-0.0704649
-0.0643438
-0.0588674
-0.053827
-0.0491105
-0.044668
-0.0404737
-0.0365266
-0.0328742
-0.0294133
-0.026328
-0.472967
-0.438285
-0.40244
-0.348011
-0.298759
-0.247128
-0.209293
-0.174348
-0.148389
-0.126663
-0.110004
-0.0966443
-0.0860996
-0.0774888
-0.0703115
-0.0640943
-0.0585538
-0.0534838
-0.0487707
-0.0443585
-0.0402117
-0.036329
-0.0327368
-0.0293462
-0.0263206
-0.471495
-0.440212
-0.3986
-0.343753
-0.295191
-0.2443
-0.207517
-0.17325
-0.147863
-0.126451
-0.109973
-0.0966492
-0.0860678
-0.0773733
-0.0701056
-0.06381
-0.058218
-0.0531259
-0.0484198
-0.0440377
-0.0399366
-0.0361143
-0.0325784
-0.0292545
-0.026285
-0.469797
-0.441903
-0.394809
-0.339486
-0.291645
-0.241439
-0.205662
-0.17204
-0.147206
-0.126104
-0.109811
-0.0965391
-0.0859412
-0.0771847
-0.0698465
-0.0634888
-0.0578573
-0.0527504
-0.0480549
-0.0437032
-0.0396467
-0.0358816
-0.0323988
-0.0291387
-0.0262219
-0.467913
-0.443206
-0.391076
-0.335202
-0.288115
-0.238543
-0.203731
-0.170723
-0.146424
-0.125625
-0.109526
-0.0963189
-0.0857232
-0.0769242
-0.0695339
-0.0631293
-0.0574693
-0.0523548
-0.0476737
-0.0433531
-0.0393406
-0.03563
-0.0321979
-0.0289991
-0.0261321
-0.465898
-0.443988
-0.387403
-0.330893
-0.284597
-0.235611
-0.201725
-0.169301
-0.145522
-0.125023
-0.109123
-0.0959931
-0.0854165
-0.0765932
-0.0691677
-0.0627302
-0.0570522
-0.051937
-0.0472739
-0.0429856
-0.0390169
-0.0353587
-0.0319755
-0.0288359
-0.026016
-0.463815
-0.444143
-0.383787
-0.326555
-0.281085
-0.232642
-0.199645
-0.167779
-0.144505
-0.124302
-0.108606
-0.0955659
-0.0850241
-0.076193
-0.068748
-0.0622906
-0.0566044
-0.0514952
-0.0468538
-0.0425992
-0.0386744
-0.035067
-0.0317314
-0.0286494
-0.0258742
-0.461741
-0.443605
-0.380223
-0.322183
-0.277574
-0.229633
-0.197492
-0.166161
-0.143378
-0.123468
-0.107981
-0.0950413
-0.0845487
-0.075725
-0.0682748
-0.0618096
-0.0561245
-0.0510276
-0.0464118
-0.0421926
-0.0383122
-0.0347543
-0.0314656
-0.0284397
-0.025707
-0.459759
-0.442346
-0.376702
-0.317776
-0.274058
-0.226583
-0.195267
-0.164448
-0.142145
-0.122525
-0.107253
-0.094423
-0.0839929
-0.0751906
-0.0677485
-0.0612867
-0.0556115
-0.0505331
-0.0459466
-0.0417647
-0.0379293
-0.0344201
-0.031178
-0.0282069
-0.0255151
-0.457958
-0.440377
-0.373216
-0.313331
-0.270534
-0.223492
-0.192971
-0.162645
-0.14081
-0.121477
-0.106425
-0.0937145
-0.0833592
-0.0745912
-0.0671695
-0.0607216
-0.0550644
-0.0500104
-0.045457
-0.0413144
-0.037525
-0.034064
-0.0308685
-0.0279513
-0.0252988
-0.456422
-0.437743
-0.369756
-0.308849
-0.266995
-0.220357
-0.190604
-0.160754
-0.139377
-0.12033
-0.105501
-0.092919
-0.0826499
-0.0739282
-0.0665383
-0.0601141
-0.0544827
-0.0494588
-0.0449421
-0.040841
-0.0370987
-0.0336857
-0.0305371
-0.027673
-0.0250588
-0.455228
-0.434513
-0.366314
-0.30433
-0.263438
-0.217178
-0.188168
-0.158777
-0.137849
-0.119086
-0.104486
-0.0920398
-0.0818673
-0.073203
-0.0658554
-0.059464
-0.0538658
-0.0488773
-0.044401
-0.0403437
-0.0366497
-0.0332848
-0.0301838
-0.0273721
-0.0247956
-0.454443
-0.430774
-0.362882
-0.299775
-0.259856
-0.213953
-0.185663
-0.156716
-0.13623
-0.11775
-0.103382
-0.0910797
-0.0810137
-0.0724169
-0.0651216
-0.0587715
-0.0532133
-0.0482655
-0.0438332
-0.0398221
-0.0361776
-0.0328613
-0.0298086
-0.0270488
-0.0245096
-0.454119
-0.426614
-0.359453
-0.295186
-0.256248
-0.210681
-0.183088
-0.154575
-0.134522
-0.116325
-0.102193
-0.0900414
-0.080091
-0.0715714
-0.0643374
-0.0580366
-0.0525251
-0.047623
-0.0432382
-0.0392757
-0.0356822
-0.0324149
-0.0294115
-0.0267033
-0.0242013
-0.45429
-0.422123
-0.35602
-0.290563
-0.252607
-0.20736
-0.180446
-0.152355
-0.132729
-0.114814
-0.100921
-0.0889277
-0.0791013
-0.0706677
-0.0635037
-0.0572597
-0.0518009
-0.0469494
-0.0426155
-0.0387042
-0.035163
-0.0319456
-0.0289925
-0.0263356
-0.023871
-0.454973
-0.41738
-0.352577
-0.285908
-0.24893
-0.20399
-0.177736
-0.150057
-0.130853
-0.113219
-0.0995705
-0.0877411
-0.0780465
-0.0697074
-0.0626212
-0.056441
-0.051041
-0.0462445
-0.041965
-0.0381072
-0.03462
-0.0314535
-0.0285517
-0.0259458
-0.0235192
-0.456168
-0.412454
-0.349117
-0.28122
-0.245214
-0.200569
-0.174958
-0.147684
-0.128897
-0.111545
-0.0981431
-0.0864838
-0.0769286
-0.0686915
-0.0616907
-0.055581
-0.0502453
-0.0455082
-0.0412864
-0.0374846
-0.0340529
-0.0309384
-0.0280892
-0.0255343
-0.0231463
-0.457863
-0.407401
-0.345632
-0.2765
-0.241455
-0.197096
-0.172113
-0.145236
-0.126862
-0.109793
-0.0966416
-0.0851581
-0.0757493
-0.0676217
-0.0607132
-0.0546802
-0.049414
-0.0447407
-0.0405797
-0.0368365
-0.0334618
-0.0304005
-0.027605
-0.025101
-0.0227526
-0.460028
-0.402262
-0.342116
-0.271747
-0.237649
-0.193569
-0.169201
-0.142716
-0.124751
-0.107966
-0.0950685
-0.0837663
-0.0745105
-0.066499
-0.0596895
-0.0537391
-0.0485475
-0.0439419
-0.039845
-0.0361626
-0.0328467
-0.0298398
-0.0270992
-0.0246463
-0.0223385
-0.462627
-0.397068
-0.33856
-0.26696
-0.233792
-0.189989
-0.166222
-0.140125
-0.122566
-0.106066
-0.0934259
-0.0823104
-0.0732137
-0.0653249
-0.0586205
-0.0527583
-0.047646
-0.043112
-0.0390823
-0.0354632
-0.0322075
-0.0292566
-0.026572
-0.0241704
-0.0219044
-0.465611
-0.39184
-0.334955
-0.262136
-0.229882
-0.186352
-0.163176
-0.137464
-0.120309
-0.104095
-0.0917162
-0.0807924
-0.0718607
-0.0641006
-0.0575072
-0.0517384
-0.0467101
-0.0422514
-0.0382918
-0.0347382
-0.0315446
-0.0286509
-0.0260236
-0.0236735
-0.0214506
-0.468926
-0.386589
-0.331294
-0.257275
-0.225914
-0.182659
-0.160064
-0.134735
-0.117982
-0.102056
-0.0899413
-0.0792142
-0.070453
-0.0628275
-0.0563505
-0.0506802
-0.0457401
-0.0413603
-0.0374737
-0.033988
-0.030858
-0.0280231
-0.0254541
-0.0231559
-0.0209774
-0.472512
-0.38132
-0.327565
-0.252372
-0.221886
-0.178908
-0.156885
-0.131937
-0.115586
-0.0999502
-0.0881033
-0.0775776
-0.0689923
-0.0615068
-0.0551515
-0.0495843
-0.0447366
-0.0404391
-0.0366283
-0.0332127
-0.0301479
-0.0273733
-0.0248637
-0.0226179
-0.020485
-0.476304
-0.376032
-0.32376
-0.247424
-0.217795
-0.175097
-0.153641
-0.129074
-0.113123
-0.0977799
-0.086204
-0.0758845
-0.0674802
-0.0601398
-0.0539111
-0.0484516
-0.0437001
-0.0394883
-0.0357559
-0.0324126
-0.0294147
-0.0267018
-0.0242528
-0.02206
-0.0199744
-0.480238
-0.370719
-0.319869
-0.242427
-0.213637
-0.171226
-0.15033
-0.126144
-0.110595
-0.0955468
-0.0842454
-0.0741367
-0.065918
-0.0587278
-0.0526303
-0.0472828
-0.0426313
-0.0385082
-0.034857
-0.031588
-0.0286586
-0.0260088
-0.0236213
-0.0214827
-0.0194465
-0.484243
-0.365374
-0.315879
-0.237378
-0.209409
-0.167293
-0.146953
-0.12315
-0.108003
-0.0932526
-0.0822291
-0.0723357
-0.0643074
-0.0572719
-0.0513102
-0.0460787
-0.0415308
-0.0374995
-0.033932
-0.0307394
-0.02788
-0.0252945
-0.0229694
-0.0208863
-0.0189025
-0.48825
-0.359984
-0.311782
-0.232272
-0.205109
-0.163296
-0.14351
-0.120093
-0.105348
-0.0908988
-0.0801571
-0.0704832
-0.0626498
-0.0557736
-0.0499519
-0.0448403
-0.0403993
-0.0364628
-0.0329813
-0.0298671
-0.0270792
-0.0245593
-0.0222974
-0.0202704
-0.0183411
-0.49219
-0.354537
-0.307567
-0.227104
-0.200734
-0.159236
-0.140003
-0.116972
-0.102634
-0.0884873
-0.0780309
-0.0685811
-0.0609466
-0.0542342
-0.0485561
-0.0435683
-0.0392377
-0.0353988
-0.0320054
-0.0289715
-0.0262566
-0.0238035
-0.0216062
-0.0196353
-0.0177566
-0.495996
-0.349017
-0.303222
-0.22187
-0.196281
-0.15511
-0.13643
-0.113789
-0.0998599
-0.0860197
-0.0758519
-0.0666312
-0.0591995
-0.052655
-0.0471241
-0.0422635
-0.0380467
-0.0343079
-0.0310052
-0.0280532
-0.0254126
-0.0230278
-0.0208971
-0.0189826
-0.0171402
-0.4996
-0.343408
-0.298738
-0.216564
-0.191747
-0.150917
-0.132794
-0.110544
-0.0970279
-0.0834981
-0.073621
-0.0646351
-0.0574099
-0.0510367
-0.0456573
-0.040927
-0.0368269
-0.0331904
-0.0299815
-0.0271128
-0.0245476
-0.0222325
-0.0201712
-0.0183152
-0.0164876
-0.502938
-0.337695
-0.294105
-0.211182
-0.187132
-0.146655
-0.129095
-0.107239
-0.0941374
-0.080924
-0.0713403
-0.0625939
-0.0555795
-0.0493798
-0.0441574
-0.0395596
-0.0355793
-0.0320473
-0.0289347
-0.0261508
-0.0236623
-0.0214188
-0.0194283
-0.017631
-0.0158119
-0.505946
-0.331861
-0.289313
-0.205718
-0.182434
-0.142323
-0.125331
-0.103877
-0.0911912
-0.0782957
-0.0690159
-0.060506
-0.0537103
-0.0476856
-0.0426257
-0.0381627
-0.0343047
-0.0308795
-0.0278653
-0.0251679
-0.0227574
-0.020588
-0.0186692
-0.0169143
-0.0151481
-0.508566
-0.325888
-0.284352
-0.200167
-0.177652
-0.13792
-0.121503
-0.100452
-0.0882009
-0.075606
-0.0666564
-0.0583695
-0.0518034
-0.0459564
-0.0410623
-0.0367379
-0.0330036
-0.0296888
-0.0267732
-0.0241645
-0.0218336
-0.0197407
-0.0178909
-0.0161759
-0.0144851
-0.510741
-0.319761
-0.279215
-0.194523
-0.172784
-0.133448
-0.117618
-0.0969501
-0.0851875
-0.0728483
-0.0642603
-0.0561914
-0.0498564
-0.044197
-0.0394662
-0.0352856
-0.0316772
-0.0284751
-0.0256596
-0.0231412
-0.0208918
-0.0188763
-0.0170932
-0.0154228
-0.0138131
-0.512417
-0.313463
-0.273894
-0.18878
-0.167825
-0.128898
-0.113698
-0.0933537
-0.0821549
-0.07004
-0.0618063
-0.0539847
-0.0478702
-0.0424061
-0.03784
-0.0338064
-0.0303264
-0.027239
-0.0245255
-0.0220987
-0.0199326
-0.0179949
-0.0162775
-0.0146574
-0.0131267
-0.513545
-0.306979
-0.268382
-0.182936
-0.162776
-0.124241
-0.109771
-0.0896795
-0.0790381
-0.0672301
-0.0592969
-0.0517459
-0.045849
-0.0405836
-0.0361857
-0.0323013
-0.0289523
-0.0259814
-0.0233718
-0.0210379
-0.0189564
-0.0170969
-0.0154455
-0.0138797
-0.0124246
-0.51408
-0.300294
-0.262673
-0.176986
-0.157663
-0.119444
-0.105816
-0.0859913
-0.0758304
-0.0643927
-0.0567429
-0.0494715
-0.0437955
-0.0387306
-0.0345046
-0.0307714
-0.0275559
-0.0247032
-0.0221992
-0.0199595
-0.0179639
-0.0161831
-0.0145986
-0.0130893
-0.0117071
-0.513979
-0.293393
-0.256761
-0.170913
-0.152542
-0.11452
-0.101754
-0.0823034
-0.0725544
-0.0615181
-0.0541505
-0.0471612
-0.0417115
-0.0368487
-0.0327978
-0.0292178
-0.026138
-0.0234053
-0.0210084
-0.0188643
-0.0169555
-0.0152541
-0.0137375
-0.0122857
-0.0109751
-0.513204
-0.286262
-0.250638
-0.164676
-0.147434
-0.109536
-0.0975563
-0.0785928
-0.0692246
-0.058602
-0.0515228
-0.0448164
-0.0395981
-0.0349392
-0.0310664
-0.0276418
-0.0246997
-0.0220886
-0.0198004
-0.0177531
-0.0159322
-0.0143109
-0.012863
-0.0114691
-0.0102298
-0.511723
-0.278888
-0.244305
-0.158243
-0.142191
-0.104621
-0.0932576
-0.0748458
-0.0658491
-0.0556444
-0.0488619
-0.0424389
-0.0374565
-0.0330038
-0.0293115
-0.0260444
-0.0232419
-0.0207542
-0.018576
-0.0166267
-0.0148947
-0.0133542
-0.0119755
-0.0106399
-0.00947193
-0.509506
-0.271262
-0.23778
-0.151666
-0.136804
-0.0997044
-0.0888783
-0.0710551
-0.0624325
-0.0526463
-0.046169
-0.0400304
-0.0352881
-0.0310437
-0.0275345
-0.0244268
-0.0217657
-0.0194028
-0.017336
-0.0154858
-0.0138436
-0.0123848
-0.0110755
-0.00979861
-0.00870248
-0.506526
-0.263376
-0.231104
-0.145017
-0.131198
-0.0947563
-0.0844314
-0.0672182
-0.0589775
-0.0496099
-0.0434454
-0.0375929
-0.033094
-0.0290605
-0.0257365
-0.0227903
-0.0202722
-0.0180356
-0.0160814
-0.0143313
-0.01278
-0.0114033
-0.0101638
-0.00894593
-0.00792218
-0.502763
-0.255219
-0.22428
-0.138245
-0.125432
-0.08976
-0.0799245
-0.0633344
-0.055486
-0.0465371
-0.0406925
-0.0351282
-0.0308758
-0.0270556
-0.0239187
-0.0211358
-0.0187624
-0.0166535
-0.014813
-0.0131642
-0.0117045
-0.0104106
-0.00924107
-0.00808257
-0.00713171
-0.498199
-0.246741
-0.217197
-0.131454
-0.119532
-0.0847075
-0.0753624
-0.0594046
-0.0519596
-0.0434302
-0.0379115
-0.0326379
-0.0286349
-0.0250302
-0.0220825
-0.0194647
-0.0172374
-0.0152575
-0.0135318
-0.0119851
-0.010618
-0.00940743
-0.00830795
-0.0072093
-0.00633176
-0.49282
-0.237851
-0.20991
-0.124643
-0.113516
-0.0795951
-0.0707487
-0.0554303
-0.0483997
-0.0402914
-0.0351041
-0.0301238
-0.0263727
-0.0229859
-0.0202292
-0.0177781
-0.0156983
-0.0138486
-0.0122388
-0.0107952
-0.00952133
-0.0083945
-0.00736525
-0.00632691
-0.00552297
-0.486618
-0.228534
-0.202466
-0.117769
-0.107394
-0.0744212
-0.0660861
-0.0514133
-0.0448079
-0.0371229
-0.0322717
-0.0275876
-0.0240908
-0.020924
-0.01836
-0.0160772
-0.0141462
-0.0124279
-0.0109349
-0.00959523
-0.00841541
-0.00737266
-0.0064138
-0.00543621
-0.00470603
-0.47959
-0.219077
-0.194643
-0.110813
-0.101171
-0.0691858
-0.0613769
-0.0473559
-0.0411857
-0.0339267
-0.029416
-0.025031
-0.0217907
-0.018846
-0.0164763
-0.0143632
-0.0125822
-0.0109963
-0.00962102
-0.00838619
-0.00730108
-0.00634272
-0.00545443
-0.00453807
-0.00388173
-0.471734
-0.209452
-0.186474
-0.103762
-0.0948544
-0.0638896
-0.0566234
-0.0432602
-0.0375349
-0.030705
-0.0265389
-0.0224556
-0.0194739
-0.0167533
-0.0145794
-0.0126374
-0.0110075
-0.00955506
-0.00829827
-0.00716901
-0.00617922
-0.00530554
-0.00448801
-0.00363339
-0.00305098
-0.463054
-0.199594
-0.178014
-0.0966114
-0.0884474
-0.0585344
-0.0518277
-0.0391289
-0.0338571
-0.02746
-0.0236419
-0.0198633
-0.0171421
-0.0146474
-0.0126706
-0.010901
-0.00942327
-0.0081051
-0.00696761
-0.00594464
-0.00505074
-0.00426198
-0.00351546
-0.00272315
-0.00221474
-0.453577
-0.189457
-0.169292
-0.0893579
-0.0819546
-0.0531221
-0.046992
-0.0349644
-0.0301543
-0.0241937
-0.0207271
-0.0172556
-0.0147969
-0.0125297
-0.0107513
-0.00915519
-0.00783059
-0.00664753
-0.00563004
-0.00471406
-0.00391655
-0.00321294
-0.00253772
-0.00180838
-0.00137385
-0.443365
-0.178975
-0.160324
-0.0820016
-0.0753798
-0.0476554
-0.0421187
-0.0307692
-0.0264286
-0.0209083
-0.0177962
-0.0146345
-0.0124399
-0.0104017
-0.00882292
-0.00740133
-0.00623065
-0.00518343
-0.0042866
-0.00347822
-0.00277757
-0.00215932
-0.00155582
-0.000890159
-0.000529014
-0.432469
-0.168107
-0.151121
-0.0745445
-0.0687272
-0.0421371
-0.0372102
-0.0265461
-0.0226821
-0.0176059
-0.0148513
-0.0120016
-0.0100726
-0.00826501
-0.00688679
-0.00564065
-0.00462462
-0.0037139
-0.00293831
-0.00223811
-0.00163472
-0.00110207
-0.000570765
3.04432e-05
0.000318977
-0.42076
-0.156989
-0.141695
-0.0669892
-0.0620007
-0.0365702
-0.0322691
-0.0222977
-0.018917
-0.0142887
-0.0118942
-0.00935877
-0.0076969
-0.00612102
-0.0049443
-0.00387443
-0.00301369
-0.00224003
-0.00158618
-0.000994706
-0.000488949
-4.20639e-05
0.000416493
0.000952335
0.00116873
-0.408029
-0.145836
-0.132058
-0.059339
-0.0552047
-0.0309581
-0.0272982
-0.0180269
-0.0151357
-0.010959
-0.00892695
-0.00670788
-0.0053143
-0.00397132
-0.00299687
-0.00210397
-0.00139904
-0.000762919
-0.000231274
0.000251015
0.000658827
0.0010198
0.00140503
0.00187435
0.00201814
-0.394489
-0.134512
-0.122219
-0.0515977
-0.0483436
-0.0253045
-0.0223005
-0.0137365
-0.0113404
-0.00761897
-0.00595163
-0.00405074
-0.00292654
-0.00181745
-0.0010459
-0.000330559
0.000218143
0.000716328
0.00112539
0.00149806
0.00180767
0.00208264
0.00239389
0.00279517
0.00286533
-0.380182
-0.122988
-0.112191
-0.0437695
-0.0414222
-0.0196131
-0.0172789
-0.00942947
-0.00753389
-0.00427096
-0.00297028
-0.00138925
-0.00053534
0.000339034
0.000907174
0.0014445
0.00183666
0.00219661
0.00248276
0.00274545
0.00295667
0.00314553
0.00338195
0.00371339
0.00371008
-0.365133
-0.111261
-0.101982
-0.0358593
-0.0344453
-0.013888
-0.0122368
-0.00510882
-0.00371855
-0.000917308
1.49924e-05
0.0012747
0.00185758
0.00249657
0.00286093
0.0032199
0.00345531
0.00367681
0.00383982
0.00399222
0.0041049
0.00420752
0.00436792
0.00462753
0.00455364
-0.349376
-0.0993315
-0.0916042
-0.0278726
-0.0274181
-0.00813311
-0.0071776
-0.000777624
0.000102929
0.00243961
0.00300204
0.0039392
0.00425048
0.00465357
0.00481392
0.00499433
0.00507289
0.00515584
0.00519553
0.00523742
0.00525151
0.00526773
0.00535058
0.00553603
0.00539484
-0.332941
-0.0872049
-0.0810685
-0.0198152
-0.0203461
-0.00235295
-0.00210477
0.00356096
0.00392782
0.00579738
0.00598871
0.00660229
0.00664159
0.00680844
0.0067647
0.00676648
0.00668821
0.00663258
0.00654889
0.00648016
0.0063957
0.00632538
0.00632892
0.00643674
0.00622553
-0.315863
-0.0748898
-0.0703865
-0.0116934
-0.013235
0.00344804
0.00297798
0.0079037
0.00775336
0.00915354
0.0089728
0.00926202
0.00902915
0.00895959
0.00871182
0.00853501
0.00830005
0.00810594
0.0078989
0.00771954
0.00753669
0.00737977
0.00730212
0.00732691
0.00703412
-0.298176
-0.0623967
-0.0595703
-0.00351412
-0.00609054
0.00926522
0.00806683
0.0122473