/*--------------------------------*- C++ -*----------------------------------*\
  =========                 |
  \\      /  F ield         | OpenFOAM: The Open Source CFD Toolbox
   \\    /   O peration     | Website:  https://openfoam.org
    \\  /    A nd           | Version:  7
     \\/     M anipulation  |
\*---------------------------------------------------------------------------*/
FoamFile
{
    version     2.0;
    format      ascii;
    class       volScalarField;
    location    "0.492";
    object      p;
}
// * * * * * * * * * * * * * * * * * * * * * * * * * * * * * * * * * * * * * //

dimensions      [0 2 -2 0 0 0 0];

internalField   nonuniform List<scalar> 
40000
(
1.00985e-05
0.000110067
0.000171352
0.000156027
4.99714e-05
-0.000151251
-0.000445489
-0.000826922
-0.00128811
-0.00182101
-0.00241749
-0.00306962
-0.00376975
-0.00451066
-0.00528553
-0.00608794
-0.0069119
-0.00775181
-0.00860243
-0.00945886
-0.0103166
-0.0111713
-0.012019
-0.0128562
-0.0136792
-0.0144851
-0.0152706
-0.0160332
-0.0167703
-0.0174794
-0.0181584
-0.0188053
-0.0194181
-0.0199953
-0.0205351
-0.0210361
-0.021497
-0.0219167
-0.022294
-0.0226279
-0.0229177
-0.0231625
-0.0233616
-0.0235145
-0.0236207
-0.0236797
-0.0236913
-0.0236552
-0.0235711
-0.023439
-0.0232588
-0.0230306
-0.0227544
-0.0224304
-0.0220588
-0.0216397
-0.0211736
-0.0206608
-0.0201016
-0.0194965
-0.0188461
-0.0181508
-0.0174113
-0.0166281
-0.015802
-0.0149335
-0.0140236
-0.0130729
-0.0120822
-0.0110524
-0.00998433
-0.00887893
-0.0077371
-0.00655982
-0.00534807
-0.00410286
-0.00282524
-0.00151627
-0.000177036
0.00119134
0.00258772
0.00401096
0.00545986
0.00693324
0.00842986
0.00994851
0.0114879
0.0130468
0.0146239
0.0162179
0.0178274
0.0194512
0.0210879
0.0227361
0.0243945
0.0260617
0.0277362
0.0294167
0.0311018
0.0327901
0.0344801
0.0361704
0.0378596
0.0395462
0.0412288
0.042906
0.0445763
0.0462382
0.0478904
0.0495313
0.0511596
0.0527738
0.0543725
0.0559543
0.0575178
0.0590615
0.0605841
0.0620842
0.0635605
0.0650115
0.0664361
0.0678327
0.0692003
0.0705374
0.0718429
0.0731155
0.0743541
0.0755574
0.0767243
0.0778537
0.0789445
0.0799958
0.0810063
0.0819753
0.0829018
0.0837848
0.0846236
0.0854173
0.0861652
0.0868666
0.0875208
0.0881272
0.0886853
0.0891947
0.0896547
0.0900652
0.0904258
0.0907362
0.0909963
0.0912061
0.0913654
0.0914743
0.0915329
0.0915416
0.0915005
0.09141
0.0912706
0.0910829
0.0908474
0.0905651
0.0902367
0.0898631
0.0894455
0.088985
0.0884829
0.0879407
0.0873599
0.0867421
0.0860892
0.0854031
0.084686
0.08394
0.0831677
0.0823716
0.0815545
0.0807194
0.0798694
0.0790079
0.0781385
0.077265
0.0763916
0.0755226
0.0746625
0.0738165
0.0729897
0.0721876
0.0714163
0.070682
0.0699914
0.0693514
0.0687693
0.0682528
0.0678094
0.0674465
0.0671708
0.0669871
0.0668963
0.0668927
0.0669592
0.067053
-7.49733e-05
1.8654e-05
5.49643e-05
1.83003e-05
-9.49374e-05
-0.000288933
-0.000563505
-0.000915046
-0.00133823
-0.00182686
-0.00237433
-0.00297394
-0.00361905
-0.00430325
-0.00502038
-0.00576458
-0.00653028
-0.00731225
-0.00810555
-0.00890555
-0.0097079
-0.0105085
-0.0113036
-0.0120895
-0.012863
-0.013621
-0.0143605
-0.0150788
-0.0157735
-0.0164421
-0.0170825
-0.0176928
-0.0182709
-0.0188154
-0.0193244
-0.0197967
-0.0202309
-0.0206257
-0.0209802
-0.0212932
-0.021564
-0.0217916
-0.0219756
-0.0221152
-0.0222099
-0.0222593
-0.022263
-0.0222208
-0.0221325
-0.0219979
-0.0218169
-0.0215895
-0.0213158
-0.0209959
-0.0206299
-0.0202181
-0.0197608
-0.0192583
-0.0187109
-0.018119
-0.0174832
-0.016804
-0.0160818
-0.0153174
-0.0145112
-0.0136641
-0.0127766
-0.0118496
-0.0108837
-0.00987989
-0.00883892
-0.00776166
-0.00664902
-0.00550193
-0.00432134
-0.00310824
-0.00186362
-0.000588537
0.000715966
0.00204881
0.00340888
0.00479506
0.0062062
0.00764114
0.00909868
0.0105776
0.0120768
0.0135949
0.0151307
0.0166829
0.0182502
0.0198314
0.0214251
0.02303
0.0246448
0.0262681
0.0278985
0.0295348
0.0311755
0.0328192
0.0344647
0.0361103
0.0377549
0.0393969
0.041035
0.0426678
0.0442938
0.0459117
0.04752
0.0491175
0.0507025
0.0522739
0.0538301
0.0553698
0.0568917
0.0583944
0.0598765
0.0613367
0.0627737
0.0641862
0.0655729
0.0669325
0.0682637
0.0695655
0.0708364
0.0720754
0.0732812
0.0744529
0.0755892
0.0766891
0.0777515
0.0787755
0.0797601
0.0807044
0.0816074
0.0824683
0.0832863
0.0840606
0.0847906
0.0854755
0.0861147
0.0867078
0.0872541
0.0877532
0.0882047
0.0886083
0.0889636
0.0892706
0.0895291
0.0897389
0.0899001
0.0900128
0.0900771
0.0900933
0.0900616
0.0899825
0.0898564
0.0896839
0.0894657
0.0892025
0.0888953
0.0885449
0.0881525
0.0877191
0.0872462
0.0867351
0.0861874
0.0856047
0.0849888
0.0843416
0.0836653
0.082962
0.0822342
0.0814843
0.0807151
0.0799295
0.0791306
0.0783215
0.077506
0.0766875
0.0758701
0.0750579
0.0742553
0.0734671
0.072698
0.0719534
0.0712388
0.0705597
0.0699224
0.0693328
0.0687974
0.0683224
0.0679141
0.0675779
0.0673186
0.0671389
0.0670382
0.0670112
0.067053
0.0671468
-0.000133272
-1.68197e-05
1.92662e-05
-2.34324e-05
-0.000137516
-0.000324917
-0.000585368
-0.000915827
-0.0013119
-0.00176842
-0.00227976
-0.00284007
-0.00344349
-0.00408423
-0.00475668
-0.00545543
-0.00617531
-0.00691142
-0.00765909
-0.00841392
-0.00917175
-0.00992868
-0.010681
-0.0114254
-0.0121585
-0.0128772
-0.0135789
-0.0142608
-0.0149205
-0.0155557
-0.0161642
-0.0167441
-0.0172935
-0.0178107
-0.0182942
-0.0187425
-0.0191543
-0.0195284
-0.0198637
-0.0201592
-0.020414
-0.0206274
-0.0207985
-0.0209269
-0.0210119
-0.0210532
-0.0210504
-0.021003
-0.0209111
-0.0207742
-0.0205925
-0.0203658
-0.0200942
-0.0197777
-0.0194166
-0.0190109
-0.018561
-0.0180672
-0.0175297
-0.0169491
-0.0163257
-0.01566
-0.0149526
-0.014204
-0.0134148
-0.0125856
-0.0117172
-0.0108103
-0.00986554
-0.00888377
-0.00786579
-0.00681244
-0.00572459
-0.00460315
-0.00344904
-0.00226322
-0.00104666
0.000199617
0.00147459
0.00277722
0.00410641
0.00546108
0.00684011
0.00824236
0.00966666
0.0111119
0.0125768
0.0140601
0.0155608
0.0170775
0.0186089
0.0201538
0.021711
0.023279
0.0248567
0.0264427
0.0280357
0.0296344
0.0312373
0.0328432
0.0344507
0.0360584
0.037665
0.0392692
0.0408694
0.0424645
0.0440529
0.0456334
0.0472045
0.048765
0.0503134
0.0518483
0.0533685
0.0548726
0.0563592
0.057827
0.0592748
0.0607012
0.0621049
0.0634847
0.0648392
0.0661674
0.0674679
0.0687396
0.0699813
0.0711918
0.07237
0.0735149
0.0746253
0.0757002
0.0767387
0.0777397
0.0787023
0.0796256
0.0805088
0.081351
0.0821514
0.0829094
0.0836243
0.0842953
0.084922
0.0855037
0.08604
0.0865305
0.0869748
0.0873726
0.0877237
0.0880277
0.0882848
0.0884947
0.0886576
0.0887734
0.0888425
0.0888649
0.0888411
0.0887715
0.0886566
0.0884968
0.088293
0.0880459
0.0877563
0.0874253
0.0870538
0.0866431
0.0861944
0.0857092
0.0851889
0.0846353
0.08405
0.083435
0.0827923
0.0821242
0.0814329
0.0807209
0.0799909
0.0792458
0.0784884
0.077722
0.07695
0.0761759
0.0754035
0.0746367
0.0738799
0.0731373
0.0724137
0.071714
0.0710432
0.0704066
0.0698096
0.0692578
0.0687569
0.0683121
0.0679289
0.0676117
0.0673646
0.0671897
0.0670867
0.0670529
0.0670947
0.0672134
-0.000117681
2.02148e-05
6.24057e-05
1.97389e-05
-9.2843e-05
-0.000274933
-0.000525404
-0.000841012
-0.00121763
-0.00165059
-0.00213486
-0.00266519
-0.00323628
-0.00384284
-0.00447973
-0.00514193
-0.00582461
-0.00652318
-0.00723323
-0.00795057
-0.00867126
-0.00939155
-0.0101079
-0.010817
-0.0115157
-0.0122011
-0.0128705
-0.0135212
-0.0141508
-0.0147571
-0.0153381
-0.0158916
-0.016416
-0.0169096
-0.0173708
-0.0177982
-0.0181904
-0.0185463
-0.0188649
-0.019145
-0.0193858
-0.0195865
-0.0197464
-0.0198649
-0.0199414
-0.0199755
-0.0199668
-0.019915
-0.0198198
-0.019681
-0.0194986
-0.0192725
-0.0190027
-0.0186893
-0.0183324
-0.0179322
-0.0174889
-0.0170028
-0.0164743
-0.0159036
-0.0152912
-0.0146376
-0.0139433
-0.0132089
-0.0124348
-0.0116217
-0.0107704
-0.00988135
-0.00895543
-0.00799336
-0.00699592
-0.00596394
-0.00489825
-0.00379975
-0.00266932
-0.0015079
-0.000316441
0.000904071
0.00215263
0.00342822
0.00472978
0.00605625
0.00740654
0.00877952
0.0101741
0.0115891
0.0130233
0.0144756
0.0159448
0.0174297
0.018929
0.0204415
0.0219659
0.023501
0.0250455
0.0265981
0.0281576
0.0297225
0.0312917
0.0328637
0.0344373
0.0360111
0.0375838
0.039154
0.0407205
0.0422818
0.0438367
0.0453837
0.0469216
0.048449
0.0499646
0.051467
0.052955
0.0544272
0.0558824
0.0573191
0.0587363
0.0601325
0.0615065
0.0628571
0.0641831
0.0654832
0.0667564
0.0680013
0.0692169
0.0704021
0.0715557
0.0726767
0.0737641
0.0748168
0.0758339
0.0768145
0.0777575
0.0786623
0.0795278
0.0803534
0.0811383
0.0818818
0.0825832
0.083242
0.0838575
0.0844292
0.0849567
0.0854396
0.0858775
0.0862701
0.0866173
0.0869188
0.0871746
0.0873846
0.0875489
0.0876675
0.0877407
0.0877687
0.0877519
0.0876906
0.0875854
0.0874368
0.0872456
0.0870125
0.0867383
0.0864241
0.0860709
0.0856799
0.0852523
0.0847895
0.0842931
0.0837646
0.0832058
0.0826186
0.0820049
0.081367
0.080707
0.0800275
0.0793309
0.0786202
0.077898
0.0771677
0.0764323
0.0756953
0.0749604
0.0742314
0.0735122
0.0728071
0.0721204
0.0714568
0.0708209
0.0702177
0.0696521
0.0691292
0.0686541
0.0682317
0.0678666
0.0675631
0.0673248
0.0671545
0.0670525
0.0670188
0.0670678
0.06721
-1.18084e-05
0.000133655
0.000176875
0.000132796
2.02421e-05
-0.000158728
-0.000402195
-0.000706629
-0.00106799
-0.00148195
-0.00194388
-0.00244901
-0.0029925
-0.00356953
-0.00417532
-0.00480526
-0.00545485
-0.00611976
-0.00679585
-0.00747919
-0.00816599
-0.00885269
-0.00953592
-0.0102125
-0.0108794
-0.0115337
-0.0121729
-0.0127944
-0.0133959
-0.0139751
-0.01453
-0.0150588
-0.0155596
-0.0160308
-0.0164709
-0.0168784
-0.0172521
-0.0175907
-0.0178933
-0.0181587
-0.0183861
-0.0185748
-0.018724
-0.018833
-0.0189014
-0.0189286
-0.0189143
-0.0188581
-0.0187598
-0.0186192
-0.0184362
-0.0182107
-0.0179427
-0.0176323
-0.0172795
-0.0168846
-0.0164477
-0.0159691
-0.0154491
-0.0148881
-0.0142864
-0.0136446
-0.012963
-0.0122422
-0.0114828
-0.0106854
-0.00985054
-0.00897895
-0.00807133
-0.00712839
-0.00615091
-0.00513969
-0.00409554
-0.00301932
-0.00191191
-0.00077421
0.000392849
0.00158831
0.00281119
0.00406049
0.00533518
0.00663422
0.00795655
0.00930108
0.0106667
0.0120523
0.0134567
0.0148788
0.0163174
0.0177713
0.0192394
0.0207203
0.0222129
0.023716
0.0252282
0.0267484
0.0282752
0.0298074
0.0313437
0.0328829
0.0344235
0.0359643
0.037504
0.0390413
0.0405749
0.0421035
0.0436257
0.0451403
0.0466459
0.0481412
0.049625
0.0510959
0.0525526
0.0539939
0.0554185
0.0568252
0.0582125
0.0595795
0.0609247
0.0622471
0.0635453
0.0648183
0.0660649
0.0672839
0.0684743
0.0696349
0.0707647
0.0718626
0.0729277
0.073959
0.0749554
0.0759162
0.0768404
0.0777272
0.0785757
0.0793853
0.0801551
0.0808846
0.0815731
0.0822199
0.0828246
0.0833866
0.0839056
0.0843811
0.0848129
0.0852006
0.085544
0.0858431
0.0860976
0.0863076
0.0864732
0.0865945
0.0866716
0.0867049
0.0866946
0.0866412
0.0865453
0.0864074
0.0862281
0.0860083
0.0857489
0.0854507
0.0851148
0.0847424
0.0843347
0.0838932
0.0834192
0.0829145
0.0823806
0.0818194
0.081233
0.0806233
0.0799926
0.0793434
0.078678
0.0779991
0.0773096
0.0766125
0.0759108
0.0752078
0.0745071
0.0738122
0.073127
0.0724555
0.0718017
0.0711699
0.0705646
0.0699903
0.0694516
0.0689531
0.0684994
0.0680951
0.0677444
0.0674513
0.0672195
0.0670519
0.0669501
0.0669157
0.0669672
0.0671198
0.000188896
0.000327714
0.000364647
0.000315383
0.000199725
2.07106e-05
-0.000219181
-0.000516224
-0.000866448
-0.00126574
-0.00170983
-0.00219432
-0.00271475
-0.0032667
-0.00384576
-0.00444765
-0.00506819
-0.00570332
-0.00634917
-0.00700199
-0.00765823
-0.0083145
-0.00896757
-0.00961438
-0.010252
-0.0108778
-0.0114891
-0.0120836
-0.0126589
-0.0132129
-0.0137437
-0.0142492
-0.014728
-0.0151782
-0.0155984
-0.0159872
-0.0163434
-0.0166658
-0.0169532
-0.0172048
-0.0174196
-0.0175968
-0.0177358
-0.0178359
-0.0178965
-0.0179172
-0.0178976
-0.0178373
-0.0177361
-0.0175938
-0.0174103
-0.0171854
-0.0169191
-0.0166116
-0.0162628
-0.015873
-0.0154423
-0.0149709
-0.0144592
-0.0139075
-0.0133162
-0.0126856
-0.0120163
-0.0113088
-0.0105636
-0.00978119
-0.0089623
-0.00810753
-0.00721756
-0.00629311
-0.00533491
-0.00434374
-0.0033204
-0.00226572
-0.00118055
-6.57718e-05
0.0010777
0.00224894
0.003447
0.00467088
0.0059196
0.00719212
0.00848742
0.00980443
0.0111421
0.0124993
0.0138748
0.0152677
0.0166768
0.0181008
0.0195386
0.020989
0.0224509
0.0239229
0.025404
0.0268928
0.0283881
0.0298886
0.0313932
0.0329005
0.0344093
0.0359182
0.0374261
0.0389316
0.0404335
0.0419304
0.0434211
0.0449043
0.0463788
0.0478432
0.0492962
0.0507367
0.0521633
0.0535747
0.0549699
0.0563474
0.0577061
0.0590449
0.0603624
0.0616575
0.062929
0.0641759
0.0653969
0.066591
0.067757
0.068894
0.0700008
0.0710766
0.0721202
0.0731308
0.0741074
0.0750491
0.0759552
0.0768247
0.0776569
0.078451
0.0792064
0.0799225
0.0805984
0.0812339
0.0818282
0.082381
0.0828918
0.0833602
0.083786
0.0841689
0.0845087
0.0848053
0.0850587
0.0852687
0.0854355
0.0855592
0.08564
0.0856782
0.0856741
0.0856283
0.0855411
0.0854131
0.0852452
0.0850379
0.0847923
0.0845091
0.0841895
0.0838346
0.0834457
0.083024
0.0825711
0.0820885
0.0815779
0.081041
0.0804799
0.0798964
0.0792929
0.0786715
0.0780348
0.0773853
0.0767257
0.0760588
0.0753878
0.0747156
0.0740457
0.0733815
0.0727266
0.0720847
0.0714598
0.0708557
0.0702768
0.069727
0.0692108
0.0687323
0.0682959
0.0679057
0.0675656
0.0672795
0.0670511
0.0668836
0.0667793
0.0667407
0.0667879
0.066937
0.000482457
0.000602373
0.000625598
0.000566499
0.000443804
0.000261011
2.09335e-05
-0.000272644
-0.000615847
-0.00100477
-0.00143542
-0.00190371
-0.00240554
-0.00293682
-0.00349348
-0.00407153
-0.00466709
-0.00527637
-0.00589572
-0.00652164
-0.00715076
-0.00777985
-0.00840585
-0.00902584
-0.00963706
-0.0102369
-0.0108228
-0.0113925
-0.0119438
-0.0124747
-0.0129831
-0.0134673
-0.0139255
-0.0143563
-0.0147581
-0.0151295
-0.0154694
-0.0157766
-0.0160499
-0.0162885
-0.0164915
-0.0166581
-0.0167875
-0.0168792
-0.0169326
-0.0169472
-0.0169226
-0.0168585
-0.0167546
-0.0166107
-0.0164267
-0.0162024
-0.0159379
-0.0156331
-0.0152882
-0.0149033
-0.0144785
-0.0140141
-0.0135103
-0.0129676
-0.0123861
-0.0117664
-0.0111089
-0.0104141
-0.00968241
-0.00891448
-0.00811088
-0.00727224
-0.00639921
-0.00549248
-0.00455278
-0.00358084
-0.00257746
-0.00154343
-0.000479603
0.000613175
0.00173402
0.00288202
0.00405624
0.00525573
0.00647952
0.0077266
0.00899595
0.0102865
0.0115973
0.0129272
0.0142752
0.01564
0.0170206
0.0184159
0.0198247
0.0212459
0.0226782
0.0241205
0.0255717
0.0270303
0.0284954
0.0299656
0.0314397
0.0329165
0.0343947
0.0358731
0.0373505
0.0388255
0.0402969
0.0417635
0.043224
0.0446772
0.0461218
0.0475565
0.0489801
0.0503914
0.0517891
0.0531721
0.054539
0.0558887
0.05722
0.0585317
0.0598227
0.0610917
0.0623377
0.0635596
0.0647561
0.0659264
0.0670692
0.0681836
0.0692685
0.0703231
0.0713462
0.0723371
0.0732947
0.0742183
0.075107
0.0759601
0.0767767
0.0775561
0.0782977
0.0790009
0.079665
0.0802895
0.080874
0.0814179
0.0819209
0.0823826
0.0828027
0.083181
0.0835173
0.0838116
0.0840637
0.0842736
0.0844415
0.0845674
0.0846517
0.0846945
0.0846962
0.0846573
0.0845782
0.0844596
0.0843022
0.0841066
0.0838738
0.0836046
0.0833001
0.0829615
0.0825899
0.0821867
0.0817532
0.0812911
0.0808019
0.0802874
0.0797495
0.0791901
0.0786114
0.0780155
0.0774049
0.0767819
0.0761493
0.0755097
0.0748661
0.0742214
0.0735789
0.0729417
0.0723132
0.0716972
0.071097
0.0705166
0.0699597
0.0694303
0.0689323
0.0684696
0.0680463
0.0676661
0.0673328
0.0670501
0.0668217
0.066651
0.0665405
0.0664934
0.0665291
0.0666626
0.000863332
0.000954274
0.0009569
0.00088309
0.000749124
0.00055862
0.000314538
2.0583e-05
-0.000319523
-0.000702086
-0.00112336
-0.00157957
-0.0020669
-0.00258157
-0.00311982
-0.00367794
-0.00425232
-0.00483941
-0.00543582
-0.00603822
-0.00664345
-0.00724846
-0.00785033
-0.0084463
-0.00903371
-0.00961006
-0.010173
-0.0107202
-0.0112496
-0.0117592
-0.0122471
-0.0127116
-0.013151
-0.0135638
-0.0139485
-0.0143039
-0.0146287
-0.0149217
-0.0151819
-0.0154085
-0.0156004
-0.015757
-0.0158776
-0.0159614
-0.016008
-0.016017
-0.0159878
-0.0159201
-0.0158137
-0.0156684
-0.015484
-0.0152604
-0.0149976
-0.0146955
-0.0143543
-0.0139741
-0.013555
-0.0130973
-0.0126012
-0.012067
-0.0114951
-0.0108858
-0.0102395
-0.00955684
-0.00883818
-0.0080841
-0.00729516
-0.00647198
-0.00561518
-0.00472545
-0.00380348
-0.00284999
-0.00186575
-0.000851543
0.00019182
0.0012635
0.00236263
0.00348833
0.00463969
0.00581578
0.00701565
0.00823831
0.00948277
0.010748
0.012033
0.0133368
0.0146581
0.0159961
0.0173495
0.0187172
0.0200982
0.0214912
0.0228953
0.024309
0.0257314
0.0271613
0.0285973
0.0300384
0.0314833
0.0329308
0.0343798
0.0358289
0.0372769
0.0387227
0.040165
0.0416025
0.0430341
0.0444585
0.0458745
0.0472808
0.0486762
0.0500596
0.0514297
0.0527853
0.0541252
0.0554483
0.0567534
0.0580393
0.0593049
0.060549
0.0617706
0.0629685
0.0641418
0.0652892
0.0664098
0.0675027
0.0685667
0.069601
0.0706046
0.0715766
0.0725162
0.0734225
0.0742946
0.0751319
0.0759337
0.0766991
0.0774276
0.0781185
0.0787713
0.0793854
0.0799604
0.0804959
0.0809914
0.0814466
0.0818613
0.0822352
0.0825681
0.0828601
0.0831109
0.0833207
0.0834896
0.0836175
0.0837049
0.083752
0.083759
0.0837266
0.0836551
0.0835451
0.0833974
0.0832127
0.0829918
0.0827356
0.0824451
0.0821215
0.0817659
0.0813797
0.0809642
0.0805209
0.0800514
0.0795574
0.0790407
0.0785033
0.0779471
0.0773744
0.0767873
0.0761883
0.07558
0.0749648
0.0743456
0.0737252
0.0731067
0.0724931
0.0718876
0.0712937
0.0707146
0.0701539
0.0696153
0.0691022
0.0686184
0.0681676
0.0677535
0.0673795
0.0670494
0.0667666
0.0665346
0.0663569
0.0662362
0.066176
0.0661933
0.0663012
0.00132441
0.00137839
0.00135443
0.00126128
0.00111188
0.000909789
0.000657974
0.000359955
1.92404e-05
-0.000360702
-0.000776384
-0.00122429
-0.00170091
-0.00220272
-0.00272625
-0.00326805
-0.00382477
-0.0043931
-0.00496985
-0.00555192
-0.00613631
-0.00672015
-0.00730069
-0.00787528
-0.00844141
-0.00899667
-0.00953881
-0.0100657
-0.0105752
-0.0110654
-0.0115347
-0.0119811
-0.0124032
-0.0127995
-0.0131685
-0.013509
-0.0138198
-0.0140997
-0.0143478
-0.0145632
-0.0147449
-0.0148922
-0.0150045
-0.0150811
-0.0151214
-0.0151251
-0.0150916
-0.0150207
-0.014912
-0.0147654
-0.0145808
-0.0143579
-0.0140967
-0.0137973
-0.0134597
-0.0130841
-0.0126705
-0.0122192
-0.0117304
-0.0112044
-0.0106416
-0.0100423
-0.00940688
-0.00873585
-0.00802967
-0.00728886
-0.00651399
-0.00570562
-0.0048644
-0.00399096
-0.00308598
-0.00215019
-0.00118431
-0.000189101
0.000834633
0.00188608
0.00296439
0.0040687
0.00519814
0.00635177
0.00752869
0.00872793
0.00994851
0.0111895
0.0124497
0.0137284
0.0150243
0.0163364
0.0176636
0.019005
0.0203593
0.0217254
0.0231022
0.0244887
0.0258835
0.0272856
0.0286939
0.030107
0.031524
0.0329435
0.0343643
0.0357854
0.0372054
0.0386231
0.0400375
0.0414472
0.0428511
0.0442479
0.0456365
0.0470156
0.0483841
0.0497407
0.0510844
0.0524139
0.053728
0.0550256
0.0563056
0.0575668
0.0588081
0.0600285
0.0612267
0.0624018
0.0635527
0.0646784
0.0657779
0.0668501
0.0678942
0.0689092
0.0698941
0.0708482
0.0717705
0.0726602
0.0735167
0.074339
0.0751265
0.0758786
0.0765945
0.0772738
0.0779157
0.07852
0.079086
0.0796133
0.0801017
0.0805507
0.0809602
0.0813298
0.0816596
0.0819492
0.0821989
0.0824084
0.082578
0.0827079
0.0827981
0.082849
0.082861
0.0828345
0.08277
0.082668
0.0825293
0.0823546
0.0821447
0.0819005
0.0816229
0.0813132
0.0809723
0.0806017
0.0802026
0.0797766
0.0793251
0.0788498
0.0783524
0.0778349
0.0772992
0.0767473
0.0761815
0.075604
0.0750173
0.0744238
0.0738261
0.0732271
0.0726295
0.0720363
0.0714505
0.0708752
0.0703137
0.0697692
0.0692451
0.0687448
0.0682716
0.067829
0.0674204
0.0670492
0.0667187
0.0664322
0.0661931
0.0660048
0.06587
0.065792
0.0657852
0.0658594
0.00185807
0.00186889
0.00181336
0.0016967
0.00152802
0.00131068
0.0010476
0.000742029
0.000397227
1.64132e-05
-0.00039718
-0.000840304
-0.0013097
-0.00180213
-0.00231437
-0.00284323
-0.00338557
-0.00393834
-0.00449854
-0.00506326
-0.0056297
-0.00619515
-0.00675699
-0.00731273
-0.00785998
-0.00839646
-0.00891999
-0.00942852
-0.00992008
-0.0103928
-0.0108451
-0.0112751
-0.0116814
-0.0120625
-0.0124171
-0.012744
-0.0130419
-0.0133098
-0.0135467
-0.0137517
-0.013924
-0.0140628
-0.0141674
-0.0142372
-0.0142718
-0.0142706
-0.0142332
-0.0141593
-0.0140486
-0.0139009
-0.0137161
-0.0134939
-0.0132345
-0.0129377
-0.0126036
-0.0122324
-0.0118241
-0.011379
-0.0108972
-0.0103792
-0.00982506
-0.0092353
-0.00861027
-0.00795041
-0.00725619
-0.00652811
-0.00576671
-0.00497255
-0.00414623
-0.0032884
-0.00239972
-0.00148087
-0.000532582
0.000444411
0.00144933
0.00248139
0.00353975
0.00462357
0.00573198
0.00686411
0.00801903
0.00919581
0.0103935
0.0116112
0.0128478
0.0141023
0.0153738
0.0166612
0.0179634
0.0192794
0.0206081
0.0219484
0.0232993
0.0246595
0.0260279
0.0274036
0.0287852
0.0301716
0.0315617
0.0329543
0.0343483
0.0357425
0.0371357
0.0385266
0.0399143
0.0412973
0.0426747
0.0440452
0.0454075
0.0467607
0.0481034
0.0494345
0.0507529
0.0520574
0.0533468
0.0546201
0.0558762
0.0571138
0.058332
0.0595295
0.0607055
0.0618588
0.0629885
0.0640934
0.0651727
0.0662253
0.0672503
0.0682468
0.069214
0.0701509
0.0710568
0.0719308
0.0727722
0.0735803
0.0743543
0.0750936
0.0757976
0.0764657
0.0770974
0.0776922
0.0782496
0.0787693
0.0792508
0.0796939
0.0800983
0.0804639
0.0807905
0.081078
0.0813263
0.0815356
0.0817058
0.0818373
0.0819301
0.0819845
0.082001
0.08198
0.0819219
0.0818273
0.0816969
0.0815314
0.0813315
0.0810983
0.0808326
0.0805355
0.0802082
0.0798519
0.0794678
0.0790574
0.0786223
0.078164
0.0776841
0.0771846
0.0766672
0.0761341
0.0755872
0.0750288
0.0744612
0.0738867
0.0733079
0.0727274
0.0721478
0.0715719
0.0710027
0.0704429
0.0698957
0.0693641
0.0688512
0.0683602
0.0678942
0.0674565
0.0670501
0.0666782
0.066344
0.0660505
0.065801
0.0655984
0.0654457
0.0653459
0.0653098
0.0653441
0.00245663
0.00241958
0.00232842
0.00218467
0.00199326
0.00175731
0.00147969
0.00116334
0.000811227
0.000426304
1.15516e-05
-0.000430037
-0.000895463
-0.00138173
-0.00188586
-0.0024049
-0.00293595
-0.00347615
-0.00402271
-0.00457291
-0.00512412
-0.00567378
-0.00621944
-0.00675874
-0.00728941
-0.00780928
-0.00831629
-0.00880847
-0.00928394
-0.00974095
-0.0101778
-0.010593
-0.0109849
-0.0113523
-0.0116938
-0.0120081
-0.0122943
-0.0125512
-0.0127778
-0.0129733
-0.0131369
-0.0132678
-0.0133654
-0.0134291
-0.0134584
-0.0134527
-0.0134118
-0.0133352
-0.0132227
-0.0130741
-0.0128891
-0.0126678
-0.0124101
-0.0121158
-0.0117852
-0.0114182
-0.0110151
-0.0105759
-0.0101009
-0.00959042
-0.00904471
-0.00846412
-0.00784904
-0.00719989
-0.00651712
-0.00580122
-0.00505272
-0.00427216
-0.00346013
-0.00261724
-0.00174415
-0.000841534
8.99181e-05
0.00104948
0.00203639
0.00304987
0.00408913
0.00515333
0.00624162
0.00735315
0.00848701
0.0096423
0.0108181
0.0120134
0.0132273
0.0144589
0.015707
0.0169707
0.0182489
0.0195407
0.0208449
0.0221605
0.0234865
0.0248216
0.0261648
0.027515
0.0288712
0.030232
0.0315965
0.0329635
0.0343317
0.0357002
0.0370677
0.038433
0.0397951
0.0411527
0.0425048
0.04385
0.0451874
0.0465157
0.0478338
0.0491405
0.0504348
0.0517154
0.0529813
0.0542314
0.0554646
0.0566797
0.0578758
0.0590517
0.0602065
0.061339
0.0624484
0.0635335
0.0645935
0.0656274
0.0666343
0.0676133
0.0685636
0.0694842
0.0703744
0.0712335
0.0720606
0.0728551
0.0736162
0.0743434
0.075036
0.0756936
0.0763155
0.0769012
0.0774504
0.0779627
0.0784377
0.0788752
0.0792748
0.0796364
0.07996
0.0802453
0.0804923
0.0807012
0.0808719
0.0810048
0.0810999
0.0811575
0.0811781
0.081162
0.0811098
0.0810219
0.0808991
0.080742
0.0805514
0.0803282
0.0800733
0.0797878
0.0794728
0.0791294
0.0787589
0.0783628
0.0779424
0.0774994
0.0770353
0.0765518
0.0760509
0.0755343
0.0750042
0.0744626
0.0739117
0.0733538
0.0727913
0.0722266
0.0716623
0.0711009
0.0705453
0.0699981
0.0694621
0.0689403
0.0684355
0.0679506
0.0674886
0.0670525
0.0666452
0.0662695
0.0659285
0.0656249
0.0653617
0.0651418
0.0649677
0.0648426
0.0647731
0.0647625
0.0031127
0.00302424
0.0028942
0.00272034
0.00250317
0.00224564
0.00195052
0.00162043
0.00125803
0.000866017
0.000447115
4.06334e-06
-0.000460383
-0.000943467
-0.00144244
-0.00195458
-0.00247719
-0.00300761
-0.00354325
-0.00408157
-0.00462011
-0.00515647
-0.00568833
-0.00621346
-0.00672973
-0.00723509
-0.00772756
-0.00820527
-0.00866645
-0.0091094
-0.00953252
-0.00993431
-0.0103133
-0.0106683
-0.0109978
-0.0113009
-0.0115763
-0.0118231
-0.0120404
-0.0122273
-0.0123829
-0.0125067
-0.0125979
-0.0126559
-0.0126803
-0.0126707
-0.0126265
-0.0125475
-0.0124334
-0.0122841
-0.0120992
-0.0118788
-0.0116227
-0.011331
-0.0110037
-0.0106409
-0.0102427
-0.00980921
-0.00934075
-0.00883754
-0.00829987
-0.00772808
-0.00712253
-0.00648363
-0.00581182
-0.00510759
-0.00437142
-0.00360388
-0.00280551
-0.00197693
-0.00111875
-0.000231653
0.000683692
0.00162657
0.00259625
0.00359198
0.00461296
0.00565839
0.00672744
0.00781926
0.00893298
0.0100677
0.0112225
0.0123965
0.0135888
0.0147982
0.016024
0.0172651
0.0185204
0.019789
0.0210698
0.0223618
0.0236639
0.024975
0.0262941
0.0276201
0.0289519
0.0302883
0.0316283
0.0329707
0.0343144
0.0356583
0.0370013
0.0383422
0.0396799
0.0410132
0.0423411
0.0436623
0.0449758
0.0462804
0.047575
0.0488584
0.0501297
0.0513876
0.0526311
0.053859
0.0550704
0.0562641
0.0574392
0.0585945
0.059729
0.0608418
0.0619318
0.0629981
0.0640398
0.065056
0.0660456
0.0670079
0.0679421
0.0688472
0.0697226
0.0705674
0.0713809
0.0721625
0.0729114
0.0736271
0.0743089
0.0749563
0.0755689
0.0761461
0.0766875
0.0771928
0.0776615
0.0780936
0.0784886
0.0788464
0.079167
0.0794501
0.0796959
0.0799042
0.0800754
0.0802094
0.0803065
0.080367
0.0803913
0.0803797
0.0803327
0.080251
0.080135
0.0799855
0.0798034
0.0795893
0.0793442
0.0790692
0.0787652
0.0784336
0.0780754
0.0776921
0.077285
0.0768556
0.0764055
0.0759363
0.0754499
0.074948
0.0744325
0.0739056
0.0733692
0.0728255
0.0722768
0.0717254
0.0711737
0.0706242
0.0700794
0.0695419
0.0690143
0.0684994
0.0679997
0.0675181
0.0670572
0.0666198
0.0662086
0.0658263
0.0654755
0.065159
0.0648792
0.0646389
0.0644405
0.064287
0.0641809
0.0641218
0.00381922
0.00367675
0.00350531
0.00329881
0.00305331
0.00277157
0.0024563
0.00210981
0.00173443
0.00133261
0.000906815
0.000459549
-6.67375e-06
-0.000489323
-0.00098587
-0.0014938
-0.00201062
-0.00253388
-0.00306115
-0.00359008
-0.00411835
-0.00464373
-0.00516403
-0.00567717
-0.00618111
-0.00667393
-0.00715376
-0.00761881
-0.00806741
-0.00849792
-0.00890884
-0.0092987
-0.00966616
-0.0100099
-0.0103288
-0.0106216
-0.0108874
-0.0111251
-0.0113339
-0.0115129
-0.0116614
-0.0117786
-0.011864
-0.011917
-0.011937
-0.0119237
-0.0118766
-0.0117956
-0.0116801
-0.0115302
-0.0113455
-0.0111261
-0.0108717
-0.0105825
-0.0102585
-0.00989966
-0.00950621
-0.00907828
-0.00861608
-0.00811986
-0.00758991
-0.00702654
-0.00643012
-0.00580103
-0.00513971
-0.00444662
-0.00372226
-0.00296715
-0.00218185
-0.00136693
-0.00052302
0.000349249
0.0012492
0.00217615
0.00312937
0.00410812
0.00511164
0.00613913
0.0071898
0.00826279
0.00935726
0.0104723
0.0116071
0.0127608
0.0139323
0.0151207
0.0163251
0.0175445
0.018778
0.0200244
0.0212829
0.0225523
0.0238317
0.0251199
0.026416
0.0277188
0.0290273
0.0303404
0.031657
0.032976
0.0342963
0.0356168
0.0369364
0.0382539
0.0395684
0.0408785
0.0421833
0.0434816
0.0447724
0.0460544
0.0473266
0.0485879
0.0498373
0.0510735
0.0522957
0.0535026
0.0546932
0.0558666
0.0570216
0.0581572
0.0592725
0.0603665
0.0614382
0.0624867
0.0635109
0.0645102
0.0654835
0.0664299
0.0673488
0.0682392
0.0691005
0.0699317
0.0707324
0.0715017
0.072239
0.0729437
0.0736153
0.0742532
0.0748569
0.0754259
0.0759599
0.0764585
0.0769213
0.0773482
0.0777387
0.0780929
0.0784106
0.0786916
0.078936
0.0791438
0.0793152
0.0794502
0.079549
0.0796121
0.0796396
0.0796321
0.0795899
0.0795136
0.0794039
0.0792613
0.0790867
0.0788808
0.0786446
0.078379
0.078085
0.0777638
0.0774166
0.0770447
0.0766494
0.0762321
0.0757944
0.0753378
0.074864
0.0743749
0.0738721
0.0733577
0.0728337
0.072302
0.0717648
0.0712243
0.0706828
0.0701426
0.0696061
0.0690757
0.0685539
0.0680431
0.0675459
0.0670648
0.0666023
0.0661609
0.0657432
0.0653515
0.0649884
0.0646562
0.0643573
0.064094
0.0638688
0.0636843
0.0635389
0.0634286
0.00456958
0.00437124
0.00415646
0.00391529
0.00363928
0.00333107
0.00299333
0.00262803
0.00223725
0.00182315
0.00138797
0.00093397
0.000463442
-2.13009e-05
-0.000517941
-0.00102416
-0.00153767
-0.00205618
-0.00257746
-0.00309931
-0.00361958
-0.00413616
-0.00464703
-0.00515021
-0.0056438
-0.00612596
-0.00659494
-0.00704906
-0.00748671
-0.00790634
-0.00830652
-0.00868586
-0.00904306
-0.00937689
-0.0096862
-0.00996991
-0.010227
-0.0104566
-0.0106577
-0.0108296
-0.0109716
-0.011083
-0.0111632
-0.0112115
-0.0112277
-0.0112112
-0.0111616
-0.0110787
-0.0109621
-0.0108118
-0.0106274
-0.010409
-0.0101564
-0.00986968
-0.00954882
-0.00919392
-0.00880508
-0.00838247
-0.00792629
-0.00743678
-0.00691422
-0.00635892
-0.00577123
-0.00515152
-0.00450023
-0.0038178
-0.00310471
-0.00236148
-0.00158865
-0.000786785
4.35134e-05
0.000901621
0.00178688
0.00269862
0.00363612
0.00459868
0.00558553
0.0065959
0.00762902
0.00868405
0.00976015
0.0108565
0.0119722
0.0131063
0.0142581
0.0154264
0.0166105
0.0178092
0.0190218
0.0202471
0.0214842
0.0227322
0.0239898
0.0252563
0.0265304
0.0278111
0.0290974
0.0303883
0.0316826
0.0329793
0.0342773
0.0355755
0.0368728
0.0381681
0.0394604
0.0407485
0.0420313
0.0433078
0.0445769
0.0458375
0.0470884
0.0483287
0.0495572
0.0507729
0.0519747
0.0531616
0.0543325
0.0554865
0.0566225
0.0577395
0.0588366
0.0599127
0.060967
0.0619985
0.0630063
0.0639895
0.0649472
0.0658787
0.066783
0.0676595
0.0685074
0.0693258
0.0701143
0.0708719
0.0715983
0.0722926
0.0729545
0.0735833
0.0741786
0.0747399
0.0752668
0.075759
0.0762162
0.0766381
0.0770244
0.0773751
0.0776899
0.0779688
0.0782119
0.078419
0.0785905
0.0787262
0.0788266
0.0788919
0.0789223
0.0789183
0.0788804
0.078809
0.0787048
0.0785684
0.0784006
0.0782021
0.0779737
0.0777165
0.0774315
0.0771196
0.0767822
0.0764203
0.0760353
0.0756287
0.0752018
0.0747561
0.0742933
0.0738151
0.0733232
0.0728194
0.0723056
0.0717837
0.0712559
0.0707241
0.0701905
0.0696573
0.0691267
0.0686009
0.0680824
0.0675733