/*--------------------------------*- C++ -*----------------------------------*\
  =========                 |
  \\      /  F ield         | OpenFOAM: The Open Source CFD Toolbox
   \\    /   O peration     | Website:  https://openfoam.org
    \\  /    A nd           | Version:  7
     \\/     M anipulation  |
\*---------------------------------------------------------------------------*/
FoamFile
{
    version     2.0;
    format      ascii;
    class       volVectorField;
    location    "0.5";
    object      U;
}
// * * * * * * * * * * * * * * * * * * * * * * * * * * * * * * * * * * * * * //

dimensions      [0 1 -1 0 0 0 0];

internalField   nonuniform List<vector> 
135168
(
(1.4 6.62682e-17 0)
(1.4 1.34478e-16 0)
(1.4 1.73124e-16 0)
(1.4 3.95824e-16 0)
(1.4 4.15808e-16 0)
(1.4 3.69425e-16 0)
(1.4 3.43893e-16 0)
(1.4 3.17613e-16 0)
(1.4 2.49294e-16 0)
(1.4 2.82341e-16 0)
(1.4 3.29326e-16 0)
(1.4 3.41956e-16 0)
(1.4 3.36034e-16 0)
(1.4 3.31376e-16 0)
(1.4 3.13352e-16 0)
(1.4 2.4387e-16 0)
(1.4 1.72409e-16 0)
(1.4 5.16835e-17 0)
(1.4 -2.34098e-19 0)
(1.4 1.80798e-16 0)
(1.4 1.01187e-16 0)
(1.4 2.8865e-16 0)
(1.4 3.91142e-16 0)
(1.4 4.32023e-16 0)
(1.4 5.62105e-16 0)
(1.4 6.70775e-16 0)
(1.4 6.7824e-16 0)
(1.4 4.63354e-16 0)
(1.4 1.9347e-16 0)
(1.4 -1.3021e-16 0)
(1.4 -8.07709e-17 0)
(1.4 3.3644e-17 0)
(1.4 1.06471e-16 0)
(1.4 8.304e-17 0)
(1.4 -3.6128e-17 0)
(1.4 -2.31675e-16 0)
(1.4 -4.80281e-16 0)
(1.4 -6.69132e-16 0)
(1.4 -7.61434e-16 0)
(1.4 -7.54623e-16 0)
(1.4 -7.34657e-16 0)
(1.4 -6.87146e-16 0)
(1.4 -6.13001e-16 0)
(1.4 -5.77982e-16 0)
(1.4 -6.43595e-16 0)
(1.4 -7.06388e-16 0)
(1.4 -7.83566e-16 0)
(1.4 -8.69398e-16 0)
(1.4 -9.49846e-16 0)
(1.4 -7.84092e-16 0)
(1.4 -6.5117e-16 0)
(1.4 -4.52757e-16 0)
(1.4 -1.457e-16 0)
(1.4 2.6975e-17 0)
(1.4 1.55451e-16 0)
(1.4 2.38659e-16 0)
(1.4 4.4109e-16 0)
(1.4 7.55285e-16 0)
(1.4 1.08801e-15 0)
(1.4 1.10908e-15 0)
(1.4 1.19767e-15 0)
(1.4 1.31179e-15 0)
(1.4 1.21422e-15 0)
(1.4 9.88115e-16 0)
(1.4 7.29289e-16 0)
(1.4 5.63834e-16 0)
(1.4 1.34816e-16 0)
(1.4 -2.18915e-17 0)
(1.4 -1.90688e-16 0)
(1.4 -2.40433e-16 0)
(1.4 -3.42513e-16 0)
(1.4 -3.89655e-16 0)
(1.4 -5.35132e-16 0)
(1.4 -1.2453e-16 0)
(1.4 6.67498e-17 0)
(1.4 1.78006e-16 0)
(1.4 5.3581e-16 0)
(1.4 7.45438e-16 0)
(1.4 8.41649e-16 0)
(1.4 9.23709e-16 0)
(1.4 1.01221e-15 0)
(1.4 1.2353e-15 0)
(1.4 1.33711e-15 0)
(1.4 1.38348e-15 0)
(1.4 1.31921e-15 0)
(1.4 1.21948e-15 0)
(1.4 1.02964e-15 0)
(1.4 8.80604e-16 0)
(1.4 5.71725e-16 0)
(1.4 4.08326e-16 0)
(1.4 2.45088e-16 0)
(1.4 -2.44434e-17 0)
(1.4 -2.08546e-16 0)
(1.4 -5.84453e-16 0)
(1.4 -9.27792e-16 0)
(1.4 -1.16294e-15 0)
(1.4 -1.17259e-15 0)
(1.4 -1.11004e-15 0)
(1.4 -9.5621e-16 0)
(1.4 -5.89252e-16 0)
(1.4 -2.29275e-16 0)
(1.4 -8.29681e-17 0)
(1.4 3.91165e-17 0)
(1.4 1.96653e-16 0)
(1.4 3.10762e-16 0)
(1.4 5.78258e-16 0)
(1.4 6.68101e-16 0)
(1.4 5.4087e-16 0)
(1.4 2.72998e-16 0)
(1.4 4.00963e-16 0)
(1.4 2.99348e-16 0)
(1.4 2.93577e-16 0)
(1.4 2.4553e-16 0)
(1.4 9.59151e-17 0)
(1.4 -6.13937e-17 0)
(1.4 -3.17924e-16 0)
(1.4 -5.33914e-16 0)
(1.4 -8.7081e-16 0)
(1.4 -1.13897e-15 0)
(1.4 -1.20028e-15 0)
(1.4 -1.20576e-15 0)
(1.4 -1.46396e-15 0)
(1.4 -1.48356e-15 0)
(1.4 -1.41939e-15 0)
(1.4 -1.53448e-15 0)
(1.4 -1.64761e-15 0)
(1.4 -1.73819e-15 0)
(1.4 -1.84251e-15 0)
(1.4 -1.89993e-15 0)
(1.4 -1.90134e-15 0)
(1.4 -1.87085e-15 0)
(1.4 -1.81799e-15 0)
(1.4 -1.7288e-15 0)
(1.4 -1.62198e-15 0)
(1.4 -1.54011e-15 0)
(1.4 -1.46868e-15 0)
(1.4 -1.41744e-15 0)
(1.4 -1.48306e-15 0)
(1.4 -1.39643e-15 0)
(1.4 -1.37001e-15 0)
(1.4 -1.27879e-15 0)
(1.4 -1.17994e-15 0)
(1.4 -1.06627e-15 0)
(1.4 -1.02726e-15 0)
(1.4 -1.04682e-15 0)
(1.4 -1.06011e-15 0)
(1.4 -1.1627e-15 0)
(1.4 -1.18175e-15 0)
(1.4 -1.36636e-15 0)
(1.4 -1.38332e-15 0)
(1.4 -1.08961e-15 0)
(1.4 -8.93279e-16 0)
(1.4 -5.14306e-16 0)
(1.4 5.28286e-17 0)
(1.4 4.24029e-16 0)
(1.4 7.02821e-16 0)
(1.4 1.03169e-15 0)
(1.4 1.41685e-15 0)
(1.4 1.57491e-15 0)
(1.4 1.6851e-15 0)
(1.4 1.71443e-15 0)
(1.4 1.65174e-15 0)
(1.4 1.62049e-15 0)
(1.4 1.61228e-15 0)
(1.4 1.62192e-15 0)
(1.4 1.94556e-15 0)
(1.4 2.00316e-15 0)
(1.4 1.96726e-15 0)
(1.4 1.97902e-15 0)
(1.4 1.95011e-15 0)
(1.4 1.81578e-15 0)
(1.4 1.7557e-15 0)
(1.4 1.72586e-15 0)
(1.4 1.61985e-15 0)
(1.4 1.59969e-15 0)
(1.4 1.59825e-15 0)
(1.4 1.62915e-15 0)
(1.4 1.711e-15 0)
(1.4 1.80568e-15 0)
(1.4 1.5415e-15 0)
(1.4 1.59753e-15 0)
(1.4 1.3819e-15 0)
(1.4 8.506e-16 0)
(1.4 7.1261e-16 0)
(1.4 6.29385e-16 0)
(1.4 5.11792e-16 0)
(1.4 5.2406e-16 0)
(1.4 6.30294e-16 0)
(1.4 8.15371e-16 0)
(1.4 1.08977e-15 0)
(1.4 1.18813e-15 0)
(1.4 1.35442e-15 0)
(1.4 1.37175e-15 0)
(1.4 1.30544e-15 0)
(1.4 1.22765e-15 0)
(1.4 1.21735e-15 0)
(1.4 1.21073e-15 0)
(1.4 1.1785e-15 0)
(1.4 9.28864e-16 0)
(1.4 7.14183e-16 0)
(1.4 3.15447e-16 0)
(1.4 2.08095e-16 0)
(1.4 1.69226e-16 0)
(1.4 1.42256e-16 0)
(1.4 1.07002e-16 0)
(1.4 6.29953e-17 0)
(1.4 -1.03102e-16 0)
(1.4 -7.26771e-17 0)
(1.4 -4.07051e-17 0)
(1.4 -6.61403e-17 0)
(1.4 -1.10349e-16 0)
(1.4 -1.52456e-16 0)
(1.4 -3.37649e-16 0)
(1.4 -5.76078e-16 0)
(1.4 -8.44073e-16 0)
(1.4 -9.76253e-16 0)
(1.4 -1.19607e-15 0)
(1.4 -1.27574e-15 0)
(1.4 -1.61322e-15 0)
(1.4 -1.25676e-15 0)
(1.4 -9.1354e-16 0)
(1.4 -8.33283e-16 0)
(1.4 -7.68857e-16 0)
(1.4 -7.38555e-16 0)
(1.4 -7.54375e-16 0)
(1.4 -8.53819e-16 0)
(1.4 -1.18509e-15 0)
(1.4 -1.37817e-15 0)
(1.4 -1.5851e-15 0)
(1.4 -1.72863e-15 0)
(1.4 -1.85339e-15 0)
(1.4 -1.87328e-15 0)
(1.4 -1.87864e-15 0)
(1.4 -1.91939e-15 0)
(1.4 -1.94309e-15 0)
(1.4 -1.89751e-15 0)
(1.4 -1.96471e-15 0)
(1.4 -1.95695e-15 0)
(1.4 -1.8616e-15 0)
(1.4 -2.11462e-15 0)
(1.4 -2.30578e-15 0)
(1.4 -2.28868e-15 0)
(1.4 -1.93053e-15 0)
(1.4 -1.69591e-15 0)
(1.4 -1.67365e-15 0)
(1.4 -1.70682e-15 0)
(1.4 -1.75578e-15 0)
(1.4 -1.84256e-15 0)
(1.4 -1.93162e-15 0)
(1.4 -1.85867e-15 0)
(1.4 -1.7105e-15 0)
(1.4 -1.80078e-15 0)
(1.4 -1.62295e-15 0)
(1.4 -1.41536e-15 0)
(1.4 -1.27884e-15 0)
(1.4 -9.99028e-16 0)
(1.4 -8.63169e-16 0)
(1.4 -7.74717e-16 0)
(1.4 -3.86646e-16 0)
(1.4 -1.4061e-16 0)
(1.4 1.77268e-17 0)
(1.4 2.74747e-16 0)
(1.4 4.81462e-16 0)
(1.4 5.61402e-16 0)
(1.4 7.02603e-16 0)
(1.4 7.31457e-16 0)
(1.4 7.6103e-16 0)
(1.4 8.56261e-16 0)
(1.4 7.53486e-16 0)
(1.4 4.78992e-16 0)
(1.4 3.53037e-16 0)
(1.4 1.00579e-16 0)
(1.4 -8.43138e-17 0)
(1.4 -1.88825e-16 0)
(1.4 -2.64524e-16 0)
(1.4 -4.11601e-16 0)
(1.4 -3.98235e-16 0)
(1.4 -2.10873e-16 0)
(1.4 -1.28326e-16 0)
(1.4 -4.605e-17 0)
(1.4 1.34463e-16 0)
(1.4 3.05013e-16 0)
(1.4 4.32142e-16 0)
(1.4 3.89239e-16 0)
(1.4 2.78223e-16 0)
(1.4 1.93024e-16 0)
(1.4 2.4841e-16 0)
(1.4 2.68438e-16 0)
(1.4 3.00996e-16 0)
(1.4 1.07881e-16 0)
(1.4 5.06562e-17 0)
(1.4 -7.75576e-17 0)
(1.4 -4.62294e-16 0)
(1.4 -7.21945e-16 0)
(1.4 -8.28583e-16 0)
(1.4 -7.55486e-16 0)
(1.4 -6.15639e-16 0)
(1.4 -4.02724e-16 0)
(1.4 -2.76092e-16 0)
(1.4 -2.42585e-16 0)
(1.4 -2.40664e-17 0)
(1.4 2.83544e-16 0)
(1.4 4.52695e-16 0)
(1.4 6.05041e-16 0)
(1.4 6.90535e-16 0)
(1.4 7.65718e-16 0)
(1.4 9.74963e-16 0)
(1.4 1.09537e-15 0)
(1.4 1.05804e-15 0)
(1.4 8.05331e-16 0)
(1.4 6.47516e-16 0)
(1.4 4.73898e-16 0)
(1.4 2.99569e-16 0)
(1.4 2.31609e-16 0)
(1.4 2.75543e-16 0)
(1.4 3.06682e-16 0)
(1.4 3.54105e-16 0)
(1.4 3.42239e-16 0)
(1.4 3.0197e-16 0)
(1.4 5.51721e-16 0)
(1.4 5.15437e-16 0)
(1.4 5.7016e-16 0)
(1.4 6.02671e-16 0)
(1.4 5.3823e-16 0)
(1.4 5.36759e-16 0)
(1.4 5.0721e-16 0)
(1.4 5.10951e-16 0)
(1.4 6.27805e-16 0)
(1.4 8.15927e-16 0)
(1.4 9.76543e-16 0)
(1.4 1.13999e-15 0)
(1.4 1.42014e-15 0)
(1.4 1.46865e-15 0)
(1.4 1.41437e-15 0)
(1.4 1.3333e-15 0)
(1.4 1.15732e-15 0)
(1.4 9.75004e-16 0)
(1.4 8.41307e-16 0)
(1.4 7.99807e-16 0)
(1.4 7.81598e-16 0)
(1.4 8.2719e-16 0)
(1.4 7.32972e-16 0)
(1.4 7.77981e-16 0)
(1.4 8.37214e-16 0)
(1.4 9.12536e-16 0)
(1.4 9.7645e-16 0)
(1.4 9.71437e-16 0)
(1.4 8.61673e-16 0)
(1.4 7.72675e-16 0)
(1.4 5.8899e-16 0)
(1.4 4.35376e-16 0)
(1.4 3.56511e-16 0)
(1.4 2.49144e-16 0)
(1.4 1.7382e-16 0)
(1.4 8.36004e-18 0)
(1.4 -6.25137e-17 0)
(1.4 -2.7405e-17 0)
(1.4 -1.72731e-16 0)
(1.4 -2.72304e-16 0)
(1.4 -3.56132e-16 0)
(1.4 -4.07699e-16 0)
(1.4 -3.21764e-16 0)
(1.4 4.56372e-17 0)
(1.4 1.41522e-16 0)
(1.4 2.60348e-16 0)
(1.4 7.42719e-16 0)
(1.4 8.85775e-16 0)
(1.4 8.14949e-16 0)
(1.4 7.42336e-16 0)
(1.4 7.18243e-16 0)
(1.4 6.43329e-16 0)
(1.4 7.01152e-16 0)
(1.4 6.99084e-16 0)
(1.4 6.7125e-16 0)
(1.4 4.8823e-16 0)
(1.4 3.01443e-17 0)
(1.4 -1.35015e-16 0)
(1.4 -2.24935e-16 0)
(1.4 -3.43808e-16 0)
(1.4 -4.33879e-16 0)
(1.4 -6.40505e-16 0)
(1.4 -8.09814e-16 0)
(1.4 -1.3399e-15 0)
(1.4 -4.87794e-16 0)
(1.4 8.29193e-17 0)
(1.4 2.01746e-16 0)
(1.4 2.55894e-16 0)
(1.4 3.95157e-16 0)
(1.4 3.55878e-16 0)
(1.4 1.48437e-16 0)
(1.4 2.32003e-16 0)
(1.4 2.51971e-16 0)
(1.4 3.483e-16 0)
(1.4 4.4729e-16 0)
(1.4 4.91309e-16 0)
(1.4 5.23106e-16 0)
(1.4 5.33617e-16 0)
(1.4 4.83333e-16 0)
(1.4 4.28828e-16 0)
(1.4 2.76387e-16 0)
(1.4 2.14106e-16 0)
(1.4 1.45688e-16 0)
(1.4 8.75123e-17 0)
(1.4 9.70406e-17 0)
(1.4 1.66885e-16 0)
(1.4 1.84062e-16 0)
(1.4 2.09119e-16 0)
(1.4 -8.00377e-17 0)
(1.4 -2.0883e-16 0)
(1.4 -1.55156e-16 0)
(1.4 -1.5149e-16 0)
(1.4 -1.51145e-16 0)
(1.4 -2.02922e-16 0)
(1.4 -3.36589e-16 0)
(1.4 -2.12346e-16 0)
(1.4 -1.29564e-16 0)
(1.4 -4.27219e-17 0)
(1.4 -1.19222e-16 0)
(1.4 -2.51691e-16 0)
(1.4 -3.12251e-16 0)
(1.4 -3.70217e-16 0)
(1.4 -4.09697e-16 0)
(1.4 -5.44442e-16 0)
(1.4 -7.10131e-16 0)
(1.4 -8.35072e-16 0)
(1.4 -8.79372e-16 0)
(1.4 -1.00333e-15 0)
(1.4 -1.09387e-15 0)
(1.4 -1.13418e-15 0)
(1.4 -1.13552e-15 0)
(1.4 -9.42356e-16 0)
(1.4 -7.78167e-16 0)
(1.4 -5.79637e-16 0)
(1.4 -3.83726e-16 0)
(1.4 -2.84329e-16 0)
(1.4 -1.11452e-16 0)
(1.4 8.61793e-17 0)
(1.4 2.92616e-16 0)
(1.4 5.35259e-16 0)
(1.4 6.34302e-16 0)
(1.4 7.41915e-16 0)
(1.4 1.0922e-15 0)
(1.4 1.6391e-15 0)
(1.4 1.83592e-15 0)
(1.4 1.65332e-15 0)
(1.4 1.56388e-15 0)
(1.4 1.05848e-15 0)
(1.4 6.09797e-16 0)
(1.4 1.36085e-16 0)
(1.4 -1.30467e-16 0)
(1.4 -3.2514e-16 0)
(1.4 -6.06433e-16 0)
(1.4 -9.70071e-16 0)
(1.4 -1.20914e-15 0)
(1.4 -9.6945e-16 0)
(1.4 -6.62009e-16 0)
(1.4 -1.56586e-16 0)
(1.4 2.83483e-16 0)
(1.4 7.06585e-16 0)
(1.4 8.18394e-16 0)
(1.4 1.37138e-15 0)
(1.4 2.0221e-15 0)
(1.4 2.24111e-15 0)
(1.4 2.39409e-15 0)
(1.4 2.47599e-15 0)
(1.4 2.46749e-15 0)
(1.4 2.38946e-15 0)
(1.4 2.35404e-15 0)
(1.4 2.25372e-15 0)
(1.4 2.08377e-15 0)
(1.4 1.77942e-15 0)
(1.4 1.50938e-15 0)
(1.4 1.25418e-15 0)
(1.4 6.90019e-16 0)
(1.4 3.42519e-16 0)
(1.4 -5.10252e-16 0)
(1.4 -1.03164e-15 0)
(1.4 -1.72852e-15 0)
(1.4 -2.05978e-15 0)
(1.4 -2.13889e-15 0)
(1.4 -2.02353e-15 0)
(1.4 -1.73681e-15 0)
(1.4 -1.42325e-15 0)
(1.4 -8.92382e-16 0)
(1.4 -5.0345e-16 0)
(1.4 -3.41715e-16 0)
(1.4 -4.0073e-16 0)
(1.4 -2.10232e-16 0)
(1.4 5.79299e-17 0)
(1.4 3.11105e-16 0)
(1.4 1.10885e-15 0)
(1.4 1.68734e-15 0)
(1.4 1.75426e-15 0)
(1.4 1.69071e-15 0)
(1.4 1.47381e-15 0)
(1.4 8.91142e-16 0)
(1.4 5.60129e-16 0)
(1.4 3.56227e-16 0)
(1.4 5.99398e-18 0)
(1.4 -7.93747e-16 0)
(1.4 -1.45151e-15 0)
(1.4 -1.95034e-15 0)
(1.4 -2.62164e-15 0)
(1.4 -2.83193e-15 0)
(1.4 -3.13455e-15 0)
(1.4 -3.45591e-15 0)
(1.4 -3.55749e-15 0)
(1.4 -3.49609e-15 0)
(1.4 -3.18103e-15 0)
(1.4 -2.81712e-15 0)
(1.4 -2.76014e-15 0)
(1.4 -2.81858e-15 0)
(1.4 -2.71743e-15 0)
(1.4 -2.69804e-15 0)
(1.4 -2.63361e-15 0)
(1.4 -2.70247e-15 0)
(1.4 -2.80204e-15 0)
(1.4 -2.90465e-15 0)
(1.4 -3.05193e-15 0)
(1.4 -3.36129e-15 0)
(1.4 -3.54177e-15 0)
(1.4 -3.25979e-15 0)
(1.4 -3.13615e-15 0)
(1.4 -2.83269e-15 0)
(1.4 -2.54284e-15 0)
(1.4 -2.42468e-15 0)
(1.4 -2.32818e-15 0)
(1.4 -2.29327e-15 0)
(1.4 -2.31523e-15 0)
(1.4 -2.25585e-15 0)
(1.4 -2.32462e-15 0)
(1.4 -2.27096e-15 0)
(1.4 -2.20007e-15 0)
(1.4 -2.18263e-15 0)
(1.4 -1.77865e-15 0)
(1.4 -1.02438e-15 0)
(1.4 1.16887e-16 0)
(1.4 1.09475e-15 0)
(1.4 1.51268e-15 0)
(1.4 1.69163e-15 0)
(1.4 2.44952e-15 0)
(1.4 2.80396e-15 0)
(1.4 2.89045e-15 0)
(1.4 2.77489e-15 0)
(1.4 2.52184e-15 0)
(1.4 2.61378e-15 0)
(1.4 2.92872e-15 0)
(1.4 3.09849e-15 0)
(1.4 3.39961e-15 0)
(1.4 3.76491e-15 0)
(1.4 3.93809e-15 0)
(1.4 3.92123e-15 0)
(1.4 3.64895e-15 0)
(1.4 3.44552e-15 0)
(1.4 3.09619e-15 0)
(1.4 2.95008e-15 0)
(1.4 2.74693e-15 0)
(1.4 2.57733e-15 0)
(1.4 2.21314e-15 0)
(1.4 2.08472e-15 0)
(1.4 1.8539e-15 0)
(1.4 2.02221e-15 0)
(1.4 2.42822e-15 0)
(1.4 2.31669e-15 0)
(1.4 2.48928e-15 0)
(1.4 1.95222e-15 0)
(1.4 1.66953e-15 0)
(1.4 1.39263e-15 0)
(1.4 1.30082e-15 0)
(1.4 1.21797e-15 0)
(1.4 1.19713e-15 0)
(1.4 1.24088e-15 0)
(1.4 1.34541e-15 0)
(1.4 1.11003e-15 0)
(1.4 7.97486e-16 0)
(1.4 5.57931e-16 0)
(1.4 5.36298e-16 0)
(1.4 5.08004e-16 0)
(1.4 6.26018e-16 0)
(1.4 7.57123e-16 0)
(1.4 8.92206e-16 0)
(1.4 9.8668e-16 0)
(1.4 9.95418e-16 0)
(1.4 7.1081e-16 0)
(1.4 3.81991e-16 0)
(1.4 1.30393e-16 0)
(1.4 1.07376e-16 0)
(1.4 1.14738e-16 0)
(1.4 8.52179e-17 0)
(1.4 -6.922e-17 0)
(1.4 -1.63849e-16 0)
(1.4 -2.63982e-16 0)
(1.4 -5.86442e-16 0)
(1.4 -1.05653e-15 0)
(1.4 -1.3738e-15 0)
(1.4 -1.71877e-15 0)
(1.4 -1.97529e-15 0)
(1.4 -2.20058e-15 0)
(1.4 -2.22048e-15 0)
(1.4 -2.14093e-15 0)
(1.4 -2.18933e-15 0)
(1.4 -2.18285e-15 0)
(1.4 -2.18965e-15 0)
(1.4 -2.09379e-15 0)
(1.4 -1.92546e-15 0)
(1.4 -1.80148e-15 0)
(1.4 -1.82093e-15 0)
(1.4 -1.94317e-15 0)
(1.4 -2.0321e-15 0)
(1.4 -2.43475e-15 0)
(1.4 -2.64522e-15 0)
(1.4 -2.67211e-15 0)
(1.4 -3.39095e-15 0)
(1.4 -3.55502e-15 0)
(1.4 -3.68068e-15 0)
(1.4 -3.77312e-15 0)
(1.4 -3.79927e-15 0)
(1.4 -3.98275e-15 0)
(1.4 -4.1847e-15 0)
(1.4 -4.67847e-15 0)
(1.4 -5.21246e-15 0)
(1.4 -5.24367e-15 0)
(1.4 -5.38918e-15 0)
(1.4 -5.4526e-15 0)
(1.4 -5.76448e-15 0)
(1.4 -5.67078e-15 0)
(1.4 -5.07505e-15 0)
(1.4 -4.9588e-15 0)
(1.4 -4.61019e-15 0)
(1.4 -4.33791e-15 0)
(1.4 -4.05108e-15 0)
(1.4 -3.93059e-15 0)
(1.4 -3.83298e-15 0)
(1.4 -3.80967e-15 0)
(1.4 -3.6098e-15 0)
(1.4 -3.52109e-15 0)
(1.4 -3.34631e-15 0)
(1.4 -2.82726e-15 0)
(1.4 -2.42861e-15 0)
(1.4 -1.76509e-15 0)
(1.4 -1.41601e-15 0)
(1.4 -9.11697e-16 0)
(1.4 -7.25837e-16 0)
(1.4 6.29712e-16 0)
(1.4 1.56309e-15 0)
(1.4 1.96002e-15 0)
(1.4 2.25977e-15 0)
(1.4 2.54688e-15 0)
(1.4 2.69387e-15 0)
(1.4 2.77179e-15 0)
(1.4 3.04813e-15 0)
(1.4 3.1009e-15 0)
(1.4 2.7549e-15 0)
(1.4 2.50369e-15 0)
(1.4 2.00967e-15 0)
(1.4 1.53919e-15 0)
(1.4 1.32105e-15 0)
(1.4 1.20756e-15 0)
(1.4 1.01719e-15 0)
(1.4 7.85596e-16 0)
(1.4 5.63077e-16 0)
(1.4 6.09356e-16 0)
(1.4 6.11808e-16 0)
(1.4 7.07227e-16 0)
(1.4 9.22335e-16 0)
(1.4 1.20847e-15 0)
(1.4 1.29532e-15 0)
(1.4 1.16155e-15 0)
(1.4 1.06333e-15 0)
(1.4 1.08268e-15 0)
(1.4 1.29063e-15 0)
(1.4 1.33463e-15 0)
(1.4 1.41009e-15 0)
(1.4 1.13636e-15 0)
(1.4 9.37509e-16 0)
(1.4 7.1481e-16 0)
(1.4 2.88746e-16 0)
(1.4 2.35825e-16 0)
(1.4 -2.55471e-16 0)
(1.4 -4.95261e-17 0)
(1.4 1.63854e-16 0)
(1.4 3.07579e-16 0)
(1.4 4.17881e-16 0)
(1.4 5.39022e-16 0)
(1.4 5.00454e-16 0)
(1.4 6.05279e-16 0)
(1.4 7.55522e-16 0)
(1.4 9.70067e-16 0)
(1.4 1.37267e-15 0)
(1.4 1.57781e-15 0)
(1.4 1.71955e-15 0)
(1.4 1.82956e-15 0)
(1.4 1.87433e-15 0)
(1.4 1.85308e-15 0)
(1.4 1.76942e-15 0)
(1.4 1.68978e-15 0)
(1.4 1.61336e-15 0)
(1.4 1.61052e-15 0)
(1.4 1.80394e-15 0)
(1.4 2.27076e-15 0)
(1.4 2.457e-15 0)
(1.4 2.49092e-15 0)
(1.4 2.30841e-15 0)
(1.4 2.33069e-15 0)
(1.4 2.2206e-15 0)
(1.4 2.2905e-15 0)
(1.4 2.3115e-15 0)
(1.4 2.32824e-15 0)
(1.4 2.05502e-15 0)
(1.4 1.79382e-15 0)
(1.4 1.53742e-15 0)
(1.4 1.37228e-15 0)
(1.4 1.53408e-15 0)
(1.4 1.97901e-15 0)
(1.4 2.26132e-15 0)
(1.4 2.76164e-15 0)
(1.4 2.83896e-15 0)
(1.4 2.76086e-15 0)
(1.4 2.57267e-15 0)
(1.4 2.15466e-15 0)
(1.4 1.71841e-15 0)
(1.4 1.51718e-15 0)
(1.4 1.44535e-15 0)
(1.4 1.29844e-15 0)
(1.4 1.19351e-15 0)
(1.4 1.25479e-15 0)
(1.4 1.25774e-15 0)
(1.4 1.28997e-15 0)
(1.4 1.29282e-15 0)
(1.4 1.39686e-15 0)
(1.4 1.93156e-15 0)
(1.4 2.18228e-15 0)
(1.4 2.13769e-15 0)
(1.4 1.26919e-15 0)
(1.4 1.15131e-15 0)
(1.4 9.20107e-16 0)
(1.4 6.92675e-16 0)
(1.4 6.01245e-16 0)
(1.4 1.47401e-16 0)
(1.4 -4.17774e-17 0)
(1.4 -1.22025e-16 0)
(1.4 -2.17017e-16 0)
(1.4 -3.63408e-16 0)
(1.4 -4.76669e-16 0)
(1.4 2.48115e-17 0)
(1.4 2.27389e-16 0)
(1.4 3.58136e-16 0)
(1.4 3.69522e-16 0)
(1.4 4.59209e-16 0)
(1.4 5.59921e-16 0)
(1.4 7.67352e-16 0)
(1.4 5.66342e-16 0)
(1.4 1.08043e-16 0)
(1.4 -1.84509e-16 0)
(1.4 -8.47619e-17 0)
(1.4 -4.3204e-17 0)
(1.4 2.7357e-16 0)
(1.4 2.74871e-18 0)
(1.4 -6.67571e-17 0)
(1.4 -6.80927e-18 0)
(1.4 -5.49282e-17 0)
(1.4 1.69668e-16 0)
(1.4 -1.22041e-16 0)
(1.4 -2.13721e-16 0)
(1.4 -2.13877e-16 0)
(1.4 -2.89788e-16 0)
(1.4 -5.31228e-16 0)
(1.4 -5.94141e-16 0)
(1.4 -6.5046e-17 0)
(1.4 -5.13394e-17 0)
(1.4 -2.42167e-17 0)
(1.4 -1.55047e-16 0)
(1.4 -2.00373e-16 0)
(1.4 -1.6508e-16 0)
(1.4 -1.3408e-16 0)
(1.4 -5.34686e-17 0)
(1.4 2.65375e-17 0)
(1.4 1.57178e-16 0)
(1.4 1.22537e-16 0)
(1.4 5.6968e-17 0)
(1.4 -7.34125e-18 0)
(1.4 -8.32303e-17 0)
(1.4 -1.4907e-16 0)
(1.4 -1.69213e-16 0)
(1.4 -1.88471e-16 0)
(1.4 -6.96184e-17 0)
(1.4 -2.30993e-16 0)
(1.4 -2.43839e-16 0)
(1.4 -2.31375e-16 0)
(1.4 -3.04914e-16 0)
(1.4 -4.33549e-16 0)
(1.4 -5.79307e-16 0)
(1.4 -6.45593e-16 0)
(1.4 -6.29287e-16 0)
(1.4 -5.72568e-16 0)
(1.4 -4.899e-16 0)
(1.4 -2.89133e-16 0)
(1.4 -2.98049e-16 0)
(1.4 -3.78447e-16 0)
(1.4 -3.53727e-16 0)
(1.4 -3.02279e-16 0)
(1.4 -1.77035e-16 0)
(1.4 -9.87279e-17 0)
(1.4 2.13301e-16 0)
(1.4 5.60759e-16 0)
(1.4 1.02376e-15 0)
(1.4 1.08021e-15 0)
(1.4 1.02845e-15 0)
(1.4 9.58236e-16 0)
(1.4 9.93672e-16 0)
(1.4 1.07016e-15 0)
(1.4 1.09854e-15 0)
(1.4 1.14985e-15 0)
(1.4 1.14321e-15 0)
(1.4 1.36699e-15 0)
(1.4 1.40823e-15 0)
(1.4 1.59579e-15 0)
(1.4 1.46878e-15 0)
(1.4 1.46795e-15 0)
(1.4 1.34279e-15 0)
(1.4 1.23407e-15 0)
(1.4 1.30471e-15 0)
(1.4 1.34214e-15 0)
(1.4 1.55309e-15 0)
(1.4 1.70567e-15 0)
(1.4 2.02811e-15 0)
(1.4 1.92175e-15 0)
(1.4 2.09314e-15 0)
(1.4 1.79728e-15 0)
(1.4 1.43029e-15 0)
(1.4 1.2174e-15 0)
(1.4 1.18721e-15 0)
(1.4 1.07999e-15 0)
(1.4 1.08109e-15 0)
(1.4 3.32945e-16 0)
(1.4 -1.52301e-16 0)
(1.4 2.87328e-18 0)
(1.4 3.23554e-16 0)
(1.4 6.8515e-16 0)
(1.4 7.41074e-16 0)
(1.4 9.47714e-16 0)
(1.4 1.12411e-15 0)
(1.4 1.32222e-15 0)
(1.4 1.78144e-15 0)
(1.4 2.00858e-15 0)
(1.4 2.20025e-15 0)
(1.4 2.0884e-15 0)
(1.4 1.88644e-15 0)
(1.4 1.67623e-15 0)
(1.4 1.59842e-15 0)
(1.4 1.45497e-15 0)
(1.4 1.42348e-15 0)
(1.4 1.20792e-15 0)
(1.4 8.73366e-16 0)
(1.4 -4.44998e-17 0)
(1.4 -3.50975e-16 0)
(1.4 -5.36247e-16 0)
(1.4 -1.1189e-15 0)
(1.4 -1.41411e-15 0)
(1.4 -1.88094e-15 0)
(1.4 -2.08898e-15 0)
(1.4 -2.19558e-15 0)
(1.4 -1.82619e-15 0)
(1.4 -1.58129e-15 0)
(1.4 -1.54503e-15 0)
(1.4 -1.45781e-15 0)
(1.4 -1.36871e-15 0)
(1.4 -9.29089e-16 0)
(1.4 -7.86297e-16 0)
(1.4 -4.56108e-16 0)
(1.4 9.29656e-17 0)
(1.4 2.83172e-16 0)
(1.4 7.19333e-16 0)
(1.4 1.01389e-15 0)
(1.4 1.52933e-15 0)
(1.4 1.94687e-15 0)
(1.4 2.16424e-15 0)
(1.4 2.01564e-15 0)
(1.4 1.61135e-15 0)
(1.4 1.1581e-15 0)
(1.4 7.97738e-16 0)
(1.4 7.71627e-16 0)
(1.4 2.91013e-16 0)
(1.4 -4.80223e-16 0)
(1.4 -1.1604e-15 0)
(1.4 -1.96814e-15 0)
(1.4 -2.27545e-15 0)
(1.4 -2.72808e-15 0)
(1.4 -3.3288e-15 0)
(1.4 -3.62018e-15 0)
(1.4 -3.8606e-15 0)
(1.4 -3.95324e-15 0)
(1.4 -3.88954e-15 0)
(1.4 -3.76358e-15 0)
(1.4 -3.87434e-15 0)
(1.4 -3.79309e-15 0)
(1.4 -3.77301e-15 0)
(1.4 -3.88206e-15 0)
(1.4 -4.015e-15 0)
(1.4 -4.18039e-15 0)
(1.4 -4.19471e-15 0)
(1.4 -4.09932e-15 0)
(1.4 -3.99884e-15 0)
(1.4 -4.05746e-15 0)
(1.4 -4.04028e-15 0)
(1.4 -3.8548e-15 0)
(1.4 -3.88513e-15 0)
(1.4 -3.50037e-15 0)
(1.4 -3.44216e-15 0)
(1.4 -3.19759e-15 0)
(1.4 -3.03775e-15 0)
(1.4 -2.75989e-15 0)
(1.4 -2.35266e-15 0)
(1.4 -2.09365e-15 0)
(1.4 -2.00243e-15 0)
(1.4 -1.83685e-15 0)
(1.4 -1.63026e-15 0)
(1.4 -1.25333e-15 0)
(1.4 -7.53324e-16 0)
(1.4 1.25906e-16 0)
(1.4 1.45272e-15 0)
(1.4 2.18871e-15 0)
(1.4 2.67399e-15 0)
(1.4 3.61635e-15 0)
(1.4 4.28125e-15 0)
(1.4 4.2356e-15 0)
(1.4 4.25886e-15 0)
(1.4 4.21831e-15 0)
(1.4 4.33377e-15 0)
(1.4 4.40558e-15 0)
(1.4 4.3555e-15 0)
(1.4 4.33524e-15 0)
(1.4 4.21331e-15 0)
(1.4 3.80194e-15 0)
(1.4 3.588e-15 0)
(1.4 3.24459e-15 0)
(1.4 2.9642e-15 0)
(1.4 2.67756e-15 0)
(1.4 2.55569e-15 0)
(1.4 2.51746e-15 0)
(1.4 2.28053e-15 0)
(1.4 2.16474e-15 0)
(1.4 2.17859e-15 0)
(1.4 2.32681e-15 0)
(1.4 2.35715e-15 0)
(1.4 2.34824e-15 0)
(1.4 2.58632e-15 0)
(1.4 2.59421e-15 0)
(1.4 2.51912e-15 0)
(1.4 2.50232e-15 0)
(1.4 2.38689e-15 0)
(1.4 1.95672e-15 0)
(1.4 1.63395e-15 0)
(1.4 1.50836e-15 0)
(1.4 1.40753e-15 0)
(1.4 1.49601e-15 0)
(1.4 1.30704e-15 0)
(1.4 1.22446e-15 0)
(1.4 7.3278e-16 0)
(1.4 4.15492e-16 0)
(1.4 1.16635e-16 0)
(1.4 -7.27896e-17 0)
(1.4 -1.88895e-16 0)
(1.4 -4.28052e-16 0)
(1.4 -5.80991e-16 0)
(1.4 -4.29133e-16 0)
(1.4 -2.68623e-16 0)
(1.4 1.4979e-16 0)
(1.4 3.88388e-16 0)
(1.4 4.76717e-16 0)
(1.4 9.08113e-16 0)
(1.4 1.05773e-15 0)
(1.4 1.04332e-15 0)
(1.4 9.24755e-16 0)
(1.4 6.64194e-16 0)
(1.4 7.66312e-17 0)
(1.4 -1.17288e-15 0)
(1.4 -2.28106e-15 0)
(1.4 -3.04253e-15 0)
(1.4 -3.67559e-15 0)
(1.4 -4.068e-15 0)
(1.4 -4.24439e-15 0)
(1.4 -4.17488e-15 0)
(1.4 -4.16426e-15 0)
(1.4 -3.97322e-15 0)
(1.4 -3.46075e-15 0)
(1.4 -3.00031e-15 0)
(1.4 -2.80255e-15 0)
(1.4 -2.64214e-15 0)
(1.4 -2.62437e-15 0)
(1.4 -2.55948e-15 0)
(1.4 -2.5567e-15 0)
(1.4 -2.52265e-15 0)
(1.4 -2.48562e-15 0)
(1.4 -2.47766e-15 0)
(1.4 -2.83089e-15 0)
(1.4 -3.21156e-15 0)
(1.4 -3.35109e-15 0)
(1.4 -3.70268e-15 0)
(1.4 -4.08278e-15 0)
(1.4 -4.50923e-15 0)
(1.4 -4.69553e-15 0)
(1.4 -4.89123e-15 0)
(1.4 -5.43019e-15 0)
(1.4 -6.00222e-15 0)
(1.4 -6.36348e-15 0)
(1.4 -6.58725e-15 0)
(1.4 -6.5252e-15 0)
(1.4 -6.45553e-15 0)
(1.4 -6.43023e-15 0)
(1.4 -6.08819e-15 0)
(1.4 -5.85654e-15 0)
(1.4 -5.29248e-15 0)
(1.4 -4.84104e-15 0)
(1.4 -4.01417e-15 0)
(1.4 -3.17251e-15 0)
(1.4 -2.71297e-15 0)
(1.4 -2.22714e-15 0)
(1.4 -1.94601e-15 0)
(1.4 -1.838e-15 0)
(1.4 -1.75684e-15 0)
(1.4 -1.53909e-15 0)
(1.4 -1.49707e-15 0)
(1.4 -1.30895e-15 0)
(1.4 -1.03205e-15 0)
(1.4 3.02907e-16 0)
(1.4 1.00284e-15 0)
(1.4 1.87664e-15 0)
(1.4 2.43819e-15 0)
(1.4 2.92351e-15 0)
(1.4 3.23257e-15 0)
(1.4 3.4642e-15 0)
(1.4 3.65133e-15 0)
(1.4 3.98485e-15 0)
(1.4 4.02962e-15 0)
(1.4 4.08925e-15 0)
(1.4 3.65721e-15 0)
(1.4 3.45563e-15 0)
(1.4 3.27015e-15 0)
(1.4 3.26923e-15 0)
(1.4 3.2925e-15 0)
(1.4 3.38655e-15 0)
(1.4 3.40607e-15 0)
(1.4 3.27109e-15 0)
(1.4 2.85093e-15 0)
(1.4 2.54467e-15 0)
(1.4 2.47915e-15 0)
(1.4 2.59887e-15 0)
(1.4 2.75747e-15 0)
(1.4 2.49926e-15 0)
(1.4 2.49405e-15 0)
(1.4 2.45585e-15 0)
(1.4 2.44328e-15 0)
(1.4 2.4337e-15 0)
(1.4 2.11958e-15 0)
(1.4 2.14486e-15 0)
(1.4 1.96531e-15 0)
(1.4 1.70326e-15 0)
(1.4 1.626e-15 0)
(1.4 1.3902e-15 0)
(1.4 1.10248e-15 0)
(1.4 9.9559e-16 0)
(1.4 1.02215e-15 0)
(1.4 9.95892e-16 0)
(1.4 8.90827e-16 0)
(1.4 1.07265e-15 0)
(1.4 1.17618e-15 0)
(1.4 1.15814e-15 0)
(1.4 1.39182e-15 0)
(1.4 1.6953e-15 0)
(1.4 1.95989e-15 0)
(1.4 2.1909e-15 0)
(1.4 2.37941e-15 0)
(1.4 2.59982e-15 0)
(1.4 2.99556e-15 0)
(1.4 3.21451e-15 0)
(1.4 3.59407e-15 0)
(1.4 4.22817e-15 0)
(1.4 4.60721e-15 0)
(1.4 4.66611e-15 0)
(1.4 4.35969e-15 0)
(1.4 3.88948e-15 0)
(1.4 3.71259e-15 0)
(1.4 3.69469e-15 0)
(1.4 3.9144e-15 0)
(1.4 4.08346e-15 0)
(1.4 4.14686e-15 0)
(1.4 4.0079e-15 0)
(1.4 3.2992e-15 0)
(1.4 2.6695e-15 0)
(1.4 2.47548e-15 0)
(1.4 2.39517e-15 0)
(1.4 2.58012e-15 0)
(1.4 2.73256e-15 0)
(1.4 2.72394e-15 0)
(1.4 2.47891e-15 0)
(1.4 2.14693e-15 0)
(1.4 1.95677e-15 0)
(1.4 1.88483e-15 0)
(1.4 2.04668e-15 0)
(1.4 2.41284e-15 0)
(1.4 2.42658e-15 0)
(1.4 2.10732e-15 0)
(1.4 2.13359e-15 0)
(1.4 1.76775e-15 0)
(1.4 1.54457e-15 0)
(1.4 1.256e-15 0)
(1.4 1.13877e-15 0)
(1.4 1.06559e-15 0)
(1.4 1.08922e-15 0)
(1.4 1.04716e-15 0)
(1.4 1.09936e-15 0)
(1.4 1.15801e-15 0)
(1.4 1.05098e-15 0)
(1.4 7.88938e-16 0)
(1.4 6.5026e-16 0)
(1.4 5.85173e-16 0)
(1.4 7.1571e-16 0)
(1.4 3.52192e-16 0)
(1.4 -1.44143e-16 0)
(1.4 -5.59372e-16 0)
(1.4 -8.24349e-16 0)
(1.4 -9.36295e-16 0)
(1.4 -1.21072e-15 0)
(1.4 -1.5156e-15 0)
(1.4 -1.58514e-15 0)
(1.4 -1.51686e-15 0)
(1.4 -1.50264e-15 0)
(1.4 -1.36961e-15 0)
(1.4 -1.12488e-15 0)
(1.4 -1.0821e-15 0)
(1.4 -1.04744e-15 0)
(1.4 -1.25925e-15 0)
(1.4 -1.61295e-15 0)
(1.4 -2.26628e-15 0)
(1.4 -2.76947e-15 0)
(1.4 -3.09592e-15 0)
(1.4 -3.31919e-15 0)
(1.4 -2.95826e-15 0)
(1.4 -2.7624e-15 0)
(1.4 -2.54248e-15 0)
(1.4 -2.4788e-15 0)
(1.4 -2.49387e-15 0)
(1.4 -1.97288e-15 0)
(1.4 -1.61528e-15 0)
(1.4 -1.61498e-15 0)
(1.4 -1.58521e-15 0)
(1.4 -1.59244e-15 0)
(1.4 -1.51658e-15 0)
(1.4 -1.26727e-15 0)
(1.4 -1.06312e-15 0)
(1.4 -8.74253e-16 0)
(1.4 5.60536e-17 0)
(1.4 6.90085e-17 0)
(1.4 9.64477e-17 0)
(1.4 1.33218e-16 0)
(1.4 1.28941e-16 0)
(1.4 2.05211e-16 0)
(1.4 1.49582e-16 0)
(1.4 9.44683e-17 0)
(1.4 -3.96424e-17 0)
(1.4 -1.92831e-16 0)
(1.4 -2.48169e-16 0)
(1.4 -3.83739e-16 0)
(1.4 -4.53706e-16 0)
(1.4 -4.61247e-16 0)
(1.4 -3.70703e-16 0)
(1.4 -2.13157e-16 0)
(1.4 -1.52024e-16 0)
(1.4 -9.35888e-17 0)
(1.4 -6.15589e-17 0)
(1.4 -8.44652e-17 0)
(1.4 -6.49229e-17 0)
(1.4 -8.62402e-17 0)
(1.4 -1.77504e-16 0)
(1.4 5.30171e-17 0)
(1.4 2.78073e-16 0)
(1.4 5.94528e-16 0)
(1.4 1.00616e-15 0)
(1.4 8.89761e-16 0)
(1.4 7.53515e-16 0)
(1.4 4.6142e-16 0)
(1.4 2.41191e-16 0)
(1.4 3.63665e-17 0)
(1.4 1.94507e-18 0)
(1.4 1.49147e-16 0)
(1.4 4.34295e-16 0)
(1.4 7.34687e-16 0)
(1.4 8.73513e-16 0)
(1.4 9.16923e-16 0)
(1.4 1.2949e-15 0)
(1.4 1.41348e-15 0)
(1.4 1.4995e-15 0)
(1.4 1.49685e-15 0)
(1.4 1.69833e-15 0)
(1.4 1.98293e-15 0)
(1.4 2.36853e-15 0)
(1.4 2.54655e-15 0)
(1.4 2.58522e-15 0)
(1.4 2.53033e-15 0)
(1.4 2.45507e-15 0)
(1.4 2.44669e-15 0)
(1.4 3.02374e-15 0)
(1.4 3.23402e-15 0)
(1.4 3.51198e-15 0)
(1.4 3.54859e-15 0)
(1.4 3.54176e-15 0)
(1.4 3.50991e-15 0)
(1.4 3.2263e-15 0)
(1.4 2.89199e-15 0)
(1.4 2.65129e-15 0)
(1.4 2.32332e-15 0)
(1.4 2.18514e-15 0)
(1.4 2.10108e-15 0)
(1.4 1.97467e-15 0)
(1.4 1.91999e-15 0)
(1.4 1.71509e-15 0)
(1.4 1.61331e-15 0)
(1.4 1.31014e-15 0)
(1.4 1.10652e-15 0)
(1.4 1.35751e-15 0)
(1.4 1.59776e-15 0)
(1.4 2.00898e-15 0)
(1.4 2.08283e-15 0)
(1.4 2.23511e-15 0)
(1.4 2.41851e-15 0)
(1.4 2.63468e-15 0)
(1.4 2.56083e-15 0)
(1.4 2.24013e-15 0)
(1.4 1.66872e-15 0)
(1.4 1.09757e-15 0)
(1.4 3.49674e-16 0)
(1.4 -1.29967e-16 0)
(1.4 -5.94868e-16 0)
(1.4 -8.9716e-16 0)
(1.4 -1.18999e-15 0)
(1.4 -1.47424e-15 0)
(1.4 -1.81903e-15 0)
(1.4 -2.01013e-15 0)
(1.4 -2.1179e-15 0)
(1.4 -2.26617e-15 0)
(1.4 -2.2366e-15 0)
(1.4 -2.17782e-15 0)
(1.4 -1.93134e-15 0)
(1.4 -1.91261e-15 0)
(1.4 -1.76356e-15 0)
(1.4 -1.72661e-15 0)
(1.4 -1.54125e-15 0)
(1.4 -1.12517e-15 0)
(1.4 -8.073e-16 0)
(1.4 -5.03994e-16 0)
(1.4 4.45288e-17 0)
(1.4 3.35562e-16 0)
(1.4 6.70802e-16 0)
(1.4 9.95783e-16 0)
(1.4 1.53601e-15 0)
(1.4 1.9385e-15 0)
(1.4 1.85281e-15 0)
(1.4 1.28883e-15 0)
(1.4 3.57254e-16 0)
(1.4 8.40304e-17 0)
(1.4 9.83899e-17 0)
(1.4 2.22872e-16 0)
(1.4 2.00274e-16 0)
(1.4 -7.92674e-18 0)
(1.4 -1.64573e-16 0)
(1.4 -3.89574e-16 0)
(1.4 -4.24537e-16 0)
(1.4 -1.04208e-15 0)
(1.4 -1.28721e-15 0)
(1.4 -1.6894e-15 0)
(1.4 -2.07212e-15 0)
(1.4 -2.67558e-15 0)
(1.4 -3.08929e-15 0)
(1.4 -3.36004e-15 0)
(1.4 -3.71451e-15 0)
(1.4 -3.99782e-15 0)
(1.4 -4.48921e-15 0)
(1.4 -4.70748e-15 0)
(1.4 -4.80069e-15 0)
(1.4 -4.8101e-15 0)
(1.4 -4.84482e-15 0)
(1.4 -4.85472e-15 0)
(1.4 -4.7613e-15 0)
(1.4 -4.55775e-15 0)
(1.4 -4.40377e-15 0)
(1.4 -4.41427e-15 0)
(1.4 -4.45752e-15 0)
(1.4 -4.52064e-15 0)
(1.4 -4.562e-15 0)
(1.4 -4.65537e-15 0)
(1.4 -4.79562e-15 0)
(1.4 -4.61658e-15 0)
(1.4 -4.49961e-15 0)
(1.4 -4.26969e-15 0)
(1.4 -3.56285e-15 0)
(1.4 -2.62274e-15 0)
(1.4 -1.93691e-15 0)
(1.4 -1.78646e-15 0)
(1.4 -1.19353e-15 0)
(1.4 -9.38209e-16 0)
(1.4 -4.90203e-16 0)
(1.4 2.79769e-16 0)
(1.4 8.32044e-16 0)
(1.4 1.29678e-15 0)
(1.4 1.55954e-15 0)
(1.4 2.366e-15 0)
(1.4 3.00342e-15 0)
(1.4 3.82854e-15 0)
(1.4 4.71476e-15 0)
(1.4 4.93143e-15 0)
(1.4 4.99429e-15 0)
(1.4 5.06199e-15 0)
(1.4 4.90838e-15 0)
(1.4 4.71218e-15 0)
(1.4 4.28023e-15 0)
(1.4 3.83176e-15 0)
(1.4 3.29872e-15 0)
(1.4 3.06706e-15 0)
(1.4 2.86129e-15 0)
(1.4 2.55863e-15 0)
(1.4 2.17061e-15 0)
(1.4 1.90488e-15 0)
(1.4 1.65672e-15 0)
(1.4 1.51468e-15 0)
(1.4 1.41393e-15 0)
(1.4 1.28138e-15 0)
(1.4 1.27477e-15 0)
(1.4 1.38179e-15 0)
(1.4 1.70367e-15 0)
(1.4 1.62492e-15 0)
(1.4 1.58381e-15 0)
(1.4 1.65308e-15 0)
(1.4 1.68438e-15 0)
(1.4 1.74498e-15 0)
(1.4 1.91303e-15 0)
(1.4 1.81884e-15 0)
(1.4 1.56279e-15 0)
(1.4 1.30013e-15 0)
(1.4 1.3032e-15 0)
(1.4 8.87003e-16 0)
(1.4 6.36835e-16 0)
(1.4 4.49228e-16 0)
(1.4 1.63653e-16 0)
(1.4 1.65573e-17 0)
(1.4 -2.44706e-16 0)
(1.4 -3.85877e-16 0)
(1.4 -5.05357e-16 0)
(1.4 -4.89977e-16 0)
(1.4 -4.58636e-16 0)
(1.4 -3.98757e-16 0)
(1.4 2.5007e-16 0)
(1.4 9.00215e-16 0)
(1.4 1.66639e-15 0)
(1.4 1.82637e-15 0)
(1.4 1.93876e-15 0)
(1.4 1.74225e-15 0)
(1.4 1.1817e-15 0)
(1.4 7.49159e-16 0)
(1.4 3.64352e-16 0)
(1.4 -7.82761e-17 0)
(1.4 -5.80993e-16 0)
(1.4 -1.1166e-15 0)
(1.4 -1.68809e-15 0)
(1.4 -1.78255e-15 0)
(1.4 -2.16241e-15 0)
(1.4 -2.95046e-15 0)
(1.4 -3.30208e-15 0)
(1.4 -3.45026e-15 0)
(1.4 -3.31464e-15 0)
(1.4 -3.07222e-15 0)
(1.4 -2.79832e-15 0)
(1.4 -2.44286e-15 0)
(1.4 -2.36446e-15 0)
(1.4 -2.28101e-15 0)
(1.4 -2.21018e-15 0)
(1.4 -2.03344e-15 0)
(1.4 -1.74418e-15 0)
(1.4 -1.93498e-15 0)
(1.4 -2.05054e-15 0)
(1.4 -2.32435e-15 0)
(1.4 -2.47785e-15 0)
(1.4 -2.54109e-15 0)
(1.4 -2.60318e-15 0)
(1.4 -2.9648e-15 0)
(1.4 -3.28237e-15 0)
(1.4 -3.65147e-15 0)
(1.4 -3.94593e-15 0)
(1.4 -4.10569e-15 0)
(1.4 -4.31777e-15 0)
(1.4 -4.57106e-15 0)
(1.4 -4.35378e-15 0)
(1.4 -4.04692e-15 0)
(1.4 -3.47304e-15 0)
(1.4 -3.01873e-15 0)
(1.4 -2.72929e-15 0)
(1.4 -2.00223e-15 0)
(1.4 -1.46702e-15 0)
(1.4 -9.01652e-16 0)
(1.4 -8.56034e-16 0)
(1.4 -5.4197e-16 0)
(1.4 2.71875e-16 0)
(1.4 6.97838e-16 0)
(1.4 9.38828e-16 0)
(1.4 7.41408e-16 0)
(1.4 7.11914e-16 0)
(1.4 6.54679e-16 0)
(1.4 5.09477e-16 0)
(1.4 5.26686e-16 0)
(1.4 6.16066e-16 0)
(1.4 8.78339e-16 0)
(1.4 1.13557e-15 0)
(1.4 1.51629e-15 0)
(1.4 2.16146e-15 0)
(1.4 2.27998e-15 0)
(1.4 2.35014e-15 0)
(1.4 2.5365e-15 0)
(1.4 2.74957e-15 0)
(1.4 2.77692e-15 0)
(1.4 3.04076e-15 0)
(1.4 3.47327e-15 0)
(1.4 3.8676e-15 0)
(1.4 4.06578e-15 0)
(1.4 4.27373e-15 0)
(1.4 4.24396e-15 0)
(1.4 4.20956e-15 0)
(1.4 4.16943e-15 0)
(1.4 4.16928e-15 0)
(1.4 4.00027e-15 0)
(1.4 3.96595e-15 0)
(1.4 3.9497e-15 0)
(1.4 3.82197e-15 0)
(1.4 3.91797e-15 0)
(1.4 3.11905e-15 0)
(1.4 2.89624e-15 0)
(1.4 2.71292e-15 0)
(1.4 2.63028e-15 0)
(1.4 2.54652e-15 0)
(1.4 2.07452e-15 0)
(1.4 1.88854e-15 0)
(1.4 1.74029e-15 0)
(1.4 1.57212e-15 0)
(1.4 1.52386e-15 0)