2 	-9.37415 	-2.68069e-17 	1.00779 	-0.0092572 	5.78637e-22
2 	-8.69899 	-2.63403e-17 	1.00867 	-0.00956028 	4.97167e-22
2 	-8.03174 	-2.66103e-17 	1.00973 	-0.0095695 	-1.22395e-22
2 	-7.37229 	-2.36867e-17 	1.01126 	-0.0100921 	-1.30107e-23
2 	-6.88233 	-2.20773e-17 	1.01301 	-0.00944164 	-1.85908e-21
2 	-6.55837 	-2.08035e-17 	1.0129 	-0.00976435 	-3.99206e-22
2 	-6.07643 	-1.66025e-17 	1.01534 	-0.0106712 	-9.85389e-22
2 	-5.43983 	-1.37768e-17 	1.01916 	-0.00934263 	1.27861e-22
2 	-5.11668 	-1.13232e-17 	1.02271 	-0.0100112 	-8.3135e-21
2 	-4.96919 	-7.69532e-18 	1.02295 	-0.00910281 	2.5846e-20
2 	-4.82676 	-4.62939e-18 	1.02317 	-0.0081651 	-2.01382e-20
2 	-4.69874 	-3.5354e-18 	1.02569 	-0.00896578 	3.67099e-20
2 	-4.55243 	-2.61984e-18 	1.02599 	-0.00798697 	-1.91307e-20
2 	-4.43541 	3.28152e-19 	1.0289 	-0.00892852 	-2.94178e-20
2 	-4.29179 	3.46255e-18 	1.02928 	-0.00782053 	-7.05127e-21
2 	-4.18433 	3.5744e-18 	1.0325 	-0.00896604 	2.74869e-20
2 	-4.04319 	1.00512e-18 	1.03298 	-0.00777924 	-1.42482e-20
2 	-3.94409 	-1.44521e-18 	1.03649 	-0.00942063 	-1.58347e-21
2 	-3.83348 	-2.65016e-18 	1.03712 	-0.00816698 	-6.35463e-20
2 	-3.71316 	-2.0392e-18 	1.03776 	-0.00685604 	5.65315e-20
2 	-3.62792 	-1.3985e-18 	1.04167 	-0.00897729 	-4.74586e-20
2 	-3.49179 	-8.96387e-19 	1.04249 	-0.00764469 	6.27835e-20
2 	-3.41101 	9.47546e-19 	1.04333 	-0.00624906 	-1.2235e-19
2 	-3.3367 	1.32623e-18 	1.04752 	-0.00922172 	-3.99265e-20
2 	-3.20027 	1.11631e-18 	1.0486 	-0.00787958 	7.1593e-20
2 	-3.13057 	-1.73472e-18 	1.05263 	-0.0116784 	-3.64923e-20
2 	-3.05876 	-4.18381e-18 	1.05395 	-0.0104948 	-7.75389e-21
2 	-2.9314 	-4.9004e-18 	1.05536 	-0.00926398 	-1.48704e-20
2 	-2.86733 	-1.80992e-18 	1.05686 	-0.00797847 	-9.9483e-20
2 	-2.80891 	-5.95056e-18 	1.06056 	-0.0133953 	9.10847e-20
2 	-2.69742 	-6.49318e-18 	1.06233 	-0.0124661 	-5.69297e-20
2 	-2.61725 	-3.02e-18 	1.06425 	-0.0115108 	3.95541e-20
2 	-2.56471 	-2.42489e-18 	1.0666 	-0.0184296 	5.48019e-20
2 	-2.487 	-3.79076e-19 	1.06871 	-0.0180862 	5.24737e-20
2 	-2.38935 	2.62267e-18 	1.07103 	-0.017776 	-4.11008e-20
2 	-2.32938 	4.54058e-18 	1.07359 	-0.0174954 	-5.78505e-20
2 	-2.28387 	4.31438e-18 	1.07296 	-0.0267242 	-5.02039e-20
2 	-2.20713 	3.88942e-18 	1.07552 	-0.0274851 	-2.07415e-21
2 	-2.12186 	5.40974e-18 	1.07838 	-0.0283931 	-4.62697e-20
2 	-2.05769 	6.0306e-18 	1.0816 	-0.0294539 	-6.39122e-20
2 	-2.01763 	5.55112e-18 	1.07495 	-0.0406265 	1.05321e-19
2 	-1.96148 	5.55112e-18 	1.07763 	-0.0433148 	-1.20738e-19
2 	-1.88587 	5.05886e-18 	1.08069 	-0.04637 	-3.10276e-20
2 	-1.81301 	2.81588e-18 	1.08419 	-0.0498223 	6.60779e-20
2 	-1.75942 	5.32577e-19 	1.08819 	-0.0537035 	-5.38576e-20
2 	-1.72488 	1.73472e-18 	1.06819 	-0.0662289 	-2.76803e-20
2 	-1.67476 	3.46945e-18 	1.07015 	-0.0726032 	1.38646e-19
2 	-1.60902 	6.03819e-18 	1.07243 	-0.0797928 	-1.86494e-19
2 	-1.54532 	4.6287e-18 	1.07505 	-0.0878814 	8.42077e-20
2 	-1.48352 	9.07613e-19 	1.07801 	-0.0969589 	-1.57831e-20
2 	-1.43952 	6.88169e-19 	1.08125 	-0.10712 	7.02534e-20
2 	-1.40994 	1.05797e-19 	1.0278 	-0.113049 	1.27844e-20
2 	-1.36514 	-3.1225e-18 	1.0231 	-0.125848 	3.61862e-21
2 	-1.30832 	-6.245e-18 	1.01684 	-0.14004 	-9.44337e-22
2 	-1.25294 	-9.51333e-18 	1.00816 	-0.155621 	-7.8411e-21
2 	-1.19891 	-1.37089e-17 	0.995715 	-0.172461 	4.80059e-20
2 	-1.14614 	-1.30591e-17 	0.977403 	-0.190224 	-6.1407e-20
2 	-1.09454 	-1.19972e-17 	0.950162 	-0.208341 	-3.55635e-20
2 	-1.06737 	-1.32857e-17 	0.910311 	-0.226157 	6.05082e-20
2 	-1.04239 	-1.53562e-17 	0.759536 	-0.158596 	4.28561e-20
2 	-0.99456 	-1.66533e-17 	0.691372 	-0.162725 	-1.39594e-20
2 	-0.946041 	-1.66533e-17 	0.614516 	-0.165373 	-1.11795e-20
2 	-0.898415 	-1.49186e-17 	0.535679 	-0.168628 	9.00239e-20
2 	-0.851623 	-1.5284e-17 	0.462717 	-0.174724 	-3.74082e-20
2 	-0.805606 	-1.60417e-17 	0.401641 	-0.185105 	-7.01103e-21
2 	-0.760312 	-1.44925e-17 	0.354647 	-0.199958 	-5.59304e-20
2 	-0.715689 	-1.33064e-17 	0.320578 	-0.218535 	2.55414e-20
2 	-0.671689 	-1.32017e-17 	0.296678 	-0.23979 	-6.77144e-21
2 	-0.628266 	2.8979e-18 	0.28029 	-0.262796 	-2.40336e-20
2 	-0.59159 	4.79349e-18 	0.269647 	-0.286844 	3.36295e-20
2 	-0.570272 	3.46945e-18 	0.197677 	-0.0784217 	6.68469e-20
2 	-0.542975 	-1.73472e-18 	0.18831 	-0.105639 	3.33643e-20
2 	-0.501025 	-5.20417e-18 	0.184057 	-0.134687 	-1.104e-19
2 	-0.459485 	-4.85723e-18 	0.184015 	-0.164805 	1.27872e-19
2 	-0.418319 	-5.89806e-18 	0.187483 	-0.195443 	3.65026e-20
2 	-0.377489 	-5.55112e-18 	0.194027 	-0.226207 	-1.0327e-19
2 	-0.336961 	-5.20417e-18 	0.203509 	-0.256803 	-7.83294e-20
2 	-0.296701 	-4.85723e-18 	0.216033 	-0.286981 	-7.51742e-20
2 	-0.256674 	-5.20417e-18 	0.231842 	-0.316494 	-6.87105e-20
2 	-0.216849 	-5.55112e-18 	0.251188 	-0.345083 	1.87286e-19
2 	-0.177193 	-6.93889e-18 	0.274213 	-0.372485 	-1.80888e-19
2 	-0.137675 	-8.32667e-18 	0.30089 	-0.398449 	1.25026e-19
2 	-0.098263 	-8.67362e-18 	0.331015 	-0.422752 	1.09962e-19
2 	-0.0589275 	-7.63278e-18 	0.364259 	-0.445215 	-6.86187e-20
2 	-0.0196374 	-6.59195e-18 	0.400233 	-0.465692 	-2.20128e-20
2 	0.0196374 	-4.16334e-18 	0.43855 	-0.484063 	-2.24569e-20
2 	0.0589275 	1.04083e-18 	0.478853 	-0.500214 	-7.62215e-20
2 	0.098263 	-1.04083e-18 	0.520812 	-0.514032 	1.33827e-19
2 	0.137675 	-3.81639e-18 	0.564093 	-0.525405 	1.6488e-19
2 	0.177193 	-3.46945e-18 	0.608324 	-0.534231 	-2.66117e-19
2 	0.216849 	-4.85723e-18 	0.653084 	-0.540437 	2.6819e-19
2 	0.256674 	-3.1225e-18 	0.697909 	-0.543993 	-9.49508e-20
2 	0.296701 	-4.51028e-18 	0.742318 	-0.544922 	-1.50708e-19
2 	0.336961 	-1.11022e-17 	0.785848 	-0.543299 	-2.26306e-19
2 	0.377489 	-1.45717e-17 	0.828083 	-0.53924 	-2.04579e-19
2 	0.418319 	-1.56125e-17 	0.868661 	-0.532893 	4.64064e-20
2 	0.459485 	-1.83881e-17 	0.907281 	-0.524429 	4.78013e-19
2 	0.501025 	-2.15106e-17 	0.943693 	-0.514033 	-4.95536e-19
2 	0.542975 	-2.15106e-17 	0.977696 	-0.501904 	-1.24777e-20
2 	0.570272 	-2.17983e-17 	1.00914 	-0.488253 	3.53911e-19
2 	0.59159 	-2.53314e-17 	0.97157 	-0.497231 	1.68472e-19
2 	0.628266 	-2.86993e-17 	0.994801 	-0.479712 	9.59058e-21
2 	0.671689 	-6.67125e-18 	1.0159 	-0.461594 	-4.81758e-20
2 	0.715689 	-7.23482e-18 	1.03492 	-0.443056 	-2.08114e-19
2 	0.760312 	-5.64545e-18 	1.05191 	-0.424269 	6.14482e-19
2 	0.805606 	-6.50067e-18 	1.06697 	-0.405391 	-2.89121e-21
2 	0.851623 	-1.23349e-17 	1.08022 	-0.386564 	1.38586e-19
2 	0.898415 	-1.63064e-17 	1.09178 	-0.367912 	-4.45629e-19
2 	0.946041 	-1.94289e-17 	1.10178 	-0.349543 	5.66638e-20
2 	0.99456 	-2.56739e-17 	1.11038 	-0.331546 	1.16976e-19
2 	1.04239 	-2.87057e-17 	1.11771 	-0.313993 	-2.16398e-19
2 	1.06737 	-2.8023e-17 	1.05327 	-0.295886 	-4.40249e-19
2 	1.09454 	-2.83036e-17 	1.06074 	-0.28028 	1.98605e-19
2 	1.14614 	-3.12737e-17 	1.06741 	-0.265203 	6.66631e-19
2 	1.19891 	-3.5393e-17 	1.07338 	-0.250668 	-6.35857e-19
2 	1.25294 	-3.6922e-17 	1.0787 	-0.236679 	3.93361e-19
2 	1.30832 	-3.60822e-17 	1.08345 	-0.223234 	-3.34455e-19
2 	1.36514 	-3.60822e-17 	1.08768 	-0.210328 	9.74687e-20
2 	1.40994 	-3.866e-17 	1.09144 	-0.197949 	1.00846e-19
2 	1.43952 	-3.73838e-17 	1.04629 	-0.180748 	2.25861e-19
2 	1.48352 	-3.55216e-17 	1.05138 	-0.170345 	-6.65573e-20
2 	1.54532 	-3.7807e-17 	1.05605 	-0.160366 	1.60274e-19
2 	1.60902 	-3.98669e-17 	1.06033 	-0.150795 	-5.83694e-19
2 	1.67476 	-4.16334e-17 	1.06423 	-0.141615 	3.6912e-19
2 	1.72488 	-3.99149e-17 	1.06778 	-0.132808 	-6.0644e-20
2 	1.75942 	-3.90354e-17 	1.03744 	-0.117424 	-1.06188e-19
2 	1.81301 	-3.69093e-17 	1.04184 	-0.110294 	1.4111e-19
2 	1.88587 	-3.32785e-17 	1.04588 	-0.103434 	-1.01129e-19
2 	1.96148 	-3.57353e-17 	1.04958 	-0.0968322 	-1.64383e-19
2 	2.01763 	-4.13628e-17 	1.05294 	-0.0904735 	1.83158e-19
2 	2.05769 	-4.46997e-17 	1.03236 	-0.0772479 	-7.29655e-20
2 	2.12186 	-4.64151e-17 	1.03611 	-0.0722881 	-2.55172e-20
2 	2.20713 	-4.62007e-17 	1.03954 	-0.0674804 	-4.70991e-20
2 	2.28387 	-4.61212e-17 	1.04265 	-0.0628169 	-3.33384e-20
2 	2.32938 	-4.76297e-17 	1.02847 	-0.0516351 	-7.90661e-20
2 	2.38935 	-4.72073e-17 	1.03164 	-0.0481333 	-4.9282e-20
2 	2.487 	-4.70865e-17 	1.03453 	-0.0446986 	3.45786e-20
2 	2.56471 	-4.53234e-17 	1.03715 	-0.0413292 	5.10667e-20
2 	2.61725 	-4.38368e-17 	1.0274 	-0.0325874 	3.1432e-20
2 	2.69742 	-4.32693e-17 	1.02988 	-0.0301097 	-2.66334e-20
2 	2.80891 	-4.33156e-17 	1.03213 	-0.0276414 	6.99815e-20
2 	2.86733 	-4.54199e-17 	1.02533 	-0.0206732 	-2.07152e-21
2 	2.9314 	-4.41052e-17 	1.02733 	-0.0188891 	-5.69699e-21
2 	3.05876 	-4.37355e-17 	1.02913 	-0.0170777 	1.59766e-20
2 	3.13057 	-4.52311e-17 	1.03076 	-0.0152451 	1.15236e-19
2 	3.20027 	1.36035e-17 	1.02583 	-0.0104692 	4.16771e-20
2 	3.3367 	9.07542e-18 	1.0272 	-0.00910474 	-3.08951e-20
2 	3.41101 	7.29654e-18 	1.02367 	-0.00536377 	2.37579e-20
2 	3.49179 	6.57889e-18 	1.02476 	-0.00433569 	4.11767e-20
2 	3.62792 	6.87268e-18 	1.02576 	-0.00325743 	-4.2499e-20
2 	3.71316 	9.01913e-18 	1.02301 	-0.000656956 	-1.36282e-20
2 	3.83348 	9.43229e-18 	1.02377 	0.000194359 	-4.02775e-20
2 	3.94409 	1.03342e-17 	1.02445 	0.00109091 	7.34016e-21
2 	4.04319 	1.03342e-17 	1.0222 	0.00268756 	-1.66591e-20
2 	4.18433 	9.30394e-18 	1.02269 	0.00343584 	5.66694e-21
2 	4.29179 	8.68347e-18 	1.02081 	0.00467826 	1.8352e-20
2 	4.43541 	9.66904e-18 	1.02114 	0.00532868 	-1.79852e-20
2 	4.55243 	1.32242e-17 	1.01943 	0.00595577 	-2.44663e-21
2 	4.69874 	1.26664e-17 	1.01965 	0.00652615 	1.76913e-20
2 	4.82676 	1.07572e-17 	1.01816 	0.0070652 	-7.14103e-21
2 	4.96919 	1.10868e-17 	1.01827 	0.00761125 	1.1945e-20
2 	5.11668 	1.10351e-17 	1.01836 	0.00817551 	-5.00512e-21
2 	5.43983 	1.10351e-17 	1.01599 	0.00819779 	1.81909e-22
2 	6.07643 	1.11022e-17 	1.01353 	0.00971577 	-3.39306e-22
2 	6.55837 	1.04074e-17 	1.01182 	0.00915029 	-5.58885e-23
2 	6.88233 	1.28231e-17 	1.01188 	0.00890969 	-5.14734e-22
2 	7.37229 	1.48667e-17 	1.01043 	0.0095045 	1.06395e-22
2 	8.03174 	9.26308e-18 	1.00923 	0.00910146 	5.60619e-23
2 	8.69899 	4.00573e-18 	1.00828 	0.00910425 	3.09454e-23
2 	9.37415 	2.91105e-18 	1.00752 	0.00885926 	-1.01653e-22
