/*--------------------------------*- C++ -*----------------------------------*\
  =========                 |
  \\      /  F ield         | OpenFOAM: The Open Source CFD Toolbox
   \\    /   O peration     | Website:  https://openfoam.org
    \\  /    A nd           | Version:  7
     \\/     M anipulation  |
\*---------------------------------------------------------------------------*/
FoamFile
{
    version     2.0;
    format      ascii;
    class       volScalarField;
    location    "14";
    object      rho;
}
// * * * * * * * * * * * * * * * * * * * * * * * * * * * * * * * * * * * * * //

dimensions      [1 -3 0 0 0 0 0];

internalField   nonuniform List<scalar> 
2413
(
1.51941
1.52431
1.52958
1.53513
1.54052
1.54507
1.54809
1.54873
1.54842
1.54788
1.54735
1.54691
1.54654
1.54597
1.54553
1.54524
1.54493
1.54477
1.54439
1.544
1.54378
1.54333
1.54248
1.54114
1.53926
1.53677
1.53369
1.53008
1.40001
1.40003
1.40007
1.4002
1.40046
1.40094
1.40162
1.40256
1.40362
1.40458
1.40551
1.40608
1.40635
1.40638
1.40618
1.40573
1.40508
1.40411
1.40285
1.40146
1.39982
1.3983
1.39692
1.39549
1.39443
1.39367
1.39312
1.39324
1.39352
1.39398
1.39489
1.39649
1.39873
1.40164
1.4051
1.40872
1.41302
1.41816
1.42349
1.42969
1.43733
1.44496
1.45242
1.45947
1.46473
1.46828
1.47118
1.47357
1.47569
1.47786
1.48036
1.48308
1.4856
1.48803
1.49054
1.4935
1.49664
1.50016
1.50435
1.50909
1.51524
1.52039
1.52518
1.53021
1.53595
1.54148
1.54604
1.54876
1.54921
1.54903
1.54859
1.54781
1.54679
1.54594
1.54561
1.54551
1.54532
1.54495
1.54441
1.54411
1.54407
1.54385
1.54343
1.54284
1.54194
1.54067
1.53911
1.53714
1.40001
1.40001
1.40001
1.40003
1.40008
1.4002
1.40043
1.40083
1.40142
1.40206
1.40283
1.40354
1.40402
1.40435
1.40439
1.40427
1.40402
1.40359
1.40287
1.40198
1.40083
1.3993
1.39797
1.39641
1.39509
1.39418
1.39344
1.39329
1.3934
1.39345
1.39377
1.39467
1.39597
1.39763
1.39975
1.40214
1.40515
1.40922
1.41377
1.41913
1.42617
1.43361
1.44086
1.44815
1.45394
1.45749
1.45991
1.46164
1.46309
1.46461
1.46641
1.46859
1.47094
1.4735
1.4763
1.47941
1.48294
1.48686
1.49168
1.49677
1.50257
1.50892
1.51556
1.5228
1.5288
1.53508
1.54092
1.54585
1.54796
1.54873
1.54865
1.54799
1.54714
1.54655
1.54611
1.54555
1.54498
1.5445
1.54409
1.54385
1.54362
1.54341
1.54318
1.54279
1.54224
1.54151
1.54056
1.53941
1.40001
1.40001
1.40001
1.40001
1.40002
1.40005
1.40011
1.40025
1.40052
1.40087
1.40138
1.40198
1.40249
1.403
1.40334
1.40345
1.40341
1.40326
1.40297
1.40252
1.40187
1.40086
1.39957
1.39813
1.39652
1.3954
1.39438
1.39367
1.39367
1.39367
1.39386
1.39458
1.39568
1.39697
1.39855
1.40041
1.40262
1.40566
1.40937
1.41372
1.41982
1.42688
1.43379
1.4411
1.4475
1.45144
1.4541
1.4558
1.45663
1.45743
1.45845
1.45965
1.46096
1.46248
1.46429
1.46654
1.46922
1.47246
1.47652
1.48135
1.48697
1.49355
1.50012
1.50745
1.51519
1.52295
1.53057
1.53636
1.54122
1.54477
1.54621
1.54637
1.54637
1.5464
1.54612
1.54552
1.54505
1.54467
1.54421
1.54361
1.54303
1.54262
1.54228
1.54199
1.54164
1.54116
1.54047
1.53963
1.40001
1.40001
1.40001
1.40001
1.40001
1.40001
1.40003
1.40007
1.40016
1.40033
1.40059
1.40101
1.40143
1.40191
1.4024
1.40271
1.40295
1.40298
1.40291
1.40277
1.40258
1.40221
1.4015
1.40053
1.39921
1.39782
1.39654
1.39527
1.39469
1.39446
1.39447
1.39485
1.39567
1.39675
1.39816
1.39994
1.40196
1.40459
1.40794
1.41173
1.41688
1.42347
1.43014
1.43748
1.44465
1.44948
1.45309
1.45523
1.45607
1.45656
1.45729
1.45825
1.45891
1.45951
1.46049
1.46168
1.46293
1.4645
1.46677
1.46978
1.47348
1.47821
1.48373
1.49017
1.4974
1.50485
1.51302
1.52109
1.52919
1.5358
1.53832
1.54024
1.54203
1.54322
1.54372
1.54414
1.54455
1.54461
1.5443
1.54364
1.54302
1.5424
1.54177
1.54122
1.54074
1.54021
1.53963
1.53905
1.40001
1.40001
1.40001
1.40001
1.40001
1.40001
1.40001
1.40002
1.40004
1.4001
1.40021
1.40041
1.40071
1.40105
1.40153
1.40193
1.40228
1.40254
1.40268
1.40274
1.40273
1.40271
1.40262
1.40233
1.40175
1.40089
1.39981
1.39861
1.39747
1.39667
1.39616
1.39612
1.39642
1.39715
1.39825
1.39976
1.4016
1.40393
1.40706
1.41063
1.41514
1.42138
1.42797
1.43514
1.44305
1.44864
1.45289
1.4554
1.4563
1.45673
1.45741
1.45836
1.45894
1.45931
1.46016
1.46133
1.46213
1.46314
1.46459
1.46638
1.4686
1.47121
1.47421
1.47782
1.48217
1.4873
1.49385
1.50115
1.50921
1.51719
1.524
1.53103
1.53586
1.53709
1.53826
1.53987
1.54141
1.54236
1.54265
1.54278
1.54271
1.5423
1.54165
1.54097
1.54021
1.53945
1.53877
1.53813
1.40001
1.40001
1.40001
1.40001
1.40001
1.40001
1.40001
1.40001
1.40001
1.40002
1.40006
1.40013
1.40027
1.40047
1.40076
1.40116
1.40153
1.40194
1.40221
1.4024
1.40257
1.40265
1.40271
1.4028
1.40284
1.40273
1.40242
1.40191
1.40116
1.40036
1.39961
1.399
1.39889
1.39908
1.39956
1.40052
1.40198
1.4039
1.40662
1.41006
1.41408
1.41969
1.42631
1.4332
1.44146
1.44814
1.45309
1.45637
1.45747
1.45774
1.45818
1.45909
1.45968
1.45993
1.46055
1.46161
1.46238
1.46316
1.46443
1.46612
1.46814
1.47036
1.47277
1.47481
1.47637
1.47822
1.48096
1.48473
1.48993
1.49673
1.50394
1.51185
1.51842
1.52372
1.52944
1.5348
1.53674
1.53777
1.53885
1.53985
1.54043
1.54042
1.54036
1.54017
1.5397
1.53917
1.53854
1.53767
1.40001
1.40001
1.40001
1.40001
1.40001
1.40001
1.40001
1.40001
1.40001
1.40001
1.40001
1.40003
1.40007
1.40015
1.40029
1.40052
1.40081
1.40114
1.40157
1.40187
1.40218
1.4024
1.40251
1.40267
1.40284
1.40303
1.40325
1.40336
1.40342
1.4033
1.40313
1.40285
1.40258
1.40251
1.40257
1.40289
1.40377
1.40517
1.40728
1.41032
1.41384
1.4187
1.42517
1.4319
1.43982
1.44778
1.45348
1.45784
1.45953
1.4599
1.46
1.46063
1.4613
1.46141
1.46166
1.46261
1.46353
1.46418
1.46508
1.46653
1.4683
1.47032
1.47265
1.47469
1.47601
1.47704
1.4777
1.47842
1.47983
1.48226
1.48583
1.49107
1.49766
1.50473
1.51182
1.51834
1.52371
1.52921
1.53446
1.53642
1.53684
1.53709
1.53741
1.53754
1.53754
1.53765
1.5375
1.53709
1.40001
1.40001
1.40001
1.40001
1.40001
1.40001
1.40001
1.40001
1.40001
1.40001
1.40001
1.40001
1.40001
1.40003
1.40007
1.40016
1.40031
1.40051
1.40082
1.40116
1.40146
1.40184
1.40213
1.40238
1.40268
1.40286
1.40312
1.40343
1.40377
1.40417
1.4046
1.40509
1.40539
1.40575
1.4062
1.40658
1.40713
1.40803
1.40942
1.41168
1.41465
1.41862
1.42459
1.43123
1.43859
1.44724
1.454
1.45958
1.46232
1.46303
1.46321
1.46338
1.46381
1.46408
1.46394
1.4642
1.46542
1.46646
1.46691
1.4677
1.46913
1.47089
1.47278
1.4746
1.47628
1.4773
1.47782
1.47804
1.47799
1.4776
1.47772
1.47875
1.4812
1.48535
1.49126
1.49827
1.50563
1.51235
1.51881
1.52405
1.52962
1.53389
1.53495
1.53456
1.53434
1.53452
1.53466
1.53495
1.40001
1.40001
1.40001
1.40001
1.40001
1.40001
1.40001
1.40001
1.40001
1.40001
1.40001
1.40001
1.40001
1.40001
1.40001
1.40003
1.40007
1.40016
1.40029
1.40051
1.40078
1.40108
1.40145
1.40176
1.40212
1.40243
1.40276
1.40319
1.40358
1.40402
1.40457
1.40527
1.40611
1.40696
1.40801
1.40905
1.4101
1.41131
1.41266
1.41446
1.41694
1.41999
1.42484
1.4313
1.43817
1.44687
1.45494
1.4612
1.46542
1.46673
1.46719
1.46745
1.46762
1.46787
1.46791
1.46777
1.46816
1.46912
1.46999
1.47073
1.47143
1.4724
1.47371
1.47518
1.47681
1.47822
1.47875
1.4788
1.4785
1.47783
1.47671
1.47538
1.47492
1.47535
1.47709
1.48048
1.48559
1.49235
1.49993
1.50688
1.51358
1.5195
1.52415
1.52933
1.53204
1.53214
1.53164
1.53166
1.40001
1.40001
1.40001
1.40001
1.40001
1.40001
1.40001
1.40001
1.40001
1.40001
1.40001
1.40001
1.40001
1.40001
1.40001
1.40001
1.40001
1.40003
1.40007
1.40014
1.40028
1.40046
1.40072
1.40102
1.40135
1.40176
1.4021
1.40251
1.403
1.40352
1.4041
1.40481
1.40572
1.40671
1.40786
1.40927
1.411
1.41282
1.41464
1.41657
1.41922
1.42232
1.42625
1.4321
1.43872
1.44674
1.45605
1.4632
1.46874
1.47102
1.47165
1.47209
1.47246
1.47272
1.4729
1.47265
1.47221
1.47291
1.47417
1.47524
1.47605
1.47679
1.47751
1.47782
1.47786
1.47847
1.47938
1.47974
1.47975
1.47914
1.47753
1.47566
1.47424
1.47286
1.47216
1.47262
1.47405
1.47674
1.48094
1.4867
1.4939
1.50162
1.50781
1.51422
1.51943
1.52383
1.52814
1.5292
1.40001
1.40001
1.40001
1.40001
1.40001
1.40001
1.40001
1.40001
1.40001
1.40001
1.40001
1.40001
1.40001
1.40001
1.40001
1.40001
1.40001
1.40001
1.40001
1.40003
1.40006
1.40012
1.40023
1.40041
1.40063
1.40092
1.40129
1.40168
1.40213
1.40266
1.40329
1.40392
1.40475
1.40589
1.4071
1.40841
1.41011
1.41219
1.41448
1.41704
1.42005
1.42367
1.42758
1.43269
1.43937
1.44681
1.45655
1.46538
1.47191
1.47579
1.477
1.47723
1.47765
1.47828
1.47873
1.47886
1.47846
1.47788
1.47853
1.47974
1.48104
1.48204
1.48276
1.48284
1.48176
1.48129
1.48177
1.48145
1.48109
1.48064
1.47913
1.47699
1.47503
1.47324
1.4715
1.47085
1.47078
1.471
1.47183
1.47374
1.47682
1.48163
1.48807
1.4953
1.50273
1.50845
1.51383
1.51904
1.40001
1.40001
1.40001
1.40001
1.40001
1.40001
1.40001
1.40001
1.40001
1.40001
1.40001
1.40001
1.40001
1.40001
1.40001
1.40001
1.40001
1.40001
1.40001
1.40001
1.40001
1.40002
1.40005
1.4001
1.40019
1.40033
1.40055
1.40083
1.40119
1.40161
1.40213
1.40284
1.40354
1.40443
1.40572
1.4071
1.4086
1.41059
1.41302
1.41577
1.41868
1.42241
1.42706
1.43263
1.43968
1.44699
1.45571
1.46636
1.47459
1.48046
1.4831
1.48368
1.48367
1.48384
1.48451
1.48508
1.48525
1.48481
1.48455
1.48547
1.48696
1.48803
1.48861
1.4889
1.48814
1.48664
1.48651
1.48584
1.48459
1.48371
1.48195
1.47941
1.47719
1.47473
1.47203
1.47093
1.47047
1.4701
1.47013
1.47014
1.47031
1.47106
1.47324
1.477
1.48252
1.48977
1.49624
1.503
1.40001
1.40001
1.40001
1.40001
1.40001
1.40001
1.40001
1.40001
1.40001
1.40001
1.40001
1.40001
1.40001
1.40001
1.40001
1.40001
1.40001
1.40001
1.40001
1.40001
1.40001
1.40001
1.40001
1.40002
1.40003
1.40007
1.40014
1.40027
1.40045
1.40072
1.40106
1.40152
1.40217
1.40292
1.4038
1.40514
1.40663
1.40837
1.41051
1.41332
1.41649
1.41985
1.42425
1.42981
1.43668
1.44518
1.45435
1.46575
1.47638
1.48413
1.48903
1.4906
1.49063
1.49042
1.49074
1.49136
1.49187
1.49202
1.4916
1.49174
1.49315
1.4947
1.49554
1.49611
1.49603
1.49455
1.49317
1.49184
1.49011
1.48896
1.48708
1.48393
1.48114
1.47818
1.47425
1.47229
1.4712
1.4702
1.46993
1.46986
1.46955
1.46903
1.46857
1.46898
1.47044
1.47353
1.47806
1.48361
1.40001
1.40001
1.40001
1.40001
1.40001
1.40001
1.40001
1.40001
1.40001
1.40001
1.40001
1.40001
1.40001
1.40001
1.40001
1.40001
1.40001
1.40001
1.40001
1.40001
1.40001
1.40001
1.40001
1.40001
1.40001
1.40001
1.40002
1.40005
1.4001
1.4002
1.40036
1.4006
1.40094
1.40146
1.40213
1.40298
1.40419
1.40578
1.40762
1.40983
1.41285
1.41651
1.42041
1.42536
1.43199
1.44074
1.45029
1.46126
1.47468
1.48609
1.49394
1.49765
1.49829
1.49801
1.49749
1.49789
1.49862
1.49919
1.49946
1.49926
1.49952
1.50095
1.5023
1.50325
1.5038
1.50341
1.50209
1.50005
1.49738
1.49585
1.49386
1.49044
1.48732
1.48414
1.4797
1.47603
1.47408
1.47209
1.47089
1.4705
1.46986
1.46902
1.46826
1.46762
1.46739
1.46763
1.4688
1.47096
1.40001
1.40001
1.40001
1.40001
1.40001
1.40001
1.40001
1.40001
1.40001
1.40001
1.40001
1.40001
1.40001
1.40001
1.40001
1.40001
1.40001
1.40001
1.40001
1.40001
1.40001
1.40001
1.40001
1.40001
1.40001
1.40001
1.40001
1.40001
1.40002
1.40003
1.40007
1.40014
1.40028
1.40049
1.40084
1.40135
1.40208
1.4031
1.40456
1.40643
1.40864
1.41166
1.41571
1.42008
1.42559
1.43354
1.44381
1.45484
1.4681
1.48286
1.49608
1.50333
1.50601
1.5062
1.50561
1.50499
1.50542
1.5062
1.50693
1.50734
1.50721
1.50773
1.509
1.51001
1.51088
1.51128
1.51094
1.50943
1.50636
1.50415
1.50203
1.49851
1.4951
1.49189
1.48757
1.48314
1.48004
1.47654
1.47347
1.47283
1.47186
1.47072
1.46969
1.46839
1.46734
1.46691
1.46692
1.46716
1.40001
1.40001
1.40001
1.40001
1.40001
1.40001
1.40001
1.40001
1.40001
1.40001
1.40001
1.40001
1.40001
1.40001
1.40001
1.40001
1.40001
1.40001
1.40001
1.40001
1.40001
1.40001
1.40001
1.40001
1.40001
1.40001
1.40001
1.40001
1.40001
1.40001
1.40001
1.40002
1.40005
1.4001
1.40021
1.4004
1.40073
1.40126
1.40204
1.40325
1.40493
1.40703
1.40992
1.4141
1.41884
1.42482
1.43394
1.44581
1.45885
1.47423
1.49062
1.50514
1.5122
1.5145
1.51455
1.51359
1.51277
1.5132
1.51407
1.51489
1.51544
1.51545
1.51573
1.51673
1.51758
1.51828
1.51869
1.51828
1.51611
1.51338
1.51087
1.50722
1.50365
1.50052
1.49662
1.49214
1.48862
1.48477
1.47991
1.47759
1.47566
1.47332
1.47224
1.47094
1.46914
1.46747
1.46691
1.46683
1.40001
1.40001
1.40001
1.40001
1.40001
1.40001
1.40001
1.40001
1.40001
1.40001
1.40001
1.40001
1.40001
1.40001
1.40001
1.40001
1.40001
1.40001
1.40001
1.40001
1.40001
1.40001
1.40001
1.40001
1.40001
1.40001
1.40001
1.40001
1.40001
1.40001
1.40001
1.40001
1.40001
1.40001
1.40003
1.40007
1.40015
1.40033
1.40064
1.40117
1.40205
1.40339
1.40523
1.40782
1.41177
1.4168
1.42314
1.43299
1.4468
1.46207
1.47917
1.49769
1.51361
1.52092
1.52318
1.52303
1.52179
1.52082
1.52119
1.5221
1.52306
1.52371
1.52381
1.52368
1.52412
1.52463
1.52533
1.52576
1.52497
1.52286
1.52027
1.51645
1.51246
1.50924
1.50552
1.50154
1.49811
1.49435
1.48917
1.48529
1.4827
1.47958
1.47689
1.47506
1.47263
1.46995
1.46823
1.46711
1.40001
1.40001
1.40001
1.40001
1.40001
1.40001
1.40001
1.40001
1.40001
1.40001
1.40001
1.40001
1.40001
1.40001
1.40001
1.40001
1.40001
1.40001
1.40001
1.40001
1.40001
1.40001
1.40001
1.40001
1.40001
1.40001
1.40001
1.40001
1.40001
1.40001
1.40001
1.40001
1.40001
1.40001
1.40001
1.40001
1.40002
1.40005
1.40012
1.40027
1.40057
1.40111
1.40206
1.40351
1.40565
1.4091
1.41411
1.4206
1.43081
1.44656
1.46396
1.48297
1.50361
1.52152
1.52975
1.53178
1.53155
1.53018
1.52908
1.52932
1.53031
1.53145
1.5321
1.53205
1.53143
1.53118
1.53146
1.53214
1.53236
1.53138
1.52931
1.52579
1.52139
1.51782
1.51421
1.51057
1.50768
1.50444
1.49971
1.49513
1.49146
1.48731
1.48415
1.48194
1.47913
1.47553
1.47275
1.47009
1.40001
1.40001
1.40001
1.40001
1.40001
1.40001
1.40001
1.40001
1.40001
1.40001
1.40001
1.40001
1.40001
1.40001
1.40001
1.40001
1.40001
1.40001
1.40001
1.40001
1.40001
1.40001
1.40001
1.40001
1.40001
1.40001
1.40001
1.40001
1.40001
1.40001
1.40001
1.40001
1.40001
1.40001
1.40001
1.40001
1.40001
1.40001
1.40002
1.40004
1.4001
1.40023
1.40052
1.40109
1.40208
1.4037
1.40646
1.41103
1.41744
1.42763
1.44465
1.46444
1.48543
1.50836
1.52827
1.53886
1.54074
1.54038
1.53871
1.53743
1.53772
1.53892
1.54004
1.54051
1.54019
1.53897
1.53795
1.53799
1.53857
1.53866
1.53751
1.53479
1.53072
1.52651
1.52223
1.51867
1.51629
1.51373
1.51007
1.50583
1.5018
1.49694
1.49252
1.48991
1.48712
1.4835
1.4804
1.47722
1.40001
1.40001
1.40001
1.40001
1.40001
1.40001
1.40001
1.40001
1.40001
1.40001
1.40001
1.40001
1.40001
1.40001
1.40001
1.40001
1.40001
1.40001
1.40001
1.40001
1.40001
1.40001
1.40001
1.40001
1.40001
1.40001
1.40001
1.40001
1.40001
1.40001
1.40001
1.40001
1.40001
1.40001
1.40001
1.40001
1.40001
1.40001
1.40001
1.40001
1.40001
1.40003
1.40008
1.40021
1.40049
1.40108
1.40217
1.40418
1.40797
1.41395
1.42376
1.44107
1.46344
1.48632
1.51136
1.53403
1.54666
1.54939
1.54948
1.54818
1.5465
1.54658
1.54767
1.54857
1.54875
1.54802
1.54625
1.54464
1.54441
1.54486
1.54464
1.54277
1.5395
1.53557
1.53078
1.52615
1.52382
1.52176
1.51902
1.51585
1.51235
1.50746
1.50213
1.49885
1.49573
1.49205
1.48909
1.48601
1.40001
1.40001
1.40001
1.40001
1.40001
1.40001
1.40001
1.40001
1.40001
1.40001
1.40001
1.40001
1.40001
1.40001
1.40001
1.40001
1.40001
1.40001
1.40001
1.40001
1.40001
1.40001
1.40001
1.40001
1.40001
1.40001
1.40001
1.40001
1.40001
1.40001
1.40001
1.40001
1.40001
1.40001
1.40001
1.40001
1.40001
1.40001
1.40001
1.40001
1.40001
1.40001
1.40001
1.40003
1.40007
1.40019
1.40049
1.40113
1.40246
1.40532
1.41052
1.41955
1.43628
1.46059
1.48574
1.51308
1.53832
1.55413
1.55807
1.55888
1.55769
1.55587
1.5557
1.55647
1.55709
1.55695
1.55571
1.55327
1.55118
1.55084
1.55105
1.55
1.54748
1.54424
1.53989
1.53434
1.53073
1.52864
1.52646
1.52433
1.5218
1.51801
1.51287
1.50847
1.50448
1.50053
1.49785
1.49513
1.40001
1.40001
1.40001
1.40001
1.40001
1.40001
1.40001
1.40001
1.40001
1.40001
1.40001
1.40001
1.40001
1.40001
1.40001
1.40001
1.40001
1.40001
1.40001
1.40001
1.40001
1.40001
1.40001
1.40001
1.40001
1.40001
1.40001
1.40001
1.40001
1.40001
1.40001
1.40001
1.40001
1.40001
1.40001
1.40001
1.40001
1.40001
1.40001
1.40001
1.40001
1.40001
1.40001
1.40001
1.40001
1.40002
1.40006
1.40019
1.40053
1.40134
1.40329
1.4075
1.41542
1.4308
1.45603
1.48359
1.51283
1.54202
1.56128
1.5673
1.5684
1.56703
1.56489
1.56458
1.56533
1.56582
1.56531
1.56351
1.56043
1.55768
1.55721
1.55656
1.55471
1.55212
1.5486
1.54384
1.53913
1.53528
1.53254
1.53106
1.52945
1.5268
1.52307
1.51898
1.5143
1.50893
1.50589
1.50346
1.40001
1.40001
1.40001
1.40001
1.40001
1.40001
1.40001
1.40001
1.40001
1.40001
1.40001
1.40001
1.40001
1.40001
1.40001
1.40001
1.40001
1.40001
1.40001
1.40001
1.40001
1.40001
1.40001
1.40001
1.40001
1.40001
1.40001
1.40001
1.40001
1.40001
1.40001
1.40001
1.40001
1.40001
1.40001
1.40001
1.40001
1.40001
1.40001
1.40001
1.40001
1.40001
1.40001
1.40001
1.40001
1.40001
1.40001
1.40002
1.40007
1.40023
1.40068
1.40192
1.40509
1.41172
1.42524
1.45006
1.47991
1.51092
1.54391
1.56773
1.57609
1.5775
1.57655
1.57457
1.57384
1.57429
1.5745
1.5735
1.57108
1.56726
1.56436
1.56294
1.56145
1.55943
1.55653
1.55285
1.54873
1.54409
1.53919
1.53695
1.5357
1.53373
1.53122
1.52832
1.52439
1.51877
1.51435
1.51125
1.40001
1.40001
1.40001
1.40001
1.40001
1.40001
1.40001
1.40001
1.40001
1.40001
1.40001
1.40001
1.40001
1.40001
1.40001
1.40001
1.40001
1.40001
1.40001
1.40001
1.40001
1.40001
1.40001
1.40001
1.40001
1.40001
1.40001
1.40001
1.40001
1.40001
1.40001
1.40001
1.40001
1.40001
1.40001
1.40001
1.40001
1.40001
1.40001
1.40001
1.40001
1.40001
1.40001
1.40001
1.40001
1.40001
1.40001
1.40001
1.40001
1.40003
1.4001
1.40033
1.40109
1.40333
1.40861
1.42008
1.44328
1.47446
1.50777
1.5448
1.57112
1.58427
1.58677
1.5863
1.58427
1.5832
1.58333
1.58305
1.58149
1.57873
1.57487
1.57039
1.5678
1.56616
1.56376
1.56091
1.5579
1.55408
1.54864
1.54405
1.54166
1.53942
1.53759
1.53576
1.53293
1.52879
1.52431
1.52008
1.40001
1.40001
1.40001
1.40001
1.40001
1.40001
1.40001
1.40001
1.40001
1.40001
1.40001
1.40001
1.40001
1.40001
1.40001
1.40001
1.40001
1.40001
1.40001
1.40001
1.40001
1.40001
1.40001
1.40001
1.40001
1.40001
1.40001
1.40001
1.40001
1.40001
1.40001
1.40001
1.40001
1.40001
1.40001
1.40001
1.40001
1.40001
1.40001
1.40001
1.40001
1.40001
1.40001
1.40001
1.40001
1.40001
1.40001
1.40001
1.40001
1.40001
1.40001
1.40004
1.40017
1.40062
1.40212
1.40616
1.4156
1.43607
1.46782
1.50342
1.54267
1.57549
1.5922
1.59583
1.59582
1.59373
1.59213
1.59195
1.59138
1.58975
1.58687
1.58198
1.57651
1.57325
1.57034
1.56782
1.56583
1.56293
1.55873
1.55392
1.54969
1.54544
1.54296
1.54168
1.53964
1.53677
1.53359
1.52984
1.40001
1.40001
1.40001
1.40001
1.40001
1.40001
1.40001
1.40001
1.40001
1.40001
1.40001
1.40001
1.40001
1.40001
1.40001
1.40001
1.40001
1.40001
1.40001
1.40001
1.40001
1.40001
1.40001
1.40001
1.40001
1.40001
1.40001
1.40001
1.40001
1.40001
1.40001
1.40001
1.40001
1.40001
1.40001
1.40001
1.40001
1.40001
1.40001
1.40001
1.40001
1.40001
1.40001
1.40001
1.40001
1.40001
1.40001
1.40001
1.40001
1.40001
1.40001
1.40001
1.40002
1.40009
1.40035
1.40132
1.40431
1.41183
1.42909
1.46032
1.49771
1.53852
1.5782
1.59989
1.6052
1.60522
1.60274
1.6009
1.60028
1.59966
1.59769
1.59407
1.5888
1.58319
1.5779
1.57469
1.57304
1.57079
1.56766
1.56405
1.55989
1.55421
1.54941
1.54752
1.5454
1.54297
1.54095
1.53819
1.40001
1.40001
1.40001
1.40001
1.40001
1.40001
1.40001
1.40001
1.40001
1.40001
1.40001
1.40001
1.40001
1.40001
1.40001
1.40001
1.40001
1.40001
1.40001
1.40001
1.40001
1.40001
1.40001
1.40001
1.40001
1.40001
1.40001
1.40001
1.40001
1.40001
1.40001
1.40001
1.40001
1.40001
1.40001
1.40001
1.40001
1.40001
1.40001
1.40001
1.40001
1.40001
1.40001
1.40001
1.40001
1.40001
1.40001
1.40001
1.40001
1.40001
1.40001
1.40001
1.40001
1.40001
1.40005
1.4002
1.40081
1.40294
1.40874
1.42294
1.45222
1.49046
1.53351
1.57905
1.60591
1.61384
1.61389
1.61186
1.60979
1.60917
1.60793
1.60498
1.60097
1.59593
1.58916
1.58268
1.58002
1.57782
1.57529
1.57293
1.56981
1.56497
1.5592
1.5553
1.55171
1.54854
1.54696
1.54494
1.40001
1.40001
1.40001
1.40001
1.40001
1.40001
1.40001
1.40001
1.40001
)
;

boundaryField
{
    inlet
    {
        type            calculated;
        value           nonuniform 0();
    }
    outlet
    {
        type            calculated;
        value           nonuniform 0();
    }
    bottom
    {
        type            symmetryPlane;
    }
    top
    {
        type            symmetryPlane;
    }
    obstacle
    {
        type            calculated;
        value           nonuniform 0();
    }
    front
    {
        type            empty;
    }
    back
    {
        type            empty;
    }
    procBoundary36to21
    {
        type            processor;
        value           nonuniform List<scalar> 8(1.52606 1.53473 1.53808 1.53866 1.53835 1.53741 1.53664 1.53649);
    }
    procBoundary36to28
    {
        type            processor;
        value           nonuniform List<scalar> 
89
(
1.52292
1.52741
1.53243
1.53723
1.54178
1.54421
1.54508
1.54519
1.54525
1.54544
1.54544
1.5453
1.54537
1.54523
1.54493
1.54483
1.5445
1.54425
1.54404
1.54352
1.54252
1.54093
1.53864
1.5356
1.53185
1.5275
1.52274
1.51775
1.40012
1.40031
1.40071
1.4014
1.40244
1.40378
1.40535
1.40696
1.40825
1.40937
1.41008
1.41027
1.41021
1.40991
1.40928
1.40836
1.40712
1.40552
1.40388
1.402
1.39987
1.39829
1.39667
1.39546
1.39486
1.39446
1.39461
1.39518
1.39638
1.39824
1.40091
1.40438
1.40829
1.4128
1.41737
1.42166
1.42662
1.43196
1.43728
1.44371
1.4514
1.45886
1.46614
1.47275
1.47761
1.48104
1.48372
1.48603
1.48812
1.49007
1.49216
1.49427
1.49638
1.49842
1.50039
1.50234
1.50459
1.50748
1.5107
1.51468
1.51468
)
;
    }
    procBoundary36to29
    {
        type            processor;
        value           nonuniform List<scalar> 
19
(
1.53511
1.5318
1.52887
1.52318
1.50868
1.49071
1.47427
1.46786
1.46691
1.46676
1.46767
1.47298
1.48174
1.49147
1.50034
1.5079
1.51522
1.52453
1.53399
)
;
    }
    procBoundary36to35
    {
        type            processor;
        value           nonuniform List<scalar> 
27
(
1.40001
1.40001
1.40001
1.40001
1.40001
1.40001
1.40001
1.40001
1.40001
1.40001
1.40001
1.40001
1.40001
1.40001
1.40001
1.40001
1.40001
1.40001
1.40001
1.40001
1.40001
1.40001
1.40001
1.40001
1.40001
1.40001
1.40001
)
;
    }
    procBoundary36to37
    {
        type            processor;
        value           uniform 1.54182;
    }
    procBoundary36to43
    {
        type            processor;
        value           uniform 1.40001;
    }
    procBoundary36to44
    {
        type            processor;
        value           nonuniform List<scalar> 
89
(
1.40001
1.40001
1.40001
1.40001
1.40001
1.40001
1.40001
1.40001
1.40001
1.40001
1.40001
1.40001
1.40001
1.40001
1.40001
1.40001
1.40001
1.40001
1.40001
1.40001
1.40001
1.40001
1.40001
1.40001
1.40001
1.40001
1.40001
1.40001
1.40001
1.40001
1.40001
1.40001
1.40001
1.40001
1.40001
1.40001
1.40001
1.40001
1.40001
1.40001
1.40001
1.40001
1.40001
1.40001
1.40001
1.40001
1.40003
1.40011
1.40049
1.40195
1.40633
1.41771
1.44375
1.48228
1.52755
1.57797
1.60945
1.62197
1.62271
1.62097
1.61862
1.6177
1.61545
1.61221
1.60819
1.60232
1.59472
1.58934
1.58532
1.58198
1.58032
1.57816
1.57459
1.57014
1.56576
1.56075
1.55551
1.55323
1.55112
1.40001
1.40001
1.40001
1.40001
1.40001
1.40001
1.40001
1.40001
1.40001
1.40001
)
;
    }
}


// ************************************************************************* //
