/*--------------------------------*- C++ -*----------------------------------*\
  =========                 |
  \\      /  F ield         | OpenFOAM: The Open Source CFD Toolbox
   \\    /   O peration     | Website:  https://openfoam.org
    \\  /    A nd           | Version:  7
     \\/     M anipulation  |
\*---------------------------------------------------------------------------*/
FoamFile
{
    version     2.0;
    format      ascii;
    class       volVectorField;
    location    "14";
    object      U;
}
// * * * * * * * * * * * * * * * * * * * * * * * * * * * * * * * * * * * * * //

dimensions      [0 1 -1 0 0 0 0];

internalField   nonuniform List<vector> 
2413
(
(1.92742 0.0308696 0)
(1.92397 0.030314 0)
(1.92014 0.0309749 0)
(1.91651 0.0307622 0)
(1.91272 0.0314787 0)
(1.90984 0.0323262 0)
(1.9062 0.0331022 0)
(1.9046 0.0332872 0)
(1.90369 0.0332434 0)
(1.9031 0.0329967 0)
(1.90271 0.0329149 0)
(1.90248 0.0329477 0)
(1.90229 0.0329919 0)
(1.90203 0.0329661 0)
(1.90173 0.0333235 0)
(1.90141 0.033754 0)
(1.90111 0.0341705 0)
(1.90079 0.0347042 0)
(1.90034 0.0351577 0)
(1.90026 0.0356632 0)
(1.90032 0.0360578 0)
(1.90043 0.0361904 0)
(1.90072 0.0361792 0)
(1.90114 0.0360493 0)
(1.9017 0.0356558 0)
(1.90246 0.0348469 0)
(1.90342 0.0335802 0)
(1.90449 0.0320455 0)
(2 2.60323e-06 0)
(1.99999 1.07396e-05 0)
(1.99997 3.72002e-05 0)
(1.99992 0.000107013 0)
(1.99981 0.000247517 0)
(1.99961 0.000530839 0)
(1.99933 0.000968786 0)
(1.99904 0.00141819 0)
(1.99862 0.00218299 0)
(1.99828 0.00291731 0)
(1.9982 0.00322735 0)
(1.99804 0.00381346 0)
(1.99812 0.00417801 0)
(1.99835 0.0041961 0)
(1.99852 0.00415444 0)
(1.99885 0.0039682 0)
(1.99928 0.00359816 0)
(1.99975 0.0031549 0)
(2.00037 0.00242205 0)
(2.00104 0.0016033 0)
(2.00179 0.000722428 0)
(2.00268 -0.000458889 0)
(2.0033 -0.00134099 0)
(2.00379 -0.00217453 0)
(2.00421 -0.00325798 0)
(2.00428 -0.00385205 0)
(2.00384 -0.00445037 0)
(2.00358 -0.00513906 0)
(2.00282 -0.00559198 0)
(2.00221 -0.00598716 0)
(2.0013 -0.00596972 0)
(2.00001 -0.00568897 0)
(1.99842 -0.00510884 0)
(1.99657 -0.00435464 0)
(1.99448 -0.00305859 0)
(1.99231 -0.00152598 0)
(1.98991 -0.000408035 0)
(1.98684 0.00152948 0)
(1.98357 0.00375099 0)
(1.97988 0.00451229 0)
(1.97522 0.00600053 0)
(1.97001 0.009268 0)
(1.96526 0.0106754 0)
(1.96115 0.010838 0)
(1.95783 0.0121914 0)
(1.95549 0.0134343 0)
(1.9538 0.0139775 0)
(1.95247 0.0146264 0)
(1.9513 0.0154791 0)
(1.95014 0.0162669 0)
(1.94887 0.016962 0)
(1.94762 0.0176083 0)
(1.94631 0.0184567 0)
(1.94477 0.0196317 0)
(1.94334 0.0203125 0)
(1.94188 0.0206692 0)
(1.93999 0.0217658 0)
(1.93796 0.022455 0)
(1.93542 0.0236539 0)
(1.9328 0.024264 0)
(1.93072 0.0244475 0)
(1.92624 0.0267397 0)
(1.92159 0.0299815 0)
(1.91774 0.0311474 0)
(1.91444 0.0313758 0)
(1.91029 0.0333675 0)
(1.90731 0.0344686 0)
(1.90445 0.0345002 0)
(1.9036 0.0344911 0)
(1.90311 0.0346151 0)
(1.90259 0.0347432 0)
(1.90219 0.0347363 0)
(1.90194 0.0346053 0)
(1.90176 0.0346554 0)
(1.9017 0.0348818 0)
(1.90168 0.0350304 0)
(1.9016 0.0352058 0)
(1.90139 0.0353983 0)
(1.90099 0.0356359 0)
(1.90073 0.0360816 0)
(1.90068 0.0364721 0)
(1.90066 0.0367209 0)
(1.90079 0.0369655 0)
(1.90104 0.0373004 0)
(1.90136 0.0374302 0)
(1.90175 0.0373296 0)
(1.90215 0.0370972 0)
(1.90269 0.0367053 0)
(2 1.43987e-07 0)
(2 6.69503e-07 0)
(2 3.14715e-06 0)
(1.99999 1.2452e-05 0)
(1.99996 3.49129e-05 0)
(1.9999 0.000105921 0)
(1.9998 0.00022699 0)
(1.99963 0.000427033 0)
(1.99935 0.000821875 0)
(1.99912 0.00117051 0)
(1.99887 0.0015415 0)
(1.99854 0.0021367 0)
(1.99843 0.00249742 0)
(1.99846 0.00264872 0)
(1.99859 0.00275347 0)
(1.99868 0.00273899 0)
(1.99887 0.00263658 0)
(1.99913 0.00246331 0)
(1.99951 0.00210215 0)
(2.00007 0.00140377 0)
(2.00053 0.000823685 0)
(2.0011 9.78151e-06 0)
(2.00179 -0.00118056 0)
(2.00232 -0.00192879 0)
(2.00294 -0.00304559 0)
(2.0032 -0.00381064 0)
(2.00315 -0.00434777 0)
(2.00289 -0.0050455 0)
(2.0024 -0.00544342 0)
(2.00164 -0.00590684 0)
(2.00112 -0.00637611 0)
(2.00018 -0.00649294 0)
(1.9989 -0.00645924 0)
(1.99742 -0.00640229 0)
(1.99571 -0.00604211 0)
(1.99383 -0.0052685 0)
(1.99167 -0.00467792 0)
(1.98893 -0.00365543 0)
(1.9858 -0.00196091 0)
(1.98225 -0.00122159 0)
(1.97773 -0.000130802 0)
(1.9725 0.00285897 0)
(1.9676 0.00436135 0)
(1.96305 0.00428852 0)
(1.95907 0.0055982 0)
(1.95633 0.00690734 0)
(1.95432 0.00693385 0)
(1.95299 0.00686552 0)
(1.95191 0.00716173 0)
(1.95088 0.00760794 0)
(1.94974 0.00808167 0)
(1.9485 0.00854041 0)
(1.94723 0.00930307 0)
(1.94594 0.0101803 0)
(1.94457 0.0110972 0)
(1.94299 0.0122329 0)
(1.94116 0.0136657 0)
(1.93919 0.0149104 0)
(1.93682 0.0162553 0)
(1.93394 0.0184442 0)
(1.93101 0.0206002 0)
(1.92743 0.0229034 0)
(1.92434 0.0233605 0)
(1.92144 0.0243653 0)
(1.91634 0.0284331 0)
(1.9121 0.0314872 0)
(1.90919 0.031807 0)
(1.90707 0.0325503 0)
(1.90513 0.0338709 0)
(1.90373 0.034794 0)
(1.90275 0.03519 0)
(1.90211 0.0352721 0)
(1.90202 0.0354133 0)
(1.90202 0.0357334 0)
(1.90191 0.035944 0)
(1.90177 0.0359315 0)
(1.9016 0.0359712 0)
(1.90139 0.0361125 0)
(1.9012 0.0363358 0)
(1.90113 0.0366525 0)
(1.90104 0.0369545 0)
(1.901 0.0372003 0)
(1.90107 0.0373096 0)
(1.90127 0.0374172 0)
(1.90153 0.0375951 0)
(1.90181 0.0378456 0)
(1.90212 0.0379679 0)
(1.90245 0.0380411 0)
(2 1.69571e-08 0)
(2 9.27109e-08 0)
(2 3.83536e-07 0)
(2 1.81453e-06 0)
(1.99999 6.49827e-06 0)
(1.99998 1.89115e-05 0)
(1.99994 5.91057e-05 0)
(1.99988 0.000123309 0)
(1.99976 0.000264217 0)
(1.99959 0.000484154 0)
(1.99937 0.000744069 0)
(1.99911 0.00111684 0)
(1.99892 0.0014585 0)
(1.99883 0.00163904 0)
(1.99862 0.00201702 0)
(1.9987 0.00216409 0)
(1.99876 0.00215444 0)
(1.99889 0.00207775 0)
(1.99907 0.00194461 0)
(1.99926 0.00169659 0)
(1.99958 0.00117897 0)
(1.99989 0.000645809 0)
(2.00045 -0.000336162 0)
(2.00084 -0.00102647 0)
(2.00139 -0.00203914 0)
(2.00193 -0.00331594 0)
(2.00205 -0.00394858 0)
(2.00221 -0.00462833 0)
(2.00185 -0.00508911 0)
(2.00118 -0.00548554 0)
(2.0007 -0.00598156 0)
(1.99991 -0.00609673 0)
(1.99878 -0.00613728 0)
(1.99752 -0.00621517 0)
(1.99612 -0.00621232 0)
(1.99446 -0.00579169 0)
(1.99256 -0.00550965 0)
(1.9902 -0.00519469 0)
(1.98729 -0.00409317 0)
(1.98398 -0.00336618 0)
(1.97977 -0.00273424 0)
(1.97466 -0.000344174 0)
(1.9697 0.00123826 0)
(1.96475 0.00103043 0)
(1.96009 0.00213609 0)
(1.95668 0.00369723 0)
(1.95443 0.00373939 0)
(1.95294 0.00325315 0)
(1.95181 0.00298709 0)
(1.95092 0.00292476 0)
(1.95 0.00292128 0)
(1.94898 0.00267141 0)
(1.94794 0.00267873 0)
(1.94683 0.00292328 0)
(1.94564 0.00319693 0)
(1.94428 0.00372727 0)
(1.94277 0.00459776 0)
(1.94105 0.00561897 0)
(1.93893 0.00692079 0)
(1.93652 0.00841567 0)
(1.93393 0.00984002 0)
(1.9306 0.012309 0)
(1.92716 0.0151249 0)
(1.92346 0.0180674 0)
(1.91927 0.0217102 0)
(1.91632 0.0229952 0)
(1.91308 0.0256292 0)
(1.90874 0.0311267 0)
(1.90614 0.0338047 0)
(1.90501 0.0333201 0)
(1.90401 0.0337416 0)
(1.90329 0.034299 0)
(1.90299 0.0352264 0)
(1.90269 0.0357237 0)
(1.9023 0.0359627 0)
(1.90203 0.0361356 0)
(1.90183 0.0363182 0)
(1.90172 0.036561 0)
(1.90164 0.0367615 0)
(1.90153 0.0369272 0)
(1.90139 0.0371574 0)
(1.90134 0.0374331 0)
(1.90134 0.0376096 0)
(1.90144 0.0377546 0)
(1.90165 0.0378471 0)
(1.90194 0.0379481 0)
(1.90227 0.0379734 0)
(1.90259 0.0381262 0)
(2 1.96213e-09 0)
(2 1.32832e-08 0)
(2 6.00042e-08 0)
(2 2.61385e-07 0)
(2 1.18898e-06 0)
(2 3.8282e-06 0)
(1.99999 1.25704e-05 0)
(1.99997 3.58322e-05 0)
(1.99993 7.629e-05 0)
(1.99984 0.000191488 0)
(1.99973 0.000307377 0)
(1.99955 0.000520363 0)
(1.99934 0.000843638 0)
(1.99915 0.00110494 0)
(1.99896 0.00137381 0)
(1.99889 0.0015541 0)
(1.99887 0.00169632 0)
(1.99887 0.00183235 0)
(1.99891 0.00183276 0)
(1.999 0.00175886 0)
(1.99907 0.00162529 0)
(1.99922 0.00133746 0)
(1.99944 0.000890189 0)
(1.99975 0.000221271 0)
(2.00021 -0.000723411 0)
(2.00052 -0.00157782 0)
(2.00091 -0.00265507 0)
(2.00094 -0.00331869 0)
(2.00116 -0.0043428 0)
(2.0009 -0.00488669 0)
(2.00015 -0.0053823 0)
(1.99967 -0.00567612 0)
(1.99878 -0.00570649 0)
(1.99767 -0.00575134 0)
(1.99634 -0.00576412 0)
(1.99474 -0.00543331 0)
(1.99296 -0.00503261 0)
(1.99086 -0.00489834 0)
(1.98823 -0.00422879 0)
(1.98519 -0.00329352 0)
(1.9814 -0.0029924 0)
(1.97657 -0.00147056 0)
(1.97152 0.000516437 0)
(1.96622 0.000525424 0)
(1.96106 0.00143549 0)
(1.95703 0.00340547 0)
(1.95449 0.00382699 0)
(1.95267 0.00323735 0)
(1.95146 0.00303017 0)
(1.9505 0.00266698 0)
(1.94966 0.00240919 0)
(1.94868 0.00200115 0)
(1.94758 0.00168257 0)
(1.94662 0.00125596 0)
(1.94569 0.00102376 0)
(1.94453 0.000615368 0)
(1.94335 0.000475441 0)
(1.94199 0.000501877 0)
(1.94024 0.000675272 0)
(1.9382 0.00109357 0)
(1.93591 0.00190379 0)
(1.93322 0.00323848 0)
(1.93038 0.00495735 0)
(1.92725 0.0072386 0)
(1.92376 0.0104185 0)
(1.92067 0.0133095 0)
(1.91656 0.0178518 0)
(1.91293 0.0221494 0)
(1.91144 0.0234169 0)
(1.90877 0.0270966 0)
(1.90536 0.0321549 0)
(1.90414 0.0352425 0)
(1.90347 0.0355525 0)
(1.90342 0.0352948 0)
(1.90287 0.0355058 0)
(1.90257 0.0358995 0)
(1.90239 0.0362755 0)
(1.90225 0.0363719 0)
(1.90209 0.0365198 0)
(1.90192 0.0367364 0)
(1.9018 0.037011 0)
(1.90174 0.037291 0)
(1.9017 0.0375663 0)
(1.90173 0.0378657 0)
(1.90186 0.0380891 0)
(1.90206 0.0382271 0)
(1.90231 0.0382604 0)
(1.90261 0.0382843 0)
(2 2.00699e-10 0)
(2 9.7722e-10 0)
(2 6.52756e-09 0)
(2 3.07426e-08 0)
(2 1.43326e-07 0)
(2 6.35939e-07 0)
(2 2.10529e-06 0)
(1.99999 7.6603e-06 0)
(1.99998 2.0603e-05 0)
(1.99996 4.91337e-05 0)
(1.9999 0.000125562 0)
(1.99982 0.000203766 0)
(1.99967 0.000411617 0)
(1.99953 0.000600204 0)
(1.99937 0.000801741 0)
(1.99915 0.00116778 0)
(1.99901 0.00141821 0)
(1.99896 0.00151291 0)
(1.99896 0.00156721 0)
(1.99899 0.0016138 0)
(1.999 0.0016187 0)
(1.99899 0.00160698 0)
(1.99899 0.00153383 0)
(1.99906 0.00131875 0)
(1.99918 0.000940303 0)
(1.99942 0.000245734 0)
(1.99966 -0.000526591 0)
(1.99986 -0.00141616 0)
(2.00007 -0.00246151 0)
(1.99985 -0.00304576 0)
(1.99987 -0.00393671 0)
(1.99899 -0.0043246 0)
(1.99845 -0.00478092 0)
(1.9976 -0.00486059 0)
(1.99643 -0.00481536 0)
(1.99503 -0.00470415 0)
(1.99342 -0.00438233 0)
(1.99151 -0.00429444 0)
(1.98912 -0.00387147 0)
(1.98623 -0.00272113 0)
(1.98276 -0.00224412 0)
(1.97833 -0.00146184 0)
(1.97325 0.000879434 0)
(1.9679 0.00141611 0)
(1.96236 0.00193675 0)
(1.95771 0.00413858 0)
(1.95476 0.00467309 0)
(1.95245 0.00392038 0)
(1.95109 0.00364759 0)
(1.95002 0.00323299 0)
(1.94919 0.00288847 0)
(1.94816 0.00244125 0)
(1.94711 0.00219639 0)
(1.94611 0.00170073 0)
(1.9452 0.00136317 0)
(1.94405 0.000830244 0)
(1.94274 0.000346217 0)
(1.94154 4.99215e-05 0)
(1.94003 -0.000279209 0)
(1.93829 -0.000797331 0)
(1.9364 -0.00102121 0)
(1.93433 -0.00104885 0)
(1.93217 -0.000893364 0)
(1.92983 -0.00018571 0)
(1.92736 0.00121733 0)
(1.92481 0.00317176 0)
(1.92186 0.00601484 0)
(1.91876 0.00979926 0)
(1.91598 0.0139476 0)
(1.91195 0.0202286 0)
(1.90971 0.0235267 0)
(1.90976 0.0249472 0)
(1.9078 0.0283234 0)
(1.90498 0.0325272 0)
(1.90377 0.0357615 0)
(1.90317 0.0363758 0)
(1.90308 0.0361729 0)
(1.90273 0.0362266 0)
(1.90236 0.0363862 0)
(1.90229 0.0365294 0)
(1.90222 0.0366498 0)
(1.90216 0.0368746 0)
(1.90217 0.0371215 0)
(1.90219 0.0373524 0)
(1.90223 0.0375972 0)
(1.90235 0.0379412 0)
(1.90253 0.0382724 0)
(1.90278 0.0384951 0)
(2 5.47133e-12 0)
(2 4.57855e-11 0)
(2 2.77991e-10 0)
(2 1.9648e-09 0)
(2 1.03977e-08 0)
(2 5.50651e-08 0)
(2 2.5679e-07 0)
(2 9.52964e-07 0)
(2 3.73159e-06 0)
(1.99999 1.0385e-05 0)
(1.99998 2.94507e-05 0)
(1.99994 7.11711e-05 0)
(1.99989 0.000133387 0)
(1.99979 0.000286767 0)
(1.99968 0.000417238 0)
(1.9995 0.000672816 0)
(1.99937 0.000888935 0)
(1.99926 0.00105212 0)
(1.99908 0.00139829 0)
(1.99902 0.00155142 0)
(1.999 0.0015615 0)
(1.99898 0.00160507 0)
(1.99894 0.00159398 0)
(1.99889 0.00161315 0)
(1.99881 0.00159943 0)
(1.99879 0.00148085 0)
(1.9988 0.00123259 0)
(1.99887 0.000725691 0)
(1.99885 0.000153037 0)
(1.99892 -0.000758962 0)
(1.99877 -0.00139748 0)
(1.99851 -0.00207063 0)
(1.99798 -0.00281709 0)
(1.9971 -0.00328391 0)
(1.99642 -0.0036238 0)
(1.99532 -0.00362347 0)
(1.99385 -0.0033656 0)
(1.99204 -0.00297105 0)
(1.98981 -0.00275956 0)
(1.98706 -0.0018775 0)
(1.98389 -0.00120578 0)
(1.97998 -0.000839518 0)
(1.975 0.00129873 0)
(1.96975 0.00266477 0)
(1.964 0.0028763 0)
(1.9586 0.00504734 0)
(1.95528 0.00591853 0)
(1.95221 0.00503418 0)
(1.95054 0.00470885 0)
(1.9494 0.0043499 0)
(1.94857 0.00380724 0)
(1.94756 0.0032051 0)
(1.94646 0.00288799 0)
(1.9453 0.0024124 0)
(1.94446 0.00204022 0)
(1.94336 0.00150094 0)
(1.94206 0.000955774 0)
(1.94091 0.000513897 0)
(1.93953 0.000202244 0)
(1.93773 -0.0003403 0)
(1.93583 -0.000930114 0)
(1.93394 -0.00128445 0)
(1.93229 -0.00160532 0)
(1.93044 -0.00203652 0)
(1.92878 -0.00228932 0)
(1.92707 -0.00209677 0)
(1.92514 -0.00123012 0)
(1.92316 0.000534774 0)
(1.921 0.00317437 0)
(1.91844 0.00698939 0)
(1.91626 0.0109081 0)
(1.91378 0.016207 0)
(1.91045 0.0228863 0)
(1.90892 0.0252943 0)
(1.90899 0.0261797 0)
(1.90772 0.0292792 0)
(1.90497 0.0330033 0)
(1.90348 0.0359485 0)
(1.90288 0.0365449 0)
(1.90268 0.0365476 0)
(1.90244 0.0366726 0)
(1.90242 0.0368424 0)
(1.90249 0.0368485 0)
(1.90261 0.0368522 0)
(1.90276 0.0370139 0)
(1.90289 0.0372523 0)
(1.90303 0.0375114 0)
(1.90317 0.0378128 0)
(2 4.43341e-14 0)
(2 5.37923e-13 0)
(2 5.44143e-12 0)
(2 4.3118e-11 0)
(2 3.55317e-10 0)
(2 2.255e-09 0)
(2 1.43349e-08 0)
(2 7.4009e-08 0)
(2 3.27796e-07 0)
(2 1.40744e-06 0)
(2 4.36994e-06 0)
(1.99999 1.43283e-05 0)
(1.99997 3.5265e-05 0)
(1.99994 8.12486e-05 0)
(1.99988 0.000168927 0)
(1.99979 0.000273742 0)
(1.99965 0.000506271 0)
(1.99954 0.000663027 0)
(1.99939 0.000896676 0)
(1.99926 0.00114407 0)
(1.99922 0.0012278 0)
(1.99907 0.00144748 0)
(1.999 0.00161299 0)
(1.99892 0.00165143 0)
(1.99882 0.00171598 0)
(1.99872 0.00171455 0)
(1.99857 0.00179348 0)
(1.99844 0.0017922 0)
(1.99826 0.00170207 0)
(1.9981 0.00148722 0)
(1.99792 0.00106264 0)
(1.99763 0.000621936 0)
(1.99722 0.000113655 0)
(1.9967 -0.000583406 0)
(1.99581 -0.000913083 0)
(1.99498 -0.00146433 0)
(1.99395 -0.00160768 0)
(1.99254 -0.00156936 0)
(1.9907 -0.00153077 0)
(1.9882 -0.000967665 0)
(1.98518 0.000206617 0)
(1.98147 0.000476966 0)
(1.97667 0.0019565 0)
(1.97145 0.00411894 0)
(1.96584 0.0042317 0)
(1.9599 0.00575284 0)
(1.95556 0.00782595 0)
(1.95204 0.00728737 0)
(1.94979 0.00656606 0)
(1.94874 0.00604094 0)
(1.94766 0.0054546 0)
(1.94694 0.00466901 0)
(1.94577 0.00401943 0)
(1.94454 0.0035522 0)
(1.94369 0.00291457 0)
(1.9427 0.00235684 0)
(1.94132 0.0017587 0)
(1.9399 0.0011652 0)
(1.93869 0.000772056 0)
(1.93709 0.000331241 0)
(1.9352 -0.000371073 0)
(1.93337 -0.000927575 0)
(1.9317 -0.00152963 0)
(1.93013 -0.00199599 0)
(1.9286 -0.00228242 0)
(1.92721 -0.00253366 0)
(1.92593 -0.00283915 0)
(1.92497 -0.00281758 0)
(1.92378 -0.00240974 0)
(1.92253 -0.00116425 0)
(1.92126 0.00108155 0)
(1.91954 0.00439831 0)
(1.91762 0.0083313 0)
(1.91589 0.0122204 0)
(1.91268 0.0187354 0)
(1.90992 0.025208 0)
(1.90846 0.0265631 0)
(1.90819 0.0271908 0)
(1.90695 0.0300851 0)
(1.9046 0.0332968 0)
(1.90315 0.0357744 0)
(1.90283 0.0366891 0)
(1.90272 0.0369659 0)
(1.90271 0.0369673 0)
(1.90285 0.0369944 0)
(1.90311 0.0368734 0)
(1.90328 0.0368169 0)
(1.9036 0.0369607 0)
(2 -9.90415e-15 0)
(2 -9.77935e-15 0)
(2 1.46714e-14 0)
(2 3.36593e-13 0)
(2 3.81663e-12 0)
(2 3.9441e-11 0)
(2 3.14701e-10 0)
(2 2.47084e-09 0)
(2 1.5087e-08 0)
(2 8.16768e-08 0)
(2 3.98779e-07 0)
(2 1.47512e-06 0)
(2 5.46173e-06 0)
(1.99999 1.49033e-05 0)
(1.99997 4.09874e-05 0)
(1.99994 8.7168e-05 0)
(1.99988 0.000170167 0)
(1.99978 0.000319415 0)
(1.99969 0.000447005 0)
(1.99954 0.000706185 0)
(1.99942 0.00093804 0)
(1.99932 0.0010565 0)
(1.99919 0.00129907 0)
(1.99912 0.00138991 0)
(1.99901 0.00152377 0)
(1.99885 0.00173537 0)
(1.99869 0.00183165 0)
(1.99849 0.00197531 0)
(1.99825 0.00208064 0)
(1.99796 0.00217308 0)
(1.99761 0.00222756 0)
(1.99725 0.00235605 0)
(1.99675 0.0023013 0)
(1.9962 0.00213308 0)
(1.99547 0.00185883 0)
(1.99458 0.00160328 0)
(1.99357 0.00123553 0)
(1.99242 0.00109898 0)
(1.99084 0.00110502 0)
(1.98876 0.00120338 0)
(1.98617 0.00200503 0)
(1.98294 0.00253823 0)
(1.97862 0.00320409 0)
(1.97345 0.00544016 0)
(1.96794 0.00616415 0)
(1.9617 0.00707324 0)
(1.95638 0.00960751 0)
(1.95254 0.00959363 0)
(1.94925 0.00892126 0)
(1.94786 0.00849833 0)
(1.94677 0.00807234 0)
(1.94572 0.00739235 0)
(1.94468 0.00654375 0)
(1.94348 0.00594449 0)
(1.94203 0.0051727 0)
(1.94131 0.00434897 0)
(1.94056 0.00314922 0)
(1.9392 0.0018644 0)
(1.93771 0.00135833 0)
(1.93643 0.000967748 0)
(1.93462 0.000556054 0)
(1.93256 2.87574e-05 0)
(1.93069 -0.00066514 0)
(1.92928 -0.00140755 0)
(1.92811 -0.00215021 0)
(1.92684 -0.00255323 0)
(1.92587 -0.00263363 0)
(1.92493 -0.00275027 0)
(1.92422 -0.00323401 0)
(1.92355 -0.00357982 0)
(1.92334 -0.00329952 0)
(1.92303 -0.00256085 0)
(1.92241 -0.000838041 0)
(1.92116 0.00198816 0)
(1.91911 0.00598574 0)
(1.91732 0.00973138 0)
(1.91473 0.0143235 0)
(1.9109 0.0217581 0)
(1.90874 0.0270225 0)
(1.90767 0.0272744 0)
(1.90748 0.0280785 0)
(1.9062 0.0309957 0)
(1.90453 0.0336308 0)
(1.90322 0.0357147 0)
(1.90313 0.0367523 0)
(1.9031 0.036934 0)
(1.90315 0.0368967 0)
(1.90351 0.0368386 0)
(2 -8.40498e-15 0)
(2 -8.21708e-15 0)
(2 -7.5238e-15 0)
(2 -3.9771e-15 0)
(2 9.60471e-15 0)
(2 2.02504e-13 0)
(2 2.73177e-12 0)
(2 2.87862e-11 0)
(2 2.821e-10 0)
(2 2.13953e-09 0)
(2 1.45304e-08 0)
(2 8.20357e-08 0)
(2 3.81762e-07 0)
(2 1.60495e-06 0)
(2 5.15982e-06 0)
(1.99999 1.65633e-05 0)
(1.99997 3.84493e-05 0)
(1.99994 8.91611e-05 0)
(1.99988 0.000180109 0)
(1.99981 0.000277097 0)
(1.99969 0.000482764 0)
(1.99959 0.000646009 0)
(1.99945 0.000870598 0)
(1.99934 0.0010977 0)
(1.99921 0.00129391 0)
(1.99906 0.00155292 0)
(1.99896 0.00161039 0)
(1.99876 0.00178374 0)
(1.99853 0.00200833 0)
(1.99822 0.00225041 0)
(1.99783 0.00249831 0)
(1.99739 0.00267155 0)
(1.99679 0.00300438 0)
(1.99616 0.00323781 0)
(1.99536 0.00348876 0)
(1.99448 0.00384873 0)
(1.99354 0.00385195 0)
(1.9923 0.0040454 0)
(1.99082 0.00413545 0)
(1.98903 0.00402684 0)
(1.9868 0.00436599 0)
(1.9841 0.00510522 0)
(1.9804 0.00546723 0)
(1.97542 0.00722465 0)
(1.96999 0.00886189 0)
(1.96389 0.00905254 0)
(1.95743 0.0115291 0)
(1.95301 0.0129627 0)
(1.949 0.012019 0)
(1.94696 0.0116383 0)
(1.94584 0.0109193 0)
(1.94476 0.0101852 0)
(1.94358 0.00954063 0)
(1.94255 0.00862954 0)
(1.94133 0.00777401 0)
(1.93982 0.00694206 0)
(1.93896 0.00599617 0)
(1.93792 0.00473763 0)
(1.93656 0.0034751 0)
(1.93503 0.00280397 0)
(1.9333 0.00219561 0)
(1.93159 0.00141834 0)
(1.92994 0.000610702 0)
(1.9285 -0.000160604 0)
(1.92724 -0.00100337 0)
(1.92606 -0.00213225 0)
(1.92528 -0.00262639 0)
(1.92469 -0.00266351 0)
(1.92402 -0.00317714 0)
(1.9235 -0.00343281 0)
(1.92325 -0.0034298 0)
(1.92314 -0.00394949 0)
(1.92373 -0.00394078 0)
(1.92373 -0.00345048 0)
(1.92332 -0.00219857 0)
(1.9221 0.000146779 0)
(1.92002 0.0037118 0)
(1.91771 0.00783699 0)
(1.91584 0.0116343 0)
(1.91245 0.017287 0)
(1.90934 0.0244597 0)
(1.90788 0.0277127 0)
(1.90747 0.0275394 0)
(1.90717 0.0289513 0)
(1.90575 0.0316805 0)
(1.90433 0.0342282 0)
(1.90354 0.0360485 0)
(1.90362 0.036635 0)
(2 -6.21591e-15 0)
(2 -6.51985e-15 0)
(2 -5.79744e-15 0)
(2 -4.86156e-15 0)
(2 -3.96971e-15 0)
(2 -3.29238e-15 0)
(2 2.37173e-15 0)
(2 1.16235e-13 0)
(2 1.72317e-12 0)
(2 2.13093e-11 0)
(2 2.07583e-10 0)
(2 1.79535e-09 0)
(2 1.20723e-08 0)
(2 7.23318e-08 0)
(2 3.52538e-07 0)
(2 1.38434e-06 0)
(2 5.1871e-06 0)
(1.99999 1.41865e-05 0)
(1.99997 3.73143e-05 0)
(1.99994 8.42519e-05 0)
(1.9999 0.000154699 0)
(1.99982 0.000285272 0)
(1.99974 0.000413347 0)
(1.99961 0.00065395 0)
(1.99952 0.000802257 0)
(1.99938 0.00101946 0)
(1.9992 0.00134288 0)
(1.99904 0.0015674 0)
(1.99885 0.00179232 0)
(1.99859 0.00207498 0)
(1.99827 0.00237388 0)
(1.99787 0.00263489 0)
(1.99734 0.0029799 0)
(1.99664 0.00351772 0)
(1.99584 0.00403883 0)
(1.99492 0.00440867 0)
(1.9938 0.0048466 0)
(1.99256 0.00541594 0)
(1.9911 0.00621373 0)
(1.98949 0.00663783 0)
(1.9874 0.00701836 0)
(1.98482 0.00792402 0)
(1.98162 0.00846867 0)
(1.97732 0.00932084 0)
(1.97203 0.0114538 0)
(1.96608 0.012088 0)
(1.95919 0.0136052 0)
(1.95385 0.0162179 0)
(1.94937 0.0157432 0)
(1.94621 0.0153353 0)
(1.94472 0.0147131 0)
(1.94348 0.0138694 0)
(1.94221 0.0131894 0)
(1.94115 0.0123448 0)
(1.94012 0.0113816 0)
(1.93866 0.0104788 0)
(1.93731 0.00913014 0)
(1.93672 0.00795474 0)
(1.93539 0.00646556 0)
(1.93394 0.00488284 0)
(1.93229 0.00371908 0)
(1.93043 0.00324097 0)
(1.92843 0.00293759 0)
(1.92652 0.00242552 0)
(1.92507 0.00136851 0)
(1.92438 3.7788e-05 0)
(1.92391 -0.00128424 0)
(1.92369 -0.00202696 0)
(1.92337 -0.00292062 0)
(1.92295 -0.00334251 0)
(1.92265 -0.00297157 0)
(1.92274 -0.00332179 0)
(1.92331 -0.00416573 0)
(1.9237 -0.00431563 0)
(1.92413 -0.00423274 0)
(1.92402 -0.00398403 0)
(1.92349 -0.00308445 0)
(1.92243 -0.00130759 0)
(1.92069 0.00157499 0)
(1.91815 0.00580822 0)
(1.91625 0.00943175 0)
(1.91412 0.0137023 0)
(1.91062 0.0205034 0)
(1.90867 0.0260042 0)
(1.90779 0.0271272 0)
(1.9079 0.0275933 0)
(1.90704 0.0299898 0)
(1.90551 0.0324219 0)
(2 -8.71163e-15 0)
(2 -8.32122e-15 0)
(2 -7.10133e-15 0)
(2 -7.40022e-15 0)
(2 -7.94758e-15 0)
(2 -9.14649e-15 0)
(2 -8.83628e-15 0)
(2 -7.66436e-15 0)
(2 -3.81696e-15 0)
(2 6.21025e-14 0)
(2 1.0522e-12 0)
(2 1.34076e-11 0)
(2 1.48227e-10 0)
(2 1.24532e-09 0)
(2 9.40333e-09 0)
(2 5.61045e-08 0)
(2 2.72033e-07 0)
(2 1.2123e-06 0)
(2 4.02516e-06 0)
(1.99999 1.24866e-05 0)
(1.99998 3.16111e-05 0)
(1.99995 7.10999e-05 0)
(1.99991 0.00014055 0)
(1.99986 0.000232752 0)
(1.99976 0.000409467 0)
(1.99967 0.000553377 0)
(1.99954 0.000780464 0)
(1.99939 0.0010246 0)
(1.99921 0.00130499 0)
(1.99901 0.00157489 0)
(1.99876 0.00191788 0)
(1.99837 0.00246338 0)
(1.998 0.00274332 0)
(1.99749 0.00314144 0)
(1.99674 0.00385044 0)
(1.99583 0.00458711 0)
(1.99476 0.00516268 0)
(1.99343 0.0059546 0)
(1.992 0.00681675 0)
(1.99025 0.00779866 0)
(1.98818 0.00850344 0)
(1.98564 0.00951009 0)
(1.98266 0.0108699 0)
(1.97898 0.0117531 0)
(1.97397 0.0138426 0)
(1.9682 0.0154609 0)
(1.96147 0.0161494 0)
(1.95463 0.0193663 0)
(1.95018 0.020296 0)
(1.94561 0.0196008 0)
(1.94345 0.0191088 0)
(1.94195 0.0183305 0)
(1.94105 0.0171287 0)
(1.94004 0.0158395 0)
(1.93885 0.0148399 0)
(1.93763 0.0141214 0)
(1.93589 0.0134512 0)
(1.93409 0.0124153 0)
(1.93321 0.0113452 0)
(1.93187 0.00967531 0)
(1.93031 0.00798242 0)
(1.92876 0.00666872 0)
(1.92736 0.00525621 0)
(1.92591 0.00434336 0)
(1.92397 0.00370884 0)
(1.92289 0.00240976 0)
(1.92226 0.00121084 0)
(1.92149 0.000619373 0)
(1.92167 -0.000827002 0)
(1.92163 -0.00221926 0)
(1.92185 -0.00219278 0)
(1.92229 -0.00291124 0)
(1.9227 -0.00380399 0)
(1.92314 -0.0036415 0)
(1.92351 -0.00383916 0)
(1.92384 -0.00441304 0)
(1.92407 -0.0045166 0)
(1.92405 -0.00436587 0)
(1.92358 -0.00375851 0)
(1.92263 -0.00236392 0)
(1.92115 5.80916e-05 0)
(1.91916 0.00337637 0)
(1.91682 0.00768377 0)
(1.91551 0.0109676 0)
(1.91314 0.0157589 0)
(1.91019 0.0231365 0)
(1.90895 0.0262589 0)
(1.9086 0.0261788 0)
(2 -7.19719e-15 0)
(2 -7.68826e-15 0)
(2 -6.99525e-15 0)
(2 -8.63861e-15 0)
(2 -1.01368e-14 0)
(2 -1.04919e-14 0)
(2 -9.05141e-15 0)
(2 -7.83196e-15 0)
(2 -5.20333e-15 0)
(2 -5.50767e-15 0)
(2 -2.11531e-15 0)
(2 3.4181e-14 0)
(2 5.59473e-13 0)
(2 7.81787e-12 0)
(2 8.52683e-11 0)
(2 8.06419e-10 0)
(2 6.08785e-09 0)
(2 3.74406e-08 0)
(2 2.00701e-07 0)
(2 8.31643e-07 0)
(2 3.1372e-06 0)
(1.99999 9.18003e-06 0)
(1.99998 2.49992e-05 0)
(1.99996 5.65348e-05 0)
(1.99993 0.000109481 0)
(1.99988 0.000208878 0)
(1.9998 0.000330204 0)
(1.9997 0.000504157 0)
(1.99958 0.000719013 0)
(1.99939 0.00103562 0)
(1.99923 0.00126656 0)
(1.99899 0.00160992 0)
(1.9986 0.00219258 0)
(1.99818 0.00269574 0)
(1.99775 0.00304468 0)
(1.99689 0.00404721 0)
(1.99607 0.00477671 0)
(1.99494 0.00564274 0)
(1.99354 0.00666854 0)
(1.99189 0.00782722 0)
(1.98981 0.00934214 0)
(1.98734 0.0105399 0)
(1.98435 0.0118922 0)
(1.98054 0.0136551 0)
(1.97604 0.0151258 0)
(1.97033 0.0181693 0)
(1.9639 0.0193316 0)
(1.95661 0.0212961 0)
(1.95093 0.0245762 0)
(1.94622 0.0242835 0)
(1.94254 0.0236486 0)
(1.94085 0.022735 0)
(1.93928 0.0219156 0)
(1.93825 0.0207829 0)
(1.93734 0.0195149 0)
(1.93626 0.0182559 0)
(1.93501 0.0172211 0)
(1.93306 0.0163856 0)
(1.93134 0.0154857 0)
(1.93013 0.0145411 0)
(1.92843 0.0130572 0)
(1.92673 0.0114197 0)
(1.92547 0.00969001 0)
(1.9243 0.00826495 0)
(1.92271 0.00765346 0)
(1.92168 0.00605044 0)
(1.92092 0.00403922 0)
(1.91985 0.00354058 0)
(1.91995 0.00212071 0)
(1.92013 0.000281679 0)
(1.92038 6.43555e-05 0)
(1.9213 -0.00128327 0)
(1.92194 -0.00314771 0)
(1.92268 -0.0031097 0)
(1.92292 -0.00291787 0)
(1.92335 -0.0035094 0)
(1.92382 -0.00416274 0)
(1.92404 -0.00433167 0)
(1.92406 -0.00434436 0)
(1.92395 -0.00438884 0)
(1.92345 -0.00387365 0)
(1.92289 -0.00287649 0)
(1.92188 -0.00132132 0)
(1.9202 0.00161324 0)
(1.91851 0.00485453 0)
(1.91685 0.00877829 0)
(1.91495 0.013331 0)
(1.91287 0.0178464 0)
(2 -6.17134e-15 0)
(2 -5.66718e-15 0)
(2 -5.38388e-15 0)
(2 -6.4811e-15 0)
(2 -6.77041e-15 0)
(2 -7.4475e-15 0)
(2 -7.33467e-15 0)
(2 -7.25289e-15 0)
(2 -6.90807e-15 0)
(2 -7.93941e-15 0)
(2 -8.35137e-15 0)
(2 -9.00947e-15 0)
(2 -1.07735e-14 0)
(2 8.04774e-16 0)
(2 2.35699e-13 0)
(2 3.6207e-12 0)
(2 4.36457e-11 0)
(2 4.25928e-10 0)
(2 3.37181e-09 0)
(2 2.24136e-08 0)
(2 1.17512e-07 0)
(2 5.49475e-07 0)
(2 1.95319e-06 0)
(2 6.45567e-06 0)
(1.99999 1.73887e-05 0)
(1.99997 4.05537e-05 0)
(1.99995 8.56079e-05 0)
(1.9999 0.000162982 0)
(1.99984 0.000274867 0)
(1.99976 0.000419406 0)
(1.9996 0.000693614 0)
(1.99944 0.000937175 0)
(1.99924 0.0012351 0)
(1.99887 0.00179825 0)
(1.99847 0.00235453 0)
(1.998 0.00282281 0)
(1.99725 0.00375549 0)
(1.99629 0.00486802 0)
(1.99521 0.00584756 0)
(1.99398 0.00680315 0)
(1.99209 0.00861643 0)
(1.98994 0.0103901 0)
(1.98721 0.0119978 0)
(1.98361 0.0141474 0)
(1.97925 0.0163176 0)
(1.97364 0.0193525 0)
(1.96702 0.0225817 0)
(1.95964 0.0231977 0)
(1.95197 0.0269823 0)
(1.94747 0.0292154 0)
(1.94216 0.0286549 0)
(1.93943 0.0279222 0)
(1.93804 0.0268036 0)
(1.93663 0.0255599 0)
(1.9358 0.0243019 0)
(1.93474 0.0231397 0)
(1.93358 0.0219844 0)
(1.93212 0.0209361 0)
(1.92993 0.0200574 0)
(1.92838 0.0191148 0)
(1.92699 0.0181267 0)
(1.92504 0.0164415 0)
(1.92334 0.014693 0)
(1.92215 0.0129455 0)
(1.92104 0.0120796 0)
(1.91985 0.011133 0)
(1.91898 0.00914904 0)
(1.91779 0.00813643 0)
(1.9178 0.00633088 0)
(1.91829 0.00385688 0)
(1.91866 0.00312982 0)
(1.9197 0.00189303 0)
(1.9208 -0.000688632 0)
(1.92166 -0.00124678 0)
(1.92207 -0.00102529 0)
(1.92287 -0.00259087 0)
(1.92326 -0.00324845 0)
(1.92356 -0.00335515 0)
(1.92388 -0.00363839 0)
(1.92396 -0.00424176 0)
(1.92403 -0.00431481 0)
(1.92392 -0.0041935 0)
(1.9235 -0.00356098 0)
(1.92316 -0.00309145 0)
(1.92252 -0.00205875 0)
(1.92159 -0.000249653 0)
(1.92002 0.00293739 0)
(1.91835 0.00646572 0)
(2 -6.24846e-15 0)
(2 -5.4676e-15 0)
(2 -5.11207e-15 0)
(2 -4.40301e-15 0)
(2 -4.19847e-15 0)
(2 -4.71197e-15 0)
(2 -5.18399e-15 0)
(2 -5.52325e-15 0)
(2 -7.27972e-15 0)
(2 -9.36162e-15 0)
(2 -1.06724e-14 0)
(2 -1.28017e-14 0)
(2 -1.47231e-14 0)
(2 -1.44294e-14 0)
(2 -1.28996e-14 0)
(2 -9.05105e-15 0)
(2 7.84614e-14 0)
(2 1.41299e-12 0)
(2 1.80054e-11 0)
(2 1.86453e-10 0)
(2 1.58589e-09 0)
(2 1.07197e-08 0)
(2 6.32022e-08 0)
(2 2.85814e-07 0)
(2 1.1618e-06 0)
(2 3.83889e-06 0)
(1.99999 1.10174e-05 0)
(1.99998 2.71431e-05 0)
(1.99996 6.04267e-05 0)
(1.99993 0.000123886 0)
(1.99988 0.000206417 0)
(1.99978 0.000374247 0)
(1.99965 0.000607965 0)
(1.99951 0.000814553 0)
(1.99918 0.00132686 0)
(1.99884 0.00182068 0)
(1.99834 0.00245586 0)
(1.99773 0.00319142 0)
(1.99677 0.00441462 0)
(1.99558 0.0058527 0)
(1.9944 0.00674334 0)
(1.99255 0.00858672 0)
(1.99011 0.0110787 0)
(1.98738 0.012964 0)
(1.98343 0.0156789 0)
(1.97868 0.018285 0)
(1.97195 0.0229411 0)
(1.96421 0.0264869 0)
(1.95545 0.0281897 0)
(1.94809 0.0320973 0)
(1.94359 0.0336057 0)
(1.93857 0.0332186 0)
(1.93664 0.0322153 0)
(1.93492 0.0311974 0)
(1.9335 0.0298224 0)
(1.93294 0.0284378 0)
(1.932 0.0270144 0)
(1.93078 0.0256027 0)
(1.92906 0.0246002 0)
(1.92662 0.0239251 0)
(1.92483 0.0232141 0)
(1.92317 0.0222492 0)
(1.92123 0.0205147 0)
(1.91983 0.0184859 0)
(1.9189 0.0168574 0)
(1.91805 0.0157019 0)
(1.91718 0.0143711 0)
(1.91588 0.0136198 0)
(1.9153 0.0118751 0)
(1.91579 0.0091602 0)
(1.91616 0.00786015 0)
(1.9174 0.00629002 0)
(1.91901 0.00327562 0)
(1.9201 0.00180021 0)
(1.92088 0.00196792 0)
(1.92183 5.64365e-05 0)
(1.92246 -0.00204078 0)
(1.92294 -0.00204915 0)
(1.9234 -0.00249702 0)
(1.92369 -0.00341592 0)
(1.92394 -0.00365244 0)
(1.92407 -0.00340184 0)
(1.92385 -0.00341206 0)
(1.92357 -0.00359107 0)
(1.9235 -0.00342762 0)
(1.92343 -0.00321103 0)
(1.92315 -0.00253685 0)
(1.92239 -0.00101605 0)
(2 -6.96974e-15 0)
(2 -7.03184e-15 0)
(2 -6.97493e-15 0)
(2 -6.62848e-15 0)
(2 -6.19283e-15 0)
(2 -5.97139e-15 0)
(2 -6.4419e-15 0)
(2 -7.73927e-15 0)
(2 -8.35201e-15 0)
(2 -9.60999e-15 0)
(2 -1.13505e-14 0)
(2 -1.31248e-14 0)
(2 -1.5095e-14 0)
(2 -1.70982e-14 0)
(2 -1.79473e-14 0)
(2 -1.92127e-14 0)
(2 -2.06607e-14 0)
(2 -2.04143e-14 0)
(2 3.18214e-15 0)
(2 4.14091e-13 0)
(2 5.97966e-12 0)
(2 6.71256e-11 0)
(2 5.95876e-10 0)
(2 4.50339e-09 0)
(2 2.68069e-08 0)
(2 1.36171e-07 0)
(2 5.71558e-07 0)
(2 2.04638e-06 0)
(2 6.28402e-06 0)
(1.99999 1.6461e-05 0)
(1.99998 4.11043e-05 0)
(1.99995 8.33921e-05 0)
(1.99991 0.000160034 0)
(1.99981 0.000321097 0)
(1.99971 0.0004753 0)
(1.9995 0.000820137 0)
(1.99919 0.00128084 0)
(1.99879 0.00184285 0)
(1.9982 0.00260566 0)
(1.99741 0.00362066 0)
(1.99622 0.00521507 0)
(1.99493 0.00645325 0)
(1.99325 0.00812817 0)
(1.99051 0.01132 0)
(1.98763 0.0134637 0)
(1.9834 0.0163925 0)
(1.97779 0.0205554 0)
(1.97056 0.0256714 0)
(1.96156 0.0300556 0)
(1.95161 0.0330966 0)
(1.94497 0.0362892 0)
(1.93941 0.0385511 0)
(1.93512 0.0380945 0)
(1.93343 0.0369197 0)
(1.93159 0.0357192 0)
(1.93035 0.0340898 0)
(1.92988 0.0325515 0)
(1.929 0.0309157 0)
(1.92769 0.0293416 0)
(1.92579 0.0282133 0)
(1.92325 0.0276597 0)
(1.92145 0.027075 0)
(1.91942 0.0262171 0)
(1.91755 0.0246901 0)
(1.9164 0.0227601 0)
(1.91583 0.0209156 0)
(1.91514 0.0194662 0)