/*--------------------------------*- C++ -*----------------------------------*\
  =========                 |
  \\      /  F ield         | OpenFOAM: The Open Source CFD Toolbox
   \\    /   O peration     | Website:  https://openfoam.org
    \\  /    A nd           | Version:  7
     \\/     M anipulation  |
\*---------------------------------------------------------------------------*/
FoamFile
{
    version     2.0;
    format      ascii;
    class       volScalarField;
    location    "0.262";
    object      T;
}
// * * * * * * * * * * * * * * * * * * * * * * * * * * * * * * * * * * * * * //

dimensions      [0 2 -2 0 0 0 0];

internalField   nonuniform List<scalar> 
12359
(
2.87378e-86
-1.72234e-69
-2.65822e-239
-3.02294e-45
3.81945e-79
-1.90807e-31
1.9516e-25
-2.01808e-28
-9.64779e-22
7.98889e-34
-8.78607e-23
-1.03258e-14
0.0267369
5.49427e-43
4.01715e-48
-3.4996e-07
-3.80251e-05
-1.96247e-130
9.72895e-134
3.06901e-57
7.9245e-40
5.07722e-17
4.27264e-63
-1.0887e-54
-7.82607e-67
-4.90425e-60
2.89511e-173
-3.68626e-177
1.76282e-140
-3.0088e-164
7.01567e-157
-5.72301e-193
1.3236e-212
1.09275e-166
7.48621e-227
-1.37769e-153
1.43248e-105
2.47757e-90
3.70148e-82
4.9982e-96
2.09659e-72
-2.24673e-93
-6.83638e-114
3.07853e-117
-1.0726e-147
-4.147e-144
1.95924e-150
-2.53496e-160
-4.49096e-137
-7.47629e-170
-5.2086e-180
-3.1959e-186
1.72809e-196
3.38246e-127
-8.01937e-203
-3.28991e-209
-3.87068e-121
-4.22528e-216
1.07016e-219
-2.89227e-223
5.83413e-206
-3.40272e-233
5.35616e-183
3.01803
-3.6509e-124
-1.06926e-36
-2.37863e-108
1.6636e-189
3.41946e-102
1.03686e-09
76.2459
-1.30972e-75
5.05094e-244
-7.60108e-99
-2.53874e-51
5.18443e-231
1.3209e-200
4.77757e-236
4.14839e-111
-4.25597e-14
6.24252e-35
-2.31619e-157
0
-6.97507e-98
0.000185345
2.80156e-109
-7.58716e-155
-3.24474e-219
0.0462401
4.723e-05
2.06213e-272
1.60787
4.6088e-275
2.16524e-127
5.00299e-103
8.31049e-87
-1.83185e-133
-7.24561e-128
1.64252e-65
5.11539e-81
5.84265e-29
-1.53167e-262
-2.13005e-110
10.3086
5.07638e-167
2.10038e-44
1.40801e-282
0.000211207
1.9364e-118
5.49113e-46
-8.0867e-136
-3.91846e-156
-8.20835e-40
1.17799e-33
-1.2352e-103
6.101e-195
-1.87782e-32
9.96794e-157
0.234509
0
1.26116e-137
-1.01917e-29
2.27038e-215
2.15111e-64
3.19858e-155
-2.69172e-183
5.54388e-22
1.55157e-97
-1.37808e-237
1.56807e-156
-3.53409e-194
8.61939e-15
5.94041e-12
1.6314e-12
-1.57032e-285
4.90475e-64
-2.28277e-194
-3.48659e-66
-2.27907e-257
2.99814e-23
5.25215e-314
-2.25607e-85
2.7114e-60
-1.21982e-283
3.72256e-27
-2.98559e-35
0
4.70405e-05
1.31005e-166
1.19809e-32
7.53298e-86
-2.93621e-259
5.29771e-59
-8.10649e-214
5.2754e-282
96.3574
3.41699e-30
3.69822e-15
7.16168e-134
-2.38434e-203
-7.10132e-46
-9.62002e-202
6.08676e-65
1.15387e-60
6.69113e-314
-1.6544e-185
-8.36285e-48
8.6824e-29
1.30771e-62
0.0548346
9.19862e-234
1.13483e-231
4.54338e-65
9.26001e-69
4.66628e-169
1.0891e-23
-4.17128e-147
-5.20354e-149
3.24238e-39
5.33876e-25
2.61109e-44
1.10981e-279
3.71949e-238
-3.07757e-156
3.85937e-67
-1.33993e-19
9.18843e-131
2.72843e-107
2.17032e-83
-5.08778e-131
8.99859e-106
1.1379e-88
4.18627e-89
-5.44824e-212
6.02106e-46
13.0069
-2.72737e-89
1.7758e-130
-7.58339e-58
2.46815e-155
-1.41645e-33
2.01927e-84
-1.35914e-79
1.29555e-46
1.57728e-31
1.10957e-280
7.95521e-30
-4.94817e-78
5.34064e-58
1.73849e-141
2.42852e-305
1.23599e-31
7.64571e-31
141.394
-6.1514e-19
-1.33426e-255
1.74556e-130
-6.71889e-106
1.76401e-129
-2.71327e-83
3.60764e-34
6.8562e-143
5.2723e-66
1.6878
-1.56087e-156
2.60676e-305
-1.05662e-81
1.03532e-120
1.59642e-25
-1.87168e-126
-1.04374e-125
-5.65826e-318
4.48722e-27
1.53e-74
-2.45441e-108
3.34811e-76
0
8.8893e-56
7.69656e-107
6.38595e-06
-8.8603e-303
-1.80297e-105
-1.17466e-116
1.16235e-12
-9.4898e-44
6.15796e-05
-6.89815e-222
2.14731e-59
-6.26756e-176
3.58818e-89
6.13977e-41
-5.85541e-93
5.63696e-153
-2.49874e-125
0.596868
114.556
0
9.24241e-149
0.599881
129.489
1.04516e-79
1.49178e-45
3.17492e-28
4.34932e-47
-1.28123e-69
48.1088
0.171546
8.91243e-42
9.39738e-152
2.29452e-63
8.5371e-64
2.10931e-65
3.54134e-61
1.12955e-127
9.57164e-145
8.71618e-305
3.09457e-147
2.69665
1.15009e-41
-1.61524e-264
4.4469e-262
2.23535e-47
-2.31544e-152
1.13821e-109
-2.19823e-107
4.58691e-319
2.51139e-28
-1.85611e-260
4.56621e-263
1.70884e-195
1.91017e-66
-1.12132e-159
44.0249
1.28892e-284
6.42876e-281
2.60466e-108
1.07612e-177
3.64707e-35
-2.6464e-108
-1.4305e-184
-1.15804e-271
2.07744
7.25948e-27
1.03515e-272
1.35732e-129
-3.63597e-110
-2.54118e-174
-4.92198e-195
7.13174e-195
-3.37728e-172
-3.96194e-138
-1.07639e-19
-5.49831e-175
-1.4428e-158
-3.80055e-91
3.05235e-50
0.0354756
6.71471e-173
2.47603e-68
4.00244e-08
-1.02617e-263
3.9493e-69
1.80343e-260
1.21079e-86
-4.16865e-281
-6.83131e-172
1.8946e-21
2.33258e-64
-8.97452e-21
2.80708e-111
-9.40934e-119
4.87969e-90
2.23155e-86
3.0889e-116
7.23628e-91
3.43257e-90
3.06847e-240
1.07513e-210
1.84832e-211
-2.57911e-208
5.20867e-209
5.28063e-05
9.55039e-319
1.24537e-32
3.91087e-69
7.4853e-70
5.28241e-58
3.41432e-63
1.42172e-109
2.61497e-90
4.11913e-64
1.51734e-90
5.0812e-69
3.26101e-46
6.84155e-45
2.23273e-39
-7.71075e-84
6.25191e-20
-8.57153e-87
-1.81598e-86
2.82834e-58
1.40049e-25
6.0569e-157
8.37045e-202
2.47969e-87
1.11251e-203
-1.14062e-155
139.628
11.8784
-8.61377e-156
1.6578e-253
-3.25341e-287
-1.88702e-288
1.84666e-65
1.3805e-279
2.45687e-281
0.103523
5.46465e-61
3.75051e-05
4.24334e-156
1.63356e-52
-2.53033e-154
-6.35633e-115
-3.55681e-42
1.39954e-88
-1.12183e-45
1.84205e-90
-5.05772e-159
2.58122e-262
4.45366e-62
4.03198e-53
8.19932e-161
1.27154e-14
-1.01831e-42
3.31845e-87
-2.06681e-58
-7.6173e-49
-1.60569e-255
5.81237
1.01512e-18
2.05551e-154
2.21781e-13
-4.35433e-88
1.26325e-311
-6.25124e-313
-8.5229e-294
8.37957e-05
8.21685e-27
8.66197e-67
3.9682e-71
5.16974e-87
1.8486e-101
1.93624e-45
-7.12027e-60
4.05333e-24
0.0498776
3.35865e-13
-5.03233e-69
1.34316e-40
1.94558e-116
3.87027e-41
3.43341e-94
1.9767e-85
1.71562e-167
2.98555e-96
1.14479e-63
2.5684e-278
118.266
1.75565e-108
0.000555201
4.78723e-56
6.11833e-121
6.82541e-38
0.490021
3.5237e-61
9.57927e-85
3.48394e-88
2.82131e-54
9.48192e-41
5.74682e-152
-2.69421e-302
2.55298e-32
-3.73075e-279
1.61799e-15
-5.10462e-192
-4.84412e-62
7.00538e-45
1.45236e-138
0.000668708
1.14351e-31
-2.54232e-82
-1.68304e-147
5.5392e-07
2.35735e-246
5.85585e-161
6.62397e-23
2.30465e-251
-1.17031e-147
1.85147e-162
2.39332e-09
13.0354
-1.46605e-100
-1.92455e-223
-5.52669e-42
-1.51796e-50
7.04975e-70
5.27481e-56
6.81701e-63
5.23951e-239
-1.95667e-290
-1.43178e-56
6.68319e-269
3.20347e-46
2.17837e-70
3.55826e-42
3.58894e-151
4.96636e-34
1.07301e-21
3.59344e-167
-1.44224e-101
-9.8731e-159
-5.01414e-37
5.00109e-23
-1.86282e-257
-2.69012e-54
3.36869e-66
5.75448e-119
-3.39888e-52
-5.54023e-191
2.44705e-27
-1.37123e-99
1.53438e-60
2.65129e-43
-5.8349e-237
2.13167e-102
2.99323e-14
7.92422e-11
6.60587e-271
-1.90991e-81
5.75163e-13
2.69456e-79
0.309874
-2.95372e-295
-5.55284e-194
2.75887e-244
2.18183e-57
8.93642e-81
-1.38894e-90
-5.19577e-189
1.76986e-57
1.27174e-82
1.21354e-72
-1.24606e-145
5.70343e-06
-1.24436e-273
2.05075e-05
6.48993e-219
131.523
-3.43329e-98
2.47156e-15
-6.44213e-220
-2.73443e-152
1.39999e-48
-3.35293e-158
-4.97048e-186
-6.39675e-114
3.79839e-78
5.23437e-79
1.68717e-15
4.80417e-36
9.48068e-37
0
-9.78608e-159
2.44333e-67
1.90491e-10
0
-1.12802e-268
6.63717e-65
9.63373e-242
-1.10333e-21
0.569125
35.0306
0
-1.24919e-108
1.53513e-39
-1.90879e-87
-2.9505e-170
76.0851
-1.25587e-272
2.64419e-30
1.99958e-43
3.30405e-109
-1.28827e-173
-7.15905e-183
7.66283e-140
2.60891e-70
5.54452e-92
-1.21258e-96
0
5.92671e-236
6.74178e-83
-5.66485e-148
7.39426e-38
6.53801e-58
1.94974e-193
-3.64152e-266
3.6664e-45
117.557
4.96846e-160
6.72358e-25
-1.86279e-289
-1.67465e-95
6.34306e-31
7.79618e-82
2.9933e-42
9.84174e-37
-1.33355e-80
2.59278e-63
9.61235e-308
-5.98325e-227
2.51062e-85
-7.75168e-101
-9.63656e-82
6.98525e-102
9.74132e-285
3.7826e-265
4.64057e-184
-1.45407e-64
2.21603e-56
-1.43454e-42
3.79326e-107
-4.66312e-40
-5.60451e-59
9.4148e-83
-1.19153e-38
6.71337e-68
0.000787448
2.23121e-59
-1.29136e-66
2.73496e-40
1.0358e-230
3.18315e-32
6.38968e-48
0
6.47099e-250
9.0781e-241
3.06237e-227
4.07431e-10
7.24863e-83
2.12901e-127
-1.0815e-41
-4.46992e-113
5.50102e-20
1.63493e-80
3.0224e-69
2.14946e-182
3.41294e-18
1.11527e-285
-3.6989e-64
3.33986e-148
3.07061e-24
2.70585e-38
-1.33048e-86
1.57803e-84
5.30463
3.42944e-62
3.26984e-19
3.74558e-94
1.0264e-14
0.232875
8.47373e-229
5.18481e-155
-1.24607e-287
4.35072e-12
-6.79708e-155
1.00489e-91
0.0006902
-3.38017e-270
1.68897e-70
2.13625e-44
-8.71993e-89
-2.94659e-156
8.53498e-88
-4.26668e-210
-2.69874e-84
-4.47777e-208
-2.92978e-212
-2.47981e-89
1.98246e-64
4.81021e-65
-2.42264e-87
-2.42253e-11
3.05844e-83
11.4988
2.20944e-59
-6.09153e-108
-1.39625e-86
2.03404e-61
2.60521e-68
4.35817e-88
0.205974
-1.53121e-45
6.14386e-71
2.70567e-73
-3.16448e-136
-2.5302e-149
5.67176e-46
-1.13475e-300
0.646802
1.26827e-197
-2.85601e-44
5.0682e-30
5.08619e-11
6.48678e-33
6.93955e-51
1.24721e-46
2.94289e-95
1.1957e-32
1.47118e-53
2.44605e-19
2.14014e-73
1.5015e-21
8.41336e-74
2.38634e-321
1.34779e-68
150.342
7.37633e-17
-2.95927e-126
1.02175e-311
1.39569e-192
1.94219e-109
-1.87486e-63
2.19561e-66
-1.97729e-94
4.75908e-240
9.74182e-123
-1.81802e-67
1.46252e-128
2.48976e-145
1.894e-21
1.42084e-122
5.12185e-57
3.70836e-47
-7.83671e-124
4.03184e-118
1.13469e-35
0
-9.28587e-116
37.4609
2.63171e-225
1.56034e-25
5.95908e-31
1.91276e-119
4.33248e-42
1.08561e-46
-2.66668e-69
1.0809e-39
2.43585e-157
6.67194e-43
1.46686e-170
5.01232e-91
3.08275e-49
-2.98188e-40
3.14568e-157
4.67056e-62
4.98737e-15
-8.33314e-59
5.63343e-93
1.67073e-153
3.03099e-31
2.56568e-08
-5.21809e-140
-1.66695e-256
-3.16801e-71
4.46653e-276
0.268979
6.94017e-74
9.84309e-17
1.13666e-96
-3.70743e-96
5.48222
3.95443e-89
0.000215365
3.79607e-68
30.5737
5.367e-67
-1.85976e-95
5.64308e-91
6.60847e-121
0.000196728
5.6192e-06
4.73086e-225
3.91928e-221
-2.97244e-37
1.08967e-208
0.000568437
1.92051e-42
7.42685e-13
-2.90352e-154
115.242
0.0290468
4.80941e-73
3.37644e-320
8.98504e-163
-1.8436e-48
4.99929e-108
3.44724e-105
-3.34392e-104
1.32229e-63
4.179e-55
6.87421
-1.89816e-10
6.69117e-242
1.07329e-47
1.52176e-38
1.94801e-35
1.48365e-95
3.21791e-29
2.06152e-58
-4.38844e-47
-9.23136e-156
-6.67843e-317
2.20419e-35
1.15238e-31
-3.03316e-96
-6.29052e-39
6.28946e-18
-8.06784e-110
-4.66517e-71
-6.1815e-147
3.29717e-107
8.37785e-19
-5.33226e-106
8.53199e-43
3.58475e-53
2.65449e-75
1.50081e-137
-4.18078e-97
5.94124e-16
2.52416e-99
6.7306e-97
7.08427
2.11498e-63
-6.5652e-111
0.00180011
0
2.4468e-97
-1.37309e-77
-1.93703e-110
-8.09131e-186
1.7007e-72
0
7.89364e-13
3.25146e-162
1.91481e-71
7.97631e-33
2.43105e-41
9.46583e-91
9.76872e-95
5.47776e-37
62.4604
6.71189e-229
3.71999e-119
2.02358e-110
0.00146673
2.54681e-31
3.02659e-159
0.977324
1.23924e-317
3.65514e-164
134.54
-6.07399e-122
2.27403e-155
8.14721e-152
1.18296e-54
-1.75145e-51
-1.42254e-223
-8.31112e-115
8.79528e-32
3.31618e-78
-6.37844e-84
-2.04259e-105
1.00608e-226
-6.10034e-50
6.31923e-10
-1.27887e-84
-2.55419e-40
1.93503e-69
4.34694e-90
5.0238e-14
8.48388e-42
-1.81286e-103
4.55709e-162
1.84398e-05
1.4242e-64
1.30761e-59
2.09054e-145
-4.03924e-226
1.19384e-44
5.28647e-18
1.25714e-102
3.54074e-41
1.03763e-100
-2.13359e-102
2.21566e-135
3.23185e-50
126.878
12.507
3.57799e-49
-4.22905e-83
-2.55108e-137
4.33964e-52
0.00221313
-3.46136e-43
7.64718e-161
1.28514e-20
2.91048e-11
6.23624
-3.78555e-125
50.1005
-1.26726e-227
-1.12393e-100
1.36303e-223
9.5786e-15
3.79214e-58
50.0109
1.42331e-170
0.00455128
5.70645e-207
-3.33658e-84
2.41548e-51
1.83864e-109
1.79701e-20
0.000529951
-8.96124e-119
-3.95907e-137
-4.60393e-102
-3.98787e-127
-1.06643e-120
9.93748e-18
3.17916e-61
6.76763e-94
4.49691e-20
-1.59622e-121
-1.51829e-219
-4.66512e-88
1.97678e-189
2.20167e-34
-3.87531e-103
3.1886e-13
5.8582e-15
-1.68005e-54
3.03321e-49
6.62227e-57
4.94929e-91
0.00239216
1.67496e-105
-7.13571e-127
2.55353e-284
3.79921e-19
-7.50343e-45
2.87533e-172
1.03881e-36
1.6437e-108
3.05304e-50
-7.63836e-48
-6.93306e-42
1.22778e-58
75.353
2.70093e-56
-5.7368e-53
0.000360923
2.13813e-110
2.16752e-09
4.96699e-41
1.2572e-212
1.48086e-103
-6.78721e-145
1.15574e-93
1.66941e-309
-5.86503e-154
6.55567e-11
2.7685e-17
-4.51579e-157
139.01
4.20728e-37
-1.52571e-199
2.44383e-15
1.14606e-21
-4.08351e-205
1.26817e-13
2.24776e-34
3.02806e-15
-4.39234e-208
-1.85279e-150
8.7278e-131
-4.57746e-206
4.37222e-44
11.9051
-5.53849e-166
2.14001e-15
0
1.27229
1.48931e-39
1.0987e-59
8.00427e-274
5.05604e-168
-8.11057e-99
1.82553e-60
1.49718e-19
1.29996e-49
-4.46766e-122
8.02808e-115
-2.67006e-210
3.23047e-42
1.13882e-48
-1.03319e-143
-5.98854e-251
2.54765e-81
5.44448e-51
1.41722e-56
1.08461e-182
3.76007e-10
-3.02288e-36
7.54858e-208
1.82662e-66
6.55062e-116
8.4982e-99
160.029
-1.95969e-123
-6.17593e-200
1.07109e-66
-3.50938e-46
-1.25459e-57
1.30485
5.80724e-73
4.36119e-108
6.60282e-48
-2.21164e-111
6.01237e-113
4.22965e-106
-7.74577e-110
-1.03336e-34
-3.18601e-98
11.2143
-5.28158e-56
3.56719e-12
-1.52176e-111
7.20835e-09
6.65844e-40
1.86597e-20
2.67291e-17
2.0907e-61
-4.36112e-112
6.87865e-116
3.20489e-83
0
-1.77441e-101
1.1247e-45
4.10086e-28
9.36719e-114
1.95014e-209
2.00325e-66
2.04307e-56
4.08546e-30
1.34927e-50
2.4348e-20
1.74456e-30
1.73124e-143
2.25872e-64
0.00980957
3.46506e-47
1.90572e-316
8.40662e-128
3.34165e-112
4.75044e-320
6.29934e-66
9.79195e-231
-1.32621e-99
1.03127e-19
9.08664e-43
4.39866e-10
1.50775e-225
8.04245e-171
1.97625e-274
-3.11456e-113
-4.92328e-134
5.24855e-20
-3.425e-133
2.99282e-170
4.50337e-09
1.54072e-54
4.22804e-85
1.37359e-67
7.19498e-23
1.5936e-127
2.61962e-15
8.19769e-117
-9.76797e-222
4.85262e-05
1.55729e-72
7.25077e-26
-4.88977e-128
41.2419
-6.95102e-51
-2.40548e-61
1.9149e-65
1.03854e-42
5.45151
-4.98516e-112
1.36197e-21
-2.99738e-55
-2.23511e-63
5.69711e-165
1.40806e-102
1.80175e-09
-1.23615e-100
7.95993e-14
-3.55553e-120
-4.68473e-125
3.0757e-16
-7.16502e-196
-1.96451e-146
-6.53244e-110
3.42687e-71
3.5096e-14
-4.33826e-121
1.73487e-113
-2.34999e-293
-6.58579e-54
3.91408e-05
2.23726e-62
-5.24286e-114
8.85434e-84
5.59459e-129
-4.56146e-165
8.44242
-9.15273e-61
-3.77274e-259
9.33713e-63
9.83421e-131
-3.23856e-49
-3.42999e-33
4.83569e-84
7.61519e-110
5.30663e-22
1.53421e-16
-2.27701e-279
4.31089e-86
2.62525e-17
8.02342e-173
-1.3523e-236
9.71924e-78
9.43931e-75
-7.19161e-103
-1.02314e-234
2.41141e-72
8.16912e-16
-1.72616e-201
1.23811e-32
1.29662e-226
4.78163e-145
6.04311e-71
2.88317e-06
-1.88175e-291
1.08552
-3.89687e-59
3.63145e-31
10.9974
-5.3896e-54
5.62048e-84
0.0093514
-2.18532e-112
7.36594e-07
-4.44054e-24
3.69616e-84
4.86125e-103
6.67285e-105
-4.18317e-127
-2.75762e-132
2.54768e-40
0.00594774
137.066
1.66936e-45
-2.3231e-34
5.46757e-08
2.30871e-48
0.499874
8.36731e-187
-4.944e-123
5.35666e-25
1.76364e-64
-2.38167e-152
6.00891e-46
5.67565e-115
4.76762
2.01035e-314
-3.5466e-154
-1.5511e-180
150.979
1.15155e-42
2.06365e-56
1.14612e-100
2.59424e-24
-1.27943e-107
-1.3169e-171
2.20977e-09
8.63955e-113
2.64369e-09
6.56267e-40
-2.48548e-105
6.72307e-22
6.79388e-71
4.08984e-120
1.34067e-167
-3.96414e-163
0.0824353
1.82266e-17
-6.79778e-148
1.41445e-23
2.40277e-86
6.74695e-37
-1.05066e-287
2.04254e-73
1.18568e-09
7.90745e-24
-2.51283e-52
-9.40048e-86
8.85538e-169
4.88208e-29
-9.10192e-108
2.80372e-172
1.07227e-13
1.0261e-26
-1.26705e-138
-1.06099e-37
1.50045e-80
-5.59826e-278
1.19349e-153
3.69084e-250
4.65844e-50
43.3347
1.17882e-14
5.82887e-31
-7.90593e-145
-2.02427e-105
3.06257e-71
2.03986e-265
3.60941e-11
3.3917e-72
35.5207
-3.65212e-32
1.31504e-105
-3.43186e-140
5.03827e-184
3.99627e-114
-1.40741e-110
4.22891e-150
8.48096
2.89288e-25
-1.5215e-49
2.62919e-22
8.00579e-54
9.05132e-172
0
4.69156e-150
1.73012e-35
0.0988773
-2.54033e-27
2.76969e-65
-2.73318e-62
-6.16091e-85
2.93023e-26
0.00701838
0.00560342
6.04828e-108
-5.95199e-88
-1.79071e-44
-3.29031e-132
9.07624e-243
-2.59517e-151
1.05757e-22
-4.5239e-135
1.47169e-86
-2.75766e-119
1.05279e-51
4.15303e-12
1.42401e-126
-2.23968e-150
5.98001e-16
1.84618e-28
2.36801e-108
3.46681e-163
-5.6286e-64
1.31003e-11
1.22816e-35
-3.24333e-33
-3.10488e-67
-2.50963e-94
5.23635e-05
-5.95709e-104
-2.12621e-27
3.64789e-165
9.25148e-16
4.04557e-17
-4.80042e-219
6.98835e-180
77.8128
1.34837e-153
-7.05532e-94
1.56109e-39
-8.3528e-133
-9.56878e-132
1.90879e-117
1.79216e-155
2.66959e-274
7.11717e-39
1.23187e-07
-7.92895e-184
0.00338426
1.31044e-118
-4.17042e-156
6.17296e-16
2.33337e-11
2.22076e-36
5.20037e-111
2.101e-148
-3.47688e-57
132.363
-3.27093e-134
-4.50206e-185
-2.67653e-192
-2.12139e-134
-1.52433e-75
-1.92387e-45
-5.14919e-138
-1.68564e-89
2.10067e-149
3.82958
8.72834e-12
7.72078e-72
1.5639e-48
8.58273e-117
-1.33815e-155
2.01964e-29
0.528756
-2.36285e-92
2.63168e-190
-1.29072e-157
7.91349e-18
-1.67441e-133
1.10267e-166
3.26838e-18
2.41197e-112
-1.39092e-154
102.183
9.96585e-16
0.171933
1.46057e-29
-1.56174e-134
4.85694e-27
3.97927e-13
0.0431088
8.61062e-123
1.61044e-49
-1.73647e-268
0.0363219
4.32629e-319
-1.43597e-125
1.09827e-119
-4.35381e-190
1.25842e-60
1.18321e-106
-1.85982e-132
1.50175e-124
0.964552
3.83838e-18
7.32121e-65
-1.42197e-149
1.97018e-41
0.926413
6.03748e-14
8.57319e-55
-1.51907e-65
-5.84972e-126
1.69031e-108
-1.17681e-187
1.03734e-140
-8.08115e-182
-2.98481e-152
-1.7679e-55
4.22262e-19
1.08357e-26
0.108729
7.7357e-06
1.59115e-11
3.75507e-34
0.0377809
9.84185e-169
4.90282e-07
-9.777e-159
0.000197602
5.84219e-15
4.49752e-52
5.30227e-138
2.7234e-50
3.63121e-38
1.303e-93
29.1181
8.76927e-16
0.118112
-3.67968e-154
5.10665e-13
5.3246e-09
4.09824e-15
2.19379e-09
1.63642e-14
-4.65648e-156
3.00424e-114
7.23868e-70
-4.21505e-143
1.99029e-40
-1.54717e-129
-1.15341e-52
1.63303e-221
-1.72942e-117
8.54887e-39
3.96502e-60
4.80556e-174
-1.89893e-60
0.13092
71.6154
-5.24447e-192
7.62857e-63
-7.93834e-114
4.95503e-13
2.67374e-42
2.74514
1.93102e-06
1.4311e-125
9.78481e-59
3.70596e-09
4.9447e-28
2.14018e-07
3.30419e-69
5.89183e-15
-1.58967e-178
0.0438654
7.60479e-17
7.01694e-162
1.36217e-09
0.00023539
6.19596e-58
0.549045
5.02415e-120
4.51607e-11
2.81164e-101
-5.79015e-198
2.4066e-94
-1.13469e-105
0.0144147
2.87717e-12
0.00405642
1.83981e-173
0.732292
5.20003e-52
2.63675e-18
-3.65479e-40
1.4228e-61
1.6616e-73
0.00104232
4.54325e-118
4.24622e-136
3.22095e-38
1.50618e-11
1.67505e-40
3.04991e-29
-5.51513e-74
0.0132571
5.22778e-39
4.80144e-41
8.12871e-12
-7.08245e-201
1.14691e-09
9.01057e-25
4.4799e-10
-2.28331e-96
9.35918e-06
1.05985e-184
4.74696e-42
1.74178e-73
2.79666e-15
-6.03811e-91
3.07647e-39
1.06955e-10
65.8098
2.76692e-124
2.10244e-66
-3.25984e-59
8.20288e-22
8.16841e-33
-2.24889e-124
1.21694e-54
3.84383e-186
8.65209
5.35221e-282
7.27547e-186
3.63473e-248
7.1198e-11
-6.41382e-153
-3.27532e-51
0.0574254
1.30677e-76
-8.16508e-74
-1.00375e-145
3.19609e-235
3.61273e-12
-1.33073e-190
7.06211e-52
1.71567e-16
-9.80192e-59
8.18949e-08
2.9149e-125
7.99064e-54
5.75556e-10
2.58308e-29
-8.66923e-94
73.2343
-1.00128e-286
9.02123e-229
2.27997e-112
158.025
-3.38106e-98
3.42609e-104
8.44873e-10
-7.48388e-138
-2.2669e-123
6.92281e-24
2.75592e-08
1.21343e-44
0.000213979
-3.3066e-135
2.71505e-114
5.01656e-69
8.00381e-73
1.66743e-15
-9.47745e-161
-7.33236e-103
-1.45882e-70
-1.23556e-20
1.62648e-85
5.23835e-176
-1.78436e-54
-3.33843e-23
1.35879e-241
3.81232e-238
1.65451e-06
6.106e-44
4.38961e-06
9.79935e-121
1.19324e-313
-8.40602e-22
4.5442e-11
1.47259e-170
-1.52908e-132
-4.19144e-187
3.77638
-2.15512e-242
2.86732e-46
2.5583e-07
-8.51207e-236
4.70256e-233
2.88216e-30
-7.63549e-202
1.7612e-237
7.00112e-67
3.45136e-17
4.23145e-178
2.76143e-30
-4.94636e-193
2.57468e-10
2.09218e-316
1.41284e-09
2.91289e-16
1.71296e-35
3.9884e-236
3.394e-24
2.84621
3.52571e-132
3.8252e-61
4.37382e-209
1.01787e-17
-8.34735e-195
2.02517e-09
8.69755e-15
4.44792e-109
-7.99468e-245
7.80327e-17
1.08026e-18
1.45049e-75
2.18718e-74
1.52249e-20
-8.83027e-200
3.47645e-25
-4.42292e-246
4.31478e-09
1.99825e-11
1.69547e-16
2.29607e-34
-7.30281e-29
1.20918
2.05549e-39
6.31007e-73
4.25904e-19
-6.82025e-129
6.78692e-22
2.94177e-20
-2.06285e-55
1.36532e-112
0.0137334
3.25447e-267
0.00362364
93.8945
5.35448e-143
8.33875e-14
29.2162
2.96856e-45
1.78957e-70
1.1542e-25
-8.00214e-69
7.18279e-184
9.64546e-11
0.00192943
0.33282
-1.3277e-128
4.72766e-31
1.45088e-06
1.51729e-17
-7.00155e-151
1.25719e-223
1.22318e-57
0.000844088
3.33911e-11
4.54793e-21
-3.41639e-295
-7.27413e-196
9.63169e-19
-4.88951e-136
2.72163e-63
-1.06529e-130
1.60644e-238
1.0686e-09
1.0659e-121
1.85639e-07
3.13803e-74
1.73654e-212
1.5532e-224
1.00196e-18
-1.04751e-129
5.05331e-45
8.12319e-21
0.00660216
-8.48772e-64
2.19201e-176
3.17319e-08
9.0539e-110
4.14322e-188
4.90774e-98
4.04728e-18
-8.09239e-131
1.24345e-17
3.02348e-66
156.094
2.05401e-19
-3.5802e-166
1.94164e-07
3.55337e-247
3.45634e-12
6.4954e-53
1.76038e-07
0.00017612
-2.02552e-56
1.3854e-06
2.0967e-210
6.06038e-13
-6.281e-145
2.17235e-64
3.63119e-08
1.39045e-40
2.48087e-08
0.00208953
-1.48504e-24
8.40753e-12
5.99073e-08
1.54211e-172
7.86192e-192
1.76022e-245
1.1877e-06
-3.39697e-30
1.61859e-170
4.36158e-10
2.70258e-09
3.5486e-61
6.8244e-23
7.13101e-78
7.07795e-44
1.57932e-06
-1.47404e-89
1.50585e-48
3.60727e-48
-4.46439e-269
-1.92881e-267
-2.46481e-172
-5.67236e-128
1.03149e-75
1.00712e-215
-9.68671e-108
-6.43241e-123
1.13142e-76
1.89676e-38
-7.2889e-151
2.16221e-09
2.18848e-318
1.16073e-15
9.48965e-08
-1.29101e-164
3.02973e-06
2.82933e-20
3.74696e-09
-7.15903e-85
1.68531e-21
-1.40793e-137
3.8652e-54
9.27563e-69
1.05043e-226
-1.36872e-145
3.78039e-116
-1.26376e-162
3.19017e-251
2.21631e-69
2.40832e-253
-5.24634e-39
1.7965e-36
0.0170873
1.74283e-218
6.92009e-77
1.26489e-213
7.26136e-136
1.09583e-27
3.94933e-80
7.4775e-168
111.006
6.35994e-18
1.06572e-43
4.68894e-76
4.24369e-20
1.45608e-29
-4.41103e-99
2.71709e-28
2.09301e-17
1.44631e-122
-6.3402e-248
-1.45379e-105
5.95874e-12
-4.99821e-191
-1.21486e-173
2.86717e-17
1.39099e-141
-9.61911e-137
5.78837e-110
3.80869e-176
6.88712e-06
2.46707e-216
-1.1246e-175
9.38212e-36
2.98481e-28
0.311779
9.81216e-17
-1.21455e-74
-1.89411e-166
9.45061e-28
-1.82192e-168
6.15106e-38
2.70553e-85
3.21909e-123
1.10367e-07
-2.63475e-232
4.55622e-30
1.08938e-67
2.05403e-19
1.05664e-52
4.04137e-257
-5.38855e-125
-4.07877e-315
1.16651e-34
-3.97448e-194
5.03817e-25
1.96489e-64
-5.73243e-117
-3.35187e-72
7.13078e-56
2.31359e-251
2.84434e-29
4.64013e-34
-4.28882e-129
4.37196e-34
1.33599e-10
2.0194e-237
1.09407e-55
2.14144e-14
1.20211e-22
-1.25242e-95
-4.82415e-57
-2.64061e-55
1.87261e-67
-6.074e-92
1.86329e-18
-3.08791e-91
1.02947e-164
1.70801e-166
3.78878e-06
3.71161e-11
2.00961e-08
3.51205e-08
-9.81018e-45
2.81663e-27
1.57759e-63
1.02834e-28
3.26086e-167
0.0765292
-6.01131e-136
8.59283e-08
1.13328e-19
-2.46949e-170
-6.22486e-32
5.78866e-12
4.37698e-10
3.93235e-62
3.78733e-37
3.09985e-169
-3.24238e-277
2.00306e-19
1.31984e-248
1.83187e-219
1.01557e-21
-9.02769e-137
-2.91131e-85
2.11258e-174
3.91487e-121
8.92199e-20
6.77953
-1.3432e-137
-3.96304e-144
5.26219e-13
-1.14839e-48
5.84514e-14
1.37675e-34
5.99137e-33
1.88045e-139
-8.34886e-52
6.40522e-31
4.53189e-22
-2.32639e-38
1.36916e-181
2.40793e-17
5.00667e-43
8.84454e-26
-6.6412e-106
2.66483e-172
1.10405e-21
-3.44343e-134
1.34845e-237
1.80507e-31
1.33421e-10
-7.32728e-217
1.05481e-33
5.79424e-67
-5.02692e-149
1.00476e-97
-6.31603e-149
1.41353e-31
1.59089e-164
2.49079e-174
3.52127e-72
2.97827e-32
-4.87995e-51
1.23649e-35
6.11955
5.40087e-126
8.5245e-78
0.00107681
2.84574e-47
-1.27052e-150
1.2439e-44
7.49275e-10
9.29958e-227
-1.93424e-140
5.1224e-242
3.10015e-36
8.3225e-19
-4.02175e-73
1.65294e-255
2.07995e-102
1.85125e-94
3.31314e-115
9.643e-12
2.9317e-135
5.80135e-257
4.55054e-249
1.08878e-39
2.28469e-63
5.54036e-07
1.70367e-106
-4.68877e-62
2.43399e-56
2.94516e-26
-2.70909e-190
6.01494e-32
6.50401e-231
1.79519e-220
-1.60475e-244
1.94521e-13
-2.28227e-134
9.52856e-34
5.86897e-42
2.48845e-39
1.89477e-27
9.46999e-39
1.93752e-17
2.11578e-32
1.44165e-131
1.76879e-48
-4.72769e-59
5.87991e-50
8.52027e-27
-1.17319e-139
20.1621
3.81137e-21
4.52099e-24
4.08984e-218
0.512809
2.00127e-26
8.99782e-29
4.43593e-37
3.93568e-18
1.32576e-78
-5.50892e-124
3.97262e-123
1.03973e-131
5.6845e-125
6.66309e-24
1.1783e-28
-2.09978e-141
8.74114e-40
3.32068e-117
-4.12968e-123
-1.02699e-79
-8.40959e-58
-2.7047e-100
4.54059e-71
-1.83564e-57
5.02814e-47
6.99049e-34
6.49812e-70
-2.22843e-218
-6.42167e-104
-1.04167e-130
5.98358e-14
-9.4256e-193
-8.33866e-138
6.51947e-38
0.0151013
-2.2211e-164
1.60153e-06
7.6458e-170
-1.36891e-135
1.46067e-71
2.58799e-41
6.26431e-49
-1.49293e-188
3.13584e-34
8.68874e-35
1.51225e-14
2.40325e-218
3.15936e-44
9.77713e-60
7.35117e-91
-2.35209e-243
-2.03164e-293
7.1333e-36
1.22008e-62
5.45082e-88
14.1624
1.82482e-32
1.26347e-45
-2.01233e-31
1.70524e-73
5.96914e-14
1.51771e-124
-2.11793e-74
-2.57587e-107
-5.00924e-115
1.95631e-06
3.58324e-43
8.19155e-31
1.21364e-51
9.04437e-183
4.51537e-33
5.91368e-32
1.49959e-13
5.26536e-117
2.6505e-46
-3.12786e-06
2.95704e-06
7.08546e-172
6.47736e-11
1.06214e-79
4.3397
2.25427e-236
7.1104e-35
1.0981e-52
-5.02391e-264
4.60928e-28
1.09826e-96
-6.76705e-100
1.32172e-22
8.41604e-08
1.36278e-14
-2.23567e-99
1.39532e-38
3.11041e-233
-8.87841e-134
6.01607e-08
-1.15023e-40
1.57729e-115
4.14801e-33
-7.45738e-27
3.36839e-40
2.7488e-62
6.72832e-57
1.51784e-41
8.85201e-07
-1.41442e-180
6.74738e-60
9.95477e-78
1.65046e-36
2.58729e-09
1.387e-37
1.14441e-46
-5.7093e-103
1.00305e-240
1.18767e-34
6.94208e-45
4.46703e-37
-8.9437e-186
-6.38323e-83
1.55563e-46
2.74535e-39
-2.24836e-30
6.37531e-33
2.42582e-106
2.8211e-42
-4.19528e-136
3.31086e-25
1.13061e-78
3.95436e-34
1.75262e-79
-1.16048e-97
1.16456e-39
-6.14478e-83
3.14784e-92
2.52959e-111
8.3279e-182
7.37995e-56
2.29379e-65
8.85471e-80
0.575353
0.000158033
-5.21885e-147
1.42188e-117
-1.07751e-60
1.82951e-61
8.19408e-255
1.90411e-38
-2.21326e-46
-2.19204e-41
-1.05883e-235
2.71233e-17
1.51558e-34
8.7279e-21
2.39943e-39
-1.16189e-218
-5.82714e-118
7.89578e-90
4.07835e-42
2.65842e-11
3.10168
-1.45486e-177
-6.45132e-85
-5.66314e-97
6.87092e-12
9.77302e-07
3.02284e-14
-3.41448e-67
3.20755e-38
-1.83972e-233
7.31201e-56
-1.52615e-67
-4.95109e-175
-1.77503e-27
-1.0276e-63
1.16667e-50
6.82475e-37
3.6108e-88
6.17832e-63
2.70524e-45
-1.91111e-220
0
6.35161e-60
-2.95047e-86
1.88041e-10
3.88956e-79
-1.12112e-28
3.50369e-17
-9.54492e-53
-3.28549e-176
-1.74216e-76
1.10549e-35
5.10586e-180
5.63821e-05
2.03884e-06
-1.04732e-146
6.97681e-231
1.09296e-142
-9.17105e-182
-1.53401e-267
4.95011e-78
3.9344e-96
6.90248e-39
-1.69276e-66
5.01323e-44
-9.65474e-61
3.39782e-12
9.24112e-38
6.16856e-42
3.71144e-68
4.49497e-79
-2.43061e-46
-1.04489e-219
5.67461e-98
5.30452e-100
-1.17435e-40
-7.18044e-33
1.09896e-11
-1.80605e-270
-3.3969e-34
2.14479e-54
9.83772e-72
1.35066e-29
2.24168e-49
2.11788e-32
3.42534e-07
4.68283e-58
4.1314e-24
1.08436e-77
7.71069e-119
1.82896e-56
2.93583e-44
2.32578e-182
-1.4779e-68
1.00265e-05
-6.77449e-101
1.15272e-07
3.5077e-173
1.14773e-44
2.43858e-118
1.25745e-107
3.96766e-38
-5.8835e-26
3.82314e-31
-1.03281e-95
-1.69461e-71
3.56954e-72
1.62318e-23
1.47617e-29
-3.63872e-59
1.44825e-19
-2.98234e-265
4.16895e-61
3.60185
1.27452e-18
-9.1339e-102
0.00170256
7.22143e-32
3.89971e-94
-1.2828e-203
1.7148e-13
3.37989e-44
4.96836e-74
-2.74953e-49
2.63814e-178
6.8982e-41
1.93347e-106
7.90756e-24
2.03094e-47
1.20229e-45
-1.17156e-36
0
1.08257e-136
5.15257e-87
2.42109e-121
2.09559e-124
1.27133e-72
-1.47509e-96
2.30428e-92
-7.24082e-31
2.70988e-35
3.97885e-252
1.14249e-27
-2.09441e-134
-1.49959e-218
-4.83393e-35
8.69701e-166
1.06025e-76
1.00751e-76
2.02865e-184
1.01582e-180
-2.87643e-107
5.62286e-46
-8.07572e-78
4.37234e-41
2.15357e-52
-7.08964e-34
1.98652e-36
3.19222e-75
-1.8873e-62
2.72709e-50
-2.45137e-286
-3.96805e-82
-3.58393e-108
2.01857e-77
3.2653e-05
1.95192e-48
8.82817e-89
-3.09591e-59
-4.80889e-81
7.22809e-98
-7.26276e-99
-1.45023e-79
1.1623e-105
-1.28361e-41
1.8534e-55
-2.9967e-221
3.24371e-47
-2.86321e-62
9.64252e-45
9.97811e-204
-7.73238e-36
2.48851e-08
-7.47181e-129
-6.38953e-52
1.40151e-34
-4.51656e-145
6.13955e-35
7.51768e-23
2.49679e-47
3.43104e-46
1.50658e-26
-1.04969e-58
-1.68612e-65
3.14599e-53
2.28223e-40
-2.43299e-163
4.97214e-107
-6.08042e-276
-4.61791e-131
-9.54175e-204
5.11081e-70
2.12552e-62
5.53419e-39
1.10634e-53
0.646799
-8.39292e-26
2.63816
1.80596e-53
6.92864e-13
0.175733
1.80246e-21
3.52319
9.42306e-104
3.10533e-65
-2.42901e-76
4.81769e-79
5.22991e-60
4.78156e-139
1.97774e-69
1.88771e-118
8.27138e-206
-2.88341e-67
0.0209417
3.18798e-73
1.30857e-43
-1.46825e-74
-3.00853e-109
2.63958e-56
-6.87929e-62
1.07777e-127
1.79755e-67
3.18365e-113
6.4251e-31
1.77371e-50
2.87319e-53
-3.90854e-55
2.41881e-05
2.04128e-20
4.24663e-42
4.28123e-79
23.0458
2.01606e-75
5.88193e-71
5.22468e-40
-2.13854e-37
-2.06117e-76
6.49877e-29
7.3545e-178
-7.51597e-48
-2.04173e-35
4.19876e-56
5.80927e-57
-5.6747e-96
-5.69282e-65
-8.59617e-44
2.0397e-102
3.54058e-41
5.7963e-71
-6.08202e-92
3.0548e-175
2.60855e-80
1.30634e-57
-1.66224e-104
2.02109e-78
4.23648e-91
-2.73149e-136
-3.39727e-43
2.45716e-108
1.90293e-21
1.45733e-59
-1.30164e-81
2.80619e-185
-2.12315e-129
1.08513e-32
-4.48454e-67
2.81326e-236
5.62946e-60
0.150967
7.79001e-45
-1.86497e-98
4.4268e-79
6.0098e-06
0.00239697
4.85354
1.24041e-127
1.00843e-129
-3.04434e-124
-8.06638e-91
4.10496e-43
1.7561e-10
3.99678e-08
3.08005e-19
8.4786e-43
2.51394e-109
-1.40167e-199
-6.33094e-196
-5.77813e-35
2.21332e-99
4.58898e-36
2.15447e-126
3.01586e-16
1.02409e-115
1.61271e-64
4.27873e-15
-3.19059e-54
1.48334e-34
-3.93152e-131
-9.05199e-70
-9.59675e-217
2.70015e-30
1.09712e-43
2.31777e-101
-8.819e-206
-1.05511e-86
2.00859e-30
-1.02904e-140
-2.19144e-58
3.30684e-06
5.26585e-230
1.16699e-96
-1.85477e-49
-2.26385e-50
5.31611e-62
7.57554e-152
1.20052e-138
5.85154e-135
-6.2969e-250
-3.5302e-195
1.44365e-90
2.52903e-52
-2.3351e-217
-1.06422e-94
-1.36053e-139
131.044
-1.36644e-36
5.5572e-133
-1.15075e-272
2.68305e-41
-9.19895e-73
9.20084e-30
2.6857e-60
-3.02231e-71
-7.42636e-210
8.15353e-136
4.88059e-32
1.98483e-274
1.69752e-76
1.0449e-37
4.55854e-66
-1.85214e-190
5.02983e-68