/*--------------------------------*- C++ -*----------------------------------*\
  =========                 |
  \\      /  F ield         | OpenFOAM: The Open Source CFD Toolbox
   \\    /   O peration     | Website:  https://openfoam.org
    \\  /    A nd           | Version:  7
     \\/     M anipulation  |
\*---------------------------------------------------------------------------*/
FoamFile
{
    version     2.0;
    format      ascii;
    class       surfaceScalarField;
    location    "0.004";
    object      phi;
}
// * * * * * * * * * * * * * * * * * * * * * * * * * * * * * * * * * * * * * //

dimensions      [0 3 -1 0 0 0 0];

internalField   nonuniform List<scalar> 
18389
(
-7.96876e-05
7.96876e-05
4.3544e-05
-4.3544e-05
-5.20402e-05
5.20402e-05
4.01919e-05
-4.01919e-05
-5.18685e-05
5.18685e-05
-4.00309e-05
4.00309e-05
-3.47808e-05
3.47808e-05
3.91142e-05
-3.91142e-05
-3.5804e-05
3.5804e-05
4.15464e-05
-4.15464e-05
4.48727e-05
-4.48727e-05
-3.35243e-05
3.35243e-05
-1.46367e-05
1.46367e-05
-4.28486e-05
4.28486e-05
4.36541e-05
-4.36541e-05
2.35442e-05
-2.35442e-05
1.84317e-05
-1.84317e-05
4.58881e-05
-4.58881e-05
4.59203e-05
-4.59203e-05
4.34091e-05
-4.34091e-05
-4.26016e-05
4.26016e-05
3.54259e-05
-3.54259e-05
4.30667e-05
-4.30667e-05
-5.84692e-05
5.84692e-05
-4.98109e-05
4.98109e-05
-4.18894e-05
4.18894e-05
-4.45249e-05
4.45249e-05
4.56058e-05
-4.56058e-05
4.58461e-05
-4.58461e-05
4.41264e-05
-4.41264e-05
-4.13259e-05
4.13259e-05
-6.30409e-05
6.30409e-05
4.31012e-05
-4.31012e-05
-4.47298e-05
4.47298e-05
4.08505e-05
-4.08505e-05
4.66784e-05
-4.66784e-05
-4.55423e-05
4.55423e-05
5.36072e-05
-5.36071e-05
-5.88952e-05
5.88952e-05
3.79235e-05
-3.79235e-05
4.50005e-05
-4.50005e-05
4.54317e-05
-4.54317e-05
-4.10354e-05
4.10355e-05
4.4915e-05
-4.4915e-05
4.58614e-05
-4.58614e-05
-4.58465e-05
4.58465e-05
-4.58402e-05
4.58402e-05
-4.06534e-05
4.06534e-05
-4.58786e-05
4.58786e-05
4.59236e-05
-4.59236e-05
4.59371e-05
-4.59371e-05
4.46007e-05
-4.46007e-05
3.77166e-05
-3.77166e-05
-4.57634e-05
4.57634e-05
-5.55142e-05
5.55142e-05
-4.37983e-05
4.37983e-05
4.57591e-05
-4.57591e-05
-4.59793e-05
4.59793e-05
4.32137e-05
-4.32137e-05
-5.93029e-05
5.93029e-05
-4.71283e-05
4.71283e-05
4.95969e-05
-4.95969e-05
4.57167e-05
-4.57167e-05
-9.54882e-06
9.54883e-06
4.57761e-05
-4.57761e-05
4.15781e-05
-4.15781e-05
5.11622e-05
-5.11622e-05
-4.58495e-05
4.58495e-05
4.23415e-05
-4.23415e-05
2.95368e-05
-2.95368e-05
3.94151e-06
-3.94151e-06
-4.41984e-05
4.41984e-05
3.2868e-05
-3.2868e-05
-3.6602e-05
3.6602e-05
3.97601e-05
-3.97601e-05
2.66219e-05
-2.66219e-05
2.61905e-05
-2.61905e-05
2.70467e-05
-2.70467e-05
2.43969e-05
-2.43969e-05
1.34006e-05
-1.34006e-05
0.00107817
-0.000888563
-0.000189605
0.00546379
-0.00207348
-0.0033903
-0.00594682
0.00594673
9.75639e-08
0.00335441
-0.00260157
-0.000752839
-0.00156641
0.00175363
-0.000187213
-0.00674164
0.00283166
0.00390998
0.00121301
0.00425079
0.00725582
-0.00587528
-0.00138054
0.00119109
-0.0018946
0.000703522
-0.000854091
-0.000712325
-0.00144146
-0.000315091
0.00175655
0.000150729
-5.10268e-06
-0.000145626
0.000779213
-0.00222067
-0.00360204
0.000120847
0.00348119
-0.00320188
0.0028938
0.000308087
-0.005666
0.00719786
-0.00153186
-0.00370799
0.00289714
0.000810839
-0.000562512
-0.00303953
-0.00175751
0.00239177
-0.00063426
-0.0004583
0.00255662
-0.00209831
-0.00161378
0.0011179
0.000495875
0.000583292
0.000582067
-0.00159298
-0.00514866
0.00126238
-0.0017297
0.000467319
0.00577811
-0.00385965
-0.00191844
-0.000682953
0.00331547
-0.00263252
-0.00583554
0.0058354
0.000451151
0.00130248
-0.00632354
0.000970107
0.00535344
0.00231055
-0.00299351
-0.00378831
0.00311344
0.000674869
0.0021486
-0.00422208
0.00109126
-0.000200478
-0.000890778
0.00151597
-0.00129376
-0.000222209
-0.00280381
-0.000398067
0.00534794
-0.00534854
0.000380325
0.00113564
0.00522505
-0.00133471
-0.00389035
0.00194874
-0.000757652
0.00308639
0.00190798
-0.00499437
-0.000720466
-0.00306785
-8.96711e-05
-0.000156537
0.000246208
0.00393578
0.00332004
0.00113265
-0.004845
0.00371234
0.00162408
0.00360097
-0.00497936
0.0063188
-0.00133944
-0.00116639
-0.000579694
0.00174609
0.00133794
0.00201646
0.000135288
0.000103604
-0.000238892
0.00501913
-0.00339505
0.00645831
-0.000842831
-0.00561548
0.00321829
-0.00269296
-0.000525327
0.00219888
0.00048295
-0.00268184
0.00297238
-0.000773502
0.00650439
-0.00539899
-0.0011054
0.000481846
-0.00383096
0.00334911
6.97973e-05
0.00638852
0.00476547
-0.00428362
-0.000535501
0.00105924
-0.00052374
-0.00177803
0.000611635
0.00191596
0.00225017
-0.00416612
0.000253952
-0.000334211
8.02599e-05
-0.00123944
-0.00285327
0.00409271
-2.62236e-05
0.00653062
-0.00280797
0.00229911
0.000508862
0.000389864
-1.30695e-05
-0.000376794
-0.00569249
-0.000254335
0.0018668
-0.00141564
0.000827855
0.00495025
0.000896674
0.000181498
0.00261696
-0.00639688
0.00377993
-0.00112012
0.000584623
0.00264981
-0.00388925
0.00619743
-0.00226164
0.00109143
0.00117796
-0.000787835
0.00108896
-0.000301128
-0.00111705
-0.000496727
0.00186323
0.00135506
-0.00059454
0.00142938
-0.00123735
-0.000192024
-0.00264734
0.00198677
0.000660567
0.00116672
0.000262664
0.00110172
-0.00492511
0.00382339
-0.00472463
0.00139122
0.0033334
-0.00455463
0.00611874
-0.00156411
-0.00506144
8.20864e-05
-0.00202268
-0.000624651
-0.000215569
0.000125898
-0.00120085
0.00461962
-0.00341878
-0.0011822
-0.00071241
0.000103275
-0.000191992
8.87166e-05
0.00012625
-2.29749e-05
-0.0012384
0.00461198
-0.00337358
-0.000156191
2.43611e-05
0.00013183
-0.00556473
0.00170508
-0.00122257
-0.000555456
-0.00044947
-1.88838e-05
0.000468353
-0.000543263
9.37921e-05
0.00101837
7.28835e-05
-0.00182085
0.000598277
-0.000150564
1.69735e-05
0.00013359
0.00136885
-0.0023445
0.000975655
0.000271068
-0.00013578
-0.00392427
0.00513728
-0.00246248
0.000704981
-8.34254e-05
-0.0004274
0.000510826
0.00568427
-0.00216801
-0.00351626
8.15618e-05
0.00250354
-0.0025851
0.00441584
-0.0055588
0.00114297
0.00263448
0.00304979
0.00291616
-0.0028346
-0.00610407
0.00043807
-0.006426
0.00360759
0.00281842
0.00229386
0.00390357
-0.00438174
0.00136378
0.00301796
0.00145443
-0.00019205
-0.0010158
0.00401072
-0.00299492
0.00463735
-0.00162452
-0.00301284
-0.00457299
0.00373721
0.000835786
0.00369292
-0.00502764
5.82816e-05
0.000331582
-0.00136869
0.00578454
-8.88676e-05
0.00214777
-0.00205889
-0.00207118
0.0026146
0.000157155
-0.00277175
-0.00127664
0.00264548
-0.000631514
0.00324611
0.00164499
-0.00173385
0.000869234
0.00396325
-0.00483249
-0.0050409
0.00384101
0.0011999
0.00255306
-0.00359413
0.00104107
-0.00326772
0.00410513
-0.000837411
0.000390615
-0.00365834
-0.00120675
0.00120675
-0.000443967
0.000360542
-0.000127153
-0.000973194
0.00110035
0.00506772
-0.00184097
-0.00322675
-0.00243443
-0.000369387
0.00289971
0.00015803
1.64042e-05
-0.000174434
-0.00147856
0.00113289
0.000345667
-0.00014232
-0.00489858
0.00500481
-0.00387216
0.000233094
-8.2366e-05
0.00444429
0.000574841
0.00406775
-0.00151468
0.000165057
-7.02669e-06
-0.00632148
-0.00100754
-0.000813309
0.00429895
-0.00190248
-0.00239647
0.00275724
0.00154172
0.00107796
-0.00563257
-0.002268
-0.000539973
-0.0011269
-0.000954299
0.0020812
4.49557e-05
-0.00272418
0.00267922
-0.00236193
0.00123503
-0.00221757
0.00530397
-0.00458923
0.00156854
0.00302069
0.00254849
0.000660735
-0.000334309
-0.000326426
-0.00601641
0.000582991
0.00543342
-0.00417742
0.00581147
-0.00163405
0.00182513
0.00163206
-0.0034572
-0.00168109
0.0008908
0.000790289
-0.00270127
0.00207684
0.000624429
0.00113042
0.000736374
0.000247132
-0.000328861
8.17305e-05
0.00485178
-0.00398255
-0.00638186
0.00557485
0.000807014
-0.00476331
-0.00166269
0.003356
0.000595457
-0.00395146
0.000154088
-0.000162263
8.1756e-06
0.000590473
-0.000125218
-0.000465255
-0.00451789
0.00261541
0.000313302
-0.000543353
0.000230052
3.82952e-06
-0.00121058
-0.00257632
0.00448431
-0.00530291
-0.000321638
0.00562455
0.000237813
0.000200675
-0.000438488
0.00144429
-0.00144429
0.00168947
-0.000714498
-0.00210613
0.00182231
0.000283822
0.00438292
-0.00301915
-0.000162458
6.26672e-06
-0.00123753
0.00124135
0.000673311
0.00127543
0.00234075
-0.0002639
-0.00401713
-0.00128576
0.00112627
-0.00495724
0.00321015
-0.00444855
0.000829939
-0.00213635
0.00130642
0.00335531
-0.00455616
-0.00271019
-0.0018077
-0.00483487
0.00469254
-0.000676991
-0.00533942
-0.0051565
0.00142067
-0.00143771
1.70367e-05
0.00223667
0.000104074
-0.00601455
0.00204862
0.00396593
-0.00121933
0.000526284
0.000693043
0.00143413
0.00294879
-0.00462563
-0.0010138
0.00563944
-0.000212945
0.000138577
7.43676e-05
-0.00549628
0.00131886
0.00375408
-0.00493688
0.0011828
-0.0014995
-0.00060663
-0.000536833
-0.000637261
0.000138312
-0.00020375
6.54384e-05
0.00494058
-0.00383887
-0.00129951
0.00512286
-0.00382336
-0.000481202
-0.000756324
-0.00586176
0.00043946
0.00539594
-0.00614695
0.00455396
-0.000921172
-0.0054607
-0.00110364
-0.000374923
-0.00182085
0.00285809
-0.00103724
-0.000419034
0.000321966
9.70687e-05
-0.00173228
0.00141719
0.00156988
-0.000149203
0.000814766
-3.71524e-05
-0.00169513
0.00279638
0.00121528
-0.00303613
0.00605279
-0.000477941
0.00528007
6.78695e-05
-0.00527874
0.00438922
0.00114295
-0.00553218
0.000556555
-0.000768857
0.000212302
-3.49121e-05
-0.000409055
-1.36839e-05
0.00606647
-0.000162147
0.000156794
5.3523e-06
0.000133482
2.06052e-05
0.00254487
-0.00335125
0.000806378
-0.00188839
0.000695414
0.00119298
0.0079238
-0.00345347
-0.00447032
0.00116905
0.00126865
-0.00243771
0.000108718
-0.000176749
6.80312e-05
-0.000805591
0.00133187
0.00114685
0.0031814
-0.00432824
-0.00561464
0.000165513
0.00544912
-0.00401118
0.00299538
0.00173489
0.00479573
0.0045882
0.00333559
-2.27084e-05
0.000192423
-0.000169714
-0.00128747
0.00437711
-0.00308963
0.00030536
-0.000340272
-0.000131405
-8.15402e-05
0.00410145
-0.00227633
0.00472465
-0.00497692
0.000252269
-0.0032189
0.00603294
-0.00281404
0.00252923
0.00157223
0.00570845
-0.0009838
-0.00136933
-0.00562142
0.00137248
0.00424894
0.000654503
0.000520437
-0.00117494
0.00126917
-0.000614668
0.000585278
-0.00110992
0.000524647
0.00110572
0.00028604
0.000374696
-0.000677376
0.00443146
0.00152455
-0.000391662
0.00348184
-0.00606463
0.0025828
0.00154104
-0.00258924
0.0010482
-0.00429487
0.00114048
0.00315439
0.00291653
-0.004204
-0.00489615
-0.0012508
-0.00409149
0.00125696
0.00283453
0.00123238
0.00314472
-0.00326518
-0.00082632
0.00222917
-0.00106012
-0.000663657
-0.00253776
0.00320141
0.00241371
0.000602523
-0.00301623
-0.00159541
0.00121074
0.000384665
0.000270355
0.00150839
-0.00197438
0.000465996
-0.000111211
-0.000223001
-0.000264853
0.000153642
-0.00433896
-0.000234031
-0.00029944
0.00118544
-0.000886006
0.00434995
-0.00464387
0.00029392
-8.83848e-05
0.000117709
-2.93239e-05
0.000964459
0.00338016
-0.00434461
-0.000156946
6.8561e-05
-0.00474997
0.000709044
0.00404093
-0.00122504
7.74713e-05
0.00114757
8.20605e-05
-8.7163e-05
-0.000400011
0.000864622
-0.000347544
-0.000517078
-0.00603662
0.000637628
-0.00254895
-0.000129135
0.00267808
-0.0031684
0.00440078
0.00218068
-0.00108925
-0.00116655
-0.0011743
-7.89636e-06
-0.00350974
-0.00121489
0.001528
-0.000423498
-0.0011045
0.00191899
0.00183806
-0.00375705
0.00501427
-0.00159095
-0.00342332
0.000789767
-0.00541539
-0.00137207
0.00300413
0.00194227
0.000792707
-0.00273498
-0.00349826
0.00446272
-0.00015322
2.65672e-06
0.000927689
-0.00442595
-0.00449634
-0.000147544
-0.000998015
-0.00461662
0.00460137
0.00146475
0.00354951
0.0041588
0.00114088
-0.00529969
3.65701e-05
6.03963e-05
-9.69665e-05
-0.00141304
0.00335531
0.00368332
0.00351455
-0.0014105
0.00237309
-0.000962578
-0.00247488
0.000452197
-0.000878398
0.000751243
-0.00020376
0.000441573
-0.000199008
0.0017074
0.00376302
-0.00184402
-0.00108858
-0.000592514
-0.000107402
-0.000157451
0.00355016
-0.00163419
-0.00240283
0.00465301
0.000675544
-0.00309631
0.00242077
0.000673908
0.000762025
-0.00106146
0.00209859
-0.00129605
-0.00327351
0.00456955
-0.00214305
0.00476
-0.000550685
0.00344448
0.000239319
-0.000222346
-0.00236273
0.000952239
0.00226666
-0.00386538
0.00159873
-0.00121508
5.66936e-05
-2.01236e-05
0.0021547
-0.00279884
0.000644151
-0.00117656
-0.000418838
-0.00352583
0.00449594
0.00117808
0.00168213
-0.00286022
-0.00169597
0.00366476
-0.00196879
0.00422988
-0.000849726
0.000234301
1.40914e-05
-0.000248392
-0.00372317
0.0020272
-0.00140531
0.00469278
-0.00328747
0.000877247
0.00130343
0.00023004
0.00121425
0.000253262
-0.000300902
4.76392e-05
0.00173024
0.000205244
-0.00193548
0.00301601
-0.00456563
0.00154963
-5.29383e-05
0.000374445
-0.000321506
0.00156985
-0.000359109
0.00139445
-0.000561637
-0.00083281
0.00282229
-0.00391632
0.00109403
0.00268478
-0.00374012
0.00105535
-0.00513202
0.00191312
0.00388408
-0.000868068
-0.000618759
-0.00238253
0.00300129
0.00140458
-0.00511443
0.00370984
0.00336058
-0.00145976
-0.00190082
-0.000693894
0.00172947
-0.00103557
0.00477196
-0.00303707
-0.000732593
-0.00196036
-0.00598181
0.00513898
3.80133e-06
0.000122052
-0.000125854
-0.0015829
0.00120781
0.000375099
-0.00490758
0.00630559
-0.00139802
-0.00186617
0.000683458
0.00118272
0.000407507
0.0026864
-0.00209009
-0.000596309
0.00343385
0.000489355
-0.00392321
0.000127998
-1.9279e-05
0.00517265
0.000337009
-0.00550965
-0.00194036
0.00379744
-0.00185708
0.00275739
-0.000622317
-0.00213507
0.000462441
0.000402181
-0.000438042
0.00387189
0.00202618
-0.00396654
0.000719862
-0.000269299
-0.000450562
-0.000675874
3.31375e-05
0.000642738
-0.00315226
-0.00576541
0.00576551
-0.00027449
0.000954487
-0.000679998
-0.00229195
-0.000182933
-0.00453411
0.00323806
-0.000852025
0.00110989
0.00360838
-0.0050203
0.00141192
0.000411523
-0.00296047
0.00233556
-0.00243408
9.85194e-05
-0.0015711
0.00148236
8.87428e-05
-0.00121725
-0.00036565
-0.00338727
0.00341857
-0.00224048
0.000457443
0.000133029
-0.00174067
0.00104678
-0.00278238
0.000723429
0.00205895
0.000242291
-7.99085e-06
-0.00347455
0.00101886
0.00245568
-0.00144223
0.00560104
0.000339674
-0.000958641
0.000618968
0.00212503
0.000632353
-0.00127767
0.000304474
0.00112578
0.00120978
-0.00140352
0.00492453
-0.003521
-0.00484051
0.00575884
-0.000918331
-0.00116616
0.00228413
0.00410439
0.00107945
3.84456e-05
0.00584496
-0.00550552
-0.000339446
0.00351389
-0.00463392
0.00112004
0.00308185
-0.000668144
0.00542747
-0.00181909
-0.00250411
-0.000970441
-0.00218951
-0.000296243
0.00248576
0.00244819
-0.00196525
-0.00160826
-0.00423137
0.00274789
0.00148348
-0.000343052
0.00123385
0.00119436
0.00363586
-0.00483021
-0.000306615
0.000619917
0.00305979
-0.00238424
-0.00472301
-0.0012588
0.00647102
-0.00129837
0.00421834
0.00206255
0.00049407
0.00285472
-0.00212765
-0.000727068
0.00473563
-0.0024515
-6.10055e-05
-0.00332529
-0.000859557
0.00418485
0.00038921
-8.67825e-05
-0.000302427
-0.00513748
0.00610352
-0.000966037
-0.000698407
0.00189629
-0.00119788
-0.000697369
0.00525308
-0.00455571
0.00119927
-0.00189768
-0.000112088
-0.00576319
-0.000787835
0.00202387
0.0038211
-0.000261827
-0.00192768
0.000251333
-4.20069e-06
0.000362636
-0.000487854
0.00335534
-0.000810474
-0.00522378
-0.000271543
-0.000147491
0.000150282
-0.000133643
-1.66388e-05
-0.00248171
0.00011977
-0.000419162
0.00160224
-0.00103013
-0.000572115
0.00245045
0.000606851
-0.0030573
-0.00072835
0.00317879
-0.00520279
-0.000271902
0.00547469
0.00374977
0.0013731
0.00439204
-0.00121064
-0.000107562
0.00255576
0.00540369
-0.00020629
-0.0051974
-0.00608766
0.00425327
0.0018344
0.00320846
-0.00126812
-0.0043533
0.00020577
-0.000228478
0.000534842
0.000859602
0.00120899
0.000130317
-0.00133931
0.00421257
0.00119112
-0.000965405
0.00317296
-0.00220756
0.00469679
-0.00134079
-0.00218105
0.00279243
-0.000611378
-0.00117551
-9.52445e-05
0.000290662
-0.000195418
0.00344668
-0.00414406
0.00135203
-0.000995929
-0.000356099
0.00160136
-0.000393548
-0.00325124
0.00228583
0.00548469
-0.00434174
-3.06111e-05
0.000352578
-0.00535338
0.000445799
0.00538885
-0.00190701
-0.000992659
-0.00361307
0.00460573
-0.000644009
0.00288225
-0.00223824
0.00549731
-0.00286191
-0.00263541
-8.83881e-05
0.00058809
-0.000677036
0.000660544
1.64915e-05
-0.000702563
0.00173316
-0.0010306
-0.00314775
-0.00114711
0.000155503
-1.71916e-05
-0.00122479
-0.00478975
-0.0030665
0.00240284
-0.00120124
-0.000243048
-7.25913e-05
-8.9555e-05
-0.00125964
-0.000806073
-0.00523055
-0.00283804
0.00219403
-0.000816076
0.0011964
0.00110762
0.00434103
-0.00544865
0.0033561
-0.00276064
0.00046621
0.000766272
-0.00288087
0.0021146
0.00495114
-0.00488021
-7.09257e-05
-0.00320866
0.00361592
-0.000407251
0.00020773
-9.55825e-05
-0.000112148
-0.00492416
-0.00147274
-0.00176414
0.00369012
-0.00192599
0.00297876
-0.00221249
-0.00378457
0.00202044
0.00139585
-0.00258181
0.00118595
-0.00363305
0.00568168
0.00649721
-0.00219562
-0.00430159
-0.00239501
0.00237829
1.67302e-05
0.00556091
-0.00159767
0.00119145
-0.000930974
-0.000260477
-9.04516e-06
0.000262307
0.000249918
-0.000777799
0.000527881
-0.00305346
0.00364779
-0.000963009
0.000852961
-0.00105344
0.0023636
-0.00063156
-0.00173204
0.00224112
-0.00051088
0.00449578
0.000630457
0.00173315
-0.0017619
0.00105934
0.000408481
-0.000464598
5.61167e-05
0.00222363
-0.00174468
-0.000478948
0.000817587
-0.00514806
-0.00054443
0.000369539
-0.000588332
0.000218793
-0.00410207
0.00547455
0.000941829
-0.00111634
0.000174517
-0.00154567
0.00215963
-0.000613961
-0.00147939
-0.00275198
-0.0053758
-0.000154287
0.00553009
0.000300674
0.000108305
4.19767e-05
0.000128906
-0.000128527
-3.78248e-07
0.00407865
-0.0028843
-0.00377792
-0.0022867
0.00346558
0.00303163
-0.00258646
0.000706489
0.00187997
-0.000843896
0.00223974
-0.00229897
-9.60513e-05
0.00272972
-0.00377667
0.00104695
0.00131359
-0.000128147
0.000463425
0.000554947
-0.00327432
0.000957521
0.0023168
0.000904583
-0.00062856
-4.73152e-05
-0.00425859
0.00171306
0.000118343
-0.0018314
-0.00395771
0.00145608
0.00250164
0.000513664
0.00146291
-0.000928073
-0.000246713
-0.0046604
0.00490711
0.000783782
-0.00247665
0.00169287
0.00120155
0.00131297
-0.00044747
-0.00173788
0.00218535
0.00257992
-0.00179613
0.00445983
-0.00353214
-0.000735751
-0.00264099
-0.000227889
0.00025225
-0.000715577
0.00176703
-0.00105146
0.00266478
-0.003665
0.00100021
0.000136415
2.03799e-05
-0.00236535
-0.000908983
0.00142116
-0.00163598
0.000214826
-0.00277459
0.000684501
0.00127612
-0.00141835
0.000142219
0.00161854
-0.00180746
0.000188921
0.000673673
-0.00371298
-0.00113202
0.0013254
-0.00486595
0.00354055
-0.000906422
0.00357119
0.000119635
-7.90776e-05
-4.05576e-05
0.00470382
-0.00359619
-0.000299004
-0.00151667
-0.00400284
-0.00149344
0.002094
0.00069843
-0.000999794
-0.000921444
-0.00448715
-0.00161692
-0.000342678
0.00124808
-0.000937649
-0.000310427
-0.00149854
-0.00109071
0.00064746
0.00226369
-0.00291114
-0.000114231
0.000670785
-0.000715836
3.87999e-05
-0.00246397
0.00196571
0.00139486
-0.000707148
0.00166766
-0.000960513
-8.68393e-05
-0.000116911
0.000317103
-0.00194083
0.000441337
0.00162434
-0.00230465
0.000680315
-0.0033279
0.0025884
0.000739492
0.00121607
0.00239756
-0.00361363
-0.00176024
0.00104466
-0.00293958
-0.00101813
-0.000768763
-0.00255914
-0.00168018
0.00125963
0.000420552
0.00177295
-5.98897e-05
-0.000752766
-0.00243944
0.0031922
-0.000657345
0.00290877
-0.00226131
-0.000859425
-0.00394702
0.00480645
-0.00233983
0.00234304
-3.20757e-06
-0.00122504
-0.00156913
0.000539003
-0.00240915
0.00381926
-0.00141011
0.00323348
0.00288526
0.000194306
3.62068e-05
-0.000230513
0.0023407
-0.000601614
-0.00173908
0.000188331
-0.00018453
-0.00357986
0.00490526
-0.00328272
0.00522592
-0.0019432
-0.0035105
-0.0015098
-0.000918817
0.00323233
-0.00231351
0.00285969
0.00177051
-0.00417967
-0.00499331
-0.000144158
-0.000765882
0.00283665
-0.00207076
-0.000431829
0.000378891
-0.000538513
0.00167771
-0.00113919
-0.00401181
0.00333963
0.00067217
-0.00327037
0.00235155
-0.00386491
0.000668823
0.00319608
0.00141745
-0.00102212
-0.000395339
-0.00589968
0.000696892
0.00184719
-0.00141205
-0.00043514
0.0014435
-0.000468213
-0.000975285
7.8353e-05
0.000129377
0.00291967
-0.000620556
-0.000211367
-0.00348845
-0.000376461
0.000424792
-0.00305953
-0.000952283
-0.002337
-2.83331e-06
-0.00291759
0.00229884
0.000719726
0.00260241
-0.00332214
0.000588714
-0.000863205
0.00140521
-0.00671184
0.00530663
-0.00575242
0.000989102
-0.00232337
0.00353944
0.00069681
0.000257678
-0.00273343
0.00345316
-7.56345e-05
0.00502677
0.000588856
0.0017321
-0.00232096
-0.00178182
0.00124331
0.00275114
-0.00369349
0.000942341
0.0050975
0.000680049
0.00154358
0.000318919
0.000400942
-0.000363979
-0.000404877
0.000180847
-0.00175064
0.00176661
-0.000889361
0.000901163
0.000561747
-0.000572104
0.00300513
-0.00243302
-0.00151461
0.00184253
-0.000327921
-0.00488614
0.00380122
0.00108493
-0.00478497
0.00150224
-3.96782e-05
3.48788e-05
4.79944e-06
-0.00281589
-0.000849106
0.00111861
-0.00130723
0.000188615
0.00133617
-0.00491604
0.00115788
5.11094e-05
0.00122363
0.000692444
0.00218981
-0.00366531
0.000849428
0.000189593
-0.0050301
0.00188273
0.0012388
0.000657497
-0.0052728
-0.000492615
0.00565342
0.00119263
0.00711081
-0.00218632
-0.00492448
0.000831359
-0.000388516
-0.000442843
0.000699319
-0.0013877
0.000795184
-0.00385941
-0.00125502
0.000290662
-0.000975802
-0.00038544
0.00136124
0.00233667
0.00400815
-0.00486757
0.00270314
0.000833724
-0.00353687
0.00125455
-0.000970075
-0.000284469
0.000744063
0.00159663
-0.000135152
0.000138352
-3.20054e-06
-0.000707752
0.00288319
-0.00217544
0.00361119
0.00108159
-0.00126834
-0.000411841
0.00144403
-0.00153879
9.47568e-05
4.74141e-05
7.22211e-05
-0.00447813
0.00096763
-0.00165792
0.00044066
-0.00364416
0.0029158
-0.000953089
6.45253e-05
0.000929213
0.00268387
-0.00361309
0.000855304
-0.00127595
0.00416877
-0.00289282
0.000316893
0.000279903
4.65143e-05
-0.000326418
7.82474e-05
-0.00539202
0.00531377
-0.00263994
-0.000758516
0.00339846
-0.00347251
0.0026149
0.000857617
-0.0027611
-0.00026183
-0.00171362
-0.00489225
0.000889407
-0.00146346
-0.000873541
-0.00106202
0.00379175
0.00171463
-0.00372693
0.0020123
0.000105694
2.32121e-05
0.00372627
-0.00201164
0.00287045
0.000937856
-0.00380829
-0.00131227
0.00174318
-0.000430904
0.00356887
0.0010893
-0.00465817
0.00719031
-0.00197185
-0.00521845
-0.00212906
-0.000708977
-0.00175886
0.00234771
0.00377105
-0.00491955
0.00114849
-0.00280548
0.00373469
0.00118277
-5.09675e-05
-0.0011318
0.00148005
0.00091171
-0.00549547
0.000599318
0.000433637
0.00039772
0.002921
-0.00111509
-0.00251716
0.00248186
3.53057e-05
0.000504021
-0.00184112
0.0013371
-0.00386812
-0.00119332
0.00108283
-0.00254629
-0.00529919
0.000151135
-0.00126453
-0.000510625
0.00177516
0.00563194
-0.00449106
0.000104701
0.000284509
-0.00301789
0.00317505
0.00144702
-0.00108061
-0.000366412
0.00346717
0.00474992
-0.000948706
0.000624753
-0.00326469
0.00115382
-0.00107635
-5.28874e-05
0.000461368
0.000394149
-1.97048e-05
-0.00206058
-0.000425695
0.0015443
-0.000884114
-0.00349707
0.00076365
-2.89953e-05
-1.0683e-05
0.00599906
-0.0049211
0.00521985
-0.00439199
-5.42357e-05
-0.00114757
0.0012018
0.00194917
-0.000457667
-0.00149151
0.00335848
-0.000756063
-0.00256866
0.00336068
-0.000792024
-0.00183674
0.000524468
0.00128293
-0.000957473
-0.000325458
-0.000118743
-0.000210118
0.00205968
-0.000547492
-0.00151219
-0.00138759
-0.00239451
-0.000122651
0.00209282
-0.00274511
0.000652289
0.0028062
-0.000748675
-0.00205753
0.00410349
-0.0043502
0.000312857
0.00223343
-0.000609092
-0.000680595
0.000838632
-0.00366596
0.00500213
0.0012213
0.000451705
-0.00171624
-0.00285145
0.00209845
0.00363042
0.00158943
-0.00116131
-0.00381254
-0.00111258
0.00130915
-0.00171976
0.000410606
0.00367468
-0.00318533
-0.000193842
0.00113567
-3.86308e-05
-0.000271535
0.000310166
-0.000676528
-0.00190993
0.00377049
-0.00490121
0.00113073
-0.00187294
0.00235046
-0.000477528
-0.00114906
0.00213433
0.000748848
-0.00226536
0.00375458
-0.00148922
0.00150974
-0.0011481
-0.000361642
-0.00151471
0.000289674
0.000224366
-0.000537488
0.000313122
-0.000423566
-0.00123435
-0.00247602
0.00250579
-2.9778e-05
0.00144578
-0.00371115
0.00162738
-0.000367748
0.000364637
-0.000420248
5.56108e-05
-0.000830482
0.000597553
0.000232928
-0.000793936
-0.00283796
0.000803689
0.00203427
-0.00199313
-0.000788644
-0.00076665
0.00155529
-0.00523732
0.00389315
0.00134416
-0.00136451
0.00131028
-0.000576204
-0.000115921
0.000692125
0.00286807
-0.000733741
-0.0007701
-0.000160194
0.000930294
0.00183906
-0.00138736
0.00170058
-0.000391423
-0.000210696
-0.000635715
-0.00420294
0.00483866
-0.0014015
0.0028308
0.00428001
-0.00239836
-7.76523e-05
0.00312799
-0.00471894
0.000731896
0.00158305
-0.00231495
0.0020218
-0.00278768
0.00197636
-0.00069999
-0.00127637
-0.00179642
0.000455214
0.0013412
0.00432666
0.00286365
-0.00550309
0.00133258
0.0041705
-0.00124896
-0.00398835
-0.00045959
-0.00133683
-0.00101393
-0.000555201
-0.00129743
-0.000422335
0.00113686
-0.000524337
0.00151331
-0.000988973
-0.00175759
0.001298
-0.000944171
-0.000207177
0.00115135
0.00217395
-0.00286684
0.000692899
-1.17615e-05
0.000206067
0.00104253
0.00604582
-0.00140334
-0.00464248
-0.00203411
-0.0018712
0.0013548
0.000516397
0.00127475
-0.000983427
-0.000291323
-0.00229912
-0.00101414
0.00331327
-0.00267547
0.00357527
-0.000899807
-0.000914176
0.0011626
-7.8326e-06
-0.00115477
0.00375937
-0.00492986
0.00117048
0.00174792
-0.00135627
-0.000391648
0.00242706
-0.0012255
0.00272829
-0.000639202
-0.00019128
-0.00408918
0.00230051
-0.00180005
-0.000500453
0.000559596
-0.00200964
0.00145004
-0.0025214
-0.000829846
0.000863324
-0.000661997
-0.000201328
-0.000180245
-0.00363454
0.000959077
0.000649166
-0.0004248
0.00259908
0.00097619
0.000317278
0.00131052
0.000665843
-0.00160468
0.00233657
-0.00151358
0.00100872
0.000504866
0.00353865
-0.000668197
-0.00380937
0.00610323
-0.00114184
-0.00248402
0.00683362
-0.00434959
-0.000882831
0.00356671
-0.00414198
0.000933326
-0.00210036
0.00424896
-0.00066965
-0.001635
-0.00244344
0.00172338
0.000720055
-0.00127787
0.00107718
-0.00109473
1.75541e-05
-0.00138123
-0.000776602
-0.00015345
0.000930052
-0.00156836
0.0013769
0.000191463
0.00205103
0.000785609
6.24115e-05
-0.00129976
-0.000545183
-0.000842514
-0.00241104
-0.00046466
-0.00140654
-0.000170972
0.00159213
-0.000180626
0.00341041
-0.000513265
0.00133854
0.000200689
-0.000736234
-0.000993464
-0.00193042
0.00247664
-0.000546222
-0.0010547
-0.00572898
0.00351141
0.00146511
-0.000563952
0.00288612
-0.00120398
0.000944967
-0.00135917
-0.0045308
0.00588996
0.000619734
-0.00255015
0.000739015
-0.00368063
0.00270361
0.000977023
0.00090614
-0.00143048
0.00223262
-0.00311247
0.000879838
0.00119293
-0.00342776
0.00223482
0.000859456
0.00168922
-0.00254868
-0.000174235
0.00179277
0.00275042
0.00108617
0.0036195
-0.000413427
0.000782964
0.00315781
-0.00401736
0.000970093
-0.00326921
0.000432235
0.00412318
0.00148998
-1.10876e-05
-0.000277544
0.000288631
-0.00619218
0.00385553
0.00233665
-0.000817866
-0.00261933
0.0034372
0.00263967
-0.00178021
-0.00369407
0.000888583
-0.00132229
-0.000435302
-0.000152611
0.00131933
0.00371234
0.00121218
0.000224122
0.00131205
-0.000996663
-0.000315389
0.000932039
0.000533078
-0.000314672
0.00376694
-0.00492784
0.0011609
0.00307147
-0.000838854
-0.00139985
0.00190387
0.00126448
-0.00355572
0.00229124
-0.00116292
0.00145754
0.000677501
-0.00213504
0.000193467
-0.000204555
0.00219975
-0.000861807
-0.00126985
0.000328624
0.000942299
-0.000348514
-0.000593785
0.00353363
-0.00226915
-0.000488297
0.00230519
-0.0018169
0.00102819
-0.00295775
0.00210443
0.000853328
0.000107595
-1.90163e-06
0.00464014
0.000543434
-0.0056921
-0.00518861
0.00392314
0.00126548
-0.00107085
-0.00269578
0.00376663
0.00222127
0.00372545
0.00282963
-0.00375138
0.000921747
-0.0014742
0.00110855
-0.000917769
0.00335762
-0.00243985
0.00149822
0.000561455
-0.00378573
-0.00240645
0.00105249
-0.00230298
0.00319899
-0.000896013
0.00341612
-0.000801218
0.000393028
-0.000786934
0.00255202
0.000864098
-0.000634784
0.00430946
-0.00131288
0.00171811
-0.000405225
0.00197419
-0.00127877
-0.000388024
0.00607731
-0.00491224
-0.000463553
0.000857433
-0.00246212
-0.005392
-0.00172397
0.000411082
-0.000677982
0.000101778
-0.000864431
0.000215635
-0.00147416
0.000647147
0.00158628
-0.000905189
0.000135088
0.000804388
0.00251644
-0.00332084
-0.0010946
0.00187382
-0.00194734
-0.000473791
0.00196133
-0.00148754
-0.000852624
-0.00210512
-0.0019519
0.00147811
-0.00265792
0.0034623
-0.00163649
0.000566704
0.00106979
-0.000965298
0.00356438
0.00596789
-0.00228457
-0.0013063
-0.000417668
-0.00174152
0.00111236
0.000629158
0.000901937
-0.00451804
0.0036161
-0.00132127
0.000538437
0.000782832
-0.0040308
-0.00115782
0.000191713
-0.00113588
0.00192133
-0.000682532
-0.00132889
-0.00379103
0.00511993
0.00101833
6.11228e-05
0.00329661
-0.00252845
-0.000768156
0.000244923
0.00119857
0.00087981
-0.000673068
-0.000206742
-0.0013552
-0.00100754
-0.00104848
0.00505831
-0.00400983
0.00062227
-0.00249521
0.000173533
0.0012705
0.00377124
-0.00495576
0.00118452
0.00286913
-0.00206544
0.000101876
-0.000168736
6.68599e-05
0.00102309
0.000138072
0.000104219
0.00235235
0.00369347
-0.000579203
-0.00082023
0.00139943
0.000651496
0.00177323
-0.00242473
0.00239687
-0.00171774
-0.000679126
0.000474891
0.00147428
0.000425629
-0.000504178
-0.000817092
0.000601362
-0.00532438
0.000690377
-2.98329e-05
-0.00115659
-0.00129677
-0.00377779
0.00507456
0.00103385
0.0014381
-0.00189576
0.00254666
-0.000395124
-0.0049092
0.00530433
0.000120585
-1.87089e-05
0.000628374
0.00129295
0.00273297
0.000930829
-0.00366379
0.00137626
0.000470932
0.0025869
-0.0036411
0.00454303
0.00277434
0.000842808
-0.00361715
0.00158576
-0.000871171
-0.000714585
0.00133086
-0.00102283
-0.000308022
0.000420682
0.00105592
-0.00469702
0.000217813
-6.84017e-06
0.000200307
0.00598486
-0.00128105
0.00152732
-0.00212893
0.00251954
-0.00183404
-0.000685497
0.000845421
-0.00254821
0.00170279
0.00523518
-0.0028209
-0.000919212
-0.00159802
0.00500675
0.00148589
-0.00178104
0.000295145
0.000500548
-0.00010369
-0.000396858
-0.000985468
-0.00313977
0.00412524
0.000740756
0.00182102
-0.00256178
0.00176717
-0.000281275
0.00225236
0.00141463
-0.000876192