/*--------------------------------*- C++ -*----------------------------------*\
  =========                 |
  \\      /  F ield         | OpenFOAM: The Open Source CFD Toolbox
   \\    /   O peration     | Website:  https://openfoam.org
    \\  /    A nd           | Version:  7
     \\/     M anipulation  |
\*---------------------------------------------------------------------------*/
FoamFile
{
    version     2.0;
    format      ascii;
    class       volVectorField;
    location    "0.004";
    object      U;
}
// * * * * * * * * * * * * * * * * * * * * * * * * * * * * * * * * * * * * * //

dimensions      [0 1 -1 0 0 0 0];

internalField   nonuniform List<vector> 
12359
(
(0.979783 -9.34613e-05 -5.71477e-20)
(0.972336 -0.000853154 0)
(0.999898 1.33044e-05 0)
(0.934542 -0.00173766 0)
(0.977847 0.00109224 0)
(0.875798 0.000382414 0)
(0.840668 -0.0012276 0)
(0.858776 0.000650816 0)
(0.784455 0.00303238 3.04345e-20)
(0.890366 -5.62791e-05 0)
(0.79837 0.00887256 -4.38889e-20)
(0.679669 0.0322923 0)
(0.279027 0.0033901 5.64594e-21)
(0.922255 0.000287593 0)
(0.942221 -0.000146626 0)
(0.480487 0.00962102 0)
(0.395722 0.00164776 0)
(0.994607 -6.76552e-06 0)
(0.995036 -4.5804e-06 0)
(0.956457 9.48754e-05 0)
(0.913478 0.000464711 0)
(0.736913 -0.000823154 1.0322e-20)
(0.964792 -0.000625279 0)
(0.946872 0.00300925 0)
(0.967936 -0.000447093 0)
(0.961543 -0.000467627 0)
(0.998197 1.68979e-06 -1.73838e-24)
(0.998315 3.06887e-06 0)
(0.995817 -1.30955e-06 0)
(0.997622 4.51956e-06 0)
(0.997196 -2.62438e-05 0)
(0.998792 -2.56732e-05 0)
(0.999408 3.7051e-06 0)
(0.997897 -4.73634e-06 0)
(0.999688 -2.0239e-05 0)
(0.996866 -1.6441e-05 0)
(0.988711 -5.38757e-05 0)
(0.983446 -0.00108588 4.81271e-20)
(0.978786 0.00113785 0)
(0.987352 -9.75178e-05 3.8783e-22)
(0.975404 -8.05946e-05 1.32122e-21)
(0.985977 1.95325e-05 -9.7746e-22)
(0.992037 -0.000189845 0)
(0.992607 -1.39528e-05 4.32182e-22)
(0.996473 -3.16043e-06 0)
(0.996187 -2.3274e-06 0)
(0.996695 3.06746e-07 0)
(0.997408 -6.75608e-06 0)
(0.995435 -2.8534e-06 0)
(0.998084 -1.65884e-06 3.37055e-24)
(0.998459 7.36454e-07 0)
(0.998693 1.29297e-05 0)
(0.999043 -6.44376e-05 0)
(0.99415 -4.49995e-07 -4.86427e-22)
(0.999127 0.000101033 0)
(0.999354 -1.24748e-06 0)
(0.99313 -5.08894e-06 3.73165e-19)
(0.99946 1.43423e-06 -1.21342e-22)
(0.999528 -7.53808e-06 -1.50686e-22)
(0.999573 -1.09911e-05 2.84891e-22)
(0.999276 6.85828e-06 0)
(0.999769 2.07562e-05 0)
(0.998605 1.57574e-06 0)
(0.126946 0.0612806 0)
(0.993653 -7.76614e-06 -3.57517e-19)
(0.903385 0.000738355 0)
(0.988544 0.00019954 0)
(0.99874 2.31498e-06 0)
(0.988357 0.000274689 0)
(0.536781 -0.00508771 -5.74658e-20)
(-0.065405 -0.204487 0)
(0.976723 0.000849413 0)
(0.999964 3.54962e-06 0)
(0.987825 -3.55031e-05 0)
(0.945009 0.00136989 0)
(0.99978 -3.84427e-06 0)
(0.999256 -1.3523e-05 0)
(0.999875 -9.26213e-07 0)
(0.990843 -7.62822e-05 0)
(0.69311 -0.00385936 6.55975e-20)
(0.928239 0.0501468 -1.84701e-19)
(1.00356 0.00262977 -2.95334e-21)
(1.00006 2.24983e-05 9.29085e-20)
(0.99766 0.0111839 1.88066e-22)
(1.11498 0.128503 0)
(1.01939 0.00184442 -3.08519e-23)
(1.00332 0.00237416 -1.46911e-22)
(1.00156 0.000194633 2.77686e-20)
(1.11046 0.0395073 -4.10061e-22)
(1.07936 0.1221 6.07078e-23)
(0.999879 0.000334372 -4.01446e-22)
(0.366698 0.322725 -9.3008e-18)
(0.999961 0.00031052 -1.73775e-21)
(0.999806 0.00513486 8.55466e-18)
(0.998888 0.010082 1.89704e-20)
(1.02932 -0.00219877 -3.02038e-21)
(0.999981 0.00475048 -4.72672e-19)
(0.999778 0.00559319 -3.66851e-19)
(0.989379 0.0275718 -1.2799e-22)
(0.995727 0.0170622 2.65635e-21)
(0.94312 0.0667848 1.72006e-20)
(0.999999 0.000190475 -1.76697e-18)
(1.01974 0.000765123 7.01982e-25)
(1.15338 0.0263131 -6.75492e-20)
(1.00429 0.000314337 -1.08194e-21)
(1.02736 0.017944 3.48301e-20)
(1.00038 2.42591e-05 -2.48479e-26)
(1.10442 0.116938 8.18721e-22)
(1.01721 -0.00109383 2.69512e-23)
(1.02376 0.0174489 -1.2921e-21)
(0.999913 0.00439311 -5.93239e-20)
(1.00287 0.00320239 1.45258e-20)
(0.946118 0.0413032 -5.26877e-22)
(0.958514 0.0661606 0)
(0.999261 0.00952346 1.51784e-20)
(1.00255 0.000103005 0)
(0.945872 0.0729712 -3.14724e-22)
(1.00417 0.00221926 1.80716e-24)
(1.10156 0.0417298 0)
(1.00002 0.000150248 8.83236e-24)
(1.00003 0.00426272 4.1717e-21)
(0.880684 0.0209613 1.08175e-19)
(1.00159 0.000266936 -4.06179e-19)
(1.0295 0.00328431 8.73865e-19)
(1.00406 0.00214032 -6.76368e-22)
(1.00305 0.000374345 8.81072e-20)
(0.997946 0.0899747 -7.04181e-18)
(0.99853 0.0113917 -7.51092e-22)
(0.999881 4.98378e-05 -5.03386e-24)
(1.00408 0.00250604 9.13582e-20)
(1.00238 0.000524138 -1.65751e-25)
(1.06407 -0.00033773 -1.06675e-19)
(1.0577 0.0169941 2.8698e-19)
(1.05883 0.0131228 -3.58991e-20)
(1.00035 9.9315e-05 5.33764e-26)
(1.02732 0.00644266 1.51848e-17)
(1.0026 0.000319636 9.744e-24)
(1.03004 0.00355901 1.62532e-19)
(0.999908 0.000230174 -7.04432e-23)
(1.00504 0.085916 1.70528e-17)
(1.00001 0.00030317 -4.96134e-21)
(0.983962 0.00227561 1.23702e-19)
(1.02657 0.0110573 -2.92264e-17)
(1.00037 5.58187e-05 -3.59679e-26)
(1.03872 0.0314196 -1.33063e-23)
(0.89842 0.0194901 0)
(1.00005 4.43064e-05 -3.58314e-21)
(1.08297 0.107936 -1.00618e-21)
(1.00485 0.00141641 7.189e-22)
(0.924168 0.0517996 3.21495e-18)
(1.03109 0.00346845 -3.66541e-19)
(0.999962 0.000230689 -5.46083e-21)
(1.02689 0.0116524 7.40168e-19)
(1.00155 0.000251087 -1.7772e-20)
(1 0.000284182 1.08866e-23)
(0.679566 1.30007 -8.32826e-19)
(0.946437 0.0689551 5.12657e-19)
(1.0595 0.0108717 -6.48502e-21)
(0.999958 0.0046501 1.40205e-18)
(0.998987 0.000445179 2.08706e-22)
(1.00481 0.0385295 -4.8547e-19)
(0.998971 0.000510279 -8.88922e-22)
(1.02949 0.00208174 1.22527e-20)
(1.02788 0.00867495 2.36989e-17)
(1.00013 4.6685e-05 -6.22448e-24)
(1.00286 0.000146082 -3.09356e-21)
(1.00522 0.0384237 -7.94435e-18)
(0.88472 0.0104986 -5.37759e-21)
(1.02659 0.00933371 1.74208e-20)
(1.1238 0.055238 0)
(0.999837 4.59323e-05 2.61484e-20)
(0.999784 9.19069e-05 4.09241e-22)
(1.02793 0.00721789 -7.39991e-19)
(0.975648 0.000559469 -2.42625e-21)
(1.0039 0.000911072 2.88062e-23)
(1.0034 0.08437 1.6139e-16)
(0.996623 0.000817264 -6.30785e-22)
(0.996726 0.000754018 2.08048e-23)
(0.939614 0.0323924 0)
(0.999307 0.07957 -1.0845e-17)
(0.942096 0.00320846 0)
(0.999995 0.000366124 -3.94743e-23)
(0.999848 5.94966e-05 -8.78854e-22)
(1.00355 0.00253909 1.41623e-22)
(0.991926 0.0275884 7.39071e-23)
(0.869348 0.087974 4.49834e-18)
(1.00422 0.00470705 9.30992e-25)
(0.999896 0.0105685 4.37627e-18)
(1.02678 0.00634401 8.00778e-24)
(1.00475 0.00443503 -6.95704e-24)
(0.999787 0.00969832 1.40575e-20)
(1.02697 -0.00248394 9.43494e-23)
(1.0314 0.00420569 3.62466e-22)
(1.00185 0.000258902 -9.13913e-22)
(1.03258 0.0108248 -4.59832e-21)
(1.12797 0.0216908 -9.40224e-19)
(1.01407 0.0118358 0)
(1.00346 0.00520832 1.05647e-23)
(1.02703 0.0137733 -3.13609e-22)
(1.00388 0.00231157 8.82248e-22)
(0.90512 0.0209421 0)
(1.02855 0.00547151 -7.64693e-23)
(0.993898 0.0169984 2.73838e-20)
(1.03649 0.0141614 4.65988e-21)
(1.03261 0.028561 7.42799e-23)
(0.999991 0.000343719 1.70739e-21)
(1.03785 0.0288529 -1.41737e-21)
(0.995233 0.0194436 1.06482e-17)
(1.03144 0.000133914 -5.72494e-22)
(1.00493 0.00231967 -1.26645e-20)
(1.00003 0.000348319 -9.13509e-21)
(1.04195 0.00664851 4.33943e-20)
(1.04184 0.0095455 1.05852e-18)
(1.39221 -0.009497 1.41802e-17)
(0.849153 0.0858472 1.03431e-20)
(0.999873 0.000228378 1.17621e-22)
(1.00392 0.00501342 6.31373e-25)
(0.99715 0.00948676 4.56307e-19)
(1.00415 0.00521869 8.15605e-23)
(0.983405 0.00145801 2.01872e-19)
(0.946352 0.0624163 1.57924e-18)
(1.00512 0.00311777 -3.06981e-19)
(1.02968 0.00467583 9.72616e-21)
(0.358019 0.192163 -1.77393e-19)
(1.00524 0.00238261 5.61353e-20)
(1.00004 0.000322929 -6.50199e-21)
(0.980923 0.00189734 1.26431e-20)
(1.01739 -0.00032231 -3.89197e-25)
(1.00459 0.0829216 5.48229e-19)
(1.0031 0.00562371 1.64156e-22)
(1.00263 0.00593201 1.09799e-23)
(1.00011 3.75835e-05 1.16717e-21)
(1.03776 0.033273 0)
(0.991819 0.0241712 -1.16815e-16)
(1.00028 0.00949552 2.39528e-21)
(0.993079 0.0224446 4.90665e-18)
(1.00004 0.000136288 -6.31911e-22)
(1.02792 0.0114445 -2.65577e-22)
(0.999885 0.010021 1.03936e-18)
(0.672705 0.216792 -1.12031e-20)
(1.00021 6.37576e-05 0)
(1.02009 -0.00386976 1.64344e-23)
(0.999927 0.00787698 2.9406e-23)
(0.989274 0.145761 1.31195e-21)
(1.00657 0.0391858 -3.69864e-22)
(1.09652 0.0941486 1.76972e-20)
(0.999586 8.05351e-05 -3.70445e-18)
(1.03128 0.00239904 -1.70658e-20)
(1.00391 0.000644175 1.20582e-25)
(1.02947 0.000603326 1.77252e-21)
(1.03617 0.00101155 -4.31329e-22)
(0.985645 -0.000960108 5.17911e-18)
(0.996978 0.000511703 2.41728e-23)
(1.00223 0.0055981 7.64257e-21)
(0.51609 0.391434 2.12626e-18)
(1.59814 0.149824 1.70263e-16)
(1 0.000157603 9.25728e-26)
(1.00541 0.00229233 7.98154e-20)
(0.450386 0.395401 -1.00402e-19)
(1.10655 0.00469535 3.32948e-20)
(0.995177 0.0190983 7.90634e-22)
(1.00598 0.0413977 -1.52415e-20)
(1.01854 0.0627067 3.55564e-22)
(1.03362 0.0133234 -8.39096e-23)
(0.97196 4.66517e-05 -1.14676e-19)
(1.38033 0.241162 -7.70171e-20)
(1.10694 0.0369236 -2.58042e-22)
(1.00502 0.0478584 -2.46729e-21)
(1.00471 0.00140186 1.47572e-18)
(1.03524 0.00567206 -1.30817e-18)
(1.02774 0.00724781 -2.82387e-17)
(0.990211 0.026518 -8.96666e-21)
(1.02667 0.00978534 8.78974e-20)
(1.00291 0.00479739 1.9425e-19)
(1.00501 0.00279931 -4.80926e-17)
(1.00018 7.97194e-05 -4.92978e-26)
(1.00487 0.00239912 3.62394e-18)
(1.14562 0.0763302 -2.97476e-22)
(1.01206 0.0411034 -6.93466e-21)
(1.00046 0.000177527 -4.24962e-21)
(0.999961 0.000237601 1.00892e-17)
(1.03296 0.0120179 1.22392e-21)
(1.00728 -7.17906e-05 -4.27708e-23)
(0.991162 0.000758005 1.17395e-21)
(1.01858 -0.0023054 8.7221e-22)
(1.00003 0.000231921 -6.79567e-23)
(1.00845 0.0753195 9.14363e-22)
(0.999962 0.000218447 -5.95837e-20)
(0.999973 0.000228568 -4.61862e-19)
(0.999076 0.000113875 0)
(1.02897 0.00347671 -2.9396e-20)
(1.00367 0.00218847 -1.3428e-23)
(1.38579 0.274173 -6.02608e-18)
(1.00036 4.55545e-05 0)
(1.00039 5.44649e-05 4.58443e-25)
(1.01866 0.00194411 0)
(1.0036 0.000870618 7.18252e-24)
(0.952014 0.0563063 2.34432e-17)
(0.998998 0.00921451 -1.0254e-17)
(0.998664 0.000248521 1.10089e-20)
(0.999993 0.000272931 -2.36823e-21)
(1.13876 0.0875706 0)
(0.990789 0.0765628 -1.05848e-20)
(0.999988 0.000252824 -1.6236e-21)
(1.00357 0.00547509 -1.38831e-22)
(0.998336 0.00884508 2.6278e-19)
(1.00403 0.00110001 0)
(1.00266 0.000223942 0)
(1.00247 0.000165454 9.31782e-26)
(1.0036 0.000617572 4.51101e-21)
(0.995304 0.00122333 1.48666e-18)
(0.846699 0.0616147 -6.54233e-21)
(1.00431 0.000704411 0)
(0.997172 4.80038e-05 5.41041e-20)
(0.987065 -0.00104144 5.21323e-18)
(1.02289 0.0219707 -3.42156e-19)
(1.09774 0.0330378 5.56249e-22)
(1.00592 -1.0941e-05 -1.48405e-22)
(0.992538 0.0248303 -8.01512e-21)
(0.615111 0.105153 -6.9539e-20)
(0.999942 0.000229993 -3.26914e-16)
(1.02337 0.0096387 1.69525e-22)
(1.00057 0.000104625 2.4926e-20)
(1.01339 0.0116884 0)
(1.00036 6.2337e-05 1.52615e-24)
(1.00645 0.000578364 4.53779e-21)
(0.820328 0.0536763 -3.25332e-18)
(1.02408 0.0120406 -1.37896e-20)
(0.862958 0.0816136 -1.49538e-18)
(0.990482 0.000299183 3.86536e-23)
(1.001 0.00640359 -2.621e-23)
(1.02536 0.00578992 1.71898e-22)
(1.02939 -0.00259043 -1.94671e-24)
(1.00054 0.0070699 -4.31572e-21)
(1.02664 0.00743334 3.55318e-24)
(1.02424 0.00357272 4.88952e-21)
(1.0008 0.000133744 -3.01597e-21)
(0.999378 0.000481977 3.12627e-20)
(0.999358 0.000459507 4.93802e-22)
(0.999325 0.000438222 1.029e-20)
(0.999311 0.000460047 -5.20977e-19)
(0.706144 0.243691 1.24403e-20)
(1.00007 0.000227595 -8.29928e-25)
(0.946579 0.0622948 -1.00834e-17)
(1.03253 0.00203227 2.17212e-23)
(0.994411 0.0235269 2.19706e-20)
(1.02787 0.010115 2.85319e-20)
(1.02303 0.0124238 1.59568e-22)
(1.01911 0.00217745 1.16257e-24)
(1.01275 0.011387 1.07644e-23)
(1.02506 0.011507 -6.04746e-22)
(1.01305 0.0113437 4.54126e-22)
(0.994299 0.0256301 -2.50309e-22)
(1.0243 0.0243312 -6.59096e-18)
(1.02333 0.0273083 3.319e-23)
(0.956505 0.0466486 -3.27079e-16)
(0.982222 0.00218317 3.09517e-21)
(1.031 0.0668385 -1.99035e-21)
(0.983444 0.00169455 3.75597e-18)
(0.984261 0.00168621 2.17639e-16)
(1.03061 0.0146074 -1.69996e-22)
(0.932465 0.0965074 -1.10868e-21)
(1.00298 0.00285836 4.80776e-24)
(0.999293 0.000215736 0)
(1.01437 0.0101105 0)
(0.999364 0.000149584 1.12351e-23)
(1.0035 0.00289146 -7.81072e-22)
(1.20329 0.021785 -4.75558e-17)
(0.305988 0.253687 1.89254e-18)
(1.00292 0.00312056 2.41717e-23)
(0.999928 0.000142788 -2.88305e-24)
(1.00032 4.02065e-05 0)
(0.999944 0.000351739 -4.73921e-20)
(1.02577 0.011005 -6.24548e-23)
(0.999971 0.000334955 -5.39833e-25)
(0.999979 0.000339553 -8.41084e-22)
(1.09947 0.0619184 0)
(1.0285 0.00945417 -2.87803e-17)
(1.10262 0.132899 -5.66436e-22)
(1.00063 0.0033835 7.25314e-24)
(1.03253 0.0085136 -2.96614e-18)
(1.00633 -9.9056e-05 -9.43725e-22)
(0.998961 0.00861862 -2.07772e-21)
(1.02933 0.030349 5.18695e-17)
(1.01476 0.00897646 0)
(0.933914 -0.000244399 -3.47156e-22)
(1.0139 0.00847748 0)
(1.0033 0.00270885 -6.44593e-23)
(1.00053 0.000160947 -1.0573e-21)
(1.02795 0.00810681 -1.14664e-18)
(1.0325 0.00707415 2.87935e-17)
(1.00475 0.000814165 -2.87265e-18)
(0.769196 0.0413945 8.74375e-20)
(1.03264 0.0277044 3.63904e-18)
(1.03037 0.00104928 -1.24671e-22)
(0.994231 0.0334632 1.671e-20)
(1.0037 0.0385679 -9.0561e-17)
(0.999919 0.000240654 -1.93876e-20)
(0.399575 0.40843 1.81761e-18)
(1.0295 0.0743115 -7.58889e-22)
(1.0005 0.00341254 -4.73351e-22)
(0.980168 0.151619 -1.50518e-21)
(0.983066 0.000700195 2.22333e-15)
(0.99995 0.000327174 1.74814e-19)
(1.00003 0.000275011 -3.75672e-21)
(1.00001 0.000355475 -7.88329e-20)
(1.0973 0.121018 0)
(0.963939 0.100604 0)
(0.991623 0.026106 4.12025e-19)
(1.02415 0.00854109 -1.69025e-21)
(1.02515 0.00538866 3.72956e-20)
(0.999684 0.0106831 2.83304e-21)
(0.938029 0.00886034 2.95105e-22)
(0.999092 0.0336423 1.14895e-19)
(1.04937 0.00163479 -9.97101e-22)
(1.09649 0.038208 2.1371e-20)
(0.709252 0.0696393 0)
(0.993814 0.0229518 -1.67606e-19)
(0.960201 0.0429104 3.08225e-17)
(1.01405 6.25591e-05 -6.44842e-21)
(1.02314 0.0356998 -1.83073e-21)
(1.00817 0.00989095 1.2524e-21)
(1.01488 0.0109955 -7.5858e-24)
(0.99794 -7.40673e-05 1.06714e-21)
(1.00861 0.0100436 -1.24941e-23)
(1.02665 0.0100941 5.88115e-20)
(0.999985 0.000324186 3.16482e-23)
(1.09819 0.0124614 2.04392e-21)
(0.991103 0.00108622 -3.54565e-21)
(1.07146 -0.00489811 5.5237e-21)
(1.03255 0.00550264 -3.1439e-23)
(0.993908 0.00147834 1.00265e-16)
(0.955445 0.0478259 -5.54941e-17)
(1.17452 0.239275 0)
(1.02394 0.0126685 -1.79574e-23)
(1.00808 0.0140322 4.50255e-19)
(1.02658 -0.00310748 -4.30536e-23)
(1.03082 0.00534086 1.79432e-21)
(1.02669 0.027871 -7.0185e-22)
(1.00392 0.00265563 -3.11656e-18)
(0.999996 0.000330362 -9.03452e-17)
(0.990134 0.0714691 2.91488e-19)
(1.0003 7.99033e-05 3.07443e-26)
(1.05969 -0.00405409 5.69782e-21)
(1.00225 0.00028052 1.89626e-24)
(0.969566 0.00262986 0)
(0.96393 0.0388141 -7.31601e-18)
(1.01104 0.000266587 -1.79319e-19)
(1.1029 0.0837343 -4.57909e-19)
(0.941905 0.0677154 -5.21143e-19)
(0.995452 0.0158634 3.84742e-23)
(1.00137 0.00397718 3.69372e-24)
(0.555372 0.0746593 -3.89973e-20)
(1.00069 1.07252e-05 -5.38816e-23)
(1.00074 0.0029654 1.20356e-22)
(1.04196 0.0360268 1.31589e-23)
(0.999923 0.000143577 1.19441e-22)
(1.0017 0.00377924 -1.76953e-23)
(1.00088 0.0028642 8.09227e-21)
(0.778723 0.196917 -1.42255e-19)
(0.56155 0.597923 1.19634e-16)
(0.998018 0.0115327 5.65271e-21)
(1.00144 -1.62524e-05 3.91463e-27)
(0.942749 0.0323061 1.36533e-18)
(1.00634 0.0347897 1.42637e-16)
(1.02392 0.00925399 3.99578e-23)
(1.02992 0.012958 1.0383e-23)
(1.02767 0.00911744 1.8876e-18)
(1.00083 -9.01057e-05 -1.85652e-19)
(0.99995 0.000339114 -1.10122e-18)
(1.00739 0.0318434 9.17357e-18)
(0.999936 0.000276993 -1.41956e-23)
(0.966025 0.0351432 3.48405e-19)
(1.024 0.0100323 0)
(1.02683 0.0316489 -1.74391e-23)
(0.99688 0.000597258 -4.37125e-23)
(0.992122 0.0698254 1.18774e-17)
(1.04471 0.0316735 -4.06288e-22)
(0.998041 -0.000186502 -4.98243e-20)
(1.00158 0.0107915 4.12145e-23)
(1.00543 0.000777542 4.50826e-17)
(0.932866 0.0434447 4.44685e-17)
(1.04278 0.0332144 -6.76829e-22)
(0.999894 0.000238109 1.44757e-20)
(0.997189 0.0386751 -1.08466e-16)
(1.02754 0.00654533 2.47369e-18)
(1.01556 -0.000227061 -3.78167e-24)
(0.995171 0.0395702 9.15432e-17)
(1.00273 -3.53401e-05 -3.27372e-22)
(0.935375 0.0942323 -7.43368e-23)
(1.02504 0.00114196 3.12597e-24)
(1.02955 0.00453025 -8.44781e-22)
(1.02482 0.028837 -3.66339e-23)
(1.00093 -0.000150873 -4.17342e-21)
(1.00181 0.0105446 1.60129e-21)
(1.05516 0.0508102 1.61821e-19)
(1.06352 -0.0033091 -1.65989e-17)
(0.99994 0.000268154 1.25279e-24)
(1.01114 0.0139375 2.2498e-20)
(1.01647 0.171728 -3.74902e-20)
(1.02799 8.44191e-05 -1.2159e-23)
(0.646176 0.436147 6.36718e-21)
(0.999972 0.000366745 -2.60096e-21)
(1.00242 0.00053789 1.33546e-22)
(1.0008 5.38893e-05 2.80978e-21)
(1.02802 0.0109929 2.31421e-20)
(0.995266 0.0168584 -8.6223e-20)
(0.995936 0.0118971 -1.34772e-20)
(1.00245 0.000518734 1.73947e-20)
(1.00548 0.0327963 -4.2186e-19)
(1.01605 0.0110202 2.91364e-23)
(0.974536 0.003152 -4.64659e-22)
(1.00946 0.00130012 2.20265e-22)
(1.08255 0.0801583 -2.32185e-20)
(1.00045 0.000115999 1.4942e-19)
(1.08949 0.0811676 -7.43178e-19)
(1.0014 8.5992e-05 -9.17862e-22)
(0.830033 0.746924 1.46412e-19)
(1.02586 -0.00215415 -7.19892e-23)
(1.04757 0.040578 -6.13232e-21)
(0.999544 7.49347e-05 -1.02815e-19)
(0.997138 0.000575193 2.89633e-21)
(1.02443 0.0231698 8.56203e-18)
(1.0034 0.00217763 -6.99802e-23)
(0.998667 0.00012098 -3.623e-20)
(0.992553 -0.000338575 -3.79628e-21)
(0.997049 0.0160124 -2.14837e-19)
(0.995978 0.0191296 4.85462e-21)
(0.981559 0.139022 2.95834e-21)
(1.03426 0.0335846 2.56031e-19)
(1.0362 0.033011 -5.88528e-18)
(1.00002 6.48e-05 7.9489e-22)
(1.00365 0.00209329 2.562e-22)
(1.02394 0.0109766 -5.61933e-21)
(1.06813 -0.00230885 1.30097e-17)
(1.00001 7.43304e-05 -5.96262e-18)
(1.00049 0.000114631 -1.82644e-20)
(1.02746 0.00647777 -6.68019e-20)
(1.00078 0.0001489 5.25396e-23)
(0.844061 0.0438255 2.06778e-18)
(1.18619 0.188505 1.11039e-21)
(1.11285 0.0123037 -1.81904e-18)
(1.00001 8.54271e-05 5.59288e-17)
(1.00454 0.0095025 1.5531e-20)
(1.04012 0.00137269 1.26673e-20)
(0.995317 0.0129648 1.85155e-20)
(1.004 0.000816124 3.76422e-22)
(0.0939471 0.462287 1.61505e-16)
(1.00034 0.000110654 -5.914e-22)
(0.934769 0.0657138 3.55689e-16)
(0.963477 0.0385166 -2.44298e-19)
(1.00489 0.00940973 -6.01793e-20)
(1.00393 0.000833605 4.68834e-23)
(0.998636 0.000234613 6.8226e-22)
(1.00992 -0.000421155 -4.45309e-18)
(1.02999 0.00232029 3.08968e-21)
(1.01511 0.00752421 1.30806e-22)
(0.996982 0.0106241 7.195e-20)
(1.00001 0.000147725 4.56463e-23)
(0.999832 4.17689e-05 -5.37576e-22)
(0.995259 0.0160763 5.14867e-23)
(0.99657 0.000672468 6.05458e-22)
(0.989127 0.0615812 3.69932e-18)
(1.02823 0.0106619 -9.96934e-20)
(0.998985 0.000133022 0)
(1.00049 0.000163958 -9.37376e-20)
(1.02401 0.0255426 6.4358e-20)
(1.10792 -9.40314e-06 9.43527e-19)
(0.997525 0.000626722 1.47352e-18)
(1.04521 0.00343988 -1.63983e-23)
(1.0003 6.97349e-05 -3.67914e-26)
(0.996129 0.010894 -1.24452e-21)
(0.967268 0.0813979 0)
(1.02889 -0.000828297 -1.37396e-22)
(1.03221 0.00575412 -1.27385e-20)
(0.954242 0.0531743 3.29343e-16)
(1.00252 0.0181759 8.49511e-22)
(1.03332 -0.00152145 1.15225e-22)
(0.999982 0.000322109 -1.23584e-22)
(0.999635 5.45412e-05 2.37783e-19)
(1.03292 0.00221732 1.90967e-20)
(1.00757 0.00867713 -1.16585e-23)
(1.0037 0.0175731 2.1733e-20)
(1.00767 0.00873507 -5.62892e-23)
(0.999994 0.000341475 3.4574e-19)
(1.00044 0.000150337 -3.74912e-23)
(1.00361 0.000145629 4.47512e-17)
(1.00566 0.0260943 -1.26454e-19)
(1.03459 -0.000531129 1.68534e-20)
(0.948223 0.03461 3.79772e-23)
(0.990251 0.000991513 1.71179e-22)
(0.935493 0.0326171 -6.31614e-16)
(1.02634 0.0118116 2.86419e-20)
(1.00851 0.014984 1.29814e-19)
(0.937881 0.0464409 -2.5642e-20)
(0.982753 0.0172123 9.45426e-19)
(1.0751 -0.00177864 -6.67279e-21)
(1.02787 0.00965815 -2.70246e-18)
(0.981485 0.017621 -1.49564e-17)
(0.991231 0.060999 -6.18462e-20)
(0.999667 0.000138652 3.59521e-23)
(1.00919 0.0509202 1.44338e-21)
(1.02441 0.0219321 -8.36409e-17)
(1.00004 2.33898e-05 1.01359e-21)
(0.999969 0.000125645 6.32977e-20)
(1.00081 8.25149e-05 -3.82619e-21)
(0.999487 0.000352421 -1.99599e-17)
(1.06437 0.0601045 0)
(1.01106 0.0141864 -1.05577e-21)
(1.01281 0.00124898 -6.9906e-21)
(0.945514 0.039349 -4.1048e-22)
(0.992265 -0.00112996 -1.58265e-21)
(0.792853 0.00257445 4.05044e-16)
(1.02463 0.00330502 3.00801e-24)
(1.03295 -4.05239e-05 1.37157e-21)
(1.00385 0.000517588 5.04343e-18)
(1.04924 0.0315993 -5.24006e-21)
(1.00002 0.000360487 -1.29776e-17)
(1.00388 0.0278352 6.6954e-21)
(1.00031 0.00338711 5.1181e-18)
(0.942901 0.0906164 -3.67615e-21)
(0.926557 0.0531705 3.73006e-22)
(1.0023 0.0151275 1.44549e-23)
(1.0149 0.0106444 0)
(0.587289 0.460458 1.39533e-15)
(1.027 0.00993091 1.72929e-18)
(1.04924 0.0655816 0)
(1.00924 0.0117399 1.14317e-23)
(0.97387 0.144281 -1.14054e-21)
(1.15645 0.183266 6.47606e-21)
(1.00117 8.08997e-05 4.73167e-24)
(0.998366 0.00314126 4.15163e-19)
(1 0.000284018 -4.04061e-20)
(1.0577 0.0556805 -6.61362e-23)
(0.998506 0.00300046 -8.41667e-20)
(1.01451 0.00857697 -5.06591e-23)
(1.10158 0.097789 -6.30676e-19)
(1.00052 6.94451e-05 7.17821e-22)
(0.973659 0.00345386 -1.66284e-21)
(0.988839 0.052738 9.89082e-21)
(1.00649 0.0136596 4.98935e-18)
(0.99758 2.80112e-05 1.36367e-20)
(1.00254 0.0148945 0)
(0.999094 0.000704713 -1.37341e-17)
(0.994996 0.0148463 3.79209e-22)
(0.999078 0.000596575 4.02714e-21)
(0.999133 0.000784843 1.24076e-17)
(0.995401 0.0125617 2.26103e-21)
(1.03115 0.00409504 -3.8622e-20)
(1.0281 0.00632875 -9.75452e-20)
(1.00693 0.0145287 -6.66505e-17)
(0.62561 0.04097 3.23937e-20)
(1.02609 0.00312632 2.57107e-20)
(0.372348 0.381376 -1.20376e-18)
(1.0235 0.0085916 8.96493e-22)
(1.01979 -0.000814198 2.21012e-20)
(0.995166 0.0137774 -4.11047e-19)
(1.02499 0.0112638 -2.87233e-23)
(0.993469 0.0243101 6.67318e-22)
(1.02793 0.000148171 8.20357e-24)
(0.606385 0.349188 -3.10595e-19)
(0.953974 0.0303569 -3.52986e-20)
(0.994862 0.0189485 -2.08563e-20)
(1.00428 0.0211769 5.11395e-22)
(0.99543 0.00116574 3.59229e-20)
(0.996343 0.000223619 1.21484e-19)
(1.02372 0.026795 -6.54696e-21)
(0.99999 0.000325601 7.79566e-17)
(1.07454 0.00528287 -2.1451e-21)
(0.999002 4.15786e-05 0)
(0.951172 0.0348534 -9.13467e-22)
(1.00486 0.0686786 9.808e-20)
(1.06342 0.0475046 0)
(1.03757 0.0184557 1.61325e-19)
(1.02622 0.00917193 5.27614e-23)
(0.990213 0.0532018 7.02762e-19)
(1.00917 0.0118856 5.1967e-23)
(1.0369 0.0200887 1.3026e-18)
(0.9729 0.0282784 -2.03261e-20)
(1.05324 0.0617187 0)
(1.00795 0.0195643 2.88597e-19)
(1.04464 0.0348953 -2.24839e-22)
(1.00567 0.0211525 -7.2047e-20)
(1.00001 0.000187519 -1.08569e-22)
(1.00403 0.0232062 2.01024e-19)
(1.20931 -0.0106265 -4.46939e-16)
(0.972637 0.128464 1.75954e-21)
(1.0046 0.00424859 -6.30272e-17)
(1.00016 5.84962e-05 -8.21891e-25)
(0.998968 0.000133392 -2.21453e-22)
(0.994822 0.00675185 3.74249e-22)
(0.968566 0.00266752 -6.64727e-22)
(1.02817 0.00564839 8.90819e-20)
(1.02381 -0.00275348 -3.64419e-20)
(1.00086 -1.52822e-05 -4.0513e-18)
(1.00335 0.00662233 -6.59457e-17)
(0.995049 0.0242134 -7.36608e-21)
(1.00528 0.00508801 2.98429e-18)
(1.00803 0.0012304 6.40838e-21)
(1.04488 0.0291471 -5.97263e-20)
(0.994292 0.000894654 -4.51044e-17)
(0.990268 0.0370563 5.92789e-19)
(1.03337 0.00975078 1.68466e-21)
(1.00366 0.0066105 1.29123e-18)
(1.00732 0.00687653 -1.25278e-22)
(0.948776 0.0526075 1.18656e-19)
(1.00001 4.57971e-05 -2.53624e-23)
(0.993673 0.00527287 2.32646e-20)
(1.28452 0.0986532 -9.03683e-21)
(0.999575 1.86749e-05 -5.65296e-18)
(1.04045 0.0330347 2.43826e-22)
(1.00676 0.0647568 1.05473e-20)
(1.00873 0.00706711 -5.36907e-21)
(0.961202 0.0425385 -1.11845e-18)
(1.03316 0.0102463 -4.66892e-23)
(1.00293 0.0238106 -1.82285e-21)
(1.02738 0.0289729 2.91953e-24)
(0.999564 0.00300266 -2.71495e-22)
(0.94151 0.0349588 -9.45534e-19)
(1.00453 0.000665793 0)
(1.02674 0.0015037 7.39755e-20)
(1.0264 0.00934974 -8.8567e-24)
(0.938488 0.0389823 -3.03591e-17)
(0.999776 0.00289306 7.85099e-21)
(1.03509 -0.0025811 2.7783e-22)
(1.0547 0.0142175 1.23576e-23)
(0.993426 0.0366345 -5.39273e-21)
(1.0055 0.0121537 -3.38593e-19)
(1.00419 0.00253956 -4.02319e-20)
(1.00614 0.048514 2.00676e-22)
(0.758612 0.236072 -1.89239e-21)
(0.995015 0.000419708 2.8645e-17)
(0.999902 0.000170374 4.07815e-22)
(0.996362 0.0216383 -8.4662e-19)
(0.99993 0.000354186 -1.72698e-21)
(1.16517 0.147388 3.38722e-19)
(1.00622 0.0202984 2.34125e-19)
(1.035 0.0806746 0)
(1.01392 0.00589609 4.78524e-18)
(1.0219 -0.00172955 -1.74563e-20)
(0.289386 0.0444447 -3.15823e-16)
(1.00619 0.0134623 -1.59545e-19)
(1.0825 0.16016 1.18143e-21)
(1.02812 0.00486245 2.44577e-18)
(1.11169 0.0367234 -9.5672e-20)
(1.02428 0.0102049 -2.22038e-22)
(0.996735 0.0113423 -9.58651e-19)
(1.00567 0.0128149 1.80053e-21)
(1.01393 -0.00104524 -3.54239e-22)
(1.09338 0.0843046 1.932e-17)
(1.08341 0.06961 2.65581e-19)
(1.00138 0.000117248 3.32018e-26)
(1.0015 0.000196885 2.50183e-25)
(0.932751 0.040176 6.48313e-19)
(1.00253 1.6566e-05 -7.54662e-23)
(0.780033 0.349533 3.95078e-20)
(1.02573 0.0269323 -7.98376e-24)
(0.968957 0.168911 -1.41218e-20)
(1.0039 0.0027261 2.25617e-19)
(0.527161 0.417456 -3.39849e-15)
(1.12482 0.209434 5.46011e-22)
(1.00502 0.0209879 -3.67961e-21)
(1.00003 0.000186364 5.06954e-21)
(0.999843 0.00262056 4.43562e-23)
(0.957783 0.0273701 -2.80835e-17)
(0.994865 0.00747871 -1.29117e-20)
(0.990089 0.00074341 0)
(0.997192 0.00874704 4.07937e-21)
(1.02793 0.00976294 -6.44046e-19)
(0.974339 0.0256242 8.69515e-22)
(1.08865 0.0037488 -5.88841e-22)
(0.645067 0.0676315 -5.14025e-19)
(1.00076 -0.000127593 -5.77454e-17)
(0.967893 0.0342819 -4.15433e-19)
(1.03311 0.0182673 1.75124e-19)
(0.92085 0.059161 -1.30452e-19)
(1.00436 0.0117723 7.12745e-17)
(0.937167 0.0832521 3.31518e-17)
(1.02882 0.00616697 -6.11964e-20)
(0.955968 0.0316759 -1.3717e-18)
(0.997362 0.000402182 7.05519e-22)
(1.00014 1.60859e-05 -8.15788e-24)
(1.03605 0.0187805 1.24511e-20)
(1.03859 0.0178323 -1.04141e-19)
(1.02187 0.00268658 9.07729e-23)
(0.933479 0.0349968 4.86008e-16)
(1.02901 0.0777127 0)
(1.01782 -0.00216387 -4.65228e-20)
(0.994066 0.0242289 2.2872e-19)
(1.00044 0.00350705 -7.30031e-17)
(1.00686 0.00779783 1.97119e-21)
(0.794465 0.0348776 1.43176e-17)
(1.00692 0.00773183 -1.54685e-19)
(1.03346 0.0179936 2.82252e-18)
(0.985211 0.0385869 0)
(1.02297 0.007205 -4.36229e-23)
(1.01395 -0.000671735 5.41457e-18)
(0.9966 0.0102547 6.64237e-23)
(1.05209 0.0126698 -2.85001e-23)
(1.01343 0.00572396 -3.62305e-18)
(1.00519 0.0113399 8.11371e-18)
(1.07132 0.00424386 -1.07199e-21)
(0.992854 0.0249799 -4.42593e-24)
(1.018 0.00140179 1.38442e-24)
(0.7562 0.386336 1.92122e-20)
(1.00001 0.00012872 2.00586e-24)
(1.0141 0.00633305 5.16714e-17)
(1.00319 0.018307 1.04535e-17)
(0.992995 0.00633576 -4.08515e-23)
(1.00268 0.000336978 -1.45627e-20)
(0.998576 0.0239353 7.80314e-18)
(1.00003 3.92536e-05 2.13297e-20)
(1.04716 0.0982337 -3.8817e-19)
(1.00506 0.00114895 -5.17207e-21)
(0.974067 0.00406625 0)
(1.03572 0.0284872 2.21395e-21)
(0.957636 0.0413247 1.34174e-20)
(1.01465 0.00823007 -1.43617e-24)
(1.01443 0.00662464 1.79602e-19)
(1.03464 0.0180731 -2.93141e-21)
(1.18125 0.0301087 -1.77307e-19)
(0.999623 0.000114006 1.13649e-23)
(0.992872 0.000894948 1.42884e-17)
(1.01608 0.00314263 2.26525e-21)
(1.10462 0.178005 2.37538e-22)
(1.0384 0.0195762 -1.20887e-18)
(0.99977 0.00283047 -2.19265e-22)
(0.170839 0.125518 -9.06618e-15)
(1.00013 4.51565e-05 -1.41542e-19)
(1.00476 0.00117105 -1.31533e-19)
(1.16605 0.0224626 -9.04956e-20)
(0.994799 0.00492193 0)
(0.999589 0.00303713 2.06498e-21)
(0.999538 0.00327167 2.94109e-23)
(0.984962 0.0375852 -4.79508e-22)
(0.962781 0.0247448 3.51892e-17)
(0.999557 2.22776e-05 -7.24291e-17)
(0.993928 0.00606529 3.82444e-23)
(0.939218 0.0684495 -3.9742e-16)
(1.00206 0.0194051 -1.2001e-18)
(0.996257 0.0156306 1.82174e-18)
(0.996919 0.00847012 -1.53157e-20)
(1.00109 0.000109552 -2.93071e-20)
(0.960234 0.0281681 -3.88787e-16)
(1.06406 0.0501334 6.5834e-22)
(0.995409 0.0142505 -1.42803e-20)
(0.936155 0.0319628 3.12556e-17)
(1.02829 0.00471439 3.25217e-20)
(1.02715 -0.00332189 0)
(1.03949 0.0922206 3.08569e-20)
(1.03207 0.0199857 1.54805e-18)
(0.996543 0.00902547 3.72803e-19)
(1.00486 0.000647557 2.19959e-18)
(1.08833 0.0942229 3.22071e-20)
(1.03147 0.00351564 2.62927e-19)
(0.97711 0.0233243 -1.00654e-18)
(0.999921 0.0035373 -3.85121e-21)
(0.999438 0.000333193 -8.19464e-19)
(0.932278 0.0109154 -5.07927e-18)
(1.04898 0.0352013 2.6538e-22)
(1.01272 0.00558129 -4.0322e-21)
(1.01062 0.042284 2.72731e-22)
(1.01346 0.00609476 1.71676e-19)
(0.996984 0.00934134 1.23005e-22)
(1.00403 0.00353891 -9.92015e-23)
(0.967969 0.0302101 -1.31329e-22)
(1.27185 0.0220527 4.90981e-17)
(0.460788 0.498739 2.5329e-15)
(0.969506 0.0310343 1.3925e-20)
(1.00217 0.0160878 2.76299e-19)
(1.00411 0.00388417 4.78774e-20)
(0.971698 0.0284593 -6.30511e-22)
(0.595827 0.273527 1.98861e-18)
(0.941362 0.0273296 -1.18937e-18)
(0.999851 0.00267869 -2.07384e-21)
(1.04705 0.0247405 -4.95302e-17)
(1.05908 0.0591287 0)
(1.25678 0.267259 7.47223e-21)
(1.01096 0.00270746 4.92205e-20)
(1.16787 0.0186574 -6.36632e-20)
(0.99954 0.000191443 -1.69822e-23)
(0.996979 0.00946182 3.94354e-24)
(0.999448 0.000277234 -1.00468e-23)
(1.041 0.0883808 4.18684e-22)
(0.976249 0.0231865 -5.0994e-20)
(1.17664 0.0241647 -9.5374e-19)
(1.0044 -0.000263087 1.40892e-24)
(1.11425 0.188913 1.10687e-20)
(1.00265 0.000499832 1.40546e-21)
(1.00205 0.0168232 -5.83591e-19)
(1.03211 0.00582302 5.04788e-20)
(0.99553 0.00753846 -2.35527e-24)
(1.04623 0.0297489 -1.40893e-20)
(1.08494 0.0360303 0)
(0.994087 0.00508164 -2.6494e-23)
(1.01511 0.00199845 -4.83575e-17)
(1.01974 0.00250121 1.84302e-24)
(1.01094 0.00296429 -1.29507e-21)
(0.994307 0.00455996 4.92917e-22)
(0.977251 0.126231 1.48099e-21)
(0.97852 0.0212555 1.13334e-19)
(1.01494 0.00635539 6.40413e-21)
(0.974004 0.115946 -2.32351e-23)
(0.99411 0.00458399 -4.1996e-24)
(0.999353 0.000411812 1.94591e-17)
(0.995993 0.0138191 3.36953e-20)
(0.998862 0.000183236 5.10412e-21)
(0.944423 0.0599091 -1.53174e-18)
(1.02408 0.000383347 3.56439e-24)