/*--------------------------------*- C++ -*----------------------------------*\
  =========                 |
  \\      /  F ield         | OpenFOAM: The Open Source CFD Toolbox
   \\    /   O peration     | Website:  https://openfoam.org
    \\  /    A nd           | Version:  7
     \\/     M anipulation  |
\*---------------------------------------------------------------------------*/
FoamFile
{
    version     2.0;
    format      ascii;
    class       volVectorField;
    location    "31";
    object      U;
}
// * * * * * * * * * * * * * * * * * * * * * * * * * * * * * * * * * * * * * //

dimensions      [0 1 -1 0 0 0 0];

internalField   nonuniform List<vector> 
34000
(
(-0.0716111 0.00291612 4.40365e-20)
(-0.123495 0.00213927 6.11099e-20)
(-0.176109 0.00212151 -2.0582e-20)
(-0.207429 0.00150498 9.90829e-21)
(-0.226676 0.00149123 -4.69796e-20)
(-0.245655 0.00127105 -1.28503e-20)
(-0.254696 0.00118083 -5.56773e-21)
(-0.265169 0.000933159 -6.63057e-20)
(-0.268512 0.000594831 5.63767e-20)
(-0.272176 9.32102e-05 8.69927e-21)
(-0.269171 -0.000604655 -2.11597e-20)
(-0.265481 -0.00126169 1.36465e-20)
(-0.253927 -0.00218069 -1.67678e-20)
(-0.240435 -0.00271093 3.65687e-21)
(-0.219044 -0.00355544 -1.20126e-20)
(-0.18956 -0.0040205 1.349e-20)
(-0.164311 -0.00457016 -7.27992e-21)
(-0.110571 -0.00601714 1.45651e-20)
(-0.0773561 -0.0060905 1.14686e-20)
(-0.0107641 -0.00830232 4.74008e-21)
(-0.071765 0.00883488 4.21646e-21)
(-0.123271 0.00645803 -1.01772e-19)
(-0.175448 0.00631777 -1.59453e-20)
(-0.206207 0.00431635 -3.33953e-20)
(-0.224753 0.00408186 1.17879e-19)
(-0.242858 0.00322369 1.30096e-20)
(-0.250817 0.00282774 -3.688e-20)
(-0.259955 0.00210471 9.77496e-20)
(-0.261648 0.00131234 -5.77543e-20)
(-0.263328 0.000231225 6.20556e-20)
(-0.257841 -0.00130293 6.10292e-20)
(-0.251369 -0.00274233 1.31988e-20)
(-0.236187 -0.0051323 2.86508e-20)
(-0.219082 -0.00674055 -1.89732e-20)
(-0.192885 -0.00966692 3.12377e-20)
(-0.158346 -0.0116693 7.65181e-21)
(-0.12868 -0.0142856 1.84246e-20)
(-0.0667911 -0.0188118 -4.7359e-20)
(-0.0325913 -0.0199449 -4.69935e-21)
(0.0456513 -0.0256192 -6.60525e-21)
(-0.0720734 0.0147213 -9.621e-20)
(-0.122826 0.0107421 1.24689e-19)
(-0.17413 0.0104831 2.03778e-19)
(-0.20377 0.00709461 -2.10214e-19)
(-0.220919 0.00663455 -7.04743e-20)
(-0.237289 0.00513104 7.38139e-20)
(-0.243103 0.00441688 2.13791e-20)
(-0.249603 0.00319986 -8.10416e-22)
(-0.248053 0.00192999 8.04744e-20)
(-0.245861 0.000232189 -1.23041e-20)
(-0.235561 -0.00216682 -5.91252e-20)
(-0.223759 -0.00445372 -8.00429e-20)
(-0.201647 -0.00831203 3.5364e-20)
(-0.177797 -0.0110782 4.25162e-20)
(-0.142705 -0.0161489 2.20911e-20)
(-0.0989934 -0.0193803 -7.83657e-20)
(-0.0615365 -0.0247259 -8.40132e-21)
(0.0142966 -0.0308357 7.72894e-21)
(0.0498236 -0.0341266 -9.40973e-21)
(0.146778 -0.0419915 -6.78743e-21)
(-0.0725358 0.0205539 -1.63175e-19)
(-0.122162 0.0149686 -1.5549e-19)
(-0.172157 0.014597 1.972e-21)
(-0.200124 0.00981817 7.13502e-20)
(-0.215189 0.00912493 1.95098e-19)
(-0.228974 0.0069646 -2.04229e-19)
(-0.231606 0.00591275 1.23525e-19)
(-0.234218 0.00417304 5.99874e-20)
(-0.227927 0.00239067 -9.3035e-20)
(-0.220133 1.94957e-05 -3.44736e-20)
(-0.20294 -0.0032801 2.63082e-20)
(-0.183665 -0.00651289 9.44729e-20)
(-0.151911 -0.0118363 -1.10915e-19)
(-0.119013 -0.0158312 -1.16096e-19)
(-0.0722134 -0.0231549 -4.3426e-21)
(-0.0169378 -0.0269785 2.72916e-20)
(0.0302955 -0.0360089 -6.47016e-22)
(0.12207 -0.042136 1.74865e-20)
(0.158846 -0.0478801 -3.29829e-20)
(0.274631 -0.0572335 5.96617e-21)
(-0.0731518 0.0263117 3.09748e-20)
(-0.121282 0.0191143 3.33557e-19)
(-0.169536 0.0186392 -3.25015e-19)
(-0.195279 0.0124658 2.03803e-19)
(-0.207578 0.0115295 -2.2413e-19)
(-0.217947 0.00869792 3.04862e-19)
(-0.216401 0.00728379 -1.25772e-19)
(-0.213942 0.00498592 -1.39953e-19)
(-0.201534 0.00265004 -4.49148e-20)
(-0.186607 -0.000463446 5.43074e-20)
(-0.160755 -0.00469115 1.34482e-20)
(-0.13235 -0.00898445 -3.63869e-20)
(-0.0889596 -0.0157347 1.20747e-19)
(-0.0455616 -0.0209965 1.62242e-19)
(0.0143853 -0.0306702 1.50815e-21)
(0.0817503 -0.0345494 1.41771e-19)
(0.139445 -0.0473933 5.21965e-20)
(0.244979 -0.052946 3.73801e-21)
(0.283933 -0.0605437 9.83294e-21)
(0.412394 -0.070746 -3.61654e-21)
(-0.0739206 0.031974 2.27961e-19)
(-0.12019 0.0231563 -1.78324e-20)
(-0.166271 0.0225893 -1.4053e-20)
(-0.189244 0.0150169 -2.79307e-19)
(-0.198108 0.0138257 -3.89343e-20)
(-0.204249 0.0103073 -3.48099e-19)
(-0.197571 0.00850358 1.04515e-20)
(-0.188935 0.00560953 2.56159e-19)
(-0.169167 0.0026797 2.21289e-19)
(-0.145786 -0.00124851 -1.88182e-19)
(-0.109845 -0.00640906 -3.87753e-20)
(-0.0710957 -0.0119014 8.69817e-20)
(-0.0148609 -0.0199474 1.24903e-19)
(0.0398051 -0.0264708 -1.15358e-20)
(0.113067 -0.0384363 1.13194e-19)
(0.19151 -0.0422541 -5.70225e-20)
(0.259775 -0.0580452 1.26104e-20)
(0.373047 -0.0630592 -2.4326e-20)
(0.415842 -0.0716582 8.03192e-20)
(0.547714 -0.0817863 -2.65982e-20)
(-0.0748413 0.0375208 -2.0309e-19)
(-0.118892 0.0270716 -4.4039e-19)
(-0.162369 0.0264269 6.84267e-19)
(-0.182029 0.0174512 4.22848e-19)
(-0.186799 0.0159928 8.29303e-20)
(-0.187918 0.0117724 2.66672e-19)
(-0.175197 0.00955197 1.90822e-19)
(-0.15935 0.00602605 -2.26678e-19)
(-0.131114 0.00246925 -4.17503e-20)
(-0.0981534 -0.00233952 5.11093e-20)
(-0.0510252 -0.00840462 4.07586e-20)
(-0.00105472 -0.0152047 -8.95707e-20)
(0.0684461 -0.0244147 -9.41677e-20)
(0.134616 -0.0320489 -1.31422e-19)
(0.220331 -0.0460425 -1.76629e-19)
(0.307456 -0.0498727 -3.01346e-20)
(0.385766 -0.0674017 -1.00204e-20)
(0.499292 -0.0720282 -1.77309e-20)
(0.546465 -0.0808793 -2.04629e-20)
(0.672173 -0.0898015 7.57589e-21)
(-0.0759126 0.0429326 -1.63472e-19)
(-0.117392 0.0308371 -3.06801e-19)
(-0.157837 0.0301317 -1.00484e-18)
(-0.173645 0.0197497 3.1971e-19)
(-0.173667 0.0180114 4.06374e-19)
(-0.168988 0.0130771 -2.25452e-19)
(-0.149349 0.010416 5.68863e-20)
(-0.125321 0.0062305 -3.25251e-20)
(-0.0876261 0.00202738 -1.46076e-20)
(-0.0441176 -0.00370892 -2.67295e-19)
(0.0149656 -0.0106227 -2.00299e-19)
(0.0767867 -0.0187134 3.07815e-20)
(0.159227 -0.0290306 9.22136e-21)
(0.236649 -0.0374911 2.45207e-19)
(0.332981 -0.0530325 1.55024e-19)
(0.425677 -0.0570569 4.49527e-20)
(0.511692 -0.0749929 -4.33335e-20)
(0.618907 -0.0793045 1.35403e-19)
(0.668773 -0.087895 -2.98281e-20)
(0.780154 -0.0946638 6.98135e-20)
(-0.0771334 0.0481908 4.36735e-19)
(-0.115698 0.03443 1.14011e-18)
(-0.152682 0.0336834 1.01977e-18)
(-0.164097 0.0218939 -1.81963e-19)
(-0.158725 0.0198643 -8.37478e-19)
(-0.147474 0.0142099 1.97507e-19)
(-0.120072 0.0110911 -2.03085e-19)
(-0.0869388 0.00623273 -4.01584e-19)
(-0.0389001 0.00138235 3.05925e-19)
(0.0160012 -0.0052888 3.30902e-19)
(0.0874739 -0.0129909 4.81617e-20)
(0.161546 -0.0222105 -1.3969e-19)
(0.255856 -0.0335727 3.03722e-21)
(0.343677 -0.0425455 -9.81739e-20)
(0.447705 -0.0589802 -2.38776e-19)
(0.542687 -0.0633237 -8.33471e-20)
(0.631854 -0.080556 -5.95129e-20)
(0.727984 -0.0844688 -2.98679e-20)
(0.776964 -0.0924838 -1.996e-20)
(0.868473 -0.0966571 2.85527e-20)
(-0.0785021 0.0532775 -3.79077e-19)
(-0.113815 0.0378271 -3.77519e-19)
(-0.146908 0.0370616 -5.82576e-19)
(-0.153387 0.0238669 1.1656e-19)
(-0.141972 0.0215364 2.8794e-19)
(-0.123374 0.015165 2.42954e-19)
(-0.0873799 0.0115822 9.24256e-20)
(-0.0442437 0.00606034 5.65134e-20)
(0.0149287 0.000581373 -7.53635e-19)
(0.0819543 -0.00696669 6.08802e-20)
(0.165885 -0.0153999 1.73666e-19)
(0.252274 -0.0254658 4.37639e-20)
(0.356679 -0.0377403 -3.20103e-19)
(0.453157 -0.0469122 2.55077e-20)
(0.560928 -0.0635661 -1.94838e-20)
(0.654709 -0.0681798 1.46706e-19)
(0.741234 -0.0840106 3.43109e-20)
(0.823165 -0.0873751 -4.99381e-20)
(0.867065 -0.0946652 -6.23561e-20)
(0.936459 -0.0963399 -1.22987e-19)
(-0.080017 0.058176 7.53859e-19)
(-0.11175 0.0410056 -2.75206e-19)
(-0.14052 0.0402457 2.10143e-19)
(-0.141508 0.025653 -4.04073e-19)
(-0.123396 0.0230154 -4.01957e-19)
(-0.0966571 0.0159434 -1.69056e-19)
(-0.0512414 0.011905 2.80361e-19)
(0.00277854 0.00576068 3.33027e-19)
(0.0737759 -0.000304802 3.87352e-20)
(0.153505 -0.00859465 -4.28691e-19)
(0.24955 -0.0176876 -1.11168e-19)
(0.347705 -0.0282424 -2.66879e-20)
(0.459773 -0.0412011 1.29778e-19)
(0.562023 -0.0502906 -7.4585e-20)
(0.668928 -0.0665857 -6.31136e-20)
(0.757674 -0.0713074 -2.17937e-19)
(0.836045 -0.0854475 1.13149e-19)
(0.902114 -0.0881629 1.23363e-20)
(0.937593 -0.0947368 5.01179e-20)
(0.985765 -0.0943707 3.70266e-20)
(-0.081676 0.0628706 -1.49988e-19)
(-0.109509 0.0439425 -4.76789e-19)
(-0.133518 0.0432148 9.13185e-20)
(-0.128444 0.0272387 4.12763e-19)
(-0.102963 0.0242928 5.07281e-19)
(-0.0672571 0.0165571 -1.8026e-19)
(-0.0115797 0.0120869 -7.93823e-19)
(0.0541904 0.00540128 -7.67483e-20)
(0.137577 -0.00117675 3.11868e-19)
(0.230322 -0.00999931 1.80472e-19)
(0.337655 -0.0196407 2.98436e-19)
(0.446094 -0.0303214 1.97277e-19)
(0.562717 -0.0436466 -3.00788e-19)
(0.666758 -0.052451 -1.09714e-19)
(0.768082 -0.0679668 1.45059e-19)
(0.847969 -0.0726429 2.76792e-19)
(0.914162 -0.0851263 -1.57282e-19)
(0.964124 -0.0871883 -3.58379e-20)
(0.989601 -0.0931782 -2.91178e-20)
(1.01963 -0.0913522 -2.84538e-21)
(-0.083477 0.0673464 -4.70254e-19)
(-0.107097 0.0466152 5.76428e-19)
(-0.125899 0.0459478 -9.67743e-20)
(-0.114166 0.0286127 -6.24561e-19)
(-0.0806152 0.0253643 7.61375e-19)
(-0.035071 0.0170341 1.77997e-19)
(0.031729 0.0121685 1.52436e-19)
(0.110076 0.00507465 3.98377e-19)
(0.206231 -0.00190283 2.18332e-20)
(0.311841 -0.0109949 9.54971e-20)
(0.429038 -0.0210118 -1.17834e-19)
(0.545152 -0.0315215 -8.87642e-21)
(0.662564 -0.044863 2.2371e-19)
(0.763778 -0.0532912 3.11562e-19)
(0.855316 -0.0677978 6.07404e-20)
(0.923284 -0.0723527 -2.31091e-19)
(0.975322 -0.0834214 1.61444e-19)
(1.01026 -0.0849091 1.3072e-19)
(1.02594 -0.090504 3.07967e-20)
(1.04184 -0.0877448 9.67355e-20)
(-0.0854173 0.0715901 -2.53302e-19)
(-0.104519 0.0490009 -7.09799e-19)
(-0.117655 0.048423 -2.62948e-20)
(-0.0986267 0.0297666 4.65682e-19)
(-0.0562643 0.0262305 8.80465e-19)
(4.90902e-05 0.0174 -7.78987e-20)
(0.078837 0.0122271 -1.78916e-21)
(0.170496 0.00490037 -2.63192e-19)
(0.279506 -0.00231701 2.61872e-19)
(0.397138 -0.0114006 2.66733e-19)
(0.522018 -0.0215677 -9.11652e-20)
(0.642135 -0.0317198 4.00082e-19)
(0.756125 -0.0447841 4.07549e-19)
(0.850005 -0.0528593 -2.45809e-19)
(0.928654 -0.0663147 -3.26864e-19)
(0.983044 -0.0707515 2.62817e-19)
(1.02091 -0.0807375 -1.50508e-19)
(1.04291 -0.0817694 -8.59973e-21)
(1.05019 -0.0871523 2.78096e-20)
(1.05588 -0.083856 -4.42055e-20)
(-0.0874942 0.0755894 1.52971e-18)
(-0.101775 0.0510772 8.06436e-19)
(-0.108772 0.0506183 7.57787e-20)
(-0.0817587 0.0306966 -3.12268e-19)
(-0.029787 0.0269003 -3.89995e-19)
(0.0382989 0.017697 -2.62755e-19)
(0.129921 0.0123658 -1.35165e-19)
(0.235416 0.00501866 -1.15246e-19)
(0.356912 -0.00223002 -6.1235e-19)
(0.484829 -0.0110586 -8.80974e-20)
(0.614359 -0.0211481 1.18134e-19)
(0.734078 -0.0308832 -6.45037e-19)
(0.840484 -0.043502 1.26701e-20)
(0.923413 -0.051335 5.83597e-20)
(0.987555 -0.0638375 -2.1614e-19)
(1.02827 -0.0682045 -8.3155e-20)
(1.0534 -0.077433 7.21005e-20)
(1.06501 -0.0781268 -3.62267e-20)
(1.06575 -0.0834432 -1.17178e-19)
(1.0645 -0.0798714 4.81917e-21)
(-0.0897042 0.0793334 -1.50767e-18)
(-0.0988642 0.0528225 -1.24876e-18)
(-0.0992262 0.0525113 -3.67525e-19)
(-0.0634701 0.031407 2.81174e-19)
(-0.00101983 0.0273976 3.08079e-19)
(0.0799021 0.0179957 -4.91995e-19)
(0.185136 0.0126998 1.64282e-20)
(0.304624 0.00558472 1.6877e-19)
(0.43757 -0.00145704 2.7584e-19)
(0.573051 -0.00985845 1.49717e-19)
(0.703436 -0.0197099 3.30459e-19)
(0.818205 -0.0290892 1.15169e-19)
(0.913538 -0.0412311 -2.80108e-19)
(0.983303 -0.0489758 -1.49108e-19)
(1.03284 -0.0606913 -8.31312e-20)
(1.06105 -0.0650472 -1.84548e-19)
(1.07563 -0.0737811 -1.9118e-20)
(1.07938 -0.0742344 1.06858e-20)
(1.07539 -0.0795865 1.2391e-19)
(1.06969 -0.0758954 9.51128e-20)
(-0.0920438 0.0828123 6.00635e-19)
(-0.0957831 0.0542154 1.13638e-18)
(-0.0889823 0.0540793 -2.93774e-19)
(-0.0436401 0.0319133 3.94864e-19)
(0.0302437 0.0277564 -1.83491e-19)
(0.125094 0.0183872 7.40568e-19)
(0.244549 0.0133768 2.68355e-19)
(0.377623 0.00675633 5.04102e-19)
(0.520123 0.000143563 -1.498e-19)
(0.659547 -0.00776777 1.31787e-19)
(0.786596 -0.0173358 -9.62664e-20)
(0.892371 -0.0265134 3.94975e-19)
(0.974326 -0.0382458 -1.35971e-19)
(1.03024 -0.0460514 -8.70412e-20)
(1.06629 -0.0571503 2.18443e-19)
(1.08388 -0.0615444 2.74524e-19)
(1.09026 -0.0699674 -1.78966e-19)
(1.08836 -0.070256 1.73272e-19)
(1.08116 -0.0757093 -2.23357e-20)
(1.07275 -0.0719833 -2.54747e-21)
(-0.0945085 0.0860177 -5.67468e-19)
(-0.0925213 0.055236 -1.11883e-18)
(-0.0779911 0.0552996 -3.25212e-19)
(-0.0221097 0.0322216 -3.15529e-19)
(0.0642467 0.0280436 4.69268e-20)
(0.174089 0.0189917 4.96958e-20)
(0.30805 0.0145643 1.3503e-19)
(0.453539 0.00867106 4.92695e-20)
(0.602752 0.00263278 4.72609e-19)
(0.741911 -0.00485176 3.47194e-20)
(0.861595 -0.01421 1.39502e-19)
(0.955391 -0.023384 -2.68819e-19)
(1.02304 -0.0348162 2.14704e-19)
(1.06568 -0.0427945 1.03399e-19)
(1.09009 -0.053415 -6.84141e-20)
(1.09919 -0.0578839 -1.35945e-19)
(1.09953 -0.066107 2.13108e-19)
(1.09373 -0.0662907 2.76549e-19)
(1.08448 -0.0718831 1.76046e-19)
(1.07452 -0.0681627 -1.5716e-19)
(-0.0970934 0.0889423 -6.30436e-19)
(-0.089063 0.0558654 1.78221e-19)
(-0.066185 0.056147 7.01374e-20)
(0.00132255 0.0323537 -3.73763e-19)
(0.101273 0.0283558 7.92261e-19)
(0.227032 0.0199487 -8.48534e-19)
(0.375257 0.0164263 -1.09703e-18)
(0.531072 0.0114152 -1.60521e-18)
(0.68333 0.00596926 -4.18246e-19)
(0.817926 -0.00126702 -6.9306e-19)
(0.926946 -0.010569 -5.91657e-19)
(1.0071 -0.0199286 -3.26776e-19)
(1.06075 -0.0311642 3.75728e-19)
(1.09154 -0.0393796 -1.08815e-19)
(1.10641 -0.0496175 -1.45738e-19)
(1.10904 -0.0541886 3.19364e-20)
(1.10511 -0.0622665 2.17363e-19)
(1.09674 -0.0623952 -7.68383e-20)
(1.08627 -0.0681449 -2.54693e-20)
(1.07552 -0.0644459 5.88797e-20)
(-0.0997927 0.0915798 1.28461e-18)
(-0.0853842 0.0560869 9.22331e-19)
(-0.0534715 0.0565961 6.15912e-19)
(0.0268887 0.0323674 -6.87325e-20)
(0.141623 0.0288049 -8.59218e-19)
(0.283923 0.0214129 1.52159e-19)
(0.445427 0.0190946 4.68177e-19)
(0.608544 0.0149944 1.70124e-18)
(0.759705 0.0100135 3.05436e-19)
(0.885901 0.00277333 6.82526e-20)
(0.982059 -0.00664892 4.25494e-19)
(1.0482 -0.0163358 4.21814e-19)
(1.08903 -0.0274485 -5.97207e-19)
(1.10979 -0.0359241 2.88862e-19)
(1.11716 -0.0458373 -9.20112e-20)
(1.11507 -0.0505333 -5.61325e-20)
(1.10823 -0.0584814 -2.47763e-19)
(1.09823 -0.0586005 4.33074e-20)
(1.08714 -0.0645108 -1.50258e-19)
(1.07606 -0.0608368 -1.02297e-19)
(-0.1026 0.0939251 -1.69539e-19)
(-0.0814511 0.0558862 5.26224e-19)
(-0.0397344 0.0566446 -1.45289e-19)
(0.0548703 0.0323175 -3.04353e-19)
(0.185574 0.0295391 1.20419e-19)
(0.344538 0.0235397 4.45582e-19)
(0.517427 0.022636 -4.75899e-19)
(0.684058 0.0193198 -6.15699e-19)
(0.830004 0.0145585 -4.30123e-19)
(0.944871 0.00704702 -4.11215e-20)
(1.02717 -0.0026463 -1.06426e-19)
(1.07993 -0.0127396 -3.63705e-19)
(1.1096 -0.0237696 1.11936e-19)
(1.12221 -0.0325002 -1.80989e-19)
(1.12391 -0.042118 3.45851e-19)
(1.11848 -0.0469606 -2.93116e-19)
(1.10974 -0.0547686 1.14261e-20)
(1.09878 -0.054923 1.74282e-20)
(1.08746 -0.0609852 2.28188e-19)
(1.07632 -0.0573356 1.42394e-19)
(-0.105506 0.0959735 -1.16685e-18)
(-0.0772162 0.055253 -1.08334e-19)
(-0.0248257 0.0562987 -7.21637e-19)
(0.0855762 0.0322788 2.09456e-19)
(0.233319 0.0307376 -5.09656e-19)
(0.408349 0.0264582 9.12119e-19)
(0.589779 0.0270281 9.7592e-19)
(0.75574 0.0242209 1.85376e-19)
(0.892894 0.0193745 9.63361e-19)
(0.99462 0.0113622 2.84962e-19)
(1.06309 0.00129837 -2.57494e-19)
(1.10375 -0.009223 -1.49628e-19)
(1.1241 -0.0201838 3.03017e-19)
(1.13029 -0.0291483 1.14886e-19)
(1.12782 -0.0384816 2.28908e-19)
(1.12013 -0.0434922 8.04653e-19)
(1.11021 -0.0511349 -7.80823e-20)
(1.09874 -0.0513706 -1.98311e-19)
(1.08744 -0.0575656 -1.55197e-19)
(1.07641 -0.0539406 -7.62468e-20)
(-0.108503 0.0977209 8.1908e-19)
(-0.072618 0.0541834 1.31453e-19)
(-0.00854359 0.0555595 1.84399e-18)
(0.119326 0.0323698 -2.3237e-20)
(0.284896 0.0325898 -2.89809e-19)
(0.474479 0.0302392 -7.63459e-19)
(0.660808 0.032155 6.42759e-19)
(0.822003 0.0294803 -9.98231e-19)
(0.947681 0.0242513 -8.20628e-19)
(1.03554 0.0155779 -3.97875e-19)
(1.09101 0.0050988 3.10375e-19)
(1.12116 -0.00582919 -1.30571e-20)
(1.13395 -0.0167179 -1.23155e-19)
(1.13522 -0.0258875 -3.58806e-19)
(1.1298 -0.0349371 3.49641e-19)
(1.12063 -0.040137 -6.86999e-19)
(1.11001 -0.0475811 7.37235e-20)
(1.09835 -0.0479467 -1.46824e-19)
(1.08723 -0.0542462 8.77989e-20)
(1.07637 -0.0506495 1.93346e-20)
(-0.11158 0.0991631 1.92785e-19)
(-0.0675777 0.0526813 -1.56538e-19)
(0.00936485 0.0544521 -1.72004e-18)
(0.156427 0.032736 6.30649e-19)
(0.340102 0.0352681 1.84953e-18)
(0.541728 0.0348705 -3.33192e-19)
(0.728858 0.0378273 -7.42968e-21)
(0.881728 0.0348768 3.14319e-19)
(0.994281 0.0290245 5.55775e-20)
(1.06845 0.0196058 -1.78217e-19)
(1.11218 0.00871145 1.8136e-19)
(1.1335 -0.00257483 2.80659e-20)
(1.14032 -0.0133808 -6.96509e-20)
(1.13791 -0.0227242 1.69092e-19)
(1.13045 -0.0314869 -5.67727e-19)
(1.12037 -0.0368967 3.59494e-19)
(1.1094 -0.0441056 3.35861e-19)
(1.09776 -0.0446522 2.30923e-19)
(1.0869 -0.0510195 -1.039e-19)
(1.07625 -0.0474596 6.8343e-20)
(-0.114724 0.100295 -6.68955e-19)
(-0.061989 0.0507453 -4.92841e-19)
(0.0292004 0.053049 8.70562e-19)
(0.197129 0.0335468 -1.02043e-18)
(0.39843 0.0388924 -2.70308e-20)
(0.608679 0.040249 1.86077e-19)
(0.792502 0.0438203 -5.12795e-19)
(0.934331 0.04022 2.39416e-19)
(1.03308 0.0335839 -5.73518e-19)
(1.09437 0.0234013 4.83589e-19)
(1.12784 0.0121223 -9.32136e-20)
(1.14193 0.000539591 5.30072e-19)
(1.14412 -0.0101715 -1.69987e-19)
(1.13904 -0.0196568 -4.2219e-19)
(1.13024 -0.0281304 -2.05418e-19)
(1.11962 -0.0337684 4.14352e-20)
(1.10852 -0.0407057 2.28791e-20)
(1.09704 -0.0414869 3.52373e-20)
(1.08648 -0.0478771 -8.57991e-20)
(1.07606 -0.0443692 -8.9018e-20)
(-0.11792 0.101112 1.54087e-18)
(-0.0557129 0.048378 1.25659e-18)
(0.0513195 0.0514727 -6.63101e-19)
(0.241558 0.0349843 8.70671e-19)
(0.459049 0.0434983 -3.49691e-19)
(0.673864 0.0461975 -2.82433e-19)
(0.850694 0.0499141 4.26854e-19)
(0.979717 0.0453685 1.03996e-18)
(1.06478 0.0378682 3.30149e-19)
(1.11436 0.0269511 2.99114e-19)
(1.13911 0.0153353 -2.83435e-20)
(1.14739 0.0035223 -4.42604e-19)
(1.14607 -0.00708382 -4.73575e-20)
(1.13908 -0.0166799 5.1282e-19)
(1.12944 -0.0248661 7.38254e-20)
(1.11857 -0.030747 -3.6816e-19)
(1.1075 -0.0373785 -7.62384e-20)
(1.09624 -0.0384496 1.30716e-21)
(1.08601 -0.0448101 1.57407e-20)
(1.07581 -0.041378 8.20605e-20)
(-0.121153 0.101604 -1.18024e-18)
(-0.0485831 0.0456047 -2.19423e-18)
(0.0761293 0.0498885 -4.41392e-19)
(0.289646 0.0372195 6.15765e-19)
(0.520855 0.049021 -3.3513e-19)
(0.735947 0.0524996 1.02071e-18)
(0.902824 0.0559238 -1.5172e-19)
(1.01817 0.0502317 -4.20393e-19)
(1.09021 0.0418533 -6.93909e-20)
(1.12945 0.0302614 6.59464e-20)
(1.14692 0.0183646 -3.717e-19)
(1.15063 0.00638536 1.03768e-19)
(1.1467 -0.00410979 -5.92288e-20)
(1.1384 -0.0137862 2.56208e-19)
(1.12828 -0.0216927 7.08689e-19)
(1.11732 -0.0278257 3.90746e-19)
(1.10638 -0.0341217 8.52669e-20)
(1.0954 -0.0355389 1.62938e-19)
(1.08548 -0.0418092 5.13583e-20)
(1.0755 -0.0384872 1.37803e-19)
(-0.124402 0.10176 -3.89869e-20)
(-0.0403964 0.0424676 7.89839e-19)
(0.104055 0.0485174 1.73138e-18)
(0.341075 0.0403789 -5.09969e-19)
(0.582586 0.0553044 4.31567e-20)
(0.793862 0.0589378 -1.52653e-18)
(0.948692 0.0617132 1.31804e-19)
(1.05024 0.0547622 -6.33089e-19)
(1.11027 0.0455407 -1.78416e-20)
(1.14057 0.0333496 2.70865e-19)
(1.15207 0.0212287 3.63335e-19)
(1.15224 0.00914184 2.22225e-19)
(1.14639 -0.00124093 -2.98552e-19)
(1.13724 -0.0109678 5.54957e-20)
(1.12687 -0.0186093 -2.0063e-19)
(1.11595 -0.0249968 -4.09316e-19)
(1.10521 -0.030934 -1.77977e-19)
(1.09453 -0.0327524 -2.27423e-19)
(1.08491 -0.0388658 4.44901e-20)
(1.07515 -0.0356992 -2.02941e-19)
(-0.127646 0.101563 1.28917e-18)
(-0.0309038 0.039027 -6.75349e-19)
(0.135492 0.0476344 -4.83992e-19)
(0.395243 0.0445115 -4.28979e-19)
(0.64297 0.0621329 1.17129e-18)
(0.846893 0.0653237 -2.48511e-19)
(0.988422 0.0671951 -1.08446e-18)
(1.07657 0.0589453 8.53896e-19)
(1.12581 0.0489473 5.04543e-20)
(1.1485 0.0362381 -8.4808e-19)
(1.15518 0.0239474 -1.52391e-19)
(1.15265 0.0118041 -2.65353e-19)
(1.14543 0.00153096 -1.15026e-19)
(1.13576 -0.00821746 7.83954e-21)
(1.12532 -0.0156156 -1.85559e-19)
(1.11451 -0.0222519 4.40338e-19)
(1.10401 -0.0278151 -3.13173e-20)
(1.09363 -0.0300869 1.53748e-20)
(1.0843 -0.0359712 -1.78538e-20)
(1.07476 -0.033018 -5.41167e-22)
(-0.13086 0.100992 -5.55646e-19)
(-0.0198075 0.035371 9.21662e-19)
(0.170737 0.047543 -3.61845e-19)
(0.451296 0.0495714 -1.11432e-18)
(0.700879 0.0692736 -2.367e-19)
(0.894662 0.071513 -5.2868e-19)
(1.02236 0.0723237 1.1495e-18)
(1.0979 0.0627878 -6.38065e-19)
(1.1376 0.0520983 2.39453e-19)
(1.15392 0.0389506 3.72149e-19)
(1.15675 0.0265397 -3.07175e-19)
(1.15221 0.014383 2.34576e-19)
(1.14404 0.00421341 1.68194e-19)
(1.13408 -0.0055287 -6.09821e-19)
(1.12367 -0.0127118 2.82406e-19)
(1.11302 -0.0195822 2.10302e-19)
(1.10279 -0.0247663 2.13853e-19)
(1.0927 -0.0275381 5.17967e-20)
(1.08365 -0.0331174 -4.79541e-20)
(1.07433 -0.0304493 4.1379e-20)
(-0.134013 0.100015 -2.31787e-19)
(-0.00676137 0.0316281 -1.01121e-20)
(0.209913 0.0485327 1.39132e-18)
(0.508202 0.0554235 2.7331e-18)
(0.755419 0.0765127 -1.49919e-18)
(0.937088 0.0774074 1.98589e-19)
(1.05101 0.0770836 -8.98654e-19)
(1.11493 0.0663097 -3.10389e-19)
(1.14633 0.0550221 -3.26913e-19)
(1.15737 0.0415102 2.58309e-20)
(1.15718 0.029023 1.81119e-19)
(1.15116 0.0168876 6.94071e-19)
(1.14235 0.00681332 3.30013e-19)
(1.13228 -0.00289635 1.60899e-19)
(1.12196 -0.00989783 -2.20562e-19)
(1.11152 -0.0169785 1.17844e-19)
(1.10156 -0.0217904 -2.98352e-20)
(1.09175 -0.0250999 -1.55143e-19)
(1.08296 -0.0302973 1.34989e-19)
(1.07386 -0.0279999 4.61687e-20)
(-0.137072 0.0985923 -8.02308e-19)
(0.00862331 0.0279789 7.1397e-19)
(0.2529 0.0508247 -3.04342e-18)
(0.564873 0.0618732 -2.6203e-18)
(0.805978 0.0836773 6.60542e-19)
(0.974313 0.0829487 6.05716e-19)
(1.07489 0.0814809 -2.88782e-19)
(1.1283 0.0695381 9.0622e-19)
(1.15257 0.0577476 6.21544e-19)
(1.1593 0.0439377 -6.24078e-20)
(1.15677 0.0314127 -1.89436e-19)
(1.14968 0.0193251 -6.151e-19)
(1.14046 0.00933698 4.51915e-20)
(1.1304 -0.000316561 -2.89505e-20)
(1.12021 -0.00717343 1.8708e-19)
(1.11002 -0.0144319 -4.51983e-19)
(1.10031 -0.0188914 3.89096e-19)
(1.09076 -0.0227646 1.24825e-19)
(1.08224 -0.0275051 -2.36255e-19)
(1.07336 -0.025679 -2.12035e-20)
(-0.139994 0.0966708 6.42959e-19)
(0.0267603 0.0246658 -1.032e-18)
(0.299292 0.0545215 7.88408e-20)
(0.620282 0.068706 1.45812e-18)
(0.852214 0.0906421 1.25991e-18)
(1.00663 0.0881101 -7.0985e-19)
(1.0946 0.0855345 5.11048e-19)
(1.13861 0.0725029 -6.92543e-19)
(1.15683 0.0603022 -5.91866e-19)
(1.16006 0.0462518 -2.32918e-19)
(1.15574 0.0337217 3.51655e-19)
(1.14791 0.0217012 -9.424e-19)
(1.13845 0.0117902 -4.83831e-20)
(1.12848 0.00221319 3.44715e-19)
(1.11845 -0.00453764 -3.0165e-19)
(1.10851 -0.0119341 -9.78192e-20)
(1.09905 -0.0160744 1.51351e-20)
(1.08976 -0.0205227 -2.03876e-19)
(1.0815 -0.0247378 3.94799e-20)
(1.07283 -0.0234968 1.01683e-19)
(-0.142728 0.0941839 -2.20763e-19)
(0.0480577 0.0219942 -2.88751e-19)
(0.348412 0.0595777 1.78735e-18)
(0.673558 0.075723 -1.10145e-18)
(0.89401 0.097325 -5.71403e-19)
(1.03441 0.0928868 -2.1421e-19)
(1.11065 0.0892708 1.14735e-18)
(1.14638 0.0752344 7.47439e-19)
(1.1595 0.0627108 5.55258e-19)
(1.15994 0.0484684 -7.73486e-19)
(1.15426 0.0359611 -6.03044e-19)
(1.14593 0.0240201 3.01325e-19)
(1.13637 0.0141781 -4.00011e-19)
(1.12653 0.00469415 -6.84622e-19)
(1.11668 -0.00198855 -5.91842e-20)
(1.107 -0.00947723 -9.10754e-20)
(1.09778 -0.0133449 -2.06417e-19)
(1.08874 -0.0183625 2.77176e-19)
(1.08072 -0.021995 -9.32373e-20)
(1.07227 -0.0214644 -3.81948e-20)
(-0.14521 0.0910555 -1.52611e-18)
(0.0728776 0.0203145 -1.11049e-18)
(0.399368 0.0658063 -5.0833e-19)
(0.724033 0.0827611 -9.54291e-19)
(0.931422 0.103679 -3.11324e-19)
(1.05809 0.0972892 -5.02499e-19)
(1.12357 0.0927195 -9.96802e-19)
(1.15205 0.0777617 -1.23465e-18)
(1.16093 0.0649956 2.86865e-19)
(1.15914 0.0506009 -5.33645e-20)
(1.15247 0.0381395 1.54257e-19)
(1.14382 0.0262852 6.1372e-19)
(1.13424 0.0165057 2.17529e-19)
(1.12458 0.00712652 6.85915e-19)
(1.1149 0.000476903 2.47922e-19)
(1.1055 -0.00705493 5.05403e-19)
(1.09648 -0.0107089 1.09259e-19)
(1.0877 -0.0162709 1.72937e-19)
(1.07992 -0.0192768 2.69571e-19)
(1.07168 -0.0195911 4.40249e-20)
(-0.147372 0.0872145 5.02378e-19)
(0.101493 0.0199742 6.76893e-19)
(0.451165 0.0729214 1.3157e-18)
(0.771258 0.0896978 2.21352e-18)
(0.964626 0.109683 -5.05829e-19)
(1.07808 0.101336 4.38397e-19)
(1.1338 0.0959112 6.95496e-19)
(1.15601 0.0801114 9.81339e-19)
(1.16137 0.0671759 -1.79589e-19)
(1.15785 0.0526606 9.55262e-19)
(1.15046 0.0402644 4.47896e-19)
(1.14163 0.0284988 -5.71567e-19)
(1.13209 0.0187772 -4.13691e-19)
(1.12263 0.00950969 8.53916e-21)
(1.11313 0.00286306 -2.83515e-19)
(1.104 -0.00466254 -3.15986e-19)
(1.09516 -0.00817302 2.10219e-19)
(1.08665 -0.014231 3.67884e-19)
(1.07906 -0.0165797 -1.14606e-19)
(1.07104 -0.0178847 -1.91984e-19)
(-0.149129 0.0825897 1.75967e-18)
(0.134014 0.0212806 1.44523e-18)
(0.502818 0.0806019 9.64389e-19)
(0.814974 0.0964477 -1.96419e-18)
(0.993873 0.115334 4.11894e-19)
(1.09483 0.105052 2.23392e-19)
(1.14176 0.0988757 -1.52743e-19)
(1.15857 0.082308 -1.18128e-19)
(1.16105 0.069268 4.11495e-19)
(1.15619 0.0546566 -5.8552e-19)
(1.14829 0.0423413 -7.38782e-20)
(1.13938 0.0306628 7.57054e-19)
(1.12994 0.0209965 7.50777e-19)
(1.12067 0.0118425 -1.60201e-19)
(1.11137 0.00517541 4.34648e-19)
(1.1025 -0.00229819 2.12924e-19)
(1.09383 -0.0057437 -1.77562e-19)
(1.0856 -0.0122191 -2.9465e-19)
(1.07815 -0.013893 3.13762e-20)
(1.07034 -0.0163581 4.31429e-21)
(-0.150369 0.0771117 -1.12505e-18)
(0.170342 0.0244487 4.10916e-19)
(0.553449 0.0885526 -3.36427e-18)
(0.855088 0.102954 6.756e-19)
(1.01946 0.12064 -1.99655e-19)
(1.10871 0.108464 -5.83882e-19)
(1.1478 0.101641 -1.2193e-18)
(1.16001 0.0843731 -5.1076e-19)
(1.16015 0.0712858 -9.9663e-19)
(1.15426 0.0565965 5.05697e-19)
(1.14602 0.0443747 -2.39156e-19)
(1.1371 0.0327787 -8.24377e-19)
(1.12779 0.0231667 -8.46475e-19)
(1.11872 0.0141236 2.26704e-19)
(1.10962 0.00742028 -2.0359e-19)
(1.101 3.63802e-05 -1.31208e-19)
(1.09248 -0.00342553 9.18243e-20)
(1.08453 -0.0102013 2.05841e-19)
(1.07714 -0.0112098 -8.8584e-20)
(1.0696 -0.0150385 1.37526e-19)
(-0.150955 0.0707441 -1.2432e-18)
(0.210157 0.0295365 1.62475e-18)
(0.602343 0.0965444 1.48861e-18)
(0.891627 0.109184 -1.79508e-18)
(1.04169 0.125616 1.24543e-18)
(1.12009 0.1116 -1.07213e-18)
(1.15222 0.104233 -5.7818e-19)
(1.16055 0.0863254 6.32141e-19)
(1.15879 0.0732409 -1.85633e-19)
(1.15214 0.0584861 -2.69767e-19)
(1.14368 0.046368 2.06088e-19)
(1.13481 0.0348478 -1.9644e-19)
(1.12564 0.0252905 5.52348e-20)
(1.11678 0.0163519 -3.51927e-19)
(1.10788 0.00960423 -1.03644e-19)
(1.09949 0.00233568 9.47166e-20)
(1.09113 -0.00121666 -4.79638e-20)
(1.08345 -0.00813808 -3.04545e-19)
(1.07603 -0.00855725 1.42202e-19)
(1.06882 -0.0139792 4.30889e-20)
(-0.150726 0.0635035 1.04252e-18)
(0.252936 0.0364157 -7.66764e-19)
(0.648971 0.104426 2.64913e-19)
(0.924708 0.11512 1.37072e-18)
(1.06088 0.130282 -2.48518e-19)
(1.1293 0.114486 5.87795e-19)
(1.15531 0.106676 -2.41009e-19)
(1.16036 0.0881814 -6.57581e-19)
(1.15709 0.0751425 -8.46704e-20)
(1.14988 0.0603303 3.15057e-19)
(1.1413 0.0483237 -2.31008e-19)
(1.13251 0.0368713 8.0785e-19)
(1.12351 0.0273697 1.44677e-19)
(1.11484 0.0185266 2.55353e-19)
(1.10614 0.0117332 2.69436e-19)
(1.09798 0.00459182 -4.33852e-19)
(1.08979 0.000895337 -1.29494e-19)
(1.08235 -0.00600165 1.48532e-19)
(1.07486 -0.00603917 1.84334e-19)
(1.06802 -0.0131993 -1.88138e-19)
(-0.14949 0.0554768 -1.06342e-18)
(0.29799 0.0447803 -1.95189e-18)
(0.692975 0.112114 -2.10883e-19)
(0.9545 0.120754 5.55967e-19)
(1.07734 0.134662 2.32108e-19)
(1.13665 0.117148 6.55448e-19)
(1.15728 0.108989 2.98311e-19)
(1.15961 0.089955 6.9423e-19)
(1.15512 0.0769983 -6.21678e-19)
(1.14752 0.0621328 -2.34201e-19)
(1.13889 0.0502437 1.87431e-19)
(1.13022 0.0388501 -7.96351e-19)
(1.12138 0.029406 4.9002e-19)
(1.11291 0.0206479 -2.74224e-19)
(1.10442 0.0138118 -2.81766e-19)
(1.09647 0.00679732 1.08151e-19)
(1.08846 0.00293197 1.38012e-19)
(1.08122 -0.0038044 9.67259e-20)
(1.07372 -0.00382139 -9.43786e-20)
(1.06714 -0.0127825 1.67003e-19)
(-0.147026 0.0468373 1.24836e-18)
(0.344548 0.0541896 1.07103e-18)
(0.734142 0.11957 8.46169e-19)
(0.981203 0.126088 -2.03433e-18)
(1.09134 0.138779 -1.21006e-18)
(1.14238 0.119611 -1.33588e-18)
(1.15833 0.111192 2.4259e-19)
(1.1584 0.0916584 -6.33467e-19)
(1.15297 0.0788147 2.30918e-19)
(1.1451 0.0638969 -2.82596e-19)
(1.13647 0.0521297 -1.74719e-19)
(1.12793 0.0407857 1.84116e-19)
(1.11927 0.0314006 -6.72161e-19)
(1.11099 0.0227163 3.85888e-19)
(1.1027 0.0158434 9.11685e-20)
(1.09495 0.00894798 2.10297e-19)
(1.08713 0.00491422 -1.77625e-19)
(1.08009 -0.00161082 5.27585e-20)
(1.07268 -0.00201454 -1.26302e-19)
(1.06639 -0.00960726 -4.29894e-20)
(-0.143082 0.0378555 1.1328e-18)
(0.391838 0.0641391 -3.65322e-19)
(0.772378 0.126781 -1.35704e-18)
(1.00504 0.131128 1.21243e-18)
(1.10316 0.142656 2.10676e-19)
(1.14674 0.121898 1.72708e-18)
(1.15862 0.113301 -8.94711e-19)
(1.15684 0.0933013 4.62116e-19)
(1.15067 0.0805964 9.19374e-19)
(1.14264 0.0656246 1.02277e-19)
(1.13405 0.0539825 1.85914e-19)
(1.12565 0.0426785 7.62066e-19)
(1.11716 0.0333542 2.03105e-19)
(1.10908 0.0247324 -2.17024e-19)
(1.10098 0.0178295 -1.76845e-19)
(1.09343 0.0110425 -2.52312e-19)
(1.08581 0.00685024 1.98143e-19)
(1.07894 0.000502322 -1.7366e-19)
(1.07171 4.69558e-05 8.43293e-20)
(1.06555 -0.00783538 1.32652e-19)
(-0.13738 0.0289012 -1.82459e-18)
(0.439161 0.0741388 -1.4202e-18)
(0.807681 0.133748 -1.98534e-18)
(1.02621 0.13588 1.86727e-18)
(1.11304 0.146314 1.09575e-18)
(1.14993 0.124028 -1.35891e-18)
(1.15828 0.115331 1.10301e-18)
(1.155 0.0948921 6.93853e-19)
(1.14826 0.082347 -9.76609e-19)