/*--------------------------------*- C++ -*----------------------------------*\
  =========                 |
  \\      /  F ield         | OpenFOAM: The Open Source CFD Toolbox
   \\    /   O peration     | Website:  https://openfoam.org
    \\  /    A nd           | Version:  7
     \\/     M anipulation  |
\*---------------------------------------------------------------------------*/
FoamFile
{
    version     2.0;
    format      ascii;
    class       volVectorField;
    location    "3.5";
    object      U;
}
// * * * * * * * * * * * * * * * * * * * * * * * * * * * * * * * * * * * * * //

dimensions      [0 1 -1 0 0 0 0];

internalField   nonuniform List<vector> 
2413
(
(2.08471 -0.378677 0)
(2.07422 -0.414292 0)
(2.06502 -0.450084 0)
(2.05452 -0.487519 0)
(2.04387 -0.52448 0)
(2.03469 -0.558771 0)
(2.02706 -0.587775 0)
(2.02051 -0.613347 0)
(2.01221 -0.639333 0)
(2.01202 -0.652477 0)
(2.00435 -0.671901 0)
(2.00641 -0.679497 0)
(2.00048 -0.693765 0)
(2.00349 -0.695634 0)
(1.99909 -0.704019 0)
(2.00095 -0.706973 0)
(1.99964 -0.710032 0)
(2.00083 -0.71183 0)
(2.00067 -0.713771 0)
(2.00131 -0.714696 0)
(2.00236 -0.714584 0)
(2.00348 -0.714832 0)
(2.00494 -0.714944 0)
(2.00669 -0.714403 0)
(2.00899 -0.713383 0)
(2.01124 -0.712874 0)
(2.01401 -0.711859 0)
(2.01673 -0.710349 0)
(2.01919 -0.709058 0)
(2.0218 -0.707601 0)
(2.02426 -0.705877 0)
(2.02653 -0.704168 0)
(2.02852 -0.703011 0)
(2.03063 -0.701635 0)
(2.03285 -0.6996 0)
(2.03454 -0.698391 0)
(2.03634 -0.697637 0)
(2.0386 -0.696224 0)
(2.04035 -0.695008 0)
(2.04201 -0.694113 0)
(2.04379 -0.69336 0)
(2.04533 -0.69269 0)
(2.04711 -0.691417 0)
(2.04871 -0.690474 0)
(2.04999 -0.690648 0)
(2.05188 -0.689976 0)
(2.05359 -0.688762 0)
(2.05466 -0.68891 0)
(2.05625 -0.688609 0)
(2.0578 -0.687702 0)
(2.05852 -0.687906 0)
(2.05975 -0.687349 0)
(2.06085 -0.686919 0)
(2.06168 -0.686741 0)
(2.06323 -0.685772 0)
(2.0644 -0.685546 0)
(2.06578 -0.685356 0)
(2.06723 -0.685038 0)
(2.06856 -0.684694 0)
(2.07024 -0.683835 0)
(2.07142 -0.683672 0)
(2.07265 -0.683841 0)
(2.07431 -0.683238 0)
(2.07577 -0.68344 0)
(2.07718 -0.684059 0)
(2.07878 -0.683512 0)
(2.07985 -0.682794 0)
(2.08095 -0.680969 0)
(2.08062 -0.678607 0)
(2.08027 -0.678384 0)
(2.07964 -0.676539 0)
(2.07934 -0.673034 0)
(2.07733 -0.667856 0)
(2.06973 -0.653557 0)
(2.05512 -0.631323 0)
(2.03158 -0.599273 0)
(1.99711 -0.527911 0)
(1.97483 -0.474373 0)
(1.96039 -0.458874 0)
(1.94734 -0.434004 0)
(1.9414 -0.412074 0)
(1.93676 -0.407378 0)
(1.9366 -0.410297 0)
(1.93887 -0.415198 0)
(1.94409 -0.416918 0)
(1.94823 -0.416728 0)
(1.9501 -0.415043 0)
(1.95077 -0.413408 0)
(1.95246 -0.412161 0)
(1.95398 -0.412243 0)
(1.95551 -0.411652 0)
(1.95737 -0.409628 0)
(1.95837 -0.406964 0)
(1.95884 -0.404764 0)
(1.96074 -0.403802 0)
(1.96241 -0.403358 0)
(1.96371 -0.402669 0)
(1.96543 -0.401328 0)
(1.96684 -0.399827 0)
(1.96836 -0.397961 0)
(1.97052 -0.39644 0)
(1.97318 -0.395361 0)
(1.9746 -0.394351 0)
(1.9757 -0.393234 0)
(1.9768 -0.392017 0)
(1.97724 -0.391367 0)
(1.97795 -0.390193 0)
(1.97882 -0.388713 0)
(1.97935 -0.387126 0)
(1.98002 -0.385386 0)
(1.981 -0.384331 0)
(1.98143 -0.383343 0)
(1.9823 -0.382527 0)
(1.98309 -0.381738 0)
(1.98437 -0.381426 0)
(1.9861 -0.378982 0)
(2.1051 -0.247428 0)
(2.10571 -0.248041 0)
(2.10639 -0.249537 0)
(2.10715 -0.252232 0)
(2.10695 -0.255369 0)
(2.10651 -0.259523 0)
(2.10618 -0.26523 0)
(2.10477 -0.273692 0)
(2.10155 -0.286257 0)
(2.09617 -0.305149 0)
(2.0894 -0.329851 0)
(2.08116 -0.359646 0)
(2.0714 -0.39356 0)
(2.05955 -0.432222 0)
(2.04858 -0.4719 0)
(2.03921 -0.507574 0)
(2.02869 -0.544137 0)
(2.02029 -0.575397 0)
(2.01252 -0.6044 0)
(2.00906 -0.622874 0)
(2.00139 -0.645744 0)
(1.9988 -0.659961 0)
(1.99606 -0.670766 0)
(1.9945 -0.679069 0)
(1.99185 -0.68843 0)
(1.99078 -0.694335 0)
(1.99298 -0.695046 0)
(1.99096 -0.69989 0)
(1.99154 -0.702533 0)
(1.99231 -0.703074 0)
(1.9932 -0.703261 0)
(1.99425 -0.704316 0)
(1.99592 -0.70447 0)
(1.99786 -0.703969 0)
(1.99995 -0.703623 0)
(2.00242 -0.702842 0)
(2.00536 -0.701436 0)
(2.00796 -0.70037 0)
(2.01045 -0.699308 0)
(2.01307 -0.697594 0)
(2.01553 -0.695581 0)
(2.01758 -0.694256 0)
(2.02 -0.69263 0)
(2.02239 -0.690849 0)
(2.02437 -0.689735 0)
(2.02643 -0.688668 0)
(2.02858 -0.687156 0)
(2.0304 -0.685838 0)
(2.03196 -0.685381 0)
(2.03383 -0.684635 0)
(2.03589 -0.683087 0)
(2.03737 -0.682464 0)
(2.03891 -0.682361 0)
(2.04106 -0.681363 0)
(2.04276 -0.680417 0)
(2.04424 -0.679989 0)
(2.04587 -0.679582 0)
(2.04733 -0.6791 0)
(2.0489 -0.678108 0)
(2.05033 -0.677633 0)
(2.05165 -0.67805 0)
(2.05342 -0.677693 0)
(2.05503 -0.676721 0)
(2.05617 -0.677089 0)
(2.05756 -0.677281 0)
(2.05912 -0.676461 0)
(2.05994 -0.676415 0)
(2.06087 -0.676272 0)
(2.06201 -0.676011 0)
(2.06308 -0.675819 0)
(2.06446 -0.675225 0)
(2.06582 -0.674757 0)
(2.06725 -0.67437 0)
(2.06851 -0.674274 0)
(2.06996 -0.673894 0)
(2.07175 -0.672944 0)
(2.07295 -0.672482 0)
(2.07404 -0.672348 0)
(2.07552 -0.671588 0)
(2.07678 -0.670903 0)
(2.07792 -0.670438 0)
(2.07908 -0.670191 0)
(2.08047 -0.670881 0)
(2.08213 -0.671554 0)
(2.08371 -0.67136 0)
(2.08488 -0.670949 0)
(2.08558 -0.668831 0)
(2.08531 -0.665657 0)
(2.08496 -0.66492 0)
(2.085 -0.662382 0)
(2.08455 -0.658131 0)
(2.08079 -0.650882 0)
(2.07044 -0.636814 0)
(2.05246 -0.603193 0)
(2.02871 -0.567238 0)
(2.00193 -0.529878 0)
(1.96933 -0.465596 0)
(1.95467 -0.428518 0)
(1.94688 -0.422029 0)
(1.94921 -0.415037 0)
(1.95101 -0.409972 0)
(1.9497 -0.408321 0)
(1.94765 -0.408364 0)
(1.94989 -0.411835 0)
(1.95382 -0.414365 0)
(1.95643 -0.414784 0)
(1.95801 -0.414112 0)
(1.95927 -0.411843 0)
(1.96008 -0.408569 0)
(1.9611 -0.405783 0)
(1.96258 -0.405019 0)
(1.96428 -0.404412 0)
(1.96511 -0.403806 0)
(1.96637 -0.402595 0)
(1.96798 -0.401042 0)
(1.96964 -0.399798 0)
(1.97189 -0.39848 0)
(1.97483 -0.396431 0)
(1.9767 -0.394573 0)
(1.97758 -0.39361 0)
(1.97923 -0.391817 0)
(1.97975 -0.390514 0)
(1.98049 -0.389468 0)
(1.98152 -0.388433 0)
(1.98226 -0.387092 0)
(1.98312 -0.385357 0)
(1.98445 -0.383841 0)
(1.98535 -0.382231 0)
(1.98645 -0.380476 0)
(1.98761 -0.378862 0)
(1.98907 -0.378309 0)
(1.99073 -0.376261 0)
(2.10304 -0.241604 0)
(2.10229 -0.247214 0)
(2.10096 -0.255198 0)
(2.09838 -0.266863 0)
(2.09376 -0.283405 0)
(2.08652 -0.306958 0)
(2.07759 -0.336925 0)
(2.06752 -0.371836 0)
(2.05672 -0.409745 0)
(2.04492 -0.449132 0)
(2.03272 -0.490876 0)
(2.02336 -0.526315 0)
(2.01532 -0.55793 0)
(2.00465 -0.589488 0)
(2.00189 -0.610205 0)
(1.9926 -0.634916 0)
(1.99532 -0.643225 0)
(1.98557 -0.663592 0)
(1.98888 -0.667253 0)
(1.98305 -0.676875 0)
(1.98524 -0.680946 0)
(1.98251 -0.686956 0)
(1.98347 -0.68804 0)
(1.98337 -0.689725 0)
(1.98335 -0.692263 0)
(1.98453 -0.6931 0)
(1.98585 -0.692896 0)
(1.98786 -0.692655 0)
(1.98982 -0.692996 0)
(1.99242 -0.692272 0)
(1.99525 -0.691186 0)
(1.99801 -0.690436 0)
(2.00115 -0.689026 0)
(2.00404 -0.687251 0)
(2.00648 -0.685843 0)
(2.00905 -0.684325 0)
(2.01165 -0.682371 0)
(2.01387 -0.680784 0)
(2.01576 -0.679836 0)
(2.01791 -0.678287 0)
(2.01984 -0.676739 0)
(2.02153 -0.676051 0)
(2.02363 -0.675004 0)
(2.02562 -0.673681 0)
(2.02723 -0.673203 0)
(2.02905 -0.672857 0)
(2.03119 -0.671752 0)
(2.03289 -0.670901 0)
(2.03431 -0.67101 0)
(2.03598 -0.670648 0)
(2.03789 -0.66934 0)
(2.0393 -0.669083 0)
(2.04079 -0.66938 0)
(2.04279 -0.668716 0)
(2.04441 -0.667896 0)
(2.04579 -0.667759 0)
(2.04732 -0.667775 0)
(2.0489 -0.667442 0)
(2.05042 -0.66673 0)
(2.05178 -0.666692 0)
(2.05313 -0.667285 0)
(2.05482 -0.667083 0)
(2.05638 -0.666147 0)
(2.05752 -0.666296 0)
(2.0587 -0.666695 0)
(2.06021 -0.666064 0)
(2.06123 -0.66566 0)
(2.06216 -0.665623 0)
(2.06341 -0.665262 0)
(2.06463 -0.664802 0)
(2.06585 -0.664469 0)
(2.0674 -0.664024 0)
(2.06904 -0.663532 0)
(2.0704 -0.663383 0)
(2.07185 -0.66285 0)
(2.07353 -0.661656 0)
(2.0748 -0.660988 0)
(2.07595 -0.660872 0)
(2.07732 -0.660408 0)
(2.07873 -0.65952 0)
(2.07992 -0.658516 0)
(2.08083 -0.65813 0)
(2.08177 -0.658096 0)
(2.08312 -0.657088 0)
(2.08423 -0.655641 0)
(2.0853 -0.655956 0)
(2.08674 -0.656715 0)
(2.08874 -0.656284 0)
(2.09046 -0.655733 0)
(2.08995 -0.653374 0)
(2.0897 -0.651856 0)
(2.08941 -0.649929 0)
(2.08943 -0.647257 0)
(2.08817 -0.642565 0)
(2.08199 -0.6306 0)
(2.06788 -0.612923 0)
(2.04382 -0.579265 0)
(2.01743 -0.526178 0)
(1.99787 -0.500636 0)
(1.98171 -0.467728 0)
(1.9601 -0.430179 0)
(1.95526 -0.407689 0)
(1.95017 -0.407096 0)
(1.95282 -0.413009 0)
(1.95655 -0.415314 0)
(1.95941 -0.4151 0)
(1.96062 -0.414809 0)
(1.9616 -0.414005 0)
(1.96358 -0.41326 0)
(1.96453 -0.412494 0)
(1.96571 -0.411525 0)
(1.96715 -0.409994 0)
(1.9682 -0.407646 0)
(1.96863 -0.40477 0)
(1.97048 -0.401922 0)
(1.97239 -0.40108 0)
(1.97456 -0.399872 0)
(1.97687 -0.397657 0)
(1.97843 -0.395848 0)
(1.97946 -0.394708 0)
(1.9808 -0.392929 0)
(1.98119 -0.390864 0)
(1.98252 -0.389128 0)
(1.98391 -0.387594 0)
(1.98451 -0.385908 0)
(1.98598 -0.383828 0)
(1.98756 -0.382104 0)
(1.9884 -0.380602 0)
(1.9896 -0.379158 0)
(1.99071 -0.377614 0)
(1.99216 -0.377004 0)
(1.99422 -0.374444 0)
(2.085 -0.281683 0)
(2.07612 -0.310554 0)
(2.06585 -0.345257 0)
(2.05412 -0.384274 0)
(2.04231 -0.425106 0)
(2.0303 -0.46467 0)
(2.01808 -0.50535 0)
(2.0074 -0.541289 0)
(2.00241 -0.567296 0)
(1.99081 -0.598889 0)
(1.99131 -0.613904 0)
(1.98102 -0.637683 0)
(1.98269 -0.643553 0)
(1.97803 -0.655197 0)
(1.97464 -0.667415 0)
(1.97711 -0.668143 0)
(1.97571 -0.672131 0)
(1.97467 -0.678499 0)
(1.97501 -0.679849 0)
(1.97638 -0.679928 0)
(1.97716 -0.680642 0)
(1.97828 -0.681905 0)
(1.97963 -0.682098 0)
(1.98198 -0.681087 0)
(1.98447 -0.680521 0)
(1.9873 -0.679938 0)
(1.99045 -0.678691 0)
(1.99344 -0.677099 0)
(1.9961 -0.67586 0)
(1.99908 -0.674113 0)
(2.00181 -0.672284 0)
(2.00414 -0.671023 0)
(2.00659 -0.669484 0)
(2.00908 -0.667613 0)
(2.0111 -0.666694 0)
(2.01322 -0.665788 0)
(2.01536 -0.664316 0)
(2.01715 -0.663413 0)
(2.01896 -0.663127 0)
(2.02102 -0.662182 0)
(2.02268 -0.661357 0)
(2.02411 -0.661297 0)
(2.02595 -0.660634 0)
(2.02778 -0.659633 0)
(2.0293 -0.659623 0)
(2.031 -0.659654 0)
(2.03297 -0.65877 0)
(2.03451 -0.658178 0)
(2.03586 -0.658614 0)
(2.03745 -0.658567 0)
(2.03925 -0.657591 0)
(2.04067 -0.657506 0)
(2.04215 -0.65797 0)
(2.04405 -0.65761 0)
(2.04571 -0.656933 0)
(2.04713 -0.656936 0)
(2.04859 -0.657164 0)
(2.05021 -0.656824 0)
(2.05177 -0.656127 0)
(2.05314 -0.656122 0)
(2.05447 -0.656653 0)
(2.05609 -0.656419 0)
(2.0577 -0.655417 0)
(2.05891 -0.655338 0)
(2.06007 -0.655776 0)
(2.06157 -0.655155 0)
(2.06272 -0.654351 0)
(2.06366 -0.654248 0)
(2.06505 -0.653869 0)
(2.06653 -0.653169 0)
(2.06774 -0.652693 0)
(2.06918 -0.652012 0)
(2.0708 -0.651301 0)
(2.07224 -0.651065 0)
(2.07385 -0.650619 0)
(2.07566 -0.649565 0)
(2.07707 -0.648618 0)
(2.07817 -0.64828 0)
(2.07921 -0.647993 0)
(2.08052 -0.647066 0)
(2.0818 -0.645744 0)
(2.08271 -0.645346 0)
(2.08353 -0.645463 0)
(2.08489 -0.644544 0)
(2.08618 -0.643404 0)
(2.0872 -0.643398 0)
(2.08857 -0.643121 0)
(2.09022 -0.64221 0)
(2.09165 -0.641821 0)
(2.09298 -0.641383 0)
(2.09466 -0.641038 0)
(2.09498 -0.639744 0)
(2.09453 -0.637649 0)
(2.09384 -0.636925 0)
(2.09355 -0.634491 0)
(2.0931 -0.630933 0)
(2.08967 -0.625199 0)
(2.07936 -0.608204 0)
(2.06253 -0.576605 0)
(2.0371 -0.547495 0)
(2.00643 -0.503718 0)
(1.98459 -0.457646 0)
(1.97233 -0.442461 0)
(1.96913 -0.430586 0)
(1.96751 -0.421029 0)
(1.96523 -0.413833 0)
(1.96272 -0.410879 0)
(1.96327 -0.41128 0)
(1.9655 -0.412444 0)
(1.96821 -0.412711 0)
(1.97026 -0.411912 0)
(1.97145 -0.410013 0)
(1.97268 -0.406948 0)
(1.97366 -0.404085 0)
(1.97472 -0.40276 0)
(1.97644 -0.401759 0)
(1.97827 -0.399588 0)
(1.97917 -0.397162 0)
(1.98163 -0.393973 0)
(1.98309 -0.391532 0)
(1.98347 -0.39031 0)
(1.98384 -0.388776 0)
(1.98482 -0.387653 0)
(1.98585 -0.386476 0)
(1.98624 -0.385299 0)
(1.9876 -0.383318 0)
(1.98935 -0.381421 0)
(1.9904 -0.379374 0)
(1.9918 -0.377392 0)
(1.99309 -0.375498 0)
(1.99465 -0.374967 0)
(1.99692 -0.372658 0)
(2.02788 -0.439194 0)
(2.01631 -0.478457 0)
(2.00587 -0.51602 0)
(1.9931 -0.552504 0)
(1.99076 -0.573291 0)
(1.97842 -0.6025 0)
(1.97919 -0.614774 0)
(1.97136 -0.63377 0)
(1.96866 -0.644499 0)
(1.9719 -0.647547 0)
(1.96593 -0.658351 0)
(1.96648 -0.662534 0)
(1.96668 -0.663388 0)
(1.96659 -0.666159 0)
(1.96685 -0.668973 0)
(1.96835 -0.669651 0)
(1.97016 -0.669423 0)
(1.97242 -0.669603 0)
(1.97441 -0.669904 0)
(1.97717 -0.669005 0)
(1.98015 -0.667656 0)
(1.98286 -0.666803 0)
(1.98569 -0.665669 0)
(1.98867 -0.663736 0)
(1.99123 -0.662009 0)
(1.99351 -0.660772 0)
(1.99622 -0.658948 0)
(1.99875 -0.657455 0)
(2.00112 -0.65658 0)
(2.00365 -0.655158 0)
(2.00574 -0.65384 0)
(2.00758 -0.653266 0)
(2.00982 -0.65234 0)
(2.01202 -0.651258 0)
(2.01394 -0.651008 0)
(2.01595 -0.650649 0)
(2.01788 -0.649765 0)
(2.01949 -0.649499 0)
(2.02116 -0.64947 0)
(2.02292 -0.648699 0)
(2.02436 -0.648309 0)
(2.02573 -0.648652 0)
(2.02755 -0.648331 0)
(2.02931 -0.647667 0)
(2.03081 -0.647911 0)
(2.03241 -0.648172 0)
(2.03424 -0.6475 0)
(2.03573 -0.647078 0)
(2.03709 -0.647623 0)
(2.03865 -0.647739 0)
(2.04048 -0.647024 0)
(2.04202 -0.646932 0)
(2.04356 -0.647321 0)
(2.0454 -0.646992 0)
(2.04711 -0.646244 0)
(2.04858 -0.646161 0)
(2.05006 -0.646384 0)
(2.05176 -0.645976 0)
(2.05341 -0.645078 0)
(2.05483 -0.644801 0)
(2.05613 -0.64526 0)
(2.05764 -0.645076 0)
(2.05932 -0.643919 0)
(2.06058 -0.643571 0)
(2.06177 -0.643923 0)
(2.06342 -0.643288 0)
(2.06475 -0.642223 0)
(2.06567 -0.641989 0)
(2.06688 -0.641605 0)
(2.06846 -0.64076 0)
(2.06985 -0.640177 0)
(2.07141 -0.639494 0)
(2.07304 -0.638626 0)
(2.0744 -0.638089 0)
(2.07569 -0.637566 0)
(2.07732 -0.636537 0)
(2.07884 -0.635523 0)
(2.08007 -0.635245 0)
(2.08118 -0.63529 0)
(2.08246 -0.634586 0)
(2.08374 -0.633131 0)
(2.08463 -0.632501 0)
(2.08535 -0.632647 0)
(2.08656 -0.631827 0)
(2.0878 -0.630199 0)
(2.08846 -0.629383 0)
(2.08915 -0.628987 0)
(2.09043 -0.628407 0)
(2.09213 -0.628109 0)
(2.09407 -0.628438 0)
(2.09616 -0.628951 0)
(2.09809 -0.628652 0)
(2.09959 -0.62774 0)
(2.10006 -0.626809 0)
(2.09921 -0.62425 0)
(2.09874 -0.622369 0)
(2.09822 -0.621164 0)
(2.0981 -0.618703 0)
(2.09636 -0.61299 0)
(2.08966 -0.602459 0)
(2.07517 -0.585943 0)
(2.04867 -0.53837 0)
(2.02374 -0.490531 0)
(2.00445 -0.472238 0)
(1.98087 -0.434542 0)
(1.97164 -0.407915 0)
(1.96366 -0.40724 0)
(1.96424 -0.41006 0)
(1.9676 -0.409492 0)
(1.96981 -0.408516 0)
(1.97293 -0.405544 0)
(1.97389 -0.403403 0)
(1.97746 -0.400368 0)
(1.97853 -0.399882 0)
(1.97935 -0.400281 0)
(1.98036 -0.399969 0)
(1.98173 -0.397867 0)
(1.98246 -0.396053 0)
(1.98408 -0.393554 0)
(1.98619 -0.390864 0)
(1.98685 -0.388859 0)
(1.98686 -0.387541 0)
(1.98786 -0.385961 0)
(1.98868 -0.384367 0)
(1.989 -0.383184 0)
(1.99008 -0.381645 0)
(1.9912 -0.380885 0)
(1.99215 -0.379772 0)
(1.99321 -0.37822 0)
(1.99444 -0.376149 0)
(1.99647 -0.374957 0)
(1.99919 -0.37112 0)
(1.98188 -0.574728 0)
(1.96695 -0.603483 0)
(1.96804 -0.613767 0)
(1.96276 -0.627326 0)
(1.95866 -0.639205 0)
(1.96151 -0.640602 0)
(1.95698 -0.647909 0)
(1.95745 -0.653208 0)
(1.95792 -0.653576 0)
(1.95861 -0.655688 0)
(1.95971 -0.656728 0)
(1.96069 -0.657914 0)
(1.96287 -0.657577 0)
(1.96563 -0.657126 0)
(1.9685 -0.656769 0)
(1.97164 -0.656112 0)
(1.97514 -0.654652 0)
(1.97824 -0.653095 0)
(1.98092 -0.651899 0)
(1.98375 -0.650246 0)
(1.98652 -0.648281 0)
(1.98875 -0.647189 0)
(1.991 -0.645971 0)
(1.99324 -0.644297 0)
(1.99524 -0.643346 0)
(1.99747 -0.642634 0)
(1.99991 -0.641404 0)
(2.00191 -0.640728 0)
(2.0039 -0.640476 0)
(2.0062 -0.639619 0)
(2.00825 -0.639027 0)
(2.01017 -0.638999 0)
(2.01225 -0.638452 0)
(2.01411 -0.637954 0)
(2.0159 -0.63804 0)
(2.01784 -0.637863 0)
(2.01956 -0.637438 0)
(2.02107 -0.637589 0)
(2.02265 -0.637736 0)
(2.02428 -0.637227 0)
(2.02569 -0.637181 0)
(2.0271 -0.637673 0)
(2.02886 -0.637441 0)
(2.03057 -0.636838 0)
(2.03211 -0.637038 0)
(2.0337 -0.637374 0)
(2.03548 -0.636927 0)
(2.03706 -0.636586 0)
(2.03855 -0.636964 0)
(2.04022 -0.636948 0)
(2.04206 -0.63619 0)
(2.04364 -0.635942 0)
(2.04521 -0.636156 0)
(2.04709 -0.635721 0)
(2.04895 -0.634757 0)
(2.0505 -0.634359 0)
(2.05198 -0.634488 0)
(2.0536 -0.634151 0)
(2.05529 -0.6332 0)
(2.05674 -0.632723 0)
(2.05802 -0.63303 0)
(2.0595 -0.632753 0)
(2.06125 -0.63138 0)
(2.06252 -0.630703 0)
(2.06367 -0.631008 0)
(2.06524 -0.630463 0)
(2.0667 -0.629283 0)
(2.06769 -0.629002 0)
(2.06889 -0.628736 0)
(2.07042 -0.627788 0)
(2.07169 -0.626958 0)
(2.07308 -0.626287 0)
(2.07481 -0.62557 0)
(2.07646 -0.625199 0)
(2.07794 -0.624976 0)
(2.07953 -0.624126 0)
(2.08091 -0.622787 0)
(2.08185 -0.622088 0)
(2.0826 -0.622077 0)
(2.08358 -0.621505 0)
(2.08479 -0.620137 0)
(2.08578 -0.619367 0)
(2.08664 -0.619625 0)
(2.08784 -0.619351 0)
(2.08961 -0.618084 0)
(2.09085 -0.61723 0)
(2.09177 -0.617113 0)
(2.09291 -0.616442 0)
(2.09393 -0.615046 0)
(2.09444 -0.613855 0)
(2.09494 -0.613139 0)
(2.09598 -0.612513 0)
(2.09771 -0.612271 0)
(2.0998 -0.613282 0)
(2.10184 -0.613565 0)
(2.10445 -0.613057 0)
(2.10497 -0.611554 0)
(2.10414 -0.608326 0)
(2.10344 -0.607018 0)
(2.10269 -0.604631 0)
(2.1013 -0.600547 0)
(2.09634 -0.592684 0)
(2.08455 -0.571843 0)
(2.06587 -0.550631 0)
(2.03744 -0.515412 0)
(2.00608 -0.453071 0)
(1.98923 -0.431064 0)
(1.98127 -0.419128 0)
(1.97283 -0.40551 0)
(1.97264 -0.399112 0)
(1.97358 -0.396407 0)
(1.97457 -0.395859 0)
(1.97913 -0.397071 0)
(1.98073 -0.398326 0)
(1.98177 -0.39985 0)
(1.98316 -0.39941 0)
(1.98433 -0.398357 0)
(1.98624 -0.39673 0)
(1.98736 -0.394417 0)
(1.98928 -0.391953 0)
(1.9904 -0.388507 0)
(1.99034 -0.387053 0)
(1.99113 -0.385129 0)
(1.99141 -0.383735 0)
(1.99198 -0.382298 0)
(1.99282 -0.380997 0)
(1.99392 -0.380307 0)
(1.99517 -0.378951 0)
(1.99599 -0.376824 0)
(1.9973 -0.374639 0)
(1.99923 -0.373748 0)
(2.0014 -0.370288 0)
(1.9494 -0.631294 0)
(1.95056 -0.634264 0)
(1.95037 -0.636564 0)
(1.9498 -0.640855 0)
(1.94936 -0.643647 0)
(1.95021 -0.644163 0)
(1.95193 -0.644129 0)
(1.95401 -0.6451 0)
(1.95637 -0.645175 0)
(1.95946 -0.644253 0)
(1.96278 -0.643347 0)
(1.96595 -0.642565 0)
(1.96918 -0.641102 0)
(1.97243 -0.639087 0)
(1.97521 -0.637645 0)
(1.97792 -0.636467 0)
(1.98085 -0.634757 0)
(1.98341 -0.633384 0)
(1.98567 -0.632708 0)
(1.98797 -0.631496 0)
(1.98994 -0.6302 0)
(1.99175 -0.629841 0)
(1.99396 -0.629284 0)
(1.99613 -0.628469 0)
(1.998 -0.628313 0)
(2.00002 -0.627999 0)
(2.00217 -0.627291 0)
(2.00413 -0.627239 0)
(2.00614 -0.627285 0)
(2.00816 -0.626783 0)
(2.00996 -0.62662 0)
(2.0118 -0.626724 0)
(2.01374 -0.626461 0)
(2.0155 -0.626448 0)
(2.01727 -0.62674 0)
(2.01912 -0.626631 0)
(2.02077 -0.626476 0)
(2.02231 -0.626854 0)
(2.02391 -0.627029 0)
(2.02556 -0.626531 0)
(2.02704 -0.62638 0)
(2.02854 -0.626705 0)
(2.03029 -0.626477 0)
(2.03203 -0.625961 0)
(2.03366 -0.626065 0)
(2.03534 -0.62622 0)
(2.03721 -0.625649 0)
(2.03888 -0.625094 0)
(2.0404 -0.625206 0)
(2.04207 -0.625031 0)
(2.04396 -0.62415 0)
(2.04562 -0.623691 0)
(2.04724 -0.623759 0)
(2.04914 -0.623307 0)
(2.05104 -0.622319 0)
(2.05264 -0.621829 0)
(2.05412 -0.621914 0)
(2.05564 -0.621573 0)
(2.05723 -0.620434 0)
(2.05858 -0.619619 0)
(2.05979 -0.619816 0)
(2.0612 -0.619675 0)
(2.06302 -0.618407 0)
(2.0644 -0.617676 0)
(2.0656 -0.618043 0)
(2.06712 -0.617672 0)
(2.06862 -0.61636 0)
(2.0696 -0.615909 0)
(2.07068 -0.615817 0)
(2.07233 -0.615038 0)
(2.0738 -0.614182 0)
(2.07512 -0.613504 0)
(2.07661 -0.612615 0)
(2.078 -0.611942 0)
(2.07921 -0.611733 0)
(2.08064 -0.611153 0)
(2.08221 -0.610042 0)
(2.08341 -0.609434 0)
(2.08434 -0.609589 0)
(2.08538 -0.609336 0)
(2.08674 -0.608153 0)
(2.08783 -0.607079 0)
(2.08862 -0.607044 0)
(2.08938 -0.606878 0)
(2.09064 -0.605445 0)
(2.09175 -0.604 0)
(2.09268 -0.603882 0)
(2.09396 -0.603918 0)
(2.09594 -0.603336 0)
(2.09749 -0.602654 0)
(2.09854 -0.602238 0)
(2.09957 -0.601698 0)
(2.10061 -0.600499 0)
(2.10116 -0.599404 0)
(2.1019 -0.598415 0)
(2.10294 -0.598321 0)
(2.10402 -0.598068 0)
(2.1066 -0.597179 0)
(2.10791 -0.596742 0)
(2.108 -0.595342 0)
(2.10714 -0.593018 0)
(2.10638 -0.591227 0)
(2.10517 -0.587181 0)
(2.10151 -0.580015 0)
(2.09083 -0.568813 0)
(2.07029 -0.538344 0)
(2.0485 -0.508883 0)
(2.02491 -0.479991 0)
(1.99873 -0.437642 0)
(1.98363 -0.412727 0)
(1.97803 -0.401585 0)
(1.98054 -0.395687 0)
(1.98263 -0.394849 0)
(1.98369 -0.395444 0)
(1.98415 -0.395922 0)
(1.98526 -0.396379 0)
(1.98749 -0.396123 0)
(1.99088 -0.396567 0)
(1.99164 -0.396116 0)
(1.99257 -0.394539 0)
(1.9933 -0.391295 0)
(1.9938 -0.387596 0)
(1.99457 -0.384359 0)
(1.99511 -0.381605 0)
(1.99574 -0.379683 0)
(1.99627 -0.379383 0)
(1.99714 -0.379321 0)
(1.99843 -0.378189 0)
(1.99913 -0.376204 0)
(2.0005 -0.373391 0)
(2.00265 -0.371808 0)
(2.00473 -0.368036 0)
(1.94221 -0.630999 0)
(1.94305 -0.63215 0)
(1.94506 -0.631807 0)
(1.94772 -0.632059 0)
(1.9502 -0.631922 0)
(1.95332 -0.630836 0)
(1.95688 -0.629556 0)
(1.96013 -0.628573 0)
(1.96319 -0.627217 0)
(1.96627 -0.625443 0)
(1.96923 -0.623764 0)
(1.97186 -0.622676 0)
(1.97445 -0.621377 0)
(1.97699 -0.619677 0)
(1.97918 -0.61896 0)
(1.98154 -0.618456 0)
(1.98401 -0.617373 0)
(1.9861 -0.61677 0)
(1.9882 -0.616846 0)
(1.99052 -0.616372 0)
(1.99254 -0.615938 0)
(1.99432 -0.616056 0)
(1.99616 -0.615761 0)
(1.99796 -0.615459 0)
(1.99978 -0.615687 0)
(2.0018 -0.615647 0)
(2.00376 -0.615454 0)
(2.00564 -0.615637 0)
(2.00758 -0.615661 0)
(2.00945 -0.615442 0)
(2.01122 -0.615601 0)
(2.01309 -0.615745 0)
(2.01499 -0.615549 0)
(2.01676 -0.615631 0)
(2.01857 -0.615896 0)
(2.02046 -0.615729 0)
(2.02218 -0.615539 0)
(2.02379 -0.615745 0)
(2.0255 -0.615679 0)
(2.02724 -0.615106 0)
(2.02884 -0.614893 0)
(2.03039 -0.615078 0)
(2.03213 -0.614731 0)
(2.03395 -0.614053 0)
(2.03566 -0.613905 0)
(2.03743 -0.613856 0)
(2.03931 -0.613211 0)
(2.041 -0.612558 0)
(2.04251 -0.612519 0)
(2.04416 -0.612243 0)
(2.04607 -0.611291 0)
(2.04778 -0.610728 0)
(2.04943 -0.61077 0)
(2.05129 -0.610363 0)
(2.05314 -0.609314 0)
(2.05465 -0.608638 0)
(2.05601 -0.608654 0)
(2.05739 -0.608461 0)
(2.05897 -0.607485 0)
(2.06043 -0.606679 0)
(2.06175 -0.606861 0)
(2.06312 -0.606857 0)
(2.06487 -0.605642 0)
(2.06619 -0.604698 0)
(2.06728 -0.604979 0)
(2.06863 -0.604745 0)
(2.07017 -0.603405 0)
(2.07117 -0.602775 0)
(2.07212 -0.602767 0)
(2.07361 -0.602084 0)
(2.0752 -0.601199 0)
(2.07667 -0.600746 0)
(2.07839 -0.600222 0)
(2.08005 -0.599688 0)
(2.08134 -0.59946 0)
(2.08247 -0.598894 0)
(2.08368 -0.597579 0)
(2.08461 -0.59652 0)
(2.08528 -0.596407 0)
(2.08592 -0.596271 0)
(2.08708 -0.595218 0)
(2.08849 -0.594128 0)
(2.08986 -0.594313 0)
(2.09128 -0.594705 0)
(2.0931 -0.593996 0)
(2.09449 -0.592554 0)
(2.09527 -0.591829 0)
(2.09591 -0.591353 0)
(2.09661 -0.590057 0)
(2.09723 -0.588564 0)
(2.09764 -0.588108 0)
(2.09857 -0.587738 0)
(2.10099 -0.587488 0)
(2.10306 -0.587231 0)
(2.10469 -0.586999 0)
(2.10624 -0.586904 0)
(2.10783 -0.587119 0)
(2.10954 -0.586915 0)
(2.11054 -0.586509 0)
(2.11146 -0.584898 0)
(2.11289 -0.582616 0)
(2.11146 -0.581032 0)
(2.11064 -0.579629 0)
(2.10941 -0.577373 0)
(2.10845 -0.574755 0)
(2.10511 -0.569263 0)
(2.09665 -0.55613 0)
(2.08089 -0.540917 0)
(2.05305 -0.501539 0)
(2.02764 -0.459887 0)
(2.01138 -0.448436 0)
(1.99936 -0.424655 0)
(1.98677 -0.400321 0)
(1.98542 -0.394334 0)
(1.98696 -0.392851 0)
(1.98979 -0.391857 0)
(1.99279 -0.391307 0)
(1.99441 -0.392151 0)
(1.99465 -0.392365 0)
(1.99512 -0.391583 0)
(1.99589 -0.389764 0)
(1.99785 -0.387019 0)
(1.99875 -0.384078 0)
(1.99898 -0.381456 0)
(1.99956 -0.379349 0)
(2.00017 -0.377662 0)
(2.00145 -0.376741 0)
(2.00262 -0.374927 0)
(2.00331 -0.372802 0)
(2.00445 -0.370601 0)
(2.00613 -0.369512 0)
(2.00786 -0.366639 0)
(1.94474 -0.618174 0)
(1.94807 -0.616901 0)
(1.95122 -0.615585 0)
(1.95431 -0.614187 0)
(1.95718 -0.612784 0)
(1.95992 -0.611379 0)
(1.96278 -0.609751 0)
(1.96548 -0.608584 0)
(1.96807 -0.607852 0)
(1.97062 -0.606651 0)
(1.97283 -0.60564 0)
(1.97501 -0.60529 0)
(1.97745 -0.604726 0)
(1.97977 -0.603953 0)
(1.98182 -0.604043 0)
(1.98397 -0.604118 0)
(1.98626 -0.6036 0)
(1.98833 -0.60356 0)
(1.99031 -0.603878 0)
(1.99226 -0.603735 0)
(1.99407 -0.603643 0)
(1.99583 -0.603918 0)
(1.99761 -0.604106 0)
(1.99941 -0.604363 0)
(2.00127 -0.604619 0)
(2.00319 -0.604471 0)
(2.00502 -0.604399 0)
(2.00686 -0.604662 0)
(2.00885 -0.604635 0)
(2.01079 -0.604403 0)
(2.01263 -0.604438 0)
(2.01456 -0.604364 0)
(2.01651 -0.604085 0)
(2.01835 -0.604109 0)
(2.02024 -0.604196 0)
(2.02225 -0.603833 0)
(2.02412 -0.60349 0)
(2.02585 -0.603574 0)
(2.02758 -0.603425 0)
(2.0293 -0.602753 0)
(2.03088 -0.602352 0)
(2.03247 -0.602297 0)
(2.03428 -0.601816 0)
(2.0361 -0.601094 0)
(2.03779 -0.600846 0)
(2.03949 -0.600688 0)
(2.04128 -0.600002 0)
(2.04295 -0.599317 0)
(2.0445 -0.599235 0)
(2.04619 -0.598985 0)
(2.04811 -0.598067 0)
(2.04981 -0.597464 0)
(2.05144 -0.597499 0)
(2.05321 -0.597172 0)
(2.05498 -0.596225 0)
(2.0565 -0.59559 0)
(2.0579 -0.595631 0)
(2.05925 -0.595562 0)
(2.06072 -0.594664 0)
(2.06208 -0.593734 0)
(2.06331 -0.593807 0)
(2.06459 -0.593922 0)
(2.06632 -0.592908 0)
(2.06775 -0.591945 0)
(2.06891 -0.592196 0)
(2.07016 -0.592167 0)
(2.07174 -0.590903 0)
(2.07289 -0.590211 0)
(2.07398 -0.59037 0)
(2.07555 -0.589918 0)
(2.07716 -0.588868 0)
(2.07839 -0.588105 0)
(2.07971 -0.587381 0)
(2.08117 -0.586648 0)
(2.08247 -0.586403 0)
(2.08367 -0.58622 0)
(2.08507 -0.585377 0)
(2.08632 -0.584453 0)
(2.0873 -0.584381 0)
(2.08818 -0.584489 0)
(2.08937 -0.583645 0)
(2.09048 -0.582088 0)
(2.09121 -0.581275 0)
(2.09165 -0.581276 0)
(2.09274 -0.580507 0)
(2.09462 -0.579294 0)
(2.09633 -0.579211 0)
(2.09805 -0.579614 0)
(2.09973 -0.579369 0)
(2.10109 -0.57831 0)
(2.1019 -0.57738 0)
(2.10236 -0.576443 0)
(2.10238 -0.574968 0)
(2.1025 -0.573305 0)
(2.10309 -0.572442 0)
(2.10416 -0.572126 0)
(2.10589 -0.571745 0)
(2.10796 -0.571702 0)
(2.11036 -0.572405 0)
(2.11284 -0.573231 0)
(2.11517 -0.572963 0)
(2.11646 -0.572271 0)
(2.11707 -0.570889 0)
(2.11656 -0.568903 0)
(2.11425 -0.565705 0)
(2.11312 -0.564627 0)
(2.11166 -0.562008 0)
(2.10893 -0.557951 0)
(2.10126 -0.549333 0)
(2.08554 -0.524781 0)
(2.06494 -0.495987 0)
(2.03874 -0.464543 0)
(2.01323 -0.424953 0)
(1.99978 -0.408578 0)
(1.9976 -0.397404 0)
(1.9994 -0.386529 0)
(1.99817 -0.384297 0)
(1.99708 -0.384651 0)
(1.99642 -0.385061 0)
(1.99678 -0.38546 0)
(1.99857 -0.385727 0)
(2.00216 -0.384269 0)
(2.00315 -0.381095 0)
(2.00393 -0.37941 0)
(2.00432 -0.377526 0)
(2.00479 -0.375567 0)
(2.00617 -0.374151 0)
(2.00652 -0.372079 0)
(2.00736 -0.370416 0)
(2.00818 -0.36876 0)
(2.00951 -0.367534 0)
(2.01125 -0.364584 0)
(1.95112 -0.598357 0)
(1.95405 -0.597088 0)
(1.95671 -0.595812 0)
(1.95903 -0.594605 0)
(1.96125 -0.593949 0)
(1.96366 -0.593195 0)
(1.96601 -0.592364 0)
(1.9683 -0.592059 0)
(1.97071 -0.59205 0)
(1.97311 -0.591576 0)
(1.9752 -0.59137 0)
(1.97719 -0.591557 0)
(1.97931 -0.591273 0)
(1.98142 -0.591004 0)
(1.98349 -0.591468 0)
(1.9856 -0.591893 0)
(1.98776 -0.591758 0)
(1.98976 -0.591686 0)
(1.9916 -0.592046 0)
(1.99339 -0.592439 0)
(1.99528 -0.592732 0)
(1.99718 -0.592862 0)
(1.999 -0.592849 0)
(2.00078 -0.593056 0)
(2.00263 -0.59322 0)
(2.00461 -0.592986 0)
(2.00655 -0.592813 0)
(2.00849 -0.592825 0)
(2.01053 -0.592576 0)
(2.01251 -0.592269 0)
(2.01441 -0.592232 0)
(2.01642 -0.592038 0)
(2.01849 -0.591632 0)
(2.02046 -0.591527 0)
(2.02244 -0.591508 0)
(2.02444 -0.59107 0)
(2.02628 -0.590605 0)
(2.02796 -0.590502 0)
(2.02963 -0.590194 0)
(2.03132 -0.589459 0)
(2.03289 -0.589011 0)
(2.03449 -0.588878 0)
(2.03624 -0.588392 0)
(2.03801 -0.587756 0)
(2.03971 -0.587555 0)
(2.04144 -0.587396 0)
(2.04322 -0.586768 0)
(2.04488 -0.586132 0)
(2.04644 -0.586034 0)
(2.04809 -0.585795 0)
(2.04995 -0.584922 0)
(2.05163 -0.584357 0)
(2.05325 -0.584451 0)
(2.05501 -0.584238 0)
(2.05677 -0.583414 0)
(2.05828 -0.582789 0)
(2.05966 -0.582753 0)
(2.06092 -0.58273 0)
(2.06226 -0.581983 0)
(2.06359 -0.581103 0)
(2.06483 -0.5811 0)
(2.06608 -0.581237 0)
(2.06767 -0.580309 0)
(2.06907 -0.579235 0)
(2.07024 -0.579401 0)
(2.07147 -0.579541 0)
(2.07317 -0.578375 0)
(2.07444 -0.577435 0)
(2.07552 -0.577497 0)
(2.07699 -0.577198 0)
(2.07877 -0.576253 0)
(2.08022 -0.575654 0)
(2.08165 -0.575239 0)
(2.08315 -0.574557 0)
(2.08431 -0.57398 0)
(2.08512 -0.573615 0)
(2.08604 -0.572784 0)
(2.08714 -0.571665 0)
(2.08813 -0.571233 0)
(2.08895 -0.571374 0)
(2.09025 -0.570988 0)
(2.09223 -0.570096 0)
(2.09385 -0.569686 0)
(2.0951 -0.56986 0)
(2.09625 -0.569189 0)
(2.09713 -0.567349 0)
(2.09757 -0.565866 0)
(2.09798 -0.565401 0)
(2.09853 -0.565015 0)
(2.09957 -0.564086 0)
(2.10097 -0.563557 0)
(2.10278 -0.563787 0)
(2.10474 -0.564016 0)
(2.10643 -0.56355 0)
(2.10767 -0.562697 0)
(2.10871 -0.561953 0)
(2.10969 -0.560699 0)
(2.11018 -0.559259 0)
(2.11044 -0.558134 0)
(2.1109 -0.557368 0)
(2.11183 -0.556773 0)
(2.1132 -0.556781 0)
(2.1144 -0.557448 0)
(2.11649 -0.557382 0)
(2.1188 -0.557152 0)
(2.11881 -0.555892 0)
(2.11733 -0.553351 0)
(2.11678 -0.551006 0)
(2.11568 -0.549274 0)
(2.11316 -0.544034 0)
(2.1071 -0.535411 0)
(2.09433 -0.523258 0)
(2.06902 -0.483454 0)
(2.04597 -0.446422 0)
(2.03015 -0.432144 0)
(2.01147 -0.399916 0)
(2.00278 -0.378415 0)
(1.99665 -0.377844 0)
(1.99714 -0.379645 0)
(1.99988 -0.379777 0)
(2.00334 -0.380008 0)
(2.00466 -0.379965 0)
(2.00501 -0.378138 0)
(2.00628 -0.376924 0)
(2.0075 -0.375448 0)
(2.00948 -0.373877 0)
(2.01071 -0.371963 0)
(2.01103 -0.369071 0)
(2.01199 -0.367775 0)
(2.01231 -0.366466 0)
(2.01334 -0.365586 0)
(2.01467 -0.362678 0)
(1.9548 -0.580049 0)
(1.95725 -0.57962 0)
(1.95957 -0.578972 0)
(1.96162 -0.578736 0)
(1.96371 -0.57898 0)
(1.96602 -0.578798 0)
(1.96827 -0.578638 0)
(1.97045 -0.579011 0)
(1.97266 -0.579212 0)
(1.97475 -0.578967 0)
(1.97667 -0.579099 0)
(1.97859 -0.579577 0)
(1.98067 -0.5797 0)
(1.98282 -0.57966 0)
(1.98491 -0.579969 0)
(1.98692 -0.5804 0)
(1.98901 -0.580543 0)
(1.99112 -0.580516 0)
(1.99307 -0.580601 0)
(1.99488 -0.580838 0)
(1.99673 -0.581017 0)
(1.99866 -0.580949 0)
(2.00057 -0.580817 0)
(2.0025 -0.580864 0)
(2.00452 -0.580774 0)
(2.00659 -0.580389 0)
(2.0086 -0.580152 0)
(2.01057 -0.580083 0)
(2.0126 -0.579755 0)
(2.0146 -0.579353 0)
(2.01656 -0.579174 0)
(2.0186 -0.578892 0)
(2.02065 -0.578466 0)
(2.02262 -0.578301 0)
(2.02455 -0.57818 0)
(2.02647 -0.577677 0)
(2.02823 -0.577165 0)
(2.02986 -0.576994 0)
(2.03149 -0.576681 0)
(2.03315 -0.576037 0)
(2.03475 -0.575673 0)