/*--------------------------------*- C++ -*----------------------------------*\
  =========                 |
  \\      /  F ield         | OpenFOAM: The Open Source CFD Toolbox
   \\    /   O peration     | Website:  https://openfoam.org
    \\  /    A nd           | Version:  7
     \\/     M anipulation  |
\*---------------------------------------------------------------------------*/
FoamFile
{
    version     2.0;
    format      ascii;
    class       volVectorField;
    location    "0.323";
    object      U;
}
// * * * * * * * * * * * * * * * * * * * * * * * * * * * * * * * * * * * * * //

dimensions      [0 1 -1 0 0 0 0];

internalField   nonuniform List<vector> 
12359
(
(0.981888 -0.000417379 1.14021e-16)
(0.969894 0.00135427 -1.83441e-16)
(0.999958 6.62327e-06 9.94244e-17)
(0.931659 0.000123189 -4.53908e-17)
(0.978179 -0.00134226 -7.01423e-17)
(0.871516 -0.00301495 -1.33534e-16)
(0.835852 0.00581237 -3.97087e-17)
(0.854616 -0.00270219 -3.17753e-17)
(0.786292 -0.000719679 1.4385e-16)
(0.887732 -0.00428548 -9.33524e-17)
(0.827722 0.0202912 -4.77101e-17)
(0.706527 0.0400277 8.77035e-17)
(0.200839 0.0424098 -9.15876e-17)
(0.922185 0.000384494 -1.45892e-18)
(0.93587 -0.00299705 -3.0597e-17)
(0.55499 0.0097475 2.198e-16)
(0.423573 0.0204876 1.82727e-16)
(0.99479 3.7388e-05 -7.15673e-18)
(0.995112 3.60031e-05 5.81593e-17)
(0.954058 -0.000644311 3.31336e-17)
(0.910858 0.0027903 3.72637e-18)
(0.734109 0.0151205 2.13082e-16)
(0.962689 -0.000117031 4.32735e-18)
(0.952086 0.000163923 -1.25151e-16)
(0.967577 -0.000168982 -4.08171e-17)
(0.958709 -0.00269725 1.48045e-17)
(0.998209 -0.000139528 2.2407e-18)
(0.998454 -2.39695e-06 1.76278e-18)
(0.995885 5.28416e-06 -4.83878e-17)
(0.997718 1.6428e-05 -2.63315e-18)
(0.997263 -1.58828e-05 8.86452e-18)
(0.999125 5.50163e-05 -1.6854e-17)
(0.999619 -3.16502e-05 -6.93576e-17)
(0.998004 4.54041e-05 -2.58246e-18)
(0.999925 -1.79794e-05 6.12596e-18)
(0.996998 -2.95395e-05 -6.36548e-18)
(0.988753 -0.000323971 4.87847e-16)
(0.983841 -5.09968e-05 -4.52883e-17)
(0.978841 -0.000257941 -1.08485e-16)
(0.987014 6.78905e-06 -6.77587e-18)
(0.972605 -0.000514106 -1.28721e-16)
(0.985377 0.00103806 1.18595e-16)
(0.99166 2.41959e-05 -3.15245e-16)
(0.992591 0.000181005 -1.37114e-16)
(0.99648 -0.000198743 -1.90272e-17)
(0.996153 -2.42039e-05 -3.4757e-17)
(0.996831 -5.66206e-05 -3.93048e-18)
(0.997402 -1.83719e-05 -5.2228e-18)
(0.995418 0.000122502 -4.65921e-18)
(0.998135 -8.49364e-05 -3.28572e-18)
(0.99864 -7.15162e-06 2.28179e-18)
(0.99882 -0.000115131 -6.6388e-18)
(0.99917 1.67052e-05 -4.06181e-18)
(0.9942 -0.000128489 4.91098e-17)
(0.999393 5.13544e-05 -1.78462e-17)
(0.999498 -2.61287e-05 -1.8116e-17)
(0.993093 -1.9516e-05 2.34496e-17)
(0.999763 -9.26637e-06 -3.97103e-17)
(0.999842 9.8723e-06 4.39351e-17)
(0.999859 4.63231e-05 -1.7911e-19)
(0.999561 6.96728e-05 -3.73527e-19)
(0.999936 -1.06029e-06 -1.66118e-16)
(0.998757 -3.67253e-05 -5.61266e-19)
(0.202918 0.13394 -5.3254e-16)
(0.99342 -0.000213959 8.27191e-17)
(0.901852 0.000512277 -3.19112e-17)
(0.98971 -0.000349762 6.52527e-17)
(0.998871 4.69727e-05 -1.66241e-17)
(0.98777 -0.000435298 3.04019e-16)
(0.614445 0.0321179 2.40427e-16)
(-0.0728348 -0.123459 8.53745e-16)
(0.975792 -0.00141975 6.29739e-17)
(0.999975 -2.46173e-05 7.42088e-17)
(0.9871 -0.000224004 7.62846e-17)
(0.941836 -0.00303531 6.30251e-17)
(0.999937 -2.41298e-05 -1.32751e-16)
(0.999173 4.66845e-06 -2.90914e-18)
(0.999962 -1.94866e-05 1.39827e-16)
(0.990171 -0.000118032 -2.41192e-16)
(0.604623 -0.00654182 -2.05135e-16)
(0.924698 0.0600057 -7.00209e-19)
(1.00341 0.00240968 -2.22223e-18)
(1.00001 -1.45906e-05 9.17003e-18)
(0.998424 0.0108024 -2.05018e-17)
(1.10664 0.134171 -1.75261e-18)
(1.02007 -0.00053094 1.87592e-18)
(1.00371 0.00274177 -7.83562e-18)
(1.00138 0.000132756 -4.56623e-18)
(1.11026 0.0427347 -1.50092e-18)
(1.09791 0.141438 -7.82897e-18)
(1 0.000102259 2.70031e-17)
(0.359043 0.231925 -4.00621e-16)
(1.00002 4.63598e-05 -1.65252e-17)
(0.999745 0.0052377 -1.51994e-17)
(0.999479 0.0112387 2.54778e-17)
(1.03416 -0.000257057 -7.07279e-19)
(1.00019 0.00485583 -8.48734e-18)
(0.999421 0.00599528 4.83465e-18)
(0.991305 0.02848 4.72511e-17)
(0.99499 0.0179704 1.19159e-17)
(0.934893 0.082784 -1.02991e-17)
(1 1.87776e-05 2.47594e-18)
(1.02027 0.00137891 2.22378e-18)
(1.19126 0.0284565 1.59445e-17)
(1.00438 0.000843188 9.42513e-18)
(1.03128 0.0183336 -1.15587e-17)
(1.00035 -8.50671e-06 1.25356e-17)
(1.10248 0.134266 2.14114e-18)
(1.01818 0.00287594 -1.29225e-17)
(1.03334 0.0181528 1.12737e-18)
(1.00003 0.00450486 -8.22209e-18)
(1.00348 0.00257229 -4.74499e-19)
(0.935445 0.0437496 1.41566e-16)
(0.957508 0.0716406 -1.73109e-17)
(0.99915 0.00959735 3.52764e-19)
(1.00287 -0.000536432 -7.43973e-19)
(0.961098 0.0820231 4.21213e-17)
(1.00432 0.00222244 -5.48871e-18)
(1.10881 0.0324534 2.64887e-17)
(1 1.44845e-05 -1.33802e-18)
(1.00003 0.00498489 -2.05236e-18)
(0.8817 0.028913 -7.62453e-16)
(1.00155 0.00011755 -6.09371e-18)
(1.03543 0.00448733 -6.33909e-19)
(1.00462 0.00244604 4.30355e-18)
(1.00306 0.000774049 1.31787e-17)
(1.00972 0.0841689 1.04713e-16)
(0.998487 0.0124441 1.56513e-17)
(0.999997 1.76778e-05 -1.31996e-18)
(1.00406 0.00215908 -7.06001e-19)
(1.00273 0.000322414 -8.29406e-18)
(1.0532 0.0152546 1.13459e-18)
(1.05619 0.0149718 -1.30403e-18)
(1.05484 0.0119481 -2.118e-18)
(1.00028 -2.86019e-06 -7.12968e-19)
(1.03567 0.005029 9.78609e-18)
(1.00277 6.438e-05 -4.13122e-18)
(1.03516 0.00493818 -3.45501e-18)
(1.00001 6.49834e-05 -1.03987e-17)
(1.01076 0.0851993 -2.32846e-17)
(1.00001 2.8363e-05 -1.00977e-17)
(0.982804 0.00263715 -4.41182e-16)
(1.03044 0.0112558 1.34257e-18)
(1.00035 0.00010037 -2.36952e-18)
(1.03997 0.0360191 -1.63044e-17)
(0.903489 0.029683 1.61924e-16)
(1.00002 2.86312e-06 -5.1054e-19)
(1.09291 0.109628 -5.2295e-18)
(1.00478 0.001552 -6.35484e-18)
(0.91874 0.0533777 1.40894e-17)
(1.03958 -0.0016486 -1.26558e-18)
(0.999995 2.6475e-05 -4.89526e-17)
(1.03053 0.0114265 -1.32457e-18)
(1.00145 9.37557e-05 3.29224e-18)
(1.00001 -1.38281e-05 -4.25543e-18)
(0.540413 1.31458 4.29521e-17)
(0.946175 0.0824738 6.0612e-17)
(1.05214 0.0127346 2.29394e-18)
(1.00009 0.0051245 1.98136e-17)
(0.998975 0.000521407 -2.08706e-17)
(1.00403 0.0435603 -2.09907e-17)
(0.999014 0.0005829 -1.84694e-17)
(1.03661 0.00347044 9.40116e-19)
(1.03144 0.0086256 -6.0653e-18)
(1.00004 4.89849e-05 3.59811e-19)
(1.00305 0.000163042 1.69352e-17)
(1.00361 0.0417055 -1.27069e-18)
(0.8612 0.0166529 1.02312e-16)
(1.02956 0.00930399 -6.16348e-18)
(1.11552 0.044211 -1.10304e-18)
(0.999991 -1.60252e-05 2.43807e-16)
(0.999976 4.89333e-05 -2.59975e-16)
(1.03124 0.00753451 1.72815e-18)
(0.972296 0.00227403 5.76891e-16)
(1.00438 0.000579328 6.37422e-18)
(1.00419 0.0867575 -6.81156e-17)
(0.996352 0.0006206 -3.47591e-17)
(0.996463 0.000785317 5.60943e-17)
(0.939353 0.043379 2.51406e-17)
(1.00775 0.0827207 5.41987e-17)
(0.937092 0.00784029 -6.4421e-17)
(1.00002 3.99483e-05 1.45667e-17)
(0.999968 1.16177e-05 -4.94656e-17)
(1.00391 0.0025166 -4.25906e-18)
(0.991597 0.0269953 -1.42185e-17)
(0.817242 0.111471 8.47051e-16)
(1.00422 0.00493443 -2.66175e-17)
(1.00076 0.0104023 -1.71757e-17)
(1.03506 2.41579e-05 -8.93382e-19)
(1.00448 0.00525593 1.89343e-17)
(0.999609 0.00983517 -5.90657e-18)
(1.03257 -0.00262676 -1.70908e-18)
(1.03093 0.00306615 -7.52397e-19)
(1.00181 5.34121e-05 4.71223e-18)
(1.03264 0.0165433 -1.09261e-18)
(1.18591 0.00165569 3.85407e-17)
(1.01469 0.0118463 -1.99398e-18)
(1.00351 0.00592793 9.25961e-18)
(1.02912 0.0113746 -5.34319e-18)
(1.0042 0.00203644 -6.30501e-18)
(0.892658 0.0269323 -3.19253e-17)
(1.03287 0.00199751 9.68667e-19)
(0.993734 0.018566 7.65206e-18)
(1.03241 0.0182191 9.0889e-19)
(1.0355 0.033003 -1.29661e-17)
(1.00002 1.96265e-05 -2.34016e-17)
(1.03574 0.0343697 -1.19085e-17)
(0.992798 0.0173007 6.46469e-17)
(1.03823 0.00558106 2.72715e-19)
(1.0055 0.00381926 -6.17656e-18)
(1 4.90583e-05 -9.76752e-18)
(1.0444 0.00875779 -3.17379e-19)
(1.04617 0.00953182 -1.49458e-18)
(1.14694 0.130149 1.02662e-16)
(0.835719 0.0936337 -5.93129e-16)
(0.999975 6.04214e-05 1.75414e-17)
(1.00381 0.00538785 -1.59206e-17)
(0.998753 0.00993668 8.21268e-19)
(1.00395 0.00582392 1.45135e-18)
(0.983686 0.00211832 -2.20565e-16)
(0.94327 0.0629253 -1.85978e-17)
(1.00492 0.00296839 2.34446e-17)
(1.0349 0.00455602 -1.21383e-18)
(0.327886 0.279005 2.3978e-16)
(1.00501 0.00164115 -1.58832e-17)
(1.00002 3.47536e-05 -5.17404e-18)
(0.980546 0.00135159 8.78135e-17)
(1.01881 0.00108037 -9.50512e-18)
(1.00458 0.0839763 3.88431e-17)
(1.0029 0.00589664 -5.32042e-18)
(1.00258 0.00574652 2.1088e-18)
(1.00005 2.07965e-05 -5.22334e-18)
(1.03846 0.0356238 1.87967e-18)
(0.993537 0.0243209 -5.66181e-17)
(1.00113 0.00995958 -1.20853e-17)
(0.994757 0.0201914 1.96425e-17)
(1.00001 1.73322e-05 4.86648e-19)
(1.03135 0.0134099 4.59091e-18)
(1.0006 0.00992077 -2.44405e-17)
(0.699378 0.275079 -2.29129e-16)
(1.0001 6.9889e-05 -9.27571e-19)
(1.02054 -0.00016107 -1.52272e-19)
(1.00019 0.00747744 -1.8502e-17)
(0.985214 0.15743 -3.41481e-18)
(1.00693 0.0450407 1.10552e-17)
(1.09446 0.112619 1.27161e-17)
(0.999811 9.2298e-05 1.39336e-16)
(1.03586 0.00344154 2.53872e-18)
(1.00384 0.000680367 -7.61249e-18)
(1.03011 0.00136387 -4.45877e-18)
(1.04083 0.0080953 -8.70682e-19)
(0.986301 0.000481926 1.46068e-16)
(0.9969 0.000549231 2.35937e-17)
(1.00244 0.00579388 -1.6951e-17)
(0.535 0.461012 2.11715e-16)
(1.31497 0.174079 1.19753e-16)
(0.999993 -1.05178e-06 5.68181e-19)
(1.00569 0.00238906 -2.25116e-18)
(0.452112 0.375827 8.3028e-17)
(0.8978 -0.00686089 -6.31761e-17)
(0.994054 0.0183699 -4.85429e-18)
(1.00378 0.0439343 1.44618e-17)
(1.00613 0.0740308 -6.36611e-18)
(1.03338 0.016683 -7.36216e-18)
(0.974446 0.00162838 4.86643e-16)
(1.40587 0.363563 -1.78011e-17)
(1.10586 0.0321285 -1.05941e-18)
(1.00461 0.0504446 6.36436e-18)
(1.00518 0.00234233 2.83028e-18)
(1.03464 0.00556362 9.02656e-18)
(1.03155 0.00779535 6.01118e-18)
(0.988503 0.0259232 3.75621e-17)
(1.0313 0.0111776 3.1638e-18)
(1.00236 0.00614402 -1.20775e-17)
(1.00552 0.00288866 -4.85182e-18)
(1.00011 4.90581e-05 -7.38645e-19)
(1.0053 0.00266587 -3.84823e-18)
(1.16566 0.0648767 -6.57036e-17)
(1.00593 0.0489884 8.83768e-18)
(1.00045 0.000156305 -1.67797e-18)
(1.00001 2.19162e-05 -1.76881e-17)
(1.03435 0.0154055 8.79178e-18)
(1.00681 -0.000181319 -7.61417e-19)
(0.990792 0.000506633 8.3343e-16)
(1.02154 -0.000598926 1.40549e-18)
(1 3.58651e-05 -7.91263e-19)
(1.00207 0.0730063 -1.0141e-17)
(0.999993 1.41862e-05 3.37166e-17)
(1 1.92534e-06 1.78761e-17)
(0.999151 8.31709e-05 1.12696e-17)
(1.03511 0.00367848 -5.02581e-19)
(1.0039 0.00217068 -7.4664e-18)
(1.4436 0.394876 4.39558e-18)
(1.00029 2.62879e-06 2.95853e-18)
(1.00033 2.59726e-05 -1.23373e-17)
(1.01988 0.0012696 7.63684e-18)
(1.00365 0.000481305 2.35963e-17)
(0.951312 0.062754 7.36876e-17)
(0.999616 0.00889005 -1.79406e-17)
(0.998736 0.00016136 9.04005e-17)
(0.999979 1.54954e-05 -6.10591e-18)
(1.15889 0.053595 -5.93034e-18)
(1.00544 0.0776243 -2.4107e-17)
(0.999988 3.03691e-05 2.51746e-17)
(1.00349 0.00543939 3.99988e-18)
(1.00006 0.00799459 1.48086e-17)
(1.00405 0.000996889 2.10025e-18)
(1.00349 -0.000113675 -1.20282e-18)
(1.00296 -9.43386e-05 -1.62392e-18)
(1.00376 0.000811068 4.33039e-18)
(0.995357 0.00115494 1.55113e-16)
(0.845114 0.0642628 1.45925e-16)
(1.00483 0.000134214 -1.31588e-17)
(0.997393 0.000101954 -9.52582e-17)
(0.985901 0.00117124 -5.14658e-17)
(1.025 0.024373 2.55532e-18)
(1.0953 0.0273354 -1.61316e-17)
(1.00388 -3.6405e-05 -2.57935e-18)
(0.990894 0.0238154 -2.21608e-17)
(0.603022 0.103861 5.34357e-16)
(0.999983 2.02538e-05 3.95165e-17)
(1.02586 0.0109207 6.42368e-18)
(1.00046 0.000175478 -2.0672e-19)
(1.01396 0.0119981 1.42794e-19)
(1.00033 6.89342e-05 2.6818e-18)
(1.00473 8.0694e-05 4.16165e-18)
(0.82204 0.0434891 1.81446e-16)
(1.02764 0.0129644 -8.55953e-18)
(0.828387 0.0987166 -5.4857e-16)
(0.992218 0.000599981 -2.33217e-16)
(1.00077 0.00728955 -7.3851e-18)
(1.03171 -0.000938575 2.80587e-19)
(1.03092 0.000933738 -4.81297e-19)
(1.00086 0.00751254 2.42109e-17)
(1.03222 -0.00303818 -2.20409e-18)
(1.03127 -0.000578266 7.71569e-19)
(1.00071 0.000163815 -5.51205e-18)
(0.999354 0.000532249 1.08625e-17)
(0.999342 0.000532622 -7.45795e-18)
(0.999296 0.000509774 -4.19924e-17)
(0.999316 0.000451148 -3.87053e-17)
(0.675833 0.278353 -2.42084e-16)
(1.00002 4.54408e-05 -8.27401e-18)
(0.948563 0.0728222 -6.14358e-17)
(1.03843 0.00172027 2.64204e-19)
(0.992987 0.02437 -4.8403e-18)
(1.0315 0.0099683 -2.77492e-18)
(1.02616 0.0135283 -2.79097e-18)
(1.02015 0.00229663 -5.76281e-18)
(1.01312 0.0114962 -1.75309e-17)
(1.02772 0.0121007 3.31783e-18)
(1.01357 0.0116007 5.19347e-18)
(0.99141 0.0269129 -1.24575e-17)
(1.02739 0.0255399 -8.08568e-18)
(1.02608 0.0293938 -2.18534e-18)
(0.955204 0.0510441 -3.32942e-18)
(0.982378 0.00191061 3.96202e-16)
(1.03522 0.0760948 -1.7328e-17)
(0.983563 0.00173263 9.20154e-17)
(0.983385 0.00135503 7.18695e-17)
(1.02974 0.0145032 -3.50603e-18)
(0.939191 0.0929716 -2.20979e-17)
(1.00301 0.00247364 -2.46533e-17)
(0.999366 8.8775e-05 -5.38075e-17)
(1.01586 0.0104445 1.07675e-18)
(0.999322 -9.64776e-06 -1.84748e-16)
(1.00314 0.00298787 -9.18129e-18)
(0.878376 0.0132885 1.3301e-16)
(0.256526 0.266279 -7.46858e-17)
(1.00305 0.00277679 -1.03333e-18)
(0.99998 1.97521e-05 3.35357e-17)
(1.00026 8.74733e-05 -1.37321e-18)
(0.999996 1.8715e-05 -1.34421e-17)
(1.0278 0.0117392 1.29123e-18)
(1.00001 4.6955e-05 -3.81196e-18)
(0.999996 2.17925e-05 7.28764e-18)
(1.1227 0.045938 -3.95367e-18)
(1.03103 0.00957012 -4.16807e-18)
(1.0913 0.161248 1.05859e-17)
(1.00151 0.00299462 4.10168e-18)
(1.03458 0.0103625 -3.1201e-18)
(1.00823 0.000739015 -1.05717e-17)
(1.00007 0.00830643 1.46492e-17)
(1.03282 0.0249688 2.19629e-17)
(1.01598 0.0101578 -2.94344e-19)
(0.937653 0.00158483 3.90731e-17)
(1.01556 0.00927381 -4.45111e-18)
(1.00269 0.00250889 3.3606e-18)
(1.00051 6.70022e-05 4.23725e-18)
(1.03095 0.00930009 -4.52135e-19)
(1.03439 0.0106959 -1.04636e-17)
(1.00581 0.00109866 9.82629e-18)
(0.729698 0.0303611 -9.23749e-16)
(1.03196 0.0255371 -2.29678e-17)
(1.03411 -1.80178e-05 2.47101e-19)
(1.00051 0.0337535 -1.97422e-17)
(1.0028 0.0389194 -4.40454e-20)
(0.999993 0.000105335 -3.87727e-17)
(0.380367 0.475179 5.12411e-16)
(1.03718 0.07773 -1.45524e-17)
(1.00133 0.00334674 -3.3124e-18)
(0.977028 0.177407 2.69774e-17)
(0.984993 0.0013674 3.82958e-16)
(0.999984 3.57225e-05 -4.91756e-18)
(1.00001 1.66345e-05 2.40882e-18)
(1.00001 1.8855e-05 -5.00447e-18)
(1.10113 0.157428 3.51662e-17)
(0.948819 0.0952528 -3.12391e-17)
(0.989179 0.0283605 -2.76924e-18)
(1.02675 0.00926425 6.98113e-18)
(1.03636 0.00065035 1.92186e-19)
(0.998919 0.0104948 1.73745e-18)
(0.931092 0.00552447 1.69894e-16)
(1.00024 0.0335363 -1.7737e-17)
(1.04861 0.00971614 -4.27573e-18)
(1.09674 0.0286582 -1.94078e-17)
(0.711803 0.0363379 -1.51394e-16)
(0.994232 0.0236302 1.86063e-18)
(0.959029 0.0522039 1.68876e-16)
(1.01855 -0.00141837 -4.1378e-18)
(1.02568 0.0366727 -5.25692e-18)
(1.01099 0.0102548 3.14861e-18)
(1.01638 0.0112849 -2.75989e-19)
(0.997985 0.00023584 -7.0882e-17)
(1.01228 0.0107998 2.00776e-18)
(1.02891 0.0104099 -1.70726e-18)
(0.999995 1.593e-05 3.10626e-18)
(1.06307 -0.00695912 -3.24035e-17)
(0.990823 0.000982166 -1.64114e-16)
(1.05787 0.0108838 2.93496e-18)
(1.03435 0.00777138 -1.19643e-17)
(0.994075 0.000681186 -5.40067e-17)
(0.954627 0.0522234 -6.53393e-17)
(1.18483 0.216291 3.28784e-17)
(1.02843 0.0134434 1.92906e-18)
(1.00841 0.01505 2.70912e-17)
(1.03464 0.000456479 6.35899e-19)
(1.03562 0.008642 -1.06099e-17)
(1.02726 0.0298629 8.75943e-18)
(1.004 0.00244312 -8.6897e-18)
(1 1.23891e-05 5.70451e-18)
(0.999023 0.065647 8.59366e-18)
(1.00031 5.71724e-05 1.70823e-18)
(1.05426 0.0144446 4.45357e-18)
(1.00278 5.02747e-05 -9.66306e-18)
(0.968919 0.00416461 -2.73472e-18)
(0.964985 0.0391323 -4.5648e-17)
(1.0101 -0.000210364 -6.07336e-18)
(1.10282 0.101195 1.81954e-17)
(0.937995 0.0727329 5.72594e-17)
(0.995434 0.0159118 4.69314e-18)
(1.00087 0.00379559 -8.93593e-18)
(0.548528 0.0738376 -1.59324e-16)
(1.00068 3.52029e-05 -7.19933e-18)
(1.00132 0.00303568 -1.20242e-18)
(1.0425 0.0378399 -1.95744e-18)
(0.999989 -3.68595e-06 -1.72996e-17)
(1.00108 0.00392089 -2.11259e-19)
(1.00137 0.00244058 7.2253e-18)
(0.753845 0.217351 -1.71015e-16)
(0.700956 0.476387 -6.4453e-17)
(0.998788 0.0122059 -3.04753e-18)
(1.00176 -8.43734e-05 -4.06988e-18)
(0.941386 0.0332749 -5.15715e-17)
(1.00059 0.0423365 1.47898e-17)
(1.02657 0.00979327 3.36896e-18)
(1.03075 0.0144066 1.48689e-20)
(1.03172 0.00947083 1.91096e-18)
(1.00073 -8.37235e-05 -1.39718e-17)
(0.999999 4.42011e-05 -3.02255e-18)
(0.999554 0.0356787 -2.96983e-17)
(0.999994 8.63126e-06 9.06074e-18)
(0.964529 0.0415293 5.71539e-17)
(1.02616 0.0101435 -9.61588e-18)
(1.02678 0.0354612 3.02286e-19)
(0.996808 0.000671028 2.04114e-17)
(0.996442 0.0652953 1.1339e-17)
(1.04509 0.0366218 1.90155e-18)
(0.997913 5.22817e-06 8.83308e-17)
(1.00192 0.0114347 -4.01888e-18)
(1.00566 0.000485581 -9.83665e-18)
(0.925301 0.046651 -3.16888e-17)
(1.04294 0.037038 3.78482e-18)
(0.999993 8.33318e-05 2.1544e-17)
(1.00161 0.0379357 -4.66135e-17)
(1.02982 0.00657964 -4.97937e-18)
(1.01636 0.000604461 -6.83296e-18)
(0.999397 0.0395075 -3.75863e-17)
(1.00314 -5.10286e-05 1.58478e-17)
(0.936775 0.0892315 -1.50363e-17)
(1.02536 -0.00056675 2.44812e-18)
(1.03548 0.00578003 -4.18672e-18)
(1.02734 0.0303019 -1.25685e-17)
(1.00084 4.62306e-05 3.57506e-18)
(1.00167 0.0113679 5.08806e-19)
(1.05455 0.0561193 8.27745e-18)
(1.05746 0.0130926 9.63674e-18)
(1.00001 2.10046e-05 -2.18121e-18)
(1.01098 0.0153142 2.46452e-17)
(0.989477 0.165196 -5.10236e-17)
(1.03532 0.0012513 -8.79132e-19)
(0.499713 0.494882 3.08002e-17)
(0.999993 2.10242e-05 1.71827e-17)
(1.00253 0.000189963 1.34441e-17)
(1.00072 0.000171668 6.91271e-18)
(1.02908 0.013177 -6.05615e-19)
(0.995142 0.0183502 -1.85534e-17)
(0.996038 0.0130888 3.56513e-17)
(1.00318 0.000398563 -7.39842e-18)
(1.00025 0.0350815 -1.62876e-17)
(1.01705 0.01147 -1.92324e-18)
(0.975218 0.00306921 4.73427e-16)
(1.00863 0.00164976 -7.30291e-18)
(1.08342 0.082384 9.14424e-18)
(1.00041 -1.87918e-06 -3.08197e-18)
(1.09012 0.0934366 3.48348e-17)
(1.00132 -0.000201393 3.20694e-19)
(0.61323 0.593579 -1.82844e-16)
(1.02567 0.0013931 7.02117e-18)
(1.05179 0.058057 -5.72907e-18)
(0.999717 5.05999e-05 -5.57647e-17)
(0.997005 0.000743774 -3.51402e-18)
(1.02556 0.0256235 7.43136e-18)
(1.00359 0.00205931 1.70845e-17)
(0.998771 0.000247582 -5.9035e-17)
(0.9927 -7.12919e-05 6.03629e-16)
(0.99465 0.0189884 3.72751e-18)
(0.993619 0.0197062 2.84042e-17)
(0.97334 0.155508 -1.56081e-17)
(1.03284 0.0299376 7.74954e-18)
(1.03377 0.0295527 3.19156e-18)
(1 6.13984e-06 3.5851e-18)
(1.0039 0.00201241 -1.34772e-17)
(1.02658 0.0114434 -7.52499e-18)
(1.05484 0.0162194 5.07819e-18)
(1 -1.54998e-06 -1.14974e-17)
(1.00046 0.000102635 -1.84275e-19)
(1.03115 0.00675798 5.53463e-19)
(1.00071 0.000189342 -5.42192e-19)
(0.815784 0.055533 -5.59844e-16)
(1.17971 0.230377 4.14976e-17)
(1.11181 -0.0232064 3.14471e-17)
(1.00001 7.01771e-06 -5.62006e-18)
(1.00613 0.00895482 -1.15813e-17)
(1.04214 0.0065882 -1.22124e-18)
(0.995716 0.0142597 8.44009e-18)
(1.00414 0.000747302 -1.16832e-17)
(0.279249 0.559907 -3.47078e-17)
(1.00047 0.000123775 -3.4816e-18)
(0.933924 0.0747959 -1.17372e-16)
(0.960642 0.0461507 7.06755e-17)
(1.0069 0.00873966 -1.8234e-19)
(1.00397 0.000850974 8.83511e-18)
(0.998631 0.000290536 -1.92718e-16)
(1.00931 -0.000188911 -1.28379e-18)
(1.03676 0.00147632 1.14145e-19)
(1.01664 0.00819459 6.9227e-18)
(0.997261 0.0117462 -1.04787e-17)
(0.999992 1.51422e-05 -5.26663e-20)
(0.999984 3.43715e-05 1.28082e-16)
(0.994899 0.017298 2.17682e-17)
(0.996538 0.0011982 4.40149e-17)
(0.996121 0.0594187 -2.43274e-17)
(1.03035 0.0120696 4.41261e-18)
(0.999069 2.5527e-05 1.26158e-17)
(1.00045 0.000159119 -1.27597e-18)
(1.02665 0.0276546 2.18373e-17)
(1.04583 -0.00935937 -1.06657e-16)
(0.997936 0.00024697 -1.37757e-17)
(1.04757 0.00897405 -2.47152e-18)
(1.00027 5.40663e-05 -5.31117e-19)
(0.99645 0.0107455 -1.76794e-18)
(0.95136 0.0796786 1.97134e-17)
(1.03495 0.00129228 -1.63286e-19)
(1.04011 0.006774 -6.06307e-19)
(0.949469 0.0621015 6.64254e-18)
(1.0026 0.0185425 -6.3589e-18)
(1.03771 0.00253233 2.31049e-18)
(1.00002 3.72349e-05 -4.23927e-18)
(0.999949 5.46847e-05 -8.68879e-17)
(1.03406 -0.00218844 -5.32122e-19)
(1.01016 0.00877027 6.59411e-18)
(1.00353 0.0185685 4.37722e-18)
(1.0112 0.0100648 -1.8069e-18)
(0.99999 4.51077e-05 -1.92802e-17)
(1.00049 0.000173184 -1.25547e-18)
(1.00328 0.000224294 1.7445e-17)
(1.0003 0.0286856 -1.92787e-17)
(1.03836 0.00334254 -8.91946e-19)
(0.94687 0.0399857 -4.53733e-17)
(0.990069 0.00132348 5.40684e-16)
(0.93007 0.0361623 1.19097e-16)
(1.02895 0.0134143 -3.08126e-18)
(1.00897 0.0164079 3.59544e-17)
(0.933262 0.0460301 1.26484e-17)
(0.98675 0.0221064 2.91898e-17)
(1.05976 0.011121 6.95368e-18)
(1.03101 0.0110176 5.82631e-18)
(0.987122 0.0196327 1.27203e-17)
(0.99478 0.0575971 4.24666e-17)
(0.999885 0.000150502 -1.07481e-16)
(1.01175 0.061611 2.36049e-17)
(1.02601 0.0255328 -2.24924e-18)
(1 -1.17729e-05 -1.3804e-18)
(0.999993 1.46178e-05 1.34995e-18)
(1.00072 4.88023e-05 3.01557e-18)
(0.99962 0.000429285 -1.80885e-17)
(1.06465 0.0632271 3.91734e-18)
(1.0108 0.0160415 -1.13506e-18)
(1.01301 0.000157875 -6.76309e-18)
(0.946071 0.045957 -4.13697e-18)
(0.992534 0.000127482 -6.57684e-16)
(0.800599 0.0193897 -2.72907e-16)
(1.03494 0.000863324 2.79286e-19)
(1.03603 0.00194448 -8.41113e-20)
(1.00386 0.000422882 7.20101e-18)
(1.05015 0.0358408 -5.55018e-18)
(1 1.70884e-05 -8.44926e-18)
(0.998805 0.0283161 -2.86366e-17)
(1.00028 0.00378923 -1.1256e-17)
(0.936501 0.107274 1.92208e-18)
(0.935947 0.048902 1.0855e-16)
(1.00202 0.015658 -1.77386e-17)
(1.01633 0.0107341 -4.66433e-18)
(0.458553 0.638793 2.63201e-16)
(1.02921 0.0119939 -3.14269e-18)
(1.04406 0.0576404 -1.36534e-18)
(1.00939 0.011758 -1.2677e-17)
(0.97816 0.146875 -1.13852e-17)
(1.17148 0.189458 2.82615e-19)
(1.00101 7.55235e-05 1.04191e-17)
(0.998315 0.00322238 8.26613e-19)
(1 5.42801e-06 5.11387e-18)
(1.05807 0.0604816 1.0318e-17)
(0.9985 0.00303484 -8.35784e-18)
(1.01582 0.00870768 9.66434e-19)
(1.10228 0.0989246 1.84857e-17)
(1.00045 6.86155e-05 -1.37815e-18)
(0.969368 0.00224054 -3.84001e-16)
(0.993742 0.0497926 -1.01346e-18)
(1.00672 0.014579 -3.20597e-18)
(0.997585 0.000219528 -9.01803e-17)
(1.00228 0.0161321 2.5772e-18)
(0.999161 0.000767868 -1.20734e-17)
(0.995044 0.0156155 -8.12113e-18)
(0.999136 0.000620073 -2.0072e-17)
(0.999198 0.000841206 -1.26468e-18)
(0.995972 0.0128368 -1.14256e-17)
(1.0354 0.004214 -7.07468e-19)
(1.03318 0.00741414 1.02027e-18)
(1.00716 0.0158426 -2.84351e-17)
(0.657684 0.0276513 5.00514e-16)
(1.0357 -0.000667733 5.45874e-19)
(0.298186 0.326777 -9.26549e-18)
(1.02799 0.0129364 6.76251e-18)
(1.0196 5.85746e-05 7.17833e-19)
(0.995181 0.0143097 1.26264e-18)
(1.02723 0.0130704 -5.49076e-18)
(0.992955 0.0253493 8.87265e-18)
(1.03437 0.00307351 -3.69098e-18)
(0.569896 0.395349 -3.31733e-16)
(0.954208 0.0358041 3.25292e-17)
(0.994189 0.0226197 1.80512e-17)
(1.00461 0.0217987 2.17015e-17)
(0.995303 0.00111306 -4.19801e-17)
(0.996275 0.00103657 3.00509e-17)
(1.02645 0.0265506 -9.88148e-19)
(0.999995 3.3413e-05 -1.42442e-17)
(1.06081 0.00349584 1.34306e-17)
(0.999279 1.5976e-05 -7.4865e-17)
(0.946523 0.0362248 -9.45348e-17)
(1.0008 0.0726783 2.56394e-17)
(1.06286 0.0549545 -9.87573e-18)
(1.03776 0.0226715 -7.65399e-18)
(1.03419 0.0124386 6.12538e-18)
(0.991916 0.0501885 -1.45284e-17)
(1.00939 0.0116723 9.6142e-18)
(1.03786 0.0241019 -1.08148e-17)
(0.971591 0.0285162 3.1748e-17)
(1.04389 0.0584372 -1.99457e-18)
(1.00827 0.0210209 -6.74626e-18)
(1.04459 0.03703 -2.55156e-18)
(1.00573 0.0221212 7.22997e-18)
(1.00001 9.67371e-06 -1.7307e-18)
(0.999299 0.0249417 -1.72261e-17)
(0.743341 0.0565533 1.86102e-16)
(0.97672 0.134866 -1.03487e-17)
(1.00678 0.00490333 3.35544e-18)
(1.00006 5.13351e-05 -1.19883e-18)
(0.998974 0.000205624 -4.83483e-17)
(0.994829 0.00713755 8.66024e-19)
(0.965217 0.0016819 -5.81034e-16)
(1.03317 0.00593081 3.55033e-19)
(1.02509 -0.00121531 3.63743e-18)
(1.00068 -2.60521e-05 -2.08044e-18)
(1.00465 0.00650613 -1.91164e-17)
(0.994147 0.0275687 -5.16308e-18)
(1.00619 0.00513407 -9.05915e-18)
(1.00854 0.00112892 6.40453e-19)
(1.04548 0.0316015 -9.18029e-18)
(0.993797 0.00143591 4.43066e-17)
(0.991879 0.0338217 2.19308e-17)
(1.03551 0.0126463 4.21636e-18)
(1.00495 0.00639131 1.26197e-18)
(1.00841 0.00630552 -9.45246e-18)
(0.946666 0.0568171 -9.33947e-17)
(1.00001 -3.35863e-06 -2.39029e-18)
(0.993619 0.00540492 -2.60176e-18)
(1.30591 0.190896 1.28712e-16)
(0.999869 8.06639e-06 -8.31537e-17)
(1.04098 0.0366754 -3.34383e-18)
(0.996708 0.0703528 -4.7471e-17)
(1.00677 0.00660789 8.19778e-19)
(0.961283 0.0428533 -3.49658e-17)
(1.03588 0.0128309 5.0562e-18)
(0.997981 0.0247858 -1.99375e-17)
(1.02965 0.032974 -1.18518e-17)
(0.999622 0.00307771 8.97811e-19)
(0.936044 0.0386343 9.34913e-18)
(1.00485 0.000391537 2.47643e-17)
(1.03157 0.00092715 -3.78913e-19)
(1.03392 0.0132248 5.23168e-18)
(0.933778 0.0394505 1.1376e-16)
(0.999888 0.00291367 -8.51384e-19)
(1.03813 0.00414063 1.75724e-18)
(1.05073 0.0200715 2.12254e-17)
(0.991528 0.0337377 2.73656e-18)
(1.00577 0.0128173 7.43386e-18)
(1.00441 0.00248995 -1.96818e-18)
(1.01592 0.065626 9.54392e-18)
(0.777644 0.215187 -3.58386e-17)
(0.996034 0.000921965 6.34221e-17)
(0.999965 4.75266e-05 4.55266e-17)
(0.995076 0.0243329 -1.07425e-17)
(1 1.22006e-06 -6.47761e-18)
(1.15693 0.191224 -1.93006e-17)
(1.00692 0.0214846 1.07382e-17)
(1.03897 0.0834077 -1.41941e-17)
(1.01533 0.00672468 -3.81799e-18)
(1.02389 0.000857303 5.30978e-18)
(0.205533 0.0651226 -8.33065e-16)
(1.00663 0.0149793 5.29798e-18)
(1.09741 0.195882 2.75262e-17)
(1.03181 0.00654489 1.4299e-18)
(1.09805 -0.0144306 1.19289e-17)
(1.02649 0.0112499 2.80178e-18)
(0.997213 0.0108646 -2.92982e-17)
(1.00624 0.0135774 9.45045e-18)
(1.01599 0.000138143 -1.94563e-18)
(1.09597 0.0871 2.44664e-17)
(1.08362 0.0826871 5.74624e-18)
(1.00113 -0.000281191 -6.43566e-18)
(1.00128 0.000259839 -2.86205e-18)
(0.935112 0.0459532 -2.21118e-16)
(1.00197 -0.000155509 9.86412e-18)
(0.698613 0.431411 -1.158e-16)
(1.0275 0.02953 -5.90204e-18)
(0.975245 0.164811 7.29798e-18)
(1.0043 0.00267535 9.12411e-18)
(0.156222 0.291069 -2.35802e-16)
(1.14833 0.211432 -1.8581e-17)
(1.00597 0.0216059 1.60906e-17)
(0.999991 3.40985e-06 3.35505e-18)
(0.9999 0.00265836 -2.43847e-18)
(0.956736 0.0293102 -1.99474e-18)
(0.9946 0.00788201 -1.99198e-18)
(0.990298 0.000329122 3.94196e-16)
(0.997262 0.00916305 -6.84047e-18)
(1.03039 0.010504 -7.27881e-20)
(0.973942 0.03082 -3.86823e-17)
(1.06536 0.0070888 -4.65315e-17)
(0.62985 0.0654583 6.1488e-16)
(1.00062 2.70101e-05 -6.12804e-18)
(0.966461 0.0332366 3.98765e-17)
(1.03272 0.0259912 -5.39861e-18)
(0.925891 0.0588244 -8.13802e-19)
(1.00452 0.0124617 2.52471e-18)
(0.929457 0.0783294 1.82342e-17)
(1.03445 0.00610935 -2.86325e-18)
(0.951811 0.036476 -2.95364e-17)
(0.997217 0.000614629 -1.08081e-16)
(1.00007 2.21646e-05 -9.08137e-19)
(1.03676 0.0216361 -1.17231e-17)
(1.03988 0.0214949 -9.84523e-18)
(1.02823 0.000163045 6.33616e-19)
(0.936691 0.0382633 -9.0535e-17)
(1.03614 0.0809288 -1.85356e-17)
(1.0195 0.00121436 -4.27392e-19)
(0.999126 0.0232151 1.74151e-17)
(1.00041 0.00389724 -7.8515e-18)
(1.00998 0.0085182 -1.5138e-17)
(0.780511 0.0363001 -1.99453e-16)
(1.00952 0.00759225 8.71706e-18)
(1.03341 0.0199042 -2.02944e-18)
(0.983662 0.0400254 2.75117e-17)
(1.02555 0.0083795 -2.7748e-18)
(1.0096 -0.00078617 1.39734e-18)
(0.996654 0.0108658 -1.51923e-18)
(1.05133 0.0168048 -9.39729e-18)
(1.01464 0.00637951 -5.99195e-18)
(1.00538 0.0123224 1.25034e-17)
(1.06415 0.00729558 5.90312e-17)
(0.990654 0.0305132 4.05424e-17)
(1.01877 0.00123584 1.16382e-18)
(0.815711 0.334537 -1.8626e-16)
(1 2.46862e-05 5.01785e-19)
(1.01523 0.00740769 3.45009e-18)
(0.999209 0.0200545 -1.15494e-17)
(0.992732 0.00677848 5.96384e-18)
(1.00291 0.000508113 2.94512e-18)
(0.998452 0.0239331 2.90229e-17)
(1.00001 -8.03023e-06 5.9921e-18)
(1.04633 0.0990311 3.45434e-17)
(1.00541 0.000582476 -1.40336e-17)
(0.971395 0.00526899 1.89353e-16)
(1.03529 0.0322718 -8.17202e-18)
(0.95529 0.0488574 -6.57674e-17)
(1.01616 0.00867896 1.61413e-18)
(1.01591 0.00771469 -8.50695e-18)
(1.03564 0.0211308 -1.71359e-17)
(1.19209 0.0904064 1.52954e-16)
(0.999834 0.000136708 -6.18107e-17)
(0.992869 0.000961786 -1.46652e-16)
(1.02136 0.0011191 1.21365e-18)
(1.10697 0.183566 3.60678e-17)
(1.03914 0.0222286 -1.26308e-17)
(0.999838 0.00290562 1.48757e-18)
(0.276565 0.15521 8.55107e-17)
(1.00004 4.87726e-05 4.08257e-18)
(1.00463 0.00115557 -1.54504e-17)
(0.850033 -0.00624293 -3.81995e-17)
(0.994772 0.00502444 -1.90665e-18)
(0.999649 0.00310378 -2.86601e-18)
(0.999601 0.00340224 -9.80579e-18)
(0.984103 0.0367127 5.73373e-17)
(0.958325 0.0273339 -3.52496e-17)
(0.999829 6.36783e-05 -1.54924e-16)
(0.993805 0.0063276 3.40248e-18)
(0.9381 0.0666704 3.81845e-18)
(0.998211 0.0200047 2.78332e-17)
(0.996711 0.0163788 -4.12396e-18)
(0.996905 0.00909157 4.93292e-20)
(1.00119 8.05397e-05 -4.21651e-18)
(0.958826 0.0334346 -4.56008e-17)
(1.06525 0.0521927 -2.66724e-18)
(0.996084 0.0153163 2.20336e-17)
(0.933697 0.0314036 2.43664e-17)
(1.03242 0.00521258 -7.27077e-19)
(1.03406 0.00260109 -3.62528e-18)
(1.04205 0.0992761 1.89386e-17)
(1.03206 0.0273135 -4.29567e-18)
(0.996683 0.00927031 -2.56537e-19)
(1.00428 0.0013178 -3.12739e-19)
(1.08842 0.0919807 2.25845e-17)
(1.03516 0.00463817 2.17243e-18)
(0.976454 0.0250029 -8.63387e-18)
(1.00076 0.00386347 -7.67009e-18)
(0.999579 0.000387055 4.10059e-17)
(0.935351 0.0131773 1.54622e-17)
(1.04963 0.0375693 4.82178e-18)
(1.01388 0.0060087 -1.10064e-17)
(1.01133 0.0484962 -2.29572e-17)
(1.01445 0.00704412 -1.35431e-17)
(0.99705 0.00968584 1.97117e-17)
(1.00531 0.00382332 -1.00812e-17)
(0.9684 0.0343509 1.27688e-17)
(0.919814 0.00114503 1.42404e-16)
(0.345751 0.464564 2.89913e-16)
(0.969042 0.038542 -5.59378e-17)
(0.999031 0.0169173 -1.23013e-17)
(1.00534 0.00440383 7.9241e-18)
(0.971915 0.0343233 5.84354e-17)
(0.589013 0.314697 -1.46444e-17)
(0.937389 0.0327661 -2.29788e-16)
(0.999934 0.00271799 -1.1214e-18)