/*--------------------------------*- C++ -*----------------------------------*\
  =========                 |
  \\      /  F ield         | OpenFOAM: The Open Source CFD Toolbox
   \\    /   O peration     | Website:  https://openfoam.org
    \\  /    A nd           | Version:  7
     \\/     M anipulation  |
\*---------------------------------------------------------------------------*/
FoamFile
{
    version     2.0;
    format      ascii;
    class       volScalarField;
    location    "17.5";
    object      T;
}
// * * * * * * * * * * * * * * * * * * * * * * * * * * * * * * * * * * * * * //

dimensions      [0 0 0 1 0 0 0];

internalField   nonuniform List<scalar> 
2418
(
1.0423
1.05399
1.06782
1.07289
1.07332
1.07308
1.07225
1.07088
1.06925
1.06767
1.06623
1.06468
1.06293
1.06142
1.06054
1.0604
1.06064
1.06121
1.06291
1.06649
1.07209
1.07452
1.07464
1.07452
1.07398
1.07273
1.07077
1.06841
1.06627
1.06429
1.06278
1.06222
1.06186
1.06148
1.0613
1.06134
1.06169
1.06183
1.06192
1.06286
1.06306
1.06286
0.997509
0.997004
0.996346
0.995472
0.994978
0.994486
0.99369
0.993106
0.992693
0.992028
0.991367
0.990989
0.990467
0.9898
0.989435
0.989061
0.988512
0.988137
0.98791
0.987735
0.987697
0.987823
0.988228
0.989014
0.990047
0.991456
0.993088
0.994916
0.997759
1.00245
1.00883
1.01815
1.02862
1.03935
1.04997
1.05807
1.06567
1.07017
1.07233
1.07458
1.07584
1.07647
1.07667
1.07664
1.07631
1.07552
1.07479
1.0742
1.0735
1.07251
1.0716
1.07072
1.06946
1.06837
1.06764
1.06645
1.06523
1.06488
1.06419
1.06335
1.06334
1.06322
1.06248
1.06205
1.06201
1.06156
1.06058
1.05985
1.05915
1.05817
1.05698
1.05574
1.05442
1.05304
1.05162
1.05016
1.04865
1.04712
1.04559
1.04411
1.04267
1.04127
1.0399
1.0385
1.03694
1.03519
1.0341
1.03405
1.03413
1.03471
1.03767
1.0461
1.0593
1.07109
1.07344
1.07356
1.07316
1.07211
1.07061
1.06906
1.06756
1.06587
1.06413
1.06293
1.06269
1.06277
1.06295
1.06382
1.06623
1.07073
1.07603
1.07781
1.07801
1.07793
1.07736
1.07604
1.07413
1.07221
1.0707
1.06972
1.06965
1.06974
1.07002
1.07106
1.07166
1.07236
1.07366
1.07372
1.07366
1.07428
1.07404
1.07317
0.998932
0.998453
0.997965
0.997165
0.996557
0.996146
0.995501
0.994812
0.994449
0.993975
0.993295
0.992899
0.992528
0.991914
0.991488
0.991225
0.99078
0.990362
0.990147
0.989924
0.989729
0.989631
0.989717
0.990032
0.990645
0.991631
0.992862
0.99426
0.995817
0.997602
0.999754
1.003
1.00776
1.01401
1.02266
1.03178
1.0419
1.05078
1.05797
1.06541
1.06901
1.07079
1.07279
1.07397
1.07467
1.07494
1.07496
1.07474
1.07413
1.0734
1.07273
1.07219
1.07155
1.07081
1.07029
1.06955
1.06842
1.06812
1.06763
1.06657
1.06626
1.06601
1.06524
1.06462
1.06418
1.06356
1.06264
1.06153
1.06037
1.05912
1.05775
1.05636
1.05496
1.05354
1.0521
1.05061
1.04906
1.04751
1.04597
1.04447
1.04303
1.04159
1.04023
1.03892
1.03749
1.03587
1.03452
1.034
1.03403
1.03425
1.03553
1.04024
1.05089
1.06424
1.0729
1.07407
1.07397
1.0734
1.07227
1.07086
1.06923
1.06746
1.06573
1.06506
1.06518
1.06555
1.06599
1.06743
1.07074
1.07589
1.08048
1.08199
1.08254
1.08281
1.08274
1.08201
1.08064
1.07993
1.07982
1.08004
1.08155
1.08218
1.08294
1.08433
1.08434
1.08461
1.08515
1.08461
1.08373
1.08336
1.08257
1.08132
1.00063
1.00002
0.999614
0.998984
0.998283
0.997896
0.997413
0.996675
0.996252
0.995893
0.995265
0.994777
0.99447
0.993968
0.993434
0.993188
0.992862
0.992367
0.992148
0.991953
0.991697
0.991579
0.99153
0.991594
0.991828
0.992337
0.993219
0.994285
0.99549
0.99699
0.998442
0.999917
1.00173
1.00393
1.00698
1.01122
1.01727
1.02537
1.03377
1.04315
1.05094
1.05767
1.06506
1.06804
1.06947
1.07127
1.07248
1.07342
1.07371
1.07381
1.07381
1.07351
1.07327
1.07287
1.07254
1.07239
1.07186
1.07154
1.07132
1.07039
1.06981
1.06924
1.06833
1.0674
1.06638
1.06518
1.06399
1.06278
1.06147
1.06005
1.05856
1.05706
1.05557
1.05404
1.05246
1.05084
1.0492
1.04763
1.04624
1.04496
1.04371
1.04241
1.04109
1.03976
1.03836
1.03671
1.03502
1.03392
1.03392
1.03424
1.03495
1.03727
1.04414
1.05602
1.06873
1.07425
1.07492
1.07471
1.07409
1.073
1.07148
1.06973
1.06844
1.06803
1.06821
1.06888
1.07002
1.07256
1.07708
1.08291
1.0873
1.08942
1.09035
1.09097
1.09203
1.09224
1.09229
1.09307
1.09316
1.09381
1.09539
1.09521
1.0954
1.09565
1.09486
1.09381
1.09292
1.0916
1.09012
1.08887
1.08755
1.08633
1.00264
1.00185
1.00139
1.00093
1.0002
0.999722
0.999355
0.998712
0.998122
0.997789
0.997266
0.996639
0.996315
0.99591
0.995322
0.995011
0.994723
0.994222
0.9939
0.993727
0.993412
0.993162
0.993135
0.993086
0.993141
0.99338
0.993918
0.994696
0.995673
0.996886
0.998096
0.999354
1.0008
1.00223
1.00349
1.00489
1.0068
1.0097
1.01374
1.01959
1.02725
1.03532
1.04409
1.05117
1.05779
1.06477
1.06725
1.06878
1.07051
1.07197
1.07312
1.07351
1.07402
1.07463
1.07479
1.07476
1.07463
1.07468
1.07461
1.07411
1.07342
1.07262
1.07152
1.07026
1.0689
1.06739
1.06581
1.06417
1.06245
1.0607
1.05901
1.05746
1.05603
1.05461
1.05311
1.05156
1.05001
1.04843
1.04686
1.04533
1.04394
1.04285
1.04193
1.04091
1.03969
1.03822
1.03653
1.03478
1.03399
1.03403
1.03463
1.03612
1.03986
1.04861
1.06144
1.07285
1.07623
1.07655
1.07635
1.07572
1.0746
1.07324
1.07276
1.0727
1.07305
1.07414
1.07629
1.08026
1.08644
1.09328
1.09857
1.10206
1.1031
1.10413
1.10539
1.10522
1.10562
1.10635
1.10574
1.10576
1.10593
1.10518
1.10408
1.10291
1.10135
1.0996
1.09793
1.09614
1.09437
1.09302
1.09193
1.09182
1.00473
1.00404
1.00333
1.00291
1.00235
1.00164
1.00125
1.0008
1.00009
0.999655
0.999253
0.998577
0.998127
0.997772
0.997169
0.996737
0.996454
0.995972
0.995519
0.995311
0.995023
0.99466
0.994537
0.994474
0.994405
0.99447
0.994722
0.995216
0.995919
0.996882
0.99799
0.99914
1.00042
1.00175
1.00305
1.00421
1.00531
1.00639
1.00751
1.00919
1.01189
1.01586
1.02155
1.02876
1.03655
1.04497
1.05194
1.05886
1.06472
1.06764
1.06959
1.07137
1.07286
1.07415
1.07485
1.07537
1.076
1.07632
1.07635
1.07616
1.0758
1.07517
1.07419
1.07304
1.07152
1.0698
1.06804
1.06617
1.06423
1.06235
1.06049
1.0586
1.05673
1.05502
1.05358
1.05236
1.05119
1.04986
1.04835
1.04678
1.04523
1.0437
1.04222
1.04121
1.04049
1.03969
1.03856
1.03696
1.03562
1.03502
1.03515
1.03592
1.0381
1.0432
1.05371
1.06732
1.07643
1.07961
1.08011
1.08022
1.07987
1.07942
1.07971
1.08012
1.08117
1.08321
1.08661
1.09218
1.09998
1.10749
1.11351
1.11645
1.1169
1.11792
1.11831
1.11727
1.11673
1.11632
1.11498
1.11363
1.11224
1.1105
1.10858
1.10657
1.10454
1.10253
1.10081
1.09933
1.0982
1.09848
1.10065
1.10569
1.00673
1.00628
1.00553
1.00491
1.00451
1.00387
1.0032
1.0028
1.0022
1.00152
1.00114
1.00058
0.999967
0.999592
0.999072
0.998485
0.998139
0.997696
0.997103
0.996825
0.996542
0.99609
0.995848
0.995754
0.995647
0.995599
0.995693
0.995977
0.996455
0.997197
0.998135
0.999146
1.00031
1.00157
1.00287
1.00419
1.00536
1.00647
1.00755
1.0085
1.00932
1.01027
1.01154
1.01416
1.01813
1.02382
1.03071
1.03846
1.04664
1.05371
1.06072
1.0656
1.06917
1.0712
1.07271
1.0742
1.07529
1.07589
1.07632
1.0764
1.07617
1.07552
1.07466
1.07353
1.07228
1.07089
1.0694
1.06779
1.06615
1.06456
1.06282
1.06087
1.05891
1.05705
1.05523
1.05339
1.05172
1.0505
1.04949
1.04842
1.04711
1.04559
1.04408
1.04273
1.0416
1.04066
1.03987
1.03897
1.03795
1.03733
1.03707
1.03739
1.03866
1.04169
1.04838
1.06111
1.07493
1.08329
1.08695
1.08836
1.0887
1.0893
1.08997
1.0905
1.09205
1.09484
1.09931
1.10661
1.11543
1.12293
1.12756
1.12849
1.12802
1.12769
1.12688
1.1251
1.12329
1.1215
1.1195
1.11731
1.11511
1.11267
1.11033
1.1081
1.10619
1.10481
1.1037
1.10432
1.10727
1.1138
1.12598
1.13927
1.00891
1.00839
1.00788
1.00706
1.00653
1.00609
1.00534
1.00476
1.00431
1.00357
1.00301
1.00256
1.00187
1.00138
1.00093
1.00028
0.999824
0.999429
0.998801
0.998376
0.998121
0.997686
0.997312
0.997161
0.996973
0.996874
0.996873
0.996968
0.997271
0.997837
0.998652
0.999583
1.00067
1.00183
1.00304
1.00439
1.00575
1.00695
1.00815
1.00923
1.01022
1.01117
1.01216
1.01294
1.01363
1.01471
1.01716
1.02093
1.02653
1.03321
1.04104
1.04876
1.05516
1.0619
1.06629
1.06996
1.07205
1.07269
1.07382
1.07454
1.07451
1.07439
1.07405
1.07327
1.07226
1.0712
1.07002
1.06863
1.06714
1.06565
1.06416
1.06269
1.0612
1.05956
1.05773
1.05584
1.05404
1.05245
1.05095
1.04967
1.04864
1.04766
1.04666
1.0455
1.04429
1.04325
1.04239
1.04178
1.0411
1.04089
1.04114
1.04184
1.04318
1.0458
1.05104
1.06011
1.074
1.08733
1.09567
1.09832
1.09938
1.10034
1.10091
1.10172
1.10342
1.10618
1.11151
1.12004
1.12923
1.13512
1.137
1.13691
1.13587
1.13397
1.13162
1.12888
1.12613
1.12341
1.12079
1.11816
1.11576
1.11354
1.11173
1.11034
1.10946
1.11083
1.11491
1.124
1.13694
1.1518
1.16746
1.17686
1.01139
1.01056
1.01009
1.00948
1.00862
1.00814
1.00757
1.00677
1.00628
1.0057
1.00497
1.00449
1.00388
1.00323
1.00281
1.0022
1.00155
1.00116
1.00065
1.00002
0.999728
0.99945
0.998995
0.998801
0.998668
0.998548
0.99861
0.998671
0.998782
0.999125
0.99974
1.00055
1.00158
1.00277
1.00399
1.00529
1.00661
1.00792
1.0092
1.01042
1.01147
1.01243
1.01329
1.01397
1.01474
1.01562
1.01647
1.01706
1.01806
1.0204
1.02393
1.0292
1.03519
1.04238
1.04956
1.0554
1.06101
1.06493
1.06864
1.07027
1.07005
1.07044
1.07092
1.07077
1.07055
1.0703
1.06962
1.06853
1.06743
1.06628
1.06501
1.06368
1.06239
1.06115
1.05987
1.05858
1.0572
1.0557
1.05413
1.05262
1.05143
1.05055
1.0498
1.04919
1.04875
1.04835
1.04779
1.04754
1.0475
1.04757
1.04817
1.0493
1.05082
1.05316
1.05707
1.064
1.07477
1.08888
1.10093
1.10772
1.10963
1.10978
1.10968
1.11034
1.11195
1.11531
1.12207
1.13172
1.14038
1.14272
1.14266
1.14172
1.13964
1.13684
1.13368
1.13034
1.12705
1.12403
1.12126
1.11899
1.11733
1.11596
1.11581
1.11776
1.12345
1.13477
1.14796
1.16483
1.17702
1.18719
1.19576
1.19814
1.0138
1.01294
1.01225
1.01175
1.01095
1.01017
1.0097
1.00898
1.00825
1.00774
1.00706
1.00646
1.00588
1.00514
1.00467
1.00421
1.00348
1.00297
1.00265
1.00215
1.00164
1.00144
1.00123
1.00103
1.00088
1.00079
1.001
1.00122
1.00128
1.00155
1.00208
1.00271
1.00347
1.00441
1.00545
1.0066
1.00788
1.00917
1.01038
1.01162
1.01275
1.01374
1.01469
1.01549
1.01621
1.01691
1.01743
1.01806
1.01891
1.01922
1.01959
1.0204
1.02231
1.0253
1.02993
1.03513
1.04143
1.04725
1.05288
1.05747
1.06062
1.06408
1.06613
1.06612
1.06632
1.06684
1.06701
1.06682
1.06664
1.06618
1.06528
1.06414
1.06298
1.06193
1.06122
1.06062
1.05994
1.05912
1.05831
1.05739
1.05644
1.05605
1.05564
1.05535
1.05571
1.05597
1.05601
1.0568
1.05723
1.0575
1.05843
1.05922
1.06021
1.06173
1.06401
1.06831
1.07585
1.08678
1.1003
1.11087
1.11642
1.11711
1.11687
1.11678
1.11781
1.12197
1.13042
1.14136
1.14656
1.14668
1.14562
1.14313
1.1397
1.13627
1.13305
1.13011
1.12741
1.12508
1.12322
1.12142
1.12207
1.12531
1.13376
1.14549
1.1615
1.17647
1.18779
1.19901
1.20241
1.20343
1.20335
1.2026
1.01619
1.01543
1.01456
1.01393
1.01328
1.01237
1.01176
1.01121
1.01038
1.00973
1.00918
1.00856
1.00797
1.00725
1.00667
1.00634
1.00583
1.00512
1.00489
1.00472
1.00434
1.00409
1.00403
1.00417
1.00421
1.00412
1.00436
1.00466
1.00471
1.00504
1.00547
1.00573
1.00611
1.00675
1.00753
1.00839
1.00937
1.01041
1.01144
1.01253
1.01366
1.01467
1.01573
1.01674
1.0176
1.01837
1.01895
1.01945
1.01998
1.02017
1.02031
1.02063
1.02058
1.02069
1.02115
1.02223
1.02445
1.02793
1.03224
1.0375
1.04252
1.04806
1.05214
1.05523
1.05925
1.06183
1.06221
1.06252
1.0633
1.06413
1.06427
1.06411
1.0639
1.06361
1.06317
1.06292
1.06288
1.06288
1.06317
1.06335
1.06331
1.06373
1.06385
1.06421
1.06522
1.06552
1.06615
1.06716
1.06737
1.06775
1.06853
1.06888
1.06921
1.06973
1.07073
1.07267
1.07665
1.08407
1.09529
1.10768
1.11618
1.12072
1.12126
1.12142
1.1226
1.12743
1.13737
1.14721
1.14864
1.14817
1.14636
1.14328
1.1395
1.13587
1.13277
1.13069
1.129
1.12816
1.12938
1.13419
1.14383
1.15731
1.17377
1.18656
1.19981
1.20733
1.20968
1.21206
1.21169
1.21075
1.20859
1.2049
1.01854
1.01777
1.01698
1.01621
1.01553
1.01473
1.01393
1.01338
1.0127
1.0119
1.01137
1.01083
1.0103
1.00976
1.00914
1.0089
1.00873
1.00831
1.00801
1.00803
1.00816
1.00805
1.00792
1.00819
1.00842
1.00834
1.00862
1.0088
1.00871
1.00892
1.00917
1.00911
1.00919
1.00948
1.00984
1.01027
1.01085
1.01154
1.0123
1.01316
1.01412
1.01511
1.01616
1.01731
1.01833
1.01931
1.02026
1.02101
1.02145
1.02151
1.02143
1.02131
1.0211
1.02086
1.02049
1.02014
1.01984
1.01966
1.02017
1.02175
1.02432
1.02803
1.03272
1.03762
1.04285
1.04709
1.05108
1.0559
1.05812
1.0597
1.06117
1.06264
1.0637
1.06457
1.06542
1.06655
1.06775
1.06865
1.06939
1.07009
1.07107
1.0718
1.07245
1.0737
1.07413
1.07462
1.07537
1.07528
1.07541
1.07547
1.07502
1.07479
1.07472
1.07433
1.07425
1.07462
1.07623
1.08046
1.08821
1.10038
1.11246
1.11911
1.12233
1.12395
1.12623
1.13223
1.14331
1.14911
1.14953
1.14896
1.14685
1.14356
1.1401
1.13738
1.13499
1.13482
1.13698
1.14374
1.15426
1.17071
1.18522
1.19903
1.20937
1.21265
1.2154
1.21665
1.21638
1.21591
1.21379
1.21012
1.20621
1.20223
1.02038
1.01973
1.01908
1.01843
1.01775
1.01704
1.01629
1.01572
1.01517
1.01445
1.01398
1.01366
1.01323
1.01303
1.01285
1.01259
1.0126
1.01286
1.01274
1.01262
1.01294
1.013
1.01278
1.01298
1.01306
1.01284
1.01291
1.01294
1.01269
1.01263
1.01262
1.0124
1.01223
1.01218
1.01212
1.01217
1.01236
1.01269
1.01314
1.01375
1.01452
1.01537
1.01632
1.0174
1.01851
1.0195
1.02059
1.02165
1.02227
1.02283
1.0229
1.02273
1.02231
1.02166
1.02093
1.02024
1.01953
1.01886
1.0183
1.01791
1.01769
1.01797
1.01909
1.02125
1.02472
1.02912
1.03409
1.03953
1.04471
1.0497
1.05425
1.05841
1.06207
1.06469
1.067
1.06912
1.07091
1.07258
1.07422
1.07603
1.0778
1.07886
1.08
1.08089
1.08117
1.08169
1.08186
1.08173
1.08165
1.08142
1.08062
1.07979
1.07902
1.07799
1.07686
1.07594
1.07612
1.07791
1.08205
1.09026
1.10296
1.11266
1.1186
1.12249
1.12706
1.1356
1.14641
1.14987
1.15009
1.14966
1.14805
1.14558
1.14297
1.14318
1.14649
1.15378
1.16652
1.18198
1.19669
1.21178
1.21778
1.22254
1.22584
1.22558
1.22477
1.2221
1.21798
1.21377
1.20976
1.20587
1.20215
1.19875
1.02119
1.02074
1.02036
1.01998
1.01956
1.01914
1.01863
1.01837
1.01814
1.01767
1.01759
1.0177
1.01751
1.01757
1.01803
1.01796
1.01788
1.0183
1.01828
1.01806
1.01823
1.0181
1.01773
1.01769
1.01748
1.017
1.01677
1.01647
1.01598
1.01565
1.01539
1.01508
1.01477
1.01449
1.01422
1.01403
1.01397
1.01402
1.0142
1.01454
1.01505
1.01569
1.01642
1.01732
1.01842
1.01934
1.02025
1.02149
1.02225
1.02274
1.02326
1.0234
1.02333
1.0229
1.02217
1.0213
1.02032
1.01939
1.01863
1.01807
1.01758
1.01752
1.01726
1.01734
1.01781
1.01886
1.02073
1.02372
1.02805
1.03373
1.04024
1.04669
1.05315
1.05924
1.06422
1.06813
1.07139
1.07424
1.07655
1.07842
1.08006
1.0813
1.08218
1.08284
1.08321
1.0834
1.08324
1.08297
1.08274
1.08232
1.08175
1.08111
1.08031
1.07941
1.07841
1.07746
1.07665
1.07609
1.07736
1.08171
1.09011
1.10219
1.11121
1.11926
1.1279
1.13966
1.15002
1.15231
1.15269
1.15287
1.15205
1.153
1.157
1.16517
1.17914
1.19263
1.20918
1.21885
1.22594
1.2301
1.23094
1.2306
1.22966
1.22675
1.22293
1.21903
1.21519
1.21108
1.20716
1.20355
1.20019
1.19721
1.0216
1.02134
1.02113
1.02092
1.02092
1.02101
1.02102
1.02142
1.02177
1.02181
1.02237
1.02277
1.02283
1.02331
1.02371
1.02351
1.02349
1.02375
1.02352
1.02315
1.02304
1.02264
1.02209
1.02168
1.02118
1.02059
1.02003
1.01949
1.01892
1.01841
1.01797
1.01754
1.01714
1.01676
1.01641
1.0161
1.0158
1.01571
1.0157
1.01579
1.01602
1.0164
1.01689
1.01749
1.01833
1.01919
1.01985
1.02082
1.02187
1.02229
1.02288
1.02345
1.02348
1.02325
1.02309
1.02276
1.02214
1.02138
1.02067
1.02004
1.0197
1.01962
1.01982
1.02045
1.02133
1.02241
1.02398
1.02584
1.02804
1.03075
1.03393
1.03757
1.04194
1.047
1.05251
1.05781
1.06277
1.0671
1.07066
1.07347
1.07566
1.07768
1.07888
1.07976
1.08067
1.08066
1.08064
1.0807
1.08041
1.0795
1.07876
1.07803
1.07704
1.07596
1.07496
1.07396
1.07331
1.07328
1.07364
1.07573
1.08068
1.09011
1.10136
1.11312
1.12757
1.14323
1.15424
1.15787
1.15995
1.16385
1.1693
1.17919
1.19086
1.20504
1.219
1.22718
1.23556
1.23936
1.23954
1.23874
1.23616
1.2319
1.22709
1.22289
1.21876
1.21498
1.21198
1.20893
1.20569
1.20251
1.19947
1.19658
1.02235
1.02271
1.02293
1.0233
1.02393
1.02437
1.02501
1.02588
1.02622
1.02671
1.02749
1.02755
1.02772
1.02825
1.02822
1.02779
1.02768
1.02758
1.02706
1.02653
1.02611
1.02559
1.02501
1.02445
1.02382
1.02316
1.02252
1.0219
1.02129
1.02074
1.02024
1.01975
1.01928
1.01887
1.01847
1.01813
1.01782
1.01762
1.01748
1.01744
1.01747
1.01758
1.01778
1.01805
1.01843
1.01905
1.01952
1.02001
1.02095
1.02151
1.02187
1.02267
1.02316
1.02316
1.02329
1.02365
1.0239
1.02397
1.02398
1.02401
1.02431
1.02436
1.02471
1.02567
1.02616
1.02692
1.02798
1.02892
1.03005
1.0311
1.03207
1.03326
1.03474
1.03706
1.04008
1.04359
1.04752
1.05173
1.0557
1.05936
1.06273
1.06546
1.06782
1.06951
1.07126
1.07206
1.07242
1.07353
1.07389
1.07334
1.0733
1.07345
1.07322
1.07268
1.07236
1.07211
1.07193
1.07201
1.0722
1.07305
1.07551
1.08131
1.09171
1.10501
1.12531
1.14476
1.1608
1.172
1.1832
1.19431
1.20483
1.21861
1.22624
1.23567
1.24183
1.24308
1.24429
1.24371
1.2408
1.2368
1.23279
1.22861
1.22407
1.22004
1.21619
1.21285
1.20995
1.20715
1.2044
1.20172
1.19894
1.19602
1.02457
1.02529
1.02615
1.02732
1.02817
1.02891
1.03007
1.03054
1.03076
1.03129
1.03143
1.03139
1.03153
1.03168
1.03145
1.03098
1.03065
1.03025
1.02971
1.02913
1.02854
1.0279
1.02727
1.02663
1.02597
1.0253
1.02464
1.024
1.02337
1.02277
1.02223
1.02172
1.02125
1.02085
1.02049
1.02018
1.01994
1.01972
1.01953
1.01937
1.01924
1.01914
1.01906
1.019
1.01898
1.01912
1.01937
1.01943
1.01981
1.02052
1.02087
1.02152
1.0223
1.02298
1.0237
1.02455
1.02554
1.02649
1.02747
1.02863
1.02938
1.02991
1.03095
1.03158
1.03182
1.0327
1.03309
1.03343
1.0342
1.03444
1.03489
1.03568
1.0364
1.03679
1.03721
1.03767
1.03833
1.03936
1.04091
1.04289
1.04525
1.04791
1.05084
1.05342
1.05596
1.05905
1.06091
1.06249
1.06494
1.06607
1.06679
1.0679
1.06875
1.06941
1.07
1.07043
1.07106
1.07194
1.07307
1.07475
1.07746
1.0821
1.09029
1.10306
1.12314
1.15016
1.17957
1.20429
1.22343
1.2317
1.23941
1.24791
1.25025
1.25332
1.25319
1.25178
1.24762
1.24218
1.23735
1.23282
1.22873
1.22507
1.22172
1.21846
1.21522
1.2124
1.2097
1.20696
1.20423
1.20156
1.19885
1.19603
1.02834
1.02966
1.03113
1.03207
1.03263
1.03336
1.03368
1.03364
1.03384
1.03408
1.03384
1.03355
1.03341
1.0331
1.03269
1.03219
1.03172
1.03124
1.03071
1.03018
1.02958
1.02892
1.02824
1.02755
1.02687
1.02619
1.02552
1.02486
1.02422
1.02361
1.02306
1.02255
1.02209
1.02172
1.02144
1.02123
1.02109
1.02096
1.02083
1.0207
1.02054
1.02037
1.02017
1.0199
1.01963
1.01938
1.01923
1.01909
1.01909
1.01947
1.02002
1.02068
1.02162
1.02274
1.02399
1.02542
1.027
1.02862
1.03028
1.03182
1.03317
1.03447
1.03555
1.03594
1.03657
1.03737
1.03737
1.03741
1.03782
1.03773
1.0376
1.03761
1.03742
1.03689
1.0362
1.03556
1.0349
1.03442
1.03397
1.03401
1.03445
1.03522
1.03647
1.03834
1.04041
1.04287
1.04587
1.04837
1.05101
1.05399
1.05645
1.05884
1.06126
1.06372
1.06613
1.06854
1.07103
1.07375
1.07665
1.07973
1.08338
1.08764
1.09415
1.10425
1.12252
1.15657
1.20356
1.24141
1.25699
1.25845
1.25942
1.26095
1.26027
1.25815
1.25402
1.24886
1.24388
1.23886
1.2342
1.2302
1.22666
1.22347
1.22054
1.21784
1.2154
1.21301
1.21056
1.20811
1.20578
1.20335
1.20061
1.1978
1.03144
1.03295
1.03405
1.03487
1.03567
1.03638
1.03659
1.03674
1.03697
1.03704
1.03689
1.03652
1.03614
1.03564
1.03503
1.0344
1.03372
1.03302
1.03231
1.0316
1.03086
1.03008
1.02928
1.02849
1.02772
1.02697
1.02625
1.02557
1.02491
1.02426
1.02369
1.02316
1.02269
1.02233
1.02211
1.02197
1.02189
1.02182
1.02174
1.02164
1.02148
1.02128
1.02101
1.02067
1.0202
1.01972
1.01927
1.01885
1.01879
1.01893
1.01938
1.02012
1.02123
1.02263
1.02425
1.02603
1.02786
1.02977
1.03162
1.0334
1.03517
1.03699
1.03858
1.03992
1.04116
1.042
1.04234
1.0422
1.04189
1.04121
1.04009
1.03868
1.03717
1.03582
1.03458
1.03358
1.03268
1.03181
1.03113
1.03044
1.0299
1.02955
1.02934
1.02952
1.02999
1.03088
1.03237
1.03449
1.03714
1.04051
1.04433
1.04865
1.05324
1.0582
1.06332
1.06849
1.07334
1.07798
1.08225
1.08606
1.08987
1.09382
1.09901
1.10765
1.12438
1.16178
1.2191
1.26242
1.28094
1.28361
1.28098
1.27574
1.26793
1.2591
1.25216
1.2459
1.2408
1.23641
1.23239
1.22876
1.22532
1.22209
1.21918
1.21655
1.21422
1.21187
1.20938
1.20671
1.20388
1.20099
1.19809
1.1952
)
;

boundaryField
{
    inlet
    {
        type            fixedValue;
        value           nonuniform 0();
    }
    outlet
    {
        type            inletOutlet;
        inletValue      nonuniform 0();
        value           nonuniform 0();
    }
    bottom
    {
        type            symmetryPlane;
    }
    top
    {
        type            symmetryPlane;
    }
    obstacle
    {
        type            zeroGradient;
    }
    front
    {
        type            empty;
    }
    back
    {
        type            empty;
    }
    procBoundary54to46
    {
        type            processor;
        value           nonuniform List<scalar> 
133
(
1.04903
1.06306
1.07213
1.07325
1.07314
1.07255
1.07133
1.06977
1.06816
1.06661
1.06521
1.06378
1.06205
1.06021
1.05882
1.05875
1.05896
1.05914
1.06013
1.06267
1.06743
1.0714
1.07208
1.07207
1.07173
1.07072
1.06887
1.06637
1.06382
1.06135
1.05946
1.05831
1.05727
1.05621
1.0553
1.05447
1.05384
1.05341
1.05299
1.05284
1.05247
1.05213
0.99626
0.995755
0.994927
0.994182
0.993689
0.99296
0.99206
0.991531
0.990964
0.990124
0.989564
0.989113
0.988392
0.987794
0.987397
0.986868
0.986313
0.986041
0.98593
0.985987
0.986286
0.986842
0.987674
0.988872
0.990326
0.992307
0.996046
1.00201
1.01124
1.02316
1.03488
1.04793
1.05755
1.0657
1.07089
1.07359
1.07637
1.0782
1.07855
1.07862
1.07855
1.07803
1.07714
1.07652
1.07603
1.07531
1.07438
1.07342
1.07227
1.0709
1.06977
1.06849
1.06708
1.06611
1.06509
1.06366
1.06294
1.06257
1.06174
1.06082
1.06066
1.06042
1.05969
1.0594
1.05952
1.05914
1.05828
1.05797
1.05751
1.05652
1.05554
1.05469
1.05368
1.05251
1.05124
1.04987
1.0484
1.04687
1.0453
1.04376
1.04228
1.04094
1.03961
1.03822
1.03659
1.03488
1.03428
1.03428
1.03451
1.03624
1.03624
)
;
    }
    procBoundary54to47
    {
        type            processor;
        value           uniform 1.06336;
    }
    procBoundary54to53
    {
        type            processor;
        value           nonuniform List<scalar> 
18
(
0.998321
0.999738
1.0014
1.00322
1.00515
1.00727
1.00977
1.0121
1.01439
1.0169
1.01929
1.02096
1.0216
1.02182
1.02206
1.02392
1.02684
1.02966
)
;
    }
    procBoundary54to55
    {
        type            processor;
        value           nonuniform List<scalar> 
18
(
1.07292
1.08021
1.08534
1.09299
1.11512
1.15507
1.18562
1.19837
1.20093
1.20104
1.19826
1.19561
1.19446
1.19374
1.19304
1.19322
1.19504
1.19236
)
;
    }
}


// ************************************************************************* //
