/*--------------------------------*- C++ -*----------------------------------*\
  =========                 |
  \\      /  F ield         | OpenFOAM: The Open Source CFD Toolbox
   \\    /   O peration     | Website:  https://openfoam.org
    \\  /    A nd           | Version:  7
     \\/     M anipulation  |
\*---------------------------------------------------------------------------*/
FoamFile
{
    version     2.0;
    format      ascii;
    class       surfaceScalarField;
    location    "0.413";
    object      phi;
}
// * * * * * * * * * * * * * * * * * * * * * * * * * * * * * * * * * * * * * //

dimensions      [0 3 -1 0 0 0 0];

internalField   nonuniform List<scalar> 
18389
(
-7.97698e-05
7.97698e-05
4.3529e-05
-4.3529e-05
-5.20446e-05
5.20446e-05
4.00435e-05
-4.00435e-05
-5.1795e-05
5.1795e-05
-3.9872e-05
3.9872e-05
-3.48307e-05
3.48307e-05
3.89375e-05
-3.89375e-05
-3.49193e-05
3.49193e-05
4.13448e-05
-4.13448e-05
4.44181e-05
-4.44181e-05
-3.44802e-05
3.44802e-05
-1.11358e-05
1.11358e-05
-4.2785e-05
4.2785e-05
4.34325e-05
-4.34325e-05
2.42935e-05
-2.42935e-05
1.86462e-05
-1.86461e-05
4.58846e-05
-4.58846e-05
4.59223e-05
-4.59223e-05
4.33435e-05
-4.33435e-05
-4.25826e-05
4.25826e-05
3.53198e-05
-3.53198e-05
4.296e-05
-4.296e-05
-5.85246e-05
5.85246e-05
-4.97345e-05
4.97345e-05
-4.17839e-05
4.17839e-05
-4.45302e-05
4.45302e-05
4.56123e-05
-4.56123e-05
4.58445e-05
-4.58445e-05
4.41276e-05
-4.41276e-05
-4.13287e-05
4.13287e-05
-6.30606e-05
6.30606e-05
4.31146e-05
-4.31146e-05
-4.47327e-05
4.47327e-05
4.086e-05
-4.086e-05
4.66863e-05
-4.66863e-05
-4.55466e-05
4.55466e-05
5.36127e-05
-5.36127e-05
-5.89412e-05
5.89412e-05
3.78738e-05
-3.78738e-05
4.49216e-05
-4.49216e-05
4.5407e-05
-4.5407e-05
-4.10135e-05
4.10135e-05
4.49083e-05
-4.49083e-05
4.58616e-05
-4.58616e-05
-4.58462e-05
4.58462e-05
-4.58389e-05
4.58389e-05
-4.06539e-05
4.06539e-05
-4.58805e-05
4.58805e-05
4.59268e-05
-4.59268e-05
4.59438e-05
-4.59438e-05
4.46069e-05
-4.46069e-05
3.77252e-05
-3.77252e-05
-4.57591e-05
4.57591e-05
-5.55319e-05
5.55319e-05
-4.38112e-05
4.38112e-05
4.57549e-05
-4.57549e-05
-4.59925e-05
4.59925e-05
4.32269e-05
-4.32269e-05
-5.93209e-05
5.93209e-05
-4.71395e-05
4.71395e-05
4.96063e-05
-4.96063e-05
4.57226e-05
-4.57226e-05
-8.41593e-06
8.41595e-06
4.57752e-05
-4.57751e-05
4.14592e-05
-4.14592e-05
5.12128e-05
-5.12128e-05
-4.5859e-05
4.5859e-05
4.23279e-05
-4.23279e-05
3.10442e-05
-3.10442e-05
3.99187e-07
-3.99187e-07
-4.40907e-05
4.40907e-05
3.28685e-05
-3.28685e-05
-3.65734e-05
3.65734e-05
3.97263e-05
-3.97263e-05
2.66255e-05
-2.66255e-05
2.61927e-05
-2.61927e-05
2.70488e-05
-2.70487e-05
2.43962e-05
-2.43962e-05
1.24327e-05
-1.24327e-05
0.00108035
-0.000887343
-0.000193006
0.00546495
-0.00207412
-0.00339082
-0.00594645
0.00594644
1.13958e-08
0.00335507
-0.00260073
-0.000754344
-0.00156519
0.00177006
-0.000204877
-0.00675475
0.00284202
0.00391273
0.00121363
0.00425133
0.00725552
-0.00587575
-0.00137977
0.00120377
-0.0019097
0.000705939
-0.00086941
-0.000695779
-0.00144209
-0.000314635
0.00175672
0.000142451
-4.42572e-07
-0.000142009
0.0007786
-0.00222069
-0.00360336
0.000122456
0.00348089
-0.00320245
0.00289456
0.000307897
-0.00570344
0.00723634
-0.0015329
-0.00370872
0.00289718
0.000811531
-0.000562916
-0.00304044
-0.00175261
0.00239136
-0.000638746
-0.000462383
0.0025586
-0.00209621
-0.00161109
0.00111709
0.000493996
0.000583526
0.000581833
-0.00159761
-0.00515714
0.00131921
-0.00180891
0.000489703
0.00577828
-0.0038588
-0.00191947
-0.000671281
0.00331097
-0.00263969
-0.00583496
0.00583526
0.000470123
0.00129994
-0.00633917
0.000966917
0.00537225
0.0023161
-0.00298738
-0.00378925
0.00311421
0.000675047
0.00214835
-0.00422247
0.00108898
-0.000201446
-0.000887533
0.00150965
-0.00129268
-0.000216967
-0.00280318
-0.000399265
0.00535007
-0.00535186
0.000376635
0.00113301
0.00522741
-0.00133653
-0.00389089
0.00197471
-0.000770937
0.00308569
0.00190868
-0.00499437
-0.000721064
-0.00306819
-8.8234e-05
-0.000156557
0.000244791
0.00393589
0.00331963
0.00115209
-0.00487268
0.00372058
0.00162533
0.00360208
-0.00498179
0.00632066
-0.00133887
-0.00114762
-0.000582131
0.00172975
0.00133631
0.00201876
0.00013529
0.000103627
-0.000238917
0.00501999
-0.00339466
0.00645882
-0.000840335
-0.00561849
0.00321675
-0.00266566
-0.000551092
0.00221591
0.000456782
-0.0026727
0.0029568
-0.000740886
0.00650401
-0.00539864
-0.00110537
0.000495477
-0.00385458
0.0033591
7.02534e-05
0.00638858
0.00479012
-0.00429464
-0.000535759
0.00105938
-0.000523623
-0.00176629
0.000618672
0.00191704
0.00224912
-0.00416615
0.000253632
-0.000333819
8.01871e-05
-0.00125556
-0.00284937
0.00410493
-2.63487e-05
0.00653037
-0.00281487
0.00230131
0.000513551
0.000389197
-1.24193e-05
-0.000376778
-0.00569234
-0.000254117
0.00188211
-0.00141199
0.000828459
0.00494982
0.000896978
0.000183376
0.0026323
-0.00642973
0.00379744
-0.0011202
0.000584442
0.00264259
-0.00389815
0.00619631
-0.0022604
0.00109211
0.00117727
-0.000783554
0.00104158
-0.00025803
-0.00111431
-0.000496781
0.00188244
0.0013343
-0.000594513
0.00142951
-0.00123737
-0.000192137
-0.00265346
0.00199084
0.000662627
0.00116675
0.000262761
0.00112271
-0.00495647
0.00383376
-0.00474768
0.00140843
0.00333925
-0.00455442
0.00611814
-0.00156373
-0.00506223
8.04373e-05
-0.0020195
-0.00063396
-0.000215382
0.000127148
-0.00121522
0.00463843
-0.00342321
-0.00119352
-0.000716186
0.000103302
-0.000192023
8.87212e-05
0.000126282
-2.29807e-05
-0.00125113
0.00463064
-0.0033795
-0.000156223
2.45102e-05
0.000131713
-0.00556626
0.00170747
-0.0011988
-0.000567489
-0.000449393
-1.89167e-05
0.000468309
-0.000543192
9.37986e-05
0.00101211
7.68702e-05
-0.0018125
0.000613704
-0.000150491
1.70256e-05
0.000133466
0.00136803
-0.00234445
0.00097642
0.0002711
-0.00013581
-0.00392542
0.00513906
-0.00245763
0.000705032
-9.57767e-05
-0.000416967
0.000512744
0.00568527
-0.002168
-0.00351727
7.97725e-05
0.0025058
-0.00258557
0.00444622
-0.00559466
0.00114844
0.00263453
0.00305074
0.00291478
-0.00283501
-0.00613486
0.000431427
-0.00644962
0.00361976
0.00282986
0.00229273
0.00390357
-0.00438669
0.00137087
0.00301582
0.0015139
-0.000194691
-0.00102154
0.00401703
-0.00299549
0.00463904
-0.00162604
-0.003013
-0.00459577
0.0037459
0.000849874
0.00369272
-0.00502925
5.91938e-05
0.000330003
-0.00137664
0.00582287
-8.98233e-05
0.00214783
-0.00205801
-0.00207059
0.0026134
0.000164185
-0.00277759
-0.0012774
0.00264542
-0.000639856
0.00325326
0.00164231
-0.00173213
0.000887723
0.00396932
-0.00485705
-0.00504172
0.00384165
0.00120008
0.0025519
-0.00359413
0.00104224
-0.00331001
0.00411645
-0.000806434
0.000355731
-0.00366575
-0.000909335
0.000909335
-0.00045413
0.000358354
-0.000126944
-0.000973487
0.00110043
0.00506906
-0.00184201
-0.00322704
-0.00243314
-0.000370048
0.00290105
0.000157896
1.64515e-05
-0.000174348
-0.00147413
0.00112804
0.000346081
-0.000141481
-0.00490024
0.00503835
-0.00388627
0.000227527
-8.50757e-05
0.00444216
0.000577834
0.0040676
-0.00151569
0.000165042
-7.1463e-06
-0.00633271
-0.000995913
-0.00081659
0.00430071
-0.00190368
-0.00239703
0.00275662
0.00154409
0.00107757
-0.00563198
-0.00226585
-0.000549009
-0.00112378
-0.000956025
0.0020798
4.25814e-05
-0.00272429
0.0026817
-0.00235835
0.00123458
-0.0022181
0.00530379
-0.00461052
0.00159173
0.00301879
0.00254837
0.000678785
-0.000338742
-0.000340043
-0.00601572
0.000582919
0.0054328
-0.00417922
0.00581549
-0.00163627
0.00182423
0.00163147
-0.0034557
-0.00168362
0.000899088
0.000784533
-0.00271437
0.0020803
0.000634073
0.00112626
0.000755856
0.000247189
-0.000328941
8.17535e-05
0.0048778
-0.00399008
-0.00638798
0.00557633
0.000811647
-0.00478574
-0.00166389
0.00334861
0.000626387
-0.00397499
0.000154001
-0.000162207
8.20589e-06
0.000590451
-0.000125264
-0.000465186
-0.00451832
0.00261464
0.000374792
-0.000590498
0.000215707
2.69092e-05
-0.000936247
-0.00257571
0.0044844
-0.00530366
-0.000322732
0.0056264
0.00020181
0.000206232
-0.000408041
0.00121318
-0.00121318
0.00168545
-0.000723537
-0.00211345
0.00181496
0.000298489
0.00439592
-0.00302506
-0.000162428
6.20532e-06
-0.00124291
0.00126982
0.000673716
0.00130099
0.00234415
-0.000263844
-0.00401718
-0.00128648
0.00111895
-0.00497354
0.00321229
-0.00446342
0.00083344
-0.00213727
0.00130383
0.00335946
-0.00457469
-0.00271031
-0.00180802
-0.00483551
0.00469403
-0.000676831
-0.00533888
-0.00515824
0.00148412
-0.00148668
2.5548e-06
0.00223876
0.000105394
-0.00601453
0.00204871
0.00396582
-0.00121933
0.000526013
0.000693315
0.00144421
0.00295171
-0.00462542
-0.00101584
0.00564127
-0.000212882
0.000138566
7.43155e-05
-0.00550681
0.00132759
0.00375312
-0.00493693
0.00118381
-0.00150186
-0.000611582
-0.000536676
-0.000637496
0.000138327
-0.000203784
6.54564e-05
0.00497747
-0.00385477
-0.00130054
0.0051249
-0.00382436
-0.000420397
-0.000822515
-0.00586131
0.000439637
0.00539562
-0.0061609
0.00456329
-0.000925171
-0.00546281
-0.00109927
-0.000374854
-0.00181861
0.00285864
-0.00104003
-0.000419076
0.000321985
9.70909e-05
-0.00173207
0.00141744
0.00162348
-0.00013936
0.000819042
-3.67442e-05
-0.00169533
0.00279702
0.00121707
-0.00303568
0.0060538
-0.000477466
0.00527906
7.1e-05
-0.0052816
0.00438979
0.00114439
-0.00553419
0.000556537
-0.000768838
0.000212301
-4.04688e-05
-0.000413661
-1.18629e-05
0.00606566
-0.000162173
0.000156816
5.35741e-06
0.000133409
2.05919e-05
0.00254208
-0.00335514
0.000813058
-0.00190047
0.000699602
0.00120087
0.00791786
-0.0034529
-0.00446495
0.00116922
0.00126725
-0.00243648
0.000104944
-0.000171662
6.67186e-05
-0.000805875
0.00133188
0.00115543
0.0031824
-0.00433784
-0.00561473
0.000165756
0.00544897
-0.00401687
0.00299533
0.00173483
0.00479554
0.00458313
0.00333472
-2.26523e-05
0.000191994
-0.000169341
-0.00130018
0.0043903
-0.00309012
0.00030224
-0.000342709
-0.000131407
-8.14746e-05
0.00410091
-0.0022767
0.00476162
-0.00500674
0.000245122
-0.00322653
0.00605307
-0.00282655
0.00252785
0.00157307
0.00574515
-0.000983537
-0.00138697
-0.00562128
0.00137255
0.00424873
0.000654665
0.000520478
-0.00117514
0.00126935
-0.000614683
0.000585373
-0.00111006
0.000524687
0.00110585
0.000279757
0.000399028
-0.000678233
0.00443135
0.00152084
-0.0003928
0.0035184
-0.0061056
0.00258721
0.00153498
-0.00258542
0.00105044
-0.00431466
0.0011571
0.00315756
0.00291663
-0.00421682
-0.00490783
-0.00125307
-0.00409575
0.00126345
0.0028323
0.00124138
0.00314892
-0.00326392
-0.000831839
0.00222661
-0.00105739
-0.000673858
-0.00253579
0.00320965
0.00241146
0.000611014
-0.00302247
-0.00159181
0.001204
0.000387809
0.000270083
0.00149848
-0.0019674
0.000468925
-0.000110966
-0.000222854
-0.000264485
0.000153519
-0.00434911
-0.000246658
-0.000292
0.00117475
-0.000882751
0.0043512
-0.0046444
0.000293196
-8.84004e-05
0.00011774
-2.93394e-05
0.000970016
0.00338215
-0.00435217
-0.000156977
6.85764e-05
-0.0047514
0.000709929
0.00404148
-0.000796063
0.00010204
0.00069402
8.09456e-05
-8.13881e-05
-0.000400189
0.000864669
-0.000347469
-0.000517201
-0.00603613
0.00063749
-0.00254967
-0.000128205
0.00267787
-0.00317153
0.0044129
0.00218085
-0.00108873
-0.00116718
-0.0011843
-9.22132e-06
-0.0035177
-0.00122997
0.00152376
-0.000421685
-0.00110207
0.0019196
0.00183837
-0.00375797
0.00503859
-0.00160611
-0.00343248
0.000790613
-0.00541603
-0.00137169
0.00300316
0.00195219
0.000788467
-0.00274066
-0.00349911
0.00446913
-0.000153233
2.74149e-06
0.000932581
-0.00443169
-0.00449685
-0.000147563
-0.000998197
-0.00461653
0.00462072
0.00147956
0.00355903
0.00415854
0.00114132
-0.00529986
3.59231e-05
5.96811e-05
-9.56043e-05
-0.00141035
0.00336254
0.0036992
0.00353714
-0.00140302
0.00237176
-0.000968733
-0.00247997
0.00046047
-0.00087839
0.000751445
-0.000205791
0.000407601
-0.000204062
0.00170254
0.00376352
-0.00184391
-0.00107968
-0.000603943
-0.000107252
-0.000157233
0.00355042
-0.00163337
-0.00240371
0.00465283
0.000674555
-0.00309589
0.00242133
0.000654346
0.000767207
-0.00105921
0.00210069
-0.00130731
-0.00327427
0.00458158
-0.00214581
0.00477811
-0.000551838
0.00344639
0.000238263
-0.000221237
-0.00236325
0.000960241
0.00230691
-0.00386926
0.00156236
-0.00122676
5.79706e-05
-2.20475e-05
0.00215194
-0.00279923
0.000647289
-0.00117118
-0.000420622
-0.00353223
0.00449915
0.00118305
0.00168697
-0.00287002
-0.00169296
0.00366417
-0.00197122
0.00423811
-0.00085596
0.000234313
1.41186e-05
-0.000248432
-0.00372185
0.00202889
-0.00142004
0.00471065
-0.00329061
0.000877952
0.00130289
0.000194206
0.00101897
0.000253059
-0.000300749
4.76894e-05
0.00169769
0.000218339
-0.00191603
0.00301955
-0.00458337
0.00156383
-5.28862e-05
0.000374357
-0.000321471
0.00156528
-0.000361285
0.00140855
-0.000584218
-0.00082433
0.00282747
-0.0039224
0.00109493
0.00268167
-0.00374203
0.00106036
-0.00515073
0.00192421
0.0038948
-0.000875246
-0.000628265
-0.00238013
0.0030084
0.00140667
-0.00511717
0.00371049
0.00336051
-0.00145893
-0.00190158
-0.000689199
0.00172928
-0.00104008
0.00477165
-0.00303683
-0.000705205
-0.00196045
-0.00598149
0.00514115
3.9338e-06
0.000121797
-0.000125731
-0.0015806
0.00120455
0.000376051
-0.00490483
0.0063044
-0.00139957
-0.00188654
0.000705632
0.00118091
0.000406536
0.00268716
-0.00208908
-0.000598077
0.00343459
0.000489942
-0.00392454
0.000123752
-1.8808e-05
0.00517236
0.000336915
-0.00550928
-0.00194101
0.00379761
-0.00185661
0.00276567
-0.000629546
-0.00213613
0.000462541
0.000402129
-0.000437876
0.00387247
0.00202568
-0.00396668
0.000708912
-0.000268396
-0.000440516
-0.000648945
-4.29037e-07
0.000649376
-0.00315257
-0.00576649
0.00576581
-0.000275591
0.00095391
-0.00067832
-0.0022912
-0.000188771
-0.00454759
0.00324027
-0.000864624
0.00112073
0.00360797
-0.00502
0.00141203
0.000410678
-0.00296034
0.00233501
-0.00243993
0.000104906
-0.00157144
0.00148228
8.9158e-05
-0.00121325
-0.000367352
-0.00339216
0.00342348
-0.00224043
0.000457296
0.000133154
-0.0017406
0.0010514
-0.00279149
0.000734898
0.00205659
0.000242336
-8.0233e-06
-0.003477
0.00102193
0.00245507
-0.00144404
0.00560258
0.000337904
-0.000957705
0.000619803
0.00212549
0.00064018
-0.00127776
0.000304272
0.00111927
0.00121574
-0.00142013
0.00494577
-0.00352563
-0.00485579
0.00577231
-0.000916526
-0.00117192
0.00228499
0.00410358
0.00107637
4.07219e-05
0.00585945
-0.00551764
-0.000341813
0.00354149
-0.00465255
0.00111106
0.00308898
-0.000677522
0.00542664
-0.00181868
-0.00250507
-0.00097193
-0.00218337
-0.000307731
0.00249111
0.00242052
-0.00196375
-0.00160818
-0.00423996
0.00274889
0.00149107
-0.000332445
0.00123153
0.00120586
0.00364994
-0.0048558
-0.000321309
0.000696101
0.00305959
-0.00238504
-0.00472397
-0.00125752
0.0064707
-0.00129834
0.00423431
0.00206403
0.000494569
0.00285552
-0.00212691
-0.000728615
0.00473708
-0.00245209
-6.81742e-05
-0.00332785
-0.000863662
0.00419151
0.000388664
-8.66765e-05
-0.000301987
-0.00514133
0.00610459
-0.000963259
-0.000718641
0.00190391
-0.00118527
-0.000697035
0.0052527
-0.00455567
0.0011942
-0.00191284
-0.000113364
-0.00576238
-0.000783554
0.00203159
0.00382787
-0.000257377
-0.00192599
0.000251396
-4.20714e-06
0.000362545
-0.000487809
0.00335893
-0.000816855
-0.00522596
-0.000271556
-0.00014752
0.00015022
-0.000133602
-1.66175e-05
-0.00248424
0.000125883
-0.000420216
0.00159541
-0.00102177
-0.000573637
0.00246084
0.000604163
-0.00306501
-0.000721339
0.00318217
-0.00520293
-0.000271528
0.00547446
0.00375108
0.00137382
0.00440407
-0.00122166
-0.000127784
0.00254831
0.00540384
-0.00020664
-0.00519721
-0.00608766
0.00425302
0.00183466
0.0032105
-0.0012681
-0.00435318
0.000203068
-0.000225721
0.000575653
0.000832893
0.00115531
0.000200048
-0.00135536
0.0042123
0.00119154
-0.000961737
0.00317135
-0.00220962
0.00471907
-0.00137046
-0.00218117
0.00279372
-0.000612538
-0.00117647
-0.000100262
0.000287254
-0.000186992
0.0034467
-0.00414374
0.00134625
-0.000989526
-0.000356721
0.00160032
-0.000395768
-0.00324974
0.002288
0.00548638
-0.00434199
-3.06206e-05
0.000352607
-0.00535341
0.000448567
0.00542498
-0.00190658
-0.00099778
-0.00361513
0.00461291
-0.000645214
0.00288293
-0.00223772
0.00549725
-0.00286243
-0.00263482
-8.83959e-05
0.00059095
-0.000677125
0.000660566
1.65593e-05
-0.000697322
0.00173481
-0.00103749
-0.00315034
-0.00116432
0.000155529
-1.72019e-05
-0.00122479
-0.00478974
-0.00307384
0.00239997
-0.000921584
-0.000291596
-7.2624e-05
-8.95492e-05
-0.00122545
-0.000805909
-0.00523023
-0.00283903
0.00219382
-0.000813153
0.00118979
0.00111844
0.00436565
-0.00548409
0.00337913
-0.00275274
0.000466008
0.000769842
-0.00288339
0.00211355
0.00497735
-0.00491786
-5.94843e-05
-0.00320953
0.0036156
-0.000406069
0.000207789
-9.5603e-05
-0.000112187
-0.00495074
-0.001479
-0.00176099
0.00368981
-0.00192882
0.00298042
-0.00221058
-0.00378367
0.00202269
0.00139505
-0.00258174
0.00118669
-0.00363302
0.00568173
0.00649936
-0.0021959
-0.00430346
-0.00239895
0.00237624
2.27129e-05
0.00559416
-0.00162485
0.00118479
-0.000924755
-0.000260032
-9.08723e-06
0.000262146
0.000250452
-0.000774267
0.000523815
-0.00304827
0.00364984
-0.000968169
0.000849921
-0.00105137
0.00236387
-0.000632451
-0.00173142
0.00221255
-0.000514856
0.00451656
0.000631076
0.0017328
-0.00175893
0.00106161
0.0004086
-0.000464697
5.60968e-05
0.00221892
-0.0017475
-0.000471416
0.000823136
-0.0051478
-0.000544534
0.000369493
-0.000588349
0.000218855
-0.00410152
0.00547406
0.000941925
-0.00111658
0.000174658
-0.00153518
0.00216384
-0.000628654
-0.00148707
-0.00275289
-0.00537297
-0.000167023
0.00554
0.000297254
0.000108291
4.19291e-05
0.000127725
-0.000128125
4.00334e-07
0.00410047
-0.0028946
-0.00379506
-0.00231053
0.00346597
0.00303339
-0.00259
0.000717978
0.00187202
-0.000844659
0.0022397
-0.00229852
-0.000100435
0.00272984
-0.00377738
0.00104754
0.00130806
-0.000133308
0.000459825
0.000552283
-0.00327779
0.000962419
0.00231537
0.000910256
-0.000622945
-2.60009e-05
-0.00426942
0.00171601
0.000112186
-0.00182819
-0.00396296
0.00146169
0.00250127
0.000515725
0.00148378
-0.000908136
-0.000245853
-0.00466044
0.0049063
0.000784094
-0.00247672
0.00169263
0.0012022
0.00131232
-0.000458183
-0.00172641
0.0021846
0.00258
-0.00179591
0.00446666
-0.00353407
-0.000760279
-0.00264097
-0.000227239
0.000251749
-0.000708698
0.0017668
-0.0010581
0.0026619
-0.00366635
0.00100444
0.000136426
2.03902e-05
-0.00236565
-0.000912146
0.00142117
-0.00163614
0.000214973
-0.0027747
0.000685629
0.00127616
-0.00141851
0.000142353
0.00161851
-0.00180761
0.000189095
0.000674352
-0.00372108
-0.0011516
0.00133766
-0.00488616
0.0035485
-0.000911078
0.00357297
0.000118397
-7.90374e-05
-3.93592e-05
0.00473433
-0.00361588
-0.000306053
-0.00152165
-0.00401228
-0.00149452
0.00209382
0.000699889
-0.00100576
-0.000922653
-0.00451253
-0.00162234
-0.000384266
0.00124436
-0.000933509
-0.000310848
-0.00149629
-0.00108915
0.000653993
0.00226045
-0.00291444
-0.00011427
0.000670806
-0.000715951
3.88254e-05
-0.00246282
0.00196647
0.00139404
-0.00068665
0.00163369
-0.000947041
-8.68523e-05
-0.000116932
0.000319604
-0.00194765
0.000445787
0.00161682
-0.0023079
0.000691082
-0.00333769
0.00258608
0.000751601
0.00120447
0.00240813
-0.0036126
-0.00175537
0.00104667
-0.0029416
-0.00102136
-0.000781622
-0.00255607
-0.00167822
0.00125491
0.000423318
0.00176633
-5.03274e-05
-0.000759406
-0.00243637
0.00319577
-0.000665993
0.00291327
-0.00225927
-0.000858557
-0.00394761
0.00480618
-0.00234277
0.00234259
1.7888e-07
-0.000796063
-0.00156718
0.000545411
-0.00240632
0.00381867
-0.00141235
0.00323301
0.00288513
0.000194334
3.62136e-05
-0.000230549
0.00234054
-0.00060224
-0.0017383
0.000188134
-0.0001842
-0.00358943
0.0049271
-0.00329186
0.00523648
-0.00194463
-0.00351026
-0.00150974
-0.000916074
0.00323177
-0.0023157
0.00285698
0.00177276
-0.00417909
-0.00499403
-0.000147293
-0.000780089
0.00284276
-0.00206266
-0.000431694
0.000378808
-0.000531514
0.00167597
-0.00114446
-0.00402442
0.00334312
0.000681295
-0.00326893
0.00235286
-0.00386645
0.00067348
0.00319297
0.00141057
-0.0010152
-0.000395372
-0.00589955
0.000696618
0.00184697
-0.0014114
-0.000435565
0.00145451
-0.000445982
-0.00100853
7.83751e-05
0.000129415
0.0029285
-0.000627179
-0.000218371
-0.00348704
-0.00037941
0.000429137
-0.00305654
-0.000967882
-0.00233677
-5.99281e-06
-0.00292505
0.00229678
0.000720224
0.00260215
-0.00332237
0.000585465
-0.000861056
0.00140923
-0.00671638
0.00530715
-0.00577593
0.000990189
-0.0023337
0.00353817
0.000695077
0.000258835
-0.00273323
0.00345345
-8.57081e-05
0.00506306
0.000607121
0.00171121
-0.00231833
-0.00177834
0.00124683
0.00274904
-0.00369521
0.000946165
0.00509939
0.000673249
0.00154566
0.000323045
0.000385866
-0.000363988
-0.00040485
0.000180996
-0.00174878
0.00176684
-0.00088889
0.000871644
0.000612139
-0.000581495
0.00300997
-0.00242847
-0.0015093
0.00184277
-0.000333465
-0.00489187
0.00380321
0.00108866
-0.00479567
0.00150381
-4.12375e-05
3.75001e-05
3.73746e-06
-0.00281247
-0.000853873
0.00110029
-0.00129737
0.000197077
0.00134806
-0.0049375
0.00116473
-9.42282e-06
0.00123253
0.000693343
0.00218958
-0.00366666
0.000854195
0.000181467
-0.00503726
0.00189983
0.00123073
0.000673182
-0.00527396
-0.000492535
0.00565245
0.00118782
0.00710728
-0.00218401
-0.00492327
0.000795653
-0.000382197
-0.000413457
0.000708849
-0.00138622
0.000782277
-0.00386088
-0.00125629
0.000287254
-0.000959948
-0.000396024
0.00135598
0.00233178
0.00400853
-0.00486708
0.00270304
0.000834112
-0.00353715
0.00125073
-0.000965298
-0.000285426
0.000744698
0.00159584
-0.000135145
0.000138364
-3.2185e-06
-0.000709106
0.00288361
-0.00217451
0.00362008
0.00109057
-0.00126539
-0.000412833
0.00141647
-0.0015132
9.67316e-05
4.63875e-05
7.20091e-05
-0.00447769
0.00096743
-0.00165653
0.000443284
-0.0036487
0.00292735
-0.000950354
6.30098e-05
0.000933053
0.00268155
-0.00361461
0.000849469
-0.00127053
0.00418304
-0.00291251
0.000317212
0.000279889
4.65487e-05
-0.000326438
7.83966e-05
-0.00539167
0.00531327
-0.00263924
-0.000768889
0.00340813
-0.00348503
0.00261044
0.000874604
-0.00276408
-0.000262629
-0.00171336
-0.00490224
0.000889953
-0.00145708
-0.000879693
-0.00106268
0.00379252
0.00171045
-0.00372433
0.00201387
0.000105694
2.20313e-05
0.003725
-0.00201454
0.00286748
0.000949447
-0.00381691
-0.00130368
0.00174171
-0.000438023
0.00357427
0.00109489
-0.00466916
0.00717624
-0.00197087
-0.00520536
-0.00212848
-0.000710544
-0.00173793
0.00234505
0.00377306
-0.0049249
0.00115184
-0.00280326
0.00373631
0.00116449
-5.55596e-05
-0.00110893
0.00148005
0.000911295
-0.00550489
0.000597055
0.000432891
0.000362761
0.00292155
-0.00111882
-0.0025194
0.00248064
3.87639e-05
0.000504489
-0.00184085
0.00133636
-0.00387033
-0.00119189
0.00108823
-0.00254531
-0.00529911
0.000151309
-0.0012618
-0.000516977
0.00177877
0.00563305
-0.00449173
0.000104494
0.000284171
-0.00302
0.00318419
0.00144146
-0.00107538
-0.000366077
0.00346888
0.00475581
-0.000952608
0.000634243
-0.00327348
0.00113736
-0.00103533
-5.28847e-05
0.000461484
0.000394097
-1.97392e-05
-0.00206021
-0.000442499
0.00154279
-0.000898961
-0.00349738
0.000764159
-2.8142e-05
-1.30956e-05
0.00599844
-0.00492085
0.00522212
-0.00439366
-3.44709e-05
-0.00069402
0.000728491
0.00194903
-0.000458086
-0.00149095
0.00335866
-0.000756516
-0.00256847
0.00336106
-0.000792587
-0.00183342
0.000529733
0.00127932
-0.000952843
-0.000326478
-0.000118773
-0.000210168
0.00205941
-0.000547947
-0.00151146
-0.00138233
-0.0023937
-0.000125694
0.00209309
-0.00274645
0.00065336
0.00280684
-0.000749636
-0.00205721
0.00410349
-0.00434934
0.000314024
0.00223669
-0.000619866
-0.000680889
0.000835917
-0.00367464
0.0050227
0.00123262
0.000458189
-0.00171999
-0.00286023
0.00209773
0.00363319
0.00158893
-0.00115699
-0.00382542
-0.00113106
0.00130539
-0.00171797
0.000412572
0.00367577
-0.00318584
-0.000193976
0.0011359
-3.8442e-05
-0.000271698
0.000310141
-0.000684722
-0.00190528
0.00377234
-0.00490628
0.00113394
-0.00186752
0.00234917
-0.000481648
-0.00115256
0.00213324
0.000750374
-0.00226401
0.00375476
-0.00149075
0.00150771
-0.0011441
-0.00036361
-0.00110151
0.000305451
0.000213834
-0.000454178
0.000240345
-0.000426084
-0.00123045
-0.00247936
0.00250627
-2.69108e-05
0.00144629
-0.0037103
0.00162639
-0.000371482
0.0003704
-0.000405835
3.54351e-05
-0.000827758
0.00059446
0.000233298
-0.000794351
-0.00284441
0.000819015
0.0020254
-0.00199336
-0.000867479
-0.000749334
0.00161681
-0.00523981
0.00389459
0.00134522
-0.0013458
0.00131133
-0.000576317
-0.000115984
0.0006923
0.00286839
-0.000735156
-0.000770185
-0.000160303
0.000930488
0.00183864
-0.00138045
0.00169919
-0.000393793
-0.000208441
-0.000636524
-0.0042035
0.00484002
-0.00140245
0.00283072
0.00427656
-0.00239879
-8.05731e-05
0.00312395
-0.00473006
0.000732675
0.00158231
-0.00231498
0.00201616
-0.00279624
0.00198072
-0.000707623
-0.0012731
-0.00179622
0.000455612
0.00134061
0.00431471
0.00286153
-0.00551513
0.00133483
0.0041803
-0.00125006
-0.00398975
-0.000459907
-0.00133632
-0.00100769
-0.00055949
-0.00129295
-0.000425024
0.00114069
-0.000531245
0.00151282
-0.000981576
-0.00175735
0.00129744
-0.000944226
-0.000207316
0.00115154
0.00217293
-0.00286699
0.000694074
-1.17675e-05
0.000206102
0.00103572
0.00606137
-0.00140907
-0.0046523
-0.00203414
-0.00187331
0.00134641
0.000526896
0.00127154
-0.000979626
-0.000291912
-0.00229827
-0.00101999
0.00331827
-0.00267539
0.00358083
-0.000905436
-0.000917629
0.00112311
1.59943e-05
-0.0011391
0.0037611
-0.00493435
0.00117325
0.00174773
-0.0013558
-0.000391927
0.00242707
-0.00122487
0.00273413
-0.000635978
-0.00019178
-0.00408942
0.00229958
-0.00180339
-0.000496195
0.000560217
-0.00200938
0.00144917
-0.00251724
-0.000837895
0.000860449
-0.000659179
-0.000201271
-0.000179807
-0.00364052
0.00096513
0.000670217
-0.000456383
0.00259323
0.000987599
0.000318697
0.00130903
0.000671693
-0.00160401
0.00233668
-0.00150851
0.00100055
0.000507958
0.00354268
-0.000675195
-0.00380997
0.00610271
-0.00114518
-0.00248704
0.00682986
-0.00434282
-0.000886334
0.00356789
-0.00414182
0.0009323
-0.00210102
0.00424937
-0.000680409
-0.00162749
-0.00244886
0.00171783
0.000731033
-0.00127817
0.000652951
-0.000632953
-1.99963e-05
-0.00137649
-0.000776618
-0.000153531
0.000930149
-0.00156884
0.0013677
0.000201134
0.00204198
0.000800773
6.25265e-05
-0.0012999
-0.000548068
-0.000838153
-0.00241584
-0.000474467
-0.00139884
-0.000171121
0.00159229
-0.000180647
0.00341035
-0.000513169
0.00133868
0.000199821
-0.000771762
-0.00103715
-0.00193028
0.00247681
-0.000546535
-0.00105311
-0.00572891
0.00351082
0.00150124
-0.000629602
0.002889
-0.00120203
0.000954603
-0.00135919
-0.00453063
0.00588982
0.000619991
-0.00255027
0.000739906
-0.00368539
0.00269996
0.000985433
0.000895214
-0.00142646
0.0022301
-0.00311748
0.000887365
0.00119447
-0.00342922
0.00223475
0.000860199
0.00168861
-0.0025488
-0.000174401
0.00179291
0.00274595
0.00108163
0.00361755
-0.000413524
0.000783016
0.00315906
-0.00402271
0.000976222
-0.00327449
0.000433794
0.00412475
0.00148343
-1.02272e-05
-0.000276606
0.000286833
-0.00619233
0.0038568
0.00233553
-0.000824761
-0.00261731
0.00344207
0.00263995
-0.00177975
-0.003696
0.000892742
-0.00132179
-0.00043556
-0.000152719
0.00131948
0.0037227
0.00122307
0.000224471
0.00130977
-0.000993859
-0.000315911
0.000941938
0.000559309
-0.000313916
0.00376853
-0.00493227
0.00116374
0.00307696
-0.000846861
-0.00139913
0.00190362
0.00125952
-0.00355342
0.00229389
-0.00116582
0.00145668
0.000678132
-0.00213481
0.000192962
-0.000203189
0.00219881
-0.000862508
-0.00128788
0.000330143
0.000926705
-0.000355205
-0.000571499
0.00353158
-0.00227206
-0.00050441
0.00229286
-0.00178845
0.00102084
-0.00296518
0.00209133
0.000873852
0.000106534
-8.39586e-07
0.00466043
0.000541899
-0.00569905
-0.00519281
0.00392663
0.00126619
-0.00107534
-0.00269556
0.0037709
0.00222132
0.00372512
0.00282826
-0.00375289
0.000924636
-0.00147084
0.00110349
-0.000943067
0.00337019
-0.00242713
0.00149744
0.00056197
-0.00378504
-0.00240729
0.00106904
-0.00230499
0.00321159
-0.000906601
0.00342691
-0.00081647
0.000395944
-0.000802439
0.00254601
0.000880895
-0.00063488
0.00431065
-0.00131003
0.00171658
-0.000406553
0.00198246
-0.00128286
-0.000389211
0.00607683
-0.0049132
-0.000459771
0.000858189
-0.0024622
-0.00539145
-0.00172319
0.000413156
-0.000678157
0.00010184
-0.000867735
0.000214025
-0.00147115
0.000657301
0.00157938
-0.000905398
0.000135213
0.000804733
0.0025163
-0.00332104
-0.00109509
0.00187369
-0.00194708
-0.000474093
0.00196124
-0.00148715
-0.000873489
-0.00209168
-0.0019518
0.0014777
-0.00265781
0.00346254
-0.00164348
0.00057661
0.00106687
-0.000973847
0.00356707
0.00599487
-0.00229567
-0.00130408
-0.000419104
-0.00174313
0.00110816
0.000634968
0.000903002
-0.00451795
0.00361495
-0.00131861
0.000546776
0.000771836
-0.00403448
-0.00115834
0.000191871
-0.0011361
0.00193525
-0.000704527
-0.00133987
-0.00380114
0.00514101
0.00100368
7.2685e-05
0.00329695
-0.00252835
-0.000768598
0.000185161
0.00126935
0.000877298
-0.000670598
-0.0002067
-0.00134929
-0.00101396
-0.00107
0.00509871
-0.0040287
0.000630669
-0.00249819
0.000171809
0.00124466
0.00377258
-0.00495965
0.00118707
0.00287538
-0.00205637
0.000102013
-0.000168426
6.64139e-05
0.00102695
0.000138069
0.000104267
0.00235918
0.00370219
-0.000587004
-0.000809786
0.00139679
0.000652323
0.00177216
-0.00242448
0.00239811
-0.00171154
-0.000686573
0.000475385
0.00147365
0.000425941
-0.000512849
-0.000805763
0.00060035
-0.00532432
0.000690329
-2.97634e-05
-0.00115968
-0.00130757
-0.00378933
0.0050969
0.00103526
0.0014375
-0.00189558
0.0025468
-0.000395077
-0.00490895
0.00530403
0.000120811
-1.87981e-05
0.000644353
0.0012909
0.00273036
0.000940622
-0.00367097
0.00137562
0.000471352
0.00258766
-0.00364134
0.00454434
0.00277428
0.000843194
-0.00361747
0.0016284
-0.000864306
-0.00076409
0.0013293
-0.00101987
-0.000309431
0.000423639
0.00105841
-0.00469976
0.000218119
-6.75325e-06
0.000199715
0.00602656
-0.00129224
0.00152664
-0.00212888
0.00252209
-0.0018276
-0.000694484
0.000854679
-0.0025459
0.00169122
0.00523517
-0.00281782
-0.000924206
-0.00159418
0.00500891
0.00148596
-0.00178136
0.000295406
0.000499893
-0.000103742
-0.00039615
-0.000991719
-0.00314096
0.00413268
0.000742282
0.00181996
-0.00256224
0.00176747
-0.000281508
0.00225056
0.00141179
-0.000865014
-0.000937202