/*--------------------------------*- C++ -*----------------------------------*\
  =========                 |
  \\      /  F ield         | OpenFOAM: The Open Source CFD Toolbox
   \\    /   O peration     | Website:  https://openfoam.org
    \\  /    A nd           | Version:  7
     \\/     M anipulation  |
\*---------------------------------------------------------------------------*/
FoamFile
{
    version     2.0;
    format      ascii;
    class       volScalarField;
    location    "19.5";
    object      T;
}
// * * * * * * * * * * * * * * * * * * * * * * * * * * * * * * * * * * * * * //

dimensions      [0 0 0 1 0 0 0];

internalField   nonuniform List<scalar> 
2413
(
0.892322
0.891293
0.890395
0.890209
0.889892
0.889651
0.889744
0.890362
0.891477
0.892835
0.894402
0.896121
0.897856
0.899377
0.900874
0.902778
0.905323
0.908564
0.912546
0.917017
0.921544
0.925595
0.929057
0.931603
0.933461
0.934642
0.935406
0.936007
0.936294
0.936257
0.936163
0.936052
0.935988
0.935927
0.935897
0.936024
0.936042
0.93593
0.936086
0.9368
0.938396
0.941447
0.946432
0.952486
0.959181
0.965073
0.966579
0.966832
0.96701
0.966595
0.964802
0.962388
0.959655
0.960728
0.969167
1.00599
1.06522
1.12844
1.15247
1.15821
1.15782
1.15475
1.14809
1.14034
1.13337
0.944752
0.941542
0.938446
0.936044
0.933639
0.930633
0.927833
0.925637
0.92344
0.920642
0.918187
0.916278
0.914352
0.911832
0.909875
0.908356
0.906751
0.904639
0.90323
0.902093
0.900759
0.899033
0.898146
0.897414
0.89625
0.89514
0.894758
0.894303
0.893584
0.893397
0.893649
0.893971
0.894547
0.89544
0.896674
0.897981
0.899178
0.900438
0.901535
0.902467
0.903255
0.904121
0.905482
0.907347
0.909654
0.91235
0.915291
0.918148
0.920739
0.922916
0.924628
0.926022
0.926919
0.927429
0.927798
0.928068
0.928236
0.928426
0.928704
0.92903
0.929448
0.930101
0.931119
0.932761
0.935505
0.939827
0.94575
0.952833
0.959236
0.96183
0.96189
0.961726
0.960736
0.959001
0.957268
0.956048
0.955527
0.955885
0.960414
0.978897
1.0299
1.09253
1.13746
1.15556
1.15634
1.15397
1.14782
1.14096
0.95074
0.947387
0.944267
0.941879
0.939486
0.936481
0.933873
0.931748
0.929559
0.9268
0.924471
0.922481
0.920411
0.917764
0.91577
0.914138
0.91235
0.910151
0.908796
0.907629
0.906187
0.904539
0.903607
0.902744
0.901414
0.900237
0.899699
0.89901
0.897899
0.897702
0.897581
0.897345
0.89723
0.897399
0.897912
0.89864
0.899455
0.900389
0.901361
0.902221
0.902949
0.903626
0.904013
0.904327
0.904664
0.905094
0.905878
0.90698
0.908317
0.909783
0.911199
0.912572
0.913882
0.914974
0.915868
0.916675
0.917361
0.91791
0.918382
0.918846
0.919334
0.919891
0.920736
0.922086
0.924371
0.928193
0.933647
0.940925
0.948821
0.954214
0.955808
0.956579
0.956548
0.956153
0.955967
0.955751
0.955535
0.955726
0.955821
0.956991
0.966191
1.00003
1.0598
1.11495
1.13977
1.14919
1.14973
1.14735
0.95667
0.953394
0.95033
0.947785
0.945217
0.942007
0.939351
0.937173
0.934915
0.932152
0.930001
0.928075
0.925992
0.923445
0.921454
0.919688
0.917694
0.915385
0.91394
0.912668
0.911009
0.909429
0.90849
0.907529
0.906044
0.904868
0.904239
0.903465
0.902229
0.901842
0.90159
0.901004
0.900563
0.900682
0.900724
0.900757
0.901038
0.901542
0.902196
0.902653
0.903123
0.903586
0.903993
0.90438
0.904703
0.905015
0.904997
0.904933
0.904967
0.905142
0.905422
0.905715
0.9061
0.906532
0.906947
0.907424
0.90795
0.908446
0.908912
0.909425
0.910014
0.910686
0.911624
0.913006
0.915089
0.91848
0.923753
0.931224
0.940299
0.947994
0.951985
0.954469
0.955939
0.956187
0.956177
0.956184
0.956249
0.956308
0.956246
0.956343
0.956967
0.960821
0.978354
1.02738
1.08453
1.13119
1.14255
1.14658
0.961978
0.95881
0.956032
0.953585
0.951045
0.947933
0.945291
0.94297
0.940496
0.937544
0.935368
0.933416
0.931232
0.928802
0.926982
0.925261
0.923167
0.921011
0.919549
0.91819
0.916377
0.914855
0.913852
0.912775
0.911121
0.909992
0.909259
0.908324
0.907025
0.906607
0.906244
0.905421
0.904759
0.904519
0.904133
0.903549
0.903299
0.90346
0.903577
0.903687
0.903945
0.904223
0.904492
0.904617
0.904701
0.904804
0.904851
0.904874
0.904858
0.904854
0.904739
0.904504
0.90431
0.904153
0.904033
0.903982
0.904094
0.904283
0.904507
0.904807
0.905235
0.905799
0.906647
0.907908
0.909671
0.912534
0.917339
0.924331
0.933421
0.943179
0.949803
0.953818
0.955937
0.956635
0.956844
0.957112
0.957569
0.957856
0.957756
0.957408
0.957208
0.957513
0.958765
0.968142
0.997149
1.05471
1.10309
1.13426
0.967028
0.963678
0.960988
0.958635
0.95613
0.953226
0.950804
0.948506
0.945965
0.943078
0.940829
0.938774
0.936434
0.934018
0.932197
0.930436
0.928213
0.926149
0.924691
0.923265
0.921338
0.919927
0.91889
0.917692
0.91596
0.914896
0.914116
0.91303
0.911775
0.911319
0.910826
0.909841
0.909024
0.908633
0.908036
0.907061
0.906739
0.90665
0.906369
0.906047
0.905941
0.90586
0.905797
0.905564
0.905347
0.905319
0.905372
0.905337
0.90519
0.905177
0.90518
0.904908
0.904648
0.904495
0.904204
0.904005
0.903858
0.903729
0.90355
0.903488
0.903583
0.903868
0.904413
0.905352
0.906691
0.908823
0.9127
0.918558
0.926823
0.937937
0.94757
0.953396
0.956157
0.957241
0.95763
0.958072
0.958903
0.959798
0.959968
0.959758
0.959186
0.958263
0.958373
0.959038
0.96215
0.979563
1.02095
1.07852
0.972323
0.968994
0.966313
0.963896
0.961238
0.958273
0.955874
0.953569
0.950909
0.948175
0.946042
0.944024
0.941632
0.939446
0.937661
0.935871
0.933577
0.931623
0.93008
0.928503
0.926435
0.925078
0.923987
0.922658
0.920902
0.919925
0.919126
0.917881
0.916734
0.916285
0.915709
0.914581
0.913729
0.913144
0.912318
0.911108
0.910653
0.91018
0.909588
0.909123
0.908518
0.908112
0.908101
0.907845
0.907226
0.906981
0.906929
0.906665
0.906171
0.905927
0.905769
0.905391
0.904965
0.904741
0.904405
0.904044
0.903855
0.903634
0.903432
0.90326
0.903265
0.903329
0.903523
0.903999
0.904793
0.90613
0.908756
0.913178
0.919925
0.930839
0.943432
0.951886
0.955859
0.957592
0.958215
0.958725
0.959615
0.960723
0.961656
0.961838
0.961669
0.961011
0.960078
0.959399
0.959674
0.961012
0.968287
0.994345
0.976994
0.973862
0.971389
0.969047
0.966429
0.963662
0.961272
0.958894
0.956048
0.953289
0.951066
0.948964
0.946475
0.944489
0.942812
0.941033
0.938782
0.936972
0.935393
0.933675
0.931594
0.930297
0.929164
0.927684
0.926018
0.925097
0.924227
0.922792
0.921723
0.921206
0.920491
0.919152
0.91829
0.917665
0.916693
0.915312
0.914835
0.914362
0.913377
0.912715
0.912271
0.911523
0.910748
0.910299
0.90975
0.908951
0.908632
0.908436
0.907817
0.90721
0.907045
0.906657
0.905925
0.905602
0.905328
0.904735
0.904373
0.904265
0.903936
0.903613
0.903561
0.903541
0.903547
0.903593
0.90383
0.90446
0.905879
0.908672
0.913519
0.922364
0.935977
0.947629
0.954938
0.958078
0.959046
0.959488
0.960171
0.961093
0.961954
0.962876
0.963376
0.963294
0.962848
0.961979
0.960897
0.960802
0.961357
0.964039
0.981766
0.978429
0.975946
0.973622
0.970923
0.968444
0.966262
0.963986
0.961214
0.958669
0.956447
0.954251
0.951677
0.949761
0.948024
0.946097
0.943825
0.942093
0.940504
0.938627
0.936626
0.935401
0.934254
0.93265
0.931149
0.930269
0.92935
0.927816
0.926785
0.926196
0.92536
0.923856
0.922926
0.922263
0.921232
0.919688
0.91908
0.918639
0.917647
0.916405
0.916016
0.91544
0.914194
0.913615
0.913297
0.912341
0.911652
0.911393
0.910746
0.909671
0.909225
0.908762
0.907798
0.907159
0.90685
0.906204
0.905473
0.905226
0.904865
0.904273
0.903993
0.903842
0.903599
0.903546
0.90362
0.903843
0.904439
0.905862
0.908703
0.914466
0.925778
0.939871
0.952062
0.958514
0.960413
0.960844
0.961127
0.961648
0.962438
0.963292
0.964036
0.964752
0.964749
0.964446
0.963711
0.962818
0.962119
0.962529
0.986954
0.983736
0.981131
0.978661
0.975741
0.973231
0.97103
0.968697
0.965914
0.963587
0.96148
0.959234
0.956797
0.954984
0.953245
0.951263
0.949124
0.947437
0.945805
0.943735
0.941853
0.940598
0.939372
0.937655
0.936349
0.935484
0.934475
0.932868
0.931881
0.931204
0.930236
0.928596
0.927668
0.927016
0.925949
0.924284
0.923604
0.923161
0.922179
0.920689
0.92014
0.919591
0.91834
0.91723
0.916779
0.916011
0.914836
0.914267
0.913715
0.912565
0.911628
0.911137
0.910263
0.909176
0.908797
0.908275
0.907254
0.906722
0.906374
0.905616
0.904834
0.904558
0.904119
0.903681
0.903608
0.903729
0.904102
0.90477
0.906188
0.909247
0.91656
0.929461
0.944797
0.957227
0.961756
0.962804
0.962954
0.963042
0.963415
0.964072
0.9648
0.965431
0.966316
0.966336
0.966264
0.965817
0.965045
0.964074
0.991485
0.988538
0.986053
0.983584
0.980684
0.978331
0.976173
0.973808
0.971098
0.968813
0.966654
0.96417
0.961674
0.959892
0.958152
0.956009
0.954124
0.952551
0.950934
0.948807
0.947135
0.945869
0.944534
0.942729
0.9416
0.940643
0.93947
0.937851
0.936819
0.93598
0.934957
0.933268
0.932211
0.931615
0.930659
0.928949
0.928044
0.927618
0.926741
0.925142
0.924323
0.923793
0.922706
0.921226
0.920731
0.920151
0.918813
0.917983
0.917498
0.916395
0.915083
0.914543
0.913781
0.912447
0.911832
0.911352
0.910274
0.909325
0.908898
0.908158
0.907044
0.906536
0.906
0.90519
0.904516
0.904322
0.904305
0.904531
0.905278
0.906735
0.910418
0.919098
0.932942
0.948954
0.961172
0.965004
0.965452
0.965375
0.965298
0.965565
0.966058
0.966664
0.967402
0.968202
0.968558
0.968546
0.968311
0.967587
0.996366
0.993413
0.990848
0.988126
0.98505
0.982852
0.980829
0.97852
0.976098
0.974037
0.971952
0.969379
0.967004
0.965114
0.96327
0.960981
0.959157
0.957618
0.95592
0.953716
0.952244
0.951018
0.949543
0.947823
0.946875
0.945904
0.944537
0.943108
0.94212
0.941021
0.939905
0.938444
0.937098
0.936361
0.935569
0.933949
0.932604
0.932139
0.93139
0.929724
0.928545
0.928044
0.92711
0.92549
0.92478
0.924227
0.923023
0.921775
0.921141
0.920229
0.918711
0.917918
0.917304
0.916077
0.915054
0.914571
0.913693
0.912283
0.911631
0.910961
0.909594
0.908694
0.908223
0.907324
0.90635
0.905874
0.905425
0.9053
0.905515
0.906288
0.907905
0.912176
0.921174
0.936161
0.953261
0.965483
0.968389
0.968463
0.968209
0.968124
0.968266
0.96847
0.968827
0.969553
0.9704
0.97089
0.971017
0.970911
1.00123
0.998504
0.99597
0.99318
0.990062
0.98782
0.985766
0.983262
0.980844
0.97883
0.976711
0.974034
0.971861
0.970073
0.968228
0.966026
0.964411
0.962915
0.961106
0.958892
0.957445
0.956174
0.954434
0.952711
0.951901
0.950976
0.949308
0.948001
0.947191
0.946024
0.944463
0.943508
0.942274
0.940904
0.94013
0.93907
0.937349
0.936451
0.935795
0.93444
0.932777
0.932152
0.931423
0.929883
0.928847
0.928358
0.927367
0.925818
0.925167
0.924448
0.922924
0.92191
0.921392
0.920325
0.918942
0.91836
0.917605
0.916127
0.915155
0.914521
0.913352
0.912023
0.911386
0.910561
0.908988
0.908097
0.907661
0.906897
0.906532
0.9067
0.90738
0.909072
0.913451
0.922915
0.940374
0.95863
0.969405
0.971389
0.971404
0.971173
0.970979
0.970748
0.970768
0.971158
0.971912
0.972756
0.973284
0.973575
1.00557
1.00297
1.00061
0.997802
0.994883
0.992797
0.990772
0.988272
0.986004
0.983989
0.981807
0.979008
0.97682
0.975003
0.97295
0.970779
0.969283
0.967828
0.96602
0.963942
0.962608
0.96141
0.959583
0.957859
0.957116
0.956232
0.954461
0.952957
0.95231
0.951288
0.949277
0.948341
0.947586
0.945943
0.944683
0.944002
0.94255
0.940968
0.940269
0.939245
0.937394
0.93648
0.935896
0.934566
0.933212
0.932667
0.931825
0.930202
0.929233
0.92855
0.927245
0.925874
0.925292
0.924477
0.922969
0.922088
0.921418
0.920081
0.918682
0.918067
0.917149
0.91557
0.914788
0.914079
0.912706
0.911379
0.910672
0.909738
0.908502
0.907947
0.908038
0.908728
0.910504
0.914966
0.925541
0.945134
0.962227
0.972375
0.974281
0.974191
0.973729
0.973284
0.972925
0.97305
0.973524
0.974255
0.975075
0.975544
1.01037
1.00777
1.00539
1.00249
0.999564
0.997503
0.995462
0.992835
0.990692
0.988807
0.986567
0.983923
0.981905
0.980096
0.978001
0.975963
0.974463
0.972916
0.970973
0.968944
0.967451
0.966249
0.964578
0.962725
0.962003
0.961306
0.959698
0.957929
0.957286
0.956402
0.954421
0.953055
0.95247
0.951248
0.949307
0.948481
0.947488
0.945625
0.944479
0.94366
0.942089
0.940689
0.940141
0.939182
0.93759
0.936855
0.936161
0.934638
0.933316
0.932719
0.931668
0.930008
0.929332
0.928658
0.927167
0.925941
0.925312
0.924215
0.922598
0.921814
0.921066
0.919588
0.918377
0.917693
0.916554
0.914884
0.914039
0.913193
0.911773
0.91056
0.909731
0.909641
0.910163
0.911952
0.91674
0.928669
0.948359
0.965412
0.975902
0.976803
0.976628
0.976176
0.975706
0.975414
0.975597
0.976078
0.976789
0.977529
1.01484
1.01238
1.01015
1.00734
1.00455
1.00257
1.00048
0.997759
0.995576
0.993615
0.991225
0.988512
0.986653
0.984925
0.982692
0.980936
0.979511
0.977868
0.975936
0.974259
0.972541
0.971129
0.969868
0.968066
0.966801
0.966162
0.964941
0.962908
0.962015
0.961326
0.959665
0.957969
0.957347
0.956362
0.954375
0.95322
0.952367
0.950666
0.949048
0.948308
0.947066
0.945331
0.944667
0.943914
0.942297
0.941222
0.940589
0.93929
0.937649
0.936947
0.936102
0.934477
0.9334
0.932737
0.9315
0.929858
0.929082
0.928222
0.926583
0.925512
0.9249
0.923707
0.922154
0.921448
0.920567
0.91892
0.917746
0.91693
0.915498
0.913743
0.912381
0.911272
0.911117
0.911769
0.913819
0.918906
0.931653
0.951526
0.969471
0.978624
0.978842
0.97872
0.978381
0.977899
0.97775
0.977956
0.978453
0.9791
1.0194
1.01689
1.01474
1.01189
1.00915
1.00725
1.00519
1.00244
1.00035
0.998502
0.996068
0.993473
0.991733
0.990012
0.987642
0.985857
0.984464
0.982661
0.980429
0.979112
0.977671
0.975722
0.974711
0.973644
0.971913
0.970872
0.970059
0.96827
0.966784
0.966138
0.964845
0.962922
0.962078
0.96118
0.95931
0.957848
0.956999
0.95554
0.953622
0.952813
0.95186
0.950115
0.94912
0.948449
0.947045
0.945498
0.944802
0.94378
0.94195
0.941021
0.940357
0.938908
0.937392
0.936757
0.935768
0.933947
0.932955
0.932254
0.930843
0.929401
0.928749
0.927812
0.926157
0.925172
0.924422
0.922976
0.921467
0.920664
0.91952
0.917517
0.916111
0.914849
0.913402
0.913147
0.913796
0.915723
0.921027
0.934173
0.953372
0.970141
0.979699
0.980321
0.980294
0.980108
0.979813
0.979823
0.980153
0.980552
1.024
1.02153
1.01949
1.01683
1.01402
1.01212
1.01004
1.00709
1.00491
1.00311
1.00067
0.998102
0.996538
0.994941
0.992556
0.990777
0.989478
0.987651
0.985294
0.983986
0.982791
0.980768
0.979325
0.978632
0.977202
0.975457
0.974775
0.97355
0.971673
0.970878
0.969956
0.968077
0.966942
0.966111
0.964403
0.962625
0.961724
0.960457
0.95844
0.957485
0.95669
0.955056
0.953728
0.953074
0.951875
0.950033
0.949184
0.948347
0.946655
0.94534
0.944704
0.943558
0.941743
0.940783
0.939923
0.938271
0.936791
0.936115
0.93507
0.93336
0.932536
0.931809
0.930288
0.92897
0.928291
0.927151
0.925435
0.924423
0.923425
0.921768
0.919976
0.918638
0.916992
0.915303
0.915025
0.915671
0.91784
0.923317
0.936048
0.955333
0.972949
0.980997
0.98189
0.982048
0.981881
0.981773
0.981869
0.982023
1.02853
1.02585
1.02395
1.02141
1.01854
1.01671
1.01475
1.01189
1.00959
1.0079
1.00563
1.00293
1.0014
0.999848
0.997377
0.995443
0.994129
0.992362
0.989994
0.988755
0.987684
0.985847
0.984304
0.98354
0.982344
0.980455
0.979529
0.978573
0.976671
0.975577
0.97483
0.973147
0.971667
0.970822
0.969351
0.96738
0.966391
0.965295
0.963352
0.962205
0.96145
0.96
0.958347
0.957551
0.956485
0.954549
0.953393
0.952664
0.951266
0.94954
0.948844
0.947961
0.946134
0.944797
0.944084
0.942768
0.940936
0.940174
0.939358
0.937692
0.936478
0.935794
0.934569
0.932927
0.932116
0.931223
0.929535
0.928296
0.9274
0.925963
0.924169
0.922879
0.921484
0.919465
0.917834
0.917266
0.917854
0.919709
0.924996
0.938454
0.95834
0.975492
0.982465
0.983566
0.983725
0.983589
0.98358
0.983617
1.03333
1.03046
1.02851
1.02622
1.02321
1.02114
1.01931
1.01651
1.01396
1.01243
1.0104
1.0077
1.00609
1.00466
1.00233
1.00018
0.998877
0.997169
0.994817
0.993567
0.992499
0.990703
0.989138
0.988301
0.98712
0.985201
0.984283
0.983493
0.981803
0.980492
0.979743
0.978294
0.9765
0.975529
0.974206
0.972119
0.971028
0.970051
0.968256
0.966922
0.966167
0.964876
0.963022
0.962096
0.961127
0.959292
0.957835
0.957141
0.956004
0.954101
0.953102
0.952321
0.95076
0.948951
0.948155
0.947157
0.945324
0.944168
0.943445
0.942074
0.940447
0.939684
0.938712
0.937017
0.935979
0.935168
0.933699
0.932139
0.931295
0.930175
0.928395
0.927173
0.925952
0.924061
0.92187
0.920021
0.919095
0.919623
0.921919
0.92787
0.940936
0.960319
0.976615
0.984254
0.985462
0.985609
0.985531
0.985529
1.0378
1.03466
1.03266
1.03072
1.02785
1.02557
1.02386
1.0214
1.01861
1.01694
1.01518
1.0125
1.01058
1.00923
1.00704
1.00467
1.0034
1.00189
0.999607
0.998294
0.997337
0.995617
0.993935
0.993086
0.991928
0.99
0.989024
0.988283
0.986746
0.985291
0.984526
0.983204
0.981294
0.980217
0.978995
0.976982
0.975749
0.974811
0.973171
0.971656
0.970813
0.969589
0.967642
0.966517
0.965591
0.963954
0.962226
0.961493
0.960547
0.958704
0.957284
0.956556
0.955319
0.953297
0.952306
0.951533
0.949934
0.948361
0.947633
0.946508
0.944702
0.943742
0.942879
0.941323
0.940029
0.939191
0.93795
0.93625
0.935286
0.93437
0.932711
0.931404
0.930469
0.92877
0.926543
0.924446
0.922394
0.921511
0.922161
0.924525
0.930401
0.94441
0.964781
0.98056
0.986561
0.987434
0.98755
0.98748
1.04231
1.03924
1.0368
1.03501
1.0325
1.02983
1.02808
1.02602
1.02311
1.02126
1.01973
1.01728
1.01509
1.01371
1.01183
1.00932
1.00791
1.00658
1.00438
1.00287
1.00194
1.00034
0.998534
0.997674
0.996623
0.994797
0.993832
0.993135
0.991679
0.990195
0.989316
0.988016
0.986035
0.984849
0.983675
0.981735
0.980433
0.979494
0.977945
0.976369
0.975407
0.97421
0.972315
0.971012
0.970093
0.968687
0.966796
0.965879
0.965044
0.963427
0.961579
0.960771
0.959783
0.957884
0.956506
0.955788
0.954507
0.952679
0.951736
0.950749
0.949006
0.947775
0.946914
0.945521
0.944029
0.943155
0.94206
0.940393
0.939365
0.938515
0.937136
0.935685
0.934701
0.933379
0.931247
0.929142
0.926897
0.924574
0.923793
0.924561
0.927391
0.93391
0.948483
0.967629
0.981701
0.988667
0.98962
0.989607
1.04629
1.04373
1.04093
1.03917
1.03712
1.03434
1.03237
1.0305
1.02778
1.02557
1.02403
1.02191
1.01945
1.01799
1.01633
1.01385
1.01233
1.01113
1.00918
1.00751
1.00651
1.00503
1.0031
1.0022
1.00123
0.99952
0.998572
0.997885
0.996473
0.994951
0.994005
0.992689
0.990724
0.989534
0.988384
0.986541
0.985206
0.984179
0.982614
0.980993
0.979902
0.978633
0.976896
0.975518
0.974475
0.973307
0.97153
0.970198
0.969377
0.968085
0.966033
0.964939
0.964135
0.962557
0.960822
0.960046
0.958993
0.95711
0.955945
0.955012
0.953408
0.952026
0.95111
0.949833
0.948302
0.947295
0.946263
0.944656
0.943527
0.942704
0.941405
0.939969
0.938948
0.937695
0.935871
0.933845
0.931841
0.929507
0.927358
0.927049
0.927956
0.930866
0.937575
0.9526
0.971428
0.9856
0.991473
0.991961
1.05018
1.04802
1.0452
1.04322
1.04138
1.03875
1.03648
1.03467
1.03223
1.02981
1.02827
1.02635
1.02391
1.02233
1.02076
1.01844
1.01672
1.01552
1.0137
1.01191
1.01091
1.00953
1.00766
1.00674
1.00584
1.00424
1.00327
1.00257
1.00116
0.999625
0.998628
0.997282
0.995357
0.99418
0.993027
0.991193
0.989861
0.988798
0.98715
0.985567
0.984442
0.983041
0.981418
0.980197
0.978886
0.977695
0.976393
0.974693
0.973549
0.972555
0.970762
0.969178
0.968413
0.967193
0.965303
0.964303
0.963347
0.96159
0.960185
0.959199
0.957731
0.956242
0.955237
0.953998
0.952455
0.951433
0.950423
0.948925
0.947783
0.946921
0.945709
0.944169
0.943088
0.941868
0.940122
0.938424
0.936687
0.934611
0.932212
0.930267
0.93005
0.931073
0.934224
0.941592
0.956875
0.97485
0.988536
0.993769
1.05405
1.05211
1.04956
1.04736
1.04555
1.04308
1.0406
1.03875
1.03646
1.03401
1.03238
1.03059
1.02822
1.02656
1.02506
1.02285
1.02107
1.01985
1.01811
1.0163
1.01522
1.01393
1.01212
1.01122
1.01037
1.00885
1.00786
1.00712
1.00568
1.00418
1.00319
1.00184
0.999991
0.998863
0.997691
0.995812
0.994445
0.993347
0.991603
0.989957
0.988927
0.987491
0.985758
0.984792
0.983576
0.981896
0.980896
0.979563
0.977786
0.976778
0.975519
0.973654
0.972659
0.971687
0.969883
0.968571
0.967641
0.966075
0.964515
0.963437
0.962083
0.960614
0.9595
0.958255
0.956719
0.95569
0.954703
0.953196
0.952035
0.951169
0.949918
0.948363
0.947176
0.945994
0.944261
0.942716
0.941454
0.93966
0.937481
0.935248
0.933557
0.933485
0.934549
0.937866
0.945575
0.960421
0.977981
0.991171
1.05803
1.05615
1.05373
1.05137
1.04951
1.0471
1.04455
1.04269
1.04061
1.03822
1.03656
1.03482
1.03242
1.03068
1.02916
1.02706
1.02532
1.02408
1.02241
1.02057
1.01948
1.0182
1.01649
1.01564
1.01482
1.01337
1.01238
1.01159
1.0101
1.00864
1.00768
1.00633
1.00457
1.00348
1.00229
1.00036
0.998947
0.997832
0.996061
0.994324
0.993364
0.992059
0.990174
0.989226
0.988245
0.986371
0.985137
0.984185
0.982409
0.980972
0.980037
0.978365
0.976922
0.976048
0.974524
0.972838
0.971822
0.970526
0.968916
0.967637
0.966342
0.964988
0.963776
0.962455
0.960921
0.959921
0.958962
0.957473
0.956256
0.955401
0.954132
0.952484
0.951308
0.950041
0.948445
0.946942
0.945726
0.944298
0.942367
0.940469
0.938303
0.936587
0.936531
0.937768
0.941336
0.949176
0.964251
0.982337
1.06178
1.05994
1.05772
1.05534
1.05345
1.05117
1.04853
1.04663
1.04458
1.04217
1.0405
1.03882
1.03656
1.03479
1.03327
1.03116
1.02939
1.02816
1.02651
1.02476
1.02368
1.02242
1.02078
1.01993
1.0191
1.01765
1.01671
1.01593
1.01448
1.01312
1.0122
1.01084
1.00912
1.00802
1.00678
1.0048
1.00338
1.00225
1.00052
0.99876
0.997787
0.996561
0.994691
0.993635
0.992687
0.990956
0.98948
0.988579
0.987086
0.98531
0.984421
0.983115
0.981245
0.980263
0.979122
0.977251
0.975885
0.97485
0.973406
0.971896
0.970507
0.96935
0.968165
0.96676
0.965186
0.96423
0.963286
0.961768
0.960443
0.959564
0.958327
0.956548
0.955401
0.954228
0.952528
0.951252
0.950073
0.948704
0.947162
0.945441
0.943466
0.941117
0.939813
0.939987
0.941376
0.944939
0.952794
0.967983
1.06575
1.06384
1.06158
1.05896
1.05699
1.05483
1.05232
1.05052
1.04866
1.04634
1.04455
1.04278
1.04039
1.0386
1.03711
1.03511
1.03341
1.0322
1.03056
1.0288
1.02775
1.02651
1.02494
1.02412
1.02328
1.02184
1.02091
1.02015
1.01873
1.01751
1.01666
1.01532
1.01365
1.01252
1.01121
1.00918
1.00776
1.00663
1.00493
1.00322
1.00226
1.00105
0.999211
0.998085
0.99709
0.995404
0.993876
0.992949
0.991606
0.98973
0.988753
0.987679
0.985749
0.984381
0.983452
0.981882
0.980007
0.97898
0.977847
0.976326
)
;

boundaryField
{
    inlet
    {
        type            fixedValue;
        value           nonuniform 0();
    }
    outlet
    {
        type            inletOutlet;
        inletValue      nonuniform 0();
        value           nonuniform 0();
    }
    bottom
    {
        type            symmetryPlane;
    }
    top
    {
        type            symmetryPlane;
    }
    obstacle
    {
        type            zeroGradient;
    }
    front
    {
        type            empty;
    }
    back
    {
        type            empty;
    }
    procBoundary28to13
    {
        type            processor;
        value           nonuniform List<scalar> 
16
(
1.12756
1.13415
1.14231
1.1462
1.14543
1.11735
1.04469
0.978437
0.963786
0.964091
0.966801
0.970434
0.973559
0.975872
0.977909
0.979623
)
;
    }
    procBoundary28to20
    {
        type            processor;
        value           nonuniform List<scalar> 
89
(
0.887003
0.886149
0.885879
0.886026
0.886016
0.886393
0.887452
0.88909
0.890896
0.892805
0.894701
0.896719
0.899103
0.90257
0.907389
0.913587
0.920392
0.927032
0.93289
0.93737
0.940154
0.942203
0.943435
0.943914
0.943868
0.943606
0.943065
0.942779
0.942091
0.941013
0.939948
0.939043
0.938337
0.93776
0.937432
0.937438
0.93745
0.937818
0.938783
0.940412
0.942814
0.946537
0.951854
0.957859
0.964116
0.969099
0.970407
0.971019
0.971478
0.971424
0.970384
0.969274
0.972195
0.989987
1.03658
1.1037
1.14353
1.1653
1.16574
1.16445
1.1584
1.14946
1.14198
1.13556
1.12966
0.939346
0.936075
0.932744
0.930226
0.927771
0.924714
0.921831
0.919678
0.917534
0.914814
0.912361
0.910522
0.908694
0.906305
0.904385
0.902908
0.901373
0.899333
0.897819
0.896676
0.895445
0.89373
0.892898
0.892898
)
;
    }
    procBoundary28to21
    {
        type            processor;
        value           nonuniform List<scalar> 
11
(
0.981028
0.982295
0.983694
0.985582
0.987472
0.989526
0.991948
0.994243
0.996348
0.994843
0.985111
)
;
    }
    procBoundary28to27
    {
        type            processor;
        value           nonuniform List<scalar> 
26
(
0.947326
0.953409
0.959327
0.964558
0.9698
0.97514
0.979827
0.984868
0.990041
0.994518
0.999395
1.00412
1.00858
1.01345
1.0179
1.02261
1.02714
1.03168
1.03623
1.04033
1.04453
1.04831
1.05237
1.05638
1.06048
1.06423
)
;
    }
    procBoundary28to35
    {
        type            processor;
        value           uniform 1.06813;
    }
    procBoundary28to36
    {
        type            processor;
        value           nonuniform List<scalar> 
89
(
0.97466
0.973599
0.97254
0.971137
0.969467
0.968536
0.967622
0.966084
0.964619
0.963695
0.962462
0.96065
0.959447
0.958343
0.956654
0.955323
0.954333
0.952967
0.951405
0.950062
0.948429
0.946418
0.944228
0.942862
0.943011
0.944461
0.948106
0.956004
1.06908
1.0672
1.06522
1.0628
1.06078
1.05871
1.05617
1.05427
1.05244
1.05004
1.0482
1.0465
1.04426
1.04248
1.04104
1.03906
1.03729
1.03608
1.03443
1.03267
1.03167
1.03047
1.02894
1.02814
1.02732
1.02591
1.02505
1.02434
1.02297
1.02185
1.02103
1.01968
1.01805
1.01692
1.01558
1.01356
1.01217
1.01106
1.00936
1.00765
1.0067
1.0055
1.00363
1.00248
1.00151
0.999831
0.998254
0.997325
0.99606
0.994167
0.993057
0.992037
0.99029
0.988601
0.987635
0.986351
0.984409
0.983129
0.982151
0.97466
0.980767
)
;
    }
}


// ************************************************************************* //
