/*--------------------------------*- C++ -*----------------------------------*\
  =========                 |
  \\      /  F ield         | OpenFOAM: The Open Source CFD Toolbox
   \\    /   O peration     | Website:  https://openfoam.org
    \\  /    A nd           | Version:  7
     \\/     M anipulation  |
\*---------------------------------------------------------------------------*/
FoamFile
{
    version     2.0;
    format      ascii;
    class       surfaceScalarField;
    location    "10";
    object      phi;
}
// * * * * * * * * * * * * * * * * * * * * * * * * * * * * * * * * * * * * * //

dimensions      [0 3 -1 0 0 0 0];

internalField   nonuniform List<scalar> 
67470
(
-0.000197518
0.000197463
5.47108e-08
-0.00042347
0.000225873
7.90245e-08
-0.000727615
0.000304035
1.09233e-07
-0.00107922
0.000351483
1.22788e-07
-0.00149264
0.000413321
9.84615e-08
-0.00189527
0.000402616
1.40973e-08
-0.00214154
0.000246357
-8.83494e-08
-0.00209523
-4.61581e-05
-1.4921e-07
-0.00175328
-0.000341795
-1.58818e-07
-0.00119033
-0.00056281
-1.3713e-07
-0.000485437
-0.000704793
-1.01328e-07
0.000294263
-0.000779636
-6.37496e-08
0.0011157
-0.000821408
-3.17417e-08
0.00194986
-0.000834152
-7.09055e-09
0.0027857
-0.00083585
1.02086e-08
0.00363055
-0.000844867
2.13053e-08
0.00446496
-0.00083444
2.80077e-08
0.0053255
-0.000860567
3.10932e-08
0.00617426
-0.0008488
3.23155e-08
-0.000894087
3.12746e-08
0.00706832
-0.000196404
0.000393868
-0.000420085
0.000449554
-0.000720083
0.000604033
-0.00106469
0.000696095
-0.00146764
0.000816268
-0.00185562
0.000790595
-0.00208257
0.000473306
-0.00201359
-0.000115135
-0.00164796
-0.000707429
-0.00106256
-0.00114821
-0.000337379
-0.00142997
0.000461711
-0.00157873
0.00129953
-0.00165923
0.00214865
-0.00168327
0.00300009
-0.0016873
0.00385725
-0.00170202
0.00470709
-0.00168428
0.00557861
-0.00173209
0.00644148
-0.00171166
-0.00179795
0.00734534
-0.000194192
0.000588059
-0.000413365
0.000668727
-0.000705147
0.000895815
-0.00103593
0.00102688
-0.00141828
0.00119862
-0.0017777
0.00115001
-0.00196752
0.000663126
-0.00185592
-0.000226736
-0.00144694
-0.00111641
-0.000821543
-0.00177361
-6.20806e-05
-0.00218943
0.000770199
-0.00241101
0.00163509
-0.00252412
0.00250836
-0.00255654
0.00338387
-0.00256282
0.00425981
-0.00257796
0.00513238
-0.00255685
0.00601898
-0.00261869
0.00690157
-0.00259426
-0.00271325
0.00781688
-0.000190916
0.000778975
-0.000403416
0.000881227
-0.000683068
0.00117547
-0.000993516
0.00133733
-0.00134579
0.00155089
-0.00166409
0.00146831
-0.00180159
0.000800633
-0.00163196
-0.000396374
-0.00116648
-0.00158189
-0.000491329
-0.00244876
0.000311128
-0.00299189
0.00117796
-0.00327784
0.00207155
-0.00341771
0.00296939
-0.00345437
0.00386721
-0.00346064
0.00475985
-0.00347059
0.00565126
-0.00344827
0.00654767
-0.00351509
0.00744435
-0.00349094
-0.00363129
0.00836238
-0.000186624
0.000965599
-0.00039039
0.00108499
-0.000654218
0.0014393
-0.000938268
0.00162138
-0.00125189
0.00186451
-0.00151823
0.00173464
-0.00159137
0.000873777
-0.00135336
-0.000634387
-0.00082517
-0.00211007
-9.81762e-05
-0.00317575
0.000744051
-0.00383412
0.00164146
-0.00417525
0.00255689
-0.00433314
0.00347159
-0.00436907
0.00438156
-0.00437061
0.00528145
-0.00437049
0.00617939
-0.00434621
0.0070738
-0.00440949
0.0079711
-0.00438825
-0.00453765
0.00887747
-0.000181381
0.00114698
-0.000374485
0.0012781
-0.000619082
0.00168389
-0.000871236
0.00187353
-0.00113868
0.00213196
-0.0013441
0.00194007
-0.00134395
0.000873628
-0.00103177
-0.00094657
-0.000440275
-0.00270157
0.000332789
-0.00394881
0.00120733
-0.00470866
0.0021247
-0.00509261
0.00304984
-0.00525828
0.00396864
-0.00528787
0.00487659
-0.00527856
0.00577058
-0.00526448
0.00665973
-0.00523536
0.00753886
-0.00528863
0.00842168
-0.00527107
-0.00541903
0.00930306
-0.000175262
0.00132224
-0.000355938
0.00145877
-0.000578235
0.00190619
-0.000793647
0.00208895
-0.00100853
0.00234684
-0.00114597
0.0020775
-0.00106638
0.000794041
-0.00067775
-0.0013352
-2.24502e-05
-0.00335687
0.000783489
-0.00475475
0.00167833
-0.0056035
0.00260211
-0.00601639
0.003523
-0.00617917
0.00443162
-0.00619649
0.00532342
-0.00617036
0.00619843
-0.00613949
0.00706517
-0.00610209
0.00791826
-0.00614171
0.00877468
-0.00612749
-0.00626739
0.00962304
-0.000168358
0.0014906
-0.000335022
0.00162544
-0.000532334
0.0021035
-0.000706884
0.00226349
-0.000864048
0.00250401
-0.000928205
0.00214166
-0.000765371
0.000631207
-0.000300103
-0.00180047
0.000398999
-0.00405597
0.00123887
-0.00559463
0.00214089
-0.00650552
0.00305703
-0.00693253
0.00396026
-0.00708239
0.00484561
-0.00708185
0.00570957
-0.00703432
0.0065551
-0.00698502
0.00738986
-0.00693685
0.00821027
-0.00696212
0.0090336
-0.00695083
-0.00708047
0.00984668
-0.000160765
0.00165136
-0.000312036
0.00177671
-0.000482099
0.00227357
-0.000612446
0.00239384
-0.000707962
0.00259952
-0.000695232
0.00212893
-0.000447266
0.000383241
9.20692e-05
-0.0023398
0.000830047
-0.00479395
0.00168716
-0.00645174
0.00258334
-0.0074017
0.00347888
-0.00782807
0.00435292
-0.00795643
0.0052046
-0.00793352
0.0060324
-0.00786212
0.00684153
-0.00779416
0.00763927
-0.00773459
0.0084244
-0.00774725
0.00921283
-0.00773925
-0.00786014
0.0099925
-0.00015259
0.00180395
-0.000287304
0.00191142
-0.000428298
0.00241456
-0.000511929
0.00247747
-0.00054314
0.00263073
-0.000451509
0.0020373
-0.000117462
4.91938e-05
0.000482003
-0.00293927
0.00125752
-0.00556946
0.00211892
-0.00731314
0.00299713
-0.00827991
0.00386109
-0.00869204
0.00469705
-0.00879239
0.00550787
-0.00874435
0.00629462
-0.00864887
0.00706403
-0.00856357
0.00782355
-0.00849411
0.00857398
-0.00849769
0.00932915
-0.00849443
-0.00861044
0.0100795
-0.000143946
0.0019479
-0.00026116
0.00202864
-0.000371728
0.00252513
-0.000406995
0.00251274
-0.000372538
0.00259628
-0.00020173
0.00186649
0.000214862
-0.000367399
0.000872941
-0.00359735
0.00167273
-0.00636925
0.00252651
-0.00816693
0.00337621
-0.0091296
0.00420007
-0.00951591
0.00499189
-0.0095842
0.00575786
-0.00951032
0.0065017
-0.00939271
0.00723112
-0.00929298
0.00795403
-0.00921702
0.00867242
-0.00921608
0.00939793
-0.00921994
-0.00933608
0.0101236
-0.000134948
0.00208285
-0.000233947
0.00212764
-0.000313192
0.00260437
-0.000299343
0.00249889
-0.000199207
0.00249614
4.92889e-05
0.001618
0.000546218
-0.000864328
0.00125568
-0.00430681
0.00206852
-0.00718208
0.002904
-0.00900242
0.00371664
-0.00994224
0.00449456
-0.0102938
0.00523896
-0.0103286
0.00595889
-0.0102302
0.00666046
-0.0100943
0.00735191
-0.00998443
0.00804153
-0.00990664
0.00873159
-0.00990613
0.00943177
-0.00992013
-0.0100415
0.0101372
-0.000125714
0.00220856
-0.000206005
0.00220793
-0.000253477
0.00265185
-0.000190664
0.00243608
-2.71162e-05
0.00233259
0.000303319
0.00128756
0.000872262
-0.00143327
0.00162392
-0.00505847
0.00243913
-0.00799729
0.00324717
-0.00981045
0.00401645
-0.0107115
0.00474517
-0.0110225
0.00544136
-0.0110248
0.00611631
-0.0109052
0.00677809
-0.0107561
0.00743506
-0.0106414
0.0080955
-0.0105671
0.0087612
-0.0105718
0.00944031
-0.0105992
-0.0107306
0.0101294
-0.00011636
0.00232492
-0.000177664
0.00226923
-0.000193326
0.00266751
-8.25793e-05
0.00232533
0.000145411
0.0021046
0.00055059
0.000882382
0.00118836
-0.00207104
0.00197266
-0.00584277
0.00278026
-0.00880488
0.00355343
-0.0105836
0.00427534
-0.0114334
0.00495395
-0.0117012
0.00560318
-0.011674
0.00623587
-0.0115379
0.00686154
-0.0113817
0.00748822
-0.0112681
0.00812369
-0.0112025
0.00876879
-0.0112169
0.00943061
-0.0112611
-0.0114064
0.0101064
-0.000107002
0.00243192
-0.000149238
0.00231147
-0.000133405
0.00265167
2.33866e-05
0.00216854
0.000312216
0.00181577
0.000790197
0.0004044
0.00149114
-0.00277199
0.00229809
-0.00664972
0.00308896
-0.00959575
0.00382171
-0.0113164
0.00449438
-0.0121061
0.00512396
-0.0123307
0.00572899
-0.012279
0.00632325
-0.0121321
0.0069171
-0.0119756
0.00751781
-0.0118688
0.00813215
-0.0118169
0.00875995
-0.0118447
0.00940763
-0.0119087
-0.0120711
0.0100723
-9.77488e-05
0.00252967
-0.000121013
0.00233473
-7.4261e-05
0.00260492
0.000126268
0.00196801
0.000472459
0.00146958
0.00102079
-0.000143934
0.00177818
-0.00352938
0.00259747
-0.00746901
0.00336358
-0.0103619
0.00405219
-0.012005
0.00467568
-0.0127296
0.00525885
-0.0129139
0.00582352
-0.0128437
0.00638374
-0.0126924
0.00695021
-0.0125421
0.00752894
-0.0124475
0.00812547
-0.0124134
0.00873876
-0.012458
0.00937476
-0.0125447
-0.0127263
0.0100299
-8.87033e-05
0.00261838
-9.32466e-05
0.00233927
-1.61073e-05
0.00252778
0.00022498
0.00172692
0.000625729
0.00106883
0.00124195
-0.000760157
0.00204781
-0.00433524
0.00286898
-0.00829017
0.00360355
-0.0110964
0.00424611
-0.0126475
0.00482209
-0.0133056
0.00536259
-0.0134544
0.00589129
-0.0133724
0.00642207
-0.0132232
0.00696536
-0.0130854
0.0075256
-0.0130077
0.00810706
-0.0129949
0.00870812
-0.0130591
0.00933424
-0.0131708
-0.0133729
0.00998085
-7.99601e-05
0.00269834
-6.61605e-05
0.00232547
3.99673e-05
0.00242166
0.000319333
0.00144756
0.000772552
0.000615614
0.00145409
-0.0014417
0.00229885
-0.00517999
0.00311152
-0.00910285
0.00380923
-0.0117942
0.00440548
-0.0132438
0.00493691
-0.013837
0.00543915
-0.0139567
0.0059365
-0.0138698
0.00644228
-0.0137289
0.00696613
-0.0136092
0.00751079
-0.0135524
0.00807942
-0.0135635
0.00867005
-0.0136497
0.00928748
-0.0137883
-0.0140116
0.00992617
-7.16031e-05
0.00276994
-3.99429e-05
0.00229381
9.44764e-05
0.00228724
0.000409751
0.00113228
0.000914472
0.000110892
0.00165806
-0.00218529
0.00253031
-0.00605224
0.00332463
-0.00989717
0.00398172
-0.0124512
0.00453291
-0.013795
0.00502364
-0.0143277
0.00549235
-0.0144254
0.0059629
-0.0143403
0.00644774
-0.0142138
0.00695534
-0.0141168
0.00748677
-0.0140838
0.00804436
-0.0141211
0.00862592
-0.0142313
0.00923535
-0.0143977
-0.0146427
0.00986646
-6.37037e-05
0.00283364
-1.48156e-05
0.00224493
0.000147498
0.00212492
0.000497396
0.000782385
0.00105376
-0.000445468
0.00185453
-0.00298606
0.0027412
-0.0069389
0.00350834
-0.0106643
0.00412277
-0.0130657
0.00463136
-0.0143036
0.00508582
-0.0147822
0.00552571
-0.0148652
0.0059737
-0.0147883
0.00644119
-0.0146813
0.00693515
-0.0146108
0.00745521
-0.0146039
0.00800318
-0.0146691
0.00857661
-0.0148047
0.00917838
-0.0149995
-0.0152663
0.00980202
-5.63177e-05
0.00288996
9.36668e-06
0.00217924
0.00019926
0.00193503
0.00058409
0.000397555
0.00119283
-0.0010542
0.00204337
-0.0038366
0.00293046
-0.007826
0.00366321
-0.0113971
0.00423459
-0.0136371
0.00470399
-0.014773
0.0051268
-0.015205
0.00554238
-0.0152808
0.00597161
-0.0152175
0.00642478
-0.0151344
0.00690717
-0.0150932
0.00741736
-0.0151141
0.00795678
-0.0152085
0.00852266
-0.0153706
0.00911691
-0.0155937
-0.0158826
0.00973315
-4.94843e-05
0.00293945
3.29773e-05
0.00209678
0.000250273
0.00171773
0.000672052
-2.42238e-05
0.00133356
-0.00171571
0.00222339
-0.00472644
0.00309715
-0.00869976
0.00379031
-0.0120902
0.00431976
-0.0141665
0.00475395
-0.0152072
0.00514972
-0.0156008
0.00554509
-0.0156762
0.00595888
-0.0156313
0.00640019
-0.0155758
0.00687263
-0.0155656
0.00737411
-0.0156156
0.00790577
-0.0157402
0.00846438
-0.0159292
0.00905118
-0.0161805
-0.0164914
0.00966008
-4.32232e-05
0.00298267
5.54872e-05
0.00199807
0.000301301
0.00147192
0.000763458
-0.000486381
0.00147666
-0.00242891
0.00239241
-0.00564219
0.00324061
-0.00954796
0.00389119
-0.0127408
0.00438105
-0.0146564
0.00478431
-0.0156104
0.00515739
-0.0159738
0.00553616
-0.016055
0.0059373
-0.0160325
0.00636874
-0.0160072
0.00683245
-0.0160293
0.00732612
-0.0161092
0.00785051
-0.0162645
0.00840197
-0.0164807
0.00898136
-0.0167599
-0.017093
0.00958293
-3.75305e-05
0.0030202
7.72653e-05
0.00188327
0.000353339
0.00119585
0.000859947
-0.000992989
0.00162132
-0.00319028
0.00254775
-0.00656862
0.00336072
-0.0103609
0.00396782
-0.0133479
0.0044213
-0.0151099
0.00479793
-0.015987
0.00515224
-0.0163282
0.00551753
-0.0164203
0.0059083
-0.0164232
0.00633141
-0.0164303
0.00678732
-0.0164852
0.00727383
-0.0165957
0.00779123
-0.0167819
0.00833555
-0.017025
0.00890754
-0.0173319
-0.0176873
0.0095018
-3.23751e-05
0.00305257
9.86513e-05
0.00175225
0.000407534
0.000886963
0.000962217
-0.00154767
0.00176526
-0.00399332
0.0026869
-0.00749026
0.00345798
-0.011132
0.00402246
-0.0139124
0.00444329
-0.0155307
0.00479739
-0.0163411
0.0051364
-0.0166672
0.00549078
-0.0167746
0.00587303
-0.0168055
0.00628894
-0.0168462
0.00673772
-0.016934
0.00721755
-0.0170756
0.00772808
-0.0172925
0.00826521
-0.0175621
0.00882981
-0.0178965
-0.0182742
0.00941675
-2.76947e-05
0.00308027
0.000120102
0.00160445
0.000465047
0.000542018
0.00106985
-0.00215247
0.00190517
-0.00482864
0.00280799
-0.00839309
0.0035335
-0.0118575
0.00405756
-0.0144364
0.00444964
-0.0159228
0.00478496
-0.0166765
0.00511162
-0.0169938
0.00545721
-0.0171202
0.00583234
-0.0171806
0.00624189
-0.0172558
0.00668404
-0.0173761
0.00715748
-0.017549
0.00766114
-0.0177961
0.00819105
-0.018092
0.00874826
-0.0184537
-0.0188538
0.00932786
-2.33913e-05
0.00310366
0.000142213
0.00143885
0.000526856
0.000157375
0.00118138
-0.00280699
0.0020374
-0.00568466
0.0029101
-0.00926579
0.0035889
-0.0125363
0.00407557
-0.0149231
0.00444273
-0.0162899
0.0047626
-0.0169963
0.00507937
-0.0173106
0.00541782
-0.0174587
0.00578693
-0.0175497
0.0061907
-0.0176595
0.00662653
-0.017812
0.00709377
-0.0180162
0.00759051
-0.0182929
0.00811315
-0.0186147
0.00866295
-0.0190035
-0.0194261
0.00923517
-1.93251e-05
0.00312299
0.000165709
0.00125381
0.000593561
-0.000270477
0.00129456
-0.00350799
0.00215867
-0.00654877
0.00299322
-0.0101003
0.0036261
-0.0131692
0.00407886
-0.0153759
0.00442469
-0.0166358
0.00473196
-0.0173036
0.00504084
-0.0176195
0.00537343
-0.0177913
0.00573731
-0.0179136
0.00613567
-0.0180579
0.0065654
-0.0182417
0.00702653
-0.0184774
0.00751625
-0.0187826
0.00803161
-0.01913
0.00857395
-0.0195459
-0.0199908
0.00913872
-1.53071e-05
0.00313829
0.000191403
0.0010471
0.000665245
-0.000744319
0.00140669
-0.00424943
0.00226657
-0.00740866
0.00305812
-0.0108919
0.00364713
-0.0137582
0.00406961
-0.0157984
0.00439737
-0.0169635
0.00469444
-0.0176007
0.00499699
-0.017922
0.00532469
-0.018119
0.00568388
-0.0182728
0.00607705
-0.0184511
0.00650082
-0.0186655
0.00695586
-0.0189324
0.00743843
-0.0192652
0.00794651
-0.0196381
0.00848134
-0.0200807
-0.020548
0.00903854
-1.10894e-05
0.00314938
0.000220114
0.000815899
0.000741433
-0.00126564
0.00151497
-0.00502297
0.00235973
-0.00825342
0.00310604
-0.0116382
0.00365407
-0.0143062
0.00404979
-0.0161941
0.00436233
-0.0172761
0.00465116
-0.0178895
0.0049486
-0.0182195
0.0052721
-0.0184425
0.00562694
-0.0186276
0.00601503
-0.0188392
0.00643292
-0.0190833
0.00688185
-0.0193813
0.00735715
-0.0197405
0.00785796
-0.0201389
0.00838516
-0.0206079
-0.0210975
0.00893466
-6.33833e-06
0.00315572
0.000252556
0.000557005
0.000821145
-0.00183423
0.00161682
-0.00581864
0.0024377
-0.0090743
0.00313857
-0.0123391
0.00364886
-0.0148165
0.00402112
-0.0165663
0.0043209
-0.0175758
0.00460306
-0.0181717
0.00489628
-0.0185127
0.00521605
-0.0187622
0.00556675
-0.0189783
0.00594976
-0.0192222
0.00636184
-0.0194954
0.00680458
-0.0198241
0.00727245
-0.0202084
0.00776604
-0.0206325
0.00828546
-0.0211273
-0.0216391
0.00882706
-2.69786e-07
0.00315599
0.000289222
0.000267513
0.000902999
-0.002448
0.00171018
-0.00662583
0.00250082
-0.00986493
0.00315736
-0.0129956
0.00363328
-0.0152925
0.00398509
-0.0169181
0.00427416
-0.0178649
0.00455088
-0.0184484
0.00484052
-0.0188023
0.00515685
-0.0190786
0.00550349
-0.019325
0.00588139
-0.0196001
0.00628769
-0.0199017
0.00672409
-0.0202605
0.00718443
-0.0206687
0.00767085
-0.0211189
0.00818226
-0.0216387
-0.0221726
0.00871573
5.7586e-06
0.00315023
0.000330297
-5.70254e-05
0.000985325
-0.00310303
0.0017936
-0.0074341
0.00254985
-0.0106212
0.00316408
-0.0136098
0.00360893
-0.0157373
0.00394295
-0.0172522
0.00422302
-0.018145
0.00449523
-0.0187206
0.0047817
-0.0190888
0.00509474
-0.0193916
0.00543731
-0.0196675
0.00581004
-0.0199728
0.00621057
-0.0203023
0.00664045
-0.0206904
0.00709318
-0.0211214
0.00757247
-0.0215982
0.00807555
-0.0221418
-0.0226977
0.0086006
1.37626e-05
0.00313647
0.000375643
-0.000418906
0.0010663
-0.00379369
0.00186628
-0.00823408
0.00258587
-0.0113408
0.0031603
-0.0141843
0.0035772
-0.0161542
0.00389575
-0.0175707
0.00416821
-0.0184174
0.00443658
-0.018989
0.00472014
-0.0193723
0.00502992
-0.0197014
0.00536834
-0.0200059
0.00573582
-0.0203403
0.00613055
-0.020697
0.0065537
-0.0211135
0.00699879
-0.0215665
0.00747094
-0.0220704
0.0079653
-0.0226362
-0.023214
0.00848165
2.3792e-05
0.00311268
0.000424833
-0.000819947
0.00114411
-0.00451297
0.00192801
-0.00901798
0.00261008
-0.0120228
0.00314744
-0.0147216
0.00353929
-0.0165461
0.00384438
-0.0178758
0.00411031
-0.0186834
0.00437531
-0.019254
0.00465608
-0.0196531
0.00496256
-0.0200079
0.00529671
-0.0203401
0.00565883
-0.0207024
0.0060477
-0.0210859
0.00646389
-0.0215297
0.00690137
-0.022004
0.00736629
-0.0225353
0.00785142
-0.0231213
-0.0237215
0.0083589
3.6045e-05
0.00307663
0.000477225
-0.00126113
0.0012171
-0.00525284
0.00197899
-0.00977987
0.00262371
-0.0126676
0.0031268
-0.0152247
0.00349622
-0.0169155
0.00378955
-0.0181691
0.00404981
-0.0189436
0.00431172
-0.0195159
0.0045897
-0.0199311
0.00489278
-0.0203109
0.0052225
-0.0206698
0.00557918
-0.0210591
0.00596208
-0.0214688
0.00637108
-0.0219387
0.00680103
-0.022434
0.0072585
-0.0229927
0.00773381
-0.0235966
-0.0242202
0.00823255
5.06112e-05
0.00302602
0.000532029
-0.00174254
0.00128396
-0.00600478
0.00201968
-0.0105156
0.00262793
-0.0132758
0.00309951
-0.0156963
0.00344886
-0.0172648
0.00373185
-0.0184521
0.00398708
-0.0191989
0.00424606
-0.0197749
0.00452118
-0.0202062
0.00482069
-0.0206105
0.00514582
-0.0209949
0.00549695
-0.0214102
0.00587372
-0.0218455
0.00627535
-0.0223403
0.00669788
-0.0228565
0.00714757
-0.0234424
0.00761244
-0.0240615
-0.0247106
0.00810283
6.7393e-05
0.00295863
0.000588341
-0.00226349
0.0013438
-0.00676024
0.00205075
-0.0112225
0.00262387
-0.0138489
0.00306656
-0.016139
0.00339794
-0.0175962
0.00367177
-0.0187259
0.00392241
-0.0194495
0.00417852
-0.020031
0.00445063
-0.0204783
0.0047464
-0.0209062
0.00506674
-0.0213153
0.00541222
-0.0217557
0.00578268
-0.022216
0.00617678
-0.0227344
0.00659201
-0.0232717
0.00703346
-0.0238839
0.00748757
-0.0245156
-0.0251924
0.00796934
8.60892e-05
0.00287254
0.000645152
-0.00282256
0.00139615
-0.00751124
0.00207294
-0.0118993
0.00261254
-0.0143885
0.00302881
-0.0165553
0.00334405
-0.0179114
0.00360968
-0.0189916
0.00385606
-0.0196959
0.00410924
-0.0202842
0.00437817
-0.0207472
0.00466999
-0.021198
0.00498536
-0.0216307
0.00532504
-0.0220954
0.005689
-0.0225799
0.00607547
-0.0231209
0.00648345
-0.0236797
0.0069161
-0.0243165
0.00735972
-0.0249592
-0.0256638
0.00783116
0.00010623
0.00276631
0.000701363
-0.00341769
0.0014409
-0.00825078
0.00208702
-0.0125454
0.00259487
-0.0148964
0.00298699
-0.0169474
0.00328771
-0.0182122
0.0035459
-0.0192498
0.0037882
-0.0199382
0.00403835
-0.0205343
0.00430389
-0.0210128
0.00459153
-0.0214857
0.00490174
-0.0219409
0.00523548
-0.0224291
0.00559272
-0.0229372
0.00597152
-0.0234997
0.0063722
-0.0240804
0.00679542
-0.0247397
0.00722953
-0.0253933
-0.0261279
0.00769363
0.000127254
0.00263905
0.000755822
-0.00404626
0.00147818
-0.00897314
0.00209373
-0.013161
0.00257163
-0.0153743
0.00294167
-0.0173174
0.00322923
-0.0184997
0.00348057
-0.0195011
0.00371888
-0.0201765
0.00396582
-0.0207813
0.00422772
-0.0212747
0.00451095
-0.0217689
0.00481578
-0.0222457
0.00514342
-0.0227567
0.00549371
-0.0232875
0.00586481
-0.0238708
0.00625794
-0.0244735
0.00667132
-0.0251531
0.00709696
-0.0258189
-0.0265959
0.00756495
0.000148616
0.00249044
0.000807439
-0.00470508
0.00150834
-0.00967403
0.00209386
-0.0137465
0.00254365
-0.0158241
0.00289351
-0.0176673
0.00316913
-0.0187753
0.00341409
-0.019746
0.00364843
-0.0204108
0.00389199
-0.0210248
0.00415002
-0.0215327
0.00442861
-0.0220475
0.0047279
-0.022545
0.00504927
-0.0230781
0.00539243
-0.0236306
0.00575582
-0.0242342
0.00614105
-0.0248587
0.00654488
-0.025557
0.00696809
-0.0262422
-0.0270457
0.00741791
0.000169892
0.00232055
0.000855246
-0.00539043
0.00153177
-0.0103506
0.00208806
-0.0143028
0.00251154
-0.0162476
0.0028429
-0.0179987
0.00310759
-0.01904
0.00334652
-0.019985
0.00357684
-0.0206412
0.0038168
-0.0212648
0.0040707
-0.0217866
0.00434443
-0.0223212
0.00463797
-0.0228385
0.0049529
-0.0233931
0.00528876
-0.0239665
0.00564436
-0.0245898
0.00602137
-0.0252357
0.00641658
-0.0259522
0.00683278
-0.0266584
-0.0274827
0.00726973
0.000190852
0.0021297
0.000898513
-0.0060981
0.00154895
-0.011001
0.00207696
-0.0148308
0.00247584
-0.0166464
0.00279023
-0.0183131
0.00304484
-0.0192946
0.00327797
-0.0202181
0.00350418
-0.0208674
0.00374031
-0.0215009
0.00398984
-0.0220361
0.00425847
-0.0225899
0.00454607
-0.0231261
0.00485438
-0.0237014
0.00518277
-0.0242949
0.00553048
-0.0249375
0.00589912
-0.0256044
0.00628539
-0.0263384
0.00669351
-0.0270665
-0.027912
0.00712277
0.000211498
0.0019182
0.000936792
-0.00682339
0.00156036
-0.0116246
0.00206114
-0.0153316
0.00243706
-0.0170224
0.00273581
-0.0186118
0.00298106
-0.0195399
0.00320855
-0.0204456
0.00343052
-0.0210893
0.00366258
-0.021733
0.00390747
-0.022281
0.00417078
-0.0228532
0.00445226
-0.0234076
0.00475376
-0.0240029
0.00507454
-0.0246157
0.00541425
-0.0252772
0.00577427
-0.0259644
0.00615173
-0.0267159
0.00655091
-0.0274657
-0.0283296
0.00696857
0.000232048
0.00168615
0.000969914
-0.00756126
0.00156651
-0.0122212
0.00204112
-0.0158062
0.00239561
-0.0173768
0.00267992
-0.0188961
0.00291639
-0.0197764
0.00313834
-0.0206675
0.00335591
-0.0213069
0.00358364
-0.0219607
0.00382366
-0.022521
0.00408142
-0.023111
0.00435658
-0.0236828
0.00465109
-0.0242974
0.00496412
-0.0249287
0.0052957
-0.0256088
0.00564698
-0.0263157
0.00601531
-0.0270842
0.00640476
-0.0278551
-0.0287376
0.00681274
0.000252879
0.00143327
0.000997942
-0.00830632
0.00156789
-0.0127911
0.00201738
-0.0162557
0.00235187
-0.0177113
0.00262277
-0.019167
0.00285096
-0.0200046
0.00306738
-0.020884
0.00328038
-0.0215199
0.00350354
-0.0221839
0.00373845
-0.022756
0.00399045
-0.023363
0.0042591
-0.0239514
0.00454645
-0.0245847
0.00485159
-0.0252338
0.0051749
-0.0259321
0.00551723
-0.026658
0.00587627
-0.0274433
0.00625599
-0.0282348
-0.0291342
0.00665261
0.000274453
0.00115882
0.0010211
-0.00905297
0.00156495
-0.013335
0.00199035
-0.0166811
0.00230616
-0.0180272
0.00256456
-0.0194254
0.00278484
-0.0202248
0.00299574
-0.0210949
0.00320399
-0.0217281
0.00342232
-0.0224022
0.00365188
-0.0229855
0.00389791
-0.023609
0.00415987
-0.0242134
0.00443988
-0.0248647
0.00473701
-0.0255309
0.0050519
-0.026247
0.00538513
-0.0269912
0.00573468
-0.0277928
0.00610413
-0.0286043
-0.0295202
0.00649013
0.000297225
0.000861591
0.00103971
-0.00979545
0.00155813
-0.0138534
0.0019604
-0.0170833
0.00225876
-0.0183255
0.00250544
-0.0196721
0.00271813
-0.0204375
0.00292345
-0.0213002
0.00312675
-0.0219315
0.00334002
-0.0226155
0.00356401
-0.0232095
0.00380386
-0.0238488
0.00405896
-0.0244685
0.00433147
-0.0251372
0.00462044
-0.0258199
0.00492677
-0.0265534
0.00525071
-0.0273152
0.00559056
-0.0281327
0.0059498
-0.0289635
-0.029895
0.00632458
0.000321563
0.000540028
0.00105412
-0.010528
0.00154781
-0.0143471
0.00192789
-0.0174634
0.0022099
-0.0186075
0.00244554
-0.0199077
0.00265087
-0.0206429
0.00285054
-0.0214999
0.0030487
-0.0221296
0.00325668
-0.0228234
0.00347488
-0.0234277
0.00370835
-0.0240823
0.0039564
-0.0247165
0.00422125
-0.0254021
0.00450194
-0.0261006
0.00479955
-0.026851
0.00511405
-0.0276297
0.00544406
-0.0284627
0.00579278
-0.0293122
-0.0302588
0.00615655
0.000347671
0.000192357
0.00106468
-0.011245
0.00153435
-0.0148167
0.0018931
-0.0178222
0.00215978
-0.0188742
0.00238497
-0.0201329
0.00258312
-0.020841
0.00277704
-0.0216938
0.00296987
-0.0223224
0.00317233
-0.0230259
0.00338452
-0.0236399
0.00361142
-0.0243092
0.00385226
-0.0249574
0.0041093
-0.0256591
0.00438158
-0.0263729
0.0046703
-0.0271397
0.0049752
-0.0279346
0.00529522
-0.0287827
0.0056334
-0.0296504
-0.0306113
0.00598596
0.000375531
-0.000183174
0.0010717
-0.0119412
0.00151803
-0.0152631
0.00185632
-0.0181605
0.00210859
-0.0191265
0.00232382
-0.0203481
0.00251492
-0.0210321
0.00270298
-0.0218818
0.00289028
-0.0225097
0.003087
-0.0232226
0.00329299
-0.0238459
0.00351313
-0.0245293
0.0037466
-0.0251908
0.00399568
-0.0259082
0.00425941
-0.0266366
0.00453909
-0.0274194
0.00483424
-0.0282297
0.00514417
-0.0290926
0.00547162
-0.0299779
-0.0309527
0.00581295
0.000404865
-0.000588039
0.00107545
-0.0126118
0.00149914
-0.0156868
0.00181778
-0.0184791
0.00205648
-0.0193652
0.00226215
-0.0205538
0.00244629
-0.0212162
0.00262837
-0.0220639
0.00280996
-0.0226913
0.00300073
-0.0234134
0.00320033
-0.0240455
0.00341353
-0.0247425
0.00363947
-0.0254168
0.00388043
-0.0261492
0.00413549
-0.0268917
0.00440597
-0.0276898
0.00469125
-0.028515
0.00499096
-0.0293923
0.00530762
-0.0302945
-0.0312826
0.0056376
0.00043513
-0.00102317
0.00107613
-0.0132528
0.00147789
-0.0160885
0.00177769
-0.0187789
0.00200356
-0.019591
0.00220004
-0.0207503
0.00237727
-0.0213935
0.00255324
-0.0222399
0.00272893
-0.022867
0.00291355
-0.023598
0.00310657
-0.0242385
0.00331266
-0.0249486
0.00353091
-0.025635
0.00376363
-0.0263819
0.00400987
-0.0271379
0.00427102
-0.027951
0.0045463
-0.0287903
0.0048357
-0.0296817
0.00514142
-0.0306003
-0.0316012
0.00545997
0.000465539
-0.00148871
0.00107393
-0.0138612
0.00145447
-0.0164691
0.00173623
-0.0190607
0.00194996
-0.0198048
0.00213752
-0.0209378
0.00230788
-0.0215638
0.00247761
-0.0224096
0.00264723
-0.0230366
0.0028255
-0.0237763
0.00301176
-0.0244248
0.00321057
-0.0251474
0.003421
-0.0258455
0.00364533
-0.0266062
0.00388263
-0.0273752
0.00413429
-0.0282027
0.00439947
-0.0290555
0.00467846
-0.0299607
0.00497314
-0.0308949
-0.0319082
0.00528016
0.00049513
-0.00198384
0.00106898
-0.014435
0.00142908
-0.0168292
0.00169356
-0.0193252
0.00189576
-0.020007
0.00207465
-0.0211167
0.00223814
-0.0217273
0.00240149
-0.022573
0.00256487
-0.0232
0.0027366
-0.023948
0.00291594
-0.0246041
0.00310732
-0.0253388
0.00330977
-0.0260479
0.00352557
-0.026822
0.00375381
-0.0276034
0.00399586
-0.0284447
0.00425084
-0.0293104
0.00451932
-0.0302292
0.00480283
-0.0311784
-0.0322036
0.0050982
0.00052286
-0.0025067
0.00106141
-0.0149736
0.00140186
-0.0171696
0.00164984
-0.0195731
0.00184104
-0.0201982
0.00201145
-0.0212871
0.00216806
-0.021884
0.0023249
-0.0227298
0.00248187
-0.023357
0.0026469
-0.024113
0.00281916
-0.0247764
0.00300294
-0.0255226
0.00319728
-0.0262422
0.00340443
-0.0270292
0.00362348
-0.0278225
0.0038558
-0.028677
0.00410049
-0.0295551
0.00435836
-0.0304871
0.00463058
-0.0314507
-0.0324872
0.0049142
0.000547726
-0.00305442
0.00105133
-0.0154772
0.00137295
-0.0174912
0.00160518
-0.0198054
0.00178588
-0.0203789
0.00194796
-0.0214492
0.00209767
-0.0220337
0.00224785
-0.02288
0.00239828
-0.0235074
0.00255643
-0.0242712
0.00272144
-0.0249414
0.00289749
-0.0256986
0.00308358
-0.0264283
0.00328196
-0.0272276
0.00349169
-0.0280322
0.00371417
-0.0288995
0.00394849
-0.0297895
0.00419564
-0.0307342
0.00445645
-0.0317115
-0.032759
0.00472821
0.000568889
-0.00362331
0.00103887
-0.0159471
0.00134251
-0.0177949
0.00155971
-0.0200226
0.00173033
-0.0205495
0.00188421
-0.0216031
0.00202697
-0.0221764
0.00217038
-0.0230234
0.0023141
-0.0236511
0.00246521
-0.0244223
0.00262284
-0.025099
0.00279101
-0.0258668
0.00296873
-0.0266061
0.00315821
-0.027417
0.00335852
-0.0282325
0.00357104
-0.029112
0.0037949
-0.0300133
0.00403124
-0.0309706
0.00428052
-0.0319608
-0.0330188
0.00454033
0.000585767
-0.00420908
0.00102417
-0.0163855
0.00131066
-0.0180814
0.00151352
-0.0202254
0.00167445
-0.0207104
0.00182021
-0.0217489
0.00195599
-0.0223122
0.00209249
-0.0231599
0.00222937
-0.023788
0.00237329
-0.0245662
0.0025234
-0.0252491
0.00268355
-0.0260269
0.00285278
-0.0267753
0.00303324
-0.0275975
0.00322402
-0.0284233
0.00342649
-0.0293145
0.00363981
-0.0302266
0.00386521
-0.031196
0.00410285
-0.0321984
-0.0332666
0.00435062
0.000598084
-0.00480716
0.00100738
-0.0167948
0.00127753
-0.0183515
0.00146671
-0.0204146
0.00161829
-0.020862
0.001756
-0.0218866
0.00188474
-0.0224409
0.00201421
-0.0232894
0.00214411
-0.0239179
0.0022807
-0.0247028
0.00242315
-0.0253916
0.00257515
-0.0261789
0.00273578
-0.0269359
0.00290711
-0.0277688
0.00308825
-0.0286045
0.00328057
-0.0295068
0.00348327
-0.0304293
0.00369762
-0.0314103
0.00392352
-0.0324243
-0.0335022
0.00415918
0.00060587
-0.00541303
0.00098868
-0.0171777
0.00124326
-0.0186061
0.00141936
-0.0205907
0.00156187
-0.0210045
0.00169158
-0.0220163
0.00181323
-0.0225626
0.00193555
-0.0234117
0.00205834
-0.0240407
0.00218746
-0.0248319
0.00232213
-0.0255263
0.00246587
-0.0263227
0.00261778
-0.0270878
0.00277987
-0.0279309
0.00295128
-0.0287759
0.00313336
-0.0296889
0.00332536
-0.0306213
0.00352855
-0.0316135
0.0037426
-0.0326383
-0.0337257
0.00396605
0.00060941
-0.00602244
0.000968248
-0.0175365
0.00120796
-0.0188458
0.00137155
-0.0207543
0.00150523
-0.0211382
0.00162698
-0.022138
0.00174148
-0.0226771
0.00185654
-0.0235267
0.00197211
-0.0241563
0.00209362
-0.0249535
0.00222039
-0.025653
0.00235574
-0.026458
0.00249883
-0.0272309
0.00265158
-0.0280836
0.00281317
-0.0289375
0.00298492
-0.0298606
0.00316613
-0.0308025
0.00335806
-0.0318054
0.00356017
-0.0328405
-0.0339368
0.00377134
0.000609159
-0.0066316
0.000946268
-0.0178736
0.00117176
-0.0190713
0.00132334
-0.0209059
0.00144842
-0.0212633
0.00156221
-0.0222518
0.0016695
-0.0227844
0.00177719
-0.0236344
0.00188543
-0.0242645
0.00199922
-0.0250672
0.00211797
-0.0257718
0.00224482
-0.0265849
0.00237898
-0.0273651
0.00252229
-0.028227
0.00267398
-0.0290892
0.00283532
-0.030022
0.00300566
-0.0309729
0.0031862
-0.031986
0.00337631
-0.0330306
-0.0341356
0.0035751
0.000605658
-0.00723726
0.000922914
-0.0181909
0.00113475
-0.0192831
0.00127479
-0.0210459
0.00139145
-0.0213799
0.00149729
-0.0223577
0.00159732
-0.0228844
0.00169753
-0.0237346
0.00179833
-0.0243653
0.00190427
-0.0251732
0.00201491
-0.0258824
0.00213316
-0.0267031
0.00225829
-0.0274902
0.00239208
-0.0283607
0.00253377
-0.0292309
0.00268462
-0.0301728
0.002844
-0.0311322
0.00301307
-0.032155
0.00319107
-0.0332086
-0.034322
0.00337742
0.000599455
-0.00783671
0.000898351
-0.0184898