/*--------------------------------*- C++ -*----------------------------------*\
  =========                 |
  \\      /  F ield         | OpenFOAM: The Open Source CFD Toolbox
   \\    /   O peration     | Website:  https://openfoam.org
    \\  /    A nd           | Version:  7
     \\/     M anipulation  |
\*---------------------------------------------------------------------------*/
FoamFile
{
    version     2.0;
    format      ascii;
    class       volVectorField;
    location    "10";
    object      U;
}
// * * * * * * * * * * * * * * * * * * * * * * * * * * * * * * * * * * * * * //

dimensions      [0 1 -1 0 0 0 0];

internalField   nonuniform List<vector> 
34000
(
(-0.104326 0.00469156 5.49245e-20)
(-0.200621 0.00433813 7.8497e-20)
(-0.312518 0.0051228 -2.8037e-20)
(-0.405124 0.00516236 1.46037e-20)
(-0.49283 0.00553285 -7.56705e-20)
(-0.575979 0.00410024 -2.28499e-20)
(-0.606988 -0.000174693 -1.01072e-20)
(-0.56408 -0.0065068 -1.07371e-19)
(-0.452722 -0.0117735 6.91928e-20)
(-0.310914 -0.0147298 6.99423e-21)
(-0.158481 -0.015674 -9.07884e-21)
(-0.0140095 -0.0151958 2.10993e-21)
(0.114701 -0.0141838 6.03859e-22)
(0.229291 -0.0127458 -6.34361e-22)
(0.323012 -0.0113158 2.88589e-21)
(0.408429 -0.0101263 -4.04188e-21)
(0.474916 -0.0087869 2.39005e-21)
(0.538244 -0.00811427 -5.67677e-21)
(0.587535 -0.00696239 -4.88106e-21)
(0.634942 -0.00671901 -2.47423e-21)
(-0.104348 0.0140539 5.26817e-21)
(-0.19967 0.0129935 -1.30767e-19)
(-0.310295 0.0153408 -2.17464e-20)
(-0.400926 0.0154488 -4.92856e-20)
(-0.486059 0.0165526 1.90025e-19)
(-0.565999 0.0122467 2.31109e-20)
(-0.592979 -0.000571958 -6.73491e-20)
(-0.545465 -0.0195111 1.58933e-19)
(-0.430094 -0.0352053 -7.03799e-20)
(-0.285177 -0.0439423 5.00536e-20)
(-0.130873 -0.046656 2.63935e-20)
(0.0147337 -0.0451713 2.17832e-21)
(0.143918 -0.0420408 -1.05254e-21)
(0.2586 -0.037684 3.0094e-21)
(0.351978 -0.0334087 -7.45336e-21)
(0.437552 -0.029761 -2.16903e-21)
(0.502696 -0.0258325 -6.02813e-21)
(0.567003 -0.0236981 1.81065e-20)
(0.613807 -0.020359 2.09893e-21)
(0.663071 -0.0195006 3.44859e-21)
(-0.104391 0.0233351 -1.20081e-19)
(-0.19778 0.0215598 1.60242e-19)
(-0.305881 0.0254412 2.77818e-19)
(-0.3926 0.0255827 -3.10357e-19)
(-0.472653 0.027407 -1.13894e-19)
(-0.54631 0.0202318 1.31997e-19)
(-0.565487 -0.00107852 3.87402e-20)
(-0.509237 -0.0324315 -3.35143e-22)
(-0.386553 -0.0582433 1.01122e-19)
(-0.236231 -0.0723982 -1.03889e-20)
(-0.0789526 -0.0765622 -2.7002e-20)
(0.0681979 -0.0739392 -1.33827e-20)
(0.197736 -0.0684666 -7.30137e-22)
(0.311971 -0.0610988 -6.29715e-21)
(0.404424 -0.0540118 -4.62062e-21)
(0.489423 -0.0477448 2.23455e-20)
(0.552248 -0.0414375 2.7765e-21)
(0.617079 -0.0375898 -3.27915e-21)
(0.659858 -0.0323447 3.95475e-21)
(0.711007 -0.0305819 3.29347e-21)
(-0.104459 0.0324822 -2.03865e-19)
(-0.194978 0.0299784 -1.99882e-19)
(-0.299339 0.0353466 2.62017e-21)
(-0.38028 0.0354646 1.05094e-19)
(-0.452877 0.0379912 3.15494e-19)
(-0.517421 0.0279623 -3.66939e-19)
(-0.525479 -0.0017372 2.29308e-19)
(-0.457178 -0.0451638 1.01498e-19)
(-0.325042 -0.0805966 -1.15684e-19)
(-0.168311 -0.0996414 -2.74346e-20)
(-0.0081342 -0.104831 1.22772e-20)
(0.139845 -0.100818 1.62378e-20)
(0.26876 -0.0927835 1.27996e-21)
(0.381151 -0.082342 1.56711e-20)
(0.471678 -0.0724737 1.54761e-21)
(0.554303 -0.0634971 -8.17893e-21)
(0.614183 -0.0550273 2.6114e-22)
(0.677428 -0.0492759 -6.41925e-21)
(0.715777 -0.0424361 1.23693e-20)
(0.766709 -0.03951 -3.12958e-21)
(-0.104558 0.0414437 3.8496e-20)
(-0.191302 0.0381916 4.28863e-19)
(-0.290761 0.044981 -4.43456e-19)
(-0.364164 0.0449968 3.00694e-19)
(-0.427107 0.0482066 -3.62011e-19)
(-0.480037 0.035361 5.50356e-19)
(-0.474224 -0.00255723 -2.33963e-19)
(-0.391493 -0.0575552 -2.33722e-19)
(-0.249018 -0.101952 -5.7517e-20)
(-0.0862082 -0.125246 4.81041e-20)
(0.0757042 -0.130997 7.55808e-21)
(0.222783 -0.125307 -6.06972e-21)
(0.349258 -0.114563 1.27356e-21)
(0.457805 -0.101085 -1.95533e-20)
(0.544945 -0.0884738 1.6477e-22)
(0.622903 -0.0768665 -3.53306e-20)
(0.679213 -0.0664034 -1.41537e-20)
(0.738102 -0.0587399 -1.30157e-21)
(0.772201 -0.0505638 -4.27119e-21)
(0.819878 -0.0463702 1.59657e-21)
(-0.104692 0.05017 2.85096e-19)
(-0.186803 0.0461431 -2.27626e-20)
(-0.280268 0.0542704 -1.91592e-20)
(-0.344504 0.0540847 -4.12305e-19)
(-0.395815 0.0579613 -6.35333e-20)
(-0.435003 0.0423661 -6.31113e-19)
(-0.413142 -0.0035183 1.9834e-20)
(-0.314499 -0.0694207 4.37267e-19)
(-0.161855 -0.122018 2.90994e-19)
(0.00563796 -0.14874 -1.6219e-19)
(0.167328 -0.154648 -1.90157e-20)
(0.311162 -0.147083 1.8966e-20)
(0.432906 -0.133563 6.55529e-21)
(0.53546 -0.117203 2.60426e-21)
(0.617431 -0.101945 -1.80707e-20)
(0.688697 -0.0879421 1.53003e-20)
(0.740561 -0.0756409 -1.63904e-21)
(0.792852 -0.0662291 7.14064e-21)
(0.822868 -0.0569203 -2.6774e-20)
(0.864774 -0.051514 9.83629e-21)
(-0.104868 0.0586143 -2.54326e-19)
(-0.18154 0.0537783 -5.6661e-19)
(-0.268002 0.0631433 9.33981e-19)
(-0.321601 0.0626366 6.25068e-19)
(-0.359549 0.0671687 1.34801e-19)
(-0.383254 0.0489251 4.85963e-19)
(-0.343705 -0.00458248 3.65431e-19)
(-0.228435 -0.0805785 -3.88135e-19)
(-0.0665307 -0.140507 -5.33866e-20)
(0.103535 -0.169657 3.97594e-20)
(0.262592 -0.175451 2.00128e-20)
(0.400662 -0.165906 -1.95027e-20)
(0.515301 -0.149664 -1.15172e-21)
(0.60993 -0.130673 9.28203e-21)
(0.684948 -0.112965 2.7628e-20)
(0.748165 -0.096892 7.47969e-21)
(0.794565 -0.0829475 4.23445e-21)
(0.839097 -0.0720497 3.66796e-21)
(0.865001 -0.0617899 7.59179e-21)
(0.899864 -0.0553265 -3.64991e-21)
(-0.105095 0.0667329 -2.05252e-19)
(-0.175583 0.0610448 -3.95088e-19)
(-0.254127 0.0715313 -1.37237e-18)
(-0.295796 0.0705638 4.7219e-19)
(-0.318918 0.0757457 6.61139e-19)
(-0.325789 0.0549877 -4.1409e-19)
(-0.267376 -0.00571104 1.12879e-19)
(-0.135392 -0.0908815 -5.8418e-20)
(0.0343702 -0.156879 -1.89667e-20)
(0.20467 -0.187863 -2.50168e-19)
(0.358366 -0.193156 -1.10419e-19)
(0.488261 -0.181617 8.90379e-21)
(0.593665 -0.162837 2.96921e-21)
(0.67883 -0.141538 -9.93095e-21)
(0.745441 -0.121684 -1.74303e-20)
(0.799921 -0.103901 -6.16054e-21)
(0.840018 -0.0885674 1.03475e-20)
(0.87661 -0.0764799 -3.3251e-20)
(0.898324 -0.0654515 8.88365e-21)
(0.926044 -0.0581302 -2.21181e-20)
(-0.105379 0.0744857 5.47883e-19)
(-0.169008 0.0678925 1.46736e-18)
(-0.23882 0.0793699 1.39275e-18)
(-0.267461 0.0777805 -2.69629e-19)
(-0.274581 0.0836095 -1.36216e-18)
(-0.263645 0.0604964 3.63527e-19)
(-0.18559 -0.00687932 -3.92575e-19)
(-0.037299 -0.100172 -7.15679e-19)
(0.13838 -0.170705 4.30362e-19)
(0.306441 -0.203224 3.09291e-19)
(0.45227 -0.20761 2.5947e-20)
(0.571847 -0.194156 -4.19232e-20)
(0.66632 -0.173134 1.29001e-21)
(0.740945 -0.149907 5.5634e-21)
(0.798219 -0.128294 2.21691e-20)
(0.8438 -0.109169 1.32722e-20)
(0.877164 -0.092744 1.06029e-20)
(0.906275 -0.0797606 8.6806e-21)
(0.92385 -0.0681488 4.66505e-21)
(0.945085 -0.0601756 -5.83023e-21)
(-0.105731 0.0818362 -4.76303e-19)
(-0.161898 0.0742742 -4.8596e-19)
(-0.22227 0.0865991 -7.95557e-19)
(-0.236995 0.0842052 1.71758e-19)
(-0.227238 0.0906754 4.69778e-19)
(-0.197886 0.0653845 4.51142e-19)
(-0.0997402 -0.00808816 1.81756e-19)
(0.0639622 -0.108156 9.30392e-20)
(0.243502 -0.182085 -1.05784e-18)
(0.406683 -0.215505 6.15273e-20)
(0.542415 -0.218763 1.01254e-19)
(0.649931 -0.203571 9.32141e-21)
(0.732306 -0.180689 -4.75846e-20)
(0.795795 -0.155957 4.01985e-21)
(0.843359 -0.133013 -2.4849e-21)
(0.880273 -0.112911 -1.418e-20)
(0.906929 -0.0957097 -5.50964e-21)
(0.929365 -0.0821021 1.01889e-20)
(0.943041 -0.0700866 1.1721e-20)
(0.958794 -0.061652 3.11968e-20)
(-0.106159 0.0887526 9.48164e-19)
(-0.154338 0.0801456 -3.54144e-19)
(-0.204674 0.0931645 2.86792e-19)
(-0.204811 0.0897618 -5.96834e-19)
(-0.17762 0.0968569 -6.5411e-19)
(-0.129591 0.0695815 -3.12179e-19)
(-0.011146 -0.00939642 5.55868e-19)
(0.166542 -0.114692 6.02313e-19)
(0.347721 -0.191038 5.25483e-20)
(0.503569 -0.224644 -4.28702e-19)
(0.627314 -0.226683 -7.18851e-20)
(0.721513 -0.210011 -1.1059e-20)
(0.791167 -0.18571 1.86203e-20)
(0.843394 -0.159917 -1.28899e-21)
(0.881361 -0.136081 -3.22566e-21)
(0.910143 -0.115349 1.94069e-20)
(0.930488 -0.0976786 -1.22858e-20)
(0.947193 -0.0836849 -2.10181e-21)
(0.957365 -0.0714311 -1.08562e-20)
(0.968704 -0.0626971 -8.55281e-21)
(-0.106674 0.0952074 -1.8837e-19)
(-0.146417 0.085466 -6.1396e-19)
(-0.186227 0.0990181 1.24127e-19)
(-0.171324 0.0943826 6.0912e-19)
(-0.126484 0.102075 8.22793e-19)
(-0.059828 0.0729873 -3.35681e-19)
(0.0788728 -0.0108123 -1.56576e-18)
(0.268819 -0.119887 -1.38347e-19)
(0.449247 -0.197498 4.47975e-19)
(0.595565 -0.230712 1.79965e-19)
(0.705865 -0.231536 2.02146e-19)
(0.786013 -0.213707 7.93756e-20)
(0.842837 -0.188458 -7.03501e-20)
(0.88409 -0.162047 -9.37409e-21)
(0.912954 -0.137738 -2.33179e-21)
(0.934353 -0.116698 -1.25927e-20)
(0.949035 -0.0988389 1.51116e-20)
(0.960961 -0.0846585 3.43962e-21)
(0.968095 -0.0723119 3.38546e-21)
(0.976005 -0.0634075 2.03322e-22)
(-0.107284 0.101178 -5.92327e-19)
(-0.138224 0.0901977 7.41965e-19)
(-0.167118 0.10412 -1.32191e-19)
(-0.136941 0.0980131 -9.19007e-19)
(-0.0745963 0.106258 1.23244e-18)
(0.0104275 0.0753752 3.29771e-19)
(0.169066 -0.0122673 3.0291e-19)
(0.369314 -0.123783 7.28779e-19)
(0.546556 -0.201516 3.25527e-20)
(0.681464 -0.233871 9.91468e-20)
(0.777337 -0.23357 -7.11236e-20)
(0.843211 -0.214948 -3.30769e-22)
(0.887549 -0.189222 4.1858e-20)
(0.918453 -0.162615 3.88694e-20)
(0.938975 -0.138218 2.9531e-21)
(0.953874 -0.117155 7.20736e-21)
(0.963656 -0.0993489 -8.22326e-21)
(0.97168 -0.0851419 -1.13489e-20)
(0.976255 -0.072827 -4.08027e-21)
(0.981566 -0.0638495 -1.26371e-20)
(-0.107998 0.106646 -3.19547e-19)
(-0.129846 0.0943068 -9.12994e-19)
(-0.147529 0.108439 -3.60591e-20)
(-0.102039 0.100618 6.84457e-19)
(-0.0227023 0.109269 1.42562e-18)
(0.0803471 0.0765771 -1.4477e-19)
(0.258472 -0.0138073 -1.20097e-21)
(0.466748 -0.12641 -4.79722e-19)
(0.638413 -0.203217 3.77486e-19)
(0.760397 -0.234354 2.80106e-19)
(0.841342 -0.233085 -5.94976e-20)
(0.893189 -0.214057 1.90272e-19)
(0.925751 -0.188302 1.12891e-19)
(0.947173 -0.161881 -3.329e-20)
(0.960283 -0.137733 -2.72154e-20)
(0.969615 -0.11689 6.02159e-21)
(0.975274 -0.0993366 6.51627e-21)
(0.980156 -0.0852275 2.62835e-21)
(0.982618 -0.0730491 -1.97715e-21)
(0.985993 -0.0640702 6.76223e-21)
(-0.108826 0.111599 1.92983e-18)
(-0.121368 0.0977631 1.03679e-18)
(-0.127622 0.111952 1.02868e-19)
(-0.0669555 0.102184 -4.56977e-19)
(0.0285498 0.110952 -6.27163e-19)
(0.149302 0.0765713 -4.84225e-19)
(0.346359 -0.0155134 -2.64089e-19)
(0.560083 -0.127811 -2.08667e-19)
(0.723878 -0.20277 -8.93703e-19)
(0.831821 -0.232443 -9.50278e-20)
(0.897799 -0.230417 8.66652e-20)
(0.936267 -0.211366 -3.07184e-19)
(0.958031 -0.185986 1.17008e-20)
(0.97099 -0.160088 1.28711e-20)
(0.977696 -0.136471 -1.63341e-20)
(0.982374 -0.116047 2.2631e-21)
(0.984633 -0.0989025 9.44499e-22)
(0.987003 -0.0849864 1.74452e-21)
(0.987749 -0.0730323 6.06557e-21)
(0.989691 -0.0641015 -1.33854e-21)
(-0.109776 0.116028 -1.90237e-18)
(-0.112866 0.10054 -1.60331e-18)
(-0.107536 0.114644 -4.98591e-19)
(-0.0319635 0.102729 4.09977e-19)
(0.0786168 0.111241 4.92992e-19)
(0.217019 0.0753095 -8.92881e-19)
(0.432219 -0.0173838 3.86578e-20)
(0.6485 -0.128029 3.09008e-19)
(0.80229 -0.200371 4.06103e-19)
(0.895488 -0.228449 1.61935e-19)
(0.94688 -0.22591 2.53482e-19)
(0.972931 -0.207202 5.51424e-20)
(0.98505 -0.182546 -8.98737e-20)
(0.990638 -0.157452 -3.26316e-20)
(0.991954 -0.134591 -1.09342e-20)
(0.992819 -0.114742 -1.28939e-20)
(0.992305 -0.0981245 9.56817e-22)
(0.992679 -0.0844738 3.21102e-22)
(0.99205 -0.0728163 -3.44221e-21)
(0.992921 -0.0639654 -3.39068e-21)
(-0.110856 0.11993 7.57964e-19)
(-0.104413 0.102613 1.45855e-18)
(-0.0873809 0.116505 -3.96373e-19)
(0.00275129 0.102309 5.71008e-19)
(0.127181 0.110098 -2.92955e-19)
(0.283639 0.0728283 1.34936e-18)
(0.515726 -0.0193313 5.22236e-19)
(0.731358 -0.127092 9.02685e-19)
(0.873235 -0.196233 -2.1045e-19)
(0.951404 -0.222696 1.4688e-19)
(0.988954 -0.219907 -6.2347e-20)
(1.00378 -0.201867 2.20166e-19)
(1.00749 -0.178223 -5.0605e-20)
(1.0068 -0.154158 -2.65365e-20)
(1.0037 -0.132224 3.86202e-20)
(1.00148 -0.113068 3.23661e-20)
(0.998722 -0.0970628 -1.31938e-20)
(0.997519 -0.0837326 8.26426e-21)
(0.995795 -0.072429 -1.79634e-21)
(0.995846 -0.0636791 1.81908e-21)
(-0.112072 0.123305 -7.16112e-19)
(-0.0960685 0.103964 -1.43243e-18)
(-0.0672346 0.117546 -4.37274e-19)
(0.0371116 0.101 -4.60332e-19)
(0.174268 0.107528 7.57277e-20)
(0.349695 0.069317 8.77898e-20)
(0.596628 -0.0211949 2.55809e-19)
(0.808146 -0.125027 7.5857e-20)
(0.936521 -0.190585 6.87304e-19)
(0.999792 -0.215506 4.29894e-20)
(1.02454 -0.21273 1.16719e-19)
(1.02946 -0.195638 -1.46926e-19)
(1.02602 -0.173228 8.44056e-20)
(1.02011 -0.150363 2.44429e-20)
(1.01346 -0.129478 -9.20613e-21)
(1.00877 -0.111098 -1.38727e-20)
(1.0042 -0.0957638 1.82596e-20)
(1.00177 -0.082796 1.53328e-20)
(0.999166 -0.0718908 6.76593e-21)
(0.99856 -0.0632529 -3.57671e-21)
(-0.11343 0.12616 -7.94955e-19)
(-0.0878832 0.104577 2.30259e-19)
(-0.0471402 0.117788 9.81778e-20)
(0.0711582 0.0989008 -5.39772e-19)
(0.220339 0.103648 1.24344e-18)
(0.415957 0.0651195 -1.50476e-18)
(0.674615 -0.0227613 -2.05669e-18)
(0.878454 -0.121869 -2.79872e-18)
(0.992152 -0.183663 -6.01581e-19)
(1.04104 -0.207192 -7.61589e-19)
(1.05423 -0.204674 -4.76425e-19)
(1.05064 -0.188753 -1.97984e-19)
(1.04125 -0.167738 1.67834e-19)
(1.0311 -0.146195 -3.73303e-20)
(1.02166 -0.126435 -3.22332e-20)
(1.015 -0.108888 7.71812e-21)
(1.00899 -0.094264 2.85292e-20)
(1.00559 -0.0816901 -5.45182e-21)
(1.00227 -0.0712155 8.16582e-22)
(1.00111 -0.0626947 7.76892e-22)
(-0.114935 0.128503 1.61984e-18)
(-0.0798924 0.104446 1.1787e-18)
(-0.027088 0.117241 8.29028e-19)
(0.105068 0.0961337 -9.71173e-20)
(0.266321 0.0987313 -1.34756e-18)
(0.483151 0.0606877 2.817e-19)
(0.749218 -0.0238028 8.8935e-19)
(0.941971 -0.117681 2.93482e-18)
(1.04031 -0.17571 4.37651e-19)
(1.07568 -0.198044 7.55778e-20)
(1.0787 -0.195999 3.54305e-19)
(1.06796 -0.181414 2.61196e-19)
(1.05374 -0.161899 -2.6983e-19)
(1.04021 -0.141757 9.73524e-20)
(1.02864 -0.123163 -2.51008e-20)
(1.0204 -0.106486 -1.5923e-20)
(1.01326 -0.0925916 -3.71106e-20)
(1.00911 -0.0804358 6.13293e-21)
(1.00518 -0.0704116 -1.41816e-20)
(1.00354 -0.0620175 -1.027e-20)
(-0.116592 0.130346 -2.13854e-19)
(-0.072113 0.103561 6.70176e-19)
(-0.00701428 0.115923 -1.93404e-19)
(0.13918 0.0928331 -4.34022e-19)
(0.313506 0.0932368 1.87617e-19)
(0.551624 0.0564929 7.84452e-19)
(0.819789 -0.0241246 -8.50702e-19)
(0.998504 -0.112558 -1.057e-18)
(1.08133 -0.166968 -6.05574e-19)
(1.10432 -0.188324 -4.25722e-20)
(1.09861 -0.186926 -8.69127e-20)
(1.08202 -0.173789 -2.34605e-19)
(1.06398 -0.155831 4.96251e-20)
(1.04784 -0.137129 -6.82107e-20)
(1.03466 -0.119713 1.02993e-19)
(1.02516 -0.103928 -7.59395e-20)
(1.01714 -0.0907693 -9.44249e-22)
(1.01239 -0.0790497 4.27739e-21)
(1.00793 -0.0694872 2.77758e-20)
(1.00586 -0.0612304 1.26506e-20)
(-0.118401 0.131704 -1.46792e-18)
(-0.0645341 0.101907 -1.39404e-19)
(0.0132032 0.113876 -9.59666e-19)
(0.174017 0.0891444 2.99639e-19)
(0.363294 0.0877743 -7.85136e-19)
(0.621108 0.0529279 1.56531e-18)
(0.885574 -0.0236026 1.77161e-18)
(1.04801 -0.106635 3.01894e-19)
(1.11569 -0.157667 1.34085e-18)
(1.12763 -0.17826 3.11718e-19)
(1.1146 -0.177639 -2.21595e-19)
(1.09336 -0.16601 -1.02584e-19)
(1.07239 -0.149625 1.5647e-19)
(1.05427 -0.132375 4.66696e-20)
(1.03991 -0.116125 6.85411e-20)
(1.0294 -0.101243 2.04779e-19)
(1.02072 -0.0888155 -1.97508e-20)
(1.01549 -0.0775453 -3.47047e-20)
(1.01053 -0.068452 -2.12555e-20)
(1.0081 -0.0603366 -1.10551e-20)
(-0.120366 0.132595 1.03046e-18)
(-0.0571184 0.0994814 1.65016e-19)
(0.0337694 0.111148 2.45016e-18)
(0.210282 0.085245 -3.1379e-20)
(0.416813 0.0830049 -4.38775e-19)
(0.690683 0.0502401 -1.30633e-18)
(0.945846 -0.0222028 1.13102e-18)
(1.09062 -0.100071 -1.63386e-18)
(1.14396 -0.148018 -1.13972e-18)
(1.14627 -0.168043 -4.42888e-19)
(1.12728 -0.168285 2.72228e-19)
(1.10245 -0.158182 -1.5291e-20)
(1.0793 -0.143355 -6.38321e-20)
(1.05975 -0.127544 -1.51169e-19)
(1.04454 -0.112433 1.24975e-19)
(1.03322 -0.0984569 -1.9379e-19)
(1.02406 -0.0867458 1.40195e-20)
(1.0184 -0.0759352 -3.40132e-20)
(1.013 -0.0673152 1.54078e-20)
(1.01024 -0.0593426 1.31413e-21)
(-0.122484 0.133036 2.42068e-19)
(-0.0498019 0.0962991 -1.99923e-19)
(0.0549877 0.107792 -2.27641e-18)
(0.248814 0.081375 8.89899e-19)
(0.474545 0.0794912 2.81134e-18)
(0.758963 0.0485194 -5.56692e-19)
(1.00004 -0.0199746 -3.12641e-20)
(1.12663 -0.0930375 5.22195e-19)
(1.16678 -0.138207 7.71356e-20)
(1.16091 -0.157827 -2.02848e-19)
(1.13721 -0.158977 1.61846e-19)
(1.10971 -0.150384 1.59491e-20)
(1.085 -0.137077 -3.70479e-20)
(1.06445 -0.122671 7.47494e-20)
(1.04866 -0.108662 -2.10446e-19)
(1.03669 -0.0955899 1.07644e-19)
(1.0272 -0.0845731 9.04624e-20)
(1.02115 -0.0742315 4.8035e-20)
(1.01535 -0.066085 -2.00874e-20)
(1.01231 -0.0582568 1.16064e-20)
(-0.124754 0.133045 -8.37718e-19)
(-0.0424807 0.0923827 -6.22885e-19)
(0.0772699 0.103895 1.15032e-18)
(0.290476 0.0778526 -1.4346e-18)
(0.536097 0.077558 -5.39979e-20)
(0.824411 0.0477305 3.1431e-19)
(1.04785 -0.0170278 -8.88681e-19)
(1.15652 -0.0857012 3.9293e-19)
(1.18483 -0.128387 -7.70651e-19)
(1.17218 -0.147733 5.38701e-19)
(1.14485 -0.149803 -7.89564e-20)
(1.11546 -0.142676 3.88844e-19)
(1.08972 -0.130833 -1.02862e-19)
(1.06853 -0.117787 -2.06161e-19)
(1.05234 -0.104834 -8.99414e-20)
(1.03988 -0.0926595 1.25165e-20)
(1.03016 -0.0823093 1.35174e-20)
(1.02374 -0.0724457 7.89415e-21)
(1.01758 -0.0647698 -2.03016e-20)
(1.0143 -0.0570877 -1.93822e-20)
(-0.12717 0.132639 1.92719e-18)
(-0.0350026 0.0877642 1.58126e-18)
(0.101146 0.0995942 -8.70784e-19)
(0.335985 0.0750536 1.21954e-18)
(0.600249 0.077232 -5.35063e-19)
(0.88565 0.0477624 -4.59336e-19)
(1.08924 -0.0135026 7.10783e-19)
(1.18083 -0.0782122 1.61773e-18)
(1.19877 -0.118681 4.51079e-19)
(1.18062 -0.137849 3.38754e-19)
(1.15062 -0.140823 -1.71171e-20)
(1.12 -0.135099 -3.26496e-19)
(1.09364 -0.124653 -2.35442e-20)
(1.07209 -0.112913 2.54442e-19)
(1.05566 -0.100966 2.13189e-20)
(1.04281 -0.089681 -1.38237e-19)
(1.03294 -0.0799648 -1.79522e-20)
(1.02616 -0.070589 1.83391e-22)
(1.0197 -0.0633766 2.0688e-21)
(1.01622 -0.0558434 1.7151e-20)
(-0.129724 0.13183 -1.47444e-18)
(-0.0271582 0.0824901 -2.75798e-18)
(0.127258 0.0950981 -5.74166e-19)
(0.385698 0.073344 8.55796e-19)
(0.665244 0.0782889 -5.07181e-19)
(0.941661 0.0484712 1.65478e-18)
(1.12445 -0.00954423 -2.64259e-19)
(1.2002 -0.0706966 -6.6183e-19)
(1.20921 -0.10918 -8.85369e-20)
(1.18673 -0.128238 7.31681e-20)
(1.15488 -0.132079 -3.41649e-19)
(1.12355 -0.127685 7.77959e-20)
(1.09691 -0.118561 -3.40677e-20)
(1.07522 -0.108065 1.39441e-19)
(1.05865 -0.0970765 3.17037e-19)
(1.04551 -0.0866674 1.44893e-19)
(1.03556 -0.0775485 3.41886e-20)
(1.02843 -0.068672 5.06264e-20)
(1.02173 -0.0619118 1.26598e-20)
(1.01806 -0.0545315 3.57053e-20)
(-0.132403 0.130628 -4.78758e-20)
(-0.0186716 0.0766285 9.92168e-19)
(0.15632 0.0907068 2.26093e-18)
(0.439451 0.0729842 -7.12812e-19)
(0.729195 0.0803736 5.83925e-20)
(0.991856 0.0497109 -2.44632e-18)
(1.15389 -0.00528566 2.01906e-19)
(1.21526 -0.0632539 -9.61576e-19)
(1.21674 -0.0999502 -1.76472e-20)
(1.19095 -0.118943 3.03414e-19)
(1.15791 -0.123601 3.41495e-19)
(1.1263 -0.120452 1.74079e-19)
(1.09964 -0.112574 -1.96114e-19)
(1.07797 -0.103256 3.91391e-20)
(1.06135 -0.0931776 -8.89795e-20)
(1.04801 -0.0836292 -1.7255e-19)
(1.03803 -0.0750686 -5.91863e-20)
(1.03055 -0.0667054 -7.13434e-20)
(1.02367 -0.06038 1.30125e-20)
(1.01983 -0.0531596 -5.42698e-20)
(-0.135191 0.129032 1.60212e-18)
(-0.00918977 0.0702768 -8.42701e-19)
(0.189043 0.0868098 -6.31397e-19)
(0.496505 0.0740497 -5.94828e-19)
(0.790438 0.0831247 1.72291e-18)
(1.03605 0.051351 -3.76263e-19)
(1.17808 -0.000839117 -1.74111e-18)
(1.22664 -0.0559588 1.27431e-18)
(1.22187 -0.091034 7.35648e-20)
(1.19364 -0.109988 -9.50257e-19)
(1.15997 -0.115403 -1.41934e-19)
(1.12841 -0.113414 -2.08596e-19)
(1.10192 -0.106703 -8.11733e-20)
(1.08039 -0.0984967 1.2674e-20)
(1.06379 -0.0892826 -9.04348e-20)
(1.05032 -0.080575 1.85728e-19)
(1.04033 -0.0725325 -9.9247e-21)
(1.03252 -0.0646994 4.63671e-21)
(1.02553 -0.0587842 -5.1363e-21)
(1.02153 -0.0517346 -1.31081e-21)
(-0.138066 0.127033 -6.91332e-19)
(0.00172322 0.0635761 1.15078e-18)
(0.226008 0.0838505 -4.6907e-19)
(0.555651 0.0764128 -1.53584e-18)
(0.847735 0.0862519 -3.50668e-19)
(1.07437 0.0532825 -8.4313e-19)
(1.19762 0.00370617 1.81493e-18)
(1.23491 -0.0488641 -9.51226e-19)
(1.22503 -0.0824574 3.13888e-19)
(1.19511 -0.101387 4.18777e-19)
(1.16123 -0.107493 -2.92855e-19)
(1.12998 -0.106577 1.91315e-19)
(1.10382 -0.100956 1.12362e-19)
(1.08253 -0.0937941 -3.59674e-19)
(1.06599 -0.0854029 1.47827e-19)
(1.05246 -0.0775107 9.83392e-20)
(1.04248 -0.0699477 9.00243e-20)
(1.03435 -0.0626641 1.90657e-20)
(1.02731 -0.0571257 -1.66947e-20)
(1.02315 -0.050264 1.21811e-20)
(-0.140997 0.124602 -2.87787e-19)
(0.0145831 0.0567327 -1.22982e-20)
(0.267525 0.0822533 1.7963e-18)
(0.615427 0.0797952 3.75768e-18)
(0.900312 0.089556 -2.17651e-18)
(1.10715 0.055419 2.95448e-19)
(1.21309 0.008282 -1.40308e-18)
(1.24058 -0.0420045 -4.51811e-19)
(1.22661 -0.0742323 -4.21918e-19)
(1.1956 -0.0931413 2.97307e-20)
(1.16187 -0.0998722 1.76791e-19)
(1.13112 -0.0999444 5.78577e-19)
(1.10539 -0.0953398 2.34236e-19)
(1.0844 -0.0891546 9.64772e-20)
(1.06796 -0.0815485 -1.14931e-19)
(1.05444 -0.0744406 6.3558e-20)
(1.04448 -0.0673226 -1.84002e-20)
(1.03605 -0.0606084 -6.03815e-20)
(1.02903 -0.0554044 4.73877e-20)
(1.02468 -0.048756 1.55131e-20)
(-0.143938 0.121691 -9.90658e-19)
(0.0299714 0.0500365 8.85635e-19)
(0.313513 0.0823261 -3.91991e-18)
(0.674375 0.0838609 -3.5938e-18)
(0.947802 0.0929149 9.59869e-19)
(1.13485 0.0576936 9.08965e-19)
(1.22506 0.0128381 -4.33791e-19)
(1.24411 -0.0354006 1.29984e-18)
(1.22692 -0.0663605 8.0095e-19)
(1.19533 -0.0852477 -6.87176e-20)
(1.162 -0.0925365 -1.8511e-19)
(1.13189 -0.0935161 -5.07828e-19)
(1.10667 -0.0898561 3.85327e-20)
(1.08604 -0.0845835 -1.99869e-20)
(1.06972 -0.0777278 1.06948e-19)
(1.05627 -0.0713675 -2.20339e-19)
(1.04631 -0.0646666 1.7112e-19)
(1.03763 -0.0585397 4.9169e-20)
(1.03068 -0.0536198 -8.90003e-20)
(1.02612 -0.0472205 -6.68982e-21)
(-0.14685 0.118259 7.93312e-19)
(0.0485316 0.043837 -1.27908e-18)
(0.363439 0.0841771 1.07968e-19)
(0.731238 0.0883035 1.99425e-18)
(0.990148 0.0962593 1.80586e-18)
(1.15798 0.0600555 -1.09187e-18)
(1.23404 0.0173389 7.79507e-19)
(1.2459 -0.0290619 -9.91259e-19)
(1.22623 -0.0588365 -7.57442e-19)
(1.19446 -0.0776972 -2.61481e-19)
(1.16173 -0.0854795 3.44881e-19)
(1.13236 -0.0872903 -8.06594e-19)
(1.10771 -0.0845069 -3.36675e-20)
(1.08746 -0.080085 2.24681e-19)
(1.0713 -0.0739478 -1.72161e-19)
(1.05796 -0.0682938 -5.26904e-20)
(1.048 -0.06199 8.5948e-21)
(1.0391 -0.0564623 -8.9203e-20)
(1.03226 -0.0517722 1.30234e-20)
(1.02746 -0.04567 3.8694e-20)
(-0.14969 0.114246 -2.71411e-19)
(0.0708822 0.0385622 -3.56051e-19)
(0.416366 0.0876834 2.29276e-18)
(0.785072 0.092892 -1.49954e-18)
(1.0275 0.0995528 -8.20379e-19)
(1.17705 0.062466 -3.29695e-19)
(1.2405 0.0217599 1.70302e-18)
(1.24628 -0.0229903 1.04443e-18)
(1.22477 -0.0516498 7.05529e-19)
(1.19312 -0.0704781 -8.68687e-19)
(1.16114 -0.0786922 -5.91773e-19)
(1.13258 -0.0812637 2.53514e-19)
(1.10852 -0.0792925 -3.02955e-19)
(1.08867 -0.0756629 -4.57765e-19)
(1.0727 -0.0702139 -3.70681e-20)
(1.05951 -0.0652222 -5.32444e-20)
(1.04952 -0.0593035 -1.00626e-19)
(1.04048 -0.0543783 1.21532e-19)
(1.03378 -0.049864 -4.04718e-20)
(1.02869 -0.0441161 -1.31902e-20)
(-0.152379 0.10955 -1.87089e-18)
(0.0975348 0.0347118 -1.3675e-18)
(0.471083 0.0925248 -6.49015e-19)
(0.835253 0.0974755 -1.2956e-18)
(1.06016 0.102778 -4.43895e-19)
(1.19256 0.0648962 -7.48076e-19)
(1.24485 0.0260858 -1.47845e-18)
(1.24554 -0.0171815 -1.71806e-18)
(1.2227 -0.0447865 3.60114e-19)
(1.19143 -0.0635763 -6.17536e-20)
(1.16029 -0.0721647 1.49289e-19)
(1.13257 -0.0754319 5.33672e-19)
(1.10913 -0.0742122 1.67005e-19)
(1.0897 -0.0713203 4.68841e-19)
(1.07394 -0.0665302 1.52211e-19)
(1.06092 -0.0621558 2.79762e-19)
(1.0509 -0.0566167 5.37791e-20)
(1.04179 -0.0522882 8.19934e-20)
(1.0352 -0.047899 1.14314e-19)
(1.0298 -0.0425654 1.92637e-20)
(-0.154818 0.104058 6.18838e-19)
(0.128825 0.0327672 8.37038e-19)
(0.526296 0.0982751 1.67736e-18)
(0.881445 0.101965 2.98988e-18)
(1.08847 0.105928 -7.11585e-19)
(1.20499 0.0673247 6.4119e-19)
(1.24744 0.0303072 1.00611e-18)
(1.2439 -0.0116275 1.3541e-18)
(1.22018 -0.0382307 -2.28895e-19)
(1.18946 -0.056977 1.07792e-18)
(1.15923 -0.0658861 4.47361e-19)
(1.13238 -0.06979 -5.07991e-19)
(1.10956 -0.0692645 -3.2531e-19)
(1.09056 -0.0670596 1.14327e-20)
(1.07503 -0.0629 -1.7898e-19)
(1.0622 -0.0590983 -1.79041e-19)
(1.05214 -0.0539386 1.10564e-19)
(1.04302 -0.0501931 1.76215e-19)
(1.03651 -0.0458778 -5.02875e-20)
(1.03077 -0.0410173 -8.02292e-20)
(-0.15689 0.0976677 2.15203e-18)
(0.164835 0.0331028 1.77815e-18)
(0.580803 0.104511 1.224e-18)
(0.923535 0.10631 -2.65092e-18)
(1.11281 0.109002 5.7975e-19)
(1.21475 0.069736 3.18468e-19)
(1.24859 0.0344199 -2.30663e-19)
(1.24157 -0.00631754 -1.65793e-19)
(1.21732 -0.0319656 5.13738e-19)
(1.18729 -0.0506648 -6.605e-19)
(1.158 -0.0598456 -7.25902e-20)
(1.13202 -0.0643328 6.79431e-19)
(1.10982 -0.0644477 6.03161e-19)
(1.09126 -0.0628829 -1.11161e-19)
(1.07599 -0.0593259 2.80899e-19)
(1.06335 -0.0560535 1.25566e-19)
(1.05325 -0.0512783 -9.37824e-20)
(1.04418 -0.048093 -1.45972e-19)
(1.0377 -0.0437929 1.47779e-20)
(1.03159 -0.0394737 6.66005e-22)
(-0.158454 0.090298 -1.37287e-18)
(0.205337 0.0359039 5.039e-19)
(0.633613 0.110894 -4.27298e-18)
(0.961575 0.110486 9.05599e-19)
(1.13359 0.112001 -2.77445e-19)
(1.22222 0.0721193 -8.44783e-19)
(1.24856 0.0384235 -1.7369e-18)
(1.23871 -0.00123939 -6.91902e-19)
(1.2142 -0.0259742 -1.24453e-18)
(1.18496 -0.0446244 5.70035e-19)
(1.15663 -0.0540321 -2.42261e-19)
(1.13151 -0.0590547 -7.46466e-19)
(1.10993 -0.0597594 -6.88021e-19)
(1.09181 -0.0587922 1.66817e-19)
(1.07681 -0.0558095 -1.33409e-19)
(1.06436 -0.0530257 -7.76679e-20)
(1.05425 -0.0486457 5.20673e-20)
(1.04527 -0.0459824 1.0529e-19)
(1.03875 -0.0416342 -4.27734e-20)
(1.03228 -0.0379578 6.1532e-20)
(-0.159336 0.0819156 -1.51116e-18)
(0.249789 0.0411083 1.99086e-18)
(0.683995 0.117205 1.88933e-18)
(0.995726 0.114484 -2.40215e-18)
(1.15118 0.114929 1.7236e-18)
(1.22773 0.0744675 -1.52556e-18)
(1.24757 0.0423194 -8.20999e-19)
(1.23545 0.00361998 8.4797e-19)
(1.21091 -0.0202397 -2.31693e-19)
(1.18251 -0.0388409 -3.03247e-19)
(1.15514 -0.0484351 2.10944e-19)
(1.13087 -0.05395 -1.83375e-19)
(1.1099 -0.0551971 4.31175e-20)
(1.09223 -0.0547887 -2.59612e-19)
(1.07751 -0.0523521 -7.07399e-20)
(1.06524 -0.0500203 6.06858e-20)
(1.05515 -0.0460496 -2.65826e-20)
(1.04629 -0.0438469 -1.62632e-19)
(1.03965 -0.0394071 7.02887e-20)
(1.03288 -0.0365284 2.12205e-20)
(-0.159331 0.0725602 1.27005e-18)
(0.297388 0.0483953 -9.41912e-19)
(0.731464 0.123336 3.35283e-19)
(1.02621 0.118302 1.82998e-18)
(1.16593 0.117792 -3.49449e-19)
(1.23159 0.0767763 8.41751e-19)
(1.2458 0.0461108 -3.37404e-19)
(1.2319 0.00827371 -8.77671e-19)
(1.2075 -0.0147458 -1.04325e-19)
(1.17998 -0.0333 3.56189e-19)
(1.15356 -0.0430441 -2.35895e-19)
(1.13012 -0.0490132 7.45572e-19)
(1.10974 -0.0507583 1.17849e-19)
(1.09251 -0.0508737 1.93957e-19)
(1.07808 -0.0489544 1.87786e-19)
(1.06599 -0.0470437 -2.76054e-19)
(1.05596 -0.043494 -7.69558e-20)
(1.04722 -0.0416686 7.83332e-20)
(1.04043 -0.0371587 9.47576e-20)
(1.03349 -0.0353059 -8.92692e-20)
(-0.158193 0.0623698 -1.28693e-18)
(0.347169 0.057232 -2.39093e-18)
(0.77574 0.129249 -2.66513e-19)
(1.0533 0.121944 7.3657e-19)
(1.17817 0.120595 3.12677e-19)
(1.23405 0.0790435 9.23385e-19)
(1.24341 0.0498021 4.134e-19)
(1.22813 0.0127348 9.18381e-19)
(1.204 -0.00947706 -7.63516e-19)
(1.17739 -0.0279879 -2.64251e-19)
(1.15189 -0.0378494 1.91855e-19)
(1.12926 -0.0442384 -7.43826e-19)
(1.10946 -0.0464401 4.15217e-19)
(1.09268 -0.0470476 -2.11035e-19)
(1.07854 -0.0456168 -1.97794e-19)
(1.06663 -0.0441028 6.7512e-20)
(1.05667 -0.0409763 8.27297e-20)
(1.04806 -0.0394421 5.40621e-20)
(1.04112 -0.034995 -4.8068e-20)
(1.03416 -0.0343894 8.2927e-20)
(-0.155639 0.0515988 1.51402e-18)
(0.398129 0.0669648 1.31106e-18)
(0.816702 0.134947 1.06661e-18)
(1.07725 0.125415 -2.69436e-18)
(1.1882 0.123344 -1.65498e-18)
(1.23534 0.0812688 -1.85883e-18)
(1.24054 0.0533988 3.31251e-19)
(1.22422 0.0170163 -8.36142e-19)
(1.20047 -0.00441858 2.86342e-19)
(1.17476 -0.0228914 -3.18596e-19)
(1.15015 -0.032841 -1.79432e-19)
(1.1283 -0.0396197 1.69236e-19)
(1.10907 -0.0422395 -5.75838e-19)
(1.09273 -0.0433104 3.04331e-19)
(1.07888 -0.0423398 6.51802e-20)
(1.06716 -0.0412027 1.39206e-19)
(1.05731 -0.0384898 -1.10971e-19)
(1.04881 -0.0371908 3.09738e-20)
(1.04177 -0.0330301 -6.87043e-20)
(1.03521 -0.0325186 -2.05164e-20)
(-0.15135 0.0406253 1.36857e-18)
(0.449342 0.0769323 -4.46997e-19)
(0.85435 0.140444 -1.7097e-18)
(1.09834 0.128722 1.60454e-18)
(1.19628 0.126044 2.87277e-19)
(1.23563 0.0834524 2.39578e-18)
(1.23728 0.0569056 -1.22005e-18)
(1.22021 0.0211295 6.03545e-19)
(1.19691 0.000442786 1.12526e-18)
(1.1721 -0.0179988 1.14458e-19)
(1.14836 -0.0280105 1.92682e-19)
(1.12726 -0.0351519 7.22129e-19)
(1.10858 -0.0381541 1.73624e-19)
(1.09268 -0.0396622 -1.7059e-19)
(1.07911 -0.0391244 -1.31165e-19)
(1.06759 -0.0383472 -1.72211e-19)
(1.05786 -0.0360317 1.24353e-19)
(1.04946 -0.0349601 -1.03159e-19)
(1.04245 -0.0310367 4.64868e-20)
(1.03595 -0.0309219 6.99953e-20)
(-0.144975 0.0299467 -2.19977e-18)
(0.500048 0.0865691 -1.73906e-18)
(0.888772 0.145762 -2.49696e-18)
(1.11682 0.13187 2.45578e-18)
(1.20267 0.128701 1.47911e-18)
(1.23511 0.0855959 -1.86915e-18)
(1.23374 0.060328 1.49342e-18)
(1.21616 0.0250858 9.03917e-19)
(1.19335 0.00511972 -1.19277e-18)
(1.16942 -0.0132984 5.85974e-19)
(1.1465 -0.0233493 4.3752e-20)
(1.12614 -0.0308294 -6.5406e-19)
(1.108 -0.034181 4.11875e-19)
(1.09253 -0.0361025 1.13405e-19)
(1.07924 -0.0359711 1.19004e-20)
(1.06792 -0.0355383 3.0068e-19)
(1.05833 -0.0336055 1.02978e-19)
(1.05005 -0.0327332 1.63995e-19)
(1.04305 -0.0291642 -9.61734e-21)