/*--------------------------------*- C++ -*----------------------------------*\
  =========                 |
  \\      /  F ield         | OpenFOAM: The Open Source CFD Toolbox
   \\    /   O peration     | Website:  https://openfoam.org
    \\  /    A nd           | Version:  7
     \\/     M anipulation  |
\*---------------------------------------------------------------------------*/
FoamFile
{
    version     2.0;
    format      ascii;
    class       volScalarField;
    location    "5";
    object      p;
}
// * * * * * * * * * * * * * * * * * * * * * * * * * * * * * * * * * * * * * //

dimensions      [0 2 -2 0 0 0 0];

internalField   nonuniform List<scalar> 
385
(
-0.00316511
-0.00303927
-0.00290799
-0.00277139
-0.00262957
-0.00248263
-0.00233062
-0.00217361
-0.00201156
-0.0018446
-0.00167243
-0.00149549
-0.00131269
-0.00112573
-0.000930969
-0.00073441
-0.000524688
-0.000320907
-9.08663e-05
-0.00316815
-0.00304194
-0.00291034
-0.00277345
-0.00263138
-0.00248422
-0.002332
-0.00217482
-0.00201262
-0.00184552
-0.00167322
-0.00149617
-0.00131326
-0.00112621
-0.000931365
-0.000734719
-0.000524929
-0.000321052
-9.09639e-05
-0.00317422
-0.00304728
-0.00291503
-0.00277757
-0.002635
-0.00248738
-0.00233477
-0.00217724
-0.00201472
-0.00184734
-0.0016748
-0.00149752
-0.00131441
-0.00112717
-0.000932156
-0.000735336
-0.00052541
-0.000321342
-9.11588e-05
-0.00318327
-0.00305525
-0.00292204
-0.00278373
-0.0026404
-0.00249211
-0.00233891
-0.00218085
-0.00201786
-0.00185007
-0.00167715
-0.00149954
-0.00131612
-0.0011286
-0.000933336
-0.000736257
-0.000526128
-0.000321775
-9.14499e-05
-0.0030658
-0.00293132
-0.00279188
-0.00264755
-0.00249838
-0.00234439
-0.00218563
-0.00202203
-0.00185368
-0.00168027
-0.00150221
-0.00131839
-0.00113049
-0.000934899
-0.000737477
-0.00052708
-0.000322348
-9.18359e-05
-0.00307888
-0.00294282
-0.00280199
-0.00265642
-0.00250615
-0.00235119
-0.00219156
-0.00202719
-0.00185816
-0.00168413
-0.00150552
-0.00132121
-0.00113284
-0.000936836
-0.000738988
-0.000528259
-0.000323057
-9.23148e-05
-0.00309442
-0.00295649
-0.00281399
-0.00266695
-0.00251538
-0.00235926
-0.00219861
-0.00203332
-0.00186347
-0.00168872
-0.00150945
-0.00132455
-0.00113563
-0.000939136
-0.000740781
-0.000529659
-0.000323899
-9.28844e-05
-0.00311232
-0.00297224
-0.00282783
-0.0026791
-0.00252602
-0.00236857
-0.00220673
-0.00204039
-0.0018696
-0.00169401
-0.00151398
-0.00132839
-0.00113884
-0.000941785
-0.000742847
-0.000531272
-0.000324868
-9.3542e-05
-0.0031325
-0.00298999
-0.00284343
-0.00269279
-0.00253802
-0.00237906
-0.00221588
-0.00204836
-0.00187651
-0.00169997
-0.00151908
-0.00133273
-0.00114245
-0.000944767
-0.000745171
-0.000533089
-0.000325958
-9.42843e-05
-0.00315483
-0.00300965
-0.00286071
-0.00270795
-0.0025513
-0.00239068
-0.00222602
-0.00205718
-0.00188415
-0.00170656
-0.00152473
-0.00133752
-0.00114645
-0.000948067
-0.000747742
-0.0005351
-0.000327163
-9.51078e-05
-0.000951664
-0.000750542
-0.000537294
-0.000328475
-9.60086e-05
-0.0020668
-0.00189249
-0.00171375
-0.00153088
-0.00134275
-0.00115081
-0.000951663
-0.000750542
-0.000537293
-0.000328475
-9.60086e-05
-0.00315483
-0.00300965
-0.00286071
-0.00270795
-0.0025513
-0.00239068
-0.00222602
-0.00205718
-0.00188415
-0.00170656
-0.00152473
-0.00133752
-0.00114645
-0.000948067
-0.000747741
-0.0005351
-0.000327163
-9.51078e-05
-0.0031325
-0.00298999
-0.00284343
-0.00269279
-0.00253801
-0.00237906
-0.00221588
-0.00204836
-0.00187651
-0.00169997
-0.00151908
-0.00133273
-0.00114245
-0.000944767
-0.000745171
-0.000533089
-0.000325958
-9.42843e-05
-0.00311232
-0.00297224
-0.00282783
-0.0026791
-0.00252602
-0.00236857
-0.00220673
-0.00204039
-0.0018696
-0.00169401
-0.00151398
-0.00132839
-0.00113884
-0.000941784
-0.000742846
-0.000531272
-0.000324868
-9.3542e-05
-0.00309442
-0.00295649
-0.00281399
-0.00266695
-0.00251538
-0.00235926
-0.00219861
-0.00203332
-0.00186347
-0.00168872
-0.00150945
-0.00132455
-0.00113563
-0.000939136
-0.000740781
-0.000529659
-0.000323899
-9.28844e-05
-0.00307888
-0.00294282
-0.00280199
-0.00265642
-0.00250615
-0.00235119
-0.00219156
-0.00202719
-0.00185816
-0.00168413
-0.00150552
-0.00132121
-0.00113284
-0.000936836
-0.000738988
-0.000528258
-0.000323057
-9.23148e-05
-0.00319526
-0.0030658
-0.00293132
-0.00279188
-0.00264755
-0.00249838
-0.00234439
-0.00218563
-0.00202203
-0.00185368
-0.00168027
-0.00150221
-0.00131839
-0.00113049
-0.000934899
-0.000737477
-0.000527079
-0.000322348
-9.18359e-05
-0.00318327
-0.00305525
-0.00292204
-0.00278373
-0.0026404
-0.00249211
-0.00233891
-0.00218085
-0.00201786
-0.00185007
-0.00167715
-0.00149954
-0.00131612
-0.0011286
-0.000933336
-0.000736257
-0.000526128
-0.000321775
-9.14499e-05
-0.00317422
-0.00304728
-0.00291503
-0.00277757
-0.002635
-0.00248738
-0.00233477
-0.00217724
-0.00201472
-0.00184734
-0.0016748
-0.00149752
-0.00131441
-0.00112717
-0.000932156
-0.000735336
-0.00052541
-0.000321342
-9.11588e-05
-0.00316815
-0.00304194
-0.00291034
-0.00277345
-0.00263138
-0.00248422
-0.002332
-0.00217482
-0.00201262
-0.00184552
-0.00167322
-0.00149617
-0.00131326
-0.00112621
-0.000931365
-0.000734719
-0.000524929
-0.000321052
-9.0964e-05
-0.00316511
-0.00303927
-0.00290799
-0.00277139
-0.00262957
-0.00248263
-0.00233062
-0.00217361
-0.00201156
-0.0018446
-0.00167243
-0.00149549
-0.00131269
-0.00112573
-0.000930969
-0.00073441
-0.000524688
-0.000320907
-9.08663e-05
)
;

boundaryField
{
    inlet
    {
        type            zeroGradient;
    }
    outlet
    {
        type            fixedValue;
        value           uniform 0;
    }
    cylinder
    {
        type            zeroGradient;
    }
    top
    {
        type            symmetryPlane;
    }
    bottom
    {
        type            symmetryPlane;
    }
    defaultFaces
    {
        type            empty;
    }
    procBoundary31to23
    {
        type            processor;
        value           nonuniform List<scalar> 
19
(
-0.00207718
-0.00190149
-0.00172151
-0.00153751
-0.00134838
-0.0011555
-0.000955536
-0.000753556
-0.000539656
-0.000329886
-9.69823e-05
-0.0031792
-0.00303111
-0.00287957
-0.0027245
-0.0025658
-0.00240336
-0.00223709
-0.00223709
)
;
    }
    procBoundary31to30
    {
        type            processor;
        value           nonuniform List<scalar> 
20
(
-0.0032854
-0.00328885
-0.00329573
-0.00330601
-0.00319526
-0.00319526
-0.00321012
-0.00322776
-0.00324809
-0.00329633
-0.00327098
-0.00324808
-0.00322776
-0.00321011
-0.00321011
-0.00331961
-0.00330601
-0.00329573
-0.00328885
-0.0032854
)
;
    }
    procBoundary31to38
    {
        type            processor;
        value           nonuniform List<scalar> 2(-0.00327098 -0.00329633);
    }
    procBoundary31to39
    {
        type            processor;
        value           nonuniform List<scalar> 
19
(
-0.00317921
-0.00303111
-0.00287957
-0.00272451
-0.00256581
-0.00240336
-0.00223709
-0.0020668
-0.00189249
-0.00171376
-0.00153088
-0.00134275
-0.00115081
-0.00115081
-0.000955537
-0.000753556
-0.000539657
-0.000329886
-9.69823e-05
)
;
    }
}


// ************************************************************************* //
