/*--------------------------------*- C++ -*----------------------------------*\
  =========                 |
  \\      /  F ield         | OpenFOAM: The Open Source CFD Toolbox
   \\    /   O peration     | Website:  https://openfoam.org
    \\  /    A nd           | Version:  7
     \\/     M anipulation  |
\*---------------------------------------------------------------------------*/
FoamFile
{
    version     2.0;
    format      ascii;
    class       surfaceScalarField;
    location    "2.8";
    object      phi;
}
// * * * * * * * * * * * * * * * * * * * * * * * * * * * * * * * * * * * * * //

dimensions      [0 3 -1 0 0 0 0];

internalField   nonuniform List<scalar> 
39700
(
-1.33692e-12
8.16759e-13
-2.88334e-12
1.54643e-12
-3.95734e-12
1.07401e-12
-3.93452e-12
-2.2783e-14
-2.56176e-12
-1.37271e-12
2.33859e-13
-2.7956e-12
4.42998e-12
-4.19614e-12
9.95463e-12
-5.52471e-12
1.67106e-11
-6.756e-12
2.45889e-11
-7.87835e-12
3.34767e-11
-8.88763e-12
4.32607e-11
-9.78388e-12
5.38303e-11
-1.05696e-11
6.50789e-11
-1.12486e-11
7.69043e-11
-1.18255e-11
8.92095e-11
-1.23053e-11
1.01903e-10
-1.26934e-11
1.14898e-10
-1.2995e-11
1.28114e-10
-1.32155e-11
1.41474e-10
-1.33602e-11
1.54908e-10
-1.3434e-11
1.6835e-10
-1.34416e-11
1.81737e-10
-1.33877e-11
1.95013e-10
-1.32765e-11
2.08126e-10
-1.31124e-11
2.21025e-10
-1.28996e-11
2.33668e-10
-1.26418e-11
2.46011e-10
-1.23428e-11
2.58016e-10
-1.20059e-11
2.6965e-10
-1.16341e-11
2.8088e-10
-1.12303e-11
2.91677e-10
-1.07974e-11
3.02016e-10
-1.03381e-11
3.11871e-10
-9.85512e-12
3.21222e-10
-9.35077e-12
3.3005e-10
-8.82714e-12
3.38336e-10
-8.28607e-12
3.46064e-10
-7.72919e-12
3.53222e-10
-7.15814e-12
3.59796e-10
-6.57459e-12
3.65777e-10
-5.9802e-12
3.71154e-10
-5.37649e-12
3.75919e-10
-4.76474e-12
3.80065e-10
-4.14595e-12
3.83586e-10
-3.52096e-12
3.86476e-10
-2.89061e-12
3.88731e-10
-2.25589e-12
3.90349e-10
-1.61789e-12
3.91328e-10
-9.77761e-13
3.91665e-10
-3.36468e-13
3.9136e-10
3.05233e-13
3.90413e-10
9.46765e-13
3.88825e-10
1.58755e-12
3.86597e-10
2.2268e-12
3.83734e-10
2.86349e-12
3.80238e-10
3.49639e-12
3.76114e-10
4.12428e-12
3.71369e-10
4.74608e-12
3.66008e-10
5.36089e-12
3.60039e-10
5.96782e-12
3.53473e-10
6.56576e-12
3.46319e-10
7.15328e-12
3.38591e-10
7.72861e-12
3.30302e-10
8.2898e-12
3.21468e-10
8.83495e-12
3.12106e-10
9.36227e-12
3.02235e-10
9.87002e-12
2.91878e-10
1.03563e-11
2.81058e-10
1.08188e-11
2.69803e-10
1.1255e-11
2.58142e-10
1.16616e-11
2.46108e-10
1.20357e-11
2.33734e-10
1.23741e-11
2.2106e-10
1.26739e-11
2.08127e-10
1.29319e-11
1.94982e-10
1.31448e-11
1.81673e-10
1.33085e-11
1.68254e-10
1.34189e-11
1.54784e-10
1.34714e-11
1.41323e-10
1.34614e-11
1.27939e-10
1.33844e-11
1.14703e-10
1.3236e-11
1.0169e-10
1.30114e-11
8.89842e-11
1.27056e-11
7.66708e-11
1.23133e-11
6.48425e-11
1.18288e-11
5.35964e-11
1.12469e-11
4.30343e-11
1.05626e-11
3.32628e-11
9.77142e-12
2.43923e-11
8.86999e-12
1.65356e-11
7.8561e-12
9.80546e-12
6.72979e-12
4.31057e-12
5.49506e-12
1.47875e-13
4.16324e-12
-2.61058e-12
2.75903e-12
-3.94087e-12
1.33055e-12
-3.91122e-12
-2.98118e-14
-2.76262e-12
-1.14905e-12
-1.07503e-12
-1.68809e-12
-1.0753e-12
-1.81536e-12
2.63213e-12
-3.61536e-12
3.34643e-12
-3.70882e-12
1.16747e-12
-1.09139e-12
-2.64022e-12
4.79622e-12
-7.26027e-12
1.41875e-11
-1.21868e-11
2.71029e-11
-1.71115e-11
4.34296e-11
-2.18513e-11
6.29738e-11
-2.63002e-11
8.54948e-11
-3.03995e-11
1.10727e-10
-3.41194e-11
1.38392e-10
-3.74488e-11
1.6821e-10
-4.03878e-11
1.99905e-10
-4.29437e-11
2.33208e-10
-4.51284e-11
2.6786e-10
-4.69569e-11
3.03611e-10
-4.84454e-11
3.40228e-10
-4.96115e-11
3.77485e-10
-5.04729e-11
4.15173e-10
-5.10478e-11
4.53093e-10
-5.13538e-11
4.9106e-10
-5.14081e-11
5.28899e-10
-5.12274e-11
5.66451e-10
-5.08279e-11
6.03563e-10
-5.02251e-11
6.40097e-10
-4.9434e-11
6.75924e-10
-4.84689e-11
7.10925e-10
-4.73436e-11
7.44991e-10
-4.60708e-11
7.78019e-10
-4.46625e-11
8.09919e-10
-4.31301e-11
8.40605e-10
-4.14841e-11
8.70001e-10
-3.97347e-11
8.98038e-10
-3.78915e-11
9.24651e-10
-3.59636e-11
9.49783e-10
-3.39593e-11
9.73384e-10
-3.18861e-11
9.95406e-10
-2.97509e-11
1.01581e-09
-2.75603e-11
1.03455e-09
-2.53202e-11
1.05161e-09
-2.30365e-11
1.06695e-09
-2.07148e-11
1.08054e-09
-1.83602e-11
1.09237e-09
-1.59772e-11
1.10242e-09
-1.357e-11
1.11068e-09
-1.11422e-11
1.11712e-09
-8.69753e-12
1.12174e-09
-6.23973e-12
1.12453e-09
-3.77255e-12
1.1255e-09
-1.2997e-12
1.12463e-09
1.17535e-12
1.12192e-09
3.6494e-12
1.11739e-09
6.11938e-12
1.11104e-09
8.58208e-12
1.10287e-09
1.1034e-11
1.09289e-09
1.34711e-11
1.08113e-09
1.58892e-11
1.06759e-09
1.82838e-11
1.0523e-09
2.06505e-11
1.03528e-09
2.2985e-11
1.01657e-09
2.52823e-11
9.96182e-10
2.75372e-11
9.74166e-10
2.97436e-11
9.50561e-10
3.18949e-11
9.25413e-10
3.39838e-11
8.98773e-10
3.6003e-11
8.70699e-10
3.79446e-11
8.41255e-10
3.98006e-11
8.10511e-10
4.15623e-11
7.78545e-10
4.32199e-11
7.45443e-10
4.4763e-11
7.11299e-10
4.61802e-11
6.76214e-10
4.74597e-11
6.40299e-10
4.85892e-11
6.03676e-10
4.95562e-11
5.66473e-10
5.03473e-11
5.28832e-10
5.09485e-11
4.90906e-10
5.13446e-11
4.52857e-10
5.15198e-11
4.14861e-10
5.14576e-11
3.77105e-10
5.11411e-11
3.39788e-10
5.05535e-11
3.03122e-10
4.96775e-11
2.67332e-10
4.84958e-11
2.32653e-10
4.69908e-11
1.99337e-10
4.51451e-11
1.67641e-10
4.29423e-11
1.37837e-10
4.03679e-11
1.10199e-10
3.74102e-11
8.50064e-11
3.40627e-11
6.25363e-11
3.0326e-11
4.30534e-11
2.62121e-11
2.67971e-11
2.17508e-11
1.39593e-11
1.70009e-11
4.65093e-12
1.20677e-11
-1.15104e-12
7.13308e-12
-3.68395e-12
2.50364e-12
-3.51539e-12
-1.31732e-12
-1.68924e-12
-3.51426e-12
-2.76501e-12
-1.1987e-12
3.83086e-12
-1.36449e-12
3.51224e-12
1.43099e-12
-1.62802e-12
8.34942e-12
-9.55867e-12
2.00732e-11
-1.8984e-11
3.69216e-11
-2.90352e-11
5.89516e-11
-3.91414e-11
8.60392e-11
-4.89389e-11
1.1794e-10
-5.8201e-11
1.54332e-10
-6.67913e-11
1.94845e-10
-7.46325e-11
2.39083e-10
-8.16871e-11
2.86639e-10
-8.79435e-11
3.37103e-10
-9.3408e-11
3.90073e-10
-9.80981e-11
4.45155e-10
-1.02039e-10
5.01971e-10
-1.05261e-10
5.60156e-10
-1.07797e-10
6.19365e-10
-1.09682e-10
6.79269e-10
-1.10952e-10
7.39558e-10
-1.11643e-10
7.9994e-10
-1.1179e-10
8.60141e-10
-1.11428e-10
9.19905e-10
-1.10592e-10
9.78993e-10
-1.09313e-10
1.03718e-09
-1.07624e-10
1.09427e-09
-1.05554e-10
1.15006e-09
-1.03133e-10
1.20438e-09
-1.00389e-10
1.25706e-09
-9.73464e-11
1.30796e-09
-9.40311e-11
1.35694e-09
-9.04658e-11
1.40388e-09
-8.66724e-11
1.44866e-09
-8.26713e-11
1.49118e-09
-7.84821e-11
1.53134e-09
-7.4123e-11
1.56907e-09
-6.96108e-11
1.60428e-09
-6.4961e-11
1.63691e-09
-6.01881e-11
1.66689e-09
-5.53052e-11
1.69418e-09
-5.0325e-11
1.71872e-09
-4.52593e-11
1.74048e-09
-4.01194e-11
1.75942e-09
-3.49155e-11
1.77551e-09
-2.96573e-11
1.78872e-09
-2.43536e-11
1.79904e-09
-1.90126e-11
1.80644e-09
-1.36423e-11
1.81091e-09
-8.25068e-12
1.81246e-09
-2.8457e-12
1.81107e-09
2.56475e-12
1.80675e-09
7.97299e-12
1.7995e-09
1.33715e-11
1.78933e-09
1.8753e-11
1.77625e-09
2.41095e-11
1.76029e-09
2.94328e-11
1.74146e-09
3.47138e-11
1.7198e-09
3.99428e-11
1.69535e-09
4.51098e-11
1.66813e-09
5.02041e-11
1.6382e-09
5.52146e-11
1.6056e-09
6.01297e-11
1.57041e-09
6.49365e-11
1.53268e-09
6.96207e-11
1.4925e-09
7.41671e-11
1.44994e-09
7.8559e-11
1.40511e-09
8.27791e-11
1.3581e-09
8.68092e-11
1.30903e-09
9.06298e-11
1.25803e-09
9.42203e-11
1.20524e-09
9.75584e-11
1.1508e-09
1.0062e-10
1.09488e-09
1.0338e-10
1.03765e-09
1.05811e-10
9.79325e-10
1.07887e-10
9.20096e-10
1.09577e-10
8.60191e-10
1.10853e-10
7.99852e-10
1.11682e-10
7.39339e-10
1.12032e-10
6.78928e-10
1.11869e-10
6.18912e-10
1.11157e-10
5.59605e-10
1.09861e-10
5.01337e-10
1.07947e-10
4.44455e-10
1.05378e-10
3.89325e-10
1.02121e-10
3.36325e-10
9.81435e-11
2.85851e-10
9.34156e-11
2.38307e-10
8.79127e-11
1.941e-10
8.16179e-11
1.53637e-10
7.45262e-11
1.17313e-10
6.66506e-11
8.54949e-11
5.803e-11
5.85024e-11
4.87427e-11
3.65763e-11
3.89262e-11
1.98361e-11
2.88077e-11
8.21814e-12
1.87513e-11
1.39361e-12
9.3288e-12
-1.3355e-12
1.41242e-12
-1.157e-12
-3.69249e-12
-3.92239e-12
-5.37092e-14
3.8846e-12
2.48879e-12
9.69787e-13
9.37831e-12
-8.51752e-12
2.17328e-11
-2.19132e-11
4.02265e-11
-3.74778e-11
6.51852e-11
-5.39939e-11
9.66666e-11
-7.06227e-11
1.34531e-10
-8.68028e-11
1.78496e-10
-1.02166e-10
2.28183e-10
-1.16479e-10
2.8315e-10
-1.29599e-10
3.42912e-10
-1.41449e-10
4.06965e-10
-1.51997e-10
4.74798e-10
-1.61241e-10
5.45899e-10
-1.69199e-10
6.19768e-10
-1.75907e-10
6.95916e-10
-1.81409e-10
7.73873e-10
-1.85753e-10
8.53187e-10
-1.88996e-10
9.33428e-10
-1.91194e-10
1.01419e-09
-1.92404e-10
1.09509e-09
-1.92686e-10
1.17575e-09
-1.92096e-10
1.25585e-09
-1.90691e-10
1.33507e-09
-1.88525e-10
1.41309e-09
-1.85651e-10
1.48966e-09
-1.8212e-10
1.5645e-09
-1.77981e-10
1.6374e-09
-1.73281e-10
1.70812e-09
-1.68064e-10
1.77646e-09
-1.62374e-10
1.84224e-09
-1.56248e-10
1.90529e-09
-1.49725e-10
1.96546e-09
-1.42839e-10
2.0226e-09
-1.35625e-10
2.07659e-09
-1.28113e-10
2.12731e-09
-1.20332e-10
2.17466e-09
-1.1231e-10
2.21855e-09
-1.04073e-10
2.25889e-09
-9.56421e-11
2.2956e-09
-8.70404e-11
2.32863e-09
-7.8288e-11
2.35791e-09
-6.94042e-11
2.38341e-09
-6.04073e-11
2.40506e-09
-5.13142e-11
2.42285e-09
-4.21409e-11
2.43674e-09
-3.29022e-11
2.44671e-09
-2.36121e-11
2.45274e-09
-1.42844e-11
2.45483e-09
-4.93283e-12
2.45297e-09
4.42896e-12
2.44715e-09
1.37872e-11
2.4374e-09
2.31281e-11
2.42371e-09
3.24381e-11
2.40612e-09
4.17034e-11
2.38464e-09
5.09095e-11
2.35931e-09
6.00411e-11
2.33017e-09
6.90814e-11
2.29727e-09
7.80125e-11
2.26066e-09
8.68157e-11
2.2204e-09
9.54712e-11
2.17658e-09
1.03958e-10
2.12926e-09
1.12254e-10
2.07854e-09
1.20334e-10
2.02454e-09
1.28174e-10
1.96735e-09
1.35743e-10
1.90712e-09
1.43013e-10
1.84398e-09
1.4995e-10
1.77809e-09
1.56521e-10
1.70962e-09
1.62691e-10
1.63876e-09
1.68421e-10
1.5657e-09
1.73671e-10
1.49068e-09
1.78399e-10
1.41394e-09
1.82557e-10
1.33573e-09
1.861e-10
1.25633e-09
1.88979e-10
1.17604e-09
1.91141e-10
1.09519e-09
1.92535e-10
1.01411e-09
1.93106e-10
9.33182e-10
1.92798e-10
8.52785e-10
1.91553e-10
7.73334e-10
1.89314e-10
6.95259e-10
1.86023e-10
6.19014e-10
1.81624e-10
5.45071e-10
1.76064e-10
4.73919e-10
1.69295e-10
4.06061e-10
1.61272e-10
3.42008e-10
1.51965e-10
2.82272e-10
1.41354e-10
2.27357e-10
1.29443e-10
1.77742e-10
1.16266e-10
1.33869e-10
1.01903e-10
9.61126e-11
8.64991e-11
6.47487e-11
7.02894e-11
3.99112e-11
5.36444e-11
2.15342e-11
3.71281e-11
9.28105e-12
2.15822e-11
2.4641e-12
8.23e-12
-4.78513e-14
-1.18004e-12
-3.97035e-12
1.31719e-12
2.56742e-12
7.14476e-12
-4.85772e-12
1.88496e-11
-2.02223e-11
3.73568e-11
-4.04203e-11
6.32319e-11
-6.33529e-11
9.67383e-11
-8.75004e-11
1.37894e-10
-1.11778e-10
1.86523e-10
-1.35432e-10
2.42305e-10
-1.57948e-10
3.04813e-10
-1.78987e-10
3.73546e-10
-1.98331e-10
4.47952e-10
-2.15856e-10
5.27453e-10
-2.31498e-10
6.11455e-10
-2.45243e-10
6.99362e-10
-2.57106e-10
7.90583e-10
-2.67129e-10
8.84542e-10
-2.75367e-10
9.80678e-10
-2.81889e-10
1.07845e-09
-2.8677e-10
1.17735e-09
-2.90089e-10
1.27687e-09
-2.91929e-10
1.37656e-09
-2.92373e-10
1.47597e-09
-2.91504e-10
1.57468e-09
-2.89405e-10
1.67231e-09
-2.86156e-10
1.7685e-09
-2.81836e-10
1.8629e-09
-2.76519e-10
1.95519e-09
-2.70278e-10
2.0451e-09
-2.63184e-10
2.13233e-09
-2.55301e-10
2.21666e-09
-2.46695e-10
2.29783e-09
-2.37425e-10
2.37566e-09
-2.27548e-10
2.44993e-09
-2.17116e-10
2.52049e-09
-2.0618e-10
2.58716e-09
-1.94786e-10
2.64981e-09
-1.8298e-10
2.7083e-09
-1.70802e-10
2.76252e-09
-1.58291e-10
2.81236e-09
-1.45484e-10
2.85773e-09
-1.32414e-10
2.89856e-09
-1.1911e-10
2.93476e-09
-1.05604e-10
2.96627e-09
-9.19225e-11
2.99305e-09
-7.80916e-11
3.01504e-09
-6.41363e-11
3.03222e-09
-5.00801e-11
3.04456e-09
-3.59448e-11
3.05202e-09
-2.17516e-11
3.05461e-09
-7.52152e-12
3.05231e-09
6.72471e-12
3.04513e-09
2.09659e-11
3.03308e-09
3.51805e-11
3.01618e-09
4.93472e-11
2.99444e-09
6.34439e-11
2.9679e-09
7.74483e-11
2.9366e-09
9.13369e-11
2.9006e-09
1.05084e-10
2.85994e-09
1.18664e-10
2.81471e-09
1.32046e-10
2.76499e-09
1.452e-10
2.71085e-09
1.58094e-10
2.65241e-09
1.70693e-10
2.58979e-09
1.8296e-10
2.5231e-09
1.94856e-10
2.45251e-09
2.06338e-10
2.37816e-09
2.1736e-10
2.30024e-09
2.27873e-10
2.21893e-09
2.37826e-10
2.13446e-09
2.47165e-10
2.04705e-09
2.55831e-10
1.95696e-09
2.63765e-10
1.86445e-09
2.70903e-10
1.76983e-09
2.77177e-10
1.67342e-09
2.82515e-10
1.57555e-09
2.86845e-10
1.4766e-09
2.90091e-10
1.37696e-09
2.92175e-10
1.27705e-09
2.93016e-10
1.17731e-09
2.92534e-10
1.07822e-09
2.90645e-10
9.80267e-10
2.87267e-10
8.83974e-10
2.82317e-10
7.89883e-10
2.75716e-10
6.98556e-10
2.67392e-10
6.10573e-10
2.57278e-10
5.26523e-10
2.45321e-10
4.47005e-10
2.31482e-10
3.72611e-10
2.15747e-10
3.03921e-10
1.98133e-10
2.41481e-10
1.78706e-10
1.85791e-10
1.57595e-10
1.37271e-10
1.35019e-10
9.62379e-11
1.11323e-10
6.28581e-11
8.70236e-11
3.71055e-11
6.28799e-11
1.87064e-11
3.9981e-11
7.08406e-12
1.98526e-11
1.30439e-12
4.60015e-12
-2.66569e-12
2.7546e-12
-1.87211e-13
1.21219e-11
-1.4225e-11
2.90073e-11
-3.71077e-11
5.40551e-11
-6.5468e-11
8.76502e-11
-9.69481e-11
1.29939e-10
-1.2979e-10
1.80861e-10
-1.627e-10
2.40182e-10
-1.94752e-10
3.0753e-10
-2.25297e-10
3.8243e-10
-2.53886e-10
4.64327e-10
-2.80228e-10
5.52614e-10
-3.04143e-10
6.46651e-10
-3.25535e-10
7.45777e-10
-3.44369e-10
8.49327e-10
-3.60656e-10
9.56639e-10
-3.7444e-10
1.06706e-09
-3.85789e-10
1.17996e-09
-3.94786e-10
1.29472e-09
-4.01529e-10
1.41075e-09
-4.0612e-10
1.52749e-09
-4.08667e-10
1.64439e-09
-4.09282e-10
1.76097e-09
-4.08076e-10
1.87672e-09
-4.05159e-10
1.99121e-09
-4.00642e-10
2.104e-09
-3.94629e-10
2.21471e-09
-3.87225e-10
2.32296e-09
-3.78529e-10
2.42841e-09
-3.68637e-10
2.53075e-09
-3.5764e-10
2.62968e-09
-3.45626e-10
2.72493e-09
-3.32679e-10
2.81626e-09
-3.18876e-10
2.90344e-09
-3.04293e-10
2.98626e-09
-2.88999e-10
3.06453e-09
-2.73059e-10
3.13808e-09
-2.56535e-10
3.20677e-09
-2.39486e-10
3.27044e-09
-2.21965e-10
3.32898e-09
-2.04025e-10
3.38228e-09
-1.8571e-10
3.43024e-09
-1.67067e-10
3.47277e-09
-1.48135e-10
3.5098e-09
-1.28954e-10
3.54127e-09
-1.09559e-10
3.56712e-09
-8.9988e-11
3.58731e-09
-7.02727e-11
3.60181e-09
-5.04451e-11
3.6106e-09
-3.05358e-11
3.61365e-09
-1.05743e-11
3.61096e-09
9.41012e-12
3.60254e-09
2.93877e-11
3.58839e-09
4.93281e-11
3.56854e-09
6.92004e-11
3.54301e-09
8.8973e-11
3.51185e-09
1.08614e-10
3.4751e-09
1.28089e-10
3.43282e-09
1.47363e-10
3.38508e-09
1.66399e-10
3.33197e-09
1.85155e-10
3.27358e-09
2.03589e-10
3.21002e-09
2.21653e-10
3.14142e-09
2.39299e-10
3.0679e-09
2.56475e-10
2.98963e-09
2.73125e-10
2.90678e-09
2.89191e-10
2.81953e-09
3.04608e-10
2.72809e-09
3.19308e-10
2.6327e-09
3.3322e-10
2.5336e-09
3.46266e-10
2.43107e-09
3.58368e-10
2.32539e-09
3.6944e-10
2.2169e-09
3.79395e-10
2.10593e-09
3.88141e-10
1.99287e-09
3.95579e-10
1.8781e-09
4.01609e-10
1.76207e-09
4.06126e-10
1.64522e-09
4.09025e-10
1.52804e-09
4.10197e-10
1.41104e-09
4.09532e-10
1.29477e-09
4.06919e-10
1.17979e-09
4.02249e-10
1.06669e-09
3.95413e-10
9.56094e-10
3.86311e-10
8.48641e-10
3.74846e-10
7.44982e-10
3.60939e-10
6.4578e-10
3.44523e-10
5.51701e-10
3.2556e-10
4.63405e-10
3.04042e-10
3.81532e-10
2.80005e-10
3.06688e-10
2.53551e-10
2.39422e-10
2.24862e-10
1.80205e-10
1.94237e-10
1.29402e-10
1.62126e-10
8.72395e-11
1.29186e-10
5.37687e-11
9.635e-11
2.88336e-11
6.49154e-11
1.2039e-11
3.66469e-11
2.73181e-12
1.39076e-11
6.66359e-14
4.17523e-12
-4.36249e-12
1.71346e-11
-2.71843e-11
3.93162e-11
-5.92893e-11
7.10434e-11
-9.7195e-11
1.12477e-10
-1.38381e-10
1.63606e-10
-1.80919e-10
2.24259e-10
-2.23353e-10
2.9412e-10
-2.64614e-10
3.72754e-10
-3.0393e-10
4.59627e-10
-3.40759e-10
5.54133e-10
-3.74734e-10
6.55613e-10
-4.05623e-10
7.6337e-10
-4.33293e-10
8.7669e-10
-4.57689e-10
9.94849e-10
-4.78815e-10
1.11712e-09
-4.96715e-10
1.2428e-09
-5.11466e-10
1.37118e-09
-5.2317e-10
1.5016e-09
-5.31942e-10
1.63339e-09
-5.37911e-10
1.76593e-09
-5.41211e-10
1.89863e-09
-5.41983e-10
2.03092e-09
-5.40366e-10
2.16227e-09
-5.36503e-10
2.29216e-09
-5.30534e-10
2.42013e-09
-5.22595e-10
2.54572e-09
-5.12821e-10
2.66853e-09
-5.01341e-10
2.78817e-09
-4.88278e-10
2.90429e-09
-4.73752e-10
3.01654e-09
-4.57878e-10
3.12462e-09
-4.40764e-10
3.22826e-09
-4.22516e-10
3.3272e-09
-4.03229e-10
3.4212e-09
-3.82996e-10
3.51004e-09
-3.61903e-10
3.59354e-09
-3.40033e-10
3.67151e-09
-3.1746e-10
3.7438e-09
-2.94258e-10
3.81027e-09
-2.70494e-10
3.87079e-09
-2.46231e-10
3.92526e-09
-2.21527e-10
3.97356e-09
-1.96438e-10
4.01562e-09
-1.71014e-10
4.05136e-09
-1.45306e-10
4.08073e-09
-1.19359e-10
4.10368e-09
-9.32181e-11
4.12016e-09
-6.69268e-11
4.13015e-09
-4.05261e-11
4.13364e-09
-1.4056e-11
4.1306e-09
1.24444e-11
4.12105e-09
3.89356e-11
4.105e-09
6.53775e-11
4.08247e-09
9.17286e-11
4.0535e-09
1.17946e-10
4.01813e-09
1.43987e-10
3.97641e-09
1.69805e-10
3.92842e-09
1.95354e-10
3.87424e-09
2.20582e-10
3.81395e-09
2.45437e-10
3.74768e-09
2.69861e-10
3.67554e-09
2.93791e-10
3.59768e-09
3.17163e-10
3.51425e-09
3.39907e-10
3.42542e-09
3.6195e-10
3.3314e-09
3.83212e-10
3.2324e-09
4.03611e-10
3.12865e-09
4.23057e-10
3.02041e-09
4.41455e-10
2.90797e-09
4.58704e-10
2.79164e-09
4.747e-10
2.67176e-09
4.8933e-10
2.54867e-09
5.02481e-10
2.42278e-09
5.14031e-10
2.2945e-09
5.23855e-10
2.16429e-09
5.31822e-10
2.03262e-09
5.37797e-10
1.9e-09
5.41642e-10
1.76698e-09
5.43219e-10
1.63413e-09
5.42385e-10
1.50204e-09
5.39003e-10
1.37136e-09
5.32933e-10
1.24273e-09
5.24043e-10
1.11683e-09
5.12205e-10
9.94373e-10
4.97306e-10
8.76067e-10
4.79247e-10
7.62635e-10
4.57956e-10
6.54803e-10
4.33392e-10
5.53287e-10
4.05557e-10
4.58781e-10
3.7451e-10
3.71942e-10
3.40389e-10
2.93373e-10
3.03431e-10
2.23602e-10
2.64008e-10
1.63059e-10
2.2267e-10
1.1205e-10
1.80196e-10
7.07391e-11
1.37661e-10
3.91259e-11
9.65278e-11
1.70397e-11
5.87324e-11
4.14735e-12
2.67998e-11
4.21445e-12
5.53758e-12
-9.90008e-12
2.20196e-11
-4.36663e-11
4.94464e-11
-8.67161e-11
8.7812e-11
-1.3556e-10
1.37031e-10
-1.876e-10
1.96911e-10
-2.40799e-10
2.67146e-10
-2.93588e-10
3.47318e-10
-3.44786e-10
4.36911e-10
-3.93523e-10
5.35328e-10
-4.39176e-10
6.41906e-10
-4.81312e-10
7.55932e-10
-5.19649e-10
8.76661e-10
-5.54022e-10
1.00333e-09
-5.84355e-10
1.13515e-09
-6.10642e-10
1.27137e-09
-6.3293e-10
1.41121e-09
-6.51304e-10
1.55392e-09
-6.65881e-10
1.69877e-09
-6.76798e-10
1.84507e-09
-6.84207e-10
1.99213e-09
-6.88272e-10
2.13931e-09
-6.89159e-10
2.28599e-09
-6.87044e-10
2.43158e-09
-6.82097e-10
2.57554e-09
-6.74493e-10
2.71734e-09
-6.644e-10
2.85651e-09
-6.51986e-10
2.99258e-09
-6.3741e-10
3.12513e-09
-6.20828e-10
3.25377e-09
-6.0239e-10
3.37813e-09
-5.82239e-10
3.49787e-09
-5.60512e-10
3.6127e-09
-5.37338e-10
3.72231e-09
-5.12843e-10
3.82646e-09
-4.87141e-10
3.9249e-09
-4.60343e-10
4.01742e-09
-4.32552e-10
4.10382e-09
-4.03864e-10
4.18393e-09
-3.7437e-10
4.25759e-09
-3.44157e-10
4.32467e-09
-3.13305e-10
4.38503e-09
-2.81888e-10
4.43857e-09
-2.49977e-10
4.4852e-09
-2.17639e-10
4.52483e-09
-1.84935e-10
4.55739e-09
-1.51925e-10
4.58284e-09
-1.18665e-10
4.60112e-09
-8.52116e-11
4.61221e-09
-5.16173e-11
4.61609e-09
-1.7934e-11
4.61275e-09
1.57875e-11
4.60219e-09
4.94968e-11
4.58442e-09
8.31429e-11
4.55948e-09
1.16673e-10
4.52739e-09
1.50033e-10
4.48821e-09
1.83166e-10
4.442e-09
2.16014e-10
4.38885e-09
2.48515e-10
4.32882e-09
2.80605e-10
4.26204e-09
3.12216e-10
4.18863e-09
3.43275e-10
4.10871e-09
3.73705e-10
4.02246e-09
4.0342e-10
3.93003e-09
4.32333e-10
3.83164e-09
4.60349e-10
3.72748e-09
4.87368e-10
3.61781e-09
5.13286e-10
3.50287e-09
5.37988e-10
3.38297e-09
5.61357e-10
3.25841e-09
5.83264e-10
3.12953e-09
6.03577e-10
2.99671e-09
6.22156e-10
2.86033e-09
6.38857e-10
2.72084e-09
6.53527e-10
2.57868e-09
6.6601e-10
2.43436e-09
6.76145e-10
2.28839e-09
6.83763e-10
2.14134e-09
6.88695e-10
1.99379e-09
6.90768e-10
1.84637e-09
6.89809e-10
1.69973e-09
6.85646e-10
1.55454e-09
6.78114e-10
1.41153e-09
6.67052e-10
1.27143e-09
6.5231e-10
1.13498e-09
6.33753e-10
1.00296e-09
6.1127e-10
8.76136e-10
5.84778e-10
7.55294e-10
5.54236e-10
6.41195e-10
5.19656e-10
5.34585e-10
4.81119e-10
4.36173e-10
4.38799e-10
3.46621e-10
3.92983e-10
2.6652e-10
3.44109e-10
1.96379e-10
2.92812e-10
1.36608e-10
2.39967e-10
8.7505e-11
1.86765e-10
4.92509e-11
1.34782e-10
2.19203e-11
8.60624e-11
5.50794e-12
4.32117e-11
9.7225e-12
6.82186e-12
-1.67219e-11
2.66869e-11
-6.35315e-11
5.92006e-11
-1.1923e-10
1.04038e-10
-1.80398e-10
1.60864e-10
-2.44426e-10
2.2929e-10
-3.09225e-10
3.08858e-10
-3.73156e-10
3.99036e-10
-4.34963e-10
4.99216e-10
-4.93703e-10
6.08725e-10
-5.48686e-10
7.26838e-10
-5.99426e-10
8.52789e-10
-6.456e-10
9.85781e-10
-6.87013e-10
1.125e-09
-7.23574e-10
1.26963e-09
-7.55268e-10
1.41884e-09
-7.82144e-10
1.57183e-09
-8.04296e-10
1.72781e-09
-8.21856e-10
1.88599e-09
-8.34982e-10
2.04563e-09
-8.43852e-10
2.20602e-09
-8.48657e-10
2.36646e-09
-8.49596e-10
2.52629e-09
-8.46874e-10
2.68489e-09
-8.40696e-10
2.84166e-09
-8.3127e-10
2.99606e-09
-8.18799e-10
3.14756e-09
-8.03483e-10
3.29566e-09
-7.85516e-10
3.43993e-09
-7.65089e-10
3.57992e-09
-7.42381e-10
3.71524e-09
-7.17566e-10
3.84554e-09
-6.90812e-10
3.97048e-09
-6.62276e-10
4.08975e-09
-6.3211e-10
4.20306e-09
-6.00456e-10
4.31017e-09
-5.6745e-10
4.41084e-09
-5.33217e-10
4.50485e-09
-4.97876e-10
4.59201e-09
-4.61539e-10
4.67217e-09
-4.24311e-10
4.74515e-09
-3.86292e-10
4.81084e-09
-3.47573e-10
4.86911e-09
-3.08242e-10
4.91985e-09
-2.68382e-10
4.96298e-09
-2.28069e-10
4.99843e-09
-1.87376e-10
5.02614e-09
-1.46373e-10
5.04606e-09
-1.05128e-10
5.05815e-09
-6.37087e-11
5.06239e-09
-2.21782e-11
5.05878e-09
1.93996e-11
5.04732e-09
6.09616e-11
5.02802e-09
1.02445e-10
5.0009e-09
1.43785e-10
4.96602e-09
1.84914e-10
4.92342e-09
2.25763e-10
4.87318e-09
2.66259e-10
4.81537e-09
3.06325e-10
4.7501e-09
3.45881e-10
4.67747e-09
3.84844e-10
4.59762e-09
4.23123e-10
4.5107e-09
4.60623e-10
4.41688e-09
4.97241e-10
4.31634e-09
5.32868e-10
4.2093e-09
5.67387e-10
4.096e-09
6.00675e-10
3.97668e-09
6.32602e-10
3.85164e-09
6.6303e-10
3.72118e-09
6.91814e-10
3.58564e-09
7.188e-10
3.4454e-09
7.43824e-10
3.30084e-09
7.66717e-10
3.1524e-09
7.87301e-10
3.00053e-09
8.05392e-10
2.84574e-09
8.20801e-10
2.68855e-09
8.33332e-10
2.52953e-09
8.42784e-10
2.36927e-09
8.48953e-10
2.20841e-09
8.51632e-10
2.0476e-09
8.50614e-10
1.88755e-09
8.45697e-10
1.72899e-09
8.36682e-10
1.57266e-09
8.23383e-10
1.41934e-09
8.05625e-10
1.26984e-09
7.83255e-10
1.12496e-09
7.56144e-10
9.85537e-10
7.24203e-10
8.52385e-10
6.87389e-10
7.26319e-10
6.45723e-10
6.08134e-10
5.99304e-10
4.98596e-10
5.48337e-10
3.98426e-10
4.93151e-10
3.08292e-10
4.34242e-10
2.28796e-10
3.72308e-10
1.60463e-10
3.08301e-10
1.03742e-10
2.43487e-10
5.90088e-11
1.79515e-10
2.65884e-11
1.18483e-10
6.79231e-12
6.30073e-11
1.65145e-11
8.02026e-12
-2.47421e-11
3.10902e-11
-8.66014e-11
6.8466e-11
-1.56606e-10
1.19526e-10
-2.31458e-10
1.83687e-10
-3.08587e-10
2.60365e-10
-3.85902e-10
3.48942e-10
-4.61733e-10
4.48758e-10
-5.34779e-10
5.59104e-10
-6.04049e-10
6.79226e-10
-6.68808e-10
8.08329e-10
-7.2853e-10
9.4559e-10
-7.82861e-10
1.09016e-09
-8.31584e-10
1.24118e-09
-8.74594e-10
1.39779e-09
-9.11873e-10
1.55912e-09
-9.43473e-10
1.72432e-09
-9.695e-10
1.89257e-09
-9.90101e-10
2.06304e-09
-1.00546e-09
2.23496e-09
-1.01577e-09
2.40756e-09
-1.02126e-09
2.58012e-09
-1.02216e-09
2.75195e-09
-1.0187e-09
2.92239e-09
-1.01114e-09
3.09082e-09
-9.99695e-10
3.25664e-09
-9.84621e-10
3.4193e-09
-9.6615e-10
3.5783e-09
-9.44511e-10
3.73314e-09
-9.19927e-10
3.88337e-09
-8.92613e-10
4.02858e-09
-8.62776e-10
4.16838e-09
-8.30613e-10
4.30242e-09
-7.96312e-10
4.43036e-09
-7.60054e-10
4.55191e-09
-7.22008e-10
4.6668e-09
-6.82336e-10
4.77477e-09
-6.4119e-10
4.87561e-09
-5.98711e-10
4.9691e-09
-5.55033e-10
5.05507e-09
-5.10282e-10
5.13336e-09
-4.64577e-10
5.20381e-09
-4.18028e-10
5.26631e-09
-3.70741e-10
5.32075e-09
-3.22815e-10
5.36702e-09
-2.74343e-10
5.40506e-09
-2.25413e-10
5.43479e-09
-1.76109e-10
5.45618e-09
-1.26513e-10
5.46917e-09
-7.67037e-11
5.47375e-09
-2.67601e-11
5.46991e-09
2.3241e-11
5.45765e-09
7.32231e-11
5.43699e-09
1.2311e-10
5.40795e-09
1.72823e-10
5.37058e-09
2.22283e-10
5.32493e-09
2.71405e-10
5.27109e-09
3.20103e-10
5.20913e-09
3.68283e-10
5.13917e-09
4.15848e-10
5.06132e-09
4.62698e-10
4.97572e-09
5.08723e-10
4.88253e-09
5.5381e-10
4.78193e-09
5.97836e-10
4.67413e-09
6.4067e-10
4.55934e-09
6.82172e-10
4.43782e-09
7.22194e-10
4.30985e-09
7.60579e-10
4.17572e-09
7.97165e-10
4.03576e-09
8.31775e-10
3.89033e-09
8.64228e-10
3.73982e-09
8.9433e-10
3.58466e-09
9.21878e-10
3.42529e-09
9.46663e-10
3.26222e-09
9.68465e-10
3.09597e-09
9.87059e-10
2.92708e-09
1.00222e-09
2.75617e-09
1.0137e-09
2.58385e-09
1.02127e-09
2.4108e-09
1.02468e-09
2.23772e-09
1.0237e-09
2.06533e-09
1.01808e-09
1.89441e-09
1.00761e-09
1.72574e-09
9.9205e-10
1.56015e-09
9.71218e-10
1.39847e-09
9.44935e-10
1.24155e-09
9.13058e-10
1.09027e-09
8.75487e-10
9.45484e-10
8.32176e-10
8.08057e-10
7.83151e-10
6.78835e-10
7.28527e-10
5.58642e-10
6.6853e-10
4.48268e-10
6.03524e-10
3.48464e-10
5.34045e-10
2.59932e-10
4.60839e-10
1.83325e-10
3.84908e-10
1.19252e-10
3.07562e-10
6.82853e-11
2.30483e-10
3.09962e-11
1.55772e-10
7.99192e-12
8.60114e-11
2.45058e-11
9.13129e-12
-3.38732e-11
3.52091e-11
-1.12679e-10
7.71839e-11
-1.98581e-10
1.34162e-10
-2.88436e-10
2.05327e-10
-3.79753e-10
2.89899e-10
-4.70473e-10
3.87097e-10
-5.58931e-10
4.96131e-10
-6.43812e-10
6.16183e-10
-7.24101e-10
7.4641e-10
-7.99035e-10
8.85945e-10
-8.68065e-10
1.0339e-09
-9.30818e-10
1.18938e-09
-9.87062e-10
1.35147e-09
-1.03669e-09
1.51927e-09
-1.07967e-09
1.69188e-09
-1.11608e-09
1.86841e-09
-1.14603e-09
2.04799e-09
-1.16968e-09
2.22977e-09
-1.18725e-09
2.41295e-09
-1.19895e-09
2.59673e-09
-1.20504e-09
2.78035e-09
-1.20578e-09
2.9631e-09
-1.20145e-09
3.14428e-09
-1.19232e-09
3.32325e-09
-1.17866e-09
3.49939e-09
-1.16076e-09
3.67213e-09
-1.13889e-09
3.84092e-09
-1.1133e-09
4.00526e-09
-1.08427e-09
4.16468e-09
-1.05203e-09
4.31875e-09
-1.01684e-09
4.46705e-09
-9.78913e-10
4.60921e-09
-9.38478e-10
4.7449e-09
-8.95743e-10
4.87379e-09
-8.50905e-10
4.99561e-09
-8.04155e-10
5.11009e-09
-7.55669e-10
5.217e-09
-7.05616e-10
5.31612e-09
-6.54151e-10
5.40726e-09
-6.01422e-10
5.49025e-09
-5.47568e-10
5.56494e-09
-4.92719e-10
5.6312e-09
-4.36999e-10
5.68891e-09
-3.80525e-10
5.73797e-09
-3.23407e-10
5.77831e-09
-2.65749e-10
5.80985e-09
-2.0765e-10
5.83254e-09
-1.49206e-10
5.84635e-09
-9.05093e-11
5.85124e-09
-3.16528e-11
5.84721e-09
2.72727e-11
5.83425e-09
8.61766e-11
5.8124e-09
1.44968e-10
5.78167e-09
2.03554e-10
5.74211e-09
2.61842e-10
5.69378e-09
3.19732e-10
5.63676e-09
3.77123e-10
5.57113e-09
4.33905e-10
5.49702e-09
4.89963e-10
5.41454e-09
5.45178e-10
5.32385e-09
5.99421e-10
5.2251e-09
6.52558e-10
5.11849e-09
7.04446e-10
5.00423e-09
7.5493e-10
4.88255e-09
8.03849e-10
4.75372e-09
8.51027e-10
4.61801e-09
8.96282e-10
4.47576e-09
9.39419e-10
4.3273e-09
9.80235e-10
4.17301e-09
1.01852e-09
4.0133e-09
1.05404e-09
3.84861e-09
1.08657e-09
3.67942e-09
1.11585e-09
3.50624e-09
1.14165e-09
3.32962e-09
1.16368e-09
3.15014e-09
1.1817e-09
2.96842e-09
1.19541e-09
2.78513e-09
1.20456e-09
2.60095e-09
1.20886e-09
2.41662e-09
1.20803e-09
2.23291e-09
1.2018e-09
2.0506e-09
1.18991e-09
1.87053e-09
1.17213e-09
1.69354e-09
1.14821e-09
1.52051e-09
1.11796e-09
1.35233e-09
1.08123e-09
1.18991e-09
1.03791e-09
1.03415e-09
9.87932e-10
8.85972e-10
9.31335e-10
7.46265e-10
8.68237e-10
6.15918e-10
7.98879e-10
4.95795e-10
7.23647e-10
3.86734e-10
6.43105e-10
2.89547e-10
5.58025e-10
2.0502e-10
4.69434e-10
1.3392e-10
3.78661e-10
7.70205e-11
2.87383e-10
3.51224e-11
1.97671e-10
9.10484e-12
1.12029e-10
3.36102e-11
1.01568e-11
-4.403e-11
3.90387e-11
-1.41561e-10
8.53297e-11
-2.44872e-10
1.4789e-10
-3.50997e-10
2.25687e-10
-4.5755e-10
3.17749e-10
-5.62536e-10
4.23138e-10
-6.64321e-10
5.40928e-10
-7.61602e-10
6.7019e-10
-8.53362e-10
8.09989e-10
-9.38834e-10
9.59381e-10
-1.01746e-09
1.11741e-09
-1.08885e-09
1.28313e-09
-1.15278e-09
1.45558e-09
-1.20913e-09
1.63381e-09
-1.2579e-09
1.81688e-09
-1.29915e-09
2.00388e-09
-1.33303e-09
2.19391e-09
-1.3597e-09
2.38608e-09
-1.37942e-09
2.57955e-09
-1.39242e-09
2.77352e-09
-1.399e-09
2.96719e-09
-1.39945e-09
3.15982e-09
-1.39408e-09
3.35071e-09
-1.3832e-09
3.53917e-09
-1.36713e-09
3.72459e-09
-1.34618e-09
3.90635e-09
-1.32065e-09
4.0839e-09
-1.29086e-09
4.25672e-09
-1.25709e-09
4.42432e-09
-1.21963e-09
4.58625e-09
-1.17877e-09
4.74209e-09
-1.13475e-09
4.89146e-09
-1.08785e-09
5.034e-09
-1.03828e-09
5.16938e-09
-9.86291e-10
5.29732e-09
-9.3209e-10
5.41753e-09
-8.75884e-10
5.52978e-09
-8.17865e-10
5.63385e-09
-7.58216e-10
5.72954e-09
-6.97105e-10
5.81666e-09
-6.34694e-10
5.89507e-09
-5.71131e-10
5.96463e-09
-5.0656e-10
6.02522e-09
-4.41115e-10
6.07674e-09
-3.74924e-10
6.1191e-09
-3.08107e-10
6.15223e-09
-2.4078e-10
6.17608e-09
-1.73054e-10
6.1906e-09
-1.05036e-10
6.19578e-09
-3.68304e-11
6.19159e-09
3.14566e-11
6.17805e-09
9.972e-11
6.15517e-09
1.67854e-10
6.12297e-09
2.35752e-10
6.08151e-09
3.03303e-10
6.03085e-09
3.70395e-10
5.97106e-09
4.3691e-10
5.90224e-09
5.02722e-10
5.8245e-09
5.677e-10
5.73798e-09
6.31702e-10
5.64282e-09
6.94582e-10
5.5392e-09
7.56182e-10
5.42731e-09
8.16337e-10
5.30736e-09
8.74872e-10
5.17961e-09
9.31597e-10
5.04432e-09
9.86314e-10
4.9018e-09
1.03881e-09
4.75235e-09
1.08886e-09
4.59636e-09
1.13623e-09
4.4342e-09
1.18068e-09
4.26629e-09
1.22195e-09
4.09309e-09
1.25976e-09
3.91511e-09
1.29384e-09
3.73286e-09
1.32389e-09
3.54692e-09
1.34963e-09
3.35789e-09
1.37073e-09
3.16641e-09
1.3869e-09
2.97316e-09
1.39781e-09
2.77886e-09
1.40315e-09
2.58427e-09
1.40261e-09
2.39018e-09
1.39589e-09
2.19741e-09
1.38269e-09
2.00681e-09
1.36272e-09
1.81927e-09
1.33575e-09
1.6357e-09
1.30154e-09
1.45701e-09
1.25992e-09
1.28416e-09
1.21076e-09
1.11809e-09
1.154e-09
9.59765e-10
1.08966e-09
8.10138e-10
1.01786e-09
6.70161e-10
9.38857e-10
5.40777e-10
8.53033e-10
4.22915e-10
7.60967e-10
3.17499e-10
6.6344e-10
2.25448e-10
5.61484e-10
1.47691e-10
4.56417e-10
8.51893e-11
3.49886e-10
3.89618e-11
2.43899e-10
1.01327e-11
1.40859e-10
4.3743e-11
1.11005e-11
-5.51306e-11
4.25831e-11
-1.73043e-10
9.29e-11
-2.95188e-10
1.60691e-10
-4.18788e-10
2.44722e-10
-5.4158e-10
3.43842e-10
-6.61656e-10
4.56959e-10
-7.77438e-10
5.83013e-10
-8.87656e-10
7.20964e-10
-9.91312e-10
8.6978e-10
-1.08765e-09
1.02844e-09
-1.17611e-09
1.19592e-09
-1.25633e-09
1.37121e-09