/*--------------------------------*- C++ -*----------------------------------*\
  =========                 |
  \\      /  F ield         | OpenFOAM: The Open Source CFD Toolbox
   \\    /   O peration     | Website:  https://openfoam.org
    \\  /    A nd           | Version:  7
     \\/     M anipulation  |
\*---------------------------------------------------------------------------*/
FoamFile
{
    version     2.0;
    format      ascii;
    class       volScalarField;
    location    "0.862";
    object      p;
}
// * * * * * * * * * * * * * * * * * * * * * * * * * * * * * * * * * * * * * //

dimensions      [0 2 -2 0 0 0 0];

internalField   nonuniform List<scalar> 
12359
(
0.0617911
0.0710991
0.0453445
0.104237
0.0654969
0.151495
0.183422
0.165595
0.222966
0.13917
0.204071
0.272692
0.485819
0.111203
0.0993054
0.394645
0.438566
0.0498781
0.0494962
0.0842151
0.120303
0.248031
0.0775726
0.0896339
0.0738916
0.0804444
0.0465366
0.04639
0.0487879
0.0470366
0.0474673
0.0458775
0.04553
0.0468177
0.0453844
0.0476605
0.0551447
0.0601544
0.0637387
0.0575736
0.0690523
0.058774
0.0526679
0.0519717
0.0481458
0.0484733
0.0479108
0.0472709
0.0491148
0.0466538
0.0462563
0.0461164
0.0457888
0.0502784
0.045714
0.0455542
0.0513324
0.0455055
0.0454896
0.0454332
0.0455956
0.0453736
0.0461667
0.5124
0.0508155
0.129065
0.054308
0.0460284
0.0558847
0.343547
0.53028
0.0671172
0.0453376
0.0566825
0.094993
0.0453848
0.0457825
0.0453575
0.0535233
0.313184
0.122238
0.0409043
0.0443326
0.0472884
-0.0626033
0.0209925
0.0407812
0.0427627
-0.0720291
-0.056817
0.0451143
0.468851
0.0450717
0.0453643
0.0458273
0.0022921
0.0447913
0.0454549
0.0549649
0.0512926
0.10414
0.0452354
0.0213575
-0.128668
0.0395815
0.0111284
0.044043
-0.0604085
0.0253908
0.0116105
0.0448837
0.0410212
0.106927
0.0879279
0.0462453
0.0412238
0.0896371
0.0399611
-0.0780719
0.0443772
0.044988
0.172863
0.0425759
0.0038897
0.0397054
0.0408884
0.0350423
0.0471739
0.045348
0.0395224
0.0415398
-0.00276078
-0.00419013
-0.00289892
0.0441053
0.0050587
0.0412997
0.00490506
0.0452627
0.0357063
0.0445318
0.063287
0.0124659
0.0440766
0.00644989
0.143769
0.0443395
-0.0491825
0.0394465
0.124744
0.0015091
0.0452474
0.0125545
0.0425074
0.0450149
-0.172846
0.104996
-0.0018456
0.0449121
0.0459558
0.0428465
0.046006
0.00277262
0.00974306
0.0443094
0.0409882
0.0439997
0.171218
0.0113948
-0.0739072
0.0453604
0.0453808
0.00990771
0.0739992
0.0396295
0.0391645
0.048782
0.0485827
0.108548
0.0397454
0.111523
0.0449925
0.0453506
0.0406353
0.0538686
0.205398
0.0405735
0.044991
0.00111347
0.0403643
0.0452348
0.00158181
0.0045111
0.0424116
0.0104063
-0.138567
0.0300037
0.0414251
0.0131661
0.0400925
0.14783
0.000683972
0.0523587
0.0111856
0.00964346
0.0449681
0.00862783
0.0530182
0.00141201
0.0393016
0.0446929
5.99476e-05
-3.54125e-05
-0.540736
0.200569
0.0452682
0.0409413
0.0462026
0.0408124
0.0641352
0.0979041
0.039272
0.0037593
0.471257
0.0394488
0.0446691
0.0647741
0.0264692
0.0428086
0.0422001
0.0420182
0.0443146
0.00723021
0.0526575
0.0444802
0.0517729
0.0443692
0.0120772
0.0446643
0.288661
0.0442735
0.019076
0.0447703
0.0518379
0.0418739
-0.0505457
0.0454687
0.00130922
0.0396517
0.00559395
0.00122364
0.0595407
0.0482092
0.0425032
0.325685
-0.596594
0.0443853
0.0391629
0.398981
-0.0505207
0.0519888
0.0428556
0.0426981
0.0102392
0.0722023
-0.46902
-0.0709977
0.0416535
0.0394265
0.00522046
0.0100986
0.0577278
0.0115151
0.0426315
0.0392453
0.0443027
0.0393009
-0.118453
0.0406188
0.0439351
0.0452207
0.00966091
0.0372951
0.054432
0.0196397
0.044459
0.0447553
0.0452421
0.0452225
0.0459164
0.00277786
0.0404948
-0.466038
0.0440435
0.044053
0.0217964
0.0399091
0.0973959
0.0458264
0.0463099
0.0451357
-0.108968
0.0418029
0.0451366
0.0412085
0.0455079
0.0394528
0.0408414
0.0414207
0.0400357
0.049873
0.202348
0.0392325
0.0475639
0.060187
0.0199098
-0.0580747
0.0387994
0.0557126
0.369315
0.0452123
0.0166888
0.043877
0.0302404
0.044056
0.0385093
0.223061
0.0160167
0.201819
0.053994
0.0444137
0.00426973
0.00106815
0.0443657
0.00365353
0.0043901
0.0435977
0.045679
0.045672
0.0457328
0.0457247
0.286432
0.0444363
0.102321
0.000173612
0.052645
0.0110278
0.0160903
0.0225291
0.0310447
0.015253
0.0315894
0.054634
0.0177728
0.0191469
0.0892989
0.0641582
0.0121319
0.0623009
0.0621766
0.013742
0.101711
0.041417
0.0457642
0.0285135
0.0457254
0.0412047
-0.195477
0.499876
0.0413932
0.0453048
0.0441189
0.0448668
0.0151045
0.0450215
0.0450022
-0.078059
0.010132
-0.0523487
0.0432537
0.00812319
0.0373839
0.0450544
0.0134466
0.0282942
0.107638
0.0284775
0.0416459
0.0439004
0.00961337
0.0077532
0.0388004
0.291713
0.0132993
0.00221957
0.047315
0.0442456
0.0452802
0.38581
0.0105612
0.0433861
0.0594916
0.06124
0.0445538
0.0445192
0.0448014
-0.0613279
0.0955011
0.056857
0.0154979
0.000558379
0.0459005
0.1115
0.0468251
-0.000238787
-0.0625136
0.297248
0.0515701
0.0889845
0.0254375
0.0196325
0.0329102
0.0281987
0.0471031
0.0328508
0.0129412
0.0450289
-0.0505123
0.0549854
-0.00616611
0.0066253
0.0517464
0.0932675
-0.152278
0.0147556
0.0366931
0.000316723
0.00633039
0.0165593
0.0402046
0.0447402
0.0498845
0.0440595
-0.00341481
0.0414881
0.0802058
0.0827045
0.0344549
-0.058321
0.102094
0.0509894
0.0437952
0.386947
0.0436529
0.0431639
0.0031336
0.0453086
0.0436728
0.0431303
0.232844
0.204494
0.046897
0.0427965
0.107162
0.0456542
0.0157406
0.0125909
0.0107383
0.0435914
0.0448512
0.0453251
0.045149
0.0823153
0.0163928
0.0195144
0.0483786
0.0492109
0.000723747
0.0471928
0.0437357
0.0386904
0.118139
0.00252721
0.0452494
0.0451369
0.00913121
0.0279664
0.04604
0.0410954
0.109377
0.0150498
0.00545003
0.0183238
0.0435139
0.0439118
-0.00771719
-0.00461228
0.0451417
0.0340144
0.0466524
0.00217148
0.281556
0.0447791
0.0417168
0.0436422
0.0121342
0.0508612
0.0499037
0.0411293
0.0467606
0.0273546
0.0728268
0.0361231
-0.0385004
0.0439719
-0.0432748
0.0428585
-0.124263
0.0147235
-0.00483176
0.0454863
0.0481898
0.0193025
0.0406163
0.0462427
0.0530325
0.0511453
0.0513619
0.0678235
0.011674
0.0112231
0.0443506
0.040322
0.0161706
-0.00365409
0.0443555
0.0439186
0.00938342
0.043613
0.223118
-0.156128
-0.104716
0.044355
0.0383016
0.000698472
0.0501289
0.0399196
0.456311
0.0439814
0.111022
0.0855755
0.0381356
0.0399256
0.0463684
0.0348691
3.59077e-05
0.0274972
0.0485024
0.0443915
0.0453496
0.050753
0.0488028
0.0524213
0.0117011
0.0459607
0.0439652
0.0180819
-0.0782191
0.0474283
-0.000140114
0.0441555
0.0490205
0.0916929
0.000875127
0.0012685
0.0934813
0.0430664
0.000901949
0.0445973
0.045422
0.00107468
0.0342298
0.0424685
0.0342096
0.0449273
0.0439349
0.0403852
0.0464564
0.00102021
0.100323
0.055346
0.11498
0.0132043
0.0367168
0.110019
0.0597731
-0.00502448
0.0108576
0.0608607
0.0514682
0.0454348
0.0349632
0.0183249
0.0443434
0.0453201
0.043572
0.0454795
-0.0181223
0.0344549
0.0316666
0.102046
0.0532786
0.232965
0.00212185
0.000800724
0.0401567
-0.00353421
0.0449092
0.0474287
0.0442818
0.102422
0.111679
0.0433217
0.027727
0.228901
0.0131141
0.00335649
0.0355371
0.0616522
-0.131666
0.043225
0.0466629
0.0449487
-0.0123061
0.0465418
0.0283493
-0.0579844
0.0439587
0.0740436
0.0543552
0.0383687
0.0476845
0.0436331
0.0457853
0.0504593
0.0458379
0.0457165
0.0497239
0.00415632
0.00763455
0.0384217
0.329804
0.000602536
0.417863
0.0143331
0.0202268
0.050145
0.0156575
0.053605
0.00238454
0.315873
0.0954515
0.0528645
0.0407648
0.0501693
0.0487654
0.0189331
0.0447373
-0.00626296
0.0458835
0.0962811
0.0454579
-0.0162805
0.00600023
0.00915342
0.0532637
0.0359894
0.00641428
0.0744787
0.00306562
0.0375774
0.00107175
0.0401153
0.044406
0.0469508
-0.213041
0.0677828
0.0385464
0.0442948
0.0460744
0.0508099
0.0795852
0.00739833
0.0135043
0.0436128
0.0399687
0.052329
0.0384392
0.0364402
0.000200984
0.0517272
0.0544581
0.00726801
0.0397936
0.0370826
0.100673
0.0443518
0.0519675
-0.267581
0.0454699
0.0052118
0.0482975
0.0374715
0.0859202
0.00782896
0.0478367
0.0164157
0.0451424
0.108549
0.0391336
0.00629911
0.00888014
0.109735
0.0449992
0.000554151
-0.00646966
0.0535161
0.0392684
0.040061
0.0334457
0.234038
0.0495855
0.0452806
0.0517696
0.0450442
-0.129729
0.0389543
0.0077418
0.0286766
0.0131929
0.52133
0.0389185
-0.0596376
0.00793399
-0.0859041
0.0154866
0.0483383
0.0388952
0.028381
-0.0507558
-0.0387486
0.0429669
0.0426552
0.115674
0.0420863
0.208067
0.0174428
0.0665626
0.0404116
0.389389
-0.10683
0.0394998
0.0444131
0.0448186
0.0907292
0.050878
0.0555659
0.0482927
0.0121828
0.0738633
-0.0223373
0.348132
0.0436276
0.0797661
0.0116875
0.117308
0.0405942
0.111602
0.00554952
0.0919223
0.0479265
0.0443002
0.00751713
0.00488004
0.0146608
0.114973
0.0101744
0.0203655
0.0481004
0.0443774
0.0354511
0.244397
0.0354319
0.0095849
0.0634302
0.0168973
0.0335975
0.0490172
-0.00564834
0.0294393
0.0400834
-0.0110206
0.0549389
0.0231671
0.194849
0.0443913
0.0292032
0.046886
0.0529012
0.0410832
0.0476213
0.0443472
-0.00114381
0.0384834
0.0741482
0.0100663
0.0918609
0.0278754
0.0283366
0.00817201
-0.194423
0.0454522
0.0522663
0.0203136
-0.0723523
0.0052767
0.0449012
0.50924
0.0443164
0.0395232
-0.164009
0.0507217
0.0452754
0.0453647
0.062
0.0864824
0.0454801
0.0518773
0.10537
0.0474183
0.049688
0.0487056
0.0432382
0.0876765
-0.0190267
0.0506207
0.113335
0.00764568
0.00254159
0.0027095
0.0127564
0.0486631
0.0394318
-0.0435532
0.00335623
0.0696229
0.0440726
0.0455056
0.114627
-0.00346368
0.0303095
0.034147
0.0299888
0.0482442
0.0394534
0.0808097
-0.236915
0.364461
0.0792934
0.0464849
0.0393758
0.0764621
0.351696
0.107631
0.0449243
-0.0015838
-0.0146564
-0.249522
0.0330736
-0.161278
0.045477
0.0486044
0.0455219
0.00379753
0.0714325
-0.164898
0.0388524
-0.088457
0.0418669
0.0470168
0.00837356
0.0501158
-0.000823803
-0.043595
0.0515543
0.0328433
0.0211481
0.0335311
0.0513716
0.0724036
0.069384
0.02768
0.0760432
0.0515418
0.045568
0.0492125
0.0461203
0.101201
0.0190795
-0.00941502
0.000484497
0.0823924
0.0217819
0.020075
0.0392899
-0.0138021
0.0310626
0.0508222
0.0449642
-0.00215569
0.105394
0.0388739
0.0376041
0.0526887
0.0206889
0.0997281
0.112227
0.0206023
0.248573
0.0194092
0.0835454
-0.040783
0.0497678
0.0153325
0.00905727
0.0423782
0.030827
0.0360296
0.0406612
0.0445911
0.0410949
-0.0160296
-0.00346445
0.0402839
-0.147128
0.0968077
0.0460111
0.0480994
-7.67218e-05
0.0459055
0.074534
0.0111761
0.0023125
0.0458403
0.048363
0.0449467
0.0459043
0.114901
-0.139875
0.0461291
0.0540769
0.0443642
-0.148091
0.0188152
0.0119608
0.0440582
0.0460195
0.0486018
0.021928
0.0820251
0.0252018
0.0437536
0.0487373
0.0457847
0.0183759
0.081576
0.0358106
0.0453117
0.027611
0.0223693
0.071771
0.0405849
-0.0188977
0.141992
0.0423309
0.0296729
0.0485288
0.0400473
-0.183713
0.0513556
0.0460598
0.00844704
0.101578
0.0787517
-0.141687
0.0726037
0.0319102
0.024619
0.0526142
0.0364491
0.0316152
0.051882
0.14372
0.046485
-0.341143
0.0798953
0.177452
0.0364055
-0.00576447
0.0926329
-0.00274759
0.260127
0.00514677
0.0219123
0.030793
0.0354222
0.044323
0.0403351
0.0847813
0.000333314
0.0520402
0.0423518
0.00432617
0.0143181
0.00420886
0.0768313
-0.00125513
0.00387808
0.0442232
0.0673702
-0.0510846
0.0841959
0.0442974
0.0321333
0.0494154
0.0443153
0.0658651
0.0454607
0.0404184
0.242761
0.0886587
-0.0190707
0.0455043
0.0450369
0.0450621
0.0521409
0.0493819
-0.00294911
0.0495166
0.0449324
-0.01937
0.0188692
0.00234198
0.0654148
0.0472215
0.0379714
0.088439
0.0313771
0.0455352
-0.043826
0.00793562
0.107902
0.045937
-0.241682
0.0941103
0.0472433
0.00178507
0.0351839
-0.0183402
0.0326238
-0.000610344
0.0908384
0.0463292
0.0472773
0.0184806
0.0360727
0.0508385
-0.00907027
0.0508922
0.0510119
0.0934465
0.0419003
0.0489463
0.0323591
0.00687769
0.0469492
0.0509509
0.0491237
0.0441998
0.0928895
-0.0433785
0.023161
0.0521967
0.050119
0.0378473
0.0446385
-0.195865
0.0758708
0.045237
0.0677418
0.0379408
0.0961621
0.150162
0.000329107
0.0510758
0.00310387
-0.0040519
0.0440316
0.0372864
-0.00277203
0.0398115
0.0452937
0.0690314
0.0242963
0.0498707
0.0453233
0.0381635
0.0809988
0.0459529
0.0286558
0.0454715
0.0358248
0.0636021
0.127916
0.0448348
-0.204771
0.0767213
0.0131574
-0.124458
0.0892082
0.0285386
-0.0332912
0.0526799
0.137489
0.204753
0.0500282
0.0406753
0.040557
0.047696
0.0495189
0.00505519
-0.082339
-0.151754
0.00675098
0.145361
-0.00685393
0.00808419
-0.0559893
0.0448099
0.0479426
0.0447205
0.0217738
0.0448836
0.00637581
0.0332194
-0.00840619
0.044424
0.0480805
0.0425369
-0.155234
0.115742
0.0748512
0.0576357
0.118213
0.0408003
0.0460376
-0.0186412
0.0330263
-0.0151937
0.00565225
0.0185181
0.00231396
0.0120861
0.0530577
0.0442573
0.0447115
-0.127815
0.0384651
0.0365909
0.0502908
0.000408235
0.0155439
0.0448831
0.0166389
-0.0159807
-0.000181078
0.0910253
0.049729
0.0451514
0.003041
0.0523489
0.0448572
-0.00300065
0.00539612
0.0489845
0.134952
0.000257227
0.0450123
0.0452418
0.0441794
0.103483
-0.140513
0.0377343
0.00802707
0.0482573
0.0491037
0.00789726
0.0451996
0.176694
0.0119398
-0.0511963
0.15096
0.0269987
0.0445752
0.0446386
0.0299563
0.0525157
0.0443638
-0.183207
0.00338473
0.040826
0.215863
0.0980866
0.0388689
0.0443537
0.0453301
0.0497697
-0.0765792
0.158423
0.030258
0.0740397
0.0631172
0.00420107
-0.0816299
0.0207307
0.0505978
0.0494766
0.0138578
0.0372588
0.0436111
0.0476248
0.00189302
0.0493806
0.0294847
0.0513408
0.078289
-0.0132331
0.042825
0.0477343
-0.00559298
0.00195579
0.0548235
0.0473391
0.0732564
-0.000701132
0.0362016
0.0145745
0.0706311
0.0129594
-0.0339388
0.0495209
0.15595
0.0443433
0.101264
-0.0021339
0.0451892
0.0447531
0.372825
0.0455347
0.0523613
0.0233258
0.0505919
0.0507513
0.0538882
0.0454118
0.0450471
0.000136589
-0.0284022
0.0428327
0.333861
0.0339933
0.0473836
0.23215
0.0954822
0.0518976
0.0416159
0.0471084
0.0848252
-0.275735
0.0504642
0.0427241
0.0443098
0.047744
0.0601725
0.0136932
0.049968
0.0607168
0.0485971
-0.157792
-0.00831591
0.00519141
0.106561
0.0337168
0.0474778
0.00275972
-0.122308
0.0493932
0.0445366
0.0473994
0.0436412
0.050536
0.0439528
-0.00427146
0.0413185
0.0393464
0.316914
-0.00129727
-0.00677542
0.00240647
0.050368
5.93979e-05
0.0830726
-0.0925394
0.0434989
0.00799628
0.045184
0.236701
0.0444249
0.0452018
0.0270474
0.0443541
0.0227567
0.0552955
0.0506482
0.0433992
-0.095029
0.0842728
0.00821619
0.0477083
0.0324261
-0.0548083
-0.00934418
0.0753888
0.0714723
0.0459022
0.0515556
0.0410573
0.0475848
0.0428411
0.0476454
0.086528
0.0714449
0.0050027
-0.10798
0.0203283
-0.0109479
0.0294723
-0.112428
0.0438829
-0.0320587
0.0474871
-0.0153042
-0.00787884
0.0220818
0.0452197
0.0262578
0.00836403
0.0285952
-0.00617378
0.230553
-0.106834
0.0474603
-0.00456217
0.0431519
-0.00701889
0.0877338
0.00126924
0.0404402
0.0536888
0.00711141
0.0483646
0.0328895
0.0456436
0.0420237
0.0445044
0.0515362
0.00469045
0.000825038
0.0448777
0.080512
-0.0865636
0.482993
0.0441252
0.0698371
0.0208887
0.190785
0.0282914
-0.183594
-0.0377237
0.0431678
0.0213618
0.0627177
0.173618
0.0454398
0.0641487
0.074764
0.0425339
-0.0897185
-0.00598989
0.0473854
0.0220232
-0.0353631
0.0729324
-0.091593
0.0344898
0.0761612
0.0503852
0.0441078
0.0518842
0.0408658
-0.0774924
-0.000490632
-0.0671807
0.0459279
-0.0852983
0.0267466
0.00112148
0.107302
0.0217636
0.0244282
-0.0573409
0.0343129
0.033956
0.00380626
0.0659785
0.0228117
0.00645386
0.0660845
-0.0933292
0.081834
0.0312446
0.0853779
0.0457967
0.109485
-0.000432854
0.097527
0.0495047
-0.0383839
0.044883
0.0304307
0.00562668
-0.00113837
0.0534032
0.00436005
0.0417398
0.505228
0.0513208
0.00351655
0.0876949
-0.000244236
0.00531381
0.0455782
0.0281715
0.0445767
0.46198
0.0449565
0.0447347
0.0441837
-0.0162217
0.0394215
0.0408544
-0.0103004
0.0244848
0.0605331
0.0396978
0.0445575
0.103418
0.0428327
0.100353
0.00508037
0.0822028
0.0352556
0.0380208
0.0226989
-0.0154069
0.00699266
0.0397177
0.533365
0.0449324
0.0446347
0.0517418
-0.141312
0.0495006
0.0272044
0.0751076
0.0493519
0.0376976
0.00101119
-0.0250124
0.0301378
-0.0487542
0.0502858
0.0412728
0.0113823
0.0160302
-0.000679143
0.0474062
0.0214969
0.0681662
0.191442
0.0336172
0.0448025
0.0417954
0.174936
0.0453099
0.0453198
-0.0374864
0.0288974
-0.0433362
0.0377096
0.0444285
0.185724
-0.016086
0.0395654
0.0506659
0.0427561
-0.112396
0.0453235
0.0305216
-0.02968
0.0453223
0.0445448
0.00709782
0.0441071
0.0453323
0.0102909
0.0476515
0.044628
0.018635
0.0442364
-0.0155923
0.0444163
0.0553025
0.116386
0.00622477
0.0453356
0.00307681
-0.175648
0.0377349
0.0704641
0.0422135
0.0311634
0.0431002
-0.0201379
-0.0076994
0.0416822
0.0445385
0.128009
0.0268056
0.0122356
0.00798547
0.126808
0.0441371
0.00387222
0.0445201
-0.0217488
-0.00823623
-0.00604955
0.00599849
0.152978
-0.0897084
0.00395229
0.00737673
0.0446658
0.0478516
-0.000924243
0.132156
0.0952017
0.0299489
-0.077116
0.0439065
-0.0657377
0.204159
0.0444854
-0.00966347
-0.015844
0.0767954
0.00537021
0.0046423
0.0689499
0.0447122
-0.0143397
-0.0671101
0.260142
0.0504779
0.0015044
-0.0330553
0.139217
0.0469048
0.0445217
0.0043256
-0.055432
0.0371487
0.0654456
0.0448067
0.0441284
0.053407
0.0501688
0.0221119
0.0509834
0.044481
-0.018186
0.03245
-0.0281389
0.0125845
0.0448436
0.0445648
0.138798
0.0499708
0.0762901
0.0577291
-0.0476524
0.0771931
0.0439128
-0.024602
0.0545555
0.0445966
0.0241266
0.0353311
0.0374387
0.0907811
0.0222647
-0.15576
0.037418
0.0444982
-0.0294298
0.0441356
-0.00858245
0.0277081
-0.0290428
-0.0507944
0.0929051
-0.0334203
0.0448892
-0.0108243
0.0490535
0.0683523
-0.025492
0.0172721
-0.0256049
-0.0661477
0.169194
-0.013596
0.0598483
0.0438952
0.0444572
0.0441101
-0.0336309
0.136817
0.0439404
-0.0168582
-0.0214057
0.0118424
0.000526567
0.0242375
0.105984
-0.0304981
0.0505068
0.00961002
0.0221482
0.0451752
0.0451966
0.0467528
0.0503023
0.00776443
0.0447542
0.0479603
0.0515743
0.0701015
0.000369606
0.0446286
-0.0210964
0.0444162
0.00143338
0.0108478
0.0471655
0.037601
-0.000619785
-0.0221985
0.0331086
0.0743725
0.0500152
0.0235128
0.0288485
0.0445801
0.0490837
0.0496443
0.0472406
0.0446075
0.0656207
0.0445902
0.121959
0.0103727
-0.094736
0.0446688
0.0555323
0.0447941
0.0451554
0.11981
0.0548035
0.0441461
0.321863
0.130705
0.0342024
0.0608355
0.0355644
0.116916
0.0154315
0.00632369
0.0526264
0.0514628
0.0445315
0.0463328
-0.0137288
0.0442055
0.0468214
0.118915
0.0473883
0.0491173
0.0237133
0.044687
-0.037908
0.0447069
0.0467542
0.0059138
0.00690733
-0.0724062
0.106888
0.0666865
0.0470258
0.00515624
0.0469601
0.0222874
0.00193206
0.0513508
-0.0299841
0.0453955
0.0232556
0.0662176
0.0489317
0.0983437
0.0446323
0.0512995
0.0445061
0.0260177
0.0440909
0.0503716
0.0210913
0.0415476
0.0667126
0.0240309
0.0445705
0.0238784
0.00968213
0.0512372
0.00633754
-0.0161769
0.0445348
0.027635
0.105618
0.000790235
0.0523191
0.0407375
0.0408601
0.0219296
0.0529545
0.147227
0.0504667
0.0449897
0.0450027
-0.0217585
-0.010708
-0.0238346
0.28327
0.0976213
0.0474118
0.0227749
0.00827612
0.0453663
-0.0595053
0.0494958
0.100218
-0.000487647
0.0468232
0.140761
-0.0101207
-0.0182696
0.0199563
0.0262228
0.0452739
0.0440211
0.0576715
0.0445607
0.0445332
0.132799
0.0475333
0.0601115
0.043961
0.0349879
0.0418043
0.372504
0.0373729
0.0395373
-0.011147
0.100388
0.0903657
0.0311044
0.105002
0.045043
0.0430793
0.00301834
0.0692463
0.120603
0.046351
-0.000675767
0.0372061
0.0474334
0.0479529
0.044753
0.0611574
0.0373961
0.0451124
0.0270615
0.255612
0.0452392
0.00934233
0.0285338
0.0445426
0.0590146
0.0476595
0.0243395
0.0448557
0.0446627
0.0114467
0.0261701
0.0875107
0.138878
-0.232718
0.0511378
0.0605145
-0.0393872
0.0298688
0.0475836
0.0371595
-0.00101886
0.0446226
0.048737
0.0445264
0.0268746
0.0614352
0.0150612
0.0445987
0.0570484
0.0308277
0.0499317
0.115062
0.0412248
0.0442898
0.0445992
0.0263705
0.0196296
0.308513
0.0562064
0.0784259
0.00384436
0.00269472
0.0444272
0.0955772
0.0446075
0.0445821
0.0451858
-0.00519234
0.0503836
0.0317995
0.00498784
0.0170222
0.00400545
0.0269039
0.060934
0.109786
0.0426399
0.00889694
0.0879981
0.0295303
0.124457
0.0490995
-0.159179
0.139719
0.132321
0.0439565
-0.117331
0.00363952
0.00553939
0.133671
-0.000341735
0.0549054
0.0518133
0.0352121
0.0332347
0.029776
0.207945
0.0704649
0.0494526
0.0116127
0.0498421
0.032778
0.0205973
0.0901175
0.0324338
0.064296
0.0801496
0.00414835
0.0920059
0.028527
0.0454964
0.0558903
0.044693
0.0415588
0.0430986
0.0499293
0.0162051
-0.0492279
0.044474
0.162422
0.0437726
0.0373005
0.00631621
0.0270442
0.0302931
0.0428598
0.0053519
0.00956888
0.250424
0.0446181
0.00685813
0.0330173
0.00726885
0.0451949
0.0448215
0.147386
0.0206821
0.0292164
-0.129736
0.0236965
0.0361716
0.133043
0.0114509
0.116527
0.0511311
0.0148391
0.0338011
0.0415591
-0.0289414
0.00520123
0.0169998
0.0299199
0.0440499
0.00413312
0.00380728
-0.00104026
0.0360118
0.0336362
0.412825
-0.0400496
0.0437163
-0.0144255
0.016915
-0.111472
0.0445007
0.0286787
0.0293254
0.044471
0.00209991
0.0242545
0.0490258
-0.00020177
-0.0240307
-0.00168002
0.0516297
0.020638
0.0452393
0.0405648
-0.0271254
0.0788147
0.0248656
0.00494773
0.143702
0.021643
0.0169223
0.018348
0.00518161
-0.0289884
0.0429302
0.01861
0.0129283
0.0891659
0.276328
0.0107656
0.0316595
0.0180515
0.0444946
0.0889136
0.0281632
0.00678259
0.0443798
0.0322248
0.00465529
0.0113137
0.145663
0.00834577
0.0262287
0.0264122
0.0501276
0.00153901
0.0233104
0.0707308
0.0555159
0.0517653
0.00812289
0.0329078
0.0383702
0.035037
0.0447773
0.00416221
0.0588881
0.0262902
-0.00324443
-0.0473764
0.0395301
0.0244863
0.0138636
0.0209194
0.044624
0.0961587
0.0960404
0.0688801
0.0451757
0.223249
0.00496249
0.0498643
0.0863014
0.0440378
0.0534342
0.0295576
0.0234581
0.0508161
-0.106475
0.0461186
0.0554443
0.0392102
-0.0137427
-0.0322552
-0.000474142
0.0591003
0.00697481
0.0452124
0.0262481
0.0712933
0.0461455
0.146026
0.014356
0.024658
0.00623119
0.0628986
0.0189282
0.0346658
0.0442438
0.0443511
0.0436769
0.0596063
0.119145
0.0127523
0.143505
0.0795918
0.0858735
0.0468163
0.0660004
0.00511135
0.0446664
-0.0240984
-0.0194182
0.0480345
0.0445689
0.0367688
0.0426469
0.0443452
0.0611657
0.0310623
0.128281
0.0134175
0.0321825
0.0854705
-0.0117234
0.00403552
0.0829935
0.0101456
0.0206879
0.0672294
0.0441198
0.0587385
0.0243783
0.118373
0.125221
0.217399
0.0443916
0.123308
0.0296684
0.0287413
0.100777
0.103707
0.0953329
-0.0255783
0.0181489
0.0636543
0.0180615
0.0361314
0.0426828
0.0877062
0.0439604
0.0138385
-0.0302072
0.0555245
-0.0273654
0.0435903
0.080067
0.0507518
0.0273894
0.0991711
0.160183
0.0186619
0.0396614
0.0141189
0.0304952
0.0682366
0.000188635
0.0791591
-0.00318192
0.0444066
0.0184397
-0.14775
0.0950531
0.0326124
-0.0424252
0.00791848
0.03831
0.0433955
0.100016
0.0898533
0.030734
0.0537884
0.0464124
0.00426217
0.0401551
0.00227236
0.0771952
0.0326251
0.138703
0.0444012
0.0414457
-0.000152633
0.0343919
0.0349736
0.0623792
0.0526041
0.0265667
0.164724
0.103884
0.0442024
0.00354181
0.0403053
0.0441666
0.130238
0.0440964
0.0187434
0.0215492
0.0439264
0.0440999
0.0483593
0.00568196
0.0575845
0.0942094
0.0252575
0.126753
0.0293913
0.0302916
0.0341204
0.0750698
0.0446554
0.0361488
0.0339533
0.02349
-0.0214952
0.00703384
0.0628166
0.0415955
0.0516553
0.0284626
0.0391476
0.0573582
0.0176843
0.102742
0.0291732
0.0441975
0.00655916
0.0835873
0.00558342
0.0444193
0.132078
-0.0252342
0.0416445
0.0950012
0.00427003
0.0490791
0.0928278
0.00151724
0.0861022
0.110451
0.00241485
0.0448372
0.0755437
0.0727634
0.0115601
0.0415314
0.0281386
0.0443635
0.0443933
0.0441406
0.0105966
0.0146237
0.0178336
0.0792352
-0.0626186
0.166008
-0.0600239
0.0248927
0.0391822
-0.0393277
0.0466768
-0.103148
0.030095
0.0200886
0.0153962
0.0255554
0.0614295
0.0376327
0.0295011
0.0501391
0.0443829
0.0743445
-0.0366348
0.0108589
0.00473926
0.014212
0.0484114
0.0249494
0.0137935
0.0505703
0.021274
0.0351299
0.115495
0.0824535
0.0774804
0.0897114
-0.0018296
-0.000210664
0.00429415
0.0199968
-0.00418738
0.0115233
0.0548742
0.040254
0.127575
0.0704067
0.00497648
0.0448239
0.0925908
0.123858
0.0704764
0.0761206
0.0530099
0.0140912
0.110911
0.0254369
0.0209888
0.030917
0.0299988
0.0435456
0.0253271
0.0266944
0.0498685
0.0172255
0.0268573
0.0402973
0.101238
0.0401582
0.0376067
0.0723217
0.0518703
0.0438394
0.0469478
0.0014229
0.0133796
0.0453496
0.0685105
-0.0504693
0.00466884
0.0520345
0.0163217
-0.0190874
-0.040656
-0.00426856
0.0307467
0.0317275
0.0510786
0.0302496
0.022977
-0.000378916
-0.00140059
0.000856682
0.000537549
0.0316224
0.0433403
0.0430347
0.126063
0.0585118
0.0315511
0.0351549
-0.000414922
0.0410014
0.0242892
0.14537
0.0833402
0.00910783
0.0501225
0.0136294
0.0440039
0.00652606
0.000533931
0.024197
0.0441185
0.0551914
0.163175
0.0380563
0.0850396
-0.016584
0.0444924
0.0315537
0.0907275
0.0978773
0.0667278
0.0455238
0.0413332
0.0423639
0.0451063
0.0441964
0.0378318
0.00524395
0.0440842
0.0527161
0.04967
-0.355541
0.116131
0.0424338
0.0443857
0.008684
0.0139003
0.0209684
0.0734526
0.0146493
0.0435175
0.0385332
0.00336127
0.0450238
0.0107754
0.0895056
0.067644
0.0426783
0.00954501
0.0447547
0.036161
0.0342272
0.0379646
-0.00397116
0.0560618
0.0318543
0.030206
0.106913
0.0778625
0.0439777
0.0445354
0.0330296
0.0290629
0.0111894
0.0170464
0.0367008
0.00550555
0.0766459
0.0451479
0.0345548
0.00436714
0.0366475
0.0812947
0.0599739
0.047614
0.147032
0.0194116
0.122551
0.136369
0.0246596
-0.00253448
-1.0443e-05
0.12182
0.0366361
0.0040804
0.0707495
0.0330498
0.017014
0.0859838
0.068347
0.0470187
0.00182395
0.0285853
0.0245882
0.0374033
0.0040573
0.0464033
0.0771364
0.0462003
0.0537857
0.082113
0.0508658
0.0387164
0.103078
0.00581425
0.0873659
0.0253079
0.0686664
0.00671242
0.058061
0.00983914
0.0458578
0.0271898
0.00765316
0.0638807
0.0245056
0.0458126
0.038793
0.0120112
0.0426828
0.0318384
0.0527401
0.0333448
0.0194216
-0.00203689
0.0917977
0.100803
0.0974139
0.0378225
0.0373821
0.0323583
0.0160686
0.025637
0.0448552
0.0505169
0.0665076
0.0213083
0.0550922
0.00324243
0.027951
0.0535016
0.0299457
0.029197
0.0405445
0.0265448
0.0343773
0.130688
0.258217
0.0198674
0.0201596
0.0245011
0.0288793
0.0352879
0.0335982
0.031118
0.020355
0.0102752
0.0430469
0.0443674
0.0433161
0.00476799
0.0444652
0.0266487
0.0388822
0.0279518
0.056071
0.0308647
0.119288
-0.00835922
0.0440299
0.032113
0.0871074
0.0383411
0.0571229
0.0850498
0.0494818
0.0443209
0.0269768
0.00193561
0.0828413
0.00181276
0.112053
0.0799691
0.00263758
0.0594311
0.0648423
0.00720435
0.0395857
0.044246
0.0458056
0.0332656
0.0438682
0.0291375
-0.0356622
0.0429764
0.0764372
0.0399037
0.0586014
0.0593757
0.156916
0.0508212
0.0387224
0.00384057
0.0106609
0.0834953
0.0283664
0.0799841
0.0457192
0.0346607
0.061496
0.0424616
0.0297988
0.0451561
0.0457571
0.0283837
0.043839
0.0314937
0.0582157
0.0772582
0.0112775
0.043582
0.00507773
-7.72121e-05
0.0641045
0.0567763
0.0469423
0.0646659
0.128773
0.0443525
0.0373166
0.0430719
0.0570085
0.035561
0.0323649
0.0359036
0.0702011
0.0799791
0.0293584
0.0759795
0.0864906
0.0565189
0.1051
0.0541802
0.0748721
0.0246756
0.0390951
0.0180296
0.0452482
0.061168
0.046109
0.0799209
0.00134748
0.0513446
-0.0132127
0.0404743
0.0239736
0.113882
0.00604343
0.0432306
0.0440036
0.0027344
0.103986
0.0244761
0.0267523
0.0122649
0.0413039
0.0775442
0.0345931
0.042638
0.0329959
0.00682697
0.0389306
0.0370562
0.393617
0.0359569
0.046153
0.0554191
0.0609276
0.0394787
0.0287075
0.0443784
0.0985217
0.0396856
0.0443599
0.0103065
0.0337474
0.025738
0.0378886
0.0594679
0.0385867
0.0410785
0.0404722
0.0308336
0.0766588
0.0444021
0.0358057
0.0540745
0.0419862
0.0364447
0.050946
0.0513461
0.0558335
0.0563093
0.0444844
0.0397906
0.0469879
0.0261705
-0.00174182
-0.000821875
0.142351
0.0708952
-0.0116265
0.0276283
0.0439589
0.0473771
0.0545363
0.0703467
0.0448365
0.0246978
0.0725507
0.0532655
0.0231689
-0.010734
0.0186453
0.043806
0.0343347
0.0442103
0.0906082
0.228966
0.0361624
0.0534879
0.0398337
0.00470759
0.0440125
0.068727
0.0249052
0.0416349
0.0450036
0.0304693
0.0929382
0.035586
0.0528098
0.0229339
0.0388308
0.0400769
0.0840359
0.0570792
0.0369864
0.0467445
0.0357411
0.0505295
0.0349381
0.0447494
0.0361822
0.0440445
0.0506286
0.00899758
0.0647998
0.0129778
0.0701729
0.0699924
0.0488667
0.0355316
0.032483
0.073651
0.0881612
0.00841761
0.0382169
0.0532763
0.0543859
0.0367918
0.04297
0.0403157
0.033921
0.0253844
0.0253275
0.0404802
0.0125353
0.0361709
0.0756625
0.0373767
0.0395193
0.0362759
0.0212348
0.0806809
0.0499937
-0.000700219
0.0359794
0.0378071
0.00689842
0.0475228
0.000476593
0.0469418
0.0381089
0.0430558
0.0428051
0.0454196
0.0390016
0.00300688
0.0443732
0.0179092
0.0682158
0.0470633
0.0541837
0.0300744
0.0927182
0.0567834
0.0448541
0.0320119
-0.0675592
0.044547
0.00402045
-0.0828784
0.0619559
0.0817366
0.0485046
0.0378341
0.0270507
0.0678471
0.0549436
0.044812
0.0890218
0.00900248
0.0783117
0.0444174
0.0437169
0.0398405
0.0406405
0.0412261
0.0623054
0.0729672
0.0425763
-0.00152203
0.0415603
0.0489741
0.0383153
0.0295162
0.000260304
0.0438269
0.0383864
0.0208955
0.0385019
0.0427625
0.0470472
0.124158
0.069712
0.0449342
0.0588964
0.0495214
0.0382783
0.0718886
0.0557058
0.0403718
0.0592422
0.0338
0.0589326
0.0816433
-0.00046103
0.0208496
0.0450372
0.066489
0.0431054
0.0471818
0.0459944
0.038702
0.000744774
0.000200553
0.0548365
0.0307278
0.032465
0.0250827
0.0436203
0.042998
0.0449462
0.0676839
0.0320392
0.0444598
0.0381894
0.0502714
0.0198479
0.00674212
0.044508
0.043944
0.0332894
0.0443833
0.0430571
0.0391233
0.0413292
0.0365113
0.0621575
0.057981
0.0311523
0.0424025
0.0486776
0.0545405
0.0385006
0.044391
0.0394327
0.02772
0.00062295
0.00417875
0.0326257
0.119636
0.0388267
-0.0621748
0.0849511
0.0383693
0.0372722
0.049492
0.0444328
0.0445153
0.0503081
0.0527801
0.0380459
0.0463228
0.0435436
0.092903
0.00392738
0.0305739
0.0446556
0.0507924
0.0588292
0.0665407
0.0294155
0.0469963
0.0443072
0.0427729
0.0391841
0.0262754
0.0238953
0.00343061
0.0579395
0.0428662
0.0364689
0.0521515
0.0493125
0.0485603
0.0416333
0.0541619
0.0444768
0.0130863
-0.00241723
0.0435019
0.062393
0.0378858
0.0408852
0.042371
0.0459389
-0.0454107
0.05953
-0.000742627
0.0397599
0.00527882
0.0480647
0.065855
0.124597
0.051133
0.0447012
0.0272911
0.0183873
0.107276
0.0380246
0.0629235
0.041141
0.0439787
0.0613449
0.04201
0.1187
0.000224491
0.0752469
0.0480375
0.0436057
0.0444464
0.0432745
-0.0288811
0.0354817
0.0438654
0.0519042
0.042591
0.0440029