/*--------------------------------*- C++ -*----------------------------------*\
  =========                 |
  \\      /  F ield         | OpenFOAM: The Open Source CFD Toolbox
   \\    /   O peration     | Website:  https://openfoam.org
    \\  /    A nd           | Version:  7
     \\/     M anipulation  |
\*---------------------------------------------------------------------------*/
FoamFile
{
    version     2.0;
    format      ascii;
    class       volScalarField;
    location    "0.45";
    object      p;
}
// * * * * * * * * * * * * * * * * * * * * * * * * * * * * * * * * * * * * * //

dimensions      [0 2 -2 0 0 0 0];

internalField   nonuniform List<scalar> 
40000
(
8.86102e-06
0.000107901
0.000168973
0.000153614
4.75621e-05
-0.000153626
-0.0004478
-0.000829146
-0.00129022
-0.001823
-0.00241934
-0.0030713
-0.00377126
-0.00451199
-0.00528666
-0.00608887
-0.00691262
-0.00775232
-0.00860271
-0.00945892
-0.0103164
-0.0111709
-0.0120184
-0.0128553
-0.0136782
-0.0144838
-0.0152691
-0.0160315
-0.0167683
-0.0174773
-0.0181561
-0.0188027
-0.0194154
-0.0199923
-0.020532
-0.0210328
-0.0214936
-0.0219131
-0.0222902
-0.0226241
-0.0229137
-0.0231583
-0.0233574
-0.0235102
-0.0236162
-0.0236752
-0.0236867
-0.0236505
-0.0235664
-0.0234342
-0.023254
-0.0230258
-0.0227496
-0.0224255
-0.0220539
-0.0216348
-0.0211687
-0.0206559
-0.0200968
-0.0194917
-0.0188414
-0.0181461
-0.0174067
-0.0166236
-0.0157975
-0.0149292
-0.0140194
-0.0130687
-0.0120782
-0.0110485
-0.00998058
-0.00887532
-0.00773364
-0.00655651
-0.00534492
-0.00409987
-0.00282242
-0.00151363
-0.000174586
0.0011936
0.00258979
0.00401282
0.00546152
0.00693469
0.0084311
0.00994953
0.0114887
0.0130474
0.0146242
0.016218
0.0178273
0.0194509
0.0210873
0.0227353
0.0243934
0.0260603
0.0277346
0.0294149
0.0310998
0.0327878
0.0344776
0.0361677
0.0378566
0.039543
0.0412253
0.0429023
0.0445723
0.046234
0.0478859
0.0495266
0.0511547
0.0527687
0.0543672
0.0559487
0.057512
0.0590555
0.0605779
0.0620778
0.0635539
0.0650048
0.0664291
0.0678256
0.069193
0.07053
0.0718353
0.0731078
0.0743462
0.0755494
0.0767161
0.0778454
0.0789362
0.0799873
0.0809978
0.0819667
0.082893
0.083776
0.0846147
0.0854084
0.0861563
0.0868576
0.0875118
0.0881182
0.0886763
0.0891856
0.0896457
0.0900562
0.0904168
0.0907273
0.0909874
0.0911972
0.0913566
0.0914656
0.0915243
0.091533
0.091492
0.0914017
0.0912624
0.0910748
0.0908395
0.0905573
0.090229
0.0898556
0.0894382
0.0889778
0.0884759
0.0879339
0.0873532
0.0867357
0.0860829
0.0853971
0.0846801
0.0839344
0.0831623
0.0823664
0.0815495
0.0807146
0.0798648
0.0790035
0.0781343
0.0772611
0.0763879
0.0755191
0.0746593
0.0738134
0.0729868
0.0721849
0.0714137
0.0706796
0.0699891
0.0693492
0.0687673
0.0682509
0.0678076
0.0674448
0.0671691
0.0669854
0.0668946
0.066891
0.0669575
0.0670513
-7.71102e-05
1.63703e-05
5.26207e-05
1.5938e-05
-9.72943e-05
-0.000291258
-0.000565772
-0.000917235
-0.00134032
-0.00182884
-0.00237618
-0.00297563
-0.00362059
-0.00430462
-0.00502157
-0.00576557
-0.00653108
-0.00731285
-0.00810594
-0.00890573
-0.00970787
-0.0105083
-0.0113031
-0.0120889
-0.0128622
-0.0136199
-0.0143592
-0.0150773
-0.0157717
-0.0164402
-0.0170804
-0.0176905
-0.0182685
-0.0188127
-0.0193216
-0.0197937
-0.0202277
-0.0206224
-0.0209767
-0.0212896
-0.0215603
-0.0217878
-0.0219717
-0.0221112
-0.0222058
-0.0222551
-0.0222588
-0.0222165
-0.0221281
-0.0219934
-0.0218124
-0.021585
-0.0213112
-0.0209913
-0.0206253
-0.0202136
-0.0197563
-0.0192537
-0.0187064
-0.0181146
-0.0174788
-0.0167996
-0.0160776
-0.0153132
-0.0145071
-0.01366
-0.0127726
-0.0118457
-0.01088
-0.00987628
-0.00883543
-0.0077583
-0.00664581
-0.00549886
-0.00431842
-0.00310547
-0.00186103
-0.000586109
0.000718219
0.00205088
0.00341076
0.00479675
0.0062077
0.00764244
0.00909978
0.0105785
0.0120775
0.0135953
0.0151309
0.0166829
0.01825
0.0198309
0.0214244
0.0230291
0.0246437
0.0262667
0.027897
0.029533
0.0311735
0.032817
0.0344621
0.0361076
0.0377519
0.0393937
0.0410316
0.0426641
0.0442899
0.0459076
0.0475157
0.0491129
0.0506977
0.0522689
0.0538249
0.0553644
0.0568861
0.0583886
0.0598705
0.0613305
0.0627674
0.0641797
0.0655662
0.0669256
0.0682567
0.0695582
0.070829
0.0720679
0.0732736
0.0744451
0.0755813
0.0766811
0.0777434
0.0787674
0.0797518
0.080696
0.0815989
0.0824598
0.0832777
0.084052
0.0847819
0.0854668
0.086106
0.086699
0.0872453
0.0877444
0.088196
0.0885996
0.088955
0.089262
0.0895205
0.0897304
0.0898917
0.0900044
0.0900688
0.0900851
0.0900535
0.0899745
0.0898485
0.0896761
0.089458
0.089195
0.0888879
0.0885377
0.0881454
0.0877122
0.0872395
0.0867286
0.086181
0.0855985
0.0849828
0.0843358
0.0836597
0.0829566
0.082229
0.0814793
0.0807103
0.0799249
0.0791261
0.0783173
0.077502
0.0766837
0.0758665
0.0750545
0.0742521
0.073464
0.0726951
0.0719507
0.0712362
0.0705573
0.0699201
0.0693307
0.0687954
0.0683205
0.0679122
0.0675761
0.0673168
0.0671372
0.0670365
0.0670095
0.0670513
0.067145
-0.000135568
-1.91392e-05
1.69232e-05
-2.57843e-05
-0.000139857
-0.000327225
-0.000587621
-0.000918006
-0.00131399
-0.0017704
-0.00228162
-0.00284179
-0.00344506
-0.00408564
-0.00475791
-0.00545649
-0.00617619
-0.0069121
-0.00765958
-0.00841421
-0.00917184
-0.00992857
-0.0106807
-0.0114249
-0.0121577
-0.0128763
-0.0135778
-0.0142595
-0.014919
-0.015554
-0.0161623
-0.016742
-0.0172913
-0.0178083
-0.0182916
-0.0187398
-0.0191514
-0.0195254
-0.0198605
-0.0201559
-0.0204106
-0.0206238
-0.0207949
-0.0209232
-0.0210081
-0.0210493
-0.0210464
-0.020999
-0.020907
-0.0207701
-0.0205883
-0.0203616
-0.0200899
-0.0197734
-0.0194123
-0.0190066
-0.0185568
-0.0180629
-0.0175255
-0.0169449
-0.0163216
-0.0156559
-0.0149486
-0.0142
-0.0134109
-0.0125818
-0.0117135
-0.0108067
-0.00986204
-0.00888038
-0.00786252
-0.0068093
-0.00572158
-0.00460028
-0.00344632
-0.00226065
-0.00104425
0.000201868
0.00147668
0.00277913
0.00410815
0.00546263
0.00684147
0.00824353
0.00966764
0.0111126
0.0125773
0.0140605
0.0155609
0.0170774
0.0186086
0.0201533
0.0217103
0.0232781
0.0248556
0.0264414
0.0280341
0.0296325
0.0312353
0.0328409
0.0344482
0.0360557
0.0376621
0.039266
0.0408661
0.0424609
0.0440491
0.0456294
0.0472003
0.0487605
0.0503087
0.0518434
0.0533634
0.0548673
0.0563537
0.0578214
0.0592689
0.0606951
0.0620987
0.0634783
0.0648327
0.0661607
0.0674611
0.0687326
0.0699741
0.0711845
0.0723626
0.0735073
0.0746176
0.0756925
0.0767308
0.0777317
0.0786942
0.0796175
0.0805006
0.0813427
0.0821431
0.0829011
0.0836159
0.0842869
0.0849135
0.0854952
0.0860316
0.0865221
0.0869664
0.0873642
0.0877153
0.0880194
0.0882765
0.0884865
0.0886494
0.0887653
0.0888344
0.088857
0.0888333
0.0887638
0.0886489
0.0884893
0.0882856
0.0880386
0.0877492
0.0874183
0.087047
0.0866364
0.0861879
0.0857028
0.0851827
0.0846293
0.0840442
0.0834294
0.0827869
0.0821189
0.0814278
0.0807161
0.0799863
0.0792413
0.0784841
0.0777179
0.0769461
0.0761722
0.0753999
0.0746334
0.0738767
0.0731343
0.0724109
0.0717113
0.0710407
0.0704042
0.0698074
0.0692557
0.0687548
0.0683102
0.067927
0.0676099
0.0673628
0.067188
0.067085
0.0670511
0.067093
0.0672116
-0.000120004
1.78674e-05
6.00405e-05
1.73718e-05
-9.5194e-05
-0.000277249
-0.000527667
-0.000843203
-0.00121973
-0.00165259
-0.00213674
-0.00266695
-0.00323789
-0.0038443
-0.00448102
-0.00514305
-0.00582557
-0.00652395
-0.00723381
-0.00795097
-0.00867146
-0.00939156
-0.0101077
-0.0108166
-0.0115152
-0.0122004
-0.0128695
-0.01352
-0.0141495
-0.0147556
-0.0153364
-0.0158898
-0.016414
-0.0169074
-0.0173684
-0.0177957
-0.0181878
-0.0185435
-0.0188619
-0.0191419
-0.0193826
-0.0195832
-0.019743
-0.0198614
-0.0199379
-0.0199719
-0.0199631
-0.0199112
-0.0198159
-0.0196771
-0.0194947
-0.0192686
-0.0189987
-0.0186853
-0.0183284
-0.0179282
-0.0174849
-0.0169989
-0.0164703
-0.0158997
-0.0152873
-0.0146338
-0.0139396
-0.0132051
-0.0124311
-0.0116182
-0.0107669
-0.00987796
-0.00895214
-0.00799018
-0.00699286
-0.00596099
-0.00489544
-0.00379706
-0.00266677
-0.0015055
-0.000314193
0.000906164
0.00215457
0.00342999
0.00473138
0.00605767
0.00740778
0.00878058
0.0101749
0.0115897
0.0130238
0.0144759
0.0159449
0.0174295
0.0189286
0.0204409
0.0219651
0.0235
0.0250443
0.0265967
0.028156
0.0297207
0.0312896
0.0328615
0.0344348
0.0360084
0.0375809
0.0391509
0.0407172
0.0422783
0.0438329
0.0453797
0.0469174
0.0484446
0.04996
0.0514623
0.0529501
0.0544221
0.055877
0.0573136
0.0587306
0.0601266
0.0615005
0.0628509
0.0641767
0.0654767
0.0667497
0.0679945
0.06921
0.070395
0.0715485
0.0726694
0.0737566
0.0748093
0.0758263
0.0768067
0.0777497
0.0786544
0.0795199
0.0803454
0.0811303
0.0818737
0.0825751
0.0832338
0.0838493
0.084421
0.0849485
0.0854314
0.0858693
0.086262
0.0866092
0.0869107
0.0871666
0.0873766
0.087541
0.0876597
0.0877329
0.087761
0.0877442
0.0876831
0.0875779
0.0874295
0.0872384
0.0870054
0.0867314
0.0864174
0.0860643
0.0856734
0.085246
0.0847834
0.0842871
0.0837588
0.0832002
0.0826131
0.0819996
0.0813619
0.0807021
0.0800227
0.0793264
0.0786158
0.0778939
0.0771637
0.0764285
0.0756917
0.074957
0.0742281
0.0735091
0.0728041
0.0721176
0.0714541
0.0708184
0.0702153
0.0696499
0.0691271
0.0686521
0.0682298
0.0678648
0.0675613
0.0673231
0.0671527
0.0670508
0.0670171
0.0670661
0.0672082
-1.41683e-05
0.000131267
0.000174473
0.000130398
1.78633e-05
-0.00016107
-0.000404484
-0.000708848
-0.00107013
-0.00148398
-0.0019458
-0.00245081
-0.00299417
-0.00357104
-0.00417669
-0.00480646
-0.00545588
-0.00612062
-0.00679654
-0.00747969
-0.00816631
-0.00885283
-0.00953587
-0.0102122
-0.0108789
-0.0115331
-0.0121721
-0.0127934
-0.0133947
-0.0139738
-0.0145285
-0.0150571
-0.0155578
-0.0160288
-0.0164687
-0.0168761
-0.0172496
-0.0175881
-0.0178906
-0.0181559
-0.0183832
-0.0185718
-0.0187208
-0.0188298
-0.018898
-0.0189252
-0.0189108
-0.0188546
-0.0187562
-0.0186156
-0.0184325
-0.018207
-0.017939
-0.0176285
-0.0172758
-0.0168808
-0.0164439
-0.0159654
-0.0154454
-0.0148844
-0.0142828
-0.013641
-0.0129595
-0.0122387
-0.0114794
-0.010682
-0.00984728
-0.00897578
-0.00806825
-0.00712541
-0.00614805
-0.00513694
-0.00409291
-0.00301682
-0.00190954
-0.000771977
0.000394936
0.00159024
0.00281297
0.00406211
0.00533664
0.00663551
0.00795767
0.00930202
0.0106675
0.0120529
0.0134571
0.014879
0.0163174
0.0177712
0.019239
0.0207197
0.0222121
0.023715
0.025227
0.026747
0.0282736
0.0298056
0.0313417
0.0328806
0.034421
0.0359616
0.0375012
0.0390383
0.0405717
0.0421
0.043622
0.0451364
0.0466418
0.048137
0.0496205
0.0510912
0.0525478
0.0539889
0.0554133
0.0568198
0.058207
0.0595738
0.0609188
0.062241
0.0635391
0.064812
0.0660584
0.0672773
0.0684675
0.069628
0.0707577
0.0718555
0.0729205
0.0739516
0.074948
0.0759087
0.0768328
0.0777195
0.078568
0.0793775
0.0801473
0.0808767
0.0815652
0.082212
0.0828167
0.0833787
0.0838977
0.0843732
0.084805
0.0851927
0.0855361
0.0858352
0.0860898
0.0862999
0.0864655
0.0865869
0.0866641
0.0866974
0.0866872
0.086634
0.0865381
0.0864003
0.0862212
0.0860015
0.0857422
0.0854441
0.0851084
0.0847361
0.0843286
0.0838872
0.0834134
0.0829088
0.0823751
0.0818141
0.0812279
0.0806184
0.0799879
0.0793388
0.0786735
0.0779949
0.0773056
0.0766086
0.075907
0.0752043
0.0745037
0.073809
0.073124
0.0724526
0.0717989
0.0711673
0.0705622
0.069988
0.0694494
0.068951
0.0684974
0.0680932
0.0677426
0.0674495
0.0672177
0.0670502
0.0669484
0.066914
0.0669655
0.067118
0.000186485
0.000325272
0.000362195
0.000312938
0.000197303
1.83261e-05
-0.000221512
-0.000518486
-0.000868627
-0.00126783
-0.00171181
-0.00219617
-0.00271648
-0.00326828
-0.0038472
-0.00444894
-0.00506931
-0.00570428
-0.00634995
-0.0070026
-0.00765867
-0.00831476
-0.00896765
-0.00961428
-0.0102518
-0.0108774
-0.0114885
-0.0120828
-0.0126579
-0.0132118
-0.0137423
-0.0142478
-0.0147263
-0.0151764
-0.0155964
-0.0159851
-0.0163412
-0.0166634
-0.0169507
-0.0172022
-0.0174169
-0.017594
-0.0177329
-0.0178329
-0.0178934
-0.0179141
-0.0178944
-0.017834
-0.0177328
-0.0175904
-0.0174068
-0.0171819
-0.0169156
-0.0166081
-0.0162593
-0.0158694
-0.0154387
-0.0149674
-0.0144557
-0.013904
-0.0133128
-0.0126823
-0.012013
-0.0113055
-0.0105604
-0.00977806
-0.00895924
-0.00810456
-0.00721468
-0.00629033
-0.00533224
-0.00434118
-0.00331795
-0.00226339
-0.00117834
-6.37023e-05
0.00107963
0.00225073
0.00344863
0.00467237
0.00592092
0.00719329
0.00848842
0.00980526
0.0111427
0.0124997
0.0138751
0.0152679
0.0166767
0.0181005
0.0195381
0.0209884
0.02245
0.0239219
0.0254028
0.0268913
0.0283864
0.0298868
0.0313912
0.0328983
0.0344068
0.0359156
0.0374233
0.0389286
0.0404303
0.041927
0.0434175
0.0449005
0.0463748
0.047839
0.0492918
0.0507321
0.0521585
0.0535698
0.0549648
0.0563422
0.0577007
0.0590393
0.0603566
0.0616516
0.062923
0.0641697
0.0653906
0.0665845
0.0677504
0.0688873
0.069994
0.0710697
0.0721132
0.0731237
0.0741002
0.0750419
0.0759478
0.0768173
0.0776494
0.0784435
0.0791989
0.0799148
0.0805908
0.0812262
0.0818205
0.0823733
0.082884
0.0833525
0.0837783
0.0841612
0.0845011
0.0847977
0.0850511
0.0852612
0.085428
0.0855518
0.0856327
0.085671
0.085667
0.0856212
0.0855341
0.0854063
0.0852385
0.0850313
0.0847858
0.0845028
0.0841833
0.0838285
0.0834397
0.0830182
0.0825655
0.082083
0.0815726
0.0810359
0.0804749
0.0798916
0.0792882
0.0786671
0.0780305
0.0773812
0.0767217
0.0760551
0.0753842
0.0747122
0.0740424
0.0733784
0.0727236
0.0720819
0.0714571
0.0708532
0.0702744
0.0697248
0.0692086
0.0687303
0.0682939
0.0679038
0.0675638
0.0672778
0.0670494
0.066882
0.0667776
0.066739
0.0667862
0.0669353
0.000479977
0.000599864
0.00062308
0.000563992
0.000441322
0.000258569
1.85458e-05
-0.000274963
-0.000618085
-0.00100692
-0.00143746
-0.00190563
-0.00240734
-0.00293848
-0.003495
-0.0040729
-0.0046683
-0.00527743
-0.00589662
-0.00652237
-0.00715132
-0.00778024
-0.00840607
-0.00902588
-0.00963692
-0.0102366
-0.0108223
-0.0113919
-0.011943
-0.0124737
-0.0129819
-0.013466
-0.0139241
-0.0143547
-0.0147563
-0.0151277
-0.0154674
-0.0157744
-0.0160477
-0.0162862
-0.016489
-0.0166555
-0.0167848
-0.0168764
-0.0169297
-0.0169442
-0.0169196
-0.0168554
-0.0167515
-0.0166075
-0.0164235
-0.0161992
-0.0159346
-0.0156298
-0.0152849
-0.0149
-0.0144752
-0.0140108
-0.0135071
-0.0129643
-0.0123829
-0.0117633
-0.0111058
-0.010411
-0.00967942
-0.00891156
-0.00810803
-0.00726947
-0.00639652
-0.00548989
-0.00455028
-0.00357845
-0.00257518
-0.00154127
-0.000477565
0.000615087
0.0017358
0.00288366
0.00405774
0.00525709
0.00648072
0.00772764
0.00899684
0.0102873
0.0115979
0.0129276
0.0142754
0.01564
0.0170205
0.0184156
0.0198242
0.0212452
0.0226774
0.0241195
0.0255704
0.0270289
0.0284938
0.0299638
0.0314377
0.0329143
0.0343923
0.0358705
0.0373477
0.0388225
0.0402937
0.0417601
0.0432205
0.0446735
0.0461178
0.0475524
0.0489758
0.0503869
0.0517845
0.0531673
0.054534
0.0558836
0.0572147
0.0585263
0.0598171
0.061086
0.0623319
0.0635536
0.06475
0.0659201
0.0670628
0.0681771
0.0692619
0.0703164
0.0713394
0.0723302
0.0732877
0.0742112
0.0750999
0.0759529
0.0767694
0.0775488
0.0782904
0.0789935
0.0796576
0.0802821
0.0808665
0.0814104
0.0819134
0.0823751
0.0827952
0.0831736
0.0835099
0.0838042
0.0840563
0.0842663
0.0844343
0.0845603
0.0846446
0.0846875
0.0846893
0.0846504
0.0845715
0.084453
0.0842956
0.0841002
0.0838675
0.0835985
0.0832941
0.0829556
0.0825842
0.0821811
0.0817478
0.0812858
0.0807967
0.0802824
0.0797447
0.0791854
0.0786069
0.0780112
0.0774007
0.0767779
0.0761455
0.0755061
0.0748626
0.0742181
0.0735757
0.0729386
0.0723104
0.0716944
0.0710944
0.0705141
0.0699574
0.0694281
0.0689302
0.0684676
0.0680443
0.0676642
0.067331
0.0670484
0.06682
0.0666493
0.0665388
0.0664918
0.0665274
0.0666609
0.000860762
0.000951679
0.000954301
0.000880504
0.000746567
0.000556105
0.000312079
1.81935e-05
-0.000321832
-0.000704301
-0.00112547
-0.00158157
-0.00206878
-0.00258332
-0.00312143
-0.00367941
-0.00425363
-0.00484058
-0.00543682
-0.00603906
-0.00664413
-0.00724897
-0.00785068
-0.00844648
-0.00903372
-0.0096099
-0.0101726
-0.0107197
-0.011249
-0.0117584
-0.0122462
-0.0127105
-0.0131498
-0.0135624
-0.013947
-0.0143022
-0.0146269
-0.0149198
-0.0151799
-0.0154063
-0.0155982
-0.0157547
-0.0158751
-0.0159589
-0.0160054
-0.0160143
-0.015985
-0.0159173
-0.0158108
-0.0156655
-0.015481
-0.0152574
-0.0149945
-0.0146925
-0.0143513
-0.013971
-0.013552
-0.0130943
-0.0125982
-0.012064
-0.0114921
-0.0108828
-0.0102366
-0.00955399
-0.00883539
-0.00808138
-0.00729251
-0.0064694
-0.00561269
-0.00472304
-0.00380116
-0.00284778
-0.00186364
-0.000849548
0.000193699
0.00126526
0.00236426
0.00348983
0.00464106
0.00581701
0.00701672
0.00823924
0.00948355
0.0107486
0.0120335
0.0133371
0.0146583
0.015996
0.0173493
0.0187168
0.0200976
0.0214905
0.0228943
0.0243079
0.0257302
0.0271598
0.0285957
0.0300366
0.0314813
0.0329286
0.0343774
0.0358263
0.0372742
0.0387198
0.0401619
0.0415992
0.0430306
0.0444548
0.0458706
0.0472768
0.048672
0.0500552
0.0514252
0.0527806
0.0541204
0.0554433
0.0567483
0.058034
0.0592994
0.0605434
0.0617649
0.0629627
0.0641358
0.0652831
0.0664036
0.0674963
0.0685603
0.0695945
0.070598
0.0715699
0.0725094
0.0734156
0.0742877
0.0751249
0.0759266
0.076692
0.0774204
0.0781113
0.0787641
0.0793782
0.0799532
0.0804886
0.0809841
0.0814393
0.081854
0.082228
0.082561
0.0828529
0.0831038
0.0833137
0.0834826
0.0836106
0.083698
0.0837452
0.0837523
0.08372
0.0836486
0.0835387
0.0833911
0.0832065
0.0829857
0.0827296
0.0824393
0.0821158
0.0817604
0.0813743
0.0809589
0.0805157
0.0800464
0.0795525
0.079036
0.0784987
0.0779427
0.0773702
0.0767833
0.0761845
0.0755763
0.0749613
0.0743422
0.073722
0.0731036
0.0724902
0.0718849
0.071291
0.0707121
0.0701515
0.069613
0.0691
0.0686164
0.0681657
0.0677516
0.0673777
0.0670477
0.0667649
0.066533
0.0663553
0.0662347
0.0661744
0.0661918
0.0662996
0.00132174
0.00137569
0.00135174
0.0012586
0.00110924
0.000907189
0.000655431
0.000357483
1.685e-05
-0.000363
-0.00077858
-0.00122638
-0.00170287
-0.00220456
-0.00272795
-0.00326962
-0.00382619
-0.00439437
-0.00497097
-0.00555288
-0.00613711
-0.0067208
-0.00730117
-0.0078756
-0.00844156
-0.00899667
-0.00953865
-0.0100653
-0.0105747
-0.0110648
-0.0115339
-0.0119802
-0.0124021
-0.0127982
-0.0131671
-0.0135075
-0.0138182
-0.014098
-0.014346
-0.0145612
-0.0147428
-0.0148901
-0.0150023
-0.0150787
-0.015119
-0.0151226
-0.015089
-0.0150181
-0.0149094
-0.0147627
-0.014578
-0.0143551
-0.0140939
-0.0137945
-0.0134569
-0.0130812
-0.0126677
-0.0122164
-0.0117276
-0.0112016
-0.0106388
-0.0100395
-0.00940419
-0.0087332
-0.00802708
-0.00728633
-0.00651152
-0.00570323
-0.00486208
-0.00398873
-0.00308384
-0.00214814
-0.00118236
-0.000187264
0.000836358
0.00188769
0.00296588
0.00407007
0.00519937
0.00635287
0.00752965
0.00872874
0.00994918
0.01119
0.0124501
0.0137286
0.0150243
0.0163363
0.0176634
0.0190045
0.0203587
0.0217246
0.0231013
0.0244875
0.0258822
0.0272842
0.0286922
0.0301052
0.031522
0.0329413
0.034362
0.0357828
0.0372026
0.0386203
0.0400344
0.041444
0.0428477
0.0442443
0.0456327
0.0470117
0.04838
0.0497365
0.05108
0.0524093
0.0537233
0.0550207
0.0563006
0.0575617
0.0588028
0.060023
0.0612211
0.0623961
0.0635469
0.0646725
0.0657718
0.066844
0.0678879
0.0689028
0.0698877
0.0708416
0.0717639
0.0726536
0.0735099
0.0743322
0.0751197
0.0758717
0.0765876
0.0772668
0.0779087
0.0785129
0.0790789
0.0796063
0.0800946
0.0805437
0.0809532
0.0813228
0.0816526
0.0819423
0.082192
0.0824016
0.0825713
0.0827011
0.0827914
0.0828424
0.0828545
0.0828281
0.0827637
0.0826618
0.0825232
0.0823486
0.0821388
0.0818947
0.0816173
0.0813077
0.080967
0.0805965
0.0801975
0.0797716
0.0793203
0.0788451
0.0783479
0.0778306
0.077295
0.0767433
0.0761776
0.0756003
0.0750137
0.0744203
0.0738228
0.073224
0.0726265
0.0720334
0.0714478
0.0708726
0.0703113
0.0697669
0.0692429
0.0687427
0.0682697
0.0678272
0.0674187
0.0670475
0.0667171
0.0664306
0.0661916
0.0660033
0.0658685
0.0657905
0.0657837
0.0658578
0.00185526
0.00186607
0.00181055
0.00169391
0.00152528
0.00130798
0.00104496
0.000739463
0.000394744
1.40224e-05
-0.000399469
-0.000842483
-0.00131176
-0.00180407
-0.00231618
-0.0028449
-0.0033871
-0.00393972
-0.00449977
-0.00506435
-0.00563063
-0.00619592
-0.00675761
-0.00731319
-0.00786029
-0.00839661
-0.00891999
-0.00942836
-0.00991977
-0.0103924
-0.0108444
-0.0112743
-0.0116805
-0.0120615
-0.012416
-0.0127427
-0.0130405
-0.0133083
-0.0135451
-0.01375
-0.0139221
-0.0140608
-0.0141654
-0.0142351
-0.0142696
-0.0142683
-0.0142309
-0.0141569
-0.0140462
-0.0138984
-0.0137135
-0.0134914
-0.0132319
-0.0129351
-0.012601
-0.0122297
-0.0118215
-0.0113763
-0.0108946
-0.0103766
-0.00982249
-0.00923276
-0.00860778
-0.00794796
-0.00725379
-0.00652577
-0.00576443
-0.00497033
-0.0041441
-0.00328635
-0.00239775
-0.00147899
-0.000530795
0.000446096
0.00145091
0.00248285
0.0035411
0.0046248
0.00573309
0.00686509
0.00801987
0.00919652
0.0103941
0.0116116
0.012848
0.0141024
0.0153738
0.016661
0.0179631
0.0192789
0.0206075
0.0219476
0.0232983
0.0246583
0.0260266
0.0274021
0.0287835
0.0301698
0.0315597
0.0329522
0.034346
0.03574
0.037133
0.0385238
0.0399112
0.0412941
0.0426713
0.0440416
0.0454038
0.0467568
0.0480994
0.0494303
0.0507486
0.0520529
0.0533422
0.0546154
0.0558713
0.0571088
0.0583268
0.0595242
0.0607001
0.0618533
0.0629828
0.0640876
0.0651668
0.0662193
0.0672442
0.0682407
0.0692077
0.0701446
0.0710504
0.0719244
0.0727657
0.0735737
0.0743477
0.0750869
0.0757909
0.076459
0.0770906
0.0776854
0.0782428
0.0787624
0.079244
0.0796871
0.0800915
0.0804571
0.0807837
0.0810712
0.0813196
0.081529
0.0816993
0.0818308
0.0819236
0.0819782
0.0819947
0.0819738
0.0819158
0.0818213
0.081691
0.0815255
0.0813258
0.0810927
0.0808272
0.0805302
0.080203
0.0798468
0.0794629
0.0790526
0.0786176
0.0781594
0.0776798
0.0771804
0.0766632
0.0761302
0.0755834
0.0750252
0.0744577
0.0738834
0.0733047
0.0727244
0.0721449
0.0715692
0.0710001
0.0704405
0.0698934
0.0693619
0.0688491
0.0683582
0.0678923
0.0674547
0.0670484
0.0666766
0.0663424
0.066049
0.0657995
0.065597
0.0654443
0.0653445
0.0653084
0.0653426
0.00245368
0.00241663
0.00232548
0.00218177
0.00199039
0.0017545
0.00147695
0.00116067
0.000808641
0.000423811
9.16097e-06
-0.000432318
-0.000897627
-0.00138377
-0.00188777
-0.00240668
-0.00293759
-0.00347765
-0.00402406
-0.00457411
-0.00512517
-0.00567468
-0.0062202
-0.00675934
-0.00728986
-0.00780958
-0.00831643
-0.00880846
-0.00928379
-0.00974066
-0.0101774
-0.0105924
-0.0109842
-0.0113514
-0.0116928
-0.012007
-0.0122931
-0.0125498
-0.0127764
-0.0129718
-0.0131353
-0.0132661
-0.0133636
-0.0134272
-0.0134564
-0.0134507
-0.0134096
-0.013333
-0.0132205
-0.0130718
-0.0128868
-0.0126655
-0.0124077
-0.0121134
-0.0117828
-0.0114158
-0.0110126
-0.0105735
-0.0100985
-0.00958802
-0.00904234
-0.00846178
-0.00784674
-0.00719763
-0.00651491
-0.00579906
-0.00505061
-0.00427012
-0.00345816
-0.00261535
-0.00174234
-0.000839809
9.15536e-05
0.00105101
0.00203782
0.0030512
0.00409035
0.00515443
0.00624261
0.00735401
0.00848775
0.00964291
0.0108186
0.0120138
0.0132275
0.0144589
0.0157069
0.0169704
0.0182485
0.0195402
0.0208442
0.0221597
0.0234854
0.0248204
0.0261635
0.0275135
0.0288695
0.0302302
0.0315945
0.0329613
0.0343294
0.0356977
0.037065
0.0384302
0.0397921
0.0411496
0.0425015
0.0438466
0.0451838
0.0465119
0.0478298
0.0491364
0.0504305
0.051711
0.0529768
0.0542268
0.0554598
0.0566748
0.0578708
0.0590466
0.0602012
0.0613336
0.0624428
0.0635279
0.0645878
0.0656216
0.0666284
0.0676073
0.0685575
0.069478
0.0703682
0.0712272
0.0720542
0.0728487
0.0736098
0.0743369
0.0750295
0.075687
0.0763089
0.0768946
0.0774438
0.0779561
0.0784311
0.0788686
0.0792682
0.0796299
0.0799534
0.0802387
0.0804858
0.0806948
0.0808656
0.0809985
0.0810936
0.0811514
0.081172
0.081156
0.0811039
0.0810161
0.0808933
0.0807363
0.0805459
0.0803228
0.080068
0.0797826
0.0794677
0.0791245
0.0787542
0.0783582
0.0779379
0.077495
0.0770311
0.0765478
0.076047
0.0755306
0.0750006
0.0744591
0.0739084
0.0733507
0.0727883
0.0722237
0.0716595
0.0710983
0.0705428
0.0699957
0.0694599
0.0689381
0.0684334
0.0679487
0.0674868
0.0670508
0.0666436
0.066268
0.065927
0.0656235
0.0653603
0.0651404
0.0649664
0.0648413
0.0647718
0.0647612
0.00310959
0.00302114
0.00289113
0.0027173
0.00250018
0.00224271
0.00194765
0.00161764
0.00125533
0.000863414
0.000444615
1.67329e-06
-0.000462656
-0.000945619
-0.00144447
-0.00195647
-0.00247894
-0.00300923
-0.00354473
-0.00408291
-0.00462129
-0.0051575
-0.00568922
-0.0062142
-0.00673033
-0.00723553
-0.00772785
-0.00820542
-0.00866646
-0.00910927
-0.00953225
-0.0099339
-0.0103128
-0.0106676
-0.010997
-0.0113
-0.0115753
-0.011822
-0.0120392
-0.0122259
-0.0123815
-0.0125051
-0.0125962
-0.0126542
-0.0126786
-0.0126688
-0.0126246
-0.0125455
-0.0124314
-0.012282
-0.0120971
-0.0118766
-0.0116206
-0.0113288
-0.0110015
-0.0106387
-0.0102404
-0.00980698
-0.00933853
-0.00883534
-0.00829769
-0.00772593
-0.00712041
-0.00648155
-0.00580979
-0.0051056
-0.00436949
-0.003602
-0.00280371
-0.0019752
-0.0011171
-0.000230081
0.000685179
0.00162797
0.00259755
0.00359318
0.00461405
0.00565937
0.00672831
0.00782002
0.00893361
0.0100682
0.0112229
0.0123968
0.0135889
0.0147982
0.0160238
0.0172648
0.0185199
0.0197884
0.0210691
0.0223609
0.0236628
0.0249738
0.0262928
0.0276186
0.0289502
0.0302865
0.0316263
0.0329685
0.0343121
0.0356559
0.0369987
0.0383394
0.0396769
0.0410101
0.0423378
0.0436589
0.0449722
0.0462767
0.0475711
0.0488545
0.0501256
0.0513833
0.0526267
0.0538545
0.0550658
0.0562594
0.0574343
0.0585894
0.0597238
0.0608365
0.0619264
0.0629927
0.0640343
0.0650503
0.0660399
0.0670021
0.0679362
0.0688412
0.0697165
0.0705613
0.0713747
0.0721562
0.0729051
0.0736207
0.0743025
0.07495
0.0755625
0.0761397
0.0766811
0.0771863
0.0776551
0.0780872
0.0784822
0.0788401
0.0791606
0.0794438
0.0796896
0.079898
0.0800692
0.0802033
0.0803005
0.0803611
0.0803854
0.0803739
0.080327
0.0802453
0.0801295
0.0799801
0.079798
0.079584
0.0793391
0.0790642
0.0787604
0.0784288
0.0780708
0.0776876
0.0772806
0.0768513
0.0764014
0.0759324
0.0754461
0.0749443
0.074429
0.0739022
0.0733659
0.0728224
0.0722738
0.0717226
0.071171
0.0706217
0.070077
0.0695396
0.0690122
0.0684973
0.0679978
0.0675163
0.0670555
0.0666182
0.0662071
0.0658248
0.0654742
0.0651577
0.064878
0.0646377
0.0644393
0.0642858
0.0641797
0.0641206
0.00381593
0.00367349
0.00350209
0.00329563
0.00305018
0.00276851
0.00245332
0.0021069
0.00173161
0.00132989
0.000904199
0.000457043
-9.0629e-06
-0.00049159
-0.000988011
-0.00149581
-0.0020125
-0.00253562
-0.00306275
-0.00359154
-0.00411966
-0.00464489
-0.00516505
-0.00567805
-0.00618185
-0.00667452
-0.0071542
-0.00761912
-0.00806757
-0.00849795
-0.00890873
-0.00929847
-0.00966579
-0.0100094
-0.0103282
-0.0106209
-0.0108866
-0.0111242
-0.0113328
-0.0115117
-0.0116601
-0.0117773
-0.0118626
-0.0119154
-0.0119354
-0.011922
-0.0118749
-0.0117938
-0.0116783
-0.0115283
-0.0113436
-0.0111241
-0.0108697
-0.0105805
-0.0102565
-0.00989763
-0.00950418
-0.00907625
-0.00861406
-0.00811785
-0.00758791
-0.00702457
-0.00642817
-0.00579913
-0.00513785
-0.00444481
-0.0037205
-0.00296544
-0.0021802
-0.00136536
-0.000521517
0.000350673
0.00125055
0.00217741
0.00313053
0.00410919
0.00511261
0.00614
0.00719055
0.00826344
0.0093578
0.0104728
0.0116074
0.0127609
0.0139323
0.0151206
0.0163249
0.0175442
0.0187775
0.0200238
0.0212821
0.0225514
0.0238306
0.0251187
0.0264146
0.0277173
0.0290256
0.0303386
0.031655
0.0329739
0.034294
0.0356144
0.0369338
0.0382512
0.0395655
0.0408755
0.0421801
0.0434783
0.0447689
0.0460508
0.0473228
0.048584
0.0498332
0.0510694
0.0522914
0.0534981
0.0546887
0.0558619
0.0570168
0.0581523
0.0592675
0.0603614
0.061433
0.0624813
0.0635055
0.0645047
0.0654779
0.0664243
0.067343
0.0682334
0.0690946
0.0699258
0.0707264
0.0714956
0.0722329
0.0729376
0.0736091
0.074247
0.0748507
0.0754197
0.0759537
0.0764523
0.0769151
0.0773419
0.0777325
0.0780867
0.0784044
0.0786855
0.0789299
0.0791378
0.0793092
0.0794442
0.0795432
0.0796063
0.0796339
0.0796264
0.0795843
0.0795082
0.0793985
0.079256
0.0790815
0.0788757
0.0786396
0.0783741
0.0780803
0.0777593
0.0774122
0.0770404
0.0766452
0.076228
0.0757904
0.075334
0.0748604
0.0743714
0.0738688
0.0733545
0.0728306
0.072299
0.0717619
0.0712216
0.0706803
0.0701402
0.0696038
0.0690736
0.0685518
0.0680412
0.0675441
0.0670631
0.0666007
0.0661594
0.0657417
0.0653502
0.0649871
0.064655
0.0643562
0.0640929
0.0638677
0.0636833
0.0635379
0.0634275
0.00456611
0.00436781
0.00415307
0.00391196
0.00363601
0.00332786
0.0029902
0.002625
0.00223431
0.00182031
0.00138523
0.000931343
0.000460932
-2.36888e-05
-0.000520202
-0.0010263
-0.00153967
-0.00205805
-0.00257919
-0.0031009
-0.00362102
-0.00413746
-0.00464819
-0.00515123
-0.00564467
-0.0061267
-0.00659554
-0.00704952
-0.00748702
-0.00790653
-0.00830658
-0.00868579
-0.00904286
-0.00937657
-0.00968576
-0.00996935
-0.0102263
-0.0104558
-0.0106568
-0.0108287
-0.0109706
-0.0110818
-0.0111619
-0.0112102
-0.0112263
-0.0112097
-0.0111601
-0.0110771
-0.0109605
-0.0108101
-0.0106257
-0.0104072
-0.0101546
-0.00986787
-0.00954699
-0.00919207
-0.00880323
-0.00838062
-0.00792445
-0.00743495
-0.0069124
-0.00635712
-0.00576946
-0.00514979
-0.00449854
-0.00381615
-0.00310311
-0.00235993
-0.00158716
-0.000785355
4.4873e-05
0.000902905
0.00178809
0.00269974
0.00363716
0.00459963
0.00558638
0.00659666
0.00762966
0.00868459
0.00976059
0.0108568
0.0119724
0.0131064
0.014258
0.0154262
0.0166102
0.0178088
0.0190212
0.0202464
0.0214834
0.0227312
0.0239887
0.025255
0.026529
0.0278096
0.0290958
0.0303865
0.0316806
0.0329772
0.034275
0.0355731
0.0368702
0.0381654
0.0394575
0.0407455
0.0420282
0.0433046
0.0445735
0.0458339
0.0470847
0.0483248
0.0495532
0.0507688
0.0519705
0.0531573
0.0543281
0.0554819
0.0566178
0.0577347
0.0588317
0.0599077
0.0609619
0.0619933
0.063001
0.0639841
0.0649418
0.0658732
0.0667774
0.0676539
0.0685016
0.0693201
0.0701084
0.0708661
0.0715924
0.0722867
0.0729485
0.0735773
0.0741725
0.0747338
0.0752608
0.075753
0.0762102
0.0766321
0.0770184
0.0773691
0.0776839
0.0779629
0.078206
0.0784132
0.0785847
0.0787205
0.0788209
0.0788863
0.0789168
0.0789129
0.078875
0.0788038
0.0786996
0.0785633
0.0783956
0.0781972
0.077969
0.0777119
0.0774269
0.0771152
0.0767779
0.0764161
0.0760313
0.0756248
0.075198
0.0747525
0.0742898
0.0738117
0.0733199
0.0728163
0.0723026
0.0717809
0.0712532
0.0707215
0.0701881
0.069655
0.0691245
0.0685989
0.0680804
0.0675714
0.0670743
0.0665913
0.0661247
0.065677
0.0652503
0.064847