/*--------------------------------*- C++ -*----------------------------------*\
  =========                 |
  \\      /  F ield         | OpenFOAM: The Open Source CFD Toolbox
   \\    /   O peration     | Website:  https://openfoam.org
    \\  /    A nd           | Version:  7
     \\/     M anipulation  |
\*---------------------------------------------------------------------------*/
FoamFile
{
    version     2.0;
    format      ascii;
    class       volScalarField;
    location    "4";
    object      p;
}
// * * * * * * * * * * * * * * * * * * * * * * * * * * * * * * * * * * * * * //

dimensions      [0 2 -2 0 0 0 0];

internalField   nonuniform List<scalar> 
19392
(
0.450881
0.493619
0.225125
0.0530387
0.0539957
0.0522614
0.43537
0.210499
0.196482
0.515526
0.510145
0.0555913
0.0593183
0.0614749
0.0640934
0.067947
0.0797534
0.52929
0.536663
0.542597
0.520524
0.548856
0.551301
0.504611
0.485726
0.465731
0.0524315
0.443026
0.0528283
0.416993
0.392534
0.37464
0.552566
0.0533521
0.356564
0.0521492
0.331917
0.313142
0.295849
0.27863
0.0537149
0.262902
0.247561
0.232778
0.0522209
0.217725
0.203522
0.189967
0.177566
0.533104
0.539818
0.525119
0.401357
0.38357
0.552017
0.365735
0.322117
0.0535315
0.304518
0.0547387
0.287163
0.269731
0.0522209
0.165708
0.239917
0.472801
0.458443
0.154788
0.0550989
0.0566881
0.0585968
0.144753
0.0549555
0.0606184
0.160082
0.256462
0.0632633
0.0560987
0.0665556
0.149696
0.131606
0.0705573
0.073775
0.122868
0.0775587
0.11521
0.0624523
0.0832482
0.107961
0.087609
0.0924095
0.0652264
0.101279
0.0692616
0.127282
0.118952
0.111539
0.0855388
0.479518
0.0525372
0.426633
0.0599688
0.0579472
0.550248
0.104606
0.139973
0.0757217
0.499207
0.0720048
0.0573289
0.184548
0.547114
0.0545996
0.545012
0.0979782
0.0529534
0.0521107
0.350455
0.095521
0.17136
0.0898621
0.409214
0.0524073
0.340252
0.135604
0.0813884
0.552765
0.504657
0.426352
0.0526848
-0.3437
-0.86587
-0.0065007
-0.0527111
-0.751013
0.126961
0.0486824
0.325238
-0.0282752
0.111647
0.302961
0.00834792
-0.9676
0.123374
-0.321698
-0.753254
0.0470084
0.101619
-0.123204
-0.00810663
-0.00730117
0.0508399
-0.861667
0.0854791
0.180224
0.0130786
0.323693
-0.155646
0.0581701
0.0856547
-0.324797
0.217442
-0.328546
0.169901
0.160654
0.147545
-0.205238
0.380209
-0.0720164
0.443196
0.053214
-0.328394
0.350997
0.054408
-0.0890077
0.0273183
-0.150417
0.00987055
-0.0341742
0.0482937
-0.590577
0.0215758
-0.765423
0.0579132
-0.0201751
0.245688
0.0515887
-0.298971
-0.737823
0.382747
0.487828
0.347253
0.048608
-0.956305
-0.479433
0.0631626
0.0115536
-0.326781
0.15779
0.137058
-0.356202
-0.126907
-0.00103213
0.457991
-0.060674
0.0489804
-0.388142
-0.387018
0.321151
-0.32999
0.144424
-0.0226379
-0.488895
-0.140095
-0.343721
-0.0449882
-0.282736
0.0522373
0.0520925
0.0281857
0.0379888
0.299037
-0.328207
-0.322296
0.382984
0.33033
0.0364396
0.192731
0.512547
0.0943107
0.0684459
0.044998
0.169494
-0.329801
-0.180867
-0.329533
0.00501683
-0.322117
0.225748
-0.00432482
0.23874
-0.0753056
-0.0248971
0.010184
0.133877
0.0920781
-0.0181923
-0.490048
0.0793701
0.2389
0.456964
-0.329669
0.137829
-0.369458
-0.366833
0.483087
0.0239425
-0.225291
0.418223
0.446736
0.18111
0.0626358
0.0497112
-0.500715
0.0508189
0.0627591
-0.32136
0.375785
0.281297
0.0782077
0.0129338
0.123035
-0.363501
0.0747427
-0.0440773
-0.544626
0.087222
0.0210038
0.0536708
0.0102938
-0.00389205
0.179602
-0.376697
0.289286
0.286188
-0.726617
0.0532418
-0.338391
0.428127
-0.726522
0.0479135
0.043643
0.406347
-0.380435
-0.786765
-0.0642999
-0.0541707
0.0546712
0.00688756
-0.0313858
-0.280306
-0.274953
0.511105
0.22925
0.0993419
0.492446
-0.330126
-0.323797
0.135146
-0.0010268
-0.310061
0.0515822
0.0436676
-0.34212
0.219356
-0.33583
-0.0774759
0.426911
-0.355274
-0.119748
-0.125335
0.389249
-0.491224
0.392569
0.0987876
0.050761
-0.366845
0.483854
0.179185
0.108165
0.193651
0.00190612
0.0955811
0.0938627
-0.98362
0.0930951
-0.328322
-0.322492
-0.332555
0.260805
-0.312269
0.000753137
0.0954425
0.294273
-0.220965
-0.123879
0.196694
0.124635
0.25754
0.117443
-0.0168644
-0.00224434
-0.404485
0.0533573
0.199155
0.387519
0.0695283
0.23986
-0.216684
0.429209
0.13041
0.293595
0.369478
0.0516434
-0.2752
0.0535666
-0.123012
0.0103553
-0.337636
0.372452
-0.321233
0.163125
0.0921468
0.0680976
-0.380699
0.02238
0.187553
0.0239483
0.140579
0.0380892
0.218617
-0.0283652
-0.335967
-0.259592
0.038775
-0.159568
0.446882
-0.328973
-0.00077814
-0.326445
0.206118
0.300269
0.0216697
-0.28681
0.490768
-0.321057
0.0485054
0.233106
-0.372528
0.291558
0.321371
0.0603513
0.0295029
-0.351333
0.0950754
0.389657
-0.341593
0.459974
-0.373311
0.0500885
-0.0287874
0.0548684
-0.0106433
-0.0493039
0.0523377
0.442833
0.102975
-0.0914141
-0.25344
-0.322087
0.401081
-0.332599
-0.382896
0.179445
-0.329765
-0.191931
-0.534075
0.126378
-0.000351994
-0.0302954
-0.411749
0.0690855
0.420571
0.453299
0.0798225
-0.0102122
-0.0118862
0.21648
0.0534555
0.172072
-0.310889
0.129776
-0.33131
0.441626
-0.179487
0.0392687
-0.6125
-0.331704
-0.393716
-0.587124
0.462893
-0.35395
0.307909
-0.128805
-0.0188296
0.140944
0.0729683
-0.014614
0.0887924
-0.794475
0.0500566
0.0415624
-0.419385
0.0601058
0.266895
-0.328448
-0.311574
0.175232
-0.34141
-0.0675438
0.0521309
0.0579022
-0.170273
0.0811201
-0.584785
0.0367133
0.253933
-0.10031
0.284959
-0.0313356
-0.350642
0.0531962
-0.330061
-0.326063
0.452271
0.168283
-0.132539
-0.322237
-0.209887
-0.202179
-0.0540719
0.0103684
0.0241954
0.175822
-0.00810478
-0.081645
0.273542
0.0560934
0.104773
-0.496254
-0.180559
0.0498499
0.0142098
0.114036
-0.203598
0.0481959
-0.0262917
0.55087
0.0961483
0.492867
-0.38031
-0.0824274
0.0510398
-0.793075
0.481452
0.0828318
0.174212
-0.262269
0.0759393
-0.318524
-0.331413
-0.228735
0.19715
-0.0520119
0.0582311
0.0901513
-0.115403
-0.769053
-0.735549
0.180582
0.000192636
0.0915244
0.0974939
-0.0458244
0.090017
0.021911
-0.0580652
0.0945077
-0.418674
-0.0863535
0.125462
0.0600894
0.0843115
-0.32829
-0.00581162
-0.19801
0.0591463
-0.204918
0.110812
-0.338876
-0.308697
0.422326
-0.296859
0.0522319
0.10811
-0.401414
0.0701637
-0.119712
0.0594512
0.127312
-0.289364
0.0279068
0.113439
0.0480825
0.0831071
0.17294
0.0216023
0.12386
-0.0562126
-0.221931
0.185395
0.12279
-0.198858
0.530606
0.0158927
0.305975
0.000136335
0.418731
0.185403
-0.0476005
0.115869
0.0895371
-0.327078
0.139708
-0.540298
0.040993
0.384173
0.175104
0.00816996
-0.329547
-0.0186863
-0.356194
0.0510604
0.418303
0.2271
-0.267431
0.169035
-0.0160043
0.395018
0.013331
-0.68469
0.0196267
0.550752
0.201288
0.172578
0.101176
-0.132289
-0.728313
-0.0674776
0.491955
0.385306
0.442165
-0.0572257
0.0531536
-0.577277
0.226158
0.366398
-0.325505
0.0116552
0.0598922
-0.327942
-0.0378172
0.0915916
-0.29127
-0.327228
0.0590101
0.0632282
0.0925094
-0.814682
-0.323886
-0.757154
0.0826666
0.0510406
0.197607
-0.0890581
0.00185074
-0.744008
-0.283493
0.305492
-0.134715
0.373481
-0.123524
0.08987
-0.346971
-0.350463
0.0505797
-0.157806
-0.304721
-0.00977616
0.496026
0.283414
-0.0263865
-0.00896997
0.0848778
0.383337
0.21888
0.222163
0.0227129
-0.326258
0.0460873
0.458988
0.0510391
-0.287455
-0.330226
0.0521459
-0.761867
0.223395
0.111287
0.0119226
0.454791
0.45186
0.0510926
0.0503
0.432082
0.0564804
0.121814
-0.78716
-0.275589
0.0853568
0.268483
-0.332023
-0.337555
0.49223
0.202428
-0.343368
0.537532
0.233154
-0.327244
-0.32997
0.500415
0.27883
0.362697
0.0514225
-0.28217
-0.40994
-0.32499
-0.424034
0.0311258
-0.201258
-0.191956
-0.389537
-0.34111
0.0887716
0.0516059
0.198305
-0.321761
-0.352169
-0.355168
0.429587
0.00665938
-0.0160588
0.234591
0.256333
0.129126
0.0566381
0.0372276
-0.542593
-0.322605
0.0917515
-0.206688
-0.182199
0.00342806
0.0517877
0.0514145
-0.0396692
0.002595
-0.130275
-0.0727644
0.481441
-0.1621
-0.301253
0.239495
0.530429
0.0502422
0.519858
-0.0451055
0.265741
-0.323144
-0.115118
0.494759
0.44578
0.292058
-0.39943
0.308929
-0.174716
0.125585
0.214073
0.0526778
0.0311984
0.0589727
-0.129765
-0.333778
-0.738636
-0.00324684
0.33719
-0.110767
0.211396
0.0137578
-0.168218
-0.0353835
0.312091
0.0505997
-0.872226
0.0531488
-0.125243
-0.2955
-0.416332
0.0482673
0.0872124
0.0714195
0.463985
0.0856555
-0.262607
-0.348714
0.374429
0.00340414
-0.477926
0.120082
0.097921
0.156765
0.0574896
0.267574
0.0468448
-0.211275
-0.322566
0.310299
0.494886
-0.137284
0.0510748
0.0206987
-0.441068
0.0880935
0.0512702
0.0517629
-0.435104
0.332244
0.102015
-0.192101
-0.306506
0.0232085
0.101682
0.215657
0.379645
0.22389
0.118024
-0.460882
0.53763
0.0348796
-0.325302
0.00365597
0.0525116
0.519858
-0.0247229
-0.326932
0.0805713
-0.155059
0.0945341
-0.348709
0.0664564
0.241281
-0.789769
0.0525188
-0.330187
0.337808
0.0751955
-0.326632
-0.346428
-0.431004
-0.0123631
0.0479644
0.125001
-0.226114
-0.0801258
0.000817225
-0.0931917
0.0525257
-0.329889
-0.247738
0.00534104
0.116355
-0.330336
-0.328689
-0.303549
0.156275
-0.198638
0.495445
-0.33149
0.021492
-0.320696
0.091142
0.438966
0.548611
0.145586
0.0632631
-0.292948
-0.318814
-0.387612
0.374244
-0.328965
0.0339133
-0.20596
0.221388
0.492115
-0.808245
-0.189549
-0.0677521
0.49977
-0.0742433
-0.0363682
0.243283
0.467993
-0.0843432
0.160807
0.101957
0.357938
0.155485
0.475207
-0.362261
0.51752
-0.329322
0.0889394
0.209394
-0.32137
-0.600437
0.0509816
0.164557
-0.758863
-0.591648
-0.0344427
0.492785
0.445651
0.012014
-0.198708
0.0571777
-0.0211778
0.0524574
-0.348277
0.430742
0.019462
-0.362901
-0.0435683
0.0506564
0.470955
-0.0753166
0.114661
-0.171203
-0.03035
-0.347918
0.059317
0.164273
-0.388085
0.0526789
-0.0785589
0.247589
0.058445
0.225628
0.0443521
-0.208811
0.216524
0.287309
-0.264523
0.0892669
0.291652
0.100074
0.0905761
0.0436722
-0.28911
0.194353
0.0476435
-0.445069
-0.319547
-0.0647859
0.178877
-0.000154128
0.0465105
0.0676851
0.0438206
-0.567035
-0.30127
-0.366188
0.0591193
0.454879
0.342724
0.00454169
0.0606666
-0.505239
0.148243
0.195763
-0.0398953
-0.380366
0.0521488
-0.0675453
0.342112
-0.385163
0.101256
-0.320377
0.0567937
-0.274833
0.504595
0.124137
0.455398
0.0502816
-0.577247
-0.349747
0.0627682
0.0426183
0.480809
-0.743949
0.271935
-0.155725
0.465806
-0.0383837
-0.348129
0.327407
-0.0118174
0.45539
-0.342044
-0.322842
0.0326897
0.181898
0.0481275
-0.215085
0.0520657
-0.326073
-0.409079
0.0443727
-0.202685
-0.195484
0.0784629
0.078429
-0.148751
0.120836
0.489671
0.258179
-0.330015
0.094048
-0.0376887
-0.223971
0.210624
0.425837
0.475942
-0.439355
0.09478
0.364086
-0.322202
0.0585773
0.0505371
0.118703
0.379379
0.0383928
0.0165177
-0.0674497
0.0532071
0.220645
0.494311
-0.0138077
-0.986294
-0.266336
-0.00510724
0.151231
-0.206463
-0.0711023
0.0589978
-0.0162335
-0.30627
0.477993
-0.0791514
0.0772174
-0.380509
-0.330708
-0.35009
-0.843773
0.147618
-0.486418
-0.303932
0.0535941
-0.325718
0.0475137
0.0524097
0.103348
0.169123
0.196132
-0.411332
0.000981333
0.047109
-0.0135282
0.00382451
0.292889
-0.00351389
-0.0345785
0.215924
0.0975105
0.0522354
-0.106221
0.457241
-0.055705
0.0130954
0.00298132
-0.0592785
0.0265606
0.219451
-0.295631
0.0516009
0.132356
-0.335849
-0.341029
-0.30647
-0.325848
0.0124322
0.190908
-0.269731
-0.030695
0.407756
0.505211
0.0348928
0.160664
0.229876
-0.40595
0.0468451
0.0874795
0.123759
-0.328764
0.179002
0.482465
0.0867834
0.051981
0.0866279
-0.350218
-0.316045
0.0687683
0.0744015
0.0171467
0.0126288
-0.260443
-0.162822
-0.314383
-0.362848
0.00260835
-0.765464
0.120849
0.0471144
0.0918615
0.528584
0.0963096
0.215851
0.357415
0.0254552
0.0572682
0.12808
-0.0151191
-0.0544364
0.292636
-0.325043
-0.311951
0.498668
-0.322519
0.47495
-0.323179
0.287586
0.110998
-0.0679654
-0.317435
0.0508776
-0.546306
0.0770321
-0.183689
0.0486181
-0.0619545
-0.269483
0.273091
0.0535638
-0.329077
0.454873
0.0335478
0.544358
0.425652
-0.552947
0.212973
-0.753704
-0.831451
0.12718
0.204088
-0.0192218
0.382305
0.0522986
0.350597
0.0484619
0.0681134
0.0136587
0.0316932
0.474902
0.0116208
0.0388793
-0.219158
0.0568943
0.0532042
0.485358
-0.0100071
0.0162061
0.01605
-0.326592
0.0525376
-0.323835
0.2386
0.0469202
0.348197
-0.141053
-0.329853
-0.200149
-0.157213
0.0866428
0.521373
-0.465007
-0.279294
-0.0712962
0.0575802
0.04019
-0.346058
0.460214
-0.0751749
0.0385276
0.178152
-0.0223936
0.470088
0.217321
-0.262699
-0.134144
0.0377414
0.0419732
0.206967
0.436027
0.0346376
-0.00520463
0.0522752
0.0520735
0.50723
-0.228189
0.267616
0.53864
0.210773
0.457259
-0.386123
0.494149
0.26004
0.0500189
-0.388604
0.199439
0.549001
0.454791
-0.0812776
0.426886
0.386104
0.0905602
-0.00577198
0.0510131
-0.329168
0.0708149
0.162057
-0.0626121
0.28629
0.0495513
-0.300256
-0.326395
0.112103
-0.404821
-0.213063
0.0396874
-0.284957
-0.423633
0.0327358
0.231439
-0.373155
0.539464
0.516183
-0.0164434
-0.380676
0.0328678
0.004579
0.0551952
0.0375728
-0.236743
0.0807894
0.38978
0.266012
0.0281638
-0.452757
0.0508483
0.0946893
-0.207592
-0.336109
-0.186779
-0.323898
0.0771418
0.549792
0.393112
0.0770434
-0.325067
0.464378
-0.326734
-0.0109153
-0.327641
0.466526
-0.448802
0.0126931
-0.365566
0.116305
-0.440816
0.395616
0.267888
-0.0397613
0.139358
0.154325
0.0357513
-0.00216875
0.057567
-0.73003
0.436248
0.442826
0.0571386
-0.302669
0.418777
0.552005
0.331245
0.0965988
0.0470904
0.200886
0.000693025
0.0586858
0.5313
0.200904
0.458306
0.481347
-0.280476
0.0750965
-0.0332422
-0.269992
-0.327111
0.456117
-0.24707
-0.139823
0.462515
0.3261
-0.0105806
-0.366978
-0.255542
-0.342802
-0.0144994
0.508895
0.176421
0.116005
-0.116997
-0.151962
0.0560679
0.133218
0.158751
-0.335149
0.00703533
-0.0876923
-0.175486
-0.286101
-0.324167
0.0448893
0.0165709
0.0471852
0.0666871
-0.0739674
-0.00203829
-0.323636
0.197271
-0.335916
-0.333181
0.424629
0.0761461
0.00938739
0.310218
0.231614
-0.117119
0.107731
0.0228359
0.0442428
-0.381676
0.00298488
0.0449735
-0.382065
-0.0839145
-0.0428234
0.0262071
-0.507263
0.415768
0.552149
-0.00293563
-0.328403
-0.325031
0.100604
0.0519833
-0.321457
-0.398984
0.128318
0.521567
-0.186
0.533396
0.154623
0.121581
0.128302
-0.114648
-0.193178
0.429787
0.00246717
0.438712
0.282163
0.0434485
0.0154015
0.057801
0.384995
0.34192
-0.0393195
0.0936422
-0.132472
0.139194
0.110009
-0.340084
0.0553702
-0.0976312
-0.307435
-0.437863
-0.330258
0.0570605
0.417492
-0.424815
0.10274
0.450013
0.488272
-0.325058
0.0305193
0.126472
-0.05096
0.502818
0.0841118
0.000315539
-0.0422064
-0.459872
0.00273758
0.220756
0.422154
-0.0304814
0.0431812
0.109746
0.542779
-0.0351356
0.43431
-0.262181
-0.138951
0.101657
-0.81477
0.051127
0.550064
-0.118636
-0.326819
-0.0347456
0.198103
0.122151
0.323763
0.103418
-0.0349618
0.263097
0.0998889
-0.312992
0.08908
0.233761
-0.168058
0.0387441
0.248544
-0.7426
-0.240873
-0.278238
-0.382168
0.0530539
-0.318904
-0.386665
0.497572
0.0554396
0.073575
0.0140494
-0.423609
0.0542517
0.33244
0.0146187
-0.405176
0.551626
0.00125609
-0.322917
0.110704
-0.0704807
-0.324389
-0.360357
-0.112627
0.510048
0.54303
0.447557
-0.347778
-0.3263
-0.120177
0.449951
0.0509173
0.00326306
-0.211568
0.388368
0.0609199
0.0469902
0.0520164
0.299915
0.246734
0.161117
0.160712
-0.0308742
0.206572
0.0508874
-0.135377
0.0508585
0.529715
0.0280102
0.0516679
0.124004
-0.00177252
0.120582
0.0830589
0.0534416
0.548689
0.192501
0.00920888
0.193372
0.208113
0.121308
0.0554963
0.045185
0.0555281
-0.201026
0.0804039
0.46854
0.417767
0.121046
-0.292288
0.0479655
0.547754
-0.027654
0.182687
-0.145668
-0.32036
0.552329
0.447004
0.551547
0.0562088
0.455604
-0.0592643
0.405499
-0.329311
0.0312136
0.114608
-0.325411
-0.225157
-0.329339
-0.619087
0.00181861
0.0573684
-0.348979
0.172922
-0.00280094
-0.330343
0.0723202
-0.0581703
0.098063
0.153078
-0.0709902
-0.317858
-0.309754
0.0603947
0.0380498
0.0532773
0.232004
0.0930721
0.337499
-0.331425
0.355309
-0.380326
-0.0263338
-0.595378
-0.287583
0.217526
0.165074
0.0524507
-0.0650147
0.0186262
-0.0395973
0.0025922
0.272598
0.24441
0.0579618
0.27816
-0.46112
0.0532215
0.017009
-0.348567
0.0523891
0.203403
-0.0173187
0.0540148
0.116861
0.371427
0.17099
-0.509793
-0.269959
0.426255
0.399187
-0.30051
0.0136961
0.225018
-0.107706
0.159629
-0.322456
-0.272493
0.237148
-0.322375
-0.320185
0.190932
-0.024211
0.0510024
-0.0219035
0.220393
-0.598623
-0.594471
-0.176959
-0.673593
-0.321101
-0.775007
-0.46282
0.402605
0.429856
-0.316084
0.19793
-0.343046
-0.182651
-0.324077
0.26027
-0.322005
0.0874075
-0.105748
0.328451
0.518961
-0.0106913
0.107012
0.418308
0.262781
0.0106425
-0.376827
-0.464295
0.0457179
-0.0173235
0.267471
0.0150131
0.189615
0.000291454
0.0590197
0.225596
0.387188
0.43765
-0.032485
-0.102838
0.00273798
-0.16212
0.00929134
0.109747
0.267784
-0.200948
0.110786
-0.0311779
0.542403
-0.0820621
0.458361
-0.381258
0.0553346
0.107199
0.434865
0.325558
0.0707339
0.0935997
0.0502874
0.000479744
-0.0485489
-0.310701
0.3794
-0.806691
0.552419
0.473961
0.0182645
0.101039
-0.177617
0.00365609
0.355391
0.222573
0.0271489
0.02774
0.05088
0.126581
-0.362378
-0.326806
-0.379293
0.0598696
0.457569
0.0131289
0.0297971
-0.00462551
-0.00211692
0.153821
0.326073
-0.0358488
-0.333678
-0.322353
0.426242
0.495594
-0.209352
-0.0616681
0.116438
-0.1975
-0.00334589
0.0531584
-0.0997686
0.149513
-0.328671
-0.354893
0.373825
0.0969296
0.144024
-0.0753602
0.256874
-0.298641
0.0114132
-0.301536
-0.32695
0.51359
-0.330602
0.0522399
0.275487
0.294628
0.133796
0.478141
0.0477971
0.506437
-0.212866
-0.153601
0.0175705
-0.345115
0.00411016
-0.00140489
0.542706
-0.413935
-0.333904
-0.335095
0.200881
-0.337792
0.327565
-0.523501
-0.470354
-0.689484
0.18224
-0.319588
-0.344076
-0.0557337
-0.312038
-0.208123
-0.00687154
0.046425
0.171461
-0.402109
0.0654708
-0.062971
0.0479652
-0.186454
0.0857417
0.0106742
-0.266893
0.0604706
-0.334495
-0.369318
-0.343494
0.4237
0.331563
0.0515226
0.0372444
0.0461936
0.0804288
-0.249238
0.0823069
0.232511
-0.125886
-0.851517
0.104299
0.0756526
0.105508
0.0433969
0.0507381
0.433557
0.0547196
0.538217
-0.145936
-0.296514
-0.481044
0.0192286
-0.317303
0.0519039
-0.284799
-0.343031
0.255053
0.138728
0.513451
0.0517653
-0.0783133
-0.200499
-0.320993
0.0419574
-0.322967
0.137432
-0.412494
-0.365878
0.0545274
-0.380315
0.0529933
0.310921
-0.484305
-0.0340577
0.320872
-0.25521
-0.647926
0.0464009
0.0428568
0.0733182
0.0537979
0.0290546
-0.975512
0.473312
0.171166
-0.0218021
0.509465
0.0508726
0.0599947
-0.333228
-0.341149
-0.0287202
-0.148645
-0.0686756
0.0521773
0.0569919
-0.347788
0.0509314
-0.280486
0.0807179
-0.321765
0.0374171
0.0179306
0.0555647
-0.324837
0.152988
0.483373
-0.0361582
0.124162
0.0512483
-0.0944745
0.444967
-0.598794
-0.374524
-0.805011
0.100445
-0.308657
-0.0189279
0.474474
0.0188902
0.0515722
0.126616
0.229444
0.245235
0.335621
-0.122916
0.504258
0.282316
0.129093
0.386061
-0.182637
0.364453
0.0296309
0.514108
0.124139
-0.430797
0.050853
-0.407982
0.061743
0.0995079
-0.325233
0.352711
-0.0133191
-0.354492
0.112948
0.115149
-0.315528
-0.544633
-0.0648857
-0.0967507
-0.00827333
-0.182192
-0.239985
-0.130731
0.0523037
-0.134682
0.409956
0.36223
0.00101191
-0.261123
0.0705473
-0.362655
0.0707605
-0.334823
0.109257
0.332285
0.181367
-0.322876
0.549671
0.521281
0.0560858
0.0747373
0.268929
-0.325738
-0.372866
0.127563
0.49751
-0.325356
-0.150381
-0.264533
-0.0410031
0.461626
0.192591
0.0926208
0.162461
0.0383727
0.478304
-0.543232
0.0381521
0.102532
-0.0202769
-0.0963157
-0.352273
-0.0647376
0.0508501
-0.0743239
-0.355311
-0.517448
0.500068
0.0259196
0.225558
0.487853
-0.213812
0.0965912
-0.0712057
0.151343
0.440426
0.53407
0.0527469
0.090765
-0.273204
-0.0202404
-0.319387
0.513701
-0.219136
0.217638
-0.112904
0.0550769
-0.174084
-0.826578
0.0573762
-0.348754
-0.367764
-0.0742255
0.122592
0.0688832
-0.0913917
0.268748
-0.00192489
-0.325414
0.247682
0.0105341
-0.0491401
0.0552143
0.25891
0.00843243
-0.048058
-0.0266312
0.0499311
0.0575268
0.378829
0.0560312
0.219439
-0.383985
0.496614
-0.00304098
0.16164
-0.931051
0.0509783
0.117158
-0.323164
-0.00556079
-0.305458
0.105752
0.126599
0.0979622
-0.329703
-0.349401
0.000647765
0.483603
0.110084
0.0536349
-0.15106
0.00339887
0.0967217
0.0544262
-0.321371
-0.102467
0.0571304
-0.0389283
-0.329173
0.449342
-0.330019
0.41371
0.425453
0.06961
0.423219
-0.0194891
0.108417
-0.322764
-0.0397394
-0.017149
-0.139612
-0.025777
0.433241
0.0398239
0.0241414
-0.371017
-0.361531
0.336414
0.0524127
0.417055
-0.321809
0.475097
0.51737
0.0203349
-0.102692
-0.388737
-0.0151266
-0.335145
0.0992249
0.0309668
0.250692
-0.773699
-0.394158
0.499775
-0.34423
-0.965169
0.0524545
-0.395942
-0.860019
0.372703
-0.290428
-0.323693
-0.0374263
0.209756
0.0280697
-0.332639
-0.323045
0.226639
0.148054
0.0851521
-0.13483
0.195502
-0.330659
0.00359953
0.103935
-0.120676
-0.242873
0.0520301
0.0758373
0.047952
0.0069866
-0.644469
0.0860392
-0.622522
0.37417
-0.434936
0.0317574
-0.473854
0.316382
0.25556
-0.881505
-0.0776322
-0.382375
0.480225
0.2818
0.0887503
0.437128
0.0523391
0.0414169
0.000529912
0.539171
0.054415
0.23775
-0.385587
0.435841
0.41539
0.000684619
-0.329535
-0.731603
0.00364181
0.052784
-0.22406
-0.085431
-0.336765
0.416046
-0.337194
-0.406577
0.36229
0.433184
0.434179
-0.267829
-0.363107
-0.0445492
0.117474
0.268079
0.52213
-0.36273
0.310678
-0.333047
0.103155
0.182184
-0.105682
0.0531471
-0.0801311
0.022199
0.0678936
-0.0778209
-0.330877
0.390098
-5.40871e-05
-0.408488
0.208642
0.293376
0.00119563
0.00163297
-0.970838
0.350464
0.0531449
0.446939
0.082355
-0.326937
0.143024
-0.0038534
-0.292799
0.232217
-0.326978
0.42187
0.0526661
0.0727242
-0.427433
-0.341524
-0.783939
-0.208633
-0.599581
-0.0167711
0.00631669
-0.0817043
0.164126
-0.387863
-0.0821848
0.0500073
0.0602559
0.0156373
-0.26141
-0.332649
0.0513567
-0.00201794
-0.220949
0.0917904
0.253073
0.0620149
0.0404159
0.0543906
0.526465
0.0611984
-0.329524
-0.00325681
-0.384351
-0.317403
0.388491
-0.326201
-0.366645
-0.381099
-0.415378
-0.465279
0.337795
-0.445312
0.389219
0.000990602
-0.00587135
-0.340308
0.495467
0.511866
-0.163228
-0.334802
0.0714916
-0.369024
-0.392954
0.340376
-0.164428
0.0709731
-0.623529
0.436624
-0.131706
0.147675
-0.181058
0.550864
-0.386785
-0.332284
-0.362287
0.0754829
-0.130126
0.159479
0.00380482
-0.191869
0.0789506
-0.122654
-0.248565
-0.227878
-0.0651141
0.251378
0.0525364
0.0565036
0.0430512
-0.26829
0.0510312
-0.331187
-0.625805
0.516322
-0.507758
0.02908
-0.197966
-0.0337746
-0.0370781
-0.329339
-0.270332
0.370719
-0.323762
0.503807
-0.327437
-0.0750433
-0.627312
0.114096
-0.358281
0.0582634
-0.325321
0.543564
0.0822952
-0.351026
0.00957681
-0.162804
0.0864741
-0.330086
-0.327248
0.0635244
0.256835
0.105764
0.534678
0.0556228
-0.397783
0.0517546
-0.321406
-0.135718
0.0561941
-0.018803
0.0549367
-0.256819
0.0450222
-0.323142
-0.430447
0.00314467
0.075179
-0.581036
-0.658222
0.0842909
0.0576458
-0.0429735
0.292393
0.252752
-0.0028431
-0.0642569
0.414378
0.434528
-0.325567
0.24408
-0.138288
-0.323118
-0.0995231
0.04275
0.330151
0.049152
-0.32206
0.365355
-0.258206
-0.339294
-0.00909603
-0.322421
0.0564654
-0.0382366
0.512285
-0.202223
-0.327703
-0.29535
-0.217979
-0.331173
-0.902147
-0.32557
-0.374283
0.0517235
0.220334
-0.0819846
-0.61287
-0.0602204
-0.0934442
-0.00140139
0.13166
-0.337734
-0.391256
0.203651
-0.250562
0.0532093
-0.200663
0.33741
0.0984975
-0.336403
0.197295
-0.313464
0.0370238
0.195023
-0.588865
0.0371251
0.167492
0.388772
-0.741127
-0.0505149
0.223587
-0.00179216
0.0477448
-0.00693683
0.327206
-0.305559
-0.0832172
-0.372953
0.00768178
-0.332515
-0.38174
-0.357672
-0.0587548
-0.390437
0.0608282
-0.6442
0.156321
-0.332413
-0.00186179
-0.259828
-0.353672
0.0515989
-0.200685
0.106839
-0.331709
0.0117647
-0.629804
0.0338582
0.0205219
-0.0686586
-0.0335101
-0.329225
-0.823361
-0.170483
-0.162948
-0.208926
-0.321852
0.432231
0.0484713
0.359439
0.0507676
-0.218597
0.0725914
0.0520505
-0.211064
-0.781147
0.214727
-0.3214
0.0236633
0.427024
-0.0547358
0.407591
0.0217668
0.348036
0.0547053
-0.071998
-0.228226
0.456499
0.0272308
-0.310976
-0.0277474
-0.299619
-0.327919
0.0550874
-0.0691471
0.086527
0.0579756
0.258973
0.135504
-0.375024
-0.168945
-0.284839
0.057536
0.0314285
0.542374
-0.226977
-0.428407
0.550628
-0.653596
0.0182695
-0.615357
-0.334779
0.512834
-0.0650191
0.176396
-0.584853
-0.329788
-0.329599
0.184237
-0.302714
0.05634
0.176874
0.0908005
0.478942
0.161102
0.516085
0.173463
0.152943
0.366616
-0.503301
0.198731
0.418597
0.394479
-0.194309
-0.644399
0.466183
-0.330634
0.0491322
0.231003
0.461681
0.0371365
0.0724059
0.374136
-0.000811284
-0.109732
0.058956
0.260397
-0.826062
-0.0568512
0.0672711
0.00457589
0.0542363
-0.304106
0.422017
-0.270363
-0.325026
0.207657
0.065623
-0.370785
-0.00506147
-0.322309
0.338651
0.232342
0.503678
0.168546
-0.323754
0.160474
-0.419696
0.010862
0.00214567
0.166516
-0.150752
-0.29078
-0.249375
-0.327098
0.374541
0.0455891
-0.0909962
0.0519763
0.168569
0.00202843
-0.177548
-0.100991
0.00222697
0.0575201
0.191338
0.228616
0.0774402
-0.908548
0.160996
-0.0404487
-0.0741043
0.14415
0.0301953
-0.295671
-0.0177581
-0.278935
0.548365
0.0462399
-0.577333
-0.189172
0.515191
-0.312197
-0.525281
-0.323114
-0.279636
0.126132
-0.32845
-0.609081
-0.235051
-0.00864235
-0.499344
-0.328412
-0.331359
-0.0800803
-0.254851
0.0963204
-0.0686026
0.075726
-0.330372
0.03663
0.279423
0.372565
0.00139658
0.0360252
-0.326335
-0.382411
-0.837467
-0.262865
0.0574314
-0.532802
-0.226405
-0.280641
0.410861
-0.156678
0.388041
-0.473927
0.393692
-0.181491
-0.964162
-0.304367
-0.384644
0.0736196
-0.255059
-0.00549041
-0.282118
0.534488
0.0524057
0.0510755
-0.296091
0.0523698
0.0028705
0.510983
0.531362
0.32258
-0.34856
-0.33256
-0.20032
-0.542918
-0.0204838
0.0444834
0.132292
-0.36481
-0.0125339
0.340516
0.0975888
-0.662746
-0.329918
-0.344332
0.126449
-0.526917
0.258809
0.0526609
-0.718048
-0.672091
0.181598
0.0145531
0.0503899
0.532611
0.239454
-0.279524
0.489575
-0.00736742
-0.194001
0.544565
0.256211
-0.34737
0.111467
0.507178
-0.433108
-0.331471
0.274641
-0.289789
-0.337105
-0.194063
0.00061073
0.0163176
0.509341
0.407785
0.130658
0.486608
0.519602
-0.38423
-0.185475
0.00869869
0.0479959
0.0666952
0.186613
0.088015
-0.263401
-0.365852
0.0934532
0.462226
-0.093642
0.51495
0.0159649
-0.324606
0.0539436
0.21021
-0.246398
0.442325
-0.449152
-0.187979
0.162513
0.0394574
-0.328727
0.00162707
0.00327836
0.236148
-0.762566
0.0533548
-0.0961452
0.0493647
0.115051
-0.845601
-0.386167
-0.427058
-0.0549285
0.243621
0.0509225
0.0265262
-0.47743
0.253165
0.367549
-0.329382
-0.00153473
0.516953
0.00163054
0.0426529
-0.189752
0.0514657
-0.0506036
-0.503194
0.0129092
-0.166907
-0.00961888
-0.191843
-0.0674179
0.0959114
-0.0242998
0.0488355
0.108067
-0.171151
0.356631
0.187866
-0.0108988
0.0294274
-0.366699
0.058808
-0.105422
0.529341
-0.21353
-0.252659
-0.223306
-0.397781
0.0761938
-0.346384
-0.0340841
-0.329915
-0.412771
-0.196205
0.00304511
0.494685
-0.328864
-0.32123
-0.709193
0.546542
0.0634749
0.287923
0.535622
-0.337094
-0.561107
0.0521338
-0.380496
0.139952
0.0506101
-0.0151393
-0.417755
-0.247366
0.161155
-0.374059
0.0703884
0.0322154
-0.130904
0.511616
0.329484
-0.262331
-0.560102
-0.388886
0.392319
0.528515
-0.310234
0.247694
0.0509497
0.477271
0.320567
0.198596
0.0997408
0.0710729
0.066964
-0.551766
0.488056
0.103472
-0.236339
-0.0245863
-0.368878
0.0556489
-0.415873
0.192732
0.0575545
0.0874129
0.545773
0.360017
0.0175779
-0.0926737
0.166071
-0.0589425
0.0519596
0.0482684
0.0634222
0.0530735
0.0388241
0.0516696
0.241316
-0.0959468
0.0515753
0.0375941
0.251024
-0.149258
0.201881
0.160904
0.279053
-0.099629
0.143919
-0.114193
0.133115
0.542301
0.0532681
0.0513114
0.0517494
-0.0788355
0.122702
0.15642
0.249662
0.177368
-0.932529
0.0455056
0.483797
0.0845882
-0.161098
-0.305232
0.0798673
0.0630702
-0.0556441
0.0541459
0.0573654
0.0293356
-0.330098
-0.0124646
0.0563272
-0.347362
0.00701272
-0.39966
-0.366402
0.349555
0.153281
0.104635
0.136374
0.000752223
0.367314
-0.0506841
0.0447447
0.0736775
-0.378074
0.331754
0.232106
0.0671812
-0.330479
-0.35813
0.0549615
-0.243394
0.356327
-0.149907
0.0453467
0.474756
0.525496
0.00445561
-0.136535
-0.295561
0.00404863
-0.151396
-0.532181
0.0734031
0.225015
-0.742388
0.191783
-0.357284
0.0521897
0.547636
0.101475
-0.348001
0.399708
-0.666988
0.0458905
-0.0847638
0.0511016
0.163786
-0.0865333
-0.326795
0.0337795
-0.149893
-0.323511
0.163375
0.103571
0.205053
-0.0626287
-0.0114929
0.435595
-0.382545
-0.329343
0.0707068
0.270859
0.203513
0.455078
-0.586695
-0.584224
0.52717
0.0055567
-0.321986
0.391571
0.00252751
0.0568721
0.0742108
0.00340092
-0.565598
0.524918
-0.321791
-0.329387
0.0525906
-0.0545329
-0.329985
0.0526845
-0.349627
0.401803
0.0965554
-0.330582
-0.47479
-0.402519
0.0612664
-0.170595
-0.328967
0.399852
-0.323535
-0.339905
0.0542402
-0.330703
0.48075
0.444092
0.131779
-0.330579
-0.331363
0.453231
0.0391548
-0.52489
-0.0232353
-0.503232
0.456124
0.204787
-0.105133
-0.0227672
0.152342
0.114897
0.126022
0.247921
-0.488957
0.0518047
-0.631938
-0.414642
-0.330406
-0.646703
0.0679308
-0.210922
0.0543399
-0.38059
0.478285
-0.000755688
0.528869
0.0562067
0.543068
-0.0939902
0.452304
0.00977513
-0.0147219
0.339234
-0.697856
0.515064
0.134667
0.367562
0.140911
-0.32385
0.515808
0.159966
0.0941259
0.0497733
-0.367321
0.03997
0.401944
0.0422325
0.00911357
0.128734
0.051835
0.0653508
0.0232429
0.0384978
-0.462797
0.194176
0.126823
-0.95565
0.0531484
0.341914
-0.479347
-0.32652
-0.172563
-0.322132
0.406989
0.0147334
-0.321552
-0.51043
0.132839
-0.315038
0.00878835
0.157444
0.1402
-0.186821
-0.368728
0.219961
-0.364249
0.0701791
-0.187718
-0.192992
0.00530441
-0.518085
0.520095
0.408253
0.434214
0.0462307
0.0628655
0.546462
0.0509802
-0.328661
-0.0536132
-0.357744
0.0573465
0.359164
0.499343
0.0491683
0.0398495
0.0517845
-0.0444775
-0.0345877
-0.381344
-0.0241222
-0.3219
0.551213
0.00451594
0.517609
0.0591182
-0.393592
-0.861602
0.0510801
0.0716532
-0.0206385
0.0513315
0.10175
-0.540932
0.214477
-0.289539
0.134333
0.1814
0.372539
0.041949
-0.204249
-0.480298
0.412036
0.320741
-0.22114
0.0457958
-0.331063
-0.324066
0.0553989
0.0381785
0.0937934
-0.356294
0.360046
0.0510849
-0.325106
-0.703219
0.0314809
-0.0213259
0.121641
0.520596
0.223158
-0.125394
-0.159349
0.020386
0.141001
0.0865988
0.410002
-0.223041
0.0177249
-0.000927043
0.28756