/*--------------------------------*- C++ -*----------------------------------*\
  =========                 |
  \\      /  F ield         | OpenFOAM: The Open Source CFD Toolbox
   \\    /   O peration     | Website:  https://openfoam.org
    \\  /    A nd           | Version:  7
     \\/     M anipulation  |
\*---------------------------------------------------------------------------*/
FoamFile
{
    version     2.0;
    format      ascii;
    class       volVectorField;
    location    "37";
    object      U;
}
// * * * * * * * * * * * * * * * * * * * * * * * * * * * * * * * * * * * * * //

dimensions      [0 1 -1 0 0 0 0];

internalField   nonuniform List<vector> 
41600
(
(-0.0338657 0.00282645 -3.19463e-20)
(-0.0812416 0.00291005 -5.52449e-20)
(-0.126792 0.00261459 3.99514e-23)
(-0.155916 0.00185751 -6.42914e-20)
(-0.178511 0.00119087 9.853e-20)
(-0.19655 0.000259202 -2.31189e-19)
(-0.20997 -0.000734924 -3.37412e-20)
(-0.221526 -0.00180728 2.66764e-19)
(-0.230186 -0.00278021 -5.89696e-20)
(-0.237461 -0.00350578 -9.59725e-20)
(-0.242759 -0.00379266 -3.89898e-20)
(-0.246567 -0.00349693 1.21342e-19)
(-0.248714 -0.0025105 -7.16184e-20)
(-0.248936 -0.00089403 -7.53656e-20)
(-0.247386 0.00126464 -7.51307e-20)
(-0.243257 0.0035755 1.82382e-20)
(-0.236866 0.00572791 3.69863e-21)
(-0.227388 0.00715728 -1.08746e-19)
(-0.214361 0.00747357 2.06749e-20)
(-0.19921 0.00657971 2.75461e-20)
(-0.177193 0.00372497 -1.19345e-19)
(-0.157246 0.000512207 9.96621e-20)
(-0.125143 -0.0046257 -2.89626e-20)
(-0.10128 -0.00867954 7.541e-21)
(-0.0601932 -0.0133876 2.58213e-20)
(-0.033988 0.00724851 -1.48535e-19)
(-0.0811642 0.00744211 2.81102e-19)
(-0.126449 0.00684668 -6.84626e-20)
(-0.155252 0.005197 3.53963e-20)
(-0.177464 0.00417778 -2.8915e-19)
(-0.195057 0.00277521 3.5795e-19)
(-0.207946 0.00149615 -5.77464e-20)
(-0.218876 0.000119359 -3.4788e-19)
(-0.2268 -0.0011132 9.05057e-20)
(-0.233213 -0.00211453 -3.16659e-19)
(-0.237507 -0.00269034 5.56246e-20)
(-0.240144 -0.00273979 1.96759e-19)
(-0.240948 -0.00213336 2.00269e-19)
(-0.239588 -0.00104382 4.27397e-19)
(-0.236246 0.000574559 1.40344e-19)
(-0.229956 0.00206655 1.66629e-19)
(-0.221129 0.00342907 2.52835e-20)
(-0.208711 0.00373869 3.53806e-19)
(-0.192258 0.00283671 2.80342e-20)
(-0.173543 0.000850038 -1.00702e-19)
(-0.146431 -0.00395624 -1.10626e-19)
(-0.12348 -0.00774361 -2.01949e-19)
(-0.0839174 -0.0153038 -8.5097e-20)
(-0.05886 -0.0197556 -7.53033e-21)
(-0.00951019 -0.0267476 -5.65661e-20)
(-0.0342259 0.0116447 3.16807e-20)
(-0.0810074 0.0119455 -9.43186e-20)
(-0.125763 0.011054 -1.542e-19)
(-0.153921 0.00851185 1.15223e-19)
(-0.175357 0.00714054 2.7054e-19)
(-0.192039 0.00526613 -4.16109e-19)
(-0.203842 0.00369965 2.42411e-19)
(-0.213496 0.00201418 1.85287e-20)
(-0.219919 0.000514715 3.866e-19)
(-0.224573 -0.000772327 5.59034e-19)
(-0.226825 -0.00165113 4.04136e-19)
(-0.227077 -0.00206311 2.53745e-20)
(-0.225158 -0.00186001 4.07949e-22)
(-0.220605 -0.00132556 -4.01241e-19)
(-0.213698 -0.000285414 -4.42989e-19)
(-0.203171 0.000344507 -2.18537e-19)
(-0.189725 0.000861077 4.09923e-20)
(-0.171875 -9.26154e-06 -3.80335e-19)
(-0.149314 -0.00215542 1.02507e-19)
(-0.124647 -0.00538812 -1.35966e-19)
(-0.0887222 -0.0118978 1.29222e-19)
(-0.0615362 -0.0166687 3.72895e-19)
(-0.00937279 -0.0258107 2.46973e-19)
(0.0169119 -0.0311303 -6.86405e-20)
(0.0801614 -0.0395421 -5.41016e-20)
(-0.0345796 0.0159972 -2.53696e-19)
(-0.0807727 0.0164 4.4395e-20)
(-0.124736 0.0152184 5.23874e-19)
(-0.151924 0.0117838 -3.64088e-19)
(-0.172191 0.0100605 2.48096e-19)
(-0.1875 0.00771197 1.10916e-18)
(-0.197668 0.00585336 -6.31137e-19)
(-0.205402 0.00385184 1.05406e-18)
(-0.209575 0.00207358 5.47374e-19)
(-0.211601 0.000485017 6.62792e-19)
(-0.210813 -0.000718857 1.84802e-19)
(-0.207535 -0.00151966 -7.87179e-19)
(-0.201611 -0.0017549 -4.66541e-19)
(-0.192394 -0.00181351 3.03568e-19)
(-0.180356 -0.00140254 3.93506e-19)
(-0.16379 -0.00168201 2.75405e-20)
(-0.143938 -0.00206794 -2.18454e-19)
(-0.118687 -0.00417771 2.73428e-19)
(-0.087981 -0.00752964 -7.32492e-19)
(-0.0559122 -0.0122718 -4.6706e-19)
(-0.0085802 -0.019858 3.26939e-19)
(0.0230782 -0.0263757 -9.70435e-20)
(0.0906172 -0.0361614 9.84775e-20)
(0.117422 -0.0424899 1.55038e-19)
(0.196801 -0.0517017 5.96601e-20)
(-0.0350482 0.0202898 3.12149e-20)
(-0.0804608 0.0207869 -6.27522e-19)
(-0.12337 0.0193231 6.08618e-19)
(-0.149265 0.0149952 -8.4951e-20)
(-0.16797 0.0129196 -9.69021e-19)
(-0.181448 0.0100933 -9.34712e-19)
(-0.189436 0.00793603 2.94119e-19)
(-0.194619 0.00560882 -9.34825e-19)
(-0.195811 0.00353653 -6.3824e-19)
(-0.194374 0.00162669 -1.06929e-18)
(-0.189605 7.02324e-05 -9.47226e-20)
(-0.181735 -0.00115063 3.07838e-19)
(-0.170654 -0.00186652 7.34691e-19)
(-0.155482 -0.0025577 -4.77207e-19)
(-0.137014 -0.00283286 6.76836e-19)
(-0.112943 -0.00405988 -5.83708e-19)
(-0.0853648 -0.00539096 -5.62519e-19)
(-0.0513568 -0.00882646 -2.69843e-19)
(-0.0112143 -0.0131752 -1.86331e-19)
(0.0289235 -0.0198023 5.61691e-19)
(0.0886795 -0.0277442 -5.69837e-19)
(0.124685 -0.0364431 2.47416e-19)
(0.207367 -0.046361 -3.14881e-19)
(0.234366 -0.0533532 -1.94104e-19)
(0.32802 -0.0629896 -1.17539e-20)
(-0.0356311 0.024506 1.21297e-19)
(-0.0800736 0.0250866 5.7548e-19)
(-0.121669 0.0233505 -1.60416e-18)
(-0.145946 0.0181281 1.01634e-18)
(-0.1627 0.0156996 5.92983e-19)
(-0.173889 0.0123914 -1.73278e-19)
(-0.179159 0.00992777 8.34577e-19)
(-0.181171 0.00726409 -1.13814e-19)
(-0.178676 0.00488085 2.9347e-19)
(-0.17298 0.00262857 1.05331e-18)
(-0.163351 0.000689945 6.73387e-19)
(-0.149922 -0.000981993 -4.1623e-20)
(-0.132674 -0.00222275 -4.11348e-19)
(-0.110447 -0.00357761 1.63692e-18)
(-0.0845258 -0.00459447 -3.2368e-19)
(-0.0518402 -0.00678577 8.9453e-19)
(-0.0156742 -0.00907111 2.91427e-19)
(0.0278847 -0.0139152 9.01111e-19)
(0.077957 -0.018958 1.41756e-19)
(0.126409 -0.0277053 -6.12948e-19)
(0.197692 -0.0355553 4.14833e-19)
(0.238649 -0.0462221 -5.00203e-19)
(0.332609 -0.0560043 -1.38611e-19)
(0.36063 -0.0633663 -3.59091e-19)
(0.463519 -0.0728715 -7.13496e-20)
(-0.0363274 0.0286299 -2.3345e-19)
(-0.0796129 0.0292803 -7.9678e-19)
(-0.119634 0.0272833 6.09889e-19)
(-0.141973 0.0211649 -1.65205e-18)
(-0.156384 0.018383 -6.6765e-19)
(-0.164829 0.0145883 2.32602e-19)
(-0.166847 0.0118104 -1.33075e-18)
(-0.165079 0.00879972 8.60225e-19)
(-0.158212 0.00608902 -6.76695e-19)
(-0.147497 0.00347478 -3.66365e-19)
(-0.132191 0.00112625 -5.30034e-19)
(-0.112329 -0.00102159 1.07228e-18)
(-0.0880411 -0.00282742 -1.20534e-18)
(-0.0578501 -0.00485893 -7.17805e-19)
(-0.0237049 -0.00666387 -3.17589e-19)
(0.0183563 -0.00980492 -7.45096e-19)
(0.0635816 -0.0130037 6.10793e-19)
(0.116991 -0.0192739 -2.48061e-19)
(0.176633 -0.024773 9.24961e-20)
(0.233669 -0.0354974 6.39285e-19)
(0.31342 -0.0431126 4.4301e-19)
(0.36076 -0.0551863 -7.05576e-19)
(0.459643 -0.064573 6.93056e-19)
(0.489839 -0.0721 6.64395e-19)
(0.595132 -0.080728 -5.86381e-20)
(-0.0371362 0.0326462 1.03441e-18)
(-0.0790809 0.0333487 8.2573e-19)
(-0.11727 0.0311041 3.15757e-19)
(-0.137349 0.0240879 1.77812e-18)
(-0.149027 0.0209523 9.72306e-19)
(-0.154272 0.016667 1.95559e-18)
(-0.152508 0.0135678 -1.0719e-18)
(-0.14636 0.0102015 2.74142e-19)
(-0.134451 0.00714964 8.28038e-20)
(-0.117991 0.00415901 -5.85291e-19)
(-0.0962414 0.00137918 -2.28734e-19)
(-0.0691546 -0.00125684 -1.11541e-18)
(-0.0370731 -0.00365737 1.43938e-18)
(0.0018122 -0.00635354 1.83899e-19)
(0.0447414 -0.00896505 -1.05608e-18)
(0.0965889 -0.0130149 -1.39056e-19)
(0.151 -0.017037 -7.14571e-19)
(0.214128 -0.0246418 -2.93292e-19)
(0.282115 -0.0304826 9.73685e-19)
(0.347811 -0.0426472 7.11611e-19)
(0.431777 -0.0501485 1.1423e-19)
(0.486222 -0.0628532 9.69622e-19)
(0.583148 -0.0715285 1.42941e-19)
(0.615862 -0.0791039 4.80859e-20)
(0.716128 -0.0861163 2.44927e-19)
(-0.0380564 0.0365403 -9.06674e-19)
(-0.0784799 0.037273 6.18037e-19)
(-0.11458 0.0347955 -6.00147e-20)
(-0.132077 0.0268795 3.4424e-19)
(-0.140628 0.0233907 4.68508e-19)
(-0.142217 0.0186121 -2.83531e-18)
(-0.13614 0.0151864 1.72274e-18)
(-0.125011 0.0114598 -2.28472e-18)
(-0.107403 0.0080585 -6.48128e-19)
(-0.0844915 0.00468596 -9.02455e-19)
(-0.0555751 0.00146473 -1.55678e-18)
(-0.0205441 -0.00165315 3.0052e-20)
(0.0199844 -0.0046589 -2.58567e-19)
(0.0681117 -0.00798011 -1.11052e-18)
(0.120206 -0.0113694 2.06413e-18)
(0.181868 -0.0162607 1.60238e-18)
(0.245249 -0.0209837 -6.83779e-19)
(0.317427 -0.0296707 -4.92797e-19)
(0.391957 -0.0358742 -5.11529e-19)
(0.465286 -0.0487048 -1.29738e-18)
(0.54937 -0.0562244 -8.17657e-19)
(0.609492 -0.0688445 3.29312e-20)
(0.698554 -0.0764773 -1.3112e-18)
(0.732665 -0.0839773 -1.76396e-19)
(0.821085 -0.0889009 -6.93751e-19)
(-0.0390866 0.0402982 1.05321e-18)
(-0.0778123 0.0410343 -1.75526e-18)
(-0.111568 0.0383401 -1.38104e-18)
(-0.126158 0.0295225 -2.0359e-18)
(-0.131186 0.025682 5.59978e-19)
(-0.128654 0.0204095 4.64073e-19)
(-0.117726 0.0166556 8.34031e-19)
(-0.101014 0.0125699 1.93975e-19)
(-0.0770482 0.00881972 4.00704e-19)
(-0.0469926 0.00507276 -8.3707e-19)
(-0.0102147 0.00141689 1.55731e-18)
(0.033412 -0.00215434 -2.81551e-19)
(0.0829487 -0.00574294 1.58876e-18)
(0.140655 -0.00962567 -4.24034e-19)
(0.202105 -0.0137053 6.67519e-19)
(0.273162 -0.0193342 -2.82784e-18)
(0.344893 -0.0246127 -6.2232e-19)
(0.424673 -0.0340148 -1.6261e-18)
(0.503655 -0.0405877 -7.59825e-19)
(0.581885 -0.0533836 -6.35347e-19)
(0.662724 -0.0608625 7.1065e-19)
(0.724809 -0.0728838 -3.58427e-19)
(0.801778 -0.0792631 2.75468e-19)
(0.834784 -0.0865117 8.57211e-20)
(0.906442 -0.089278 1.88085e-19)
(-0.0402258 0.0439068 1.20547e-19)
(-0.0770806 0.0446141 1.93215e-18)
(-0.108235 0.0417205 -1.76041e-19)
(-0.119592 0.0319997 9.15595e-19)
(-0.120693 0.0278105 -3.36606e-18)
(-0.113565 0.0220469 -1.75804e-19)
(-0.0972348 0.0179684 -1.40401e-18)
(-0.0743222 0.0135337 1.33578e-18)
(-0.043333 0.00944732 1.76471e-18)
(-0.00544349 0.00535066 1.7359e-19)
(0.0398648 0.00129011 3.90468e-19)
(0.0926596 -0.00268125 -3.99858e-19)
(0.151656 -0.00678536 -9.83929e-19)
(0.219009 -0.011147 -1.85228e-18)
(0.289722 -0.0157659 -3.26561e-19)
(0.369223 -0.0219919 7.72661e-19)
(0.44813 -0.0276499 2.78081e-18)
(0.533145 -0.0373934 -2.02794e-20)
(0.61414 -0.0442092 7.00578e-19)
(0.693162 -0.05651 8.49814e-19)
(0.76788 -0.063735 -1.61075e-18)
(0.827029 -0.0748635 -1.98978e-19)
(0.889501 -0.0799687 6.54653e-19)
(0.918328 -0.0867993 -6.40887e-19)
(0.971131 -0.0877105 1.96215e-19)
(-0.0414724 0.0473537 -2.4789e-18)
(-0.0762869 0.0479939 -1.63025e-18)
(-0.104584 0.0449191 1.69006e-18)
(-0.112376 0.0342942 -1.04984e-18)
(-0.109133 0.0297618 4.51054e-18)
(-0.0969176 0.0235149 -1.22285e-18)
(-0.074613 0.0191225 2.79528e-18)
(-0.0448589 0.0143607 6.20952e-19)
(-0.00616346 0.00996717 -1.63213e-18)
(0.0402465 0.00556705 1.92441e-18)
(0.0947188 0.00116185 8.91986e-19)
(0.157139 -0.00313017 -2.41507e-20)
(0.225872 -0.00763216 -1.6402e-18)
(0.302588 -0.012371 1.08278e-18)
(0.382008 -0.0173308 -1.99498e-18)
(0.468392 -0.02398 1.23431e-18)
(0.552552 -0.029821 -1.29527e-18)
(0.639634 -0.0395942 2.48494e-19)
(0.719624 -0.0464356 -4.6722e-19)
(0.79488 -0.0580094 -3.1054e-19)
(0.860826 -0.0647605 8.0308e-19)
(0.912488 -0.0749089 1.85182e-19)
(0.959763 -0.0788831 -2.57721e-20)
(0.981913 -0.0852238 -3.31566e-19)
(1.01668 -0.0847892 -1.41614e-19)
(-0.0428251 0.0506276 2.27775e-18)
(-0.0754333 0.0511554 6.66477e-19)
(-0.100615 0.0479186 -3.90957e-19)
(-0.1045 0.0363897 9.24426e-19)
(-0.0964817 0.0315224 -3.84014e-18)
(-0.078661 0.0248067 2.89535e-18)
(-0.0497803 0.0201213 -1.03761e-18)
(-0.0125125 0.01507 -1.27244e-18)
(0.0345914 0.0104194 -5.0112e-19)
(0.0901951 0.00578782 -2.06285e-18)
(0.154396 0.00113375 -1.42336e-18)
(0.226722 -0.00337351 1.30648e-18)
(0.30517 -0.00810946 2.53383e-18)
(0.390509 -0.0131015 4.12834e-18)
(0.477414 -0.0181935 -1.63392e-18)
(0.568449 -0.0250699 9.05777e-19)
(0.655089 -0.0309189 1.41935e-18)
(0.740578 -0.0404914 2.27312e-18)
(0.816068 -0.0471648 9.34143e-19)
(0.883476 -0.0579499 1.61524e-18)
(0.938454 -0.0641077 4.21889e-19)
(0.979621 -0.0733569 1.41241e-18)
(1.01246 -0.0764339 -1.39479e-18)
(1.02684 -0.0823328 1.53725e-18)
(1.04651 -0.0810755 4.74757e-20)
(-0.0442825 0.0537183 -3.81017e-19)
(-0.0745209 0.0540806 -1.11376e-18)
(-0.0963243 0.0507014 -1.40221e-18)
(-0.0959507 0.0382705 8.81262e-19)
(-0.0827036 0.0330806 3.42049e-18)
(-0.0587249 0.0259199 -7.01432e-19)
(-0.0226268 0.0209756 -9.51822e-19)
(0.0228642 0.0156924 -1.42281e-18)
(0.0790925 0.0108614 -1.04236e-18)
(0.144521 0.00609971 -8.21636e-20)
(0.21888 0.00133028 -3.9997e-19)
(0.301115 -0.00326144 -3.66173e-18)
(0.388794 -0.00804101 -2.37491e-18)
(0.481438 -0.0131414 5.36278e-19)
(0.573798 -0.018191 1.21521e-18)
(0.666594 -0.0251059 -2.23067e-18)
(0.752258 -0.030856 -2.52643e-18)
(0.832414 -0.0400911 -1.52011e-18)
(0.899995 -0.0464996 3.10539e-19)
(0.956614 -0.0565581 -1.23145e-18)
(0.999404 -0.0621273 -1.20934e-18)
(1.02907 -0.0706588 -2.65069e-18)
(1.04937 -0.0730872 7.20432e-19)
(1.05637 -0.0786697 -6.11808e-19)
(1.06477 -0.0769962 3.58604e-19)
(-0.045843 0.0566163 1.14076e-18)
(-0.0735505 0.0567516 1.01696e-18)
(-0.0917082 0.0532502 1.71093e-18)
(-0.0867058 0.0399218 -1.41501e-18)
(-0.0677469 0.0344271 -4.22317e-18)
(-0.0370137 0.0268576 -2.84926e-18)
(0.00699091 0.021706 9.45057e-19)
(0.0614519 0.0162736 1.40266e-19)
(0.127513 0.01137 3.8513e-18)
(0.203302 0.00661162 1.48701e-18)
(0.288009 0.00189365 9.90772e-19)
(0.379753 -0.00263053 3.84469e-18)
(0.475543 -0.00726911 -1.26899e-18)
(0.573499 -0.0123312 -1.9641e-18)
(0.668486 -0.0172328 1.32514e-18)
(0.759655 -0.0240494 1.54154e-18)
(0.840647 -0.0296841 1.05302e-18)
(0.912159 -0.0385497 8.37304e-19)
(0.969227 -0.0447002 -5.71727e-19)
(1.01363 -0.0541708 3.37029e-19)
(1.04431 -0.0592407 1.14631e-18)
(1.06321 -0.0672615 3.0777e-18)
(1.07352 -0.0692501 -1.58178e-18)
(1.07452 -0.0746561 5.54323e-19)
(1.07529 -0.0728197 -6.64459e-19)
(-0.047505 0.0593134 -1.68621e-18)
(-0.0725216 0.059151 1.33328e-18)
(-0.0867576 0.0555478 1.88884e-18)
(-0.0767336 0.0413299 9.73647e-20)
(-0.051542 0.0355554 1.33216e-18)
(-0.0134027 0.02763 1.04667e-18)
(0.0392505 0.0223454 -3.04452e-18)
(0.103455 0.0168768 1.94689e-18)
(0.180009 0.012044 -3.40149e-18)
(0.26651 0.00745334 -1.24032e-18)
(0.361379 0.00297355 7.22514e-20)
(0.46168 -0.00132363 2.33906e-18)
(0.563713 -0.00567849 3.6445e-18)
(0.664297 -0.0105898 -7.81596e-19)
(0.758503 -0.0153281 1.85856e-18)
(0.844524 -0.021997 9.90613e-19)
(0.91751 -0.0275834 9.06355e-19)
(0.97801 -0.0361358 3.33742e-19)
(1.02326 -0.0421046 -6.6662e-19)
(1.05554 -0.0511478 -1.20287e-18)
(1.07539 -0.0558338 -1.81375e-18)
(1.08532 -0.063522 6.09621e-19)
(1.0883 -0.065216 2.23217e-18)
(1.08497 -0.0705599 1.05024e-18)
(1.08103 -0.068689 -6.38598e-19)
(-0.0492668 0.0618026 9.07109e-19)
(-0.0714324 0.0612617 -1.23158e-18)
(-0.0814593 0.057577 -3.02056e-18)
(-0.0659908 0.0424832 2.39292e-19)
(-0.0339975 0.0364631 1.31869e-18)
(0.0122644 0.0282568 -6.89865e-19)
(0.0743617 0.0229419 4.73213e-19)
(0.149083 0.0175859 1.28823e-18)
(0.236669 0.0130027 -1.03767e-18)
(0.333933 0.00876883 5.85092e-18)
(0.43825 0.00471109 -3.41525e-19)
(0.545477 0.000780158 -1.41162e-18)
(0.651136 -0.00322232 -2.40176e-18)
(0.751128 -0.00794362 -9.16366e-20)
(0.840971 -0.0125948 -2.38591e-18)
(0.918698 -0.0191592 -1.67367e-18)
(0.981255 -0.0248174 -9.33919e-19)
(1.02965 -0.0331584 -6.88957e-20)
(1.06317 -0.0390432 -1.01995e-18)
(1.08463 -0.0477939 1.95068e-18)
(1.0956 -0.0521967 -2.56701e-18)
(1.09876 -0.059679 7.92582e-19)
(1.09674 -0.0611647 -8.79317e-19)
(1.09061 -0.0665246 1.82545e-19)
(1.08395 -0.0646696 1.39908e-18)
(-0.0511268 0.0640777 -1.23793e-18)
(-0.0702793 0.0630668 5.80626e-19)
(-0.0757943 0.0593211 1.29713e-18)
(-0.0544192 0.0433726 -3.60589e-19)
(-0.0149964 0.0371548 1.24906e-18)
(0.0401786 0.0287689 2.68399e-18)
(0.112558 0.0235627 3.61763e-19)
(0.19852 0.0185065 -2.53277e-18)
(0.297456 0.0143823 3.07455e-18)
(0.405084 0.0107018 -4.91207e-18)
(0.517473 0.00721643 -1.40891e-18)
(0.62927 0.00373343 -1.68497e-18)
(0.735356 5.63817e-05 4.05487e-19)
(0.831333 -0.00452884 3.2452e-19)
(0.913567 -0.00924124 5.97155e-19)
(0.980714 -0.0158074 4.41055e-19)
(1.03165 -0.0216666 -4.76019e-20)
(1.06813 -0.0298946 2.46375e-19)
(1.0911 -0.0357782 3.40048e-18)
(1.10368 -0.0443219 1.6215e-18)
(1.10792 -0.0485141 3.29996e-19)
(1.10634 -0.055868 -1.06614e-18)
(1.10116 -0.0571909 -4.12399e-19)
(1.09337 -0.0626149 -8.90512e-19)
(1.0853 -0.0607864 -9.50512e-19)
(-0.0530829 0.0661339 8.03716e-19)
(-0.0690566 0.0645503 1.23919e-18)
(-0.0697365 0.0607638 -7.36419e-19)
(-0.0419432 0.0439924 1.1695e-19)
(0.00560745 0.0376427 1.89724e-18)
(0.0705634 0.0292121 1.40202e-18)
(0.15408 0.0242962 4.42308e-18)
(0.25188 0.0197648 1.99577e-18)
(0.362125 0.0163251 -3.70407e-19)
(0.479122 0.0133735 1.8089e-18)
(0.597479 0.0105427 3.97324e-18)
(0.710863 0.00749747 4.66761e-19)
(0.813921 0.00402038 4.30408e-19)
(0.902713 -0.000565648 1.14254e-18)
(0.9749 -0.00551982 -1.68336e-18)
(1.03032 -0.0122099 1.3983e-19)
(1.06967 -0.0183701 -1.14015e-18)
(1.09542 -0.0265482 -2.88317e-18)
(1.10962 -0.0324834 -1.13986e-18)
(1.11541 -0.0408564 1.03877e-18)
(1.11487 -0.0448881 7.76888e-19)
(1.1102 -0.0521542 2.09664e-18)
(1.10314 -0.0533375 -1.36801e-18)
(1.09449 -0.0588532 3.05197e-19)
(1.08578 -0.057045 3.0143e-19)
(-0.0551329 0.0679673 -1.27046e-19)
(-0.0677557 0.0656965 -2.74767e-18)
(-0.063251 0.0618896 8.3166e-19)
(-0.028466 0.044341 9.55618e-19)
(0.0279931 0.0379495 -4.3264e-18)
(0.103669 0.0296521 1.28877e-18)
(0.199148 0.0252538 -5.11206e-19)
(0.30914 0.021501 3.63738e-18)
(0.430147 0.0189617 -2.13334e-18)
(0.554813 0.0168559 -6.10376e-18)
(0.676365 0.0146632 3.49607e-20)
(0.787987 0.0119389 -1.39223e-18)
(0.884738 0.00845887 -2.12647e-18)
(0.963868 0.00368994 -1.54821e-18)
(1.02465 -0.00167208 2.92124e-19)
(1.06835 -0.00858213 -5.90806e-19)
(1.09709 -0.0150943 4.62211e-19)
(1.11382 -0.0232426 1.66546e-18)
(1.12121 -0.0292548 7.41144e-19)
(1.1221 -0.037458 -3.18738e-18)
(1.11834 -0.041368 -9.05484e-20)
(1.11178 -0.0485618 -2.3156e-18)
(1.10371 -0.0496196 6.83602e-19)
(1.09469 -0.0552421 3.31565e-19)
(1.0858 -0.0534423 -9.32352e-19)
(-0.0572745 0.0695754 -1.3723e-18)
(-0.0663647 0.0664904 9.46847e-19)
(-0.0562923 0.0626832 3.25939e-19)
(-0.0138662 0.0444238 -9.4973e-19)
(0.0523742 0.0381122 3.8829e-18)
(0.139763 0.0301756 -3.20688e-18)
(0.247917 0.0265677 -4.14447e-18)
(0.370075 0.0238565 -2.6499e-18)
(0.500651 0.0223875 2.57774e-18)
(0.630568 0.0211476 5.21597e-18)
(0.752076 0.0194635 9.30693e-19)
(0.85861 0.0168501 3.98276e-18)
(0.946377 0.0131291 3.33485e-18)
(1.01434 0.00799836 5.57674e-19)
(1.06346 0.00211327 3.24901e-19)
(1.09632 -0.00506547 3.30847e-18)
(1.11599 -0.0119325 3.21372e-18)
(1.12559 -0.0200373 2.90007e-18)
(1.12794 -0.0261348 1.59806e-18)
(1.12544 -0.0341488 2.09973e-18)
(1.11964 -0.0379741 -5.12457e-19)
(1.11203 -0.0450938 1.65914e-18)
(1.10347 -0.0460391 1.35545e-18)
(1.0944 -0.051776 -1.84667e-19)
(1.08555 -0.0499718 9.81748e-19)
(-0.0595047 0.0709564 9.23427e-19)
(-0.0648677 0.0669181 2.77644e-19)
(-0.0488013 0.0631297 2.39017e-19)
(0.00200497 0.0442562 -2.68123e-18)
(0.0789977 0.0381855 -7.08358e-18)
(0.179102 0.0308925 -7.12231e-21)
(0.300425 0.0283839 6.018e-18)
(0.434183 0.0269539 -2.14652e-18)
(0.572414 0.0266375 4.47181e-18)
(0.704574 0.0261613 4.19079e-19)
(0.822666 0.0247538 -3.029e-18)
(0.921226 0.0219891 -5.66989e-18)
(0.998221 0.0178035 -3.18271e-18)
(1.05453 0.0121747 5.97382e-19)
(1.09263 0.0057171 2.54819e-18)
(1.11608 -0.00173205 -8.1144e-21)
(1.12839 -0.0089222 6.83416e-19)
(1.1326 -0.0169516 -1.55236e-18)
(1.1314 -0.0231354 -2.39781e-18)
(1.12667 -0.0309319 -2.21298e-19)
(1.11964 -0.0347114 -1.19244e-18)
(1.11152 -0.0417427 4.45492e-19)
(1.1028 -0.042593 -2.06527e-18)
(1.09385 -0.0484466 -1.61507e-18)
(1.08517 -0.0466259 7.48288e-20)
(-0.0618202 0.0721097 -1.01768e-18)
(-0.0632438 0.0669665 1.85759e-18)
(-0.0407051 0.0632208 5.94758e-19)
(0.0193302 0.0438601 1.52248e-18)
(0.108139 0.038246 3.38424e-18)
(0.221905 0.0319352 -1.79608e-18)
(0.356521 0.0308484 -3.70928e-18)
(0.500645 0.0308722 3.21639e-18)
(0.643923 0.0316675 -4.97588e-18)
(0.77499 0.0317311 -2.87285e-18)
(0.886555 0.0303025 4.36647e-19)
(0.975014 0.0271239 4.31029e-18)
(1.04043 0.0223043 3.81789e-18)
(1.08547 0.0161033 -1.87853e-18)
(1.11377 0.00908421 3.20853e-19)
(1.12944 0.00139635 -2.41341e-18)
(1.13604 -0.00606648 3.7062e-18)
(1.13635 -0.0139836 3.28008e-19)
(1.13274 -0.0202533 -2.01744e-18)
(1.12658 -0.0278025 1.21469e-18)
(1.11889 -0.0315789 1.61421e-18)
(1.11059 -0.0384972 1.31632e-18)
(1.10188 -0.0392776 1.39303e-18)
(1.09315 -0.045245 1.80206e-18)
(1.0847 -0.0433971 -7.80641e-19)
(-0.064217 0.0730356 2.35373e-18)
(-0.0614662 0.066624 1.0591e-18)
(-0.0319135 0.0629515 2.37009e-19)
(0.0383252 0.0432707 5.32877e-18)
(0.140088 0.0383961 1.32293e-18)
(0.268301 0.0334533 -2.42661e-18)
(0.415809 0.0340863 -5.79093e-18)
(0.568328 0.0356235 -6.80975e-18)
(0.713521 0.0373513 -1.99869e-18)
(0.84019 0.0376385 -1.83788e-18)
(0.942718 0.0358781 8.35384e-19)
(1.01985 0.0320684 2.21974e-18)
(1.07375 0.0265183 -1.26757e-18)
(1.10853 0.0197315 6.97052e-18)
(1.12852 0.0122055 -7.09556e-18)
(1.13802 0.00432759 2.57455e-19)
(1.14033 -0.00335077 -2.93294e-18)
(1.13792 -0.011123 1.7454e-18)
(1.13272 -0.0174785 2.52183e-18)
(1.12571 -0.0247532 -2.76099e-18)
(1.11773 -0.0285721 -2.01965e-18)
(1.10943 -0.0353451 -3.08091e-18)
(1.10084 -0.0360899 -6.6766e-20)
(1.09238 -0.0421619 -8.79189e-19)
(1.08418 -0.0402785 1.44742e-19)
(-0.0666902 0.0737352 -9.84352e-19)
(-0.0595008 0.0658814 -4.57855e-18)
(-0.0223117 0.0623166 -2.60917e-18)
(0.0592384 0.0425453 -6.28559e-18)
(0.175129 0.0387656 6.63325e-19)
(0.318272 0.0356005 -6.39926e-19)
(0.477603 0.0381769 -7.46458e-19)
(0.635854 0.04114 5.7097e-18)
(0.779596 0.0434971 3.3671e-19)
(0.898952 0.0436506 -1.85114e-18)
(0.99074 0.0412846 -1.55817e-18)
(1.0562 0.0366985 -4.31286e-18)
(1.0993 0.0303929 -5.19818e-18)
(1.12514 0.023053 -3.39368e-18)
(1.13837 0.0150988 -4.85303e-19)
(1.14313 0.00708328 8.7936e-19)
(1.14232 -0.000754249 2.55035e-18)
(1.13807 -0.00835793 1.84607e-18)
(1.13187 -0.0147996 -1.48841e-18)
(1.1244 -0.0217776 2.01954e-18)
(1.11634 -0.0256861 2.05299e-18)
(1.10815 -0.032275 1.2814e-18)
(1.09973 -0.0330285 -1.10347e-19)
(1.09158 -0.0391875 7.14419e-21)
(1.08362 -0.0372646 1.46873e-18)
(-0.0692341 0.0742101 -2.25107e-19)
(-0.0573065 0.0647323 -2.78889e-18)
(-0.0117592 0.0613179 3.08381e-19)
(0.0823505 0.0417617 3.90798e-18)
(0.213504 0.0395089 -2.09353e-18)
(0.371593 0.0385154 5.91015e-18)
(0.540928 0.0431316 -4.6646e-18)
(0.701739 0.047277 -2.17995e-18)
(0.840778 0.0498797 4.56182e-18)
(0.950563 0.0495571 5.61028e-18)
(1.03076 0.0463818 3.80637e-19)
(1.0849 0.0409505 1.94952e-18)
(1.11834 0.033921 1.47039e-18)
(1.13668 0.0260897 -3.8977e-18)
(1.14455 0.0177945 -7.529e-18)
(1.14577 0.00968901 -8.1654e-19)
(1.14277 0.00174448 -4.41783e-19)
(1.13732 -0.00567846 -1.34182e-18)
(1.13051 -0.0122049 2.00587e-18)
(1.12284 -0.0188709 -9.31529e-19)
(1.11484 -0.0229152 -1.52588e-18)
(1.1068 -0.0292767 1.01974e-18)
(1.09859 -0.030093 -2.34002e-19)
(1.09076 -0.0363118 8.29169e-19)
(1.08302 -0.0343509 3.18788e-19)
(-0.0718414 0.0744628 3.75426e-18)
(-0.0548295 0.0631687 6.60812e-18)
(-8.86501e-05 0.0599721 2.26443e-18)
(0.107965 0.041023 1.24495e-18)
(0.255367 0.040797 5.39481e-18)
(0.427784 0.0422966 -2.7169e-19)
(0.604586 0.0488817 2.61925e-18)
(0.76456 0.0538345 -4.47341e-19)
(0.896075 0.0562767 -4.56e-18)
(0.99482 0.0551942 -1.63684e-18)
(1.06331 0.0510882 -1.57552e-18)
(1.10699 0.0448094 6.61404e-18)
(1.13208 0.0371248 2.89499e-18)
(1.14432 0.0288768 1.78338e-18)
(1.14808 0.020326 1.1655e-18)
(1.14672 0.0121694 8.8355e-19)
(1.14221 0.0041643 -7.92794e-20)
(1.13602 -0.00307715 -2.03308e-18)
(1.12887 -0.0096835 -1.17757e-18)
(1.12116 -0.0160307 4.21768e-19)
(1.11329 -0.0202532 2.91718e-18)
(1.10542 -0.0263417 2.91348e-19)
(1.09744 -0.0272844 7.4333e-19)
(1.08991 -0.0335238 -2.61703e-18)
(1.08239 -0.031535 -1.25331e-18)
(-0.0745038 0.0744957 -4.07171e-18)
(-0.0520036 0.061185 -5.55028e-18)
(0.0129013 0.0583107 -5.49704e-18)
(0.136393 0.0404608 -9.73066e-19)
(0.300726 0.0428006 -8.48276e-18)
(0.486104 0.0469794 -5.32115e-19)
(0.667264 0.0552838 -2.80362e-18)
(0.823112 0.06059 1.56826e-19)
(0.944938 0.0624983 4.77412e-18)
(1.03194 0.0604544 2.4213e-19)
(1.08921 0.055373 2.52404e-18)
(1.12356 0.0482923 -6.24832e-18)
(1.14166 0.0400413 -2.72731e-18)
(1.14904 0.0314538 -9.80646e-19)
(1.14971 0.0227238 3.89272e-18)
(1.14651 0.0145457 -1.53061e-18)
(1.14101 0.00652042 -3.13206e-19)
(1.13438 -0.000549085 4.82707e-18)
(1.12706 -0.00722539 -1.47775e-18)
(1.11942 -0.0132568 1.01445e-18)
(1.11171 -0.0176932 -1.80557e-18)
(1.10403 -0.0234633 -2.21723e-18)
(1.09629 -0.0246036 -2.24029e-18)
(1.08906 -0.0308119 2.35803e-18)
(1.08173 -0.0288165 -2.3358e-18)
(-0.0772111 0.0743113 2.55154e-18)
(-0.0487506 0.0587835 3.55936e-18)
(0.0274507 0.056381 2.47685e-19)
(0.167923 0.0402348 -8.09508e-19)
(0.349393 0.0456668 4.33192e-18)
(0.545576 0.052521 4.13523e-18)
(0.727681 0.0621422 5.36102e-18)
(0.876521 0.0673315 1.7025e-18)
(0.98723 0.0684039 -2.14346e-18)
(1.06246 0.0652825 2.64473e-18)
(1.10937 0.0592416 -5.24364e-19)
(1.13564 0.051435 3.91701e-18)
(1.148 0.0427125 -2.44237e-18)
(1.15162 0.0338588 6.60921e-19)
(1.15002 0.0250141 1.85418e-19)
(1.14553 0.0168354 8.71393e-19)
(1.13941 0.00882422 -3.82874e-18)
(1.13254 0.00190895 -4.09739e-18)
(1.12518 -0.00482142 7.56521e-19)
(1.11766 -0.0105511 -3.17792e-18)
(1.11012 -0.0152268 -8.82115e-19)
(1.10263 -0.020637 3.30499e-20)
(1.09515 -0.0220518 1.14046e-20)
(1.08818 -0.028164 1.10879e-18)
(1.08103 -0.0261971 2.96133e-18)
(-0.0799512 0.0739119 1.06474e-18)
(-0.0449752 0.0559697 -3.11817e-18)
(0.0438361 0.0542579 2.40578e-18)
(0.202787 0.0405267 -1.28681e-18)
(0.400942 0.0494904 2.23437e-18)
(0.605076 0.0588022 -5.85688e-19)
(0.784724 0.0692399 -4.1217e-18)
(0.924278 0.073882 2.4192e-19)
(1.02315 0.0739047 -5.06692e-19)
(1.08706 0.0696648 -2.95331e-20)
(1.12469 0.0627228 2.32232e-18)
(1.14413 0.0542815 -3.26934e-18)
(1.1519 0.0451787 2.67718e-18)
(1.15264 0.0361245 4.50354e-19)
(1.14941 0.0272177 2.56838e-18)
(1.14406 0.0190525 1.70112e-18)
(1.13756 0.0110835 2.09971e-18)
(1.13058 0.00429928 -5.0125e-19)
(1.12327 -0.0024636 2.5774e-18)
(1.1159 -0.00791697 1.61034e-18)
(1.10853 -0.0128442 9.75094e-19)
(1.10124 -0.0178608 9.64091e-19)
(1.09401 -0.0196294 1.31913e-18)
(1.08728 -0.0255673 -5.2013e-19)
(1.0803 -0.0236811 -2.22354e-18)
(-0.0827095 0.0732987 -1.5834e-18)
(-0.0405617 0.0527541 7.11628e-19)
(0.0623671 0.0520508 4.91167e-18)
(0.241108 0.0415248 5.20534e-18)
(0.454708 0.0542923 -3.45603e-18)
(0.663447 0.0656451 -3.46158e-18)
(0.837541 0.0763699 -3.47096e-19)
(0.96622 0.0801113 -1.19626e-18)
(1.05314 0.0789579 3.53914e-18)
(1.10653 0.0736162 3.77452e-19)
(1.13605 0.0658576 1.47552e-18)
(1.14983 0.0568772 9.86244e-19)
(1.15397 0.0474771 7.84124e-19)
(1.15257 0.0382784 -4.62053e-18)
(1.14818 0.0293506 -3.50598e-18)
(1.14227 0.0212078 -5.03769e-18)
(1.13558 0.0133032 -1.59821e-18)
(1.12858 0.00662405 4.03623e-19)
(1.12135 -0.000145352 -3.58716e-18)
(1.11415 -0.0053585 -8.19956e-19)
(1.10693 -0.0105339 -5.33653e-19)
(1.09986 -0.0151358 -1.28413e-18)
(1.09285 -0.0173348 2.19346e-19)
(1.08635 -0.0230086 -3.44163e-19)
(1.07955 -0.0212755 -1.62734e-19)
(-0.0854688 0.0724721 -1.94121e-18)
(-0.0353708 0.0491548 1.67027e-18)
(0.0833765 0.0499099 -1.0622e-19)
(0.282854 0.0434009 -2.73446e-18)
(0.509824 0.06001 2.65487e-18)
(0.719619 0.0728423 2.41378e-18)
(0.885581 0.0833571 -1.01441e-18)
(1.00246 0.0859364 -2.87126e-18)
(1.07777 0.0835559 -1.17435e-18)
(1.12163 0.0771696 -6.58221e-18)
(1.1442 0.0686913 -5.56065e-18)
(1.15337 0.0592647 1.00477e-18)
(1.1547 0.0496401 2.86917e-18)
(1.15172 0.0403431 2.83966e-18)
(1.14655 0.0314244 -3.19265e-18)
(1.14028 0.0233098 2.75511e-18)
(1.13351 0.0154857 1.02736e-18)
(1.12654 0.0088858 7.26035e-20)
(1.11944 0.00213816 2.51627e-18)
(1.1124 -0.00287977 -5.53142e-19)
(1.10535 -0.00828331 -2.41367e-19)
(1.09848 -0.0124662 1.32297e-18)
(1.09169 -0.015164 -4.842e-19)
(1.08539 -0.0204754 2.05174e-18)
(1.07877 -0.0189906 -1.63081e-18)
(-0.0882086 0.0714299 7.58197e-19)
(-0.0292363 0.0452006 -3.91188e-18)
(0.1072 0.0480283 -4.70824e-18)
(0.327792 0.0462808 -3.47157e-18)
(0.565301 0.0665065 3.99838e-18)
(0.772706 0.0801875 -2.94895e-18)
(0.928583 0.0900693 4.71758e-18)
(1.03332 0.0913157 3.35218e-18)
(1.09768 0.0877153 -9.73143e-19)
(1.13308 0.0803668 1.06635e-18)
(1.14979 0.0712692 3.43438e-18)
(1.15526 0.0614816 -6.80491e-19)
(1.15445 0.0516939 -9.06513e-19)
(1.15035 0.0423361 -5.34954e-19)
(1.14464 0.0334476 1.30862e-18)
(1.13818 0.0253651 -3.51072e-18)
(1.13141 0.0176319 -2.1396e-18)
(1.1245 0.0110877 2.51238e-18)
(1.11754 0.00438984 -7.95321e-19)
(1.11065 -0.000483909 -3.0195e-19)
(1.10378 -0.00607895 1.58015e-18)
(1.0971 -0.00985942 -7.20194e-19)
(1.09051 -0.0131093 -2.01288e-18)
(1.08441 -0.0179574 -1.7648e-18)
(1.07796 -0.0168403 2.76225e-18)
(-0.0909051 0.0701676 9.28587e-20)
(-0.0219615 0.0409364 1.11963e-18)
(0.134143 0.0466366 1.50131e-18)
(0.375471 0.0502179 5.74905e-18)
(0.620129 0.0735944 -6.34667e-18)
(0.822055 0.0874984 2.2793e-18)
(0.966531 0.0964178 -2.91114e-18)
(1.05923 0.0962387 9.1724e-19)
(1.11351 0.0914679 -2.30457e-18)
(1.14153 0.0832526 -1.79793e-18)
(1.15338 0.0736329 -2.94151e-18)
(1.15593 0.0635601 -1.45971e-18)
(1.15351 0.0536596 1.99941e-18)
(1.14861 0.0442709 -2.25082e-18)
(1.14257 0.0354265 -2.12836e-18)
(1.13602 0.0273787 5.82e-18)
(1.12929 0.0197413 5.26918e-18)
(1.12247 0.0132335 -6.51218e-19)
(1.11566 0.00661053 2.91274e-19)
(1.10891 0.00182777 8.12024e-19)
(1.10221 -0.0039077 -1.19075e-18)
(1.09572 -0.00732511 1.33444e-18)
(1.08931 -0.0111592 1.43952e-18)
(1.08341 -0.0154475 -1.93783e-18)
(1.07713 -0.0148412 -2.42124e-18)
(-0.0935296 0.0686767 9.04292e-19)
(-0.0133168 0.0364294 2.31186e-18)
(0.164441 0.0459873 -4.56419e-18)
(0.42524 0.0551795 -3.29023e-18)
(0.673376 0.0810671 3.10807e-18)
(0.867259 0.0946299 3.0441e-18)
(0.999595 0.102352 4.30565e-18)
(1.08071 0.100718 -2.96666e-18)
(1.12587 0.0948531 1.81644e-18)
(1.14755 0.0858713 1.21348e-18)