/*--------------------------------*- C++ -*----------------------------------*\
  =========                 |
  \\      /  F ield         | OpenFOAM: The Open Source CFD Toolbox
   \\    /   O peration     | Website:  https://openfoam.org
    \\  /    A nd           | Version:  7
     \\/     M anipulation  |
\*---------------------------------------------------------------------------*/
FoamFile
{
    version     2.0;
    format      ascii;
    class       surfaceScalarField;
    location    "0.467";
    object      phi;
}
// * * * * * * * * * * * * * * * * * * * * * * * * * * * * * * * * * * * * * //

dimensions      [0 3 -1 0 0 0 0];

internalField   nonuniform List<scalar> 
79600
(
7.0644e-13
-1.49948e-12
1.26823e-11
-1.19759e-11
3.28065e-11
-2.01243e-11
5.72897e-11
-2.44833e-11
8.30743e-11
-2.57847e-11
1.07849e-10
-2.47748e-11
1.29897e-10
-2.20484e-11
1.47963e-10
-1.80654e-11
1.61131e-10
-1.31684e-11
1.68742e-10
-7.61074e-12
1.70324e-10
-1.58237e-12
1.65552e-10
4.77247e-12
1.54209e-10
1.13422e-11
1.3617e-10
1.80397e-11
1.11373e-10
2.47962e-11
7.98166e-11
3.15568e-11
4.15392e-11
3.82774e-11
-3.38304e-12
4.49222e-11
-5.48452e-11
5.14621e-11
-1.12719e-10
5.78736e-11
-1.76856e-10
6.41373e-11
-2.47093e-10
7.02371e-11
-3.23253e-10
7.61603e-11
-4.0515e-10
8.18962e-11
-4.92586e-10
8.74362e-11
-5.85359e-10
9.27735e-11
-6.83261e-10
9.79023e-11
-7.8608e-10
1.02819e-10
-8.93599e-10
1.07519e-10
-1.0056e-09
1.12e-10
-1.12186e-09
1.16262e-10
-1.24216e-09
1.20302e-10
-1.36628e-09
1.24121e-10
-1.494e-09
1.27718e-10
-1.62509e-09
1.31093e-10
-1.75934e-09
1.34248e-10
-1.89652e-09
1.37183e-10
-2.03642e-09
1.399e-10
-2.17882e-09
1.424e-10
-2.32351e-09
1.44686e-10
-2.47027e-09
1.46758e-10
-2.61889e-09
1.4862e-10
-2.76916e-09
1.50274e-10
-2.92088e-09
1.51723e-10
-3.07385e-09
1.52968e-10
-3.22786e-09
1.54012e-10
-3.38272e-09
1.54859e-10
-3.53824e-09
1.55512e-10
-3.69421e-09
1.55972e-10
-3.85045e-09
1.56244e-10
-4.00678e-09
1.5633e-10
-4.16301e-09
1.56233e-10
-4.31897e-09
1.55957e-10
-4.47448e-09
1.55505e-10
-4.62935e-09
1.5488e-10
-4.78344e-09
1.54085e-10
-4.93656e-09
1.53123e-10
-5.08856e-09
1.51999e-10
-5.23928e-09
1.50715e-10
-5.38855e-09
1.49275e-10
-5.53623e-09
1.47681e-10
-5.68217e-09
1.45938e-10
-5.82622e-09
1.44049e-10
-5.96823e-09
1.42017e-10
-6.10808e-09
1.39845e-10
-6.24562e-09
1.37538e-10
-6.38071e-09
1.35098e-10
-6.51324e-09
1.32529e-10
-6.64308e-09
1.29834e-10
-6.77009e-09
1.27017e-10
-6.89417e-09
1.24081e-10
-7.01521e-09
1.21031e-10
-7.13307e-09
1.17868e-10
-7.24767e-09
1.14597e-10
-7.35889e-09
1.11221e-10
-7.46663e-09
1.07744e-10
-7.5708e-09
1.04169e-10
-7.6713e-09
1.005e-10
-7.76804e-09
9.67404e-11
-7.86094e-09
9.28934e-11
-7.9499e-09
8.89627e-11
-8.03485e-09
8.49519e-11
-8.11572e-09
8.08645e-11
-8.19242e-09
7.67043e-11
-8.2649e-09
7.24749e-11
-8.33308e-09
6.81799e-11
-8.3969e-09
6.38229e-11
-8.45631e-09
5.94075e-11
-8.51124e-09
5.49375e-11
-8.56166e-09
5.04165e-11
-8.60751e-09
4.58484e-11
-8.64875e-09
4.1237e-11
-8.68533e-09
3.6586e-11
-8.71723e-09
3.18992e-11
-8.74441e-09
2.71804e-11
-8.76684e-09
2.24334e-11
-8.78451e-09
1.76622e-11
-8.79738e-09
1.28708e-11
-8.80544e-09
8.06319e-12
-8.80868e-09
3.24326e-12
-8.8071e-09
-1.58503e-12
-8.80068e-09
-6.41768e-12
-8.78943e-09
-1.12506e-11
-8.77335e-09
-1.60796e-11
-8.75245e-09
-2.09006e-11
-8.72674e-09
-2.57093e-11
-8.69624e-09
-3.05016e-11
-8.66097e-09
-3.52734e-11
-8.62095e-09
-4.00204e-11
-8.57621e-09
-4.47384e-11
-8.52679e-09
-4.9423e-11
-8.47272e-09
-5.40697e-11
-8.41404e-09
-5.86744e-11
-8.35081e-09
-6.32325e-11
-8.28307e-09
-6.774e-11
-8.21088e-09
-7.21923e-11
-8.13429e-09
-7.65849e-11
-8.05338e-09
-8.09135e-11
-7.96821e-09
-8.51733e-11
-7.87885e-09
-8.93601e-11
-7.78538e-09
-9.34694e-11
-7.68788e-09
-9.74968e-11
-7.58644e-09
-1.01438e-10
-7.48116e-09
-1.05288e-10
-7.37211e-09
-1.09042e-10
-7.25942e-09
-1.12697e-10
-7.14317e-09
-1.16247e-10
-7.02348e-09
-1.19688e-10
-6.90047e-09
-1.23016e-10
-6.77424e-09
-1.26226e-10
-6.64493e-09
-1.29314e-10
-6.51265e-09
-1.32276e-10
-6.37754e-09
-1.35106e-10
-6.23974e-09
-1.37802e-10
-6.09939e-09
-1.40358e-10
-5.95662e-09
-1.4277e-10
-5.81158e-09
-1.45034e-10
-5.66444e-09
-1.47147e-10
-5.51533e-09
-1.49103e-10
-5.36443e-09
-1.50899e-10
-5.2119e-09
-1.52531e-10
-5.05791e-09
-1.53995e-10
-4.90262e-09
-1.55287e-10
-4.74622e-09
-1.56405e-10
-4.58887e-09
-1.57343e-10
-4.43078e-09
-1.58098e-10
-4.27211e-09
-1.58667e-10
-4.11306e-09
-1.59047e-10
-3.95383e-09
-1.59234e-10
-3.7946e-09
-1.59226e-10
-3.63558e-09
-1.5902e-10
-3.47697e-09
-1.58611e-10
-3.31897e-09
-1.57999e-10
-3.16179e-09
-1.5718e-10
-3.00564e-09
-1.56152e-10
-2.85073e-09
-1.54912e-10
-2.69727e-09
-1.5346e-10
-2.54548e-09
-1.51792e-10
-2.39557e-09
-1.49907e-10
-2.24777e-09
-1.47804e-10
-2.10229e-09
-1.45481e-10
-1.95935e-09
-1.42938e-10
-1.81918e-09
-1.40174e-10
-1.68199e-09
-1.37188e-10
-1.54801e-09
-1.3398e-10
-1.41746e-09
-1.3055e-10
-1.29056e-09
-1.26899e-10
-1.16753e-09
-1.23028e-10
-1.0486e-09
-1.18939e-10
-9.33964e-10
-1.14632e-10
-8.23853e-10
-1.10111e-10
-7.18475e-10
-1.05378e-10
-6.18038e-10
-1.00437e-10
-5.22746e-10
-9.52931e-11
-4.32795e-10
-8.9951e-11
-3.48378e-10
-8.44173e-11
-2.69678e-10
-7.86998e-11
-1.96871e-10
-7.28074e-11
-1.3012e-10
-6.6751e-11
-6.95768e-11
-6.05431e-11
-1.53781e-11
-5.41989e-11
3.23581e-11
-4.77363e-11
7.3535e-11
-4.11769e-11
1.08081e-10
-3.45464e-11
1.35957e-10
-2.78758e-11
1.5716e-10
-2.12027e-11
1.71732e-10
-1.45729e-11
1.79775e-10
-8.04295e-12
1.81458e-10
-1.68307e-12
1.7704e-10
4.41871e-12
1.66889e-10
1.01503e-11
1.51522e-10
1.53675e-11
1.3164e-10
1.98822e-11
1.08195e-10
2.34443e-11
8.24767e-11
2.57182e-11
5.62199e-11
2.62568e-11
3.17302e-11
2.44897e-11
1.20173e-11
1.9713e-11
7.63902e-13
1.12534e-11
7.63874e-13
1.15645e-11
-1.30641e-11
4.33691e-11
-4.37806e-11
8.96365e-11
-6.63918e-11
1.43839e-10
-7.86856e-11
1.99952e-10
-8.18981e-11
2.52899e-10
-7.77219e-11
2.98585e-10
-6.77348e-11
3.33795e-10
-5.32749e-11
3.56046e-10
-3.54196e-11
3.63454e-10
-1.50185e-11
3.54611e-10
7.26007e-12
3.28495e-10
3.08884e-11
2.8439e-10
5.54474e-11
2.21828e-10
8.06018e-11
1.40542e-10
1.06082e-10
4.04299e-11
1.31669e-10
-7.84773e-11
1.57185e-10
-2.16038e-10
1.82483e-10
-3.72021e-10
2.07445e-10
-5.46117e-10
2.3197e-10
-7.37957e-10
2.55978e-10
-9.4712e-10
2.794e-10
-1.17314e-09
3.02181e-10
-1.41552e-09
3.24274e-10
-1.67372e-09
3.45642e-10
-1.9472e-09
3.66254e-10
-2.23538e-09
3.86084e-10
-2.53768e-09
4.05111e-10
-2.85348e-09
4.23321e-10
-3.18218e-09
4.407e-10
-3.52316e-09
4.5724e-10
-3.87579e-09
4.72934e-10
-4.23945e-09
4.87777e-10
-4.6135e-09
5.01769e-10
-4.99731e-09
5.14907e-10
-5.39026e-09
5.27195e-10
-5.79171e-09
5.38635e-10
-6.20104e-09
5.4923e-10
-6.61762e-09
5.58986e-10
-7.04085e-09
5.67909e-10
-7.47009e-09
5.76005e-10
-7.90476e-09
5.83283e-10
-8.34423e-09
5.89751e-10
-8.78793e-09
5.95417e-10
-9.23525e-09
6.00291e-10
-9.68562e-09
6.04384e-10
-1.01385e-08
6.07705e-10
-1.05932e-08
6.10265e-10
-1.10493e-08
6.12075e-10
-1.15062e-08
6.13147e-10
-1.19634e-08
6.13492e-10
-1.24203e-08
6.13122e-10
-1.28764e-08
6.1205e-10
-1.33311e-08
6.10286e-10
-1.37841e-08
6.07845e-10
-1.42348e-08
6.04738e-10
-1.46826e-08
6.00978e-10
-1.51272e-08
5.96578e-10
-1.5568e-08
5.91551e-10
-1.60047e-08
5.85909e-10
-1.64367e-08
5.79667e-10
-1.68636e-08
5.72836e-10
-1.72849e-08
5.65431e-10
-1.77004e-08
5.57465e-10
-1.81095e-08
5.4895e-10
-1.85119e-08
5.39901e-10
-1.89071e-08
5.30331e-10
-1.92948e-08
5.20252e-10
-1.96747e-08
5.0968e-10
-2.00463e-08
4.98626e-10
-2.04093e-08
4.87105e-10
-2.07634e-08
4.75131e-10
-2.11082e-08
4.62717e-10
-2.14435e-08
4.49877e-10
-2.17689e-08
4.36624e-10
-2.20841e-08
4.22973e-10
-2.23889e-08
4.08936e-10
-2.26829e-08
3.94529e-10
-2.2966e-08
3.79764e-10
-2.32377e-08
3.64656e-10
-2.3498e-08
3.4922e-10
-2.37465e-08
3.33468e-10
-2.3983e-08
3.17415e-10
-2.42074e-08
3.01075e-10
-2.44194e-08
2.84463e-10
-2.46188e-08
2.67593e-10
-2.48055e-08
2.50479e-10
-2.49792e-08
2.33136e-10
-2.51398e-08
2.15579e-10
-2.52873e-08
1.97821e-10
-2.54213e-08
1.79878e-10
-2.55418e-08
1.61765e-10
-2.56487e-08
1.43497e-10
-2.57419e-08
1.25089e-10
-2.58213e-08
1.06555e-10
-2.58868e-08
8.79115e-11
-2.59383e-08
6.91733e-11
-2.59758e-08
5.03562e-11
-2.59992e-08
3.14756e-11
-2.60085e-08
1.25475e-11
-2.60036e-08
-6.41256e-12
-2.59847e-08
-2.53886e-11
-2.59516e-08
-4.43647e-11
-2.59043e-08
-6.33247e-11
-2.5843e-08
-8.22522e-11
-2.57675e-08
-1.01131e-10
-2.56781e-08
-1.19944e-10
-2.55747e-08
-1.38675e-10
-2.54574e-08
-1.57307e-10
-2.53263e-08
-1.75825e-10
-2.51815e-08
-1.9421e-10
-2.50232e-08
-2.12445e-10
-2.48513e-08
-2.30514e-10
-2.46662e-08
-2.48399e-10
-2.44678e-08
-2.66084e-10
-2.42565e-08
-2.8355e-10
-2.40323e-08
-3.00781e-10
-2.37954e-08
-3.1776e-10
-2.35461e-08
-3.34467e-10
-2.32846e-08
-3.50887e-10
-2.30111e-08
-3.67001e-10
-2.27258e-08
-3.82792e-10
-2.2429e-08
-3.98242e-10
-2.21209e-08
-4.13335e-10
-2.18019e-08
-4.28051e-10
-2.14722e-08
-4.42375e-10
-2.11322e-08
-4.56287e-10
-2.07821e-08
-4.69771e-10
-2.04223e-08
-4.82809e-10
-2.00532e-08
-4.95385e-10
-1.9675e-08
-5.07481e-10
-1.92882e-08
-5.19079e-10
-1.88931e-08
-5.30164e-10
-1.84902e-08
-5.40717e-10
-1.80799e-08
-5.50723e-10
-1.76625e-08
-5.60165e-10
-1.72385e-08
-5.69026e-10
-1.68083e-08
-5.77291e-10
-1.63725e-08
-5.84944e-10
-1.59314e-08
-5.9197e-10
-1.54856e-08
-5.98352e-10
-1.50355e-08
-6.04076e-10
-1.45817e-08
-6.09128e-10
-1.41246e-08
-6.13493e-10
-1.36648e-08
-6.17156e-10
-1.32028e-08
-6.20106e-10
-1.27391e-08
-6.22327e-10
-1.22743e-08
-6.23808e-10
-1.1809e-08
-6.24537e-10
-1.13438e-08
-6.24501e-10
-1.08791e-08
-6.23689e-10
-1.04156e-08
-6.22092e-10
-9.95392e-09
-6.19697e-10
-9.49461e-09
-6.16497e-10
-9.03828e-09
-6.12481e-10
-8.58555e-09
-6.07642e-10
-8.13704e-09
-6.01973e-10
-7.69336e-09
-5.95467e-10
-7.25515e-09
-5.88117e-10
-6.82304e-09
-5.7992e-10
-6.39765e-09
-5.7087e-10
-5.97962e-09
-5.60965e-10
-5.56959e-09
-5.50203e-10
-5.1682e-09
-5.38583e-10
-4.77607e-09
-5.26106e-10
-4.39385e-09
-5.12773e-10
-4.02216e-09
-4.98589e-10
-3.66163e-09
-4.83557e-10
-3.31289e-09
-4.67686e-10
-2.97653e-09
-4.50983e-10
-2.65319e-09
-4.3346e-10
-2.34343e-09
-4.15132e-10
-2.04785e-09
-3.96014e-10
-1.76702e-09
-3.76127e-10
-1.50148e-09
-3.55494e-10
-1.25175e-09
-3.34144e-10
-1.01834e-09
-3.12109e-10
-8.01722e-10
-2.8943e-10
-6.02322e-10
-2.66151e-10
-4.20539e-10
-2.42327e-10
-2.56717e-10
-2.18021e-10
-1.11144e-10
-1.93309e-10
1.59586e-11
-1.6828e-10
1.24452e-10
-1.4304e-10
2.14293e-10
-1.17716e-10
2.8555e-10
-9.246e-11
3.38433e-10
-6.74556e-11
3.73316e-10
-4.29262e-11
3.90778e-10
-1.9145e-11
3.91645e-10
3.55121e-12
3.77051e-10
2.47444e-11
3.48506e-10
4.39117e-11
3.07993e-10
6.03953e-11
2.58073e-10
7.33648e-11
2.02014e-10
8.17764e-11
1.43923e-10
8.43482e-11
8.88151e-11
7.95974e-11
4.25401e-11
6.59878e-11
1.12478e-11
4.25456e-11
1.20116e-11
1.99433e-11
-3.30075e-11
6.61272e-11
-8.99646e-11
1.28991e-10
-1.29256e-10
2.00029e-10
-1.49723e-10
2.71524e-10
-1.53393e-10
3.36781e-10
-1.42979e-10
3.9019e-10
-1.21144e-10
4.2717e-10
-9.02547e-11
4.44054e-10
-5.23034e-11
4.37963e-10
-8.92773e-12
4.06683e-10
3.854e-11
3.48551e-10
8.90198e-11
2.62365e-10
1.41634e-10
1.47298e-10
1.95668e-10
2.84289e-12
2.50537e-10
-1.7125e-10
3.05762e-10
-3.75013e-10
3.60947e-10
-6.08295e-10
4.15765e-10
-8.70796e-10
4.69945e-10
-1.16209e-09
5.23261e-10
-1.48163e-09
5.75525e-10
-1.82882e-09
6.26581e-10
-2.20293e-09
6.76297e-10
-2.60322e-09
7.24565e-10
-3.02887e-09
7.71294e-10
-3.47903e-09
8.16411e-10
-3.9528e-09
8.59853e-10
-4.44926e-09
9.01571e-10
-4.96746e-09
9.41524e-10
-5.50644e-09
9.79682e-10
-6.06522e-09
1.01602e-09
-6.64281e-09
1.05052e-09
-7.23819e-09
1.08317e-09
-7.85038e-09
1.11396e-09
-8.47836e-09
1.14288e-09
-9.12111e-09
1.16995e-09
-9.77763e-09
1.19516e-09
-1.04469e-08
1.21852e-09
-1.1128e-08
1.24003e-09
-1.18198e-08
1.25972e-09
-1.25214e-08
1.27759e-09
-1.32317e-08
1.29366e-09
-1.39499e-08
1.30794e-09
-1.4675e-08
1.32046e-09
-1.54059e-08
1.33123e-09
-1.61418e-08
1.34028e-09
-1.68817e-08
1.34762e-09
-1.76247e-08
1.35328e-09
-1.837e-08
1.35729e-09
-1.91165e-08
1.35966e-09
-1.98634e-08
1.36043e-09
-2.06099e-08
1.35961e-09
-2.13551e-08
1.35724e-09
-2.20981e-08
1.35334e-09
-2.28382e-08
1.34794e-09
-2.35746e-08
1.34106e-09
-2.43063e-08
1.33274e-09
-2.50327e-08
1.32299e-09
-2.57531e-08
1.31186e-09
-2.64665e-08
1.29936e-09
-2.71724e-08
1.28553e-09
-2.78699e-08
1.2704e-09
-2.85585e-08
1.25399e-09
-2.92374e-08
1.23634e-09
-2.99059e-08
1.21746e-09
-3.05634e-08
1.1974e-09
-3.12092e-08
1.17619e-09
-3.18428e-08
1.15384e-09
-3.24636e-08
1.1304e-09
-3.30708e-08
1.10589e-09
-3.36641e-08
1.08034e-09
-3.42427e-08
1.05379e-09
-3.48063e-08
1.02626e-09
-3.53542e-08
9.97776e-10
-3.58859e-08
9.6838e-10
-3.6401e-08
9.38098e-10
-3.68991e-08
9.06962e-10
-3.73795e-08
8.75001e-10
-3.7842e-08
8.42246e-10
-3.82861e-08
8.08729e-10
-3.87113e-08
7.74482e-10
-3.91174e-08
7.39534e-10
-3.95039e-08
7.03918e-10
-3.98705e-08
6.67665e-10
-4.02169e-08
6.30808e-10
-4.05426e-08
5.93377e-10
-4.08476e-08
5.55406e-10
-4.11314e-08
5.16926e-10
-4.13937e-08
4.77969e-10
-4.16345e-08
4.3857e-10
-4.18534e-08
3.98759e-10
-4.20502e-08
3.58572e-10
-4.22247e-08
3.1804e-10
-4.23768e-08
2.77197e-10
-4.25064e-08
2.36078e-10
-4.26132e-08
1.94715e-10
-4.26971e-08
1.53144e-10
-4.27582e-08
1.11398e-10
-4.27962e-08
6.95128e-11
-4.28112e-08
2.75229e-11
-4.28031e-08
-1.45365e-11
-4.27718e-08
-5.66299e-11
-4.27175e-08
-9.87217e-11
-4.264e-08
-1.40776e-10
-4.25395e-08
-1.82757e-10
-4.2416e-08
-2.24628e-10
-4.22696e-08
-2.66352e-10
-4.21004e-08
-3.07892e-10
-4.19085e-08
-3.49211e-10
-4.1694e-08
-3.90273e-10
-4.14572e-08
-4.31039e-10
-4.11982e-08
-4.71472e-10
-4.09172e-08
-5.11534e-10
-4.06144e-08
-5.51186e-10
-4.02901e-08
-5.90391e-10
-3.99445e-08
-6.2911e-10
-3.9578e-08
-6.67305e-10
-3.91908e-08
-7.04937e-10
-3.87833e-08
-7.41967e-10
-3.83558e-08
-7.78357e-10
-3.79088e-08
-8.14067e-10
-3.74425e-08
-8.49058e-10
-3.69574e-08
-8.83293e-10
-3.64541e-08
-9.16731e-10
-3.59328e-08
-9.49335e-10
-3.53941e-08
-9.81065e-10
-3.48385e-08
-1.01188e-09
-3.42665e-08
-1.04175e-09
-3.36787e-08
-1.07063e-09
-3.30756e-08
-1.09848e-09
-3.24578e-08
-1.12526e-09
-3.1826e-08
-1.15094e-09
-3.11806e-08
-1.17548e-09
-3.05225e-08
-1.19885e-09
-2.98522e-08
-1.221e-09
-2.91705e-08
-1.2419e-09
-2.8478e-08
-1.26151e-09
-2.77755e-08
-1.2798e-09
-2.70637e-08
-1.29674e-09
-2.63434e-08
-1.31228e-09
-2.56154e-08
-1.3264e-09
-2.48804e-08
-1.33906e-09
-2.41393e-08
-1.35024e-09
-2.33929e-08
-1.35989e-09
-2.2642e-08
-1.368e-09
-2.18876e-08
-1.37452e-09
-2.11305e-08
-1.37944e-09
-2.03716e-08
-1.38272e-09
-1.96118e-08
-1.38433e-09
-1.8852e-08
-1.38426e-09
-1.80933e-08
-1.38247e-09
-1.73364e-08
-1.37894e-09
-1.65824e-08
-1.37366e-09
-1.58323e-08
-1.3666e-09
-1.50871e-08
-1.35775e-09
-1.43476e-08
-1.34707e-09
-1.3615e-08
-1.33457e-09
-1.28903e-08
-1.32023e-09
-1.21744e-08
-1.30403e-09
-1.14683e-08
-1.28596e-09
-1.07732e-08
-1.26603e-09
-1.00899e-08
-1.24421e-09
-9.41962e-09
-1.22051e-09
-8.76327e-09
-1.19493e-09
-8.1219e-09
-1.16748e-09
-7.49652e-09
-1.13815e-09
-6.88815e-09
-1.10696e-09
-6.29779e-09
-1.07392e-09
-5.72642e-09
-1.03905e-09
-5.17503e-09
-1.00237e-09
-4.64458e-09
-9.63916e-10
-4.136e-09
-9.23711e-10
-3.65021e-09
-8.818e-10
-3.18811e-09
-8.38231e-10
-2.75054e-09
-7.93061e-10
-2.33833e-09
-7.46356e-10
-1.95224e-09
-6.98196e-10
-1.593e-09
-6.4867e-10
-1.26127e-09
-5.97888e-10
-9.57619e-10
-5.45973e-10
-6.82568e-10
-4.93073e-10
-4.36516e-10
-4.39361e-10
-2.19757e-10
-3.8504e-10
-3.2448e-11
-3.3035e-10
1.25411e-10
-2.75576e-10
2.54009e-10
-2.21057e-10
3.53753e-10
-1.672e-10
4.25318e-10
-1.14491e-10
4.69693e-10
-6.35203e-11
4.88246e-10
-1.50018e-11
4.82797e-10
3.01928e-11
4.55711e-10
7.09979e-11
4.09997e-10
1.06109e-10
3.49425e-10
1.33936e-10
2.78641e-10
1.52561e-10
2.03254e-10
1.59735e-10
1.29868e-10
1.52983e-10
6.59804e-11
1.29876e-10
1.97021e-11
8.88238e-11
3.17137e-11
2.44064e-11
-5.7414e-11
7.85904e-11
-1.44149e-10
1.49669e-10
-2.00335e-10
2.27303e-10
-2.27357e-10
3.02525e-10
-2.28615e-10
3.67585e-10
-2.08039e-10
4.15897e-10
-1.69456e-10
4.41962e-10
-1.1632e-10
4.41274e-10
-5.16163e-11
4.10211e-10
2.21357e-11
3.45915e-10
1.02836e-10
2.46191e-10
1.88743e-10
1.09407e-10
2.78418e-10
-6.55925e-11
3.70668e-10
-2.79559e-10
4.64503e-10
-5.32901e-10
5.59104e-10
-8.25739e-10
6.53785e-10
-1.15795e-09
7.47976e-10
-1.5292e-09
8.41197e-10
-1.93899e-09
9.33048e-10
-2.38665e-09
1.02319e-09
-2.87142e-09
1.11135e-09
-3.3924e-09
1.19728e-09
-3.94862e-09
1.28078e-09
-4.53901e-09
1.36169e-09
-5.16247e-09
1.43987e-09
-5.81782e-09
1.5152e-09
-6.50385e-09
1.5876e-09
-7.21929e-09
1.65697e-09
-7.96288e-09
1.72327e-09
-8.7333e-09
1.78644e-09
-9.52923e-09
1.84644e-09
-1.03493e-08
1.90326e-09
-1.11922e-08
1.95686e-09
-1.20566e-08
2.00724e-09
-1.2941e-08
2.0544e-09
-1.38442e-08
2.09834e-09
-1.47648e-08
2.13907e-09
-1.57013e-08
2.1766e-09
-1.66525e-08
2.21094e-09
-1.76171e-08
2.24213e-09
-1.85936e-08
2.27018e-09
-1.95808e-08
2.29511e-09
-2.05773e-08
2.31698e-09
-2.15819e-08
2.33579e-09
-2.25932e-08
2.35159e-09
-2.361e-08
2.36442e-09
-2.4631e-08
2.37431e-09
-2.5655e-08
2.38131e-09
-2.66808e-08
2.38545e-09
-2.77071e-08
2.38677e-09
-2.87329e-08
2.38533e-09
-2.97568e-08
2.38117e-09
-3.07778e-08
2.37433e-09
-3.17947e-08
2.36485e-09
-3.28064e-08
2.35279e-09
-3.38119e-08
2.3382e-09
-3.481e-08
2.32112e-09
-3.57997e-08
2.30159e-09
-3.678e-08
2.27968e-09
-3.77499e-08
2.25543e-09
-3.87084e-08
2.2289e-09
-3.96546e-08
2.20012e-09
-4.05874e-08
2.16916e-09
-4.1506e-08
2.13606e-09
-4.24094e-08
2.10087e-09
-4.32969e-08
2.06366e-09
-4.41675e-08
2.02446e-09
-4.50205e-08
1.98333e-09
-4.58549e-08
1.94033e-09
-4.66701e-08
1.89551e-09
-4.74652e-08
1.84892e-09
-4.82396e-08
1.80061e-09
-4.89924e-08
1.75064e-09
-4.97231e-08
1.69905e-09
-5.04309e-08
1.64591e-09
-5.11152e-08
1.59127e-09
-5.17754e-08
1.53518e-09
-5.24108e-08
1.4777e-09
-5.3021e-08
1.41888e-09
-5.36053e-08
1.35877e-09
-5.41632e-08
1.29743e-09
-5.46942e-08
1.23492e-09
-5.51978e-08
1.1713e-09
-5.56736e-08
1.10661e-09
-5.61211e-08
1.04091e-09
-5.654e-08
9.74265e-10
-5.69298e-08
9.06727e-10
-5.72902e-08
8.38353e-10
-5.76208e-08
7.69202e-10
-5.79214e-08
6.9933e-10
-5.81916e-08
6.28796e-10
-5.84312e-08
5.57658e-10
-5.864e-08
4.85977e-10
-5.88178e-08
4.1381e-10
-5.89643e-08
3.41219e-10
-5.90794e-08
2.68263e-10
-5.9163e-08
1.95002e-10
-5.9215e-08
1.21498e-10
-5.92353e-08
4.78115e-11
-5.92238e-08
-2.59944e-11
-5.91806e-08
-9.98578e-11
-5.91056e-08
-1.73716e-10
-5.89988e-08
-2.47506e-10
-5.88604e-08
-3.21165e-10
-5.86904e-08
-3.94628e-10
-5.8489e-08
-4.6783e-10
-5.82561e-08
-5.40708e-10
-5.79922e-08
-6.13195e-10
-5.76972e-08
-6.85227e-10
-5.73715e-08
-7.56737e-10
-5.70153e-08
-8.2766e-10
-5.66289e-08
-8.97928e-10
-5.62126e-08
-9.67476e-10
-5.57668e-08
-1.03623e-09
-5.52918e-08
-1.10414e-09
-5.4788e-08
-1.17112e-09
-5.42558e-08
-1.23711e-09
-5.36957e-08
-1.30204e-09
-5.31082e-08
-1.36584e-09
-5.24938e-08
-1.42845e-09
-5.18531e-08
-1.4898e-09
-5.11866e-08
-1.54982e-09
-5.04949e-08
-1.60844e-09
-4.97786e-08
-1.66559e-09
-4.90385e-08
-1.7212e-09
-4.82751e-08
-1.77521e-09
-4.74893e-08
-1.82756e-09
-4.66818e-08
-1.87816e-09
-4.58533e-08
-1.92697e-09
-4.50047e-08
-1.9739e-09
-4.41367e-08
-2.0189e-09
-4.32503e-08
-2.0619e-09
-4.23463e-08
-2.10283e-09
-4.14257e-08
-2.14163e-09
-4.04893e-08
-2.17824e-09
-3.95383e-08
-2.21259e-09
-3.85734e-08
-2.24463e-09
-3.75959e-08
-2.2743e-09
-3.66066e-08
-2.30152e-09
-3.56068e-08
-2.32625e-09
-3.45974e-08
-2.34843e-09
-3.35796e-08
-2.36801e-09
-3.25546e-08
-2.38492e-09
-3.15235e-08
-2.39912e-09
-3.04875e-08
-2.41055e-09
-2.94477e-08
-2.41917e-09
-2.84055e-08
-2.42492e-09
-2.73621e-08
-2.42777e-09
-2.63187e-08
-2.42766e-09
-2.52766e-08
-2.42457e-09
-2.42371e-08
-2.41843e-09
-2.32015e-08
-2.40923e-09
-2.21712e-08
-2.39693e-09
-2.11475e-08
-2.38149e-09
-2.01317e-08
-2.36288e-09
-1.91251e-08
-2.34109e-09
-1.81293e-08
-2.31608e-09
-1.71455e-08
-2.28784e-09
-1.61751e-08
-2.25635e-09
-1.52195e-08
-2.22161e-09
-1.42801e-08
-2.1836e-09
-1.33583e-08
-2.14232e-09
-1.24555e-08
-2.09778e-09
-1.15729e-08
-2.04998e-09
-1.07122e-08
-1.99894e-09
-9.87444e-09
-1.94468e-09
-9.06114e-09
-1.88722e-09
-8.2736e-09
-1.8266e-09
-7.51311e-09
-1.76286e-09
-6.78097e-09
-1.69606e-09
-6.07843e-09
-1.62626e-09
-5.4067e-09
-1.55353e-09
-4.76696e-09
-1.47797e-09
-4.16033e-09
-1.39968e-09
-3.5879e-09
-1.31879e-09
-3.05066e-09
-1.23544e-09
-2.54954e-09
-1.14979e-09
-2.08539e-09
-1.06204e-09
-1.65894e-09
-9.72422e-10
-1.27081e-09
-8.81195e-10
-9.21508e-10
-7.88668e-10
-6.11343e-10
-6.95205e-10
-3.40464e-10
-6.01228e-10
-1.08801e-10
-5.07239e-10
8.39681e-11
-4.13827e-10
2.3846e-10
-3.21692e-10
3.55634e-10
-2.31665e-10
4.36855e-10
-1.44741e-10
4.83959e-10
-6.21066e-11
4.9934e-10
1.48117e-11
4.86035e-10
8.43032e-11
4.47825e-10
1.44319e-10
3.8934e-10
1.92422e-10
3.1615e-10
2.25751e-10
2.34845e-10
2.4104e-10
1.53088e-10
2.3474e-10
7.96386e-11
2.03325e-10
2.44866e-11
1.43976e-10
5.62003e-11
2.57915e-11
-8.32055e-11
8.20208e-11
-2.00378e-10
1.53711e-10
-2.72026e-10
2.291e-10
-3.02746e-10
2.98263e-10
-2.97779e-10
3.52713e-10
-2.62489e-10
3.85213e-10
-2.01956e-10
3.89655e-10
-1.20763e-10
3.6096e-10
-2.29205e-11
2.94967e-10
8.81283e-11
1.88341e-10
2.09462e-10
3.84689e-11
3.38616e-10
-1.56633e-10
4.7352e-10
-3.98404e-10
6.12438e-10
-6.8781e-10
7.5391e-10
-1.02542e-09
8.96709e-10
-1.41144e-09
1.0398e-09
-1.84579e-09
1.18233e-09
-2.32813e-09
1.32354e-09
-2.85792e-09
1.46283e-09
-3.4344e-09
1.59967e-09
-4.05667e-09
1.73362e-09
-4.72369e-09
1.86429e-09
-5.43429e-09
1.99139e-09
-6.18723e-09
2.11463e-09
-6.98115e-09
2.23379e-09
-7.81465e-09
2.3487e-09
-8.68624e-09
2.45919e-09
-9.5944e-09
2.56513e-09
-1.05376e-08
2.66643e-09
-1.15141e-08
2.76299e-09
-1.25224e-08
2.85477e-09
-1.35609e-08
2.94169e-09
-1.46278e-08
3.02374e-09
-1.57214e-08
3.10089e-09
-1.68401e-08
3.17313e-09
-1.79823e-08
3.24046e-09
-1.91461e-08
3.30289e-09
-2.03299e-08
3.36043e-09
-2.15321e-08
3.4131e-09
-2.27509e-08
3.46093e-09
-2.39847e-08
3.50396e-09
-2.52318e-08
3.54223e-09
-2.64906e-08
3.57578e-09
-2.77594e-08
3.60465e-09
-2.90367e-08
3.6289e-09
-3.03209e-08
3.64858e-09
-3.16103e-08
3.66375e-09
-3.29035e-08
3.67446e-09
-3.41988e-08
3.68079e-09
-3.54948e-08
3.68279e-09
-3.679e-08
3.68053e-09
-3.80829e-08
3.67407e-09
-3.93721e-08
3.66349e-09
-4.06561e-08
3.64886e-09
-4.19336e-08
3.63025e-09
-4.32031e-08
3.60773e-09
-4.44634e-08
3.58137e-09
-4.5713e-08
3.55126e-09
-4.69508e-08
3.51746e-09
-4.81754e-08
3.48005e-09
-4.93856e-08
3.43911e-09
-5.05802e-08
3.39472e-09
-5.1758e-08
3.34695e-09
-5.29178e-08
3.29588e-09
-5.40586e-08
3.2416e-09
-5.51791e-08
3.18418e-09
-5.62783e-08
3.12371e-09
-5.73552e-08
3.06025e-09
-5.84088e-08
2.9939e-09
-5.9438e-08
2.92474e-09
-6.0442e-08
2.85284e-09
-6.14196e-08
2.77829e-09
-6.23702e-08
2.70117e-09
-6.32927e-08
2.62157e-09
-6.41863e-08
2.53956e-09
-6.50503e-08
2.45523e-09
-6.58838e-08
2.36867e-09
-6.6686e-08
2.27995e-09
-6.74563e-08
2.18916e-09
-6.8194e-08
2.0964e-09
-6.88983e-08
2.00173e-09
-6.95686e-08
1.90525e-09
-7.02043e-08
1.80704e-09
-7.08049e-08
1.7072e-09
-7.13698e-08
1.6058e-09
-7.18985e-08
1.50293e-09
-7.23904e-08
1.39869e-09
-7.28452e-08
1.29316e-09
-7.32625e-08
1.18643e-09
-7.36417e-08
1.07858e-09
-7.39826e-08
9.6972e-10
-7.42849e-08
8.59927e-10
-7.45482e-08
7.49296e-10
-7.47723e-08
6.37917e-10
-7.4957e-08
5.25885e-10
-7.5102e-08
4.13292e-10
-7.52073e-08
3.00231e-10
-7.52726e-08
1.86797e-10
-7.52978e-08
7.30851e-11
-7.5283e-08
-4.08089e-11
-7.52281e-08
-1.54789e-10
-7.5133e-08
-2.68757e-10
-7.49979e-08
-3.82617e-10
-7.48228e-08
-4.9627e-10
-7.46078e-08
-6.09617e-10
-7.43531e-08
-7.22559e-10
-7.40588e-08
-8.34996e-10
-7.37252e-08
-9.46827e-10
-7.33525e-08
-1.05795e-09
-7.29409e-08
-1.16827e-09
-7.24909e-08
-1.27767e-09
-7.20028e-08
-1.38606e-09
-7.14769e-08
-1.49333e-09
-7.09138e-08
-1.59939e-09
-7.03138e-08
-1.70412e-09
-6.96775e-08
-1.80742e-09
-6.90054e-08
-1.90918e-09
-6.82982e-08
-2.00932e-09
-6.75563e-08
-2.10771e-09
-6.67805e-08
-2.20425e-09
-6.59715e-08
-2.29884e-09
-6.51299e-08
-2.39137e-09
-6.42566e-08
-2.48174e-09
-6.33523e-08
-2.56985e-09
-6.2418e-08
-2.65559e-09
-6.14543e-08
-2.73885e-09
-6.04623e-08
-2.81954e-09
-5.9443e-08
-2.89754e-09
-5.83972e-08
-2.97276e-09
-5.7326e-08
-3.04509e-09
-5.62304e-08
-3.11444e-09
-5.51116e-08
-3.18071e-09
-5.39707e-08
-3.24378e-09
-5.28087e-08
-3.30358e-09
-5.1627e-08
-3.35999e-09
-5.04266e-08
-3.41293e-09
-4.9209e-08
-3.4623e-09
-4.79753e-08
-3.50801e-09
-4.67268e-08
-3.54996e-09
-4.5465e-08
-3.58807e-09
-4.41912e-08
-3.62225e-09
-4.29068e-08
-3.65242e-09
-4.16132e-08
-3.6785e-09
-4.03119e-08
-3.70039e-09
-3.90044e-08
-3.71803e-09
-3.76923e-08
-3.73134e-09
-3.63769e-08
-3.74025e-09
-3.506e-08
-3.74469e-09
-3.37431e-08
-3.74458e-09
-3.24278e-08
-3.73988e-09
-3.11157e-08
-3.73052e-09
-2.98085e-08
-3.71645e-09
-2.85078e-08
-3.69761e-09
-2.72153e-08
-3.67396e-09
-2.59327e-08
-3.64546e-09
-2.46618e-08
-3.61206e-09
-2.34041e-08
-3.57374e-09
-2.21615e-08
-3.53047e-09
-2.09356e-08
-3.48223e-09
-1.97282e-08
-3.42901e-09
-1.8541e-08
-3.37079e-09
-1.73757e-08
-3.30758e-09
-1.62341e-08
-3.23938e-09
-1.51179e-08
-3.16622e-09
-1.40287e-08
-3.08811e-09
-1.29683e-08
-3.00509e-09
-1.19383e-08
-2.91721e-09
-1.09404e-08
-2.82453e-09
-9.97613e-09
-2.72713e-09
-9.04711e-09
-2.62508e-09
-8.15487e-09
-2.51849e-09
-7.3009e-09
-2.4075e-09
-6.48664e-09
-2.29224e-09
-5.71344e-09
-2.17288e-09
-4.9826e-09
-2.04963e-09
-4.29532e-09
-1.92271e-09
-3.65272e-09
-1.79239e-09
-3.05579e-09
-1.65897e-09
-2.50539e-09
-1.52282e-09
-2.00224e-09
-1.38435e-09
-1.54687e-09
-1.24404e-09
-1.13962e-09
-1.10245e-09
-7.80624e-10
-9.60229e-10
-4.69714e-10
-8.1815e-10
-2.06439e-10
-6.77102e-10
1.00091e-11
-5.3814e-10
1.80843e-10
-4.025e-10
3.07746e-10
-2.71644e-10
3.92941e-10
-1.47301e-10
4.39267e-10
-3.15147e-11
4.5027e-10
7.33005e-11
4.30287e-10
1.64301e-10
3.84544e-10
2.38165e-10
3.19236e-10
2.91058e-10
2.41624e-10
3.18653e-10
1.60132e-10
3.16231e-10
8.45237e-11
2.78933e-10
2.62858e-11
2.02213e-10
8.24861e-11
2.48735e-11
-1.08079e-10
7.81338e-11
-2.53639e-10
1.43844e-10
-3.37736e-10
2.09364e-10
-3.68266e-10
2.64122e-10
-3.52537e-10
2.99133e-10
-2.975e-10
3.06736e-10
-2.09559e-10
2.80431e-10
-9.44573e-11
2.14755e-10
4.27555e-11
1.05186e-10
1.97696e-10
-5.19503e-11
3.66598e-10
-2.59577e-10
5.46242e-10
-5.19946e-10
7.33889e-10
-8.3472e-10
9.27212e-10
-1.20505e-09
1.12424e-09
-1.63162e-09
1.32328e-09
-2.11475e-09
1.52293e-09
-2.65438e-09
1.72197e-09
-3.2502e-09
1.91936e-09
-3.90161e-09
2.11424e-09
-4.60779e-09
2.30585e-09
-5.36774e-09
2.49357e-09
-6.1803e-09
2.67685e-09
-7.04415e-09
2.85523e-09
-7.95785e-09
3.02833e-09
-8.91986e-09
3.19581e-09
-9.92856e-09
3.3574e-09
-1.09822e-08
3.51286e-09
-1.20791e-08
3.66201e-09
-1.32174e-08
3.80469e-09
-1.43952e-08
3.94077e-09
-1.56105e-08
4.07015e-09
-1.68616e-08
4.19275e-09
-1.81464e-08
4.30851e-09
-1.94629e-08
4.41739e-09
-2.08091e-08
4.51938e-09
-2.21831e-08
4.61446e-09
-2.35829e-08
4.70264e-09
-2.50064e-08
4.78393e-09
-2.64516e-08
4.85837e-09
-2.79167e-08
4.92598e-09
-2.93995e-08
4.9868e-09
-3.08982e-08
5.0409e-09
-3.24107e-08
5.08832e-09
-3.39352e-08
5.12913e-09
-3.54697e-08
5.1634e-09
-3.70123e-08
5.1912e-09
-3.85612e-08
5.21261e-09
-4.01144e-08
5.22771e-09
-4.16702e-08
5.23659e-09
-4.32268e-08
5.23933e-09
-4.47823e-08
5.23603e-09
-4.6335e-08
5.22678e-09
-4.78832e-08
5.21168e-09
-4.94252e-08
5.19082e-09
-5.09592e-08
5.16431e-09
-5.24837e-08
5.13225e-09
-5.39971e-08
5.09474e-09
-5.54977e-08
5.05188e-09
-5.69841e-08
5.00379e-09
-5.84546e-08
4.95057e-09
-5.99078e-08
4.89232e-09
-6.13422e-08
4.82917e-09
-6.27565e-08
4.76121e-09
-6.41492e-08
4.68857e-09
-6.55189e-08
4.61135e-09
-6.68644e-08
4.52966e-09
-6.81843e-08
4.44363e-09
-6.94774e-08
4.35335e-09
-7.07425e-08
4.25896e-09
-7.19783e-08
4.16056e-09
-7.31837e-08
4.05826e-09
-7.43576e-08
3.9522e-09
-7.54989e-08
3.84248e-09
-7.66066e-08
3.72921e-09
-7.76796e-08
3.61253e-09
-7.87169e-08
3.49254e-09
-7.97176e-08
3.36937e-09
-8.06807e-08
3.24313e-09
-8.16055e-08
3.11395e-09
-8.24911e-08
2.98195e-09
-8.33366e-08
2.84725e-09
-8.41413e-08
2.70996e-09
-8.49045e-08
2.57022e-09
-8.56254e-08
2.42814e-09
-8.63035e-08
2.28386e-09
-8.69381e-08
2.13749e-09
-8.75285e-08
1.98915e-09
-8.80744e-08
1.83899e-09
-8.8575e-08
1.68712e-09
-8.90301e-08
1.53367e-09
-8.94392e-08
1.37877e-09
-8.98018e-08
1.22255e-09
-9.01176e-08
1.06513e-09
-9.03864e-08
9.06661e-10
-9.06078e-08
7.4726e-10
-9.07815e-08
5.87064e-10
-9.09075e-08
4.26206e-10
-9.09855e-08
2.64821e-10
-9.10155e-08
1.03044e-10
-9.09973e-08
-5.89878e-11
-9.0931e-08
-2.21138e-10
-9.08164e-08
-3.83268e-10
-9.06538e-08
-5.45239e-10
-9.04432e-08
-7.0691e-10
-9.01847e-08
-8.68142e-10
-8.98784e-08
-1.02879e-09
-8.95247e-08
-1.18872e-09
-8.91238e-08
-1.34778e-09
-8.86759e-08
-1.50583e-09
-8.81814e-08
-1.66272e-09
-8.76408e-08
-1.81831e-09
-8.70544e-08
-1.97245e-09
-8.64227e-08
-2.125e-09
-8.57463e-08
-2.27581e-09
-8.50257e-08
-2.42473e-09
-8.42615e-08
-2.57162e-09
-8.34544e-08
-2.71631e-09
-8.2605e-08
-2.85868e-09
-8.17141e-08
-2.99856e-09
-8.07826e-08
-3.13581e-09
-7.98111e-08
-3.27028e-09
-7.88007e-08
-3.40183e-09
-7.77521e-08
-3.53029e-09
-7.66665e-08
-3.65553e-09
-7.55447e-08
-3.77739e-09
-7.43878e-08
-3.89574e-09
-7.31969e-08
-4.01041e-09
-7.19732e-08
-4.12127e-09
-7.07178e-08
-4.22817e-09
-6.94319e-08
-4.33097e-09
-6.81168e-08
-4.42952e-09
-6.67738e-08
-4.52369e-09
-6.54043e-08
-4.61332e-09
-6.40096e-08
-4.69829e-09
-6.25911e-08
-4.77846e-09
-6.11503e-08
-4.85368e-09
-5.96888e-08
-4.92384e-09
-5.8208e-08
-4.98879e-09
-5.67096e-08
-5.04842e-09
-5.51951e-08
-5.10259e-09
-5.36661e-08
-5.15118e-09
-5.21245e-08
-5.19407e-09
-5.05718e-08
-5.23115e-09
-4.90099e-08
-5.26231e-09
-4.74405e-08
-5.28743e-09
-4.58654e-08
-5.30641e-09
-4.42865e-08
-5.31915e-09
-4.27057e-08
-5.32555e-09
-4.11247e-08
-5.32553e-09
-3.95456e-08
-5.31898e-09
-3.79703e-08
-5.30584e-09
-3.64007e-08
-5.28603e-09
-3.48389e-08
-5.25947e-09
-3.32867e-08
-5.2261e-09
-3.17463e-08
-5.18587e-09
-3.02197e-08
-5.13873e-09
-2.87088e-08
-5.08463e-09
-2.72157e-08
-5.02354e-09
-2.57425e-08
-4.95543e-09
-2.42912e-08
-4.88028e-09
-2.28639e-08
-4.7981e-09
-2.14626e-08
-4.70889e-09
-2.00894e-08
-4.61265e-09
-1.87462e-08
-4.50942e-09
-1.7435e-08
-4.39925e-09
-1.61579e-08
-4.28218e-09
-1.49169e-08
-4.15829e-09
-1.37137e-08