/*--------------------------------*- C++ -*----------------------------------*\
  =========                 |
  \\      /  F ield         | OpenFOAM: The Open Source CFD Toolbox
   \\    /   O peration     | Website:  https://openfoam.org
    \\  /    A nd           | Version:  7
     \\/     M anipulation  |
\*---------------------------------------------------------------------------*/
FoamFile
{
    version     2.0;
    format      ascii;
    class       volScalarField;
    location    "0.525";
    object      p;
}
// * * * * * * * * * * * * * * * * * * * * * * * * * * * * * * * * * * * * * //

dimensions      [0 2 -2 0 0 0 0];

internalField   nonuniform List<scalar> 
6400
(
7.38596e-06
2.49856e-05
-0.000481018
-0.00151419
-0.0029571
-0.00469947
-0.00664093
-0.00869193
-0.0107752
-0.0128253
-0.0147872
-0.0166145
-0.018269
-0.0197188
-0.0209381
-0.0219063
-0.0226071
-0.0230284
-0.0231616
-0.0230013
-0.0225452
-0.0217932
-0.0207478
-0.0194136
-0.0177971
-0.0159064
-0.0137514
-0.0113435
-0.00869515
-0.00582037
-0.00273412
0.000547552
0.00400765
0.00762831
0.0113909
0.0152759
0.0192635
0.0233329
0.0274631
0.0316327
0.0358196
0.040002
0.0441575
0.0482639
0.0522989
0.0562404
0.0600666
0.0637561
0.067288
0.0706419
0.0737986
0.0767394
0.0794471
0.0819055
0.0841
0.0860176
0.0876471
0.0889793
0.0900072
0.0907262
0.0911343
0.0912326
0.091025
0.0905188
0.0897252
0.0886592
0.0873401
0.0857921
0.0840446
0.0821328
0.0800985
0.0779909
0.0758674
0.0737951
0.0718517
0.0701255
0.0687137
0.0677205
0.0672524
0.0672901
7.65919e-07
1.46611e-05
-0.000439028
-0.00132268
-0.00253701
-0.00400276
-0.00564405
-0.00738848
-0.00917079
-0.0109337
-0.0126275
-0.0142097
-0.0156441
-0.0169006
-0.0179539
-0.0187837
-0.0193738
-0.0197117
-0.0197882
-0.0195973
-0.0191358
-0.0184028
-0.0173998
-0.0161303
-0.0145998
-0.0128154
-0.0107857
-0.00852098
-0.00603267
-0.00333345
-0.000437135
0.00264145
0.00588653
0.00928149
0.0128089
0.0164507
0.0201882
0.024002
0.0278724
0.0317793
0.0357022
0.0396205
0.0435133
0.0473598
0.0511392
0.0548309
0.0584146
0.0618704
0.0651789
0.0683213
0.0712797
0.0740372
0.0765779
0.078887
0.0809514
0.0827595
0.0843012
0.0855688
0.0865563
0.0872603
0.0876796
0.087816
0.0876743
0.0872621
0.0865908
0.0856754
0.084535
0.0831927
0.0816769
0.0800207
0.0782631
0.0764489
0.0746297
0.072864
0.0712172
0.0697605
0.0685673
0.0677123
0.0672889
0.0673276
0.000508012
0.000470009
1.59988e-05
-0.00080021
-0.00189133
-0.00319404
-0.00464714
-0.00619052
-0.00776856
-0.00933121
-0.0108341
-0.0122387
-0.0135115
-0.0146241
-0.0155529
-0.016278
-0.0167838
-0.0170577
-0.0170908
-0.0168765
-0.0164111
-0.0156934
-0.0147242
-0.0135062
-0.0120442
-0.0103444
-0.00841477
-0.00626447
-0.00390408
-0.00134536
0.00139884
0.00431468
0.0073874
0.0106014
0.0139402
0.017387
0.0209238
0.0245327
0.0281949
0.0318914
0.0356029
0.0393098
0.0429925
0.0466314
0.0502068
0.0536993
0.0570899
0.0603597
0.0634906
0.066465
0.0692663
0.0718786
0.0742871
0.0764783
0.0784401
0.0801618
0.0816345
0.0828511
0.0838067
0.0844983
0.0849257
0.0850908
0.0849988
0.0846576
0.0840783
0.0832757
0.0822679
0.0810773
0.0797305
0.0782584
0.0766968
0.0750865
0.0734736
0.0719089
0.0704485
0.0691516
0.0680776
0.0672865
0.066864
0.0668615
0.00154125
0.00135623
0.000832383
1.28761e-05
-0.0010356
-0.00225945
-0.00360691
-0.00502723
-0.00647278
-0.00789998
-0.00926962
-0.010547
-0.0117017
-0.0127077
-0.0135427
-0.0141884
-0.0146297
-0.0148547
-0.0148545
-0.0146226
-0.0141553
-0.013451
-0.0125101
-0.011335
-0.00992971
-0.00830005
-0.00645319
-0.00439769
-0.00214337
0.000298778
0.00291672
0.00569741
0.00862694
0.0116905
0.0148727
0.0181573
0.0215276
0.0249663
0.0284557
0.0319776
0.0355138
0.0390457
0.0425546
0.0460218
0.0494287
0.0527569
0.0559883
0.0591051
0.0620901
0.0649267
0.0675992
0.0700926
0.0723931
0.074488
0.0763661
0.0780173
0.0794336
0.0806085
0.0815375
0.0822182
0.0826505
0.082837
0.0827824
0.0824947
0.0819848
0.0812664
0.0803572
0.0792778
0.0780531
0.0767117
0.0752861
0.0738131
0.0723335
0.070892
0.0695366
0.0683179
0.0672862
0.0664932
0.066007
0.0658715
0.00299051
0.00257895
0.00192722
0.00105479
-1.11317e-06
-0.00119564
-0.00248489
-0.00382654
-0.00518033
-0.00650875
-0.0077776
-0.00895617
-0.0100173
-0.0109374
-0.0116961
-0.0122766
-0.0126646
-0.0128492
-0.0128217
-0.0125761
-0.0121087
-0.0114176
-0.0105032
-0.00936743
-0.00801406
-0.00644831
-0.00467683
-0.00270758
-0.000549746
0.00178637
0.00428944
0.00694717
0.0097464
0.0126732
0.0157128
0.01885
0.0220688
0.0253528
0.0286851
0.0320486
0.0354257
0.0387989
0.0421502
0.045462
0.0487166
0.0518963
0.054984
0.0579628
0.0608164
0.063529
0.0660857
0.0684724
0.070676
0.0726846
0.0744875
0.0760755
0.077441
0.078578
0.0794823
0.0801521
0.0805873
0.0807903
0.0807661
0.0805221
0.0800686
0.0794188
0.0785888
0.0775981
0.0764693
0.0752284
0.0739048
0.0725312
0.0711436
0.0697806
0.0684833
0.0672942
0.0662564
0.0654137
0.0648073
0.0644596
0.00475364
0.00406515
0.00324237
0.00227672
0.00117199
-3.4741e-05
-0.00130622
-0.00260772
-0.00390568
-0.00516823
-0.00636594
-0.00747202
-0.00846254
-0.00931646
-0.0100156
-0.0105445
-0.0108904
-0.011043
-0.0109945
-0.0107391
-0.0102734
-0.00959565
-0.00870603
-0.0076064
-0.00630018
-0.00479222
-0.00308875
-0.00119723
0.000873706
0.00311436
0.00551403
0.00806109
0.0107431
0.0135467
0.0164582
0.0194627
0.0225453
0.0256903
0.0288816
0.0321029
0.0353374
0.0385683
0.0417787
0.0449515
0.0480699
0.0511171
0.0540767
0.0569326
0.0596693
0.0622718
0.0647257
0.0670178
0.0691355
0.0710676
0.072804
0.0743358
0.075656
0.0767588
0.0776406
0.0782993
0.078735
0.0789502
0.0789493
0.0787395
0.0783302
0.0777336
0.0769647
0.0760412
0.0749837
0.0738156
0.0725631
0.0712551
0.0699228
0.0685995
0.0673198
0.0661192
0.0650346
0.0641027
0.0633333
0.0627224
0.00673987
0.00574624
0.00472261
0.00363212
0.00244463
0.00119069
-9.78884e-05
-0.00139308
-0.00266732
-0.00389388
-0.00504773
-0.00610584
-0.00704743
-0.00785404
-0.00850959
-0.00900035
-0.00931488
-0.00944397
-0.0093805
-0.00911936
-0.00865733
-0.00799296
-0.00712648
-0.00605967
-0.00479576
-0.00333938
-0.00169639
0.000126137
0.00212003
0.0042761
0.00658419
0.00903327
0.0116115
0.0143062
0.0171042
0.0199915
0.0229538
0.025976
0.0290429
0.0321387
0.0352475
0.0383533
0.0414396
0.0444904
0.0474894
0.0504205
0.0532681
0.0560167
0.0586514
0.0611578
0.0635224
0.0657322
0.0677753
0.069641
0.0713195
0.0728024
0.0740829
0.0751556
0.0760167
0.0766644
0.0770987
0.0773216
0.0773373
0.0771523
0.0767753
0.0762174
0.0754922
0.0746158
0.0736066
0.0724855
0.0712756
0.0700022
0.0686923
0.0673743
0.0660772
0.0648301
0.063665
0.0626124
0.06165
0.0607465
0.00886992
0.00755767
0.00631411
0.00507561
0.00377929
0.00245043
0.00111646
-0.000200402
-0.00147789
-0.00269391
-0.00382745
-0.00485901
-0.00577079
-0.00654685
-0.00717325
-0.00763797
-0.007931
-0.00804424
-0.00797145
-0.00770817
-0.00725165
-0.00660074
-0.00575583
-0.00471874
-0.00349263
-0.00208196
-0.000492344
0.00126945
0.00319563
0.00527743
0.00750516
0.0098683
0.0123555
0.0149548
0.0176535
0.0204382
0.0232952
0.0262101
0.0291683
0.0321547
0.0351541
0.0381508
0.0411294
0.0440743
0.0469697
0.0498005
0.0525512
0.0552072
0.0577541
0.0601781
0.0624659
0.0646051
0.0665844
0.0683932
0.0700222
0.0714632
0.0727094
0.0737557
0.0745983
0.0752351
0.0756661
0.075893
0.0759193
0.0757509
0.0753955
0.0748633
0.0741664
0.0733191
0.0723379
0.0712412
0.0700493
0.0687841
0.0674689
0.0661276
0.0647842
0.0634626
0.0621905
0.0609938
0.0598187
0.0586082
0.0110767
0.00944194
0.00796734
0.00656465
0.00514006
0.00371478
0.00231287
0.000951557
-0.000351543
-0.00157842
-0.00271171
-0.00373513
-0.00463371
-0.00539393
-0.00600389
-0.00645332
-0.00673363
-0.0068379
-0.00676081
-0.00649865
-0.00604921
-0.00541172
-0.00458683
-0.00357648
-0.00238384
-0.00101329
0.000529705
0.00223862
0.00410597
0.00612331
0.00828137
0.01057
0.0129785
0.0154952
0.018108
0.020804
0.0235701
0.0263925
0.0292571
0.0321494
0.0350546
0.0379579
0.0408442
0.0436985
0.0465057
0.0492508
0.0519194
0.0544969
0.0569695
0.0593238
0.0615469
0.063627
0.0655527
0.0673138
0.0689012
0.0703069
0.0715243
0.0725479
0.0733742
0.0740007
0.0744271
0.0746546
0.0746864
0.0745273
0.0741844
0.0736664
0.0729842
0.0721505
0.0711797
0.070088
0.0688931
0.0676137
0.0662698
0.0648817
0.0634689
0.0620505
0.0606516
0.059294
0.0578943
0.0563718
0.0133044
0.0113489
0.00963784
0.00806012
0.00649308
0.00495497
0.00346731
0.00204312
0.000696012
-0.000559588
-0.00170958
-0.00274063
-0.00364034
-0.00439749
-0.00500213
-0.00544569
-0.005721
-0.00582232
-0.00574532
-0.00548706
-0.00504593
-0.00442163
-0.00361511
-0.0026285
-0.00146509
-0.000129231
0.0013737
0.00303733
0.0048544
0.00681676
0.00891544
0.0111407
0.0134822
0.0159286
0.0184685
0.0210893
0.0237784
0.0265225
0.0293079
0.0321208
0.0349468
0.0377716
0.0405805
0.043359
0.0460925
0.0487665
0.0513668
0.0538794
0.0562908
0.0585879
0.0607581
0.0627898
0.0646719
0.0663943
0.0679481
0.0693252
0.070519
0.071524
0.0723363
0.0729534
0.0733744
0.0736001
0.0736329
0.073477
0.0731385
0.0726249
0.0719457
0.071112
0.0701365
0.0690332
0.0678173
0.066505
0.0651132
0.0636588
0.0621579
0.0606257
0.0590848
0.0575548
0.0559243
0.0540907
0.0155061
0.0132351
0.0112859
0.00952637
0.00780687
0.0061436
0.00455633
0.00305455
0.00164846
0.000349368
-0.000831512
-0.00188347
-0.00279651
-0.00356151
-0.00417039
-0.00461619
-0.00489314
-0.00499668
-0.00492345
-0.00467133
-0.00423935
-0.00362771
-0.00283774
-0.00187183
-0.000733401
0.000573132
0.00204241
0.00366816
0.00544328
0.00735984
0.00940913
0.0115817
0.0138675
0.0162558
0.0187352
0.0212938
0.0239193
0.0265988
0.0293192
0.0320668
0.034828
0.0375886
0.0403346
0.0430517
0.0457257
0.0483425
0.0508882
0.0533491
0.0557119
0.0579639
0.0600927
0.0620866
0.0639349
0.0656276
0.0671555
0.0685106
0.0696863
0.0706768
0.071478
0.0720869
0.0725024
0.0727244
0.0727549
0.0725972
0.0722562
0.0717386
0.0710524
0.0702073
0.0692142
0.0680852
0.0668333
0.0654724
0.0640167
0.0624805
0.0608766
0.0592172
0.0575236
0.0558133
0.0539495
0.0518091
0.0176424
0.0150629
0.0128764
0.0109311
0.00905229
0.0072548
0.0055573
0.00396635
0.00248925
0.00113463
-8.8832e-05
-0.00117278
-0.00210936
-0.00289142
-0.0035126
-0.00396748
-0.00425163
-0.00436165
-0.00429514
-0.00405082
-0.00362837
-0.00302856
-0.00225309
-0.00130467
-0.000186914
0.00109564
0.0025376
0.00413274
0.00587407
0.00775379
0.00976341
0.0118937
0.014135
0.0164767
0.0189078
0.0214168
0.0239917
0.02662
0.0292889
0.0319852
0.0346954
0.037406
0.040103
0.0427726
0.0454009
0.047974
0.0504783
0.0529004
0.0552271
0.0574459
0.0595444
0.0615112
0.0633354
0.065007
0.0665169
0.0678569
0.0690201
0.0700006
0.0707938
0.0713965
0.0718067
0.0720242
0.0720498
0.0718862
0.0715374
0.0710088
0.0703073
0.0694412
0.0684196
0.0672531
0.0659527
0.0645303
0.0629977
0.061367
0.0596485
0.0578519
0.0559975
0.0541022
0.0520048
0.0495635
0.0196798
0.0167995
0.014378
0.0122451
0.0102024
0.00826425
0.00644851
0.00475941
0.00320177
0.00178194
0.000506388
-0.000618614
-0.00158716
-0.00239387
-0.00303401
-0.0035036
-0.00379947
-0.00391933
-0.00386177
-0.00362629
-0.00321329
-0.00262405
-0.00186075
-0.000926425
0.00017506
0.00143903
0.00285999
0.00443174
0.0061473
0.00799899
0.00997848
0.0120768
0.0142842
0.0165907
0.0189854
0.0214571
0.0239941
0.0265842
0.0292149
0.0318733
0.0345462
0.0372203
0.039882
0.0425178
0.0451138
0.0476566
0.0501325
0.0525284
0.0548312
0.0570283
0.0591077
0.0610578
0.0628676
0.064527
0.0660269
0.0673588
0.0685155
0.0694908
0.0702796
0.0708784
0.0712845
0.0714971
0.0715164
0.071344
0.0709831
0.070438
0.0697145
0.0688193
0.0677605
0.0665467
0.0651876
0.063693
0.062073
0.0603378
0.0584956
0.056554
0.0545333
0.0524499
0.0501201
0.0473844
0.0215898
0.0184162
0.0157627
0.0134417
0.0112325
0.00914909
0.00720921
0.00541508
0.00376948
0.00227677
0.000941533
-0.000231826
-0.00123914
-0.00207664
-0.00274108
-0.00322982
-0.00354091
-0.00367313
-0.00362598
-0.00339978
-0.0029956
-0.00241531
-0.00166153
-0.000737671
0.000352136
0.001603
0.00300935
0.00456488
0.00626264
0.00809501
0.0100538
0.01213
0.0143143
0.0165967
0.0189666
0.0214131
0.0239245
0.0264891
0.0290946
0.0317283
0.0343772
0.0370283
0.0396681
0.0422833
0.0448603
0.0473857
0.0498461
0.0522282
0.0545192
0.0567064
0.0587777
0.0607214
0.0625266
0.0641829
0.0656808
0.0670119
0.0681683
0.0691436
0.0699322
0.0705301
0.070934
0.0711423
0.0711545
0.0709716
0.0705955
0.0700297
0.0692788
0.0683483
0.067245
0.0659762
0.0645499
0.0629746
0.0612588
0.059411
0.057438
0.0553457
0.0531548
0.0508816
0.0483213
0.0452975
0.0233472
0.0198874
0.0170054
0.0144967
0.0121195
0.00988781
0.00781952
0.00591523
0.00417598
0.00260446
0.00120358
-2.38694e-05
-0.00107529
-0.00194838
-0.00264125
-0.00315253
-0.00348138
-0.0036276
-0.00359161
-0.00337449
-0.002978
-0.00240457
-0.00165732
-0.000740011
0.000342893
0.00158631
0.00298447
0.00453101
0.00621894
0.00804064
0.00998792
0.012052
0.0142236
0.0164929
0.0188495
0.0212825
0.0237807
0.0263323
0.0289252
0.0315471
0.0341851
0.0368263
0.0394575
0.0420653
0.0446364
0.0471573
0.0496148
0.0519955
0.0542867
0.0564755
0.0585498
0.0604977
0.0623081
0.0639704
0.0654749
0.0668126
0.0679754
0.0689564
0.0697496
0.0703501
0.0707544
0.0709599
0.0709654
0.070771
0.0703778
0.0697883
0.0690061
0.0680355
0.066882
0.0655519
0.0640519
0.0623891
0.0605708
0.0586042
0.0564948
0.0542475
0.0518834
0.0494195
0.0466308
0.0433245
0.02493
0.0211903
0.0180831
0.0153878
0.012842
0.0104601
0.00826038
0.0062422
0.00440505
0.00275024
0.0012792
-6.71161e-06
-0.00110629
-0.00201855
-0.00274288
-0.00327905
-0.00362729
-0.00378836
-0.00376354
-0.00355469
-0.00316422
-0.00259513
-0.00185102
-0.000936063
0.000144973
0.00138673
0.00278329
0.00432814
0.00601422
0.00783389
0.00977898
0.0118408
0.0140101
0.0162771
0.0186315
0.0210628
0.0235597
0.0261106
0.0287037
0.0313265
0.0339666
0.0366109
0.0392464
0.0418599
0.0444379
0.0469672
0.0494344
0.0518261
0.0541294
0.0563315
0.0584199
0.0603827
0.0622084
0.0638862
0.0654059
0.0667582
0.0679345
0.0689274
0.0697304
0.070338
0.0707459
0.0709508
0.0709509
0.0707452
0.0703342
0.0697192
0.0689029
0.0678886
0.0666809
0.0652847
0.0637058
0.0619501
0.060024
0.0579337
0.0556836
0.0532779
0.0507386
0.0480835
0.045068
0.041484
0.0263182
0.0223043
0.0189751
0.0160942
0.0133797
0.0108465
0.00851346
0.00637875
0.00444067
0.00269928
0.00115479
-0.00019275
-0.00134337
-0.00229732
-0.0030551
-0.00361757
-0.00398597
-0.00416196
-0.00414766
-0.00394564
-0.00355897
-0.00299123
-0.0022465
-0.00132935
-0.000244907
0.00100123
0.00240291
0.00395348
0.00564576
0.00747208
0.00942424
0.0114935
0.0136708
0.0159463
0.0183099
0.0207509
0.0232585
0.0258209
0.0284265
0.031063
0.0337178
0.0363782
0.039031
0.0416631
0.044261
0.0468114
0.0493008
0.0517159
0.0540435
0.0562706
0.0583846
0.0603731
0.0622244
0.0639274
0.0654714
0.0668466
0.0680441
0.0690557
0.0698744
0.070494
0.0709096
0.0711171
0.0711138
0.0708981
0.0704694
0.0698283
0.0689764
0.0679162
0.0666512
0.0651854
0.0635237
0.0616711
0.0596331
0.0574152
0.0550211
0.0524544
0.0497382
0.0468915
0.0436506
0.0397923
0.0274937
0.0232102
0.0196617
0.0165966
0.0137137
0.0110286
0.00856097
0.00630799
0.00426691
0.00243672
0.000816517
-0.000594771
-0.00179831
-0.00279545
-0.00358776
-0.00417709
-0.00456561
-0.00475585
-0.00475071
-0.00455349
-0.00416789
-0.00359805
-0.00284851
-0.0019243
-0.000830852
0.000425909
0.00183963
0.00340347
0.00511014
0.00695184
0.00892035
0.0110069
0.0132024
0.0154971
0.017881
0.0203434
0.0228734
0.0254595
0.02809
0.0307527
0.033435
0.0361243
0.0388073
0.0414709
0.0441016
0.0466859
0.0492103
0.0516613
0.0540253
0.0562894
0.0584403
0.0604657
0.0623533
0.0640916
0.0656694
0.0670764
0.0683031
0.0693409
0.0701819
0.0708193
0.0712473
0.0714614
0.0714578
0.0712342
0.0707891
0.0701223
0.0692344
0.0681271
0.066803
0.0652653
0.063518
0.0615655
0.0594126
0.057064
0.0545233
0.0517934
0.0488988
0.0458598
0.0423944
0.0382642
0.0284394
0.02389
0.0201246
0.0168764
0.0138256
0.0109885
0.0083856
0.00601332
0.00386796
0.00194759
0.000250329
-0.00122592
-0.00248335
-0.00352432
-0.00435137
-0.00496728
-0.00537513
-0.00557825
-0.0055803
-0.00538525
-0.00499745
-0.00442157
-0.00366265
-0.00272612
-0.0016178
-0.000343873
0.00108902
0.00267386
0.0044032
0.00626914
0.00826337
0.0103771
0.0126011
0.0149258
0.017341
0.0198363
0.0224005
0.0250224
0.0276901
0.0303915
0.0331141
0.035845
0.0385712
0.0412793
0.0439557
0.0465868
0.0491589
0.0516583
0.0540713
0.0563844
0.0585843
0.060658
0.0625929
0.0643769
0.0659985
0.0674467
0.0687114
0.0697833
0.0706538
0.0713155
0.0717618
0.0719872
0.0719873
0.0717589
0.0712997
0.0706085
0.0696852
0.0685307
0.0671467
0.0655358
0.0637012
0.0616466
0.0593764
0.056895
0.0542053
0.0513104
0.0482361
0.0450041
0.0413141
0.036913
0.0291394
0.0243268
0.0203462
0.016916
0.0136977
0.0107088
0.00797035
0.00547828
0.00322802
0.00121682
-0.00055808
-0.0020997
-0.00341119
-0.00449581
-0.00535704
-0.00599854
-0.0064242
-0.00663815
-0.00664476
-0.00644871
-0.00605491
-0.00546859
-0.00469527
-0.00374082
-0.00261138
-0.00131351
0.000145935
0.0017597
0.00352018
0.00541933
0.00744873
0.00959955
0.0118625
0.0142279
0.0166857
0.0192252
0.0218355
0.0245052
0.0272225
0.0299752
0.0327507
0.0355362
0.0383185
0.041084
0.0438192
0.0465102
0.049143
0.0517036
0.0541781
0.0565527
0.0588136
0.0609474
0.062941
0.0647819
0.0664577
0.0679571
0.0692692
0.0703838
0.0712919
0.0719851
0.0724561
0.0726986
0.0727073
0.0724781
0.072008
0.0712948
0.0703378
0.069137
0.0676933
0.0660087
0.0640859
0.0619279
0.0595388
0.0569227
0.0540824
0.0510207
0.0477651
0.0443388
0.0404235
0.0357512
0.0295779
0.024504
0.0203095
0.016698
0.0133129
0.0101723
0.00729839
0.00468648
0.00233123
0.000229173
-0.00162328
-0.00322998
-0.00459495
-0.00572234
-0.00661647
-0.00728184
-0.00772313
-0.00794522
-0.00795321
-0.00775238
-0.00734827
-0.00674663
-0.00595348
-0.00497509
-0.00381801
-0.00248907
-0.000995439
0.000655419
0.00245568
0.00439717
0.00647134
0.00866926
0.0109816
0.0133986
0.01591
0.0185054
0.0211736
0.0239032
0.0266825
0.0294991
0.0323403
0.0351933
0.0380447
0.0408809
0.043688
0.046452
0.0491586
0.0517936
0.0543426
0.0567914
0.0591258
0.0613319
0.0633962
0.0653053
0.0670465
0.0686076
0.069977
0.071144
0.0720984
0.0728312
0.0733343
0.0736004
0.0736234
0.0733985
0.0729215
0.0721898
0.0712016
0.0699562
0.068454
0.0666962
0.0646849
0.0624229
0.0599139
0.0571617
0.0541691
0.050939
0.0475004
0.0438784
0.0397362
0.0347911
0.0297398
0.0244055
0.0199979
0.0162056
0.012654
0.00936199
0.00635296
0.00362149
0.00116162
-0.00103082
-0.00296014
-0.00463101
-0.00604825
-0.00721685
-0.00814193
-0.0088288
-0.0092829
-0.00950984
-0.00951538
-0.00930548
-0.00888622
-0.00826392
-0.00744505
-0.00643633
-0.00524467
-0.00387726
-0.00234152
-0.000645184
0.00120373
0.00319688
0.00532557
0.00758075
0.00995298
0.0124324
0.0150089
0.0176717
0.0204097
0.0232115
0.0260651
0.0289583
0.0318782
0.0348117
0.0377454
0.0406655
0.0435579
0.0464083
0.0492021
0.0519247
0.0545614
0.0570975
0.0595184
0.0618097
0.0639569
0.0659464
0.0677647
0.0693987
0.0708363
0.0720656
0.073076
0.0738573
0.0744006
0.0746979
0.074742
0.0745272
0.0740486
0.0733026
0.0722867
0.0709995
0.0694406
0.0676108
0.0655117
0.0631456
0.060516
0.0576268
0.0544805
0.0510802
0.0474568
0.0436368
0.0392654
0.0340447
0.0296098
0.0240153
0.0193946
0.0154218
0.0117039
0.00826099
0.00511723
0.00226677
-0.000297005
-0.00257888
-0.00458389
-0.00631744
-0.00778514
-0.00899276
-0.00994623
-0.0106516
-0.0111151
-0.011343
-0.0113417
-0.0111178
-0.0106781
-0.0100293
-0.0091784
-0.00813253
-0.00689903
-0.00548537
-0.00389932
-0.00214884
-0.000242167
0.00181216
0.00400529
0.00632804
0.00877088
0.0113239
0.0139767
0.0167186
0.0195385
0.0224247
0.0253652
0.0283477
0.0313592
0.0343864
0.0374158
0.0404333
0.0434245
0.0463749
0.0492695
0.0520935
0.0548316
0.0574685
0.0599893
0.0623788
0.0646221
0.0667046
0.0686123
0.0703312
0.0718483
0.0731511
0.0742278
0.0750675
0.0756602
0.075997
0.0760699
0.0758721
0.0753979
0.0746429
0.0736037
0.0722782
0.0706655
0.0687657
0.0665799
0.0641103
0.06136
0.058333
0.0550317
0.0514595
0.0476489
0.0436285
0.0390245
0.0335242
0.0291725
0.0233171
0.0184831
0.0143297
0.0104457
0.00685212
0.00357417
0.0006055
-0.00206112
-0.0044311
-0.00651013
-0.00830437
-0.00982016
-0.0110641
-0.0120427
-0.012763
-0.0132318
-0.0134562
-0.0134432
-0.0132
-0.0127339
-0.0120523
-0.0111625
-0.0100723
-0.00878926
-0.00732127
-0.00567637
-0.00386279
-0.00188902
0.000236226
0.00250392
0.00490475
0.00742902
0.0100667
0.0128074
0.0156403
0.0185541
0.0215371
0.0245772
0.0276619
0.0307781
0.0339124
0.037051
0.0401795
0.0432833
0.0463476
0.0493572
0.0522964
0.0551499
0.0579017
0.0605362
0.0630377
0.0653906
0.0675796
0.0695896
0.0714062
0.0730152
0.0744032
0.0755576
0.0764663
0.0771185
0.0775042
0.0776145
0.0774416
0.0769789
0.076221
0.0751639
0.0738047
0.0721417
0.0701746
0.067904
0.0653318
0.0624611
0.0592957
0.0558382
0.0520921
0.048092
0.043868
0.0390275
0.0332422
0.0284123
0.0222946
0.0172464
0.0129121
0.00886199
0.00511799
0.00170647
-0.00137944
-0.00414758
-0.00660396
-0.00875494
-0.0106074
-0.0121684
-0.0134452
-0.0144454
-0.0151764
-0.0156459
-0.0158616
-0.0158314
-0.0155629
-0.0150641
-0.0143428
-0.013407
-0.0122648
-0.0109241
-0.00939331
-0.00768069
-0.00579477
-0.00374426
-0.00153811
0.000814492
0.00330406
0.0059208
0.00865454
0.0114948
0.0144305
0.0174505
0.0205429
0.0236954
0.0268953
0.0301295
0.0333844
0.0366458
0.0398992
0.0431298
0.0463223
0.049461
0.05253
0.0555132
0.0583943
0.061157
0.0637849
0.0662616
0.068571
0.0706973
0.072625
0.074339
0.075825
0.0770693
0.0780588
0.0787816
0.0792266
0.079384
0.0792448
0.0788017
0.0780482
0.0769794
0.0755917
0.0738828
0.0718518
0.0694989
0.0668258
0.0638352
0.0605312
0.0569163
0.0529943
0.0488017
0.0443705
0.0392887
0.033212
0.0273132
0.0209311
0.0156674
0.0111515
0.00693498
0.00304081
-0.000503592
-0.0037056
-0.00657368
-0.00911443
-0.0113349
-0.0132426
-0.0148453
-0.0161513
-0.0171686
-0.0179056
-0.0183706
-0.0185721
-0.0185185
-0.0182182
-0.0176798
-0.0169115
-0.0159219
-0.0147195
-0.0133128
-0.0117103
-0.00992072
-0.00795288
-0.00581574
-0.00351843
-0.00107035
0.00151887
0.00423927
0.00708058
0.0100321
0.0130829
0.0162214
0.0194358
0.0227136
0.026042
0.0294077
0.0327968
0.036195
0.0395876
0.0429593
0.0462944
0.0495769
0.0527905
0.0559184
0.0589438
0.0618497
0.0646189
0.0672343
0.069679
0.0719361
0.0739892
0.0758224
0.07742
0.0787674
0.0798504
0.0806559
0.0811717
0.0813869
0.0812915
0.080877
0.080136
0.0790628
0.0776529
0.0759034
0.0738126
0.0713806
0.0686085
0.0654991
0.0620563
0.0582829
0.0541828
0.0497946
0.0451521
0.0398233
0.0334476
0.0258585
0.0192092
0.0137283
0.00902977
0.00464647
0.00060231
-0.00307425
-0.00639109
-0.00935728
-0.01198
-0.014267
-0.0162266
-0.0178673
-0.0191979
-0.0202275
-0.0209651
-0.0214198
-0.0216008
-0.0215172
-0.0211781
-0.0205925
-0.0197694
-0.0187178
-0.0174466
-0.0159649
-0.0142814
-0.0124053
-0.0103456
-0.0081116
-0.00571261
-0.00315822
-0.000458244
0.00237723
0.00533779
0.00841268
0.0115907
0.0148604
0.0182096
0.0216258
0.025096
0.0286068
0.0321441
0.0356933
0.0392394
0.0427668
0.0462594
0.0497009
0.0530742
0.0563623
0.0595475
0.0626121
0.0655383
0.068308
0.0709035
0.0733069
0.0755008
0.077468
0.079192
0.0806567
0.0818469
0.0827484
0.0833476
0.0836325
0.0835919
0.0832162
0.082497
0.0814277
0.0800028
0.0782187
0.0760732
0.0735657
0.0706972
0.0674703
0.063889
0.0599559
0.0556755
0.0510881
0.0462298
0.0406477
0.0339642
0.024031
0.0171111
0.0114106
0.0065283
0.00197765
-0.00221641
-0.00602436
-0.00945459
-0.0125168
-0.0152189
-0.0175692
-0.0195767
-0.0212509
-0.0226013
-0.0236377
-0.02437
-0.024808
-0.0249616
-0.0248407
-0.024455
-0.0238142
-0.0229279
-0.0218055
-0.0204565
-0.0188903
-0.0171162
-0.0151435
-0.0129817
-0.0106403
-0.00812879
-0.005457
-0.0026349
0.000327273
0.00341898
0.00662935
0.0099471
0.0133606
0.0168576
0.0204255
0.0240511
0.0277209
0.0314204
0.035135
0.0388493
0.0425473
0.0462127
0.0498286
0.0533774
0.0568415
0.0602026
0.0634422
0.0665417
0.0694821
0.0722448
0.0748108
0.0771615
0.0792789
0.0811449
0.0827424
0.0840548
0.0850666
0.085763
0.0861306
0.086157
0.0858315
0.0851446
0.0840883
0.0826567
0.080845
0.0786505
0.0760721
0.0731103
0.0697677
0.0660481
0.0619545
0.0574913
0.0527011
0.0476218
0.0417792
0.0347782
0.0218125
0.0146179
0.00869539
0.00362769
-0.00109105
-0.00543497
-0.00937349
-0.0129155
-0.0160715
-0.0188499
-0.0212598
-0.023311
-0.0250137
-0.0263783
-0.0274154
-0.0281358
-0.02855
-0.0286688
-0.0285027
-0.0280621
-0.0273575
-0.0263989
-0.0251964
-0.0237599
-0.0220994
-0.0202244
-0.0181448
-0.0158702
-0.0134104
-0.0107753
-0.00797472
-0.00501888
-0.00191815
0.00131681
0.004675
0.00814507
0.0117152
0.0153732
0.0191062
0.022901
0.0267437
0.0306199
0.0345145
0.0384119
0.0422959
0.0461497
0.0499558
0.0536963
0.0573528
0.0609064
0.0643379
0.0676277
0.070756
0.073703
0.0764489
0.0789738
0.0812582
0.0832831
0.0850299
0.0864806
0.0876184
0.088427
0.0888916
0.0889987
0.0887359
0.0880927
0.0870601
0.0856309
0.0837996
0.0815628
0.0789186
0.0758674
0.0724112
0.0685542
0.064299
0.0596505
0.0546534
0.0493477
0.0432367
0.0359074
0.0191842
0.0117104
0.00556258
0.000307714
-0.00458002
-0.00907382
-0.013142
-0.0167941
-0.0200413
-0.0228926
-0.0253579
-0.0274479
-0.0291736
-0.0305463
-0.0315775
-0.0322787
-0.0326614
-0.0327372
-0.0325172
-0.0320128
-0.031235
-0.0301944
-0.0289019
-0.0273678
-0.0256025
-0.0236161
-0.0214186
-0.0190202
-0.0164308
-0.0136605
-0.0107195
-0.00761802
-0.00436664
-0.000976124
0.00254245
0.00617761
0.00991748
0.0137497
0.0176614
0.0216392
0.0256691
0.0297365
0.033826
0.0379218
0.0420073
0.0460654
0.050078
0.0540268
0.0578927
0.0616561
0.065297
0.0687949
0.0721291
0.0752787
0.0782225
0.0809398
0.0834095
0.0856113
0.0875251
0.0891316
0.0904122
0.0913493
0.0919267
0.0921292
0.0919431
0.0913565
0.0903593
0.0889429
0.0871011
0.0848295
0.0821256
0.0789892
0.0754223
0.0714287
0.0670113
0.062175
0.0569667
0.0514286
0.0450407
0.0373712
0.0161262
0.00836779
0.00199127
-0.00345283
-0.00851063
-0.0131544
-0.0173513
-0.0211115
-0.0244469
-0.0273674
-0.0298836
-0.0320071
-0.0337497
-0.0351237
-0.0361415
-0.0368155
-0.0371583
-0.037182
-0.0368989
-0.0363209
-0.0354598
-0.0343271
-0.0329339
-0.0312914
-0.0294103
-0.0273012
-0.0249746
-0.0224408
-0.0197101
-0.0167928
-0.0136993
-0.0104401
-0.00702575
-0.00346714
0.000224531
0.00403775
0.00796055
0.0119805
0.0160847
0.0202596
0.0244911
0.0287643
0.0330638
0.0373735
0.0416764
0.045955
0.0501908
0.054365
0.0584578
0.0624488
0.0663173
0.0700419
0.0736008
0.0769719
0.0801331
0.0830619
0.0857363
0.0881342
0.0902341
0.092015
0.0934569
0.0945404
0.0952476
0.0955617
0.0954677
0.094952
0.0940031
0.0926113
0.0907692
0.0884713
0.0857146
0.0824983
0.0788239
0.0746952
0.070115
0.0650883
0.0596644
0.0538874
0.0472133
0.0391908
0.0126175
0.00456867
-0.00204054
-0.00767622
-0.0129053
-0.017699
-0.0220236
-0.0258899
-0.0293104
-0.0322958
-0.0348578
-0.0370087
-0.0387614
-0.0401292
-0.0411254
-0.0417636
-0.042057
-0.042019
-0.0416626
-0.0410005
-0.0400454
-0.0388094
-0.0373043
-0.0355419
-0.0335334
-0.0312899
-0.0288222
-0.026141
-0.023257
-0.0201805
-0.0169223
-0.0134928
-0.00990288
-0.00616345
-0.00228573
0.00171866
0.00583775
0.0100591
0.0143696
0.0187558
0.0232034
0.0276974
0.0322222
0.0367615
0.041298
0.0458137
0.0502898
0.0547069
0.0590445
0.0632817
0.0673967
0.0713673
0.0751705
0.0787832
0.0821819
0.0853429
0.0882424
0.0908569
0.0931633
0.0951389
0.0967618
0.098011
0.0988667
0.0993104
0.0993252
0.0988962
0.0980101
0.0966559
0.0948248
0.0925105
0.089709
0.0864187
0.0826408
0.0783788
0.0736354
0.0684158
0.0627717
0.0567491
0.0497789
0.0413894
0.00863608
0.000290237
-0.00655606
-0.0123859
-0.0177877
-0.0227315
-0.0271826
-0.0311524
-0.0346545
-0.0377002
-0.0403022
-0.0424739
-0.0442292
-0.0455825
-0.0465481
-0.0471407
-0.0473747
-0.0472643
-0.0468235
-0.046066
-0.0450052
-0.043654
-0.0420251
-0.0401306
-0.0379824
-0.0355921
-0.0329709
-0.0301298
-0.0270799
-0.0238317
-0.020396
-0.0167835
-0.0130052
-0.00907193
-0.00499509
-0.000786217
0.00354265
0.00797906
0.01251
0.0171217
0.0218001
0.02653
0.0312956
0.0360804
0.0408669
0.0456366
0.0503705
0.0550485
0.0596495
0.0641519
0.068533
0.0727696
0.0768377
0.080713
0.0843705
0.0877852
0.0909317
0.0937848
0.0963196
0.0985115
0.100337
0.101773
0.102797
0.10339
0.103532
0.103207
0.1024
0.101098
0.0992907
0.096971
0.0941336
0.0907762
0.0868995
0.0825067
0.0776001
0.0721853
0.066316
0.0600407
0.0527637
0.0439923
0.00415855
-0.00449155
-0.0115798
-0.0176068
-0.0231827
-0.0282767
-0.032853
-0.0369237
-0.0405033
-0.0436042
-0.0462398
-0.0484249
-0.0501744
-0.0515039
-0.0524291
-0.0529655
-0.0531288
-0.0529343
-0.0523971
-0.0515319
-0.0503528
-0.0488737
-0.047108
-0.0450684
-0.0427676
-0.0402174
-0.0374297
-0.0344158
-0.0311868
-0.0277538
-0.0241277
-0.0203192
-0.0163393
-0.0121991
-0.00790983
-0.00348307
0.0010692
0.00573452
0.0104999
0.0153517
0.0202756
0.0252566
0.0302786
0.0353251
0.0403781
0.0454191
0.0504285
0.0553858
0.0602692
0.0650564
0.0697238
0.0742474
0.0786019
0.0827617
0.0867005
0.0903917
0.0938082
0.0969232
0.0997098
0.102141
0.104192
0.105837
0.107053
0.107816
0.108106
0.107904
0.107194
0.10596
0.104191
0.101878
0.0990153
0.0955989
0.0916289
0.0871082
0.0820389
0.0764265
0.0703271
0.0637917
0.0561966
0.0470272
-0.000839799
-0.00980218
-0.0171379
-0.0233651
-0.0291168
-0.0343612
-0.0390611
-0.0432297
-0.0468822
-0.0500324
-0.0526946
-0.0548848
-0.0566192
-0.0579147
-0.0587883
-0.0592568
-0.0593372
-0.0590459
-0.0583992
-0.0574128
-0.0561019
-0.0544812
-0.0525648
-0.0503664
-0.047899
-0.0451753
-0.0422073
-0.0390069
-0.0355855
-0.0319542
-0.0281242
-0.0241063
-0.0199115
-0.0155509
-0.0110358
-0.00637752
-0.00158815
0.00332002
0.00833404
0.0134404
0.0186247
0.0238719
0.0291661
0.0344904
0.0398269
0.0451566
0.0504596
0.0557149
0.0609002
0.0659924
0.0709671
0.0757992
0.0804624
0.0849297
0.0891734
0.0931652
0.0968763
0.100278
0.103341
0.106038
0.108339
0.110218
0.111648
0.112605
0.113065
0.113008
0.112414
0.111266
0.109552
0.10726
0.104383
0.100917
0.09686
0.0922152
0.0869841
0.081172
0.0748377
0.0680342
0.0601092
0.0505247
-0.00638518
-0.0156687
-0.0232578
-0.0296889
-0.0356182
-0.0410129