/*--------------------------------*- C++ -*----------------------------------*\
  =========                 |
  \\      /  F ield         | OpenFOAM: The Open Source CFD Toolbox
   \\    /   O peration     | Website:  https://openfoam.org
    \\  /    A nd           | Version:  7
     \\/     M anipulation  |
\*---------------------------------------------------------------------------*/
FoamFile
{
    version     2.0;
    format      ascii;
    class       volScalarField;
    location    "7.5";
    object      T;
}
// * * * * * * * * * * * * * * * * * * * * * * * * * * * * * * * * * * * * * //

dimensions      [0 0 0 1 0 0 0];

internalField   nonuniform List<scalar> 
2413
(
1.47369
1.48482
1.49618
1.50747
1.51905
1.53264
1.54803
1.56437
1.58167
1.59708
1.60855
1.61647
1.62118
1.62337
1.62315
1.62255
1.6208
1.61804
1.61489
1.6115
1.60794
1.60463
1.60182
1.59963
1.59846
1.59855
1.59945
1.60098
1.60261
1.60378
1.60423
1.60368
1.60248
1.60065
1.59877
1.59722
1.5963
1.59585
1.59585
1.59574
1.59563
1.59563
1.59605
1.5975
1.60026
1.60393
1.60827
1.61319
1.61864
1.6248
1.63181
1.6396
1.64818
1.65719
1.66675
1.67734
1.68957
1.70411
1.72088
1.74023
1.76102
1.78235
1.80261
1.82081
1.83589
1.84787
1.85779
1.86608
1.87436
1.88424
1.89674
1.91484
1.93941
1.96962
1.99958
2.02154
2.03548
2.0379
2.03118
2.02194
2.01474
2.01303
2.0155
2.01935
2.02246
2.02463
2.02812
2.03258
1.42237
1.43721
1.45214
1.46694
1.48176
1.49701
1.51229
1.52851
1.54676
1.56508
1.58318
1.60017
1.61268
1.62055
1.62542
1.62826
1.62771
1.62705
1.62564
1.62353
1.62076
1.61781
1.6149
1.6122
1.60996
1.60845
1.60762
1.60776
1.60849
1.60993
1.61155
1.61293
1.61368
1.6137
1.61313
1.61207
1.61093
1.6099
1.60931
1.60898
1.6089
1.60868
1.60835
1.60803
1.60813
1.60909
1.6111
1.61401
1.61765
1.62164
1.62613
1.63122
1.63684
1.64306
1.6498
1.65715
1.66524
1.6743
1.68462
1.69642
1.70981
1.72481
1.74084
1.75728
1.77336
1.78877
1.80252
1.81385
1.82408
1.83361
1.84356
1.85503
1.87002
1.89304
1.92252
1.95645
1.98878
2.01278
2.02664
2.0301
2.02343
2.01529
2.01176
2.0135
2.01755
2.02105
2.02466
2.02729
1.34861
1.36608
1.38422
1.40268
1.42119
1.43974
1.45869
1.47816
1.49767
1.51699
1.53866
1.56007
1.57925
1.59676
1.61105
1.6209
1.62712
1.63077
1.63079
1.62984
1.62859
1.62676
1.6245
1.62211
1.61955
1.61718
1.61526
1.61404
1.61367
1.61416
1.61509
1.61644
1.61796
1.61942
1.6204
1.62084
1.62092
1.62077
1.62054
1.62047
1.62063
1.62091
1.62114
1.6211
1.62094
1.62081
1.62096
1.62158
1.62278
1.62475
1.62745
1.63082
1.63453
1.63865
1.64317
1.64813
1.65366
1.65971
1.66667
1.67457
1.6835
1.69356
1.70495
1.71733
1.73036
1.74367
1.75687
1.76927
1.78089
1.79129
1.80125
1.81099
1.82094
1.83264
1.84973
1.87538
1.90936
1.9474
1.98301
2.00652
2.01923
2.018
2.01252
2.00877
2.01014
2.0122
2.01298
2.01157
1.2668
1.2822
1.29975
1.31905
1.33946
1.36027
1.38149
1.40344
1.42618
1.44995
1.47431
1.49823
1.52127
1.54629
1.56886
1.58775
1.60419
1.61651
1.62395
1.62814
1.63117
1.63111
1.62983
1.62808
1.62611
1.62395
1.62182
1.61981
1.61804
1.61671
1.61593
1.61605
1.61695
1.61853
1.62026
1.62192
1.62351
1.62484
1.62577
1.62645
1.6271
1.62784
1.62867
1.62951
1.63034
1.63106
1.6317
1.63236
1.63291
1.63381
1.6349
1.63621
1.63808
1.64042
1.64328
1.64642
1.64996
1.65386
1.65827
1.66338
1.66933
1.6761
1.6837
1.6926
1.70255
1.71353
1.7251
1.73703
1.74883
1.75981
1.77037
1.78044
1.79003
1.79913
1.80827
1.81815
1.83436
1.86322
1.90243
1.94434
1.97564
1.99503
1.99638
1.99173
1.98819
1.98771
1.98631
1.98226
1.19656
1.20712
1.2196
1.23427
1.25128
1.27033
1.29097
1.31285
1.33572
1.35982
1.38511
1.41211
1.44031
1.46859
1.49618
1.52227
1.54911
1.57217
1.5902
1.60489
1.61594
1.6225
1.62562
1.62816
1.62842
1.62756
1.62582
1.62359
1.62125
1.61928
1.61763
1.61629
1.61554
1.61557
1.61634
1.61778
1.61964
1.62163
1.62348
1.62509
1.62652
1.62786
1.62927
1.63078
1.63238
1.63397
1.63558
1.63716
1.6387
1.64017
1.64158
1.64289
1.64424
1.64564
1.64731
1.64909
1.65129
1.65377
1.65644
1.65936
1.6629
1.66681
1.67152
1.67712
1.68355
1.69142
1.70039
1.71067
1.72186
1.73347
1.74494
1.75674
1.76834
1.77942
1.78951
1.79952
1.80178
1.80719
1.82331
1.85816
1.90545
1.94095
1.96094
1.962
1.9583
1.95548
1.9533
1.94881
1.14489
1.15083
1.15819
1.16741
1.17879
1.19229
1.20766
1.22472
1.24355
1.26432
1.28713
1.31181
1.33857
1.36637
1.39624
1.42782
1.45998
1.49042
1.5188
1.54568
1.56815
1.58572
1.59936
1.61055
1.61703
1.62024
1.62188
1.62205
1.62145
1.62024
1.6186
1.61672
1.61484
1.61333
1.6125
1.61222
1.61265
1.61364
1.61528
1.61739
1.61964
1.62184
1.6239
1.62595
1.62801
1.63005
1.63219
1.63441
1.63668
1.63899
1.64128
1.64347
1.64565
1.64782
1.64995
1.65185
1.65387
1.65553
1.65733
1.65928
1.66139
1.66357
1.66628
1.66932
1.67301
1.67746
1.6827
1.68924
1.69701
1.70639
1.71725
1.72949
1.74342
1.75732
1.77339
1.78697
1.79743
1.79537
1.79339
1.79772
1.82501
1.87249
1.90956
1.92724
1.92823
1.92508
1.92263
1.91885
1.1093
1.11287
1.11703
1.12201
1.12815
1.13571
1.14495
1.15607
1.16918
1.18418
1.20108
1.21966
1.24031
1.2631
1.28831
1.3164
1.34657
1.37916
1.41336
1.4479
1.47981
1.50849
1.53515
1.55812
1.57504
1.58784
1.59795
1.60547
1.6098
1.6119
1.61214
1.61189
1.61123
1.60994
1.60833
1.60675
1.60552
1.60472
1.60474
1.60531
1.60634
1.60786
1.60981
1.61219
1.61483
1.61752
1.62033
1.62329
1.62638
1.62962
1.63294
1.63625
1.63937
1.64245
1.64539
1.64813
1.65076
1.65307
1.65539
1.65742
1.65927
1.66125
1.66315
1.66543
1.66729
1.66959
1.67219
1.67538
1.67925
1.68448
1.69136
1.70049
1.71218
1.72726
1.74503
1.7677
1.7856
1.7948
1.78928
1.78176
1.78286
1.80507
1.85076
1.88656
1.89901
1.89806
1.89523
1.89215
1.0859
1.08842
1.09099
1.09388
1.0972
1.10104
1.10567
1.11137
1.11838
1.1269
1.13708
1.1491
1.16308
1.17919
1.19715
1.21737
1.24003
1.26554
1.29428
1.32566
1.35952
1.3946
1.4304
1.46377
1.49233
1.51787
1.54028
1.55868
1.57198
1.58187
1.58889
1.59361
1.59677
1.59772
1.59754
1.59686
1.59606
1.59508
1.59412
1.59321
1.59253
1.59229
1.5925
1.59319
1.59448
1.59615
1.59807
1.60031
1.603
1.60613
1.60957
1.61337
1.61731
1.62142
1.62553
1.62963
1.63348
1.63713
1.64051
1.64356
1.64612
1.64872
1.65095
1.65346
1.65524
1.65729
1.65902
1.66095
1.66318
1.666
1.66953
1.67442
1.68126
1.69121
1.70698
1.72824
1.75781
1.78024
1.78687
1.77716
1.76735
1.76907
1.79325
1.83616
1.86438
1.87361
1.86959
1.8662
1.07234
1.07383
1.0754
1.07718
1.07902
1.08093
1.08306
1.08567
1.08892
1.0929
1.09786
1.10405
1.11158
1.1206
1.13118
1.14347
1.15785
1.17446
1.1939
1.21629
1.24197
1.2709
1.30256
1.33623
1.37072
1.40553
1.43892
1.46854
1.49436
1.51629
1.53437
1.54868
1.55933
1.56669
1.57144
1.57434
1.57648
1.57708
1.57691
1.57618
1.57509
1.57387
1.57259
1.57154
1.57078
1.57057
1.5705
1.57074
1.57147
1.57271
1.57444
1.57657
1.57932
1.58252
1.58608
1.59004
1.59406
1.59824
1.60229
1.60636
1.61015
1.61392
1.61749
1.62096
1.62413
1.62702
1.62965
1.63203
1.63432
1.63689
1.63953
1.64272
1.64695
1.65253
1.66133
1.67653
1.70177
1.73746
1.76114
1.76772
1.75705
1.7469
1.75111
1.77828
1.81566
1.83562
1.84264
1.83937
1.06589
1.06683
1.06793
1.06879
1.06947
1.07022
1.07115
1.07218
1.07333
1.07491
1.07698
1.07947
1.08259
1.08653
1.09148
1.09756
1.10502
1.11393
1.12456
1.13726
1.15228
1.17031
1.19154
1.21625
1.24423
1.27494
1.30771
1.34097
1.37412
1.40627
1.43563
1.4611
1.48249
1.50026
1.5144
1.52503
1.53294
1.53852
1.54221
1.5438
1.54405
1.5439
1.5431
1.54179
1.54028
1.53874
1.53716
1.53543
1.53389
1.53258
1.53151
1.5308
1.53041
1.53066
1.53132
1.53261
1.53444
1.53688
1.53973
1.54308
1.54669
1.55059
1.55474
1.55885
1.56306
1.56707
1.57106
1.57489
1.57855
1.58223
1.58562
1.58896
1.59273
1.5967
1.60188
1.61095
1.6264
1.65502
1.69436
1.72057
1.73057
1.71995
1.71321
1.72005
1.74575
1.77716
1.7961
1.80414
1.06347
1.06434
1.06519
1.06523
1.06529
1.06561
1.06574
1.06569
1.06586
1.06634
1.06686
1.06751
1.06839
1.06957
1.07119
1.0733
1.07604
1.07964
1.08431
1.09026
1.09757
1.10656
1.11753
1.13085
1.14674
1.16558
1.1879
1.21341
1.2417
1.27216
1.30339
1.33454
1.36415
1.3914
1.41608
1.43718
1.45394
1.46746
1.4783
1.48611
1.49121
1.49463
1.49629
1.49634
1.49566
1.49393
1.49141
1.48838
1.48495
1.48143
1.47797
1.47444
1.47093
1.46759
1.46461
1.46206
1.46003
1.45869
1.45796
1.45809
1.45869
1.45999
1.46208
1.46466
1.46805
1.47182
1.47616
1.48093
1.48609
1.49122
1.49669
1.5018
1.50734
1.5125
1.5174
1.52353
1.5323
1.54912
1.5796
1.61808
1.65201
1.66819
1.6626
1.66041
1.66606
1.68846
1.71678
1.73797
1.06314
1.06393
1.06439
1.06428
1.06449
1.06461
1.0641
1.06365
1.06355
1.06321
1.06286
1.06269
1.0625
1.06228
1.06226
1.06236
1.06277
1.06351
1.06467
1.06645
1.06894
1.07223
1.07649
1.08199
1.08897
1.09768
1.10864
1.12229
1.13883
1.15816
1.18015
1.20481
1.2312
1.25823
1.28524
1.31151
1.33558
1.35706
1.37602
1.3924
1.40509
1.41471
1.42162
1.42672
1.42963
1.42957
1.42861
1.4264
1.42309
1.419
1.41444
1.40936
1.40378
1.39792
1.39186
1.38574
1.37993
1.37462
1.36978
1.36549
1.36165
1.35843
1.35621
1.35447
1.35461
1.35535
1.35719
1.36003
1.36404
1.36864
1.3741
1.37988
1.38634
1.39291
1.39903
1.40566
1.4123
1.42067
1.43683
1.4644
1.50316
1.54301
1.56473
1.58132
1.57975
1.58334
1.60113
1.62452
1.06401
1.06439
1.06432
1.06427
1.06477
1.0647
1.06399
1.06382
1.06345
1.06264
1.06211
1.06152
1.06073
1.0599
1.0591
1.05835
1.05756
1.05672
1.05636
1.05637
1.05655
1.05704
1.0579
1.05921
1.06107
1.0636
1.0671
1.07199
1.07859
1.08714
1.09776
1.11065
1.12604
1.14391
1.16355
1.1845
1.20622
1.22788
1.24886
1.26888
1.28668
1.30186
1.31505
1.32624
1.33465
1.33996
1.34386
1.34494
1.34431
1.34244
1.33946
1.33538
1.33043
1.32465
1.31795
1.31074
1.30366
1.29638
1.28905
1.28203
1.27517
1.2686
1.26274
1.25765
1.25359
1.25037
1.24828
1.24723
1.24762
1.24871
1.2508
1.25383
1.25782
1.26257
1.26753
1.27321
1.27907
1.28474
1.29149
1.30324
1.32354
1.35642
1.39453
1.43061
1.45563
1.46874
1.48171
1.49651
1.06625
1.06611
1.0656
1.06555
1.06581
1.06519
1.06464
1.06468
1.06407
1.06312
1.06255
1.06176
1.06073
1.05979
1.05883
1.05767
1.05637
1.05513
1.05396
1.05288
1.05193
1.05106
1.05025
1.04982
1.04977
1.04985
1.05015
1.05083
1.05206
1.05402
1.05687
1.06081
1.06642
1.07384
1.08293
1.09334
1.10553
1.1191
1.13401
1.14925
1.1646
1.17921
1.19365
1.207
1.21826
1.22734
1.23536
1.24137
1.24496
1.24686
1.24704
1.24639
1.2445
1.24152
1.23739
1.23255
1.22725
1.22135
1.2151
1.20897
1.20288
1.19683
1.19115
1.18595
1.18125
1.17691
1.17313
1.16993
1.16764
1.1659
1.16486
1.16499
1.16573
1.16726
1.16937
1.17231
1.176
1.17994
1.184
1.18831
1.19455
1.20625
1.22628
1.25302
1.28553
1.31486
1.33855
1.36247
1.06994
1.06915
1.06821
1.068
1.06775
1.06679
1.06645
1.06633
1.06542
1.06461
1.064
1.06293
1.06164
1.0606
1.0595
1.05827
1.05696
1.05561
1.05423
1.05283
1.05134
1.04989
1.04845
1.04706
1.04584
1.04475
1.04365
1.04258
1.04185
1.04152
1.04137
1.04138
1.04191
1.04326
1.04522
1.04757
1.05122
1.05627
1.06253
1.06913
1.07678
1.08525
1.09456
1.10327
1.1117
1.11979
1.12735
1.13359
1.1392
1.14306
1.1454
1.14743
1.14798
1.14749
1.14648
1.14459
1.1419
1.13844
1.13468
1.13076
1.12675
1.12273
1.1187
1.11458
1.11063
1.10682
1.10324
1.0998
1.09685
1.09437
1.0925
1.09104
1.09025
1.0904
1.09087
1.09189
1.09363
1.09581
1.09844
1.10108
1.10364
1.10746
1.11401
1.12469
1.14173
1.16375
1.18694
1.21126
1.07369
1.07273
1.07185
1.0713
1.07048
1.06934
1.06884
1.06815
1.06704
1.06635
1.06554
1.06447
1.06352
1.06244
1.06117
1.0599
1.05855
1.05712
1.05562
1.05403
1.05236
1.0507
1.04901
1.04733
1.04566
1.04397
1.04231
1.04056
1.03897
1.03757
1.03619
1.03466
1.03348
1.03272
1.03198
1.03094
1.03086
1.03131
1.03218
1.03277
1.03405
1.03648
1.03945
1.04166
1.04472
1.04846
1.05189
1.05447
1.05804
1.06083
1.06204
1.06351
1.06527
1.06529
1.06511
1.06478
1.06414
1.06214
1.05993
1.058
1.05576
1.05329
1.05095
1.04845
1.04575
1.04334
1.04118
1.03899
1.03693
1.03522
1.0339
1.03281
1.03187
1.03186
1.03202
1.0325
1.03344
1.03479
1.03654
1.03849
1.04049
1.0426
1.04485
1.04779
1.05342
1.06325
1.07778
1.09581
1.07658
1.07591
1.07519
1.07442
1.07339
1.07241
1.07163
1.07056
1.06967
1.06883
1.06761
1.06652
1.06566
1.06448
1.0632
1.06212
1.06088
1.05942
1.05788
1.05626
1.05455
1.05274
1.05087
1.04895
1.04699
1.04503
1.04311
1.04115
1.03925
1.03741
1.03561
1.03358
1.03171
1.03014
1.02851
1.02646
1.02476
1.0236
1.02243
1.02059
1.01925
1.0188
1.01834
1.01694
1.01686
1.01711
1.01702
1.01635
1.01689
1.01719
1.0164
1.01611
1.01642
1.01603
1.01453
1.01399
1.01327
1.01136
1.00924
1.00814
1.00649
1.00402
1.00225
1.00083
0.998653
0.996732
0.99535
0.993969
0.992226
0.99097
0.990214
0.989379
0.988392
0.988414
0.988607
0.988877
0.989351
0.990286
0.991618
0.993191
0.994839
0.996468
0.997943
0.998914
1.00016
1.0026
1.00734
1.01537
1.07773
1.0776
1.07736
1.07679
1.07597
1.07513
1.07414
1.07312
1.07222
1.07113
1.06993
1.06904
1.06809
1.06678
1.06546
1.06444
1.06324
1.06178
1.06033
1.05886
1.05719
1.05536
1.05352
1.05163
1.04963
1.04753
1.04543
1.04326
1.04106
1.03889
1.0368
1.03456
1.03246
1.03052
1.02861
1.02635
1.02429
1.0225
1.02062
1.01813
1.01607
1.01451
1.0127
1.01023
1.0087
1.00747
1.00567
1.00357
1.00249
1.0014
0.999303
0.997768
0.996919
0.995605
0.993372
0.992325
0.991259
0.989235
0.987181
0.985921
0.984413
0.981981
0.979972
0.978228
0.976284
0.973658
0.971636
0.96984
0.967757
0.965422
0.963911
0.962514
0.960936
0.959553
0.958872
0.958352
0.957443
0.957427
0.957732
0.958065
0.958523
0.959294
0.959948
0.960194
0.960186
0.960064
0.959495
0.959677
1.07786
1.07809
1.07828
1.07797
1.07757
1.07704
1.07627
1.0755
1.07453
1.07336
1.0723
1.07137
1.0703
1.06905
1.06791
1.06687
1.06561
1.06414
1.06276
1.06135
1.05973
1.05796
1.05626
2.42259
2.42128
2.41503
2.40331
2.38186
2.35372
2.31788
2.27646
2.23144
2.18567
2.14093
2.09944
2.0625
2.03319
1.49119
1.49368
1.49428
1.49296
1.49005
1.48595
1.48134
1.477
1.47342
1.47065
1.46837
1.46638
1.46472
1.46366
1.4639
1.46518
1.46688
1.46767
1.46697
1.46546
1.46402
1.46357
1.46457
1.46771
1.47296
1.47963
1.48683
1.49398
1.50101
1.50831
1.51596
1.52328
1.52937
1.53377
1.53607
1.53606
1.53471
1.53328
1.53352
1.53705
1.54436
1.55402
1.56406
1.5726
1.58017
1.5881
1.5977
1.6125
1.63728
1.67362
1.71555
1.75758
1.79803
1.8359
1.87406
1.91412
1.95477
1.99449
2.03285
2.07143
2.11196
2.15742
2.2017
2.24149
2.27555
2.30348
2.32511
2.34142
2.35491
2.36764
2.3796
2.39027
2.39883
2.40453
2.40763
2.40541
2.39835
2.38701
2.3666
2.34021
2.30748
2.26988
2.22872
2.18601
2.14366
2.10461
2.0699
2.04236
1.50774
1.51072
1.51243
1.51218
1.51048
1.50725
1.50309
1.49857
1.49433
1.49075
1.48787
1.48545
1.48352
1.48212
1.48146
1.48209
1.48365
1.48531
1.48581
1.48476
1.48274
1.4808
1.47979
1.48047
1.48303
1.48761
1.4936
1.50015
1.50664
1.51288
1.51919
1.52588
1.53255
1.5385
1.54322
1.54637
1.54743
1.54706
1.54646
1.54692
1.55005
1.55754
1.56913
1.58333
1.5981
1.61259
1.62774
1.64549
1.66953
1.70367
1.74566
1.78874
1.82921
1.86654
1.90151
1.93556
1.96936
2.00283
2.03558
2.06882
2.10433
2.14421
2.18627
2.22611
2.26092
2.28956
2.31195
2.32843
2.34075
2.35146
2.36131
2.37016
2.37721
2.38192
2.38423
2.38156
2.37431
2.36354
2.34502
2.32089
2.29151
2.25783
2.22099
2.18246
2.14328
2.10675
2.0748
2.04982
1.52314
1.52721
1.53014
1.53131
1.5306
1.52843
1.52502
1.52068
1.51605
1.51169
1.50794
1.50482
1.50223
1.50022
1.49898
1.4986
1.49952
1.50134
1.50317
1.50373
1.50268
1.50052
1.49811
1.49644
1.49659
1.49822
1.5018
1.50684
1.51258
1.51836
1.52385
1.52924
1.53493
1.54088
1.54672
1.55195
1.55627
1.55893
1.56032
1.56113
1.56254
1.56624
1.57399
1.58649
1.60323
1.62293
1.64357
1.66526
1.69038
1.72211
1.76134
1.80369
1.84388
1.8807
1.91355
1.94359
1.97236
2.00111
2.03025
2.05914
2.08906
2.12197
2.16011
2.19894
2.23515
2.26579
2.28975
2.30738
2.31947
2.32842
2.33583
2.34233
2.34749
2.35099
2.35226
2.34929
2.34199
2.33209
2.31611
2.29485
2.2692
2.23975
2.20744
2.17358
2.13895
2.10578
2.07678
2.05496
1.53149
1.53903
1.54486
1.54826
1.54968
1.5489
1.54669
1.54317
1.53877
1.534
1.5294
1.52526
1.52171
1.51879
1.51657
1.51527
1.51502
1.51604
1.51805
1.52007
1.5209
1.52004
1.51801
1.51545
1.51342
1.51253
1.5133
1.51569
1.51961
1.52445
1.52947
1.53425
1.53871
1.54339
1.54857
1.55421
1.55995
1.56543
1.56985
1.5731
1.576
1.57911
1.58384
1.59179
1.60437
1.62149
1.64249
1.66567
1.69106
1.72079
1.75745
1.7994
1.84159
1.88009
1.91378
1.94275
1.96874
1.99337
2.01777
2.04216
2.06677
2.09294
2.1235
2.15858
2.19435
2.2283
2.25596
2.27634
2.28998
2.29824
2.30331
2.30696
2.30957
2.31134
2.31142
2.30826
2.30109
2.29207
2.27913
2.2615
2.24003
2.21522
2.18783
2.15904
2.12971
2.10129
2.07619
2.05759
1.53199
1.54307
1.55198
1.55928
1.56451
1.56682
1.5665
1.56468
1.56136
1.55709
1.55243
1.54768
1.54317
1.5391
1.53559
1.53282
1.53117
1.53076
1.53176
1.53383
1.53611
1.53744
1.53696
1.53532
1.53284
1.53026
1.52841
1.52805
1.52919
1.5319
1.53568
1.53987
1.54401
1.54766
1.55142
1.55578
1.56091
1.56677
1.57287
1.57867
1.58374
1.58854
1.59361
1.59974
1.6081
1.61987
1.63634
1.65729
1.68135
1.70844
1.74058
1.77928
1.822
1.86365
1.90083
1.93225
1.95759
1.97883
1.99816
2.01707
2.03617
2.05613
2.0785
2.10567
2.13714
2.17136
2.20403
2.2307
2.24932
2.26023
2.26467
2.26559
2.26524
2.26436
2.26262
2.25902
2.25241
2.24416
2.2345
2.22134
2.20458
2.18476
2.16262
2.13924
2.11558
2.09271
2.07275
2.05799
1.52583
1.53894
1.55163
1.56288
1.57142
1.57785
1.58191
1.58283
1.58182
1.57914
1.57536
1.57086
1.56609
1.56143
1.557
1.55289
1.54946
1.54721
1.54631
1.54695
1.54867
1.55095
1.55262
1.55291
1.55195
1.54984
1.54713
1.54466
1.54313
1.54314
1.54439
1.547
1.55028
1.55359
1.55647
1.55928
1.56262
1.56698
1.57241
1.57863
1.58505
1.59145
1.59758
1.60404
1.61113
1.62001
1.63153
1.64635
1.66504
1.68717
1.71294
1.74419
1.78136
1.82203
1.86237
1.89865
1.92894
1.95266
1.97058
1.9853
1.99885
2.0125
2.02738
2.04519
2.06749
2.0952
2.1277
2.16043
2.18797
2.20746
2.21819
2.22045
2.21802
2.21373
2.20904
2.20408
2.19791
2.19041
2.18348
2.17511
2.16376
2.14941
2.13284
2.11512
2.09726
2.08035
2.06608
2.05617
1.51795
1.5291
1.54291
1.55731
1.5705
1.58141
1.58898
1.59403
1.59701
1.59682
1.59533
1.59233
1.5884
1.58401
1.57927
1.57452
1.56999
1.56612
1.56323
1.56166
1.5616
1.56278
1.56484
1.56678
1.56792
1.56748
1.56598
1.56354
1.56078
1.55835
1.55694
1.55723
1.55846
1.56061
1.56303
1.56517
1.56711
1.56939
1.57272
1.57731
1.58315
1.58976
1.59668
1.60362
1.6109
1.61894
1.62791
1.63878
1.65175
1.66693
1.68463
1.70563
1.73191
1.76401
1.80008
1.83782
1.87327
1.90329
1.9275
1.94572
1.95858
1.9684
1.97726
1.98688
1.99921
2.01572
2.03793
2.0666
2.09863
2.12824
2.1504
2.16397
2.16665
2.16214
2.15499
2.14745
2.1408
2.13462
2.12912
2.1248
2.11919
2.11105
2.10056
2.08864
2.07647
2.0653
2.05662
2.05176
1.51142
1.51998
1.53093
1.54402
1.55938
1.57434
1.58712
1.59732
1.60389
1.60724
1.60889
1.60837
1.60638
1.60342
1.5996
1.59536
1.59092
1.58634
1.582
1.57847
1.57612
1.57517
1.57578
1.57727
1.57929
1.58088
1.58149
1.58081
1.5791
1.57654
1.57378
1.57159
1.57036
1.57064
1.5715
1.57281
1.57416
1.57523
1.57651
1.57867
1.58206
1.58658
1.59243
1.59919
1.60626
1.61365
1.62181
1.63059
1.64009
1.65088
1.66307
1.67672
1.69246
1.71152
1.73551
1.76421
1.79677
1.82962
1.85952
1.88468
1.90449
1.91969
1.93001
1.93697
1.94289
1.95021
1.96119
1.97689
1.99922
2.02779
2.05773
2.08318
2.09969
2.10538
2.10188
2.09516
2.08747
2.08119
2.07592
2.07323
2.07253
2.07119
2.06754
2.06164
2.05492
2.04886
2.04529
2.04492
1.50041
1.50896
1.51853
1.52939
1.54216
1.55687
1.57333
1.58866
1.60066
1.6093
1.61466
1.61665
1.61733
1.61671
1.6146
1.61158
1.60807
1.60407
1.5999
1.59587
1.59223
1.58946
1.58786
1.58747
1.5883
1.58986
1.59165
1.59296
1.59332
1.59255
1.59082
1.58846
1.58604
1.5842
1.58318
1.5831
1.58343
1.58399
1.58441
1.58484
1.58573
1.58767
1.59076
1.59494
1.60026
1.6064
1.61289
1.61986
1.62778
1.63664
1.64615
1.65605
1.66654
1.67849
1.69263
1.70963
1.73031
1.75465
1.78164
1.80897
1.83387
1.85518
1.87187
1.88526
1.89511
1.90229
1.90834
1.91563
1.92656
1.94189
1.96483
1.9926
2.02045
2.04204
2.05657
2.0594
2.05286
2.04427
2.03666
2.03308
2.03162
2.03413
2.03638
2.03663
2.03541
2.03401
2.03457
2.03718
)
;

boundaryField
{
    inlet
    {
        type            fixedValue;
        value           nonuniform 0();
    }
    outlet
    {
        type            inletOutlet;
        inletValue      nonuniform 0();
        value           nonuniform 0();
    }
    bottom
    {
        type            symmetryPlane;
    }
    top
    {
        type            symmetryPlane;
    }
    obstacle
    {
        type            zeroGradient;
    }
    front
    {
        type            empty;
    }
    back
    {
        type            empty;
    }
    procBoundary20to5
    {
        type            processor;
        value           nonuniform List<scalar> 
25
(
2.03785
2.02917
2.00856
1.97693
1.94312
1.91299
1.88689
1.86204
1.83502
1.80109
1.74755
1.64544
1.513
1.38191
1.23527
2.01224
2.02258
2.03229
2.04052
2.04663
2.0504
2.05172
2.05078
2.04681
2.04199
)
;
    }
    procBoundary20to12
    {
        type            processor;
        value           nonuniform List<scalar> 
89
(
2.43059
2.43013
2.42464
2.41292
2.39172
2.36228
2.32351
2.27854
2.23049
2.18216
2.13487
2.09142
2.05315
2.02314
1.4762
1.47751
1.47644
1.47358
1.46933
1.4645
1.45995
1.45627
1.4535
1.45131
1.44925
1.44736
1.44594
1.44575
1.44689
1.44871
1.44997
1.44982
1.4489
1.448
1.44805
1.44928
1.45269
1.45832
1.46543
1.47315
1.48087
1.48857
1.49669
1.50521
1.51318
1.51954
1.52387
1.52569
1.5251
1.5234
1.52193
1.52301
1.52756
1.53491
1.54259
1.5487
1.55203
1.55392
1.55595
1.55907
1.566
1.58097
1.60794
1.64374
1.68194
1.72047
1.7581
1.79686
1.83839
1.88185
1.92628
1.97122
2.01674
2.06324
2.11222
2.16159
2.20725
2.24757
2.28187
2.30963
2.33106
2.34805
2.36308
2.37738
2.39059
2.40221
2.41188
2.41873
2.41873
)
;
    }
    procBoundary20to13
    {
        type            processor;
        value           nonuniform List<scalar> 3(1.11725 1.02759 0.961385);
    }
    procBoundary20to19
    {
        type            processor;
        value           nonuniform List<scalar> 
27
(
1.46243
1.40746
1.33217
1.25366
1.18786
1.13992
1.10608
1.08341
1.07064
1.06479
1.06286
1.06298
1.06403
1.06641
1.07051
1.07444
1.07701
1.07783
1.48764
1.50389
1.5174
1.52279
1.52025
1.51411
1.50889
1.50392
1.49237
)
;
    }
    procBoundary20to27
    {
        type            processor;
        value           uniform 1.07798;
    }
    procBoundary20to28
    {
        type            processor;
        value           nonuniform List<scalar> 
89
(
1.05448
1.05255
1.05052
1.04851
1.04641
1.0442
1.04191
1.03961
1.03716
1.03479
1.0325
1.03023
1.02771
1.02552
1.02348
1.02128
1.0187
1.01662
1.01475
1.01252
1.01
1.0082
1.00644
1.00392
1.00164
1.00002
0.998218
0.995567
0.993764
0.992324
0.990324
0.987972
0.986575
0.985139
0.982826
0.980938
0.97946
0.977676
0.975263
0.973478
0.971751
0.969601
0.96728
0.965475
0.96362
0.961371
0.959335
0.9577
0.955999
0.953771
0.952111
0.950877
0.949418
0.947504
0.94648
0.945787
0.94458
0.943394
0.942962
0.942309
0.940918
0.939937
0.938999
0.937471
0.935475
1.07767
1.07816
1.07834
1.07808
1.07803
1.07768
1.07728
1.0769
1.07625
1.07535
1.07447
1.07351
1.07241
1.07125
1.07019
1.06909
1.06781
1.06644
1.06513
1.0637
1.06208
1.06041
1.05448
1.0588
)
;
    }
}


// ************************************************************************* //
