/*--------------------------------*- C++ -*----------------------------------*\
  =========                 |
  \\      /  F ield         | OpenFOAM: The Open Source CFD Toolbox
   \\    /   O peration     | Website:  https://openfoam.org
    \\  /    A nd           | Version:  7
     \\/     M anipulation  |
\*---------------------------------------------------------------------------*/
FoamFile
{
    version     2.0;
    format      ascii;
    class       volScalarField;
    location    "6.5";
    object      rho;
}
// * * * * * * * * * * * * * * * * * * * * * * * * * * * * * * * * * * * * * //

dimensions      [1 -3 0 0 0 0 0];

internalField   nonuniform List<scalar> 
2413
(
1.68791
1.68317
1.6789
1.67565
1.67516
1.67919
1.68967
1.70941
1.73631
1.77865
1.834
1.90987
1.99758
2.07173
2.14809
2.18777
2.20447
2.21303
2.21698
2.21827
2.21617
2.21075
2.20211
2.19164
2.18074
2.17015
2.15976
2.14961
2.14022
2.13199
2.1243
2.11621
2.10722
2.09748
2.08749
2.07778
2.06859
2.05991
2.05208
2.04514
2.03867
2.03249
2.02622
2.0195
2.01224
2.00454
1.99677
1.98909
1.98136
1.97358
1.96605
1.95931
1.95329
1.94763
1.94216
1.93673
1.93111
1.92557
1.92004
1.91424
1.90823
1.90198
1.89561
1.88929
1.88304
1.87683
1.87092
1.86553
1.86057
1.85565
1.85046
1.84556
1.84131
1.83737
1.83366
1.83101
1.8301
1.83108
1.83373
1.83858
1.84667
1.85491
1.86627
1.87588
1.88283
1.88914
1.89042
1.88956
1.88673
1.88288
1.87814
1.8734
1.86896
1.86493
1.86258
1.86052
1.85875
1.85668
1.85426
1.85198
1.84931
1.84633
1.84333
1.84035
1.83748
1.83447
1.83123
1.82754
1.82314
1.81879
1.8141
1.80882
1.80353
1.79874
1.79482
1.79152
1.78633
1.78473
1.7791
1.77041
1.76162
1.75456
1.74812
1.74116
1.73471
1.72837
1.72211
1.71576
1.70998
1.70483
1.69984
1.6949
1.69092
1.6896
1.69438
1.70607
1.72619
1.75363
1.78846
1.83077
1.87571
1.94006
2.00229
2.07212
2.13983
2.16838
2.18948
2.20272
2.21175
2.21426
2.21378
2.20942
2.20157
2.19306
2.18433
2.176
2.16821
2.16083
2.15347
2.14564
2.13723
2.12849
2.11968
2.11087
2.10195
2.09275
2.08319
2.07341
2.06406
2.05616
2.04944
2.04271
2.03574
2.02894
2.0223
2.01553
2.00852
2.00128
1.99395
1.98645
1.9788
1.97136
1.96432
1.95771
1.95126
1.94485
1.93882
1.93326
1.92802
1.92285
1.91727
1.91126
1.90507
1.89866
1.89225
1.88604
1.87997
1.87416
1.86854
1.86294
1.85764
1.85243
1.84688
1.84187
1.8377
1.83373
1.83042
1.82727
1.82469
1.82342
1.82371
1.82442
1.82811
1.83345
1.84192
1.85185
1.86131
1.87175
1.87835
1.88314
1.88484
1.88427
1.88254
1.87978
1.87626
1.87327
1.87152
1.86933
1.86761
1.8656
1.86279
1.85988
1.85646
1.85261
1.84871
1.84501
1.84126
1.83723
1.83316
1.82891
1.82415
1.81941
1.81439
1.80884
1.80346
1.79857
1.79514
1.79214
1.78151
1.78311
1.77985
1.77252
1.76388
1.75612
1.74895
1.74125
1.73441
1.72791
1.72189
1.71557
1.71083
1.70685
1.70532
1.70953
1.72148
1.74215
1.77452
1.81062
1.85236
1.88836
1.92844
1.96886
2.00959
2.06805
2.11696
2.15497
2.18397
2.19704
2.20289
2.20419
2.20333
2.19974
2.19458
2.18806
2.18155
2.17587
2.17026
2.16482
2.15933
2.15339
2.1467
2.13921
2.13111
2.12263
2.114
2.1055
2.09715
2.08884
2.08041
2.07185
2.06336
2.0552
2.04731
2.03954
2.03204
2.025
2.0183
2.01169
2.00501
1.99829
1.99155
1.98443
1.97702
1.96961
1.96239
1.9556
1.94914
1.94286
1.9369
1.93117
1.92545
1.91965
1.91373
1.90775
1.9018
1.89569
1.88958
1.8837
1.8779
1.87223
1.86626
1.85989
1.85438
1.84948
1.84437
1.83964
1.83588
1.83215
1.82858
1.82578
1.82308
1.82017
1.81798
1.81629
1.81662
1.81839
1.82245
1.82926
1.83788
1.84824
1.85967
1.86958
1.87829
1.88335
1.88372
1.88389
1.88351
1.88221
1.88124
1.87909
1.87618
1.87329
1.86988
1.86614
1.86186
1.85697
1.85211
1.84754
1.84278
1.83781
1.83306
1.82859
1.82383
1.8189
1.81367
1.80794
1.80236
1.7977
1.79413
1.79141
1.764
1.77881
1.77734
1.77175
1.7637
1.75592
1.74855
1.74115
1.7349
1.72953
1.72405
1.72034
1.72265
1.73281
1.75198
1.78646
1.82742
1.87462
1.91662
1.94894
1.9847
2.00399
2.02649
2.0636
2.09957
2.13773
2.17101
2.18358
2.19198
2.19396
2.19192
2.1883
2.18291
2.17824
2.17563
2.17228
2.16895
2.16512
2.16044
2.15532
2.15009
2.14457
2.13863
2.13233
2.12553
2.11812
2.11032
2.1024
2.09432
2.08607
2.07776
2.06958
2.06158
2.05362
2.04546
2.03744
2.02994
2.02295
2.01624
2.00961
2.00305
1.99666
1.99026
1.98335
1.97603
1.96868
1.9614
1.9544
1.94767
1.94091
1.93458
1.92859
1.92267
1.91675
1.91083
1.90499
1.89934
1.89367
1.88793
1.88204
1.87607
1.87031
1.86439
1.85801
1.8523
1.84764
1.84299
1.83869
1.83541
1.8322
1.82872
1.82571
1.82266
1.8193
1.81656
1.8142
1.81157
1.80996
1.81052
1.81313
1.81876
1.82627
1.83718
1.8506
1.86291
1.87452
1.88127
1.88403
1.88553
1.88584
1.88591
1.88507
1.88297
1.88015
1.87629
1.87131
1.86571
1.85946
1.85297
1.84687
1.84126
1.83644
1.83195
1.82712
1.82219
1.81711
1.81167
1.80591
1.80032
1.796
1.79279
1.79019
1.7232
1.77325
1.77322
1.76968
1.76308
1.75549
1.74867
1.74294
1.73833
1.73862
1.74508
1.76137
1.7926
1.83706
1.88572
1.94087
1.97335
2.00653
2.03044
2.04251
2.0571
2.06805
2.08302
2.11464
2.14623
2.16953
2.18838
2.19003
2.18782
2.1844
2.17918
2.1747
2.17002
2.16638
2.1648
2.16261
2.15939
2.15533
2.15074
2.14595
2.14113
2.1361
2.13079
2.12523
2.11921
2.11261
2.10563
2.09848
2.09114
2.0835
2.07564
2.06823
2.06145
2.05454
2.04695
2.03876
2.03038
2.02233
2.01484
2.00779
2.00123
1.99504
1.98898
1.98279
1.97625
1.96919
1.96167
1.95406
1.94669
1.93972
1.93365
1.92775
1.92193
1.91613
1.91027
1.90441
1.89857
1.89264
1.8867
1.88063
1.87443
1.86862
1.86322
1.85763
1.85217
1.84739
1.84301
1.83935
1.83661
1.83392
1.83054
1.82716
1.82399
1.82063
1.81731
1.81432
1.81139
1.80919
1.80663
1.80619
1.80752
1.81096
1.81673
1.82685
1.83977
1.85431
1.86815
1.87745
1.88257
1.88474
1.88534
1.88501
1.8841
1.88208
1.87899
1.87402
1.86787
1.86105
1.85356
1.8461
1.83918
1.83275
1.82812
1.82348
1.8185
1.81376
1.80888
1.80339
1.79812
1.79432
1.79171
1.78937
1.64634
1.76003
1.7667
1.76551
1.76158
1.75653
1.75348
1.7569
1.76993
1.79568
1.83948
1.88957
1.95065
1.99625
2.03326
2.06861
2.07293
2.0745
2.07291
2.07473
2.08432
2.10503
2.12986
2.16034
2.18284
2.19385
2.19358
2.18848
2.18179
2.17571
2.17051
2.16623
2.16169
2.15719
2.15455
2.15194
2.14867
2.14512
2.14131
2.13714
2.13258
2.12772
2.12279
2.1178
2.11253
2.10688
2.10098
2.09492
2.08864
2.08213
2.07555
2.06887
2.06178
2.0542
2.04635
2.03826
2.03014
2.02231
2.01498
2.0084
2.00244
1.99655
1.99032
1.98354
1.97633
1.96897
1.9616
1.95444
1.94761
1.94117
1.93499
1.92842
1.92201
1.91591
1.9099
1.90404
1.89825
1.89251
1.88696
1.8813
1.875
1.86846
1.8625
1.85778
1.85386
1.85018
1.84621
1.84238
1.83938
1.83659
1.83311
1.82945
1.8265
1.82365
1.82022
1.81681
1.81388
1.81126
1.8084
1.80635
1.80495
1.80491
1.80593
1.80952
1.81633
1.82685
1.84105
1.85531
1.86761
1.87582
1.87962
1.88006
1.8791
1.87703
1.87392
1.86959
1.86424
1.85785
1.85054
1.84303
1.83619
1.83037
1.8258
1.82129
1.81643
1.81171
1.80712
1.8024
1.79799
1.79421
1.79104
1.78806
1.54765
1.72281
1.7628
1.76549
1.76732
1.77602
1.79582
1.83486
1.88802
1.94939
2.01064
2.05192
2.09246
2.10504
2.10848
2.10968
2.108
2.10669
2.10556
2.10747
2.11623
2.14129
2.17089
2.19325
2.19978
2.1961
2.19134
2.18566
2.1791
2.17235
2.16677
2.1622
2.15731
2.1524
2.14834
2.14458
2.14109
2.13783
2.13439
2.13059
2.12639
2.12153
2.11608
2.11062
2.10532
2.1003
2.09558
2.09075
2.08558
2.0802
2.07459
2.06816
2.06091
2.05338
2.04598
2.03874
2.03165
2.02465
2.0177
2.01082
2.00393
1.99716
1.99069
1.98427
1.97767
1.97095
1.96416
1.95727
1.9502
1.94332
1.93669
1.93005
1.92373
1.91763
1.91152
1.90551
1.89952
1.89351
1.88745
1.88173
1.8765
1.87116
1.86539
1.85976
1.85592
1.85327
1.85005
1.84655
1.84376
1.84115
1.83799
1.83439
1.83123
1.8283
1.82497
1.82132
1.81847
1.81563
1.81256
1.80957
1.80694
1.80467
1.80249
1.80178
1.80245
1.80536
1.81286
1.82361
1.83786
1.85248
1.86125
1.86724
1.86873
1.86745
1.86511
1.86233
1.85883
1.85415
1.84865
1.84292
1.83706
1.83133
1.82578
1.82062
1.81565
1.81103
1.80671
1.80248
1.79845
1.7947
1.79118
1.78774
1.45309
1.64937
1.75556
1.79237
1.82785
1.87614
1.93344
2.00696
2.05879
2.1067
2.1414
2.15168
2.15653
2.15175
2.14311
2.13396
2.12805
2.12462
2.12427
2.12985
2.14493
2.17334
2.20274
2.21232
2.20999
2.20254
2.19392
2.18679
2.18023
2.17361
2.1679
2.1631
2.15826
2.15325
2.1478
2.1426
2.138
2.13377
2.12985
2.12583
2.12116
2.11568
2.10983
2.10414
2.09867
2.09403
2.09046
2.08683
2.08252
2.07764
2.07223
2.06615
2.05958
2.05294
2.04647
2.04004
2.03349
2.0267
2.01971
2.01261
2.00564
1.99898
1.9927
1.98662
1.98055
1.97444
1.96829
1.9619
1.95488
1.94733
1.93964
1.9322
1.9255
1.91946
1.91366
1.90805
1.90245
1.89689
1.89107
1.88451
1.87871
1.87429
1.87003
1.86544
1.86131
1.85844
1.85531
1.85176
1.84899
1.84661
1.84393
1.84069
1.83742
1.83446
1.83144
1.828
1.82469
1.82138
1.81774
1.81393
1.81022
1.80619
1.80205
1.79775
1.79531
1.79449
1.79524
1.79883
1.80575
1.81906
1.83001
1.83959
1.8484
1.84923
1.85013
1.85136
1.85018
1.84774
1.84575
1.84255
1.83886
1.83463
1.82954
1.82456
1.81969
1.81465
1.80982
1.80523
1.80096
1.79693
1.79297
1.78919
1.38819
1.57736
1.77877
1.90914
1.99961
2.05685
2.10589
2.15251
2.18136
2.19648
2.19375
2.18224
2.16983
2.16044
2.1484
2.13595
2.13138
2.13303
2.13908
2.15651
2.18188
2.21065
2.22569
2.22549
2.22148
2.2134
2.20407
2.19564
2.18782
2.18017
2.17335
2.16781
2.16251
2.15606
2.1493
2.14321
2.1375
2.13224
2.12736
2.12244
2.11725
2.11187
2.10617
2.10028
2.0946
2.08971
2.08561
2.08158
2.07737
2.07295
2.06806
2.0629
2.05774
2.0526
2.04731
2.04162
2.03527
2.02837
2.02117
2.01413
2.00764
2.00154
1.99567
1.9899
1.98417
1.97844
1.97246
1.96577
1.95836
1.95086
1.94354
1.93641
1.92966
1.92334
1.91751
1.91196
1.906
1.9002
1.8954
1.89017
1.88432
1.8793
1.87581
1.87265
1.86886
1.86585
1.86302
1.85957
1.8567
1.85393
1.85084
1.84747
1.84421
1.84125
1.83824
1.83508
1.83163
1.8278
1.82359
1.81886
1.81336
1.80707
1.80029
1.79422
1.78993
1.78721
1.78525
1.78483
1.7853
1.78905
1.79786
1.8048
1.81517
1.82313
1.82768
1.83362
1.83504
1.83645
1.84009
1.83992
1.83921
1.83777
1.83493
1.83146
1.82734
1.82248
1.81729
1.81185
1.80658
1.80164
1.79691
1.79235
1.38416
1.57927
1.90464
2.10549
2.17746
2.20888
2.22168
2.21894
2.2175
2.21248
2.20434
2.19018
2.17446
2.16042
2.14837
2.14154
2.14311
2.15008
2.16771
2.19766
2.22639
2.24208
2.24202
2.2378
2.22984
2.2204
2.21121
2.20292
2.19506
2.18769
2.18142
2.1749
2.16812
2.16161
2.15458
2.14728
2.1401
2.13334
2.12714
2.12139
2.11564
2.1097
2.10376
2.09782
2.09196
2.08628
2.08096
2.07652
2.07294
2.06928
2.06531
2.06094
2.0561
2.05088
2.04515
2.03889
2.03266
2.02648
2.02025
2.01458
2.00913
2.00369
1.99838
1.99307
1.98745
1.98147
1.97524
1.96868
1.96173
1.9547
1.94773
1.94087
1.93435
1.92816
1.92242
1.91715
1.91162
1.90498
1.89962
1.8958
1.89127
1.88702
1.88424
1.88156
1.87807
1.87478
1.872
1.86853
1.86517
1.86201
1.85871
1.85535
1.85204
1.84871
1.8451
1.84147
1.83749
1.83316
1.82841
1.8229
1.81613
1.80818
1.79966
1.79237
1.78706
1.7828
1.77892
1.77568
1.77343
1.77169
1.77355
1.77678
1.78106
1.78957
1.79689
1.80586
1.81256
1.81812
1.8252
1.83052
1.83567
1.8402
1.83943
1.83735
1.83511
1.83219
1.82814
1.8226
1.81641
1.81001
1.80356
1.79731
1.47438
1.68417
2.07631
2.2529
2.2673
2.26495
2.25821
2.24806
2.23598
2.22329
2.21324
2.20004
2.18281
2.16838
2.15779
2.15588
2.1617
2.17763
2.20812
2.24234
2.25862
2.25847
2.25367
2.24505
2.23537
2.22623
2.21795
2.21022
2.20296
2.19648
2.18996
2.18215
2.17367
2.16574
2.15802
2.1502
2.14239
2.13506
2.12876
2.12283
2.11656
2.11005
2.10365
2.09742
2.09108
2.08483
2.07925
2.07457
2.07022
2.06583
2.06155
2.05748
2.0534
2.04867
2.04272
2.03591
2.02982
2.02481
2.02013
2.01545
2.01055
2.00519
1.99947
1.99354
1.98738
1.98107
1.97494
1.96913
1.96343
1.95761
1.95161
1.9455
1.93918
1.93278
1.92628
1.92065
1.9159
1.91052
1.90526
1.90197
1.89846
1.8952
1.89318
1.89111
1.88823
1.88498
1.88163
1.87778
1.87388
1.87009
1.86644
1.86302
1.85932
1.85536
1.85119
1.84691
1.84231
1.83733
1.83156
1.82451
1.81615
1.80705
1.79831
1.7913
1.78578
1.78097
1.77637
1.77223
1.76845
1.76497
1.76168
1.76022
1.76056
1.7626
1.76751
1.77429
1.7845
1.79284
1.80324
1.81345
1.82174
1.83009
1.8361
1.83967
1.84113
1.83999
1.83633
1.83154
1.82629
1.82028
1.8134
1.80644
1.58253
1.75816
2.14855
2.30638
2.30541
2.29369
2.2766
2.26013
2.24396
2.22881
2.21242
2.19354
2.17864
2.16889
2.16651
2.1717
2.18929
2.21907
2.25019
2.27108
2.27221
2.26854
2.26026
2.25011
2.24108
2.23368
2.22661
2.2195
2.21291
2.20643
2.19819
2.18868
2.1802
2.17235
2.16432
2.15614
2.14797
2.14032
2.13326
2.12596
2.11857
2.1113
2.10427
2.09741
2.09047
2.08433
2.07893
2.07368
2.06873
2.06398
2.05925
2.05434
2.04899
2.04336
2.03774
2.03245
2.0274
2.02234
2.01734
2.01229
2.00703
2.00159
1.99628
1.99104
1.98574
1.98021
1.9747
1.96932
1.96377
1.95802
1.95221
1.94656
1.94091
1.93512
1.92908
1.92405
1.92019
1.91582
1.91143
1.90898
1.90631
1.90357
1.90198
1.90024
1.89766
1.89463
1.89122
1.88724
1.88289
1.87865
1.87431
1.86999
1.86553
1.86069
1.85567
1.85048
1.84492
1.83888
1.8323
1.8249
1.81636
1.80708
1.79844
1.79189
1.78683
1.7822
1.77747
1.77268
1.76799
1.76382
1.75927
1.75486
1.75065
1.74791
1.74804
1.74972
1.75513
1.76331
1.77363
1.78788
1.79963
1.81175
1.82276
1.82984
1.83478
1.83583
1.83544
1.83488
1.8328
1.82797
1.82252
1.81708
1.65112
1.76941
2.12368
2.30519
2.31053
2.29542
2.27354
2.25625
2.24103
2.22484
2.20579
2.18759
2.17699
2.177
2.18274
2.19958
2.2291
2.26478
2.28328
2.28379
2.28074
2.27419
2.26591
2.25766
2.25029
2.24347
2.23646
2.22924
2.22216
2.21424
2.20533
2.19619
2.18732
2.17865
2.16991
2.16116
2.15283
2.14507
2.13699
2.12891
2.12134
2.114
2.10683
2.09971
2.09299
2.0867
2.08008
2.07365
2.06784
2.06221
2.05675
2.05135
2.04573
2.04012
2.03474
2.02946
2.02418
2.01883
2.01379
2.00885
2.00343
1.99782
1.99232
1.98681
1.98153
1.97642
1.97154
1.96685
1.96204
1.95669
1.95123
1.94592
1.94094
1.93606
1.93067
1.92617
1.9233
1.92
1.91664
1.91503
1.91313
1.91098
1.90975
1.90812
1.90569
1.90271
1.89919
1.89498
1.89005
1.88532
1.88087
1.87648
1.87179
1.86658
1.861
1.85478
1.84815
1.84093
1.83329
1.82535
1.81707
1.80898
1.80179
1.7955
1.78992
1.78477
1.77987
1.77501
1.76957
1.76489
1.76004
1.7542
1.74897
1.74431
1.73904
1.73759
1.73806
1.74102
1.74693
1.75696
1.7693
1.78136
1.79448
1.80736
1.81633
1.82143
1.82662
1.82775
1.82636
1.82619
1.82482
1.8219
1.6748
1.74885
2.04166
2.28431
2.31197
2.30039
2.27694
2.25577
2.23909
2.22154
2.20489
2.19266
2.19096
2.19638
2.21079
2.23762
2.27507
2.29875
2.30076
2.29678
2.28943
2.28107
2.27302
2.26578
2.25896
2.25198
2.24461
2.23735
2.22986
2.22124
2.21235
2.20357
2.19463
2.18559
2.1766
2.16793
2.15954
2.15116
2.14274
2.13437
2.12618
2.11816
2.11029
2.10269
2.09543
2.08792
2.08059
2.07406
2.06788
2.06173
2.05583
2.05017
2.04455
2.03889
2.03305
2.02751
2.02209
2.01641
2.01084
2.00537
1.99964
1.9939
1.98818
1.98237
1.9773
1.97226
1.96713
1.96203
1.95718
1.95229
1.94751
1.94249
1.93828
1.93453
1.93031
1.92627
1.92417
1.92172
1.91926
1.91842
1.91721
1.91583
1.91479
1.91294
1.91038
1.90715
1.90318
1.89851
1.89313
1.88722
1.88116
1.87538
1.86968
1.86388
1.85803
1.85234
1.84653
1.84012
1.83311
1.82577
1.81819
1.81074
1.80406
1.7982
1.79291
1.78798
1.78333
1.7787
1.77312
1.76782
1.7626
1.75633
1.75014
1.74485
1.73963
1.73443
1.73217
1.7316
1.73254
1.73562
1.74161
1.74988
1.75921
1.77028
1.78203
1.79195
1.80446
1.8121
1.81463
1.81813
1.81972
1.81828
1.6875
1.72682
1.93508
2.24668
2.30509
2.29988
2.28005
2.2589
2.2416
2.22506
2.21257
2.20765
2.21023
2.22123
2.24454
2.27933
2.3098
2.31564
2.31319
2.30625
2.29655
2.28729
2.27994
2.2733
2.26639
2.25916
2.25224
2.24497
2.23657
2.22841
2.22021
2.21158
2.20257
2.19335
2.18431
2.17556
2.16612
2.15673
2.14827
2.13992
2.13154
2.12339
2.11554
2.10759
2.09934
2.09133
2.08367
2.07643
2.06964
2.06309
2.05696
2.05104
2.0451
2.03883
2.03215
2.02576
2.01982
2.01387
2.00831
2.00277
1.99731
1.99178
1.98588
1.97961
1.97381
1.96812
1.96275
1.95773
1.95298
1.94901
1.94502
1.94018
1.93612
1.93338
1.92976
1.92607
1.92468
1.92285
1.92096
1.92076
1.91982
1.91856
1.91754
1.91559
1.91269
1.90913
1.90475
1.89946
1.89329
1.8867
1.88008
1.87369
1.8677
1.86211
1.8566
1.85103
1.84546
1.83942
1.83279
1.82586
1.81882
1.8121
1.80595
1.80062
1.7958
1.791
1.78597
1.78094
1.77499
1.7689
1.7648
1.7597
1.75303
1.7479
1.74361
1.73883
1.73535
1.73323
1.73035
1.72804
1.7279
1.7293
1.73351
1.73841
1.74575
1.75427
1.76419
1.77723
1.78795
1.79541
1.8049
1.80755
1.69794
1.71498
1.8383
2.15858
2.29578
2.29899
2.28682
2.26748
2.24838
2.23285
2.22419
2.22461
2.23227
2.25376
2.28664
2.31866
2.32918
2.32786
2.32208
2.31336
2.30425
2.2961
2.28875
2.28148
2.27399
2.26681
2.25959
2.25174
2.24385
2.23601
2.2278
2.21913
2.2102
2.2014
2.19274
2.18329
2.17351
2.16456
2.15601
2.14735
2.13871
2.13039
2.12222
2.11349
2.10432
2.09568
2.08751
2.07968
2.07246
2.06576
2.05934
2.05247
2.04582
2.03948
2.03298
2.02646
2.0202
2.01385
2.00788
2.00175
1.99589
1.99037
1.98452
1.97817
1.97203
1.96625
1.96056
1.95565
1.95075
1.94698
1.94374
1.93936
1.93538
1.93365
1.93111
1.92774
1.92676
1.92526
1.92309
1.92281
1.9217
1.91996
1.91857
1.91637
1.91311
1.90907
1.90407
1.89806
1.89131
1.88438
1.87782
1.87176
1.86608
1.8607
1.85539
1.84989
1.84438
1.83868
1.83253
1.82594
1.81913
1.81259
1.8068
1.80156
1.79689
1.79186
1.78732
1.78392
1.77948
1.77372
1.76951
1.76582
1.76023
1.75426
1.75052
1.74663
1.74225
1.73935
1.73662
1.73326
1.72971
1.72548
1.72119
1.71884
1.71903
1.7216
1.7265
1.734
1.74571
1.75667
1.76804
1.78173
1.70481
1.70977
1.769
2.01738
2.27324
2.30384
2.29835
2.27927
2.2574
2.24355
2.24097
2.24557
2.26239
2.29474
2.32893
2.34254
2.3428
2.33912
2.33202
2.32349
2.31509
2.30722
2.29955
2.29178
2.28419
2.27668
2.26852
2.26029
2.25228
2.24414
2.2356
2.22669
2.21804
2.20993
2.20086
2.19103
2.18164
2.17267
2.16384
2.15502
2.14652
2.13818
2.12951
2.12048
2.1112
2.10229
2.09377
2.08562
2.07813
2.07133
2.06455
2.05705
2.04934
2.0418
2.03427
2.02702
2.02029
2.0143
2.0087
2.00266
1.99649
1.99066
1.98451
1.97799
1.9714
1.96563
1.96057
1.9562
1.95163
1.94741
1.94474
1.94131
1.93757
1.93629
1.93452
1.93148
1.93079
1.92962
1.92727
1.92637
1.92477
1.92207
1.91952
1.91645
1.91252
1.9078
1.90232
1.89594
1.88909
1.88226
1.87571
1.8696
1.8638
1.85827
1.85289
1.84745
1.84188
1.83636
1.83083
1.82518
1.81967
1.81456
1.80958
1.80553
1.8024
1.79851
1.79391
1.79055
1.78711
1.78129
1.77578
1.77283
1.76856
1.7633
1.76015
1.75719
1.75306
1.74952
1.74661
1.74282
1.73832
1.73522
1.73216
1.72894
1.72675
1.72496
1.72366
1.72223
1.72344
1.72747
1.73205
1.74029
1.70747
1.70663
1.73059
1.88178
2.20389
2.30875
2.31003
2.29453
2.27038
2.25936
2.26143
2.27461
2.30361
2.34185
2.35862
2.36028
2.3577
2.35099
2.34187
2.33359
2.32619
2.31862
2.31113
2.30372
2.29624
2.28817
2.27904
2.26984
2.26097
2.25212
2.24316
2.23445
2.22632
2.21773
2.20888
2.20009
2.19111
2.18196
2.17296
2.16429
2.15586
2.14689
2.13766
2.12849
2.11902
2.10967
2.10087
2.09266
2.08465
2.07727
2.07024
2.0628
2.05495
2.04696
2.03906
2.03157
2.02425
2.01749
2.01149
2.00515
1.99852
1.99246
1.98643
1.98016
1.97353
1.96702
1.96209
1.95804
1.95416
1.95105
1.94927
1.94697
1.94348
1.94209
1.94092
1.93801
1.9373
1.93646
1.934
1.93221
1.9299
1.9263
1.92278
1.91843
1.91336
1.9081
1.90245
1.89619
1.88963
1.88304
1.87677
1.87126
1.86596
1.86041
1.85618
1.8524
1.84765
1.84271
1.83831
1.8338
1.82903
1.82459
1.82019
1.81584
1.81288
1.80929
1.80419
1.80038
1.79739
1.79221
1.78673
1.78334
1.77944
1.7748
1.77158
1.76845
1.76439
1.76041
1.75682
1.75256
1.74763
1.74329
1.73911
1.73468
1.73075
1.72747
1.7242
1.72105
1.71912
1.71904
1.71912
1.71998
1.70945
1.70802
1.71689
1.79107
2.05996
2.298
2.31705
2.30824
2.28807
2.28278
2.29201
2.31529
2.35433
2.37965
2.38233
2.37979
2.37373
2.36563
2.35716
2.34889
2.34029
2.33146
2.32292
2.31501
2.30621
2.29659
2.28772
2.27893
2.26983
2.26063
2.25173
2.24359
2.23517
2.22575
2.21648
2.20776
2.19907
2.19037
2.18199
2.17394
2.16556
2.15646
2.14719
2.13794
2.12848
2.119
2.1101
2.10185
2.09354
2.08542
2.07741
2.06908
2.06054
)
;

boundaryField
{
    inlet
    {
        type            calculated;
        value           nonuniform 0();
    }
    outlet
    {
        type            calculated;
        value           nonuniform 0();
    }
    bottom
    {
        type            symmetryPlane;
    }
    top
    {
        type            symmetryPlane;
    }
    obstacle
    {
        type            calculated;
        value           nonuniform 0();
    }
    front
    {
        type            empty;
    }
    back
    {
        type            empty;
    }
    procBoundary38to30
    {
        type            processor;
        value           nonuniform List<scalar> 
133
(
1.68798
1.68294
1.67836
1.67348
1.66867
1.66688
1.66592
1.66762
1.67246
1.68338
1.70374
1.73887
1.80128
1.87917
1.98731
2.0685
2.13613
2.19043
2.20818
2.21318
2.2148
2.21184
2.20767
2.20253
2.19345
2.18245
2.17044
2.15842
2.14751
2.13766
2.12837
2.11864
2.10859
2.09914
2.09053
2.08235
2.07405
2.06546
2.05725
2.04988
2.04293
2.0359
2.02868
2.02142
2.01419
2.0069
1.99952
1.992
1.98434
1.97663
1.96909
1.9621
1.95565
1.94964
1.94404
1.93874
1.93353
1.92838
1.92315
1.91754
1.91156
1.90531
1.8989
1.89243
1.88604
1.88001
1.87447
1.86918
1.86408
1.85929
1.85446
1.84988
1.84621
1.84266
1.84001
1.83922
1.84005
1.84392
1.84969
1.85897
1.86937
1.87833
1.8883
1.89592
1.89839
1.89861
1.89649
1.89197
1.88599
1.8799
1.87405
1.86852
1.86344
1.85918
1.85579
1.85271
1.85019
1.84782
1.84544
1.84339
1.84115
1.83867
1.83625
1.83388
1.8315
1.8291
1.82661
1.82382
1.82004
1.81621
1.81241
1.80725
1.80194
1.79784
1.79356
1.79006
1.78769
1.7845
1.77696
1.76696
1.75818
1.75198
1.74606
1.73979
1.7337
1.72803
1.72228
1.71636
1.71038
1.70505
1.69965
1.69398
1.69398
)
;
    }
    procBoundary38to31
    {
        type            processor;
        value           uniform 1.78934;
    }
    procBoundary38to37
    {
        type            processor;
        value           nonuniform List<scalar> 
16
(
1.76507
1.71483
1.62475
1.51636
1.42093
1.35633
1.32022
1.30836
1.32757
1.41035
1.53658
1.631
1.66897
1.68574
1.6982
1.70905
)
;
    }
    procBoundary38to39
    {
        type            processor;
        value           nonuniform List<scalar> 
17
(
1.78973
1.78918
1.78795
1.78688
1.785
1.78439
1.78549
1.78791
1.79144
1.79967
1.81106
1.81732
1.81526
1.80846
1.79144
1.75214
1.72241
)
;
    }
    procBoundary38to45
    {
        type            processor;
        value           nonuniform List<scalar> 2(1.71814 1.71921);
    }
    procBoundary38to46
    {
        type            processor;
        value           nonuniform List<scalar> 
133
(
2.05208
2.04408
2.0367
2.02936
2.02194
2.0157
2.00949
2.00258
1.99597
1.99014
1.98445
1.97839
1.97224
1.96795
1.96384
1.95986
1.95727
1.95594
1.95556
1.95377
1.95228
1.95165
1.94927
1.9475
1.94611
1.94318
1.94037
1.93786
1.9338
1.92925
1.92452
1.91888
1.91292
1.90738
1.90179
1.896
1.89006
1.88456
1.88052
1.87635
1.87136
1.86674
1.86348
1.85958
1.85476
1.85023
1.84626
1.84187
1.83722
1.83237
1.82782
1.8243
1.82031
1.81501
1.81103
1.80755
1.80249
1.79766
1.79396
1.78999
1.78559
1.78193
1.77822
1.77382
1.76923
1.76477
1.7598
1.75438
1.74931
1.74445
1.73964
1.73507
1.73091
1.72666
1.72289
1.7199
1.71726
1.71502
1.71312
1.71806
1.71501
1.71624
1.7423
1.89702
2.21006
2.31185
2.31572
2.31207
2.31597
2.33248
2.3647
2.39883
2.40713
2.40575
2.40067
2.39182
2.38184
2.3725
2.363
2.35325
2.34398
2.33489
2.32566
2.31723
2.30866
2.29973
2.29047
2.2809
2.27143
2.26215
2.25222
2.24271
2.23407
2.22541
2.21665
2.20795
2.1996
2.19105
2.18227
2.17368
2.16485
2.15583
2.14678
2.13771
2.12863
2.1197
2.1111
2.10255
2.09416
2.08581
2.07728
2.05208
2.06869
)
;
    }
}


// ************************************************************************* //
