/*--------------------------------*- C++ -*----------------------------------*\
  =========                 |
  \\      /  F ield         | OpenFOAM: The Open Source CFD Toolbox
   \\    /   O peration     | Website:  https://openfoam.org
    \\  /    A nd           | Version:  7
     \\/     M anipulation  |
\*---------------------------------------------------------------------------*/
FoamFile
{
    version     2.0;
    format      ascii;
    class       surfaceScalarField;
    location    "16";
    object      phi;
}
// * * * * * * * * * * * * * * * * * * * * * * * * * * * * * * * * * * * * * //

dimensions      [0 3 -1 0 0 0 0];

internalField   nonuniform List<scalar> 
82640
(
-7.91025e-05
7.90379e-05
6.4618e-08
-0.000178829
9.9669e-05
5.77007e-08
-0.000296248
0.000117385
3.36664e-08
-0.000420028
0.000123787
-6.97217e-09
-0.000560773
0.000140812
-6.7176e-08
-0.000719027
0.000158403
-1.49211e-07
-0.000900255
0.000181475
-2.46731e-07
-0.00110579
0.000205878
-3.47916e-07
-0.00133468
0.000229324
-4.33397e-07
-0.00158053
0.000246337
-4.79552e-07
-0.00183016
0.000250089
-4.60538e-07
-0.0020624
0.000232592
-3.57974e-07
-0.00224724
0.000185015
-1.66406e-07
-0.00234645
9.91169e-05
9.18191e-08
-0.00231845
-2.83661e-05
3.58408e-07
-0.00212877
-0.000190249
5.78342e-07
-0.00176657
-0.000362897
6.92425e-07
-0.00123969
-0.000527574
6.90774e-07
-0.000583529
-0.000656746
5.89118e-07
0.000166984
-0.000750945
4.31426e-07
0.000985975
-0.000819244
2.52774e-07
0.00182164
-0.000835743
7.9155e-08
0.00269366
-0.000871961
-6.23038e-08
0.00353605
-0.000842217
-1.71913e-07
-0.000870627
-2.41288e-07
0.00440692
-7.88037e-05
0.000157842
-0.000177936
0.000198802
-0.00029438
0.000233829
-0.00041657
0.000245978
-0.000554833
0.000279074
-0.000709353
0.000312923
-0.000885139
0.000357261
-0.00108298
0.000403717
-0.00130129
0.000447637
-0.001533
0.000478043
-0.00176423
0.00048132
-0.0019733
0.000441668
-0.00213001
0.000341722
-0.00219633
0.000165435
-0.00213161
-9.30911e-05
-0.00190266
-0.000419199
-0.00150086
-0.000764693
-0.000935987
-0.00109245
-0.000246509
-0.00134622
0.000536345
-0.0015338
0.00138033
-0.00166322
0.00224134
-0.00169675
0.00313109
-0.00176171
0.00399375
-0.00170488
-0.00175592
0.00487904
-7.82095e-05
0.000236051
-0.00017616
0.000296752
-0.000290664
0.000348333
-0.000409702
0.000365016
-0.000543053
0.000412425
-0.000690203
0.000460073
-0.000855284
0.000522342
-0.00103805
0.000586484
-0.00123574
0.000645322
-0.00144001
0.000682315
-0.00163585
0.000677159
-0.00180081
0.000606635
-0.0019046
0.000445514
-0.00191008
0.000170915
-0.00177868
-0.000224498
-0.00148006
-0.000717816
-0.0010098
-0.00123495
-0.000380693
-0.00172156
0.00036307
-0.00208999
0.00119498
-0.0023657
0.00207593
-0.00254418
0.00297344
-0.00259427
0.0038865
-0.00267476
0.00477661
-0.00259499
-0.00265832
0.00567901
-7.73276e-05
0.000313379
-0.000173518
0.000392943
-0.000285144
0.000459959
-0.000399517
0.000479389
-0.000525626
0.000538535
-0.000661961
0.000596407
-0.000811412
0.000671793
-0.000972312
0.000747384
-0.0011403
0.000813307
-0.00130545
0.000847467
-0.00145142
0.000823133
-0.00155517
0.000710386
-0.00158692
0.000477262
-0.00151151
9.55069e-05
-0.00129387
-0.000442141
-0.000908213
-0.00110347
-0.000355264
-0.0017879
0.000343314
-0.00242014
0.00114659
-0.00289326
0.00202533
-0.00324444
0.00293844
-0.0034573
0.00386459
-0.00352042
0.00479054
-0.00360071
0.00569812
-0.00350258
-0.00356479
0.00660459
-7.61685e-05
0.000389547
-0.00017004
0.000486814
-0.000277882
0.0005678
-0.000386149
0.000587655
-0.000502832
0.000655218
-0.000625174
0.000718749
-0.000754547
0.000801166
-0.000887597
0.000880434
-0.00101815
0.000943856
-0.00113461
0.000963928
-0.00121946
0.000907983
-0.00124957
0.000740499
-0.00119655
0.00042424
-0.0010287
-7.23425e-05
-0.000715366
-0.000755474
-0.000236192
-0.00158265
0.000395575
-0.00241967
0.00115801
-0.00318257
0.0020117
-0.00374696
0.00292081
-0.00415355
0.00384844
-0.00438493
0.00478186
-0.00445383
0.00569966
-0.00451852
0.00660311
-0.00440603
-0.00445272
0.00749104
-7.47465e-05
0.000464294
-0.000165761
0.000577829
-0.000268958
0.000670997
-0.00036977
0.000688467
-0.000475019
0.000760468
-0.000580525
0.000824255
-0.000685952
0.000906594
-0.000786135
0.000980616
-0.000873058
0.00103078
-0.000933624
0.00102449
-0.000949545
0.000923903
-0.000898343
0.000689298
-0.000753968
0.000279864
-0.000489002
-0.000337308
-7.71668e-05
-0.00116731
0.000487064
-0.00214688
0.00119149
-0.00312409
0.00200591
-0.00399699
0.00288997
-0.00463102
0.00380663
-0.00507022
0.00472549
-0.00530379
0.00564023
-0.00536857
0.00652685
-0.00540513
0.00740181
-0.00528099
-0.00529999
0.00824908
-7.30788e-05
0.000537373
-0.000160724
0.000665475
-0.000258465
0.000768738
-0.00035058
0.000780582
-0.000442594
0.000852482
-0.000528791
0.000910452
-0.000607046
0.000984848
-0.000670391
0.00104396
-0.000709119
0.00106951
-0.000708978
0.00102435
-0.00065147
0.000866395
-0.000515539
0.000553368
-0.00027829
4.26145e-05
8.32617e-05
-0.00069886
0.000586031
-0.00167008
0.00123117
-0.00279202
0.0019962
-0.00388912
0.00284374
-0.00484453
0.00373561
-0.00552288
0.0046363
-0.00597091
0.00552331
-0.00619079
0.00639573
-0.00624098
0.00723225
-0.00624166
0.00805869
-0.00610742
-0.00609178
0.00885047
-7.11854e-05
0.000608558
-0.00015498
0.000749269
-0.000246512
0.00086027
-0.000328802
0.000862872
-0.000405995
0.000929675
-0.000470806
0.000975263
-0.00051932
0.00103336
-0.000542903
0.00106754
-0.000530431
0.00105704
-0.000466973
0.000960895
-0.000334411
0.000733834
-0.000113957
0.000332914
0.000214626
-0.000285969
0.00066863
-0.00115286
0.00125706
-0.00225851
0.00197166
-0.00350663
0.00278073
-0.00469818
0.0036414
-0.0057052
0.00451837
-0.00639985
0.00538165
-0.00683419
0.00621737
-0.00702651
0.00702989
-0.0070535
0.00780422
-0.007016
0.00856998
-0.00687318
-0.00682234
0.00930055
-6.90888e-05
0.000677647
-0.000148582
0.000828763
-0.000233213
0.000944901
-0.00030467
0.000934329
-0.000365679
0.000990684
-0.00040741
0.00101699
-0.000424251
0.0010502
-0.000406119
0.00104941
-0.000340829
0.000991745
-0.000213303
0.000833369
-7.01144e-06
0.000527542
0.000297124
2.87784e-05
0.000712692
-0.000701537
0.00125296
-0.00169313
0.00191858
-0.00292413
0.00268923
-0.00427728
0.00352387
-0.00553282
0.00437693
-0.00655826
0.005218
-0.00724092
0.00602632
-0.00764251
0.00679692
-0.00779711
0.00753961
-0.0077962
0.00824695
-0.00772333
0.00894839
-0.00757462
-0.00749381
0.00961986
-6.68136e-05
0.00074446
-0.000141592
0.000903541
-0.00021869
0.001022
-0.000278421
0.00099406
-0.00032209
0.00103435
-0.000339409
0.00103431
-0.000323208
0.001034
-0.000262237
0.000988442
-0.000143628
0.000873136
4.72965e-05
0.000642445
0.000327059
0.00024778
0.0007095
-0.000353663
0.001207
-0.00119904
0.0018268
-0.00231293
0.00255892
-0.00365625
0.00336941
-0.00508776
0.00420929
-0.0063727
0.00503435
-0.00738332
0.00582194
-0.00802852
0.00656308
-0.00838366
0.00726145
-0.00849548
0.00793205
-0.00846679
0.0085741
-0.00836538
0.00921467
-0.00821519
-0.00811346
0.00983431
-6.43863e-05
0.000808847
-0.00013407
0.000973225
-0.000203064
0.00109099
-0.000250288
0.00104128
-0.000275647
0.00105971
-0.000267522
0.00102619
-0.000217367
0.000983846
-0.000113063
0.000884138
5.86073e-05
0.000701466
0.000311941
0.000389111
0.000661348
-0.000101627
0.0011188
-0.000811118
0.00169301
-0.00177324
0.0023842
-0.00300412
0.00316926
-0.00444131
0.00400034
-0.00591885
0.00482423
-0.00719659
0.00560297
-0.00816206
0.00632456
-0.0087501
0.0069926
-0.0090517
0.00761835
-0.00912122
0.00822099
-0.00906944
0.00880438
-0.00894877
0.00939218
-0.00880299
-0.00869084
0.00996956
-6.18346e-05
0.000870681
-0.000126082
0.00103747
-0.000186455
0.00115137
-0.000220485
0.00107532
-0.000226715
0.00106594
-0.000192342
0.000991816
-0.000107634
0.000899139
4.01161e-05
0.000736387
0.000264281
0.000477301
0.000578235
7.51563e-05
0.000994761
-0.000518153
0.00152342
-0.00133978
0.00216862
-0.00241844
0.00292077
-0.00375627
0.00374151
-0.00526205
0.00457156
-0.0067489
0.00535919
-0.00798421
0.00607743
-0.0088803
0.00672666
-0.00939933
0.00732201
-0.00964705
0.00788045
-0.00967966
0.0084237
-0.00961269
0.00895786
-0.00948293
0.009503
-0.00934813
-0.0092356
0.0100478
-5.91871e-05
0.000929868
-0.000117691
0.00109598
-0.000168978
0.00120265
-0.000189202
0.00109554
-0.000175585
0.00105232
-0.000114294
0.000930524
5.45846e-06
0.000779386
0.000196665
0.000545181
0.000472665
0.0002013
0.000845907
-0.000298085
0.00132728
-0.00099953
0.00192343
-0.00193592
0.00263242
-0.00312744
0.0034315
-0.00455535
0.00426705
-0.00609759
0.00507392
-0.00755577
0.00580842
-0.00871871
0.00645778
-0.00952966
0.00703465
-0.00997621
0.0075631
-0.0101755
0.00806339
-0.01018
0.00855797
-0.0101073
0.00905319
-0.00997814
0.00956568
-0.00986062
-0.00975611
0.0100862
-5.64729e-05
0.000986341
-0.000108961
0.00114846
-0.000150735
0.00124443
-0.000156593
0.0011014
-0.000122459
0.00101819
-3.36057e-05
0.000841671
0.00012162
0.00062416
0.000356523
0.000310279
0.000684102
-0.000126278
0.00111575
-0.000729729
0.00165999
-0.00154377
0.0023191
-0.00259503
0.00308169
-0.00389003
0.0039094
-0.00538305
0.00473677
-0.00692497
0.00550059
-0.00831959
0.00617066
-0.00938879
0.00674919
-0.0101082
0.00725916
-0.0104862
0.0077301
-0.0106464
0.00818323
-0.0106331
0.00864012
-0.0105642
0.00910598
-0.010444
0.00959448
-0.0103491
-0.010259
0.0100973
-5.37214e-05
0.00104006
-9.99528e-05
0.00119469
-0.000131818
0.00127629
-0.00012277
0.00109235
-6.74248e-05
0.000962845
4.97382e-05
0.000724508
0.00024118
0.000432718
0.000520307
3.11513e-05
0.000899686
-0.000505658
0.00138919
-0.00121924
0.0019939
-0.00214848
0.0027092
-0.00331033
0.00351093
-0.00469176
0.00434547
-0.0062176
0.00514246
-0.00772195
0.00584836
-0.0090255
0.00644937
-0.00998979
0.00696095
-0.0106198
0.00741321
-0.0109384
0.00783767
-0.0110709
0.00825464
-0.0110501
0.00868374
-0.0109933
0.00912833
-0.0108886
0.00959961
-0.0108204
-0.0107489
0.0100896
-5.09612e-05
0.00109102
-9.07243e-05
0.00123446
-0.000112297
0.00129786
-8.77895e-05
0.00106784
-1.04043e-05
0.00088546
0.000135973
0.000578131
0.000364704
0.000203987
0.000689108
-0.000293253
0.00112091
-0.00093746
0.00166754
-0.00176586
0.00232865
-0.0028096
0.00308964
-0.00407132
0.00391175
-0.00551387
0.00473035
-0.0070362
0.0054787
-0.00847029
0.00611854
-0.00966535
0.00665217
-0.0105234
0.00710486
-0.0110725
0.00751035
-0.0113439
0.00789932
-0.0114599
0.00828997
-0.0114407
0.0086994
-0.0114027
0.00912898
-0.0113182
0.00958798
-0.0112794
-0.0112293
0.0100684
-4.82203e-05
0.00113924
-8.13276e-05
0.00126756
-9.22232e-05
0.00130876
-5.16533e-05
0.00102727
4.86055e-05
0.000785201
0.000225566
0.000401171
0.000493106
-6.35532e-05
0.000864264
-0.000664411
0.0013491
-0.00142229
0.00195093
-0.0023677
0.00266138
-0.00352005
0.00345319
-0.00486312
0.00427432
-0.00633501
0.0050565
-0.00781838
0.00574425
-0.00915804
0.00631671
-0.0102378
0.00678946
-0.0109962
0.00719354
-0.0114766
0.00756325
-0.0117136
0.00792648
-0.0118231
0.00829887
-0.0118131
0.00869484
-0.0117987
0.00911396
-0.0117373
0.00956409
-0.0117295
-0.0117024
0.0100371
-4.55252e-05
0.00118477
-7.18087e-05
0.00129385
-7.16208e-05
0.00130857
-1.43153e-05
0.000969966
0.000110053
0.000660833
0.000319201
0.000192023
0.000627481
-0.000371834
0.00104701
-0.00108393
0.00158472
-0.00196
0.00223751
-0.00302049
0.00298627
-0.00426881
0.00379049
-0.00566734
0.00458966
-0.00713418
0.00532011
-0.00854882
0.00594234
-0.00978027
0.00645163
-0.0107471
0.00687281
-0.0114173
0.00723895
-0.0118427
0.00758274
-0.0120574
0.0079282
-0.0121685
0.00828851
-0.0121734
0.00867548
-0.0121856
0.00908726
-0.0121491
0.00953076
-0.012173
-0.0121693
0.00999774
-4.29005e-05
0.00122767
-6.22054e-05
0.00131315
-5.04828e-05
0.00129685
2.44532e-05
0.00089503
0.000174337
0.000510949
0.000417705
-5.13455e-05
0.000768911
-0.00072304
0.00123802
-0.00155304
0.00182676
-0.00254874
0.00252295
-0.00371668
0.00329517
-0.00504103
0.00409207
-0.00646424
0.00485176
-0.00789386
0.0055218
-0.00921887
0.00607976
-0.0103382
0.00653368
-0.011201
0.00691351
-0.0117972
0.00725151
-0.0121807
0.00757749
-0.0123834
0.00791129
-0.0125024
0.008264
-0.0125261
0.00864498
-0.0125666
0.00905147
-0.0125556
0.00948974
-0.0126113
-0.0126311
0.00995153
-4.03686e-05
0.00126804
-5.25459e-05
0.00132533
-2.87642e-05
0.00127307
6.48325e-05
0.000801434
0.000242007
0.000333775
0.000521969
-0.000331308
0.00091821
-0.00111928
0.00143701
-0.00207184
0.00207229
-0.00318402
0.00280068
-0.00444507
0.00357911
-0.00581946
0.00435052
-0.00723565
0.00505872
-0.00860206
0.00566612
-0.00982627
0.00616543
-0.0108375
0.00657336
-0.011609
0.00692157
-0.0121454
0.0072397
-0.0124988
0.00755412
-0.0126978
0.00788068
-0.0128289
0.00822885
-0.0128743
0.00860575
-0.0129435
0.00900823
-0.012958
0.00944213
-0.0130452
-0.0130882
0.00989921
-3.79487e-05
0.00130599
-4.28473e-05
0.00133023
-6.32448e-06
0.00123655
0.000107117
0.000687993
0.000313707
0.000127185
0.000632814
-0.000650414
0.00107563
-0.0015621
0.00164231
-0.00263852
0.00231647
-0.00385818
0.0030629
-0.00519151
0.00383013
-0.00658669
0.00456181
-0.00796732
0.00521263
-0.00925289
0.00576017
-0.0103738
0.00620885
-0.0112862
0.00658025
-0.0119804
0.00690527
-0.0124704
0.00721004
-0.0128036
0.00751746
-0.0130052
0.00783978
-0.0131512
0.00818538
-0.0132199
0.00855932
-0.0133174
0.00895858
-0.0133573
0.0093886
-0.0134752
-0.0135408
0.00984122
-3.56566e-05
0.00134164
-3.3114e-05
0.00132769
1.6748e-05
0.00118668
0.000151713
0.000553027
0.000390133
-0.000111235
0.00075083
-0.00101111
0.0012406
-0.00205187
0.00185078
-0.0032487
0.00255305
-0.00456045
0.00330198
-0.00594043
0.0040428
-0.0073275
0.00472568
-0.0086502
0.00531857
-0.00984578
0.00581223
-0.0108675
0.00621905
-0.011693
0.00656245
-0.0123238
0.00687112
-0.012779
0.00716737
-0.0130999
0.00747092
-0.0133088
0.00779095
-0.0134713
0.00813516
-0.0135641
0.00850673
-0.013689
0.00890321
-0.0137538
0.00932958
-0.0139016
-0.0139891
0.00977784
-3.35039e-05
0.00137515
-2.33353e-05
0.00131752
4.07875e-05
0.00112256
0.000199097
0.000394718
0.000471951
-0.000384089
0.000876183
-0.00141534
0.00141145
-0.00258714
0.00205792
-0.00389517
0.00277537
-0.00527791
0.0035118
-0.00667687
0.00421483
-0.00803053
0.00484499
-0.00928036
0.00538323
-0.010384
0.00583053
-0.0113148
0.00620386
-0.0120664
0.00652644
-0.0126463
0.00682398
-0.0130766
0.00711515
-0.013391
0.00741686
-0.0136105
0.00773576
-0.0137902
0.0080792
-0.0139076
0.00844864
-0.0140585
0.00884257
-0.0141477
0.00926536
-0.0143244
-0.014433
0.00970928
-3.14974e-05
0.00140665
-1.34886e-05
0.00129951
6.60108e-05
0.00104306
0.000249802
0.000210927
0.000559705
-0.000693992
0.00100842
-0.00186406
0.00158547
-0.00316418
0.00225843
-0.00456813
0.00297735
-0.00599682
0.00368864
-0.00738816
0.00434694
-0.00868883
0.00492462
-0.00985805
0.00541379
-0.0108732
0.00582248
-0.0117235
0.00616968
-0.0124136
0.00647717
-0.0129538
0.00676742
-0.0133668
0.0070558
-0.0136794
0.00735688
-0.0139116
0.00767525
-0.0141085
0.00801816
-0.0142505
0.0083855
-0.0144258
0.00877699
-0.0145392
0.00919616
-0.0147435
-0.0148725
0.00963568
-2.9638e-05
0.00143628
-3.59269e-06
0.00127346
9.26781e-05
0.00094679
0.000304387
-7.81673e-07
0.000653692
-0.0010433
0.00114634
-0.00235671
0.00175898
-0.00377682
0.00244694
-0.00525609
0.00315444
-0.00670432
0.00383131
-0.00806503
0.00444206
-0.00929958
0.0049704
-0.0103864
0.00541704
-0.0113198
0.00579435
-0.0121008
0.00612156
-0.0127408
0.00641831
-0.0132506
0.00670393
-0.0136525
0.00699097
-0.0139665
0.00729205
-0.0142126
0.00761013
-0.0144266
0.00795249
-0.0145928
0.00831764
-0.014791
0.0087067
-0.0149282
0.0091221
-0.0151589
-0.0153076
0.00955717
-2.79199e-05
0.0014642
6.68281e-06
0.00123886
0.000121119
0.000832354
0.000363387
-0.00024305
0.000753821
-0.00143373
0.00128793
-0.00289082
0.00192776
-0.00441665
0.00261872
-0.00594705
0.00330404
-0.00738964
0.00394086
-0.00870184
0.00450446
-0.00986318
0.00498824
-0.0108702
0.00539896
-0.0117305
0.00575122
-0.012453
0.00606329
-0.0130529
0.00635251
-0.0135398
0.00663525
-0.0139352
0.00692178
-0.014253
0.00722308
-0.0145139
0.00754085
-0.0147444
0.00788252
-0.0149345
0.00824532
-0.0151538
0.00863189
-0.0153148
0.00904333
-0.0155704
-0.0157381
0.00947385
-2.63309e-05
0.00149053
1.73028e-05
0.00119523
0.000151712
0.000697945
0.000427244
-0.000518582
0.0008595
-0.00186599
0.00143047
-0.00346179
0.0020876
-0.00507378
0.00277029
-0.00662974
0.00342547
-0.00804482
0.00401986
-0.00929623
0.00453891
-0.0103822
0.00498361
-0.0113149
0.00536453
-0.0121115
0.00569699
-0.0127855
0.00599767
-0.0133535
0.00628161
-0.0138237
0.00656256
-0.0142161
0.00684896
-0.0145394
0.00715044
-0.0148154
0.00746775
-0.0150617
0.00780848
-0.0152752
0.00816872
-0.015514
0.00855269
-0.0156988
0.00895994
-0.0159776
-0.0161641
0.00938586
-2.48502e-05
0.00151538
2.83594e-05
0.00114202
0.000184875
0.00054143
0.000496212
-0.000829919
0.00096956
-0.00233934
0.0015708
-0.00406304
0.00223475
-0.00573773
0.00289963
-0.00729461
0.00351966
-0.00866485
0.00407176
-0.00984833
0.00455015
-0.0108606
0.00496126
-0.011726
0.00531775
-0.0124679
0.00563464
-0.0131024
0.00592671
-0.0136456
0.00620688
-0.0141039
0.00648663
-0.0144959
0.00677302
-0.0148258
0.00707445
-0.0151168
0.00739107
-0.0153783
0.00773054
-0.0156147
0.008088
-0.0158714
0.00846924
-0.01608
0.00887203
-0.0163804
-0.0165853
0.0092933
-2.34476e-05
0.00153883
4.00739e-05
0.0010785
0.000221038
0.000360466
0.000570269
-0.00117915
0.00108228
-0.00285135
0.00170565
-0.00468641
0.00236638
-0.00639845
0.00300616
-0.0079344
0.00358862
-0.00924731
0.00410035
-0.0103601
0.0045425
-0.0113028
0.00492515
-0.0121086
0.00526174
-0.0128045
0.00556635
-0.013407
0.00585182
-0.0139311
0.0061292
-0.0143813
0.00640799
-0.0147747
0.00669428
-0.0151121
0.00699533
-0.0154179
0.00731097
-0.015694
0.00764887
-0.0159526
0.00800332
-0.0162259
0.00838163
-0.0164583
0.00877972
-0.0167785
-0.0170019
0.0091963
-2.20817e-05
0.00156091
5.26862e-05
0.00100373
0.000260609
0.000152543
0.000649033
-0.00156757
0.0011955
-0.00339781
0.00183201
-0.00532292
0.00248068
-0.00704713
0.00309044
-0.00854416
0.00363499
-0.00979185
0.00410931
-0.0108344
0.00451973
-0.0117132
0.00487847
-0.0124674
0.00519886
-0.0131249
0.00549371
-0.0137018
0.00577398
-0.0142113
0.00604911
-0.0146564
0.00632698
-0.0150526
0.00661295
-0.015398
0.00691325
-0.0157182
0.00722762
-0.0160083
0.00756359
-0.0162886
0.0079148
-0.0165771
0.00828997
-0.0168335
0.0086831
-0.0171717
-0.0174138
0.00909497
-2.06992e-05
0.00158161
6.64779e-05
0.000916551
0.000303915
-8.48941e-05
0.000731721
-0.00199538
0.0013068
-0.00397289
0.00194739
-0.00596351
0.00257693
-0.00767667
0.00315389
-0.00912112
0.00366164
-0.0102996
0.00410205
-0.0112748
0.00448501
-0.0120962
0.00482375
-0.0128061
0.0051309
-0.0134321
0.00541784
-0.0139888
0.00569384
-0.0144873
0.005967
-0.0149296
0.00624382
-0.0153294
0.00652918
-0.0156834
0.00682832
-0.0160173
0.00714113
-0.0163211
0.0074748
-0.0166222
0.00782254
-0.0169248
0.00819436
-0.0172053
0.00858227
-0.0175596
-0.0178209
0.00898942
-1.92323e-05
0.00160084
8.17712e-05
0.000815548
0.00035115
-0.000354273
0.000817161
-0.00246139
0.0014138
-0.00456953
0.00205006
-0.00659977
0.00265526
-0.00828187
0.00319839
-0.00966424
0.00367143
-0.0107726
0.00408156
-0.0116849
0.00444093
-0.0124555
0.00476292
-0.0131281
0.00505915
-0.0137283
0.00533952
-0.0142692
0.00561184
-0.0147597
0.0058831
-0.0152009
0.00615866
-0.0156049
0.00644307
-0.0159678
0.00674065
-0.0163149
0.00705162
-0.0166321
0.00738261
-0.0169532
0.00772667
-0.0172689
0.0080949
-0.0175735
0.00847733
-0.017942
-0.0182233
0.00887973
-1.75963e-05
0.00161844
9.8916e-05
0.000699036
0.000402314
-0.000657671
0.000903863
-0.00296294
0.00151431
-0.00517998
0.00213903
-0.00722449
0.00271648
-0.00885932
0.00322606
-0.0101738
0.00366701
-0.0112136
0.00405039
-0.0120683
0.00438956
-0.0127947
0.00469748
-0.013436
0.00498453
-0.0140154
0.00525929
-0.0145439
0.00552828
-0.0150287
0.00579755
-0.0154701
0.00607159
-0.015879
0.0063547
-0.0162509
0.00665032
-0.0166105
0.00695918
-0.016941
0.00728709
-0.0172811
0.00762728
-0.0176091
0.00799169
-0.017938
0.00836838
-0.0183187
-0.0186209
0.00876595
-1.56868e-05
0.00163413
0.000118266
0.000565083
0.000457174
-0.00099658
0.000990142
-0.00349591
0.00160658
-0.00579641
0.00221398
-0.0078319
0.00276181
-0.00940715
0.00323904
-0.0106511
0.00365074
-0.0116253
0.00401066
-0.0124282
0.00433254
-0.0131166
0.00462852
-0.013732
0.00490773
-0.0142946
0.0051775
-0.0148137
0.00544331
-0.0152945
0.00571046
-0.0157373
0.00598269
-0.0161512
0.00626413
-0.0165324
0.00655741
-0.0169038
0.0068639
-0.0172474
0.00718832
-0.0176056
0.00752449
-0.0179453
0.00788482
-0.0182983
0.00825548
-0.0186893
-0.0190135
0.00864813
-1.33761e-05
0.0016475
0.000140144
0.000411563
0.000515246
-0.00137168
0.00107426
-0.00405493
0.00168935
-0.0064115
0.00227516
-0.00841771
0.00279271
-0.0099247
0.00323938
-0.0110977
0.00362471
-0.0120106
0.00396412
-0.0127676
0.00427113
-0.0134236
0.00455686
-0.0140177
0.00482921
-0.0145669
0.00509439
-0.0150789
0.00535707
-0.0155571
0.00562186
-0.0160021
0.00589199
-0.0164213
0.00617139
-0.0168118
0.00646202
-0.0171944
0.00676585
-0.0175513
0.00708638
-0.0179261
0.00741842
-0.0182773
0.00777437
-0.0186542
0.00813865
-0.0190536
-0.0194012
0.00852635
-1.05086e-05
0.00165801
0.0001648
0.000236255
0.000575809
-0.00178269
0.0011546
-0.00463372
0.00176188
-0.00701878
0.0023232
-0.00897903
0.00281074
-0.0104122
0.00322895
-0.0115159
0.00359068
-0.0123724
0.00391216
-0.0130891
0.00420632
-0.0137178
0.0044831
-0.0142945
0.00474928
-0.0148331
0.00501012
-0.0153397
0.00526961
-0.0158166
0.00553181
-0.0162643
0.00579955
-0.0166891
0.00607654
-0.0170888
0.0063642
-0.0174821
0.00666509
-0.0178522
0.00698136
-0.0182424
0.00730922
-0.0186052
0.00766041
-0.0190054
0.00801782
-0.019411
-0.0197842
0.00840078
-6.89278e-06
0.00166491
0.000192371
3.69911e-05
0.000637937
-0.00222826
0.00122974
-0.00522551
0.00182388
-0.00761293
0.00235898
-0.00951412
0.00281742
-0.0108707
0.00320943
-0.0119079
0.00355011
-0.012713
0.00385592
-0.0133949
0.00413883
-0.0140007
0.00440767
-0.0145634
0.00466816
-0.0150936
0.00492478
-0.0155963
0.00518096
-0.0160728
0.00544033
-0.0165236
0.00570538
-0.0169541
0.0059796
-0.017363
0.00626404
-0.0177666
0.00656168
-0.0181498
0.00687335
-0.018554
0.00719706
-0.0189289
0.00754298
-0.0193514
0.00789294
-0.019761
-0.0201629
0.00827161
-2.22846e-06
0.00166713
0.000222857
-0.000188095
0.00070056
-0.00270596
0.00129858
-0.00582354
0.00187545
-0.0081898
0.00238354
-0.0100222
0.00281422
-0.0113014
0.00318228
-0.012276
0.00350423
-0.013035
0.00379626
-0.0136869
0.00406924
-0.0142737
0.00433088
-0.014825
0.004586
-0.0153487
0.00483842
-0.0158488
0.00509116
-0.0163256
0.00534743
-0.0167799
0.00560951
-0.0172162
0.00588063
-0.0176341
0.00616161
-0.0180475
0.00645566
-0.0184439
0.00676249
-0.0188608
0.00708212
-0.0192485
0.00742213
-0.0196914
0.00776423
-0.0201031
-0.0205371
0.00813842
3.34629e-06
0.00166379
0.000256113
-0.000440862
0.000762524
-0.00321237
0.00136039
-0.0064214
0.00191694
-0.00874634
0.00239797
-0.0105032
0.00280246
-0.0117059
0.00314876
-0.0126223
0.00345405
-0.0133403
0.00373388
-0.0139668
0.00399795
-0.0145377
0.00425294
-0.01508
0.00450289
-0.0155986
0.00475109
-0.016097
0.00500021
-0.0165747
0.00525313
-0.0170328
0.00551197
-0.017475
0.00577967
-0.0179018
0.00605695
-0.0183248
0.00634708
-0.018734
0.00664892
-0.0191627
0.00696451
-0.0195641
0.00729782
-0.0200247
0.00763233
-0.0204376
-0.0209043
0.00799953
1.01572e-05
0.00165363
0.000291866
-0.000722571
0.000822678
-0.00374318
0.00141472
-0.00701344
0.0019489
-0.00928052
0.00240332
-0.0109577
0.00278337
-0.0120859
0.00310995
-0.0129489
0.00340037
-0.0136307
0.0036693
-0.0142357
0.00392527
-0.0147937
0.004174
-0.0153287
0.00441889
-0.0158435
0.0046628
-0.0163409
0.00490812
-0.01682
0.00515745
-0.0172822
0.00541277
-0.0177303
0.00567676
-0.0181658
0.00595011
-0.0185982
0.00623598
-0.0190199
0.0065328
-0.0194595
0.00684415
-0.0198754
0.00716992
-0.0203504
0.00749798
-0.0207657
-0.0212658
0.00785948
1.85646e-05
0.00163507
0.000329738
-0.00103374
0.000879941
-0.00429339
0.00146141
-0.00759491
0.00197195
-0.00979106
0.0024006
-0.0113863
0.00275793
-0.0124432
0.00306667
-0.0132576
0.00334377
-0.0139078
0.00360286
-0.0144948
0.00385131
-0.0150422
0.00409405
-0.0155715
0.00433391
-0.0160834
0.00457343
-0.0165804
0.00481473
-0.0170613
0.00506023
-0.0175277
0.00531176
-0.0179819
0.00557176
-0.0184258
0.00584094
-0.0188673
0.00612223
-0.0193011
0.006414
-0.0197513
0.00672064
-0.0201821
0.00703839
-0.0206682
0.00736222
-0.0210895
-0.0216296
0.00772604
2.86145e-05
0.00160645
0.000369287
-0.00137442
0.000933423
-0.00485752
0.00150058
-0.00816206
0.00198688
-0.0102774
0.00239086
-0.0117903
0.00272721
-0.0127796
0.00301981
-0.0135502
0.00328492
-0.0141729
0.00353504
-0.0147449
0.00377645
-0.0152836
0.00401339
-0.0158084
0.00424823
-0.0163182
0.00448324
-0.0168154
0.00472037
-0.0172984
0.00496181
-0.0177691
0.00520932
-0.0182294
0.00546509
-0.0186816
0.00572987
-0.0191321
0.00600633
-0.0195776
0.00629301
-0.020038
0.00659432
-0.0204834
0.00690489
-0.0209788
0.00723152
-0.0214161
-0.0219734
0.00757533
4.03209e-05
0.00156613
0.000410005
-0.0017441
0.000982415
-0.00542993
0.00153243
-0.00871208
0.00199439
-0.0107393
0.00237492
-0.0121708
0.00269196
-0.0130966
0.00296994
-0.0138282
0.00322416
-0.0144271
0.00346598
-0.0149867
0.0037007
-0.0155183
0.00393195
-0.0160396
0.00416174
-0.016548
0.00439212
-0.0170458
0.00462488
-0.0175312
0.00486205
-0.0180063
0.00510529
-0.0184726
0.0053566
-0.0189329
0.00561675
-0.0193923
0.00588815
-0.019849
0.00616959
-0.0203194
0.00646509
-0.0207789
0.00677023
-0.0212839
0.00709206
-0.021738
-0.0223052
0.00742389
5.36038e-05
0.00151253
0.000451334
-0.00214183
0.00102644
-0.00600504
0.00155733
-0.00924297
0.00199518
-0.0111772
0.00235358
-0.0125292
0.00265287
-0.0133959
0.00291757
-0.0140929
0.00316182
-0.0146714
0.00339589
-0.0152208
0.00362415
-0.0157466
0.00384977
-0.0162653
0.00407444
-0.0167727
0.00430006
-0.0172714
0.00452827
-0.0177594
0.00476097
-0.018239
0.00499971
-0.0187114
0.00524632
-0.0191795
0.00550163
-0.0196476
0.00576776
-0.0201151
0.00604374
-0.0205954
0.00633338
-0.0210685
0.00663233
-0.0215828
0.00694859
-0.0220542
-0.0226317
0.00727502
6.8283e-05
0.00144424
0.000492666
-0.00256621
0.00106525
-0.00657762
0.00157569
-0.00975341
0.00198995
-0.0115914
0.00232756
-0.0128668
0.00261054
-0.0136789
0.0028631
-0.0143454
0.00309816
-0.0149065
0.00332487
-0.0154475
0.00354686
-0.0159685
0.00376686
-0.0164853
0.00398634
-0.0169922
0.00420706
-0.0174921
0.00443055
-0.0179829
0.00465857
-0.018467
0.0048926
-0.0189454
0.00513431
-0.0194212
0.00538454
-0.0198978
0.0056452
-0.0203758
0.00591557
-0.0208658
0.00619899
-0.021352
0.00649202
-0.0218759
0.00680157
-0.0223638
-0.0229497
0.0071196
8.40976e-05
0.00136015
0.000533349
-0.00301546
0.00109874
-0.00714301
0.00158795
-0.0102426
0.00197934
-0.0119828
0.00229748
-0.013185
0.00256547
-0.0139469
0.00280689
-0.0145869
0.00303336
-0.0151329
0.00325305
-0.0156672
0.00346887
-0.0161844
0.00368324
-0.0166996
0.00389745
-0.0172064
0.00411314
-0.0177078
0.00433174
-0.0182015
0.00455489
-0.0186902
0.004784
-0.0191745
0.0050206
-0.0196578
0.00526555
-0.0201428
0.00552056
-0.0206308
0.00578507
-0.0211303
0.00606223
-0.0216291
0.00634877
-0.0221624
0.00665107
-0.0226661
-0.0232612
0.00696258
0.000100743
0.0012594
0.000572714
-0.00348744
0.00112698
-0.00769728
0.00159458
-0.0107102
0.00196394
-0.0123522
0.0022639
-0.0134849
0.00251808
-0.0142011
0.00274922
-0.014818
0.0029676
-0.0153513
0.0031805
-0.0158801
0.00339022
-0.0163941
0.00359894
-0.0169084
0.00380778
-0.0174152
0.0040183
-0.0179183
0.00423184
-0.018415
0.00444994
-0.0189083
0.00467394
-0.0193985
0.00490523
-0.0198891
0.0051447
-0.0203822
0.00539386
-0.0208799
0.00565236
-0.0213888
0.00592298
-0.0218997
0.0062029
-0.0224423
0.006498
-0.0229612
-0.0235646
0.00680141
0.000117918
0.00114148
0.000610118
-0.00397963
0.00115011
-0.00823728
0.00159604
-0.0111561
0.0019443
-0.0127005
0.00222729
-0.0137679
0.00246873
-0.0144425
0.0026903
-0.0150396
0.002901
-0.015562
0.00310727
-0.0160864
0.00331092
-0.0165977
0.00351395
-0.0171114
0.00371733
-0.0176186
0.00392255
-0.0181235
0.00413087
-0.0186233
0.00434375
-0.0191211
0.00456244
-0.0196172
0.00478824
-0.0201149
0.00502203
-0.020616
0.00526517
-0.0211231
0.00551745
-0.0216411
0.0057814
-0.0221637
0.00605444
-0.0227154
0.00634187
-0.0232486
-0.0238605
0.00663777
0.00013537
0.00100611
0.000644989
-0.00448925
0.00116835
-0.00876064
0.00159276
-0.0115806
0.0019209
-0.0130286
0.00218808
-0.0140351
0.00241772
-0.0146721
0.00263032
-0.0152522
0.00283365
-0.0157653
0.00303341
-0.0162861
0.00323101
-0.0167953
0.00342828
-0.0173086
0.0036261
-0.0178164
0.0038259
-0.0183233
0.00402885
-0.0188263
0.00423634
-0.0193286
0.00444954
-0.0198304
0.00466968
-0.020335
0.00489761
-0.0208439
0.00513454
-0.02136
0.00538043
-0.0218869
0.0056375
-0.0224208
0.00590345
-0.0229813
0.0061833
-0.0235284
-0.0241482
0.00647101
0.000152927
0.000853188
0.000676867
-0.00501319
0.00118194
-0.00926571
0.00158519
-0.0119838
0.0018942
-0.0133376
0.00214664
-0.0142875
0.0023653
-0.0148908
0.00256942
-0.0154563
0.00276562
-0.0159615
0.00295896
-0.0164795
0.0031505
-0.0169869
0.00334196
-0.0175001
0.00353412
-0.0180086
0.00372837
-0.0185176
0.0039258
-0.0190237
0.00412774
-0.0195306
0.00433528
-0.0200379
0.00454958
-0.0205493
0.00477146
-0.0210658
0.00500203
-0.0215906
0.00524135
-0.0221263
0.00549138
-0.0226708
0.00575009
-0.02324
0.006022
-0.0238004
-0.0244279
0.00630166
0.00017051
0.000682678
0.000705432
-0.00554812
0.00119116
-0.00975144
0.00157371
-0.0123663
0.00186459
-0.0136285
0.00210327
-0.0145262
0.00231167
-0.0150992
0.00250773
-0.0156523
0.00269698
-0.0161508
0.00288395
-0.0166664
0.00306941
-0.0171723
0.00325498
-0.0176857
0.00344139
-0.018195
0.00362997
-0.0187062
0.00382174
-0.0192155
0.00401797
-0.0197268
0.00421969
-0.0202397
0.00442798
-0.0207576
0.00464366
-0.0212815
0.0048677
-0.0218146
0.00510028
-0.0223588
0.0053431
-0.0229136
0.00559437
-0.0234913
0.00585833
-0.0240643
-0.0246992
0.00612964
0.000188129
0.000494549
0.000730505
-0.00609049
0.00119632
-0.0102173
0.00155869
-0.0127287