/*--------------------------------*- C++ -*----------------------------------*\
  =========                 |
  \\      /  F ield         | OpenFOAM: The Open Source CFD Toolbox
   \\    /   O peration     | Website:  https://openfoam.org
    \\  /    A nd           | Version:  7
     \\/     M anipulation  |
\*---------------------------------------------------------------------------*/
FoamFile
{
    version     2.0;
    format      ascii;
    class       volScalarField;
    location    "19";
    object      T;
}
// * * * * * * * * * * * * * * * * * * * * * * * * * * * * * * * * * * * * * //

dimensions      [0 0 0 1 0 0 0];

internalField   nonuniform List<scalar> 
2413
(
0.993361
1.01479
1.03261
1.0452
1.05587
1.05886
1.05933
1.0605
0.960135
0.97089
0.988857
1.00783
1.0258
1.04115
1.05056
1.05641
0.95364
0.954792
0.958612
0.967471
0.981534
1.00068
1.02056
1.03332
0.953982
0.954076
0.954213
0.95483
0.95727
0.963512
0.976355
0.993231
0.956976
0.956105
0.955156
0.954709
0.954814
0.955178
0.956787
0.961448
0.960864
0.959472
0.958099
0.956468
0.956145
0.955784
0.955651
0.955842
0.965011
0.963753
0.962423
0.96053
0.958942
0.957894
0.956686
0.956197
0.968292
0.967322
0.96627
0.964713
0.963104
0.961905
0.960493
0.95894
0.971484
0.970563
0.969687
0.968253
0.966824
0.965784
0.964516
0.962919
0.974499
0.973562
0.972776
0.971564
0.970168
0.969294
0.968346
0.966923
0.977696
0.976489
0.975717
0.974583
0.973092
0.972261
0.971502
0.970394
0.980992
0.979543
0.978703
0.977737
0.976241
0.975144
0.974436
0.973516
0.984268
0.982715
0.981573
0.980736
0.979445
0.978082
0.977297
0.976529
0.98737
0.986099
0.984591
0.983659
0.982673
0.981317
0.980167
0.97936
0.990207
0.989282
0.987859
0.986521
0.985687
0.98465
0.983338
0.982272
0.99313
0.992199
0.991151
0.989615
0.988531
0.987739
0.986662
0.985341
0.996322
0.994997
0.994154
0.992984
0.991525
0.990644
0.989833
0.988638
0.99967
0.998026
0.996963
0.99611
0.994762
0.993507
0.992754
0.991851
1.0027
1.00127
0.99982
0.999027
0.998053
0.996637
0.995578
0.994818
1.01232
1.01124
1.00992
1.00842
1.00731
1.0062
1.00476
1.00356
1.00253
1.00128
0.999747
0.998569
0.997395
0.995706
0.994275
0.993153
0.991705
0.990504
0.989871
0.989278
0.989249
0.989523
0.989908
0.990572
0.991949
0.994301
0.997138
1.00059
1.00346
1.00581
1.00795
1.00922
1.00961
1.00979
1.00979
1.00958
1.00914
1.00859
1.00796
1.00727
1.00652
1.00577
1.00506
1.0044
1.00379
1.0032
1.0026
1.00194
1.0015
1.0014
1.00147
1.00169
1.00232
1.00369
1.00635
1.01054
1.01455
1.06024
1.05965
1.05916
1.05855
1.05739
1.05575
1.05385
1.05169
1.0498
1.04764
1.04547
1.04388
1.04201
1.04021
1.03884
1.03715
1.03557
1.03456
1.03345
1.03221
1.03116
1.03025
1.02902
1.02767
1.02679
1.02584
1.02457
1.02366
1.02294
1.02215
1.02098
1.02034
1.01998
1.01971
1.01977
1.01974
1.01991
1.02067
1.02251
1.02626
1.03081
1.03502
1.03653
1.03651
1.03645
1.03618
1.03541
1.03449
1.03315
1.03153
1.03038
1.02914
1.02761
1.02665
1.02573
1.02442
1.02335
1.02241
1.02113
1.01977
1.01875
1.0176
1.01617
1.01507
1.01402
1.0127
1.0113
1.01018
1.00902
1.00754
1.0063
1.00524
1.00397
1.0024
1.00127
1.00013
0.998456
0.996914
0.995681
0.994156
0.992634
0.991602
0.99066
0.989958
0.989692
0.98968
0.989732
0.990043
0.99103
0.992584
0.995021
0.998122
1.00116
1.00452
1.0064
1.00739
1.0084
1.00886
1.00886
1.00874
1.00842
1.00794
1.00735
1.00667
1.00596
1.00519
1.00432
1.00341
1.00254
1.00161
1.00058
0.999438
0.998851
0.998819
0.998974
0.999571
1.00093
1.00346
1.00755
1.0121
1.05967
1.0598
1.05939
1.05923
1.0586
1.05755
1.05675
1.05583
1.0543
1.05247
1.05032
1.04844
1.04654
1.04441
1.04269
1.04092
1.03928
1.03792
1.03651
1.03514
1.0337
1.03261
1.0317
1.03045
1.02944
1.02875
1.02777
1.02672
1.0258
1.02499
1.02398
1.02293
1.02249
1.022
1.02195
1.02213
1.02223
1.02273
1.02398
1.0267
1.03104
1.03545
1.03862
1.03899
1.03896
1.03878
1.03806
1.03725
1.0361
1.03448
1.03334
1.03217
1.03063
1.02963
1.02873
1.02737
1.02622
1.02524
1.0239
1.02248
1.02144
1.02025
1.01878
1.01769
1.01664
1.01532
1.01402
1.01299
1.01187
1.01041
1.00919
1.00806
1.00669
1.00503
1.00382
1.00261
1.00087
0.999295
0.998007
0.996379
0.994582
0.993385
0.992222
0.991135
0.990526
0.990078
0.989668
0.989675
0.989782
0.99016
0.991054
0.992669
0.994758
0.997725
1.00061
1.00325
1.00608
1.00717
1.00758
1.00785
1.0077
1.00745
1.00717
1.00679
1.00625
1.00556
1.00467
1.00379
1.00302
1.00213
1.00108
0.999851
0.998897
0.99855
0.998578
0.998886
0.999872
1.00195
1.00559
1.01025
1.04443
1.05236
1.05633
1.05831
1.05839
1.05797
1.05747
1.05713
1.05635
1.05536
1.05432
1.05299
1.05126
1.04908
1.04709
1.04521
1.04328
1.04159
1.03991
1.03858
1.03731
1.03591
1.03482
1.03369
1.03222
1.0311
1.03004
1.02904
1.02832
1.02767
1.02702
1.02624
1.02557
1.02492
1.02455
1.02473
1.02483
1.02499
1.02574
1.02754
1.03107
1.03554
1.03945
1.04147
1.04155
1.04151
1.04101
1.04031
1.03936
1.03778
1.03654
1.03536
1.03368
1.03255
1.03162
1.03022
1.029
1.02803
1.02672
1.02528
1.02425
1.02307
1.02159
1.02048
1.0194
1.01799
1.01667
1.01563
1.01448
1.01305
1.01191
1.01078
1.00939
1.00773
1.00645
1.00516
1.00336
1.00173
1.00042
0.998761
0.996913
0.995527
0.99413
0.992413
0.991348
0.990591
0.990012
0.989833
0.98977
0.989607
0.989637
0.989867
0.99048
0.991868
0.994036
0.996577
0.999703
1.00211
1.00405
1.00598
1.00669
1.00683
1.0069
1.00676
1.00641
1.0061
1.00564
1.00495
1.00412
1.00311
1.00196
1.00093
0.999937
0.999303
0.999206
0.999357
0.99998
1.00167
1.00508
1.00979
1.00898
1.02524
1.03544
1.0444
1.04998
1.05344
1.05619
1.05657
1.05626
1.0558
1.05558
1.05526
1.05436
1.05314
1.05174
1.05012
1.04808
1.04603
1.044
1.04213
1.04079
1.03929
1.03805
1.03694
1.03549
1.03425
1.03317
1.0319
1.03114
1.0304
1.02958
1.02888
1.0282
1.02764
1.02724
1.02731
1.02753
1.02759
1.02805
1.02927
1.03172
1.03589
1.04006
1.04324
1.04401
1.044
1.04364
1.04314
1.04253
1.04125
1.03999
1.03883
1.03715
1.03577
1.03475
1.0333
1.0319
1.03087
1.02951
1.02797
1.02698
1.02584
1.02442
1.02335
1.02229
1.02088
1.01956
1.01848
1.01726
1.01568
1.01449
1.01333
1.01182
1.01023
1.00897
1.00763
1.00583
1.00422
1.00286
1.00126
0.999369
0.997986
0.996592
0.994813
0.993403
0.992331
0.991128
0.990292
0.989896
0.989427
0.989246
0.989297
0.989391
0.989601
0.990106
0.991095
0.99302
0.995495
0.99811
1.00087
1.00277
1.00422
1.00559
1.00594
1.00594
1.00614
1.00615
1.00604
1.00569
1.00508
1.00419
1.00315
1.00202
1.001
1.00052
1.00056
1.00099
1.0025
1.00573
1.01029
0.96899
0.981095
0.995866
1.01017
1.02506
1.03408
1.04296
1.0476
1.05008
1.05286
1.0544
1.05422
1.05404
1.05391
1.05349
1.05257
1.05141
1.05017
1.04885
1.04725
1.04547
1.04355
1.04159
1.04022
1.0386
1.03713
1.03614
1.03503
1.03427
1.03352
1.03259
1.03179
1.03096
1.03044
1.03026
1.02994
1.02979
1.0298
1.03011
1.03105
1.03286
1.03614
1.04049
1.04441
1.04645
1.04669
1.04651
1.04608
1.04563
1.04458
1.04325
1.04212
1.04048
1.03893
1.03792
1.03651
1.03505
1.03399
1.03271
1.03111
1.03002
1.02885
1.02731
1.02615
1.02505
1.02357
1.02226
1.02124
1.02
1.01848
1.01727
1.01604
1.01446
1.01283
1.01154
1.01015
1.00831
1.00678
1.00543
1.00378
1.00199
1.00058
0.999202
0.997397
0.995881
0.994802
0.993431
0.992029
0.991075
0.990217
0.989458
0.989237
0.989143
0.98913
0.989198
0.989317
0.989717
0.990601
0.992082
0.994454
0.996985
0.999445
1.00172
1.00313
1.00417
1.00515
1.00555
1.00571
1.00595
1.006
1.0057
1.00533
1.0048
1.00409
1.00339
1.00313
1.00331
1.00437
1.00721
1.01146
0.956551
0.958634
0.963308
0.970462
0.981846
0.995131
1.00893
1.02254
1.03239
1.04163
1.04593
1.04728
1.04951
1.05107
1.05177
1.05155
1.05113
1.05108
1.0508
1.05009
1.04898
1.04767
1.04611
1.0446
1.04301
1.04119
1.0399
1.03871
1.03754
1.03649
1.03522
1.03439
1.03379
1.03327
1.03307
1.03279
1.03259
1.03255
1.03258
1.03304
1.03426
1.03646
1.04015
1.04429
1.04757
1.04918
1.04929
1.04907
1.04876
1.04802
1.04674
1.0456
1.0441
1.04229
1.04114
1.03973
1.03804
1.03697
1.03579
1.03423
1.03319
1.03211
1.03062
1.02937
1.0282
1.02662
1.02515
1.02402
1.02267
1.02108
1.0199
1.01866
1.01702
1.01547
1.01417
1.01275
1.01096
1.00952
1.00821
1.00663
1.00493
1.00356
1.0022
1.00049
0.998908
0.997606
0.996072
0.99425
0.993296
0.992315
0.991149
0.990255
0.989598
0.989056
0.988962
0.989029
0.989189
0.989316
0.989635
0.990366
0.991661
0.993515
0.996037
0.998688
1.00088
1.00254
1.00369
1.00452
1.00521
1.00548
1.00557
1.00573
1.00584
1.0058
1.00552
1.00553
1.00592
1.00697
1.00947
1.01367
0.956436
0.956551
0.956709
0.957214
0.959065
0.963469
0.970552
0.981696
0.994045
1.00738
1.01941
1.02875
1.03921
1.04496
1.0455
1.04625
1.0475
1.0485
1.04936
1.04936
1.04876
1.04836
1.04797
1.0474
1.04659
1.04542
1.04423
1.04309
1.04172
1.04034
1.03908
1.03794
1.03723
1.03651
1.03555
1.035
1.03483
1.03498
1.03513
1.03543
1.03619
1.03769
1.04036
1.04434
1.04802
1.05079
1.05174
1.05165
1.05143
1.05103
1.04999
1.04895
1.04774
1.04598
1.0447
1.04335
1.04151
1.04024
1.03907
1.03742
1.03627
1.03519
1.03366
1.03241
1.03127
1.02971
1.02822
1.02705
1.02559
1.02398
1.02275
1.02145
1.01978
1.01824
1.01691
1.01543
1.01362
1.01226
1.011
1.00946
1.00789
1.00669
1.00544
1.00387
1.00238
1.0011
0.999674
0.997868
0.996428
0.995121
0.99343
0.99233
0.991559
0.990637
0.989945
0.989368
0.989217
0.989234
0.989461
0.989717
0.989909
0.990337
0.991467
0.993328
0.995503
0.997792
1.00006
1.0021
1.00319
1.00399
1.00474
1.00507
1.0053
1.00547
1.00561
1.00598
1.00684
1.00814
1.01036
1.01442
0.957904
0.957432
0.956952
0.956959
0.95699
0.957195
0.957769
0.9596
0.963482
0.969932
0.980251
0.991689
1.00453
1.01674
1.02528
1.0345
1.04176
1.04383
1.0454
1.04517
1.04554
1.04642
1.04683
1.04682
1.04654
1.04618
1.04579
1.04523
1.04449
1.04375
1.04297
1.04225
1.04145
1.04047
1.03923
1.03823
1.03773
1.03745
1.03755
1.03765
1.03803
1.03903
1.04102
1.04425
1.0481
1.05141
1.05371
1.05416
1.05407
1.05387
1.05322
1.05223
1.05119
1.04952
1.04808
1.04684
1.0451
1.04373
1.04262
1.04098
1.03967
1.03854
1.03697
1.03559
1.03442
1.03278
1.03114
1.02995
1.02846
1.02687
1.02564
1.02428
1.02262
1.02114
1.01981
1.01835
1.01666
1.01532
1.01408
1.0126
1.01103
1.00983
1.00863
1.00707
1.00574
1.00463
1.00334
1.00172
1.00029
0.999004
0.997371
0.995619
0.994418
0.993171
0.992071
0.991364
0.990749
0.990308
0.989893
0.989812
0.989858
0.990053
0.990256
0.990548
0.991309
0.992698
0.994612
0.996788
0.998911
1.0007
1.00241
1.0033
1.00357
1.00412
1.00479
1.00537
1.00626
1.00761
1.00977
1.0136
0.961436
0.960533
0.959762
0.958945
0.958176
0.957511
0.957524
0.957668
0.957901
0.958421
0.959953
0.963386
0.969182
0.978223
0.989084
1.00066
1.01237
1.02225
1.03017
1.03567
1.04019
1.04392
1.04529
1.04514
1.04482
1.04536
1.04536
1.04469
1.04396
1.04371
1.04387
1.04398
1.04389
1.04347
1.0427
1.04191
1.04142
1.04099
1.04071
1.04049
1.04049
1.04101
1.04235
1.04465
1.0478
1.05115
1.05398
1.05593
1.0564
1.05641
1.05623
1.05555
1.0547
1.05332
1.05173
1.05048
1.04877
1.04714
1.04597
1.04438
1.04296
1.04188
1.04033
1.03883
1.03766
1.0361
1.03435
1.03311
1.03155
1.02991
1.02865
1.02721
1.02553
1.02408
1.02268
1.02116
1.01962
1.01831
1.01715
1.01583
1.01438
1.01323
1.0121
1.01059
1.0092
1.00811
1.00684
1.00528
1.00399
1.00281
1.00135
0.999646
0.998368
0.997084
0.995409
0.994304
0.993409
0.992441
0.991817
0.991311
0.990886
0.990467
0.990222
0.990151
0.990063
0.990169
0.990714
0.991745
0.993289
0.995083
0.996879
0.998594
1.00013
1.0017
1.00277
1.00332
1.00423
1.00579
1.00803
1.01151
0.965464
0.964485
0.963505
0.962341
0.961167
0.959761
0.959193
0.959132
0.95872
0.958475
0.958425
0.958542
0.958979
0.960337
0.963195
0.968157
0.975736
0.985363
0.996581
1.00737
1.01712
1.02613
1.0314
1.03553
1.0397
1.04288
1.04386
1.04412
1.04347
1.04342
1.04373
1.0435
1.0432
1.04303
1.04323
1.04348
1.04377
1.04365
1.04347
1.04331
1.04347
1.04393
1.04466
1.04603
1.04833
1.05142
1.05455
1.05697
1.05831
1.05864
1.05858
1.05821
1.05766
1.05682
1.05547
1.05427
1.05274
1.05102
1.0497
1.04807
1.04637
1.04519
1.04365
1.04196
1.04078
1.03929
1.03742
1.03621
1.03473
1.03306
1.03179
1.03029
1.02856
1.02719
1.02579
1.02423
1.02286
1.02147
1.02021
1.01895
1.01749
1.0163
1.0153
1.01397
1.01267
1.01164
1.01043
1.00888
1.00757
1.00637
1.00495
1.00334
1.00212
1.00095
0.999351
0.998053
0.996998
0.99554
0.994291
0.9935
0.992615
0.991877
0.991392
0.990944
0.990414
0.990112
0.989831
0.989557
0.98969
0.99025
0.991229
0.992524
0.99395
0.995443
0.997069
0.998721
1.00053
1.00238
1.00459
1.00753
0.969129
0.968201
0.967474
0.966562
0.965343
0.96383
0.962688
0.961889
0.961026
0.959933
0.959053
0.959068
0.959314
0.959073
0.959072
0.959341
0.960361
0.962628
0.966795
0.973316
0.981465
0.991499
1.00276
1.01179
1.02036
1.02696
1.0314
1.03555
1.03957
1.04146
1.04257
1.0429
1.04238
1.04228
1.04307
1.04378
1.04368
1.04361
1.04393
1.04461
1.04549
1.04625
1.04678
1.04763
1.04941
1.0521
1.05511
1.05762
1.05975
1.06084
1.06103
1.06093
1.06061
1.05998
1.05888
1.05776
1.05644
1.0547
1.05335
1.05177
1.05007
1.04882
1.04736
1.04547
1.04408
1.04261
1.04067
1.03939
1.03797
1.03616
1.03484
1.03334
1.0315
1.03015
1.02882
1.02718
1.02599
1.02476
1.02341
1.02225
1.0209
1.01951
1.01841
1.01704
1.01555
1.01457
1.01352
1.01211
1.01097
1.00984
1.00843
1.0069
1.00558
1.00438
1.00287
1.00151
1.00044
0.999055
0.997543
0.996431
0.995136
0.993573
0.992756
0.992098
0.991392
0.99081
0.99028
0.98975
0.989176
0.988723
0.98852
0.988401
0.988597
0.989159
0.990252
0.991698
0.993388
0.995431
0.997826
1.00096
0.972357
0.971319
0.970658
0.970045
0.969166
0.967945
0.966664
0.965797
0.964998
0.963863
0.962256
0.961362
0.960905
0.960168
0.959327
0.95932
0.959425
0.959419
0.959588
0.960174
0.96183
0.964994
0.970361
0.977709
0.986218
0.996672
1.00684
1.01464
1.02266
1.02762
1.03164
1.03579
1.0382
1.04004
1.0418
1.0427
1.04276
1.04278
1.04365
1.04483
1.04568
1.04667
1.04734
1.04843
1.05048
1.05292
1.05514
1.05733
1.06013
1.06242
1.06305
1.06322
1.0632
1.06297
1.06232
1.06137
1.06013
1.05844
1.05699
1.05555
1.05361
1.05214
1.05063
1.0488
1.04744
1.04612
1.04415
1.04269
1.04121
1.03931
1.03788
1.03646
1.0346
1.03319
1.03192
1.0302
1.0289
1.02776
1.02624
1.02508
1.02398
1.02262
1.0215
1.02035
1.01882
1.01761
1.0165
1.01486
1.0136
1.01259
1.01128
1.01001
1.00882
1.00757
1.00616
1.00469
1.00347
1.00209
1.00051
0.999333
0.998057
0.996431
0.995155
0.993977
0.992563
0.991529
0.990816
0.990214
0.989628
0.989037
0.988407
0.98768
0.986917
0.986212
0.986209
0.986526
0.987249
0.988393
0.990102
0.992687
0.975599
0.974563
0.973648
0.973056
0.972416
0.971472
0.970274
0.969467
0.9688
0.967844
0.966516
0.965018
0.96425
0.963474
0.962144
0.961219
0.960819
0.960277
0.959708
0.959774
0.959771
0.959822
0.96015
0.961189
0.963549
0.967662
0.973903
0.981455
0.990176
1.00026
1.00848
1.01611
1.02382
1.02796
1.03168
1.03498
1.03701
1.03899
1.04185
1.0435
1.04402
1.04548
1.04689
1.04852
1.05077
1.05353
1.0554
1.05756
1.06045
1.06304
1.06394
1.06457
1.065
1.06508
1.0649
1.06431
1.06344
1.06215
1.06068
1.05919
1.05735
1.05572
1.05427
1.05235
1.05068
1.04919
1.04731
1.04583
1.04438
1.04237
1.04078
1.03937
1.03752
1.03607
1.03493
1.03337
1.03199
1.03085
1.02935
1.02792
1.02677
1.02525
1.02384
1.02286
1.02157
1.0204
1.01943
1.01798
1.01648
1.01536
1.0139
1.01243
1.01139
1.01018
1.00888
1.00757
1.00629
1.00493
1.00325
1.00188
1.00061
0.998978
0.997686
0.996464
0.994932
0.993559
0.992373
0.991113
0.990117
0.989385
0.98856
0.987797
0.987136
0.98632
0.985494
0.985069
0.984922
0.985103
0.985741
0.987166
0.978609
0.977729
0.976613
0.975822
0.975334
0.974647
0.973586
0.97269
0.972174
0.971496
0.970386
0.969024
0.968131
0.967312
0.966155
0.964511
0.96371
0.963126
0.962037
0.961313
0.960918
0.960422
0.960036
0.960059
0.960119
0.960345
0.960952
0.96244
0.965245
0.969881
0.976386
0.983809
0.992543
1.00177
1.00923
1.01708
1.0253
1.02854
1.03271
1.03555
1.03701
1.04
1.04408
1.04656
1.04881
1.05204
1.05458
1.05746
1.06087
1.06349
1.06455
1.06595
1.06705
1.06722
1.0671
1.06668
1.066
1.06517
1.06401
1.06273
1.06114
1.0593
1.05769
1.05596
1.05423
1.05266
1.05054
1.0487
1.04719
1.04527
1.04362
1.04229
1.04055
1.03881
1.0376
1.03606
1.03459
1.03351
1.03216
1.03074
1.02961
1.02824
1.02671
1.02559
1.02425
1.02258
1.02151
1.0203
1.01891
1.0179
1.01667
1.01509
1.01392
1.01266
1.0112
1.00998
1.00871
1.00743
1.00598
1.00453
1.0032
1.00151
0.999952
0.998714
0.997133
0.99575
0.994637
0.993247
0.991839
0.990665
0.989562
0.988472
0.987586
0.986647
0.985538
0.984964
0.984825
0.984831
0.985148
0.98594
0.981565
0.980863
0.979889
0.978715
0.978065
0.977526
0.976661
0.975578
0.975048
0.97456
0.973724
0.972507
0.971675
0.971036
0.970124
0.968713
0.967668
0.966924
0.965849
0.964204
0.963375
0.962718
0.961662
0.961324
0.961082
0.960738
0.960568
0.96048
0.960544
0.960825
0.961697
0.9635
0.966567
0.971462
0.978106
0.985386
0.994399
1.00286
1.00997
1.01846
1.02485
1.02994
1.03655
1.03891
1.04149
1.04626
1.05067
1.05446
1.05885
1.06252
1.0644
1.06692
1.06872
1.0689
1.06886
1.06872
1.06846
1.06801
1.06733
1.0663
1.06496
1.06329
1.06161
1.05975
1.05753
1.05556
1.05357
1.05172
1.05026
1.04849
1.04649
1.04502
1.04341
1.04169
1.04051
1.03914
1.0375
1.03621
1.03471
1.03297
1.03177
1.03057
1.02918
1.0282
1.02706
1.02543
1.0241
1.02281
1.0211
1.01992
1.01886
1.01741
1.01629
1.01515
1.01358
1.01231
1.01107
1.00966
1.00835
1.00702
1.00577
1.00432
1.00271
1.00138
0.999866
0.998149
0.996862
0.995455
0.993949
0.992797
0.991666
0.990404
0.989108
0.987832
0.986351
0.9853
0.98495
0.984979
0.985287
0.985951
0.984396
0.983815
0.983063
0.981899
0.980958
0.980432
0.979719
0.978612
0.977842
0.977374
0.976697
0.975561
0.974662
0.974173
0.973483
0.972334
0.971308
0.970697
0.969875
0.968442
0.967276
0.966488
0.965299
0.96387
0.963204
0.962487
0.961566
0.96141
0.961227
0.961011
0.960775
0.960676
0.960766
0.961159
0.962252
0.964331
0.967608
0.972751
0.978949
0.986828
0.996006
1.0036
1.01264
1.02136
1.02743
1.03575
1.04389
1.04698
1.05207
1.05791
1.06147
1.06488
1.06769
1.06887
1.06936
1.0698
1.06981
1.06973
1.06962
1.06914
1.06829
1.06709
1.06555
1.06374
1.06153
1.0594
1.05741
1.05507
1.05327
1.05163
1.04962
1.04802
1.04655
1.04455
1.04314
1.04184
1.04026
1.039
1.03771
1.03601
1.03463
1.03332
1.03155
1.0302
1.02905
1.02756
1.02642
1.0254
1.02388
1.02245
1.02128
1.0197
1.01839
1.01737
1.01598
1.01468
1.01353
1.01208
1.01073
1.00941
1.00806
1.00676
1.00534
1.00411
1.00282
1.0012
0.999866
0.998493
0.996833
0.995478
0.994107
0.992675
0.991269
0.990013
0.988772
0.987282
0.986256
0.985845
0.985844
0.986168
0.987376
0.986652
0.986056
0.985133
0.983954
0.983296
0.982729
0.981753
0.980652
0.980137
0.979588
0.978623
0.977566
0.977035
0.976492
0.975541
0.974428
0.973898
0.973307
0.972192
0.970998
0.970292
0.969393
0.967934
0.966938
0.966125
0.964825
0.963736
0.963118
0.962299
0.961356
0.961248
0.961106
0.960962
0.960868
0.960809
0.960914
0.961369
0.962557
0.964801
0.96858
0.973725
0.980133
0.989313
0.998291
1.0073
1.01957
1.02914
1.03706
1.04931
1.05741
1.06085
1.06503
1.06755
1.06896
1.06957
1.06955
1.06945
1.06942
1.06948
1.06939
1.06904
1.06825
1.06712
1.06565
1.06372
1.06171
1.05952
1.05731
1.0554
1.05323
1.05107
1.04964
1.04795
1.04638
1.04498
1.04312
1.04135
1.03998
1.03839
1.03716
1.03615
1.03464
1.03309
1.03181
1.03015
1.02861
1.02748
1.02607
1.02473
1.02374
1.0224
1.02087
1.01974
1.01833
1.01693
1.01591
1.01462
1.01331
1.01211
1.01075
1.00944
1.00804
1.00674
1.00553
1.00408
1.00284
1.0017
1.00016
0.998768
0.997451
0.995946
0.994614
0.993173
0.991608
0.990082
0.988598
0.988113
0.987993
0.98809
0.990643
0.989495
0.988888
0.988249
0.987165
0.986201
0.985663
0.984933
0.983764
0.982899
0.982389
0.981635
0.98045
0.979731
0.979303
0.978571
0.977426
0.976754
0.976281
0.975453
0.974306
0.973659
0.972994
0.9718
0.970708
0.969966
0.96889
0.967456
0.966616
0.965719
0.964353
0.963533
0.962957
0.962161
0.961299
0.961153
0.961021
0.960835
0.960791
0.960754
0.960859
0.96136
0.962669
0.965283
0.969678
0.975503
0.983793
0.995552
1.00621
1.02004
1.0362
1.04565
1.05465
1.06404
1.06809
1.06944
1.06972
1.06978
1.06977
1.06955
1.0692
1.06885
1.06848
1.06807
1.06768
1.06693
1.06552
1.06368
1.0615
1.05948
1.05759
1.05546
1.05364
1.05169
1.04973
1.04827
1.04655
1.04477
1.04329
1.04162
1.03966
1.03826
1.03675
1.03531
1.03428
1.03305
1.03159
1.03036
1.02887
1.02714
1.02599
1.02474
1.02328
1.02226
1.0211
1.01956
1.01842
1.01714
1.0157
1.01464
1.01342
1.01221
1.01105
1.00979
1.00863
1.00728
1.00592
1.00476
1.00337
1.00201
1.0009
0.999544
0.998169
0.996906
0.995408
0.99399
0.992441
0.9912
0.990963
0.990955
0.993882
0.992624
0.991621
0.991107
0.990364
0.989249
0.988499
0.98794
0.987023
0.985832
0.985194
0.984605
0.983605
0.982526
0.982019
0.981453
0.980403
0.979468
0.979005
0.978346
0.977236
0.976548
0.976049
0.975164
0.974099
0.973456
0.972659
0.971371
0.970396
0.969586
0.968343
0.967026
0.966279
0.965345
0.963995
0.963345
0.962755
0.961959
0.961222
0.961011
0.960772
0.960598
0.960574
0.960572
)
;

boundaryField
{
    inlet
    {
        type            fixedValue;
        value           nonuniform 0();
    }
    outlet
    {
        type            inletOutlet;
        inletValue      nonuniform 0();
        value           nonuniform 0();
    }
    bottom
    {
        type            symmetryPlane;
    }
    top
    {
        type            symmetryPlane;
    }
    obstacle
    {
        type            zeroGradient;
    }
    front
    {
        type            empty;
    }
    back
    {
        type            empty;
    }
    procBoundary29to21
    {
        type            processor;
        value           nonuniform List<scalar> 
129
(
1.03725
1.0523
1.05651
1.05887
1.06066
1.06072
1.06104
1.06107
1.00949
1.00842
1.00715
1.00565
1.0045
1.00336
1.0019
1.0006
0.999513
0.998203
0.996619
0.99544
0.99428
0.99268
0.991448
0.990487
0.989441
0.988874
0.98854
0.98856
0.988852
0.989467
0.990712
0.992612
0.995199
0.998493
1.00174
1.00461
1.00701
1.00846
1.00938
1.00996
1.01023
1.0102
1.00995
1.00958
1.00915
1.00865
1.00828
1.00788
1.00757
1.00743
1.00742
1.00742
1.00749
1.00739
1.00684
1.00603
1.00545
1.00515
1.00494
1.00488
1.00514
1.0062
1.00874
1.01249
1.01609
1.06038
1.05893
1.05722
1.05503
1.05282
1.05079
1.04837
1.04646
1.04497
1.04293
1.04123
1.03987
1.03807
1.03698
1.03601
1.03457
1.03316
1.03204
1.03075
1.02923
1.02814
1.02711
1.0256
1.02449
1.02382
1.02291
1.02188
1.02113
1.02057
1.01978
1.01864
1.01804
1.01748
1.01732
1.01738
1.01735
1.01774
1.01895
1.02169
1.02613
1.03079
1.03391
1.03427
1.03415
1.03407
1.0337
1.03282
1.03177
1.03027
1.02863
1.02745
1.02616
1.02467
1.02375
1.02285
1.02158
1.02055
1.01963
1.01838
1.01706
1.01603
1.01492
1.01349
1.01349
)
;
    }
    procBoundary29to22
    {
        type            processor;
        value           nonuniform List<scalar> 3(1.01613 1.01493 1.01414);
    }
    procBoundary29to30
    {
        type            processor;
        value           nonuniform List<scalar> 
16
(
1.01407
1.01487
1.01664
1.01881
1.0198
1.01888
1.01681
1.01211
1.00548
0.996457
0.989548
0.987312
0.987084
0.987038
0.988538
0.991112
)
;
    }
    procBoundary29to36
    {
        type            processor;
        value           nonuniform List<scalar> 
19
(
0.97551
0.954906
0.95338
0.954804
0.958535
0.962765
0.966555
0.969712
0.97292
0.975971
0.979159
0.982276
0.985268
0.988199
0.991239
0.994653
0.997832
1.00077
1.00358
)
;
    }
    procBoundary29to37
    {
        type            processor;
        value           nonuniform List<scalar> 
129
(
1.0056
1.00451
1.00289
1.00184
1.00107
0.99984
0.998476
0.997621
0.960747
0.961402
0.963126
0.966895
0.973235
0.982116
0.996708
1.01269
1.02734
1.04585
1.05513
1.06163
1.06575
1.06813
1.06863
1.06849
1.06828
1.06814
1.06796
1.06807
1.06815
1.06799
1.06742
1.06645
1.06531
1.06395
1.06237
1.06039
1.05832
1.05637
1.0542
1.05228
1.05029
1.04805
1.04656
1.04499
1.04319
1.04167
1.04022
1.03852
1.03703
1.03539
1.03373
1.03267
1.03154
1.03011
1.02894
1.02772
1.02602
1.02479
1.02368
1.0222
1.0211
1.02007
1.01859
1.01743
1.01627
1.0149
1.01384
1.01265
1.01152
1.0104
1.00914
1.00804
1.0068
1.00541
1.0043
1.00309
1.00176
1.0006
0.999274
0.997869
0.996507
0.995099
0.994587
0.994651
0.996889
0.995938
0.994641
0.993852
0.993342
0.992446
0.991357
0.990749
0.990101
0.989006
0.988019
0.987465
0.986717
0.985533
0.984775
0.9843
0.983454
0.98232
0.981722
0.981146
0.980126
0.979236
0.978771
0.978072
0.97701
0.976397
0.975811
0.974783
0.97384
0.973183
0.972231
0.970971
0.970108
0.969223
0.967862
0.966652
0.965881
0.964877
0.963571
0.963059
0.962482
0.961715
0.961173
0.960747
0.960898
)
;
    }
}


// ************************************************************************* //
