/*--------------------------------*- C++ -*----------------------------------*\
  =========                 |
  \\      /  F ield         | OpenFOAM: The Open Source CFD Toolbox
   \\    /   O peration     | Website:  https://openfoam.org
    \\  /    A nd           | Version:  7
     \\/     M anipulation  |
\*---------------------------------------------------------------------------*/
FoamFile
{
    version     2.0;
    format      ascii;
    class       volVectorField;
    location    "0.04";
    object      U;
}
// * * * * * * * * * * * * * * * * * * * * * * * * * * * * * * * * * * * * * //

dimensions      [0 1 -1 0 0 0 0];

internalField   nonuniform List<vector> 
12359
(
(0.980638 0.00250631 -3.18072e-17)
(0.972474 -0.000677096 3.19314e-19)
(0.999948 3.92572e-05 0)
(0.93446 -0.00194237 0)
(0.977636 0.00116052 7.43395e-20)
(0.87465 0.000239215 0)
(0.831642 -0.00674302 -8.6234e-19)
(0.856402 0.00125189 -4.88223e-21)
(0.782827 -0.0106223 2.36709e-17)
(0.888734 5.06785e-05 0)
(0.801964 0.0187605 -2.95986e-17)
(0.708236 0.0652635 0)
(0.271212 0.0176977 3.93712e-18)
(0.920953 0.00128491 0)
(0.937955 -0.00197773 0)
(0.482251 0.00983923 0)
(0.391907 0.00913218 0)
(0.994606 -1.35187e-05 -6.20102e-20)
(0.995034 -1.12686e-05 -2.0557e-20)
(0.956434 -0.00122871 -2.6099e-19)
(0.912107 0.000233177 0)
(0.728913 0.00920734 5.62897e-18)
(0.964117 -0.00105628 0)
(0.949825 0.00865252 -4.49008e-19)
(0.967332 0.000383397 -2.88264e-19)
(0.960567 -0.00116392 0)
(0.99821 -1.74974e-05 -2.49701e-20)
(0.998332 1.09129e-05 3.97539e-21)
(0.995811 2.0494e-06 -7.07596e-23)
(0.997661 4.34983e-05 -2.16011e-21)
(0.99728 -1.8575e-05 -1.59419e-19)
(0.998853 0.000159457 1.11636e-20)
(0.999427 -4.88081e-06 -1.60717e-20)
(0.997889 -1.04624e-05 4.84407e-22)
(0.999715 -1.42311e-05 1.98036e-19)
(0.996921 4.85976e-05 1.25965e-19)
(0.988768 -0.000147206 0)
(0.983356 -0.00139701 3.14952e-17)
(0.978545 0.0004995 -6.42799e-18)
(0.986707 -0.00066229 2.16357e-18)
(0.973637 -0.000911107 -1.55311e-19)
(0.986162 -0.000155491 -3.84059e-18)
(0.991982 -0.000222456 1.71748e-20)
(0.992536 5.47326e-05 2.77189e-18)
(0.996481 -3.43603e-05 0)
(0.996182 -1.96022e-05 0)
(0.996697 -1.68021e-05 3.46048e-21)
(0.997302 -6.61798e-05 4.17372e-20)
(0.995424 -2.86236e-06 -1.0485e-21)
(0.998067 -1.78006e-05 2.09648e-20)
(0.998469 9.5476e-06 4.82005e-22)
(0.998693 -1.04606e-05 0)
(0.999064 -5.89196e-05 -8.6612e-21)
(0.99414 -6.38103e-06 -3.07122e-18)
(0.999267 0.000274188 -1.16225e-21)
(0.999368 -1.34849e-05 -1.69796e-21)
(0.993105 1.974e-05 2.47465e-17)
(0.999485 8.46689e-06 -7.46615e-19)
(0.999554 -2.67294e-05 -3.00067e-19)
(0.999602 4.29358e-05 8.39598e-19)
(0.999304 1.01773e-05 3.30619e-21)
(0.999842 8.70916e-05 7.25185e-21)
(0.998629 -8.49122e-06 0)
(0.143038 0.11169 -3.96341e-18)
(0.99364 -4.13398e-06 -2.29545e-17)
(0.901566 0.000149482 0)
(0.989618 0.0019049 -1.7659e-20)
(0.998744 -4.51079e-05 0)
(0.988275 0.000252111 0)
(0.564103 0.0380948 -5.23565e-19)
(-0.0917878 -0.203745 0)
(0.97653 0.000401475 -1.93973e-19)
(0.999986 -1.49713e-05 0)
(0.987783 -0.000206598 1.24104e-19)
(0.944249 -0.00126484 7.1544e-19)
(0.999786 -5.31621e-05 -1.86411e-22)
(0.999167 -0.000171194 0)
(0.999891 -2.51379e-05 -1.60481e-22)
(0.990336 -0.000870162 2.73866e-20)
(0.659441 -0.0323483 1.31195e-19)
(0.916906 0.0635947 -1.06296e-17)
(1.00343 0.00293732 -2.07913e-18)
(1.00005 3.76798e-05 5.66136e-19)
(0.997563 0.0122629 3.27955e-19)
(1.09237 0.122598 -2.11703e-20)
(1.02024 -0.000122635 -1.24366e-20)
(1.00359 0.00255674 -1.06002e-18)
(1.00147 0.000170694 4.90767e-19)
(1.11497 0.0502226 4.88168e-22)
(1.08299 0.116876 4.79593e-21)
(0.999905 0.000369275 3.16768e-18)
(0.31659 0.380614 -8.04443e-18)
(1.00001 0.000274119 -6.75319e-19)
(1.0004 0.00576727 6.55936e-17)
(0.999502 0.00978007 2.88676e-18)
(1.02863 -0.00219925 -2.06718e-20)
(1.00007 0.00472161 2.31647e-17)
(0.999515 0.00577968 -2.23208e-17)
(0.990411 0.0309411 -7.09888e-19)
(0.995208 0.0168519 2.15775e-18)
(0.946275 0.0628574 8.06794e-18)
(1.00001 2.35065e-05 -6.61647e-19)
(1.01898 0.00106059 2.64471e-21)
(1.16681 0.0397571 -2.92545e-17)
(1.00392 0.00031102 -1.06296e-18)
(1.02903 0.0192815 4.78392e-18)
(1.00037 1.6544e-05 -1.71999e-21)
(1.10722 0.117306 2.50706e-20)
(1.01717 -2.71532e-05 1.07165e-20)
(1.02804 0.0156847 -1.82375e-18)
(1.00004 0.00436859 -2.29855e-18)
(1.00294 0.00304347 5.54741e-19)
(0.94015 0.0508705 -8.24614e-19)
(0.972452 0.073505 7.83237e-21)
(0.998717 0.00993074 1.08822e-17)
(1.00258 -1.63844e-05 2.5769e-22)
(0.94664 0.0639366 1.2589e-21)
(1.00406 0.00216974 3.23048e-20)
(1.10381 0.0410278 -3.1728e-20)
(1.00001 0.000132827 5.37828e-20)
(0.999961 0.00439667 2.52379e-18)
(0.875453 0.0227518 2.57162e-18)
(1.00171 0.000120617 -5.19104e-19)
(1.03086 0.00307143 8.64587e-18)
(1.0043 0.00225969 -3.24516e-19)
(1.00294 0.00027587 9.8857e-18)
(1.00685 0.099854 -6.34039e-18)
(0.997721 0.0107727 -9.04649e-19)
(0.999911 5.40923e-05 1.79851e-19)
(1.00368 0.00223224 8.38966e-18)
(1.00239 0.000393054 8.77748e-21)
(1.06077 -7.83123e-05 2.08419e-20)
(1.0604 0.00559458 4.90621e-19)
(1.05622 0.0141695 5.95104e-19)
(1.00034 9.11093e-05 5.3151e-23)
(1.02975 0.00372614 6.8609e-18)
(1.00241 0.000610011 7.9303e-21)
(1.03185 0.00333473 8.44603e-19)
(0.999955 0.000256567 -7.57656e-19)
(1.01298 0.0780905 1.24333e-16)
(1.00001 0.000267152 -3.38188e-18)
(0.983733 0.00236308 7.91038e-17)
(1.02747 0.0105469 -1.40863e-17)
(1.00037 7.6135e-05 -2.88204e-23)
(1.03834 0.0320017 -1.59609e-20)
(0.889629 0.0340487 -2.30553e-19)
(1.00004 4.19343e-05 -2.50922e-19)
(1.08699 0.103246 6.32164e-19)
(1.00469 0.000473638 2.02081e-19)
(0.937401 0.0515452 8.9757e-18)
(1.03488 0.00105907 -2.35016e-18)
(0.999982 0.000213406 -2.48167e-18)
(1.02676 0.0108593 4.96105e-18)
(1.00137 0.000223831 -2.98598e-19)
(1.00001 1.83583e-05 1.53914e-20)
(0.659277 1.06272 2.94075e-17)
(0.944296 0.0831432 1.89237e-17)
(1.0604 -0.00137514 -6.37826e-20)
(1.00001 0.00474094 1.46918e-18)
(0.998977 0.000469013 4.91813e-19)
(1.00514 0.0388614 -1.56942e-17)
(0.998986 0.00050404 -7.2549e-19)
(1.03139 0.00261828 7.97175e-19)
(1.02871 0.00870411 -8.87979e-19)
(1.0001 4.54004e-05 1.16929e-19)
(1.00286 0.000312871 -2.48582e-18)
(1.00459 0.040781 -1.97322e-18)
(0.88007 0.0112713 9.06345e-20)
(1.02733 0.0088017 9.68487e-19)
(1.10243 0.05883 1.81878e-20)
(0.999848 2.86594e-05 1.86534e-18)
(0.999834 0.000116111 5.28077e-19)
(1.02851 0.00712397 -4.22478e-18)
(0.974007 0.00142513 -1.38318e-17)
(1.00407 0.00113857 3.19965e-19)
(1.00359 0.0839184 3.71417e-17)
(0.996505 0.00070156 -8.935e-21)
(0.996519 0.000563967 -5.38919e-20)
(0.94906 0.0355491 -1.34974e-19)
(1.00431 0.0787591 -6.14618e-17)
(0.93901 0.00507622 -4.83971e-20)
(1.00001 0.000332028 -9.58001e-20)
(0.99988 6.15253e-05 -1.04628e-18)
(1.00358 0.00245347 4.21277e-19)
(0.992511 0.0266243 3.71596e-19)
(0.842455 0.121636 4.4734e-16)
(1.00363 0.00568806 3.05322e-20)
(1.0002 0.00961544 3.35931e-17)
(1.02889 0.000940888 -9.35647e-21)
(1.00474 0.0039397 1.01001e-19)
(1.00047 0.00942533 4.98542e-18)
(1.02738 -0.000254425 8.19215e-21)
(1.03256 0.000848888 2.43775e-19)
(1.00193 0.000303488 -1.51293e-19)
(1.03628 0.0136265 -2.1221e-18)
(1.13242 0.0284719 -7.93945e-17)
(1.01424 0.011526 1.20411e-21)
(1.00342 0.00519745 1.93389e-19)
(1.02852 0.0127666 9.19418e-20)
(1.00389 0.00231065 5.58168e-19)
(0.90734 0.0207427 -3.31073e-20)
(1.02931 0.00733135 6.34811e-20)
(0.993754 0.0156198 1.9146e-18)
(1.03121 0.0167038 4.14685e-18)
(1.03267 0.0302794 1.68352e-19)
(1.00001 0.00037224 5.92851e-19)
(1.03655 0.0309954 3.83331e-20)
(0.993912 0.0182024 6.05138e-17)
(1.03239 0.00216669 -3.24423e-19)
(1.00531 0.00232362 -4.47334e-18)
(1.00003 0.00029145 7.78374e-20)
(1.04183 0.00785978 2.80991e-18)
(1.04404 0.00216815 6.25042e-18)
(1.38997 0.104251 1.47281e-16)
(0.843559 0.0733464 2.30208e-18)
(0.999894 0.000233985 7.99377e-19)
(1.0038 0.0051681 -1.86973e-19)
(0.99851 0.010137 3.20791e-17)
(1.00412 0.0049869 4.97161e-19)
(0.984111 0.00140918 1.41506e-16)
(0.946218 0.0638663 1.08941e-16)
(1.00525 0.0042417 -1.16794e-17)
(1.03093 0.00401643 1.01623e-18)
(0.278122 0.178624 -2.05067e-18)
(1.00534 0.00282776 9.41859e-19)
(1.00006 0.00034188 -5.43041e-19)
(0.980847 0.00173333 3.39196e-17)
(1.01752 0.000700301 -2.45884e-21)
(1.00475 0.0788245 3.59402e-17)
(1.00301 0.00564244 1.1458e-18)
(1.00281 0.00582915 3.33615e-19)
(1.00011 4.44791e-05 7.95259e-19)
(1.03768 0.0335312 4.27572e-21)
(0.992566 0.0243842 -6.19051e-17)
(1.00046 0.00905364 9.11131e-19)
(0.995348 0.019271 3.57296e-17)
(1.00003 0.000147011 -4.23811e-19)
(1.02877 0.0118597 -1.64032e-19)
(1.00003 0.00968419 1.50727e-17)
(0.617377 0.263038 -8.68211e-18)
(1.00017 9.90375e-05 -5.43066e-24)
(1.01829 -0.00406259 7.12976e-21)
(1.00036 0.00723146 3.69926e-19)
(0.974907 0.142424 4.7394e-18)
(1.00884 0.0387079 -1.71203e-18)
(1.08925 0.0937099 -3.77875e-18)
(0.999572 5.02751e-05 -2.23448e-16)
(1.02926 -0.000248931 -1.40779e-18)
(1.00378 0.000598769 2.55216e-20)
(1.02612 0.000506349 9.70287e-19)
(1.0369 0.0026173 -3.1055e-19)
(0.984847 0.00166753 2.14049e-16)
(0.997089 0.00052815 1.729e-19)
(1.00264 0.00565326 5.34734e-18)
(0.533822 0.354847 1.86226e-16)
(1.42017 0.13124 -1.25966e-16)
(0.999983 0.000149906 5.87876e-21)
(1.0054 0.00200372 4.44031e-18)
(0.483394 0.373994 -2.11283e-18)
(1.08064 -0.00478522 2.09906e-17)
(0.994489 0.0180389 5.04751e-19)
(1.00252 0.0447594 -6.57494e-18)
(1.01819 0.0690876 3.10921e-18)
(1.03171 0.0131393 -2.71145e-19)
(0.970553 0.00406778 -6.88148e-17)
(1.47024 0.124113 -4.55244e-18)
(1.10205 0.0365903 -2.16295e-20)
(1.00054 0.0489207 -6.96942e-19)
(1.00459 0.00223498 8.41939e-18)
(1.03624 0.00247117 -8.86795e-18)
(1.02835 0.0071691 -1.32639e-17)
(0.989318 0.0261382 -6.19575e-18)
(1.02758 0.00967862 7.52663e-18)
(1.00288 0.00640041 1.45369e-17)
(1.00509 0.00262149 -2.29054e-17)
(1.00018 6.81422e-05 -7.16707e-23)
(1.00486 0.00277557 2.37528e-17)
(1.14711 0.0539052 2.02898e-18)
(1.01153 0.0471135 -5.103e-18)
(1.00049 0.000161727 -3.65035e-19)
(0.999983 0.000221735 7.16531e-17)
(1.03391 0.0127604 7.25292e-19)
(1.00594 -0.000188155 -2.59313e-20)
(0.990677 0.000371843 1.75524e-18)
(1.02034 -0.000283859 4.14077e-20)
(1 0.000203577 -4.13621e-19)
(0.994868 0.0796472 1.37026e-18)
(0.999983 0.000124162 -2.82639e-20)
(0.999999 0.000132543 -3.15347e-17)
(0.99902 6.92351e-05 1.55256e-20)
(1.02946 0.0020828 -2.11319e-18)
(1.00368 0.00215537 -1.00741e-19)
(1.51468 0.443625 9.06483e-17)
(1.00035 3.09532e-05 1.69884e-22)
(1.00038 4.82667e-05 1.4525e-20)
(1.01893 0.00208491 2.31573e-22)
(1.00357 0.000835527 1.66064e-19)
(0.951949 0.057677 1.10737e-16)
(0.999081 0.00930608 -8.27212e-17)
(0.99862 0.000175038 -6.56822e-18)
(1.00002 0.000217608 4.06459e-19)
(1.13849 0.0703646 4.82743e-19)
(1.00178 0.0699313 -6.2971e-18)
(0.999963 0.000257467 -1.94218e-19)
(1.00358 0.00546483 -8.73042e-19)
(0.999179 0.00822763 1.95787e-17)
(1.00401 0.000794807 3.52834e-21)
(1.00273 0.000325272 -2.04184e-21)
(1.0024 0.000127732 2.27471e-23)
(1.00356 0.000626555 2.77199e-18)
(0.99494 0.00087817 9.98939e-17)
(0.845337 0.0633537 -3.64019e-18)
(1.00377 0.00119618 7.59873e-23)
(0.997125 0.000439411 2.99908e-17)
(0.98526 -6.65192e-05 4.26372e-16)
(1.02339 0.0221507 -2.29862e-17)
(1.09579 0.0334991 4.87197e-21)
(1.00436 -0.000492239 -8.47974e-19)
(0.99039 0.0238675 -5.55443e-18)
(0.617333 0.0984089 -4.96127e-17)
(0.999967 0.000233231 -1.87202e-16)
(1.02383 0.009496 2.18068e-20)
(1.0005 0.000183438 5.07126e-19)
(1.01349 0.0114017 9.12665e-21)
(1.00037 7.01783e-05 1.15076e-22)
(1.00732 -0.000506779 2.99073e-18)
(0.82563 0.0454483 -1.92862e-16)
(1.0243 0.0118998 -2.37405e-19)
(0.845265 0.0868386 -1.08618e-16)
(0.991248 0.000346607 4.09649e-18)
(1.00104 0.00706641 -9.96795e-19)
(1.02461 0.00225037 6.25272e-20)
(1.02594 -0.00256623 -1.25565e-20)
(1.00082 0.00685935 2.52136e-19)
(1.02634 0.00721303 1.26383e-20)
(1.02803 0.00216181 1.72751e-19)
(1.00078 0.000112195 -1.15329e-19)
(0.999331 0.000477672 1.45107e-17)
(0.999383 0.000463134 2.28216e-18)
(0.999285 0.000441118 3.06121e-18)
(0.999336 0.000465436 -6.77897e-18)
(0.732828 0.237043 -7.89147e-19)
(1.00008 0.000230848 -5.71806e-20)
(0.947202 0.0681066 -5.62663e-17)
(1.03454 0.00126839 -5.37876e-20)
(0.993701 0.0235782 -3.69995e-18)
(1.02813 0.0101973 1.03852e-18)
(1.02394 0.0125054 6.31537e-20)
(1.01907 0.00176179 2.12486e-21)
(1.0128 0.011146 9.44703e-20)
(1.02526 0.0104528 -3.11466e-20)
(1.01304 0.0116603 3.70319e-19)
(0.993416 0.024658 -1.71462e-18)
(1.02492 0.0241717 -3.34796e-17)
(1.0243 0.0280431 1.57748e-19)
(0.956862 0.0479276 -5.44056e-17)
(0.981804 0.00194561 1.82368e-17)
(1.0334 0.0685035 -6.53083e-22)
(0.983445 0.00189044 2.34521e-16)
(0.983456 0.00114405 1.33548e-15)
(1.02824 0.011593 4.25624e-20)
(0.943532 0.104523 4.52064e-19)
(1.00334 0.00266199 -9.08901e-20)
(0.999355 0.000264005 5.56856e-20)
(1.01454 0.0101235 -4.25443e-22)
(0.999318 4.01017e-05 4.7973e-19)
(1.00345 0.00340752 -1.33107e-19)
(1.18422 0.00898159 -2.36548e-16)
(0.353123 0.235974 3.27125e-17)
(1.00261 0.00305728 2.69336e-20)
(0.999953 0.000140088 1.53746e-19)
(1.00032 3.5167e-05 -8.13466e-24)
(0.999948 0.000344188 -3.08019e-18)
(1.02581 0.0111491 -3.4401e-19)
(0.999987 0.000192542 -4.45898e-21)
(0.999992 0.000184409 -1.40545e-19)
(1.10405 0.0547788 -3.86805e-21)
(1.02951 0.00902129 -2.21739e-17)
(1.08874 0.177386 1.08378e-20)
(1.00111 0.00317568 9.71269e-21)
(1.0319 0.00891947 -1.80429e-17)
(1.0069 0.000373714 -4.83494e-19)
(0.999378 0.00865936 -1.47762e-18)
(1.02832 0.0231236 -6.42518e-18)
(1.01497 0.00927986 2.17529e-21)
(0.9314 0.00777586 -1.69143e-19)
(1.0142 0.00862276 1.79462e-20)
(1.00263 0.0024299 -5.223e-19)
(1.00054 0.000154062 -2.26153e-20)
(1.02878 0.00739817 -9.75836e-18)
(1.0334 0.00750082 8.7968e-18)
(1.0051 0.000923431 -2.33933e-17)
(0.761175 0.0188974 7.63838e-18)
(1.03063 0.0282967 1.3832e-17)
(1.03118 -0.00140802 -1.16795e-20)
(0.995305 0.0322599 1.18407e-17)
(1.00339 0.0377021 7.4393e-17)
(0.999938 0.000235289 -1.4311e-17)
(0.335543 0.461303 2.82075e-17)
(1.03196 0.0736515 3.21678e-21)
(1.00037 0.0033188 -3.58332e-20)
(0.984804 0.171629 -1.15653e-18)
(0.984717 0.000707314 6.20378e-16)
(0.99994 0.000322637 1.31111e-17)
(1.00003 0.000297313 -3.14002e-19)
(1.00003 0.000334469 -6.37351e-18)
(1.11059 0.149025 3.29331e-21)
(0.949115 0.101284 -2.25831e-20)
(0.991365 0.025116 2.95843e-17)
(1.02446 0.00849734 -1.14123e-18)
(1.02897 0.00195906 -7.67741e-19)
(0.998827 0.0110686 8.47192e-19)
(0.936305 0.00926433 2.71221e-18)
(1.00083 0.0337876 4.57228e-18)
(1.05085 0.00161515 -6.46736e-19)
(1.09615 0.0363151 2.7177e-21)
(0.700345 0.0475843 4.97075e-19)
(0.994163 0.0223965 -9.45021e-18)
(0.96069 0.0459646 1.83841e-16)
(1.01528 -0.000954369 -1.19179e-19)
(1.02553 0.0360338 -1.83829e-18)
(1.00796 0.00912284 8.4576e-19)
(1.01523 0.0108039 1.42747e-21)
(0.997658 0.000360895 8.41629e-18)
(1.0108 0.0105297 -8.15034e-20)
(1.02702 0.00992549 3.70478e-18)
(1.00001 0.000275 2.68146e-20)
(1.09757 0.0079068 5.78991e-18)
(0.991011 0.00113257 -3.13128e-18)
(1.07105 0.000321012 3.36345e-18)
(1.03427 0.00641068 -8.71875e-20)
(0.994173 0.00110032 6.48563e-16)
(0.955978 0.0508235 -3.70248e-16)
(1.17797 0.23072 -6.82381e-19)
(1.02661 0.0134079 -1.45223e-19)
(1.00805 0.0142904 6.93497e-18)
(1.02698 -3.03404e-05 7.13002e-22)
(1.0292 0.00638152 1.0907e-18)
(1.02775 0.0282716 -2.8714e-19)
(1.0039 0.00257453 -1.99266e-17)
(0.999998 0.000143271 -9.32942e-17)
(0.990575 0.0663267 7.61384e-18)
(1.00033 5.38574e-05 3.73945e-22)
(1.05197 0.00807465 1.30514e-19)
(1.00232 0.000371978 1.05772e-19)
(0.967826 0.00371751 -3.67707e-19)
(0.963692 0.039797 -3.29476e-17)
(1.01069 -0.000481194 -1.0023e-17)
(1.10226 0.0861613 -2.56335e-17)
(0.943078 0.0652172 -4.39158e-17)
(0.99519 0.015646 1.5743e-19)
(1.00056 0.00386579 1.87766e-19)
(0.553953 0.0725342 -6.31648e-18)
(1.00069 6.23397e-05 -3.57264e-19)
(1.00084 0.00305235 7.84989e-19)
(1.04204 0.0357732 -1.74026e-21)
(0.999944 0.000162156 -4.28964e-19)
(1.00194 0.00384056 3.51096e-20)
(1.00127 0.00275386 6.10253e-18)
(0.780398 0.201175 -9.38569e-18)
(0.586205 0.585748 7.95676e-16)
(0.998439 0.0116881 3.77621e-19)
(1.00148 1.401e-05 1.53132e-23)
(0.941653 0.0323867 8.48555e-17)
(1.00086 0.038844 1.30012e-16)
(1.02451 0.00931621 1.07924e-19)
(1.02977 0.0137959 9.25255e-20)
(1.02797 0.00884633 1.67935e-17)
(1.00089 -2.44894e-05 -1.33429e-17)
(0.999991 0.00029198 -4.02267e-18)
(1.00707 0.0310231 7.03745e-17)
(0.999953 0.000254302 -4.01056e-20)
(0.966329 0.0365216 1.18625e-17)
(1.02436 0.0100062 -2.59155e-20)
(1.02546 0.0330443 -1.81389e-19)
(0.996756 0.000563833 -9.97308e-19)
(0.999698 0.0631678 4.93335e-18)
(1.04475 0.0322244 1.2227e-19)
(0.997858 -0.000131508 -5.07133e-17)
(1.0015 0.0105849 2.8725e-19)
(1.00466 0.000682898 3.41737e-17)
(0.930872 0.0432103 3.72845e-16)
(1.04268 0.0334648 1.21862e-20)
(0.999934 0.000246969 1.0756e-17)
(1.00273 0.0357808 -5.96963e-17)
(1.02827 0.00629102 1.91139e-17)
(1.01537 -0.00014784 -3.97637e-20)
(0.995072 0.0381647 -9.02408e-17)
(1.00291 7.12096e-05 -1.16376e-20)
(0.929829 0.0897374 4.31935e-18)
(1.02306 0.00333119 8.67993e-20)
(1.03236 0.00162479 -5.946e-19)
(1.02537 0.0282695 4.80257e-20)
(1.00083 -0.000217664 -2.84516e-18)
(1.00168 0.0107615 5.81449e-19)
(1.05242 0.051092 9.82082e-18)
(1.05665 0.0107872 -1.31516e-17)
(0.999999 0.000227545 9.7913e-21)
(1.01076 0.0137707 6.28076e-20)
(1.01805 0.15695 -2.54227e-17)
(1.02975 -0.000274442 1.30264e-23)
(0.6066 0.482448 1.13565e-17)
(0.999982 0.000353596 -1.12134e-18)
(1.00242 0.000547156 8.63059e-19)
(1.00075 5.54916e-05 2.10101e-18)
(1.02842 0.0108487 1.50778e-18)
(0.995449 0.0163499 -7.51848e-18)
(0.99604 0.0120288 -1.69508e-19)
(1.00267 0.000656641 8.32266e-20)
(0.996438 0.0367782 -3.22973e-17)
(1.01621 0.0111111 4.94148e-20)
(0.974087 0.00355701 -2.89204e-18)
(1.0087 0.00154662 -5.90015e-20)
(1.08125 0.0790948 -1.39908e-17)
(1.00047 9.97182e-05 1.41248e-17)
(1.08763 0.0830947 -4.46426e-17)
(1.00144 0.000159929 -1.608e-19)
(0.576043 0.90989 -8.09657e-18)
(1.02752 -0.00075091 -3.84304e-19)
(1.05106 0.056029 -3.90439e-18)
(0.999547 6.99952e-05 -6.55884e-17)
(0.997099 0.00071255 2.23113e-19)
(1.02451 0.0238016 5.38756e-17)
(1.00341 0.00218658 -4.98044e-19)
(0.998741 8.6779e-05 -2.96747e-17)
(0.992743 0.000470915 -3.83092e-20)
(0.996954 0.0168952 -1.68113e-17)
(0.993985 0.020789 3.84329e-18)
(0.979162 0.142741 -1.36361e-20)
(1.03047 0.0251544 1.59644e-17)
(1.03494 0.0325275 -3.45325e-17)
(1.00001 6.01551e-05 2.39858e-19)
(1.00367 0.00209598 1.65375e-19)
(1.02441 0.0109728 -1.01411e-19)
(1.06569 -0.00433448 -8.07292e-18)
(1.00002 7.30077e-05 -3.27786e-17)
(1.00056 8.87315e-05 -1.63004e-18)
(1.02856 0.00641882 -4.84965e-18)
(1.00075 0.000150825 1.33669e-20)
(0.842342 0.0424905 9.29241e-17)
(1.1886 0.209 1.53796e-18)
(1.11433 -0.00314397 -8.88741e-18)
(0.999998 7.15488e-05 1.38241e-17)
(1.00434 0.00864638 4.60977e-19)
(1.03942 0.000767835 8.4882e-19)
(0.995486 0.013048 1.55668e-18)
(1.00398 0.000661373 7.03844e-19)
(0.106784 0.454715 1.41639e-15)
(1.00036 0.000114008 -5.2606e-19)
(0.934097 0.0665559 -1.16841e-17)
(0.963511 0.0407454 1.21566e-17)
(1.00633 0.0087156 -1.53956e-18)
(1.00379 0.000876102 2.34819e-19)
(0.998604 0.000242461 2.72557e-18)
(1.01036 -8.89032e-06 -2.78563e-17)
(1.03153 0.00160788 1.57907e-19)
(1.01538 0.00753981 8.93739e-19)
(0.997133 0.0105723 2.01857e-18)
(1 7.62954e-05 3.40902e-20)
(0.999859 3.63422e-05 -5.38466e-19)
(0.99508 0.0164606 -7.19911e-19)
(0.996473 0.000683273 1.86941e-19)
(0.990533 0.0559719 6.8613e-17)
(1.02898 0.010108 -8.21177e-18)
(0.998974 0.000130237 1.28298e-22)
(1.00048 0.00013118 -5.30893e-19)
(1.02512 0.026072 2.96613e-18)
(1.0985 0.000894511 6.01597e-17)
(0.997966 0.00043195 8.40022e-17)
(1.04525 0.00204987 -8.73131e-20)
(1.0003 6.81835e-05 -1.3081e-23)
(0.996276 0.0109498 -2.10148e-19)
(0.958187 0.0729405 -1.18873e-19)
(1.03023 -0.000484484 -1.15226e-19)
(1.03275 0.00566005 -1.14715e-18)
(0.952358 0.0539872 5.75857e-17)
(1.00243 0.0180594 1.16298e-19)
(1.03214 0.00173145 1.28176e-19)
(0.999982 0.000313269 -6.49986e-19)
(0.999751 5.32059e-05 1.69156e-16)
(1.02928 0.00204745 1.40713e-18)
(1.00808 0.00764414 -2.46083e-20)
(1.00352 0.0175072 -4.6414e-19)
(1.00948 0.00957459 -1.33377e-19)
(0.99999 0.000286117 3.13216e-17)
(1.00046 0.000151838 -3.51746e-20)
(1.00306 0.000204715 9.91807e-18)
(1.00625 0.0258715 4.28437e-18)
(1.03399 -0.000850795 1.11937e-18)
(0.947084 0.0365396 -6.01306e-19)
(0.990125 0.000816389 -9.96638e-19)
(0.933691 0.0333375 -6.64561e-16)
(1.02762 0.0104749 -1.97055e-18)
(1.00849 0.0152949 8.07925e-18)
(0.937193 0.0469258 -1.90281e-17)
(0.98922 0.0222591 6.59019e-17)
(1.07119 -0.000823665 2.80572e-19)
(1.02864 0.00970559 -2.92569e-17)
(0.980609 0.0170562 -8.75949e-17)
(0.997236 0.0563281 -9.40658e-18)
(0.999686 0.000142728 2.23177e-19)
(1.01858 0.0742676 1.48481e-19)
(1.02515 0.0223558 -2.62638e-17)
(1.00003 2.2687e-05 1.16539e-19)
(0.999991 0.000108434 3.95783e-17)
(1.00078 9.87892e-05 -2.82061e-18)
(0.999499 0.000358367 -1.49235e-16)
(1.06326 0.0610669 1.2169e-20)
(1.01057 0.01488 -5.0453e-20)
(1.01147 0.00281218 -4.90679e-19)
(0.945992 0.0372653 2.67069e-20)
(0.991922 -0.000674674 -8.5528e-18)
(0.797146 0.0143226 2.44806e-15)
(1.02747 0.00451865 -8.90016e-22)
(1.03255 0.000306894 -1.33181e-19)
(1.00404 0.000208131 3.54839e-17)
(1.04908 0.0321547 -1.9226e-19)
(1.00005 0.000317805 -1.22533e-16)
(0.996306 0.0306833 -8.04221e-19)
(1.0003 0.00334262 3.52452e-17)
(0.935063 0.0998513 -1.77475e-18)
(0.931664 0.0382981 -2.77059e-19)
(1.00213 0.0149235 -5.52853e-19)
(1.0152 0.0107571 -8.12727e-21)
(0.568399 0.592647 8.08596e-16)
(1.02775 0.00988635 1.11641e-17)
(1.03358 0.0565851 -1.29521e-20)
(1.00926 0.0113563 9.07723e-20)
(0.977566 0.144756 2.50348e-19)
(1.16175 0.179586 -1.00013e-17)
(1.00115 5.57202e-05 -1.04238e-20)
(0.998352 0.00314657 4.01194e-18)
(1 -1.15497e-05 3.15049e-19)
(1.05654 0.0567923 -3.14503e-19)
(0.998508 0.00300665 -5.07173e-18)
(1.01475 0.00859272 -3.1959e-19)
(1.09891 0.0956853 1.02195e-17)
(1.00041 9.10946e-05 5.25328e-19)
(0.97287 0.00374497 -1.03187e-17)
(0.989504 0.0479323 6.57872e-18)
(1.00643 0.0138981 1.68722e-17)
(0.997443 0.00013171 1.48171e-17)
(1.00229 0.0152474 1.14647e-19)
(0.999104 0.000708343 -7.60651e-17)
(0.994989 0.0147908 1.40021e-19)
(0.999082 0.000614574 3.14013e-18)
(0.999139 0.00080245 8.73472e-17)
(0.99561 0.0125639 -1.56036e-19)
(1.03146 0.00353179 -3.22353e-18)
(1.0291 0.0066531 -7.98281e-18)
(1.00698 0.0147735 4.10356e-17)
(0.641468 0.0402774 -4.03303e-18)
(1.02691 0.00261389 1.95344e-18)
(0.40073 0.355176 -1.0065e-16)
(1.02341 0.00842072 7.72084e-19)
(1.02045 -0.00183369 8.32812e-20)
(0.995225 0.0137048 -1.99423e-18)
(1.02577 0.0112764 -8.27671e-20)
(0.99201 0.0240225 -2.19603e-19)
(1.02941 -0.00122069 -1.61789e-21)
(0.583897 0.392025 -3.53418e-17)
(0.953372 0.0318488 -2.43835e-17)
(0.994266 0.0225912 -1.31417e-17)
(1.00422 0.0212019 2.94524e-19)
(0.995219 0.00113039 2.21788e-17)
(0.996118 0.00106676 5.12911e-18)
(1.02439 0.0260917 -3.50601e-18)
(0.999975 0.000268577 -2.8328e-17)
(1.07438 0.00679226 -1.45516e-19)
(0.999133 2.23712e-05 3.52022e-19)
(0.950467 0.0363438 -6.00328e-18)
(1.00676 0.063794 6.33556e-18)
(1.06341 0.0487129 1.14211e-19)
(1.03752 0.0188976 1.36215e-17)
(1.03075 0.0116092 2.07946e-19)
(0.995039 0.0487883 5.11305e-17)
(1.00916 0.0120201 3.24685e-19)
(1.037 0.0203662 1.40379e-17)
(0.972773 0.0290517 -1.1804e-18)
(1.05391 0.0623771 8.86712e-20)
(1.00802 0.0198636 1.61941e-17)
(1.04448 0.0346727 -3.11105e-20)
(1.00589 0.0213088 -4.50131e-18)
(1.00001 0.000179848 -1.01721e-19)
(1.00391 0.0218753 1.06803e-18)
(1.18601 0.0204856 -5.70184e-17)
(0.972745 0.129659 1.12842e-19)
(1.00464 0.00399937 -3.28469e-17)
(1.00016 4.55396e-05 2.02949e-20)
(0.99895 0.000105831 3.15645e-19)
(0.994832 0.00683134 3.52167e-19)
(0.969207 0.00384197 -9.84401e-18)
(1.02898 0.00460242 5.15019e-18)
(1.02424 -0.00345277 -6.99827e-18)
(1.00088 -0.000105401 -2.60862e-17)
(1.00315 0.00609315 -3.87471e-17)
(0.994232 0.0259802 -4.42268e-18)
(1.00557 0.00544026 2.08313e-17)
(1.00789 0.000706753 -3.1775e-19)
(1.04485 0.0293529 3.13232e-18)
(0.994213 0.00161631 -3.50993e-16)
(0.989681 0.035492 5.11086e-17)
(1.03338 0.0105216 1.1098e-18)
(1.00462 0.00616393 8.85011e-18)
(1.00837 0.00652994 -9.31489e-19)
(0.948344 0.0533207 5.39054e-17)
(1.00001 3.53692e-05 -3.92451e-20)
(0.993674 0.00528055 1.73666e-18)
(1.2706 0.125357 -1.64337e-17)
(0.99957 6.39643e-05 -4.03864e-16)
(1.04031 0.0333448 2.01805e-20)
(0.994412 0.0705776 1.01484e-18)
(1.00697 0.00654085 -4.01069e-18)
(0.960833 0.043524 -8.63922e-17)
(1.03329 0.0120186 -2.94855e-19)
(0.996214 0.0261925 3.634e-18)
(1.02596 0.0281528 -1.82471e-21)
(0.999578 0.0030077 -2.44958e-19)
(0.940065 0.0361101 -7.62658e-17)
(1.0048 0.000588915 2.39832e-21)
(1.02883 0.00316856 3.57349e-18)
(1.02675 0.00827014 2.1336e-20)
(0.938286 0.0410563 -1.67526e-16)
(0.999781 0.00288758 1.68213e-19)
(1.03485 -0.00394739 -9.2331e-20)
(1.05501 0.0146841 7.27583e-20)
(0.994739 0.0320865 -4.6073e-18)
(1.00547 0.0123517 -2.14059e-17)
(1.00412 0.00251394 -2.61492e-18)
(1.00893 0.0508473 9.25982e-20)
(0.759906 0.236279 9.30896e-19)
(0.995689 0.000690278 1.48839e-16)
(0.99991 0.00018709 2.75972e-18)
(0.996337 0.0229322 -4.13025e-19)
(0.999941 0.000321829 -1.41948e-19)
(1.16943 0.159545 1.09565e-17)
(1.00634 0.0200735 1.83484e-17)
(1.03609 0.0824751 -6.94172e-21)
(1.01426 0.00604437 3.48168e-17)
(1.02188 0.00111251 2.02379e-18)
(0.258721 0.0139465 -2.48878e-15)
(1.00617 0.0137768 -7.2466e-18)
(1.0981 0.174558 -2.17631e-20)
(1.02897 0.00498532 1.4608e-17)
(1.11068 0.0135817 -3.48747e-18)
(1.02484 0.00996415 2.80229e-20)
(0.99684 0.0112837 -3.31212e-18)
(1.00584 0.0130861 -9.71813e-19)
(1.01389 -0.000515173 -1.21355e-19)
(1.09243 0.0834448 1.09018e-16)
(1.08265 0.0716079 1.24818e-17)
(1.00144 0.000130481 2.55529e-21)
(1.0015 6.68655e-05 2.26327e-21)
(0.93124 0.0466169 5.89424e-17)
(1.00208 -0.00026827 -4.74209e-19)
(0.787896 0.354381 -1.73248e-18)
(1.02674 0.0266979 -8.49499e-20)
(0.969661 0.164628 2.08918e-20)
(1.00391 0.00271204 9.67455e-18)
(0.35193 0.459084 -3.28346e-15)
(1.12942 0.205766 -8.84537e-19)
(1.00537 0.0210974 -2.53345e-18)
(1.00003 0.00017366 5.488e-19)
(0.999859 0.00261949 3.96764e-20)
(0.957577 0.0285527 -1.82409e-16)
(0.994782 0.0075008 -9.77266e-19)
(0.990003 0.000879734 -2.53523e-20)
(0.997263 0.00876095 2.59209e-19)
(1.02807 0.0096386 -2.01861e-18)
(0.974485 0.0266903 8.84965e-19)
(1.0868 -0.0027734 3.64655e-18)
(0.651833 0.0617599 9.15949e-18)
(1.00066 -0.000115335 -2.70991e-17)
(0.96761 0.0351516 -4.08169e-17)
(1.0342 0.0180895 1.13862e-17)
(0.934345 0.0593383 -1.54762e-17)
(1.00433 0.0119431 3.87792e-18)
(0.935381 0.0791382 1.49175e-16)
(1.02794 0.0066201 -5.29567e-20)
(0.955316 0.032966 -9.90416e-17)
(0.997284 0.000341549 -2.27002e-18)
(1.00013 1.42164e-05 -5.09456e-20)
(1.03603 0.0192209 -3.82383e-18)
(1.03869 0.0183399 -5.5269e-18)
(1.02512 0.00256368 -9.97325e-19)
(0.93186 0.0367014 9.89533e-17)
(1.03339 0.0782366 2.97985e-21)
(1.01611 -0.00125158 -3.50372e-19)
(0.994372 0.0229813 1.11552e-17)
(1.00044 0.00349257 -3.27494e-17)
(1.00848 0.00856605 1.35056e-18)
(0.780497 0.0311805 9.63242e-16)
(1.00732 0.00672657 -1.12484e-17)
(1.03426 0.0174765 1.39776e-17)
(0.98485 0.03782 2.54971e-21)
(1.02354 0.00730353 -2.64665e-19)
(1.01115 -0.00142232 3.39445e-17)
(0.996704 0.0102907 6.46777e-20)
(1.05146 0.0130535 2.55638e-21)
(1.01362 0.00587505 -2.63828e-17)
(1.00521 0.0116142 5.10084e-17)
(1.07058 0.0061106 -4.27421e-19)
(0.990365 0.0239214 -3.61415e-19)
(1.01805 0.0015135 1.32263e-20)
(0.757961 0.401258 6.00701e-18)
(1 9.10858e-05 1.69856e-20)
(1.01424 0.00659263 1.98239e-17)
(1.00373 0.0177703 8.45982e-17)
(0.992976 0.00639875 -1.53602e-20)
(1.00257 0.000223089 4.20954e-19)
(0.999498 0.0241202 2.31813e-17)
(1.00002 3.71162e-05 4.06402e-20)
(1.04754 0.0995826 -1.3687e-17)
(1.00512 0.00111286 -9.44095e-19)
(0.97374 0.00429074 -5.38505e-19)
(1.03466 0.0273463 1.71901e-18)
(0.957331 0.041836 8.48673e-18)
(1.01492 0.008439 -9.44061e-20)
(1.01457 0.00689121 1.35125e-17)
(1.03472 0.018616 -3.57349e-19)
(1.19893 0.0402751 -6.5228e-18)
(0.999643 0.000119865 3.75323e-20)
(0.992838 0.00151282 3.43445e-16)
(1.01746 0.00289666 1.14238e-19)
(1.10631 0.187692 6.46698e-20)
(1.03846 0.0197917 -1.6475e-18)
(0.999786 0.00283324 -1.10809e-19)
(0.233669 0.143787 -7.70832e-15)
(1.00011 4.55521e-05 -1.01126e-17)
(1.00413 0.00219247 -8.62368e-18)
(1.16239 0.0175292 -5.52562e-17)
(0.994813 0.00491778 -3.7293e-21)
(0.999591 0.00303699 5.76637e-20)
(0.999545 0.0032674 1.9061e-19)
(0.984533 0.037686 3.37984e-19)
(0.96246 0.0259584 2.66755e-16)
(0.999637 2.55634e-05 -3.5234e-16)
(0.993926 0.00612827 -1.15316e-20)
(0.939485 0.070674 -3.22798e-16)
(0.996648 0.0215015 -4.60165e-17)
(0.996553 0.0156194 -1.59708e-17)
(0.996985 0.0085265 -1.28959e-18)
(1.00113 0.000128297 -1.65842e-18)
(0.959946 0.0294531 -1.64496e-16)
(1.06375 0.0505353 8.83719e-20)
(0.995443 0.014334 -1.27709e-18)
(0.934803 0.0326058 2.4237e-16)
(1.02869 0.00447886 1.96817e-18)
(1.02758 0.0010283 2.59273e-21)
(1.04051 0.0928541 5.11707e-18)
(1.02978 0.0313414 2.44155e-18)
(0.996651 0.00906609 1.81404e-18)
(1.0053 0.000914059 1.15742e-17)
(1.0868 0.0929427 1.99729e-17)
(1.03222 0.0035346 5.55546e-19)
(0.977325 0.0239265 -2.89173e-19)
(1.00035 0.00392323 -2.19448e-18)
(0.99945 0.000334064 -6.47264e-17)
(0.931857 0.0108582 -4.02396e-16)
(1.04892 0.0350038 5.61469e-20)
(1.01291 0.00572769 -3.16022e-18)
(1.01124 0.0423602 1.30158e-18)
(1.01361 0.00631986 1.34316e-17)
(0.997025 0.00931848 7.22885e-20)
(1.00429 0.0032985 -1.1839e-19)
(0.967654 0.0307762 -3.68389e-19)
(1.24107 0.0459128 1.21608e-16)
(0.526193 0.469794 1.90422e-15)
(0.969548 0.0328234 1.23781e-17)
(1.00212 0.0151989 9.89303e-19)
(1.0045 0.00465588 6.03696e-21)
(0.971828 0.0296447 4.83075e-19)
(0.517353 0.254372 1.70757e-16)
(0.940769 0.0285816 -1.15153e-16)
(0.999856 0.0026811 -1.75178e-19)
(1.04701 0.0254206 -2.14676e-17)
(1.05962 0.0609116 -9.0578e-23)
(1.25042 0.274142 2.10808e-18)
(1.01109 0.00270569 2.73703e-18)
(1.16511 0.0125061 -1.08462e-17)
(0.999559 0.00019391 -6.76806e-19)
(0.997063 0.0094842 4.12796e-20)