/*--------------------------------*- C++ -*----------------------------------*\
  =========                 |
  \\      /  F ield         | OpenFOAM: The Open Source CFD Toolbox
   \\    /   O peration     | Website:  https://openfoam.org
    \\  /    A nd           | Version:  7
     \\/     M anipulation  |
\*---------------------------------------------------------------------------*/
FoamFile
{
    version     2.0;
    format      ascii;
    class       surfaceScalarField;
    location    "113";
    object      phi;
}
// * * * * * * * * * * * * * * * * * * * * * * * * * * * * * * * * * * * * * //

dimensions      [0 3 -1 0 0 0 0];

internalField   nonuniform List<scalar> 
53160
(
-0.000194956
0.00882538
-0.00863042
-0.000134136
0.00949619
-0.00955701
0.000283734
0.00525184
-0.00566971
0.000908272
-0.00399479
0.00337025
0.00148698
-0.0103758
0.00979709
0.00191143
-0.0139536
0.0135291
0.00205011
-0.0153996
0.015261
0.00194028
-0.0161089
0.0162188
0.00238334
-0.0142503
0.0138072
0.00356762
-0.00659366
0.00540938
0.00484668
0.00273097
-0.00401003
0.0060012
0.00953845
-0.010693
0.00682206
0.0131786
-0.0139995
0.00707112
0.01546
-0.0157091
0.00704017
0.0179195
-0.0178885
0.00741189
0.0156225
-0.0159942
0.00861563
0.00680959
-0.00801333
0.0103444
-0.00351044
0.00178169
0.0117141
-0.0101627
0.00879299
-0.0153615
0.0147825
0.0122931
-0.000160168
0.00898555
-6.95252e-05
0.00940554
0.000378803
0.00480351
0.00101696
-0.00463295
0.00158563
-0.0109445
0.00198961
-0.0143575
0.00213328
-0.0155433
0.00199978
-0.0159754
0.00229501
-0.0145455
0.00335816
-0.00765681
0.00463797
0.00145115
0.00587285
0.00830358
0.00674049
0.012311
0.00703337
0.0151672
0.00705055
0.0179023
0.0075796
0.0150934
0.00882232
0.00556687
0.0105157
-0.00520384
0.0119791
-0.0116261
-0.015864
0.0124816
-0.000125679
0.00911123
-7.68899e-06
0.00928755
0.000476671
0.00431915
0.00112855
-0.00528482
0.00168788
-0.0115038
0.00207046
-0.0147401
0.00222015
-0.015693
0.00208107
-0.0158363
0.00224632
-0.0147108
0.00318828
-0.00859877
0.00446525
0.00017419
0.00576175
0.00700707
0.00667163
0.0114011
0.00700657
0.0148322
0.0071106
0.0177983
0.00789097
0.0143131
0.00919591
0.00426193
0.0107679
-0.00677579
0.0122559
-0.0131141
-0.0162712
0.0126631
-9.19404e-05
0.00920317
6.26644e-05
0.00913295
0.000577023
0.00380479
0.00124222
-0.00595002
0.00179223
-0.0120538
0.00215329
-0.0151012
0.00230905
-0.0158488
0.00217884
-0.0157061
0.0022382
-0.0147701
0.00306666
-0.00942723
0.00433435
-0.00109351
0.00567177
0.00566966
0.00661424
0.0104586
0.00698263
0.0144638
0.00720848
0.0175724
0.00828888
0.0132327
0.00970194
0.00284888
0.0111084
-0.00818229
0.0125201
-0.0145258
-0.016587
0.0128359
-5.93525e-05
0.00926252
0.000129928
0.00894367
0.000679484
0.00325524
0.00135713
-0.00662766
0.00189712
-0.0125938
0.00223758
-0.0154416
0.00239813
-0.0160093
0.002288
-0.015596
0.0022676
-0.0147497
0.00299386
-0.0101535
0.0042485
-0.00234815
0.00560476
0.0043134
0.00656242
0.00950098
0.00695788
0.0140684
0.0073334
0.0171969
0.0086945
0.0118716
0.0102604
0.00128303
0.0115191
-0.00944102
0.0127518
-0.0157585
-0.0168336
0.0129984
-2.81229e-05
0.00929064
0.00019592
0.00871963
0.000783685
0.00266747
0.00147232
-0.0073163
0.00200108
-0.0131225
0.00232292
-0.0157635
0.00248544
-0.0161718
0.00240412
-0.0155147
0.00232835
-0.014674
0.00296322
-0.0107884
0.00420378
-0.00358871
0.00555645
0.00296073
0.00650725
0.00855019
0.00693237
0.0136433
0.00748941
0.0166399
0.00907162
0.0102893
0.0108023
-0.000447632
0.0119629
-0.0106016
0.012943
-0.0167387
-0.0170366
0.013146
2.46057e-06
0.00928818
0.000260627
0.00846146
0.000889191
0.00203891
0.00158678
-0.00801389
0.00210282
-0.0136386
0.00240866
-0.0160693
0.00256921
-0.0163324
0.00252317
-0.0154686
0.0024133
-0.0145641
0.00296146
-0.0113365
0.00418714
-0.00481439
0.00551478
0.00163309
0.00643936
0.00762561
0.00690472
0.0131779
0.00769218
0.0158524
0.00945175
0.00852977
0.0113054
-0.00230133
0.0123995
-0.0116957
0.0130979
-0.0174371
-0.0172104
0.0132717
2.65457e-05
0.00926163
0.000323794
0.00816421
0.000995488
0.00136721
0.00169945
-0.00871785
0.00220129
-0.0141404
0.00249371
-0.0163617
0.00264827
-0.0164869
0.00264089
-0.0154613
0.0025158
-0.014439
0.00297359
-0.0117943
0.00417474
-0.00601554
0.00546213
0.000345709
0.00634862
0.00673911
0.00687123
0.0126553
0.00795068
0.014773
0.00988649
0.00659396
0.011781
-0.00419582
0.0127949
-0.0127096
0.013227
-0.0178692
-0.0173529
0.0133695
4.925e-05
0.00921238
0.000385201
0.00782826
0.00110197
0.000650449
0.00180926
-0.00942515
0.00229565
-0.0146268
0.0025765
-0.0166426
0.0027224
-0.0166328
0.00275279
-0.0154916
0.0026309
-0.0143171
0.00298799
-0.0121514
0.00413691
-0.00716447
0.0053769
-0.000894278
0.00622061
0.0058954
0.00683138
0.0120445
0.00825804
0.0133463
0.0103871
0.0044649
0.0122314
-0.00604011
0.013124
-0.0136022
0.0133408
-0.0180859
-0.0174498
0.0134376
6.92383e-05
0.00914315
0.00044467
0.00745283
0.00120793
-0.000112807
0.00191522
-0.0101324
0.00238514
-0.0150967
0.00265529
-0.0169127
0.00279229
-0.0167698
0.00285494
-0.0155543
0.00275525
-0.0142174
0.00300122
-0.0123974
0.00404787
-0.00821112
0.00523214
-0.00207855
0.00603616
0.00509139
0.00679281
0.0112879
0.00860294
0.0115362
0.0109112
0.0021566
0.0126338
-0.00776264
0.0133713
-0.0143397
0.0134393
-0.0181539
-0.0174893
0.0134788
8.63892e-05
0.00905676
0.000502177
0.00703704
0.00131257
-0.000923201
0.00201639
-0.0108363
0.00246907
-0.0155494
0.00272856
-0.0171722
0.00285898
-0.0169003
0.00294509
-0.0156404
0.00288476
-0.0141571
0.00301881
-0.0125314
0.0038953
-0.00908761
0.0049999
-0.00318315
0.00577984
0.00431144
0.00677298
0.0102947
0.00898713
0.00932202
0.0114024
-0.000258636
0.0129549
-0.00931522
0.0135276
-0.0149124
0.0135068
-0.0181331
-0.0174794
0.0134968
0.000100928
0.00895583
0.000557947
0.00658002
0.00141502
-0.00178028
0.00211194
-0.0115332
0.00254675
-0.0159842
0.00279533
-0.0174208
0.00292302
-0.0170279
0.00302337
-0.0157407
0.00301317
-0.0141469
0.00305264
-0.0125709
0.00369208
-0.00972705
0.00466483
-0.0041559
0.00545892
0.00351735
0.00680471
0.00894895
0.00941664
0.00671009
0.0118234
-0.00266537
0.0131705
-0.0106623
0.0135883
-0.0153302
0.0135212
-0.0180659
-0.0174499
0.0134916
0.000113405
0.00884242
0.00061255
0.00608088
0.00151437
-0.00268209
0.00220115
-0.01222
0.00261754
-0.0164006
0.0028552
-0.0176585
0.00298398
-0.0171567
0.00309201
-0.0158488
0.00313371
-0.0141886
0.00311639
-0.0125536
0.00348281
-0.0100935
0.00425214
-0.00492523
0.00513086
0.00263862
0.00694345
0.00713637
0.00987721
0.00377633
0.0121491
-0.00493725
0.0132673
-0.0117805
0.0135565
-0.0156194
0.013473
-0.0179824
-0.0174384
0.0134615
0.000124695
0.00871773
0.000666947
0.00553862
0.0016097
-0.00362484
0.00228341
-0.0128937
0.00268089
-0.0167981
0.00290815
-0.0178857
0.00304052
-0.0172891
0.0031543
-0.0159626
0.00324204
-0.0142763
0.00321928
-0.0125308
0.0033388
-0.010213
0.00386544
-0.00545187
0.00492936
0.00157471
0.00725733
0.00480839
0.0103281
0.000705567
0.0123524
-0.00696158
0.0132397
-0.0126678
0.01344
-0.0158197
0.0133713
-0.0179136
-0.017478
0.0134109
0.000135963
0.00858177
0.000722471
0.00495212
0.00170016
-0.00460253
0.00235819
-0.0135517
0.00273643
-0.0171763
0.00295424
-0.0181035
0.00309111
-0.017426
0.00321309
-0.0160845
0.00333786
-0.0144011
0.00335945
-0.0125524
0.00333795
-0.0101915
0.00369178
-0.0058057
0.00503586
0.000230625
0.00776837
0.00207588
0.0107102
-0.00223629
0.012409
-0.00866032
0.0130921
-0.013351
0.0132535
-0.015981
0.0132312
-0.0178914
-0.0175921
0.0133453
0.000148541
0.00843323
0.000780692
0.00431997
0.001785
-0.00560684
0.00242508
-0.0141918
0.00278393
-0.0175352
0.00299345
-0.0183131
0.00313485
-0.0175674
0.0032694
-0.0162191
0.00342338
-0.0145551
0.00352213
-0.0126512
0.00352131
-0.0101907
0.00389292
-0.00617732
0.00553511
-0.00141156
0.00838117
-0.000770186
0.0109511
-0.00480619
0.0123076
-0.0100169
0.0128434
-0.0138868
0.0130183
-0.016156
0.0130632
-0.0179363
-0.017789
0.0132601
0.000163716
0.00826951
0.000843158
0.00364052
0.00186358
-0.00662726
0.00248376
-0.014812
0.00282334
-0.0178748
0.00302567
-0.0185154
0.00317161
-0.0177133
0.00332216
-0.0163696
0.00350162
-0.0147346
0.00368517
-0.0128347
0.00384448
-0.01035
0.0044343
-0.00676713
0.00627032
-0.00324758
0.0089005
-0.00340037
0.0109889
-0.00689455
0.0120621
-0.0110901
0.0125266
-0.0143513
0.0127555
-0.0163849
0.0128754
-0.0180561
-0.0180678
0.0131542
0.000182468
0.00808704
0.000911039
0.00291195
0.0019354
-0.00765162
0.00253398
-0.0154105
0.00285469
-0.0181955
0.00305082
-0.0187115
0.00320174
-0.0178642
0.00336939
-0.0165373
0.00357511
-0.0149403
0.003833
-0.0130926
0.00419599
-0.010713
0.00506121
-0.00763235
0.00692442
-0.00511078
0.00915699
-0.00563294
0.0108167
-0.00855424
0.0117167
-0.0119901
0.0121797
-0.0148144
0.0124801
-0.0166852
0.0126778
-0.0182538
-0.0184182
0.0130282
0.000205197
0.00788184
0.000984749
0.0021324
0.00200005
-0.00866692
0.00257562
-0.0159861
0.00287809
-0.018498
0.00306894
-0.0189024
0.00322548
-0.0180208
0.00340967
-0.0167215
0.00364372
-0.0151743
0.00396279
-0.0134117
0.00448304
-0.0112332
0.00552121
-0.00867053
0.00727073
-0.0068603
0.00912421
-0.00748643
0.0105017
-0.00993174
0.0113316
-0.0128199
0.0118323
-0.0153151
0.0122021
-0.0170551
0.012476
-0.0185277
-0.0188269
0.0128848
0.000231546
0.0076503
0.00106367
0.00130027
0.00205721
-0.00966046
0.00260866
-0.0165376
0.00289372
-0.018783
0.0030802
-0.0190889
0.00324281
-0.0181834
0.00344262
-0.0169213
0.00370488
-0.0154366
0.00407421
-0.013781
0.00467979
-0.0118388
0.005755
-0.00974574
0.00733262
-0.00843792
0.00891828
-0.00907209
0.0101414
-0.0111549
0.0109543
-0.0136328
0.0114995
-0.0158604
0.0119278
-0.0174833
0.0122699
-0.0188698
-0.0192826
0.0127256
0.000260387
0.00738991
0.0011461
0.000414564
0.00210663
-0.010621
0.00263317
-0.0170641
0.00290183
-0.0190517
0.0030848
-0.0192718
0.00325369
-0.0183523
0.00346829
-0.0171359
0.00375601
-0.0157243
0.00416491
-0.0141899
0.00480758
-0.0124815
0.00584822
-0.0107864
0.00726244
-0.00985214
0.00866915
-0.0104788
0.00979784
-0.0122836
0.0106036
-0.0144385
0.0111843
-0.0164411
0.0116582
-0.0179571
0.0120584
-0.0192701
-0.0197759
0.0125518
0.000290024
0.00709989
0.00122944
-0.000524854
0.0021481
-0.0115396
0.00264929
-0.0175653
0.00290271
-0.0193051
0.00308298
-0.0194521
0.00325816
-0.0185274
0.00348657
-0.0173643
0.00379594
-0.0160337
0.00423408
-0.014628
0.00489206
-0.0131394
0.00588238
-0.0117767
0.00716007
-0.0111298
0.00843146
-0.0117502
0.00948419
-0.0133363
0.0102791
-0.0152334
0.0108839
-0.0170459
0.0113928
-0.018466
0.0118417
-0.019719
-0.0202995
0.0123652
0.000318561
0.00678133
0.00131067
-0.00151696
0.00218148
-0.0124105
0.00265728
-0.0180411
0.00289671
-0.0195445
0.00307498
-0.0196304
0.00325631
-0.0187088
0.00349727
-0.0176053
0.00382451
-0.0163609
0.00428318
-0.0150867
0.00494538
-0.0138016
0.00588569
-0.012717
0.00704948
-0.0122936
0.00820901
-0.0129097
0.00919515
-0.0143225
0.0099755
-0.0160138
0.0105954
-0.0176658
0.0111315
-0.0190021
0.0116195
-0.0202071
-0.0208467
0.0121668
0.000344344
0.00643698
0.00138684
-0.00255946
0.00220675
-0.0132304
0.00265744
-0.0184918
0.00288417
-0.0197713
0.00306108
-0.0198073
0.00324828
-0.018896
0.00350034
-0.0178573
0.00384185
-0.0167024
0.00431398
-0.0155588
0.00497246
-0.0144601
0.00586442
-0.013609
0.006932
-0.0133612
0.0079975
-0.0139752
0.00892533
-0.0152503
0.00968887
-0.0167773
0.0103165
-0.0182935
0.0108738
-0.0195594
0.0113917
-0.020725
-0.0214119
0.0119569
0.000366334
0.00607065
0.00145553
-0.00364865
0.00222402
-0.0139989
0.00265016
-0.0189179
0.00286549
-0.0199866
0.00304156
-0.0199834
0.0032342
-0.0190886
0.00349582
-0.0181189
0.00384822
-0.0170548
0.00432807
-0.0160387
0.00497717
-0.0151092
0.00582304
-0.0144549
0.00680872
-0.0143469
0.00779436
-0.0149609
0.00867066
-0.0161266
0.0094157
-0.0175224
0.0100457
-0.0189234
0.0106189
-0.0201326
0.0111579
-0.021264
-0.0219899
0.011736
0.000384332
0.00568632
0.00151512
-0.00477945
0.00223355
-0.0147173
0.00263591
-0.0193203
0.00284105
-0.0201917
0.00301669
-0.020159
0.00321425
-0.0192862
0.00348384
-0.0183885
0.00384403
-0.017415
0.00432689
-0.0165215
0.00496271
-0.015745
0.00576518
-0.0152573
0.00668042
-0.0152621
0.00759731
-0.0158777
0.00842769
-0.016957
0.00915298
-0.0182477
0.00978119
-0.0195516
0.0103656
-0.020717
0.0109176
-0.021816
-0.0225778
0.0115055
0.000399028
0.00528729
0.00156481
-0.00594522
0.00223575
-0.0153882
0.00261519
-0.0196997
0.00281125
-0.0203878
0.00298676
-0.0203345
0.00318861
-0.019488
0.00346456
-0.0186645
0.00382973
-0.0177802
0.00431181
-0.0170036
0.00493166
-0.0163649
0.00569342
-0.0160191
0.00654742
-0.0161161
0.00740448
-0.0167348
0.00819358
-0.0177461
0.00889821
-0.0189523
0.00952193
-0.0201754
0.0101129
-0.021308
0.0106706
-0.0223738
-0.0231746
0.0112674
0.000411894
0.00487539
0.00160446
-0.00713779
0.00223114
-0.0160149
0.00258852
-0.0200571
0.00277649
-0.0205757
0.00295201
-0.02051
0.00315746
-0.0196935
0.00343818
-0.0189452
0.00380582
-0.0181478
0.00428405
-0.0174819
0.00488612
-0.0169669
0.00560978
-0.0167427
0.00640995
-0.0169163
0.0072144
-0.0175393
0.00796602
-0.0184977
0.00864935
-0.0196356
0.00926684
-0.0207928
0.0098595
-0.0219007
0.0104179
-0.0229322
-0.0237789
0.0110222
0.000425005
0.00445039
0.00163445
-0.00834723
0.0022203
-0.0166008
0.00255644
-0.0203933
0.00273714
-0.0207564
0.00291272
-0.0206856
0.00312101
-0.0199017
0.00340496
-0.0192291
0.00377282
-0.0185157
0.00424472
-0.0179538
0.00482785
-0.0175501
0.00551583
-0.0174307
0.00626816
-0.0176686
0.0070259
-0.018297
0.00774307
-0.0192149
0.00840481
-0.0202974
0.00901474
-0.0214028
0.00960436
-0.0224903
0.0101618
-0.0234896
-0.0243872
0.0107701
0.000440818
0.00400957
0.00165545
-0.00956186
0.00220384
-0.0171491
0.00251948
-0.0207089
0.00269355
-0.0209305
0.00286912
-0.0208612
0.00307945
-0.0201121
0.00336514
-0.0195148
0.00373124
-0.0188818
0.00419481
-0.0184173
0.00475829
-0.0181136
0.00541281
-0.0180852
0.00612217
-0.018378
0.00683806
-0.0190129
0.00752313
-0.0198999
0.00816346
-0.0209377
0.00876426
-0.0220036
0.00934634
-0.0230724
0.00990588
-0.0240491
-0.0249828
0.0105015
0.000461914
0.00354766
0.00166829
-0.0107682
0.00218227
-0.0176631
0.00247805
-0.0210047
0.00264599
-0.0210984
0.00282132
-0.0210365
0.00303286
-0.0203236
0.00331887
-0.0198008
0.00368145
-0.0192444
0.00413509
-0.018871
0.00467851
-0.018657
0.00530154
-0.0187083
0.0059719
-0.0190483
0.00664986
-0.0196908
0.00730475
-0.0205548
0.00792407
-0.021557
0.00851368
-0.0225932
0.00908426
-0.0236429
0.00964299
-0.0246079
-0.0255979
0.0102581
0.000490704
0.00305695
0.00167394
-0.0119515
0.00215623
-0.0181454
0.00243277
-0.0212812
0.00259494
-0.0212606
0.00276977
-0.0212113
0.00298167
-0.0205355
0.00326667
-0.0200858
0.00362421
-0.0196019
0.00406664
-0.0193134
0.00458985
-0.0191802
0.00518316
-0.0193016
0.00581784
-0.019683
0.0064611
-0.0203341
0.00708745
-0.0211812
0.00768617
-0.0221557
0.00826246
-0.0231695
0.00882213
-0.0242026
0.0093843
-0.02517
-0.026185
0.00997141
0.000529036
0.00252792
0.00167333
-0.0130958
0.00212607
-0.0185981
0.00238396
-0.0215391
0.00254059
-0.0214172
0.00271454
-0.0213853
0.00292595
-0.0207469
0.0032087
-0.0203686
0.00355986
-0.0199531
0.00399006
-0.0197436
0.00449304
-0.0196832
0.00505818
-0.0198667
0.00565989
-0.0202847
0.00627105
-0.0209453
0.00687026
-0.0217804
0.00744856
-0.022734
0.00801003
-0.023731
0.00855923
-0.0247518
0.00911529
-0.0257261
-0.026753
0.00968334
0.000577732
0.00195018
0.00166731
-0.0141853
0.00209212
-0.019023
0.00233198
-0.021779
0.00248321
-0.0215685
0.00265581
-0.0215579
0.0028659
-0.020957
0.00314522
-0.0206479
0.00348883
-0.0202967
0.00390598
-0.0201607
0.00438881
-0.020166
0.00492713
-0.020405
0.00549813
-0.0208557
0.00607932
-0.0215265
0.00665257
-0.0223536
0.00721052
-0.023292
0.00775625
-0.0242767
0.00829319
-0.0252887
0.00883978
-0.0262727
-0.0273069
0.00939359
0.000636064
0.00131412
0.00165668
-0.015206
0.00205458
-0.0194209
0.00227711
-0.0220015
0.00242303
-0.0217144
0.00259378
-0.0217287
0.0028017
-0.0211649
0.00307651
-0.0209227
0.00341155
-0.0206317
0.00381499
-0.0205642
0.00427782
-0.0206288
0.00479049
-0.0209177
0.00533265
-0.0213979
0.00588561
-0.0220794
0.00643388
-0.0229019
0.00697154
-0.0238296
0.0075005
-0.0248056
0.0080246
-0.0258128
0.00855777
-0.0268058
-0.0278463
0.00909716
0.000701619
0.000612502
0.00164202
-0.0161464
0.00201358
-0.0197924
0.00221959
-0.0222075
0.00236024
-0.021855
0.00252859
-0.021897
0.00273355
-0.0213699
0.00300283
-0.021192
0.00332841
-0.0209573
0.00371761
-0.0209534
0.00416062
-0.0210718
0.00464865
-0.0214057
0.00516353
-0.0219128
0.00568969
-0.0226056
0.00621381
-0.023426
0.0067311
-0.0243469
0.00724287
-0.0253174
0.00775221
-0.0263222
0.0082706
-0.0273242
-0.0283722
0.00879652
0.000770191
-0.000157689
0.00162345
-0.0169996
0.00196921
-0.0201382
0.00215964
-0.022398
0.00229505
-0.0219904
0.0024604
-0.0220623
0.00266161
-0.0215711
0.00292444
-0.0214548
0.00323979
-0.0212727
0.00361432
-0.0213279
0.0040377
-0.0214952
0.00450197
-0.02187
0.00499087
-0.0224017
0.0054914
-0.0231061
0.00599202
-0.0239266
0.00648898
-0.0248439
0.00698278
-0.0258112
0.00747655
-0.026816
0.00797926
-0.0278269
-0.0288824
0.0084895
0.000836263
-0.000993952
0.00160089
-0.0177642
0.00192159
-0.0204589
0.00209744
-0.0225738
0.00222761
-0.0221206
0.00238936
-0.0222241
0.00258607
-0.0217678
0.0028416
-0.0217103
0.00314604
-0.0215771
0.00350556
-0.0216874
0.00390949
-0.0218992
0.00435076
-0.0223113
0.00481476
-0.0228657
0.00529061
-0.0235819
0.00576831
-0.0244043
0.00624482
-0.0253204
0.0067203
-0.0262867
0.00719741
-0.0272931
0.00768318
-0.0283127
-0.029377
0.00817773
0.000894089
-0.00188804
0.0015742
-0.0184444
0.00187087
-0.0207556
0.00203316
-0.0227361
0.00215807
-0.0222455
0.0023156
-0.0223816
0.00250711
-0.0219593
0.00275454
-0.0219578
0.00304749
-0.0218701
0.0033917
-0.0220316
0.00377638
-0.0222838
0.0041953
-0.0227302
0.00463529
-0.0233056
0.00508727
-0.0240339
0.00554246
-0.0248595
0.00599854
-0.0257765
0.00645516
-0.0267433
0.00691483
-0.0277527
0.00738339
-0.0287813
-0.0298543
0.00786069
0.000939028
-0.00282707
0.0015433
-0.0190486
0.00181729
-0.0210295
0.00196696
-0.0228858
0.00208659
-0.0223652
0.00223928
-0.0225343
0.00242489
-0.022145
0.0026635
-0.0221964
0.00294446
-0.022151
0.00327312
-0.0223603
0.00363872
-0.0226494
0.00403583
-0.0231273
0.00445257
-0.0237224
0.00488133
-0.0244627
0.00531439
-0.0252926
0.00574993
-0.026212
0.00618735
-0.0271807
0.00662903
-0.0281944
0.0070793
-0.0292316
-0.030314
0.007539
0.000968607
-0.00379568
0.00150833
-0.0195884
0.00176111
-0.0212823
0.00189901
-0.0230237
0.00201328
-0.0224794
0.00216052
-0.0226816
0.00233959
-0.022324
0.00256872
-0.0224255
0.00283723
-0.0224195
0.00315014
-0.0226732
0.00349682
-0.0229961
0.00387259
-0.0235031
0.00426672
-0.0241165
0.00467278
-0.0248687
0.005084
-0.0257038
0.00549897
-0.026627
0.00591687
-0.0275986
0.00633985
-0.0286174
0.00677163
-0.0296633
-0.0307551
0.00721277
0.000982833
-0.00477851
0.0014696
-0.0200751
0.00170267
-0.0215154
0.00182946
-0.0231504
0.00193826
-0.0225882
0.00207944
-0.0228227
0.00225137
-0.022496
0.0024704
-0.0226445
0.00272608
-0.0226752
0.00302306
-0.0229702
0.00335097
-0.023324
0.00370581
-0.0238579
0.00407783
-0.0244885
0.00446166
-0.0252526
0.00485127
-0.0260934
0.00524559
-0.0270213
0.00564366
-0.0279967
0.00604761
-0.0290214
0.00646011
-0.0300758
-0.0311772
0.00688218
0.000983665
-0.00576217
0.00142756
-0.020519
0.00164229
-0.0217301
0.00175849
-0.0232667
0.00186165
-0.0226914
0.00199618
-0.0229573
0.00216039
-0.0226602
0.00236877
-0.0228529
0.00261127
-0.0229177
0.00289217
-0.0232511
0.00320144
-0.0236333
0.00353568
-0.0241922
0.00388604
-0.0248389
0.00424799
-0.0256145
0.00461617
-0.0264616
0.00498979
-0.0273949
0.00536781
-0.0283747
0.0057522
-0.0294057
0.00614514
-0.0304688
-0.0315795
0.0065475
0.000974027
-0.0067362
0.00138268
-0.0209277
0.00158024
-0.0219277
0.00168622
-0.0233726
0.00178355
-0.0227887
0.00191086
-0.0230846
0.00206682
-0.0228161
0.00226403
-0.0230501
0.00249304
-0.0231467
0.00275773
-0.0235158
0.00304848
-0.0239241
0.00336241
-0.0245061
0.00369147
-0.025168
0.00403184
-0.0259549
0.00437874
-0.0268085
0.0047316
-0.0277478
0.00508932
-0.0287324
0.00545386
-0.0297703
0.0058267
-0.0308416
-0.0319616
0.0062088
0.000956855
-0.00769305
0.00133544
-0.0213063
0.00151681
-0.0221091
0.00161281
-0.0234686
0.00170406
-0.0228799
0.0018236
-0.0232041
0.0019708
-0.0229633
0.00215638
-0.0232357
0.00237164
-0.023362
0.00261999
-0.0237641
0.00289232
-0.0241964
0.00318618
-0.0247999
0.00349424
-0.025476
0.00381328
-0.0262739
0.00413901
-0.0271342
0.00447105
-0.0280798
0.0048083
-0.0290697
0.00515258
-0.0301146
0.00550499
-0.031194
-0.032323
0.00586634
0.000934527
-0.00862758
0.00128619
-0.0216579
0.00145223
-0.0222751
0.00153839
-0.0235548
0.00162329
-0.0229648
0.00173451
-0.0233153
0.00187248
-0.0231013
0.002046
-0.0234092
0.00224728
-0.0235632
0.00247918
-0.023996
0.00273318
-0.0244504
0.00300717
-0.0250739
0.00329449
-0.0257633
0.00359241
-0.0265719
0.00389706
-0.0274389
0.00420821
-0.028391
0.00452479
-0.0293863
0.00484855
-0.0304383
0.00518011
-0.0315256
-0.0326631
0.00552021
0.000908711
-0.00953629
0.00123524
-0.0219844
0.00138669
-0.0224265
0.00146306
-0.0236312
0.00154133
-0.0230431
0.00164371
-0.0234177
0.00177203
-0.0232296
0.00193309
-0.0235703
0.00212017
-0.0237503
0.00233553
-0.0242114
0.00257127
-0.0246861
0.00282557
-0.0253282
0.00309236
-0.0260301
0.00336932
-0.0268488
0.00365296
-0.0277225
0.00394316
-0.0286812
0.00423892
-0.029682
0.00454183
-0.0307412
0.00485219
-0.031836
-0.0329815
0.00517064
0.000880506
-0.0104168
0.00118288
-0.0222868
0.00132037
-0.022564
0.00138695
-0.0236978
0.00145826
-0.0231144
0.00155132
-0.0235108
0.00166958
-0.0233479
0.00181782
-0.0237185
0.00199051
-0.023923
0.00218924
-0.0244101
0.00240679
-0.0249037
0.00264155
-0.025563
0.00288799
-0.0262766
0.00314411
-0.0271049
0.0034068
-0.0279852
0.00367601
-0.0289504
0.00395075
-0.0299568
0.00423257
-0.0310231
0.0045214
-0.0321248
-0.0332779
0.00481777
0.000850574
-0.0112674
0.00112938
-0.0225656
0.00125343
-0.0226881
0.00131015
-0.0237545
0.00137417
-0.0231784
0.00145745
-0.0235941
0.00156528
-0.0234557
0.00170036
-0.0238536
0.0018585
-0.0240812
0.00204051
-0.0245921
0.00223994
-0.0251031
0.00245527
-0.0257783
0.00268151
-0.0265028
0.00291692
-0.0273404
0.00315869
-0.028227
0.00340683
-0.0291985
0.00366044
-0.0302104
0.00392089
-0.0312835
0.00418787
-0.0323918
-0.0335519
0.00446184
0.000819333
-0.0120867
0.00107499
-0.0228213
0.001186
-0.0227991
0.00123275
-0.0238012
0.00128916
-0.0232348
0.00136221
-0.0236671
0.00145926
-0.0235528
0.00158089
-0.0239752
0.00172433
-0.0242246
0.00188954
-0.0247573
0.00207089
-0.0252845
0.0022669
-0.0259743
0.00247308
-0.026709
0.00268787
-0.0275551
0.00290875
-0.0284479
0.00313577
-0.0294256
0.00336808
-0.0304427
0.00360693
-0.0315224
0.00385178
-0.0326366
-0.0338031
0.00410303
0.00078707
-0.0128738
0.00101989
-0.0230541
0.00111822
-0.0228974
0.00115485
-0.0238379
0.0012033
-0.0232833
0.00126569
-0.0237295
0.00135167
-0.0236387
0.00145956
-0.0240831
0.00158816
-0.0243532
0.00173651
-0.0249057
0.00189984
-0.0254478
0.00207662
-0.0261511
0.00226283
-0.0268952
0.00245708
-0.0277494
0.0026571
-0.0286479
0.00286294
-0.0296314
0.00307382
-0.0306536
0.00329085
-0.0317394
0.00351331
-0.0328591
-0.0340314
0.00374158
0.000754002
-0.0136278
0.000964282
-0.0232644
0.00105019
-0.0229833
0.00107652
-0.0238642
0.00111668
-0.0233235
0.00116802
-0.0237809
0.00124263
-0.0237134
0.00133653
-0.024177
0.00145018
-0.0244669
0.00158161
-0.0250371
0.00172695
-0.0255931
0.00188458
-0.0263088
0.00205092
-0.0270615
0.0022247
-0.0279232
0.00240387
-0.028827
0.00258848
-0.029816
0.0027778
-0.0308429
0.00297281
-0.0319344
0.00317266
-0.0330589
-0.0342364
0.00337773
0.000720308
-0.0143481
0.00090832
-0.0234524
0.000982001
-0.023057
0.000997825
-0.02388
0.00102938
-0.023355
0.00106929
-0.0238208
0.00113229
-0.0237763
0.00121196
-0.0242567
0.00131055
-0.0245655
0.00142501
-0.0251516
0.0015524
-0.0257205
0.00169094
-0.0264473
0.0018375
-0.0272081
0.00199086
-0.0280765
0.0021492
-0.0289854
0.00231253
-0.0299793
0.00248017
-0.0310105
0.00265298
-0.0321072
0.00283003
-0.033236
-0.0344181
0.00301172
0.000686135
-0.0150342
0.000852148
-0.0236184
0.000913755
-0.0231186
0.000918843
-0.0238851
0.000941492
-0.0233777
0.000969606
-0.0238489
0.00102075
-0.0238275
0.00108599
-0.0243219
0.00116943
-0.0246489
0.00126687
-0.025249
0.00137635
-0.02583
0.00149587
-0.0265668
0.00162271
-0.0273349
0.00175571
-0.0282095
0.00189323
-0.0291229
0.00203524
-0.0301214
0.0021811
-0.0311564
0.00233155
-0.0322577
0.00248564
-0.0333901
-0.0345763
0.00264377
0.000651616
-0.0156858
0.00079589
-0.0237627
0.000845527
-0.0231682
0.000839633
-0.0238792
0.000853085
-0.0233911
0.000869066
-0.0238649
0.000908171
-0.0238666
0.000958751
-0.0243725
0.00102699
-0.0247171
0.00110736
-0.0253294
0.00119898
-0.0259216
0.00129952
-0.0266674
0.00140672
-0.0274421
0.00151941
-0.0283222
0.00163613
-0.0292396
0.00175677
-0.030242
0.00188076
-0.0312804
0.00200872
-0.0323856
0.00213971
-0.0335211
-0.0347107
0.00227415
0.000616863
-0.0163027
0.000739654
-0.0238855
0.000777389
-0.023206
0.000760255
-0.0238621
0.000764248
-0.0233951
0.00076776
-0.0238684
0.000794672
-0.0238935
0.000830371
-0.0244082
0.000883407
-0.0247702
0.000946613
-0.0253926
0.00102044
-0.0259955
0.00110205
-0.026749
0.00118967
-0.0275297
0.00128209
-0.0284146
0.00137803
-0.0293356
0.00147728
-0.0303412
0.00157932
-0.0313824
0.00168466
-0.032491
0.00179248
-0.0336289
-0.0348213
0.00190307
0.000581978
-0.0168847
0.000683536
-0.023987
0.00070941
-0.0232318
0.000680759
-0.0238334
0.000675074
-0.0233894
0.000665762
-0.0238591
0.000680401
-0.0239082
0.00070096
-0.0244288
0.000738844
-0.0248081
0.000784782
-0.0254385
0.000840899
-0.0260516
0.000903616
-0.0268117
0.000971726
-0.0275979
0.00104393
-0.0284868
0.00111911
-0.0294107
0.00119693
-0.0304191
0.00127698
-0.0314625
0.0013596
-0.0325736
0.00144415
-0.0337134
-0.0349079
0.00153079
0.00054705
-0.0174317
0.000627615
-0.0240676
0.000641652
-0.0232459
0.000601187
-0.023793
0.00058566
-0.0233739
0.00056314
-0.0238365
0.000565497
-0.0239105
0.000570647
-0.0244339
0.000593436
-0.0248309
0.000622024
-0.0254671
0.000660496
-0.02609
0.000704368
-0.0268556
0.000753033
-0.0276465
0.000805062
-0.0285389
0.000859512
-0.0294652
0.000915922
-0.0304755
0.00097392
-0.0315205
0.00103375
-0.0326334
0.0010949
-0.0337746
-0.0349706
0.00115758
0.000512156
-0.0179439
0.000571959
-0.0241274
0.000574177
-0.0232481
0.000521568
-0.0237404
0.000496106
-0.0233484
0.000459965
-0.0238004
0.000450071
-0.0239006
0.00043959
-0.0244234
0.000447255
-0.0248385
0.000458535
-0.0254784
0.000479332
-0.0261108
0.000504481
-0.0268807
0.000533726
-0.0276758
0.000565663
-0.0285708
0.000599395
-0.0294989
0.000634422
-0.0305105
0.000670348
-0.0315564
0.000707406
-0.0326705
0.000744898
-0.0338121
-0.0350094
0.000783693
0.00047737
-0.0184213
0.000516627
-0.0241667
0.00050705
-0.0232385
0.000441922
-0.0236752
0.000406508
-0.023313
0.000356316
-0.0237502
0.000334222
-0.0238785
0.000307902
-0.0243971
0.000300434
-0.024831
0.000294438
-0.0254724
0.000297572
-0.026114
0.000304075
-0.0268872
0.00031393
-0.0276856
0.000325863
-0.0285827
0.000338916
-0.029512
0.00035259
-0.0305242
0.000366437
-0.0315702
0.000380789
-0.0326848
0.000394608
-0.0338259
-0.0350239
0.000409091
0.000442724
-0.018864
0.000461608
-0.0241855
0.000440262
-0.0232172
0.000362172
-0.0235971
0.000316853
-0.0232677
0.00025206
-0.0236854
0.000218059
-0.0238445
0.000175175
-0.0243542
0.000153389
-0.0248093
0.00012914
-0.0254481
0.00011557
-0.0261004
0.000102677
-0.0268743
9.35653e-05
-0.0276765
8.52946e-05
-0.0285745
7.79185e-05
-0.0295046
7.00159e-05
-0.0305163
6.19286e-05
-0.0315621
5.31781e-05
-0.0326761
4.50354e-05
-0.0338177
-0.0350109
3.20683e-05
0.000408333
-0.0192723
0.000407043
-0.0241842
0.000374019
-0.0231842
0.000282501
-0.0235056
0.000227541
-0.0232127
0.000147121
-0.023605
0.000102737
-0.0238001
4.01335e-05
-0.0242916
9.23973e-06
-0.0247784
-3.68021e-05
-0.0254021
-6.65545e-05
-0.0260707
-9.80486e-05
-0.0268428
-0.000126511
-0.027648
-0.000154504
-0.0285465
-0.000182586
-0.0294765
-0.000211574
-0.0304873
-0.00024174
-0.031532
-0.000272843
-0.032645
-0.000305993
-0.0337846
-0.0349767
-0.000340257
0.000374219
-0.0196465
0.000352893
-0.0241629
0.000308309
-0.0231396
0.000202705
-0.0234
0.00013891
-0.0231489
3.95591e-05
-0.0235056
-9.96801e-06
-0.0237506
-8.96775e-05
-0.0242119
-0.000143002
-0.024725
-0.000198867
-0.0253462
-0.000250078
-0.0260194
-0.000298237
-0.0267947
-0.000346399
-0.0275999
-0.000394141
-0.0284987
-0.000442852
-0.0294278
-0.000492981
-0.0304372
-0.000545075
-0.0314799
-0.000598984
-0.0325911
-0.000655906
-0.0337277
-0.0349193
-0.000713258
0.000340432
-0.019987
0.000299163
-0.0241217
0.000243233
-0.0230836
0.000122333
-0.0232791
5.22533e-05
-0.0230789
-6.19654e-05
-0.0233914
-0.000133307
-0.0236793
-0.000218966
-0.0241263
-0.000292662
-0.0246513
-0.000362654
-0.0252762
-0.000432561
-0.0259495
-0.000498881
-0.0267283
-0.000566028
-0.0275327
-0.00063364
-0.0284311
-0.000702744
-0.0293587
-0.000774032
-0.0303659
-0.000847949
-0.031406
-0.000924715
-0.0325143
-0.00100479
-0.0336476
-0.0348381
-0.00108604
0.000307014
-0.020294
0.000245833
-0.0240605
0.000178984
-0.0230168
3.95263e-05
-0.0231397
-3.69715e-05
-0.0230024
-0.000161157
-0.0232672
-0.000252898
-0.0235875
-0.000349526
-0.0240296
-0.00044125
-0.0245596
-0.000527039
-0.0251904
-0.000614494
-0.0258621
-0.000699398
-0.0266434
-0.000785336
-0.0274468
-0.000872702
-0.0283438
-0.000962102
-0.0292693
-0.00105446
-0.0302735
-0.00115014
-0.0313103
-0.0012496
-0.0324148
-0.00135271
-0.0335445
-0.0347327
-0.00145808
0.000274002
-0.020568
0.000192836
-0.0239793
0.000115947
-0.0229399
-3.75914e-05
-0.0229861
-0.000131866
-0.0229081
-0.000261732
-0.0231374
-0.000371267
-0.023478
-0.000480672
-0.0239202
-0.00058909
-0.0244512
-0.00069152
-0.025088
-0.000796004
-0.0257576
-0.000899484
-0.02654
-0.00100417
-0.0273421
-0.00111114
-0.0282368
-0.00122075
-0.0291597
-0.00133406
-0.0301602
-0.00145141
-0.0311929
-0.00157337
-0.0322929
-0.0016995
-0.0334184
-0.0346032
-0.001829
0.000241421
-0.0208094