/*--------------------------------*- C++ -*----------------------------------*\
  =========                 |
  \\      /  F ield         | OpenFOAM: The Open Source CFD Toolbox
   \\    /   O peration     | Website:  https://openfoam.org
    \\  /    A nd           | Version:  7
     \\/     M anipulation  |
\*---------------------------------------------------------------------------*/
FoamFile
{
    version     2.0;
    format      ascii;
    class       volVectorField;
    location    "1.385";
    object      U;
}
// * * * * * * * * * * * * * * * * * * * * * * * * * * * * * * * * * * * * * //

dimensions      [0 1 -1 0 0 0 0];

internalField   nonuniform List<vector> 
12359
(
(0.981919 5.84282e-05 1.44105e-17)
(0.969868 -0.00109202 2.56491e-17)
(0.999964 -9.18056e-06 3.15217e-17)
(0.940599 -6.42023e-05 6.52012e-17)
(0.978799 -0.00100459 4.33617e-17)
(0.889931 -0.000134392 3.19906e-17)
(0.85197 -0.000491461 -1.33921e-17)
(0.873216 -0.00094238 2.58226e-18)
(0.807107 0.0094047 -1.93886e-17)
(0.90246 -0.000650803 2.06752e-17)
(0.830173 0.00968088 1.43955e-17)
(0.746091 0.0290918 9.24918e-17)
(0.375229 0.0187418 -2.53967e-16)
(0.931183 -0.000272159 1.95755e-16)
(0.945583 7.45266e-05 -3.2415e-17)
(0.564238 0.0248267 -2.5065e-17)
(0.482603 0.0289413 -7.64982e-17)
(0.994648 8.04512e-05 3.9859e-17)
(0.995158 8.34871e-05 -6.28532e-17)
(0.95805 -0.00102895 1.05068e-16)
(0.920555 -0.000399238 1.68371e-16)
(0.776959 0.0192335 -3.6416e-17)
(0.963161 -0.000208899 -1.01217e-16)
(0.953796 0.000536728 -4.89999e-17)
(0.966451 -0.000662862 2.5012e-18)
(0.961932 -0.000470545 -7.68598e-17)
(0.998686 -9.65815e-05 2.02564e-17)
(0.99882 -7.83441e-05 -1.7132e-17)
(0.996025 2.06265e-05 2.70332e-18)
(0.99814 -1.88275e-05 -3.31544e-17)
(0.997647 -0.000108196 2.27448e-17)
(0.999372 2.2604e-06 -5.60956e-18)
(0.999753 -1.86127e-05 -2.70296e-17)
(0.998267 -4.77829e-05 -4.12477e-17)
(0.999907 -5.32371e-06 -1.74184e-17)
(0.997423 -0.000108377 5.16948e-18)
(0.9887 -0.000336578 7.05672e-17)
(0.983397 -0.000243225 1.83403e-18)
(0.980155 -0.000335872 -4.94299e-17)
(0.985511 -0.000364599 8.60092e-17)
(0.973595 -0.00140523 -4.57478e-17)
(0.984536 7.58262e-05 1.22204e-16)
(0.991334 -0.000240209 1.67395e-17)
(0.992081 -9.73313e-05 -5.369e-17)
(0.996769 -0.000142005 3.09285e-17)
(0.996399 -8.90845e-05 -3.60151e-17)
(0.997077 -0.000121704 -6.58049e-18)
(0.997926 -6.98659e-05 -4.73067e-18)
(0.995636 5.66835e-05 -2.61041e-18)
(0.998483 -0.000105619 6.67395e-18)
(0.998957 -0.000104121 -4.32801e-17)
(0.999094 -2.05286e-05 -2.46896e-17)
(0.999437 -3.23943e-05 2.13394e-17)
(0.9942 4.92725e-05 -6.73967e-17)
(0.999557 4.47371e-05 -1.1141e-17)
(0.999721 -3.82257e-05 1.37794e-17)
(0.992767 -0.000165156 2.0355e-17)
(0.999765 -1.71153e-05 -4.93998e-18)
(0.999799 -1.77309e-05 -2.26361e-18)
(0.999883 1.79401e-05 3.17589e-17)
(0.99967 -1.85027e-05 1.85762e-17)
(0.999926 2.2413e-05 -5.54161e-17)
(0.999048 -7.52846e-05 -2.69967e-17)
(0.216541 0.0779214 -1.19298e-15)
(0.993631 -8.11666e-05 -1.31878e-17)
(0.912097 -0.000298999 9.69044e-17)
(0.989644 2.21312e-05 3.11607e-17)
(0.999158 -2.29718e-05 -5.07043e-17)
(0.987889 -0.000657579 9.21076e-17)
(0.63867 0.0319548 1.21694e-17)
(0.0568197 0.0480811 1.07873e-15)
(0.976385 -0.00144688 -8.46039e-17)
(0.999964 -1.44847e-05 -1.77707e-17)
(0.986656 -0.000752297 1.09541e-16)
(0.948556 -0.00074417 -1.27878e-17)
(0.999862 6.18703e-06 3.77482e-18)
(0.999429 -3.35516e-05 -1.4142e-17)
(0.99993 -1.09924e-05 2.73896e-17)
(0.989512 -0.000558735 -7.2393e-17)
(0.705627 0.00183218 -5.26973e-17)
(0.921324 0.0630952 -5.63495e-17)
(1.00375 0.00300809 5.37226e-19)
(1.00003 1.81872e-05 5.00972e-18)
(0.997927 0.0127353 8.3738e-18)
(1.09435 0.149318 2.84887e-18)
(1.02274 0.00175168 -4.72901e-18)
(1.00383 0.00281543 4.25522e-19)
(1.0016 7.81893e-05 -7.81614e-18)
(1.11132 0.0768717 -1.41838e-17)
(1.08371 0.1586 -6.11572e-18)
(0.999938 0.000221615 2.25691e-17)
(0.258317 0.193644 -4.52467e-16)
(1 -6.48006e-07 -1.73155e-17)
(0.999615 0.00653327 3.15203e-18)
(0.999196 0.0114191 -1.0914e-17)
(1.03809 -0.00184617 -3.83257e-18)
(1.00007 0.00550651 -4.2577e-18)
(0.999372 0.00637062 1.48886e-18)
(0.990053 0.0305666 -6.06384e-18)
(0.993965 0.01916 -1.47801e-17)
(0.937155 0.0778066 1.59274e-17)
(1 2.51263e-05 -4.07057e-18)
(1.02193 0.00157668 -3.83035e-18)
(1.27502 0.106658 -6.73053e-18)
(1.00494 0.00112125 7.05411e-18)
(1.03376 0.0236878 2.61702e-18)
(1.00039 1.23113e-05 -5.07322e-18)
(1.08928 0.152155 5.10818e-18)
(1.01829 0.00269036 -3.04481e-18)
(1.0338 0.0226052 6.294e-19)
(0.999963 0.00506678 3.74782e-19)
(1.00358 0.00300638 1.11814e-18)
(0.940021 0.0444644 -1.23954e-16)
(0.956615 0.0748119 3.6001e-17)
(0.999022 0.0111834 1.84247e-17)
(1.0027 -0.000914498 -1.69637e-18)
(0.951625 0.0791381 2.70911e-17)
(1.00455 0.00254414 1.10097e-17)
(1.12685 0.0641982 -1.2983e-17)
(0.999999 1.93066e-05 -7.52962e-19)
(0.999937 0.00525252 -3.58746e-18)
(0.856636 0.025471 -1.11169e-16)
(1.00184 0.00010361 -1.14622e-18)
(1.04014 0.00766113 2.13542e-18)
(1.00483 0.0027351 -9.77142e-18)
(1.00335 0.000318139 1.85013e-18)
(1.00729 0.0943986 1.30626e-17)
(0.998106 0.0131068 1.52814e-17)
(0.999986 1.03519e-05 -6.044e-18)
(1.00491 0.00224036 -8.08202e-19)
(1.00278 0.000357121 5.03736e-19)
(1.05079 0.0226963 5.11497e-18)
(1.05347 0.0213237 3.66359e-18)
(1.05146 0.0201408 5.43244e-18)
(1.00023 2.41849e-05 1.46366e-18)
(1.03913 0.00821813 6.23233e-18)
(1.00292 -0.000780736 -8.82897e-18)
(1.03919 0.00760072 1.15614e-18)
(1 0.000103348 -2.29769e-17)
(1.00746 0.0932538 -5.37261e-18)
(1 3.1246e-05 -2.06152e-18)
(0.981782 0.00216786 -8.06572e-17)
(1.03205 0.0143084 -9.02229e-18)
(1.00027 5.81958e-05 -7.47149e-19)
(1.03897 0.041991 -2.35803e-19)
(0.895954 0.0268576 8.05112e-18)
(1.00003 -3.81649e-06 -4.68406e-18)
(1.08662 0.125026 -1.8239e-17)
(1.00508 0.00144021 5.36381e-18)
(0.919916 0.0631953 -8.965e-17)
(1.04319 -0.00181779 -2.92167e-18)
(0.999996 3.30323e-05 1.16908e-17)
(1.03178 0.0152367 -1.03678e-17)
(1.00191 0.000327876 1.47555e-18)
(1.00001 -2.52081e-06 4.46443e-19)
(0.551641 1.3027 -4.52484e-17)
(0.934324 0.0895324 5.60066e-18)
(1.05009 0.0224047 3.48836e-18)
(1.00006 0.00554637 4.6774e-18)
(0.999257 0.000431742 2.21388e-17)
(1.00231 0.0459138 -7.17318e-20)
(0.999216 0.000595866 -7.8126e-18)
(1.04135 0.0069199 3.63089e-18)
(1.03465 0.0126873 -3.27715e-18)
(1.00004 9.02575e-05 -1.30488e-18)
(1.00332 6.65113e-05 -2.69043e-18)
(1.00087 0.0461439 -1.4849e-18)
(0.874053 0.0135362 -1.33654e-17)
(1.03305 0.0124399 1.98761e-18)
(1.11928 0.0744741 -5.02289e-18)
(0.999978 1.17699e-05 2.71164e-18)
(0.999962 6.76619e-05 -3.79475e-17)
(1.03427 0.0102163 2.82019e-18)
(0.970756 0.00269678 -6.06387e-17)
(1.00476 0.00112475 1.8607e-18)
(1.00371 0.0919382 -3.62538e-18)
(0.996674 0.000511483 -3.35118e-17)
(0.996687 0.000901363 3.11147e-17)
(0.93636 0.0494227 -2.99734e-17)
(1.00353 0.08806 -3.25917e-18)
(0.932415 0.00665943 2.08571e-16)
(1.00002 3.83272e-05 -5.71616e-19)
(0.999978 2.12795e-05 -5.69906e-18)
(1.00395 0.00299749 8.17612e-19)
(0.991192 0.0284353 3.23656e-18)
(0.863489 0.107968 2.08217e-16)
(1.00423 0.00611901 -2.28929e-18)
(1.00001 0.010814 -7.41601e-18)
(1.0426 0.00204602 1.63847e-18)
(1.00455 0.00598148 1.6356e-17)
(0.999647 0.0103254 -2.53316e-18)
(1.03797 -0.00336288 -3.51445e-18)
(1.03706 0.00129213 -4.30121e-18)
(1.00195 0.000236558 -7.78599e-18)
(1.03476 0.0214575 -5.23799e-18)
(1.09587 0.0952552 -2.26189e-17)
(1.01488 0.0130855 3.2243e-18)
(1.00343 0.00632517 -1.3443e-18)
(1.03147 0.0164534 5.51986e-19)
(1.00454 0.00252398 -9.69367e-18)
(0.889843 0.0288998 8.74522e-17)
(1.0398 0.00288097 4.7843e-19)
(0.992791 0.0190678 7.86672e-18)
(1.03386 0.0215468 -1.13854e-18)
(1.03549 0.0396829 4.71082e-18)
(1.00001 4.29779e-05 -3.17443e-18)
(1.03702 0.0392552 3.90534e-18)
(0.992423 0.0185142 1.82521e-18)
(1.04316 0.00877236 1.60083e-18)
(1.00539 0.00401928 8.50426e-18)
(1.00001 3.974e-05 8.4841e-19)
(1.04666 0.0177005 3.3828e-18)
(1.0468 0.01838 5.12365e-19)
(1.04781 0.110965 -4.07909e-17)
(0.826472 0.0863793 -3.54439e-17)
(0.999958 1.7969e-05 -2.00848e-17)
(1.00392 0.00608866 -1.28215e-18)
(0.998909 0.0106961 -3.33156e-18)
(1.00406 0.00602551 3.19435e-18)
(0.98073 0.00119317 4.73688e-17)
(0.945457 0.0623176 -2.85728e-17)
(1.00547 0.003874 -1.70724e-18)
(1.04069 0.00677007 9.92509e-19)
(0.473954 0.375062 -5.69346e-17)
(1.00541 0.00220808 -6.98611e-19)
(1.00002 4.78037e-05 -2.29719e-18)
(0.98115 0.00110853 1.21024e-16)
(1.02011 -0.00100891 2.48545e-18)
(1.00024 0.0878837 -2.08243e-18)
(1.00267 0.0067991 -1.92981e-18)
(1.00282 0.00657457 6.76321e-18)
(1.00003 -2.69886e-05 -1.99993e-19)
(1.03835 0.0420636 2.36552e-18)
(0.99279 0.0240623 5.87533e-18)
(1.00044 0.0106577 -4.66478e-18)
(0.993467 0.0217417 9.65514e-18)
(1.00001 2.87965e-05 -5.37273e-19)
(1.03248 0.0169939 -4.58958e-18)
(1.00033 0.0106214 -6.93756e-18)
(0.63486 0.258354 -4.47131e-17)
(1.00009 8.65203e-05 -2.02362e-18)
(1.02492 -0.000568718 -4.5932e-18)
(1.00005 0.00787644 -1.1539e-17)
(0.982249 0.163011 3.37283e-18)
(1.00284 0.0501586 6.88479e-18)
(1.08553 0.127546 2.24713e-18)
(0.999861 5.57738e-05 -3.28917e-17)
(1.04306 0.00743819 1.9931e-18)
(1.00487 -0.000687807 -1.01689e-17)
(1.03733 -0.00105449 -3.51516e-18)
(1.0446 0.0145329 2.32003e-18)
(0.985008 0.000254846 -2.34102e-16)
(0.997046 0.000748933 -1.4023e-17)
(1.00239 0.00650969 -3.0748e-19)
(0.482813 0.439063 1.10512e-16)
(1.22712 0.133618 -3.63875e-18)
(0.999989 1.04788e-05 3.51471e-18)
(1.0054 0.00342404 -4.30061e-18)
(0.349691 0.297401 1.30186e-16)
(0.403462 0.0291115 -6.11908e-18)
(0.993261 0.0193731 6.71969e-18)
(1.00227 0.047786 6.18752e-18)
(1.00033 0.0828439 -1.65941e-17)
(1.03476 0.0195174 -4.41956e-18)
(0.973717 0.00101815 1.3784e-16)
(1.32371 0.347999 5.75625e-18)
(1.11875 0.0670335 -1.46237e-17)
(1.00282 0.0514587 5.61265e-18)
(1.00529 0.00292533 1.1493e-18)
(1.03895 0.00857046 3.11921e-18)
(1.03397 0.0114243 1.87365e-18)
(0.987341 0.0273919 -3.32164e-18)
(1.03316 0.0133887 1.41186e-19)
(1.00226 0.00691429 1.65209e-18)
(1.00558 0.00385269 5.97472e-19)
(1.00001 1.90011e-05 -3.08888e-19)
(1.00543 0.00318458 1.5592e-18)
(1.15233 0.116184 -1.80802e-17)
(1.0045 0.0519792 1.19124e-17)
(1.00036 5.05546e-05 1.89701e-18)
(0.999998 5.84163e-05 2.67688e-18)
(1.03542 0.0203322 -2.46385e-18)
(1.00755 0.000517155 -8.62102e-18)
(0.991047 0.000567941 -4.86488e-17)
(1.02364 0.000161764 -5.75005e-18)
(1.00001 3.54304e-05 -2.00345e-18)
(0.998424 0.0792211 -8.37605e-18)
(1.00001 1.30654e-05 -2.92271e-18)
(0.999996 -1.5097e-05 -3.71312e-18)
(0.999425 0.000125572 1.73702e-17)
(1.04109 0.00651571 -9.35483e-19)
(1.00402 0.00256798 -6.05115e-18)
(1.4023 0.408122 3.77354e-17)
(1.00025 -7.93046e-05 3.63278e-18)
(1.00022 0.000183317 1.65904e-18)
(1.02184 0.00210528 -5.86055e-18)
(1.00425 0.00140061 5.1618e-18)
(0.943523 0.0688158 -1.44523e-17)
(0.999067 0.0099626 -2.70062e-18)
(0.999043 0.000259427 -1.73944e-17)
(0.999951 7.17893e-05 -2.90657e-18)
(1.14283 0.100508 -1.78328e-17)
(1.00165 0.0804064 -1.96388e-19)
(0.999958 6.56865e-05 6.50474e-18)
(1.0036 0.00620525 -5.53885e-18)
(0.999505 0.00917661 3.39564e-19)
(1.00509 2.61853e-05 1.22167e-18)
(1.00404 0.000100972 -1.3169e-18)
(1.0027 0.00040816 -3.69932e-19)
(1.00458 0.000903527 4.1598e-18)
(0.995462 0.00159607 3.68903e-17)
(0.832145 0.0644114 1.70715e-17)
(1.00522 0.00441077 1.42634e-17)
(0.997904 3.34198e-05 1.03429e-16)
(0.985638 0.00112015 -1.34089e-16)
(1.02531 0.0281657 1.05482e-17)
(1.10428 0.0586981 -2.49105e-17)
(1.00485 -0.000773385 -9.21364e-18)
(0.989492 0.0257767 3.71903e-18)
(0.576066 0.0750454 -1.26648e-16)
(0.999993 6.08785e-06 7.36655e-18)
(1.02789 0.0134613 1.28658e-18)
(1.00052 -0.000307851 4.00533e-19)
(1.01461 0.0135994 2.61519e-18)
(1.00033 0.000188227 -2.54964e-18)
(1.00543 -0.00128699 7.98866e-18)
(0.772493 0.0338931 2.65809e-16)
(1.02862 0.0149482 -1.42941e-18)
(0.829866 0.0892949 -9.55741e-17)
(0.990875 0.000469259 8.61799e-19)
(1.00047 0.00845869 -6.33104e-18)
(1.03765 0.00225085 -3.36793e-18)
(1.04179 0.0013231 1.5777e-18)
(1.00057 0.00810192 5.57272e-19)
(1.03464 0.000141918 -4.78108e-18)
(1.03694 0.00229988 -4.99241e-18)
(1.00071 8.8876e-05 -2.85369e-19)
(0.999549 0.000496083 4.43553e-18)
(0.99954 0.000398737 -7.2215e-18)
(0.99952 0.000459077 -1.89317e-17)
(0.999532 0.000362287 -1.9904e-17)
(0.690121 0.27867 -2.65923e-17)
(1.00003 5.66461e-05 4.37173e-20)
(0.939035 0.0775923 2.366e-17)
(1.04406 0.00487546 -1.94807e-18)
(0.992395 0.0261809 1.02648e-17)
(1.03353 0.0144976 4.81878e-18)
(1.02844 0.0164457 -9.58889e-18)
(1.02124 0.00290861 2.13454e-18)
(1.01395 0.0128731 6.52482e-18)
(1.02927 0.0153896 -3.22402e-18)
(1.01349 0.0129525 6.25372e-18)
(0.990769 0.0269337 1.20573e-17)
(1.02756 0.0299925 9.2781e-19)
(1.02609 0.0335714 5.70197e-18)
(0.954686 0.0502424 -1.76655e-17)
(0.981909 0.00240045 -1.41251e-17)
(1.03091 0.082733 -1.1875e-17)
(0.983498 0.0019509 5.78069e-18)
(0.982376 0.000900454 -1.44368e-17)
(1.03085 0.0170856 -8.00399e-18)
(0.938614 0.0975398 -6.36293e-19)
(1.00308 0.00292822 -3.82273e-18)
(0.999605 8.21781e-05 -2.79876e-17)
(1.01639 0.0120468 2.43396e-18)
(0.999599 5.53175e-05 -2.69441e-18)
(1.00339 0.00324144 2.08637e-18)
(0.71281 0.0292719 -2.23713e-19)
(0.0645315 0.0811823 -2.8652e-16)
(1.0033 0.00309647 -9.18329e-20)
(0.999972 1.81237e-05 1.2744e-17)
(1.00021 1.63287e-05 -1.98172e-19)
(0.999989 3.12439e-05 7.34428e-19)
(1.02959 0.0138622 7.54694e-19)
(0.999997 2.49285e-05 2.75173e-18)
(0.999993 2.64254e-05 -5.73954e-19)
(1.11685 0.0816679 -1.37309e-17)
(1.03438 0.0122529 2.33357e-18)
(1.07918 0.177803 -5.351e-18)
(1.00143 0.00352943 5.8215e-18)
(1.0367 0.0145457 3.14102e-18)
(1.00748 0.000762271 -7.26844e-19)
(0.999867 0.00902338 -1.30106e-18)
(1.03167 0.0304757 8.71463e-18)
(1.01667 0.0115938 -7.93955e-18)
(0.937219 0.00362179 2.20758e-16)
(1.01624 0.010773 -2.46327e-19)
(1.00296 0.00275491 -2.35788e-18)
(1.00025 2.13993e-05 1.63259e-18)
(1.03453 0.0116733 2.22139e-18)
(1.03711 0.0145449 7.9002e-18)
(1.00561 0.00155687 3.146e-18)
(0.706729 0.0211238 1.63991e-16)
(1.03176 0.0295808 5.57689e-18)
(1.03919 0.000791897 -2.48474e-18)
(0.997778 0.0355615 -5.90431e-18)
(1.00045 0.0433352 -8.74212e-18)
(0.999985 0.000130127 -2.46079e-17)
(0.409051 0.574068 -1.98371e-16)
(1.03266 0.0847571 -9.90258e-18)
(1.00124 0.0037156 6.59826e-19)
(0.969204 0.182672 -2.44998e-18)
(0.984251 0.00118506 -1.36536e-16)
(0.999969 8.15394e-05 2.16462e-18)
(1.00001 3.46442e-05 3.06942e-19)
(0.999991 6.00281e-05 1.85299e-18)
(1.09042 0.175232 -3.07439e-18)
(0.94432 0.0961146 3.97561e-19)
(0.988549 0.0286116 2.57153e-18)
(1.02881 0.0113643 -2.43362e-18)
(1.04693 0.00132182 -8.34125e-19)
(0.999199 0.0116306 -2.67902e-18)
(0.926414 0.00793379 1.55245e-16)
(0.998233 0.03552 -6.96754e-18)
(1.04747 0.0199586 -6.52053e-18)
(1.11469 0.0579795 -2.8216e-17)
(0.699998 0.0443 1.57676e-17)
(0.993746 0.0258484 1.13012e-17)
(0.95346 0.0541185 5.31319e-18)
(1.019 -0.000864419 3.89717e-18)
(1.02549 0.0389541 1.43036e-18)
(1.01208 0.0116018 -3.16022e-18)
(1.01643 0.0129576 9.80797e-19)
(0.998395 0.000194821 1.11955e-17)
(1.01224 0.0116383 -3.08131e-18)
(1.03172 0.0130569 -7.88002e-18)
(0.999989 2.2882e-05 -9.28687e-19)
(0.514925 0.023697 -4.88594e-17)
(0.990311 0.00123772 -1.67141e-16)
(1.05589 0.00961319 7.57754e-18)
(1.03799 0.0124977 -3.38123e-18)
(0.993371 0.001263 1.08135e-16)
(0.948726 0.0600485 -1.09848e-17)
(1.16419 0.253752 -4.51009e-17)
(1.02984 0.0166424 -1.0795e-17)
(1.00851 0.0166319 -6.09554e-18)
(1.04232 0.000946227 -1.1963e-18)
(1.03805 0.0124392 7.16186e-19)
(1.02878 0.0346484 3.37997e-18)
(1.00443 0.00292694 -7.61046e-18)
(1.00001 4.65152e-06 2.18342e-18)
(0.993685 0.0709031 -9.31098e-18)
(1.00027 4.77175e-05 8.66318e-19)
(1.05163 0.0232485 4.36219e-18)
(1.00257 0.000224557 1.99843e-18)
(0.965267 0.00302759 1.18085e-16)
(0.961793 0.0413502 -1.44137e-18)
(1.0112 0.00166811 4.86882e-19)
(1.09395 0.123242 2.48856e-17)
(0.940682 0.0692685 2.86394e-17)
(0.994222 0.0174855 1.90786e-17)
(1.00094 0.00409226 7.32974e-20)
(0.592196 0.101743 -4.83812e-16)
(1.00052 6.68742e-05 4.09809e-19)
(1.00152 0.00320214 3.63934e-19)
(1.04273 0.0455898 1.73358e-18)
(0.999975 4.21931e-05 -3.16905e-17)
(1.0011 0.00423444 1.37723e-18)
(1.00152 0.00296819 2.69535e-18)
(0.731857 0.224038 4.54272e-17)
(0.665589 0.461493 -4.60031e-18)
(0.998328 0.0120969 -1.52316e-18)
(1.00128 -0.000562888 -4.91177e-18)
(0.932413 0.0342416 1.42452e-17)
(0.999338 0.0428781 -2.78398e-18)
(1.02861 0.0123312 -1.81737e-18)
(1.03224 0.016649 -7.12803e-18)
(1.03346 0.0122227 2.56626e-18)
(1.00067 -5.39399e-05 1.99201e-18)
(0.999995 4.87192e-05 4.77245e-18)
(0.999717 0.0380576 -4.72469e-18)
(0.999978 1.18929e-05 2.53872e-18)
(0.961192 0.0428937 5.65917e-18)
(1.02797 0.0125191 2.69109e-18)
(1.02574 0.0369077 4.2404e-18)
(0.996901 0.000760967 6.20549e-18)
(0.995412 0.0692661 5.2144e-18)
(1.04492 0.0438782 -2.51861e-17)
(0.998225 4.64979e-05 -1.353e-16)
(1.00132 0.0120041 3.3071e-18)
(1.00571 0.00191746 -1.42164e-18)
(0.929589 0.0462876 -2.83447e-19)
(1.04291 0.0458267 -1.36927e-17)
(0.999985 7.05468e-05 -1.09553e-17)
(0.999865 0.0397764 8.13878e-18)
(1.03469 0.00922389 -3.42292e-18)
(1.0166 -3.00662e-05 -7.79252e-19)
(0.998932 0.0408755 -2.1782e-18)
(1.00331 0.000252689 4.3978e-18)
(0.929595 0.0930154 1.3559e-17)
(1.02886 0.00412076 -1.42697e-18)
(1.03893 0.00965358 1.08635e-19)
(1.0269 0.034707 9.02777e-18)
(1.0008 0.000144525 4.24591e-18)
(1.00115 0.0120982 -6.19693e-18)
(1.05225 0.0660734 5.46598e-18)
(1.05366 0.0202285 -9.74179e-19)
(0.999994 2.11461e-05 1.4178e-18)
(1.01107 0.0168601 7.52887e-18)
(0.984576 0.177226 -2.921e-17)
(1.03979 0.0035902 3.62086e-18)
(0.508615 0.464424 -6.87884e-17)
(1 3.61663e-05 -6.01475e-18)
(1.00265 0.000541838 6.76322e-18)
(1.0006 9.71343e-05 -2.12709e-18)
(1.03256 0.0156812 -5.6207e-18)
(0.994257 0.0195532 -8.76802e-18)
(0.995324 0.0139284 4.28165e-18)
(1.00329 0.000571629 7.95337e-18)
(0.998362 0.0379678 7.52229e-19)
(1.01763 0.013059 -1.98194e-20)
(0.972629 0.00403888 6.84008e-17)
(1.00932 0.00145848 2.71944e-18)
(1.07832 0.0987082 -1.12399e-17)
(1.0001 5.23424e-05 4.38979e-18)
(1.08213 0.1133 1.19645e-17)
(1.00153 0.000347681 4.74818e-18)
(0.628731 0.619837 -1.06045e-17)
(1.02996 0.000599322 4.43744e-19)
(1.04911 0.068756 6.97274e-18)
(0.999847 3.01954e-05 -8.23965e-17)
(0.997153 0.000782806 -2.48175e-17)
(1.02597 0.0294542 1.36222e-17)
(1.00396 0.00242275 -5.91715e-18)
(0.999114 0.000128327 -5.37384e-17)
(0.992435 0.000227997 2.51488e-16)
(0.994113 0.0211554 -6.62689e-18)
(0.993678 0.0206059 1.69902e-17)
(0.963086 0.160263 -6.52093e-18)
(1.03357 0.0347896 -9.68947e-18)
(1.03411 0.0340479 -8.53466e-18)
(1 2.19425e-05 6.0098e-19)
(1.0043 0.00241009 6.76657e-18)
(1.02835 0.0136507 -2.09819e-18)
(1.05269 0.0194615 -2.35977e-19)
(1.00001 3.69153e-07 9.27982e-19)
(1.00035 0.000351573 -2.17633e-18)
(1.0349 0.0100291 -6.68927e-19)
(1.00064 0.000129196 1.09669e-18)
(0.788994 0.0425057 -1.25985e-16)
(1.15591 0.2582 -2.61969e-17)
(1.03979 0.0221345 3.35931e-17)
(1.00001 1.76758e-05 1.88468e-18)
(1.00683 0.00977458 -4.43592e-19)
(1.04508 0.0147381 -1.63055e-18)
(0.99491 0.0147883 1.18675e-17)
(1.0045 0.00109614 -2.80377e-19)
(0.366865 0.654491 1.24069e-16)
(1.00029 5.34342e-06 -3.27885e-18)
(0.92909 0.077733 -7.09853e-18)
(0.957624 0.0481489 7.54387e-18)
(1.00693 0.00989846 -2.56193e-18)
(1.00422 0.001041 5.42468e-19)
(0.998982 0.00013988 -7.05949e-17)
(1.011 0.000581942 5.0352e-18)
(1.04473 0.00438846 -1.71304e-18)
(1.01734 0.00940651 -6.46992e-19)
(0.996655 0.0120762 6.30287e-18)
(0.999997 8.28093e-06 4.12931e-19)
(1 2.89391e-05 5.40785e-17)
(0.994427 0.0176773 8.8102e-18)
(0.996563 0.00166932 1.46098e-17)
(0.991499 0.0614392 -1.86474e-17)
(1.03282 0.014759 2.14659e-18)
(0.999425 3.68555e-06 -2.45993e-17)
(1.00032 0.000225923 1.16764e-18)
(1.02703 0.0315965 6.21611e-18)
(0.570377 0.000216237 -5.50882e-18)
(0.998031 0.000219285 1.23325e-16)
(1.04719 0.0196087 -3.93816e-18)
(1.00019 5.90495e-05 -1.74315e-18)
(0.996185 0.0118437 1.44322e-17)
(0.94948 0.082207 -2.11804e-17)
(1.04416 0.0013017 -2.75388e-18)
(1.04405 0.0144042 5.60919e-18)
(0.950527 0.0565058 6.83396e-17)
(1.00228 0.0198243 -1.27864e-17)
(1.04354 0.00709877 2.13715e-18)
(1.00001 4.70877e-05 -3.52346e-19)
(0.99994 3.20808e-05 3.21361e-17)
(1.04205 -0.00166357 -7.04674e-19)
(1.01082 0.0103397 3.10489e-18)
(1.00274 0.0200879 -3.19257e-18)
(1.01099 0.0104233 -8.82411e-18)
(0.999996 6.12819e-05 3.03512e-18)
(1.00037 0.000195621 4.87076e-19)
(1.00394 0.000130569 4.38526e-18)
(0.998852 0.0310437 -1.25404e-17)
(1.04393 0.00840413 -6.06241e-19)
(0.945921 0.0413659 5.01324e-18)
(0.990136 0.000937318 -1.31052e-16)
(0.930737 0.0370404 8.748e-18)
(1.03162 0.0155988 -9.93991e-18)
(1.00855 0.0182346 -1.51977e-17)
(0.935995 0.0464771 8.54294e-18)
(0.985261 0.0220283 9.80439e-18)
(1.05477 0.0069683 2.07412e-17)
(1.0337 0.0134892 3.2597e-18)
(0.984416 0.0217489 -4.88006e-18)
(0.993129 0.0598599 -1.25949e-18)
(0.999881 9.66068e-05 -2.35335e-17)
(1.00885 0.067531 -4.58416e-18)
(1.02671 0.0288886 1.03605e-17)
(1.00002 -1.23291e-05 1.68363e-18)
(0.999992 3.09542e-06 1.48162e-17)
(1.00072 8.11617e-06 -3.98595e-19)
(0.999744 0.000321717 -2.89303e-18)
(1.06271 0.07531 2.3892e-18)
(1.01054 0.0174859 3.91539e-18)
(1.01369 0.00225014 -1.66556e-18)
(0.941443 0.0438661 2.29594e-17)
(0.991952 0.000318314 1.0362e-16)
(0.800804 0.0186217 1.29569e-16)
(1.04046 0.00251097 1.5112e-18)
(1.04314 0.00562548 6.97674e-19)
(1.00427 9.79352e-05 -9.8482e-19)
(1.04963 0.0447947 -9.87152e-18)
(1.00001 4.39537e-05 -7.55373e-18)
(0.997675 0.0306992 -4.93595e-18)
(1.00041 0.00393577 -2.26909e-18)
(0.934952 0.11389 1.66189e-17)
(0.934998 0.0531997 4.96744e-17)
(1.00187 0.0169126 -1.406e-17)
(1.01738 0.0125032 -5.25972e-18)
(0.445663 0.64699 1.3183e-17)
(1.03152 0.0140197 -7.0535e-18)
(1.04158 0.0657304 2.03462e-18)
(1.00949 0.0133565 5.86709e-18)
(0.973693 0.148262 2.27912e-17)
(1.14515 0.21181 -3.72862e-17)
(1.00094 -0.000233216 -8.17743e-19)
(0.998281 0.00357485 -7.98602e-18)
(1 1.87752e-05 5.5643e-20)
(1.05656 0.0708788 7.17802e-18)
(0.998373 0.00341683 -7.00883e-18)
(1.01642 0.0100053 1.40739e-18)
(1.09641 0.119286 1.2999e-17)
(1.00042 -0.000154762 -1.27687e-18)
(0.972597 0.0033127 -1.62455e-16)
(0.990522 0.0527256 4.59852e-18)
(1.00684 0.0159348 2.05504e-18)
(0.997709 0.000265879 1.57988e-17)
(1.00152 0.0176653 -6.42363e-18)
(0.999358 0.000749475 1.26864e-17)
(0.994791 0.0163924 3.05798e-18)
(0.999363 0.000645242 -7.81232e-18)
(0.999368 0.00080736 1.98272e-18)
(0.995535 0.013947 1.27202e-17)
(1.03937 0.00868545 4.53676e-18)
(1.03654 0.00965923 -4.53196e-18)
(1.00682 0.0174841 8.25341e-18)
(0.654053 0.0458077 4.82317e-17)
(1.04282 0.00399168 -3.15444e-19)
(0.309391 0.289441 -2.50238e-16)
(1.0302 0.0164453 -7.05667e-18)
(1.02343 0.000517727 -1.62999e-18)
(0.995241 0.0149073 -2.16031e-21)
(1.02915 0.0162497 -8.26443e-18)
(0.991443 0.0273907 -3.7385e-18)
(1.04044 0.00386754 -3.218e-18)
(0.54058 0.385982 -1.56228e-16)
(0.950839 0.035789 3.44362e-17)
(0.992356 0.0252508 -4.05554e-18)
(1.00441 0.0236568 5.06508e-19)
(0.99494 0.00107392 -2.48449e-18)
(0.996502 0.0010903 3.17755e-17)
(1.02626 0.0318184 8.0198e-18)
(0.999998 3.41237e-05 -1.58097e-18)
(1.07236 -0.0121336 1.46543e-17)
(0.999514 1.63503e-05 -2.49861e-18)
(0.946751 0.0384495 -2.31193e-17)
(0.997584 0.07559 1.47686e-17)
(1.06061 0.0687044 7.37258e-19)
(1.03965 0.0287051 5.06819e-19)
(1.03576 0.016907 -8.29044e-19)
(0.991867 0.0517933 -5.57277e-18)
(1.00908 0.0137202 7.96152e-18)
(1.03931 0.0284824 -7.34764e-19)
(0.97103 0.0310652 1.09101e-17)
(1.04222 0.0661335 -4.96749e-18)
(1.00768 0.0229476 -2.55371e-17)
(1.04473 0.044007 -2.25036e-17)
(1.00507 0.0238391 2.37175e-18)
(1.00001 2.34093e-05 -7.62347e-19)
(0.998137 0.0269053 -5.44996e-18)
(0.661189 0.063971 3.78146e-17)
(0.970661 0.137526 -1.83531e-17)
(1.00641 0.00596997 2.51375e-19)
(1.00005 -1.98435e-05 -2.90727e-19)
(0.99927 0.000161501 -3.53679e-17)
(0.994361 0.0078891 1.68918e-17)
(0.967663 0.00288672 -5.44911e-17)
(1.03629 0.00875199 -4.04991e-18)
(1.02983 0.000840765 -3.59723e-18)
(1.00071 -2.76432e-05 1.75099e-18)
(1.00492 0.00709173 -1.63673e-18)
(0.993077 0.0280852 -1.89513e-17)
(1.00645 0.00575151 -5.07781e-18)
(1.00905 0.0011271 7.48652e-19)
(1.04584 0.039246 -1.63581e-17)
(0.993667 0.00157702 4.22079e-17)
(0.990477 0.0359809 -1.22873e-17)
(1.03765 0.0174218 5.90169e-18)
(1.00528 0.00670023 4.74467e-18)
(1.00796 0.00708932 5.5591e-19)
(0.94099 0.0637024 9.99316e-18)
(0.999999 -1.8046e-05 -2.91346e-18)
(0.993244 0.00586326 1.66407e-17)
(1.29012 0.176655 -4.6404e-18)
(0.999858 3.84218e-05 2.22613e-16)
(1.04037 0.0425221 4.72328e-19)
(0.99518 0.0746548 1.03006e-17)
(1.00762 0.007026 -2.96086e-18)
(0.958445 0.045562 3.19258e-17)
(1.03744 0.017416 9.76319e-18)
(0.997355 0.0266428 -7.62034e-18)
(1.02883 0.0364089 6.47117e-18)
(0.999634 0.00340404 -3.71454e-20)
(0.938754 0.0382809 -2.91849e-17)
(1.00482 0.00150767 5.84158e-18)
(1.03506 -0.000482377 -2.01041e-18)
(1.03641 0.0173867 2.08887e-18)
(0.937066 0.0412301 -5.96344e-18)
(0.99981 0.00343482 -1.84586e-19)
(1.04413 0.00685699 3.45759e-18)
(1.05494 0.027203 4.45257e-19)
(0.991597 0.0353141 6.8059e-18)
(1.00593 0.0141549 7.7734e-18)
(1.00462 0.00320093 3.26925e-18)
(1.01063 0.0678723 -1.18289e-17)
(0.777667 0.202642 -3.08223e-17)
(0.995551 0.000981795 -4.8665e-18)
(0.999958 3.70881e-05 -4.33491e-17)
(0.99342 0.0260887 8.09501e-18)
(0.999985 -7.28104e-06 -4.58083e-18)
(1.14579 0.210285 -7.67269e-18)
(1.00619 0.0236306 -1.61347e-17)
(1.03496 0.0921394 -5.01346e-18)
(1.01619 0.00820007 -2.36068e-18)
(1.02959 -0.000568037 -1.34391e-18)
(0.256387 0.143293 -7.8553e-16)
(1.00637 0.0161105 8.65479e-19)
(1.07927 0.207384 6.03348e-18)
(1.0356 0.00892601 -4.88743e-18)
(0.941172 0.020762 4.16904e-18)
(1.02878 0.0138899 -1.01112e-19)
(0.996674 0.0123856 7.09349e-18)
(1.0064 0.01502 -5.4132e-18)
(1.01715 0.00171987 -2.65299e-18)
(1.09088 0.105354 2.71337e-17)
(1.07924 0.0983345 4.28792e-18)
(1.0013 0.000159925 5.29489e-18)
(1.00189 -0.00013095 1.7106e-18)
(0.92416 0.0462947 3.42171e-17)
(1.00207 -0.000362336 6.39745e-18)
(0.691777 0.391733 1.7935e-17)
(1.02801 0.0343642 5.15007e-18)
(0.964929 0.169973 -2.6617e-17)
(1.00423 0.00337544 -4.50318e-19)
(0.0729303 0.310082 -4.73242e-16)
(1.11998 0.234054 -1.53738e-17)
(1.00574 0.0233142 -1.05757e-17)
(0.999994 1.70729e-05 2.39288e-18)
(0.99991 0.00297297 8.01035e-18)
(0.955005 0.0317591 8.43425e-18)
(0.994241 0.00823936 -4.92985e-18)
(0.98888 0.000201811 -3.45797e-17)
(0.996831 0.00995953 -1.05066e-17)
(1.03189 0.0139881 -1.38408e-17)
(0.970616 0.0311292 1.31426e-17)
(1.07607 -0.0119445 -2.46468e-17)
(0.605036 0.0397445 -7.47841e-17)
(1.0008 -5.68842e-05 2.70798e-18)
(0.965776 0.0375544 -1.84218e-17)
(1.03363 0.0320787 2.42541e-18)
(0.927248 0.0563777 1.04201e-16)
(1.00457 0.0133907 3.51965e-19)
(0.930641 0.0792809 4.04573e-17)
(1.03872 0.0101986 -1.18968e-18)
(0.951749 0.0348153 -3.72696e-18)
(0.997433 0.00062603 -1.07113e-16)
(1.00007 1.48719e-05 -3.20418e-18)
(1.03806 0.0272514 -5.07638e-18)
(1.04097 0.0284562 -5.68299e-18)
(1.02835 0.00121729 8.61997e-19)
(0.922515 0.0387702 -5.03421e-17)
(1.03259 0.0904334 -4.57155e-18)
(1.02366 0.0003751 1.05077e-18)
(0.996998 0.0253173 -8.44166e-18)
(1.00044 0.00413523 -4.982e-18)
(1.00977 0.00914529 8.40038e-19)
(0.786732 0.0275847 5.99946e-17)
(1.00969 0.00918563 -2.61323e-18)
(1.03553 0.0240312 -3.39227e-18)
(0.981636 0.0418416 -8.6249e-18)
(1.02738 0.0108351 -3.87844e-18)
(1.01181 0.000549758 5.08791e-18)
(0.996172 0.0116674 -4.02094e-18)
(1.05337 0.0256984 -4.40573e-18)
(1.01543 0.00762784 -1.22978e-18)
(1.00504 0.0136431 4.07006e-18)
(1.0691 -0.0190454 -7.41e-18)
(0.990153 0.0304395 -2.01133e-17)
(1.02071 0.00199755 3.59344e-18)
(0.788237 0.336192 -9.82274e-18)
(1 1.15326e-05 -2.34942e-19)
(1.01563 0.00852452 -4.76841e-18)
(0.998298 0.021671 -2.00662e-18)
(0.992105 0.00728354 1.33666e-18)
(1.00321 0.00077317 2.82348e-18)
(0.997684 0.0250198 -4.97646e-19)
(1.00002 1.16391e-05 1.3995e-18)
(1.04145 0.111214 -3.90193e-18)
(1.00574 0.00112678 -9.34641e-18)
(0.970068 0.00501068 -1.95161e-17)
(1.03534 0.0362579 -4.22412e-18)
(0.951213 0.0498977 -5.5867e-18)
(1.01718 0.0100691 -1.62986e-18)
(1.01648 0.00876725 -3.2016e-18)
(1.03756 0.0272719 -5.32712e-18)
(1.02131 0.130002 -1.58242e-17)
(0.999861 6.40921e-05 -3.38292e-17)
(0.993009 0.000439884 -1.49763e-18)
(1.02211 0.00031036 -1.49226e-18)
(1.09678 0.20386 -1.03679e-17)
(1.0406 0.0282838 -1.64062e-18)
(0.999826 0.00318579 1.26011e-18)
(0.243838 0.0845608 -1.0759e-15)
(1.00004 3.35609e-05 9.92194e-19)
(1.00506 0.00147216 -1.20988e-17)
(0.639954 0.00907328 3.06483e-17)
(0.994361 0.00542944 1.29496e-17)
(0.999527 0.00355172 2.04197e-18)
(0.99946 0.00389707 -2.66724e-20)
(0.982775 0.0394028 1.26956e-17)
(0.958716 0.0285955 2.10374e-17)
(0.999851 3.63492e-05 -9.78097e-17)
(0.993377 0.0067019 2.18896e-17)
(0.936637 0.0664888 9.55054e-18)
(0.997791 0.0216951 -3.41776e-18)
(0.995381 0.0180292 -9.60535e-21)
(0.99644 0.0098109 -1.42527e-17)
(1.00111 0.000200716 -1.96274e-18)
(0.956801 0.0316119 3.58595e-17)
(1.06475 0.0645714 1.39121e-17)
(0.994441 0.0163531 1.01707e-17)
(0.923681 0.0317855 -2.24244e-17)
(1.03637 0.00679149 -5.6772e-19)
(1.03732 0.000365998 -4.13e-18)
(1.03835 0.108892 -3.49657e-18)
(1.03235 0.0323333 -3.41345e-18)
(0.996363 0.0099094 -1.0076e-17)
(1.00504 0.00176778 -2.70734e-18)
(1.08263 0.109857 -5.50734e-18)
(1.04082 0.00786989 8.71793e-19)
(0.975823 0.0257771 -1.34984e-17)
(1.00069 0.0042663 -8.0943e-20)
(0.99971 0.000232754 -9.34894e-18)
(0.929678 0.0127142 4.41422e-17)
(1.0497 0.0451721 3.20248e-20)
(1.01469 0.0073717 -6.92245e-18)
(1.01019 0.0508031 -8.30303e-18)
(1.015 0.00797645 -6.97268e-18)
(0.996721 0.0102256 -2.34069e-18)
(1.00536 0.00506719 -1.04343e-18)
(0.962972 0.0355426 3.9127e-18)
(0.796751 0.0249432 -4.99876e-17)
(0.308389 0.424177 4.24404e-17)
(0.964542 0.038742 1.27438e-17)
(0.998426 0.0186051 -6.61116e-18)
(1.00549 0.00480799 -3.66925e-18)
(0.967913 0.0345393 7.74874e-18)
(0.578251 0.307369 -1.14667e-17)
(0.93923 0.0330456 -1.09378e-16)
(0.999828 0.00321398 6.63604e-19)
(1.04759 0.0382096 -8.6966e-18)