/*--------------------------------*- C++ -*----------------------------------*\
  =========                 |
  \\      /  F ield         | OpenFOAM: The Open Source CFD Toolbox
   \\    /   O peration     | Website:  https://openfoam.org
    \\  /    A nd           | Version:  7
     \\/     M anipulation  |
\*---------------------------------------------------------------------------*/
FoamFile
{
    version     2.0;
    format      ascii;
    class       volVectorField;
    location    "5";
    object      U;
}
// * * * * * * * * * * * * * * * * * * * * * * * * * * * * * * * * * * * * * //

dimensions      [0 1 -1 0 0 0 0];

internalField   nonuniform List<vector> 
385
(
(0.999994 -8.03856e-05 2.70081e-22)
(0.999907 -0.000173812 1.84624e-22)
(0.999795 -0.000222049 -7.5661e-23)
(0.999673 -0.000266945 -6.77779e-23)
(0.999539 -0.000325233 -4.58954e-22)
(0.999389 -0.000403342 5.01863e-22)
(0.99922 -0.000506122 -2.69263e-22)
(0.999028 -0.000639007 2.67351e-22)
(0.998809 -0.000808941 -1.02708e-21)
(0.998563 -0.0010245 9.7549e-22)
(0.998288 -0.00132609 -5.74266e-22)
(0.997982 -0.00170143 1.16734e-21)
(0.997654 -0.00220313 1.62429e-21)
(0.997309 -0.0027757 -3.26677e-21)
(0.996979 -0.00360925 3.24609e-22)
(0.999994 -7.77434e-05 -3.59488e-22)
(0.999906 -0.000168343 2.01109e-22)
(0.999795 -0.000215362 -5.75675e-22)
(0.999672 -0.000259032 -1.88082e-22)
(0.999537 -0.000315411 5.62932e-22)
(0.999386 -0.000390589 -2.78105e-22)
(0.999216 -0.000489116 6.3639e-22)
(0.999022 -0.000616114 -5.42197e-23)
(0.998801 -0.000778745 -1.03488e-21)
(0.998549 -0.00098652 5.73639e-22)
(0.998267 -0.00126936 1.30302e-21)
(0.997952 -0.00161522 -4.52891e-22)
(0.997616 -0.00209321 1.77519e-21)
(0.997237 -0.00266053 -2.95261e-21)
(0.996917 -0.00346464 3.27021e-21)
(0.999994 -7.50542e-05 -9.71544e-22)
(0.999906 -0.000162662 -7.73943e-22)
(0.999794 -0.000208295 5.74024e-22)
(0.999671 -0.000250781 -1.0088e-21)
(0.999535 -0.000305787 -1.68383e-22)
(0.999383 -0.000379417 -1.42695e-22)
(0.999212 -0.000476406 3.1317e-22)
(0.999016 -0.000602341 1.03136e-22)
(0.998793 -0.000765887 -7.70286e-22)
(0.998538 -0.000973757 -9.50799e-22)
(0.998253 -0.00123873 -3.14954e-22)
(0.997928 -0.0015649 2.53456e-22)
(0.997582 -0.00201933 -1.94423e-21)
(0.997172 -0.00253768 1.57932e-21)
(0.996862 -0.00333404 -1.85525e-21)
(0.999994 -7.23776e-05 6.1927e-22)
(0.999906 -0.000157045 3.15863e-22)
(0.999793 -0.000201307 1.93987e-23)
(0.999669 -0.000242553 -6.27739e-22)
(0.999533 -0.000295965 3.71246e-22)
(0.999381 -0.000367465 -7.32441e-22)
(0.999208 -0.000461605 -5.72583e-22)
(0.999011 -0.000583654 1.11225e-21)
(0.998786 -0.000741591 -4.79039e-22)
(0.998528 -0.000941335 -1.73999e-21)
(0.998239 -0.00120205 1.71589e-21)
(0.997906 -0.00152728 -7.43286e-22)
(0.997558 -0.0019655 2.24367e-21)
(0.997116 -0.0024534 1.38079e-21)
(0.996807 -0.00318238 -3.75309e-21)
(0.999994 -6.96998e-05 1.30408e-21)
(0.999906 -0.000151421 1.14178e-21)
(0.999793 -0.000194272 1.4467e-21)
(0.999668 -0.000234174 9.75807e-24)
(0.999532 -0.000285792 -1.60491e-21)
(0.999379 -0.000354855 4.16259e-22)
(0.999205 -0.000445752 -2.13262e-23)
(0.999007 -0.000563533 -1.835e-21)
(0.99878 -0.000715929 -4.34949e-22)
(0.998519 -0.000909233 -8.79522e-22)
(0.998226 -0.00116189 -8.81091e-22)
(0.997886 -0.00147487 1.86818e-21)
(0.997533 -0.00190148 6.11318e-22)
(0.997068 -0.00240078 -1.10742e-21)
(0.996757 -0.00306483 1.55182e-21)
(0.999994 -6.70133e-05 4.36928e-22)
(0.999905 -0.000145757 2.3682e-22)
(0.999792 -0.000187152 -6.55492e-22)
(0.999668 -0.000225653 8.99304e-22)
(0.99953 -0.000275409 2.78562e-21)
(0.999377 -0.000341971 -7.13231e-22)
(0.999203 -0.000429589 2.87206e-22)
(0.999003 -0.000543134 -1.25394e-22)
(0.998774 -0.000690137 4.13041e-22)
(0.998511 -0.000876731 -2.42227e-22)
(0.998215 -0.0011203 1.51721e-21)
(0.997867 -0.00142239 -1.43168e-21)
(0.99751 -0.00183427 4.65908e-22)
(0.997022 -0.00231697 2.69816e-22)
(0.996713 -0.00297038 -2.52367e-21)
(0.999994 -6.43186e-05 -2.76818e-21)
(0.999905 -0.000140056 -1.82288e-22)
(0.999792 -0.000179963 -2.80328e-22)
(0.999667 -0.000217034 1.20859e-21)
(0.999529 -0.000264897 -6.32933e-22)
(0.999375 -0.000328917 1.53812e-21)
(0.9992 -0.000413197 -6.04639e-23)
(0.998999 -0.000522414 -2.94368e-22)
(0.998769 -0.000663828 -8.99518e-23)
(0.998503 -0.000843336 3.24594e-22)
(0.998204 -0.00107779 -9.39158e-22)
(0.997849 -0.00136895 1.43482e-21)
(0.997488 -0.00176433 -1.16981e-21)
(0.996979 -0.00223728 1.40966e-21)
(0.996662 -0.00284908 -1.46156e-21)
(0.999994 -6.1617e-05 1.87431e-21)
(0.999905 -0.000134324 -6.41816e-22)
(0.999791 -0.000172718 -1.25776e-21)
(0.999666 -0.000208335 -7.51792e-23)
(0.999528 -0.000254278 1.5606e-21)
(0.999373 -0.000315715 -1.51068e-21)
(0.999197 -0.000396597 1.12067e-21)
(0.998996 -0.000501401 -1.23892e-21)
(0.998764 -0.000637105 1.49425e-21)
(0.998495 -0.00080943 1.95483e-21)
(0.998194 -0.00103457 -3.78009e-21)
(0.997832 -0.0013146 -4.22143e-22)
(0.997466 -0.00169295 1.99615e-21)
(0.99694 -0.00215492 3.06027e-22)
(0.996613 -0.00272986 9.6365e-22)
(0.999994 -5.89094e-05 -6.78211e-22)
(0.999905 -0.000128564 -1.92497e-22)
(0.999791 -0.00016542 -1.23176e-21)
(0.999665 -0.000199565 5.08857e-22)
(0.999527 -0.000243564 -1.50694e-21)
(0.999371 -0.000302387 -3.39153e-22)
(0.999195 -0.000379826 3.84073e-22)
(0.998992 -0.000480165 9.55427e-22)
(0.998759 -0.000610093 -1.40777e-21)
(0.998488 -0.000775168 9.45186e-22)
(0.998184 -0.000990786 -9.58729e-23)
(0.997815 -0.00125968 2.54018e-23)
(0.997446 -0.00162036 -7.35618e-22)
(0.996903 -0.00207107 1.62932e-22)
(0.996562 -0.00260801 -7.76596e-22)
(0.999994 -5.61963e-05 1.14368e-21)
(0.999905 -0.000122776 -3.14924e-22)
(0.99979 -0.000158071 1.0376e-21)
(0.999664 -0.000190726 -8.82758e-22)
(0.999525 -0.000232764 1.19186e-21)
(0.99937 -0.000288949 2.93194e-21)
(0.999193 -0.000362914 -6.85088e-23)
(0.998989 -0.00045875 -7.6778e-22)
(0.998755 -0.000582849 7.24725e-22)
(0.998482 -0.000740604 -1.20676e-23)
(0.998174 -0.000946545 4.00648e-22)
(0.9978 -0.00120428 9.1925e-22)
(0.997426 -0.00154684 -6.8896e-22)
(0.996868 -0.00198588 3.03509e-22)
(0.996512 -0.00248551 -3.98303e-21)
(0.999994 -5.34783e-05 -1.49697e-21)
(0.999905 -0.000116961 1.90685e-21)
(0.99979 -0.000150675 6.45522e-23)
(0.999664 -0.000181824 -1.20879e-21)
(0.999524 -0.000221884 -2.68231e-21)
(0.999368 -0.000275413 -3.63396e-21)
(0.99919 -0.000345879 6.49815e-22)
(0.998986 -0.00043718 3.40414e-21)
(0.99875 -0.000555402 -3.84069e-24)
(0.998475 -0.000705785 -2.25679e-22)
(0.998165 -0.000901921 -2.29586e-21)
(0.997785 -0.00114848 7.39335e-23)
(0.997406 -0.00147263 -1.91686e-21)
(0.996836 -0.00189936 1.09753e-21)
(0.996462 -0.00236268 -1.06204e-21)
(0.999995 -5.07557e-05 8.27396e-22)
(0.999905 -0.000111121 -9.42574e-22)
(0.99979 -0.000143232 2.11813e-21)
(0.999663 -0.000172863 1.5499e-21)
(0.999523 -0.000210933 1.23828e-21)
(0.999367 -0.000261788 1.10562e-21)
(0.999188 -0.000328733 -1.57486e-21)
(0.998983 -0.000415472 -2.4625e-21)
(0.998746 -0.00052778 -2.19579e-22)
(0.998469 -0.000670747 1.24207e-21)
(0.998157 -0.00085697 -9.47886e-22)
(0.997771 -0.00109231 8.79809e-22)
(0.997387 -0.00139788 2.63862e-21)
(0.996806 -0.00181149 -7.23975e-23)
(0.996413 -0.00223992 -3.89293e-21)
(0.999995 -4.80291e-05 3.2228e-22)
(0.999905 -0.000105256 6.47912e-22)
(0.999789 -0.000135746 -1.5267e-21)
(0.999662 -0.000163844 -1.67194e-22)
(0.999522 -0.000199913 -1.14835e-21)
(0.999365 -0.000248082 8.16012e-22)
(0.999186 -0.000311488 -1.17641e-22)
(0.99898 -0.000393643 -5.55195e-22)
(0.998742 -0.000500002 -1.25674e-21)
(0.998463 -0.000635517 -4.99056e-22)
(0.998149 -0.000811735 1.69048e-21)
(0.997757 -0.00103579 -2.23173e-21)
(0.997369 -0.00132274 -1.01603e-21)
(0.996778 -0.00172227 4.5558e-21)
(0.996365 -0.00211741 -5.49559e-22)
(0.995481 -0.00295608 -2.79464e-21)
(0.999995 -4.5299e-05 -1.16821e-21)
(0.999905 -9.93682e-05 -2.66438e-21)
(0.999789 -0.000128218 3.42784e-22)
(0.999662 -0.000154773 -1.39811e-21)
(0.999521 -0.000188829 1.0801e-21)
(0.999364 -0.0002343 -7.11486e-22)
(0.999184 -0.000294151 5.2846e-22)
(0.998977 -0.000371702 1.33304e-21)
(0.998738 -0.000472085 1.29947e-22)
(0.998457 -0.000600112 -8.61475e-22)
(0.998141 -0.000766255 3.65164e-22)
(0.997745 -0.000978923 4.05497e-21)
(0.997351 -0.0012473 -2.33735e-21)
(0.996753 -0.00163172 8.77867e-22)
(0.996319 -0.00199525 -3.48344e-21)
(0.995433 -0.00280206 2.12907e-21)
(0.999995 -4.25657e-05 2.20641e-21)
(0.999905 -9.34584e-05 2.114e-21)
(0.999789 -0.000120651 -1.54441e-21)
(0.999661 -0.000145651 9.85581e-22)
(0.99952 -0.000177686 -5.12675e-22)
(0.999362 -0.000220447 1.78524e-22)
(0.999182 -0.00027673 -3.55575e-22)
(0.998974 -0.00034966 -2.60126e-21)
(0.998735 -0.000444043 8.48449e-22)
(0.998452 -0.000564549 -5.04804e-22)
(0.998133 -0.000720562 -1.35766e-21)
(0.997733 -0.000921723 -3.09568e-21)
(0.997334 -0.00117168 5.19949e-22)
(0.996729 -0.00153985 -1.92543e-21)
(0.996275 -0.00187347 1.74176e-21)
(0.995387 -0.00264455 -4.58437e-22)
(0.999995 -3.98296e-05 -1.38082e-21)
(0.999905 -8.75278e-05 -5.82723e-22)
(0.999788 -0.000113046 5.0244e-22)
(0.99966 -0.000136481 -8.44417e-22)
(0.999519 -0.000166487 1.53399e-21)
(0.999361 -0.00020653 -7.27398e-22)
(0.999181 -0.000259231 3.14795e-22)
(0.998972 -0.000327525 1.46643e-21)
(0.998731 -0.000415886 2.10751e-21)
(0.998447 -0.000528839 1.18683e-21)
(0.998126 -0.000674686 1.52186e-21)
(0.997722 -0.000864189 -1.16692e-22)
(0.997317 -0.00109593 -5.20027e-22)
(0.996707 -0.0014467 5.85589e-22)
(0.996233 -0.00175206 -4.39686e-22)
(0.995344 -0.00248403 -1.66755e-21)
(0.999995 -3.70911e-05 4.45141e-22)
(0.999905 -8.15778e-05 -3.16828e-22)
(0.999788 -0.000105406 3.99814e-22)
(0.99966 -0.000127266 -1.62505e-22)
(0.999519 -0.000155235 -1.44108e-21)
(0.99936 -0.000192551 5.32473e-22)
(0.999179 -0.00024166 5.22519e-23)
(0.99897 -0.000305305 -1.35537e-21)
(0.998728 -0.000387625 -1.015e-21)
(0.998442 -0.000492992 -2.12263e-21)
(0.99812 -0.000628652 -6.49267e-23)
(0.997712 -0.000806325 -9.65605e-22)
(0.997302 -0.00102013 1.32174e-21)
(0.996688 -0.00135232 -1.24918e-21)
(0.996193 -0.00163097 -2.55387e-22)
(0.995304 -0.00232091 2.46044e-22)
(0.999995 -3.43504e-05 -2.59915e-22)
(0.999904 -7.56094e-05 6.97106e-22)
(0.999788 -9.77332e-05 1.98448e-21)
(0.999659 -0.00011801 4.66566e-22)
(0.999518 -0.000143935 3.71357e-22)
(0.999359 -0.000178516 9.36878e-22)
(0.999178 -0.000224023 2.86656e-21)
(0.998968 -0.000283005 -1.03308e-21)
(0.998725 -0.00035927 2.05874e-21)
(0.998437 -0.000457018 -1.88182e-22)
(0.998113 -0.000582484 9.29076e-22)
(0.997702 -0.000748135 1.09936e-21)
(0.997287 -0.000944307 2.87516e-23)
(0.996669 -0.00125677 1.04961e-21)
(0.996155 -0.00151014 4.07401e-23)
(0.995266 -0.00215557 4.93739e-22)
(0.999904 -6.96241e-05 -1.23503e-21)
(0.999788 -9.00297e-05 -1.6886e-21)
(0.999659 -0.000108715 9.7549e-22)
(0.999517 -0.000132589 1.02332e-22)
(0.999358 -0.000164428 -4.26896e-22)
(0.999176 -0.000206325 -1.35869e-21)
(0.998966 -0.000260632 7.95985e-22)
(0.998722 -0.000330829 -2.58343e-21)
(0.998433 -0.000420924 6.52548e-22)
(0.998107 -0.000536201 -9.59024e-22)
(0.997694 -0.000689626 -1.42902e-21)
(0.997273 -0.0008685 1.01786e-21)
(0.996653 -0.00116013 1.32115e-21)
(0.99612 -0.00138949 5.72062e-22)
(0.995231 -0.00198836 2.73994e-21)
(0.998803 -0.00205943 0)
(0.998725 -0.00252131 0)
(0.998767 -0.0030748 0)
(0.998747 -0.00366716 0)
(0.999995 -0.000115028 0)
(0.999919 -0.000245937 0)
(0.999824 -0.000311318 0)
(0.999721 -0.000370035 0)
(0.999612 -0.000445292 0)
(0.999494 -0.000545267 0)
(0.999366 -0.000675327 0)
(0.99923 -0.000841382 0)
(0.999086 -0.00105071 0)
(0.99894 -0.00131169 0)
(0.998795 -0.00163449 0)
(0.998674 -0.0020292 0)
(0.998557 -0.00250392 0)
(0.998562 -0.00307798 0)
(0.998484 -0.00370859 0)
(0.999995 -0.000109151 0)
(0.999917 -0.00023357 0)
(0.999818 -0.000295872 0)
(0.999711 -0.000352117 0)
(0.999597 -0.000424501 0)
(0.999472 -0.000521004 0)
(0.999336 -0.000647059 0)
(0.999188 -0.000808776 0)
(0.99903 -0.00101387 0)
(0.998865 -0.00127126 0)
(0.998696 -0.00159283 0)
(0.998543 -0.00198907 0)
(0.998387 -0.00247419 0)
(0.99835 -0.00306335 0)
(0.998206 -0.00373245 0)
(0.999995 -0.000103152 0)
(0.999914 -0.000220974 0)
(0.999812 -0.000280122 0)
(0.999702 -0.000333728 0)
(0.999582 -0.000402955 0)
(0.999451 -0.000495573 0)
(0.999307 -0.000617051 0)
(0.999149 -0.000773632 0)
(0.998976 -0.000973392 0)
(0.998792 -0.00122554 0)
(0.998598 -0.00154378 0)
(0.998413 -0.00193854 0)
(0.998216 -0.00243152 0)
(0.998131 -0.00302892 0)
(0.997917 -0.00373775 0)
(0.999994 -9.7029e-05 0)
(0.999912 -0.000208115 0)
(0.999807 -0.000264113 0)
(0.999693 -0.000315149 0)
(0.999568 -0.000381193 0)
(0.999432 -0.000469735 0)
(0.99928 -0.000586228 0)
(0.999111 -0.000736971 0)
(0.998924 -0.000930306 0)
(0.998721 -0.00117536 0)
(0.998502 -0.00148779 0)
(0.998284 -0.00187752 0)
(0.998046 -0.00237563 0)
(0.997906 -0.00297316 0)
(0.997623 -0.00372356 0)
(0.999994 -9.08286e-05 0)
(0.999909 -0.000194876 0)
(0.999802 -0.000247377 0)
(0.999684 -0.000295691 0)
(0.999556 -0.000358549 0)
(0.999413 -0.000442976 0)
(0.999254 -0.000554206 0)
(0.999075 -0.000698412 0)
(0.998875 -0.000884319 0)
(0.998654 -0.00112152 0)
(0.998411 -0.00142556 0)
(0.998159 -0.0018051 0)
(0.997882 -0.00230339 0)
(0.997676 -0.00289233 0)
(0.997341 -0.00368258 0)
(0.999994 -8.46805e-05 0)
(0.999907 -0.00018165 0)
(0.999797 -0.000229714 0)
(0.999677 -0.000273439 0)
(0.999544 -0.00033072 0)
(0.999397 -0.000408603 0)
(0.999231 -0.00051266 0)
(0.999043 -0.000649644 0)
(0.998832 -0.000829193 0)
(0.998594 -0.00106371 0)
(0.998329 -0.00135734 0)
(0.998043 -0.00172252 0)
(0.997732 -0.00221201 0)
(0.997446 -0.00278827 0)
(0.9971 -0.00361574 0)
)
;

boundaryField
{
    inlet
    {
        type            uniformFixedValue;
        uniformValue    constant (1 0 0);
        value           uniform (1 0 0);
    }
    outlet
    {
        type            pressureInletOutletVelocity;
        value           nonuniform 0();
    }
    cylinder
    {
        type            fixedValue;
        value           nonuniform 0();
    }
    top
    {
        type            symmetryPlane;
    }
    bottom
    {
        type            symmetryPlane;
    }
    defaultFaces
    {
        type            empty;
    }
    procBoundary16to8
    {
        type            processor;
        value           nonuniform List<vector> 
16
(
(0.998931 -0.00208015 0)
(0.998888 -0.00252696 0)
(0.998963 -0.00305583 0)
(0.998994 -0.00360983 0)
(0.999995 -0.000120773 0)
(0.999922 -0.000258025 0)
(0.99983 -0.000326351 0)
(0.999732 -0.000387358 0)
(0.999628 -0.000465234 0)
(0.999516 -0.000568321 0)
(0.999398 -0.000701862 0)
(0.999272 -0.000871494 0)
(0.999143 -0.00108397 0)
(0.999016 -0.001347 0)
(0.998895 -0.00166912 0)
(0.998895 -0.00166912 0)
)
;
    }
    procBoundary16to17
    {
        type            processor;
        value           nonuniform List<vector> 
22
(
(0.996653 -0.00457489 -1.95811e-21)
(0.99647 -0.00442467 3.10266e-21)
(0.99631 -0.00428789 3.09554e-22)
(0.99617 -0.00416217 -3.08229e-21)
(0.996047 -0.00400123 -3.72065e-22)
(0.995943 -0.0038761 -4.07582e-21)
(0.995859 -0.0037834 4.92247e-21)
(0.99578 -0.00365519 2.32257e-22)
(0.995711 -0.00352907 4.11822e-22)
(0.995647 -0.00339267 -3.54281e-21)
(0.995588 -0.0032519 -3.58106e-21)
(0.995533 -0.00310618 -6.37132e-21)
(0.995533 -0.00310618 -6.37132e-21)
(0.994969 -0.00335215 2.72362e-21)
(0.994865 -0.00317592 -5.58597e-21)
(0.999136 -0.00443714 0)
(0.998851 -0.00454092 0)
(0.998545 -0.00462075 0)
(0.998217 -0.00466974 0)
(0.99786 -0.0046808 0)
(0.997455 -0.00464348 0)
(0.996981 -0.00456425 0)
)
;
    }
    procBoundary16to24
    {
        type            processor;
        value           nonuniform List<vector> 
17
(
(0.999995 -3.16079e-05 -7.37648e-22)
(0.999995 -3.16079e-05 -7.37648e-22)
(0.999904 -6.3623e-05 -5.03159e-22)
(0.999788 -8.22977e-05 -5.47766e-23)
(0.999659 -9.93838e-05 1.35981e-21)
(0.999517 -0.000121201 -4.92704e-22)
(0.999357 -0.000150293 4.38152e-22)
(0.999175 -0.000188571 1.12808e-22)
(0.998964 -0.000238193 5.51794e-22)
(0.99872 -0.00030231 -9.61025e-23)
(0.998429 -0.000384718 9.57553e-22)
(0.998102 -0.000489822 -1.78583e-21)
(0.997686 -0.000630811 1.15718e-21)
(0.997259 -0.00079273 8.28968e-22)
(0.996638 -0.00106249 -3.37726e-22)
(0.996088 -0.00126895 3.79319e-22)
(0.995198 -0.00181958 -1.92942e-22)
)
;
    }
    procBoundary16to25
    {
        type            processor;
        value           nonuniform List<vector> 5((0.994769 -0.00299781 5.38456e-23) (0.994679 -0.00281771 2.67991e-21) (0.994595 -0.00263544 -7.08804e-22) (0.994518 -0.00245093 -1.11268e-22) (0.994448 -0.00226418 1.45583e-21));
    }
}


// ************************************************************************* //
