/*--------------------------------*- C++ -*----------------------------------*\
  =========                 |
  \\      /  F ield         | OpenFOAM: The Open Source CFD Toolbox
   \\    /   O peration     | Website:  https://openfoam.org
    \\  /    A nd           | Version:  7
     \\/     M anipulation  |
\*---------------------------------------------------------------------------*/
FoamFile
{
    version     2.0;
    format      ascii;
    class       volScalarField;
    location    "0.997";
    object      T;
}
// * * * * * * * * * * * * * * * * * * * * * * * * * * * * * * * * * * * * * //

dimensions      [0 2 -2 0 0 0 0];

internalField   nonuniform List<scalar> 
12359
(
-1.11735e-74
-3.39628e-61
5.2111e-203
-1.24757e-40
-1.90231e-69
-1.26306e-27
8.49742e-23
-9.21435e-25
4.20895e-17
1.8554e-30
1.52923e-19
-5.43655e-13
0.275523
-6.38554e-38
-3.82321e-43
1.43933e-05
0.00278231
3.36866e-111
-1.85338e-113
-3.87789e-51
-3.06828e-35
9.586e-15
5.73318e-56
3.64659e-48
-2.87923e-59
-3.84984e-54
3.65685e-146
-2.55588e-149
5.07886e-120
3.44986e-138
1.41995e-132
6.00794e-164
-7.73744e-180
5.10055e-141
2.19398e-191
-3.10267e-130
-5.17595e-90
-1.37149e-77
-8.13443e-72
-5.1097e-83
3.0708e-64
3.02209e-80
-2.80794e-97
9.4364e-101
2.15169e-124
-1.05565e-121
-1.43114e-127
-3.31132e-135
2.77382e-116
-2.20115e-143
-4.69224e-152
-2.39855e-157
-5.92984e-166
2.64495e-108
-1.22948e-171
2.66866e-177
7.81217e-103
1.40458e-182
-1.38459e-185
1.47743e-189
-3.36896e-175
1.33776e-196
1.66031e-154
10.1167
-2.29285e-105
-2.05633e-33
-6.70647e-93
2.07807e-160
2.73121e-87
1.66295e-08
113.867
1.96596e-66
8.09786e-205
-5.07117e-85
1.64653e-45
-6.95901e-194
1.69026e-168
-1.63064e-199
6.13077e-95
-2.04393e-10
-1.30591e-26
-4.3347e-115
2.51948e-249
-1.68833e-73
0.00185647
1.41779e-68
-2.60973e-113
8.76313e-161
1.06328
0.000606324
1.34406e-219
3.0049
9.0826e-222
-1.40918e-95
-4.80677e-77
2.62179e-46
-4.21106e-100
-1.66065e-96
4.26684e-48
1.6663e-61
3.16298e-22
1.14221e-215
3.65524e-69
29.8653
-3.66935e-122
2.39717e-26
-7.08155e-213
0.00241585
3.72843e-77
2.16481e-27
-2.25444e-102
-7.66986e-115
-1.07612e-30
1.09209e-25
-1.11263e-77
-2.41701e-144
8.7822e-25
-3.49576e-114
3.67524
1.41027e-247
-3.35985e-103
2.09372e-22
2.15823e-159
1.93591e-32
-2.90906e-113
-9.09386e-135
3.63517e-16
-8.55624e-73
1.16014e-200
-3.38607e-114
1.06236e-143
2.1697e-05
0.000655522
0.000455893
-4.4216e-214
4.68541e-33
-1.00579e-144
2.94724e-34
8.719e-212
5.13719e-17
-3.35247e-238
6.71762e-74
8.29123e-35
4.47792e-213
3.15944e-17
2.35752e-27
-8.23959e-249
0.000763471
-1.51415e-121
3.04531e-26
1.02226e-43
1.01588e-213
3.44522e-34
1.07138e-157
-5.28788e-226
114.699
6.01229e-23
2.0965e-05
-7.40771e-101
3.57376e-163
1.116e-32
6.66613e-162
3.76298e-32
7.49325e-34
-1.40844e-235
-3.73114e-136
2.33045e-33
3.42383e-23
1.52614e-35
0.944326
-3.00561e-197
-2.11742e-195
1.96941e-36
3.23015e-60
-1.08124e-123
2.09288e-17
5.25538e-121
1.57637e-122
-1.79352e-30
2.59072e-18
-3.44823e-37
-3.17509e-224
6.27881e-200
-2.91972e-114
2.49199e-49
1.27459e-15
-8.0223e-96
-1.41424e-80
5.28168e-43
-3.05902e-95
-3.09784e-79
1.41567e-47
2.96433e-49
1.51789e-156
9.11445e-27
41.1511
7.42046e-58
-2.25132e-95
2.88533e-34
-3.36812e-113
3.83129e-26
2.08538e-43
-3.1255e-61
1.78213e-27
4.10895e-20
-1.17527e-223
4.01117e-19
-7.73263e-61
1.39254e-27
4.34869e-104
1.83857e-231
5.78621e-13
9.7637e-13
155.454
3.71737e-15
-2.13181e-209
-1.39779e-95
-7.55258e-79
-4.71424e-95
3.60107e-72
5.04964e-26
-9.18545e-106
2.77834e-33
3.21612
-2.24172e-114
5.70676e-231
8.26393e-71
1.60005e-78
8.73079e-19
-3.79209e-93
-2.03992e-92
-2.59196e-237
1.57894e-17
4.35564e-56
-6.63826e-81
2.46785e-57
-6.14202e-246
2.78839e-32
-1.21902e-79
9.99935e-05
-9.79345e-228
1.52725e-65
-1.40678e-87
5.99546e-10
6.43957e-31
0.00112771
-3.63242e-187
2.01996e-28
3.16082e-129
1.74016e-49
3.36979e-18
-1.53696e-79
1.52383e-125
-1.47879e-92
1.38776
126.009
-3.71553e-245
1.38096e-108
1.48819
190.435
2.39575e-60
2.45575e-31
1.34912e-20
2.72557e-27
-2.65207e-61
59.862
3.69904
1.48531e-29
4.44405e-110
3.21869e-33
9.57121e-36
4.44696e-49
8.13183e-35
-5.07935e-94
2.22421e-106
6.23171e-230
1.91033e-108
9.11578
2.54101e-29
-2.10213e-197
-1.08116e-213
5.08428e-27
1.51269e-107
-9.52683e-94
7.38567e-67
8.04627e-241
9.43996e-21
2.28335e-214
4.99402e-215
8.54193e-165
5.53224e-33
-7.73756e-117
52.6721
-1.11053e-214
-1.73948e-212
3.13679e-68
-9.03704e-130
7.02154e-27
-1.12741e-81
-6.71014e-155
-6.28134e-220
8.27206
9.1117e-20
1.82977e-222
-8.33551e-95
-5.83188e-83
-6.24758e-128
-9.89589e-143
1.04239e-145
-1.20659e-125
-3.65318e-113
-7.62645e-16
-1.50977e-128
1.03024e-133
-2.11427e-78
1.70048e-32
1.79929
1.14681e-125
-7.41302e-52
5.21641e-06
-8.58762e-214
2.94224e-42
-9.10365e-196
5.00865e-57
1.52591e-211
6.50857e-124
7.31426e-16
4.18282e-39
3.04304e-16
-8.45574e-95
-1.0333e-87
2.63675e-49
3.82718e-45
-1.18011e-86
1.2658e-49
9.98108e-50
1.26293e-178
-2.94168e-170
-1.48971e-170
-4.90472e-170
-2.99577e-169
0.000403192
-6.03024e-240
6.56336e-25
1.2082e-33
1.4501e-51
6.97313e-33
1.63922e-38
1.17032e-68
4.23108e-59
1.36974e-38
6.49522e-60
1.72045e-52
6.63093e-30
3.25588e-29
4.46317e-30
1.87798e-72
2.1752e-14
6.13793e-75
2.93676e-75
9.58916e-35
7.09806e-20
-2.8057e-118
3.77727e-170
1.91978e-57
1.39822e-171
-3.74372e-115
171.52
18.364
2.25804e-116
7.72194e-210
3.3884e-216
-2.36538e-225
3.46652e-39
-4.05345e-224
-1.03099e-224
1.30436
4.1936e-34
0.000473922
1.08047e-119
6.20134e-29
4.74821e-109
-2.10173e-86
2.915e-26
3.49467e-58
-1.43577e-38
1.59196e-59
5.50652e-118
-2.96332e-197
1.56339e-34
7.40692e-29
3.45876e-116
1.48503e-11
1.66607e-26
3.65675e-46
4.93821e-41
1.24542e-34
-9.27544e-209
10.0485
1.3223e-13
1.8587e-117
1.95069e-10
-7.18716e-77
-3.37266e-236
2.28458e-236
-7.11425e-227
0.000881829
9.38642e-21
2.56187e-50
4.55091e-43
2.76666e-44
-1.16639e-75
-3.02918e-37
2.36218e-42
2.70666e-09
1.76618
2.67542e-11
4.12804e-51
4.65932e-31
1.03629e-75
2.39909e-27
2.42804e-63
4.33515e-56
3.20918e-141
8.62881e-65
8.84521e-37
-5.60281e-223
180.835
4.54943e-92
1.43121
8.79193e-30
-1.01418e-101
5.57121e-29
1.08764
9.0613e-37
1.58254e-57
2.23731e-46
1.00071e-28
1.49268e-26
-1.00618e-110
-4.42704e-231
1.56441e-23
-5.03686e-211
9.01838e-06
2.13656e-142
-2.99915e-54
2.43547e-34
1.42183e-91
0.00979212
3.95571e-24
-2.78333e-63
-1.00241e-110
4.55677e-05
7.65762e-184
-8.94099e-122
1.27686e-14
1.42237e-208
-1.20347e-110
-1.79345e-122
1.24819e-07
19.6329
-8.00228e-75
1.6371e-165
-3.5784e-32
1.743e-35
1.90267e-42
7.66079e-33
2.50151e-35
2.63566e-177
-7.15798e-227
3.6296e-39
1.2399e-217
2.19071e-35
6.20489e-43
7.93535e-28
4.09842e-124
1.35234e-24
3.70556e-13
-2.99393e-140
-4.1158e-76
8.12102e-115
-1.06698e-28
2.32581e-14
-9.0968e-211
7.72504e-38
8.55578e-37
3.72579e-78
1.20403e-36
-3.23832e-142
5.75323e-21
4.71364e-60
1.65405e-31
3.5841e-28
9.69319e-176
-6.55267e-77
9.02924e-10
0.00221648
1.93031e-219
5.52404e-55
4.55056e-10
1.01001e-40
0.834563
-7.0074e-227
1.68739e-143
3.77282e-182
6.97532e-33
3.93196e-60
-2.1083e-70
-8.69282e-141
5.59651e-40
3.19195e-54
-1.35097e-59
-8.01391e-101
0.000297355
-6.15866e-206
0.000683721
2.78859e-162
148.669
6.08746e-59
1.73922e-10
6.72649e-186
2.31665e-125
2.05379e-31
-7.09054e-116
-3.46401e-156
-3.61781e-97
1.62965e-58
1.26027e-58
5.07245e-12
5.17502e-23
4.39168e-23
-1.41884e-249
-1.07466e-115
5.35176e-41
0.00302416
-1.622e-249
-2.38572e-202
4.20168e-36
6.03609e-180
2.16536e-16
1.3207
106.462
-3.77872e-248
-6.20102e-77
2.41767e-17
-8.02997e-68
-4.15598e-124
91.357
9.28057e-204
1.74857e-23
3.16585e-33
7.0219e-78
-1.25837e-126
-1.65917e-153
4.64299e-93
4.11284e-34
1.92071e-60
-1.87233e-74
1.06706e-246
-4.02595e-199
1.87925e-63
1.00525e-121
3.118e-27
4.19212e-33
3.27921e-163
-8.65019e-199
2.43696e-29
173.147
2.86261e-134
1.43692e-09
-4.47971e-217
-1.5234e-74
1.26967e-23
1.65437e-40
6.32686e-19
5.01021e-28
3.42193e-59
1.80015e-30
-7.69113e-233
1.3166e-191
9.17935e-44
3.32725e-68
3.99862e-60
7.07026e-70
-7.5992e-226
-6.80781e-198
-2.90046e-134
8.87205e-47
1.50898e-26
-1.03477e-32
8.65295e-91
-4.97165e-31
3.68411e-35
3.32324e-56
-4.6682e-30
-1.10864e-54
1.79992
1.38947e-33
8.21278e-53
2.23601e-28
-1.12333e-192
7.61352e-23
5.13703e-31
4.74531e-250
-2.84475e-210
4.46268e-179
1.27589e-184
5.57019e-07
9.11091e-56
1.88314e-84
-6.04497e-32
-1.34746e-96
8.35574e-16
2.02738e-41
1.04157e-33
-2.81512e-133
1.20503e-10
-2.30942e-226
-9.46375e-47
-2.31356e-111
7.33477e-19
-2.25571e-29
8.76215e-65
1.49297e-55
9.7633
3.94888e-36
1.70883e-13
5.33698e-64
1.77459e-11
0.623595
-7.45507e-171
-5.40558e-118
-1.74374e-227
2.55672e-08
-2.60289e-118
2.74526e-60
0.00819589
2.99708e-202
-1.7642e-61
3.00651e-31
1.4473e-60
-1.45829e-131
1.17136e-65
-1.14988e-164
-1.07105e-64
1.29619e-166
-1.40711e-163
-4.38657e-69
1.60245e-32
2.78067e-35
3.25926e-59
2.14336e-08
2.45492e-41
17.2022
1.2038e-35
2.83845e-67
-7.62783e-67
2.68969e-37
2.61145e-50
1.3577e-47
0.578925
-7.41129e-35
9.41993e-53
1.59039e-50
-8.27154e-112
1.34825e-122
8.22281e-30
-1.61779e-229
20.9928
2.32101e-167
-6.55029e-34
5.94306e-22
4.14267e-07
1.44646e-18
1.55134e-28
2.05722e-32
7.20586e-65
8.8926e-19
5.01185e-41
2.20265e-13
4.12676e-50
2.22459e-13
2.6022e-51
7.01685e-242
5.82252e-51
178.34
4.33583e-13
2.31891e-91
-1.90889e-234
-1.50517e-161
9.69121e-84
-9.87011e-54
5.25544e-36
1.1193e-55
2.19039e-178
-3.45056e-90
8.03032e-50
-2.5853e-93
-1.50763e-100
1.57689e-12
-2.65893e-103
1.64831e-42
2.96215e-25
1.00612e-91
-2.17903e-83
1.20867e-27
-3.64622e-251
-8.29389e-87
53.5001
-1.46755e-189
3.27583e-16
1.41237e-22
1.61539e-84
3.49984e-32
2.36349e-25
1.13773e-51
5.32791e-26
-1.68894e-118
-3.16974e-32
-2.45365e-124
8.0142e-51
1.84984e-27
-5.28714e-31
-1.77235e-118
6.5315e-30
4.17434e-06
6.85996e-44
1.53656e-65
-1.1669e-111
2.84841e-22
7.31371e-07
-1.14334e-114
-6.79997e-211
6.14263e-52
-4.3107e-221
0.743111
1.10487e-50
2.92628e-12
1.00781e-63
6.29166e-57
13.9487
1.14116e-61
0.0017999
3.28344e-37
101.674
1.74705e-40
-2.94058e-73
4.77788e-63
1.57855e-79
0.00420504
0.000399743
2.30657e-166
9.85143e-164
-6.45995e-29
4.07301e-154
0.00381248
1.11614e-27
4.17955e-10
-1.43022e-111
128.778
0.100622
5.64009e-50
2.9131e-241
-8.95558e-123
-4.82933e-37
4.0452e-82
7.6925e-90
1.5567e-79
2.01817e-36
3.48736e-42
50.8408
2.00359e-07
5.56116e-180
1.61435e-36
2.57255e-24
-1.00778e-27
2.55393e-69
1.7236e-22
1.54397e-30
-5.02453e-36
-6.95208e-130
4.09301e-239
2.1836e-20
2.07969e-17
1.55211e-57
-7.34048e-30
4.73405e-13
1.4935e-68
7.02766e-53
-5.96714e-110
9.59678e-76
9.28962e-15
1.59499e-73
6.67248e-25
5.82562e-39
3.99018e-46
1.30704e-91
6.29461e-75
1.4846e-06
1.12163e-65
2.07707e-69
50.7504
2.48393e-47
3.91747e-70
0.0101757
2.56976e-245
2.76564e-64
4.78809e-58
-9.30162e-83
-1.78101e-137
1.13617e-54
4.34112e-252
1.28667e-09
4.49211e-117
-3.09286e-58
5.45518e-21
5.09402e-32
1.05031e-59
2.33562e-62
2.04189e-21
93.9269
-2.12606e-191
-1.95132e-100
4.21071e-69
0.00854344
1.46125e-17
-5.49295e-120
3.47272
-1.61859e-238
-8.63865e-120
186.407
-3.79432e-91
-5.29867e-117
-3.04194e-114
3.59321e-40
-2.72891e-39
-3.14324e-188
-1.11626e-84
1.47457e-24
2.80425e-58
8.85745e-63
3.99618e-80
-2.09205e-169
-3.42611e-38
2.54877e-06
-1.60479e-65
-6.05778e-31
6.28038e-38
5.80869e-49
1.91904e-10
3.72457e-25
7.24273e-79
-4.31702e-118
0.000493745
4.00067e-32
1.13311e-45
-4.50934e-109
3.31315e-183
-8.33427e-37
8.18518e-11
1.03994e-67
2.00613e-28
2.67964e-66
1.3844e-78
1.56653e-99
7.60352e-39
151.694
19.497
1.24457e-37
-1.32107e-62
5.52847e-101
7.08119e-40
0.0133595
-2.3457e-33
-2.65057e-121
2.41566e-11
8.20472e-08
9.45385
1.13761e-83
90.0023
-2.66174e-187
3.84009e-77
-1.61225e-183
6.52755e-11
1.61438e-44
84.084
-1.50308e-124
0.0216671
5.62478e-153
-2.11641e-63
2.36277e-28
1.91149e-84
4.95921e-12
0.144388
-1.84098e-89
1.09052e-90
5.68177e-64
8.9461e-85
-7.13639e-91
1.1109e-13
7.07469e-47
8.45226e-62
2.10912e-15
-5.4403e-91
2.77739e-178
-7.9498e-67
-5.7884e-161
1.28815e-26
1.1727e-63
4.14685e-09
6.46384e-11
-1.42357e-41
1.42339e-32
1.86661e-36
3.53637e-64
0.0132919
7.42351e-70
-4.09752e-95
-9.09196e-226
3.81383e-11
-1.49584e-34
-5.89745e-126
9.59531e-26
-1.33217e-80
8.18911e-33
-7.79826e-37
-2.9587e-32
1.33528e-37
91.6926
4.89249e-36
-1.83345e-40
0.154088
5.26694e-84
2.54953e-07
9.13899e-24
5.94236e-157
2.00313e-68
1.97739e-99
6.80938e-68
-2.40507e-234
-3.38783e-113
2.96722e-07
3.64374e-11
-3.99058e-114
207.594
9.73664e-29
3.86659e-162
8.87053e-12
2.34756e-12
1.71475e-164
1.19997e-10
6.89857e-22
3.64732e-11
-3.52746e-163
7.77393e-124
-1.2421e-98
3.5651e-165
-5.60674e-36
30.2313
-3.62692e-127
6.71942e-12
7.99135e-248
2.87947
2.53907e-26
2.49295e-34
-1.98779e-205
-9.33566e-129
1.89206e-76
3.83108e-39
4.01716e-15
2.02584e-33
-1.3462e-91
-9.31237e-88
-4.73494e-162
1.35344e-27
1.19126e-37
4.73447e-101
1.02832e-208
1.80257e-53
1.02498e-33
2.42567e-43
-1.42462e-133
8.23793e-07
2.15138e-28
3.16427e-153
4.09256e-44
2.05529e-87
7.54218e-71
196.537
-2.11518e-92
1.42234e-160
1.20562e-36
-1.22706e-35
-6.53838e-44
3.09687
-7.09575e-61
3.73122e-72
2.78072e-32
-5.5616e-83
-2.64491e-81
1.04978e-70
-2.55376e-83
-1.12879e-28
-4.87242e-73
15.5862
-9.45915e-43
6.21021e-10
1.02962e-78
0.0145347
6.51749e-31
4.73684e-09
1.16414e-13
9.19624e-32
1.19051e-70
1.35042e-76
6.09034e-56
3.30511e-247
1.12037e-73
2.32924e-35
3.1725e-12
-2.37692e-83
1.90927e-154
7.38494e-34
4.33641e-34
1.89919e-16
9.41833e-39
1.77741e-11
2.55489e-16
-9.64773e-108
2.7488e-49
0.860215
1.6182e-36
-4.13265e-238
1.10355e-84
-7.50046e-86
8.4288e-241
1.72727e-50
-4.06629e-189
3.36731e-72
9.9152e-15
4.0108e-33
3.30427e-06
-3.16517e-185
-4.77662e-129
-1.04913e-219
-2.09709e-84
-9.22768e-101
4.5914e-09
-1.49748e-100
-1.22341e-128
5.7451e-07
6.94096e-35
1.03786e-44
9.81074e-52
3.65721e-17
-1.27352e-91
4.98956e-12
2.36368e-77
1.39566e-179
0.0021796
7.06061e-40
3.4323e-20
-5.44202e-98
57.7628
-3.78277e-39
1.29858e-43
4.96929e-32
1.64127e-29
48.4036
1.16922e-74
7.92744e-12
-9.90831e-49
4.27674e-45
-4.25805e-139
1.23183e-62
1.74993e-07
5.47429e-76
7.12187e-09
-8.57028e-90
-9.51176e-94
1.07561e-12
4.57862e-145
5.63806e-121
3.33867e-73
1.32185e-38
4.69308e-11
-6.21565e-91
1.41053e-85
-2.13671e-220
1.7148e-46
0.00253984
9.61875e-41
-1.75477e-85
3.35291e-61
-1.23298e-92
-2.13588e-124
14.9537
-2.83323e-46
-6.49376e-212
4.51762e-48
-3.97935e-94
-6.08001e-38
-2.33324e-27
1.13963e-41
6.47684e-84
2.0261e-14
4.81046e-11
7.13227e-210
1.57018e-58
1.93181e-11
-3.09685e-126
-2.83886e-188
-1.3512e-62
9.22003e-49
8.49101e-78
-1.13899e-186
1.72301e-49
2.65017e-12
6.51813e-164
9.43897e-23
5.46631e-191
3.78967e-98
2.9644e-54
4.79672e-05
-1.72199e-226
2.11458
-4.20749e-45
3.30336e-21
40.6102
-1.68119e-41
2.8374e-55
0.034074
-3.80435e-84
1.61629e-05
1.1452e-18
2.58704e-65
5.18506e-75
1.60166e-76
-1.45715e-94
-2.13297e-99
8.51255e-21
0.0318351
197.385
3.03031e-24
-1.60124e-28
0.0374235
1.722e-26
15.297
1.17876e-140
-4.66568e-93
1.37142e-18
1.49117e-41
-1.88755e-114
3.91003e-24
2.94346e-77
43.2033
1.93898e-236
4.42729e-129
1.65907e-134
207.076
-6.93011e-36
1.25302e-43
-5.34298e-75
6.92211e-19
2.1313e-79
-1.45602e-130
3.79873e-07
8.93422e-76
3.69957e-07
6.78188e-21
5.21644e-65
4.47235e-14
1.08724e-40
-2.36463e-93
-2.08862e-125
-6.91105e-123
0.239483
2.85275e-13
-3.39866e-102
1.1592e-17
6.83838e-45
2.7784e-24
-1.91861e-226
7.22058e-45
2.33398e-07
2.67878e-09
-2.73452e-40
-1.83763e-65
-2.18084e-127
2.10447e-15
-8.93671e-82
-3.3332e-130
4.83476e-10
1.71764e-16
-9.21316e-105
9.17656e-30
2.59232e-39
7.61109e-222
-1.11229e-115
1.29917e-187
-2.77018e-39
87.4042
2.54383e-11
4.45875e-19
-3.41162e-109
9.607e-80
3.79979e-39
2.78873e-215
3.61898e-09
2.17994e-41
95.5376
-2.93316e-27
3.29226e-69
-1.75325e-105
-3.03736e-139
2.53991e-75
-5.59246e-82
-1.71679e-112
15.2111
6.60826e-15
4.8128e-35
8.07927e-17
-1.16624e-41
-4.26371e-125
-6.80312e-247
-6.17016e-113
1.07671e-25
0.943724
-1.2009e-21
1.806e-43
-1.79051e-47
1.07493e-73
2.09394e-15
0.0405013
0.0239358
2.93129e-82
-1.71437e-67
9.09019e-28
2.57669e-94
7.61746e-181
-8.8403e-114
1.11734e-13
-5.74112e-102
3.39985e-57
-1.57886e-89
5.67702e-40
4.07445e-08
-1.66964e-94
-1.64683e-113
3.18537e-10
2.42246e-14
-1.80324e-92
3.27554e-137
-1.11376e-48
0.0014641
3.72492e-25
4.61931e-22
-4.02938e-51
5.14304e-55
0.0734995
3.24206e-78
-1.01748e-21
-8.01717e-124
1.88123e-12
1.54063e-11
-2.04041e-165
-2.13598e-136
89.8042
-2.10953e-115
1.28562e-71
5.17696e-27
-2.42832e-105
-2.75764e-103
-1.09375e-90
-6.84722e-117
-1.55155e-219
2.08179e-16
1.78692e-05
-3.46047e-138
0.0186348
5.03205e-80
-6.72545e-118
1.67603e-12
4.71794e-09
3.30381e-26
-7.50729e-83
-4.90999e-113
-6.80965e-44
153.927
-1.19471e-101
3.70562e-139
-1.80009e-144
-7.55452e-102
4.11603e-58
8.97667e-28
-1.53316e-104
-3.29687e-77
1.40708e-122
7.90446
9.0946e-09
3.75333e-38
-4.43139e-38
1.61191e-78
-7.04089e-118
2.69507e-15
1.4969
-1.43168e-71
-3.87707e-144
-2.18314e-119
1.66274e-13
-8.18319e-105
-4.40866e-125
4.65113e-08
-4.3584e-84
-2.40705e-113
118.413
1.43158e-05
13.8631
6.72261e-15
-2.58255e-104
1.07415e-11
2.31032e-10
0.186673
1.59223e-92
3.84872e-27
7.80932e-218
0.13087
3.58423e-241
-2.38948e-94
1.90048e-78
-7.56543e-143
1.51013e-39
1.12842e-91
-8.53669e-103
7.65178e-94
7.37377
4.87592e-14
1.99224e-35
-2.13446e-112
1.65411e-28
20.7621
1.06069e-08
2.41925e-42
-6.62676e-50
-3.84341e-96
2.62645e-82
-1.99157e-139
3.72626e-106
-1.75102e-136
-6.03813e-115
-1.16551e-42
9.46517e-15
3.58857e-16
0.35277
0.000115294
1.54275e-08
1.02346e-23
0.131882
-1.19732e-126
4.2867e-05
-1.01391e-119
0.00166613
5.28866e-09
2.87218e-34
-9.39722e-104
7.57078e-34
4.58378e-22
1.21232e-61
93.58
2.03273e-12
0.411249
-1.97777e-116
1.24615e-09
3.62972e-07
9.05643e-10
1.68495e-07
1.0706e-10
-3.78018e-113
2.60386e-95
7.31442e-38
-7.97624e-108
5.65347e-28
-2.03288e-98
4.99417e-37
1.03556e-166
-3.57501e-88
7.6895e-20
1.30721e-28
-1.10358e-131
-2.51662e-46
0.988802
87.972
-9.32901e-144
1.15787e-48
7.066e-72
1.30348e-10
8.47994e-29
5.25829
4.89209e-05
1.56872e-94
5.70925e-38
2.71843e-07
-8.95182e-24
6.40255e-06
5.77137e-53
1.06672e-11
5.11956e-133
0.213821
2.18105e-08
1.52929e-135
1.60042e-07
0.187684
9.29252e-45
4.30438
4.71956e-83
8.85291e-09
2.56562e-76
-2.21101e-148
6.27685e-72
6.49199e-78
0.0915381
0.000782728
0.0426007
-2.80055e-132
7.35509
5.41456e-35
1.12513e-12
-4.2292e-31
9.94709e-40
4.46494e-48
0.0209126
1.96092e-81
1.06252e-90
8.50549e-19
4.58961e-09
1.6202e-27
1.07139e-17
-3.89849e-56
0.0557945
4.6227e-29
3.99164e-28
2.56077e-09
5.10715e-169
8.94237e-08
5.34567e-10
5.13633e-08
4.65869e-74
0.00104056
3.75034e-139
1.17036e-28
2.73496e-39
3.42446e-05
5.12459e-70
8.99808e-20
1.8673e-08
77.8331
-3.30409e-104
2.83624e-33
-2.04567e-46
3.42525e-08
5.54615e-18
-2.01662e-93
1.39815e-36
-7.42411e-141
12.9271
-4.75059e-224
8.13604e-142
4.89683e-186
1.19015e-06
-4.512e-112
3.0138e-36
8.15999
4.78297e-50
6.443e-57
-2.00739e-106
6.70452e-176
1.17998e-09
7.49635e-144
-1.93627e-40
5.05375e-12
-4.37767e-45
3.30503e-06
-9.36498e-89
2.01412e-35
1.59719e-07
4.95416e-18
9.72611e-67
90.5764
-8.55993e-228
4.1243e-171
-4.01758e-84
228.856
5.29198e-75
2.09633e-68
9.31454e-08
-1.39359e-103
-4.15111e-87
3.50748e-13
1.02162e-05
2.82967e-30
0.00969584
-1.13872e-103
-4.01386e-85
3.83256e-39
2.24257e-44
3.43299e-05
-3.13431e-121
2.17898e-64
-1.33243e-53
-9.7397e-19
1.09876e-57
-3.15745e-133
2.78846e-38
-9.8748e-19
9.68155e-198
7.22102e-193
4.78223e-05
7.01473e-30
9.18552e-05
2.13765e-86
4.98572e-236
-1.45806e-17
1.51066e-06
-1.18404e-124
-3.35299e-100
1.67122e-140
15.6186
1.22034e-197
2.26928e-31
8.33939e-05
-1.24891e-189
2.38961e-174
3.29968e-18
-2.03983e-151
2.05982e-193
1.1885e-37
4.20682e-13
-1.30894e-134
3.67114e-21
-7.75317e-145
1.11151e-07
4.15292e-238
1.45545e-07
6.19374e-13
1.51422e-19
2.71307e-189
1.14321e-14
5.66909
-2.49034e-95
3.12537e-47
5.81728e-153
2.07565e-13
-3.01154e-146
9.76201e-07
3.74237e-09
-1.424e-81
3.0694e-182
1.76154e-13
8.19774e-14
2.13921e-43
4.03907e-41
3.06641e-16
-8.09554e-150
3.68238e-15
7.71599e-184
1.7315e-05
1.35412e-08
1.85926e-08
5.56005e-19
-8.26701e-23
12.1746
2.01919e-19
8.79271e-40
2.0349e-14
-6.95696e-97
1.04896e-11
3.7852e-16
-8.49584e-43
1.77005e-74
0.1034
-2.62112e-202
0.048535
111.785
-6.46719e-107
3.33705e-08
93.3876
5.29848e-34
2.24382e-37
6.15733e-16
-2.34799e-52
-6.98101e-140
7.79059e-08
0.0146657
0.90197
-1.71536e-96
3.16527e-14
0.000474695
4.0872e-14
-1.21663e-114
3.11416e-168
3.62817e-29
0.0233311
8.971e-09
3.87297e-16
-2.66089e-228
-9.01136e-147
2.39619e-14
-4.88963e-103
6.3062e-41
-8.05669e-99
3.11464e-179
2.72098e-07
3.72896e-81
0.000210288
1.10832e-42
2.4098e-160
4.48203e-168
5.6359e-15
-8.14786e-98
3.05136e-33
6.95972e-16
0.879203
-8.48279e-49
-2.06353e-132
2.67054e-06
1.46487e-93
-1.83344e-142
2.35846e-63
1.13099e-13
6.07691e-94
8.91604e-14
8.88141e-43
220.51
1.48461e-14
-7.99882e-125
0.000103947
1.57394e-185
6.06964e-09
2.00667e-35
8.0343e-06
0.0050162
-5.03778e-44
0.000166227
8.94194e-159
1.29325e-08
-8.90045e-119
9.40328e-50
3.85064e-05
1.39558e-26
1.42889e-05
0.0182703
-1.37622e-19
1.49556e-07
2.59985e-06
-1.62807e-129
-3.80004e-144
-8.89634e-185
0.000213066
-4.4944e-24
-5.92668e-128
1.94708e-07
2.08685e-05
4.09172e-35
1.09847e-12
9.66193e-51
-1.94638e-33
0.00317908
2.26906e-70
1.50034e-27
4.7349e-32
-6.81507e-218
1.81015e-216
-3.19943e-130
-1.96622e-96
7.21234e-42
1.03494e-161
4.44019e-82
-2.48239e-103
-2.90007e-61
2.25811e-16
-2.22991e-113
1.51649e-06
1.05342e-239
2.43368e-11
4.50193e-06
-3.19174e-124
5.60282e-05
3.27032e-12
7.19872e-06
6.98923e-57
1.71165e-16
-3.16163e-105
7.73411e-36
1.67228e-45
1.2568e-169
5.95795e-119
-3.51465e-90
-1.0168e-122
6.90029e-189
3.06352e-54
1.69456e-190
-2.67236e-30
2.80919e-22
0.073061
2.68437e-163
2.80741e-60
3.78416e-160
-2.14373e-102
2.36687e-21
2.34311e-62
-6.93567e-126
122.022
2.77429e-14
4.87134e-30
4.60784e-58
5.93139e-15
2.57204e-23
3.81168e-60
1.58872e-17
2.41644e-13
-5.49948e-103
1.90189e-185
-1.50233e-79
2.03817e-07
-2.36066e-143
-1.46455e-130
1.10482e-13
5.02312e-108
-2.44715e-103
1.86684e-70
-4.30657e-133
0.00120542
1.03174e-161
-4.26979e-132
2.29142e-19
7.6365e-18
6.4529
3.64253e-13
-2.36107e-56
-1.07018e-125
2.15817e-16
-3.22645e-127
6.03748e-26
1.44526e-44
4.61673e-104
6.18112e-06
-1.86048e-194
2.98083e-21
2.35635e-52
9.861e-15
-4.1603e-42
3.26545e-194
-2.20711e-105
4.60788e-238
3.37419e-24
-2.26774e-145
9.83113e-19
3.62367e-41
-1.19285e-86
-7.30193e-55
5.26452e-37
4.20774e-187
8.19948e-21
4.42112e-21
-2.29885e-97
3.52899e-19
1.33149e-07
1.66762e-177
3.68353e-37
2.23244e-11
7.5846e-13
7.19734e-73
5.20461e-40
9.24317e-39
2.01246e-43
3.08523e-70
7.54305e-15
1.59015e-70
-3.0477e-124
-1.16728e-125
0.0633515
2.24962e-08
9.11658e-05
1.78107e-06
-1.51419e-34
3.29971e-20
2.27671e-41
1.58638e-18
-9.14234e-126
3.51134
-3.77647e-102
2.9366e-06
2.90143e-07
-1.05382e-128
-4.08336e-25
1.05286e-08
7.61554e-06
1.48645e-39
9.64054e-26
-1.85125e-127
1.87284e-208
7.88687e-15
1.76305e-185
3.81012e-165
4.23122e-17
-2.52226e-103
-4.88175e-64
-7.39931e-131
-6.39344e-85
8.21526e-15
11.1683
7.68241e-98
-5.85985e-105
2.03598e-08
-2.7286e-37
5.77539e-11
4.46921e-24
1.54138e-25
-5.45335e-105
1.49342e-36
9.32401e-16
8.52718e-17
-8.22095e-30
5.078e-153
4.76378e-06
5.29448e-30
4.05542e-19
5.89638e-81
-4.2326e-130
1.80503e-16
8.57279e-96
-3.35371e-180
2.90508e-22
2.14528e-08
-8.95566e-164
1.13984e-20
2.88479e-44
-4.30743e-112
-8.97988e-73
-2.26609e-111
2.82362e-22
-3.73807e-124
-1.2114e-131
4.34429e-41
1.11059e-22
-3.36803e-39
-9.29007e-30
10.1443
-2.69748e-105
2.1981e-59
0.426043
6.54141e-32
-9.65637e-113
3.99958e-31
0.00812424
1.50194e-169
-3.38998e-106
1.17359e-180
2.97275e-25
1.77744e-14
2.64999e-44
3.86527e-192
-2.284e-76
4.42384e-62
6.54619e-88
2.02221e-09
-4.04316e-99
3.58767e-191
2.983e-187
2.61383e-27
3.5095e-40
1.81216e-05
-1.53836e-79
-1.53348e-47
5.72455e-28
1.38686e-14
-1.47462e-142
9.17783e-24
1.07272e-172
5.22247e-165
5.58335e-194
8.27784e-10
-8.19256e-107
1.22324e-23
2.30552e-21
8.49032e-26
1.0582e-15
8.32043e-27
1.99929e-13
1.64516e-25
-1.34091e-99
2.86122e-27
-7.67593e-47
1.39881e-33
3.83135e-21
-5.13407e-105
41.7945
7.42108e-17
5.51167e-19
-1.39985e-162
1.60047
3.46091e-15
6.67098e-17
-5.98065e-31
2.18507e-06
1.3983e-61
1.14199e-102
-5.83959e-86
1.42762e-87
2.01474e-82
6.52111e-18
1.50177e-21
-1.29866e-112
2.08654e-24
2.43378e-89
3.75883e-82
1.04099e-49
-3.58429e-45
3.44729e-67
3.95129e-55
-6.1424e-44
3.55195e-23
1.47485e-25
3.78982e-46
2.76865e-185
1.27492e-88
-1.57568e-97
8.07878e-11
-1.4783e-144
-1.07068e-109
7.98195e-25
1.76522
-1.98263e-123
2.70386e-05
-2.72124e-127
2.28699e-96
1.53485e-38
2.18136e-28
5.00836e-33
-1.17016e-142
2.1644e-18
3.42826e-21
2.04304e-11
2.02494e-163
1.61272e-23
3.0237e-40
5.01082e-51
7.57651e-193
-7.10781e-228
3.48067e-27
5.74986e-40
5.37535e-58
54.3057
9.39148e-23
1.24662e-31
-1.01193e-24
8.39419e-42
3.78506e-11
-2.03512e-104
6.04224e-45
1.45562e-72
-2.85134e-85
0.0107635
5.24675e-22
2.37348e-21
1.02369e-34
-2.8225e-136
2.54546e-17
9.33008e-17
0.000239953
-2.39767e-83
1.11387e-31
0.000226213
8.43403e-05
-7.35244e-129
8.70747e-05
8.60506e-49
23.0227
1.2456e-177
3.50579e-24
2.78066e-35
1.16979e-198
1.97455e-14
1.38215e-62
2.15067e-76
1.65589e-08
0.00148263
6.18116e-05
1.58247e-75
3.9124e-26
-1.61754e-177
-2.48802e-97
4.70619e-06
3.19021e-30
2.29975e-74
7.93732e-18
2.49505e-22
3.55153e-27
2.44089e-38
3.80702e-36
1.86224e-21
0.00342728
-1.7344e-135
6.48829e-38
1.03961e-44
1.54283e-27
2.394e-07
8.07658e-23
8.96694e-32
6.85204e-63
8.71108e-181
3.58928e-26
2.06908e-30
1.39616e-20
-1.01478e-139
7.58475e-55
3.33957e-23
6.3424e-24
-5.92804e-24
9.03354e-20
1.99937e-69
6.64769e-29
-3.24766e-108
1.46672e-13
6.05787e-51
1.71364e-25
8.45881e-62
2.81185e-74
1.6926e-22
1.5616e-55
2.25561e-63
-2.1014e-78
-4.00665e-138
5.66698e-28
1.07207e-49
2.3435e-52
20.7096
0.0107486
-2.09989e-107
8.39799e-76
1.59266e-36
2.44873e-39
1.65105e-192
8.46672e-30
-1.07823e-35
6.20835e-30
-1.03318e-178
1.60476e-13
2.98618e-18
9.3573e-16
1.24859e-29
-1.57705e-163
-5.88382e-92
2.33266e-59
1.33859e-28
7.37532e-09
15.4859
-1.70996e-132
6.50292e-66
1.6956e-68
5.39009e-07
0.000547564
0.000124813
1.25103e-50
3.69683e-21
-4.66163e-177
2.65428e-37
-2.78943e-51
-5.52719e-131
3.5876e-22
1.74906e-38
5.77824e-34
6.03202e-20
-7.11127e-70
9.61112e-40
3.78128e-31
-6.97587e-166
-6.56238e-249
8.53198e-42
-3.31937e-64
2.25832e-08
1.92991e-45
-7.22102e-23
2.26371e-13
-2.18517e-40
-2.04591e-132
-1.26247e-57
7.84087e-19
-4.0678e-136
0.284532
0.0628297
-1.19656e-110
9.6452e-173
-4.78126e-100
5.25889e-136
2.11884e-200
-3.64209e-60
1.81384e-63
-3.66596e-32
3.84039e-38
3.92394e-30
-1.3694e-47
2.99794e-05
7.4828e-19
1.07508e-31
2.40401e-38
5.10071e-49
1.64501e-34
-1.36614e-164
-2.66941e-72
9.63963e-65
-1.68545e-31
-7.67281e-26
1.75034e-09
5.23799e-203
-1.07723e-26
1.94973e-36
2.11519e-47
1.57051e-22
-7.6433e-40
1.79509e-24
0.00432642
1.02176e-36
3.38115e-18
8.17981e-48
-9.38438e-85
2.14239e-39
2.92661e-34
-9.46895e-137
3.71586e-40
0.0304006
-6.95015e-76
0.000241598
-1.41837e-129
8.47118e-34
-3.93112e-88
1.22664e-70
5.97383e-30
-1.01919e-20
1.23618e-21
3.87853e-68
3.526e-42
8.85862e-48
6.92468e-18
6.60509e-12
-3.85571e-45
1.75844e-08
2.64241e-199
1.56279e-38
8.06786
1.73177e-14
8.94126e-69
0.420579
3.00997e-19
9.19016e-65
-2.34387e-152
1.03413e-10
1.34108e-34
4.72287e-49
1.42895e-35
1.76345e-150
2.43791e-20
9.14026e-77
5.94112e-14
6.30969e-36
3.08745e-31
-7.0045e-30
1.60431e-243
-7.83256e-100
5.58194e-45
1.7459e-83
-1.17296e-87
1.65887e-55
6.23396e-74
1.39828e-60
-9.99832e-25
9.71222e-28
5.05882e-189
1.65917e-15
-3.69707e-98
-3.68714e-164
-1.988e-27
-1.67355e-124
1.49112e-47
9.20192e-49
-2.46508e-138
-1.04795e-134
1.52712e-81
1.15155e-23
7.7715e-61
3.21194e-32
4.06361e-35
-1.94816e-26
3.43094e-25
1.0385e-49
4.9553e-42
4.03568e-38
-6.35348e-216
3.04828e-55
2.00092e-74
2.97864e-50
0.279172
5.34598e-26
-2.78461e-69
5.18472e-41
-1.75946e-62
1.87394e-64
6.21537e-70
4.8991e-62
5.37582e-65
-2.96262e-32
5.13862e-37
-6.77902e-166
8.13718e-25
-7.57609e-49
5.25378e-23
-3.44957e-154
-5.3157e-28
4.71611e-05
-1.29529e-94
-1.15507e-39
8.58171e-18
-1.5125e-115
2.26276e-26
1.8441e-13
4.42843e-37
-1.05433e-37
1.96693e-14
1.41342e-41
-4.73876e-50
2.36794e-40
1.73239e-24
1.74393e-121
2.13861e-70
7.26658e-207
-3.19968e-98
-6.82568e-153
1.41982e-39
2.63941e-37
5.56319e-26
-6.52171e-42
15.6108
-1.71777e-20
34.1988
1.0888e-35
5.0323e-10
11.2745
3.94624e-16
22.9017
1.9352e-68
2.13796e-41
2.67495e-46
7.67513e-52
6.18065e-45
4.0515e-99
5.30575e-46
5.90447e-90
-5.85029e-156
-2.54174e-51
4.28051
1.53015e-41
6.17541e-22
3.20418e-44
8.72738e-83
1.91912e-37
4.00044e-37
5.05142e-108
4.97624e-43
-2.47608e-79
2.17829e-24
6.07143e-40
3.35235e-41
-4.8152e-42
0.480765
1.49061e-07
5.61881e-21
2.91804e-49
74.2229
4.41884e-43
9.29727e-54
2.52564e-28
-3.56004e-29
-2.9777e-58
1.15816e-16
-8.67197e-135
-7.46667e-37
-1.75529e-27
1.22955e-42
-7.41905e-44
8.41168e-74
4.90045e-39
-8.53285e-34
1.14182e-66
1.06383e-27
3.97409e-47
5.17212e-60
-3.73385e-131
1.53088e-52
1.76306e-38
4.3098e-79
4.33844e-48
7.46828e-60
-1.33354e-99
-2.34944e-33
2.78608e-78
7.10184e-16
4.32352e-46
-1.26063e-63
-6.70812e-139
-6.16802e-98
8.44529e-15
8.17347e-39
-1.21027e-199
5.86146e-45
8.47962
1.3785e-22
2.65108e-75
2.73385e-48
0.122526
0.8204
43.4262
2.28823e-84
4.96105e-86
2.15947e-105
3.06827e-59
3.97844e-29
0.004428
0.0428723
6.48319e-13
6.37266e-19
7.46039e-73
-2.08739e-149
-2.25866e-147
-2.40353e-27
-3.96423e-74
4.71564e-25
-3.13617e-88
1.66384e-05
-1.37909e-86
2.09364e-42
3.20677e-12
-1.48146e-41
7.88903e-21
1.55293e-110
7.8072e-41
-5.5674e-162
6.56871e-18
2.63106e-19
1.60061e-65
-1.74359e-154
3.66212e-67
1.95038e-25
2.55855e-101
-1.88184e-44
0.119779
5.79433e-173
2.29618e-64
-5.39293e-38
-1.62618e-38
2.52561e-47
-4.51621e-114
-2.61849e-101
-8.07673e-102
2.62625e-196
-1.87706e-146
6.65686e-61
1.09398e-26
-5.88091e-163
1.18611e-72
-4.07643e-111
149.902
-3.42321e-28
-1.53794e-99
1.08183e-204
1.54962e-23
7.22121e-43
5.63035e-21
-4.97729e-46
5.95571e-43
-1.09381e-156
-1.91705e-98
2.53604e-16
-1.04316e-218
1.50319e-43
2.0495e-28
2.76332e-51
2.40169e-142
4.76021e-38
-2.98081e-191
3.81661e-58
5.50213e-60
7.42737e-100
4.90078e-08
7.98641e-54
1.06407e-63
2.22368e-61
-9.83313e-39
-2.32813e-49
-2.00523e-167
6.74614e-202
7.02856e-78
2.81318e-28
7.78645e-40
2.7784e-64
1.93668e-60