/*--------------------------------*- C++ -*----------------------------------*\
  =========                 |
  \\      /  F ield         | OpenFOAM: The Open Source CFD Toolbox
   \\    /   O peration     | Website:  https://openfoam.org
    \\  /    A nd           | Version:  7
     \\/     M anipulation  |
\*---------------------------------------------------------------------------*/
FoamFile
{
    version     2.0;
    format      ascii;
    class       volScalarField;
    location    "74";
    object      p;
}
// * * * * * * * * * * * * * * * * * * * * * * * * * * * * * * * * * * * * * //

dimensions      [0 2 -2 0 0 0 0];

internalField   nonuniform List<scalar> 
26800
(
-0.222944
-0.226281
-0.232758
-0.232273
-0.233396
-0.230837
-0.227609
-0.221549
-0.214402
-0.207978
-0.204005
-0.203843
-0.201455
-0.193345
-0.17632
-0.14856
-0.126299
-0.103972
-0.0928343
-0.0851478
-0.223057
-0.226414
-0.232689
-0.23152
-0.231261
-0.22679
-0.221639
-0.214643
-0.208608
-0.206095
-0.208544
-0.216193
-0.219844
-0.213692
-0.193611
-0.156865
-0.124192
-0.0885723
-0.0662923
-0.0557152
-0.223352
-0.226615
-0.232724
-0.23085
-0.229229
-0.222884
-0.215877
-0.207993
-0.20302
-0.204227
-0.212687
-0.227441
-0.236151
-0.230805
-0.206937
-0.162119
-0.120333
-0.0739532
-0.0419901
-0.0277496
-0.223829
-0.226885
-0.232868
-0.230275
-0.227325
-0.219166
-0.210393
-0.201688
-0.197722
-0.202383
-0.216306
-0.237224
-0.249853
-0.24423
-0.216295
-0.164269
-0.115513
-0.0613059
-0.0228343
-0.00552122
-0.224487
-0.227222
-0.23312
-0.229801
-0.225567
-0.215671
-0.205246
-0.195803
-0.19278
-0.200555
-0.219307
-0.245315
-0.260561
-0.253803
-0.221891
-0.164043
-0.11053
-0.0518892
-0.0103576
0.00855279
-0.225324
-0.227625
-0.233478
-0.229435
-0.223968
-0.212429
-0.200481
-0.190395
-0.188246
-0.198739
-0.221643
-0.251385
-0.26815
-0.259514
-0.224071
-0.162307
-0.106082
-0.046295
-0.00465279
0.0142976
-0.226338
-0.22809
-0.233939
-0.229176
-0.222538
-0.209463
-0.196137
-0.185512
-0.184157
-0.196996
-0.223103
-0.255335
-0.272559
-0.261496
-0.223195
-0.159749
-0.102548
-0.0445223
-0.00470236
0.0131744
-0.227521
-0.228609
-0.234495
-0.229022
-0.221281
-0.206787
-0.192244
-0.181188
-0.180572
-0.195268
-0.223712
-0.257111
-0.273793
-0.260035
-0.219672
-0.156769
-0.100067
-0.0459332
-0.00877304
0.00766785
-0.228868
-0.229177
-0.235135
-0.228967
-0.220199
-0.204414
-0.188824
-0.17744
-0.177509
-0.193604
-0.223502
-0.256717
-0.271939
-0.25556
-0.214013
-0.153541
-0.0986155
-0.0494599
-0.0152411
-0.000102656
-0.230371
-0.229784
-0.235847
-0.229002
-0.219285
-0.202346
-0.185877
-0.174317
-0.17499
-0.192046
-0.222497
-0.254284
-0.267212
-0.248595
-0.206816
-0.150107
-0.0980526
-0.0539919
-0.0227741
-0.00863695
-0.232022
-0.230422
-0.236616
-0.229113
-0.218532
-0.200576
-0.183419
-0.17183
-0.17304
-0.190612
-0.220704
-0.249991
-0.25998
-0.239724
-0.198699
-0.146491
-0.0981221
-0.0587032
-0.0303847
-0.0169658
-0.233811
-0.23108
-0.237425
-0.229282
-0.217927
-0.199084
-0.181459
-0.169971
-0.171658
-0.189281
-0.218116
-0.244062
-0.250762
-0.22957
-0.190214
-0.142755
-0.0985068
-0.0631299
-0.0374649
-0.0245727
-0.235729
-0.231747
-0.238252
-0.229488
-0.217425
-0.197876
-0.179969
-0.168715
-0.170793
-0.18797
-0.214715
-0.236771
-0.240185
-0.218759
-0.181789
-0.138986
-0.0989352
-0.06706
-0.0437243
-0.0312633
-0.237766
-0.232415
-0.239078
-0.229704
-0.217016
-0.196907
-0.178909
-0.168001
-0.170327
-0.186554
-0.21052
-0.22846
-0.228905
-0.207853
-0.173709
-0.135266
-0.0992348
-0.0704095
-0.0490814
-0.0370161
-0.239913
-0.233073
-0.23988
-0.229901
-0.216661
-0.196135
-0.178221
-0.167726
-0.170094
-0.184904
-0.205619
-0.219533
-0.217521
-0.197285
-0.166131
-0.131651
-0.099319
-0.0731653
-0.0535652
-0.0418888
-0.242162
-0.233714
-0.240637
-0.230037
-0.21632
-0.195513
-0.177825
-0.167753
-0.169911
-0.182935
-0.200177
-0.210398
-0.206495
-0.187336
-0.159113
-0.128169
-0.0991583
-0.0753535
-0.0572538
-0.0459631
-0.244504
-0.23433
-0.241288
-0.230108
-0.215949
-0.194987
-0.177629
-0.16793
-0.169624
-0.180618
-0.194409
-0.201406
-0.196118
-0.178145
-0.152651
-0.124827
-0.0987566
-0.0770192
-0.0602428
-0.0493282
-0.246932
-0.234913
-0.241844
-0.230058
-0.215507
-0.194501
-0.177536
-0.168115
-0.169123
-0.177978
-0.188524
-0.192798
-0.186529
-0.169745
-0.146709
-0.121624
-0.0981337
-0.0782154
-0.0626262
-0.0520774
-0.24944
-0.235459
-0.242277
-0.229862
-0.214957
-0.194
-0.17745
-0.16819
-0.168346
-0.175068
-0.182689
-0.184709
-0.177759
-0.162106
-0.141233
-0.118549
-0.0973141
-0.0789977
-0.0644887
-0.0542948
-0.252024
-0.235996
-0.24253
-0.229504
-0.21427
-0.19343
-0.17729
-0.168065
-0.167271
-0.171956
-0.177015
-0.177192
-0.169775
-0.155164
-0.13617
-0.115592
-0.0963219
-0.0794189
-0.0659052
-0.0560508
-0.254681
-0.236505
-0.242587
-0.22898
-0.213427
-0.192742
-0.176989
-0.167685
-0.165902
-0.168704
-0.171567
-0.170241
-0.16251
-0.148843
-0.131469
-0.112742
-0.0951788
-0.079528
-0.0669399
-0.0574064
-0.257406
-0.236968
-0.242437
-0.228297
-0.212416
-0.191897
-0.176496
-0.167019
-0.16426
-0.165365
-0.166369
-0.163822
-0.155888
-0.143064
-0.127084
-0.109988
-0.0939033
-0.0793704
-0.0676449
-0.0584128
-0.260198
-0.237376
-0.242068
-0.227465
-0.211231
-0.190863
-0.17578
-0.166063
-0.162376
-0.16198
-0.161427
-0.157887
-0.149831
-0.137753
-0.122977
-0.107319
-0.0925112
-0.0789872
-0.0680621
-0.059112
-0.26305
-0.237708
-0.24149
-0.226488
-0.209875
-0.18962
-0.174824
-0.164826
-0.160283
-0.158578
-0.156727
-0.152383
-0.144266
-0.132844
-0.119113
-0.104724
-0.0910159
-0.0784155
-0.068223
-0.0595394
-0.265953
-0.237926
-0.240736
-0.225353
-0.208349
-0.188158
-0.173626
-0.163328
-0.158015
-0.15518
-0.152253
-0.147256
-0.139126
-0.128281
-0.115466
-0.102191
-0.0894302
-0.0776867
-0.0681503
-0.0597223
-0.268884
-0.237985
-0.239855
-0.224038
-0.206662
-0.186477
-0.172192
-0.161594
-0.155601
-0.1518
-0.147983
-0.14246
-0.134353
-0.124013
-0.112008
-0.099707
-0.0877683
-0.0768244
-0.0678557
-0.0596779
-0.271775
-0.237874
-0.238892
-0.22252
-0.20482
-0.184586
-0.170537
-0.15965
-0.153066
-0.148444
-0.143894
-0.137951
-0.129893
-0.120001
-0.108719
-0.0972635
-0.0860462
-0.0758434
-0.067335
-0.0594157
-0.274569
-0.237586
-0.237866
-0.220784
-0.20283
-0.182497
-0.168676
-0.157523
-0.150431
-0.145116
-0.139965
-0.133691
-0.125703
-0.116209
-0.105576
-0.0948542
-0.0842822
-0.0747508
-0.0665731
-0.0589496
-0.277194
-0.237145
-0.236755
-0.218836
-0.200699
-0.180225
-0.166628
-0.155234
-0.147715
-0.141818
-0.136177
-0.129646
-0.121744
-0.11261
-0.10256
-0.0924764
-0.0824943
-0.07355
-0.0655709
-0.0583123
-0.279525
-0.236639
-0.235495
-0.216689
-0.198435
-0.177788
-0.164414
-0.152806
-0.144931
-0.13855
-0.132513
-0.125787
-0.117982
-0.109177
-0.0996534
-0.0901298
-0.080696
-0.0722489
-0.0643905
-0.0575642
-0.281433
-0.236209
-0.234006
-0.214362
-0.196046
-0.1752
-0.162049
-0.150257
-0.142091
-0.135309
-0.128956
-0.122089
-0.11439
-0.10589
-0.0968408
-0.0878153
-0.0788923
-0.0708654
-0.063176
-0.0567213
-0.282801
-0.236034
-0.232219
-0.211872
-0.193543
-0.172478
-0.159551
-0.147602
-0.139204
-0.132093
-0.125492
-0.118529
-0.110944
-0.102728
-0.0941093
-0.0855327
-0.0770822
-0.0694228
-0.0620089
-0.0557635
-0.283542
-0.236311
-0.230107
-0.209228
-0.190934
-0.169636
-0.156935
-0.144855
-0.136277
-0.128899
-0.122109
-0.115087
-0.107624
-0.0996755
-0.0914484
-0.0832804
-0.0752647
-0.0679514
-0.0608352
-0.0547483
-0.283607
-0.237221
-0.227697
-0.206437
-0.18823
-0.166687
-0.154214
-0.142026
-0.133315
-0.125725
-0.118796
-0.111748
-0.104412
-0.0967175
-0.0888489
-0.0810558
-0.073443
-0.0664516
-0.0596417
-0.0537674
-0.282979
-0.238891
-0.225061
-0.203501
-0.18544
-0.163642
-0.151398
-0.139125
-0.130323
-0.122567
-0.115543
-0.108496
-0.101293
-0.093841
-0.0863028
-0.0788566
-0.0716167
-0.064931
-0.058423
-0.0527724
-0.281669
-0.24135
-0.2223
-0.200418
-0.18257
-0.160511
-0.148496
-0.136159
-0.127304
-0.119423
-0.112341
-0.10532
-0.0982545
-0.0910349
-0.0838031
-0.0766799
-0.0697879
-0.0633891
-0.0571728
-0.0517662
-0.279693
-0.2445
-0.219517
-0.197188
-0.179626
-0.157303
-0.145518
-0.133136
-0.12426
-0.11629
-0.109183
-0.102207
-0.0952847
-0.0882894
-0.0813437
-0.0745236
-0.0679557
-0.0618282
-0.0558963
-0.0507233
-0.277075
-0.248102
-0.216799
-0.193806
-0.176609
-0.154025
-0.142469
-0.130059
-0.121192
-0.113164
-0.106062
-0.0991488
-0.0923738
-0.0855959
-0.0789191
-0.0723848
-0.0661206
-0.06025
-0.0545905
-0.0496458
-0.273841
-0.251791
-0.214203
-0.190271
-0.17352
-0.150682
-0.139354
-0.126933
-0.118103
-0.110045
-0.102972
-0.0961368
-0.0895135
-0.0829468
-0.0765245
-0.0702615
-0.0642821
-0.0586555
-0.0532601
-0.0485289
-0.270031
-0.255108
-0.211755
-0.186582
-0.170357
-0.147279
-0.136179
-0.123761
-0.114992
-0.106928
-0.099908
-0.0931638
-0.0866961
-0.0803354
-0.0741556
-0.068151
-0.0624398
-0.0570467
-0.0519042
-0.0473761
-0.265723
-0.257569
-0.209447
-0.182741
-0.167117
-0.143819
-0.132946
-0.120546
-0.11186
-0.103813
-0.0968646
-0.0902234
-0.0839152
-0.0777561
-0.0718086
-0.0660514
-0.0605935
-0.0554244
-0.050526
-0.0461885
-0.261042
-0.258738
-0.207246
-0.178754
-0.163797
-0.140303
-0.129659
-0.117291
-0.108707
-0.100697
-0.0938379
-0.0873102
-0.081165
-0.0752038
-0.0694802
-0.0639604
-0.0587426
-0.0537901
-0.0491257
-0.0449691
-0.256179
-0.258305
-0.205107
-0.174631
-0.160396
-0.136733
-0.12632
-0.113996
-0.105533
-0.0975774
-0.090824
-0.0844191
-0.0784403
-0.0726739
-0.0671672
-0.0618763
-0.056887
-0.0521443
-0.0477054
-0.04372
-0.251379
-0.256139
-0.202978
-0.170385
-0.156911
-0.13311
-0.122931
-0.110664
-0.102338
-0.0944534
-0.0878197
-0.0815461
-0.0757367
-0.0701627
-0.064867
-0.0597971
-0.0550264
-0.050488
-0.0462654
-0.0424432
-0.246927
-0.252304
-0.200811
-0.166033
-0.153343
-0.129435
-0.119494
-0.107295
-0.0991216
-0.0913232
-0.0848219
-0.0786873
-0.0730504
-0.0676666
-0.0625771
-0.0577214
-0.0531606
-0.0488216
-0.044807
-0.0411408
-0.24311
-0.247028
-0.198568
-0.161591
-0.149692
-0.125708
-0.116009
-0.103891
-0.0958839
-0.0881852
-0.081828
-0.0758394
-0.070378
-0.0651829
-0.0602956
-0.0556477
-0.0512895
-0.0471456
-0.0433309
-0.0398146
-0.240185
-0.240644
-0.196223
-0.157075
-0.145961
-0.121928
-0.112477
-0.100452
-0.0926242
-0.0850382
-0.0788357
-0.0729997
-0.0677163
-0.0627088
-0.0580203
-0.0535748
-0.0494128
-0.0454601
-0.041838
-0.0384665
-0.238347
-0.233519
-0.19376
-0.152499
-0.14215
-0.118096
-0.1089
-0.0969778
-0.0893421
-0.0818808
-0.0758428
-0.0701655
-0.0650629
-0.0602423
-0.0557496
-0.0515016
-0.0475304
-0.0437653
-0.0403285
-0.0370981
-0.237715
-0.225997
-0.191169
-0.147874
-0.138262
-0.114213
-0.105277
-0.0934699
-0.0860374
-0.078712
-0.0728477
-0.0673347
-0.0624155
-0.0577812
-0.0534821
-0.0494272
-0.0456422
-0.0420613
-0.038803
-0.0357111
-0.23833
-0.218353
-0.188447
-0.143208
-0.134299
-0.110276
-0.101608
-0.0899281
-0.0827096
-0.0755308
-0.0698486
-0.0645055
-0.0597721
-0.055324
-0.0512165
-0.047351
-0.0437483
-0.0403483
-0.037262
-0.0343068
-0.240166
-0.210789
-0.185594
-0.138507
-0.130262
-0.106286
-0.0978945
-0.0863526
-0.0793584
-0.0723364
-0.0668443
-0.061676
-0.057131
-0.0528692
-0.0489517
-0.0452722
-0.0418486
-0.0386262
-0.0357061
-0.0328863
-0.243143
-0.203431
-0.18261
-0.133771
-0.126153
-0.102243
-0.0941355
-0.0827433
-0.0759835
-0.0691281
-0.0638335
-0.0588451
-0.0544909
-0.0504157
-0.0466868
-0.0431904
-0.0399433
-0.0368953
-0.0341359
-0.0314505
-0.247148
-0.196348
-0.179496
-0.129003
-0.121971
-0.0981461
-0.0903313
-0.0791002
-0.0725846
-0.0659051
-0.0608152
-0.0560115
-0.0518505
-0.0479624
-0.044421
-0.0411054
-0.0380324
-0.0351559
-0.0325524
-0.0300005
-0.252038
-0.189566
-0.176249
-0.124198
-0.117717
-0.0939937
-0.0864815
-0.0754233
-0.0691615
-0.062667
-0.0577886
-0.0531742
-0.049209
-0.0455086
-0.0421538
-0.0390169
-0.036116
-0.0334083
-0.030957
-0.0285384
-0.257657
-0.183083
-0.172864
-0.119354
-0.11339
-0.0897852
-0.082586
-0.0717123
-0.0657141
-0.0594132
-0.0547531
-0.0503325
-0.0465654
-0.0430535
-0.0398847
-0.0369248
-0.0341941
-0.0316527
-0.0293512
-0.0270671
-0.263841
-0.176875
-0.169336
-0.114464
-0.108989
-0.0855194
-0.0786446
-0.067967
-0.0622425
-0.0561436
-0.0517082
-0.0474858
-0.0439193
-0.0405967
-0.0376134
-0.0348289
-0.0322667
-0.0298891
-0.0277363
-0.0255899
-0.270419
-0.170908
-0.165656
-0.109523
-0.104512
-0.081195
-0.0746577
-0.0641868
-0.0587468
-0.0528577
-0.0486534
-0.0446336
-0.0412702
-0.0381379
-0.0353397
-0.0327293
-0.0303337
-0.0281176
-0.0261127
-0.024108
-0.277223
-0.165138
-0.161816
-0.10452
-0.0999591
-0.0768099
-0.0706257
-0.0603715
-0.0552272
-0.0495559
-0.0455886
-0.0417759
-0.0386178
-0.0356769
-0.0330635
-0.030626
-0.0283955
-0.0263388
-0.0244804
-0.0226171
-0.284084
-0.159518
-0.157804
-0.0994494
-0.0953276
-0.0723616
-0.0665496
-0.0565211
-0.0516832
-0.0462385
-0.0425135
-0.0389125
-0.035962
-0.0332136
-0.0307848
-0.0285191
-0.0264527
-0.0245545
-0.0228396
-0.0211058
-0.290841
-0.153997
-0.15361
-0.0943
-0.0906176
-0.0678471
-0.0624293
-0.0526369
-0.0481139
-0.0429061
-0.0394286
-0.0360434
-0.0333029
-0.0307481
-0.0285041
-0.0264089
-0.024506
-0.0227668
-0.0211927
-0.0195573
-0.297338
-0.148522
-0.149222
-0.0890613
-0.0858295
-0.0632654
-0.0582624
-0.0487198
-0.0445198
-0.0395573
-0.0363355
-0.0331674
-0.0306412
-0.0282806
-0.0262223
-0.0242955
-0.0225563
-0.0209771
-0.0195423
-0.0179628
-0.303427
-0.143042
-0.144628
-0.0837214
-0.0809627
-0.0586193
-0.0540462
-0.0447662
-0.0409082
-0.036186
-0.0332383
-0.0302826
-0.0279782
-0.0258113
-0.0239406
-0.0221793
-0.0206052
-0.0191855
-0.0178823
-0.0163432
-0.308972
-0.137505
-0.139819
-0.078269
-0.0760129
-0.0539112
-0.0497875
-0.0407598
-0.0372971
-0.0327817
-0.0301414
-0.027388
-0.0253149
-0.0233412
-0.0216585
-0.020062
-0.0186544
-0.017392
-0.0161936
-0.0147534
-0.313844
-0.13186
-0.134786
-0.0726963
-0.0709744
-0.0491244
-0.0455189
-0.0366722
-0.0337073
-0.0293403
-0.0270413
-0.0244898
-0.022649
-0.020873
-0.0193721
-0.0179471
-0.0167049
-0.015592
-0.014483
-0.0131908
-0.317926
-0.126058
-0.129522
-0.0669973
-0.0658574
-0.044199
-0.0413005
-0.0324888
-0.0301273
-0.0258885
-0.0239166
-0.021604
-0.0199752
-0.0184054
-0.0170851
-0.0158337
-0.0147558
-0.0137823
-0.012765
-0.0116408
-0.321114
-0.120052
-0.124018
-0.061151
-0.0607188
-0.0390472
-0.0371615
-0.028264
-0.0264773
-0.0224806
-0.0207619
-0.0187213
-0.0172999
-0.0159374
-0.0147996
-0.013722
-0.0128064
-0.0119647
-0.0110477
-0.0100927
-0.323315
-0.113798
-0.118262
-0.0550929
-0.0556593
-0.0336719
-0.0329875
-0.0241106
-0.0227321
-0.0190941
-0.0175941
-0.0158346
-0.0146267
-0.0134699
-0.012517
-0.0116126
-0.0108567
-0.0101435
-0.00933322
-0.00854177
-0.324447
-0.107262
-0.112258
-0.0487213
-0.0507079
-0.0283339
-0.0285655
-0.0200262
-0.0189258
-0.0157062
-0.0144245
-0.0129422
-0.0119563
-0.0110044
-0.010238
-0.00950643
-0.00890794
-0.00832196
-0.00762179
-0.006987
-0.324442
-0.100412
-0.10606
-0.0420145
-0.0456315
-0.0231512
-0.023966
-0.0159702
-0.0150886
-0.0123043
-0.0112576
-0.0100461
-0.00928898
-0.00854247
-0.00796359
-0.00740442
-0.00696158
-0.00650255
-0.00591356
-0.00542968
-0.323243
-0.0931912
-0.0997683
-0.0352029
-0.0401874
-0.018074
-0.0192483
-0.0119102
-0.0112387
-0.00888502
-0.00809416
-0.00714919
-0.00662527
-0.00608557
-0.00569486
-0.00530778
-0.00501932
-0.00468688
-0.00420909
-0.00387187
-0.320803
-0.0854719
-0.0934196
-0.028317
-0.0344299
-0.0130378
-0.0144562
-0.00782766
-0.00738523
-0.00544979
-0.00493377
-0.00425402
-0.00396609
-0.00363492
-0.00343301
-0.00321782
-0.00308274
-0.00287637
-0.00250943
-0.0023157
-0.317088
-0.0771088
-0.0867982
-0.0215718
-0.0284341
-0.00799817
-0.0096159
-0.00371401
-0.00353183
-0.00200248
-0.00177613
-0.00136289
-0.0013128
-0.00119181
-0.00117932
-0.00113595
-0.00115337
-0.00107239
-0.00081598
-0.000763181
-0.312073
-0.0681922
-0.0798408
-0.0149049
-0.0222556
-0.00292715
-0.0047442
0.000432701
0.000320594
0.0014526
0.00137838
0.00152234
0.00133309
0.00124242
0.00106479
0.000936404
0.000767337
0.000723632
0.000869634
0.000783734
-0.305749
-0.059199
-0.0722149
-0.00823924
-0.0159321
0.00219139
0.000149169
0.00461055
0.00417195
0.00491137
0.00452867
0.00439998
0.00396995
0.00366632
0.00329788
0.00299776
0.00267793
0.00251017
0.00254563
0.00232288
-0.298147
-0.049957
-0.064054
-0.00152121
-0.00949043
0.00736569
0.00505827
0.00881557
0.00802207
0.00837022
0.00767316
0.00726835
0.0065961
0.00607832
0.00551842
0.00504661
0.00457692
0.00428553
0.00420996
0.00385176
-0.289354
-0.0403188
-0.0554405
0.00528047
-0.0029501
0.0125986
0.00997938
0.0130429
0.0118703
0.0118259
0.0108099
0.0101257
0.00920981
0.00847681
0.00772485
0.00708145
0.00646274
0.00604776
0.00586011
0.00536778
-0.279441
-0.0302014
-0.0464342
0.0121833
0.00367386
0.0178894
0.0149098
0.0172871
0.0157153
0.0152755
0.0139367
0.0129702
0.0118093
0.0108601
0.00991559
0.00910077
0.00833373
0.00779457
0.00749295
0.00686865
-0.268249
-0.0197522
-0.0370781
0.0191964
0.0103695
0.0232347
0.0198471
0.0215432
0.0195552
0.0187161
0.0170512
0.0157999
0.0143928
0.0132265
0.012089
0.0111031
0.0101882
0.00952348
0.00910502
0.0083521
-0.255451
-0.00926345
-0.0274091
0.0263235
0.0171265
0.0286296
0.0247888
0.0258058
0.0233876
0.0221449
0.0201511
0.0186127
0.0169584
0.0155743
0.0142436
0.0130869
0.0120247
0.0112323
0.0106931
0.00981472
-0.241305
0.00142524
-0.0174568
0.0335649
0.0239359
0.0340679
0.0297321
0.03007
0.0272097
0.0255592
0.0232339
0.0214065
0.0195041
0.0179017
0.0163777
0.0150507
0.0138414
0.0129192
0.0122551
0.0112512
-0.225903
0.0123643
-0.00724828
0.0409174
0.0307892
0.0395428
0.0346736
0.0343306
0.0310184
0.0289559
0.0262969
0.024179
0.0220281
0.0202068
0.0184895
0.0169928
0.0156369
0.0145828
0.0137896
0.0126571
-0.209318
0.0235747
0.00319069
0.048375
0.0376779
0.0450468
0.0396096
0.0385829
0.0348103
0.032332
0.0293375
0.0269281
0.0245282
0.0224879
0.0205774
0.0189115
0.0174096
0.0162217
0.0152956
0.0140353
-0.191623
0.03506
0.0138353
0.0559299
0.0445937
0.0505719
0.0445357
0.0428218
0.0385817
0.0356845
0.032353
0.0296513
0.0270024
0.024743
0.0226394
0.0208052
0.019158
0.0178343
0.0167711
0.0153965
-0.172893
0.0468143
0.0246609
0.063572
0.0515278
0.0561099
0.0494472
0.0470424
0.0423289
0.03901
0.0353407
0.0323464
0.0294487
0.0269702
0.024674
0.0226728
0.0208817
0.0194192
0.0182122
0.0167405
-0.153205
0.0588248
0.0356429
0.0712899
0.0584712
0.0616524
0.0543389
0.0512397
0.0460479
0.0423054
0.0382977
0.0350107
0.0318648
0.0291677
0.0266797
0.0245137
0.0225811
0.0209752
0.0196087
0.0180234
-0.13264
0.0710737
0.0467564
0.0790707
0.0654144
0.0671905
0.0592051
0.0554084
0.0497345
0.0455671
0.041221
0.037642
0.0342486
0.0313333
0.0286553
0.0263285
0.0242572
0.0224985
0.0209378
0.0191594
-0.11128
0.0835388
0.0579762
0.0869006
0.0723474
0.0727155
0.06404
0.0595435
0.0533847
0.0487918
0.0441078
0.0402375
0.0365977
0.0334654
0.0306002
0.0281175
0.0259088
0.023979
0.0221693
0.0201171
-0.0892118
0.0961945
0.0692765
0.0947646
0.0792598
0.0782184
0.0688374
0.0636395
0.0569941
0.0519758
0.046955
0.0427948
0.0389099
0.0355624
0.0325139
0.0298799
0.0275305
0.0254029
0.0232993
0.0210428
-0.0665225
0.109012
0.080631
0.102647
0.0861409
0.0836898
0.0735908
0.0676911
0.0605583
0.0551155
0.0497596
0.0453111
0.0411829
0.0376228
0.0343955
0.0316132
0.0291136
0.0267642
0.0243842
0.0221815
-0.0433022
0.121961
0.0920132
0.110531
0.0929793
0.0891205
0.0782935
0.0716928
0.0640729
0.0582074
0.0525185
0.0477839
0.0434146
0.0396453
0.0362438
0.0333128
0.0306503
0.0280733
0.0254998
0.0235905
-0.0196425
0.135009
0.103396
0.118401
0.0997635
0.0945011
0.0829387
0.075639
0.0675333
0.0612476
0.0552286
0.0502104
0.045603
0.0416285
0.0380566
0.034974
0.0321386
0.029348
0.0266387
0.0250611
0.00436382
0.148119
0.114751
0.126238
0.106481
0.099822
0.0875193
0.0795241
0.070935
0.0642325
0.0578865
0.052588
0.0477459
0.0435706
0.0398312
0.0365934
0.0335817
0.0306082
0.0278397
0.0264252
0.028623
0.161257
0.126051
0.134025
0.113121
0.105074
0.0920283
0.0833424
0.0742733
0.0671582
0.0604893
0.054914
0.0498414
0.0454697
0.0415648
0.038169
0.0349863
0.0318665
0.0290766
0.0276889
0.053041
0.174384
0.137268
0.141743
0.11967
0.110246
0.0964583
0.0870881
0.0775437
0.070021
0.0630336
0.0571858
0.0518873
0.0473236
0.0432547
0.0397004
0.0363572
0.0331204
0.0303128
0.0288826
0.0775234
0.187462
0.148374
0.149374
0.126115
0.11533
0.100802
0.0907557
0.0807416
0.0728171
0.0655163
0.059401
0.0538814
0.0491299
0.0448987
0.0411881
0.0376976
0.0343639
0.0315284
0.0300223
0.101976
0.200453
0.15934
0.156901
0.132444
0.120316
0.105053
0.0943393
0.0838622
0.0755427
0.0679344
0.0615568
0.0558215
0.0508863
0.046495
0.0426323
0.039007
0.0355881
0.0327143
0.0311193
0.126306
0.213316
0.170137
0.164304
0.138644
0.125193
0.109202
0.0978332
0.086901
0.0781941
0.0702846
0.0636508
0.0577052
0.0525906
0.0480422
0.0440331
0.040284
0.0367864
0.0338656
0.0321753
0.150421
0.226013
0.180737
0.171564
0.144702
0.129953
0.113244
0.101232
0.0898535
0.0807676
0.0725639
0.0656803
0.0595302
0.0542406
0.049539
0.0453898
0.0415258
0.0379539
0.0349809
0.0331912
0.174228
0.238502
0.191114
0.178664
0.150606
0.134586
0.117171
0.104529
0.0927152
0.0832594
0.0747692
0.0676428
0.0612942
0.0558344
0.0509841
0.0467013
0.0427299
0.0390867
0.036058
0.0341656
0.19764
0.250745
0.201237
0.185586
0.156342
0.139083
0.120975
0.107721
0.0954815
0.0856662
0.0768977
0.0695359
0.062995
0.0573702
0.0523762
0.0479662
0.0438938
0.0401821
0.0370955
0.0350978
0.220568
0.262702
0.211082
0.192311
0.161899
0.143434
0.12465
0.1108
0.0981482
0.0879842
0.0789463
0.0713569
0.0646304
0.0588461
0.0537138
0.0491827
0.0450152
0.0412376
0.0380918
0.0359866
0.242927
0.274335
0.22062
0.198823
0.167264
0.14763
0.128189
0.113762
0.100711
0.09021
0.0809122
0.0731035
0.0661982
0.0602604
0.0549955
0.0503493
0.0460921
0.0422515
0.0390454
0.0368315
0.264633
0.285606
0.229825
0.205103
0.172426
0.151663
0.131585
0.116602
0.103166
0.0923404
0.0827926
0.0747733
0.0676965
0.0616113
0.0562198
0.0514644
0.0471226
0.0432217
0.039955
0.0376317
0.285608
0.296478
0.238673
0.211136
0.177372
0.155523
0.134832
0.119315
0.105508
0.094372
0.0845849
0.0763641
0.0691233
0.0628974
0.0573851
0.0525265
0.048105
0.0441467
0.0408193
0.0383871
0.305774
0.306914
0.247139
0.216905
0.182091
0.159204
0.137924
0.121896
0.107735
0.0963017
0.0862863
0.0778735
0.0704766
0.0641168
0.05849
0.053534
0.0490379
0.045025
0.0416373
0.0390973
0.325056
0.316881
0.255199
0.222395
0.186572
0.162696
0.140854
0.124339
0.109842
0.0981265
0.0878945
0.0792996
0.0717548
0.0652681
0.0595331
0.0544856
0.0499198
0.0458552
0.0424079
0.0397621
0.343385
0.326345
0.262831
0.227591
0.190806
0.165993
0.143617
0.126641
0.111826
0.0998436
0.0894069
0.0806403
0.072956
0.0663498
0.0605131
0.0553799
0.0507492
0.0466359
0.0431304
0.0403817
0.360695
0.335274
0.270012
0.232479
0.194782
0.169086
0.146207
0.128798
0.113683
0.10145
0.0908214
0.0818936
0.0740786
0.0673605
0.0614287
0.0562157
0.051525
0.0473659
0.043804
0.0409558
0.376922
0.343639
0.276724
0.237045
0.19849
0.171969
0.148619
0.130806
0.115411
0.102944
0.0921357
0.0830579
0.0751211
0.0682988
0.0622786
0.0569918
0.0522459
0.0480442
0.044428
0.0414848
0.392009
0.351411
0.282947
0.241277
0.201922
0.174637
0.150848
0.13266
0.117005
0.104322
0.093348
0.0841313
0.0760821
0.0691635
0.0630618
0.0577073
0.0529107
0.0486696
0.0450019
0.0419685
0.405901
0.358564
0.288663
0.245164
0.20507
0.177082
0.15289
0.134357
0.118464
0.105582
0.0944563
0.0851123
0.0769601
0.0699535
0.0637772
0.0583609
0.0535185
0.0492413
0.0455251
0.0424073
0.418548
0.365073
0.293855
0.248694
0.207926
0.179299
0.15474
0.135894
0.119785
0.106722
0.0954589
0.0859996
0.077754
0.0706675
0.0644239
0.058952
0.0540684
0.0497584
0.0459971
0.0428013
0.429905
0.370916
0.29851
0.251859
0.210483
0.181283
0.156395
0.137269
0.120965
0.107741
0.0963542
0.0867917
0.0784627
0.0713048
0.0650009
0.0594795
0.0545594
0.05022
0.0464177
0.0431507
0.439932
0.376074
0.302614
0.254648
0.212735
0.18303
0.157851
0.138477
0.122003
0.108637
0.0971409
0.0874875
0.079085
0.0718644
0.0655076
0.0599428
0.0549907
0.0506256
0.0467863
0.0434558
0.448592
0.38053
0.306154
0.257055
0.214677
0.184536
0.159106
0.139519
0.122896
0.109407
0.0978176
0.088086
0.0796202
0.0723455
0.0659432
0.0603411
0.0553618
0.0509743
0.0471029
0.0437169
0.455855
0.384267
0.309122
0.259072
0.216304
0.185797
0.160156
0.14039
0.123644
0.110052
0.0983834
0.0885862
0.0800674
0.0727475
0.0663072
0.060674
0.0556719
0.0512658
0.047367
0.043934
0.461695
0.387274
0.311508
0.260695
0.217611
0.186811
0.161
0.141089
0.124244
0.110569
0.0988373
0.0889874
0.0804261
0.0730698
0.066599
0.0609409
0.0559207
0.0514996
0.0475786
0.0441076
0.466092
0.38954
0.313305
0.261918
0.218597
0.187575
0.161635
0.141616
0.124695
0.110958
0.0991786
0.0892891
0.0806956
0.073312
0.0668182
0.0611415
0.0561076
0.0516752
0.0477375
0.0442377
0.469028
0.391057
0.314508
0.262738
0.219257
0.188087
0.162061
0.141969
0.124997
0.111218
0.0994068
0.0894906
0.0808756
0.0734737
0.0669646
0.0612754
0.0562324
0.0517925
0.0478435
0.0443246
0.470495
0.391821
0.315115
0.263153
0.219591
0.188346
0.162276
0.142147
0.125149
0.111349
0.0995215
0.0895918
0.0809659
0.0735548
0.0670379
0.0613425
0.0562949
0.0518512
0.0478966
0.0443682
0.470487
0.391829
0.315123
0.263162
0.219598
0.188352
0.16228
0.142151
0.125152
0.11135
0.0995225
0.0895924
0.0809663
0.073555
0.067038
0.0613426
0.056295
0.0518512
0.0478967
0.0443687
0.469004
0.391081
0.314532
0.262765
0.219278
0.188105
0.162074
0.141979
0.125004
0.111223
0.0994098
0.0894925
0.0808767
0.0734744
0.0669651
0.0612758
0.0562327
0.0517926
0.047844
0.0443261
0.466051
0.389579
0.313345
0.261963
0.218632
0.187605
0.161657
0.141633
0.124706
0.110965
0.0991835
0.0892923
0.0806974
0.0733132
0.066819
0.0611422
0.0561081
0.0516754
0.0477383
0.0442403
0.46164
0.38733
0.311563
0.260758
0.217661
0.186853
0.16103
0.141112
0.124259
0.11058
0.0988441
0.0889918
0.0804285
0.0730714
0.0666001
0.0609419
0.0559213
0.0514999
0.0475798
0.0441112
0.455785
0.38434
0.309194
0.259154
0.216368
0.185851
0.160195
0.140419
0.123663
0.110065
0.0983919
0.0885917
0.0800705
0.0727495
0.0663085
0.0606753
0.0556727
0.0512662
0.0473686
0.0439387
0.448509
0.38062
0.306243
0.257155
0.214755
0.184602
0.159153
0.139554
0.12292
0.109424
0.0978278
0.0880926
0.0796238
0.0723478
0.0659448
0.0603426
0.0553627
0.0509749
0.0471048
0.0437225
0.439836
0.376182
0.302719
0.254766
0.212828
0.183108
0.157907
0.138519
0.122031
0.108656
0.0971526
0.087495
0.079089
0.0718669
0.0655093
0.0599444
0.0549918
0.0506262
0.0467886
0.0434624
0.429799
0.371042
0.298632
0.251995
0.21059
0.181372
0.156459
0.137317
0.120997
0.107763
0.0963673
0.0867999
0.078467
0.0713075
0.0650027
0.0594813
0.0545605
0.0502208
0.0464202
0.0431582
0.418432
0.365218
0.293995
0.248849
0.208046
0.1794
0.154812
0.135948
0.11982
0.106747
0.0954731
0.0860084
0.0777585
0.0706702
0.0644256
0.0589538
0.0540696
0.0497593
0.046
0.0428097
0.405778
0.358728
0.28882
0.245338
0.205205
0.177194
0.152969
0.134416
0.118503
0.105608
0.0944715
0.0851216
0.0769646
0.069956
0.0637788
0.0583628
0.0535199
0.0492424
0.0455283
0.0424165
0.391882
0.351596
0.283123
0.24147
0.202071
0.17476
0.150935
0.132724
0.117047
0.10435
0.093364
0.0841408
0.0760864
0.0691658
0.0630632
0.0577091
0.0529121
0.0486708
0.0450055
0.0419786
0.376793
0.343846
0.276919
0.237257
0.198652
0.172104
0.148713
0.130875
0.115455
0.102973
0.0921522
0.0830673
0.0751251
0.0683007
0.0622796
0.0569935
0.0522472
0.0480455
0.044432
0.0414956
0.360566
0.335504
0.270227
0.232709
0.194958
0.169231
0.146308
0.128872
0.11373
0.101481
0.090838
0.0819028
0.074082
0.0673619
0.0614292
0.0562171
0.0515263
0.0473674
0.0438084
0.0409675
0.34326
0.326599
0.263065
0.227841
0.190996
0.166148
0.143724
0.12672
0.111875
0.0998751
0.0894233
0.0806489
0.0729585
0.0663504
0.060513
0.0553809
0.0507505
0.0466375
0.0431352
0.0403941
0.324938
0.317161
0.255454
0.222665
0.186776
0.162862
0.140968
0.124421
0.109892
0.0981584
0.0879104
0.0793073
0.0717563
0.0652677
0.0595323
0.0544862
0.049921
0.045857
0.0424131
0.0397754
0.305665
0.307221
0.247415
0.217195
0.182308
0.15938
0.138043
0.121981
0.107787
0.0963335
0.0863013
0.07788
0.0704768
0.0641152
0.0584882
0.0535341
0.0490389
0.045027
0.0416429
0.0391113
0.285514
0.296813
0.238971
0.211445
0.177602
0.155709
0.134957
0.119403
0.10556
0.0944033
0.0845985
0.076369
0.0691218
0.0628944
0.0573822
0.0525259
0.0481058
0.0441489
0.0408253
0.0384019
0.264558
0.285971
0.230146
0.205433
0.172669
0.151857
0.131715
0.116693
0.103218
0.0923707
0.0828045
0.0747763
0.0676931
0.0616067
0.0562156
0.0514631
0.0471231
0.043224
0.0399615
0.0376473
0.242873
0.274732
0.220964
0.199172
0.167521
0.147833
0.128323
0.113854
0.100763
0.0902387
0.0809218
0.0731041
0.0661925
0.0602538
0.0549898
0.0503471
0.0460922
0.042254
0.0390525
0.0368479
0.220542
0.263133
0.211451
0.192681
0.162168
0.143645
0.124787
0.110893
0.0981985
0.0880107
0.078953
0.0713547
0.064622
0.0588373
0.0537065
0.0491794
0.045015
0.0412403
0.0380994
0.0360039
0.197646
0.251211
0.201631
0.185976
0.156624
0.139302
0.121115
0.107814
0.0955299
0.0856899
0.076901
0.0695303
0.0629836
0.0573589
0.052367
0.0479617
0.0438931
0.0401849
0.0371037
0.035116
0.174271
0.239005
0.191534
0.179075
0.150899
0.134812
0.117313
0.104622
0.0927609
0.0832796
0.0747686
0.0676335
0.0612794
0.0558204
0.0509728
0.0466956
0.0427287
0.0390897
0.0360667
0.0341848
0.150506
0.226556
0.181185
0.171996
0.145007
0.130186
0.113387
0.101323
0.0898958
0.0807835
0.0725586
0.0656666
0.0595115
0.0542234
0.0495253
0.0453827
0.0415241
0.0379571
0.0349903
0.0332114
0.12644
0.213901
0.170612
0.164756
0.13896
0.125431
0.109346
0.0979221
0.0869389
0.0782049
0.070274
0.0636322
0.0576822
0.05257
0.0480259
0.0440244
0.0402817
0.0367898
0.0338757
0.0321966
0.102164
0.201082
0.159843
0.157374
0.13277
0.120559
0.105196
0.0944249
0.0838947
0.0755476
0.0679177
0.0615328
0.0557937
0.0508619
0.0464759
0.0426219
0.0390041
0.0355917
0.032725
0.0311418
0.0777719
0.188138
0.148907
0.149868
0.126451
0.115577
0.100944
0.090837
0.0807678
0.0728152
0.0654929
0.0593708
0.0538484
0.0491014
0.0448765
0.0411758
0.0376942
0.0343678
0.0315398
0.0300459
0.0533567
0.175108
0.137832
0.142257
0.120015
0.110496
0.0965971
0.0871639
0.0775625