/*--------------------------------*- C++ -*----------------------------------*\
  =========                 |
  \\      /  F ield         | OpenFOAM: The Open Source CFD Toolbox
   \\    /   O peration     | Website:  https://openfoam.org
    \\  /    A nd           | Version:  7
     \\/     M anipulation  |
\*---------------------------------------------------------------------------*/
FoamFile
{
    version     2.0;
    format      ascii;
    class       volScalarField;
    location    "132";
    object      p;
}
// * * * * * * * * * * * * * * * * * * * * * * * * * * * * * * * * * * * * * //

dimensions      [0 2 -2 0 0 0 0];

internalField   nonuniform List<scalar> 
41600
(
-0.470294
-0.474351
-0.521327
-0.556611
-0.564566
-0.516003
-0.439691
-0.361118
-0.300306
-0.261991
-0.246265
-0.244844
-0.245017
-0.23148
-0.205002
-0.176252
-0.153316
-0.140532
-0.1366
-0.142156
-0.154297
-0.161116
-0.153178
-0.13434
-0.118664
-0.474054
-0.477141
-0.527547
-0.56743
-0.579213
-0.530248
-0.450313
-0.366545
-0.300168
-0.256205
-0.234552
-0.22783
-0.225691
-0.214655
-0.192694
-0.168819
-0.150601
-0.141875
-0.141463
-0.151177
-0.167211
-0.175027
-0.164936
-0.141515
-0.121025
-0.477623
-0.47968
-0.53332
-0.577525
-0.592728
-0.543142
-0.459524
-0.37072
-0.299052
-0.249798
-0.222725
-0.211158
-0.206348
-0.197058
-0.179147
-0.160186
-0.146891
-0.14228
-0.145534
-0.159595
-0.179256
-0.187457
-0.174806
-0.147253
-0.122294
-0.480974
-0.481928
-0.538592
-0.586747
-0.605062
-0.554619
-0.467313
-0.373702
-0.297097
-0.242932
-0.210947
-0.195009
-0.18728
-0.178962
-0.164607
-0.150533
-0.142215
-0.14164
-0.148595
-0.1672
-0.190183
-0.198205
-0.182457
-0.151272
-0.122413
-0.484083
-0.483847
-0.543321
-0.595029
-0.616142
-0.564625
-0.473683
-0.375556
-0.294431
-0.235773
-0.199371
-0.179521
-0.168756
-0.160639
-0.149382
-0.140084
-0.136625
-0.139866
-0.150439
-0.173761
-0.199763
-0.207058
-0.187695
-0.153366
-0.12136
-0.486933
-0.48542
-0.547451
-0.602325
-0.625903
-0.573119
-0.478651
-0.376357
-0.291176
-0.228484
-0.18814
-0.164811
-0.151047
-0.142522
-0.133851
-0.1291
-0.130198
-0.136889
-0.150876
-0.178917
-0.207625
-0.213725
-0.190385
-0.153403
-0.119141
-0.489468
-0.486664
-0.550928
-0.608589
-0.634294
-0.580075
-0.482243
-0.376181
-0.287438
-0.221217
-0.177382
-0.150982
-0.134422
-0.125
-0.118436
-0.117861
-0.123029
-0.132652
-0.149728
-0.182139
-0.213195
-0.217691
-0.1904
-0.151341
-0.115781
-0.491717
-0.487495
-0.553752
-0.613774
-0.641283
-0.585479
-0.484501
-0.375112
-0.283316
-0.214103
-0.16721
-0.138116
-0.119116
-0.108482
-0.103557
-0.106633
-0.115214
-0.127102
-0.14682
-0.182861
-0.215841
-0.218409
-0.18766
-0.147239
-0.111333
-0.493675
-0.487903
-0.555901
-0.617847
-0.64685
-0.589338
-0.485476
-0.373234
-0.278901
-0.207247
-0.15772
-0.126277
-0.105281
-0.0933252
-0.0895669
-0.0956337
-0.106832
-0.120179
-0.141994
-0.180699
-0.215105
-0.215543
-0.182204
-0.141268
-0.105895
-0.495334
-0.487897
-0.557356
-0.620786
-0.650993
-0.591669
-0.485229
-0.370632
-0.274277
-0.200721
-0.148986
-0.115505
-0.0929577
-0.0797622
-0.0766977
-0.085002
-0.0979202
-0.111815
-0.135105
-0.175551
-0.210815
-0.209072
-0.174226
-0.133701
-0.099623
-0.496695
-0.48748
-0.558109
-0.622583
-0.653722
-0.592508
-0.48383
-0.367391
-0.269523
-0.194567
-0.141063
-0.105817
-0.0820814
-0.0678614
-0.0650354
-0.0747732
-0.0884535
-0.101941
-0.126014
-0.167533
-0.202946
-0.199232
-0.164058
-0.124893
-0.0927261
-0.497765
-0.486658
-0.558161
-0.623244
-0.655063
-0.591905
-0.481358
-0.363593
-0.26471
-0.188808
-0.133977
-0.0972123
-0.0725245
-0.0575294
-0.0545261
-0.0648667
-0.0783317
-0.0904994
-0.114621
-0.156905
-0.191808
-0.186439
-0.152135
-0.115241
-0.0854435
-0.498557
-0.485442
-0.557523
-0.62279
-0.655055
-0.589924
-0.477897
-0.359317
-0.2599
-0.183455
-0.12772
-0.0896682
-0.06414
-0.0485413
-0.0450059
-0.0550796
-0.0673713
-0.0774657
-0.100981
-0.144043
-0.177747
-0.171259
-0.138967
-0.105145
-0.0780215
-0.499085
-0.483847
-0.55621
-0.621256
-0.653748
-0.586642
-0.473537
-0.354641
-0.255144
-0.178514
-0.122255
-0.0831472
-0.0567957
-0.0406031
-0.0362282
-0.0450933
-0.0553116
-0.0628658
-0.0854662
-0.129485
-0.161354
-0.154411
-0.125107
-0.0949634
-0.0706887
-0.499367
-0.481898
-0.554246
-0.618694
-0.651205
-0.582147
-0.468372
-0.349637
-0.250482
-0.173989
-0.117525
-0.0775993
-0.0503908
-0.0334336
-0.0278839
-0.0349463
-0.0418743
-0.0468283
-0.0688457
-0.113863
-0.143365
-0.136706
-0.111109
-0.0849984
-0.0636324
-0.499423
-0.47962
-0.551659
-0.615171
-0.647492
-0.576537
-0.462497
-0.344374
-0.245947
-0.16988
-0.113464
-0.0729624
-0.0448622
-0.0268497
-0.0196285
-0.0234382
-0.0269013
-0.0297142
-0.0521986
-0.0973254
-0.124587
-0.118954
-0.0974827
-0.0754898
-0.0569869
-0.499277
-0.477045
-0.548483
-0.610773
-0.642682
-0.569917
-0.456008
-0.338915
-0.241562
-0.166183
-0.110013
-0.0691627
-0.040183
-0.0208234
-0.0113098
-0.0109529
-0.0107284
-0.0123401
-0.036723
-0.0813997
-0.105892
-0.101873
-0.0846467
-0.066615
-0.0508385
-0.49895
-0.474209
-0.544756
-0.6056
-0.636853
-0.562397
-0.448999
-0.333319
-0.237343
-0.162883
-0.107124
-0.0661194
-0.0363487
-0.0154725
-0.00311478
0.00197769
0.00555828
0.00389671
-0.0233078
-0.0661318
-0.0880446
-0.0860322
-0.0728999
-0.0584926
-0.045232
-0.498467
-0.471152
-0.540519
-0.599768
-0.630083
-0.554092
-0.441564
-0.327639
-0.233304
-0.15996
-0.104758
-0.0637548
-0.0333507
-0.0109906
0.00438174
0.0140856
0.0201846
0.0173459
-0.0122984
-0.0519441
-0.0716846
-0.0718248
-0.062413
-0.0511874
-0.0401761
-0.497852
-0.467916
-0.535818
-0.593404
-0.62245
-0.545115
-0.43379
-0.321921
-0.229453
-0.157391
-0.102877
-0.0620035
-0.0311577
-0.00754398
0.0104588
0.0238198
0.0314254
0.0268911
-0.0035628
-0.0392052
-0.0572705
-0.0594638
-0.0532414
-0.0447154
-0.0356549
-0.497129
-0.464548
-0.530702
-0.586644
-0.614035
-0.535579
-0.425762
-0.316208
-0.225794
-0.155148
-0.101439
-0.0608124
-0.0297171
-0.00520157
0.0146412
0.0302278
0.0383954
0.0323792
0.00321939
-0.0282454
-0.0450546
-0.048992
-0.0453518
-0.039051
-0.0316414
-0.496323
-0.461093
-0.52522
-0.579624
-0.60492
-0.525592
-0.417559
-0.310534
-0.222326
-0.153207
-0.100403
-0.0601341
-0.028968
-0.00393348
0.016857
0.0333154
0.041465
0.0346904
0.0082529
-0.0193033
-0.0350763
-0.0403134
-0.0386517
-0.03414
-0.0281047
-0.495459
-0.457598
-0.51943
-0.572474
-0.59519
-0.51526
-0.409254
-0.30493
-0.219047
-0.15154
-0.099725
-0.0599203
-0.0288477
-0.00364522
0.0173479
0.0337594
0.041569
0.0347325
0.0116282
-0.0124287
-0.0271813
-0.0332397
-0.0330178
-0.0299144
-0.0250117
-0.494561
-0.454108
-0.513394
-0.565303
-0.584936
-0.504678
-0.400912
-0.299421
-0.215951
-0.15012
-0.0993635
-0.0601197
-0.0292896
-0.00420648
0.0164992
0.0323724
0.0396823
0.0332684
0.0134854
-0.00744904
-0.0210899
-0.0275443
-0.028318
-0.0263029
-0.0223276
-0.493656
-0.450663
-0.507183
-0.558196
-0.574253
-0.493937
-0.392591
-0.294029
-0.21303
-0.148921
-0.0992778
-0.0606789
-0.0302209
-0.00547125
0.0146796
0.0297939
0.0365631
0.0308357
0.0140832
-0.00404913
-0.0164848
-0.0230049
-0.0244266
-0.0232364
-0.0200161
-0.492775
-0.447299
-0.50088
-0.551196
-0.56324
-0.483118
-0.384343
-0.288769
-0.210276
-0.147917
-0.0994293
-0.0615451
-0.0315651
-0.00729498
0.0121775
0.0264615
0.0327324
0.0278112
0.0137301
-0.00189054
-0.0130747
-0.0194245
-0.0212302
-0.0206513
-0.0180413
-0.491949
-0.444041
-0.494584
-0.54431
-0.551998
-0.472294
-0.37621
-0.283653
-0.207678
-0.147082
-0.0997809
-0.062667
-0.0332462
-0.00954714
0.00920358
0.0226703
0.0285296
0.0244542
0.0127
-0.000680436
-0.0106165
-0.0166366
-0.0186285
-0.0184893
-0.0163683
-0.491219
-0.440905
-0.48841
-0.537503
-0.540626
-0.461531
-0.368229
-0.278691
-0.205225
-0.146392
-0.100298
-0.0639962
-0.0351929
-0.0121161
0.00591386
0.0186231
0.0241709
0.0209379
0.0112046
-0.000186261
-0.00891447
-0.0145024
-0.0165341
-0.0166985
-0.0149638
-0.490628
-0.437897
-0.482487
-0.530716
-0.529219
-0.450885
-0.360427
-0.273886
-0.202905
-0.145825
-0.100948
-0.0654876
-0.0373409
-0.0149085
0.00242702
0.0144622
0.0197952
0.0173771
0.00939935
-0.000228245
-0.00781205
-0.0129064
-0.0148711
-0.0152321
-0.0137959
-0.490227
-0.435017
-0.47696
-0.523877
-0.517861
-0.440406
-0.352829
-0.269242
-0.200708
-0.145359
-0.1017
-0.0671
-0.0396329
-0.0178472
-0.00116514
0.0102876
0.0154911
0.0138475
0.00739717
-0.000668278
-0.00718442
-0.0117529
-0.013574
-0.0140488
-0.0128351
-0.490068
-0.43226
-0.471971
-0.516922
-0.506625
-0.430136
-0.345451
-0.264758
-0.198622
-0.144974
-0.102529
-0.0687967
-0.0420193
-0.0208686
-0.00479144
0.00616909
0.0113148
0.0103982
0.00527983
-0.00140037
-0.0069318
-0.010962
-0.0125867
-0.0131115
-0.0120538
-0.490202
-0.429622
-0.46765
-0.509811
-0.495571
-0.42011
-0.338305
-0.260433
-0.196635
-0.144653
-0.103408
-0.0705447
-0.0444572
-0.0239209
-0.00839692
0.00215476
0.00730044
0.00706057
0.00310668
-0.00234316
-0.00697432
-0.0104671
-0.011861
-0.0123876
-0.0114277
-0.490671
-0.427103
-0.46409
-0.502535
-0.484747
-0.410356
-0.331397
-0.256262
-0.194736
-0.144379
-0.104317
-0.0723153
-0.04691
-0.0269621
-0.0119396
-0.0017229
0.00346789
0.00385353
0.000920916
-0.00343428
-0.00724789
-0.010212
-0.0113556
-0.0118479
-0.0109357
-0.491499
-0.424709
-0.461329
-0.495117
-0.47419
-0.400897
-0.324733
-0.25224
-0.192914
-0.144137
-0.105235
-0.0740835
-0.0493473
-0.0299584
-0.015388
-0.00544264
-0.000172814
0.000787795
-0.00124595
-0.004626
-0.0077009
-0.0101495
-0.0110351
-0.0114655
-0.0105577
-0.492683
-0.422455
-0.459337
-0.487605
-0.463926
-0.391748
-0.31831
-0.248361
-0.191159
-0.143913
-0.106145
-0.075828
-0.0517434
-0.032883
-0.0187186
-0.00899129
-0.00361804
-0.00213149
-0.00337093
-0.00588206
-0.00829137
-0.0102397
-0.0108707
-0.0112144
-0.01027
-0.494191
-0.420365
-0.458009
-0.480063
-0.45397
-0.382917
-0.312128
-0.244617
-0.189462
-0.143695
-0.107033
-0.0775305
-0.0540776
-0.0357152
-0.0219147
-0.0123615
-0.00686845
-0.0049028
-0.00543739
-0.00717511
-0.00898449
-0.0104504
-0.0108404
-0.0110678
-0.0100427
-0.495961
-0.418476
-0.457177
-0.472554
-0.444335
-0.374409
-0.306181
-0.241002
-0.187814
-0.143473
-0.107887
-0.0791759
-0.0563328
-0.0384387
-0.0249648
-0.01555
-0.00992748
-0.00752693
-0.00743359
-0.0084844
-0.00975081
-0.0107566
-0.0109281
-0.0109986
-0.00984716
-0.497903
-0.41684
-0.456631
-0.465135
-0.435024
-0.366225
-0.300463
-0.237506
-0.186206
-0.143238
-0.108694
-0.0807516
-0.0584957
-0.0410415
-0.0278614
-0.0185566
-0.0128004
-0.010006
-0.00935166
-0.00979379
-0.0105653
-0.0111411
-0.0111187
-0.0109837
-0.00968029
-0.499911
-0.415529
-0.45615
-0.457851
-0.426039
-0.358358
-0.294965
-0.234121
-0.18463
-0.142981
-0.109447
-0.0822475
-0.0605558
-0.0435151
-0.0306001
-0.021383
-0.0154933
-0.0123432
-0.0111868
-0.0110901
-0.0114078
-0.0115916
-0.0113915
-0.011012
-0.00959118
-0.501878
-0.414635
-0.455535
-0.450734
-0.417376
-0.350802
-0.289678
-0.230841
-0.183079
-0.142696
-0.110137
-0.0836553
-0.0625052
-0.0458533
-0.033179
-0.0240328
-0.0180132
-0.0145419
-0.0129363
-0.0123624
-0.012263
-0.0120972
-0.0117188
-0.0110885
-0.00967108
-0.503704
-0.414265
-0.45463
-0.443802
-0.409034
-0.343546
-0.284593
-0.227655
-0.181547
-0.142376
-0.110758
-0.0849686
-0.064338
-0.0480525
-0.0355982
-0.02651
-0.0203668
-0.0166062
-0.014599
-0.0136014
-0.0131203
-0.012645
-0.0120773
-0.0112273
-0.00998521
-0.50531
-0.414536
-0.453338
-0.437067
-0.401005
-0.336579
-0.279697
-0.224555
-0.180028
-0.142016
-0.111306
-0.0861825
-0.06605
-0.0501104
-0.0378587
-0.0288197
-0.0225611
-0.0185402
-0.0161746
-0.0147999
-0.0139716
-0.0132204
-0.0124607
-0.0114566
-0.0103225
-0.506637
-0.415561
-0.451619
-0.43053
-0.393283
-0.329886
-0.274981
-0.221535
-0.178514
-0.141612
-0.111776
-0.0872935
-0.0676386
-0.0520265
-0.0399631
-0.0309672
-0.0246026
-0.0203484
-0.0176632
-0.0159524
-0.0148099
-0.0138102
-0.0128672
-0.0117514
-0.0106033
-0.507648
-0.417431
-0.449484
-0.424187
-0.38586
-0.323455
-0.270431
-0.218586
-0.177003
-0.14116
-0.112165
-0.0882991
-0.0691027
-0.0538015
-0.0419145
-0.0329581
-0.0264978
-0.0220351
-0.0190654
-0.0170548
-0.015629
-0.0144043
-0.0132906
-0.0120771
-0.0108746
-0.508324
-0.4202
-0.446982
-0.41803
-0.378727
-0.317269
-0.266038
-0.215701
-0.175488
-0.140657
-0.112472
-0.089198
-0.0704419
-0.0554367
-0.0437166
-0.0347981
-0.0282529
-0.0236046
-0.0203821
-0.0181042
-0.0164236
-0.0149943
-0.0137232
-0.0124182
-0.0111386
-0.508654
-0.423872
-0.444184
-0.412046
-0.371873
-0.311314
-0.261788
-0.212872
-0.173966
-0.140101
-0.112695
-0.0899895
-0.0716566
-0.0569343
-0.0453735
-0.0364929
-0.0298736
-0.025061
-0.0216146
-0.0190983
-0.0171888
-0.0155738
-0.0141577
-0.0127602
-0.0114074
-0.508635
-0.428393
-0.441167
-0.406223
-0.365288
-0.305575
-0.257672
-0.210094
-0.172433
-0.139489
-0.112832
-0.0906736
-0.0727481
-0.058297
-0.0468893
-0.038048
-0.0313656
-0.0264083
-0.0227641
-0.0200358
-0.0179209
-0.0161372
-0.0145871
-0.0130993
-0.0116768
-0.508263
-0.433642
-0.438009
-0.400542
-0.358959
-0.300036
-0.253678
-0.207359
-0.170885
-0.138821
-0.112884
-0.091251
-0.073718
-0.0595278
-0.0482686
-0.0394687
-0.032734
-0.0276504
-0.0238321
-0.0209155
-0.0186166
-0.0166802
-0.0150063
-0.0134304
-0.0119442
-0.507538
-0.439435
-0.434776
-0.394986
-0.352871
-0.294684
-0.249795
-0.204661
-0.169319
-0.138094
-0.11285
-0.0917226
-0.0745685
-0.0606301
-0.0495158
-0.0407603
-0.033984
-0.028791
-0.0248202
-0.0217367
-0.0192735
-0.017199
-0.0154107
-0.0137512
-0.0122059
-0.506458
-0.44554
-0.431524
-0.389536
-0.347009
-0.289504
-0.246012
-0.201996
-0.167733
-0.137308
-0.112731
-0.0920899
-0.075302
-0.0616072
-0.0506355
-0.0419278
-0.0351201
-0.0298336
-0.0257299
-0.0224992
-0.0198896
-0.0176907
-0.015797
-0.0140589
-0.0124583
-0.505032
-0.451681
-0.428292
-0.384174
-0.34136
-0.284481
-0.242321
-0.199356
-0.166123
-0.136463
-0.112527
-0.0923545
-0.0759211
-0.062463
-0.051632
-0.0429761
-0.0361468
-0.0307816
-0.0265629
-0.0232028
-0.0204633
-0.0181527
-0.0161623
-0.0143514
-0.0126994
-0.503279
-0.45757
-0.425107
-0.378882
-0.335905
-0.279602
-0.23871
-0.196737
-0.164487
-0.135557
-0.112239
-0.0925183
-0.0764285
-0.0632009
-0.0525096
-0.0439097
-0.0370684
-0.0316381
-0.027321
-0.0238477
-0.0209936
-0.0185829
-0.0165044
-0.0146265
-0.0129266
-0.501234
-0.462923
-0.421979
-0.373644
-0.33063
-0.274855
-0.235172
-0.194134
-0.162824
-0.134591
-0.111869
-0.0925832
-0.0768273
-0.0638247
-0.0532727
-0.044733
-0.0378887
-0.0324061
-0.0280058
-0.0244342
-0.0214795
-0.0189798
-0.0168214
-0.0148826
-0.0131385
-0.498954
-0.467485
-0.418913
-0.368448
-0.325519
-0.270226
-0.231696
-0.191542
-0.16113
-0.133564
-0.111417
-0.0925516
-0.0771204
-0.064338
-0.0539253
-0.0454503
-0.0386117
-0.0330887
-0.0286189
-0.0249629
-0.0219205
-0.0193421
-0.0171116
-0.0151181
-0.0133332
-0.49652
-0.471057
-0.415901
-0.363281
-0.320555
-0.265704
-0.228276
-0.188957
-0.159404
-0.132477
-0.110885
-0.0924256
-0.0773107
-0.0647445
-0.0544714
-0.0460655
-0.0392407
-0.0336886
-0.0291621
-0.0254342
-0.0223163
-0.0196686
-0.017374
-0.0153317
-0.0135096
-0.494033
-0.473506
-0.412934
-0.358137
-0.315723
-0.261278
-0.224903
-0.186374
-0.157645
-0.131329
-0.110274
-0.0922074
-0.0774013
-0.0650476
-0.0549149
-0.0465824
-0.0397794
-0.0342083
-0.0296369
-0.025849
-0.0226667
-0.0199588
-0.0176073
-0.0155221
-0.0136664
-0.491614
-0.474773
-0.409999
-0.35301
-0.311008
-0.256938
-0.22157
-0.183791
-0.155851
-0.130122
-0.109585
-0.0918994
-0.0773952
-0.0652509
-0.0552593
-0.0470047
-0.0402308
-0.0346506
-0.0300451
-0.026208
-0.0229716
-0.0202119
-0.0178108
-0.0156884
-0.0138025
-0.489392
-0.474873
-0.407085
-0.347895
-0.306398
-0.252673
-0.21827
-0.181203
-0.154021
-0.128854
-0.10882
-0.091504
-0.0772951
-0.0653575
-0.0555083
-0.0473358
-0.0405981
-0.0350177
-0.0303883
-0.0265121
-0.0232313
-0.0204276
-0.0179838
-0.0158298
-0.013917
-0.487501
-0.473883
-0.404182
-0.342793
-0.301879
-0.248474
-0.214996
-0.178606
-0.152153
-0.127528
-0.10798
-0.0910232
-0.0771041
-0.0653709
-0.0556653
-0.047579
-0.0408841
-0.0353121
-0.030668
-0.0267622
-0.0234459
-0.0206056
-0.0181259
-0.0159455
-0.0140092
-0.486064
-0.471926
-0.40128
-0.337702
-0.297439
-0.244331
-0.211742
-0.175998
-0.150246
-0.126142
-0.107067
-0.0904595
-0.0768248
-0.0652941
-0.0557334
-0.0477374
-0.0410917
-0.0355359
-0.0308859
-0.0269592
-0.0236158
-0.0207459
-0.0182366
-0.0160349
-0.0140784
-0.48519
-0.469153
-0.398374
-0.332623
-0.293067
-0.240238
-0.208503
-0.173376
-0.1483
-0.124697
-0.106082
-0.089815
-0.0764601
-0.0651301
-0.0557159
-0.0478141
-0.0412235
-0.0356913
-0.0310435
-0.0271041
-0.0237414
-0.0208485
-0.0183158
-0.0160975
-0.014124
-0.484964
-0.465722
-0.395457
-0.327558
-0.288752
-0.236185
-0.205273
-0.170736
-0.146312
-0.123195
-0.105027
-0.0890919
-0.0760124
-0.0648819
-0.0556157
-0.0478118
-0.041282
-0.0357804
-0.0311423
-0.0271979
-0.0238231
-0.0209136
-0.0183633
-0.016133
-0.0141456
-0.485449
-0.461785
-0.392528
-0.322507
-0.284484
-0.232167
-0.202047
-0.168076
-0.144283
-0.121635
-0.103902
-0.0882923
-0.0754844
-0.0645522
-0.0554357
-0.0477333
-0.0412698
-0.0358052
-0.0311839
-0.0272416
-0.0238615
-0.0209412
-0.018379
-0.0161411
-0.0141428
-0.486678
-0.45748
-0.389583
-0.317472
-0.280255
-0.228174
-0.19882
-0.165394
-0.142211
-0.120017
-0.10271
-0.0874183
-0.0748785
-0.0641437
-0.0551786
-0.0475813
-0.041189
-0.0357677
-0.0311696
-0.0272363
-0.0238573
-0.0209317
-0.018363
-0.0161216
-0.0141153
-0.488663
-0.452921
-0.386618
-0.312451
-0.276055
-0.224202
-0.195588
-0.162686
-0.140095
-0.118344
-0.101452
-0.0864718
-0.0741971
-0.0636591
-0.054847
-0.0473581
-0.041042
-0.0356696
-0.031101
-0.027183
-0.0238109
-0.0208855
-0.0183154
-0.0160743
-0.014063
-0.491391
-0.448199
-0.383631
-0.307444
-0.271875
-0.220243
-0.192346
-0.159952
-0.137936
-0.116614
-0.100129
-0.0854548
-0.0734424
-0.0631009
-0.0544434
-0.0470663
-0.0408309
-0.0355128
-0.0309796
-0.0270827
-0.0237231
-0.020803
-0.0182363
-0.0159992
-0.0139858
-0.494833
-0.443385
-0.380616
-0.30245
-0.267709
-0.216293
-0.18909
-0.157188
-0.135732
-0.114828
-0.0987418
-0.0843691
-0.0726168
-0.0624713
-0.0539703
-0.0467081
-0.0405578
-0.035299
-0.0308066
-0.0269365
-0.0235946
-0.0206846
-0.0181261
-0.0158964
-0.0138836
-0.498943
-0.438527
-0.37757
-0.297466
-0.263549
-0.212344
-0.185817
-0.154393
-0.133482
-0.112988
-0.0972925
-0.0832166
-0.0717223
-0.0617728
-0.05343
-0.0462856
-0.0402245
-0.0350299
-0.0305835
-0.0267454
-0.0234262
-0.0205309
-0.0179849
-0.015766
-0.0137567
-0.503664
-0.433661
-0.374485
-0.29249
-0.259386
-0.208393
-0.182524
-0.151565
-0.131187
-0.111093
-0.0957821
-0.0819991
-0.0707609
-0.0610076
-0.0528246
-0.0458012
-0.0398332
-0.0347073
-0.0303117
-0.0265105
-0.0232186
-0.0203424
-0.0178132
-0.015608
-0.0136052
-0.508928
-0.428805
-0.371354
-0.287516
-0.255216
-0.204433
-0.179206
-0.148703
-0.128845
-0.109144
-0.0942117
-0.0807183
-0.0697348
-0.0601777
-0.0521564
-0.0452567
-0.0393856
-0.0343326
-0.0299925
-0.0262328
-0.0229725
-0.0201197
-0.0176111
-0.0154227
-0.0134293
-0.514661
-0.42397
-0.36817
-0.282541
-0.251029
-0.200459
-0.17586
-0.145803
-0.126457
-0.107142
-0.0925826
-0.0793758
-0.0686457
-0.0592854
-0.0514275
-0.0446541
-0.0388836
-0.0339076
-0.0296271
-0.0259133
-0.0226889
-0.0198634
-0.0173793
-0.0152104
-0.0132292
-0.520783
-0.419159
-0.364922
-0.27756
-0.246822
-0.196468
-0.172485
-0.142866
-0.124023
-0.105087
-0.0908959
-0.0779733
-0.0674956
-0.0583325
-0.0506397
-0.0439955
-0.0383287
-0.0334335
-0.0292169
-0.0255532
-0.0223684
-0.0195741
-0.017118
-0.0149713
-0.0130052
-0.527211
-0.414367
-0.361601
-0.272566
-0.242586
-0.192455
-0.169076
-0.139889
-0.12154
-0.10298
-0.0891528
-0.0765123
-0.0662863
-0.057321
-0.0497951
-0.0432826
-0.0377229
-0.0329121
-0.0287632
-0.0251534
-0.022012
-0.0192525
-0.0168278
-0.0147059
-0.0127576
-0.533859
-0.409584
-0.358196
-0.267554
-0.238316
-0.188415
-0.165632
-0.136872
-0.119011
-0.10082
-0.0873545
-0.0749944
-0.0650195
-0.0562527
-0.0488955
-0.0425171
-0.0370676
-0.0323448
-0.0282673
-0.024715
-0.0216205
-0.0188993
-0.0165091
-0.0144145
-0.0124868
-0.540641
-0.404799
-0.354696
-0.262517
-0.234007
-0.184343
-0.16215
-0.133812
-0.116434
-0.0986101
-0.0855023
-0.0734209
-0.063697
-0.0551296
-0.0479427
-0.0417009
-0.0363646
-0.0317329
-0.0277303
-0.0242391
-0.0211947
-0.0185151
-0.0161624
-0.0140976
-0.0121937
-0.54747
-0.399995
-0.35109
-0.257448
-0.229652
-0.180237
-0.158628
-0.130708
-0.11381
-0.0963489
-0.0835972
-0.0717934
-0.0623203
-0.0539533
-0.0469385
-0.0408357
-0.0356155
-0.0310779
-0.0271534
-0.0237265
-0.0207355
-0.0181006
-0.0157882
-0.0137558
-0.0118788
-0.554262
-0.395155
-0.347366
-0.25234
-0.225248
-0.176091
-0.155065
-0.127559
-0.11114
-0.0940373
-0.08164
-0.0701136
-0.0608912
-0.0527256
-0.0458845
-0.0399233
-0.0348215
-0.0303811
-0.026538
-0.0231784
-0.0202437
-0.0176564
-0.015387
-0.0133893
-0.0115424
-0.560932
-0.39026
-0.343512
-0.247186
-0.220789
-0.171902
-0.151459
-0.124364
-0.108422
-0.0916767
-0.0796315
-0.0683832
-0.0594113
-0.0514482
-0.0447827
-0.0389653
-0.0339839
-0.0296438
-0.0258851
-0.0225959
-0.0197203
-0.0171833
-0.0149594
-0.0129983
-0.0111831
-0.5674
-0.385289
-0.339515
-0.241978
-0.21627
-0.167666
-0.14781
-0.121122
-0.105656
-0.0892688
-0.0775729
-0.0666035
-0.0578824
-0.0501225
-0.0436347
-0.0379633
-0.0331046
-0.0288675
-0.0251962
-0.0219801
-0.0191661
-0.016682
-0.0145066
-0.0125837
-0.0107973
-0.573585
-0.380223
-0.335367
-0.236709
-0.211688
-0.163378
-0.144116
-0.117833
-0.10284
-0.0868136
-0.0754677
-0.0647738
-0.0563065
-0.0487498
-0.0424422
-0.0369175
-0.032186
-0.0280535
-0.0244724
-0.0213318
-0.0185819
-0.0161532
-0.0140296
-0.0121466
-0.0103814
-0.579411
-0.37504
-0.331053
-0.231372
-0.207039
-0.159035
-0.140374
-0.114495
-0.0999807
-0.0843041
-0.0733232
-0.0628912
-0.0546865
-0.0473313
-0.0412071
-0.0358281
-0.0312309
-0.0272035
-0.0237151
-0.0206522
-0.0179688
-0.0155979
-0.0135289
-0.0116869
-0.00993865
-0.584808
-0.36972
-0.326565
-0.225958
-0.202322
-0.154634
-0.136583
-0.111101
-0.097094
-0.081726
-0.0711474
-0.0609532
-0.0530249
-0.0458691
-0.0399304
-0.0346975
-0.0302398
-0.0263188
-0.022925
-0.0199423
-0.0173275
-0.0150176
-0.0130048
-0.0112001
-0.00948344
-0.589709
-0.364242
-0.321892
-0.220457
-0.197534
-0.150174
-0.132752
-0.107626
-0.0942052
-0.079072
-0.0689373
-0.0589687
-0.051319
-0.0443685
-0.0386118
-0.0335344
-0.0292077
-0.0254009
-0.022103
-0.019203
-0.016659
-0.0144133
-0.0124567
-0.0106876
-0.00901846
-0.594049
-0.358587
-0.317024
-0.214864
-0.192668
-0.145641
-0.128912
-0.104042
-0.0913148
-0.0763707
-0.0666622
-0.0569639
-0.0495613
-0.0428297
-0.0372537
-0.0323355
-0.02814
-0.0244501
-0.0212506
-0.0184354
-0.0159644
-0.0137851
-0.0118847
-0.0101535
-0.00853909
-0.59777
-0.352734
-0.311953
-0.209171
-0.187726
-0.140995
-0.125103
-0.100363
-0.0883504
-0.07368
-0.0643171
-0.0549278
-0.0477603
-0.0412518
-0.0358586
-0.0311009
-0.0270394
-0.0234678
-0.0203689
-0.0176404
-0.0152447
-0.0131336
-0.0112899
-0.00960009
-0.00804228
-0.600818
-0.346665
-0.306674
-0.203379
-0.182721
-0.136186
-0.121311
-0.0966911
-0.0852609
-0.0709796
-0.0619191
-0.0528531
-0.045921
-0.0396356
-0.0344283
-0.0298317
-0.0259072
-0.0224551
-0.0194592
-0.0168192
-0.0145009
-0.0124593
-0.0106734
-0.00902813
-0.0075271
-0.603143
-0.340363
-0.30118
-0.197473
-0.1777
-0.131226
-0.117414
-0.0930732
-0.082085
-0.0682508
-0.0594785
-0.0507375
-0.0440458
-0.0379827
-0.0329641
-0.0285296
-0.0247447
-0.0214135
-0.0185224
-0.0159728
-0.0137338
-0.011763
-0.0100363
-0.00843779
-0.0069938
-0.6047
-0.333809
-0.295461
-0.191392
-0.172713
-0.126255
-0.113324
-0.0894617
-0.0788463
-0.0654836
-0.057001
-0.0485816
-0.0421361
-0.0362947
-0.0314672
-0.0271962
-0.0235531
-0.0203443
-0.0175599
-0.0151023
-0.0129443
-0.0110458
-0.00937968
-0.00782929
-0.00644312
-0.605449
-0.326988
-0.289504
-0.185034
-0.167732
-0.121322
-0.109102
-0.0858294
-0.0755592
-0.0626739
-0.054489
-0.0463869
-0.040193
-0.0345735
-0.029939
-0.025833
-0.0223336
-0.0192488
-0.0165727
-0.0142088
-0.0121333
-0.0103084
-0.00870415
-0.007203
-0.00587592
-0.605354
-0.319883
-0.283319
-0.178404
-0.162688
-0.116445
-0.104781
-0.0821608
-0.0722307
-0.0598212
-0.0519438
-0.0441557
-0.0382174
-0.0328207
-0.0283809
-0.0244413
-0.0210874
-0.0181282
-0.015562
-0.0132932
-0.0113017
-0.00955195
-0.00801046
-0.00655949
-0.00529302
-0.604387
-0.312487
-0.276959
-0.171825
-0.157291
-0.111572
-0.100383
-0.0784482
-0.0688647
-0.0569264
-0.0493661
-0.0418899
-0.0362105
-0.0310379
-0.0267943
-0.0230227
-0.0198159
-0.0169837
-0.0145288
-0.0123566
-0.0104507
-0.0087772
-0.00729934
-0.0058994
-0.0046952
-0.60252
-0.304791
-0.270509
-0.165098
-0.151664
-0.10667
-0.09592
-0.0746879
-0.0654632
-0.0539912
-0.0467567
-0.0395915
-0.0341737
-0.0292267
-0.0251806
-0.0215786
-0.0185203
-0.0158166
-0.0134744
-0.0114002
-0.00958109
-0.00798506
-0.00657151
-0.00522347
-0.0040832
-0.599733
-0.29677
-0.263942
-0.158212
-0.145859
-0.101725
-0.091399
-0.070879
-0.0620274
-0.0510176
-0.0441164
-0.0372622
-0.0321083
-0.0273884
-0.0235413
-0.0201102
-0.0172018
-0.0146281
-0.0123999
-0.0104248
-0.00869393
-0.0071764
-0.00582775
-0.00453247
-0.00345772
-0.596008
-0.288338
-0.256969
-0.151437
-0.13991
-0.0967244
-0.0868248
-0.0670217
-0.0585581
-0.0480078
-0.0414462
-0.034904
-0.0300157
-0.0255247
-0.0218778
-0.0186191
-0.0158619
-0.0134194
-0.0113064
-0.00943173
-0.0077902
-0.00635211
-0.00506888
-0.00382718
-0.00281946
-0.591332
-0.279368
-0.249819
-0.144651
-0.133834
-0.0916636
-0.0822006
-0.0631171
-0.055056
-0.0449638
-0.0387473
-0.0325183
-0.0278976
-0.0236369
-0.0201915
-0.0171065
-0.0145018
-0.0121917
-0.010195
-0.00842192
-0.0068709
-0.00551307
-0.00429571
-0.00310843
-0.00216908
-0.585701
-0.269903
-0.242487
-0.137808
-0.127642
-0.086539
-0.0775285
-0.0591668
-0.051522
-0.0418875
-0.036021
-0.030107
-0.0257553
-0.0217267
-0.0184839
-0.0155739
-0.0131228
-0.0109463
-0.00906697
-0.00739649
-0.00593703
-0.0046602
-0.00350913
-0.00237704
-0.00150722
-0.579112
-0.260399
-0.234621
-0.13088
-0.121341
-0.0813493
-0.0728102
-0.0551728
-0.0479572
-0.0387811
-0.0332686
-0.0276716
-0.0235905
-0.0197954
-0.0167564
-0.0140226
-0.0117263
-0.00968434
-0.00792339
-0.00635653
-0.0049896
-0.00379442
-0.00270999
-0.00163386
-0.000834523
-0.571569
-0.250695
-0.226364
-0.123851
-0.114938
-0.0760941
-0.0680474
-0.0511371
-0.0443625
-0.0356464
-0.0304918
-0.0252137
-0.0214047
-0.0178446
-0.0150106
-0.012454
-0.0103134
-0.00840708
-0.00676542
-0.00530312
-0.00402963
-0.00291665
-0.00189921
-0.000879776
-0.000151708
-0.56308
-0.240726
-0.21777
-0.116712
-0.108436
-0.0707743
-0.0632417
-0.047062
-0.0407394
-0.0324854
-0.0276921
-0.0227352
-0.0191995
-0.0158758
-0.0132477
-0.0108694
-0.0088855
-0.00711572
-0.00559422
-0.00423737
-0.00305813
-0.00202784
-0.0010777
-0.000115717
0.000540387
-0.553681
-0.230431
-0.208874
-0.109458
-0.101841
-0.0653912
-0.0583945
-0.0429499
-0.0370893
-0.0293001
-0.0248712
-0.0202375
-0.0169765
-0.0138906
-0.0114694
-0.0092704
-0.00744393
-0.0058115
-0.00441094
-0.00316036
-0.00207613
-0.00112896
-0.000246444
0.000657318
0.00124086
-0.543451
-0.219731
-0.199693
-0.102089
-0.0951563
-0.0599469
-0.0535076
-0.0388032
-0.0334138
-0.0260925
-0.0220309
-0.0177225
-0.0147375
-0.0118906
-0.009677
-0.00765822
-0.00598996
-0.00449564
-0.00321673
-0.00207321
-0.00108467
-0.000220976
0.000593564
0.00143827
0.0019489
-0.532446
-0.208583
-0.190241
-0.0946055
-0.0883856
-0.0544438
-0.048583
-0.0346243
-0.0297148
-0.0228646
-0.0191729
-0.015192
-0.012484
-0.00987718
-0.00787206
-0.00603427
-0.0045249
-0.00316936
-0.00201275
-0.000977007
-8.47965e-05
0.000695101
0.00144127
0.00222607
0.00266387
-0.520505
-0.197152
-0.180533
-0.0870091
-0.081533
-0.0488847
-0.0436228
-0.0304158
-0.0259942
-0.0196184
-0.0162992
-0.0126476
-0.0102176
-0.00785205
-0.00605605
-0.00439997
-0.00305005
-0.00183389
-0.000800157
0.000127138
0.000922454
0.00161827
0.00229561
0.00301962
0.0033851
-0.507387
-0.185689
-0.170582
-0.0793027
-0.0746026
-0.0432727
-0.0386293
-0.0261805
-0.0222541
-0.0163561
-0.0134116
-0.0100911
-0.00794021
-0.00581677
-0.00423046
-0.00275669
-0.00156672
-0.000490434
0.000419894
0.00123812
0.00193604
0.00254754
0.00315556
0.00381778
0.00411145
-0.493317
-0.174049
-0.160399
-0.0714895
-0.0675986
-0.0376112
-0.0336051
-0.021921
-0.0184966
-0.0130798
-0.0105122
-0.0075245
-0.0056534
-0.00377293
-0.00239677
-0.00110584
-7.6194e-05
0.000859778
0.00164625
0.00235485
0.00295492
0.00348192
0.00402007
0.00461926
0.00484094
-0.478353
-0.162193
-0.149997
-0.0635736
-0.0605257
-0.0319037
-0.0285528
-0.0176402
-0.0147241
-0.00979173
-0.00760281
-0.00494954
-0.00335895
-0.00172216
-0.000556485
0.000551194
0.00142021
0.00221553
0.00287777
0.00347622
0.00397806
0.00442044
0.00488803
0.00542255
0.00557143
-0.46253
-0.150107
-0.139386
-0.0555596
-0.0533885
-0.0261543
-0.0234755
-0.0133409
-0.0109389
-0.00649413
-0.00468562
-0.00236813
-0.00105859
0.000333944
0.00128888
0.002213
0.00292121
0.00357562
0.0041133
0.00460114
0.00500443
0.00536207
0.00575823
0.00622604
0.00630192
-0.445887
-0.137792
-0.128579
-0.0474528
-0.046192
-0.0203668
-0.0183762
-0.00902611
-0.00714359
-0.0031893
-0.0017627
0.000217806
0.0012459
0.00239373
0.00313782
0.00387819
0.0044255
0.00493884
0.0053517
0.00572852
0.00603301
0.00630579
0.00662938
0.00702821
0.00703294
-0.428461
-0.125249
-0.117588
-0.039259
-0.0389416
-0.0145457
-0.0132583
-0.00469897
-0.00334073
0.000120387
0.00116382
0.00280633
0.00355272
0.00445556
0.00498882
0.00554536
0.00593178
0.00630399
0.00659186
0.00685731
0.00706282
0.00725061
0.00750022
0.00782754
0.0077641
-0.410291
-0.112486
-0.106425
-0.0309845
-0.0316429
-0.00869534
-0.00812527
-0.000362607
0.000466985
0.00343253
0.00409177
0.00539547
0.00586009
0.00651779
0.00684034
0.0072131
0.00743877
0.00766987
0.00783266
0.00798648
0.00809293
0.00819565
0.00836956
0.00862193
0.00848973
-0.391416
-0.0995131
-0.0951031
-0.0226363
-0.0243018
-0.0028204
-0.00298078
0.00397973
0.00427679
0.00674466
0.00701893
0.00798324
0.00816617
0.00857875
0.00869088
0.00888003
0.00894519
0.0090353
0.009073
0.00911505
0.00912248
0.00914011
0.00923619
0.0094082
0.0091992
-0.371876
-0.0863423
-0.0836353
-0.0142216
-0.0169243
0.00307428
0.00217136
0.00832472
0.00808585
0.0100543
0.00994307