/*--------------------------------*- C++ -*----------------------------------*\
  =========                 |
  \\      /  F ield         | OpenFOAM: The Open Source CFD Toolbox
   \\    /   O peration     | Website:  https://openfoam.org
    \\  /    A nd           | Version:  7
     \\/     M anipulation  |
\*---------------------------------------------------------------------------*/
FoamFile
{
    version     2.0;
    format      ascii;
    class       volScalarField;
    location    "3.5";
    object      T;
}
// * * * * * * * * * * * * * * * * * * * * * * * * * * * * * * * * * * * * * //

dimensions      [0 0 0 1 0 0 0];

internalField   nonuniform List<scalar> 
2413
(
0.928869
0.923106
0.91883
0.916528
0.913
0.908513
0.905424
0.902078
0.89858
0.894593
0.89218
0.897754
0.950092
1.0337
1.0455
1.0445
1.04155
1.03916
1.03785
1.03712
1.03667
1.03647
1.03654
1.03713
1.03814
1.0396
1.04142
1.04337
1.04525
1.04701
1.04865
1.05032
1.05201
1.05359
1.05486
1.05572
1.05621
1.05638
1.05664
1.05711
1.05766
1.05788
1.05775
1.05736
1.05738
1.05759
1.05829
1.05972
1.06213
1.0655
1.06979
1.07501
1.0811
1.08784
1.09529
1.1031
1.11069
1.11798
1.12447
1.12923
1.1336
1.1363
1.13734
1.13923
1.14093
1.02585
1.02385
1.02161
1.01772
1.01422
1.01142
1.00652
1.00083
0.996537
0.991917
0.985232
0.980028
0.975926
0.969689
0.96419
0.96052
0.955568
0.949754
0.946555
0.943449
0.938327
0.934381
0.932363
0.928861
0.923707
0.920694
0.918474
0.914715
0.910885
0.908436
0.905436
0.902146
0.898341
0.896631
0.903087
0.958851
1.03832
1.05075
1.0498
1.04684
1.04439
1.04308
1.04208
1.0411
1.04042
1.04029
1.04033
1.04072
1.04165
1.04294
1.04435
1.04582
1.04729
1.04879
1.05038
1.05202
1.0536
1.05495
1.05608
1.05703
1.05785
1.05871
1.05965
1.06063
1.06135
1.06136
1.06113
1.06077
1.06032
1.05994
1.06017
1.06093
1.06221
1.064
1.06628
1.06896
1.07217
1.07595
1.08005
1.0842
1.08877
1.09339
1.09706
1.10043
1.10289
1.1036
1.10408
1.10408
1.00189
1.00009
0.997948
0.994619
0.992182
0.990022
0.986178
0.982892
0.980561
0.9766
0.972563
0.970227
0.966862
0.962247
0.959607
0.957164
0.952867
0.949192
0.947062
0.944034
0.939279
0.936263
0.934189
0.930592
0.926435
0.924175
0.921994
0.918392
0.914916
0.912844
0.910126
0.906887
0.903489
0.902496
0.909789
0.967458
1.04397
1.05626
1.05548
1.05291
1.05027
1.0484
1.04692
1.04568
1.04473
1.04398
1.04389
1.04396
1.04442
1.04526
1.04625
1.04731
1.04842
1.04965
1.05105
1.05258
1.05417
1.05568
1.05712
1.05848
1.05976
1.06101
1.06218
1.06312
1.06398
1.06448
1.06442
1.06411
1.06359
1.06281
1.06194
1.06166
1.06175
1.0621
1.06284
1.06407
1.06573
1.06775
1.07012
1.07312
1.07669
1.08034
1.0837
1.08661
1.08838
1.08864
1.0882
1.08689
0.998307
0.996654
0.993997
0.990984
0.989173
0.986597
0.983126
0.981044
0.978655
0.974907
0.972322
0.970255
0.966605
0.963019
0.961019
0.958149
0.954047
0.951573
0.949449
0.945912
0.942171
0.940025
0.937758
0.933974
0.930884
0.928871
0.926356
0.923257
0.920226
0.918196
0.91561
0.912234
0.909506
0.90913
0.917377
0.975933
1.04922
1.06054
1.06007
1.05824
1.05597
1.05382
1.05179
1.04995
1.04866
1.04773
1.04743
1.04747
1.04774
1.0483
1.04902
1.04985
1.05074
1.05174
1.05287
1.05409
1.05534
1.05655
1.05782
1.0593
1.06096
1.06267
1.06425
1.06551
1.06658
1.06736
1.06777
1.06769
1.06735
1.06667
1.06578
1.06473
1.06384
1.06367
1.06374
1.06405
1.06473
1.06597
1.0678
1.07006
1.07236
1.07437
1.07599
1.07689
1.07702
1.07681
1.07618
1.07503
0.999743
0.997904
0.994951
0.992399
0.990526
0.987538
0.984626
0.982709
0.97983
0.976517
0.97452
0.971971
0.968276
0.96589
0.963897
0.960532
0.957229
0.955471
0.952898
0.949262
0.946729
0.944684
0.942084
0.938492
0.936172
0.934029
0.931114
0.928649
0.925972
0.923726
0.921035
0.917461
0.915996
0.916052
0.925889
0.984786
1.05188
1.06214
1.06212
1.06138
1.06009
1.0584
1.05646
1.0546
1.05317
1.05219
1.05154
1.05125
1.05128
1.05143
1.05175
1.05222
1.0529
1.05374
1.0547
1.05576
1.05685
1.05796
1.0592
1.06056
1.06197
1.06339
1.06488
1.06647
1.06795
1.06925
1.07029
1.0709
1.07127
1.07121
1.0709
1.07034
1.06976
1.06925
1.06867
1.068
1.06799
1.06824
1.06881
1.06943
1.06972
1.06969
1.06929
1.06862
1.06805
1.06747
1.06672
1.06565
1.00253
1.00028
0.997288
0.995285
0.993075
0.989888
0.987694
0.98559
0.982348
0.979779
0.977865
0.974943
0.971627
0.969739
0.967532
0.963948
0.96149
0.959665
0.956467
0.953752
0.951635
0.949175
0.946491
0.943498
0.941304
0.938869
0.936173
0.933826
0.931227
0.929033
0.926016
0.922515
0.922422
0.922947
0.93556
0.995378
1.05256
1.06131
1.06176
1.06193
1.06168
1.06104
1.06009
1.05886
1.05772
1.05682
1.05612
1.05561
1.05527
1.05506
1.0551
1.0552
1.05553
1.05606
1.05673
1.05751
1.0584
1.05949
1.06088
1.06249
1.06414
1.06572
1.06714
1.06842
1.06965
1.07093
1.07223
1.07348
1.07464
1.07564
1.07628
1.07641
1.07634
1.076
1.07516
1.07378
1.07215
1.07041
1.06865
1.06698
1.06565
1.06463
1.06365
1.06253
1.06123
1.05975
1.05807
1.05617
1.00553
1.0028
1.00023
0.998438
0.995703
0.992865
0.991074
0.988335
0.985361
0.983509
0.980938
0.977808
0.975493
0.973562
0.970806
0.967671
0.965778
0.963579
0.960244
0.958197
0.955984
0.953235
0.950706
0.9483
0.946003
0.943162
0.940866
0.938544
0.936039
0.933795
0.930136
0.927969
0.928109
0.929632
0.9479
1.00676
1.05082
1.05809
1.05957
1.06055
1.06122
1.06164
1.06197
1.06194
1.06168
1.06122
1.0606
1.05997
1.05941
1.05892
1.05873
1.05872
1.05884
1.05923
1.05977
1.06039
1.06112
1.06214
1.0636
1.06527
1.06707
1.06894
1.07077
1.07246
1.07402
1.07552
1.07699
1.07836
1.07954
1.08031
1.08053
1.08048
1.07991
1.07855
1.07652
1.07419
1.0719
1.06953
1.06698
1.0643
1.0616
1.059
1.05654
1.05414
1.05177
1.04935
1.04679
1.0441
1.00773
1.00484
1.00293
1.00084
0.997809
0.995723
0.993738
0.990661
0.988501
0.986448
0.983731
0.981167
0.97902
0.976968
0.974007
0.971348
0.96955
0.96687
0.963975
0.962186
0.959605
0.957022
0.954601
0.952334
0.950053
0.947226
0.945082
0.942656
0.940338
0.937958
0.934078
0.93308
0.933214
0.937044
0.964257
1.01892
1.04816
1.05319
1.05518
1.05728
1.05934
1.06088
1.06197
1.06279
1.06338
1.06358
1.06343
1.06314
1.06286
1.06271
1.06269
1.06282
1.0631
1.06349
1.06399
1.06459
1.06542
1.06658
1.06796
1.06949
1.07121
1.07309
1.07513
1.07719
1.07903
1.08052
1.08168
1.08251
1.08292
1.08279
1.08217
1.0811
1.07955
1.07754
1.07514
1.07237
1.0692
1.06572
1.06196
1.05796
1.0539
1.04994
1.04622
1.0428
1.03974
1.03702
1.03457
1.03238
1.00924
1.00683
1.00512
1.00263
0.999986
0.998257
0.995896
0.99308
0.991333
0.988928
0.986392
0.984304
0.981951
0.979781
0.97695
0.97477
0.972753
0.969808
0.967575
0.965578
0.962728
0.960606
0.958184
0.955872
0.953567
0.950998
0.948919
0.946389
0.944178
0.941531
0.938052
0.937745
0.93818
0.946043
0.983404
1.03133
1.04609
1.04865
1.05053
1.05299
1.05582
1.05836
1.06028
1.0617
1.06276
1.06356
1.06415
1.06466
1.06519
1.06579
1.06645
1.06708
1.06765
1.06819
1.06874
1.06938
1.07024
1.07132
1.07247
1.07364
1.07475
1.07577
1.07663
1.07741
1.07826
1.07914
1.07995
1.0805
1.08072
1.08061
1.08009
1.07896
1.0771
1.0745
1.07116
1.06714
1.06247
1.05736
1.05214
1.04705
1.04241
1.03844
1.03519
1.03265
1.03074
1.0293
1.02813
1.02717
1.01097
1.00907
1.00717
1.0045
1.00241
1.00063
0.997935
0.995663
0.993945
0.991208
0.989086
0.987056
0.984641
0.982431
0.97984
0.977912
0.975542
0.972781
0.970875
0.968579
0.965855
0.963894
0.961476
0.95926
0.956877
0.954513
0.952428
0.949876
0.947774
0.944802
0.942016
0.941971
0.943154
0.95706
1.00466
1.03945
1.04515
1.04684
1.04807
1.04979
1.05212
1.05474
1.05715
1.05911
1.0609
1.0623
1.06345
1.06486
1.06614
1.06723
1.06823
1.06912
1.06988
1.07054
1.07117
1.07187
1.07273
1.07363
1.07443
1.07503
1.07537
1.07547
1.07531
1.07493
1.0746
1.0744
1.07423
1.07395
1.07337
1.07234
1.0707
1.06836
1.06527
1.06152
1.05726
1.0527
1.04803
1.04353
1.0395
1.03611
1.03354
1.03162
1.03016
1.02907
1.02821
1.02744
1.02664
1.02583
1.01319
1.01153
1.00927
1.00676
1.00507
1.00293
1.00022
0.998444
0.9964
0.993629
0.991899
0.989655
0.98728
0.985141
0.982791
0.980819
0.97815
0.975941
0.97389
0.971337
0.969118
0.966944
0.964562
0.962576
0.960111
0.957812
0.955729
0.953319
0.951226
0.947982
0.945934
0.94592
0.948556
0.970429
1.02331
1.04465
1.04653
1.04718
1.04758
1.04849
1.05026
1.05204
1.05397
1.05598
1.05813
1.06003
1.06154
1.06317
1.06467
1.06595
1.06707
1.06801
1.06877
1.06941
1.06995
1.07039
1.07065
1.07107
1.07177
1.07232
1.07259
1.07253
1.07213
1.07141
1.07031
1.06877
1.06677
1.06437
1.06151
1.05819
1.0545
1.05063
1.04681
1.04324
1.04011
1.03749
1.03534
1.03376
1.03263
1.03186
1.03118
1.03031
1.02934
1.0284
1.02754
1.02679
1.02617
1.02559
1.01589
1.01409
1.01156
1.00952
1.0078
1.00527
1.00295
1.0013
0.998842
0.996403
0.994782
0.992219
0.990039
0.987952
0.985743
0.983625
0.980926
0.979016
0.976743
0.97428
0.972274
0.970013
0.967732
0.965744
0.963309
0.961131
0.959004
0.956718
0.954577
0.951327
0.949857
0.949918
0.954769
0.985572
1.0364
1.0496
1.05012
1.0495
1.04872
1.04881
1.04962
1.05063
1.05188
1.05352
1.05526
1.05686
1.05845
1.06003
1.06147
1.06274
1.06386
1.06482
1.06564
1.06628
1.06674
1.06699
1.06692
1.06639
1.06553
1.06446
1.06322
1.06176
1.05998
1.05782
1.05518
1.05209
1.04863
1.04495
1.04125
1.03783
1.03499
1.0329
1.03152
1.03075
1.03049
1.03049
1.0306
1.03087
1.03081
1.03069
1.03042
1.02986
1.02912
1.02841
1.0278
1.02729
1.02686
1.02657
1.0188
1.01668
1.01419
1.01251
1.01049
1.00784
1.00599
1.00413
1.00141
0.999414
0.997628
0.994898
0.992982
0.990883
0.988716
0.986412
0.983936
0.982101
0.979592
0.977397
0.975361
0.973133
0.971023
0.968845
0.966616
0.964516
0.962303
0.960179
0.958002
0.954875
0.953785
0.95412
0.962026
1.00136
1.04611
1.05427
1.05414
1.05289
1.05145
1.05081
1.05083
1.05107
1.05148
1.05198
1.05261
1.05334
1.05422
1.05516
1.05608
1.05691
1.05758
1.05802
1.05817
1.05799
1.05743
1.05656
1.0554
1.0539
1.05204
1.04983
1.04727
1.04441
1.04134
1.03822
1.0352
1.03239
1.02991
1.02788
1.02639
1.02547
1.02516
1.02531
1.02583
1.02651
1.02733
1.02808
1.02867
1.02931
1.02977
1.03023
1.03031
1.03011
1.02973
1.0293
1.02888
1.02847
1.0281
1.0277
1.02171
1.01934
1.01706
1.01547
1.0132
1.01067
1.00904
1.00695
1.00418
1.00246
1.00045
0.997828
0.996028
0.993879
0.991732
0.989257
0.98707
0.985185
0.982548
0.980584
0.978513
0.976279
0.974274
0.972026
0.970021
0.967932
0.965723
0.963718
0.961502
0.958528
0.957689
0.958514
0.970223
1.01662
1.05316
1.05783
1.05749
1.05618
1.0547
1.05354
1.05257
1.05183
1.05116
1.05054
1.05005
1.04963
1.04927
1.04896
1.04865
1.04824
1.04764
1.04675
1.04553
1.04397
1.04209
1.03995
1.03765
1.03525
1.03285
1.0305
1.02828
1.02625
1.02449
1.02308
1.02208
1.0215
1.02126
1.02135
1.02173
1.0222
1.02277
1.02338
1.02401
1.02482
1.0257
1.02669
1.0277
1.02873
1.02961
1.03034
1.03081
1.03081
1.03069
1.0305
1.03014
1.02964
1.02908
1.02846
1.0246
1.02215
1.01997
1.01837
1.01599
1.01358
1.01196
1.00977
1.00701
1.00537
1.00323
1.00082
0.998977
0.996779
0.994662
0.992133
0.990138
0.988136
0.985529
0.983689
0.981501
0.979344
0.977366
0.975188
0.97331
0.971141
0.969091
0.967132
0.964823
0.961973
0.961124
0.962492
0.978519
1.02955
1.05723
1.0597
1.05915
1.0576
1.05588
1.05436
1.05291
1.0515
1.05005
1.04854
1.04699
1.04533
1.04357
1.04179
1.03995
1.038
1.0359
1.03367
1.03135
1.02903
1.02682
1.02485
1.02315
1.02171
1.02051
1.01954
1.01879
1.01829
1.01798
1.01784
1.01783
1.01798
1.01834
1.01887
1.01956
1.02033
1.0213
1.02225
1.02322
1.02437
1.02548
1.0267
1.02792
1.02901
1.02999
1.03075
1.03131
1.03135
1.03132
1.03121
1.03076
1.03012
1.02942
1.02871
1.0274
1.02496
1.02275
1.02109
1.01875
1.01634
1.01458
1.01246
1.00968
1.00797
1.00579
1.00352
1.00157
0.999337
0.99728
0.994751
0.992834
0.990689
0.988185
0.986403
0.984046
0.982043
0.980054
0.977911
0.976046
0.973674
0.971675
0.969596
0.967084
0.964147
0.963273
0.965454
0.986281
1.03899
1.05929
1.06064
1.05986
1.05784
1.05569
1.05368
1.05167
1.04956
1.04735
1.045
1.04245
1.03976
1.037
1.0343
1.03171
1.02927
1.02698
1.02487
1.02296
1.02133
1.01999
1.01896
1.01817
1.01754
1.01703
1.01661
1.01633
1.01623
1.01624
1.01638
1.01663
1.01687
1.01724
1.01789
1.01871
1.01962
1.02066
1.02179
1.02299
1.02436
1.0257
1.02703
1.02835
1.02942
1.03035
1.03104
1.03158
1.03173
1.03173
1.03158
1.0311
1.03044
1.02974
1.02907
1.02987
1.0275
1.0252
1.02344
1.0212
1.01875
1.01679
1.01478
1.01197
1.01012
1.00798
1.00576
1.00367
1.00148
0.999436
0.996873
0.994955
0.992651
0.9903
0.988384
0.986007
0.984172
0.982029
0.979913
0.977953
0.975534
0.973514
0.971256
0.968705
0.965677
0.964845
0.967744
0.992876
1.04495
1.06001
1.06048
1.05892
1.05612
1.05342
1.05095
1.04844
1.04574
1.04288
1.03992
1.0369
1.03396
1.03123
1.02885
1.02679
1.02497
1.02335
1.02188
1.02056
1.01941
1.01845
1.01767
1.01707
1.01657
1.01616
1.01579
1.01551
1.01537
1.01539
1.01566
1.01623
1.01702
1.01784
1.01876
1.0198
1.02089
1.02208
1.02332
1.02454
1.02582
1.02705
1.02815
1.0292
1.03
1.03071
1.03126
1.03174
1.03191
1.03188
1.03169
1.03131
1.03078
1.03021
1.02978
1.03179
1.02961
1.02723
1.02534
1.02319
1.02081
1.01856
1.01666
1.01392
1.01192
1.0098
1.00763
1.00549
1.0033
1.00128
0.998731
0.996783
0.994427
0.992163
0.990092
0.98773
0.985885
0.983599
0.981498
0.97939
0.976973
0.974812
0.972319
0.969579
0.96631
0.96525
0.968738
0.997443
1.04747
1.05861
1.05824
1.05562
1.05222
1.04926
1.04657
1.04385
1.04105
1.03831
1.03568
1.03319
1.03092
1.02887
1.02707
1.02545
1.02397
1.02261
1.02131
1.02012
1.01913
1.0183
1.01758
1.01698
1.01651
1.01617
1.016
1.01595
1.01602
1.01631
1.01684
1.01755
1.01842
1.01941
1.02048
1.02165
1.02283
1.02399
1.02514
1.02622
1.02725
1.02817
1.02897
1.02976
1.03044
1.03108
1.0316
1.03203
1.03223
1.03217
1.03201
1.03183
1.03152
1.03119
1.03109
1.03334
1.03138
1.02893
1.02695
1.02485
1.02261
1.02012
1.01823
1.01566
1.01352
1.01139
1.00927
1.00715
1.00487
1.00284
1.00033
0.998241
0.995749
0.993485
0.991305
0.988968
0.986966
0.984491
0.982291
0.979905
0.977181
0.974653
0.971797
0.96874
0.965272
0.963725
0.967643
0.999197
1.04685
1.05521
1.0543
1.05135
1.04814
1.04557
1.04329
1.04101
1.03871
1.03648
1.03437
1.03236
1.03043
1.02866
1.02706
1.0256
1.02423
1.0229
1.0217
1.02071
1.01981
1.01904
1.01849
1.0181
1.01791
1.01784
1.01785
1.01821
1.01882
1.0195
1.02028
1.02116
1.02212
1.02313
1.02411
1.02505
1.026
1.02693
1.02776
1.02848
1.02911
1.02966
1.03017
1.03069
1.03114
1.03162
1.03207
1.03245
1.03275
1.03277
1.03274
1.03278
1.03268
1.03265
1.03278
1.03468
1.03285
1.03039
1.02834
1.02627
1.02409
1.02143
1.01947
1.01707
1.01473
1.01259
1.01044
1.00827
1.00584
1.00384
1.00128
0.998915
0.996248
0.993916
0.991562
0.988953
0.986717
0.984039
0.981517
0.978717
0.975594
0.972759
0.969617
0.966368
0.962814
0.961001
0.965447
0.999185
1.0452
1.05249
1.0516
1.04911
1.04649
1.04444
1.04255
1.04058
1.03858
1.03663
1.03473
1.03288
1.03119
1.02958
1.02807
1.02672
1.02551
1.02443
1.02346
1.02262
1.02203
1.0216
1.02137
1.02132
1.02138
1.02171
1.02223
1.02281
1.02348
1.02421
1.02497
1.02575
1.02653
1.02724
1.0279
1.02856
1.02914
1.02962
1.03009
1.03052
1.03091
1.03128
1.03167
1.03208
1.03248
1.03291
1.03328
1.03354
1.03372
1.03377
1.03387
1.03407
1.03415
1.0344
1.0348
1.0357
1.03391
1.03148
1.02945
1.02718
1.02499
1.02242
1.02017
1.01771
1.01535
1.01321
1.01076
1.00854
1.00603
1.00376
1.00091
0.998345
0.995616
0.992981
0.990406
0.987609
0.985173
0.982273
0.979506
0.976491
0.973309
0.970518
0.967478
0.964418
0.961031
0.959477
0.964369
0.999557
1.04516
1.05199
1.05122
1.04905
1.04676
1.04493
1.04326
1.04148
1.03963
1.03781
1.03613
1.03458
1.03306
1.03167
1.03043
1.02933
1.02837
1.0275
1.02686
1.02649
1.02622
1.02612
1.02619
1.02635
1.02673
1.0272
1.02771
1.02825
1.02881
1.02941
1.02997
1.03046
1.03092
1.03134
1.03171
1.03203
1.03231
1.03256
1.0328
1.03302
1.03323
1.03345
1.03371
1.03397
1.03424
1.03453
1.03478
1.03502
1.03524
1.03544
1.03574
1.03608
1.03638
1.03693
1.03754
1.03628
1.03441
1.03209
1.02991
1.02752
1.02521
1.02271
1.02015
1.01767
1.01523
1.01296
1.01024
1.00798
1.00531
1.00273
0.999743
0.99707
0.994387
0.991574
0.989018
0.986233
0.983764
0.980823
0.978085
0.975215
0.97233
0.969833
0.967126
0.964475
0.96137
0.960111
0.965144
1.0004
1.0462
1.05296
1.05223
1.05023
1.04819
1.04652
1.04497
1.0434
1.04181
1.04031
1.03884
1.0375
1.03633
1.03528
1.03434
1.03354
1.03281
1.0323
1.03205
1.03189
1.03186
1.03196
1.03207
1.03226
1.0326
1.03291
1.03327
1.03366
1.03402
1.0343
1.03459
1.03482
1.035
1.03516
1.0353
1.03541
1.0355
1.03559
1.03569
1.03581
1.03594
1.03612
1.03632
1.03654
1.03677
1.03699
1.03716
1.03735
1.03752
1.03774
1.03811
1.03845
1.03895
1.03972
1.04042
1.03649
1.03453
1.03211
1.02979
1.02752
1.02495
1.02237
1.01973
1.0173
1.01467
1.01237
1.00963
1.00725
1.00453
1.0018
0.999026
0.996371
0.993819
0.991106
0.988805
0.986204
0.983833
0.981117
0.978609
0.976007
0.973418
0.971171
0.9687
0.966218
0.96322
0.961879
0.966627
1.00084
1.04758
1.05495
1.05435
1.05259
1.05074
1.04928
1.04798
1.04667
1.04533
1.04401
1.04294
1.04203
1.04118
1.04043
1.03974
1.03908
1.03862
1.03835
1.03817
1.03811
1.0381
1.03807
1.0381
1.03817
1.0382
1.03828
1.03842
1.03857
1.03868
1.0388
1.03888
1.03889
1.03891
1.03891
1.03891
1.03891
1.03892
1.03893
1.03896
1.03902
1.0391
1.03922
1.03936
1.0395
1.03963
1.03975
1.03988
1.04004
1.04021
1.04051
1.04096
1.04144
1.04214
1.04298
1.04376
1.03683
1.03477
1.03214
1.02982
1.02765
1.02478
1.02229
1.01991
1.01738
1.01468
1.01258
1.01007
1.00752
1.00499
1.00247
0.999886
0.997285
0.995049
0.992479
0.990287
0.987806
0.985512
0.982939
0.980487
0.978039
0.975499
0.973354
0.971022
0.968674
0.96577
0.964271
0.968453
1.00092
1.04921
1.058
1.05764
1.05626
1.05473
1.0535
1.0524
1.0513
1.05025
1.04934
1.04854
1.04784
1.04718
1.04657
1.04603
1.04553
1.04511
1.04479
1.04455
1.04434
1.04414
1.04399
1.04382
1.0436
1.04342
1.0433
1.04317
1.0431
1.04308
1.04305
1.04298
1.0429
1.04283
1.04274
1.04265
1.04259
1.04253
1.04247
1.04246
1.04248
1.04253
1.04261
1.04269
1.04278
1.04285
1.04292
1.04302
1.04316
1.04335
1.0437
1.04418
1.04477
1.04551
1.04625
1.04706
1.03825
1.03614
1.0336
1.03115
1.02894
1.02613
1.02371
1.02136
1.0189
1.01642
1.01423
1.01185
1.00928
1.0069
1.00433
1.00189
0.999317
0.997198
0.994718
0.992513
0.990142
0.98787
0.985435
0.982972
0.980742
0.978362
0.976361
0.974226
0.972158
0.969432
0.967851
0.97126
1.00091
1.05132
1.06241
1.06234
1.06137
1.06016
1.05911
1.05812
1.05722
1.05644
1.05573
1.05507
1.05442
1.0538
1.05321
1.05263
1.05207
1.05156
1.05109
1.05068
1.05031
1.04994
1.04956
1.04915
1.04875
1.04837
1.048
1.04774
1.04759
1.04744
1.04728
1.04712
1.04698
1.04682
1.04667
1.04655
1.04644
1.04634
1.04625
1.04618
1.04614
1.04614
1.04615
1.04616
1.04618
1.0462
1.04623
1.04631
1.04645
1.0467
1.04711
1.04765
1.0483
1.04898
1.04967
1.05033
1.04021
1.03813
1.03581
1.03319
1.03094
1.02836
1.02579
1.02342
1.02116
1.01883
1.01647
1.01421
1.01171
1.00937
1.00676
1.00455
1.00214
1.00007
0.997752
0.99564
0.993432
0.991113
0.988897
0.986567
0.984601
0.982442
0.980754
0.978827
0.976972
0.974391
0.972812
0.975408
1.00131
1.05378
1.06827
1.06845
1.06767
1.06653
1.06554
1.06474
1.06399
1.06324
1.0625
1.06181
1.06116
1.0605
1.05981
1.0591
1.05836
1.05771
1.05714
1.05658
1.05601
1.05546
1.05491
1.05433
1.05374
1.05319
1.05272
1.05238
1.05212
1.05187
1.05162
1.0514
1.05117
1.05093
1.05073
1.05056
1.05042
1.05027
1.05013
1.05
1.0499
1.04984
1.04979
1.04974
1.0497
1.0497
1.04973
1.04982
1.05
1.0503
1.05075
1.05131
1.05191
1.05247
1.05307
1.05335
1.04304
1.04094
1.03849
1.03598
1.03372
1.03121
1.02864
1.02655
1.02427
1.02196
1.0197
1.01763
1.01511
1.01275
1.01043
1.00841
1.00611
1.00405
1.00213
1.00002
0.997926
0.995646
0.99376
0.991616
0.989898
0.987948
0.986482
0.984772
0.983015
0.98056
0.978891
0.980712
1.00214
1.05569
1.07468
1.07525
1.07461
1.07348
1.07241
1.07154
1.0708
1.07005
1.06927
1.06849
1.06771
1.06693
1.06609
1.06522
1.06442
1.06368
1.06295
1.06225
1.06156
1.06086
1.06015
1.05946
1.05879
1.05814
1.05757
1.05712
1.05673
1.05638
1.05608
1.0558
1.05551
1.0552
1.05494
1.05469
1.05446
1.05426
1.05408
1.05393
1.0538
1.05369
1.05357
1.05344
1.05333
1.05332
1.05336
1.05349
1.05373
1.0541
1.05457
1.05508
1.05554
1.05596
1.05621
1.0562
1.04705
1.04474
1.04242
1.04008
1.03754
1.03516
1.03302
1.03086
1.02853
1.02659
1.02438
1.02207
1.01973
1.01768
1.0155
1.01343
1.01155
1.00954
1.00768
1.00555
1.00369
1.00154
0.99984
0.997858
0.996347
0.994621
0.993089
0.991509
0.989824
0.98755
0.985562
0.986648
1.00318
1.05599
1.08118
1.0821
1.08141
1.08035
1.07936
1.0784
1.07744
1.07656
1.07575
1.0749
1.07401
1.07305
1.07212
1.07124
1.07035
1.06948
1.06863
1.0678
1.06702
1.06626
1.06548
1.06469
1.06391
1.06321
1.06258
1.06203
)
;

boundaryField
{
    inlet
    {
        type            fixedValue;
        value           nonuniform 0();
    }
    outlet
    {
        type            inletOutlet;
        inletValue      nonuniform 0();
        value           nonuniform 0();
    }
    bottom
    {
        type            symmetryPlane;
    }
    top
    {
        type            symmetryPlane;
    }
    obstacle
    {
        type            zeroGradient;
    }
    front
    {
        type            empty;
    }
    back
    {
        type            empty;
    }
    procBoundary28to13
    {
        type            processor;
        value           nonuniform List<scalar> 
16
(
1.14184
1.10333
1.08453
1.07314
1.06417
1.05401
1.04139
1.03051
1.02646
1.02526
1.02537
1.02641
1.02728
1.02795
1.02824
1.02878
)
;
    }
    procBoundary28to20
    {
        type            processor;
        value           nonuniform List<scalar> 
89
(
0.936543
0.927844
0.920811
0.917142
0.913085
0.907842
0.903954
0.9003
0.896703
0.892738
0.889494
0.894018
0.941283
1.02996
1.04183
1.04097
1.03838
1.03591
1.03456
1.0337
1.03341
1.03355
1.03411
1.0352
1.03669
1.03863
1.04094
1.04343
1.04582
1.04798
1.04986
1.05164
1.0533
1.05467
1.0556
1.0556
1.05526
1.0547
1.05422
1.05412
1.05418
1.05421
1.05407
1.05401
1.05458
1.05579
1.05786
1.06105
1.06576
1.07226
1.08075
1.09091
1.10289
1.11627
1.13083
1.14598
1.16072
1.17305
1.1841
1.19308
1.20045
1.20595
1.21038
1.21496
1.21772
1.09258
1.09066
1.0882
1.08363
1.07897
1.07433
1.0665
1.05696
1.04789
1.03981
1.02869
1.01753
1.00884
0.999074
0.988333
0.980074
0.972016
0.961994
0.954833
0.949598
0.942674
0.93638
0.932903
0.932903
)
;
    }
    procBoundary28to21
    {
        type            processor;
        value           nonuniform List<scalar> 
11
(
1.0297
1.03114
1.03304
1.03523
1.03816
1.04117
1.04465
1.04778
1.0506
1.05333
1.05604
)
;
    }
    procBoundary28to27
    {
        type            processor;
        value           nonuniform List<scalar> 
26
(
1.02838
1.00451
1.00084
1.00199
1.00442
1.00734
1.00991
1.01182
1.0136
1.01554
1.01781
1.02045
1.02333
1.02623
1.02902
1.0315
1.03351
1.03529
1.03682
1.03806
1.03884
1.03897
1.03912
1.04056
1.04263
1.04532
)
;
    }
    procBoundary28to35
    {
        type            processor;
        value           uniform 1.04938;
    }
    procBoundary28to36
    {
        type            processor;
        value           nonuniform List<scalar> 
89
(
1.06153
1.06109
1.06069
1.06028
1.0599
1.05956
1.05923
1.05891
1.05861
1.05835
1.05814
1.05796
1.0578
1.05765
1.05748
1.05727
1.05711
1.05709
1.05713
1.05729
1.05759
1.05802
1.05847
1.05886
1.05916
1.05926
1.05922
1.05905
1.05223
1.04984
1.04766
1.04527
1.04268
1.04069
1.03856
1.03635
1.03434
1.03236
1.03003
1.02774
1.02584
1.02374
1.02161
1.01969
1.01808
1.01597
1.01409
1.0121
1.01038
1.0083
1.00665
1.00495
1.00341
1.00177
1.00008
0.998535
0.996873
0.994898
0.992447
0.992878
1.00435
1.05346
1.08745
1.08923
1.08829
1.08696
1.08595
1.08498
1.08395
1.08296
1.08202
1.08109
1.08009
1.07905
1.07806
1.07711
1.07619
1.07527
1.07432
1.0734
1.07253
1.07169
1.07086
1.07004
1.06923
1.06846
1.06773
1.06153
1.06706
)
;
    }
}


// ************************************************************************* //
