/*--------------------------------*- C++ -*----------------------------------*\
  =========                 |
  \\      /  F ield         | OpenFOAM: The Open Source CFD Toolbox
   \\    /   O peration     | Website:  https://openfoam.org
    \\  /    A nd           | Version:  7
     \\/     M anipulation  |
\*---------------------------------------------------------------------------*/
FoamFile
{
    version     2.0;
    format      ascii;
    class       surfaceScalarField;
    location    "28";
    object      phi;
}
// * * * * * * * * * * * * * * * * * * * * * * * * * * * * * * * * * * * * * //

dimensions      [0 3 -1 0 0 0 0];

internalField   nonuniform List<scalar> 
53160
(
-0.000169419
0.000169515
-9.59184e-08
-0.000333054
0.00016373
-9.54979e-08
-0.000524089
0.000191107
-7.16624e-08
-0.000705129
0.00018104
3.59789e-11
-0.000896
0.000190744
1.26826e-07
-0.00108905
0.000192748
3.05255e-07
-0.00128604
0.00019649
4.94251e-07
-0.00148445
0.000197781
6.3128e-07
-0.00167985
0.000194759
6.41757e-07
-0.00186902
0.000188703
4.68614e-07
-0.00203691
0.000167784
9.87958e-08
-0.00218219
0.000145692
-4.0327e-07
-0.00226833
8.7062e-05
-9.2938e-07
-0.0022973
3.02677e-05
-1.29069e-06
-0.00221358
-8.23659e-05
-1.35702e-06
-0.0020127
-0.000199814
-1.06815e-06
-0.00164352
-0.000368654
-5.21058e-07
-0.00104083
-0.000602873
1.81911e-07
-0.000308044
-0.000733537
7.48733e-07
-0.00102571
1.01891e-06
0.000716642
-0.0001686
0.000338115
-0.000330419
0.000325549
-0.000518531
0.000379219
-0.000694968
0.000357477
-0.000878861
0.000374636
-0.00106177
0.000375653
-0.00124425
0.000378979
-0.00142239
0.000375914
-0.00158988
0.000362248
-0.00174124
0.000340061
-0.00185892
0.000285466
-0.00193847
0.000225248
-0.00194165
9.0239e-05
-0.0018671
-4.42802e-05
-0.00165566
-0.000293806
-0.00131949
-0.000535992
-0.000772126
-0.000916013
-3.92693e-05
-0.00133573
0.0008857
-0.00165851
-0.00220929
0.00206928
-0.000166976
0.000505092
-0.000325182
0.000483754
-0.000507475
0.000561513
-0.000674769
0.000524771
-0.000844834
0.000544702
-0.00100772
0.000538538
-0.0011618
0.00053306
-0.00130052
0.00051463
-0.00141435
0.000476086
-0.0014939
0.000419608
-0.00151799
0.000309555
-0.00147679
0.000184052
-0.00133134
-5.52192e-05
-0.00107692
-0.000298691
-0.000646797
-0.000723932
-9.44149e-05
-0.00108837
0.000731833
-0.00174226
0.0017133
-0.00231719
0.00287358
-0.00281879
-0.00361652
0.00428081
-0.000164575
0.000669667
-0.000317405
0.000636585
-0.000491038
0.000735145
-0.000644763
0.000678497
-0.000794394
0.000694333
-0.000927899
0.000672043
-0.00104068
0.000645843
-0.00112281
0.000596754
-0.00116091
0.000514186
-0.00114083
0.000399532
-0.00103858
0.000207304
-0.000837884
-1.66417e-05
-0.000503208
-0.000389895
-2.64029e-05
-0.000775497
0.000657022
-0.00140736
0.00148254
-0.0019139
0.00256225
-0.00282197
0.00379884
-0.00355378
0.00518169
-0.00420164
-0.00517867
0.00674384
-0.000161436
0.000831103
-0.000307179
0.000782328
-0.000469383
0.000897348
-0.000605272
0.000814386
-0.000728169
0.00081723
-0.000823561
0.000767435
-0.000883396
0.000705678
-0.000894044
0.000607402
-0.000838411
0.000458553
-0.000697548
0.000258669
-0.000446831
-4.34136e-05
-6.29771e-05
-0.000400496
0.000479973
-0.000932845
0.00118672
-0.00148225
0.00211676
-0.0023374
0.00320259
-0.00299972
0.0044956
-0.00411499
0.00591842
-0.0049766
0.00745275
-0.00573596
-0.00676956
0.00904364
-0.000157611
0.000988714
-0.000294621
0.000919338
-0.000442712
0.00104544
-0.000556669
0.000928343
-0.000646857
0.000907417
-0.000696044
0.000816622
-0.000692481
0.000702115
-0.000618901
0.000533822
-0.000455154
0.000294807
-0.000177908
-1.85767e-05
0.000234791
-0.000456113
0.000807294
-0.000972998
0.00156566
-0.00169121
0.00249578
-0.00241237
0.00363578
-0.0034774
0.00493415
-0.00429809
0.00636726
-0.00554809
0.00787582
-0.00648516
0.00945627
-0.00731641
-0.00827355
0.0109603
-0.000153164
0.00114188
-0.000279869
0.00104604
-0.000411251
0.00117682
-0.000499344
0.00101644
-0.000551131
0.000959205
-0.000546548
0.000812039
-0.000470094
0.000625661
-0.000301223
0.000364951
-1.79466e-05
1.153e-05
0.000406043
-0.000442567
0.000990425
-0.00104049
0.00175142
-0.001734
0.00271001
-0.00264979
0.0038393
-0.00354166
0.00513755
-0.00477565
0.00657124
-0.00573179
0.00805544
-0.00703229
0.00954515
-0.00797487
0.0110542
-0.00882548
-0.0096152
0.0123959
-0.000148166
0.00129004
-0.000263078
0.00116095
-0.00037523
0.00128897
-0.000433656
0.00107486
-0.000441538
0.000967086
-0.00037596
0.000746462
-0.000217724
0.000467425
5.63454e-05
9.08812e-05
0.0004695
-0.000401624
0.00104631
-0.00101938
0.00180333
-0.00179751
0.00274411
-0.00267478
0.0038742
-0.00377988
0.00515696
-0.00482442
0.00654747
-0.00616615
0.00802071
-0.00720503
0.00946313
-0.00847472
0.0108457
-0.00935744
0.0121919
-0.0101717
-0.01077
0.0133467
-0.000142698
0.00143274
-0.000244415
0.00126267
-0.000334869
0.00137943
-0.000359888
0.00109988
-0.000318403
0.000925601
-0.000184711
0.00061277
6.39637e-05
0.00021875
0.00045208
-0.000297235
0.0010026
-0.000952148
0.00173461
-0.00175139
0.00265643
-0.00271933
0.00375558
-0.00377393
0.00501239
-0.00503669
0.00638224
-0.00619427
0.00778692
-0.00757084
0.00920435
-0.00862246
0.0105288
-0.0097992
0.01175
-0.0105786
0.0129
-0.0113217
-0.0117595
0.0138895
-0.000136845
0.00156959
-0.000224053
0.00134988
-0.00029035
0.00144572
-0.000278191
0.00108772
-0.000181728
0.000829138
2.71815e-05
0.000403861
0.000374764
-0.000128833
0.000884768
-0.000807238
0.00157684
-0.00164422
0.00245925
-0.00263379
0.00352536
-0.00378544
0.00474484
-0.00499341
0.0060684
-0.00636025
0.00744726
-0.00757313
0.00878949
-0.00891307
0.0100797
-0.00991265
0.011246
-0.0109655
0.0122965
-0.0116291
0.0132735
-0.0122987
-0.0126297
0.0141437
-0.000130695
0.00170028
-0.00020216
0.00142134
-0.000241795
0.00148536
-0.000188531
0.00103446
-3.09289e-05
0.000671536
0.000260921
0.000112011
0.000715093
-0.000583006
0.00135231
-0.00144446
0.00218379
-0.0024757
0.00320128
-0.00365129
0.00437636
-0.00496051
0.00566168
-0.00627873
0.00698429
-0.00768285
0.00829935
-0.00888819
0.00952319
-0.0101369
0.010655
-0.0110445
0.0116638
-0.0119743
0.0125714
-0.0125367
0.013425
-0.0131523
-0.0134264
0.0142217
-0.000124337
0.00182462
-0.000178894
0.0014759
-0.000189231
0.0014957
-9.06697e-05
0.000935897
0.000133986
0.00044688
0.000516917
-0.000270919
0.0010845
-0.00115059
0.00184985
-0.00220982
0.00280902
-0.00343486
0.00393263
-0.00477489
0.0051682
-0.00619609
0.00645677
-0.0075673
0.00771683
-0.00894292
0.00891806
-0.0100894
0.0100006
-0.0112194
0.0109817
-0.0120256
0.0118617
-0.0128543
0.0126683
-0.0133433
0.0134455
-0.0139296
-0.014182
0.0142011
-0.000117854
0.00194247
-0.000154387
0.00151243
-0.000132553
0.00147386
1.57085e-05
0.000787635
0.000314852
0.000147736
0.000796196
-0.000752263
0.00148073
-0.00183512
0.00236766
-0.00309675
0.00343092
-0.00449812
0.00461872
-0.00596269
0.00586005
-0.00743742
0.00709486
-0.00880212
0.00825084
-0.0100989
0.00931935
-0.0111579
0.0102678
-0.0121679
0.0111281
-0.0128859
0.0119161
-0.0136423
0.0126586
-0.0140858
0.0133923
-0.0146633
-0.0149159
0.0141263
-0.000111323
0.0020538
-0.000128733
0.00152984
-7.1442e-05
0.00141657
0.00013288
0.000583313
0.000512861
-0.000232244
0.00109864
-0.00133804
0.00189817
-0.00263465
0.00288994
-0.00408852
0.00402219
-0.00563037
0.00522533
-0.00716583
0.00642232
-0.00863441
0.00756435
-0.00994415
0.00860057
-0.0111351
0.00954379
-0.0121012
0.0103825
-0.0130066
0.0111563
-0.0136597
0.0118834
-0.0143694
0.0125876
-0.0147901
0.0132976
-0.0153732
-0.0156388
0.0140205
-0.000104804
0.0021586
-0.000101965
0.001527
-4.64917e-06
0.00131926
0.000260734
0.00031793
0.000729055
-0.000700565
0.00142205
-0.00203104
0.00232662
-0.00353923
0.00339567
-0.00515757
0.00455468
-0.00678938
0.00572704
-0.00833819
0.00684424
-0.00975161
0.00787709
-0.010977
0.00879921
-0.0120572
0.00963854
-0.0129405
0.0103952
-0.0137633
0.011111
-0.0143754
0.0117992
-0.0150576
0.0124811
-0.015472
0.0131783
-0.0160704
-0.0163557
0.0138953
-9.83358e-05
0.00225694
-7.40442e-05
0.00150271
6.57017e-05
0.00117951
0.00040112
-1.74888e-05
0.00096365
-0.00126309
0.00176097
-0.00282836
0.00275123
-0.00452949
0.00386199
-0.00626832
0.00500601
-0.0079334
0.006113
-0.00944519
0.00713358
-0.0107722
0.0080596
-0.011903
0.00888489
-0.0128825
0.00964456
-0.0137002
0.010343
-0.0144618
0.0110212
-0.0150536
0.0116843
-0.0157206
0.0123533
-0.016141
0.0130432
-0.0167603
-0.0170688
0.0137563
-9.19282e-05
0.00234886
-4.48232e-05
0.00145561
0.000143293
0.000991393
0.000555464
-0.00042966
0.0012151
-0.00192273
0.0021062
-0.00371945
0.00315438
-0.00557767
0.00426914
-0.00738309
0.0053645
-0.00902875
0.00638706
-0.0104678
0.00731015
-0.0116953
0.00814246
-0.0127353
0.00889112
-0.0136312
0.00959223
-0.0144013
0.0102504
-0.0151199
0.0109041
-0.0157074
0.0115503
-0.0163667
0.0122116
-0.0168024
0.0128964
-0.0174451
-0.0177784
0.0136061
-8.55485e-05
0.00243441
-1.42143e-05
0.00138427
0.000228652
0.000748527
0.000724537
-0.000925544
0.00147929
-0.00267749
0.00244532
-0.00468549
0.00351905
-0.00665139
0.00460464
-0.00846868
0.00562998
-0.0100541
0.00656316
-0.0114009
0.00739777
-0.0125299
0.00815311
-0.0134907
0.00884346
-0.0143215
0.00950222
-0.01506
0.0101324
-0.0157501
0.0107697
-0.0163447
0.0114035
-0.0170005
0.0120599
-0.0174588
0.0127399
-0.0181252
-0.0184843
0.0134458
-7.91115e-05
0.00251352
1.94481e-05
0.00128571
0.000323032
0.000444943
0.000907839
-0.00151035
0.0017492
-0.00351885
0.00276474
-0.00570102
0.00383239
-0.00771904
0.00486478
-0.00950108
0.00581097
-0.0110003
0.00665942
-0.0122494
0.00741871
-0.0132892
0.00811312
-0.0141851
0.00875991
-0.0149683
0.00938787
-0.015688
0.00999832
-0.0163606
0.0106235
-0.0169699
0.0112474
-0.0176243
0.0119
-0.0181114
0.0125745
-0.0187996
-0.0191859
0.0132761
-7.24695e-05
0.00258599
5.67812e-05
0.00115646
0.00042763
7.40944e-05
0.00110301
-0.00218573
0.00201556
-0.0044314
0.00305224
-0.0067377
0.00408771
-0.00875452
0.00505326
-0.0104666
0.00592038
-0.0118674
0.00669369
-0.0130227
0.00739122
-0.0139867
0.00803828
-0.0148321
0.00865255
-0.0155826
0.00925748
-0.0162929
0.00985331
-0.0169564
0.0104686
-0.0175852
0.0110838
-0.0182395
0.0117327
-0.0187603
0.0124004
-0.0194673
-0.0198825
0.013097
-6.53938e-05
0.00265139
9.83027e-05
0.000992767
0.000543182
-0.000370784
0.00130559
-0.00294814
0.00226827
-0.00539407
0.00329921
-0.00776865
0.00428442
-0.00973973
0.00517832
-0.0113605
0.00597202
-0.0126611
0.00668131
-0.013732
0.00732922
-0.0146346
0.00793958
-0.0154425
0.00852917
-0.0161722
0.00911609
-0.0168799
0.00970035
-0.0175407
0.0103065
-0.0181913
0.0109135
-0.0188466
0.0115582
-0.019405
0.0122178
-0.0201269
-0.0205736
0.0129088
-5.75537e-05
0.00270894
0.000145617
0.000789596
0.000669538
-0.000894705
0.00150934
-0.00378794
0.0024983
-0.00638304
0.00350156
-0.0087719
0.00442642
-0.0106646
0.00525001
-0.0121841
0.0059785
-0.0133896
0.00663453
-0.014388
0.0072428
-0.0152429
0.00782445
-0.0160241
0.0083947
-0.0167424
0.0089667
-0.0174518
0.00954109
-0.018115
0.0101381
-0.0187883
0.0107372
-0.0194456
0.0113766
-0.0200444
0.0120268
-0.020777
-0.0212587
0.0127118
-4.84977e-05
0.00275744
0.000200171
0.000540928
0.000805311
-0.00149984
0.00170714
-0.00468977
0.00269913
-0.00737503
0.00365921
-0.00973198
0.00452009
-0.0115255
0.0052783
-0.0129423
0.00595042
-0.0140617
0.00656262
-0.0150002
0.00713909
-0.0158193
0.00769779
-0.0165828
0.00825217
-0.0172968
0.00881105
-0.0180107
0.00937641
-0.0186804
0.00996383
-0.0193757
0.0105549
-0.0200367
0.0111879
-0.0206775
0.0118275
-0.0214167
-0.0219373
0.0125062
-3.76346e-05
0.00279507
0.000263082
0.000240211
0.000947769
-0.00218453
0.00189215
-0.00563415
0.00286728
-0.00835016
0.00377499
-0.0106397
0.00457268
-0.0123232
0.00527206
-0.0136417
0.00589621
-0.0146859
0.00647242
-0.0155764
0.007023
-0.0163699
0.00756279
-0.0171226
0.00810341
-0.0178374
0.00865019
-0.0185575
0.00920679
-0.019237
0.00978397
-0.0199529
0.0103669
-0.0206196
0.0109921
-0.0213027
0.0116202
-0.0220448
-0.0226093
0.0122922
-2.42132e-05
0.00281929
0.000334845
-0.000118847
0.00109301
-0.0029427
0.00205888
-0.00660002
0.00300208
-0.00929336
0.0038533
-0.0114909
0.00459125
-0.0130611
0.00523879
-0.0142892
0.00582238
-0.0152695
0.00636883
-0.0161229
0.00689784
-0.0168989
0.00742147
-0.0176463
0.00794949
-0.0183655
0.00848474
-0.0190928
0.00903244
-0.0197847
0.00959864
-0.0205191
0.0101732
-0.0211942
0.0107893
-0.0219188
0.011405
-0.0226605
-0.0232745
0.0120702
-7.1206e-06
0.00282641
0.000415127
-0.000541095
0.00123638
-0.00376394
0.00220371
-0.00756735
0.0031049
-0.0101946
0.00389912
-0.0122851
0.00458212
-0.0137441
0.00518451
-0.0148916
0.00573381
-0.0158188
0.00625535
-0.0166444
0.00676586
-0.0174094
0.00727509
-0.0181555
0.00779109
-0.0188815
0.00831507
-0.0196167
0.00885346
-0.0203231
0.00940794
-0.0210736
0.00997406
-0.0217603
0.0105794
-0.0225241
0.0111818
-0.0232629
-0.0239332
0.0118405
1.30386e-05
0.00281337
0.000502786
-0.00103084
0.00137308
-0.00463424
0.002325
-0.00851928
0.00317836
-0.0110479
0.00391737
-0.0130241
0.00455072
-0.0143775
0.005114
-0.0154549
0.00563414
-0.0163389
0.00613438
-0.0171446
0.00662851
-0.0179036
0.00712443
-0.0186514
0.00762861
-0.0193856
0.0081414
-0.0201295
0.00866983
-0.0208515
0.00921209
-0.0216159
0.0097696
-0.0223178
0.0103623
-0.0231168
0.010951
-0.0238516
-0.0245851
0.0116029
3.73373e-05
0.00277603
0.000596047
-0.00158955
0.00149888
-0.00553707
0.0024227
-0.00944309
0.00322563
-0.0118508
0.00391258
-0.0137111
0.00450153
-0.0149664
0.00503094
-0.0159843
0.00552602
-0.016834
0.0060076
-0.0176262
0.00648677
-0.0183827
0.00696999
-0.0191346
0.0074623
-0.0198779
0.00796385
-0.0206311
0.0084816
-0.0213693
0.00901145
-0.0221457
0.00956003
-0.0228664
0.010138
-0.0236948
0.010713
-0.0244267
-0.0252292
0.0113571
6.62367e-05
0.00270979
0.000692681
-0.002216
0.00161067
-0.00645506
0.00249783
-0.0103303
0.00325002
-0.012603
0.0038887
-0.0143498
0.0044382
-0.0155159
0.00493817
-0.0164843
0.00541134
-0.0173072
0.00587617
-0.0180911
0.00634127
-0.0188478
0.00681205
-0.0196054
0.00729235
-0.0203582
0.0077825
-0.0211212
0.00828882
-0.0218756
0.0088063
-0.0226632
0.00934537
-0.0234054
0.00990628
-0.0242557
0.0104681
-0.0249885
-0.0258618
0.0111007
9.89591e-05
0.00261084
0.000790095
-0.00290713
0.00170666
-0.00737163
0.00255208
-0.0111757
0.00325473
-0.0133057
0.00384913
-0.0149442
0.00436363
-0.0160304
0.0048378
-0.0169585
0.0052915
-0.0177609
0.00574086
-0.0185404
0.00619243
-0.0192994
0.00665082
-0.0200638
0.0071189
-0.0208263
0.00759738
-0.0215997
0.00809159
-0.0223698
0.00859682
-0.0231684
0.00912521
-0.0239338
0.00966754
-0.024798
0.0102149
-0.0255359
-0.0264874
0.0108406
0.000134366
0.00247647
0.000885407
-0.00365817
0.00178628
-0.0082725
0.0025874
-0.0119768
0.00324258
-0.0139609
0.00379664
-0.0154982
0.00428003
-0.0165138
0.00473132
-0.0174098
0.00516731
-0.0181968
0.00560205
-0.0189752
0.00604034
-0.0197377
0.00648623
-0.0205097
0.00694184
-0.0212819
0.00740826
-0.0220661
0.00788981
-0.0228514
0.00838279
-0.0236614
0.00889901
-0.0244501
0.00942444
-0.0253234
0.00996705
-0.0260785
-0.0270747
0.0105544
0.000171126
0.00230534
0.000975682
-0.00446273
0.0018499
-0.00914672
0.00260592
-0.0127328
0.00321627
-0.0145712
0.00373375
-0.0160157
0.0041894
-0.0169694
0.00462015
-0.0178405
0.00503975
-0.0186164
0.00546042
-0.0193958
0.00588555
-0.0201628
0.00631878
-0.0209429
0.00676167
-0.0217248
0.00721568
-0.0225201
0.00768415
-0.0233198
0.00816468
-0.0241419
0.00866733
-0.0249527
0.0091777
-0.0258338
0.00972158
-0.0266224
-0.0276236
0.0102705
0.000208091
0.00209725
0.00105823
-0.00531287
0.00189837
-0.00998686
0.00260959
-0.013444
0.00317799
-0.0151396
0.0036623
-0.0165
0.00409305
-0.0174002
0.00450506
-0.0182525
0.00490917
-0.0190206
0.00531608
-0.0198027
0.00572803
-0.0205748
0.00614837
-0.0213633
0.00657827
-0.0221547
0.00701945
-0.0229613
0.0074745
-0.0237749
0.00794211
-0.0246095
0.00843033
-0.0254409
0.00892916
-0.0263326
0.00945762
-0.0271508
-0.0281548
0.00998875
0.000244647
0.00185261
0.00113102
-0.00619924
0.00193283
-0.0107887
0.00260028
-0.0141115
0.00312967
-0.015669
0.00358386
-0.0169542
0.00399205
-0.0178084
0.00438669
-0.0186471
0.00477593
-0.0194098
0.00516921
-0.020196
0.00556787
-0.0209735
0.00597508
-0.0217705
0.0063917
-0.0225713
0.00681966
-0.0233893
0.00726094
-0.0242162
0.00771512
-0.0250637
0.00818904
-0.0259149
0.00867344
-0.026817
0.00918851
-0.0276659
-0.0286784
0.00971218
0.000280876
0.00157173
0.00119292
-0.00711128
0.00195458
-0.0115503
0.00257968
-0.0147366
0.00307292
-0.0161622
0.0034997
-0.017381
0.00388725
-0.0181959
0.00426553
-0.0190254
0.00464029
-0.0197846
0.00501996
-0.0205757
0.00540517
-0.0213587
0.00579898
-0.0221643
0.00620203
-0.0229744
0.00661639
-0.0238036
0.00704357
-0.0246434
0.00748394
-0.0255041
0.00794265
-0.0263736
0.00841383
-0.0272882
0.00891286
-0.0281649
-0.0291852
0.00941966
0.000317488
0.00125424
0.00124369
-0.00803748
0.00196493
-0.0122716
0.00254934
-0.015321
0.00300913
-0.016622
0.00341085
-0.0177827
0.00377929
-0.0185644
0.00414193
-0.0193881
0.00450245
-0.0201451
0.00486845
-0.0209417
0.00524003
-0.0217302
0.00562017
-0.0225444
0.00600936
-0.0233636
0.00640974
-0.024204
0.00682251
-0.0250561
0.00724849
-0.0259301
0.00769216
-0.0268172
0.00814815
-0.0277442
0.00863076
-0.0286475
-0.0296788
0.00912439
0.000355546
0.000898696
0.00128375
-0.00896569
0.00196519
-0.012953
0.00251062
-0.0158664
0.00293946
-0.0170509
0.00331811
-0.0181614
0.00366866
-0.0189149
0.00401618
-0.0197356
0.00436254
-0.0204914
0.00471477
-0.0212939
0.0050725
-0.022088
0.00543872
-0.0229106
0.00581375
-0.0237386
0.00619981
-0.0245901
0.00659781
-0.0254541
0.0070091
-0.0263414
0.0074369
-0.027245
0.00787791
-0.0281852
0.00834405
-0.0291137
-0.0301542
0.00881939
0.000396106
0.000502589
0.00131393
-0.00988351
0.00195651
-0.0135956
0.00246471
-0.0163746
0.00286487
-0.017451
0.00322215
-0.0185187
0.00355574
-0.0192485
0.00388847
-0.0200683
0.0042207
-0.0208237
0.00455901
-0.0216322
0.00490269
-0.0224317
0.00525471
-0.0232627
0.00561531
-0.0240992
0.0059867
-0.0249615
0.00636963
-0.025837
0.00676569
-0.0267374
0.00717759
-0.0276569
0.00760264
-0.0286103
0.00805102
-0.0295621
-0.0306132
0.00851008
0.000439845
6.27446e-05
0.00133519
-0.0107788
0.00193993
-0.0142003
0.00241263
-0.0168473
0.00278616
-0.0178246
0.00312347
-0.018856
0.00344083
-0.0195659
0.00375897
-0.0203864
0.00407703
-0.0211417
0.00440125
-0.0219564
0.00473066
-0.0227611
0.00506824
-0.0236002
0.00541411
-0.0244451
0.00577052
-0.0253179
0.00613804
-0.0262046
0.00651857
-0.027118
0.00691393
-0.0280523
0.00732272
-0.029019
0.00775364
-0.029993
-0.0310537
0.00819409
0.000486752
-0.000424008
0.00134843
-0.0116405
0.00191636
-0.0147683
0.00235528
-0.0172863
0.00270401
-0.0181733
0.0030225
-0.0191744
0.00332416
-0.0198675
0.00362781
-0.0206901
0.00393163
-0.0214456
0.00424159
-0.0222664
0.00455651
-0.023076
0.00487938
-0.0239231
0.00521027
-0.024776
0.00555137
-0.025659
0.0059032
-0.0265564
0.00626771
-0.0274825
0.00664635
-0.0284309
0.00703836
-0.029411
0.00745066
-0.0304053
-0.0314763
0.00787327
0.000535948
-0.000959955
0.0013544
-0.012459
0.00188655
-0.0153004
0.00229341
-0.0176931
0.00261896
-0.0184988
0.00291956
-0.019475
0.00320592
-0.0201539
0.00349511
-0.0209793
0.00378458
-0.021735
0.00408009
-0.0225619
0.00438031
-0.0233762
0.00468825
-0.024231
0.00500388
-0.0250916
0.00532938
-0.0259845
0.0056652
-0.0268922
0.00601337
-0.0278306
0.00637484
-0.0287924
0.00674957
-0.0297858
0.00714344
-0.0307991
-0.0318799
0.00754706
0.000585692
-0.00154565
0.00135371
-0.013227
0.00185116
-0.0157979
0.00222767
-0.0180696
0.00253147
-0.0188026
0.00281492
-0.0197585
0.00308626
-0.0204253
0.00336097
-0.021254
0.00363596
-0.02201
0.00391685
-0.0228428
0.00420216
-0.0236615
0.00449493
-0.0245238
0.00479504
-0.0253917
0.00510466
-0.0262941
0.00542418
-0.0272117
0.00575561
-0.0281621
0.00609964
-0.0291364
0.00645675
-0.0301429
0.00683134
-0.0311737
-0.0322646
0.00721605
0.000633565
-0.00217921
0.0013468
-0.0139402
0.00181074
-0.0162618
0.0021586
-0.0184175
0.00244191
-0.0190859
0.0027088
-0.0200254
0.00296531
-0.0206818
0.00322547
-0.0215141
0.00348587
-0.0222704
0.00375194
-0.0231089
0.00402216
-0.0239317
0.00429952
-0.0248012
0.00458387
-0.0256761
0.00487734
-0.0265876
0.00518026
-0.0275146
0.00549463
-0.0284764
0.00582088
-0.0294627
0.00615987
-0.0304819
0.00651519
-0.031529
-0.0326298
0.00688034
0.000676859
-0.00285607
0.00133405
-0.0145974
0.00176579
-0.0166935
0.00208667
-0.0187384
0.00235061
-0.0193499
0.00260138
-0.0202762
0.00284318
-0.0209236
0.0030887
-0.0217597
0.00333437
-0.0225161
0.00358546
-0.02336
0.00384038
-0.0241867
0.00410213
-0.0250629
0.00437048
-0.0259444
0.00464753
-0.0268646
0.00493359
-0.0278007
0.00523056
-0.0287734
0.00553874
-0.0297709
0.00585932
-0.0308025
0.00619478
-0.0318645
-0.0329752
0.00654016
0.000713095
-0.00356917
0.00131583
-0.0152001
0.0017168
-0.0170945
0.0020123
-0.0190339
0.00225781
-0.0195954
0.0024928
-0.0205111
0.00271995
-0.0211507
0.00295075
-0.0219905
0.00318157
-0.0227469
0.0034175
-0.0235959
0.00365694
-0.0244261
0.00390287
-0.0253089
0.004155
-0.0261965
0.00441539
-0.027125
0.0046843
-0.0280696
0.00496359
-0.0290527
0.0052534
-0.0300607
0.00555512
-0.0311042
0.00587062
-0.03218
-0.0333004
0.00619581
0.000740506
-0.00430967
0.00129251
-0.0157522
0.00166423
-0.0174662
0.00193583
-0.0193055
0.00216375
-0.0198233
0.0023832
-0.0207306
0.00259574
-0.0213633
0.0028117
-0.0222064
0.00302753
-0.0229627
0.00324813
-0.0238165
0.00347194
-0.0246499
0.00370184
-0.0255388
0.00393753
-0.0264322
0.00418102
-0.0273685
0.00443254
-0.0283211
0.00469385
-0.029314
0.00496502
-0.0303318
0.00524761
-0.0313868
0.00554272
-0.0324751
-0.033605
0.00584742
0.000758326
-0.005068
0.00126455
-0.0162584
0.00160852
-0.0178102
0.00185758
-0.0195545
0.00206861
-0.0200343
0.0022727
-0.0209347
0.00247061
-0.0215612
0.00267162
-0.0224074
0.00287235
-0.0231635
0.00307747
-0.0240216
0.00328546
-0.0248579
0.00349916
-0.0257525
0.00371821
-0.0266513
0.00394458
-0.0275949
0.00417846
-0.028555
0.00442152
-0.0295571
0.0046738
-0.0305841
0.00493688
-0.0316499
0.00521144
-0.0327497
-0.0338889
0.00549533
0.000766797
-0.0058348
0.00123242
-0.016724
0.0015501
-0.0181279
0.00177781
-0.0197822
0.00197254
-0.0202291
0.00216138
-0.0211235
0.00234465
-0.0217444
0.0025306
-0.0225934
0.00271611
-0.023349
0.0029056
-0.0242111
0.00309763
-0.0250499
0.00329495
-0.0259498
0.00349717
-0.0268535
0.00370621
-0.0278039
0.00392222
-0.028771
0.00414678
-0.0297816
0.00437991
-0.0308173
0.00462322
-0.0318932
0.00487691
-0.0330034
-0.0341517
0.00513969
0.00076692
-0.00660171
0.00119666
-0.0171537
0.00148937
-0.0184206
0.00169677
-0.0199896
0.00187568
-0.020408
0.00204934
-0.0212972
0.00221794
-0.021913
0.00238872
-0.0227642
0.0025589
-0.0235192
0.00273262
-0.0243848
0.00290855
-0.0252259
0.00308931
-0.0261305
0.00327452
-0.0270387
0.00346603
-0.0279954
0.00366397
-0.028969
0.0038698
-0.0299875
0.00408356
-0.031031
0.00430677
-0.0321164
0.00453943
-0.033236
-0.0343931
0.00478083
0.000760087
-0.0073618
0.00115774
-0.0175514
0.00142668
-0.0186895
0.00161466
-0.0201776
0.00177816
-0.0205715
0.00193667
-0.0214557
0.00209056
-0.0220669
0.00224605
-0.0229196
0.00240081
-0.0236739
0.00255863
-0.0245427
0.00271832
-0.0253855
0.00288237
-0.0262946
0.00305041
-0.0272068
0.00322421
-0.0281692
0.00340386
-0.0291486
0.00359075
-0.0301743
0.00378491
-0.0312252
0.00398781
-0.0323193
0.00419918
-0.0334474
-0.0346129
0.00441893
0.000747748
-0.00810955
0.00111611
-0.0179198
0.00136236
-0.0189358
0.00153168
-0.0203469
0.00168008
-0.0207199
0.00182345
-0.0215991
0.00196259
-0.0222061
0.0021027
-0.0230598
0.00224193
-0.0238131
0.00238374
-0.0246845
0.00252707
-0.0255289
0.00267426
-0.0264418
0.00282497
-0.0273575
0.00298089
-0.0283251
0.00314207
-0.0293098
0.00330983
-0.0303421
0.00348419
-0.0313995
0.00366651
-0.0325016
0.00385641
-0.0336373
-0.0348108
0.0040543
0.000731173
-0.00884072
0.00107216
-0.0182607
0.00129668
-0.0191603
0.00144798
-0.0204982
0.00158155
-0.0208534
0.00170976
-0.0217273
0.00183409
-0.0223304
0.00195873
-0.0231844
0.00208236
-0.0239368
0.00220803
-0.0248101
0.00233489
-0.0256557
0.00246509
-0.026572
0.00259834
-0.0274907
0.00273622
-0.028463
0.00287877
-0.0294523
0.0030272
-0.0304905
0.00318157
-0.0315539
0.00334312
-0.0326632
0.00351139
-0.0338055
-0.0349865
0.00368715
0.000711361
-0.00955208
0.00102624
-0.0185756
0.0012299
-0.019364
0.00136372
-0.020632
0.00148263
-0.0209724
0.00159567
-0.0218403
0.00170516
-0.0224399
0.00181423
-0.0232935
0.00192219
-0.0240447
0.00203162
-0.0249195
0.0021419
-0.025766
0.002255
-0.0266851
0.00237065
-0.0276064
0.00249035
-0.0285827
0.0026141
-0.0295761
0.00274306
-0.0306195
0.00287727
-0.0316881
0.00301786
-0.0328038
0.00316434
-0.033952
-0.03514
0.00331777
0.000689054
-0.0102411
0.00097869
-0.0188653
0.00116223
-0.0195475
0.00127902
-0.0207488
0.00138343
-0.0210768
0.00148127
-0.0219382
0.00157587
-0.0225345
0.00166929
-0.0233869
0.00176151
-0.024137
0.00185461
-0.0250126
0.00194822
-0.0258596
0.00204411
-0.026781
0.00214205
-0.0277043
0.00224343
-0.0286841
0.00234826
-0.0296809
0.00245759
-0.0307288
0.00257148
-0.031802
0.00269096
-0.0329232
0.0028155
-0.0340766
-0.0352709
0.0029464
0.000664788
-0.0109059
0.000929779
-0.0191303
0.00109387
-0.0197116
0.001194
-0.020849
0.00128402
-0.0211668
0.00136661
-0.0220207
0.00144629
-0.0226142
0.001524
-0.0234646
0.00160042
-0.0242134
0.00167711
-0.0250893
0.00175397
-0.0259365
0.00183254
-0.0268595
0.00191267
-0.0277844
0.00199563
-0.0287671
0.0020814
-0.0297667
0.00217098
-0.0308184
0.00226442
-0.0318954
0.00236263
-0.0330214
0.00246515
-0.0341791
-0.035379
0.00257329
0.000638957
-0.0115449
0.000879757
-0.0193711
0.00102499
-0.0198568
0.00110877
-0.0209327
0.00118448
-0.0212425
0.00125178
-0.022088
0.00131651
-0.0226789
0.00137844
-0.0235265
0.00143901
-0.024274
0.00149922
-0.0251495
0.00155927
-0.0259965
0.00162044
-0.0269207
0.00168267
-0.0278467
0.00174709
-0.0288315
0.00181371
-0.0298333
0.00188342
-0.0308881
0.00195627
-0.0319683
0.0020331
-0.0330983
0.00211352
-0.0342595
-0.0354642
0.00219874
0.000611858
-0.0121567
0.000828846
-0.019588
0.000955749
-0.0199837
0.00102341
-0.0210004
0.00108487
-0.021304
0.00113684
-0.02214
0.00118661
-0.0227287
0.0012327
-0.0235726
0.00127739
-0.0243186
0.00132105
-0.0251932
0.00136423
-0.0260397
0.00140793
-0.0269644
0.00145218
-0.0278909
0.00149799
-0.0288773
0.00154536
-0.0298807
0.0015951
-0.0309378
0.00164724
-0.0320204
0.00170257
-0.0331536
0.00176083
-0.0343178
-0.0355264
0.00182301
0.000583729
-0.0127405
0.00077724
-0.0197816
0.000886271
-0.0200928
0.000938018
-0.0210521
0.000985271
-0.0213512
0.00102187
-0.0221766
0.00105666
-0.0227635
0.00108688
-0.0236028
0.00111564
-0.0243474
0.00114272
-0.0252203
0.00116897
-0.026066
0.00119514
-0.0269906
0.00122135
-0.0279171
0.00124847
-0.0289044
0.00127652
-0.0299088
0.0013062
-0.0309675
0.00133756
-0.0320518
0.00137128
-0.0331873
0.00140725
-0.0343537
-0.0355654
0.00144621
0.000554766
-0.0132952
0.000725114
-0.0199519
0.000816682
-0.0201843
0.000852665
-0.0210881
0.000885749
-0.0213843
0.000906937
-0.0221978
0.000926752
-0.0227833
0.000941037
-0.0236171
0.000953887
-0.0243603
0.000964307
-0.0252307
0.000973631
-0.0260753
0.000982198
-0.0269991
0.000990337
-0.0279253
0.000998704
-0.0289128
0.00100738
-0.0299174
0.00101693
-0.0309771
0.00102745
-0.0320623
0.0010395
-0.0331994
0.00105288
-0.0343671
-0.0355811
0.00106864
0.000525134
-0.0138204
0.000672623
-0.0200994
0.000747089
-0.0202588
0.000767424
-0.0211085
0.000786373
-0.0214033
0.000792105
-0.0222035
0.000796969
-0.0227882
0.000795266
-0.0236154
0.000792226
-0.0243572
0.000785933
-0.0252244
0.00077832
-0.0260677
0.000769247
-0.0269901
0.000759275
-0.0279153
0.000748854
-0.0289024
0.000738094
-0.0299067
0.000727471
-0.0309665
0.000717117
-0.032052
0.000707561
-0.0331898
0.000697995
-0.0343575
-0.0355735
0.000690402
0.000494955
-0.0143153
0.000619855
-0.0202243
0.000677526
-0.0203165
0.000682271
-0.0211132
0.000687114
-0.0214081
0.000677304
-0.0221937
0.000667262
-0.0227781
0.000649473
-0.0235976
0.000630565
-0.0243383
0.000607504
-0.0252013
0.000582901
-0.0260431
0.000556164
-0.0269633
0.00052801
-0.0278871
0.00049878
-0.0288731
0.000468494
-0.0298764
0.000437638
-0.0309356
0.000406325
-0.0320206
0.0003752
-0.0331587
0.000342923
-0.0343253
-0.0355412
0.000310629
0.000464401
-0.0147797
0.000567024
-0.0203269
0.000608213
-0.0203577
0.000597432
-0.0211024
0.000588259
-0.0213989
0.000562836
-0.0221683
0.000538014
-0.0227533
0.000504093
-0.0235637
0.000469354
-0.0243036
0.000429592
-0.0251616
0.000387934
-0.0260014
0.000343631
-0.026919
0.000297263
-0.0278408
0.000249269
-0.0288251
0.000199448
-0.0298266
0.000148381
-0.0308845
9.60796e-05
-0.0319683
4.27267e-05
-0.0331053
-9.02794e-06
-0.0342735
-0.0354805
-6.97624e-05
0.000433564
-0.0152133
0.000514189
-0.0204075
0.000539169
-0.0203826
0.000512861
-0.0210761
0.00048979
-0.0213759
0.000448627
-0.0221271
0.000409149
-0.0227138
0.000359062
-0.0235136
0.000308474
-0.024253
0.000252061
-0.0251052
0.000193355
-0.0259427
0.0001314
-0.0268571
6.70136e-05
-0.0277764
-4.31918e-07
-0.0287577
-6.91514e-05
-0.0297578
-0.000140444
-0.0308132
-0.000213594
-0.0318952
-0.000288045
-0.0330309
-0.000365972
-0.0341956
-0.0354012
-0.000445321
0.000402541
-0.0156158
0.00046144
-0.0204664
0.000470477
-0.0203917
0.000428589
-0.0210342
0.000391786
-0.0213391
0.000334739
-0.0220701
0.000280752
-0.0226598
0.000214365
-0.0234472
0.00014825
-0.0241869
7.45345e-05
-0.0250315
5.48082e-07
-0.0258687
-8.02522e-05
-0.0267763
-0.000162834
-0.0276938
-0.000248388
-0.0286721
-0.000337234
-0.029669
-0.000428638
-0.0307218
-0.000522615
-0.0318012
-0.00061902
-0.0329345
-0.000720064
-0.0340945
-0.0352996
-0.000821658
0.000371423
-0.0159873
0.000408853
-0.0205039
0.000402219
-0.0203851
0.00034464
-0.0209766
0.000294323
-0.0212887
0.000221159
-0.0219969
0.00015314
-0.0225918
6.9359e-05
-0.0233634
-9.88264e-06
-0.0241076
-0.000101515
-0.0249398
-0.000194221
-0.025776
-0.000290854
-0.0266796
-0.000391868
-0.0275928
-0.000496233
-0.0285678
-0.00060447
-0.0295608
-0.000716049
-0.0306103
-0.000830924
-0.0316863
-0.000949459
-0.0328159
-0.00107272
-0.0339713
-0.0351748