/*--------------------------------*- C++ -*----------------------------------*\
  =========                 |
  \\      /  F ield         | OpenFOAM: The Open Source CFD Toolbox
   \\    /   O peration     | Website:  https://openfoam.org
    \\  /    A nd           | Version:  7
     \\/     M anipulation  |
\*---------------------------------------------------------------------------*/
FoamFile
{
    version     2.0;
    format      ascii;
    class       volVectorField;
    location    "34";
    object      U;
}
// * * * * * * * * * * * * * * * * * * * * * * * * * * * * * * * * * * * * * //

dimensions      [0 1 -1 0 0 0 0];

internalField   nonuniform List<vector> 
15200
(
(-0.142427 0.00767624 -6.46547e-20)
(-0.199458 0.00365677 -4.4105e-20)
(-0.249695 0.00423167 -8.43905e-20)
(-0.286674 0.00292517 -5.4873e-20)
(-0.299814 0.0025429 5.04207e-20)
(-0.315957 0.00139539 -4.87347e-20)
(-0.316853 3.43171e-05 -1.98521e-20)
(-0.312233 -0.00206847 4.05321e-20)
(-0.298701 -0.00353026 9.12882e-21)
(-0.264205 -0.00639497 -2.71612e-21)
(-0.22852 -0.00724956 -4.56834e-21)
(-0.179755 -0.0109601 -5.73688e-21)
(-0.0899778 -0.0140132 1.21841e-20)
(-0.0432343 -0.0143721 -3.64254e-21)
(0.0648609 -0.0176046 -4.22772e-21)
(-0.142995 0.023039 -1.07718e-19)
(-0.19733 0.0107498 -2.01872e-19)
(-0.244304 0.0120201 2.31734e-19)
(-0.276816 0.00757387 -9.73931e-20)
(-0.283965 0.00635483 -2.13676e-20)
(-0.292083 0.00350663 1.08643e-19)
(-0.282713 0.000367226 -1.14616e-20)
(-0.26437 -0.00501145 4.78831e-20)
(-0.236812 -0.00940403 -1.27688e-20)
(-0.18048 -0.0184272 5.49364e-21)
(-0.129776 -0.0218928 1.53175e-20)
(-0.0585107 -0.0350303 1.21953e-21)
(0.0513387 -0.0393257 -2.75429e-21)
(0.100811 -0.0447888 2.20008e-21)
(0.243919 -0.0506883 -8.34169e-21)
(-0.144132 0.0380856 3.08332e-19)
(-0.193137 0.0175115 2.84561e-19)
(-0.233651 0.0194871 -3.60692e-20)
(-0.257374 0.0118452 2.64159e-19)
(-0.252947 0.00964498 -2.47171e-19)
(-0.245889 0.00492116 1.01372e-19)
(-0.217781 -0.000327635 3.64965e-20)
(-0.174969 -0.00878097 -4.27477e-23)
(-0.12439 -0.0173366 -7.63519e-20)
(-0.0336159 -0.0307892 -6.19709e-20)
(0.0394601 -0.0364753 7.90764e-20)
(0.142334 -0.0597153 1.92869e-20)
(0.272948 -0.0594816 -1.29161e-20)
(0.327951 -0.069835 -1.01568e-20)
(0.494345 -0.0771719 8.52341e-21)
(-0.145831 0.0526149 -3.30245e-19)
(-0.186964 0.0237258 1.91883e-19)
(-0.217919 0.0264264 4.55934e-20)
(-0.228734 0.0155362 -1.99277e-19)
(-0.207751 0.0121737 3.12137e-19)
(-0.179535 0.00543752 -1.24023e-19)
(-0.126505 -0.00233738 -4.75382e-20)
(-0.0525548 -0.0131092 2.44882e-19)
(0.0262555 -0.027164 1.90227e-19)
(0.151263 -0.0432809 7.38379e-20)
(0.247712 -0.0495892 -2.75296e-20)
(0.377021 -0.0787989 -6.04656e-20)
(0.508329 -0.0766111 2.60793e-20)
(0.574919 -0.0864119 3.32907e-20)
(0.726009 -0.0918607 -3.83211e-20)
(-0.148077 0.066438 6.15489e-19)
(-0.17892 0.0291824 -3.9027e-19)
(-0.197319 0.0326373 -6.1307e-19)
(-0.191232 0.0185057 -9.3379e-20)
(-0.149248 0.0138222 -3.53325e-19)
(-0.0948064 0.00514169 -1.67002e-19)
(-0.0123263 -0.00560831 1.27474e-19)
(0.0950811 -0.0178666 -2.62382e-19)
(0.205424 -0.0357672 -1.34603e-19)
(0.354537 -0.0548007 -1.5753e-20)
(0.470195 -0.0609142 -9.99459e-20)
(0.6086 -0.0891593 4.37077e-20)
(0.720747 -0.087225 -9.85728e-20)
(0.789857 -0.0950618 -3.36381e-20)
(0.896186 -0.0950742 9.22208e-20)
(-0.15085 0.0793826 -4.22158e-19)
(-0.169107 0.0336808 8.80104e-20)
(-0.17203 0.0379174 6.24089e-19)
(-0.144935 0.0206941 2.31466e-19)
(-0.0777697 0.0146231 8.38747e-20)
(0.00742304 0.00435732 2.3215e-19)
(0.122827 -0.00910902 -4.339e-20)
(0.262054 -0.0229018 -8.57158e-20)
(0.402092 -0.0409405 -7.8956e-20)
(0.560081 -0.0620067 6.8987e-20)
(0.683312 -0.0682349 1.3e-19)
(0.805634 -0.0913102 1.09059e-19)
(0.888678 -0.0900452 3.87924e-20)
(0.94096 -0.0954665 -2.32759e-22)
(0.994929 -0.0907518 -9.66775e-21)
(-0.154117 0.091295 -2.96439e-19)
(-0.157586 0.0370383 -1.10579e-19)
(-0.142119 0.0420516 -5.57009e-19)
(-0.089425 0.0221589 1.991e-19)
(0.00716524 0.014861 -2.15719e-19)
(0.127193 0.00358615 2.00967e-19)
(0.276819 -0.0111216 9.05938e-20)
(0.441988 -0.0262817 9.36504e-20)
(0.600115 -0.0424386 2.11912e-19)
(0.750424 -0.063122 1.05993e-20)
(0.861279 -0.0694043 -7.76165e-20)
(0.949537 -0.0872541 -1.89358e-20)
(0.999422 -0.086334 1.18527e-19)
(1.02361 -0.0902984 -5.00978e-20)
(1.03906 -0.0836376 -4.81904e-20)
(-0.157834 0.10204 -1.4549e-19)
(-0.144321 0.0391041 1.69015e-19)
(-0.10742 0.0447949 6.00097e-20)
(-0.023608 0.0231265 2.5338e-19)
(0.106856 0.0150873 1.83675e-19)
(0.264297 0.00382032 -6.96343e-19)
(0.444383 -0.0103437 9.38926e-20)
(0.623767 -0.0256248 1.00656e-19)
(0.780021 -0.0399833 -2.89385e-19)
(0.906051 -0.0588117 -4.12663e-20)
(0.987261 -0.0654721 -8.95221e-20)
(1.03776 -0.0797689 3.30791e-20)
(1.05771 -0.0790897 -4.67809e-20)
(1.05949 -0.0832464 -6.49272e-21)
(1.05616 -0.076175 2.845e-20)
(-0.161938 0.111499 -4.87416e-20)
(-0.1291 0.0397878 -9.28046e-20)
(-0.0673219 0.0459058 8.62023e-19)
(0.0543253 0.0240902 -1.62456e-19)
(0.222692 0.0164452 9.23205e-20)
(0.415888 0.00650948 3.88629e-19)
(0.614713 -0.00599552 -1.89907e-19)
(0.790304 -0.0204972 -7.51612e-20)
(0.924412 -0.0341075 2.06138e-20)
(1.01508 -0.0512728 1.66428e-19)
(1.0626 -0.0588387 3.41105e-20)
(1.08302 -0.0712661 -1.71648e-19)
(1.08348 -0.0708978 1.24274e-20)
(1.07443 -0.0759038 4.19055e-20)
(1.06381 -0.0688706 -8.61659e-20)
(-0.166347 0.119558 -9.72513e-19)
(-0.111438 0.0391069 -5.96195e-19)
(-0.0204505 0.0454334 -3.9521e-19)
(0.146738 0.0257626 3.19322e-19)
(0.354224 0.0205042 -2.50662e-19)
(0.573711 0.0127013 1.8953e-19)
(0.772442 0.00173067 1.91102e-19)
(0.925481 -0.012423 9.72996e-20)
(1.02546 -0.0265139 3.14365e-19)
(1.08092 -0.0427211 -1.64889e-19)
(1.10184 -0.0513732 -1.53041e-19)
(1.10376 -0.0628324 1.11814e-19)
(1.09455 -0.0627349 -9.15598e-20)
(1.08107 -0.0685981 1.98979e-19)
(1.06742 -0.0617931 6.59778e-20)
(-0.170958 0.126094 1.84265e-18)
(-0.0904224 0.0372248 -1.29534e-19)
(0.0356314 0.0439181 -2.7813e-19)
(0.255097 0.0292156 -6.91078e-19)
(0.496478 0.0283442 3.98426e-19)
(0.724324 0.0221657 8.0913e-19)
(0.903313 0.0114082 -5.23071e-19)
(1.02252 -0.00344899 2.82021e-19)
(1.08812 -0.018714 -2.36141e-19)
(1.11657 -0.03431 -3.26343e-19)
(1.12053 -0.0439048 1.86713e-19)
(1.11266 -0.0546328 2.13101e-20)
(1.09884 -0.0549313 -3.0923e-19)
(1.08357 -0.0615337 -1.80553e-19)
(1.06909 -0.0550297 -7.03797e-20)
(-0.175646 0.130943 -4.7956e-19)
(-0.0645177 0.0343827 5.03357e-19)
(0.104578 0.0427882 -3.26496e-20)
(0.377938 0.0356288 1.21683e-20)
(0.638939 0.0397531 -6.06686e-19)
(0.85424 0.0333421 -7.05009e-19)
(1.00095 0.02126 6.59349e-19)
(1.08555 0.00507168 -2.2304e-19)
(1.1238 -0.0112946 -1.28681e-19)
(1.13432 -0.0263302 2.35477e-20)
(1.12834 -0.0366965 -6.27482e-20)
(1.11553 -0.0467109 8.1278e-20)
(1.09977 -0.0476963 1.55916e-19)
(1.08432 -0.0547815 1.69834e-19)
(1.07 -0.0485899 1.19094e-19)
(-0.180288 0.133843 6.29517e-19)
(-0.0313208 0.0310917 -6.29675e-20)
(0.190093 0.0446049 6.21687e-19)
(0.508925 0.0453976 3.09546e-20)
(0.76907 0.0531227 -2.19005e-19)
(0.956218 0.0443938 8.01295e-19)
(1.068 0.0302366 -6.03036e-20)
(1.12369 0.0127433 -1.5055e-21)
(1.14258 -0.00430652 5.00514e-19)
(1.14185 -0.0188477 1.78109e-19)
(1.13036 -0.0298628 6.92498e-20)
(1.11547 -0.0391133 3.58558e-20)
(1.09929 -0.0410568 2.80992e-19)
(1.08429 -0.0482928 -1.38747e-19)
(1.0704 -0.0424839 -3.7463e-20)
(-0.184766 0.134361 8.89295e-19)
(0.012427 0.0285588 1.00447e-18)
(0.293095 0.0519101 -5.10032e-19)
(0.637715 0.0577118 9.76389e-19)
(0.878102 0.0665315 -9.75153e-20)
(1.03073 0.0542519 -9.14156e-19)
(1.11142 0.038132 -5.51712e-19)
(1.14526 0.0196223 2.13016e-19)
(1.15116 0.00228404 -7.72376e-20)
(1.1437 -0.0118907 -5.30501e-20)
(1.12949 -0.0233916 -2.71733e-19)
(1.11405 -0.0318424 -2.82817e-19)
(1.09806 -0.0349822 -2.65225e-19)
(1.08378 -0.0420153 -6.4803e-20)
(1.07046 -0.036785 1.10044e-20)
(-0.188965 0.13181 -2.22043e-18)
(0.0704661 0.0289249 -1.78143e-18)
(0.408816 0.0653624 3.49165e-20)
(0.754289 0.071023 -6.43582e-19)
(0.963629 0.0788025 -9.6594e-19)
(1.08254 0.0626864 8.41014e-19)
(1.13808 0.0450887 9.79245e-20)
(1.15621 0.0258372 1.42808e-19)
(1.15373 0.00851085 3.69129e-21)
(1.14249 -0.0054398 1.9561e-21)
(1.12721 -0.0172116 4.54058e-19)
(1.11192 -0.0249373 2.45615e-19)
(1.09645 -0.0294274 2.02789e-19)
(1.08302 -0.0358947 7.6404e-20)
(1.07028 -0.0315496 1.28278e-19)
(-0.192744 0.125284 -3.10575e-19)
(0.145695 0.0349139 1.41309e-18)
(0.527404 0.082999 -2.0717e-19)
(0.852877 0.0839066 1.20561e-18)
(1.02779 0.0895999 9.19454e-19)
(1.11717 0.069842 -6.96661e-19)
(1.15328 0.0512892 -3.14304e-20)
(1.16051 0.0315152 -1.98268e-19)
(1.15285 0.0144052 -1.54185e-20)
(1.1397 0.000548462 -3.33745e-20)
(1.12425 -0.0112578 -2.6983e-19)
(1.10944 -0.0184505 -2.36041e-19)
(1.09464 -0.0243084 -2.46675e-19)
(1.08206 -0.0298943 -2.00794e-19)
(1.06983 -0.0267576 -5.81664e-20)
(-0.195838 0.11387 1.56481e-18)
(0.237845 0.0483346 6.7066e-19)
(0.638536 0.101772 -1.46692e-19)
(0.932352 0.095529 -1.84976e-18)
(1.0744 0.0990169 -2.52526e-19)
(1.13929 0.075939 -1.73257e-19)
(1.16084 0.0568956 -1.10455e-19)
(1.16074 0.0367631 -1.32519e-19)
(1.15004 0.0199867 -7.18064e-20)
(1.13612 0.00613538 -1.30852e-20)
(1.12098 -0.00548867 7.42776e-22)
(1.10674 -0.0124396 1.05881e-19)
(1.09269 -0.0195224 1.5098e-19)
(1.08089 -0.0239432 1.24678e-19)
(1.06911 -0.0224239 -8.4805e-20)
(-0.197547 0.0970709 -1.61908e-18)
(0.341929 0.0681628 -5.03126e-19)
(0.735738 0.119563 1.10439e-18)
(0.994399 0.10562 5.5949e-19)
(1.1073 0.107273 6.37013e-19)
(1.15252 0.0811857 5.44393e-19)
(1.16338 0.0620399 6.364e-19)
(1.15854 0.0416592 -1.00925e-19)
(1.14618 0.0252725 5.13168e-19)
(1.13218 0.0113906 -3.9969e-20)
(1.11755 9.12965e-05 -1.99812e-19)
(1.10392 -0.00694825 1.38738e-19)
(1.09067 -0.0148939 4.98767e-20)
(1.07947 -0.0180089 1.07482e-19)
(1.06811 -0.0186266 9.55646e-20)
(-0.196308 0.0755744 3.51442e-19)
(0.449748 0.0902592 -2.55963e-19)
(0.817048 0.13555 1.0317e-18)
(1.04174 0.114221 7.57865e-19)
(1.12974 0.114587 -2.42358e-19)
(1.15954 0.0857573 1.03432e-19)
(1.16269 0.0668261 -5.70962e-19)
(1.15491 0.0462577 7.28511e-20)
(1.14179 0.0302821 -4.27858e-19)
(1.12808 0.0163721 1.8908e-19)
(1.11404 0.00544171 1.50188e-19)
(1.10106 -0.00194625 -1.03157e-19)
(1.08856 -0.010233 -1.81464e-19)
(1.07777 -0.0121932 6.9677e-21)
(1.0669 -0.0155943 2.01856e-20)
(-0.189506 0.051975 -1.71585e-19)
(0.553679 0.109659 -6.04198e-19)
(0.883379 0.149579 -2.38996e-18)
(1.07715 0.121473 -7.76344e-19)
(1.14433 0.121144 -4.63947e-19)
(1.16226 0.0897961 -9.42608e-19)
(1.15996 0.0713346 3.00492e-19)
(1.15048 0.0505941 -1.88136e-20)
(1.13714 0.0350381 2.31287e-19)
(1.12394 0.0211171 -2.5888e-19)
(1.11049 0.0105208 4.02808e-20)
(1.09819 0.00266686 -8.87747e-20)
(1.08636 -0.00542795 -1.36426e-20)
(1.07585 -0.00682829 -4.79867e-20)
(1.06564 -0.0133577 2.19109e-20)
(-0.173538 0.0309455 1.71108e-19)
(0.649532 0.123517 6.13375e-19)
(0.936951 0.161841 9.64614e-19)
(1.10308 0.127559 7.62168e-19)
(1.15305 0.127101 4.68197e-19)
(1.16205 0.0934172 2.48407e-19)
(1.15596 0.0756255 -3.8003e-19)
(1.14563 0.0546922 7.80822e-20)
(1.13239 0.0395637 -2.58621e-19)
(1.11979 0.0256428 2.71015e-19)
(1.10692 0.0153074 1.27303e-19)
(1.09531 0.00702247 -1.81561e-19)
(1.08407 -0.000555828 5.93034e-20)
(1.07389 -0.00231993 -6.34819e-20)
(1.0643 -0.0123107 -2.23263e-20)
(-0.144208 0.0188112 -2.94022e-19)
(0.736436 0.132077 2.75326e-19)
(0.980272 0.172815 -2.64895e-18)
(1.12152 0.13268 -7.29996e-19)
(1.15741 0.132585 -5.65383e-19)
(1.15988 0.0967119 5.08903e-19)
(1.15121 0.0797424 5.25916e-19)
(1.14056 0.0585693 -1.48852e-19)
(1.12761 0.0438797 4.51104e-19)
(1.11565 0.0299535 -1.51999e-19)
(1.10336 0.0198118 -1.48733e-19)
(1.09241 0.0112071 1.51943e-19)
(1.08169 0.00414811 -1.2008e-20)
(1.07201 0.000945344 -6.14331e-20)
(1.06299 -0.00620152 -1.0581e-19)
(-0.0975346 0.0225899 -3.27963e-19)
(0.814838 0.137528 5.68287e-19)
(1.0155 0.183103 6.94609e-19)
(1.13409 0.137033 6.73633e-19)
(1.15852 0.137698 1.29782e-18)
(1.15641 0.099749 1.9072e-19)
(1.146 0.0837138 -5.15483e-19)
(1.1354 0.0622371 8.40327e-20)
(1.12283 0.0480009 -1.51633e-19)
(1.11153 0.0340491 -2.01484e-19)
(1.0998 0.0240583 -1.53461e-19)
(1.0895 0.0152331 -5.36224e-20)
(1.07927 0.00839096 -3.02417e-20)
(1.07016 0.00509381 5.61736e-20)
(1.06144 -0.00307987 1.31939e-19)
(-0.0310888 0.0482972 3.79209e-19)
(0.884751 0.142413 -6.7449e-19)
(1.04418 0.193213 1.38667e-19)
(1.14202 0.140781 -8.12699e-19)
(1.15722 0.14251 -7.02804e-19)
(1.15209 0.102578 1.92459e-19)
(1.14055 0.087558 5.569e-20)
(1.13023 0.065706 9.71222e-20)
(1.11808 0.0519391 -1.82727e-19)
(1.10743 0.0379322 3.76866e-19)
(1.09624 0.0280696 3.17749e-19)
(1.08656 0.0190436 1.57005e-19)
(1.07682 0.012665 1.93056e-19)
(1.06822 0.00792068 5.30586e-20)
(1.05997 0.00151568 -1.09946e-20)
(0.0542748 0.0982873 2.62339e-19)
(0.945261 0.148577 -1.64395e-19)
(1.06726 0.203425 9.74327e-19)
(1.14631 0.144042 6.89095e-19)
(1.15415 0.147065 1.40936e-19)
(1.14722 0.105232 -7.15038e-19)
(1.13498 0.0912844 2.82023e-22)
(1.12508 0.0689841 -1.67525e-19)
(1.11336 0.0557021 2.05348e-20)
(1.10334 0.0416054 1.924e-20)
(1.09268 0.0318511 1.46273e-19)
(1.0836 0.0227576 -3.58257e-20)
(1.07431 0.0163068 2.26971e-20)
(1.06627 0.0115307 4.00061e-20)
(1.05836 0.00510955 4.20237e-20)
(0.153144 0.168308 1.86371e-18)
(0.995081 0.156577 5.16794e-19)
(1.0853 0.213738 -8.02232e-19)
(1.1478 0.146887 3.93025e-19)
(1.14977 0.151385 -1.83844e-19)
(1.142 0.107731 5.4661e-20)
(1.12933 0.0948968 4.29893e-19)
(1.11997 0.0720789 2.17169e-19)
(1.10866 0.0592959 1.94334e-19)
(1.09928 0.0450704 -1.23021e-19)
(1.08913 0.0354459 -6.34977e-20)
(1.08061 0.0261925 -1.44186e-19)
(1.07177 0.0200508 -1.28086e-21)
(1.06422 0.0142737 -9.23632e-20)
(1.05674 0.00874517 -8.1398e-20)
(0.256026 0.246452 -7.65175e-19)
(1.03346 0.165554 2.59043e-19)
(1.09868 0.223913 -3.34494e-19)
(1.14719 0.14935 -1.82791e-19)
(1.14447 0.15548 -6.38743e-19)
(1.13657 0.110088 4.96694e-19)
(1.12366 0.0983946 -1.10567e-19)
(1.11489 0.0749972 -9.50097e-20)
(1.10398 0.0627239 -1.94549e-19)
(1.09524 0.048338 4.93707e-20)
(1.08556 0.0388236 -1.70459e-19)
(1.07761 0.029553 4.72154e-22)
(1.06918 0.0232313 1.5802e-19)
(1.06215 0.0173855 -1.49194e-19)
(1.05502 0.0122232 1.99012e-20)
(0.352447 0.31659 -5.07335e-19)
(1.06087 0.17387 5.28416e-21)
(1.10783 0.23361 2.34315e-19)
(1.14507 0.151467 -3.59464e-20)
(1.13852 0.159361 2.72696e-19)
(1.13101 0.112311 -5.26232e-19)
(1.11799 0.101775 -3.77278e-19)
(1.10986 0.0777451 3.28647e-19)
(1.09933 0.0659901 1.74949e-19)
(1.0912 0.0514054 5.61581e-20)
(1.08199 0.0420444 -5.57342e-20)
(1.07458 0.0326207 -5.24606e-20)
(1.06658 0.026462 -1.56958e-19)
(1.06 0.0200299 2.18399e-19)
(1.05324 0.015279 -6.14947e-20)
(0.435365 0.365817 3.27573e-19)
(1.07918 0.180209 1.43259e-18)
(1.11333 0.242545 -9.48422e-21)
(1.14187 0.153301 -4.8769e-19)
(1.13214 0.163043 7.22628e-20)
(1.12537 0.114406 -9.26065e-20)
(1.11231 0.105033 3.55568e-19)
(1.10487 0.0803284 -4.48404e-19)
(1.09469 0.0690951 7.82921e-20)
(1.08718 0.0542893 -1.88532e-19)
(1.07841 0.0450582 4.41635e-20)
(1.07153 0.0356037 1.4812e-19)
(1.06392 0.0292628 -6.65933e-20)
(1.05782 0.0227446 -1.0872e-19)
(1.05139 0.0184142 -2.57199e-20)
(0.503621 0.390638 -1.34294e-18)
(1.09099 0.184272 6.17692e-20)
(1.11581 0.250588 2.08055e-19)
(1.1379 0.154929 4.14503e-19)
(1.1255 0.166541 4.24478e-19)
(1.11968 0.116377 2.47543e-19)
(1.10664 0.108163 -4.62414e-19)
(1.09991 0.0827518 1.10799e-19)
(1.09006 0.0720422 -2.44765e-19)
(1.08317 0.0569835 1.08347e-21)
(1.07482 0.0479271 -7.07138e-21)
(1.06845 0.038314 -2.58774e-20)
(1.06124 0.0320402 -1.75726e-19)
(1.05558 0.0252227 3.5476e-21)
(1.04948 0.0210505 7.52494e-20)
(0.560518 0.396632 6.98983e-19)
(1.09881 0.186584 -5.39333e-19)
(1.11587 0.257749 -4.46894e-19)
(1.13337 0.156419 -1.62771e-19)
(1.11868 0.169866 -1.76725e-19)
(1.11396 0.118231 -9.86527e-20)
(1.10096 0.111158 2.0045e-19)
(1.09497 0.0850202 2.43373e-19)
(1.08545 0.07483 6.8219e-20)
(1.07916 0.0595064 4.96374e-20)
(1.07122 0.0505996 -7.03398e-21)
(1.06536 0.0409191 -7.55771e-20)
(1.05852 0.0345052 7.41798e-20)
(1.05331 0.0276139 2.30557e-20)
(1.04751 0.0237714 -4.42115e-20)
(0.610357 0.392797 6.9997e-19)
(1.10439 0.187896 6.27152e-20)
(1.114 0.264109 7.45299e-20)
(1.12841 0.157825 5.50606e-20)
(1.11176 0.173028 -3.25969e-20)
(1.10823 0.119972 -1.54832e-19)
(1.09529 0.114012 -9.56355e-20)
(1.09005 0.0871375 -1.46925e-19)
(1.08084 0.0774608 -2.48708e-20)
(1.07515 0.0618506 -6.47279e-20)
(1.06762 0.0531285 1.08615e-19)
(1.06225 0.0432833 7.92658e-20)
(1.05579 0.0368927 -1.01873e-20)
(1.05099 0.0298715 4.16267e-20)
(1.04548 0.0260457 3.75674e-20)
(0.65606 0.386302 1.23893e-19)
(1.10863 0.188813 2.78227e-19)
(1.11067 0.269761 6.05254e-19)
(1.12313 0.159188 -4.67238e-19)
(1.10479 0.176031 1.94928e-19)
(1.10249 0.121605 1.0852e-19)
(1.08961 0.116719 1.09439e-19)
(1.08515 0.0891076 -3.23467e-20)
(1.07624 0.0799317 2.52188e-20)
(1.07115 0.0640328 2.18535e-20)
(1.064 0.0554713 -5.91901e-20)
(1.05912 0.0455253 -2.09204e-20)
(1.05302 0.0390488 6.34661e-21)
(1.04863 0.0319746 -5.44498e-20)
(1.04341 0.0283477 6.73451e-22)
(0.698877 0.380921 -4.44822e-19)
(1.11195 0.189735 -3.32072e-19)
(1.10621 0.274807 -2.71153e-19)
(1.11759 0.160539 2.62092e-19)
(1.0978 0.178879 -1.90065e-19)
(1.09674 0.123135 -6.91741e-20)
(1.08393 0.119272 -4.1706e-20)
(1.08025 0.0909335 -2.13072e-20)
(1.07165 0.0822438 1.20713e-20)
(1.06715 0.0660465 5.21107e-20)
(1.06037 0.0576678 -5.98886e-20)
(1.05597 0.0475575 4.66743e-21)
(1.05023 0.0410966 1.45669e-20)
(1.04623 0.0339752 1.36734e-20)
(1.0413 0.0302798 -4.08075e-21)
(0.739077 0.378026 3.75326e-19)
(1.11449 0.190934 -5.41521e-20)
(1.10088 0.279347 -7.21889e-20)
(1.11184 0.161903 5.98448e-20)
(1.0908 0.181573 -3.43732e-20)
(1.09096 0.124566 9.45338e-20)
(1.07826 0.121666 1.91391e-20)
(1.07535 0.0926183 3.23723e-20)
(1.06705 0.0843936 1.9452e-20)
(1.06315 0.0679054 2.38237e-20)
(1.05673 0.0596872 4.54323e-20)
(1.05281 0.0494581 -3.46343e-20)
(1.04741 0.0429606 -5.14836e-20)
(1.0438 0.0357972 -1.06213e-20)
(1.03915 0.0321834 3.65401e-20)
(0.776567 0.377897 -5.46742e-19)
(1.11629 0.192602 -1.14002e-19)
(1.09489 0.28347 -2.14602e-19)
(1.10589 0.163296 -1.20943e-19)
(1.0838 0.18411 1.5401e-19)
(1.08516 0.1259 3.69777e-20)
(1.07258 0.123893 -3.05168e-20)
(1.07045 0.0941641 -2.53148e-20)
(1.06246 0.0863808 4.26313e-20)
(1.05915 0.0696048 -3.19029e-21)
(1.05308 0.061557 2.5212e-20)
(1.04964 0.051174 2.20319e-20)
(1.04457 0.0446991 3.62949e-20)
(1.04134 0.0375151 1.45801e-21)
(1.03699 0.0337852 -1.55301e-20)
(0.811178 0.380454 3.14696e-19)
(1.11733 0.194877 2.17742e-19)
(1.08838 0.287253 1.1745e-19)
(1.09976 0.164728 6.80669e-20)
(1.07681 0.186487 -6.52635e-22)
(1.07932 0.127139 -3.24075e-20)
(1.0669 0.125949 8.57037e-21)
(1.06555 0.0955732 5.91509e-20)
(1.05787 0.0882021 -2.03173e-20)
(1.05514 0.0711546 6.2385e-21)
(1.04942 0.0632566 5.03228e-22)
(1.04645 0.0527542 -6.56129e-21)
(1.04171 0.046277 -3.5703e-21)
(1.03886 0.0390492 9.18515e-21)
(1.03481 0.0353186 1.03707e-20)
(0.842749 0.385508 -3.06483e-19)
(1.11757 0.197848 1.01902e-20)
(1.08145 0.290757 2.17083e-20)
(1.09344 0.1662 -8.6761e-20)
(1.06982 0.1887 -6.75875e-20)
(1.07344 0.128285 4.1219e-21)
(1.06121 0.127826 -1.485e-20)
(1.06063 0.0968469 -2.67296e-20)
(1.05328 0.0898565 -8.0559e-21)
(1.05112 0.072552 -2.68377e-20)
(1.04576 0.0648035 -2.62944e-20)
(1.04325 0.0541679 -2.13963e-21)
(1.03884 0.0477199 3.95091e-21)
(1.03636 0.0404676 -1.36931e-20)
(1.03261 0.0366029 -4.22743e-21)
(0.871141 0.392826 1.0729e-19)
(1.11695 0.20156 1.89239e-20)
(1.07419 0.294032 6.17407e-22)
(1.08693 0.167711 6.62308e-20)
(1.06283 0.190739 3.58632e-20)
(1.06752 0.129337 1.73736e-20)
(1.05553 0.129518 1.35086e-20)
(1.05569 0.097987 7.19074e-21)
(1.0487 0.09134 4.93416e-21)
(1.04709 0.0738044 2.58181e-20)
(1.04209 0.0661835 1.79442e-22)
(1.04004 0.0554451 -8.95935e-22)
(1.03595 0.0490127 1.19027e-21)
(1.03384 0.041711 1.84185e-21)
(1.03036 0.0377955 -5.06179e-21)
(0.896243 0.402152 6.73571e-20)
(1.1154 0.206019 -4.42823e-20)
(1.06665 0.29711 4.27758e-20)
(1.08022 0.169251 -1.13006e-20)
(1.05583 0.192598 6.60086e-21)
(1.06151 0.130291 -2.53429e-21)
(1.04989 0.13102 -7.49539e-21)
(1.05069 0.0989932 6.86633e-21)
(1.04416 0.0926492 -1.24027e-21)
(1.04303 0.0749127 -8.43915e-21)
(1.03844 0.0674055 3.58067e-22)
(1.03681 0.0565686 1.60325e-21)
(1.03306 0.0501675 -3.23053e-21)
(1.0313 0.0428447 -2.3827e-21)
(1.02806 0.0387786 1.66216e-21)
(0.917972 0.413212 7.52442e-20)
(1.11284 0.211198 -3.7126e-20)
(1.05884 0.300012 3.768e-20)
(1.07328 0.170809 -9.03204e-21)
(1.04885 0.19427 6.83734e-21)
(1.05535 0.131134 -2.46831e-21)
(1.04436 0.132333 -5.2878e-21)
(1.04557 0.0998638 5.32638e-21)
(1.0397 0.0937765 -1.93776e-21)
(1.03894 0.0758868 -6.93075e-21)
(1.03479 0.0684589 1.20395e-21)
(1.03357 0.0575574 1.24238e-21)
(1.03016 0.0511781 -3.18795e-21)
(1.02874 0.0438379 -1.63884e-21)
(1.02569 0.0396631 1.93046e-21)
(0.936274 0.425723 1.30009e-19)
(1.10921 0.217042 1.83853e-20)
(1.05079 0.302749 3.08187e-21)
(1.06605 0.172357 4.07072e-20)
(1.04199 0.195765 2.17925e-20)
(1.04894 0.131841 1.19684e-20)
(1.039 0.13346 1.26869e-20)
(1.04031 0.100599 2.79952e-21)
(1.03531 0.0947092 3.13516e-21)
(1.03483 0.0767369 1.84985e-20)
(1.03114 0.0693466 -2.70415e-21)
(1.03033 0.0584033 -1.33727e-21)
(1.02725 0.0520524 1.69043e-21)
(1.02614 0.0447376 2.63979e-22)
(1.0233 0.0403795 -3.61568e-21)
(0.951125 0.439393 -3.77634e-19)
(1.10444 0.22347 6.24295e-21)
(1.04252 0.305329 1.16812e-20)
(1.05837 0.173837 -5.45376e-20)
(1.0354 0.197108 -4.30036e-20)
(1.04221 0.132387 -1.07361e-21)
(1.03379 0.134389 -4.33854e-21)
(1.03498 0.101215 -1.55288e-20)
(1.03091 0.0954205 -6.22317e-21)
(1.03077 0.0774803 -1.69846e-20)
(1.02746 0.0700605 -1.14912e-20)
(1.02711 0.0591174 -1.61426e-21)
(1.02432 0.0527937 1.43441e-21)
(1.0235 0.0455068 -4.445e-21)
(1.02093 0.0410032 -3.80016e-21)
(0.962527 0.453934 4.06595e-19)
(1.09845 0.230375 1.09586e-19)
(1.03415 0.307779 6.16142e-20)
(1.05008 0.175156 3.47537e-20)
(1.02914 0.19831 -3.88061e-22)
(1.03527 0.132792 -1.40997e-20)
(1.02854 0.135059 6.183e-21)
(1.0298 0.10176 2.30227e-20)
(1.02638 0.0958825 -6.96971e-21)
(1.02679 0.0781196 1.94717e-21)
(1.02376 0.0706137 5.42762e-21)
(1.0239 0.0596886 -1.8026e-21)
(1.02136 0.0534175 -4.13787e-21)
(1.02084 0.0461613 1.04063e-20)
(1.01855 0.0414877 2.58047e-21)
(0.970504 0.469057 -7.38469e-19)
(1.09109 0.237604 -6.75507e-20)
(1.02587 0.310152 -1.27631e-19)
(1.04116 0.176243 -3.1416e-20)
(1.02296 0.199291 5.75533e-20)
(1.02845 0.133152 1.38692e-20)
(1.02303 0.135387 -1.13846e-20)
(1.02481 0.102264 -1.09738e-20)
(1.02173 0.0961183 1.11128e-20)
(1.02286 0.078618 1.69036e-21)
(1.02007 0.0710238 1.08327e-20)
(1.02068 0.0601212 7.6649e-21)
(1.01841 0.0539195 1.18839e-20)
(1.01817 0.0466829 -8.7624e-22)
(1.01618 0.0418861 -8.21882e-21)
(0.975094 0.484489 5.11789e-19)
(1.08219 0.244956 -2.70485e-20)
(1.01779 0.312475 -3.87152e-20)
(1.032 0.177162 1.6801e-20)
(1.01639 0.199872 -1.71036e-20)
(1.0219 0.13356 1.06331e-20)
(1.01727 0.135377 5.05893e-21)
(1.01994 0.102681 6.73178e-22)
(1.01705 0.0961541 4.00684e-21)
(1.01892 0.0789563 6.76391e-21)
(1.01641 0.0713005 9.02408e-21)
(1.01747 0.060415 -9.23554e-21)
(1.01545 0.0543023 -1.48513e-20)
(1.0155 0.0470874 -1.75212e-21)
(1.0138 0.0421701 1.12617e-20)
(0.976359 0.499968 -6.7133e-19)
(1.07173 0.252227 -7.18641e-20)
(1.00967 0.314618 -1.03932e-19)
(1.02292 0.178092 2.15456e-20)
(1.00928 0.200005 -5.01296e-20)
(1.01557 0.133976 -1.45164e-20)
(1.01137 0.135051 -2.92236e-21)
(1.01513 0.10298 -6.81112e-21)
(1.01238 0.0960201 -9.60253e-23)
(1.01498 0.0791134 1.51472e-21)
(1.01279 0.0714446 -8.99596e-21)
(1.01425 0.0605785 3.23074e-21)
(1.0125 0.0545588 1.52806e-21)
(1.01285 0.0473689 2.63575e-21)
(1.01141 0.0423773 -1.65612e-22)
(0.974428 0.515245 1.73425e-19)
(1.06005 0.259331 5.79952e-20)
(1.0009 0.316352 2.45209e-19)
(1.01403 0.179137 -2.09933e-20)
(1.00183 0.199656 3.414e-20)
(1.00935 0.134354 -1.68614e-21)
(1.00539 0.134444 1.16457e-20)
(1.01031 0.103115 -3.7992e-21)
(1.00777 0.0957341 -9.28689e-22)
(1.01102 0.0790885 -2.82981e-21)
(1.0092 0.0714497 -4.5666e-21)
(1.01106 0.060614 1.06128e-21)
(1.00957 0.0546913 1.8674e-21)
(1.01021 0.0475371 -2.13597e-21)
(1.00903 0.0424897 -2.46052e-21)
(0.969529 0.530086 1.04191e-18)
(1.04734 0.266278 5.98548e-21)
(0.991176 0.317545 9.41166e-21)
(1.0053 0.180287 1.12133e-20)
(0.994086 0.198865 -9.80992e-21)
(1.00317 0.134636 -2.43195e-21)
(0.999406 0.133585 -4.79503e-21)
(1.00547 0.103058 4.12458e-21)
(1.00321 0.0953048 -3.78627e-21)
(1.00707 0.0788829 -4.67291e-21)
(1.00563 0.0713091 3.28349e-21)
(1.00788 0.0605245 1.59503e-21)
(1.00667 0.0546956 3.3601e-22)
(1.0076 0.0475889 2.04947e-21)
(1.00667 0.0425301 -6.94815e-22)
(0.961914 0.544287 9.49711e-19)
(1.03353 0.27296 -8.89144e-22)
(0.980646 0.318082 -1.14782e-19)
(0.996563 0.181423 2.71016e-20)
(0.986177 0.197646 -4.25904e-21)
(0.996965 0.134771 7.69325e-21)
(0.993453 0.132501 -1.27033e-20)
(1.00059 0.102785 -5.9114e-21)
(0.998714 0.0947295 -8.0813e-21)
(1.00312 0.0785066 -6.71896e-21)
(1.00209 0.0710169 1.21649e-21)
(1.00473 0.0603084 1.61165e-21)
(1.00379 0.0545743 -3.3239e-21)
(1.00501 0.0475267 -6.18195e-22)
(1.00432 0.0424846 -2.59996e-22)
(0.95161 0.557585 -1.85317e-18)
(1.01869 0.279298 2.00617e-20)
(0.969473 0.3179 3.55729e-20)
(0.987759 0.182477 -4.38944e-20)
(0.978158 0.196026 -1.25833e-20)
(0.990707 0.134708 -2.80821e-20)
(0.98756 0.131208 3.71291e-20)
(0.995687 0.102285 -1.88129e-20)
(0.994274 0.0940001 2.66845e-20)
(0.999213 0.0779658 -5.67358e-21)
(0.998581 0.0705717 -4.37256e-21)
(1.0016 0.0599653 5.28004e-21)
(1.00094 0.0543249 -8.78266e-21)
(1.00246 0.0473483 -2.41594e-21)
(1.00201 0.0423601 -5.54683e-21)
(0.938285 0.569503 4.46191e-19)
(1.0032 0.285327 8.23628e-20)
(0.957792 0.316966 -4.27144e-21)
(0.97882 0.18336 9.0149e-20)
(0.970092 0.194023 -1.9198e-20)
(0.984378 0.134407 1.49947e-20)
(0.981735 0.129717 -4.98509e-20)
(0.990766 0.101554 6.23085e-20)
(0.989886 0.0931062 5.64487e-22)
(0.995337 0.0772667 1.78242e-20)
(0.995112 0.069973 4.231e-23)
(0.998511 0.0594937 -2.23489e-20)
(0.998133 0.0539497 7.19898e-21)
(0.999949 0.0470545 1.6756e-20)
(0.99973 0.0421462 -2.83856e-21)
(0.921966 0.579843 -4.85638e-19)
(0.987124 0.291164 3.76328e-20)
(0.945693 0.315302 -1.48659e-21)
(0.969713 0.183998 2.42198e-20)
(0.962016 0.191655 -4.51694e-20)
(0.977977 0.133833 9.8526e-20)
(0.975984 0.128028 6.26343e-20)
(0.985847 0.100593 -4.52844e-20)
(0.985549 0.0920378 -3.70734e-20)
(0.991507 0.076411 -9.37452e-21)
(0.991689 0.0692224 8.90637e-21)
(0.995458 0.058893 6.77385e-21)
(0.99537 0.0534473 2.40341e-20)
(0.997492 0.0466489 -3.32586e-20)
(0.997498 0.0418535 8.68571e-21)
(0.903111 0.588361 -5.68795e-19)
(0.970325 0.296456 -4.20792e-21)
(0.933265 0.312896 -1.01099e-20)
(0.960419 0.184319 7.55224e-20)
(0.953963 0.188934 1.06121e-19)
(0.971515 0.132961 -1.18372e-19)
(0.970307 0.126139 2.827e-20)
(0.980949 0.0994057 1.97585e-20)
(0.981267 0.0907877 4.71687e-20)
(0.987725 0.0753997 -1.40821e-20)
(0.988315 0.0683209 3.32642e-20)
(0.992446 0.0581622 6.90769e-21)
(0.992661 0.0528179 -3.51715e-20)
(0.995107 0.0461353 1.69441e-20)
(0.995341 0.0415043 4.81124e-21)
(0.881999 0.59488 1.43686e-18)
(0.952809 0.301086 -1.06401e-19)
(0.920585 0.309746 9.04236e-20)
(0.950939 0.184257 -1.09424e-19)
(0.945957 0.185867 3.70685e-20)
(0.965008 0.131771 -1.44346e-20)
(0.964707 0.124042 -7.35156e-20)
(0.976087 0.0979961 -5.51315e-20)
(0.977045 0.089351 -5.63658e-20)
(0.983998 0.074232 2.83179e-20)
(0.984996 0.0672695 2.32423e-20)
(0.989481 0.0573001 3.46969e-20)
(0.990015 0.0520581 -3.29733e-20)
(0.992818 0.0455135 -6.1108e-21)
(0.993316 0.0411257 2.12018e-20)
(0.858915 0.59924 6.03331e-20)
(0.934591 0.304888 4.35325e-20)
(0.907724 0.305845 -1.13843e-19)
(0.941288 0.183754 -2.51574e-19)
(0.938017 0.182459 -1.98159e-20)
(0.958477 0.13025 2.09492e-19)
(0.959186 0.121729 6.43537e-21)
(0.971275 0.0963678 2.68984e-20)
(0.972891 0.0877254 5.01846e-22)
(0.98033 0.0729071 -2.27157e-21)
(0.981736 0.0660682 -4.22797e-20)
(0.986569 0.0563052 9.35385e-21)
(0.987446 0.051166 4.24022e-20)
(0.990658 0.0447731 6.40999e-21)
(0.991489 0.0407127 -1.80392e-20)
(0.834132 0.601306 4.68251e-20)
(0.915727 0.307731 4.24971e-19)
(0.894748 0.301186 -4.14744e-20)
(0.93149 0.182759 2.80239e-19)
(0.930161 0.17871 1.96504e-19)
(0.951948 0.128389 -1.11227e-20)
(0.953749 0.119191 -2.84047e-20)
(0.966526 0.0945236 -3.26409e-20)
(0.968811 0.0859104 5.61827e-20)
(0.976725 0.0714243 -1.21163e-19)
(0.978539 0.0647174 -8.47762e-20)
(0.983719 0.0551754 -3.77036e-20)
(0.984972 0.0501389 -4.15304e-20)
(0.988655 0.0439025 2.61269e-21)
(0.989876 0.0402036 8.49635e-21)
(0.807919 0.600966 -2.48778e-19)
(0.89629 0.309494 -1.77312e-19)
(0.88172 0.295766 -2.20486e-19)
(0.921578 0.181228 -2.9907e-19)
(0.922404 0.174619 -3.92025e-19)
(0.945444 0.126183 -3.81708e-20)
(0.948404 0.116421 1.45173e-19)
(0.961852 0.0924654 -3.1398e-20)
(0.964814 0.0839068 5.1731e-20)
(0.973189 0.0697836 8.12179e-20)
(0.975411 0.0632175 6.58488e-21)
(0.980942 0.0539096 -1.83305e-20)
(0.982608 0.0489729 6.95586e-21)
(0.986807 0.0428938 -3.18897e-21)
(0.988377 0.0395781 -5.29574e-20)
(0.780545 0.598134 -1.78128e-19)
(0.87637 0.310067 -9.77065e-20)
(0.8687 0.289582 8.87835e-19)
(0.911593 0.179125 2.84188e-19)
(0.914763 0.170183 2.45722e-19)
(0.938992 0.123631 -2.19311e-19)
(0.943161 0.113414 -1.56111e-19)
(0.957265 0.090195 1.54699e-20)
(0.960907 0.0817165 -1.22978e-19)
(0.969728 0.0679855 5.32089e-20)
(0.972362 0.0615709 4.16697e-20)
(0.978254 0.0525108 -9.51419e-20)
(0.980354 0.0476635 2.42437e-21)
(0.985041 0.0417114 2.13476e-21)
(0.986803 0.0388769 4.85062e-20)
(0.752274 0.592744 -8.04705e-20)
(0.856073 0.309356 -3.18103e-19)
(0.855747 0.282632 -8.56772e-19)
(0.901578 0.176422 -3.11772e-19)
(0.907254 0.165397 -2.08883e-19)
(0.932618 0.120732 -7.8577e-20)
(0.938031 0.110165 8.32025e-20)
(0.952775 0.0877138 -8.88477e-21)
(0.957097 0.0793417 8.59283e-20)
(0.966351 0.0660309 -1.05729e-19)
(0.969401 0.0597803 3.44304e-20)
(0.975667 0.0509877 4.35831e-20)
(0.978195 0.0462302 -9.06231e-21)
(0.983254 0.0403128 3.48259e-20)