/*--------------------------------*- C++ -*----------------------------------*\
  =========                 |
  \\      /  F ield         | OpenFOAM: The Open Source CFD Toolbox
   \\    /   O peration     | Website:  https://openfoam.org
    \\  /    A nd           | Version:  7
     \\/     M anipulation  |
\*---------------------------------------------------------------------------*/
FoamFile
{
    version     2.0;
    format      ascii;
    class       volScalarField;
    location    "6";
    object      rho;
}
// * * * * * * * * * * * * * * * * * * * * * * * * * * * * * * * * * * * * * //

dimensions      [1 -3 0 0 0 0 0];

internalField   nonuniform List<scalar> 
2413
(
1.25277
1.25042
1.24918
1.24843
1.24776
1.24703
1.24634
1.24571
1.24502
1.24375
1.24203
1.24115
1.24059
1.24025
1.23999
1.23952
1.23894
1.23821
1.23714
1.23502
1.23295
1.23233
1.23194
1.23173
1.23195
1.37674
1.3749
1.37223
1.36891
1.36533
1.36283
1.36163
1.36093
1.36066
1.3604
1.3598
1.35903
1.35797
1.35598
1.35328
1.35185
1.35101
1.35031
1.34996
1.34985
1.34948
1.34893
1.34835
1.34725
1.34484
1.3428
1.34203
1.34145
1.34113
1.34117
1.3412
1.34084
1.34032
1.33955
1.33776
1.33514
1.33385
1.33313
1.33256
1.33199
1.33126
1.33047
1.32963
1.32852
1.32691
1.32594
1.32553
1.32521
1.32469
1.32401
1.32325
1.32232
1.3211
1.31933
1.31747
1.31659
1.31602
1.31565
1.3156
1.31515
1.31438
1.31331
1.31176
1.30969
1.30785
1.30685
1.3062
1.30576
1.30573
1.30569
1.30523
1.30435
1.30295
1.30088
1.29925
1.2983
1.29725
1.29611
1.29533
1.29481
1.29464
1.29469
1.29426
1.29339
1.2919
1.2893
1.28636
1.28486
1.28404
1.28339
1.28292
1.28286
1.28316
1.28278
1.28194
1.28049
1.27791
1.2749
1.27355
1.27277
1.2721
1.27167
1.27165
1.27202
1.27172
1.27081
1.26893
1.26637
1.26463
1.26355
1.26261
1.26179
1.26105
1.26033
1.25948
1.25809
1.25621
1.25523
1.25451
1.25378
1.25318
1.25266
1.25204
1.25129
1.25013
1.24787
1.24518
1.24405
1.24336
1.2427
1.2424
1.24213
1.38878
1.38775
1.3856
1.38247
1.37833
1.37442
1.37255
1.37143
1.3708
1.37067
1.37036
1.36967
1.3688
1.36717
1.36415
1.36193
1.36089
1.36006
1.35947
1.35924
1.35921
1.35901
1.35864
1.35793
1.35581
1.35313
1.35189
1.35115
1.35064
1.35042
1.35036
1.3503
1.35002
1.34954
1.34827
1.34548
1.34346
1.3425
1.34174
1.34118
1.3406
1.33995
1.33932
1.33861
1.33749
1.33655
1.33606
1.33549
1.33492
1.33421
1.33335
1.33232
1.33091
1.32877
1.32694
1.32621
1.32571
1.32554
1.32551
1.32489
1.32409
1.32311
1.32165
1.31929
1.31742
1.31667
1.31609
1.31571
1.31568
1.31561
1.31508
1.31432
1.31309
1.31098
1.30847
1.30702
1.30621
1.3056
1.30514
1.3049
1.30505
1.30509
1.30451
1.30358
1.30176
1.29835
1.29579
1.29488
1.29416
1.29363
1.2934
1.29357
1.2938
1.2934
1.29261
1.29107
1.28839
1.28643
1.28565
1.28501
1.28446
1.28413
1.28417
1.28417
1.2836
1.28257
1.28092
1.27879
1.27719
1.2763
1.27564
1.27504
1.27434
1.27338
1.27196
1.27037
1.26943
1.26867
1.26774
1.26692
1.26632
1.26582
1.26523
1.26433
1.26234
1.25965
1.25801
1.25722
1.25651
1.25573
1.25529
1.25436
1.40021
1.39997
1.39861
1.39596
1.39208
1.38761
1.38485
1.3832
1.38205
1.38146
1.38104
1.38035
1.37948
1.37793
1.37506
1.37261
1.37143
1.37052
1.36977
1.36934
1.36929
1.36934
1.36906
1.36832
1.36619
1.36362
1.3621
1.36122
1.36059
1.36014
1.35983
1.35972
1.35954
1.35914
1.35778
1.35525
1.35357
1.35242
1.35154
1.35089
1.35027
1.34966
1.34912
1.34862
1.34811
1.34746
1.34662
1.34595
1.34527
1.34437
1.34333
1.34207
1.34026
1.33798
1.33677
1.33619
1.33581
1.3359
1.3356
1.33479
1.33387
1.33279
1.33123
1.32901
1.32767
1.32707
1.32656
1.32624
1.32601
1.32558
1.32495
1.3241
1.32282
1.32047
1.31778
1.31662
1.31591
1.31529
1.31485
1.3147
1.31485
1.31459
1.31389
1.31286
1.31081
1.30747
1.30575
1.30504
1.30442
1.30401
1.30385
1.30389
1.30368
1.30314
1.30223
1.30042
1.29835
1.29749
1.29693
1.29644
1.2961
1.29584
1.29538
1.29472
1.29379
1.29234
1.29065
1.2896
1.28881
1.28819
1.28768
1.28706
1.28603
1.28427
1.28311
1.28219
1.2813
1.28048
1.2797
1.27905
1.27856
1.27808
1.27747
1.27608
1.27349
1.27181
1.27089
1.27008
1.2693
1.26862
1.26817
1.26703
1.40843
1.41067
1.41034
1.40872
1.4058
1.40206
1.39872
1.39638
1.39459
1.39325
1.39226
1.39131
1.39024
1.38854
1.38595
1.38402
1.38278
1.38172
1.38088
1.38035
1.38022
1.38012
1.37975
1.37862
1.37629
1.37415
1.37269
1.37177
1.3711
1.37044
1.3699
1.36965
1.36942
1.36891
1.3672
1.36547
1.36421
1.36292
1.36193
1.36123
1.36058
1.35994
1.35932
1.35895
1.35879
1.35826
1.35722
1.35634
1.35557
1.35468
1.35357
1.3522
1.35032
1.34809
1.34697
1.34643
1.34611
1.34606
1.34552
1.34473
1.34381
1.34276
1.34145
1.33971
1.33855
1.338
1.3375
1.33696
1.33632
1.3356
1.33476
1.33375
1.33238
1.3302
1.32796
1.32694
1.32621
1.32559
1.32521
1.32501
1.32462
1.32402
1.32325
1.32215
1.32014
1.31743
1.31624
1.31565
1.3152
1.31503
1.31482
1.31432
1.31369
1.31282
1.31136
1.30969
1.30896
1.3085
1.30827
1.308
1.3074
1.30663
1.30556
1.30411
1.30246
1.30117
1.30043
1.2999
1.29956
1.29926
1.29876
1.29799
1.2963
1.29442
1.29341
1.29258
1.29186
1.29122
1.29062
1.2901
1.28967
1.28918
1.28835
1.2864
1.28437
1.2834
1.28262
1.28188
1.28119
1.28062
1.28012
1.27884
1.40685
1.41762
1.41984
1.41969
1.41801
1.41557
1.41299
1.41038
1.40802
1.40606
1.4044
1.4028
1.40102
1.39888
1.39705
1.39575
1.39455
1.39343
1.39262
1.3921
1.39175
1.39127
1.39042
1.38854
1.38647
1.38487
1.38355
1.38265
1.38187
1.38106
1.3804
1.37999
1.37967
1.37885
1.3774
1.3763
1.37515
1.37389
1.37291
1.37214
1.37137
1.37043
1.36962
1.36932
1.36917
1.36878
1.36785
1.36682
1.36597
1.36515
1.36407
1.36275
1.36109
1.35898
1.35771
1.35723
1.35681
1.3562
1.35554
1.35488
1.35408
1.35319
1.35222
1.35103
1.34992
1.34925
1.34841
1.34742
1.34655
1.34565
1.34467
1.34362
1.34241
1.34073
1.33888
1.33789
1.33719
1.33657
1.33599
1.33536
1.33469
1.33394
1.33307
1.33189
1.32995
1.32818
1.32754
1.32715
1.32689
1.32642
1.32579
1.32503
1.32401
1.32248
1.32099
1.32031
1.31986
1.31971
1.31958
1.31901
1.31817
1.31681
1.31472
1.31287
1.31185
1.31115
1.31059
1.3102
1.31003
1.30975
1.30923
1.30826
1.30623
1.30441
1.30355
1.30285
1.30223
1.30167
1.30117
1.30067
1.30013
1.29944
1.29813
1.29626
1.29508
1.29433
1.29366
1.29305
1.29245
1.29185
1.29123
1.28948
1.39194
1.41336
1.42419
1.42687
1.42689
1.4263
1.42504
1.42318
1.42096
1.41874
1.4166
1.41429
1.41145
1.40928
1.40802
1.4069
1.40577
1.40474
1.40395
1.40333
1.40259
1.40167
1.40023
1.3982
1.39652
1.39516
1.39405
1.39319
1.39234
1.39148
1.39071
1.39013
1.38967
1.38887
1.38791
1.38705
1.38599
1.38483
1.38386
1.38298
1.3819
1.38048
1.3796
1.3793
1.37911
1.37896
1.37817
1.37712
1.37624
1.37544
1.37439
1.37318
1.37178
1.36996
1.3685
1.36793
1.36732
1.36654
1.36587
1.36528
1.36461
1.36384
1.36299
1.36201
1.36087
1.35987
1.35881
1.35768
1.3567
1.35575
1.3548
1.35387
1.35293
1.35178
1.35025
1.34926
1.3485
1.34765
1.34683
1.34609
1.34533
1.3445
1.3435
1.34204
1.3404
1.33971
1.3394
1.33921
1.33867
1.33795
1.33705
1.33585
1.33414
1.3326
1.33186
1.33129
1.33094
1.3308
1.33035
1.32959
1.32842
1.32641
1.32412
1.32291
1.32217
1.32155
1.3211
1.32086
1.32054
1.32002
1.31929
1.31793
1.3159
1.31469
1.31402
1.31342
1.31287
1.31233
1.31174
1.31109
1.31023
1.30879
1.30714
1.30619
1.30551
1.30489
1.30432
1.30375
1.30311
1.30238
1.30143
1.29884
1.37438
1.39363
1.41315
1.42614
1.43118
1.43213
1.43224
1.43184
1.43075
1.42912
1.42709
1.42451
1.42128
1.41887
1.4175
1.41636
1.41526
1.41423
1.41339
1.41259
1.41155
1.41023
1.40849
1.40659
1.4051
1.40398
1.40308
1.4023
1.40142
1.40049
1.3996
1.39889
1.39862
1.39816
1.39732
1.39652
1.39557
1.39453
1.39354
1.39251
1.39117
1.38958
1.38881
1.38846
1.38834
1.38821
1.38735
1.38635
1.38548
1.38464
1.38365
1.38257
1.3814
1.37988
1.37848
1.37779
1.3771
1.37634
1.3757
1.37513
1.37447
1.37371
1.3729
1.37191
1.37049
1.36932
1.36843
1.36749
1.36658
1.36572
1.36492
1.36413
1.36329
1.36219
1.36105
1.36027
1.35949
1.35868
1.35788
1.35706
1.35613
1.35491
1.35318
1.3519
1.35137
1.35107
1.35104
1.35068
1.35
1.34912
1.34789
1.34604
1.34419
1.34329
1.34263
1.34212
1.34175
1.34122
1.34051
1.33953
1.33797
1.33582
1.33437
1.33358
1.33292
1.3324
1.33199
1.33149
1.33088
1.3301
1.32878
1.32696
1.32589
1.32526
1.32468
1.3241
1.32346
1.32274
1.32192
1.32078
1.31892
1.31726
1.31647
1.31585
1.31527
1.3147
1.31408
1.3134
1.31262
1.31154
1.30962
1.30689
1.36443
1.37373
1.39011
1.40928
1.42356
1.4316
1.43499
1.43552
1.43546
1.43503
1.4338
1.43189
1.4295
1.42696
1.42496
1.4234
1.42212
1.42112
1.42029
1.41946
1.41839
1.41711
1.41545
1.41333
1.41166
1.41064
1.40981
1.40903
1.4081
1.40707
1.40612
1.40571
1.40557
1.40525
1.40444
1.40363
1.40276
1.40177
1.40077
1.39972
1.39851
1.39713
1.39622
1.39579
1.39563
1.39527
1.39435
1.39341
1.39262
1.39184
1.39099
1.3901
1.38912
1.3878
1.38667
1.38617
1.3855
1.38476
1.38409
1.3834
1.38261
1.38171
1.38052
1.37895
1.37791
1.37726
1.37672
1.37613
1.37544
1.37473
1.374
1.37317
1.37203
1.37096
1.37035
1.36981
1.36922
1.36857
1.36783
1.36691
1.36559
1.36371
1.36249
1.36195
1.36158
1.36147
1.36124
1.36065
1.35987
1.35879
1.35707
1.35504
1.35396
1.35325
1.35262
1.35209
1.35149
1.35075
1.34978
1.3483
1.34655
1.34544
1.3447
1.34404
1.34342
1.34277
1.34205
1.34118
1.33984
1.33786
1.33656
1.33589
1.33536
1.3349
1.33433
1.33362
1.33281
1.33183
1.33038
1.32812
1.32648
1.3257
1.32504
1.32444
1.32384
1.3232
1.32249
1.32165
1.32043
1.31816
1.31601
1.31495
1.36171
1.36422
1.37119
1.38451
1.40217
1.41877
1.42995
1.43527
1.43657
1.43687
1.43687
1.43618
1.43482
1.43319
1.43123
1.42923
1.42747
1.42606
1.42516
1.4244
1.42337
1.42223
1.42096
1.41923
1.41698
1.41535
1.41434
1.41323
1.41207
1.41132
1.41081
1.41048
1.41034
1.41007
1.40936
1.40837
1.40737
1.40642
1.40552
1.40461
1.40368
1.40265
1.4014
1.40044
1.39995
1.39955
1.39894
1.39825
1.39758
1.39691
1.39622
1.39547
1.39446
1.39304
1.39217
1.3917
1.39124
1.39066
1.38999
1.38925
1.38836
1.38704
1.38542
1.38453
1.38395
1.3835
1.38324
1.38282
1.38223
1.38157
1.38076
1.37951
1.37839
1.37784
1.37743
1.37709
1.37664
1.37607
1.37535
1.37429
1.37259
1.37121
1.3706
1.37012
1.36981
1.36954
1.369
1.36828
1.36729
1.3657
1.36392
1.36291
1.36217
1.36144
1.36069
1.35986
1.35875
1.35704
1.35558
1.35478
1.35415
1.35359
1.35297
1.3523
1.35156
1.35073
1.34964
1.34778
1.34536
1.34414
1.34346
1.3429
1.3426
1.34223
1.34154
1.34073
1.33977
1.3384
1.33626
1.33462
1.33384
1.33318
1.33258
1.33199
1.33136
1.33067
1.32973
1.32791
1.32565
1.32462
1.32413
1.32385
1.36154
1.36169
1.36355
1.36868
1.37903
1.39451
1.41178
1.42555
1.43352
1.43639
1.4376
1.43773
1.43746
1.43683
1.43559
1.43404
1.43249
1.43101
1.43003
1.42907
1.4279
1.42673
1.42557
1.42401
1.42152
1.41919
1.41776
1.41667
1.41584
1.4152
1.41475
1.4143
1.41365
1.41281
1.41209
1.41133
1.41051
1.40973
1.40895
1.40815
1.40727
1.40609
1.40437
1.40321
1.40264
1.40218
1.40196
1.40171
1.40116
1.40055
1.3999
1.39899
1.39751
1.39637
1.39582
1.39538
1.39495
1.3944
1.39374
1.3929
1.39159
1.39005
1.38925
1.38873
1.38833
1.3882
1.38802
1.38755
1.38701
1.38635
1.3852
1.38369
1.38294
1.38251
1.38224
1.38205
1.38163
1.38104
1.38017
1.37874
1.37742
1.37678
1.37628
1.37585
1.37528
1.37456
1.37363
1.37223
1.37065
1.36967
1.3689
1.36813
1.36732
1.36644
1.36536
1.36369
1.36169
1.36061
1.35992
1.35937
1.35905
1.35876
1.35818
1.35747
1.35668
1.35572
1.35415
1.35157
1.34979
1.34903
1.3484
1.34798
1.34789
1.34768
1.34716
1.34646
1.34552
1.344
1.34236
1.34157
1.34106
1.34068
1.34035
1.33993
1.3394
1.33848
1.33697
1.33621
1.33645
1.33721
1.33846
1.34227
1.3627
1.36196
1.36221
1.36367
1.36747
1.37513
1.3876
1.40375
1.41844
1.42911
1.43467
1.43706
1.43792
1.43809
1.43786
1.43745
1.43667
1.43617
1.43571
1.43429
1.43282
1.43138
1.42985
1.42789
1.4253
1.42321
1.42188
1.42084
1.41996
1.41918
1.4184
1.41745
1.41625
1.41534
1.41467
1.41415
1.41358
1.41287
1.41208
1.41122
1.41006
1.40821
1.40648
1.40573
1.4052
1.40489
1.40487
1.40453
1.40396
1.40334
1.40244
1.401
1.39983
1.39923
1.39873
1.3983
1.39781
1.3972
1.39642
1.39522
1.39374
1.39298
1.3925
1.39216
1.39211
1.39208
1.39172
1.39124
1.39066
1.38967
1.38796
1.38682
1.38632
1.38599
1.38577
1.38531
1.38464
1.38372
1.38251
1.38161
1.38096
1.38029
1.37956
1.37874
1.37773
1.37626
1.37461
1.37367
1.37298
1.37237
1.37173
1.37102
1.37025
1.3694
1.36829
1.36638
1.36409
1.3631
1.36255
1.36213
1.36202
1.36223
1.36202
1.36146
1.36079
1.35989
1.35829
1.35592
1.35472
1.35422
1.35392
1.35395
1.35419
1.35423
1.35411
1.35399
1.35407
1.35479
1.35604
1.358
1.36109
1.36436
1.36752
1.37096
1.3753
1.38029
1.38589
1.39303
1.40112
1.41054
1.42136
1.43971
1.36606
1.36395
1.36368
1.36407
1.36554
1.36859
1.3741
1.38337
1.39643
1.41065
1.42198
1.43014
1.43477
1.43695
1.43824
1.43932
1.44036
1.44124
1.44107
1.44004
1.4385
1.43663
1.43448
1.4322
1.43017
1.42857
1.42719
1.42592
1.42471
1.42342
1.4218
1.42036
1.41945
1.41876
1.41832
1.41792
1.41724
1.41643
1.41553
1.4143
1.41231
1.41029
1.40942
1.40885
1.40851
1.40842
1.40802
1.40742
1.40677
1.40578
1.40424
1.40315
1.40256
1.40209
1.40169
1.40122
1.40064
1.39989
1.3987
1.39714
1.39632
1.39587
1.39556
1.39561
1.39581
1.39548
1.39501
1.39445
1.39352
1.39173
1.39013
1.38951
1.38906
1.38858
1.38792
1.38713
1.38618
1.38526
1.3845
1.38381
1.3831
1.38235
1.38152
1.3805
1.37892
1.37691
1.37586
1.37528
1.3748
1.37457
1.37443
1.37401
1.37347
1.37283
1.37194
1.37029
1.36807
1.36713
1.36675
1.3666
1.36696
1.36795
1.36895
1.36984
1.37059
1.37101
1.37126
1.37266
1.37531
1.37851
1.38246
1.38795
1.39271
1.39874
1.40593
1.41283
1.42235
1.4319
1.44344
1.45618
1.46728
1.48112
1.49267
1.50457
1.51923
1.53094
1.54453
1.56035
1.57441
1.59
1.60301
1.6221
1.37122
1.36923
1.36771
1.36708
1.36742
1.36874
1.37119
1.37518
1.38133
1.39041
1.40189
1.41356
1.42356
1.4309
1.43592
1.43987
1.4426
1.44379
1.44449
1.4444
1.4434
1.442
1.44056
1.43893
1.43728
1.43563
1.43392
1.43213
1.43002
1.42756
1.42593
1.42493
1.4242
1.42384
1.4234
1.42257
1.42164
1.42059
1.41904
1.41663
1.4148
1.41398
1.4134
1.41314
1.41296
1.41237
1.41167
1.41084
1.40945
1.40769
1.40675
1.40617
1.40576
1.40548
1.405
1.40439
1.40363
1.40239
1.40056
1.39954
1.39907
1.39873
1.39881
1.39919
1.39888
1.39837
1.39775
1.39679
1.39495
1.39313
1.39241
1.39188
1.39134
1.3907
1.38991
1.38893
1.38817
1.3876
1.38707
1.38653
1.38599
1.38539
1.38466
1.38366
1.38189
1.38016
1.37959
1.37932
1.3794
1.38017
1.38162
1.38312
1.38459
1.38597
1.38694
1.38777
1.38937
1.39242
1.39628
1.40085
1.4081
1.41572
1.42384
1.43372
1.44132
1.45125
1.46305
1.47288
1.48684
1.49935
1.51101
1.52714
1.53915
1.55376
1.56845
1.58265
1.6005
1.61454
1.6299
1.64195
1.65332
1.66591
1.67483
1.68395
1.6918
1.70037
1.7126
1.72317
1.72902
1.73211
1.73499
1.74236
1.37869
1.37733
1.37568
1.37382
1.37262
1.37238
1.37296
1.37396
1.37652
1.38109
1.38774
1.39677
1.40746
1.41828
1.42804
1.43599
1.44028
1.44272
1.44427
1.44554
1.44661
1.44708
1.44723
1.44701
1.44578
1.44406
1.4419
1.43908
1.43593
1.434
1.43274
1.4318
1.43126
1.43053
1.42946
1.42832
1.42693
1.42469
1.42192
1.42048
1.41967
1.41909
1.41889
1.41847
1.41771
1.41687
1.41575
1.41382
1.41191
1.41105
1.41045
1.41006
1.40986
1.40936
1.40872
1.40795
1.40675
1.40475
1.40335
1.40282
1.40245
1.40242
1.40279
1.40266
1.40223
1.40167
1.40081
1.39917
1.39743
1.39677
1.39638
1.39609
1.39569
1.39512
1.39444
1.39405
1.39399
1.39423
1.39484
1.39579
1.39709
1.39864
1.39994
1.40067
1.40275
1.40588
1.40972
1.41491
1.42069
1.42906
1.43951
1.44984
1.46216
1.47088
1.48091
1.49336
1.5032
1.51633
1.53065
1.54289
1.55944
1.57656
1.59126
1.60926
1.62371
1.63666
1.65171
1.66363
1.67417
1.68361
1.69331
1.70152
1.70987
1.72159
1.73396
1.74522
1.754
1.75826
1.76107
1.76467
1.76988
1.77426
1.77561
1.77557
1.77636
1.77846
1.78202
1.78451
1.78461
1.78388
1.78389
1.78418
1.38747
1.38675
1.38542
1.38359
1.38162
1.3795
1.37778
1.37668
1.37731
1.37947
1.38332
1.38909
1.39662
1.40569
1.41546
1.42459
1.43177
1.4374
1.44143
1.44439
1.44704
1.45007
1.45235
1.45285
1.45272
1.45158
1.44923
1.44639
1.44447
1.44299
1.44177
1.44088
1.43972
1.43834
1.43686
1.43493
1.43188
1.42905
1.42781
1.42695
1.42643
1.42615
1.42539
1.42443
1.42332
1.42159
1.41925
1.41789
1.41717
1.41658
1.41599
1.41542
1.41486
1.41427
1.41364
1.41291
1.41185
1.41036
1.40959
1.40925
1.40912
1.40934
1.40969
1.40973
1.40962
1.40932
1.40878
1.40897
1.40996
1.41168
1.41358
1.41577
1.41861
1.422
1.42645
1.43119
1.43713
1.4454
1.45398
1.46492
1.47595
1.48508
1.49729
1.50783
1.51968
1.53353
1.54519
1.56042
1.57567
1.59296
1.61263
1.62809
1.64614
1.6597
1.67139
1.68471
1.69366
1.70322
1.71181
1.72057
1.73294
1.74722
1.75972
1.77025
1.77791
1.78227
1.78463
1.78521
1.78515
1.78664
1.78932
1.79223
1.79572
1.80072
1.80657
1.80861
1.80827
1.80754
1.80748
1.80766
1.80756
1.80685
1.80524
1.80206
1.79928
1.79838
1.79774
1.79813
1.80019
1.80019
1.79914
1.79654
1.39727
1.39681
1.39583
1.39435
1.39236
1.38963
1.3863
1.38404
1.3836
1.38398
1.38574
1.38896
1.39338
1.3988
1.40512
1.41219
1.41978
1.42729
1.43418
1.44023
1.44587
1.45056
1.453
1.45471
1.45559
1.45539
1.45474
1.45418
1.45345
1.45294
1.45266
1.45138
1.44979
1.44794
1.4454
1.44158
1.43853
1.43717
1.43617
1.4356
1.43546
1.43481
1.43382
1.43267
1.43094
1.42892
1.428
1.42744
1.42685
1.42609
1.42529
1.4249
1.42481
1.42518
1.42608
1.42717
1.42824
1.42913
1.43016
1.43219
1.43485
1.43836
1.44266
1.44756
1.4543
1.46146
1.47005
1.48011
1.48918
1.50056
1.51138
1.5232
1.53684
1.54978
1.5636
1.57785
1.5944
1.6111
1.62931
1.64881
1.66282
1.67797
1.69174
1.7007
1.71227
1.72205
1.73197
1.74525
1.75847
1.76953
1.778
1.78596
1.7951
1.80294
1.80685
1.80785
1.80704
1.8078
1.81006
1.81325
1.81895
1.82762
1.83198
1.83266
1.83192
1.82834
1.82331
1.82186
1.82186
1.82263
1.8247
1.82571
1.82512
1.82415
1.8234
1.82306
1.82338
1.82278
1.82132
1.81954
1.81706
1.81298
1.80818
1.80527
1.80342
1.80173
1.80055
1.80032
1.7992
1.79736
1.79555
1.79099
1.40759
1.407
1.40613
1.4048
1.40263
1.40024
1.39804
1.39601
1.39408
1.39277
1.39255
1.39327
1.3946
1.39673
1.40023
1.40479
1.41039
1.41699
1.42441
1.43237
1.44021
1.44645
1.45046
1.45319
1.45525
1.45733
1.45902
1.46015
1.4612
1.46281
1.46323
1.46244
1.46117
1.45929
1.45628
1.45304
1.45153
1.45056
1.44984
1.44959
1.44967
1.44933
1.44906
1.44909
1.4495
1.45072
1.45225
1.45317
1.45471
1.45731
1.46085
1.46531
1.47134
1.47991
1.48887
1.49963
1.50907
1.51762
1.52971
1.54037
1.55272
1.56766
1.58004
1.596
1.6142
1.62987
1.6495
1.66499
1.67793
1.69436
1.70624
1.71903
1.73298
1.74352
1.75403
1.76503
1.77633
1.7884
1.8014
1.81343
1.82001
1.82308
1.82343
1.82345
1.826
1.8297
1.83575
1.84459
1.84942
1.85045
1.84928
1.84652
1.84657
1.84738
1.84826
1.84906
1.84941
1.84934
1.84923
1.8498
1.85059
1.84997
1.84841
1.84522
1.84049
1.83776
1.8365
1.83546
1.83569
1.83675
1.83528
1.83314
1.83
1.82507
1.82143
1.81963
1.81811
1.81683
1.8153
1.81353
1.81087
1.80657
1.80362
1.8021
1.80113
1.80078
1.79962
1.79797
1.79593
1.79281
1.78883
1.78572
1.41733
1.41615
1.41489
1.41392
1.41283
1.41161
1.41019
1.4084
1.40629
1.4041
1.40168
1.39946
1.39871
1.39919
1.40095
1.40405
1.40824
1.41345
1.41943
1.42586
1.43233
1.43879
1.44515
1.45066
1.45537
1.45973
1.46358
1.4668
1.46953
1.47216
1.47475
1.47643
1.47731
1.47775
1.47846
1.47961
1.48112
1.4836
1.4864
1.49027
1.49528
1.50172
1.51103
1.52046
1.53093
1.54111
1.55035
1.56259
1.57374
1.58549
1.60122
1.61569
1.63311
1.65374
1.66754
1.6842
1.69856
1.70978
1.72567
1.73866
1.75237
1.76695
1.77734
1.78838
1.79871
1.80926
1.82144
1.8321
1.83999
1.84498
1.84762
1.84891
1.85059
1.85342
1.85708
1.86173
1.86829
1.8752
1.87765
1.87825
1.87724
1.87275
1.86742
1.86642
1.86658
1.86802
1.87279
1.87685
1.87664
1.87533
1.87173
1.86485
1.8608
1.85931
1.85823
1.85922
1.86275
1.86268
1.86079
1.85841
1.85439
1.84715
1.83993
1.83692
1.83515
1.83373
1.83377
1.83694
1.83833
1.83683
1.83481
1.83128
1.82485
1.81992
1.818
1.81663
1.81573
1.81433
1.81262
1.81045
1.8073
1.80484
1.8034
1.80227
1.80145
1.80016
1.79859
1.79648
1.79291
1.78942
1.78788
1.78624
1.42571
1.42458
1.42401
1.42358
1.42331
1.42267
1.42172
1.42046
1.41869
1.41608
1.41293
1.41076
)
;

boundaryField
{
    inlet
    {
        type            calculated;
        value           nonuniform 0();
    }
    outlet
    {
        type            calculated;
        value           nonuniform List<scalar> 
19
(
1.23189
1.24209
1.25435
1.26705
1.27888
1.28956
1.29897
1.30691
1.3149
1.3238
1.34227
1.44006
1.62256
1.74246
1.78413
1.79659
1.7911
1.78562
1.78609
)
;
    }
    bottom
    {
        type            symmetryPlane;
    }
    top
    {
        type            symmetryPlane;
    }
    obstacle
    {
        type            calculated;
        value           nonuniform 0();
    }
    front
    {
        type            empty;
    }
    back
    {
        type            empty;
    }
    procBoundary31to23
    {
        type            processor;
        value           nonuniform List<scalar> 
133
(
1.24024
1.23797
1.23606
1.23506
1.23455
1.23427
1.23388
1.2335
1.23328
1.23314
1.23259
1.23163
1.23112
1.23081
1.23077
1.23079
1.23042
1.22996
1.2295
1.2286
1.22688
1.2259
1.22575
1.2258
1.22645
1.36419
1.36183
1.35883
1.35565
1.3535
1.35229
1.35151
1.35112
1.35065
1.34988
1.34902
1.34803
1.34665
1.34438
1.34244
1.34166
1.34106
1.34071
1.34071
1.34036
1.33962
1.33879
1.33774
1.33588
1.33363
1.33268
1.33216
1.33176
1.33165
1.3318
1.33156
1.33094
1.33
1.32827
1.32624
1.32536
1.32477
1.32415
1.32344
1.32267
1.32176
1.32056
1.31906
1.31785
1.31711
1.3165
1.31589
1.31525
1.3145
1.31361
1.31249
1.31098
1.30975
1.30911
1.30836
1.3076
1.30706
1.30664
1.30612
1.30539
1.30417
1.30228
1.30051
1.2994
1.29849
1.29751
1.29677
1.29632
1.29618
1.29589
1.29525
1.29381
1.29187
1.29014
1.28908
1.28832
1.2875
1.28649
1.28518
1.28391
1.28342
1.28315
1.28274
1.28191
1.28049
1.27893
1.27714
1.27494
1.27285
1.27174
1.27103
1.27072
1.27093
1.27056
1.26968
1.26825
1.26592
1.26248
1.26027
1.25923
1.25842
1.25785
1.25767
1.25809
1.25804
1.25733
1.25555
1.25555
)
;
    }
    procBoundary31to30
    {
        type            processor;
        value           nonuniform List<scalar> 
18
(
1.37744
1.38865
1.39664
1.39532
1.38463
1.3708
1.36278
1.36059
1.36092
1.36163
1.36429
1.36892
1.37396
1.37998
1.38819
1.39767
1.40791
1.41817
)
;
    }
    procBoundary31to38
    {
        type            processor;
        value           uniform 1.42731;
    }
    procBoundary31to39
    {
        type            processor;
        value           nonuniform List<scalar> 
133
(
1.40957
1.40939
1.40997
1.41161
1.41393
1.41728
1.42147
1.42624
1.43168
1.43818
1.44588
1.45452
1.46358
1.4725
1.4813
1.49009
1.49939
1.50918
1.51944
1.53154
1.5442
1.5583
1.57285
1.58528
1.60007
1.61275
1.625
1.64092
1.65518
1.67255
1.69347
1.7087
1.72537
1.73896
1.74903
1.76196
1.77301
1.78611
1.80297
1.81729
1.82968
1.83967
1.84587
1.85131
1.85685
1.86357
1.87158
1.8801
1.88544
1.88715
1.8867
1.88639
1.88775
1.89016
1.89529
1.90154
1.90319
1.90311
1.90074
1.8954
1.89264
1.89237
1.89255
1.89529
1.90093
1.90241
1.90129
1.89887
1.89368
1.88602
1.88198
1.88029
1.87902
1.8796
1.88234
1.88171
1.87958
1.87657
1.87054
1.8625
1.85882
1.85699
1.85589
1.8569
1.85987
1.85966
1.85808
1.85569
1.85005
1.841
1.83658
1.83494
1.8338
1.83454
1.83874
1.84012
1.83862
1.83661
1.83251
1.8253
1.82097
1.81936
1.81823
1.81793
1.81719
1.81567
1.81379
1.81077
1.80789
1.80637
1.80513
1.80436
1.80347
1.80215
1.80058
1.79796
1.79406
1.79175
1.79057
1.78935
1.43662
1.4364
1.43642
1.43689
1.43758
1.43785
1.43774
1.43727
1.43639
1.43563
1.43554
1.40957
1.43602
)
;
    }
}


// ************************************************************************* //
