/*--------------------------------*- C++ -*----------------------------------*\
  =========                 |
  \\      /  F ield         | OpenFOAM: The Open Source CFD Toolbox
   \\    /   O peration     | Website:  https://openfoam.org
    \\  /    A nd           | Version:  7
     \\/     M anipulation  |
\*---------------------------------------------------------------------------*/
FoamFile
{
    version     2.0;
    format      ascii;
    class       volVectorField;
    location    "0.051";
    object      U;
}
// * * * * * * * * * * * * * * * * * * * * * * * * * * * * * * * * * * * * * //

dimensions      [0 1 -1 0 0 0 0];

internalField   nonuniform List<vector> 
12359
(
(0.980975 0.00294389 -5.16453e-17)
(0.972349 -0.0003887 8.98611e-19)
(0.999964 3.71533e-05 -4.52749e-22)
(0.934148 -0.0014806 0)
(0.977677 0.00113521 -6.42023e-20)
(0.874588 0.000247825 0)
(0.829043 -0.00748746 -2.77042e-18)
(0.85619 0.00113208 -4.61593e-20)
(0.780076 -0.0127021 4.4241e-17)
(0.88859 0.000120125 0)
(0.803052 0.019535 -5.39013e-17)
(0.716584 0.068183 0)
(0.268568 0.0185284 7.42257e-18)
(0.921005 0.00110894 0)
(0.937278 -0.00256558 1.12165e-20)
(0.482087 0.0102026 0)
(0.392005 0.0108291 4.28278e-20)
(0.994611 -1.57236e-05 -3.05094e-19)
(0.995039 -1.43018e-05 -5.29339e-20)
(0.956269 -0.00101213 -6.93776e-19)
(0.911687 0.000213767 0)
(0.729124 0.0139693 1.05973e-17)
(0.963793 -0.00114191 -8.03613e-21)
(0.950958 0.00918985 -1.55985e-18)
(0.967543 0.000307859 -8.47164e-19)
(0.960276 -0.0012461 -2.92778e-20)
(0.998214 -2.59936e-05 -5.81731e-20)
(0.998344 8.94606e-06 7.55698e-21)
(0.995812 4.64795e-06 -5.25643e-22)
(0.997663 4.1575e-05 -8.19159e-21)
(0.997278 3.43321e-06 -4.5378e-19)
(0.998888 0.000189974 1.37658e-19)
(0.999433 -7.99065e-06 -6.20431e-20)
(0.997898 -9.32911e-07 2.11366e-21)
(0.999727 -1.36177e-05 7.347e-19)
(0.996959 4.50372e-05 3.57902e-19)
(0.988803 -3.84899e-05 -2.25183e-21)
(0.983396 -0.00134741 5.44168e-17)
(0.978453 0.00046676 -1.59317e-17)
(0.986592 -0.00076259 4.71757e-18)
(0.973346 -0.00110675 -5.1339e-19)
(0.9861 -0.000192397 -7.25839e-18)
(0.991999 -0.000268004 1.03409e-19)
(0.992556 6.48983e-05 6.55616e-18)
(0.996485 -4.34537e-05 3.50515e-22)
(0.996182 -2.26783e-05 0)
(0.996695 -1.71629e-05 1.57644e-20)
(0.997294 -8.47622e-05 1.16566e-19)
(0.995428 -3.43889e-06 -4.47843e-21)
(0.998066 -2.09814e-05 4.8819e-20)
(0.998474 1.28385e-05 2.04262e-21)
(0.998696 -1.64285e-05 0)
(0.999074 -5.92108e-05 -1.01343e-19)
(0.994142 -7.5939e-06 -7.13407e-18)
(0.999316 0.000281426 -7.95692e-21)
(0.999374 -1.45189e-05 -7.51348e-21)
(0.993111 2.77657e-05 3.17953e-17)
(0.999497 6.93258e-06 -1.73829e-18)
(0.999559 -2.54155e-05 -2.01303e-19)
(0.999616 5.09024e-05 1.04882e-18)
(0.99932 2.66019e-05 1.42501e-20)
(0.999869 8.92331e-05 2.48564e-20)
(0.998636 -1.08597e-05 0)
(0.146137 0.119432 -7.97515e-18)
(0.993643 -1.59068e-06 -2.86803e-17)
(0.901253 2.1136e-05 0)
(0.990015 0.00203596 -1.05186e-19)
(0.998743 -5.02573e-05 1.10856e-21)
(0.988308 0.000209959 0)
(0.572244 0.0455694 -4.72482e-19)
(-0.095165 -0.20022 0)
(0.976394 0.000127876 -4.3281e-19)
(0.999988 -1.81991e-05 0)
(0.987741 -0.000293751 4.349e-19)
(0.943676 -0.00187709 2.19471e-18)
(0.999782 -6.0453e-05 1.67304e-20)
(0.999122 -0.000191275 -4.35623e-21)
(0.999896 -2.29436e-05 -1.44433e-21)
(0.99004 -0.000901 9.58532e-20)
(0.64759 -0.0372766 1.63994e-19)
(0.915066 0.066761 -1.33114e-17)
(1.00341 0.00297559 -3.63904e-18)
(1.00005 4.01688e-05 8.99327e-19)
(0.997695 0.0125746 9.00866e-19)
(1.09028 0.120655 -1.28482e-21)
(1.02049 -0.000448209 -2.97909e-20)
(1.00367 0.00263747 -2.58451e-18)
(1.00143 0.000179572 6.5955e-19)
(1.11407 0.0518223 2.62537e-20)
(1.087 0.121618 3.85495e-21)
(0.999921 0.000368012 7.49729e-18)
(0.31657 0.383551 -8.02844e-18)
(1.00001 0.000240129 -1.69872e-18)
(1.00049 0.00606614 6.7976e-17)
(0.999785 0.00975992 6.20223e-18)
(1.0286 -0.00192326 -1.53275e-20)
(1.00011 0.00473882 2.99689e-17)
(0.999443 0.00573031 -2.87083e-17)
(0.990854 0.0318246 -1.53103e-18)
(0.995038 0.0171301 4.14749e-18)
(0.947127 0.0637025 1.16519e-17)
(1.00001 4.9034e-06 -1.30154e-18)
(1.01894 0.00140023 7.54719e-21)
(1.16556 0.0407643 -3.94602e-17)
(1.00388 0.000441496 -2.04367e-18)
(1.02966 0.0193082 7.35121e-18)
(1.00037 1.25981e-05 -8.93298e-21)
(1.10623 0.116705 -1.4841e-19)
(1.0174 0.000373651 1.25578e-20)
(1.0295 0.0154219 -3.76355e-18)
(1.00007 0.00436622 -1.02939e-18)
(1.00297 0.00293903 1.03841e-18)
(0.937945 0.0524426 -2.01448e-18)
(0.973991 0.0771169 1.08025e-19)
(0.998697 0.010152 1.91081e-17)
(1.00258 -6.83785e-05 1.26919e-21)
(0.949797 0.0642407 3.21693e-20)
(1.004 0.00212895 7.15884e-20)
(1.10547 0.0415537 -1.02521e-19)
(1 0.000115114 1.21423e-19)
(0.999948 0.00444764 4.01712e-18)
(0.87408 0.022892 3.65965e-18)
(1.00175 8.96884e-05 -1.26239e-18)
(1.03121 0.0030198 9.70857e-18)
(1.00441 0.00228063 -4.17557e-19)
(1.00291 0.000274413 1.52798e-17)
(1.00807 0.0986906 2.10214e-17)
(0.997529 0.0110187 -2.0154e-18)
(0.99992 5.44509e-05 4.26632e-19)
(1.00366 0.0021109 1.23387e-17)
(1.00242 0.000335717 3.65448e-20)
(1.05992 0.00316458 7.72951e-20)
(1.06163 0.00368094 -9.67115e-19)
(1.05716 0.0133847 5.7966e-19)
(1.00033 8.78149e-05 1.83988e-22)
(1.0306 0.00304138 3.65333e-18)
(1.00236 0.000638882 1.18742e-20)
(1.03258 0.00355106 4.99707e-19)
(0.999969 0.000253543 -2.14066e-18)
(1.01322 0.0774218 1.21778e-16)
(1.00001 0.000231579 -6.11869e-18)
(0.983755 0.0024053 1.38297e-16)
(1.02779 0.0104297 -7.52012e-18)
(1.00037 7.8372e-05 -5.48076e-23)
(1.03831 0.0320983 -3.20215e-20)
(0.888148 0.0372173 -8.8694e-19)
(1.00004 3.94001e-05 -3.65803e-19)
(1.08966 0.103701 2.53486e-18)
(1.00461 0.000289546 1.31043e-19)
(0.937097 0.0548487 3.31861e-18)
(1.0357 0.00116374 -2.09222e-18)
(0.999986 0.000191069 -4.23703e-18)
(1.02672 0.0106198 4.86326e-18)
(1.00133 0.000186891 -3.83184e-19)
(1.00001 -1.15184e-05 3.05512e-20)
(0.6183 1.07347 6.88467e-17)
(0.943306 0.0862531 1.77068e-17)
(1.0612 -0.0024425 -3.76639e-20)
(1.00003 0.00476345 -5.15151e-18)
(0.998976 0.000475551 1.06749e-18)
(1.00571 0.0387547 -1.06292e-17)
(0.99899 0.000503767 -1.17704e-18)
(1.03201 0.00282241 9.86911e-19)
(1.02899 0.00878095 -5.5455e-18)
(1.0001 4.72162e-05 2.88522e-19)
(1.00287 0.000333971 -4.89794e-18)
(1.00408 0.0414834 2.20213e-17)
(0.878792 0.0116364 1.26272e-18)
(1.02766 0.00872004 1.12761e-18)
(1.09878 0.0543652 7.31947e-20)
(0.99985 2.22264e-05 2.13859e-18)
(0.999846 0.000114799 1.19329e-18)
(1.02868 0.00710217 -3.70529e-18)
(0.973479 0.00192764 -3.15057e-17)
(1.00416 0.00115011 8.42811e-19)
(1.00348 0.0853871 -1.67638e-17)
(0.996458 0.000645224 -2.01146e-19)
(0.996475 0.000531272 -1.43589e-19)
(0.949473 0.0401337 -3.47255e-19)
(1.00569 0.0784137 -5.09525e-17)
(0.938113 0.00628885 -1.52124e-19)
(1.00001 0.000292744 -2.18943e-19)
(0.999891 6.14043e-05 -1.91079e-18)
(1.00359 0.00241433 8.89006e-19)
(0.99233 0.0262487 7.73858e-19)
(0.832346 0.13187 6.95641e-16)
(1.00354 0.00593003 5.99508e-20)
(1.0003 0.0094347 3.23308e-17)
(1.02978 -0.000544076 -2.91047e-20)
(1.00462 0.00417319 3.68013e-19)
(1.00051 0.00950864 8.39005e-18)
(1.02766 -0.000120018 1.06388e-20)
(1.03207 0.000213194 5.71309e-19)
(1.00191 0.000316845 -1.9617e-19)
(1.03657 0.0142191 -3.09109e-18)
(1.13568 0.0306141 -1.14442e-16)
(1.01431 0.0114635 4.42882e-21)
(1.00341 0.00519084 5.8826e-19)
(1.02881 0.0124155 1.83368e-19)
(1.00391 0.00228641 9.58649e-19)
(0.90648 0.0226395 -1.36885e-19)
(1.02987 0.00674281 1.52306e-19)
(0.993757 0.0157018 2.60658e-18)
(1.02991 0.0160867 7.66788e-18)
(1.03308 0.0301961 1.04725e-19)
(1.00002 0.000366741 1.08535e-18)
(1.03611 0.0316545 6.47032e-20)
(0.993529 0.0181123 5.08981e-17)
(1.03295 0.00258503 -5.7649e-19)
(1.00545 0.00261407 -7.95191e-18)
(1.00003 0.000242283 6.67111e-20)
(1.04272 0.00740806 3.65007e-18)
(1.045 0.00101614 5.80013e-18)
(1.33972 0.104558 4.33256e-17)
(0.843469 0.0727486 2.93054e-19)
(0.999902 0.000236397 1.94283e-18)
(1.00377 0.00524452 -5.59502e-19)
(0.998918 0.0100625 4.24908e-17)
(1.00411 0.00485427 1.1249e-18)
(0.984337 0.00147934 2.58215e-16)
(0.94621 0.0636947 1.39694e-16)
(1.00529 0.00441659 -1.52371e-17)
(1.0313 0.00384249 1.48788e-18)
(0.269518 0.18583 -2.08047e-18)
(1.00525 0.00281266 2.07712e-18)
(1.00006 0.000329232 -6.65374e-19)
(0.980988 0.00171458 8.16054e-17)
(1.0177 0.000669476 -4.77941e-21)
(1.00465 0.0790242 4.6081e-17)
(1.00297 0.00566479 2.61058e-18)
(1.00287 0.00579183 9.43294e-19)
(1.00011 4.61129e-05 1.42506e-18)
(1.03785 0.033699 1.0416e-20)
(0.992869 0.024377 -3.22503e-17)
(1.00056 0.00905051 1.72086e-18)
(0.995696 0.0187752 3.65255e-17)
(1.00003 0.000143252 -7.36312e-19)
(1.02917 0.0120148 -2.69046e-19)
(1.00004 0.00959862 2.08675e-17)
(0.61242 0.277478 -1.58666e-17)
(1.00016 0.000105221 -4.31427e-23)
(1.01817 -0.00339444 1.53758e-20)
(1.00053 0.00731037 9.923e-19)
(0.97392 0.147668 1.02277e-17)
(1.00957 0.0390657 -3.44764e-18)
(1.08794 0.0934824 -9.36026e-18)
(0.999576 4.41298e-05 -2.85627e-16)
(1.0295 -0.000886558 -1.99268e-18)
(1.00369 0.000626375 9.54333e-20)
(1.02564 0.00112309 1.57761e-18)
(1.03747 0.00307365 -5.52299e-19)
(0.984984 0.00193094 2.17712e-16)
(0.997122 0.000536573 6.32065e-19)
(1.00274 0.00586191 9.23098e-18)
(0.544053 0.358132 2.82626e-16)
(1.36711 0.115739 -2.03454e-16)
(0.999981 0.000138047 1.79972e-20)
(1.00543 0.00202897 5.41534e-18)
(0.487097 0.361388 9.27327e-19)
(1.07384 -0.00617283 3.62624e-17)
(0.994339 0.0178655 9.31132e-19)
(1.00154 0.0458193 -9.10656e-18)
(1.01557 0.0726647 6.87446e-18)
(1.03146 0.0132076 -3.87028e-19)
(0.970684 0.00457154 -1.18405e-16)
(1.51083 0.2188 7.96195e-17)
(1.10078 0.0366624 -6.15708e-20)
(1.00084 0.048334 -7.52275e-19)
(1.00459 0.00240852 7.9372e-18)
(1.03592 0.00234253 -8.50697e-18)
(1.02854 0.0072164 -5.90048e-18)
(0.989113 0.0261595 -1.0858e-17)
(1.02792 0.00965614 1.10463e-17)
(1.00278 0.00658086 1.91715e-17)
(1.00511 0.00258006 -1.07735e-17)
(1.00018 6.17506e-05 -4.53178e-22)
(1.00487 0.00283539 2.2494e-17)
(1.14956 0.053023 3.47635e-18)
(1.00985 0.0492144 -8.82779e-18)
(1.0005 0.000156603 -4.50025e-19)
(0.999989 0.000198753 7.29193e-17)
(1.03409 0.0124921 1.16607e-18)
(1.00567 -6.65276e-05 1.43417e-19)
(0.990599 0.000295041 4.35751e-18)
(1.02107 6.7754e-05 4.82061e-20)
(0.999995 0.000175771 -9.5936e-19)
(0.993202 0.0801098 1.19976e-18)
(0.999988 8.449e-05 5.43597e-19)
(1.00001 9.01833e-05 -4.47109e-17)
(0.999016 5.55872e-05 2.13078e-19)
(1.02959 0.00164999 -2.83761e-18)
(1.00369 0.0021269 -2.52548e-19)
(1.53174 0.514697 1.40302e-16)
(1.00035 2.75677e-05 1.11405e-21)
(1.00038 4.44274e-05 5.94725e-20)
(1.01911 0.00199014 9.32851e-22)
(1.00357 0.000831837 4.85659e-19)
(0.951551 0.0576808 6.70251e-17)
(0.999192 0.00939025 -8.88078e-17)
(0.998615 0.000154488 -1.68553e-17)
(1.00003 0.000191378 -5.90708e-19)
(1.14123 0.0635042 1.13057e-18)
(1.00399 0.0696325 -1.01693e-17)
(0.999957 0.000235161 -3.85912e-19)
(1.00359 0.00542345 -2.0192e-18)
(0.99943 0.00817584 2.67516e-17)
(1.00401 0.000641363 1.62637e-20)
(1.00277 0.000337309 -7.91741e-21)
(1.00239 0.000139602 -4.21748e-23)
(1.00356 0.00062564 4.84161e-18)
(0.994934 0.000833637 1.28903e-16)
(0.845917 0.0668107 -7.00255e-18)
(1.00367 0.00116833 2.5254e-22)
(0.997164 0.000483738 4.97021e-17)
(0.98484 0.000406654 6.01262e-16)
(1.02356 0.0221959 -2.99765e-17)
(1.09549 0.0334514 8.28618e-21)
(1.00401 -0.000518032 -1.99601e-18)
(0.989912 0.023921 -9.86984e-18)
(0.616468 0.0979662 -9.47265e-17)
(0.999973 0.000224969 -1.17572e-16)
(1.02401 0.00947451 4.2615e-20)
(1.00048 0.000193053 8.65375e-19)
(1.01357 0.0113705 3.8719e-20)
(1.00038 7.54197e-05 5.48789e-22)
(1.00729 -0.000729674 5.47336e-18)
(0.8254 0.0443208 -2.48027e-16)
(1.02446 0.0120134 -3.48616e-19)
(0.842687 0.0896557 -1.53023e-16)
(0.991434 0.000321642 1.18578e-17)
(1.00103 0.0071945 -2.49663e-18)
(1.02487 0.00137575 1.0181e-19)
(1.02551 -0.0018798 -3.81282e-20)
(1.0009 0.00692287 9.41176e-19)
(1.02642 0.00644479 2.93552e-20)
(1.02897 0.00170118 2.20747e-19)
(1.00078 0.000108631 6.40102e-21)
(0.999318 0.000476688 2.47572e-17)
(0.999382 0.000463941 5.09719e-18)
(0.999273 0.000443489 6.18468e-18)
(0.999336 0.000466292 -8.80469e-18)
(0.721608 0.252506 -2.83618e-18)
(1.00007 0.000221102 -1.75529e-19)
(0.946886 0.0699972 -3.56808e-17)
(1.03512 0.00113938 -1.30198e-19)
(0.993666 0.0239384 -9.22569e-18)
(1.02832 0.010096 7.73156e-19)
(1.02433 0.0125701 1.24407e-19)
(1.01914 0.00164059 6.31398e-21)
(1.01282 0.0111559 1.87294e-19)
(1.02544 0.0102618 5.71692e-21)
(1.01308 0.011795 5.47187e-19)
(0.993076 0.0246064 -2.97005e-18)
(1.02521 0.0241811 -2.44003e-17)
(1.02452 0.0283648 3.33861e-19)
(0.95673 0.0481497 6.04159e-17)
(0.9817 0.00192917 4.15606e-17)
(1.03381 0.0690546 -2.48794e-22)
(0.983441 0.00191269 2.97569e-16)
(0.98333 0.00100925 1.27621e-15)
(1.02771 0.0111326 1.83938e-19)
(0.946287 0.103709 8.69728e-19)
(1.00338 0.00262278 -2.94212e-19)
(0.999353 0.000250596 1.5884e-19)
(1.0146 0.0101048 -1.85771e-21)
(0.999293 7.97384e-06 1.26859e-18)
(1.00335 0.00348305 -1.89822e-19)
(1.17909 0.00972515 -1.90615e-16)
(0.350969 0.238439 4.1811e-17)
(1.00261 0.00297236 2.72564e-20)
(0.999961 0.000126371 4.72537e-19)
(1.00032 3.54176e-05 -3.44516e-23)
(0.999954 0.000325274 -4.0005e-18)
(1.02592 0.0111179 -8.03689e-19)
(0.99999 0.000132717 -1.09751e-20)
(0.999996 0.000119633 -2.1687e-19)
(1.10689 0.0513915 -1.96056e-20)
(1.02975 0.00889679 -1.58607e-17)
(1.08624 0.1694 6.12505e-20)
(1.00126 0.00315587 2.00295e-20)
(1.0319 0.00905096 -1.61335e-17)
(1.00713 0.00050127 -8.07037e-19)
(0.999618 0.00865931 -2.64419e-18)
(1.02886 0.0216001 -2.3001e-17)
(1.01505 0.00934025 8.22909e-21)
(0.931656 0.00895421 -4.04582e-19)
(1.01433 0.00863056 5.36703e-20)
(1.00244 0.00237957 -1.26793e-18)
(1.00055 0.000147395 1.56505e-19)
(1.02905 0.00726082 -1.01872e-17)
(1.03352 0.00747192 2.2973e-19)
(1.00526 0.000942526 -2.54455e-17)
(0.757888 0.0189779 1.97781e-17)
(1.03041 0.0271808 7.11072e-18)
(1.0314 -0.00174071 -1.55539e-20)
(0.99671 0.0317917 2.13599e-17)
(1.00297 0.0380117 9.8886e-17)
(0.999942 0.000235072 -2.64621e-17)
(0.328786 0.4662 5.99847e-18)
(1.03292 0.0738542 2.5032e-21)
(1.00043 0.00328614 -5.02814e-20)
(0.98774 0.175249 -3.28975e-18)
(0.985136 0.000727203 5.81038e-17)
(0.999944 0.000302954 1.78611e-17)
(1.00003 0.000289168 -4.04856e-19)
(1.00002 0.000310698 -8.81568e-18)
(1.10979 0.158054 2.31933e-20)
(0.945988 0.10005 -5.25825e-20)
(0.991355 0.0249819 3.95233e-17)
(1.02464 0.00847576 -2.00499e-18)
(1.03029 0.000994243 -9.20547e-19)
(0.998605 0.0109663 2.2065e-18)
(0.935591 0.00910681 6.45956e-18)
(1.00111 0.0342525 3.42005e-18)
(1.05149 0.00200769 -1.11834e-18)
(1.09607 0.035874 -7.07933e-21)
(0.700961 0.0474156 1.59715e-18)
(0.994626 0.0222064 -1.18597e-17)
(0.960715 0.0464244 1.58427e-16)
(1.01582 -0.00133898 -5.14824e-20)
(1.02608 0.0358393 -3.29754e-18)
(1.00837 0.00902192 1.39203e-18)
(1.01535 0.0107509 5.21992e-21)
(0.997646 0.000407615 2.03802e-17)
(1.01149 0.0107534 -1.7889e-19)
(1.02726 0.00987596 4.43715e-18)
(1.00001 0.000232774 5.34698e-20)
(1.09827 0.00588639 1.29177e-17)
(0.991024 0.00115707 -4.77473e-18)
(1.07142 0.00199504 5.97365e-18)
(1.03467 0.00658495 -1.96489e-19)
(0.994224 0.000961146 6.43856e-16)
(0.956015 0.0513341 -3.60371e-16)
(1.17868 0.226343 -1.23054e-18)
(1.02737 0.0136875 -3.40968e-19)
(1.00808 0.0143048 7.72974e-18)
(1.02741 0.000995817 3.1994e-21)
(1.02962 0.00684 1.91851e-18)
(1.02803 0.028504 -7.05368e-19)
(1.00391 0.00253211 -1.97689e-17)
(1 7.21534e-05 -7.23715e-17)
(0.992099 0.0656388 5.0495e-18)
(1.00034 4.83348e-05 1.18905e-21)
(1.05167 0.00966392 1.03172e-19)
(1.00235 0.000386013 3.26076e-19)
(0.967471 0.00403868 -1.34798e-18)
(0.963608 0.0398405 -3.0458e-17)
(1.01065 -0.000701222 -1.23408e-17)
(1.10258 0.0868036 -2.8545e-17)
(0.94391 0.0632643 -5.82205e-17)
(0.995145 0.0155865 4.99413e-19)
(1.00042 0.00381313 4.97656e-19)
(0.552552 0.0724839 -1.51593e-17)
(1.00069 6.9516e-05 -8.53516e-19)
(1.00093 0.00303895 1.85341e-18)
(1.04217 0.0358042 -1.03232e-20)
(0.99995 0.00016621 -1.05106e-18)
(1.00186 0.0038506 1.0962e-19)
(1.00137 0.0027151 1.12551e-17)
(0.781208 0.203323 -3.7219e-17)
(0.574801 0.598853 8.29501e-16)
(0.998522 0.011658 3.63522e-19)
(1.00149 5.58898e-05 3.61546e-22)
(0.941279 0.0323638 1.10319e-16)
(0.999941 0.0395294 7.45937e-17)
(1.02474 0.00935469 2.39263e-19)
(1.02968 0.0138506 1.84412e-19)
(1.02804 0.00876819 1.92902e-17)
(1.00091 -1.38549e-05 -1.84163e-17)
(1 0.000243111 -3.00886e-18)
(1.00556 0.0319424 7.01912e-17)
(0.999962 0.000235255 -8.50845e-20)
(0.966391 0.0366681 9.73152e-18)
(1.02451 0.00999766 -7.4638e-20)
(1.02514 0.0331892 -4.29641e-19)
(0.996741 0.000554529 -2.95203e-18)
(1.00072 0.0630736 -2.67038e-17)
(1.04483 0.0323796 2.50324e-19)
(0.997772 -6.17267e-05 -1.01936e-16)
(1.00151 0.0105614 6.32703e-19)
(1.00456 0.000716888 2.62011e-17)
(0.930132 0.0430498 4.10137e-16)
(1.04273 0.0335631 4.63267e-20)
(0.999947 0.000250191 2.00682e-17)
(1.00382 0.035465 -2.67506e-17)
(1.0286 0.00625042 1.97727e-17)
(1.01514 -0.000228848 -8.26775e-20)
(0.995727 0.0379146 -1.18436e-16)
(1.00294 0.000155124 2.36666e-20)
(0.928388 0.0894864 1.03429e-17)
(1.02276 0.00336178 2.47167e-19)
(1.03316 0.00125646 -1.12029e-18)
(1.0255 0.0281659 1.25347e-19)
(1.00081 -0.00020416 -5.08517e-18)
(1.0017 0.0108466 8.40781e-19)
(1.05307 0.052704 1.19058e-17)
(1.05649 0.0137188 -9.57986e-18)
(1.00001 0.000189643 1.7681e-20)
(1.01071 0.0138168 -2.47042e-19)
(1.01352 0.156192 -4.12978e-17)
(1.03031 -0.000431367 4.49472e-22)
(0.591657 0.500164 2.4045e-17)
(0.999987 0.000334864 -1.48295e-18)
(1.00241 0.000532238 2.06428e-18)
(1.00074 6.92753e-05 3.89916e-18)
(1.02859 0.0108906 1.85139e-18)
(0.995694 0.016062 -1.12719e-17)
(0.996073 0.0120812 -1.76037e-19)
(1.00274 0.000660456 1.09467e-19)
(0.995073 0.0377587 -4.40609e-17)
(1.01628 0.0111302 1.05397e-19)
(0.973967 0.00363442 -6.56458e-18)
(1.00846 0.00121409 -2.85895e-19)
(1.08123 0.0788244 -2.27749e-17)
(1.00047 8.94299e-05 2.12779e-17)
(1.08777 0.0836782 -5.35856e-17)
(1.00145 0.000160661 -2.44975e-19)
(0.546659 0.940323 -1.48809e-17)
(1.02758 -6.03783e-05 -8.51788e-19)
(1.05206 0.0573991 -6.5479e-18)
(0.999545 6.59724e-05 -1.14726e-16)
(0.997089 0.00073774 3.98129e-19)
(1.02451 0.0239246 5.08279e-17)
(1.00342 0.00218637 -1.21239e-18)
(0.998756 9.11433e-05 -5.29614e-17)
(0.992805 0.000592683 5.89985e-18)
(0.996542 0.0177171 -2.3858e-17)
(0.993717 0.0211496 7.33437e-18)
(0.977476 0.14397 -1.27209e-19)
(1.03075 0.0236755 1.97243e-17)
(1.03469 0.0313212 -3.024e-17)
(1.00001 5.52987e-05 3.81814e-19)
(1.00369 0.00208596 3.00881e-19)
(1.0246 0.0109978 -1.59745e-19)
(1.06477 -0.0017515 -1.16123e-17)
(1.00002 6.15112e-05 -2.64753e-17)
(1.00056 9.48559e-05 -2.31887e-18)
(1.02891 0.00643252 -6.59081e-18)
(1.00074 0.000153042 -2.55807e-20)
(0.840068 0.043597 9.65514e-17)
(1.1884 0.21335 2.1536e-18)
(1.11491 -0.00149829 -8.13049e-18)
(1 6.50253e-05 -2.20017e-18)
(1.00457 0.00845756 7.68726e-19)
(1.03951 0.000880468 1.1021e-18)
(0.995565 0.0131003 1.87822e-18)
(1.00395 0.000575689 1.46559e-18)
(0.111891 0.45383 1.71492e-15)
(1.00038 0.000111159 -1.0646e-18)
(0.934099 0.0675844 -9.7472e-17)
(0.963475 0.0411062 3.1308e-17)
(1.00674 0.0086668 -2.40258e-18)
(1.00373 0.000878753 5.14058e-19)
(0.998585 0.000236665 5.58015e-18)
(1.01063 -2.21448e-05 -2.74151e-17)
(1.03251 0.00143371 1.60102e-19)
(1.01551 0.0075156 2.13728e-18)
(0.997192 0.0105726 2.63696e-18)
(1 4.75053e-05 5.4385e-20)
(0.99987 3.62658e-05 -8.71464e-19)
(0.995117 0.0165105 -1.79853e-18)
(0.996438 0.000757848 -6.30478e-20)
(0.992298 0.0550225 8.96364e-17)
(1.0292 0.0100426 -1.18638e-17)
(0.998964 0.000125889 1.85362e-20)
(1.00048 0.00013193 -3.5293e-19)
(1.02556 0.0261922 2.60325e-18)
(1.09637 0.00227743 7.73326e-17)
(0.99806 0.000322756 1.04406e-16)
(1.04525 0.00218184 -1.92407e-19)
(1.00029 6.79691e-05 -4.16612e-23)
(0.996323 0.0109776 -3.47004e-19)
(0.954894 0.070817 -3.52936e-19)
(1.03093 -0.000349867 -2.13686e-19)
(1.03346 0.00546628 -1.60247e-18)
(0.951713 0.0543345 -5.49276e-17)
(1.00245 0.0180187 2.3225e-19)
(1.03252 0.00263821 2.5874e-19)
(0.999984 0.000298327 -1.4851e-18)
(0.999778 4.24748e-05 3.04656e-16)
(1.02849 0.00235534 1.88963e-18)
(1.00869 0.00749684 -9.42e-20)
(1.00354 0.0174892 -1.25223e-18)
(1.01001 0.0099298 -4.08412e-19)
(0.999989 0.000235239 4.52676e-17)
(1.00047 0.000150057 -5.9554e-20)
(1.00295 0.000279895 -6.21652e-18)
(1.00524 0.0266985 7.51017e-18)
(1.03411 -0.000656357 1.46751e-18)
(0.946533 0.0375762 -2.10627e-18)
(0.990097 0.000808706 -2.22234e-18)
(0.933226 0.0334802 -5.69268e-16)
(1.0282 0.0104124 -2.46758e-18)
(1.00854 0.0153372 1.00842e-17)
(0.937126 0.0468127 -3.52159e-17)
(0.990202 0.0228794 8.56649e-17)
(1.07092 -0.00030022 1.0276e-18)
(1.02889 0.00981386 -3.41931e-17)
(0.981331 0.0179339 -7.30163e-17)
(0.998204 0.0562922 -1.57766e-17)
(0.999692 0.000143044 5.06745e-19)
(1.01929 0.0750065 -1.41231e-19)
(1.02535 0.0225726 -4.51557e-18)
(1.00003 2.23281e-05 1.95976e-19)
(0.999995 9.26366e-05 6.99867e-17)
(1.00077 9.19108e-05 -5.18895e-18)
(0.999504 0.000359972 -1.53119e-16)
(1.06319 0.0613879 3.9152e-20)
(1.01059 0.0150267 7.24923e-20)
(1.01122 0.00295276 -6.67611e-19)
(0.947125 0.0358653 -4.13559e-20)
(0.991919 -0.000393949 -1.77514e-17)
(0.798216 0.0177337 2.38333e-15)
(1.02834 0.00441428 -3.48316e-21)
(1.03275 0.000243211 -2.97849e-19)
(1.004 0.000166322 3.37469e-17)
(1.04914 0.0323305 -4.46978e-19)
(1.00005 0.000285552 -1.35169e-16)
(0.995119 0.0313396 -2.1034e-18)
(1.0003 0.00332314 3.44372e-17)
(0.93494 0.102599 -2.44335e-18)
(0.93329 0.0364461 -8.4388e-19)
(1.00214 0.0149076 -9.5936e-19)
(1.01534 0.0107463 -2.22607e-20)
(0.572277 0.617115 5.83263e-16)
(1.02797 0.00988783 1.05979e-17)
(1.03251 0.0549955 -6.09347e-20)
(1.00933 0.0113207 2.64979e-19)
(0.978015 0.144526 1.02677e-18)
(1.16186 0.178881 -1.12405e-17)
(1.00114 4.75481e-05 1.44155e-20)
(0.998353 0.00314473 5.49446e-18)
(1 -3.09499e-05 1.4845e-18)
(1.05637 0.0574168 -6.74581e-19)
(0.998511 0.0030065 -5.87396e-18)
(1.01485 0.00856723 -7.35311e-19)
(1.09799 0.0948014 1.75013e-17)
(1.00039 9.86003e-05 9.319e-19)
(0.972556 0.00368508 -2.44529e-17)
(0.990848 0.0469705 1.14682e-17)
(1.00644 0.0139232 6.90847e-18)
(0.997398 0.000191678 2.96094e-17)
(1.00229 0.0153343 2.40299e-19)
(0.999109 0.000708815 -6.48406e-17)
(0.995004 0.0148185 2.09672e-19)
(0.999085 0.0006182 5.12558e-18)
(0.999143 0.000804831 8.84782e-17)
(0.995681 0.0125689 -3.03241e-19)
(1.03149 0.00338849 -4.68994e-18)
(1.0294 0.00693611 -1.1327e-17)
(1.00702 0.0147902 6.93469e-17)
(0.640891 0.0377846 -9.51004e-18)
(1.02758 0.00236163 2.68898e-18)
(0.398359 0.353237 -1.53531e-16)
(1.02386 0.00881886 1.34116e-18)
(1.02018 -0.00222706 -1.27242e-21)
(0.995259 0.0136874 -1.18322e-18)
(1.0257 0.0111864 -1.45235e-19)
(0.991707 0.0241818 -1.1141e-18)
(1.02977 -0.00133153 -2.51757e-21)
(0.574984 0.405753 -6.76166e-17)
(0.953214 0.0320994 -4.3809e-17)
(0.994277 0.0228849 -2.25767e-17)
(1.00425 0.0211711 4.49769e-19)
(0.995099 0.00110245 3.56738e-17)
(0.996102 0.00123932 3.51093e-18)
(1.02447 0.0258839 -5.95153e-18)
(0.999972 0.000218553 -5.39162e-17)
(1.07512 0.00608878 -2.06902e-19)
(0.999171 2.03394e-05 1.24162e-18)
(0.950568 0.0364444 -1.41563e-17)
(1.00714 0.0637058 6.9728e-18)
(1.06355 0.0490379 3.42095e-19)
(1.03758 0.0190397 1.83212e-17)
(1.03217 0.0123593 4.53928e-19)
(0.995924 0.0488049 7.03717e-17)
(1.0092 0.0120589 7.43324e-19)
(1.03714 0.020489 1.26622e-17)
(0.972727 0.0291426 -2.53852e-18)
(1.05142 0.0618684 3.37214e-19)
(1.00808 0.0199224 2.01601e-17)
(1.0445 0.0346585 -8.43412e-20)
(1.00593 0.0213199 -5.50468e-18)
(1 0.000169107 -1.92614e-19)
(1.00297 0.0221531 9.56005e-19)
(1.1719 0.028248 4.09039e-17)
(0.973163 0.130544 3.36211e-19)
(1.00487 0.00400128 -1.91688e-17)
(1.00015 4.35159e-05 7.18364e-20)
(0.998941 9.91623e-05 7.55224e-19)
(0.994849 0.00686138 5.80204e-19)
(0.9693 0.00382164 -2.94817e-17)
(1.02932 0.00434419 6.5647e-18)
(1.02423 -0.00291704 -1.05766e-17)
(1.00085 -0.000136968 -2.49485e-17)
(1.00332 0.00599115 -2.6363e-17)
(0.994003 0.0262063 -7.72056e-18)
(1.00569 0.00551151 2.11475e-17)
(1.00795 0.000547446 -8.20056e-19)
(1.04493 0.0294437 8.06407e-18)
(0.994127 0.00181265 -3.64314e-16)
(0.989966 0.0354289 7.50816e-17)
(1.03338 0.0108323 1.91408e-18)
(1.00493 0.0061579 8.93923e-18)
(1.00857 0.00652068 -2.2364e-18)
(0.947997 0.0532499 9.9033e-17)
(1.00001 2.70567e-05 -9.42556e-20)
(0.993677 0.00528224 2.01339e-18)
(1.29125 0.109175 -3.34326e-17)
(0.99959 7.11161e-05 -5.37481e-16)
(1.04024 0.0333915 1.52882e-20)
(0.991906 0.071936 7.99421e-19)
(1.00649 0.006417 -7.41118e-18)
(0.960718 0.0435518 -1.16321e-16)
(1.03354 0.0124253 -6.78626e-19)
(0.99503 0.0268472 6.14773e-18)
(1.02556 0.0279138 4.23186e-21)
(0.999587 0.00300698 -4.04265e-19)
(0.939815 0.0364225 -1.09637e-16)
(1.00487 0.000571812 1.01208e-20)
(1.0297 0.00359674 4.10526e-18)
(1.02766 0.00825538 6.78274e-20)
(0.938203 0.0415218 -1.44236e-16)
(0.999788 0.00288406 -4.4466e-19)
(1.03511 -0.00348587 -1.59156e-19)
(1.05504 0.0147742 1.50691e-19)
(0.994843 0.0317311 -8.87475e-18)
(1.00551 0.0123638 -2.70403e-17)
(1.00413 0.00250411 -3.4506e-18)
(1.01208 0.0578555 1.01618e-19)
(0.76086 0.234234 -4.12777e-18)
(0.995852 0.000776086 1.2411e-16)
(0.999916 0.000194921 6.64142e-18)
(0.996261 0.0234367 1.72181e-18)
(0.999952 0.000294384 -2.51764e-19)
(1.16939 0.163734 4.67837e-18)
(1.00643 0.0200561 2.59204e-17)
(1.03644 0.0829641 -1.39169e-20)
(1.0144 0.00605383 3.54018e-17)
(1.02216 0.00181353 3.71897e-18)
(0.253564 0.0143854 -3.01492e-15)
(1.00623 0.0138329 -7.55015e-18)
(1.10032 0.17721 -6.4854e-20)
(1.02923 0.00514722 1.39473e-17)
(1.11057 0.00809044 -2.11693e-18)
(1.02507 0.00993249 1.08968e-19)
(0.996882 0.0112476 -2.98491e-18)
(1.00593 0.013122 -3.13878e-18)
(1.01404 -0.000378061 -1.46651e-19)
(1.09256 0.0832013 9.41165e-17)
(1.08267 0.0720863 1.12827e-17)
(1.00145 0.000121294 8.41869e-21)
(1.00147 1.16645e-05 5.92605e-21)
(0.931061 0.0475447 8.65536e-17)
(1.00195 -0.000253881 -1.08041e-18)
(0.789318 0.350322 -5.13293e-18)
(1.02687 0.0265725 -1.19724e-19)
(0.96948 0.162185 -4.28942e-20)
(1.00393 0.00269753 1.25843e-17)
(0.337981 0.458742 -3.04956e-15)
(1.1311 0.204161 -2.12446e-18)
(1.00552 0.0211485 -4.50696e-18)
(1.00002 0.000157746 6.62006e-19)
(0.999869 0.00261725 6.84553e-20)
(0.957589 0.0287527 -1.71191e-16)
(0.994755 0.00751616 -1.12057e-18)
(0.990056 0.000913499 -1.36333e-19)
(0.997294 0.00877104 2.38358e-19)
(1.0281 0.00961395 2.2687e-19)
(0.97449 0.0268624 2.1039e-18)
(1.08516 -0.00291154 7.68706e-18)
(0.649581 0.0613991 1.62005e-17)
(1.00064 -9.02126e-05 -1.26654e-17)
(0.967514 0.0352893 -5.98381e-17)
(1.03454 0.0206114 1.38756e-17)
(0.938673 0.0560559 -1.89014e-17)
(1.00436 0.011952 -2.32901e-17)
(0.933902 0.0770282 1.21588e-16)
(1.02857 0.00692631 -5.27613e-20)
(0.955226 0.033166 -1.35168e-16)
(0.997252 0.000324866 -5.86782e-18)
(1.00013 1.38273e-05 -1.18665e-19)
(1.03609 0.0193373 -7.43419e-18)
(1.0388 0.0184948 -5.64798e-18)
(1.0259 0.00216915 -2.34888e-18)
(0.931463 0.0374132 -4.89921e-17)
(1.03451 0.0782908 6.04965e-21)
(1.01578 -0.0007137 -3.15072e-19)
(0.995314 0.0225926 1.2021e-17)
(1.00045 0.00345842 -1.34874e-17)
(1.00895 0.00889179 2.42542e-18)
(0.77762 0.0290961 1.33741e-15)
(1.00784 0.00656908 -1.53679e-17)
(1.03422 0.0174575 1.06891e-17)
(0.984772 0.0377248 4.47597e-20)
(1.02376 0.00732834 -6.13795e-19)
(1.01066 -0.00113625 2.92811e-17)
(0.996736 0.0103024 1.41996e-19)
(1.05125 0.0132099 1.20996e-20)
(1.01372 0.00587883 -2.61227e-17)
(1.00525 0.011654 4.74118e-17)
(1.07083 0.00605944 -6.76127e-19)
(0.990001 0.0248978 -1.07951e-18)
(1.01814 0.00149174 3.1958e-20)
(0.755716 0.405311 1.32006e-17)
(1 6.57072e-05 4.09242e-20)
(1.01431 0.00662636 5.97158e-18)
(1.00301 0.0183339 8.82583e-17)
(0.992971 0.00642033 -3.53515e-21)
(1.00254 0.000190372 1.24959e-18)
(0.999677 0.0244518 1.01985e-17)
(1.00002 3.43523e-05 1.33802e-19)
(1.04759 0.0998348 -8.41777e-18)
(1.00518 0.00105799 -2.00354e-18)
(0.973728 0.00434551 -1.59548e-18)
(1.03465 0.0282583 3.04423e-18)
(0.957351 0.0418312 1.39686e-17)
(1.01502 0.00847093 -2.86933e-19)
(1.01468 0.00694307 1.86048e-17)
(1.03482 0.0187115 4.71316e-19)
(1.2016 0.0380447 -1.68927e-18)
(0.99965 0.000122077 1.25461e-19)
(0.992835 0.00161203 4.46095e-16)
(1.01814 0.00257872 1.94624e-19)
(1.10962 0.188178 1.83795e-19)
(1.03855 0.019886 3.44341e-18)
(0.999794 0.00283217 -6.03696e-20)
(0.238692 0.148883 -7.13487e-15)
(1.00011 4.53006e-05 -1.39718e-17)
(1.00401 0.00226953 -1.08268e-17)
(1.1596 0.0146728 -9.29494e-17)
(0.994822 0.00491549 -1.45229e-20)
(0.999596 0.00303516 -9.0548e-20)
(0.999553 0.00326548 4.37198e-19)
(0.984449 0.0377252 1.14271e-18)
(0.962371 0.0261532 2.76758e-16)
(0.999661 3.07896e-05 -2.89433e-16)
(0.993922 0.00614364 -2.56729e-20)
(0.939427 0.0703219 -2.16973e-16)
(0.995739 0.0220517 -6.55569e-17)
(0.996696 0.0156675 -2.67996e-17)
(0.997003 0.008543 -1.56916e-18)
(1.00113 0.000122253 -1.32469e-18)
(0.959917 0.0297189 -5.65563e-17)
(1.06392 0.0505896 1.8453e-19)
(0.99547 0.0143447 -1.64657e-18)
(0.934485 0.0326733 2.65718e-16)
(1.02888 0.00446187 2.44561e-18)
(1.02769 0.00256171 8.51985e-21)
(1.04081 0.0929927 5.5259e-18)
(1.02969 0.0322899 -1.82477e-18)
(0.99669 0.00908477 1.22286e-18)
(1.00528 0.00120728 7.86738e-18)
(1.08678 0.0927061 3.33724e-17)
(1.03235 0.00352237 1.02757e-20)
(0.977331 0.0239936 8.27961e-19)
(1.00051 0.00388959 -3.47066e-18)
(0.999455 0.000334066 -9.07096e-17)
(0.931875 0.0108721 -5.84755e-16)
(1.049 0.0350229 1.48951e-19)
(1.01301 0.00572529 -5.92148e-18)
(1.01186 0.0432819 2.67996e-18)
(1.01369 0.00634508 1.88558e-17)
(0.997043 0.00931534 6.58529e-20)
(1.00453 0.00334232 -1.11968e-19)
(0.96765 0.0308509 -4.24628e-19)
(1.2215 0.0283221 4.04734e-17)
(0.516125 0.478576 1.56879e-15)
(0.969551 0.0331292 2.36074e-17)
(1.00141 0.015459 1.39691e-18)
(1.00463 0.00478053 6.51262e-19)
(0.971833 0.0298494 1.79419e-18)
(0.492109 0.260418 2.52544e-16)
(0.940588 0.0288642 -1.78765e-16)
(0.999861 0.00267907 -2.10542e-19)
(1.04708 0.0256352 -1.05723e-17)
(1.06009 0.0610001 1.00542e-20)
(1.25293 0.276561 -7.9541e-18)
(1.01118 0.00263928 3.42005e-18)
(1.16468 0.0133476 -1.91076e-17)