/*--------------------------------*- C++ -*----------------------------------*\
  =========                 |
  \\      /  F ield         | OpenFOAM: The Open Source CFD Toolbox
   \\    /   O peration     | Website:  https://openfoam.org
    \\  /    A nd           | Version:  7
     \\/     M anipulation  |
\*---------------------------------------------------------------------------*/
FoamFile
{
    version     2.0;
    format      ascii;
    class       volVectorField;
    location    "1.5";
    object      U;
}
// * * * * * * * * * * * * * * * * * * * * * * * * * * * * * * * * * * * * * //

dimensions      [0 1 -1 0 0 0 0];

internalField   nonuniform List<vector> 
40000
(
(-5.5256e-07 4.67267e-07 0)
(1.13557e-06 -9.53579e-07 0)
(7.2121e-06 -2.33451e-06 0)
(1.58911e-05 -3.16787e-06 0)
(2.60553e-05 -3.54802e-06 0)
(3.67352e-05 -3.60557e-06 0)
(4.71622e-05 -3.44258e-06 0)
(5.67718e-05 -3.13188e-06 0)
(6.51603e-05 -2.72354e-06 0)
(7.20426e-05 -2.25232e-06 0)
(7.72222e-05 -1.74245e-06 0)
(8.05705e-05 -1.21127e-06 0)
(8.20104e-05 -6.71594e-07 0)
(8.15046e-05 -1.32402e-07 0)
(7.90457e-05 3.99502e-07 0)
(7.46495e-05 9.19236e-07 0)
(6.83486e-05 1.42342e-06 0)
(6.01877e-05 1.9099e-06 0)
(5.02203e-05 2.3775e-06 0)
(3.85046e-05 2.82576e-06 0)
(2.51016e-05 3.25466e-06 0)
(1.00729e-05 3.66463e-06 0)
(-6.52075e-06 4.05645e-06 0)
(-2.46205e-05 4.43131e-06 0)
(-4.41705e-05 4.79043e-06 0)
(-6.51188e-05 5.13518e-06 0)
(-8.74177e-05 5.46703e-06 0)
(-0.000111024 5.78747e-06 0)
(-0.000135899 6.09799e-06 0)
(-0.000162009 6.40005e-06 0)
(-0.000189324 6.69499e-06 0)
(-0.000217821 6.98411e-06 0)
(-0.000247477 7.26865e-06 0)
(-0.000278277 7.54971e-06 0)
(-0.000310207 7.8283e-06 0)
(-0.000343256 8.1053e-06 0)
(-0.000377417 8.3814e-06 0)
(-0.000412685 8.65724e-06 0)
(-0.000449057 8.93331e-06 0)
(-0.000486529 9.20997e-06 0)
(-0.000525101 9.48744e-06 0)
(-0.000564773 9.76586e-06 0)
(-0.000605543 1.00452e-05 0)
(-0.000647409 1.03253e-05 0)
(-0.000690371 1.0606e-05 0)
(-0.000734426 1.0887e-05 0)
(-0.000779567 1.11678e-05 0)
(-0.00082579 1.1448e-05 0)
(-0.000873084 1.17269e-05 0)
(-0.00092144 1.20038e-05 0)
(-0.000970842 1.22781e-05 0)
(-0.00102127 1.25489e-05 0)
(-0.00107272 1.28153e-05 0)
(-0.00112514 1.30764e-05 0)
(-0.00117853 1.33312e-05 0)
(-0.00123284 1.35787e-05 0)
(-0.00128805 1.38178e-05 0)
(-0.0013441 1.40474e-05 0)
(-0.00140097 1.42664e-05 0)
(-0.00145859 1.44735e-05 0)
(-0.00151692 1.46675e-05 0)
(-0.00157589 1.48471e-05 0)
(-0.00163546 1.50112e-05 0)
(-0.00169554 1.51585e-05 0)
(-0.00175606 1.52876e-05 0)
(-0.00181696 1.53973e-05 0)
(-0.00187814 1.54862e-05 0)
(-0.00193952 1.55531e-05 0)
(-0.00200102 1.55966e-05 0)
(-0.00206252 1.56155e-05 0)
(-0.00212394 1.56085e-05 0)
(-0.00218516 1.55744e-05 0)
(-0.00224609 1.55119e-05 0)
(-0.00230659 1.54198e-05 0)
(-0.00236656 1.52971e-05 0)
(-0.00242588 1.51425e-05 0)
(-0.00248441 1.49551e-05 0)
(-0.00254203 1.47339e-05 0)
(-0.0025986 1.44779e-05 0)
(-0.002654 1.41864e-05 0)
(-0.00270808 1.38586e-05 0)
(-0.0027607 1.34937e-05 0)
(-0.00281172 1.30913e-05 0)
(-0.00286099 1.26508e-05 0)
(-0.00290838 1.21721e-05 0)
(-0.00295374 1.16547e-05 0)
(-0.00299692 1.10987e-05 0)
(-0.00303778 1.0504e-05 0)
(-0.00307617 9.87097e-06 0)
(-0.00311196 9.19984e-06 0)
(-0.003145 8.49111e-06 0)
(-0.00317516 7.74546e-06 0)
(-0.00320229 6.96369e-06 0)
(-0.00322628 6.14681e-06 0)
(-0.003247 5.29598e-06 0)
(-0.00326432 4.41255e-06 0)
(-0.00327813 3.49803e-06 0)
(-0.00328832 2.55412e-06 0)
(-0.0032948 1.5827e-06 0)
(-0.00329747 5.85815e-07 0)
(-0.00329624 -4.34314e-07 0)
(-0.00329103 -1.47527e-06 0)
(-0.00328179 -2.53449e-06 0)
(-0.00326846 -3.60925e-06 0)
(-0.00325098 -4.69666e-06 0)
(-0.00322932 -5.79369e-06 0)
(-0.00320346 -6.8972e-06 0)
(-0.00317339 -8.00388e-06 0)
(-0.00313911 -9.11033e-06 0)
(-0.00310064 -1.0213e-05 0)
(-0.00305799 -1.13084e-05 0)
(-0.00301122 -1.23927e-05 0)
(-0.00296037 -1.34624e-05 0)
(-0.00290551 -1.45136e-05 0)
(-0.00284673 -1.55425e-05 0)
(-0.00278411 -1.65453e-05 0)
(-0.00271777 -1.75184e-05 0)
(-0.00264783 -1.8458e-05 0)
(-0.00257443 -1.93604e-05 0)
(-0.00249771 -2.0222e-05 0)
(-0.00241783 -2.10395e-05 0)
(-0.00233497 -2.18094e-05 0)
(-0.00224931 -2.25285e-05 0)
(-0.00216105 -2.31937e-05 0)
(-0.0020704 -2.38024e-05 0)
(-0.00197757 -2.43517e-05 0)
(-0.00188279 -2.48392e-05 0)
(-0.00178629 -2.52629e-05 0)
(-0.00168831 -2.56207e-05 0)
(-0.00158911 -2.5911e-05 0)
(-0.00148893 -2.61324e-05 0)
(-0.00138803 -2.62839e-05 0)
(-0.00128668 -2.63647e-05 0)
(-0.00118513 -2.63743e-05 0)
(-0.00108366 -2.63125e-05 0)
(-0.000982515 -2.61797e-05 0)
(-0.000881972 -2.59762e-05 0)
(-0.000782287 -2.57029e-05 0)
(-0.000683718 -2.53609e-05 0)
(-0.000586518 -2.49517e-05 0)
(-0.000490933 -2.4477e-05 0)
(-0.000397204 -2.39389e-05 0)
(-0.000305565 -2.33396e-05 0)
(-0.000216238 -2.26818e-05 0)
(-0.000129438 -2.19682e-05 0)
(-4.53698e-05 -2.1202e-05 0)
(3.57744e-05 -2.03866e-05 0)
(0.000113813 -1.95248e-05 0)
(0.000188579 -1.86208e-05 0)
(0.000259917 -1.76782e-05 0)
(0.000327685 -1.67007e-05 0)
(0.000391756 -1.56924e-05 0)
(0.000452018 -1.46573e-05 0)
(0.00050837 -1.35992e-05 0)
(0.000560731 -1.25225e-05 0)
(0.000609031 -1.14309e-05 0)
(0.000653215 -1.03286e-05 0)
(0.000693245 -9.2195e-06 0)
(0.000729094 -8.10742e-06 0)
(0.000760753 -6.99615e-06 0)
(0.000788224 -5.88933e-06 0)
(0.000811523 -4.79047e-06 0)
(0.00083068 -3.70296e-06 0)
(0.000845738 -2.63001e-06 0)
(0.000856751 -1.57472e-06 0)
(0.000863785 -5.39979e-07 0)
(0.000866917 4.71414e-07 0)
(0.000866236 1.45677e-06 0)
(0.000861839 2.41388e-06 0)
(0.000853836 3.34023e-06 0)
(0.000842344 4.23355e-06 0)
(0.00082749 5.0917e-06 0)
(0.000809411 5.91256e-06 0)
(0.000788251 6.69401e-06 0)
(0.000764165 7.43393e-06 0)
(0.000737317 8.13006e-06 0)
(0.00070788 8.78002e-06 0)
(0.000676039 9.38121e-06 0)
(0.000641988 9.93073e-06 0)
(0.000605936 1.04253e-05 0)
(0.000568105 1.08611e-05 0)
(0.000528731 1.12337e-05 0)
(0.000488071 1.15379e-05 0)
(0.000446401 1.17677e-05 0)
(0.00040402 1.19159e-05 0)
(0.000361255 1.19738e-05 0)
(0.000318463 1.19313e-05 0)
(0.00027604 1.17763e-05 0)
(0.000234419 1.14944e-05 0)
(0.000194082 1.10683e-05 0)
(0.000155565 1.04772e-05 0)
(0.000119459 9.69635e-06 0)
(8.64244e-05 8.69631e-06 0)
(5.71834e-05 7.44302e-06 0)
(3.25186e-05 5.90038e-06 0)
(1.32346e-05 4.0431e-06 0)
(8.48456e-08 1.89966e-06 0)
(-6.37848e-06 -3.67429e-07 0)
(-6.43153e-06 -2.30004e-06 0)
(-2.4872e-06 -2.48702e-06 0)
(9.12563e-07 -1.26923e-06 0)
(8.00085e-06 -8.07082e-06 0)
(2.3513e-05 -1.39782e-05 0)
(4.40849e-05 -1.77445e-05 0)
(6.74592e-05 -1.9536e-05 0)
(9.17233e-05 -1.9733e-05 0)
(0.000115203 -1.87057e-05 0)
(0.000136552 -1.67666e-05 0)
(0.000154734 -1.41633e-05 0)
(0.000168972 -1.10883e-05 0)
(0.000178701 -7.68981e-06 0)
(0.000183525 -4.0828e-06 0)
(0.000183187 -3.56179e-07 0)
(0.000177536 3.42153e-06 0)
(0.000166508 7.19817e-06 0)
(0.000150104 1.09343e-05 0)
(0.000128378 1.46008e-05 0)
(0.000101421 1.81771e-05 0)
(6.93505e-05 2.16495e-05 0)
(3.23024e-05 2.50096e-05 0)
(-9.57599e-06 2.82533e-05 0)
(-5.61318e-05 3.13803e-05 0)
(-0.000107211 3.43928e-05 0)
(-0.000162664 3.72957e-05 0)
(-0.000222345 4.0095e-05 0)
(-0.000286117 4.27982e-05 0)
(-0.000353854 4.54134e-05 0)
(-0.000425438 4.79495e-05 0)
(-0.000500764 5.04152e-05 0)
(-0.000579738 5.28195e-05 0)
(-0.000662279 5.51708e-05 0)
(-0.000748315 5.74773e-05 0)
(-0.000837786 5.97468e-05 0)
(-0.00093064 6.19862e-05 0)
(-0.00102684 6.4202e-05 0)
(-0.00112634 6.63997e-05 0)
(-0.00122912 6.85839e-05 0)
(-0.00133517 7.07585e-05 0)
(-0.00144445 7.29265e-05 0)
(-0.00155697 7.509e-05 0)
(-0.0016727 7.72504e-05 0)
(-0.00179163 7.94081e-05 0)
(-0.00191376 8.15627e-05 0)
(-0.00203908 8.37129e-05 0)
(-0.00216756 8.58568e-05 0)
(-0.00229919 8.79919e-05 0)
(-0.00243394 9.01147e-05 0)
(-0.0025718 9.22213e-05 0)
(-0.00271271 9.4307e-05 0)
(-0.00285665 9.63667e-05 0)
(-0.00300355 9.83946e-05 0)
(-0.00315337 0.000100385 0)
(-0.00330602 0.00010233 0)
(-0.00346144 0.000104224 0)
(-0.00361953 0.000106058 0)
(-0.00378019 0.000107826 0)
(-0.00394331 0.000109519 0)
(-0.00410877 0.000111128 0)
(-0.00427642 0.000112645 0)
(-0.00444613 0.000114062 0)
(-0.00461772 0.000115368 0)
(-0.00479102 0.000116556 0)
(-0.00496584 0.000117615 0)
(-0.00514198 0.000118536 0)
(-0.00531922 0.000119311 0)
(-0.00549733 0.000119928 0)
(-0.00567608 0.00012038 0)
(-0.00585519 0.000120657 0)
(-0.00603441 0.000120749 0)
(-0.00621345 0.000120647 0)
(-0.00639201 0.000120343 0)
(-0.00656979 0.000119828 0)
(-0.00674646 0.000119092 0)
(-0.00692169 0.000118129 0)
(-0.00709515 0.000116931 0)
(-0.00726647 0.000115489 0)
(-0.0074353 0.000113798 0)
(-0.00760126 0.00011185 0)
(-0.00776398 0.000109641 0)
(-0.00792305 0.000107164 0)
(-0.00807811 0.000104415 0)
(-0.00822873 0.000101391 0)
(-0.00837452 9.80877e-05 0)
(-0.00851508 9.45038e-05 0)
(-0.00864999 9.06378e-05 0)
(-0.00877885 8.6489e-05 0)
(-0.00890125 8.20581e-05 0)
(-0.00901678 7.73467e-05 0)
(-0.00912505 7.23572e-05 0)
(-0.00922565 6.70934e-05 0)
(-0.0093182 6.15601e-05 0)
(-0.00940233 5.57632e-05 0)
(-0.00947765 4.97099e-05 0)
(-0.00954381 4.34085e-05 0)
(-0.00960047 3.68686e-05 0)
(-0.0096473 3.01009e-05 0)
(-0.00968398 2.31175e-05 0)
(-0.00971023 1.59316e-05 0)
(-0.00972577 8.55769e-06 0)
(-0.00973035 1.01141e-06 0)
(-0.00972375 -6.69042e-06 0)
(-0.00970576 -1.45298e-05 0)
(-0.00967622 -2.24875e-05 0)
(-0.00963497 -3.05434e-05 0)
(-0.0095819 -3.86764e-05 0)
(-0.00951693 -4.68643e-05 0)
(-0.00944 -5.50841e-05 0)
(-0.00935111 -6.3312e-05 0)
(-0.00925026 -7.15234e-05 0)
(-0.0091375 -7.96931e-05 0)
(-0.00901294 -8.77956e-05 0)
(-0.00887668 -9.58046e-05 0)
(-0.00872891 -0.000103694 0)
(-0.0085698 -0.000111437 0)
(-0.00839961 -0.000119007 0)
(-0.00821862 -0.000126377 0)
(-0.00802712 -0.000133521 0)
(-0.00782548 -0.000140413 0)
(-0.00761408 -0.000147028 0)
(-0.00739334 -0.00015334 0)
(-0.00716371 -0.000159326 0)
(-0.0069257 -0.000164962 0)
(-0.00667981 -0.000170226 0)
(-0.00642661 -0.000175097 0)
(-0.00616667 -0.000179554 0)
(-0.0059006 -0.000183581 0)
(-0.00562903 -0.00018716 0)
(-0.00535261 -0.000190276 0)
(-0.00507203 -0.000192915 0)
(-0.00478796 -0.000195067 0)
(-0.00450113 -0.000196722 0)
(-0.00421223 -0.000197872 0)
(-0.00392201 -0.000198512 0)
(-0.00363119 -0.000198639 0)
(-0.00334051 -0.000198251 0)
(-0.00305071 -0.000197351 0)
(-0.00276252 -0.00019594 0)
(-0.00247666 -0.000194026 0)
(-0.00219386 -0.000191615 0)
(-0.00191481 -0.000188717 0)
(-0.00164022 -0.000185344 0)
(-0.00137075 -0.00018151 0)
(-0.00110705 -0.000177231 0)
(-0.000849757 -0.000172525 0)
(-0.00059947 -0.00016741 0)
(-0.000356764 -0.000161909 0)
(-0.000122183 -0.000156043 0)
(0.000103761 -0.000149836 0)
(0.000320589 -0.000143313 0)
(0.00052786 -0.0001365 0)
(0.000725169 -0.000129424 0)
(0.000912149 -0.000122113 0)
(0.00108847 -0.000114594 0)
(0.00125385 -0.000106896 0)
(0.00140804 -9.9047e-05 0)
(0.00155083 -9.10767e-05 0)
(0.00168206 -8.3013e-05 0)
(0.0018016 -7.48845e-05 0)
(0.00190937 -6.67189e-05 0)
(0.00200531 -5.85436e-05 0)
(0.00208944 -5.03854e-05 0)
(0.00216177 -4.22703e-05 0)
(0.00222238 -3.42234e-05 0)
(0.00227137 -2.62691e-05 0)
(0.00230888 -1.84308e-05 0)
(0.0023351 -1.0731e-05 0)
(0.00235021 -3.19119e-06 0)
(0.00235447 4.16792e-06 0)
(0.00234814 1.13261e-05 0)
(0.00233152 1.82644e-05 0)
(0.00230494 2.49642e-05 0)
(0.00226875 3.14072e-05 0)
(0.00222333 3.75755e-05 0)
(0.00216911 4.34509e-05 0)
(0.00210651 4.90151e-05 0)
(0.002036 5.4249e-05 0)
(0.00195808 5.91325e-05 0)
(0.00187328 6.36439e-05 0)
(0.00178216 6.77598e-05 0)
(0.00168533 7.1454e-05 0)
(0.00158342 7.46973e-05 0)
(0.00147712 7.74567e-05 0)
(0.00136716 7.96948e-05 0)
(0.00125434 8.13688e-05 0)
(0.0011395 8.24297e-05 0)
(0.00102359 8.28214e-05 0)
(0.000907599 8.24799e-05 0)
(0.000792627 8.13322e-05 0)
(0.000679865 7.92957e-05 0)
(0.000570614 7.62779e-05 0)
(0.000466284 7.21768e-05 0)
(0.000368402 6.6883e-05 0)
(0.000278601 6.02859e-05 0)
(0.000198597 5.22874e-05 0)
(0.000130133 4.28316e-05 0)
(7.48636e-05 3.19759e-05 0)
(3.41424e-05 2.00487e-05 0)
(8.62067e-06 7.92581e-06 0)
(-2.46179e-06 -2.45857e-06 0)
(-2.30232e-06 -6.43343e-06 0)
(2.33129e-06 -7.30314e-06 0)
(1.39989e-05 -2.35832e-05 0)
(3.65826e-05 -3.65304e-05 0)
(6.52196e-05 -4.48124e-05 0)
(9.68827e-05 -4.8665e-05 0)
(0.000129127 -4.87365e-05 0)
(0.000159744 -4.57494e-05 0)
(0.000186883 -4.03754e-05 0)
(0.000209066 -3.319e-05 0)
(0.000225149 -2.46673e-05 0)
(0.000234265 -1.51916e-05 0)
(0.000235791 -5.07112e-06 0)
(0.000229297 5.44938e-06 0)
(0.000214518 1.61754e-05 0)
(0.000191317 2.69561e-05 0)
(0.00015966 3.76751e-05 0)
(0.000119595 4.82446e-05 0)
(7.12289e-05 5.86007e-05 0)
(1.47174e-05 6.86983e-05 0)
(-4.97542e-05 7.85082e-05 0)
(-0.000121979 8.80142e-05 0)
(-0.000201738 9.72106e-05 0)
(-0.000288809 0.0001061 0)
(-0.00038297 0.000114692 0)
(-0.000484006 0.000123 0)
(-0.000591711 0.000131043 0)
(-0.000705893 0.000138841 0)
(-0.000826375 0.000146416 0)
(-0.000952994 0.000153792 0)
(-0.00108561 0.000160992 0)
(-0.00122408 0.000168038 0)
(-0.0013683 0.000174953 0)
(-0.00151817 0.000181756 0)
(-0.00167361 0.000188467 0)
(-0.00183455 0.000195103 0)
(-0.00200092 0.000201679 0)
(-0.00217268 0.000208207 0)
(-0.00234978 0.000214697 0)
(-0.00253219 0.000221157 0)
(-0.00271988 0.000227594 0)
(-0.00291282 0.000234009 0)
(-0.00311099 0.000240403 0)
(-0.00331435 0.000246775 0)
(-0.00352287 0.000253121 0)
(-0.00373652 0.000259435 0)
(-0.00395526 0.000265709 0)
(-0.00417904 0.000271932 0)
(-0.00440779 0.000278092 0)
(-0.00464145 0.000284177 0)
(-0.00487994 0.00029017 0)
(-0.00512317 0.000296054 0)
(-0.00537102 0.000301812 0)
(-0.00562337 0.000307424 0)
(-0.00588008 0.000312868 0)
(-0.00614099 0.000318124 0)
(-0.00640593 0.000323168 0)
(-0.0066747 0.000327976 0)
(-0.00694709 0.000332525 0)
(-0.00722286 0.000336788 0)
(-0.00750177 0.00034074 0)
(-0.00778353 0.000344356 0)
(-0.00806785 0.000347607 0)
(-0.00835441 0.000350469 0)
(-0.00864287 0.000352912 0)
(-0.00893288 0.000354911 0)
(-0.00922405 0.000356437 0)
(-0.00951598 0.000357465 0)
(-0.00980824 0.000357967 0)
(-0.0101004 0.000357918 0)
(-0.010392 0.00035729 0)
(-0.0106825 0.00035606 0)
(-0.0109715 0.000354201 0)
(-0.0112583 0.000351692 0)
(-0.0115426 0.000348508 0)
(-0.0118236 0.000344629 0)
(-0.012101 0.000340035 0)
(-0.0123739 0.000334705 0)
(-0.012642 0.000328624 0)
(-0.0129045 0.000321775 0)
(-0.0131608 0.000314145 0)
(-0.0134103 0.000305722 0)
(-0.0136524 0.000296497 0)
(-0.0138863 0.000286461 0)
(-0.0141116 0.000275611 0)
(-0.0143275 0.000263944 0)
(-0.0145333 0.00025146 0)
(-0.0147285 0.000238163 0)
(-0.0149123 0.000224058 0)
(-0.0150842 0.000209154 0)
(-0.0152436 0.000193465 0)
(-0.0153897 0.000177005 0)
(-0.0155221 0.000159794 0)
(-0.0156402 0.000141853 0)
(-0.0157433 0.000123207 0)
(-0.015831 0.000103887 0)
(-0.0159028 8.39243e-05 0)
(-0.0159582 6.33547e-05 0)
(-0.0159966 4.22178e-05 0)
(-0.0160178 2.05563e-05 0)
(-0.0160213 -1.58361e-06 0)
(-0.0160068 -2.41526e-05 0)
(-0.015974 -4.70982e-05 0)
(-0.0159227 -7.03646e-05 0)
(-0.0158525 -9.38934e-05 0)
(-0.0157635 -0.000117623 0)
(-0.0156553 -0.00014149 0)
(-0.0155281 -0.000165428 0)
(-0.0153817 -0.000189369 0)
(-0.0152163 -0.000213242 0)
(-0.0150318 -0.000236975 0)
(-0.0148286 -0.000260495 0)
(-0.0146067 -0.000283728 0)
(-0.0143665 -0.000306599 0)
(-0.0141083 -0.000329032 0)
(-0.0138324 -0.000350951 0)
(-0.0135394 -0.000372281 0)
(-0.0132298 -0.000392949 0)
(-0.012904 -0.00041288 0)
(-0.0125627 -0.000432002 0)
(-0.0122067 -0.000450244 0)
(-0.0118365 -0.00046754 0)
(-0.0114531 -0.000483824 0)
(-0.0110572 -0.000499032 0)
(-0.0106497 -0.000513106 0)
(-0.0102314 -0.000525991 0)
(-0.0098035 -0.000537635 0)
(-0.00936682 -0.000547991 0)
(-0.00892245 -0.000557016 0)
(-0.00847144 -0.000564674 0)
(-0.00801487 -0.000570933 0)
(-0.00755386 -0.000575765 0)
(-0.00708953 -0.000579149 0)
(-0.00662303 -0.000581071 0)
(-0.00615551 -0.000581521 0)
(-0.00568812 -0.000580497 0)
(-0.00522203 -0.000578001 0)
(-0.00475838 -0.000574042 0)
(-0.00429831 -0.000568635 0)
(-0.00384297 -0.000561803 0)
(-0.00339345 -0.000553572 0)
(-0.00295085 -0.000543976 0)
(-0.00251623 -0.000533052 0)
(-0.00209062 -0.000520846 0)
(-0.001675 -0.000507407 0)
(-0.00127035 -0.000492789 0)
(-0.00087756 -0.00047705 0)
(-0.000497507 -0.000460254 0)
(-0.000131003 -0.000442468 0)
(0.000221187 -0.000423761 0)
(0.000558356 -0.000404206 0)
(0.000879852 -0.00038388 0)
(0.00118508 -0.00036286 0)
(0.00147352 -0.000341226 0)
(0.00174469 -0.000319057 0)
(0.00199818 -0.000296436 0)
(0.00223366 -0.000273445 0)
(0.00245085 -0.000250164 0)
(0.00264952 -0.000226674 0)
(0.00282953 -0.000203057 0)
(0.00299078 -0.000179389 0)
(0.00313325 -0.00015575 0)
(0.00325696 -0.000132214 0)
(0.00336202 -0.000108855 0)
(0.00344857 -8.57439e-05 0)
(0.00351681 -6.29493e-05 0)
(0.003567 -4.05379e-05 0)
(0.00359946 -1.85738e-05 0)
(0.00361456 2.88126e-06 0)
(0.0036127 2.37668e-05 0)
(0.00359436 4.40251e-05 0)
(0.00356004 6.35997e-05 0)
(0.0035103 8.24349e-05 0)
(0.00344575 0.000100475 0)
(0.00336704 0.000117666 0)
(0.00327487 0.00013395 0)
(0.00316997 0.000149269 0)
(0.00305316 0.000163562 0)
(0.00292527 0.000176763 0)
(0.00278722 0.000188802 0)
(0.00263995 0.000199603 0)
(0.00248451 0.000209078 0)
(0.00232198 0.000217134 0)
(0.00215355 0.000223664 0)
(0.00198048 0.000228547 0)
(0.00180413 0.000231649 0)
(0.00162595 0.000232819 0)
(0.00144752 0.000231887 0)
(0.00127054 0.000228665 0)
(0.00109685 0.000222945 0)
(0.000928402 0.000214505 0)
(0.000767316 0.000203113 0)
(0.000615823 0.000188538 0)
(0.000476262 0.000170576 0)
(0.000351019 0.000149099 0)
(0.000242442 0.000124135 0)
(0.000152677 9.60276e-05 0)
(8.33947e-05 6.57375e-05 0)
(3.53178e-05 3.53038e-05 0)
(7.92575e-06 8.62358e-06 0)
(-3.71404e-07 -6.3853e-06 0)
(3.19775e-06 -1.60115e-05 0)
(1.78718e-05 -4.42295e-05 0)
(4.5049e-05 -6.52043e-05 0)
(7.84632e-05 -7.81925e-05 0)
(0.000114445 -8.37552e-05 0)
(0.000150178 -8.28968e-05 0)
(0.000183113 -7.67317e-05 0)
(0.00021108 -6.63264e-05 0)
(0.000232313 -5.26264e-05 0)
(0.000245408 -3.64382e-05 0)
(0.000249283 -1.8434e-05 0)
(0.000243133 8.33685e-07 0)
(0.000226392 2.09166e-05 0)
(0.000198689 4.1454e-05 0)
(0.000159816 6.21601e-05 0)
(0.000109697 8.28112e-05 0)
(4.83622e-05 0.000103236 0)
(-2.40789e-05 0.000123308 0)
(-0.000107455 0.000142934 0)
(-0.000201549 0.000162053 0)
(-0.000306114 0.000180628 0)
(-0.000420886 0.000198644 0)
(-0.000545591 0.000216099 0)
(-0.000679952 0.000233006 0)
(-0.000823701 0.000249388 0)
(-0.000976579 0.000265275 0)
(-0.00113834 0.000280702 0)
(-0.00130876 0.00029571 0)
(-0.00148762 0.000310339 0)
(-0.00167473 0.00032463 0)
(-0.00186993 0.000338624 0)
(-0.00207307 0.000352362 0)
(-0.002284 0.00036588 0)
(-0.00250262 0.000379213 0)
(-0.00272882 0.000392391 0)
(-0.00296253 0.000405441 0)
(-0.00320365 0.000418387 0)
(-0.00345214 0.000431246 0)
(-0.00370794 0.000444032 0)
(-0.00397098 0.000456755 0)
(-0.00424122 0.000469419 0)
(-0.00451862 0.000482025 0)
(-0.00480312 0.000494568 0)
(-0.00509467 0.00050704 0)
(-0.00539319 0.000519428 0)
(-0.00569863 0.000531717 0)
(-0.00601089 0.000543884 0)
(-0.00632989 0.000555908 0)
(-0.00665552 0.00056776 0)
(-0.00698763 0.000579409 0)
(-0.0073261 0.000590824 0)
(-0.00767076 0.000601967 0)
(-0.00802141 0.0006128 0)
(-0.00837786 0.000623283 0)
(-0.00873987 0.000633372 0)
(-0.00910719 0.000643023 0)
(-0.00947953 0.00065219 0)
(-0.00985658 0.000660825 0)
(-0.010238 0.000668878 0)
(-0.0106235 0.000676299 0)
(-0.0110126 0.000683039 0)
(-0.0114049 0.000689044 0)
(-0.0117999 0.000694263 0)
(-0.0121973 0.000698644 0)
(-0.0125964 0.000702135 0)
(-0.0129968 0.000704682 0)
(-0.0133979 0.000706235 0)
(-0.0137991 0.000706742 0)
(-0.0141998 0.000706152 0)
(-0.0145994 0.000704417 0)
(-0.0149971 0.000701489 0)
(-0.0153923 0.00069732 0)
(-0.0157843 0.000691867 0)
(-0.0161723 0.000685086 0)
(-0.0165557 0.000676938 0)
(-0.0169335 0.000667385 0)
(-0.017305 0.000656393 0)
(-0.0176694 0.000643928 0)
(-0.0180258 0.000629964 0)
(-0.0183735 0.000614476 0)
(-0.0187115 0.000597443 0)
(-0.019039 0.00057885 0)
(-0.0193552 0.000558683 0)
(-0.0196592 0.000536937 0)
(-0.01995 0.000513608 0)
(-0.0202269 0.000488701 0)
(-0.020489 0.000462224 0)
(-0.0207354 0.000434192 0)
(-0.0209654 0.000404624 0)
(-0.021178 0.000373547 0)
(-0.0213724 0.000340993 0)
(-0.021548 0.000307001 0)
(-0.0217039 0.000271616 0)
(-0.0218394 0.00023489 0)
(-0.0219538 0.000196881 0)
(-0.0220465 0.000157653 0)
(-0.0221168 0.000117278 0)
(-0.0221642 7.58343e-05 0)
(-0.022188 3.34048e-05 0)
(-0.0221879 -9.91965e-06 0)
(-0.0221634 -5.40425e-05 0)
(-0.0221141 -9.88613e-05 0)
(-0.0220398 -0.000144268 0)
(-0.02194 -0.000190149 0)
(-0.0218148 -0.000236387 0)
(-0.0216638 -0.000282856 0)
(-0.0214871 -0.000329431 0)
(-0.0212847 -0.00037598 0)
(-0.0210567 -0.000422367 0)
(-0.0208031 -0.000468454 0)
(-0.0205243 -0.000514103 0)
(-0.0202206 -0.000559169 0)
(-0.0198923 -0.000603511 0)
(-0.0195398 -0.000646984 0)
(-0.0191638 -0.000689444 0)
(-0.0187648 -0.000730749 0)
(-0.0183435 -0.000770756 0)
(-0.0179007 -0.000809326 0)
(-0.0174373 -0.000846323 0)
(-0.016954 -0.000881613 0)
(-0.0164519 -0.000915067 0)
(-0.0159321 -0.000946562 0)
(-0.0153955 -0.00097598 0)
(-0.0148435 -0.00100321 0)
(-0.0142772 -0.00102814 0)
(-0.0136979 -0.00105068 0)
(-0.0131068 -0.00107074 0)
(-0.0125055 -0.00108825 0)
(-0.0118952 -0.00110312 0)
(-0.0112775 -0.00111529 0)
(-0.0106538 -0.00112473 0)
(-0.0100255 -0.00113139 0)
(-0.00939423 -0.00113523 0)
(-0.00876148 -0.00113625 0)
(-0.00812879 -0.00113443 0)
(-0.00749768 -0.00112978 0)
(-0.00686968 -0.00112232 0)
(-0.0062463 -0.00111207 0)
(-0.00562904 -0.00109908 0)
(-0.00501938 -0.0010834 0)
(-0.00441876 -0.00106509 0)
(-0.00382859 -0.00104422 0)
(-0.00325024 -0.00102087 0)
(-0.00268503 -0.00099514 0)
(-0.00213425 -0.000967131 0)
(-0.0015991 -0.000936953 0)
(-0.00108075 -0.000904723 0)
(-0.000580291 -0.000870569 0)
(-9.87511e-05 -0.000834623 0)
(0.000362914 -0.000797023 0)
(0.000803822 -0.000757913 0)
(0.00122317 -0.00071744 0)
(0.00162023 -0.000675756 0)
(0.00199435 -0.000633015 0)
(0.00234499 -0.00058937 0)
(0.00267164 -0.000544979 0)
(0.00297392 -0.000499998 0)
(0.00325152 -0.000454582 0)
(0.00350421 -0.000408885 0)
(0.00373184 -0.000363059 0)
(0.00393435 -0.000317254 0)
(0.00411176 -0.000271616 0)
(0.00426416 -0.000226287 0)
(0.00439173 -0.000181407 0)
(0.00449473 -0.000137111 0)
(0.00457347 -9.35288e-05 0)
(0.00462835 -5.07875e-05 0)
(0.00465986 -9.00972e-06 0)
(0.00466851 3.16856e-05 0)
(0.00465493 7.11826e-05 0)
(0.00461978 0.000109368 0)
(0.0045638 0.000146129 0)
(0.00448778 0.000181356 0)
(0.00439261 0.000214937 0)
(0.0042792 0.000246758 0)
(0.00414857 0.000276703 0)
(0.00400176 0.000304648 0)
(0.00383994 0.000330465 0)
(0.00366429 0.000354015 0)
(0.00347614 0.000375146 0)
(0.00327684 0.000393694 0)
(0.00306788 0.000409476 0)
(0.00285084 0.000422292 0)
(0.00262738 0.000431917 0)
(0.00239932 0.000438102 0)
(0.00216859 0.000440573 0)
(0.00193724 0.000439027 0)
(0.00170749 0.000433133 0)
(0.00148169 0.00042254 0)
(0.00126236 0.000406878 0)
(0.00105214 0.000385778 0)
(0.000853801 0.000358897 0)
(0.000670192 0.00032597 0)
(0.000504176 0.000286889 0)
(0.000358519 0.000241845 0)
(0.000235742 0.000191563 0)
(0.000137838 0.000137695 0)
(6.58321e-05 8.33956e-05 0)
(2.00756e-05 3.41665e-05 0)
(1.89809e-06 7.84629e-08 0)
(3.61021e-06 -2.6281e-05 0)
(1.97697e-05 -6.77689e-05 0)
(4.90715e-05 -9.6979e-05 0)
(8.42192e-05 -0.000114208 0)
(0.000121027 -0.000120596 0)
(0.000156383 -0.000117625 0)
(0.000187504 -0.000106848 0)
(0.000212014 -8.97502e-05 0)
(0.000227963 -6.76641e-05 0)
(0.00023378 -4.175e-05 0)
(0.000228234 -1.29941e-05 0)
(0.000210395 1.77794e-05 0)
(0.00017959 4.98902e-05 0)
(0.000135367 8.27841e-05 0)
(7.74595e-05 0.000116016 0)
(5.75239e-06 0.000149232 0)
(-7.97468e-05 0.000182159 0)
(-0.000178934 0.00021459 0)
(-0.00029163 0.000246373 0)
(-0.000417602 0.000277404 0)
(-0.000556576 0.000307618 0)
(-0.000708255 0.000336982 0)
(-0.000872329 0.000365488 0)
(-0.00104848 0.000393151 0)
(-0.0012364 0.000420001 0)
(-0.00143579 0.00044608 0)
(-0.00164635 0.000471441 0)
(-0.00186783 0.00049614 0)
(-0.00209996 0.000520239 0)
(-0.00234253 0.0005438 0)
(-0.00259533 0.000566885 0)
(-0.00285816 0.000589554 0)
(-0.00313088 0.000611864 0)
(-0.00341333 0.000633866 0)
(-0.00370538 0.000655607 0)
(-0.00400692 0.000677127 0)
(-0.00431786 0.000698461 0)
(-0.0046381 0.000719635 0)
(-0.00496757 0.000740671 0)
(-0.00530618 0.00076158 0)
(-0.00565386 0.00078237 0)
(-0.00601053 0.000803038 0)
(-0.00637612 0.000823577 0)
(-0.00675055 0.000843971 0)
(-0.0071337 0.000864198 0)
(-0.00752548 0.000884231 0)
(-0.00792577 0.000904035 0)
(-0.00833443 0.000923571 0)
(-0.0087513 0.000942794 0)
(-0.0091762 0.000961654 0)
(-0.00960893 0.000980095 0)
(-0.0100493 0.000998059 0)
(-0.010497 0.00101548 0)
(-0.0109517 0.0010323 0)
(-0.0114132 0.00104844 0)
(-0.0118812 0.00106383 0)
(-0.0123552 0.0010784 0)
(-0.0128348 0.00109206 0)
(-0.0133196 0.00110474 0)
(-0.0138092 0.00111636 0)
(-0.014303 0.00112683 0)
(-0.0148005 0.00113607 0)
(-0.0153011 0.001144 0)
(-0.0158042 0.00115053 0)
(-0.0163091 0.00115557 0)
(-0.0168152 0.00115906 0)
(-0.0173218 0.00116089 0)
(-0.0178281 0.001161 0)
(-0.0183333 0.00115929 0)
(-0.0188366 0.0011557 0)
(-0.0193371 0.00115014 0)
(-0.0198341 0.00114254 0)
(-0.0203265 0.00113284 0)
(-0.0208136 0.00112096 0)
(-0.0212942 0.00110685 0)
(-0.0217674 0.00109044 0)
(-0.0222323 0.00107168 0)
(-0.0226878 0.00105052 0)
(-0.0231329 0.00102693 0)
(-0.0235666 0.00100085 0)
(-0.0239877 0.000972278 0)
(-0.0243953 0.000941174 0)
(-0.0247882 0.000907526 0)
(-0.0251655 0.000871327 0)
(-0.0255259 0.000832577 0)
(-0.0258685 0.000791285 0)
(-0.0261923 0.000747469 0)
(-0.0264961 0.000701156 0)
(-0.026779 0.000652382 0)
(-0.02704 0.000601194 0)
(-0.027278 0.000547647 0)
(-0.0274922 0.000491806 0)
(-0.0276817 0.00043375 0)
(-0.0278455 0.000373563 0)
(-0.0279828 0.000311343 0)
(-0.0280928 0.000247196 0)
(-0.0281749 0.000181241 0)
(-0.0282282 0.000113604 0)
(-0.0282523 4.44238e-05 0)
(-0.0282464 -2.6153e-05 0)
(-0.0282102 -9.79692e-05 0)
(-0.0281431 -0.000170859 0)
(-0.0280449 -0.000244647 0)
(-0.0279152 -0.000319151 0)
(-0.0277538 -0.000394179 0)
(-0.0275606 -0.000469534 0)
(-0.0273355 -0.00054501 0)
(-0.0270786 -0.000620398 0)
(-0.0267901 -0.00069548 0)
(-0.02647 -0.000770037 0)
(-0.0261188 -0.000843846 0)
(-0.0257369 -0.000916679 0)
(-0.0253246 -0.00098831 0)
(-0.0248827 -0.00105851 0)
(-0.0244117 -0.00112705 0)
(-0.0239124 -0.0011937 0)
(-0.0233858 -0.00125824 0)
(-0.0228326 -0.00132045 0)
(-0.0222541 -0.00138011 0)
(-0.0216512 -0.00143701 0)
(-0.0210252 -0.00149094 0)
(-0.0203773 -0.00154172 0)
(-0.0197089 -0.00158916 0)
(-0.0190215 -0.00163307 0)
(-0.0183165 -0.00167329 0)
(-0.0175954 -0.00170968 0)
(-0.01686 -0.00174208 0)
(-0.0161118 -0.00177038 0)
(-0.0153525 -0.00179446 0)
(-0.014584 -0.00181423 0)
(-0.013808 -0.0018296 0)
(-0.0130263 -0.00184051 0)
(-0.0122408 -0.00184692 0)
(-0.0114533 -0.0018488 0)
(-0.0106657 -0.00184614 0)
(-0.00987982 -0.00183894 0)
(-0.00909755 -0.00182724 0)
(-0.00832074 -0.00181107 0)
(-0.0075512 -0.0017905 0)
(-0.00679075 -0.00176561 0)
(-0.00604113 -0.00173649 0)
(-0.00530408 -0.00170326 0)
(-0.00458127 -0.00166605 0)
(-0.00387432 -0.001625 0)
(-0.00318481 -0.00158028 0)
(-0.00251423 -0.00153205 0)
(-0.001864 -0.00148051 0)
(-0.00123548 -0.00142586 0)
(-0.000629942 -0.0013683 0)
(-4.85708e-05 -0.00130805 0)
(0.000507535 -0.00124534 0)
(0.00103737 -0.0011804 0)
(0.00154002 -0.00111347 0)
(0.00201467 -0.0010448 0)
(0.00246061 -0.000974638 0)
(0.00287722 -0.000903224 0)
(0.00326398 -0.000830813 0)
(0.00362048 -0.000757652 0)
(0.00394642 -0.000683988 0)
(0.00424158 -0.000610066 0)
(0.00450586 -0.000536127 0)
(0.00473924 -0.000462407 0)
(0.00494181 -0.000389137 0)
(0.00511377 -0.000316543 0)
(0.00525538 -0.000244844 0)
(0.00536702 -0.000174255 0)
(0.00544917 -0.000104983 0)
(0.00550236 -3.72293e-05 0)
(0.00552724 2.88094e-05 0)
(0.00552454 9.29411e-05 0)
(0.00549506 0.000154978 0)
(0.00543969 0.000214734 0)
(0.00535942 0.000272024 0)
(0.0052553 0.000326663 0)
(0.00512846 0.000378462 0)
(0.00498014 0.000427227 0)
(0.00481165 0.000472757 0)
(0.00462437 0.000514838 0)
(0.00441982 0.000553246 0)
(0.00419958 0.000587735 0)
(0.00396535 0.000618042 0)
(0.00371894 0.000643878 0)
(0.00346228 0.000664926 0)
(0.00319741 0.000680839 0)
(0.00292652 0.000691236 0)
(0.00265196 0.000695701 0)
(0.00237619 0.000693783 0)
(0.00210186 0.000685 0)
(0.00183174 0.000668847 0)
(0.00156879 0.000644809 0)
(0.00131607 0.000612392 0)
(0.00107675 0.00057116 0)
(0.00085409 0.000520817 0)
(0.000651304 0.000461313 0)
(0.000471513 0.000393029 0)
(0.000317609 0.000317059 0)
(0.000192013 0.000235648 0)
(9.62909e-05 0.000152781 0)
(3.2063e-05 7.49697e-05 0)
(4.04969e-06 1.32496e-05 0)
(3.6979e-06 -3.71268e-05 0)
(2.00406e-05 -9.22536e-05 0)
(4.91984e-05 -0.000129342 0)
(8.33049e-05 -0.00014993 0)
(0.00011781 -0.000155919 0)
(0.000149372 -0.000149377 0)
(0.000175043 -0.000132354 0)
(0.000192319 -0.000106778 0)
(0.000199138 -7.43855e-05 0)
(0.00019383 -3.67024e-05 0)
(0.000175072 4.95812e-06 0)
(0.000141853 4.94847e-05 0)
(9.34313e-05 9.59487e-05 0)
(2.92992e-05 0.000143585 0)
(-5.08532e-05 0.000191772 0)
(-0.000147171 0.000240012 0)
(-0.000259665 0.000287914 0)
(-0.000388239 0.000335179 0)
(-0.00053271 0.000381587 0)
(-0.000692836 0.00042698 0)
(-0.000868325 0.00047126 0)
(-0.00105886 0.000514371 0)
(-0.0012641 0.000556295 0)
(-0.0014837 0.000597045 0)
(-0.00171731 0.000636658 0)
(-0.00196462 0.000675187 0)
(-0.00222528 0.000712701 0)
(-0.00249901 0.000749277 0)
(-0.00278552 0.000784997 0)
(-0.00308455 0.000819944 0)
(-0.00339587 0.000854205 0)
(-0.00371926 0.00088786 0)
(-0.00405453 0.000920986 0)
(-0.0044015 0.000953654 0)
(-0.00476002 0.000985927 0)
(-0.00512996 0.00101786 0)
(-0.00551118 0.0010495 0)
(-0.00590358 0.00108088 0)
(-0.00630705 0.00111204 0)
(-0.00672147 0.00114297 0)
(-0.00714675 0.0011737 0)
(-0.00758279 0.00120422 0)
(-0.00802947 0.0012345 0)
(-0.00848666 0.00126454 0)
(-0.00895425 0.00129428 0)
(-0.00943207 0.0013237 0)
(-0.00991997 0.00135274 0)
(-0.0104178 0.00138134 0)
(-0.0109252 0.00140944 0)
(-0.0114422 0.00143695 0)
(-0.0119682 0.0014638 0)
(-0.0125032 0.0014899 0)
(-0.0130468 0.00151515 0)
(-0.0135986 0.00153947 0)