/*--------------------------------*- C++ -*----------------------------------*\
  =========                 |
  \\      /  F ield         | OpenFOAM: The Open Source CFD Toolbox
   \\    /   O peration     | Website:  https://openfoam.org
    \\  /    A nd           | Version:  7
     \\/     M anipulation  |
\*---------------------------------------------------------------------------*/
FoamFile
{
    version     2.0;
    format      ascii;
    class       volScalarField;
    location    "6";
    object      T;
}
// * * * * * * * * * * * * * * * * * * * * * * * * * * * * * * * * * * * * * //

dimensions      [0 0 0 1 0 0 0];

internalField   nonuniform List<scalar> 
2413
(
1
1.00001
1.00018
1.00197
1.01275
1.055
1.11918
1.16143
1.18365
1.18818
1.18804
1.18756
1.18558
1.18296
1.18117
1.17938
1.17762
1.17589
1.17418
1.1727
1.17102
1.169
1.16695
1.1651
1.16326
1.16169
1.16032
1.15879
1.15696
1.15523
1.1536
1.15165
1.14975
1.14838
1.14686
1.14505
1.14353
1.14207
1.14021
1.13824
1.13673
1.13518
1.13335
1.13174
1.13033
1.12866
1.12678
1.12516
1.12363
1.12194
1.12016
1.11866
1.11726
1.11573
1.11403
1.11246
1.11102
1.10935
1.10736
1.10577
1.10442
1.10274
1.10103
1.0998
1.09844
1.09653
1.09484
1.09347
1.09163
1.08974
1.08859
1.08719
1.08534
1.08398
1.08264
1.08069
1.079
1.07779
1.07618
1
1
1
1
1
1
1
1
1
1
1
1
1.00009
1.00117
1.00923
1.04258
1.09602
1.15503
1.17947
1.18717
1.18788
1.18736
1.18498
1.1823
1.18004
1.17825
1.17698
1.17588
1.17464
1.17302
1.17109
1.16896
1.16706
1.16521
1.16356
1.16216
1.16064
1.1588
1.15716
1.15564
1.15379
1.15191
1.15046
1.14891
1.14703
1.14539
1.14388
1.14203
1.14009
1.13865
1.13716
1.13532
1.13372
1.13229
1.13059
1.12868
1.1271
1.12558
1.12389
1.12214
1.12071
1.11925
1.11764
1.11605
1.11449
1.11296
1.11142
1.10962
1.10787
1.10648
1.10498
1.10319
1.10178
1.10052
1.09875
1.09688
1.09549
1.09386
1.09186
1.09053
1.08924
1.08738
1.08585
1.08453
1.08266
1.08083
1.07953
1.07797
1
1
1
1
1
1
1
1
1
1
1
1
1
1.00005
1.00065
1.0062
1.02737
1.08244
1.14265
1.17245
1.18631
1.18784
1.1868
1.18419
1.18142
1.17942
1.17823
1.17739
1.17623
1.17469
1.17284
1.17078
1.16905
1.16728
1.16557
1.1641
1.16251
1.16062
1.15896
1.15748
1.15573
1.15389
1.15244
1.15088
1.14895
1.14728
1.14574
1.14392
1.142
1.14058
1.1391
1.13725
1.13562
1.13416
1.13243
1.13045
1.12891
1.12746
1.12575
1.12404
1.12273
1.12126
1.11953
1.11795
1.11648
1.11479
1.11314
1.11164
1.10998
1.1084
1.10704
1.10545
1.10377
1.10244
1.10092
1.09895
1.09739
1.09591
1.09401
1.09253
1.09127
1.08956
1.08792
1.08651
1.0847
1.08276
1.08139
1.07985
1
1
1
1
1
1
1
1
1
1
1
1
1
1
1.00002
1.00038
1.00322
1.01964
1.06865
1.12636
1.16917
1.18405
1.18556
1.18421
1.18296
1.18157
1.18007
1.17872
1.17731
1.17578
1.17402
1.17228
1.17077
1.16907
1.16739
1.16594
1.16439
1.16254
1.16089
1.1594
1.15766
1.1558
1.15432
1.15275
1.15083
1.14914
1.14765
1.14586
1.14399
1.14257
1.14107
1.13919
1.1375
1.13603
1.13427
1.13231
1.13081
1.12938
1.12769
1.12596
1.12462
1.12319
1.12136
1.11967
1.11834
1.11675
1.11491
1.1135
1.11212
1.1104
1.10886
1.10753
1.10584
1.10423
1.10285
1.10108
1.09932
1.09785
1.09618
1.09462
1.09326
1.09164
1.09003
1.08855
1.08675
1.08487
1.08344
1.08188
1
1
1
1
1
1
1
1
1
1
1
1
1
1
1
1.00001
1.00017
1.00209
1.01388
1.05146
1.10918
1.15928
1.18129
1.18462
1.18483
1.18437
1.18287
1.1808
1.17892
1.17726
1.17538
1.1736
1.17212
1.17044
1.16876
1.1674
1.16598
1.16431
1.16279
1.16134
1.1596
1.15776
1.15623
1.15462
1.15266
1.15095
1.14953
1.14782
1.14604
1.14465
1.14315
1.14123
1.13947
1.13795
1.13618
1.13423
1.13277
1.13139
1.1297
1.12801
1.1266
1.12512
1.12329
1.12152
1.12015
1.11869
1.11686
1.11532
1.11411
1.11254
1.11071
1.1094
1.10798
1.10617
1.10464
1.10317
1.10143
1.09976
1.09824
1.09677
1.09527
1.09365
1.09216
1.09067
1.08884
1.08704
1.08563
1.08406
1
1
1
1
1
1
1
1
1
1
1
1
1
1
1
1
1
1.0001
1.00111
1.00867
1.03659
1.09424
1.1473
1.17225
1.18229
1.18478
1.18438
1.18272
1.18077
1.17887
1.17668
1.17485
1.1734
1.17185
1.17033
1.16903
1.16762
1.16589
1.1643
1.16283
1.16114
1.15944
1.15803
1.15651
1.15464
1.15295
1.15151
1.14982
1.14802
1.14662
1.14514
1.14325
1.14149
1.13999
1.13827
1.13638
1.13496
1.13359
1.13187
1.13014
1.12865
1.12707
1.12521
1.12346
1.12209
1.12071
1.11903
1.11741
1.11613
1.11469
1.11282
1.11122
1.10995
1.10829
1.10646
1.10514
1.10367
1.10188
1.1003
1.09898
1.09747
1.09568
1.09424
1.09282
1.09096
1.08925
1.08795
1.08639
1
1
1
1
1
1
1
1
1
1
1
1
1
1
1
1
1
1
1.00004
1.00064
1.00484
1.0259
1.07541
1.13465
1.17061
1.18023
1.18289
1.18206
1.1809
1.1796
1.17755
1.17576
1.17451
1.17315
1.17181
1.17056
1.16914
1.16738
1.16576
1.16429
1.1626
1.16095
1.15959
1.15811
1.15632
1.15475
1.1534
1.1518
1.15008
1.14867
1.14717
1.14526
1.14344
1.142
1.14037
1.13858
1.13722
1.13585
1.13412
1.13235
1.13081
1.12914
1.12728
1.12562
1.12423
1.12283
1.12125
1.1196
1.1182
1.11679
1.11502
1.11324
1.11196
1.11051
1.10866
1.10716
1.10589
1.10421
1.10244
1.10118
1.09975
1.09788
1.09642
1.09507
1.09323
1.09152
1.09029
1.08879
1
1
1
1
1
1
1
1
1
1
1
1
1
1
1
1
1
1
1
1.00002
1.00027
1.00303
1.01722
1.05891
1.11595
1.16054
1.18016
1.18345
1.18245
1.18171
1.18034
1.17837
1.17646
1.17476
1.17316
1.1716
1.16996
1.16827
1.1669
1.16559
1.16408
1.16258
1.16127
1.15978
1.15796
1.15638
1.15504
1.15344
1.15176
1.15041
1.14898
1.14719
1.14545
1.14406
1.1425
1.14076
1.13937
1.13798
1.13622
1.13443
1.13291
1.13126
1.12944
1.12792
1.12654
1.12508
1.12356
1.12193
1.12038
1.11892
1.11726
1.11542
1.11405
1.11272
1.11099
1.10936
1.10814
1.1066
1.10475
1.10344
1.10208
1.10022
1.09869
1.09741
1.09564
1.09389
1.09271
1.09126
1
1
1
1
1
1
1
1
1
1
1
1
1
1
1
1
1
1
1
1
1.00001
1.00016
1.00151
1.01096
1.04271
1.10009
1.14926
1.1706
1.17962
1.18259
1.18234
1.18095
1.17877
1.17663
1.17452
1.17267
1.17098
1.16948
1.16829
1.16704
1.16547
1.1638
1.16243
1.16096
1.15929
1.15792
1.15665
1.15512
1.15344
1.15202
1.15052
1.1487
1.14708
1.1458
1.14433
1.14269
1.14133
1.13995
1.1382
1.13637
1.13491
1.13333
1.13153
1.13015
1.12885
1.12729
1.12577
1.12424
1.12256
1.12103
1.11949
1.1177
1.11625
1.11501
1.1134
1.1117
1.11044
1.10899
1.10712
1.10571
1.1044
1.1026
1.101
1.09977
1.09813
1.09633
1.09513
1.09375
1
1
1
1
1
1
1
1
1
1
1
1
1
1
1
1
1
1
1
1
1
1
1.00006
1.00087
1.00628
1.02929
1.08026
1.13452
1.17049
1.17887
1.18125
1.18117
1.18012
1.17789
1.17526
1.17349
1.17215
1.17096
1.16987
1.16865
1.16705
1.16521
1.16366
1.16209
1.1604
1.15914
1.15792
1.15636
1.1547
1.15329
1.15182
1.15008
1.1486
1.14738
1.14594
1.14427
1.14284
1.14142
1.13969
1.13797
1.13666
1.13527
1.13358
1.13224
1.13103
1.12943
1.12775
1.12634
1.12468
1.123
1.12161
1.12
1.11843
1.11721
1.11573
1.11396
1.11264
1.11127
1.10942
1.10794
1.10667
1.10497
1.1033
1.10208
1.10055
1.09872
1.09747
1.09613
1
1
1
1
1
1
1
1
1
1
1
1
1
1
1
1
1
1
1
1
1
1
1
1.00003
1.00037
1.0035
1.01996
1.06054
1.11848
1.15837
1.17697
1.18222
1.18209
1.18018
1.17791
1.17606
1.1743
1.17273
1.17128
1.16969
1.16786
1.16618
1.1648
1.16331
1.16172
1.16052
1.15926
1.15766
1.15592
1.15441
1.15283
1.15104
1.14973
1.14858
1.14718
1.14562
1.14422
1.14277
1.14105
1.13934
1.1381
1.13683
1.13523
1.13386
1.13272
1.13126
1.12945
1.12805
1.12662
1.12483
1.12343
1.12209
1.12049
1.11919
1.11784
1.1161
1.11464
1.11329
1.11152
1.10998
1.10874
1.10714
1.10546
1.10423
1.10277
1.10096
1.09963
1.0983
1
1
1
1
1
1
1
1
1
1
1
1
1
1
1
1
1
1
1
1
1
1
1
1
1.00001
1.00019
1.00189
1.01149
1.0443
1.09996
1.14971
1.16912
1.17658
1.17986
1.17994
1.17887
1.17701
1.17478
1.17274
1.17069
1.16876
1.16736
1.16619
1.16483
1.16316
1.16163
1.16016
1.15849
1.15694
1.15557
1.15406
1.15233
1.15099
1.14973
1.14821
1.14661
1.14523
1.14377
1.14208
1.14054
1.13933
1.13811
1.1367
1.13528
1.13405
1.13269
1.13089
1.12931
1.12808
1.12645
1.1249
1.12376
1.12234
1.12086
1.1195
1.1179
1.11637
1.11496
1.11329
1.1118
1.11053
1.10897
1.10737
1.10611
1.10467
1.10288
1.10152
1.10018
1
1
1
1
1
1
1
1
1
1
1
1
1
1
1
1
1
1
1
1
1
1
1
1
1
1
1.00007
1.0009
1.00684
1.02968
1.07951
1.13097
1.1678
1.17709
1.17973
1.18025
1.17944
1.17712
1.17426
1.17154
1.1696
1.16857
1.1677
1.16648
1.16492
1.16319
1.16134
1.15925
1.15769
1.1566
1.15526
1.15362
1.15218
1.15075
1.14914
1.14761
1.14631
1.14488
1.1432
1.14174
1.14042
1.139
1.13767
1.13631
1.13497
1.13372
1.13217
1.13041
1.12915
1.1278
1.12615
1.12492
1.12373
1.12223
1.12075
1.11928
1.11782
1.11634
1.1147
1.11333
1.11206
1.1105
1.10894
1.10768
1.1062
1.1044
1.10306
1.10171
1
1
1
1
1
1
1
1
1
1
1
1
1
1
1
1
1
1
1
1
1
1
1
1
1
1
1
1.00003
1.00041
1.00348
1.01956
1.05739
1.11715
1.15245
1.17254
1.18096
1.1812
1.17989
1.17679
1.1739
1.172
1.17076
1.16955
1.16817
1.16647
1.16455
1.16237
1.1602
1.15896
1.158
1.15673
1.15518
1.15362
1.15195
1.14994
1.14831
1.14721
1.14589
1.14428
1.14296
1.14161
1.13999
1.13856
1.13731
1.13581
1.1344
1.13306
1.1314
1.12998
1.12884
1.12738
1.1259
1.12476
1.12339
1.12172
1.12024
1.11894
1.1175
1.11585
1.1146
1.11336
1.11176
1.11023
1.10897
1.10746
1.10566
1.10433
1.103
1
1
1
1
1
1
1
1
1
1
1
1
1
1
1
1
1
1
1
1
1
1
1
1
1
1
1
1
1.00001
1.00017
1.00188
1.01027
1.04232
1.09344
1.14375
1.16982
1.17625
1.17819
1.17749
1.1764
1.17476
1.1729
1.17145
1.16989
1.16816
1.16626
1.16413
1.16195
1.16053
1.15945
1.15805
1.15637
1.15485
1.15317
1.15106
1.14949
1.1484
1.14711
1.14547
1.14407
1.14271
1.14095
1.13939
1.13825
1.13679
1.13523
1.13397
1.13249
1.13089
1.12976
1.12848
1.12687
1.12558
1.12435
1.12272
1.12114
1.11994
1.11855
1.11693
1.11571
1.11446
1.1128
1.11128
1.11004
1.10851
1.10674
1.10547
1.10415
1
1
1
1
1
1
1
1
1
1
1
1
1
1
1
1
1
1
1
1
1
1
1
1
1
1
1
1
1
1
1.00007
1.00073
1.00626
1.02657
1.07286
1.12336
1.1615
1.17633
1.17874
1.17852
1.178
1.17636
1.17414
1.17179
1.16934
1.16739
1.16572
1.16386
1.16237
1.16122
1.15978
1.15803
1.15641
1.15473
1.15264
1.15088
1.14974
1.14834
1.14671
1.14538
1.14401
1.14228
1.14059
1.13931
1.13784
1.13615
1.13491
1.13358
1.13204
1.13083
1.1296
1.128
1.12654
1.12526
1.12364
1.12207
1.12094
1.11962
1.11804
1.11683
1.11558
1.11385
1.11228
1.11103
1.10948
1.10773
1.10652
1.10523
1
1
1
1
1
1
1
1
1
1
1
1
1
1
1
1
1
1
1
1
1
1
1
1
1
1
1
1
1
1
1
1.00002
1.00038
1.00279
1.0161
1.05114
1.10742
1.14776
1.16768
1.17679
1.17905
1.17883
1.17721
1.17452
1.17187
1.16965
1.16795
1.16627
1.16449
1.16302
1.1615
1.15966
1.15803
1.15651
1.15458
1.15282
1.15153
1.15002
1.14824
1.14681
1.14542
1.14365
1.14195
1.14065
1.13913
1.13745
1.13622
1.13493
1.13333
1.13206
1.13081
1.12914
1.12766
1.12638
1.12481
1.12324
1.12215
1.12084
1.11919
1.11793
1.11666
1.11491
1.11333
1.11211
1.11058
1.10884
1.10766
1.10638
1
1
1
1
1
1
1
1
1
1
1
1
1
1
1
1
1
1
1
1
1
1
1
1
1
1
1
1
1
1
1
1
1.00001
1.00011
1.00142
1.00847
1.03445
1.08343
1.13331
1.16568
1.17325
1.17696
1.17683
1.17598
1.17404
1.17187
1.17016
1.16859
1.16672
1.16501
1.16357
1.16187
1.16014
1.15862
1.15679
1.15478
1.1533
1.15173
1.14993
1.14856
1.14723
1.14546
1.1437
1.14228
1.14069
1.1389
1.13775
1.13654
1.13492
1.13356
1.13226
1.13052
1.12883
1.12763
1.12614
1.12461
1.12355
1.12228
1.12058
1.11921
1.1179
1.11612
1.11449
1.11331
1.11183
1.11009
1.10892
1.10767
1
1
1
1
1
1
1
1
1
1
1
1
1
1
1
1
1
1
1
1
1
1
1
1
1
1
1
1
1
1
1
1
1
1
1.00005
1.00052
1.00433
1.02147
1.06037
1.11272
1.15072
1.17203
1.1779
1.17766
1.17656
1.17551
1.17368
1.17142
1.16919
1.16692
1.16527
1.16369
1.16199
1.16057
1.15897
1.157
1.1554
1.15385
1.15206
1.15061
1.14926
1.14747
1.14552
1.14409
1.1425
1.14078
1.13964
1.13844
1.13681
1.13529
1.1339
1.13207
1.13036
1.12926
1.12788
1.12632
1.12517
1.12386
1.12201
1.12053
1.11925
1.11754
1.11595
1.11481
1.11339
1.11161
1.11037
1.1091
1
1
1
1
1
1
1
1
1
1
1
1
1
1
1
1
1
1
1
1
1
1
1
1
1
1
1
1
1
1
1
1
1
1
1
1.00001
1.00022
1.002
1.01101
1.04122
1.08945
1.13985
1.16155
1.1716
1.17583
1.17683
1.17605
1.1742
1.17185
1.16938
1.16743
1.16582
1.16413
1.16262
1.16105
1.159
1.15727
1.15587
1.1542
1.15274
1.15145
1.14971
1.14768
1.14618
1.14462
1.14289
1.14169
1.14048
1.13877
1.13713
1.13572
1.13394
1.13224
1.13116
1.12986
1.12821
1.12695
1.12558
1.12367
1.12208
1.12083
1.11921
1.1176
1.11649
1.11511
1.11329
1.11198
1.11071
1
1
1
1
1
1
1
1
1
1
1
1
1
1
1
1
1
1
1
1
1
1
1
1
1
1
1
1
1
1
1
1
1
1
1
1
1
1.00007
1.00078
1.00597
1.02405
1.06759
1.1164
1.15694
1.17072
1.17416
1.17502
1.17447
1.17325
1.17127
1.16916
1.16766
1.16599
1.16449
1.16302
1.16116
1.15939
1.15807
1.15649
1.15486
1.15346
1.15172
1.14963
1.1482
1.14683
1.14519
1.14394
1.14268
1.1409
1.13906
1.13761
1.13592
1.13421
1.13317
1.13194
1.13024
1.12882
1.12741
1.12547
1.12378
1.12264
1.12114
1.11952
1.11838
1.11701
1.11514
1.11371
1.11244
1
1
1
1
1
1
1
1
1
1
1
1
1
1
1
1
1
1
1
1
1
1
1
1
1
1
1
1
1
1
1
1
1
1
1
1
1
1
1.00002
1.00032
1.00239
1.01433
1.04437
1.09653
1.13704
1.16324
1.17449
1.17595
1.17512
1.17376
1.17238
1.17064
1.16844
1.16627
1.16449
1.16258
1.16101
1.15989
1.1585
1.15692
1.15549
1.15379
1.15167
1.15021
1.14893
1.1473
1.14596
1.1447
1.14294
1.14102
1.13964
1.13809
1.13638
1.13522
1.13397
1.13216
1.13055
1.1292
1.12737
1.12571
1.12464
1.12325
1.12153
1.12028
1.11892
1.11701
1.11549
1.11426
1
1
1
1
1
1
1
1
1
1
1
1
1
1
1
1
1
1
1
1
1
1
1
1
1
1
1
1
1
1
1
1
1
1
1
1
1
1
1
1.00001
1.00009
1.00114
1.00642
1.02808
1.07004
1.12165
1.15372
1.16594
1.17137
1.1736
1.17381
1.1728
1.17069
1.16831
1.16634
1.1644
1.16289
1.16174
1.16034
1.15855
1.15694
1.15527
1.1534
1.15212
1.151
1.14946
1.14794
1.14658
1.14481
1.1428
1.14148
1.14012
1.13843
1.13714
1.13589
1.13409
1.13234
1.13104
1.12941
1.12767
1.12656
1.12524
1.12341
1.12204
1.12074
1.11891
1.1173
1.1161
1
1
1
1
1
1
1
1
1
1
1
1
1
1
1
1
1
1
1
1
1
1
1
1
1
1
1
1
1
1
1
1
1
1
1
1
1
1
1
1
1
1.00003
1.00034
1.00318
1.01518
1.04785
1.09648
1.13885
1.16519
1.17062
1.17228
1.17228
1.17155
1.16974
1.16772
1.16598
1.16454
1.16332
1.1619
1.16008
1.15839
1.15681
1.15509
1.15384
1.15272
1.15114
1.14947
1.14813
1.14652
1.14462
1.1433
1.14204
1.14032
1.13878
1.13749
1.13577
1.13399
1.13282
1.13143
1.12969
1.12845
1.12714
1.12525
1.12365
1.12239
1.12066
1.11895
1.11779
1
1
1
1
1
1
1
1
1
1
1
1
1
1
1
1
1
1
1
1
1
1
1
1
1
1
1
1
1
1
1
1
1
1
1
1
1
1
1
1
1
1
1.00001
1.00014
1.00118
1.00741
1.0303
1.07172
1.12094
1.14991
1.16737
1.17289
1.17309
1.17169
1.17017
1.16884
1.16698
1.16507
1.16311
1.1609
1.15942
1.15816
1.15667
1.15551
1.15439
1.15283
1.1509
1.14942
1.14793
1.14616
1.14484
1.14364
1.14201
1.14036
1.13904
1.13745
1.13565
1.13445
1.13314
1.13135
1.12994
1.12868
1.12689
1.12518
1.12398
1.12242
1.1206
1.11934
1
1
1
1
1
1
1
1
1
1
1
1
1
1
1
1
1
1
1
1
1
1
1
1
1
1
1
1
1
1
1
1
1
1
1
1
1
1
1
1
1
1
1
1
1.00003
1.00044
1.00355
1.01542
1.04976
1.09505
1.14054
1.15889
1.16673
1.16958
1.17028
1.17019
1.16878
1.16688
1.16469
1.16235
1.16087
1.15976
1.15834
1.15695
1.15565
1.15392
1.15198
1.15064
1.14935
1.14778
1.14639
1.14511
1.14339
1.14162
1.14036
1.13891
1.13721
1.13599
1.13472
1.13293
1.13131
1.13003
1.12833
1.12654
1.12532
1.12388
1.12203
1.12068
1
1
1
1
1
1
1
1
1
1
1
1
1
1
1
1
1
1
1
1
1
1
1
1
1
1
1
1
1
1
1
1
1
1
1
1
1
1
1
1
1
1
1
1
1
1.00001
1.00015
1.0012
1.00832
1.02882
1.07187
1.11659
1.15098
1.16634
1.16879
1.16941
1.16941
1.16857
1.16655
1.16387
1.16222
1.16118
1.15974
1.15824
1.15685
1.15514
1.15321
1.15191
1.15071
1.14911
1.14765
1.14632
1.14465
1.14297
1.14176
1.14041
1.13866
1.13726
1.13593
1.13411
1.13247
1.13125
1.12972
1.12797
1.12669
1.12528
1.12338
1.12188
1
1
1
1
1
1
1
1
1
1
1
1
1
1
1
1
1
1
1
1
1
1
1
1
1
1
1
1
1
1
1
1
1
1
1
1
1
1
1
1
1
1
1
1
1
1
)
;

boundaryField
{
    inlet
    {
        type            fixedValue;
        value           nonuniform 0();
    }
    outlet
    {
        type            inletOutlet;
        inletValue      nonuniform 0();
        value           nonuniform 0();
    }
    bottom
    {
        type            symmetryPlane;
    }
    top
    {
        type            symmetryPlane;
    }
    obstacle
    {
        type            zeroGradient;
    }
    front
    {
        type            empty;
    }
    back
    {
        type            empty;
    }
    procBoundary44to36
    {
        type            processor;
        value           nonuniform List<scalar> 
89
(
1.00002
1.00031
1.00359
1.01959
1.0637
1.1353
1.1713
1.18512
1.18899
1.18858
1.18714
1.1855
1.18337
1.18093
1.17937
1.17775
1.17588
1.17405
1.17215
1.17046
1.16873
1.16677
1.16499
1.16334
1.1615
1.15979
1.15832
1.15667
1.15472
1.15295
1.15134
1.1494
1.14766
1.14639
1.1449
1.14317
1.14167
1.14014
1.13821
1.13616
1.13465
1.13308
1.13123
1.12969
1.12828
1.12666
1.12482
1.12316
1.12161
1.11991
1.11806
1.11649
1.1151
1.1135
1.11178
1.11032
1.1089
1.10716
1.10518
1.10366
1.10225
1.10046
1.09889
1.09772
1.09622
1.09429
1.09282
1.09143
1.08949
1.08786
1.08674
1.0852
1.08342
1.08221
1.08083
1.07887
1.07743
1.07625
1.07463
1
1
1
1
1
1
1
1
1
1
)
;
    }
    procBoundary44to37
    {
        type            processor;
        value           nonuniform List<scalar> 
18
(
1.07442
1.07612
1.07801
1.08004
1.0822
1.08454
1.08695
1.08941
1.09189
1.09428
1.09648
1.09837
1.09994
1.10122
1.10239
1.10349
1.10463
1.10592
)
;
    }
    procBoundary44to43
    {
        type            processor;
        value           nonuniform List<scalar> 
26
(
1
1
1
1
1
1
1
1
1
1
1
1
1
1
1
1
1
1
1
1
1
1
1
1
1
1
)
;
    }
    procBoundary44to45
    {
        type            processor;
        value           nonuniform List<scalar> 9(1.10732 1.10894 1.11068 1.11257 1.1145 1.11631 1.11792 1.11936 1.1206);
    }
    procBoundary44to51
    {
        type            processor;
        value           uniform 1;
    }
    procBoundary44to52
    {
        type            processor;
        value           nonuniform List<scalar> 
89
(
1
1.00004
1.00051
1.00322
1.0159
1.04817
1.09481
1.13508
1.15512
1.16675
1.17017
1.17017
1.16895
1.16663
1.16493
1.16325
1.16139
1.15933
1.15776
1.15614
1.15446
1.1533
1.15212
1.15057
1.14901
1.14757
1.14583
1.14417
1.14305
1.14172
1.13994
1.13849
1.13713
1.13535
1.13364
1.13243
1.13094
1.12916
1.12786
1.12648
1.12462
1.12309
1
1
1
1
1
1
1
1
1
1
1
1
1
1
1
1
1
1
1
1
1
1
1
1
1
1
1
1
1
1
1
1
1
1
1
1
1
1
1
1
1
1
1
1
1
1
1
)
;
    }
}


// ************************************************************************* //
