/*--------------------------------*- C++ -*----------------------------------*\
  =========                 |
  \\      /  F ield         | OpenFOAM: The Open Source CFD Toolbox
   \\    /   O peration     | Website:  https://openfoam.org
    \\  /    A nd           | Version:  7
     \\/     M anipulation  |
\*---------------------------------------------------------------------------*/
FoamFile
{
    version     2.0;
    format      ascii;
    class       volVectorField;
    location    "13.5";
    object      U;
}
// * * * * * * * * * * * * * * * * * * * * * * * * * * * * * * * * * * * * * //

dimensions      [0 1 -1 0 0 0 0];

internalField   nonuniform List<vector> 
2413
(
(1.82517 -0.0541124 0)
(1.82655 -0.0538844 0)
(1.82793 -0.0536973 0)
(1.82936 -0.0535886 0)
(1.8308 -0.0535224 0)
(1.83221 -0.0534907 0)
(1.83359 -0.0535263 0)
(1.83501 -0.0536217 0)
(1.83657 -0.0537221 0)
(1.83822 -0.0538157 0)
(1.8399 -0.0540432 0)
(1.84156 -0.0544497 0)
(1.84319 -0.054717 0)
(1.84461 -0.0547467 0)
(1.84596 -0.0547137 0)
(1.84729 -0.0545078 0)
(1.84863 -0.0541482 0)
(1.85005 -0.0535159 0)
(1.85126 -0.0529257 0)
(1.85245 -0.0526156 0)
(1.85363 -0.0524502 0)
(1.85479 -0.05241 0)
(1.85593 -0.0522443 0)
(1.85697 -0.0520193 0)
(1.85799 -0.0517947 0)
(1.85913 -0.0512879 0)
(1.86036 -0.0505356 0)
(1.86142 -0.0501367 0)
(1.86265 -0.0495191 0)
(1.86402 -0.048753 0)
(1.86508 -0.0480678 0)
(1.86626 -0.0477599 0)
(1.86706 -0.0474358 0)
(1.8676 -0.0468392 0)
(1.86812 -0.0464211 0)
(1.86844 -0.0464636 0)
(1.86873 -0.0466818 0)
(1.8689 -0.0470988 0)
(1.86902 -0.0473 0)
(1.86882 -0.0474466 0)
(1.86773 -0.0480391 0)
(1.86369 -0.0487666 0)
(1.84617 -0.0427969 0)
(1.79725 -0.0113645 0)
(1.71909 0.023062 0)
(1.65201 0.0571395 0)
(1.62063 0.0790409 0)
(1.60131 0.0757946 0)
(1.60152 0.0684728 0)
(1.6069 0.0594272 0)
(1.61133 0.0503018 0)
(1.61452 0.0478225 0)
(1.61682 0.0491259 0)
(1.61822 0.0497224 0)
(1.62081 0.0485398 0)
(1.62439 0.0474837 0)
(1.62824 0.0462977 0)
(1.63368 0.0458481 0)
(1.889 -0.0371278 0)
(1.88907 -0.0392482 0)
(1.88929 -0.0404272 0)
(1.88974 -0.0411825 0)
(1.89031 -0.0426918 0)
(1.89072 -0.044606 0)
(1.89093 -0.0458131 0)
(1.89111 -0.0460028 0)
(1.89125 -0.045783 0)
(1.89153 -0.0454857 0)
(1.89167 -0.0451439 0)
(1.89155 -0.0448043 0)
(1.89118 -0.0442692 0)
(1.88982 -0.0430836 0)
(1.88705 -0.0404235 0)
(1.88407 -0.0367378 0)
(1.88192 -0.0341324 0)
(1.88104 -0.0333742 0)
(1.88075 -0.0335336 0)
(1.88058 -0.0338267 0)
(1.88069 -0.0343462 0)
(1.88084 -0.0349208 0)
(1.88106 -0.0354582 0)
(1.88131 -0.0362085 0)
(1.88171 -0.0370066 0)
(1.88228 -0.0374146 0)
(1.88275 -0.0373689 0)
(1.88294 -0.0372746 0)
(1.88316 -0.0371743 0)
(1.88339 -0.0374488 0)
(1.88357 -0.0378471 0)
(1.88369 -0.0377655 0)
(1.88379 -0.0375186 0)
(1.884 -0.0377025 0)
(1.8841 -0.0379271 0)
(1.88423 -0.0373502 0)
(1.88439 -0.0368399 0)
(1.88462 -0.0367325 0)
(1.885 -0.0362601 0)
(1.8855 -0.035369 0)
(1.88583 -0.0346175 0)
(1.8862 -0.0338113 0)
(1.88661 -0.0330518 0)
(1.88683 -0.0323859 0)
(1.88629 -0.0316872 0)
(1.88574 -0.0317176 0)
(1.88402 -0.0324949 0)
(1.87971 -0.0344879 0)
(1.86893 -0.0430931 0)
(1.85348 -0.053494 0)
(1.83632 -0.06032 0)
(1.81802 -0.0751329 0)
(1.8097 -0.0822915 0)
(1.8043 -0.0817808 0)
(1.8039 -0.0799218 0)
(1.80467 -0.0764771 0)
(1.805 -0.0729101 0)
(1.80555 -0.0701438 0)
(1.80619 -0.0684619 0)
(1.80677 -0.0673336 0)
(1.80757 -0.0653834 0)
(1.8094 -0.0627083 0)
(1.8116 -0.060419 0)
(1.81312 -0.058944 0)
(1.81434 -0.058233 0)
(1.81552 -0.057912 0)
(1.8165 -0.0577154 0)
(1.81748 -0.0573541 0)
(1.81868 -0.0567906 0)
(1.82018 -0.0560442 0)
(1.82161 -0.0552518 0)
(1.82302 -0.0547814 0)
(1.82441 -0.054495 0)
(1.82574 -0.0543004 0)
(1.82703 -0.0540981 0)
(1.82834 -0.0538777 0)
(1.8297 -0.0536785 0)
(1.83113 -0.0535399 0)
(1.83259 -0.053457 0)
(1.83401 -0.0533931 0)
(1.83539 -0.0533419 0)
(1.83696 -0.0533742 0)
(1.83858 -0.0534438 0)
(1.84024 -0.0535838 0)
(1.8419 -0.0538753 0)
(1.84341 -0.0541618 0)
(1.84487 -0.0542333 0)
(1.8463 -0.0541954 0)
(1.84764 -0.054035 0)
(1.84889 -0.0537316 0)
(1.85019 -0.0533097 0)
(1.85146 -0.0526525 0)
(1.8526 -0.0521757 0)
(1.85379 -0.0517863 0)
(1.85494 -0.0515045 0)
(1.85611 -0.0513232 0)
(1.85735 -0.0508377 0)
(1.85851 -0.0503113 0)
(1.85962 -0.0499876 0)
(1.86102 -0.0491668 0)
(1.86235 -0.048217 0)
(1.86352 -0.0476841 0)
(1.86458 -0.0472836 0)
(1.86573 -0.046711 0)
(1.86684 -0.0463985 0)
(1.8675 -0.046265 0)
(1.86803 -0.046128 0)
(1.86845 -0.0458786 0)
(1.86886 -0.0456385 0)
(1.86904 -0.046124 0)
(1.8692 -0.0462612 0)
(1.86917 -0.0468072 0)
(1.86874 -0.0477042 0)
(1.86754 -0.0492144 0)
(1.86476 -0.0526304 0)
(1.86066 -0.0555702 0)
(1.8541 -0.0596809 0)
(1.83591 -0.0543269 0)
(1.79166 -0.0368918 0)
(1.70541 0.00815673 0)
(1.63263 0.0608568 0)
(1.5975 0.0614374 0)
(1.59796 0.0582205 0)
(1.602 0.0554327 0)
(1.6058 0.0543437 0)
(1.61 0.0539407 0)
(1.61383 0.0550685 0)
(1.61676 0.0547169 0)
(1.62046 0.0521019 0)
(1.62452 0.0498715 0)
(1.6285 0.0492795 0)
(1.63419 0.04997 0)
(1.88786 -0.0343448 0)
(1.88775 -0.0364071 0)
(1.88775 -0.0377006 0)
(1.88799 -0.0384771 0)
(1.88848 -0.039802 0)
(1.889 -0.041432 0)
(1.88943 -0.0424505 0)
(1.88985 -0.0426103 0)
(1.8902 -0.0422085 0)
(1.89038 -0.0416824 0)
(1.89015 -0.0415487 0)
(1.88942 -0.041574 0)
(1.888 -0.0408621 0)
(1.88605 -0.0382815 0)
(1.8839 -0.0343931 0)
(1.88189 -0.0317193 0)
(1.88091 -0.0311383 0)
(1.88075 -0.0316166 0)
(1.88097 -0.0322538 0)
(1.88138 -0.0329589 0)
(1.88161 -0.0335716 0)
(1.88187 -0.0342042 0)
(1.88209 -0.0350673 0)
(1.88249 -0.0358857 0)
(1.88305 -0.0363642 0)
(1.8835 -0.0364408 0)
(1.88371 -0.0364085 0)
(1.88398 -0.0362115 0)
(1.88418 -0.0361017 0)
(1.8844 -0.0365185 0)
(1.88452 -0.0369963 0)
(1.88452 -0.0370227 0)
(1.88461 -0.0370455 0)
(1.88484 -0.0372952 0)
(1.88495 -0.0373136 0)
(1.88542 -0.0367046 0)
(1.88579 -0.036335 0)
(1.88612 -0.0361317 0)
(1.88657 -0.0355165 0)
(1.88697 -0.0346351 0)
(1.88734 -0.0336958 0)
(1.88767 -0.0330868 0)
(1.8878 -0.032627 0)
(1.88711 -0.0321265 0)
(1.88641 -0.0322605 0)
(1.88455 -0.0331025 0)
(1.88005 -0.0352094 0)
(1.86943 -0.0413593 0)
(1.85197 -0.0558612 0)
(1.83358 -0.0656869 0)
(1.82123 -0.071563 0)
(1.81129 -0.0794732 0)
(1.80654 -0.0809382 0)
(1.80466 -0.0809184 0)
(1.80384 -0.0794442 0)
(1.80492 -0.0764007 0)
(1.80631 -0.0723734 0)
(1.80778 -0.0687458 0)
(1.8089 -0.0663524 0)
(1.80953 -0.0652172 0)
(1.81011 -0.0641351 0)
(1.81116 -0.0622555 0)
(1.813 -0.0603858 0)
(1.8148 -0.0587857 0)
(1.81627 -0.0576248 0)
(1.81777 -0.0570384 0)
(1.81888 -0.0568103 0)
(1.81992 -0.0566903 0)
(1.82102 -0.0565158 0)
(1.82225 -0.0561102 0)
(1.82356 -0.0555573 0)
(1.82493 -0.0550645 0)
(1.82631 -0.0546411 0)
(1.82765 -0.0542786 0)
(1.82893 -0.0539729 0)
(1.83021 -0.0537266 0)
(1.83153 -0.0535385 0)
(1.83292 -0.0533856 0)
(1.83437 -0.0532761 0)
(1.83581 -0.0532101 0)
(1.83724 -0.053158 0)
(1.83883 -0.053174 0)
(1.84047 -0.0532568 0)
(1.84208 -0.0534146 0)
(1.8437 -0.0535768 0)
(1.84522 -0.0536154 0)
(1.84669 -0.0535602 0)
(1.84807 -0.0534439 0)
(1.84936 -0.0531815 0)
(1.8507 -0.0527658 0)
(1.85209 -0.05216 0)
(1.85335 -0.0513683 0)
(1.85453 -0.050798 0)
(1.85572 -0.0502494 0)
(1.85688 -0.0497947 0)
(1.85803 -0.0495544 0)
(1.8593 -0.0488288 0)
(1.86045 -0.0481712 0)
(1.86148 -0.048015 0)
(1.86286 -0.0471241 0)
(1.86405 -0.0462494 0)
(1.86493 -0.0457655 0)
(1.86617 -0.0454506 0)
(1.86708 -0.0454179 0)
(1.86771 -0.045253 0)
(1.86832 -0.0452712 0)
(1.86878 -0.0452585 0)
(1.86908 -0.0451408 0)
(1.86927 -0.045437 0)
(1.86932 -0.0459239 0)
(1.8691 -0.0465967 0)
(1.86783 -0.0485392 0)
(1.86573 -0.0511771 0)
(1.86237 -0.0553937 0)
(1.85855 -0.0596277 0)
(1.8532 -0.0664207 0)
(1.84907 -0.0719931 0)
(1.8435 -0.0752926 0)
(1.82853 -0.0697418 0)
(1.78425 -0.0482185 0)
(1.69602 0.0144716 0)
(1.62438 0.0501977 0)
(1.59957 0.0468884 0)
(1.60086 0.0526334 0)
(1.60211 0.0571005 0)
(1.6044 0.060323 0)
(1.60773 0.0608209 0)
(1.61264 0.0582378 0)
(1.61902 0.0546382 0)
(1.62393 0.0520354 0)
(1.62809 0.0525547 0)
(1.63292 0.0544867 0)
(1.88526 -0.0315244 0)
(1.88521 -0.0333871 0)
(1.88537 -0.0345639 0)
(1.88578 -0.0352663 0)
(1.88654 -0.0365188 0)
(1.88746 -0.0380981 0)
(1.8883 -0.039134 0)
(1.88914 -0.039317 0)
(1.88997 -0.0387889 0)
(1.89051 -0.0377042 0)
(1.89015 -0.0365747 0)
(1.88859 -0.0357842 0)
(1.88637 -0.0342844 0)
(1.88417 -0.031551 0)
(1.8821 -0.0293077 0)
(1.88094 -0.0288971 0)
(1.88084 -0.0297624 0)
(1.88129 -0.030863 0)
(1.88183 -0.0318577 0)
(1.88223 -0.0323617 0)
(1.88259 -0.0327405 0)
(1.88281 -0.0333447 0)
(1.88308 -0.0341661 0)
(1.88357 -0.0349855 0)
(1.88403 -0.0354628 0)
(1.88424 -0.0355355 0)
(1.88456 -0.0354977 0)
(1.88483 -0.0351952 0)
(1.88502 -0.0351104 0)
(1.88524 -0.0355739 0)
(1.8853 -0.0360166 0)
(1.8853 -0.0362992 0)
(1.88545 -0.0367013 0)
(1.88564 -0.0369679 0)
(1.88592 -0.0367465 0)
(1.88659 -0.0362034 0)
(1.88702 -0.0356412 0)
(1.88737 -0.0351192 0)
(1.88776 -0.0343516 0)
(1.88813 -0.0333115 0)
(1.88835 -0.0326486 0)
(1.88848 -0.0322706 0)
(1.8878 -0.0322224 0)
(1.88696 -0.0327191 0)
(1.88502 -0.0335571 0)
(1.88003 -0.0368577 0)
(1.87047 -0.0410028 0)
(1.85203 -0.052899 0)
(1.83201 -0.0693564 0)
(1.8187 -0.0757532 0)
(1.81205 -0.0789445 0)
(1.80866 -0.0788548 0)
(1.80776 -0.078803 0)
(1.80645 -0.0788779 0)
(1.80553 -0.0779289 0)
(1.80635 -0.0751894 0)
(1.80794 -0.0714246 0)
(1.80977 -0.0675016 0)
(1.81113 -0.064471 0)
(1.81205 -0.063055 0)
(1.81273 -0.0625205 0)
(1.81347 -0.0616126 0)
(1.81472 -0.0601299 0)
(1.81631 -0.0586754 0)
(1.81811 -0.0575943 0)
(1.81977 -0.056736 0)
(1.82115 -0.0562298 0)
(1.82232 -0.0560112 0)
(1.82335 -0.0559094 0)
(1.82441 -0.0557748 0)
(1.82558 -0.0555288 0)
(1.82686 -0.0551702 0)
(1.82821 -0.0546998 0)
(1.82956 -0.0542091 0)
(1.83089 -0.0537811 0)
(1.8322 -0.0534581 0)
(1.83348 -0.0532615 0)
(1.83479 -0.0531218 0)
(1.83621 -0.0529841 0)
(1.83774 -0.0528841 0)
(1.83932 -0.0528513 0)
(1.8409 -0.0528446 0)
(1.84244 -0.0528803 0)
(1.84393 -0.0529603 0)
(1.84536 -0.0530177 0)
(1.84675 -0.0530161 0)
(1.84815 -0.0529016 0)
(1.84949 -0.0526554 0)
(1.85073 -0.0523082 0)
(1.85205 -0.0517647 0)
(1.85339 -0.050992 0)
(1.85463 -0.0502143 0)
(1.8559 -0.0495207 0)
(1.8572 -0.0487038 0)
(1.8584 -0.048295 0)
(1.85975 -0.0477727 0)
(1.86119 -0.0467531 0)
(1.86243 -0.0460522 0)
(1.86371 -0.0454991 0)
(1.86479 -0.0448575 0)
(1.86564 -0.044176 0)
(1.86683 -0.0440106 0)
(1.86757 -0.0440834 0)
(1.86802 -0.0442361 0)
(1.86847 -0.0443941 0)
(1.86883 -0.0444788 0)
(1.86911 -0.044733 0)
(1.86924 -0.045065 0)
(1.86911 -0.0457219 0)
(1.86817 -0.0473277 0)
(1.86598 -0.0504294 0)
(1.86352 -0.0535093 0)
(1.85856 -0.0596013 0)
(1.85403 -0.065582 0)
(1.8495 -0.0706537 0)
(1.84685 -0.0733136 0)
(1.84365 -0.0776383 0)
(1.84153 -0.0827657 0)
(1.83813 -0.0827636 0)
(1.82441 -0.0758721 0)
(1.78002 -0.0467995 0)
(1.69593 0.0134663 0)
(1.62706 0.0354847 0)
(1.60406 0.0512672 0)
(1.60133 0.0606033 0)
(1.59984 0.0643334 0)
(1.60313 0.0636573 0)
(1.61089 0.0609602 0)
(1.61844 0.0570237 0)
(1.62388 0.0546558 0)
(1.62771 0.0564331 0)
(1.63147 0.0592641 0)
(1.88407 -0.0289515 0)
(1.88367 -0.0305024 0)
(1.8836 -0.0313557 0)
(1.88394 -0.0319049 0)
(1.88466 -0.0330267 0)
(1.88546 -0.0342912 0)
(1.88613 -0.0350029 0)
(1.88655 -0.0352219 0)
(1.88664 -0.0347307 0)
(1.88643 -0.0332791 0)
(1.88575 -0.0315568 0)
(1.88444 -0.0299949 0)
(1.88286 -0.0283449 0)
(1.88157 -0.0269409 0)
(1.88097 -0.0267224 0)
(1.88122 -0.0276798 0)
(1.88178 -0.029094 0)
(1.88229 -0.0304582 0)
(1.88275 -0.031216 0)
(1.88316 -0.0315136 0)
(1.88344 -0.0318302 0)
(1.88367 -0.032479 0)
(1.88403 -0.0333746 0)
(1.8845 -0.0342565 0)
(1.88467 -0.0345644 0)
(1.88497 -0.0346914 0)
(1.88528 -0.0345787 0)
(1.88551 -0.034268 0)
(1.88574 -0.0342531 0)
(1.88593 -0.0346258 0)
(1.88591 -0.0349658 0)
(1.88588 -0.0353849 0)
(1.88607 -0.0359534 0)
(1.88629 -0.0362648 0)
(1.88679 -0.0360043 0)
(1.88745 -0.03543 0)
(1.88793 -0.0347491 0)
(1.88841 -0.0340494 0)
(1.88889 -0.0331561 0)
(1.88923 -0.0323428 0)
(1.88925 -0.0316967 0)
(1.88868 -0.0317889 0)
(1.8875 -0.0329106 0)
(1.88562 -0.0339528 0)
(1.88039 -0.0371891 0)
(1.87004 -0.0440179 0)
(1.85415 -0.0507504 0)
(1.83252 -0.0649621 0)
(1.81714 -0.0807093 0)
(1.81042 -0.0820189 0)
(1.80889 -0.0793681 0)
(1.80909 -0.0778125 0)
(1.80889 -0.0768379 0)
(1.8086 -0.0760031 0)
(1.80867 -0.0749584 0)
(1.80912 -0.073394 0)
(1.80988 -0.0707084 0)
(1.81164 -0.0666547 0)
(1.81325 -0.0632913 0)
(1.81436 -0.0615023 0)
(1.8153 -0.0608413 0)
(1.81611 -0.060379 0)
(1.81702 -0.059591 0)
(1.81826 -0.0584561 0)
(1.81981 -0.0574052 0)
(1.82151 -0.0566665 0)
(1.82315 -0.0560345 0)
(1.82446 -0.0555689 0)
(1.82558 -0.0553883 0)
(1.82663 -0.0553086 0)
(1.82767 -0.055206 0)
(1.82879 -0.0549759 0)
(1.83003 -0.0545768 0)
(1.83136 -0.0540789 0)
(1.83275 -0.0535817 0)
(1.83415 -0.0531473 0)
(1.83553 -0.0528404 0)
(1.83689 -0.0526404 0)
(1.83828 -0.0524985 0)
(1.8397 -0.0524491 0)
(1.84116 -0.052504 0)
(1.84266 -0.0525585 0)
(1.84414 -0.0525267 0)
(1.8456 -0.0523961 0)
(1.84706 -0.0523035 0)
(1.84844 -0.0521537 0)
(1.84978 -0.0519128 0)
(1.85107 -0.0515797 0)
(1.85232 -0.0511218 0)
(1.85355 -0.0504752 0)
(1.85485 -0.0495968 0)
(1.85614 -0.0487885 0)
(1.85755 -0.0478923 0)
(1.85894 -0.0468207 0)
(1.86028 -0.0462384 0)
(1.86166 -0.0456708 0)
(1.86309 -0.04462 0)
(1.86428 -0.043847 0)
(1.86521 -0.0436744 0)
(1.86602 -0.043261 0)
(1.86698 -0.0432021 0)
(1.86761 -0.0432226 0)
(1.86803 -0.0434303 0)
(1.86848 -0.0435918 0)
(1.86883 -0.0437696 0)
(1.86899 -0.0442378 0)
(1.86898 -0.044761 0)
(1.86801 -0.0464613 0)
(1.86622 -0.0491923 0)
(1.86386 -0.0523099 0)
(1.85895 -0.0590452 0)
(1.85509 -0.0633416 0)
(1.85071 -0.0685548 0)
(1.84724 -0.0728635 0)
(1.84306 -0.0787819 0)
(1.84024 -0.0823977 0)
(1.8388 -0.082386 0)
(1.83833 -0.0835778 0)
(1.83788 -0.0839597 0)
(1.83587 -0.0833404 0)
(1.8232 -0.0750532 0)
(1.78074 -0.0438812 0)
(1.70552 -0.00614924 0)
(1.63256 0.0410223 0)
(1.60233 0.0694711 0)
(1.60011 0.0705302 0)
(1.60323 0.0678622 0)
(1.61051 0.0627065 0)
(1.61766 0.0585442 0)
(1.62318 0.0582078 0)
(1.6269 0.0624225 0)
(1.63037 0.0652655 0)
(1.88208 -0.0257953 0)
(1.88177 -0.0270816 0)
(1.88188 -0.0277759 0)
(1.88235 -0.0281897 0)
(1.88309 -0.0292136 0)
(1.88393 -0.0303206 0)
(1.88473 -0.0304133 0)
(1.88483 -0.0295712 0)
(1.8839 -0.0286372 0)
(1.88268 -0.0275813 0)
(1.88182 -0.0260827 0)
(1.88115 -0.0247683 0)
(1.88068 -0.024359 0)
(1.88078 -0.0246323 0)
(1.88136 -0.0256388 0)
(1.8822 -0.0272978 0)
(1.88286 -0.0287362 0)
(1.88328 -0.029814 0)
(1.88369 -0.0303497 0)
(1.88401 -0.030626 0)
(1.88432 -0.0309426 0)
(1.88459 -0.0315545 0)
(1.8849 -0.0324102 0)
(1.8852 -0.0333423 0)
(1.88529 -0.0337855 0)
(1.8856 -0.0339564 0)
(1.88592 -0.0337753 0)
(1.88619 -0.0335397 0)
(1.88645 -0.0335423 0)
(1.88662 -0.0337291 0)
(1.88663 -0.0340163 0)
(1.8867 -0.0346235 0)
(1.88692 -0.0353104 0)
(1.88713 -0.0356135 0)
(1.8876 -0.0352899 0)
(1.88821 -0.0346103 0)
(1.88877 -0.0338076 0)
(1.88935 -0.0330018 0)
(1.88984 -0.0321198 0)
(1.88992 -0.0312568 0)
(1.88945 -0.0312099 0)
(1.8881 -0.032474 0)
(1.88643 -0.0341011 0)
(1.88153 -0.0364382 0)
(1.86982 -0.045085 0)
(1.85327 -0.0554953 0)
(1.83565 -0.061072 0)
(1.81777 -0.0749977 0)
(1.81139 -0.0827778 0)
(1.80794 -0.0826152 0)
(1.80794 -0.0810092 0)
(1.80934 -0.0781925 0)
(1.8099 -0.0755196 0)
(1.81065 -0.0730105 0)
(1.81111 -0.0713506 0)
(1.81141 -0.070635 0)
(1.81182 -0.0691339 0)
(1.81319 -0.0660069 0)
(1.81517 -0.0628067 0)
(1.81643 -0.0606603 0)
(1.81744 -0.0595115 0)
(1.81838 -0.0587993 0)
(1.8195 -0.0583079 0)
(1.82063 -0.0578462 0)
(1.82184 -0.0571322 0)
(1.82332 -0.0564372 0)
(1.82489 -0.055869 0)
(1.82632 -0.0552861 0)
(1.82757 -0.0549589 0)
(1.82873 -0.0547872 0)
(1.82979 -0.0546645 0)
(1.83083 -0.0544801 0)
(1.83193 -0.0541916 0)
(1.83315 -0.0538714 0)
(1.8345 -0.0534669 0)
(1.83596 -0.0529094 0)
(1.83742 -0.0524252 0)
(1.83885 -0.0521418 0)
(1.84032 -0.0519448 0)
(1.84181 -0.0518389 0)
(1.84326 -0.0518531 0)
(1.84469 -0.0518591 0)
(1.84604 -0.0518203 0)
(1.84732 -0.0516936 0)
(1.84865 -0.0514819 0)
(1.84987 -0.0513428 0)
(1.85112 -0.0510931 0)
(1.85253 -0.0505738 0)
(1.85378 -0.0499112 0)
(1.85523 -0.0488829 0)
(1.85661 -0.0477929 0)
(1.85796 -0.0470453 0)
(1.85954 -0.0458706 0)
(1.86098 -0.0446213 0)
(1.86231 -0.0441597 0)
(1.86346 -0.0437632 0)
(1.86475 -0.0426622 0)
(1.86572 -0.0419893 0)
(1.86654 -0.0420992 0)
(1.86738 -0.0422012 0)
(1.86776 -0.0424033 0)
(1.86814 -0.0425993 0)
(1.86847 -0.0429022 0)
(1.86869 -0.0433177 0)
(1.86873 -0.0437186 0)
(1.86786 -0.0453072 0)
(1.86655 -0.047366 0)
(1.86374 -0.0510949 0)
(1.8595 -0.0566886 0)
(1.85561 -0.0615414 0)
(1.85157 -0.0667599 0)
(1.84666 -0.0734779 0)
(1.84285 -0.0793594 0)
(1.84103 -0.0799248 0)
(1.84029 -0.0801664 0)
(1.83857 -0.0820839 0)
(1.83738 -0.0828238 0)
(1.83683 -0.0833312 0)
(1.83692 -0.0835342 0)
(1.83683 -0.0832561 0)
(1.83523 -0.0819967 0)
(1.82407 -0.0730164 0)
(1.78426 -0.0463944 0)
(1.709 -0.00272199 0)
(1.63201 0.0577162 0)
(1.60886 0.0694894 0)
(1.60873 0.066059 0)
(1.61293 0.0635732 0)
(1.61806 0.0617773 0)
(1.62244 0.0642041 0)
(1.62442 0.0699688 0)
(1.62879 0.0707535 0)
(1.88076 -0.0230403 0)
(1.88002 -0.024144 0)
(1.87976 -0.0247675 0)
(1.8799 -0.0250469 0)
(1.88026 -0.0260365 0)
(1.88051 -0.0270308 0)
(1.88058 -0.0263599 0)
(1.8801 -0.0243974 0)
(1.87904 -0.0230099 0)
(1.87815 -0.0226844 0)
(1.87807 -0.0221143 0)
(1.87856 -0.0214026 0)
(1.87965 -0.0221172 0)
(1.88087 -0.0236942 0)
(1.88177 -0.0254293 0)
(1.88299 -0.0268776 0)
(1.8837 -0.027938 0)
(1.88406 -0.0289053 0)
(1.88449 -0.0294736 0)
(1.88486 -0.029816 0)
(1.88525 -0.030151 0)
(1.88547 -0.0306584 0)
(1.88569 -0.031378 0)
(1.88584 -0.0323066 0)
(1.88587 -0.0329714 0)
(1.88612 -0.0331978 0)
(1.8864 -0.0330152 0)
(1.88665 -0.0328302 0)
(1.88688 -0.0327801 0)
(1.88702 -0.0327842 0)
(1.88704 -0.0328885 0)
(1.88718 -0.0333867 0)
(1.88746 -0.0340007 0)
(1.8877 -0.0342955 0)
(1.88815 -0.0340169 0)
(1.88874 -0.0333887 0)
(1.8894 -0.0327208 0)
(1.89008 -0.0319108 0)
(1.89037 -0.03094 0)
(1.88999 -0.0308137 0)
(1.88879 -0.0317712 0)
(1.88697 -0.0339653 0)
(1.8825 -0.036415 0)
(1.87096 -0.0431286 0)
(1.85271 -0.0575806 0)
(1.83441 -0.0649951 0)
(1.8196 -0.071333 0)
(1.81308 -0.0791142 0)
(1.80952 -0.0813073 0)
(1.80878 -0.0812426 0)
(1.80881 -0.0803664 0)
(1.80987 -0.0779045 0)
(1.81156 -0.0743166 0)
(1.81333 -0.0705934 0)
(1.81435 -0.0680617 0)
(1.81468 -0.0674465 0)
(1.81461 -0.0670098 0)
(1.81505 -0.0650115 0)
(1.81667 -0.0624341 0)
(1.81811 -0.0602512 0)
(1.81939 -0.0586902 0)
(1.82062 -0.057634 0)
(1.82172 -0.0570322 0)
(1.82286 -0.056723 0)
(1.82404 -0.0564556 0)
(1.82527 -0.0560347 0)
(1.82665 -0.0555895 0)
(1.82802 -0.0550951 0)
(1.82936 -0.0546424 0)
(1.83063 -0.0542961 0)
(1.83182 -0.0540403 0)
(1.83298 -0.0537767 0)
(1.83415 -0.053471 0)
(1.8353 -0.0532243 0)
(1.83651 -0.0529216 0)
(1.8379 -0.05242 0)
(1.83935 -0.0519056 0)
(1.84079 -0.051598 0)
(1.84225 -0.0514223 0)
(1.84368 -0.0512786 0)
(1.84506 -0.0511841 0)
(1.84642 -0.0511736 0)
(1.84772 -0.0510708 0)
(1.84914 -0.0508063 0)
(1.85045 -0.0504214 0)
(1.85163 -0.0501943 0)
(1.85291 -0.0498143 0)
(1.85409 -0.0492986 0)
(1.85539 -0.0484844 0)
(1.8569 -0.0471908 0)
(1.85826 -0.0461929 0)
(1.85976 -0.0452651 0)
(1.86157 -0.0436851 0)
(1.86303 -0.04249 0)
(1.8642 -0.0421344 0)
(1.86535 -0.041366 0)
(1.86608 -0.0409332 0)
(1.86686 -0.0411585 0)
(1.86759 -0.0412979 0)
(1.86786 -0.0415189 0)
(1.86815 -0.0419052 0)
(1.86843 -0.0422519 0)
(1.86843 -0.0428505 0)
(1.86786 -0.0441032 0)
(1.86674 -0.0456747 0)
(1.86358 -0.0497764 0)
(1.86007 -0.0544598 0)
(1.85666 -0.0585924 0)
(1.85105 -0.0660302 0)
(1.84605 -0.0733621 0)
(1.84397 -0.0749901 0)
(1.84279 -0.0766777 0)
(1.83984 -0.0808848 0)
(1.83825 -0.082954 0)
(1.83716 -0.0828753 0)
(1.83689 -0.0829776 0)
(1.8365 -0.0829722 0)
(1.83654 -0.0825259 0)
(1.83682 -0.0822235 0)
(1.83772 -0.081867 0)
(1.83786 -0.0805538 0)
(1.8363 -0.0780516 0)
(1.82628 -0.0692856 0)
(1.78883 -0.0460103 0)
(1.70685 0.0149735 0)
(1.64094 0.05945 0)
(1.61776 0.0618551 0)
(1.61786 0.0648479 0)
(1.61946 0.0673 0)
(1.62095 0.0733281 0)
(1.62266 0.0763131 0)
(1.62879 0.073976 0)
(1.87916 -0.0208601 0)
(1.87815 -0.0217814 0)
(1.87755 -0.0223089 0)
(1.87725 -0.0223524 0)
(1.8769 -0.0228768 0)
(1.87622 -0.0233139 0)
(1.87566 -0.0217156 0)
(1.87503 -0.0189033 0)
(1.87442 -0.0178657 0)
(1.87459 -0.0185915 0)
(1.8757 -0.0191817 0)
(1.87712 -0.0194081 0)
(1.87866 -0.0208821 0)
(1.88083 -0.0232677 0)
(1.88188 -0.0250602 0)
(1.88327 -0.0263446 0)
(1.88429 -0.0271036 0)
(1.88468 -0.0278439 0)
(1.88508 -0.028374 0)
(1.88558 -0.0288601 0)
(1.88603 -0.0293698 0)
(1.88618 -0.0298009 0)
(1.88647 -0.0304746 0)
(1.88662 -0.0314859 0)
(1.88664 -0.0323105 0)
(1.8868 -0.0325665 0)
(1.887 -0.0324699 0)
(1.8872 -0.0323618 0)
(1.88737 -0.0322682 0)
(1.88749 -0.0321286 0)
(1.88757 -0.0320737 0)
(1.88781 -0.0324032 0)
(1.88813 -0.0328602 0)
(1.88843 -0.0330086 0)
(1.88889 -0.0327352 0)
(1.8895 -0.0323827 0)
(1.89025 -0.0318117 0)
(1.89074 -0.0308412 0)
(1.89033 -0.0306754 0)
(1.88942 -0.0313503 0)
(1.88748 -0.0333389 0)
(1.88286 -0.0371513 0)
(1.87274 -0.0416389 0)
(1.85395 -0.0533239 0)
(1.83294 -0.0702676 0)
(1.81875 -0.0742423 0)
(1.81339 -0.0763577 0)
(1.81169 -0.0784257 0)
(1.81123 -0.0788163 0)
(1.81065 -0.0788978 0)
(1.81048 -0.0780926 0)
(1.81136 -0.0761265 0)
(1.81325 -0.0728325 0)
(1.81548 -0.0686312 0)
(1.81664 -0.0653141 0)
(1.81724 -0.0640981 0)
(1.81753 -0.0641582 0)
(1.81767 -0.0635508 0)
(1.81845 -0.0617519 0)
(1.81976 -0.0598076 0)
(1.82124 -0.0581332 0)
(1.82266 -0.0568623 0)
(1.8239 -0.0561068 0)
(1.82507 -0.0558044 0)
(1.82618 -0.0557117 0)
(1.82733 -0.0555388 0)
(1.8286 -0.0552094 0)
(1.82989 -0.0547894 0)
(1.8312 -0.0543102 0)
(1.83248 -0.0538319 0)
(1.83368 -0.053464 0)
(1.83487 -0.0531868 0)
(1.83608 -0.0527655 0)
(1.83723 -0.0524305 0)
(1.83839 -0.0522926 0)
(1.83974 -0.051921 0)
(1.84118 -0.0513776 0)
(1.84257 -0.0511188 0)
(1.84393 -0.0510417 0)
(1.84534 -0.0506577 0)
(1.8468 -0.050296 0)
(1.84816 -0.0502342 0)
(1.84947 -0.0501382 0)
(1.8509 -0.0498242 0)
(1.85223 -0.0493169 0)
(1.85346 -0.0488704 0)
(1.85475 -0.0482636 0)
(1.856 -0.0476219 0)
(1.85748 -0.0465483 0)
(1.85903 -0.0450342 0)
(1.86031 -0.0440817 0)
(1.8618 -0.0431212 0)
(1.86338 -0.0418351 0)
(1.86464 -0.0408162 0)
(1.86564 -0.0400963 0)
(1.86634 -0.0400814 0)
(1.86713 -0.04043 0)
(1.86766 -0.0405946 0)
(1.86794 -0.0408224 0)
(1.86823 -0.0411491 0)
(1.8683 -0.0417429 0)
(1.86804 -0.0425777 0)
(1.86674 -0.0443986 0)
(1.86394 -0.0482337 0)
(1.86127 -0.0514074 0)
(1.8564 -0.0573762 0)
(1.85069 -0.0653361 0)
(1.8475 -0.0686918 0)
(1.84536 -0.0714666 0)
(1.84099 -0.0777683 0)
(1.83874 -0.0820267 0)
(1.83755 -0.0818852 0)
(1.83731 -0.0826001 0)
(1.8371 -0.082437 0)
(1.83665 -0.0824528 0)
(1.83677 -0.0821233 0)
(1.83707 -0.0815528 0)
(1.83754 -0.0806545 0)
(1.83827 -0.0795425 0)
(1.83929 -0.0784904 0)
(1.84051 -0.0778649 0)
(1.8401 -0.0762477 0)
(1.83833 -0.07336 0)
(1.82873 -0.0662118 0)
(1.79001 -0.0381736 0)
(1.71526 0.0167978 0)
(1.65388 0.0431338 0)
(1.62333 0.0646324 0)
(1.6186 0.0773427 0)
(1.61689 0.0799394 0)
(1.62133 0.0779605 0)
(1.62911 0.0747149 0)
(1.8773 -0.0189126 0)
(1.87593 -0.0196839 0)
(1.87493 -0.0199898 0)
(1.8742 -0.0194218 0)
(1.87326 -0.0190292 0)
(1.87197 -0.0184621 0)
(1.87112 -0.0163081 0)
(1.87052 -0.013762 0)
(1.8707 -0.0135897 0)
(1.87207 -0.0156589 0)
(1.87391 -0.0171125 0)
(1.87595 -0.0181093 0)
(1.87777 -0.020215 0)
(1.88022 -0.0223755 0)
(1.88191 -0.0242819 0)
(1.88313 -0.0253695 0)
(1.88444 -0.0260398 0)
(1.88503 -0.0266058 0)
(1.88545 -0.0272046 0)
(1.88617 -0.027981 0)
(1.88659 -0.0286789 0)
(1.88685 -0.0291373 0)
(1.88722 -0.0297756 0)
(1.88741 -0.030636 0)
(1.88742 -0.0314333 0)
(1.88742 -0.031782 0)
(1.88747 -0.0317731 0)
(1.88753 -0.0316907 0)
(1.8876 -0.0314896 0)
(1.88767 -0.0311507 0)
(1.88785 -0.0310154 0)
(1.8882 -0.0312226 0)
(1.88857 -0.0314417 0)
(1.88897 -0.0314862 0)
(1.88955 -0.0314859 0)
(1.89024 -0.031292 0)
(1.89085 -0.0305295 0)
(1.89048 -0.0305024 0)
(1.88979 -0.0310295 0)
(1.88797 -0.0327521 0)
(1.88336 -0.0364953 0)
(1.87319 -0.0427943 0)
(1.85609 -0.0508229 0)
(1.83429 -0.0645149 0)
(1.8184 -0.0780795 0)
(1.81182 -0.0799027 0)
(1.81128 -0.078297 0)
(1.81231 -0.0772042 0)
(1.81269 -0.0769703 0)
(1.81317 -0.0763574 0)
(1.81385 -0.0751555 0)
(1.81441 -0.073812 0)
(1.81516 -0.0712331 0)
(1.81718 -0.0671861 0)
(1.81853 -0.0636362 0)
(1.81937 -0.061779 0)
(1.81996 -0.0613466 0)
(1.8203 -0.0611948 0)
(1.82084 -0.0603655 0)
(1.82182 -0.0590509 0)
(1.82323 -0.0576328 0)
(1.82469 -0.0563558 0)
(1.82599 -0.0554451 0)
(1.8271 -0.0550284 0)
(1.82809 -0.0549799 0)
(1.82911 -0.0548806 0)
(1.83025 -0.0547028 0)
(1.83145 -0.0544986 0)
(1.83278 -0.0540887 0)
(1.83413 -0.0534631 0)
(1.83542 -0.0529381 0)
(1.8367 -0.0525612 0)
(1.83804 -0.0519744 0)
(1.83927 -0.0515103 0)
(1.84048 -0.0514255 0)
(1.84177 -0.0512007 0)
(1.84309 -0.0507363 0)
(1.84438 -0.0504412 0)
(1.84564 -0.05032 0)
(1.84683 -0.0499878 0)
(1.84842 -0.0494869 0)
(1.84981 -0.0491924 0)
(1.85114 -0.0490215 0)
(1.85265 -0.0485709 0)
(1.85405 -0.0479395 0)
(1.85539 -0.0471963 0)
(1.85675 -0.04631 0)
(1.8581 -0.0456685 0)
(1.8595 -0.0447244 0)
(1.86117 -0.0429983 0)
(1.86253 -0.0416882 0)
(1.86363 -0.0413432 0)
(1.86481 -0.0404122 0)
(1.8657 -0.0393269 0)
(1.86645 -0.039258 0)
(1.86729 -0.0396155 0)
(1.86774 -0.0398978 0)
(1.86796 -0.0402396 0)
(1.86818 -0.0405738 0)
(1.8681 -0.0411454 0)
(1.86692 -0.0429933 0)
(1.86497 -0.0456453 0)
(1.862 -0.0491047 0)
(1.85636 -0.0563263 0)
(1.85218 -0.0612652 0)
(1.84885 -0.0650167 0)
(1.84357 -0.0726372 0)
(1.84 -0.0787648 0)
(1.83851 -0.0791933 0)
(1.83834 -0.0795668 0)
(1.83731 -0.081232 0)
(1.83699 -0.0818417 0)
(1.83678 -0.0818383 0)
(1.83707 -0.0814285 0)
(1.83732 -0.0810871 0)
(1.83772 -0.08031 0)
(1.83825 -0.0793018 0)
(1.83906 -0.0780091 0)
(1.8397 -0.0770715 0)
(1.84059 -0.0757771 0)
(1.84146 -0.0752764 0)
(1.84253 -0.0747738 0)
(1.84164 -0.0730581 0)
(1.83994 -0.070717 0)
(1.82978 -0.0620674 0)
(1.7956 -0.0375216 0)
(1.72879 0.000687049 0)
(1.6506 0.0563105 0)
(1.62137 0.082234 0)
(1.61802 0.079951 0)
(1.62258 0.0759549 0)
(1.62982 0.0736702 0)
(1.87545 -0.0169758 0)
(1.87372 -0.0173928 0)
(1.87236 -0.0170872 0)
(1.87115 -0.0156449 0)
(1.86955 -0.0142751 0)
(1.86787 -0.0130554 0)
(1.86695 -0.0112634 0)
(1.86666 -0.00982775 0)
(1.8677 -0.0106361 0)
(1.87029 -0.0137198 0)
(1.87242 -0.0156215 0)
(1.87461 -0.0167683 0)
(1.87696 -0.0191447 0)
(1.87962 -0.0214554 0)
(1.88153 -0.0234018 0)
(1.88297 -0.0240942 0)
(1.88413 -0.0246091 0)
(1.88501 -0.0252192 0)
(1.8857 -0.025933 0)
(1.88653 -0.0270368 0)
(1.88704 -0.0280665 0)
(1.88757 -0.0286521 0)
(1.88802 -0.0291835 0)
(1.88828 -0.0298919 0)
(1.8883 -0.0306184 0)
(1.88819 -0.0310191 0)
(1.88807 -0.0311549 0)
(1.88797 -0.0311153 0)
(1.88793 -0.030754 0)
(1.88798 -0.0303299 0)
(1.88824 -0.0302099 0)
(1.88863 -0.0301957 0)
(1.88908 -0.0301947 0)
(1.88969 -0.0303863 0)
(1.89039 -0.030511 0)
(1.89106 -0.0300721 0)
(1.8906 -0.030209 0)
(1.88998 -0.0307533 0)
(1.8883 -0.0324239 0)
(1.884 -0.035289 0)
(1.87328 -0.043075 0)
(1.85635 -0.0533081 0)
(1.838 -0.059723 0)
(1.81931 -0.0722851 0)
(1.8123 -0.0809493 0)
(1.8101 -0.0813445 0)
(1.8105 -0.0800585 0)
(1.81244 -0.077803 0)
(1.81363 -0.0756697 0)
(1.81511 -0.073511 0)
(1.81607 -0.0713743 0)
(1.81642 -0.0704817 0)
(1.8166 -0.0691097 0)
(1.81808 -0.0661711 0)
(1.81973 -0.0630018 0)
(1.82099 -0.0607413 0)
(1.82209 -0.0594781 0)
(1.82273 -0.0588593 0)
(1.82308 -0.0582166 0)
(1.824 -0.0573002 0)
(1.82533 -0.0564911 0)
(1.82667 -0.055708 0)
(1.82791 -0.0548651 0)
(1.82893 -0.0544202 0)
(1.82998 -0.0542366 0)
(1.83116 -0.0539976 0)
(1.83226 -0.0538654 0)
(1.83335 -0.053766 0)
(1.83453 -0.0534558 0)
(1.83579 -0.0529066 0)
(1.83707 -0.0524076 0)
(1.8384 -0.0520128 0)
(1.83988 -0.0513119 0)
(1.84127 -0.0507036 0)
(1.84257 -0.0505457 0)
(1.84389 -0.0502814 0)
(1.84517 -0.049795 0)
(1.84632 -0.049485 0)
(1.84744 -0.0493949 0)
(1.8485 -0.0491601 0)
(1.85003 -0.0485956 0)
(1.85138 -0.0481861 0)
(1.85278 -0.0478343 0)
(1.85432 -0.0472315 0)
(1.85586 -0.0463736 0)
(1.85757 -0.0450488 0)
(1.85895 -0.0440017 0)
(1.8603 -0.0435145 0)
(1.86193 -0.0423628 0)
(1.86333 -0.0407373 0)
(1.86431 -0.0403086 0)
(1.86509 -0.0399107 0)
(1.86593 -0.0390135 0)
(1.8665 -0.0387453 0)
(1.86726 -0.0389589 0)
(1.86773 -0.0392707 0)
(1.86792 -0.0395808 0)
(1.86795 -0.0401047 0)
(1.86731 -0.041371 0)
(1.86589 -0.043188 0)
(1.86226 -0.0474708 0)
(1.85764 -0.0534034 0)
(1.8543 -0.0569401 0)
(1.84823 -0.0647135 0)
(1.84297 -0.0724147 0)
(1.84053 -0.0740235 0)
(1.83968 -0.0756567 0)
(1.83781 -0.0790377 0)
(1.8368 -0.0812773 0)
(1.83658 -0.0819768 0)
(1.83659 -0.0817521 0)
(1.83674 -0.0815996 0)
(1.8371 -0.0810312 0)
(1.8376 -0.0800955 0)
(1.83806 -0.079374 0)
(1.83901 -0.0781951 0)
(1.83977 -0.0770741 0)
(1.84032 -0.0762846 0)
(1.84113 -0.0752359 0)
(1.84187 -0.074024 0)
(1.84252 -0.0730455 0)
(1.84325 -0.0728028 0)
(1.8438 -0.0728071 0)
(1.84294 -0.071491 0)
(1.84131 -0.069452 0)
(1.83205 -0.060963 0)
(1.79962 -0.0402849 0)
(1.73132 0.00390332 0)
(1.65653 0.063207 0)
(1.62682 0.0710166 0)
(1.62623 0.0741746 0)
(1.62913 0.0742871 0)
(1.87382 -0.0147799 0)
(1.87185 -0.0147002 0)
(1.86981 -0.0137533 0)
(1.86764 -0.0114134 0)
(1.86555 -0.00926273 0)
(1.86419 -0.00824668 0)
(1.86398 -0.00752431 0)
(1.86451 -0.00726767 0)
(1.86601 -0.0088749 0)
(1.86881 -0.0120182 0)
(1.87089 -0.0139882 0)
(1.87313 -0.0155121 0)
(1.87625 -0.0180555 0)
(1.8789 -0.020467 0)
(1.88072 -0.0218037 0)
(1.88236 -0.0223644 0)
(1.88362 -0.0228104 0)
(1.8847 -0.0236952 0)
(1.8858 -0.0247896 0)
(1.88681 -0.0262481 0)
(1.88752 -0.0275309 0)
(1.88815 -0.0282229 0)
(1.88865 -0.028651 0)
(1.88893 -0.0291272 0)
(1.88894 -0.0295648 0)
(1.88874 -0.0298693 0)
(1.88848 -0.0300496 0)
(1.88822 -0.0299475 0)
(1.88808 -0.0295754 0)
(1.88816 -0.0292709 0)
(1.88848 -0.029121 0)
(1.88895 -0.0290287 0)
(1.88965 -0.029189 0)
(1.89046 -0.0294277 0)
(1.89114 -0.0293459 0)
(1.89077 -0.0297003 0)
(1.89019 -0.0302579 0)
(1.88852 -0.0319795 0)
(1.88454 -0.034542 0)
(1.87443 -0.0403241 0)
(1.85631 -0.0542491 0)
(1.83706 -0.0631908 0)
(1.82214 -0.0677003 0)
(1.81405 -0.0751773 0)
(1.81135 -0.0793851 0)
(1.81078 -0.0798372 0)