/*--------------------------------*- C++ -*----------------------------------*\
  =========                 |
  \\      /  F ield         | OpenFOAM: The Open Source CFD Toolbox
   \\    /   O peration     | Website:  https://openfoam.org
    \\  /    A nd           | Version:  7
     \\/     M anipulation  |
\*---------------------------------------------------------------------------*/
FoamFile
{
    version     2.0;
    format      ascii;
    class       volScalarField;
    location    "0.813";
    object      T;
}
// * * * * * * * * * * * * * * * * * * * * * * * * * * * * * * * * * * * * * //

dimensions      [0 2 -2 0 0 0 0];

internalField   nonuniform List<scalar> 
12359
(
3.55743e-76
1.09878e-61
1.23986e-206
6.05735e-41
7.14473e-70
-7.64062e-28
5.98964e-23
-1.17455e-25
6.28458e-18
-4.93165e-31
2.68471e-20
3.53317e-14
0.265906
-5.369e-38
4.2172e-43
1.03613e-05
0.00252416
1.12904e-112
-1.04834e-115
1.34283e-51
-6.32186e-37
3.5812e-15
-2.49023e-56
-1.8013e-48
1.02557e-59
2.85475e-54
3.73021e-149
-2.23862e-152
3.525e-121
2.32365e-141
3.78425e-135
-4.00696e-167
-3.85523e-184
1.18142e-143
-2.54529e-196
-1.89974e-132
3.05824e-91
-1.46069e-78
1.15257e-72
1.86325e-83
-1.44778e-64
-7.50173e-81
4.8177e-100
-9.37974e-102
4.96434e-127
-6.27666e-124
3.94852e-130
-5.53393e-138
-5.06241e-119
-2.94617e-146
-2.8042e-155
-1.32318e-160
-1.13536e-169
-4.67616e-110
-4.68234e-175
-2.20984e-181
2.20309e-104
1.23185e-186
-1.86699e-189
1.3043e-192
3.74215e-178
4.2142e-201
9.37137e-158
9.82443
-9.38708e-108
4.32444e-33
-2.59833e-94
1.34162e-163
-8.93904e-89
-8.00594e-09
118.827
-3.66162e-67
6.79914e-210
-1.52801e-86
-5.33628e-46
-1.64787e-198
4.37351e-172
-9.92037e-204
1.45183e-97
-1.58369e-10
-4.80029e-27
-5.8418e-121
-7.36157e-261
-5.81957e-76
0.00163027
3.08907e-73
-5.86231e-119
1.38055e-168
0.997414
0.000525459
-1.55174e-226
3.13447
-3.39247e-228
-4.19368e-99
-9.34701e-80
6.54589e-51
-2.15698e-104
-1.03899e-99
5.92912e-50
-3.39316e-63
1.23534e-22
2.55464e-222
7.09182e-74
29.5306
-1.05853e-128
9.99119e-28
4.08173e-222
0.00212378
4.12268e-82
7.64591e-29
-1.20684e-107
-1.06959e-120
-2.38255e-31
3.01189e-26
-2.23141e-80
-4.97663e-152
2.55573e-25
-4.65546e-120
3.46046
-1.79127e-258
-1.75489e-107
5.7515e-23
3.80257e-167
9.1849e-36
-3.41173e-119
-2.47759e-142
1.80054e-16
-2.92871e-75
5.70333e-206
-3.21997e-120
7.96145e-151
4.93586e-06
0.000193824
0.000120804
-1.02838e-223
3.2216e-36
1.76264e-150
1.43171e-37
1.12584e-217
2.35148e-17
-1.06377e-249
-7.07707e-75
4.42154e-37
-2.68215e-222
9.10373e-18
3.91514e-28
-3.06284e-260
0.000668009
-3.99857e-128
1.0897e-26
1.41134e-48
2.77909e-219
2.24848e-36
2.22115e-165
-1.18674e-233
117.913
2.16487e-23
4.33218e-06
-5.21481e-105
-2.02177e-168
8.12819e-34
-4.7665e-167
1.22538e-35
2.09121e-36
-1.23264e-246
-1.31149e-143
1.59397e-34
8.02911e-24
4.41647e-38
0.893284
7.09582e-204
-5.50995e-200
3.01385e-39
-1.59805e-60
-2.4425e-130
9.5656e-18
-1.30956e-124
-9.4441e-127
-3.87492e-31
1.09228e-18
-4.85717e-38
1.27444e-231
9.64438e-205
-5.11691e-120
2.9799e-51
5.77017e-16
-2.31892e-100
-1.69989e-83
1.323e-47
-1.3498e-99
-4.34428e-82
2.8809e-52
9.59568e-54
3.79417e-164
2.77352e-28
41.2637
3.71504e-61
-1.04327e-99
2.06425e-36
-5.46343e-119
7.63106e-27
4.22271e-48
-1.13935e-63
5.37194e-29
8.19998e-21
2.7215e-231
9.26358e-20
-2.39933e-62
9.38119e-31
-5.20048e-109
3.93009e-242
1.27683e-14
2.56466e-14
155.526
1.71719e-15
5.2986e-215
-4.65615e-100
-1.27911e-81
-1.83518e-99
-9.82253e-74
1.48439e-26
-1.62798e-110
1.05345e-36
3.42686
-9.35468e-121
1.1282e-241
-6.08515e-72
1.33975e-83
3.65141e-19
-3.56833e-97
-2.28013e-96
-2.2954e-248
4.59154e-18
-4.33343e-58
-6.1022e-84
-3.00161e-59
4.57721e-256
2.64745e-34
-1.29268e-82
9.26122e-05
-1.84092e-238
4.70762e-70
-7.5535e-91
4.37539e-10
6.02354e-32
0.00101228
-5.98185e-191
1.10501e-31
4.75571e-136
6.18796e-54
2.63885e-20
1.06812e-80
2.43233e-129
-1.79601e-96
1.34723
127.539
9.35604e-256
2.82087e-113
1.52708
184.261
-2.51391e-62
2.28612e-32
4.75252e-21
6.9696e-29
5.8672e-62
59.4507
3.39222
1.82451e-30
8.63996e-115
2.76674e-36
1.78982e-38
5.95343e-51
2.92465e-37
-3.87252e-98
3.41086e-111
1.30259e-241
9.40433e-113
8.63352
3.04779e-30
1.32697e-206
2.05414e-220
1.14547e-28
1.49231e-113
4.87077e-95
1.81521e-71
7.07541e-253
3.42117e-21
1.50693e-220
-1.11904e-221
1.83463e-168
1.4481e-36
-8.76969e-123
53.9054
6.66428e-224
1.70933e-221
8.10369e-73
-1.25357e-136
1.95775e-27
-1.53663e-84
-4.4366e-158
-4.66098e-226
7.90595
3.5269e-20
-4.89496e-227
-3.93306e-99
-6.4023e-86
-6.06797e-135
7.8309e-151
-1.36825e-152
-3.42851e-132
-1.56296e-116
-4.85923e-16
8.32188e-137
-1.87121e-136
2.02473e-79
5.4645e-34
1.56288
1.51695e-132
-2.81475e-53
3.89296e-06
-1.51763e-220
7.66863e-45
-2.32225e-204
3.18764e-60
-1.50879e-220
8.35121e-131
3.33229e-16
1.88039e-41
1.41279e-16
2.65982e-96
-4.33842e-91
6.51168e-54
7.0166e-50
-5.55631e-90
2.56416e-54
2.60244e-54
3.0449e-187
5.27807e-176
3.60909e-176
9.96715e-176
7.04998e-175
0.000392606
-1.45806e-252
2.09436e-25
1.44296e-37
1.34918e-53
3.70182e-35
8.96987e-41
3.18301e-73
1.83409e-62
5.71606e-41
1.9228e-63
-6.64439e-54
3.37927e-31
1.8644e-30
9.88417e-31
-1.96235e-73
1.10013e-14
-3.07644e-77
5.59902e-76
7.96119e-37
3.44334e-20
-5.37461e-123
8.29124e-174
9.8373e-61
1.96914e-175
-8.6713e-122
169.428
17.7838
3.5241e-121
1.162e-215
-2.04777e-225
4.51266e-236
1.13429e-41
-7.86465e-232
4.83827e-233
1.23958
1.28108e-36
0.000393664
1.37156e-123
4.76503e-31
3.66986e-115
-1.40124e-89
2.09377e-27
1.50798e-61
-1.68133e-39
5.65831e-63
1.74346e-123
2.9854e-205
3.50911e-37
4.75165e-31
4.23299e-122
7.04248e-12
1.03721e-27
7.56537e-51
1.01276e-42
7.15359e-36
-1.81536e-214
10.8313
7.1226e-14
3.72277e-122
1.41096e-10
4.76979e-77
-1.8459e-247
1.68445e-247
-2.13742e-237
0.000752454
4.28024e-21
-8.42537e-53
6.91975e-46
3.11918e-49
-2.81192e-78
-4.65776e-38
3.73464e-44
1.43506e-10
1.56104
-5.55817e-12
3.07376e-53
9.55904e-32
1.38591e-80
2.05216e-28
9.99773e-68
2.704e-59
4.33433e-144
-1.5835e-69
3.28909e-39
-1.21569e-230
174.38
5.15963e-94
0.740531
2.92707e-32
7.26343e-104
1.3343e-29
1.00553
5.69711e-39
6.96894e-61
3.34976e-51
4.04249e-31
1.37131e-27
-2.35993e-116
-7.5906e-242
4.47087e-24
-3.41642e-219
2.01995e-06
1.87421e-149
-9.23995e-56
3.88206e-35
1.79982e-98
0.0090361
1.32206e-24
-1.05439e-65
-5.59548e-116
3.35848e-05
1.74803e-192
1.81103e-127
4.95852e-15
2.34449e-214
-5.38787e-116
1.23789e-128
1.043e-07
17.3331
-2.30572e-77
1.48942e-173
-6.77424e-33
9.17375e-37
3.66998e-45
7.45985e-35
6.25454e-38
8.17748e-186
1.04262e-237
1.05684e-40
-2.73216e-224
3.19832e-36
1.32939e-45
6.00052e-29
-1.34879e-128
3.40262e-25
1.46315e-13
-3.90814e-143
-5.02501e-79
1.72459e-120
-2.90151e-29
8.76584e-15
3.79544e-217
2.72683e-39
9.87496e-40
4.4201e-83
5.27889e-38
1.16815e-148
2.46835e-21
1.47452e-64
2.09175e-34
2.43828e-29
3.3144e-184
-9.31394e-80
5.76539e-10
0.000706457
-8.88132e-226
4.0716e-58
3.25514e-10
4.73913e-45
0.768872
-1.91367e-237
1.03196e-150
8.95663e-191
5.26616e-35
-1.19239e-62
-4.36818e-72
4.07014e-147
1.3462e-41
2.65875e-57
3.00328e-62
-7.65468e-106
0.000267907
5.24287e-214
0.000621796
3.71771e-170
149.282
2.23851e-63
1.04821e-10
-7.7502e-190
4.99169e-129
7.90185e-33
-1.03691e-121
-1.95688e-159
3.23474e-99
-1.36076e-60
-2.28408e-61
3.46049e-12
6.8646e-24
5.25547e-24
-7.39286e-261
-1.50468e-121
1.66141e-43
0.000922461
-1.61485e-260
-5.09689e-210
5.95843e-39
1.26908e-188
9.83362e-17
1.20038
97.8349
-5.06546e-259
4.13637e-81
2.18193e-19
-1.03387e-69
-1.39566e-130
95.2814
-1.36639e-212
6.54811e-24
5.48117e-34
-5.20909e-82
-2.97483e-133
-1.43169e-156
5.05169e-100
3.96472e-38
5.40697e-64
-1.74933e-76
-7.26578e-258
8.15128e-204
-1.42974e-64
-2.43051e-124
6.05974e-28
2.51784e-35
9.18397e-167
-2.99845e-208
1.40502e-30
168.112
3.91935e-137
6.51678e-11
-6.97023e-227
-6.5891e-76
4.39463e-24
3.41217e-45
4.0619e-21
1.28359e-28
-5.17136e-62
5.53914e-34
-6.14176e-244
7.23018e-196
1.51168e-48
-4.15116e-72
-1.1412e-62
-5.96534e-74
2.90755e-234
1.45508e-206
-2.359e-141
5.76315e-50
1.22809e-29
-1.86088e-33
2.50864e-93
-1.17207e-31
1.81637e-37
1.89476e-59
-1.1601e-30
-1.33793e-55
0.911793
6.0069e-36
5.04755e-54
3.66335e-29
-1.90794e-197
1.73552e-23
2.17109e-32
1.99819e-261
1.12785e-214
1.19277e-187
1.08514e-191
4.31104e-07
4.22694e-59
9.47764e-90
-1.17652e-32
2.76499e-98
3.57306e-16
7.89489e-46
1.3378e-37
-2.66642e-140
5.66422e-11
5.45259e-235
-4.62796e-49
-4.98253e-117
3.76697e-19
-5.97588e-30
2.3618e-67
1.01852e-58
8.28064
1.81499e-38
8.32329e-14
-1.3863e-68
1.23406e-11
0.556693
-3.10786e-178
-6.11262e-124
8.59277e-236
1.81642e-08
1.7663e-124
8.22827e-64
0.00747011
-7.085e-211
-1.97873e-61
3.57671e-32
2.57388e-64
-3.18738e-134
-1.67886e-68
5.78582e-171
-5.41301e-67
-7.96448e-172
-3.99894e-171
-4.41033e-71
8.87272e-36
2.91348e-38
7.98022e-63
1.26089e-08
4.11655e-46
17.6467
9.16229e-38
6.90809e-72
-6.40648e-69
1.77298e-39
2.73288e-52
3.44391e-52
0.62445
-1.06279e-35
6.63607e-55
4.87313e-53
-4.70392e-115
-1.11921e-125
4.19843e-31
-3.30484e-240
14.6513
-6.93304e-171
-1.05259e-34
1.94889e-22
2.99174e-07
1.68245e-19
1.84085e-30
1.99109e-33
-4.70017e-69
1.1448e-19
4.52973e-42
1.05601e-13
9.94068e-53
9.1193e-14
4.26976e-54
-4.07207e-253
2.34438e-53
175.128
2.84945e-13
-2.02345e-95
2.23286e-245
-3.50252e-165
4.70165e-87
-6.03665e-56
4.4752e-39
5.98134e-60
6.35083e-187
2.02955e-94
7.45754e-52
2.39682e-97
-4.72592e-106
5.90357e-13
4.80607e-105
6.85928e-44
3.95517e-27
-1.12556e-95
2.33157e-87
3.45075e-28
-1.47918e-262
-2.53375e-90
50.1063
-2.49499e-194
1.05874e-16
4.43771e-23
-1.53943e-88
6.61777e-33
3.71419e-27
-1.96226e-54
5.50053e-27
-4.09351e-124
-6.06631e-33
-5.34944e-131
2.33444e-55
2.64872e-29
-1.14963e-31
-1.24795e-123
2.34203e-33
1.3759e-06
6.18571e-46
-2.86953e-70
-2.16069e-117
7.13862e-23
6.28981e-07
-9.21189e-118
-3.69867e-216
4.68072e-54
-6.50688e-229
0.658207
2.46849e-53
1.76451e-12
1.75207e-67
2.76994e-61
12.7467
1.25197e-65
0.00150711
2.30736e-40
93.1507
4.90847e-43
-1.90013e-75
3.08239e-67
1.52884e-84
0.00386657
0.000357701
2.03271e-174
1.14872e-171
-1.74099e-29
5.82232e-162
0.00336911
8.66988e-29
3.11206e-10
-3.45779e-117
132.08
0.0882634
1.75652e-52
-1.42874e-252
-2.83195e-128
-5.57296e-38
3.16675e-85
2.38791e-92
-1.25982e-82
6.57127e-39
2.83021e-43
40.7692
1.23677e-07
1.46392e-188
2.15571e-37
2.67029e-25
-3.21399e-28
-6.04901e-73
6.79865e-23
3.03782e-33
-6.53695e-37
2.74335e-133
9.87435e-250
2.11347e-21
2.47375e-18
6.92427e-62
-1.72834e-30
2.69488e-13
2.95557e-73
-5.407e-56
-3.41734e-115
-9.80311e-80
4.26727e-15
-2.94397e-77
2.91754e-26
2.4119e-40
4.79472e-49
1.07549e-97
-3.73718e-77
4.35462e-07
1.44817e-69
-2.61101e-73
40.2108
4.50295e-49
7.98826e-75
0.00931412
-1.92263e-256
4.39621e-68
1.38737e-60
-4.66766e-86
7.11981e-145
3.51393e-57
2.12893e-263
9.33704e-10
3.74151e-123
5.10698e-61
9.71577e-22
1.05748e-32
3.49451e-63
4.97477e-66
1.70911e-22
91.9
-4.69083e-196
2.07325e-102
7.45153e-74
0.00726216
1.94581e-18
-2.90641e-125
3.09661
-7.18764e-250
-3.27329e-126
185.456
-6.07153e-95
-1.88418e-122
-2.87658e-119
1.31152e-41
-2.49152e-40
-2.97461e-192
-2.98588e-88
5.14711e-25
3.85711e-61
-6.17964e-65
8.40453e-85
-5.49073e-177
-3.5988e-39
1.90327e-06
-1.60409e-67
-1.33861e-31
3.60768e-41
1.19115e-53
1.32582e-10
3.17639e-26
-3.11313e-83
-2.34743e-124
0.000445279
1.55644e-35
6.70009e-47
-2.70542e-114
3.85736e-190
-5.20007e-37
4.00194e-11
9.46795e-72
2.09271e-29
2.99513e-70
-3.08934e-81
-1.05926e-104
9.43917e-40
148.021
18.1732
1.50002e-38
-1.20596e-65
-1.80701e-105
7.05206e-41
0.012607
-4.50732e-34
-1.0655e-126
8.65191e-12
6.08878e-08
9.31773
2.26769e-89
90.1614
-5.41289e-192
-6.92664e-80
-3.30284e-188
4.35914e-11
1.06107e-45
83.3877
-5.58258e-131
0.0186232
9.54288e-161
-5.51149e-66
2.18586e-30
-1.80269e-87
2.01982e-12
0.11923
-4.47905e-93
1.30594e-96
3.1883e-68
-1.67935e-90
-1.43165e-94
7.11239e-14
3.74219e-48
1.95669e-65
1.24583e-15
-1.02107e-94
4.662e-185
-5.74765e-69
9.68209e-164
3.94093e-27
4.47899e-68
2.79961e-09
4.12645e-11
-1.02975e-42
5.15779e-34
2.76991e-38
5.59475e-70
0.0135285
4.46809e-74
-4.76439e-99
5.95393e-234
1.66527e-11
-2.5585e-35
-2.34855e-132
1.55958e-26
-5.57416e-84
2.61003e-34
-1.09136e-37
-6.17281e-33
1.64219e-39
86.9703
7.79767e-38
-1.51726e-41
0.125352
1.4761e-87
1.95658e-07
4.7317e-25
1.17708e-164
1.48094e-72
-9.05151e-105
-1.63001e-71
-1.69738e-245
-7.03193e-119
2.187e-07
1.97381e-11
-6.436e-120
203.491
2.57238e-29
-1.42817e-167
5.96239e-12
8.29891e-13
-8.22447e-170
8.82186e-11
1.05987e-22
2.32884e-11
2.08979e-169
2.43687e-128
-1.17356e-102
-2.80312e-170
-1.01533e-36
29.5085
-3.70663e-133
4.54574e-12
-4.66039e-258
2.58415
2.53303e-27
1.25321e-36
-3.83606e-214
-8.23291e-135
-1.70617e-78
3.8781e-41
2.45322e-15
7.36749e-35
-1.30945e-95
-1.32847e-90
-1.68548e-169
1.03094e-28
1.59093e-38
-3.21843e-104
2.38003e-214
1.78149e-56
3.13643e-35
1.77772e-44
-1.26636e-140
6.28674e-07
2.2206e-29
8.5365e-161
2.45319e-46
8.46085e-92
-9.68916e-75
194.997
-3.30434e-96
-1.22134e-165
1.18049e-39
-1.9367e-36
-3.68139e-45
2.75071
-1.41615e-63
1.24135e-76
1.20293e-33
-2.30842e-86
-3.16588e-85
4.31632e-75
5.45585e-86
-4.07156e-29
-1.42738e-75
15.8899
-6.17114e-44
5.15954e-10
-7.7532e-83
0.00544262
1.47114e-31
1.01777e-09
5.61759e-14
9.50049e-35
1.82441e-75
2.60918e-81
3.17604e-59
2.8608e-258
-1.62877e-77
3.73342e-36
2.00282e-13
-7.32328e-87
4.83827e-162
3.3343e-37
4.8965e-36
2.57867e-17
1.0403e-39
6.78264e-12
3.08595e-17
-3.73339e-113
1.1593e-50
0.730021
2.3925e-37
2.37862e-248
5.43902e-90
-1.01841e-88
1.44938e-251
6.42522e-52
-9.83868e-194
-4.88794e-76
4.91087e-15
7.6535e-34
2.4139e-06
-6.68718e-190
8.26092e-134
-1.35434e-227
-7.37595e-88
-5.27678e-105
1.10468e-09
-9.98057e-105
3.51865e-134
4.66163e-07
1.34272e-36
2.67097e-49
3.27117e-53
1.85486e-17
1.0951e-95
3.57432e-12
3.68262e-82
-1.35101e-186
0.00197955
2.73491e-43
1.63092e-20
-4.58748e-100
53.9435
-4.28482e-40
1.40639e-45
1.29093e-35
1.5296e-30
37.9417
1.31846e-79
2.57677e-12
2.82447e-49
1.83555e-47
-5.01684e-142
5.49441e-67
1.38597e-07
8.46803e-79
4.53761e-09
-1.62294e-93
-1.30388e-97
7.51528e-13
2.49659e-152
-3.13867e-123
4.91682e-78
5.2756e-42
3.27822e-11
-1.18823e-94
2.89551e-89
-3.27491e-230
1.11386e-47
0.00228587
8.05728e-43
-6.35285e-89
-1.46395e-63
6.59564e-97
-5.16663e-130
13.5837
-1.241e-47
3.01688e-218
2.12205e-49
2.7891e-98
-7.79924e-39
-9.42919e-28
1.59484e-46
3.4477e-87
8.48588e-15
2.74503e-11
-5.40918e-219
5.0008e-62
1.05296e-11
-4.83434e-133
1.99872e-195
8.19817e-66
1.80865e-51
7.79035e-81
9.01836e-194
5.33717e-52
1.82975e-12
-1.72881e-169
1.94989e-23
-9.89111e-195
-6.51867e-104
7.71403e-56
4.79218e-05
-4.86379e-237
2.0248
-2.13403e-46
7.06378e-22
40.3415
-1.52279e-42
2.15164e-58
0.0352834
-1.56051e-87
1.57552e-05
4.20477e-19
-2.20161e-65
-8.30765e-79
-2.51704e-80
-1.02011e-98
-1.44217e-103
2.27012e-22
0.0276781
195.323
4.79721e-26
-3.69405e-29
0.0156116
2.29516e-28
12.8559
2.80507e-146
-5.46691e-97
6.12641e-19
9.1621e-44
-2.44821e-119
5.27287e-26
-3.35801e-82
33.9004
-1.08294e-247
9.93248e-132
1.87713e-140
205.684
-1.08678e-36
1.13408e-44
-9.39163e-78
3.5308e-19
-1.32579e-83
-1.3382e-136
3.10932e-07
-9.8483e-81
2.94853e-07
2.09584e-22
1.68455e-69
1.8706e-14
1.1908e-43
-4.18156e-97
-1.72969e-131
-2.15136e-128
0.215972
1.79254e-13
-6.50341e-108
5.72436e-18
1.1518e-49
3.69652e-25
1.48465e-235
1.0566e-47
1.87044e-07
1.62025e-10
-2.81097e-41
-1.25308e-67
3.3169e-132
2.86955e-16
2.89178e-84
9.13199e-136
3.28121e-10
4.8693e-17
-3.79178e-109
6.26655e-31
6.58829e-44
-3.51106e-230
-8.46888e-121
-4.56571e-196
-2.69874e-40
87.5143
1.74581e-11
8.9547e-20
-7.54744e-114
3.95073e-83
1.79339e-42
-9.14852e-222
3.11239e-09
1.95176e-44
87.8745
-6.93211e-28
1.81542e-73
-8.86732e-111
1.96803e-145
5.66638e-80
-2.01449e-85
-7.1676e-118
13.6622
1.89245e-15
2.01971e-36
3.51997e-17
-8.83578e-43
-7.40057e-132
-9.88959e-258
-1.07954e-117
2.43417e-26
0.903197
-5.69035e-22
1.27618e-45
-7.03939e-49
4.94987e-75
5.39246e-16
0.0355177
0.025551
1.83608e-85
-1.23456e-69
4.81852e-29
4.36818e-99
1.92402e-189
-1.00287e-118
4.05718e-14
-3.19938e-106
1.97294e-60
-3.51864e-93
6.30247e-41
2.86818e-08
8.57924e-99
-2.26434e-118
1.83115e-10
2.90161e-15
8.81558e-94
4.51626e-140
-3.74777e-50
0.000332854
6.51962e-26
8.11661e-23
-1.0337e-52
2.65892e-59
0.0571686
1.91549e-81
-4.88894e-22
-8.82998e-130
1.37224e-12
8.41036e-12
-5.91426e-173
9.09311e-142
91.2485
1.97798e-120
4.50983e-74
5.38536e-28
5.79909e-110
-8.46996e-108
-2.65006e-94
6.10035e-122
-2.08093e-227
1.59593e-18
1.54811e-05
4.20854e-144
0.0185877
-1.27804e-84
-5.53915e-123
1.09656e-12
3.96199e-09
7.17641e-27
-5.5992e-86
-2.25226e-118
-4.86034e-45
150.092
-8.00047e-106
9.81423e-145
4.90459e-152
-3.65337e-106
6.08846e-60
4.45769e-29
-7.26029e-109
3.25798e-78
-2.67596e-126
6.9669
6.78987e-09
9.98882e-42
-4.86661e-39
-4.11208e-83
-6.48109e-123
3.25945e-16
1.31595
-1.93961e-73
3.53881e-150
-1.66099e-124
1.03234e-13
-1.43772e-109
-5.40568e-132
1.29559e-08
-9.58641e-87
1.29568e-119
113.27
2.64005e-06
9.08074
6.9038e-16
-8.41471e-109
8.02124e-13
1.77061e-10
0.163904
6.51256e-96
4.27721e-29
2.23971e-225
0.110445
-1.96797e-252
-7.07286e-98
1.9727e-83
1.20176e-150
1.51752e-41
1.04728e-92
-3.58922e-107
1.94447e-97
7.262
3.11957e-14
2.39465e-38
-2.82827e-117
1.52686e-29
17.5125
6.61313e-09
2.24394e-43
-1.98689e-51
-1.27486e-98
2.20221e-85
4.76025e-146
-2.31058e-111
1.82027e-142
-6.99814e-120
-9.51199e-44
5.80494e-15
9.80357e-17
0.309853
0.000106093
1.16541e-08
1.85052e-24
0.115144
-6.98467e-134
3.78129e-05
-6.43358e-125
0.00161379
3.06294e-09
7.64916e-36
-8.16434e-108
2.50409e-35
3.27703e-23
2.99481e-65
81.1943
1.37748e-12
0.36101
-1.95029e-121
8.81642e-10
2.95488e-07
5.45133e-10
1.48972e-07
7.12434e-11
-7.67228e-119
-7.68523e-97
3.57397e-41
-2.05543e-112
5.92744e-29
-2.17103e-101
1.69818e-38
3.65746e-174
-9.48573e-92
2.3846e-21
5.95372e-32
3.71705e-137
-1.39577e-47
0.940629
90.0328
-1.82252e-151
8.71885e-50
8.46597e-77
1.02938e-10
6.60734e-30
4.89036
4.09526e-05
3.57035e-98
6.92735e-40
2.30903e-07
-3.65814e-24
5.65838e-06
1.68092e-54
7.52505e-12
7.84318e-139
0.191077
8.98453e-09
1.86553e-138
1.23784e-07
0.146537
7.25419e-46
4.18768
-3.78459e-87
7.15885e-09
3.1011e-79
-2.75151e-157
1.84748e-74
-3.42375e-82
0.0828651
0.000158005
0.0393569
-1.98942e-138
7.12548
1.49547e-36
5.82403e-13
-9.25192e-32
8.63815e-42
1.04225e-50
0.0194142
-1.33953e-85
9.93363e-97
2.23794e-20
3.56922e-09
1.51317e-28
2.35389e-18
-5.60758e-58
0.0483566
8.88677e-30
3.70837e-29
2.05693e-09
1.75208e-172
8.14153e-08
3.31522e-11
4.51665e-08
-5.15374e-77
0.000914481
1.25101e-144
9.65437e-30
6.19907e-43
5.87919e-06
2.34291e-72
2.39388e-21
1.4249e-08
76.8658
1.98908e-106
9.03067e-37
-8.70276e-48
2.46411e-09
5.66323e-19
-7.13557e-97
2.92411e-38
4.6814e-147
13.8277
3.96173e-232
1.98939e-146
-1.85705e-194
8.35685e-07
9.41742e-118
1.08221e-37
5.22539
7.71451e-53
1.09037e-58
-3.22266e-112
7.12613e-184
9.71516e-10
2.16166e-149
-1.68746e-41
3.0336e-12
-2.78446e-46
2.80955e-06
8.81593e-93
4.49978e-37
1.28552e-07
1.1298e-18
-8.26214e-71
87.0265
1.12068e-236
9.08591e-179
-1.91741e-89
223.765
1.29069e-79
1.40785e-72
7.89143e-08
-5.98565e-108
3.82389e-91
9.43732e-14
8.46968e-06
1.78671e-31
0.00880642
-5.12806e-108
-3.35044e-88
4.50177e-42
2.96128e-47
5.25841e-06
-1.64249e-126
1.2441e-68
-2.57775e-55
-1.70164e-17
3.43258e-61
1.00932e-138
8.16475e-40
-6.21911e-19
1.14601e-203
1.67585e-200
4.14778e-05
4.65793e-31
7.91098e-05
-2.44888e-90
-1.6064e-247
-9.40613e-18
1.03619e-06
-2.18312e-131
-2.69297e-104
2.29215e-146
15.4605
1.44886e-203
1.23323e-32
6.99408e-05
4.34478e-196
3.09797e-182
6.44129e-19
1.05578e-159
3.40388e-200
1.50758e-40
2.67856e-13
2.64084e-141
8.8539e-22
-1.3765e-153
8.86596e-08
-2.2796e-249
1.18631e-07
4.54404e-13
1.15349e-20
6.44047e-196
3.79345e-15
5.17673
2.89032e-99
2.08256e-48
1.23307e-160
1.29437e-13
3.31977e-153
7.94849e-07
2.22594e-09
-1.53383e-84
1.4851e-190
1.28358e-13
4.84678e-14
1.27902e-46
1.27665e-44
1.87862e-16
3.46078e-158
1.11068e-15
3.09458e-192
1.29973e-05
1.02681e-08
8.17312e-09
4.95775e-20
-3.67466e-23
11.3896
4.42434e-21
2.90162e-43
1.20766e-14
-4.5016e-101
3.16135e-12
2.39199e-16
-5.70582e-44
4.87886e-79
0.0952155
-1.66781e-209
0.0451877
105.925
-1.19555e-113
2.01903e-08
78.8526
6.42355e-35
7.34856e-41
1.92289e-16
-5.3476e-54
6.90608e-145
6.02335e-08
0.0128187
0.752755
-1.71712e-100
1.64679e-15
0.000398519
2.906e-14
-5.39727e-120
8.72281e-176
5.45968e-32
0.0215962
6.71725e-09
2.20306e-16
-6.86892e-239
-4.27442e-155
1.45987e-14
-2.81778e-107
4.57987e-43
-7.50802e-103
2.0429e-187
2.21859e-07
2.66783e-86
0.000167161
8.12686e-46
2.89146e-167
1.30369e-175
3.78825e-15
-7.31628e-102
3.48762e-34
3.96723e-16
0.736407
-3.60502e-50
-6.67287e-140
2.26207e-06
7.24497e-95
1.62696e-148
2.6926e-67
6.91402e-14
-1.02393e-98
5.92734e-14
4.53949e-45
217.487
8.56271e-15
-1.28623e-130
8.56054e-05
-2.88897e-193
4.43577e-09
5.00698e-37
6.65105e-06
0.0046139
-2.89237e-45
0.000145308
1.35097e-165
8.74661e-09
-9.89268e-122
5.51138e-51
3.06119e-05
1.28269e-27
1.16727e-05
0.0163919
-7.61815e-20
1.03905e-07
2.31625e-06
-7.15644e-137
7.6821e-151
-9.53801e-192
0.000183897
-2.45663e-24
-5.27264e-135
1.55948e-07
1.53157e-05
1.66433e-37
3.29209e-13
1.30532e-53
-3.22092e-34
0.0024616
-1.4423e-71
2.8148e-29
1.96279e-33
-3.4057e-225
-1.00793e-223
-5.98878e-136
-2.03566e-100
1.863e-45
9.18296e-169
-2.53955e-85
-3.17284e-105
5.28189e-66
2.03349e-18
-2.12356e-118
1.21844e-06
-5.09621e-251
1.48417e-11
3.62647e-06
-1.18104e-129
5.18222e-05
1.39612e-12
5.57921e-06
3.73831e-60
9.63167e-17
-1.11276e-109
1.68334e-37
7.43547e-48
2.95214e-177
-4.1746e-122
-1.07275e-91
-4.53006e-128
1.8242e-197
4.83319e-55
3.69644e-199
-7.25892e-31
3.35338e-23
0.0635292
1.65217e-170
1.11463e-62
4.1628e-167
-2.39142e-106
1.00635e-21
2.0222e-64
-2.84463e-132
121.905
1.92368e-14
3.98642e-31
7.99483e-60
3.29241e-15
1.06086e-23
1.35703e-64
4.034e-18
1.53284e-13
2.66956e-105
6.17988e-194
-2.56525e-82
1.38371e-07
-5.25167e-151
-2.40898e-136
7.77424e-14
-5.87274e-113
-1.20142e-107
4.84359e-75
8.73005e-140
0.00104242
7.89513e-169
-5.80078e-138
1.55074e-20
1.99779e-18
5.7645
2.56531e-13
-2.99781e-58
-3.39999e-131
5.0084e-17
-8.48375e-133
7.25928e-27
3.21845e-49
-9.2299e-106
5.25543e-06
-8.61815e-199
7.55807e-22
1.31358e-53
5.82099e-15
-4.04751e-43
5.69095e-203
-1.77007e-106
2.68052e-249
5.66314e-25
-2.74206e-153
4.53649e-19
2.25358e-43
-2.70498e-90
-1.24455e-56
9.59156e-39
1.23913e-195
2.2408e-21
6.89767e-22
-2.59306e-101
3.52272e-20
1.03363e-07
1.45357e-185
6.75796e-39
1.71185e-11
2.43767e-13
2.04342e-75
1.08554e-41
2.26775e-40
8.68191e-46
1.30469e-72
5.16573e-15
-6.38173e-73
4.41838e-130
2.79965e-131
0.0422002
1.73142e-08
6.83751e-05
1.55878e-06
-2.39072e-35
1.31285e-20
1.62618e-43
4.02599e-19
2.16949e-130
3.03791
-1.93718e-106
2.80556e-06
2.66697e-08
-2.37267e-134
-1.56801e-25
7.72488e-09
5.38041e-06
1.18426e-41
1.26969e-26
5.58211e-132
-1.91683e-217
4.70626e-15
6.39256e-194
1.63986e-172
2.46846e-17
-4.11308e-108
-2.45846e-66
-4.65092e-138
-1.87596e-88
4.69542e-15
10.9408
6.41426e-103
-1.14112e-110
1.35518e-08
-3.68943e-38
4.34183e-11
7.8064e-25
5.07251e-26
-3.74101e-109
6.04793e-38
8.51828e-17
4.6394e-17
-2.17344e-30
1.91298e-156
6.05519e-07
5.16121e-31
1.75303e-19
-6.02794e-84
-1.00257e-136
9.93438e-17
9.16528e-101
-2.02241e-188
6.56992e-23
1.75724e-08
-3.14612e-171
1.77299e-21
1.53816e-46
-4.50041e-117
-1.93875e-75
-2.8093e-116
6.30135e-23
-8.09011e-130
-1.49445e-138
3.44462e-44
2.3224e-23
-3.23023e-40
-2.08261e-30
9.69228
7.16909e-108
3.48211e-61
0.342693
3.13233e-33
-1.02972e-117
3.38836e-32
0.00221333
4.06213e-177
-1.19912e-110
6.95346e-189
4.30117e-26
1.0917e-14
2.30278e-47
6.88418e-201
-3.34929e-79
9.68074e-66
1.85509e-91
1.73517e-09
-8.34314e-104
-7.4019e-201
9.67528e-196
2.65994e-28
2.36808e-42
1.62041e-05
-1.45525e-82
-7.5109e-49
8.68305e-31
3.02498e-15
1.79328e-149
3.01986e-24
1.93897e-180
2.23805e-172
-1.14015e-200
5.6717e-10
3.57332e-111
2.34879e-24
4.40094e-23
8.59432e-27
2.26168e-16
9.36038e-28
1.27711e-13
5.90386e-26
1.58832e-102
4.9462e-29
-3.21941e-48
5.02582e-35
1.78914e-21
-1.87636e-109
40.6092
4.4984e-17
2.91184e-19
-2.06428e-171
1.42377
8.32279e-16
1.37615e-17
-1.26344e-31
2.40529e-07
3.09773e-64
-2.34586e-105
-5.06216e-90
4.82173e-93
1.31713e-87
2.63407e-18
6.05641e-22
7.21782e-117
1.87438e-25
5.43144e-93
1.04193e-87
1.05553e-52
-1.80877e-46
-1.1539e-71
2.6629e-56
-3.47352e-45
2.34881e-25
4.16153e-26
1.43757e-48
-3.85936e-188
-3.84976e-90
-2.0558e-101
5.66743e-11
1.60317e-151
5.96534e-114
9.60686e-26
1.47074
-3.83453e-129
2.5945e-05
1.67657e-134
2.64182e-101
5.23135e-42
1.88574e-29
2.05338e-34
9.76001e-148
1.68179e-19
4.68531e-22
1.42232e-11
1.07395e-170
3.06838e-25
4.57324e-42
1.69595e-55
-3.93819e-199
-1.78707e-238
4.58013e-28
4.34649e-42
2.53702e-61
52.424
1.92062e-23
9.21525e-33
-4.30283e-25
5.43334e-45
3.01589e-11
5.35209e-107
4.3396e-48
-1.24419e-76
-8.11316e-89
0.00802755
8.32674e-24
5.29897e-22
3.1325e-36
-2.70621e-143
1.99212e-18
8.56274e-18
4.53821e-05
-9.48534e-88
7.00557e-33
0.000163271
7.38534e-05
5.90699e-136
4.95891e-05
5.70353e-52
22.5937
9.94489e-186
5.83371e-25
7.42165e-37
6.07443e-208
2.67085e-15
1.91585e-66
-4.9838e-80
1.02664e-09
0.00105813
1.20889e-05
2.98962e-78
4.31192e-27
-9.17835e-186
-5.53605e-102
4.03946e-06
5.23571e-31
3.1588e-79
7.21824e-19
-2.53332e-25
3.3732e-28
1.65761e-40
5.55167e-38
4.14719e-23
0.00259763
7.72918e-142
6.59147e-40
5.07828e-48
3.78104e-28
2.01868e-07
8.3869e-24
4.85006e-33
1.61937e-67
4.63655e-189
9.28518e-27
1.23048e-31
9.22669e-22
-5.75101e-147
7.34748e-58
2.61775e-25
5.68076e-25
-2.4508e-24
1.36367e-20
9.64723e-74
5.17268e-30
1.4246e-112
3.21752e-14
7.09093e-54
5.10444e-26
1.13377e-63
6.49679e-77
9.11582e-24
1.07622e-58
1.27302e-67
1.80608e-83
2.91931e-143
1.0229e-30
6.15176e-52
2.64221e-55
14.4912
0.00964043
-2.2659e-113
9.17093e-81
6.60566e-39
2.1612e-41
3.3805e-201
2.07652e-30
-1.47314e-36
1.1506e-30
-6.88559e-187
9.79408e-14
2.04547e-19
5.26156e-16
2.56397e-30
1.66744e-172
-1.21683e-95
9.11481e-63
1.07428e-29
5.5666e-09
15.3851
-1.51505e-138
4.88606e-68
-1.08916e-72
3.54284e-07
0.000450308
2.07493e-05
1.78927e-52
2.07508e-22
-3.76366e-185
4.73971e-39
-6.62345e-53
-6.06404e-137
2.44116e-23
4.70084e-41
1.85621e-35
3.46383e-21
-1.00382e-72
6.74646e-42
2.72052e-32
7.09534e-173
-4.81186e-260
1.29839e-43
-1.41832e-66
2.01483e-08
7.66282e-49
-4.20802e-23
1.49402e-13
-1.79311e-41
-2.71767e-138
-1.35067e-59
4.54853e-20
1.83011e-142
0.197296
0.040305
-2.25956e-115
1.5325e-180
1.11375e-105
9.21122e-142
2.45915e-211
6.35502e-62
3.22813e-67
-7.31419e-33
1.17094e-40
2.785e-31
-5.0804e-49
1.50202e-05
2.30192e-20
1.89416e-32
2.49063e-41
6.21053e-52
1.44892e-35
7.29409e-173
-6.54581e-75
8.99796e-69
-4.15485e-32
-3.01731e-26
1.37488e-09
4.20315e-213
-3.64561e-27
4.40937e-38
6.66255e-50
5.79867e-23
-1.16335e-40
5.59616e-25
0.00310622
1.2655e-38
1.6776e-18
8.3025e-51
2.68467e-89
5.00699e-41
5.1224e-35
-3.06442e-144
7.4538e-43
0.022853
-8.65253e-79
0.000187621
1.76711e-136
1.26076e-34
-2.26687e-92
5.50935e-75
1.57797e-30
-5.37867e-21
2.74134e-22
-3.60645e-72
4.63903e-45
2.96732e-50
3.56799e-18
1.56238e-13
-1.86363e-46
3.87974e-09
6.70109e-209
1.33564e-40
7.17766
1.11182e-14
-8.83316e-73
0.344556
5.17727e-20
1.97971e-69
2.31541e-160
8.12642e-11
2.58195e-35
1.30805e-51
8.74091e-37
1.16552e-153
4.61602e-22
-1.10157e-80
1.865e-14
7.86811e-37
1.91148e-32
-2.17655e-30
-8.85785e-255
-1.73423e-104
7.63618e-50
-6.38159e-88
-1.07846e-90
3.72649e-57
1.58076e-76
3.64349e-64
-2.99825e-25
2.98342e-28
-1.27603e-197
3.26028e-16
-7.0808e-103
5.17055e-172
-6.44127e-28
-6.96759e-131
1.87263e-50
1.31819e-51
-4.90031e-146
-1.36589e-141
-9.51332e-86
1.29525e-25
1.18525e-62
7.19502e-33
1.09196e-36
-6.53782e-27
4.92942e-26
2.42244e-52
5.54704e-44
4.14047e-39
-3.43686e-226
2.30549e-58
-2.11286e-78
4.17041e-53
0.187202
5.92839e-28
-6.49458e-72
9.0021e-43
-5.00772e-65
2.76871e-68
-4.54318e-74
6.00789e-64
1.44922e-69
-5.93213e-33
1.00909e-38
1.33279e-173
9.08377e-27
-2.34793e-50
7.12812e-25
3.16928e-160
-1.77622e-28
3.67181e-05
-8.28185e-99
-1.21098e-40
4.98461e-19
7.1522e-120
6.08511e-27
6.36531e-14
8.0548e-38
-3.3503e-38
3.91118e-15
2.15552e-43
-1.75473e-51
1.9849e-41
1.3386e-25
1.92685e-127
1.07602e-74
-1.5662e-217
-2.60446e-102
6.34811e-161
1.21367e-42
1.31011e-39
5.72664e-27
9.56544e-44
13.2217
-8.67572e-21
29.4882
2.56572e-37
3.6098e-10
9.1459
2.12753e-16
21.9981
1.50348e-72
1.17893e-43
1.59629e-49
9.52859e-55
1.70055e-46
4.909e-104
2.25399e-48
1.15833e-93
7.11605e-162
-8.1323e-53
3.37045
8.75795e-45
8.34542e-24
2.75772e-47
1.10203e-88
3.28916e-39
1.33815e-39
-4.60458e-110
2.1536e-45
2.32128e-83
8.45379e-25
1.89267e-40
3.53045e-42
-3.91547e-43
0.20159
1.18845e-08
8.83625e-23
3.0197e-52
68.442
2.34896e-46
-9.01474e-56
3.53728e-29
-1.10352e-29
-3.19144e-60
2.21872e-17
3.64337e-140
-9.24917e-38
-5.25467e-28
8.27159e-44
-1.99616e-45
2.19198e-76
1.1078e-41
-1.68776e-34
8.53992e-71
8.998e-29
1.58151e-49
1.69895e-63
4.56273e-138
1.59789e-55
2.61537e-40
3.06196e-82
3.52502e-51
2.31729e-63
-1.94877e-104
-4.10986e-34
-3.34175e-82
3.68277e-16
3.4688e-47
-2.07397e-65
5.7841e-147
-3.7726e-101
3.1487e-16
2.0149e-41
-6.2188e-204
3.17665e-46
6.98248
1.54323e-24
5.6473e-78
1.61698e-51
0.0778536
0.65285
34.8511
1.13728e-89
1.95747e-91
-1.6628e-107
1.2647e-62
2.84938e-30
0.00107872
0.013793
3.16684e-13
3.22013e-21
2.22452e-77
4.80828e-157
7.40889e-154
-7.57451e-28
-7.26273e-77
7.18728e-26
-2.86729e-92
2.22567e-06
-6.07999e-89
1.41133e-44
2.50465e-12
-1.09618e-42
1.03974e-21
2.00637e-113
1.26794e-43
3.5603e-171
1.20791e-18
1.11377e-21
1.22874e-69
1.51778e-162
2.26156e-69
-1.03955e-25
3.04693e-106
-1.17992e-45
0.0727769
8.59972e-181
2.52632e-68
-5.79953e-39
-1.94035e-39
1.03877e-48
3.16992e-119
-4.68768e-106
6.59568e-105
-8.06735e-206
8.92628e-155
1.05558e-64
4.17938e-29
2.55559e-171
3.69889e-75
2.09242e-115
148.723
-9.91369e-29
1.91282e-103
5.66391e-215
7.12238e-25
7.67755e-46
1.45017e-21
-1.39402e-47
6.24585e-46
-3.31199e-165
-4.2813e-103
1.97415e-17
-1.41383e-226
5.72985e-47
4.66969e-29
2.23499e-52
9.6817e-149
4.51647e-41
-2.50643e-200
1.16908e-61
5.98464e-65
1.20555e-104
1.22827e-08
4.15756e-56
1.33771e-67
6.02168e-65
-2.05479e-39
-8.47687e-51
-4.92959e-176
3.15404e-211
-2.47809e-83
2.441e-29