/*--------------------------------*- C++ -*----------------------------------*\
  =========                 |
  \\      /  F ield         | OpenFOAM: The Open Source CFD Toolbox
   \\    /   O peration     | Website:  https://openfoam.org
    \\  /    A nd           | Version:  7
     \\/     M anipulation  |
\*---------------------------------------------------------------------------*/
FoamFile
{
    version     2.0;
    format      ascii;
    class       volScalarField;
    location    "0.175";
    object      T;
}
// * * * * * * * * * * * * * * * * * * * * * * * * * * * * * * * * * * * * * //

dimensions      [0 2 -2 0 0 0 0];

internalField   nonuniform List<scalar> 
12359
(
8.05844e-92
-2.82897e-73
3.9323e-253
6.73657e-48
-4.13647e-83
4.80148e-33
-3.88779e-27
2.1279e-30
-2.3501e-21
-1.04367e-35
3.09344e-24
9.077e-16
0.00386904
-2.08294e-45
-6.51096e-51
-9.23864e-10
-1.97287e-05
1.52093e-137
-5.22303e-141
-6.15594e-61
-3.52991e-42
-7.94026e-19
-8.55815e-67
-7.53398e-58
4.96623e-70
9.08692e-64
9.93799e-183
2.27961e-186
-2.13877e-148
-9.27067e-172
-3.73731e-165
-3.26339e-203
4.58625e-224
3.10106e-175
9.30577e-239
7.74055e-162
7.87771e-113
1.27767e-95
1.17043e-87
-2.76288e-102
8.59817e-77
1.72243e-99
8.88455e-121
-3.94735e-124
2.79755e-155
-1.08249e-152
-1.62244e-158
1.9997e-168
1.32843e-144
-7.62304e-179
-2.37996e-189
-3.89187e-196
8.79217e-207
-3.12082e-134
-3.98225e-214
-1.52032e-220
5.86522e-128
-1.14213e-227
2.44179e-231
-4.65319e-235
3.59652e-217
4.09988e-246
1.10788e-192
1.31182
3.34968e-131
8.50662e-39
2.68506e-115
1.32463e-199
-1.27594e-108
7.79165e-11
52.9704
4.89719e-80
2.6045e-256
2.89629e-105
4.25182e-54
-2.2458e-242
-2.28526e-210
-7.15435e-250
-5.47027e-118
-4.89328e-13
1.38493e-37
-3.6851e-171
0
-8.20395e-106
2.32839e-05
1.87265e-123
-3.36904e-169
-3.39355e-235
0.00230677
5.03372e-06
6.39711e-290
0.928061
1.347e-293
-3.83657e-138
-1.76035e-111
9.89317e-102
2.54616e-144
3.77964e-139
3.22353e-71
-1.49532e-87
2.80556e-32
-1.31391e-278
2.40559e-123
3.30322
8.33714e-181
3.60045e-53
3.06101e-303
2.15992e-05
1.0378e-133
6.37466e-55
4.61241e-147
-4.22484e-171
-4.53117e-44
2.19552e-37
-5.00256e-112
1.04493e-210
-3.74105e-36
1.75563e-169
0.0230423
0
-3.56707e-149
-4.97154e-32
6.84124e-233
8.22379e-77
-1.48575e-168
-1.52575e-198
1.52948e-25
-2.20922e-105
-1.22263e-250
4.106e-170
-4.90477e-210
3.57211e-19
1.1721e-15
2.2018e-16
-3.44757e-306
2.10707e-76
4.07913e-210
-2.04354e-78
9.48673e-273
5.50585e-27
0
2.64371e-90
-1.71229e-70
-6.48716e-304
5.62547e-33
-9.83017e-39
0
3.56362e-06
7.08469e-180
-3.81499e-36
1.4467e-101
6.20832e-276
-3.95256e-69
1.51349e-230
4.22493e-300
91.9118
1.16304e-33
1.12533e-19
-3.05597e-145
3.98492e-216
-5.02375e-52
2.02066e-214
2.63792e-77
5.46347e-72
0
-8.8274e-201
1.0254e-54
-6.03744e-31
-2.82837e-74
0.00300531
1.74767e-246
9.09194e-245
6.38273e-77
3.04866e-72
6.02848e-183
2.39769e-27
2.92545e-156
3.56216e-158
2.96212e-43
8.01083e-29
-4.70013e-47
1.87614e-297
1.9146e-250
-2.08507e-170
4.42476e-73
-1.13335e-21
-8.76739e-143
-2.18012e-116
5.97672e-98
-6.06881e-141
-1.28597e-114
8.28184e-104
4.4177e-104
-5.93201e-229
4.76253e-55
4.78181
-2.57626e-99
-2.59437e-141
-4.4131e-68
4.46952e-168
-3.82947e-37
3.86631e-99
8.17605e-88
1.10273e-55
5.16171e-38
5.5993e-301
7.70069e-36
7.93666e-86
1.44873e-69
-3.57982e-154
0
2.92442e-39
2.85824e-38
130.178
-6.49659e-21
-1.45382e-270
7.00118e-141
-7.94362e-114
7.07992e-140
1.3925e-88
6.54635e-38
-2.02024e-155
8.36794e-79
0.878779
-1.46432e-169
0
1.17746e-86
1.0996e-136
2.68575e-29
-8.48619e-138
-5.00217e-137
0
1.48059e-32
-6.84134e-81
3.71848e-117
-1.25038e-82
0
-8.73726e-66
-4.05786e-116
6.72751e-07
0
8.19629e-120
-2.51921e-126
1.90665e-14
-7.5265e-50
3.77128e-06
-2.74962e-234
4.3232e-71
-1.49071e-190
2.81456e-104
4.16917e-50
-7.79958e-99
-6.60545e-163
1.08702e-136
0.286506
104.502
0
-4.12617e-161
0.300789
103.614
-2.48959e-86
-4.96602e-51
2.23944e-32
1.81248e-56
-9.93928e-74
40.0421
0.0142405
3.32969e-48
-5.30319e-163
2.33524e-75
1.76948e-75
6.15102e-71
-9.43569e-73
-1.47214e-138
-2.09375e-157
0
-1.35465e-159
0.742081
1.88636e-48
-3.16321e-284
3.54383e-277
4.02506e-57
-3.77648e-167
-1.72021e-116
6.80079e-122
0
1.59557e-32
-2.15497e-277
1.02798e-278
1.00995e-206
4.76627e-79
-4.12872e-174
39.113
1.9119e-305
1.77223e-301
1.02684e-121
3.91727e-192
5.18884e-39
-7.63156e-118
-8.27148e-194
-7.17954e-289
0.466503
8.6698e-31
3.43697e-290
8.20001e-140
-7.11984e-120
-1.59183e-188
8.9711e-210
1.28378e-210
-8.58588e-187
7.24955e-146
-6.11115e-22
-1.71654e-189
-4.34545e-166
-1.12771e-97
-2.63375e-58
0.00189967
6.48319e-188
1.2587e-73
1.7395e-09
6.56151e-279
-2.68978e-81
3.03133e-280
-1.6947e-98
-6.10935e-302
1.97353e-187
-2.23848e-23
3.51724e-76
-5.67912e-23
-3.77231e-118
-2.39307e-127
1.80516e-105
3.77487e-101
-6.70206e-126
2.52826e-106
2.45005e-105
1.20884e-258
-7.06747e-224
-9.20136e-225
-6.26582e-221
-3.85185e-222
9.10853e-06
0
2.71455e-36
2.76482e-82
2.99426e-76
-1.20011e-69
7.79777e-75
-5.96712e-123
3.23096e-100
7.77771e-76
2.13732e-101
1.3003e-74
-5.98893e-54
-3.05958e-52
1.56317e-43
1.62077e-88
2.59202e-23
5.23353e-92
4.31797e-92
-1.16551e-69
7.40239e-29
-9.64319e-171
1.35924e-213
5.39485e-99
1.30345e-214
-6.5735e-170
111.559
7.4002
-7.06836e-170
1.45703e-267
-9.9507e-308
1.97241e-307
1.13772e-77
1.4025e-297
3.07191e-299
0.00743335
4.80994e-74
4.48775e-06
2.4237e-169
7.66277e-63
-2.20551e-169
-1.44577e-124
-5.36788e-49
1.84886e-100
2.81437e-48
1.91456e-102
-5.52131e-173
3.53531e-282
1.05138e-73
9.70259e-64
1.10485e-174
-1.0311e-15
-6.23736e-50
4.84209e-102
-5.49228e-66
-1.92805e-55
-9.33475e-269
3.68501
6.61516e-22
7.41231e-168
2.5666e-15
5.24066e-94
0
0
3.02557e-313
1.11291e-05
3.16616e-30
6.02484e-72
3.6613e-83
6.05829e-103
-3.31763e-109
-1.6903e-48
-6.53809e-67
2.09352e-30
0.00321386
-2.67184e-14
1.10548e-75
7.16229e-45
1.58139e-131
3.54698e-49
5.93596e-105
5.92107e-97
8.29241e-177
7.52584e-108
-1.01544e-73
2.63506e-296
90.3944
-8.34309e-115
1.22488e-05
3.9237e-67
-3.37102e-128
5.89629e-42
0.257383
1.3586e-73
-8.88913e-95
4.19773e-103
4.3469e-65
-3.62153e-48
1.65461e-165
1.03754e-322
4.87396e-37
-5.78588e-300
4.15367e-20
-9.59201e-208
1.37327e-65
1.88694e-49
1.68138e-151
4.41855e-05
3.52162e-35
2.00281e-91
1.75215e-159
3.11473e-08
2.28934e-265
3.25722e-174
6.14683e-28
1.24177e-265
1.84888e-160
1.01909e-175
1.37472e-10
8.16448
-8.44423e-108
-3.24775e-241
-1.42611e-46
-3.60069e-57
9.90171e-82
2.44256e-67
-5.52747e-75
5.55237e-257
1.53903e-309
6.45486e-64
3.39465e-286
6.55208e-51
-1.43519e-82
9.17138e-51
1.06154e-161
5.36788e-39
6.68417e-27
5.86216e-175
1.09893e-110
-3.24085e-173
-4.13701e-41
2.76561e-28
-1.17977e-272
-2.32413e-61
2.10707e-78
2.82547e-134
-6.34202e-59
-1.16869e-206
7.12544e-31
-2.28277e-115
3.08194e-72
-1.94834e-50
6.62509e-255
-4.82751e-112
1.70031e-17
3.22731e-14
2.66584e-288
4.95058e-91
6.86857e-15
2.08695e-93
0.130196
7.42399e-315
-8.99408e-210
4.36068e-263
-3.56723e-68
2.84267e-87
4.09096e-99
-1.29643e-204
1.00236e-63
3.96711e-94
-1.39326e-76
8.45246e-160
1.34571e-07
1.17651e-293
6.88718e-07
6.87147e-237
121.025
-1.05077e-113
8.91214e-19
-8.24704e-232
1.37145e-161
-2.25145e-56
-2.18481e-172
-1.98077e-195
8.75614e-121
-9.03545e-85
1.16362e-84
9.7063e-18
7.39725e-43
9.14455e-44
0
-7.03303e-172
-3.21172e-80
1.36823e-13
0
-2.89764e-288
6.34214e-77
1.8646e-260
-7.48767e-24
0.284962
20.3165
0
7.12683e-120
1.68861e-48
4.31871e-96
-9.03635e-185
63.4545
-1.07502e-292
1.0321e-33
6.50359e-48
9.20005e-121
-2.54926e-188
-1.1962e-191
1.96663e-153
7.83578e-84
1.61936e-104
1.42164e-105
0
6.24018e-249
-2.1562e-89
5.495e-156
1.45913e-43
-6.64071e-69
5.08721e-204
-4.19878e-287
-9.22834e-53
92.6944
-2.27578e-167
2.19552e-31
-4.60066e-310
3.2033e-104
1.03015e-34
-1.07555e-96
1.40217e-51
1.10313e-40
-4.92654e-89
9.59916e-76
0
-2.92171e-240
1.03146e-100
-3.70246e-111
-1.86043e-90
2.16917e-112
-3.45808e-303
-2.88631e-285
5.87385e-201
-1.29116e-71
8.95784e-68
-4.03282e-47
-3.29649e-113
-9.65925e-45
-1.41456e-69
7.23113e-93
-9.51487e-43
8.54032e-74
1.63294e-05
-5.34001e-71
-1.31112e-72
1.01729e-46
1.04954e-243
4.16198e-37
-9.68276e-56
0
1.79319e-263
4.01384e-259
-1.92687e-240
1.077e-12
-3.81481e-93
1.57943e-142
-3.02484e-46
7.24674e-120
-2.01269e-21
9.17288e-95
9.24449e-83
4.50071e-200
5.82937e-23
-2.89251e-304
2.63271e-72
-1.08237e-160
2.28578e-27
2.00543e-42
-2.1854e-95
3.16003e-96
3.36602
-2.90494e-72
6.71537e-23
7.52343e-106
8.64962e-17
0.0984724
4.26481e-248
7.06932e-167
-3.23735e-305
5.34754e-15
-2.98468e-167
6.91222e-104
5.93579e-05
-6.35501e-290
2.54435e-74
2.49614e-50
1.38971e-97
2.7071e-164
1.68375e-96
2.10745e-223
-1.09485e-92
3.42996e-221
5.30363e-226
9.70805e-98
-8.17255e-77
3.35927e-77
1.01874e-95
1.75475e-13
-2.28651e-98
7.79974
2.52008e-70
-3.8661e-124
6.64976e-95
1.31822e-72
1.48881e-74
3.56006e-103
0.08067
-2.04858e-50
3.17175e-77
-1.02002e-81
5.9939e-144
5.2572e-158
-2.11221e-53
1.01185e-320
0.117084
2.22003e-209
-4.66295e-49
1.66452e-34
4.39789e-14
2.71986e-40
5.51204e-61
-2.7154e-54
-3.60049e-105
7.7949e-40
9.2363e-59
3.52242e-23
-3.61762e-82
1.39149e-26
-5.91089e-83
0
3.36214e-76
127.048
3.17451e-19
4.38588e-139
0
-3.96007e-202
-1.2226e-118
3.39239e-67
9.94488e-79
-5.07468e-109
2.38913e-258
-8.12244e-135
7.24545e-74
-4.52268e-140
1.47585e-159
8.85617e-27
-8.11674e-130
5.34836e-63
5.56684e-57
1.22149e-135
-4.86076e-129
1.63823e-39
0
-4.84418e-125
27.967
1.70289e-238
5.01114e-31
1.39408e-35
2.79809e-130
1.8862e-46
2.45633e-56
-8.51493e-77
-5.64494e-47
-4.04143e-171
3.16054e-46
5.85393e-185
3.12633e-106
3.31345e-59
-1.12048e-44
-6.35502e-171
4.58477e-74
2.04913e-19
-1.976e-64
2.84225e-103
3.68413e-166
4.80746e-36
2.06907e-09
7.92513e-148
-1.07967e-272
4.50658e-77
6.00623e-294
0.104894
3.10244e-83
1.2614e-19
2.62136e-109
-5.73431e-111
2.84107
7.97695e-99
3.76643e-05
1.21059e-80
16.5375
1.27231e-78
1.42114e-104
8.29032e-101
2.07597e-136
9.44973e-06
9.78489e-08
-2.2756e-244
3.09234e-240
-2.76421e-41
7.72475e-226
0.000113371
-6.77627e-50
1.09051e-14
2.28619e-167
102.444
0.0106689
-4.41848e-82
0
-7.8791e-177
-1.36433e-53
-8.5195e-117
-1.32183e-111
2.06604e-113
-1.53069e-74
1.90024e-60
2.3381
4.27509e-12
1.16953e-260
1.79411e-52
9.90676e-46
7.94229e-40
2.32077e-105
1.43731e-32
5.79635e-70
-4.18335e-52
2.85035e-164
0
5.42471e-43
5.78516e-39
-1.66985e-111
-1.44024e-43
5.17324e-21
-1.21387e-126
-7.29043e-79
6.03512e-159
6.88566e-118
-1.15611e-20
-1.57246e-116
2.04158e-51
2.94709e-58
-1.51748e-87
1.59406e-151
6.81394e-106
1.74143e-20
1.31032e-111
8.02349e-107
2.55816
8.87958e-70
4.52263e-124
0.000435963
0
1.99518e-109
-2.37454e-85
-2.40855e-119
-2.78322e-201
5.25408e-80
0
4.56809e-15
2.2171e-176
-1.07711e-74
2.80557e-39
1.27945e-45
3.83022e-103
3.2232e-107
8.03504e-45
36.3568
9.26139e-242
-2.59636e-126
1.11738e-124
0.000339608
1.96589e-38
-4.30335e-173
0.403231
0
1.25194e-177
106.323
-6.5549e-132
-4.94148e-169
-2.3069e-165
-2.34693e-60
-7.17462e-57
-9.22001e-236
-1.40968e-123
2.5274e-35
1.51569e-85
-6.58845e-90
1.53145e-114
2.32342e-245
-3.53755e-55
8.28783e-13
-1.10411e-93
-3.8073e-46
4.27974e-82
2.29886e-105
1.89351e-16
-2.48609e-47
2.01949e-112
-7.0542e-177
8.06268e-07
4.0819e-77
3.00488e-65
-2.20285e-159
-3.05127e-238
-6.46455e-48
1.29208e-22
3.86478e-115
1.79073e-47
4.30374e-113
1.63539e-111
-6.86291e-148
3.87249e-55
106.872
8.53533
4.34852e-54
-9.75609e-91
9.4031e-150
3.27979e-57
0.000602424
-3.04458e-48
-9.47791e-175
4.69677e-26
5.17118e-14
4.42217
2.16346e-138
26.4585
-1.60326e-240
1.07742e-109
-4.88881e-237
2.56784e-17
1.04363e-63
26.3696
2.77483e-185
0.00128285
4.61503e-223
4.77793e-92
1.77056e-61
-7.71097e-119
1.29033e-25
8.20626e-06
-4.71627e-128
1.475e-151
-5.76155e-116
2.99483e-139
-3.77028e-130
2.80534e-20
5.25007e-67
1.22861e-106
6.2507e-23
-4.34904e-131
-1.82419e-233
-5.54394e-96
1.02945e-199
4.0844e-38
2.55191e-117
2.62307e-16
9.61269e-18
-4.23161e-60
7.2794e-57
-1.1649e-65
3.8552e-101
0.000670726
7.74324e-118
-7.80554e-137
-2.07377e-302
4.3062e-24
-3.9904e-50
3.53252e-187
2.98969e-42
-9.86504e-118
1.61357e-58
-1.79239e-53
-4.72502e-47
-1.28894e-67
65.4511
-7.25476e-65
-1.99903e-58
4.83501e-06
-7.73169e-120
7.31773e-11
2.04393e-49
6.43879e-230
1.18244e-115
-7.0629e-159
2.64576e-103
0
9.74814e-168
8.1829e-14
2.10924e-21
-3.83984e-170
114.817
4.87937e-41
1.78974e-212
1.23971e-17
3.80479e-27
5.43922e-218
1.2942e-15
5.14234e-41
5.15541e-18
3.15248e-221
1.10865e-159
-5.28832e-142
4.77943e-219
-1.54482e-47
4.40329
-2.67141e-179
1.30644e-17
0
0.613165
-4.15946e-47
-1.13314e-70
3.05192e-294
3.16659e-181
1.0344e-107
6.84197e-70
2.64522e-22
6.12164e-57
1.20313e-133
-1.61859e-124
8.12965e-224
-3.06822e-49
1.8341e-53
-2.51958e-157
-1.6333e-264
1.22982e-92
7.4993e-59
5.38604e-62
1.03258e-198
7.00186e-13
2.78318e-38
7.2457e-225
1.34774e-75
-1.19548e-125
6.93668e-109
130.038
-3.68137e-133
1.65703e-212
3.52977e-79
-1.48357e-51
-1.9553e-63
0.556614
2.96302e-76
6.79389e-121
4.80916e-55
-1.13722e-120
6.99897e-124
1.00524e-118
-8.99192e-119
6.82827e-37
-1.15311e-106
8.42269
-1.14121e-61
1.02214e-13
-2.02039e-122
1.08373e-11
4.73489e-44
3.54302e-26
1.63273e-19
2.8029e-73
1.02801e-125
7.63911e-130
-4.56001e-93
0
-7.86004e-112
3.01442e-50
3.69902e-35
-1.27528e-121
5.10373e-227
-6.23023e-79
1.19673e-66
3.77661e-37
1.39388e-55
1.27242e-25
1.08058e-37
-1.7537e-155
2.2084e-70
0.000400151
6.87861e-52
0
4.6769e-143
-7.35126e-122
0
4.67641e-72
-6.133e-243
-8.4764e-110
-7.62644e-22
3.96293e-47
3.99627e-13
-1.47478e-239
-1.87431e-185
3.14108e-292
-1.21961e-122
-1.00464e-144
1.20727e-25
-1.44914e-143
-7.83975e-185
1.0797e-10
-5.1986e-63
1.09881e-99
7.37388e-74
3.56224e-26
-6.73979e-140
1.7615e-17
1.27132e-130
-1.11469e-235
1.19586e-06
1.60822e-85
4.24705e-29
3.54915e-139
30.049
-6.17788e-57
-6.94552e-68
4.43841e-78
3.12228e-49
1.61622
1.40119e-123
3.29493e-27
1.88048e-58
-1.2672e-69
6.0163e-173
1.45445e-115
7.73406e-11
4.45173e-109
2.06815e-17
-4.89519e-130
-7.16726e-135
1.44299e-18
-1.10812e-211
1.57298e-154
1.83522e-121
3.87916e-84
3.14278e-16
-9.07716e-131
-4.10118e-123
-3.77902e-314
4.86225e-57
6.94538e-07
1.16503e-71
-3.60005e-123
-5.22328e-88
3.32878e-141
9.39917e-179
5.10236
-9.45625e-67
-1.85092e-274
1.26396e-68
2.0943e-143
-5.85735e-55
2.72189e-35
-5.51085e-100
-4.16008e-119
1.10394e-26
2.55338e-20
-1.58353e-299
2.07673e-95
2.93516e-21
2.21048e-187
1.60031e-251
-1.85146e-82
2.54829e-85
1.11184e-111
1.95492e-249
-6.37266e-81
4.14605e-18
-2.43241e-214
2.01622e-38
1.93152e-239
8.55922e-159
1.70009e-77
3.07686e-07
1.15407e-310
0.644261
-5.37939e-65
1.40707e-36
3.77702
-9.62411e-61
2.7446e-95
0.00356778
-1.7634e-121
6.28415e-08
-4.76579e-26
-6.72056e-91
-1.8981e-113
-1.71568e-115
-1.32253e-135
-6.61244e-143
2.95126e-49
0.00124566
110.619
4.76893e-55
2.28854e-36
1.17047e-10
3.51217e-58
0.0711283
-4.88527e-203
3.2226e-133
1.30186e-28
2.46252e-74
2.1828e-165
1.15328e-55
3.54508e-126
1.53747
0
2.08633e-162
-3.31584e-196
123.439
-2.91442e-45
8.79291e-62
3.08201e-109
9.68768e-28
3.61375e-118
2.44261e-185
3.86793e-11
4.85587e-124
6.62699e-11
1.05768e-48
5.17924e-119
9.6162e-27
-5.80493e-83
-3.15973e-127
-4.65037e-182
1.21086e-176
0.03536
3.92889e-20
-8.06333e-162
5.48358e-27
4.04006e-101
-4.1868e-44
1.06755e-306
-1.17858e-85
2.07011e-11
3.35405e-30
-1.47699e-58
-7.55491e-94
-3.13876e-183
5.0374e-36
1.66438e-117
-4.95083e-187
2.70614e-16
1.20573e-32
-2.10181e-149
6.87105e-40
-1.82556e-94
-8.82384e-296
-3.00271e-167
1.90677e-269
-8.84797e-54
21.6077
7.10467e-17
1.26918e-37
-2.95941e-156
-3.77586e-115
4.50311e-84
-1.03747e-280
1.37886e-12
-2.16252e-84
22.0637
3.85755e-34
1.53473e-119
7.62723e-152
-6.65351e-200
5.04094e-128
-5.62206e-120
-8.21997e-163
4.67285
3.49131e-31
-1.8492e-56
-6.03116e-24
-1.99634e-58
2.08336e-186
0
-1.27084e-163
1.57944e-40
0.00856947
-1.75409e-30
3.02906e-74
-2.51363e-68
3.4583e-90
2.35289e-32
0.00127865
0.00187682
-3.97043e-117
2.86737e-96
-7.19478e-52
-2.04437e-145
1.85252e-261
-2.0257e-163
4.18079e-28
-1.33324e-145
1.30086e-97
-7.88318e-129
1.01858e-56
3.46054e-15
-5.09424e-138
-3.16374e-162
6.76532e-20
1.49375e-35
-4.97161e-115
-1.36421e-171
-3.98299e-70
3.99346e-15
6.74808e-41
-4.91087e-38
-1.5576e-73
-3.69107e-110
4.28834e-07
8.88429e-114
-1.97754e-30
-7.38306e-179
5.79959e-18
6.55907e-21
-2.93438e-237
-3.41512e-195
66.5835
-4.27404e-167
4.23083e-104
1.17185e-45
-4.41906e-142
-2.3174e-141
-1.17359e-123
-4.64452e-169
4.35919e-292
7.75237e-48
1.40228e-09
1.81581e-199
0.000851374
1.50691e-129
-2.01646e-168
6.3046e-18
5.51423e-13
5.19257e-42
3.88604e-121
2.64509e-160
4.32646e-64
115.136
2.45822e-144
2.54235e-201
-7.96594e-209
-1.15867e-145
-1.92318e-82
-8.99111e-53
1.85307e-148
1.55515e-95
2.79935e-158
1.78001
4.94934e-14
5.04989e-85
-4.08263e-52
2.1529e-127
-1.08431e-167
1.44478e-36
0.185396
6.47919e-101
-1.83793e-207
-6.85122e-170
1.63984e-20
-6.47773e-144
-5.07125e-181
2.33119e-23
8.40893e-123
-1.77964e-167
90.9338
2.0971e-20
0.0171956
7.95592e-37
3.7709e-145
6.16416e-34
5.33968e-15
0.0099964
-2.67616e-133
1.8442e-59
-7.16173e-284
0.0133065
0
7.86298e-137
6.64951e-135
3.34848e-208
9.64558e-70
-1.8876e-113
-3.54571e-144
-2.07085e-135
0.141383
9.55139e-21
3.9223e-77
-1.37322e-161
1.56923e-47
0.183109
1.08675e-17
4.94238e-60
-9.55444e-72
6.31959e-137
-1.77436e-117
-3.22026e-203
-6.08736e-152
4.40194e-197
-2.98281e-164
-6.69515e-63
8.93348e-22
1.02852e-32
0.0353788
1.13638e-06
8.28886e-14
-1.60454e-41
0.0129112
-2.77809e-183
8.02076e-09
-3.14076e-171
4.33152e-05
4.90237e-19
3.96123e-60
-1.55047e-149
9.55666e-58
3.73926e-46
7.1175e-106
15.0968
9.30629e-18
0.0339178
-2.63783e-166
1.87247e-15
2.99704e-10
6.98935e-19
9.6719e-11
3.94364e-17
2.26498e-169
-6.52569e-122
1.19439e-82
-1.97899e-154
2.31207e-46
1.09319e-140
-4.43496e-60
2.64457e-239
-6.73415e-127
1.66905e-47
5.63371e-72
-6.86636e-189
4.08999e-67
0.0146785
54.4744
-7.60648e-209
1.08716e-68
2.5471e-128
1.3018e-14
6.70387e-49
1.67794
1.33511e-07
-2.18197e-137
4.85041e-68
1.88203e-10
-7.57947e-30
2.03283e-08
1.34381e-75
4.38995e-17
2.87133e-194
0.00853935
7.65067e-22
-2.60735e-169
4.60488e-11
3.35442e-06
2.11489e-63
0.0600762
-3.37838e-132
1.18546e-12
2.64759e-110
-1.48933e-214
-7.78359e-103
4.26924e-116
0.00216506
6.15163e-16
0.000357152
-4.45437e-187
0.0910181
1.20007e-59
4.77854e-22
-1.99092e-44
3.60856e-71
6.77159e-84
4.90209e-05
-4.36842e-130
3.08805e-150
5.73756e-47
3.01888e-13
8.43601e-47
1.16206e-35
-1.43346e-80
0.00376442
2.28702e-43
2.36434e-47
1.49011e-13
-1.46438e-210
4.57762e-11
4.20154e-31
1.43374e-11
5.42596e-105
1.1458e-07
-1.29201e-200
1.54926e-48
7.79069e-87
1.18434e-19
1.92413e-99
4.39864e-48
3.27921e-12
52.6158
-1.16631e-131
3.42257e-79
1.57294e-63
1.31904e-27
2.47616e-40
1.4632e-135
1.13936e-62
-2.43764e-202
5.57118
-3.27438e-300
-1.06604e-201
2.63206e-267
4.35032e-14
-1.42796e-165
-2.71184e-58
0.0043483
2.35475e-87
-1.66351e-80
-2.82137e-157
4.4302e-253
6.05511e-14
-6.73851e-207
-9.20441e-56
1.91727e-19
1.7124e-65
6.16836e-09
-1.11089e-135
4.32733e-62
7.10612e-12
1.08586e-35
-1.22178e-103
60.173
3.80417e-305
-5.36906e-246
-1.10695e-120
132.643
7.07591e-107
6.58168e-118
3.01397e-11
-1.10722e-148
-1.92183e-133
7.31459e-30
1.5894e-10
1.97413e-51
5.16323e-06
1.09048e-145
7.9104e-125
-2.66496e-81
5.16972e-85
7.11862e-20
-2.03249e-173
-7.67944e-116
-5.27173e-77
-6.71554e-23
4.73413e-97
-5.12783e-191
-2.25733e-62
-8.94011e-26
1.37957e-257
-2.36911e-253
9.34113e-08
1.00122e-50
3.32728e-07
2.03802e-132
0
-2.74968e-24
1.92678e-14
1.10808e-184
1.89315e-142
-9.35257e-204
0.908455
7.80557e-257
3.34057e-53
1.51316e-09
2.15372e-251
9.15536e-251
7.21288e-37
-1.61545e-218
-3.80902e-253
6.68062e-79
9.74323e-20
-2.22386e-193
3.82206e-35
-1.40405e-209
2.03622e-12
0
5.87587e-11
1.83576e-18
1.99285e-43
-4.76463e-250
8.00265e-30
1.60072
7.58871e-145
7.55887e-67
-6.77274e-223
1.3425e-20
-3.79778e-211
1.08138e-11
1.05242e-18
4.36942e-119
-9.63876e-263
5.19609e-19
3.79793e-22
-6.99259e-88
1.42591e-87
3.8467e-23
-2.10791e-216
5.25583e-31
-8.25858e-265
5.7763e-12
1.64511e-13
2.40416e-21
4.1686e-42
-3.33301e-32
0.213851
2.489e-48
4.90427e-86
5.90899e-22
7.36032e-139
1.16679e-27
9.82792e-23
3.43486e-59
3.23462e-126
0.0016401
1.78447e-287
0.000240981
74.2113
-2.42376e-154
1.05867e-17
15.1653
6.21257e-50
1.71217e-83
2.08854e-31
-3.56383e-75
-1.58102e-199
4.47033e-13
0.000275375
0.161114
-1.09374e-138
1.08808e-38
8.62163e-09
1.03328e-19
-1.0105e-162
1.68054e-241
3.84419e-69
2.91361e-05
7.46375e-13
5.18766e-24
8.35869e-315
-1.90475e-212
2.04388e-21
3.20903e-146
5.49662e-73
1.52317e-140
6.44896e-257
1.20938e-11
3.33491e-136
5.25931e-10
-1.98493e-86
-2.24075e-228
6.14219e-242
4.99838e-21
-7.8029e-140
1.1911e-49
9.28726e-24
0.000218098
1.79222e-70
-1.05634e-191
8.34674e-10
-2.93454e-116
-1.44762e-204
2.88739e-111
6.01054e-21
-4.43762e-144
4.13681e-20
3.16666e-76
129.465
1.97369e-22
3.83977e-180
8.09718e-10
4.74251e-266
1.24408e-14
9.11257e-61
8.38141e-09
6.22916e-06
1.89684e-60
1.67379e-08
-2.87116e-226
3.45338e-16
5.85684e-153
2.48391e-70
1.02886e-10
-2.22541e-47
1.01608e-10
0.000241118
-2.57618e-27
4.86235e-15
4.10099e-09
-1.85802e-187
-1.13455e-208
4.62845e-264
1.02762e-08
-1.49384e-33
-3.12762e-185
2.9294e-12
2.511e-12
-2.82795e-72
1.07505e-28
8.46266e-89
5.17383e-48
4.11175e-09
2.94451e-98
8.01157e-59
1.46014e-55
-7.14911e-285
-7.00884e-282
-7.02042e-186
-5.47538e-138
4.61897e-89
5.23658e-232
3.40855e-117
9.51745e-130
-4.67124e-81
2.41685e-47
8.56189e-164
8.40077e-12
0
1.34646e-18
6.02258e-09
-1.40004e-177
3.75261e-07
2.91716e-25
7.26478e-12
2.97414e-94
1.67435e-24
-4.0309e-148
2.76814e-62
2.37021e-78
3.46767e-244
7.22518e-153
3.48428e-126
-2.01424e-175
-6.82492e-269
1.052e-75
-4.60505e-271
-1.57739e-43
3.61954e-44
0.00442262
8.19833e-235
1.57296e-83
8.59046e-230
-3.01281e-147
8.00406e-31
3.20157e-87
-2.4819e-182
99.2146
3.16425e-20
2.35359e-50
5.57888e-83
2.64417e-23
8.37788e-33
-8.21059e-115
1.82778e-34
6.40157e-20
-6.70043e-130
-2.12947e-266
-8.82808e-115
2.40316e-15
-9.71385e-208
-2.07259e-187
1.37881e-19
9.44276e-154
-2.29169e-147
-8.78894e-125
-3.02039e-191
5.98878e-08
1.42196e-232
-1.29442e-189
8.60628e-44
3.08085e-34
0.0361117
4.53174e-19
-5.84452e-82
-1.5721e-179
4.72997e-34
-1.01928e-181
7.03902e-44
5.98037e-100
-2.69796e-130
4.03434e-09
-1.02448e-242
8.57879e-35
6.99921e-74
3.04895e-22
-1.4193e-56
1.07915e-275
1.16651e-131
0
4.53199e-40
-1.01536e-210
1.36038e-28
-4.96773e-74
-1.4165e-128
-1.06602e-78
3.33979e-64
-3.01407e-267
7.42468e-34
1.17661e-41
1.01146e-138
1.17501e-41
4.76725e-13
2.62867e-255
7.06672e-64
1.86924e-16
2.64158e-28
9.33082e-105
-2.04632e-65
-2.73007e-63
1.36276e-77
3.33485e-101
1.22131e-20
8.42455e-100
-6.14063e-179
-8.04871e-181
1.70246e-08
3.00956e-13
2.69282e-11
1.61378e-09
-2.1558e-49
3.47624e-31
5.68053e-73
1.66983e-34
-2.16252e-181
0.00573577
-1.2806e-146
5.97552e-09
5.99842e-25
-1.03029e-183
-1.32267e-35
1.77285e-14
2.74316e-13
-3.51955e-71
6.81791e-43
-1.43489e-183
-2.86082e-297
3.25907e-22
-5.17839e-265
3.55256e-237
1.64502e-24
1.38218e-147
-1.83533e-92
-1.61557e-189
8.85797e-133
8.57393e-23
4.16633
-3.44204e-151
-3.34059e-155
2.04564e-16
-1.88818e-54
5.42989e-16
4.15791e-40
1.42171e-36
-5.45658e-151
-5.39913e-59
2.17583e-38
3.38306e-25
-8.1701e-43
1.27914e-191
2.98763e-22
7.00863e-50
1.57801e-29
3.17441e-115
-4.35302e-187
9.0204e-25
-1.2621e-147
-5.97495e-255
2.02785e-36
3.21681e-12
-8.76087e-235
7.01916e-41
2.12663e-76
1.42444e-161
-3.93849e-106
-3.74029e-161
1.79389e-36
-1.10727e-178
-2.63619e-189
-1.12408e-84
2.44938e-37
-2.68504e-56
-8.60765e-38
4.12149
-1.57837e-133
7.26218e-85
2.09615e-05
2.25419e-54
-6.66565e-163
9.45393e-52
5.6299e-13
2.88066e-244
-2.40507e-151
5.46644e-260
8.10413e-42
1.86413e-21
-2.74394e-85
-2.22506e-273
2.09908e-111
3.22701e-105
-1.20261e-124
2.07926e-13
2.00219e-146
-2.56251e-275
-1.37652e-266
8.9821e-46
-1.5363e-72
3.45351e-08
1.01965e-116
1.0312e-68
1.06111e-67
1.35626e-32
1.16644e-205
2.70964e-35
-3.87361e-248
9.4367e-238
4.55682e-260
4.5423e-16
-3.8241e-144
4.42315e-39
3.4486e-51
-2.04088e-46
7.63322e-34
1.14257e-44
6.11277e-20
6.85698e-36
4.07015e-143
2.52792e-58
3.29605e-63
2.21758e-57
8.27859e-30
-1.26846e-150
8.97043
1.25289e-23
6.1433e-27
-9.16929e-236
0.155328
1.20323e-32
2.98366e-35
-3.24594e-39
3.54816e-23
1.96495e-85
-1.05173e-131
6.3015e-135
2.65367e-147
4.90346e-141
-2.4529e-25
1.35684e-32
2.20052e-153
9.42202e-48
-9.1966e-127
3.61827e-136
-8.27615e-90
5.56442e-62
1.57703e-111
1.58631e-77
-2.27205e-63
4.27075e-57
1.31582e-37
1.08445e-79
-1.57843e-230
-2.51016e-110
8.22155e-143
5.02285e-16
-4.63016e-209
-1.87676e-148
-5.45655e-44
0.000695801
-2.19913e-179
1.6467e-07
-8.15038e-185
-5.30496e-149
1.36957e-84
1.42987e-47
3.48802e-56
-5.39021e-205
4.76896e-42
3.33651e-42
2.15056e-16
1.57279e-235
1.27216e-53
-1.33609e-68
4.28257e-106
1.55908e-258
8.64529e-313
3.38265e-37
-5.40141e-72
3.29127e-99
6.36408
1.58257e-37
5.39783e-53
-6.8324e-35
-3.97333e-86
6.90576e-16
-5.21181e-132
-9.14968e-87
5.82702e-117
-2.77774e-126
5.75336e-09
1.42366e-52
7.72714e-36
3.17922e-59
1.57504e-197
8.7558e-41
1.71864e-39
1.74259e-17
2.77054e-128
2.49564e-53
-6.96513e-07
1.45895e-07
-4.49866e-187
1.59329e-14
-3.05601e-92
1.12139
1.03708e-254
1.0464e-40
1.94679e-60
-3.90099e-284
5.24766e-35
9.54499e-110
1.15675e-108
1.42523e-28
8.93057e-11
8.07634e-19
2.33478e-108
1.05595e-44
-4.38529e-248
-2.99147e-143
1.43277e-09
-8.41089e-45
2.48397e-131
9.62283e-41
-2.0744e-29
1.54827e-46
-7.76584e-73
-2.22199e-66
1.19909e-50
1.73852e-09
1.58681e-195
-1.61368e-69
-5.95326e-90
1.8004e-40
8.98932e-11
1.63446e-45
2.07746e-53
3.20078e-119
3.62299e-259
1.72696e-38
8.63992e-52
3.24863e-45
1.47219e-201
4.16978e-92
1.69885e-56
1.97187e-47
-7.2149e-34
6.22044e-40
2.79744e-120
1.06703e-48
-3.12789e-146
1.67562e-31
8.32467e-90
1.199e-38
2.19958e-86
1.22007e-106
5.09289e-48
2.44532e-92
7.50191e-102
3.37865e-122
-2.92094e-197
3.649e-67
-1.35706e-72
7.76939e-91
0.103156
2.72664e-06
-8.00589e-159
1.26582e-133
-2.29525e-71
-9.9461e-71
3.01897e-273
1.68497e-42
-3.19001e-51
2.86187e-46
-1.96419e-251
1.99247e-19
1.77709e-42
8.9763e-24
1.12671e-43
-3.48253e-236
-1.03547e-125
3.77686e-101
1.36532e-48
6.01282e-13
0.642254
1.27116e-191
7.05047e-93
-4.15613e-107
1.95995e-15
4.07647e-09
2.46021e-18
2.76614e-72
1.505e-46
-3.23127e-249
5.12842e-64
-1.53857e-74
-9.10797e-190
-2.04557e-30
-9.38216e-75
3.6218e-58
4.14346e-45
-3.29969e-94
-9.78265e-73
3.45732e-52
-3.59571e-238
0
-2.09037e-67
-2.61046e-93
5.48247e-12
-1.94436e-91
-7.01002e-32
1.29632e-19
-3.26321e-58
-4.34714e-190
-7.36422e-84
8.69679e-44
-1.79991e-195
5.6933e-07
7.04117e-09
-2.74569e-158
1.58395e-248
-8.36658e-156
3.33832e-197
-6.22943e-288
4.6565e-85
4.03195e-107
-4.27285e-41
-8.49192e-76
1.94936e-50
3.5416e-65
4.95058e-16
2.21263e-46
2.30022e-46
2.42617e-80
-2.39771e-88
-5.17992e-51
-1.78109e-237
3.42644e-105
2.07849e-113
-2.154e-45
-1.8166e-36
3.83413e-13
-6.07957e-291
-6.0704e-38
2.62914e-62
1.11922e-81
4.06412e-33
-6.01892e-53
5.34423e-36
7.19917e-10
-1.16889e-67
1.60079e-27
-1.53592e-89
3.32981e-130
1.48955e-63
9.42057e-49
-1.28911e-198
-2.0561e-79
5.97663e-08
-6.42995e-109
2.27923e-10
9.35656e-188
2.51518e-49
-1.31107e-126
9.26994e-122
4.41281e-42
-8.25937e-29
3.74543e-36
-9.9689e-106
-5.35092e-83
2.8367e-82
8.49842e-27
6.38201e-37
-2.78197e-65
6.37149e-25
-1.99124e-285
-7.36974e-71
1.51215
3.07689e-21
2.15536e-113
4.20768e-05
1.07858e-38
7.66788e-104
-3.73597e-220
2.09189e-15
1.13259e-48
2.87311e-84
-3.48155e-55
1.14413e-187
4.99332e-50
-1.13736e-116
1.52089e-29
2.75641e-52
3.21105e-52
6.47775e-39
0
3.46561e-148
4.19943e-102
-1.16867e-133
1.92816e-136
2.73184e-79
2.5941e-105
8.92364e-105
-1.34749e-31
5.03925e-39
1.3287e-271
3.35388e-34
-1.03717e-144
-4.85988e-236
-4.69211e-39
-5.83543e-180
-5.94919e-88
-2.08847e-88
-2.98761e-201
2.61281e-195
1.65916e-116
9.16965e-56
-6.83231e-86
2.74791e-45
4.24837e-60
-1.28287e-37
1.79879e-42
1.45761e-85
2.15194e-70
2.17741e-55
-9.92512e-305
-7.60277e-91
5.23656e-119
2.18295e-88
2.62021e-07
2.18033e-58
-3.56436e-95
8.24446e-67
2.36757e-89
1.11993e-110
-3.6323e-109
5.01121e-88
1.99061e-119
-5.53836e-46
1.53268e-63
3.60072e-239
4.10433e-57
7.70988e-67
2.31931e-54
7.85239e-221
-5.49314e-40
4.91947e-11
-1.75773e-139
-2.66821e-58
1.34718e-42
1.51076e-156
8.88617e-39
2.17961e-28
4.53921e-52
-1.48225e-49
4.91161e-33
-8.87063e-66
3.26446e-72
1.48423e-58
1.1603e-48
3.73119e-177
2.11424e-121
-1.06262e-296
9.54171e-142
-1.75882e-220
2.09965e-82
-4.38344e-74
1.16441e-45
6.04345e-59
0.10687
-8.45163e-29
0.681381
2.39634e-61
8.1471e-15
0.0209965
1.28196e-24
0.82859
2.0794e-116
-1.56276e-74
-6.86651e-89
6.12429e-90
-2.65467e-66
4.17571e-152
6.99616e-79
2.7182e-128
5.95378e-223
4.87639e-74
0.0011477
5.41788e-86
3.94788e-53
-1.40538e-86
1.09863e-118
1.54461e-64
-9.20043e-73
-8.29556e-135
-1.76357e-77
4.28138e-124
2.86205e-34
1.77444e-55
2.0809e-58
8.32296e-63
2.0447e-07
7.57862e-26
2.08833e-51
-9.98095e-90
12.7225
-4.01611e-88
-4.90295e-77
2.23685e-46
-1.04669e-41
6.86619e-82
1.64803e-35
-5.44285e-193
-8.51472e-53
-2.31422e-39
1.60476e-61
1.72176e-62
1.82336e-104
-3.11384e-76
-7.10925e-49
5.29776e-116
1.16799e-47
5.67515e-81
-5.44937e-103
5.79104e-190
2.16193e-91
6.074e-66
1.03285e-113
-7.72644e-91
2.39831e-103
-7.63352e-147
-9.9981e-48
-1.02887e-118
7.56398e-25
3.69271e-65
-4.96674e-89
1.71945e-202
9.83987e-140
1.41623e-40
-2.57183e-77
-6.19179e-250
-1.23602e-64
0.0159017
1.59704e-54
2.4933e-107
3.67723e-92
3.38237e-08
6.4324e-05
1.66899
2.79229e-143
3.98035e-145
3.00571e-131
-2.69843e-101
9.38518e-50
9.21148e-14
6.91457e-11
2.38036e-23
3.28728e-52
2.76348e-122
-5.68703e-216
-2.54549e-212
-9.67096e-39
-8.02291e-108
1.02204e-41
1.338e-138
9.32556e-21
1.52985e-126
7.07603e-74
5.31516e-17
-8.63408e-60
8.68757e-42
2.03993e-138
-6.68413e-81
-5.30104e-234
5.60564e-37
3.07504e-53
6.19255e-115
-1.38886e-222
1.03962e-94
-1.23533e-32
-1.46188e-153
3.91256e-65
1.47632e-08
3.97537e-248
3.66389e-108
-1.41864e-54
-1.90349e-56
3.99876e-67
-2.62251e-165
2.77585e-150
1.7788e-146
6.53394e-266
-1.0326e-211
1.32229e-98
4.85269e-63
-9.08981e-235
2.31612e-103
-1.14376e-150
119.049
-2.03657e-40
1.65387e-144
-3.0838e-293
7.03982e-50
-1.73116e-84
1.64838e-34
4.33881e-66
-2.99221e-83
-1.48354e-226
2.6033e-147
1.11368e-39
4.56254e-292
1.10086e-89
7.15985e-42
3.82963e-72
-1.27664e-206
2.29001e-80
-2.15589e-270
1.62087e-96