/*--------------------------------*- C++ -*----------------------------------*\
  =========                 |
  \\      /  F ield         | OpenFOAM: The Open Source CFD Toolbox
   \\    /   O peration     | Website:  https://openfoam.org
    \\  /    A nd           | Version:  7
     \\/     M anipulation  |
\*---------------------------------------------------------------------------*/
FoamFile
{
    version     2.0;
    format      ascii;
    class       volScalarField;
    location    "6.5";
    object      rho;
}
// * * * * * * * * * * * * * * * * * * * * * * * * * * * * * * * * * * * * * //

dimensions      [1 -3 0 0 0 0 0];

internalField   nonuniform List<scalar> 
2413
(
1.45521
1.44922
1.43929
1.43319
1.42857
1.42137
1.41148
1.40642
1.40103
1.393
1.38282
1.37744
1.3717
1.36401
1.35366
1.34788
1.34288
1.33628
1.32752
1.32276
1.31871
1.31205
1.30508
1.30125
1.29626
1.28925
1.28422
1.27968
1.27372
1.26777
1.26331
1.25888
1.254
1.24915
1.24505
1.24104
1.23682
1.23273
1.22885
1.22488
1.2209
1.21697
1.21287
1.20874
1.2049
1.20093
1.19674
1.1928
1.18878
1.18451
1.18049
1.17657
1.17223
1.16813
1.16422
1.1602
1.15599
1.15212
1.14818
1.1443
1.14054
1.13698
1.13323
1.12958
1.12614
1.66834
1.65727
1.65107
1.64255
1.63016
1.62257
1.61506
1.60312
1.59407
1.58766
1.57864
1.56833
1.56245
1.55628
1.54645
1.53924
1.53366
1.52595
1.51619
1.51001
1.5038
1.49392
1.48602
1.48084
1.47395
1.46402
1.45863
1.45336
1.44469
1.43536
1.42984
1.42347
1.41382
1.40445
1.399
1.39259
1.38387
1.37397
1.36827
1.36239
1.35448
1.3459
1.34079
1.33575
1.32853
1.32154
1.31709
1.31188
1.30453
1.29893
1.29433
1.2886
1.28231
1.27761
1.27322
1.26812
1.26291
1.25912
1.25544
1.25134
1.24737
1.24366
1.23987
1.23595
1.23209
1.22825
1.22427
1.22045
1.21666
1.21252
1.20852
1.2045
1.20003
1.19557
1.19133
1.18669
1.18201
1.17769
1.17335
1.16873
1.1644
1.16016
1.15589
1.15152
1.14744
1.14333
1.13918
1.13508
1.68244
1.67262
1.66697
1.65858
1.64708
1.64009
1.63256
1.62074
1.61253
1.60634
1.597
1.58759
1.58221
1.57586
1.56596
1.55957
1.55412
1.54557
1.5366
1.53098
1.52447
1.51416
1.50765
1.50252
1.49448
1.48538
1.48023
1.4742
1.46422
1.45567
1.44955
1.44226
1.43157
1.42318
1.41723
1.41026
1.40073
1.39203
1.38615
1.37963
1.37119
1.36278
1.35731
1.35176
1.34427
1.33725
1.33264
1.3274
1.31993
1.31411
1.30957
1.3038
1.29749
1.29289
1.28853
1.28364
1.27855
1.27456
1.27082
1.26679
1.26283
1.25926
1.25574
1.25212
1.24856
1.24501
1.24122
1.2373
1.23346
1.22936
1.22516
1.22112
1.21679
1.21216
1.20774
1.20305
1.19803
1.19336
1.18885
1.18394
1.17927
1.17479
1.17041
1.16572
1.16128
1.15692
1.15236
1.14748
1.69369
1.68467
1.67929
1.67086
1.65995
1.65343
1.64585
1.63423
1.62692
1.62098
1.61135
1.60303
1.59817
1.59137
1.58177
1.57619
1.57064
1.56129
1.5535
1.5482
1.54106
1.5312
1.52577
1.52054
1.51167
1.50377
1.49847
1.4917
1.48116
1.47335
1.46676
1.45873
1.44772
1.44025
1.434
1.42666
1.41659
1.4089
1.403
1.39619
1.38707
1.37957
1.37412
1.36805
1.36002
1.35362
1.34867
1.3431
1.33579
1.33002
1.32535
1.31975
1.31322
1.30851
1.3044
1.29975
1.29467
1.29111
1.28775
1.28382
1.27985
1.27637
1.27286
1.26916
1.2656
1.26213
1.25852
1.25467
1.25083
1.2469
1.24274
1.23874
1.23467
1.23014
1.22562
1.22095
1.21576
1.21069
1.20581
1.20058
1.19537
1.19051
1.18583
1.18084
1.17602
1.17141
1.16671
1.16152
1.70561
1.69717
1.69172
1.68281
1.67237
1.66602
1.65813
1.64672
1.64014
1.63427
1.62446
1.61716
1.61249
1.60513
1.59602
1.59087
1.58509
1.57534
1.56868
1.56375
1.55598
1.54728
1.54269
1.53729
1.52788
1.52114
1.5157
1.50807
1.4973
1.49018
1.48337
1.47458
1.46367
1.45695
1.45045
1.44256
1.43247
1.42573
1.41959
1.41241
1.40307
1.39632
1.39081
1.38462
1.37654
1.37034
1.36526
1.35951
1.35194
1.34638
1.34191
1.33651
1.33016
1.32565
1.32154
1.31672
1.31153
1.30764
1.30394
1.29987
1.29578
1.2924
1.28916
1.28571
1.28249
1.27953
1.27642
1.27298
1.2694
1.2657
1.26165
1.25745
1.25323
1.2486
1.24381
1.23908
1.234
1.22885
1.224
1.2189
1.21354
1.20837
1.20341
1.1981
1.19277
1.18778
1.1829
1.17746
1.71988
1.71173
1.70587
1.69631
1.68608
1.6797
1.67136
1.66024
1.65425
1.6483
1.6384
1.63191
1.62721
1.61913
1.61072
1.60586
1.59954
1.58982
1.58432
1.57944
1.57101
1.56388
1.55954
1.55349
1.54414
1.53807
1.5322
1.52368
1.51342
1.50665
1.49961
1.49024
1.48005
1.47375
1.46712
1.45863
1.44879
1.44278
1.43671
1.42919
1.41982
1.41395
1.40853
1.4019
1.39383
1.38838
1.3832
1.37711
1.36967
1.36431
1.35952
1.35397
1.34751
1.34294
1.33876
1.33399
1.32872
1.32481
1.32105
1.31693
1.31253
1.30903
1.30578
1.30219
1.29887
1.29604
1.2931
1.28983
1.28655
1.28329
1.27981
1.27612
1.27234
1.26818
1.26359
1.25884
1.25372
1.24837
1.24325
1.23802
1.23256
1.22725
1.22213
1.21673
1.21104
1.20551
1.20014
1.19436
1.73748
1.72938
1.72287
1.71237
1.70236
1.69578
1.68679
1.6761
1.67046
1.66411
1.65404
1.64807
1.64306
1.63415
1.62638
1.62159
1.61455
1.60529
1.6006
1.59559
1.58673
1.5809
1.57651
1.56948
1.56057
1.55475
1.54843
1.53905
1.52943
1.52292
1.51579
1.50581
1.49632
1.4903
1.48356
1.47443
1.46509
1.45941
1.4533
1.44534
1.43648
1.43116
1.42574
1.41881
1.41064
1.40534
1.40013
1.39381
1.3863
1.38132
1.37663
1.371
1.36438
1.35991
1.35569
1.35062
1.34516
1.3412
1.33715
1.3328
1.32841
1.3249
1.32157
1.318
1.31476
1.31209
1.30932
1.30615
1.30298
1.29996
1.2968
1.29339
1.28991
1.28628
1.28229
1.27799
1.27329
1.26818
1.26301
1.25762
1.25195
1.24648
1.24114
1.23563
1.22989
1.22419
1.21865
1.21276
1.75763
1.74955
1.74235
1.73096
1.72115
1.71425
1.7045
1.69433
1.68882
1.68191
1.6718
1.66608
1.66057
1.65089
1.64376
1.63895
1.63109
1.62274
1.61858
1.61308
1.60415
1.59914
1.59434
1.58611
1.57804
1.57195
1.56489
1.55517
1.54629
1.53952
1.53229
1.52217
1.51313
1.50715
1.50034
1.49071
1.48177
1.47643
1.47046
1.46207
1.45373
1.44894
1.4436
1.43621
1.42841
1.42346
1.41816
1.41142
1.40412
1.39932
1.3944
1.38851
1.38182
1.37715
1.37257
1.3672
1.36124
1.35695
1.3527
1.34825
1.34345
1.3399
1.3366
1.33298
1.32954
1.32699
1.32449
1.32151
1.31871
1.31633
1.31384
1.31093
1.30774
1.30437
1.30067
1.29667
1.29238
1.28776
1.28293
1.27784
1.27239
1.26686
1.2612
1.25528
1.24923
1.24316
1.23717
1.23108
1.77867
1.77072
1.76295
1.75101
1.74165
1.73447
1.72402
1.71447
1.70878
1.70101
1.69098
1.68539
1.67926
1.66912
1.66265
1.65766
1.64907
1.64173
1.63768
1.63139
1.62271
1.61794
1.61252
1.60315
1.59578
1.58942
1.58137
1.5718
1.56366
1.55607
1.54881
1.53901
1.52983
1.52373
1.51699
1.50716
1.49833
1.49319
1.48733
1.47867
1.47087
1.46631
1.46095
1.45317
1.44555
1.44072
1.43537
1.42824
1.421
1.4164
1.41144
1.40527
1.39851
1.39393
1.38916
1.3834
1.37714
1.37273
1.36825
1.3635
1.35855
1.35486
1.35121
1.34738
1.34361
1.3405
1.3375
1.33413
1.33122
1.32918
1.32731
1.32507
1.32261
1.32005
1.31715
1.31386
1.31027
1.30634
1.30209
1.29751
1.29252
1.28726
1.28171
1.27579
1.26967
1.26336
1.2569
1.25051
1.79916
1.79141
1.78314
1.77104
1.76237
1.75501
1.74413
1.73532
1.72938
1.72068
1.71096
1.70538
1.69858
1.68838
1.68263
1.67743
1.66838
1.662
1.6578
1.65056
1.64232
1.63745
1.63123
1.62118
1.61419
1.60772
1.59838
1.58933
1.58215
1.57341
1.56552
1.55696
1.5472
1.54027
1.53384
1.52435
1.51537
1.51034
1.50467
1.49591
1.48833
1.48395
1.47862
1.47052
1.4632
1.45849
1.45305
1.44554
1.43849
1.43387
1.42869
1.4221
1.4152
1.41049
1.40542
1.39941
1.39283
1.38815
1.38346
1.37836
1.37261
1.36871
1.36495
1.36089
1.35676
1.35372
1.35074
1.34736
1.34449
1.34235
1.34027
1.33759
1.33472
1.33218
1.32975
1.32729
1.32474
1.3219
1.31866
1.315
1.31091
1.30637
1.30131
1.29576
1.28987
1.28367
1.27715
1.27063
1.81789
1.81057
1.8019
1.79006
1.78215
1.77463
1.76361
1.75562
1.74945
1.74004
1.73101
1.72546
1.71794
1.7082
1.70306
1.69754
1.68836
1.68274
1.6782
1.67008
1.66237
1.65721
1.65006
1.63988
1.63304
1.62637
1.61621
1.60737
1.60084
1.59191
1.58225
1.57534
1.56579
1.55706
1.55103
1.54242
1.5331
1.52802
1.52261
1.51403
1.50636
1.50193
1.49652
1.48817
1.48099
1.47635
1.47084
1.46303
1.45611
1.45145
1.44606
1.43902
1.43197
1.42715
1.42183
1.41543
1.40863
1.40388
1.39898
1.3935
1.38737
1.38287
1.37841
1.3737
1.36843
1.36458
1.36123
1.35761
1.35432
1.35202
1.34992
1.34702
1.34414
1.34193
1.33998
1.338
1.33599
1.33388
1.33154
1.32894
1.32602
1.32261
1.31848
1.3136
1.30813
1.30228
1.29624
1.29017
1.83419
1.82739
1.81849
1.80752
1.80041
1.79267
1.78175
1.77456
1.7682
1.75831
1.75031
1.74487
1.73677
1.72794
1.72323
1.71724
1.70825
1.70322
1.69828
1.68946
1.68237
1.67695
1.66888
1.65906
1.65241
1.64525
1.63474
1.62613
1.61949
1.61068
1.5998
1.59327
1.58515
1.57469
1.56837
1.561
1.55139
1.54578
1.5407
1.53252
1.52465
1.52001
1.51447
1.50587
1.49861
1.49402
1.48848
1.48051
1.47372
1.46894
1.4633
1.45575
1.44852
1.44345
1.43783
1.43105
1.42391
1.41894
1.41378
1.40785
1.40123
1.39649
1.39169
1.38655
1.3808
1.37638
1.37247
1.3683
1.36378
1.35976
1.35617
1.35222
1.34904
1.34716
1.34578
1.3442
1.34261
1.34125
1.33984
1.33821
1.33631
1.33388
1.33082
1.32712
1.32287
1.31824
1.31338
1.30832
1.84867
1.84218
1.83299
1.82313
1.81671
1.80881
1.79848
1.79202
1.78543
1.77535
1.76847
1.76314
1.7546
1.74699
1.7425
1.73589
1.72741
1.72281
1.71741
1.70826
1.70182
1.69618
1.68729
1.67814
1.67163
1.66395
1.65323
1.6451
1.638
1.62874
1.61802
1.61124
1.60382
1.59303
1.58618
1.57995
1.57042
1.56384
1.55895
1.55117
1.54306
1.5382
1.53258
1.52393
1.51644
1.51169
1.50602
1.49787
1.49113
1.48625
1.4804
1.47251
1.46505
1.45963
1.45368
1.44645
1.43905
1.43385
1.42835
1.4219
1.41463
1.40922
1.40382
1.39795
1.39127
1.38631
1.38188
1.37699
1.37165
1.36708
1.3628
1.35833
1.35488
1.35245
1.35068
1.34868
1.34681
1.34555
1.3445
1.34309
1.34124
1.33888
1.33592
1.33308
1.33068
1.32834
1.32566
1.32245
1.86214
1.85585
1.84634
1.83751
1.83148
1.82323
1.81379
1.80799
1.8012
1.79142
1.78552
1.78015
1.77134
1.76494
1.76052
1.75321
1.74555
1.74121
1.73525
1.72623
1.72047
1.71459
1.70511
1.69672
1.69017
1.68189
1.67117
1.66349
1.65605
1.64606
1.63588
1.62905
1.62157
1.61102
1.60409
1.59835
1.58928
1.58182
1.57689
1.56934
1.56078
1.55557
1.54993
1.54135
1.53382
1.5289
1.52302
1.51455
1.50757
1.5025
1.49644
1.48826
1.48084
1.4752
1.46893
1.46117
1.45352
1.44804
1.44216
1.43531
1.42787
1.42207
1.41613
1.4097
1.40237
1.39631
1.39063
1.3846
1.37747
1.37168
1.36728
1.36293
1.35912
1.35619
1.35414
1.35165
1.34954
1.34809
1.347
1.34549
1.34315
1.34057
1.33835
1.33662
1.33544
1.3343
1.33275
1.33084
1.87493
1.86878
1.85921
1.85136
1.84549
1.83681
1.82828
1.82298
1.81585
1.80677
1.80165
1.79608
1.78725
1.78182
1.77731
1.76942
1.76279
1.75856
1.75187
1.74338
1.73815
1.73196
1.72216
1.71447
1.70776
1.69874
1.68823
1.68084
1.67317
1.66271
1.65319
1.6464
1.63864
1.6283
1.62169
1.61602
1.60735
1.59938
1.59426
1.58694
1.57795
1.57234
1.56664
1.5581
1.55055
1.54542
1.53936
1.53088
1.52362
1.51821
1.51187
1.50333
1.49581
1.49001
1.48359
1.47556
1.46763
1.46174
1.45545
1.44796
1.44001
1.43392
1.42763
1.42052
1.41265
1.40626
1.4
1.39342
1.38621
1.38025
1.37535
1.37061
1.36582
1.36157
1.35859
1.35547
1.35266
1.35021
1.34814
1.34551
1.34234
1.33972
1.33884
1.33831
1.33762
1.3367
1.33573
1.33445
1.88797
1.88168
1.87192
1.86489
1.85911
1.85015
1.84254
1.83749
1.82999
1.82188
1.81727
1.81126
1.80265
1.79796
1.79324
1.78503
1.77949
1.77527
1.76783
1.76014
1.7551
1.74837
1.73855
1.73143
1.72445
1.71469
1.70455
1.69724
1.68926
1.67848
1.66987
1.66323
1.65514
1.64511
1.63884
1.63292
1.62411
1.61621
1.61088
1.6036
1.5943
1.58836
1.58252
1.57394
1.56639
1.56108
1.55483
1.5462
1.53887
1.53321
1.52658
1.51783
1.51024
1.50423
1.49751
1.48918
1.48134
1.47515
1.46845
1.46063
1.45248
1.44584
1.43898
1.43144
1.42292
1.41573
1.40895
1.40205
1.39423
1.38842
1.38378
1.37878
1.3731
1.36815
1.36432
1.36013
1.35613
1.35268
1.35018
1.34697
1.34348
1.34154
1.34091
1.34019
1.33922
1.33832
1.33761
1.3365
1.90186
1.89533
1.88535
1.87877
1.87291
1.86372
1.857
1.85203
1.84409
1.83695
1.83265
1.82617
1.81816
1.81393
1.8088
1.80061
1.79607
1.79176
1.78376
1.77694
1.77175
1.76416
1.75447
1.74772
1.74045
1.73015
1.72063
1.71331
1.70491
1.69393
1.68613
1.67959
1.67117
1.66165
1.65562
1.64939
1.64029
1.63253
1.62695
1.61954
1.61015
1.60403
1.59804
1.58943
1.58175
1.57625
1.56986
1.56123
1.55386
1.54798
1.54116
1.53225
1.52462
1.51847
1.51159
1.50297
1.495
1.48859
1.48164
1.47337
1.46515
1.4585
1.45149
1.44364
1.43531
1.42836
1.42146
1.4144
1.40668
1.4004
1.39482
1.38897
1.38241
1.37643
1.37156
1.36657
1.36148
1.35612
1.35269
1.34926
1.34617
1.34461
1.34392
1.34286
1.34125
1.33986
1.339
1.33806
1.91691
1.91006
1.89987
1.8935
1.88739
1.87809
1.87207
1.86704
1.8587
1.85236
1.84813
1.84112
1.83404
1.83023
1.82455
1.81674
1.81286
1.8083
1.80007
1.79408
1.78857
1.78003
1.77058
1.76379
1.75603
1.74531
1.73663
1.72944
1.72066
1.7099
1.70269
1.69599
1.68704
1.67812
1.67223
1.66559
1.65616
1.64874
1.64289
1.63518
1.62576
1.61958
1.6134
1.60468
1.597
1.59134
1.58477
1.57605
1.5688
1.56277
1.55576
1.54684
1.5393
1.53298
1.52587
1.51715
1.50924
1.50253
1.49527
1.48673
1.47833
1.47145
1.46434
1.45645
1.44809
1.44136
1.43472
1.42767
1.41968
1.4134
1.40765
1.40143
1.39433
1.38816
1.38294
1.37733
1.37121
1.36538
1.3611
1.35684
1.35349
1.35047
1.34849
1.34649
1.34379
1.34147
1.33997
1.33863
1.93365
1.92637
1.91601
1.90974
1.90317
1.89363
1.88809
1.88288
1.87428
1.86849
1.8641
1.85658
1.8506
1.84718
1.84108
1.83407
1.83045
1.82515
1.81675
1.81134
1.80552
1.79628
1.78741
1.7804
1.77195
1.76089
1.75288
1.74575
1.73662
1.72657
1.71987
1.71292
1.70338
1.69495
1.6889
1.68175
1.6721
1.6651
1.65907
1.65104
1.6418
1.63557
1.62913
1.62027
1.61247
1.60671
1.6
1.59127
1.58421
1.5781
1.57099
1.56204
1.55457
1.54815
1.54088
1.53206
1.52432
1.51756
1.51017
1.50142
1.49315
1.48631
1.47921
1.47133
1.46349
1.45711
1.45052
1.44332
1.43527
1.4285
1.42204
1.41529
1.40771
1.40111
1.39547
1.38952
1.38287
1.3762
1.37197
1.36796
1.36375
1.35957
1.35721
1.35435
1.35045
1.34729
1.34535
1.34366
1.95269
1.94479
1.93424
1.92796
1.92082
1.91096
1.90553
1.89993
1.89124
1.88599
1.88126
1.87316
1.86798
1.86476
1.85838
1.85265
1.84919
1.84304
1.83458
1.8291
1.82261
1.81272
1.80463
1.79756
1.78852
1.77759
1.77007
1.76273
1.75306
1.74385
1.73747
1.73024
1.72036
1.71251
1.70615
1.6983
1.68845
1.68178
1.67556
1.66722
1.65842
1.65224
1.64552
1.63643
1.6286
1.62263
1.61571
1.607
1.60018
1.59411
1.58692
1.57802
1.5707
1.56407
1.55658
1.54773
1.54018
1.53341
1.52601
1.51731
1.50921
1.5023
1.49517
1.4871
1.47933
1.47326
1.46685
1.45972
1.45191
1.44536
1.43883
1.43187
1.42405
1.4177
1.41212
1.40614
1.39953
1.39323
1.38815
1.38298
1.37748
1.37147
1.36737
1.3632
1.35877
1.35446
1.35275
1.35124
1.97455
1.96596
1.95515
1.94871
1.94101
1.93082
1.92504
1.91859
1.90965
1.90497
1.90012
1.89195
1.88737
1.88375
1.8767
1.87188
1.86853
1.86173
1.85379
1.84805
1.84058
1.82999
1.82237
1.81516
1.80559
1.79543
1.78832
1.78065
1.77034
1.76183
1.75543
1.74774
1.73776
1.73052
1.72394
1.71542
1.70567
1.69915
1.69258
1.68384
1.6755
1.66941
1.66251
1.65336
1.6456
1.63939
1.63214
1.62331
1.61672
1.61073
1.60354
1.59486
1.58772
1.58092
1.57321
1.56422
1.55691
1.5502
1.54285
1.53437
1.52672
1.51986
1.51266
1.50437
1.49665
1.49053
1.48408
1.47685
1.4693
1.46299
1.45648
1.44949
1.44162
1.43528
1.42957
1.42354
1.4167
1.41039
1.40521
1.39971
1.39359
1.38721
1.38269
1.37814
1.37349
1.36845
1.36548
1.3626
1.99911
1.98996
1.9788
1.97193
1.96375
1.95368
1.9476
1.94012
1.93039
1.9256
1.92037
1.91257
1.90886
1.90488
1.89723
1.89264
1.88877
1.88111
1.87384
1.86796
1.8596
1.84883
1.84132
1.83364
1.8233
1.81409
1.80727
1.79926
1.78862
1.78066
1.7739
1.76541
1.75542
1.74871
1.74196
1.73295
1.72367
1.71717
1.7102
1.70101
1.69312
1.68704
1.67992
1.6708
1.66333
1.65691
1.64934
1.64041
1.63389
1.62786
1.62057
1.61216
1.60533
1.59849
1.59061
1.58155
1.57433
1.56756
1.56023
1.55195
1.54482
1.53815
1.53095
1.52252
1.51484
1.50857
1.50201
1.49464
1.48736
1.48137
1.47499
1.46796
1.46012
1.45389
1.44805
1.44189
1.43499
1.42897
1.42364
1.41788
1.41143
1.40469
1.39969
1.39478
1.38973
1.38416
1.3803
1.37659
2.02523
2.01626
2.00517
1.99754
1.98861
1.97846
1.97243
1.96463
1.95486
1.94944
1.94296
1.93494
1.93175
1.9276
1.92004
1.91553
1.91069
1.90186
1.8948
1.88865
1.87954
1.86931
1.86187
1.85357
1.84232
1.8337
1.82673
1.81811
1.80753
1.80012
1.79295
1.78354
1.77366
1.76713
1.76007
1.75064
1.74211
1.73568
1.72832
1.71875
1.71119
1.70496
1.69755
1.68852
1.68147
1.67493
1.66708
1.65811
1.65162
1.64544
1.63797
1.62985
1.62332
1.61655
1.60863
1.59967
1.59256
1.58571
1.57827
1.57006
1.56335
1.55678
1.54953
1.54103
1.53347
1.52696
1.52021
1.51259
1.50563
1.49995
1.49373
1.48677
1.47914
1.47284
1.46661
1.4601
1.45282
1.44703
1.44185
1.43621
1.42978
1.42341
1.41834
1.4131
1.40746
1.4013
1.39679
1.39225
2.04932
2.04184
2.0323
2.02474
2.01553
2.00485
1.99832
1.9904
1.98143
1.97605
1.9687
1.96004
1.95644
1.95159
1.94436
1.94015
1.93456
1.92495
1.91764
1.91072
1.9006
1.89107
1.8837
1.87479
1.86311
1.85472
1.84714
1.83744
1.82701
1.81994
1.81241
1.80231
1.7929
1.78623
1.77861
1.76865
1.76073
1.75425
1.74652
1.73685
1.72968
1.72326
1.71551
1.7066
1.69989
1.69324
1.68514
1.67633
1.66983
1.66341
1.6557
1.64781
1.64157
1.63491
1.62689
1.61819
1.61113
1.60408
1.59639
1.5883
1.58201
1.57559
1.56846
1.56018
1.55277
1.54594
1.53879
1.53056
1.5237
1.51815
1.51199
1.50501
1.49782
1.49168
1.48526
1.47846
1.47097
1.46535
1.46014
1.45452
1.44818
1.44221
1.43705
1.43153
1.42535
1.4187
1.41374
1.40873
2.0683
2.06226
2.05513
2.04932
2.0417
2.03198
2.02484
2.01639
2.00776
2.00292
1.99584
1.9875
1.98326
1.97726
1.96975
1.96554
1.95941
1.94985
1.94253
1.93476
1.92361
1.91439
1.90672
1.897
1.88536
1.87698
1.86868
1.85783
1.84763
1.84051
1.83242
1.82167
1.81294
1.80593
1.79764
1.78734
1.77984
1.77315
1.76492
1.7552
1.74831
1.74172
1.73357
1.72501
1.71869
1.71196
1.70368
1.69512
1.68852
1.68173
1.67358
1.66593
1.65993
1.65335
1.64544
1.63724
1.63021
1.62297
1.61476
1.60633
1.60015
1.59376
1.58666
1.57883
1.57207
1.56524
1.55786
1.54927
1.54232
1.5365
1.53019
1.523
1.51614
1.51013
1.50366
1.49656
1.48894
1.48343
1.47806
1.47235
1.46595
1.46041
1.45524
1.44954
1.44303
1.43619
1.43087
1.42546
2.08254
2.07761
2.07131
2.06689
2.06185
2.05518
2.04928
2.04115
2.0323
2.02771
2.02145
2.01437
2.01042
2.00396
1.99615
1.99145
1.98461
1.97536
1.9683
1.96005
1.94846
1.93926
1.93094
1.92011
1.9087
1.90026
1.89124
1.87947
1.86964
1.86208
1.85326
1.84219
1.83388
1.82641
1.81734
1.80683
1.79965
1.79269
1.78395
1.77448
1.76769
1.76072
1.75187
1.74349
1.73739
1.73065
1.72234
1.71441
1.70781
1.70066
1.69198
1.6843
1.67822
1.67155
1.66361
1.65607
1.64936
1.64212
1.63367
1.62528
1.61883
1.61216
1.60477
1.59696
1.59052
1.58377
1.57623
1.56748
1.56063
1.55453
1.54798
1.54053
1.53412
1.52832
1.52193
1.51473
1.50735
1.50175
1.49602
1.48991
1.48327
1.47787
1.47249
1.46661
1.4599
1.45313
1.44759
1.44197
2.0905
2.08778
2.08348
2.07891
2.07448
2.07024
2.06697
2.06139
2.05367
2.04899
2.04324
2.03731
2.0345
2.02901
2.02182
2.0168
2.00922
2.00008
1.99338
1.98507
1.97388
1.9649
1.95596
1.94412
1.93284
1.92411
1.91434
1.9021
1.89278
1.88479
1.87523
1.86413
1.85591
1.84785
1.83774
1.82718
1.82003
1.81267
1.80338
1.79449
1.78782
1.78051
1.77113
1.76285
1.75656
1.74949
1.74086
1.73353
1.72707
1.7198
1.71098
1.70344
1.69712
1.6902
1.68199
1.67479
1.66819
1.6608
1.65197
1.64371
1.63697
1.63004
1.62237
1.61495
1.60885
1.60217
1.59462
1.586
1.57901
1.5724
1.56536
1.55737
1.55123
1.54561
1.53936
1.53211
1.52527
1.51965
1.51362
1.50698
1.50009
1.49469
1.48894
1.48276
1.47592
1.46934
1.4636
1.45783
2.09376
2.09329
2.09101
2.08802
2.08379
2.07897
2.0769
2.07396
2.06903
2.06585
2.06087
2.05514
2.05298
2.04885
2.04314
2.03896
2.03196
2.0233
2.0166
2.00785
1.99696
1.98862
1.9798
1.96794
1.95734
1.94843
1.93791
1.92544
1.91623
1.90773
1.89728
1.8867
1.87871
1.87018
1.8594
1.84893
1.84129
1.83325
1.82325
1.81487
1.80822
1.80053
1.79075
1.78279
1.77623
1.76877
1.75982
1.75281
1.74637
1.73886
1.72983
1.72248
1.71586
1.70847
1.70007
1.69333
1.68679
1.67938
1.67059
1.66246
)
;

boundaryField
{
    inlet
    {
        type            calculated;
        value           nonuniform 0();
    }
    outlet
    {
        type            calculated;
        value           nonuniform 0();
    }
    bottom
    {
        type            symmetryPlane;
    }
    top
    {
        type            symmetryPlane;
    }
    obstacle
    {
        type            calculated;
        value           nonuniform 0();
    }
    front
    {
        type            empty;
    }
    back
    {
        type            empty;
    }
    procBoundary28to13
    {
        type            processor;
        value           nonuniform List<scalar> 
16
(
1.12263
1.13116
1.14301
1.1565
1.17213
1.18847
1.20658
1.22478
1.24401
1.26409
1.28398
1.3029
1.31843
1.32827
1.33271
1.33443
)
;
    }
    procBoundary28to20
    {
        type            processor;
        value           nonuniform List<scalar> 
89
(
1.42389
1.41876
1.40997
1.40264
1.39867
1.39297
1.38322
1.37797
1.3738
1.36739
1.35685
1.35082
1.34613
1.33945
1.32891
1.32304
1.31935
1.31382
1.30532
1.30144
1.2985
1.29262
1.2866
1.28345
1.27884
1.27269
1.26856
1.26465
1.25921
1.25383
1.24978
1.24541
1.24034
1.23537
1.23108
1.22683
1.2225
1.21846
1.21465
1.21083
1.2071
1.2033
1.19919
1.1952
1.19139
1.18734
1.18336
1.17955
1.17558
1.1717
1.16813
1.16448
1.16063
1.15706
1.15344
1.14965
1.14592
1.14234
1.13853
1.13486
1.13157
1.1282
1.12467
1.12156
1.11867
1.64802
1.63559
1.62861
1.61992
1.60671
1.59838
1.59086
1.57907
1.56928
1.56273
1.55447
1.54373
1.53735
1.5314
1.52226
1.51411
1.50834
1.50141
1.49134
1.48455
1.47848
1.46957
1.46044
1.46044
)
;
    }
    procBoundary28to21
    {
        type            processor;
        value           nonuniform List<scalar> 
11
(
1.33635
1.33741
1.34192
1.34913
1.35931
1.37242
1.38726
1.40327
1.41962
1.43589
1.45163
)
;
    }
    procBoundary28to27
    {
        type            processor;
        value           nonuniform List<scalar> 
26
(
1.67749
1.69131
1.7024
1.71465
1.7294
1.74755
1.76812
1.78943
1.80993
1.82813
1.84368
1.85737
1.86994
1.8819
1.89448
1.90804
1.92297
1.9399
1.95947
1.98196
2.00697
2.03287
2.05577
2.07397
2.08601
2.09189
)
;
    }
    procBoundary28to35
    {
        type            processor;
        value           uniform 2.0945;
    }
    procBoundary28to36
    {
        type            processor;
        value           nonuniform List<scalar> 
89
(
1.65518
1.64768
1.63912
1.63168
1.62574
1.61919
1.61174
1.60378
1.59701
1.59011
1.5826
1.57417
1.56808
1.56238
1.55606
1.54869
1.54235
1.53672
1.53048
1.52332
1.51625
1.51067
1.5045
1.49785
1.49085
1.48455
1.47858
1.47273
2.09686
2.095
2.09491
2.09386
2.09066
2.08636
2.08345
2.08052
2.07761
2.07633
2.07328
2.06898
2.06713
2.06303
2.05789
2.05502
2.04953
2.04238
2.03648
2.02814
2.01757
2.00926
2.00018
1.98847
1.97911
1.97086
1.96039
1.9486
1.93955
1.93044
1.91908
1.90872
1.90073
1.89189
1.88083
1.87111
1.86315
1.85434
1.84375
1.83577
1.82888
1.82078
1.81084
1.803
1.796
1.78782
1.77848
1.77178
1.76526
1.75752
1.74866
1.74148
1.73449
1.72648
1.71754
1.7108
1.70416
1.69656
1.68796
1.65518
1.68042
)
;
    }
}


// ************************************************************************* //
