/*--------------------------------*- C++ -*----------------------------------*\
  =========                 |
  \\      /  F ield         | OpenFOAM: The Open Source CFD Toolbox
   \\    /   O peration     | Website:  https://openfoam.org
    \\  /    A nd           | Version:  7
     \\/     M anipulation  |
\*---------------------------------------------------------------------------*/
FoamFile
{
    version     2.0;
    format      ascii;
    class       volVectorField;
    location    "11.5";
    object      U;
}
// * * * * * * * * * * * * * * * * * * * * * * * * * * * * * * * * * * * * * //

dimensions      [0 1 -1 0 0 0 0];

internalField   nonuniform List<vector> 
2413
(
(2 1.30797e-15 0)
(2 1.44505e-15 0)
(2 1.89013e-15 0)
(2 1.98677e-15 0)
(2 2.31128e-15 0)
(2 2.35946e-15 0)
(2 2.48644e-15 0)
(2 2.53891e-15 0)
(2 2.57131e-15 0)
(2 2.76839e-15 0)
(2 3.17501e-15 0)
(2 3.48922e-15 0)
(2 3.6079e-15 0)
(2 3.02304e-15 0)
(2 2.04382e-15 0)
(2 1.8007e-15 0)
(2 1.8144e-15 0)
(2 1.82659e-15 0)
(2 1.89278e-15 0)
(2 1.78033e-15 0)
(2 1.53036e-15 0)
(2 -6.42942e-16 0)
(2 -4.60492e-16 0)
(2 -2.3608e-16 0)
(2 -1.90509e-16 0)
(2 -2.98854e-16 0)
(2 -1.41422e-15 0)
(2 -1.69508e-15 0)
(2 -1.95205e-15 0)
(2 -1.38588e-15 0)
(2 -9.05682e-16 0)
(2 -1.09448e-15 0)
(2 -1.15009e-15 0)
(2 -1.31826e-15 0)
(2 -1.23387e-15 0)
(2 -9.51516e-16 0)
(2 -6.59774e-16 0)
(2 -3.16112e-16 0)
(2 -2.28337e-16 0)
(2 -5.20422e-18 0)
(2 1.37445e-16 0)
(2 -1.9794e-16 0)
(2 -6.12659e-16 0)
(2 -1.12283e-15 0)
(2 -1.19422e-15 0)
(2 -1.38927e-15 0)
(2 -1.39892e-15 0)
(2 -1.19863e-15 0)
(2 -1.10444e-15 0)
(2 -2.98516e-16 0)
(2 6.40633e-17 0)
(2 7.29465e-16 0)
(2 9.73663e-16 0)
(2 1.05895e-15 0)
(2 2.87538e-16 0)
(2 2.00028e-16 0)
(2 3.10779e-16 0)
(2 6.93034e-16 0)
(2 9.54836e-16 0)
(2 8.67556e-16 0)
(2 8.77291e-16 0)
(2 8.82434e-16 0)
(2 6.85841e-16 0)
(2 1.33981e-16 0)
(2 -4.46735e-16 0)
(2 -8.17496e-16 0)
(2 -9.10855e-16 0)
(2 -8.45858e-16 0)
(2 -8.60635e-16 0)
(2 -9.03913e-16 0)
(2 -1.00454e-15 0)
(2 -1.03395e-15 0)
(2 -9.90016e-16 0)
(2 -1.02693e-15 0)
(2 -1.29159e-15 0)
(2 -1.36106e-15 0)
(2 -1.41783e-15 0)
(2 -1.47185e-15 0)
(2 -1.51228e-15 0)
(2 -1.45366e-15 0)
(2 -1.4946e-15 0)
(2 -1.73642e-15 0)
(2 -1.36362e-15 0)
(2 -9.71388e-16 0)
(2 -7.82349e-16 0)
(2 -3.04114e-16 0)
(2 1.71951e-16 0)
(2 3.29147e-16 0)
(2 2.2173e-16 0)
(2 6.36772e-17 0)
(2 -1.05073e-17 0)
(2 1.523e-16 0)
(2 2.6657e-16 0)
(2 3.66793e-16 0)
(2 4.43482e-16 0)
(2 3.74463e-16 0)
(2 2.88761e-16 0)
(2 1.62319e-16 0)
(2 -1.32728e-16 0)
(2 -1.77657e-16 0)
(2 1.97481e-16 0)
(2 1.66651e-16 0)
(2 1.36646e-16 0)
(2 -3.12759e-16 0)
(2 -2.8864e-16 0)
(2 -2.27799e-16 0)
(2 -4.09659e-16 0)
(2 -9.67089e-16 0)
(2 -1.4093e-15 0)
(2 -1.00698e-15 0)
(2 -7.44255e-16 0)
(2 -7.28667e-16 0)
(2 -8.14559e-16 0)
(2 -1.01457e-15 0)
(2 -1.23023e-15 0)
(2 -1.3454e-15 0)
(2 -1.445e-15 0)
(2 -1.32167e-15 0)
(2 -1.10806e-15 0)
(2 -8.07733e-16 0)
(2 -3.89375e-16 0)
(2 3.35522e-16 0)
(2 5.71695e-16 0)
(2 5.47115e-16 0)
(2 4.94755e-16 0)
(2 4.44678e-16 0)
(2 3.54642e-16 0)
(2 1.00338e-15 0)
(2 9.95547e-16 0)
(2 9.01167e-16 0)
(2 7.85588e-16 0)
(2 9.99793e-16 0)
(2 1.18988e-15 0)
(2 1.24775e-15 0)
(2 1.3759e-15 0)
(2 1.42089e-15 0)
(2 1.47546e-15 0)
(2 1.53058e-15 0)
(2 1.56166e-15 0)
(2 1.71731e-15 0)
(2 1.7733e-15 0)
(2 1.94664e-15 0)
(2 2.03947e-15 0)
(2 2.11995e-15 0)
(2 1.8363e-15 0)
(2 9.66648e-16 0)
(2 6.44106e-16 0)
(2 6.73528e-16 0)
(2 3.45095e-16 0)
(2 4.95365e-16 0)
(2 6.94833e-16 0)
(2 7.24726e-16 0)
(2 8.16047e-16 0)
(2 -4.67471e-17 0)
(2 4.40496e-16 0)
(2 3.37059e-16 0)
(2 -2.02273e-16 0)
(2 -3.07076e-16 0)
(2 -4.80445e-16 0)
(2 -5.23294e-16 0)
(2 -8.27575e-16 0)
(2 -2.06195e-15 0)
(2 -2.68316e-15 0)
(2 -2.93408e-15 0)
(2 -2.93444e-15 0)
(2 -2.92376e-15 0)
(2 -2.77854e-15 0)
(2 -2.79901e-15 0)
(2 -2.70747e-15 0)
(2 -2.3259e-15 0)
(2 -2.30238e-15 0)
(2 -1.96358e-15 0)
(2 -1.63368e-15 0)
(2 -1.40858e-15 0)
(2 -1.26815e-15 0)
(2 -1.2044e-15 0)
(2 -1.12647e-15 0)
(2 -1.23894e-15 0)
(2 -1.28931e-15 0)
(2 -1.36193e-15 0)
(2 -1.37509e-15 0)
(2 -1.51567e-15 0)
(2 -1.54018e-15 0)
(2 -1.49225e-15 0)
(2 -1.36719e-15 0)
(2 -1.03291e-15 0)
(2 -7.7903e-16 0)
(2 -6.83848e-16 0)
(2 -1.00285e-15 0)
(2 -1.30388e-15 0)
(2 -1.26048e-15 0)
(2 -1.11092e-15 0)
(2 -9.38598e-16 0)
(2 -1.0938e-15 0)
(2 -1.18758e-15 0)
(2 -1.27249e-15 0)
(2 -1.63563e-15 0)
(2 -2.16116e-15 0)
(2 -2.25517e-15 0)
(2 -2.28289e-15 0)
(2 -2.39185e-15 0)
(2 -2.9835e-15 0)
(2 -3.02838e-15 0)
(2 -2.90387e-15 0)
(2 -2.45278e-15 0)
(2 -1.68056e-15 0)
(2 -9.89744e-16 0)
(2 -9.40911e-16 0)
(2 -1.00786e-15 0)
(2 -1.19242e-15 0)
(2 -1.22596e-15 0)
(2 -1.25609e-15 0)
(2 -1.34515e-15 0)
(2 -1.48026e-15 0)
(2 -1.58256e-15 0)
(2 -1.72315e-15 0)
(2 -1.94734e-15 0)
(2 -2.11046e-15 0)
(2 -2.33716e-15 0)
(2 -2.61558e-15 0)
(2 -2.61544e-15 0)
(2 -2.53292e-15 0)
(2 -2.44351e-15 0)
(2 -2.48192e-15 0)
(2 -2.69458e-15 0)
(2 -1.7011e-15 0)
(2 -1.06172e-15 0)
(2 -9.2869e-16 0)
(2 -1.02182e-15 0)
(2 -2.38983e-16 0)
(2 1.68396e-17 0)
(2 3.01667e-16 0)
(2 7.1576e-16 0)
(2 1.1576e-15 0)
(2 3.29382e-16 0)
(2 -3.57849e-16 0)
(2 -7.6836e-16 0)
(2 -1.24576e-15 0)
(2 -1.12966e-15 0)
(2 -1.04972e-15 0)
(2 -4.81148e-16 0)
(2 1.04768e-17 0)
(2 2.81058e-16 0)
(2 2.99885e-16 0)
(2 1.47642e-16 0)
(2 3.70853e-16 0)
(2 5.54339e-16 0)
(2 6.41892e-16 0)
(2 7.48655e-16 0)
(2 1.04997e-15 0)
(2 1.16451e-15 0)
(2 1.10806e-15 0)
(2 9.06101e-16 0)
(2 1.15242e-15 0)
(2 1.40764e-15 0)
(2 1.21022e-15 0)
(2 1.08035e-15 0)
(2 9.41139e-16 0)
(2 1.11408e-15 0)
(2 1.30002e-15 0)
(2 1.36646e-15 0)
(2 1.66276e-15 0)
(2 1.70169e-15 0)
(2 1.52898e-15 0)
(2 1.20676e-15 0)
(2 7.86142e-16 0)
(2 5.6636e-16 0)
(2 4.11279e-16 0)
(2 3.77434e-16 0)
(2 2.21246e-16 0)
(2 -8.00469e-17 0)
(2 2.09236e-16 0)
(2 6.59771e-16 0)
(2 8.13376e-16 0)
(2 1.00963e-15 0)
(2 1.18141e-15 0)
(2 1.40342e-15 0)
(2 1.72198e-15 0)
(2 1.61904e-15 0)
(2 1.53556e-15 0)
(2 1.05477e-15 0)
(2 1.03531e-15 0)
(2 1.03172e-15 0)
(2 5.25381e-16 0)
(2 1.50195e-15 0)
(2 2.76729e-16 0)
(2 2.46481e-16 0)
(2 9.44247e-16 0)
(2 1.52465e-15 0)
(2 1.50238e-15 0)
(2 1.30625e-15 0)
(2 1.12302e-15 0)
(2 6.67112e-16 0)
(2 1.80892e-16 0)
(2 -4.37578e-16 0)
(2 -1.40999e-15 0)
(2 -1.64329e-15 0)
(2 -1.83576e-15 0)
(2 -1.92124e-15 0)
(2 -2.08831e-15 0)
(2 -2.36196e-15 0)
(2 -3.01309e-15 0)
(2 -3.25709e-15 0)
(2 -2.90152e-15 0)
(2 -2.65743e-15 0)
(2 -2.44042e-15 0)
(2 -1.98056e-15 0)
(2 -2.13477e-15 0)
(2 -2.20359e-15 0)
(2 -2.48496e-15 0)
(2 -2.66212e-15 0)
(2 -2.9776e-15 0)
(2 -3.1055e-15 0)
(2 -3.60559e-15 0)
(2 -3.81246e-15 0)
(2 -3.65719e-15 0)
(2 -3.3765e-15 0)
(2 -3.23524e-15 0)
(2 -2.8415e-15 0)
(2 -2.36312e-15 0)
(2 -2.27464e-15 0)
(2 -2.29846e-15 0)
(2 -2.45585e-15 0)
(2 -2.43201e-15 0)
(2 -2.31536e-15 0)
(2 -2.3966e-15 0)
(2 -2.43995e-15 0)
(2 -2.3087e-15 0)
(2 -2.06929e-15 0)
(2 -1.90672e-15 0)
(2 -2.00158e-15 0)
(2 -2.1082e-15 0)
(2 -2.07004e-15 0)
(2 -1.96001e-15 0)
(2 -1.83614e-15 0)
(2 -1.76822e-15 0)
(2 -1.48963e-15 0)
(2 -1.45785e-15 0)
(2 -1.0433e-15 0)
(2 -1.23487e-15 0)
(2 -1.53076e-15 0)
(2 -1.63349e-15 0)
(2 -1.68504e-15 0)
(2 -1.78409e-15 0)
(2 -1.88804e-15 0)
(2 -1.90275e-15 0)
(2 -1.9112e-15 0)
(2 -2.02404e-15 0)
(2 -2.17596e-15 0)
(2 -2.59955e-15 0)
(2 -3.14539e-15 0)
(2 -4.06966e-15 0)
(2 -4.1884e-15 0)
(2 -3.77094e-15 0)
(2 -3.60751e-15 0)
(2 -3.58497e-15 0)
(2 -3.5963e-15 0)
(2 -3.49723e-15 0)
(2 -3.05556e-15 0)
(2 -2.65439e-15 0)
(2 -2.51111e-15 0)
(2 -2.12433e-15 0)
(2 -9.91465e-16 0)
(2 -7.1904e-16 0)
(2 -7.04053e-17 0)
(2 2.15323e-16 0)
(2 7e-16 0)
(2 2.32613e-16 0)
(2 -1.36787e-16 0)
(2 -3.92354e-16 0)
(2 -2.79115e-16 0)
(2 -2.09666e-16 0)
(2 -2.96173e-16 0)
(2 -3.95765e-16 0)
(2 7.49382e-16 0)
(2 1.44409e-15 0)
(2 1.5491e-15 0)
(2 1.63579e-15 0)
(2 1.85681e-15 0)
(2 1.8335e-15 0)
(2 1.77728e-15 0)
(2 1.73165e-15 0)
(2 1.60846e-15 0)
(2 1.25834e-15 0)
(2 1.00638e-15 0)
(2 9.63402e-16 0)
(2 1.27726e-15 0)
(2 1.51322e-15 0)
(2 1.71534e-15 0)
(2 1.55659e-15 0)
(2 1.2142e-15 0)
(2 1.10146e-15 0)
(2 9.19485e-16 0)
(2 8.3795e-16 0)
(2 1.04098e-15 0)
(2 9.71309e-16 0)
(2 1.06126e-15 0)
(2 7.62915e-16 0)
(2 3.71635e-16 0)
(2 1.52352e-16 0)
(2 -1.46583e-16 0)
(2 -3.08742e-16 0)
(2 -3.84959e-16 0)
(2 -2.88105e-16 0)
(2 1.61472e-16 0)
(2 2.74388e-16 0)
(2 5.46419e-16 0)
(2 3.54138e-16 0)
(2 5.92192e-16 0)
(2 7.49528e-16 0)
(2 8.7105e-16 0)
(2 7.66595e-16 0)
(2 6.85939e-16 0)
(2 5.7581e-16 0)
(2 3.15328e-16 0)
(2 3.50132e-16 0)
(2 8.72029e-16 0)
(2 1.3277e-15 0)
(2 1.05915e-15 0)
(2 1.61046e-15 0)
(2 2.12882e-15 0)
(2 1.95394e-15 0)
(2 1.0168e-15 0)
(2 3.64785e-16 0)
(2 1.49818e-16 0)
(2 -8.50004e-18 0)
(2 -1.42656e-16 0)
(2 -2.12644e-16 0)
(2 -6.0768e-16 0)
(2 -7.88522e-16 0)
(2 -8.3314e-16 0)
(2 -5.40685e-16 0)
(2 -3.76295e-16 0)
(2 -2.76073e-16 0)
(2 -1.99462e-16 0)
(2 -2.3536e-16 0)
(2 -5.16789e-16 0)
(2 -6.62567e-16 0)
(2 -2.80446e-16 0)
(2 7.93848e-17 0)
(2 1.9822e-16 0)
(2 -5.39553e-16 0)
(2 -1.1478e-15 0)
(2 -1.44682e-15 0)
(2 -1.54333e-15 0)
(2 -1.51956e-15 0)
(2 -1.52096e-15 0)
(2 -1.65826e-15 0)
(2 -1.11973e-15 0)
(2 -8.79014e-16 0)
(2 -8.38349e-16 0)
(2 -7.33631e-16 0)
(2 -7.2725e-16 0)
(2 -8.72907e-16 0)
(2 -8.5877e-16 0)
(2 -7.89364e-16 0)
(2 -7.81497e-16 0)
(2 -8.04146e-16 0)
(2 -7.78149e-16 0)
(2 -4.86276e-16 0)
(2 2.19422e-16 0)
(2 1.08312e-16 0)
(2 -1.73291e-17 0)
(2 -4.20647e-16 0)
(2 -4.20313e-16 0)
(2 -3.05887e-16 0)
(2 -4.71378e-16 0)
(2 -6.72857e-16 0)
(2 -1.0959e-15 0)
(2 -1.30175e-15 0)
(2 -1.28474e-15 0)
(2 -1.20439e-15 0)
(2 -9.82812e-16 0)
(2 -8.44615e-16 0)
(2 -8.17904e-16 0)
(2 -7.2207e-16 0)
(2 -4.93085e-16 0)
(2 -7.04812e-16 0)
(2 -9.5301e-16 0)
(2 -1.01998e-15 0)
(2 -5.27304e-16 0)
(2 -8.82062e-16 0)
(2 -2.08402e-15 0)
(2 -2.50355e-15 0)
(2 -2.53334e-15 0)
(2 -2.61088e-15 0)
(2 -2.8314e-15 0)
(2 -3.10138e-15 0)
(2 -3.15633e-15 0)
(2 -2.96891e-15 0)
(2 -2.5081e-15 0)
(2 -1.9908e-15 0)
(2 -1.56388e-15 0)
(2 -1.46329e-15 0)
(2 -1.6316e-15 0)
(2 -2.01354e-15 0)
(2 -2.1139e-15 0)
(2 -2.13716e-15 0)
(2 -1.44501e-15 0)
(2 2.34995e-17 0)
(2 9.27039e-16 0)
(2 1.11532e-15 0)
(2 1.55503e-15 0)
(2 1.57252e-15 0)
(2 1.39714e-15 0)
(2 1.28057e-15 0)
(2 1.22567e-15 0)
(2 1.297e-15 0)
(2 1.79788e-15 0)
(2 1.89967e-15 0)
(2 1.90062e-15 0)
(2 2.27273e-15 0)
(2 1.26335e-15 0)
(2 4.55469e-16 0)
(2 1.51822e-16 0)
(2 -1.17868e-16 0)
(2 -1.98349e-16 0)
(2 -1.71114e-16 0)
(2 6.60766e-17 0)
(2 -2.99579e-17 0)
(2 -3.52756e-16 0)
(2 -8.68819e-16 0)
(2 -1.1452e-15 0)
(2 -1.21948e-15 0)
(2 -1.20379e-15 0)
(2 -1.15738e-15 0)
(2 -1.06841e-15 0)
(2 -1.07849e-15 0)
(2 -1.11262e-15 0)
(2 -9.80784e-16 0)
(2 -9.8737e-16 0)
(2 -1.00255e-15 0)
(2 -1.13877e-15 0)
(2 -1.21924e-15 0)
(2 -1.14154e-15 0)
(2 -1.5042e-15 0)
(2 -1.79458e-15 0)
(2 -2.00938e-15 0)
(2 -2.23847e-15 0)
(2 -2.25369e-15 0)
(2 -2.22065e-15 0)
(2 -1.96792e-15 0)
(2 -1.85164e-15 0)
(2 -1.71839e-15 0)
(2 -1.79759e-15 0)
(2 -1.76445e-15 0)
(2 -1.81814e-15 0)
(2 -1.93084e-15 0)
(2 -2.12508e-15 0)
(2 1.82232e-15 0)
(2 1.70329e-15 0)
(2 1.15731e-15 0)
(2 3.79997e-16 0)
(2 -6.93185e-17 0)
(2 -4.64378e-16 0)
(2 -9.2653e-16 0)
(2 -9.22013e-16 0)
(2 -9.85528e-16 0)
(2 -7.42552e-16 0)
(2 -5.40576e-16 0)
(2 -3.75404e-16 0)
(2 -4.15523e-16 0)
(2 -6.25416e-16 0)
(2 -2.76719e-16 0)
(2 3.39872e-16 0)
(2 6.74214e-16 0)
(2 7.20701e-16 0)
(2 9.10971e-16 0)
(2 9.87525e-16 0)
(2 9.04238e-16 0)
(2 8.67335e-16 0)
(2 1.14598e-15 0)
(2 1.33016e-15 0)
(2 1.14342e-15 0)
(2 1.06992e-15 0)
(2 9.35886e-16 0)
(2 6.62148e-16 0)
(2 3.49381e-16 0)
(2 1.99155e-16 0)
(2 -3.29571e-17 0)
(2 -2.40301e-16 0)
(2 -5.49997e-16 0)
(2 -7.04722e-16 0)
(2 -6.3164e-16 0)
(2 -6.15421e-16 0)
(2 -6.02785e-16 0)
(2 -1.68355e-16 0)
(2 3.40683e-16 0)
(2 4.50351e-16 0)
(2 4.36953e-16 0)
(2 3.22565e-16 0)
(2 2.41954e-16 0)
(2 3.46107e-16 0)
(2 5.21707e-16 0)
(2 7.26773e-16 0)
(2 7.64359e-16 0)
(2 8.60691e-16 0)
(2 5.19054e-16 0)
(2 -1.99274e-16 0)
(2 -6.24147e-16 0)
(2 -9.82249e-16 0)
(2 -1.23322e-15 0)
(2 -1.43524e-15 0)
(2 -1.34379e-15 0)
(2 -1.12303e-15 0)
(2 -9.79486e-16 0)
(2 -1.11006e-15 0)
(2 -1.30524e-15 0)
(2 -1.46462e-15 0)
(2 -1.56717e-15 0)
(2 -1.63593e-15 0)
(2 -1.18395e-15 0)
(2 -7.57825e-16 0)
(2 -3.83834e-16 0)
(2 1.52816e-16 0)
(2 5.81703e-17 0)
(2 -7.13706e-16 0)
(2 -1.02462e-15 0)
(2 -1.05167e-15 0)
(2 -4.24149e-16 0)
(2 -3.42102e-16 0)
(2 2.43169e-16 0)
(2 4.24016e-16 0)
(2 4.35658e-17 0)
(2 -1.30755e-16 0)
(2 -2.3371e-16 0)
(2 -1.25598e-16 0)
(2 -3.05795e-16 0)
(2 -7.44507e-16 0)
(2 -4.96663e-16 0)
(2 -1.94274e-16 0)
(2 2.15908e-16 0)
(2 7.28033e-16 0)
(2 1.28687e-15 0)
(2 1.87655e-15 0)
(2 2.01866e-15 0)
(2 2.1109e-15 0)
(2 2.3123e-15 0)
(2 2.36821e-15 0)
(2 2.29538e-15 0)
(2 2.12659e-15 0)
(2 2.43744e-15 0)
(2 2.69759e-15 0)
(2 2.93412e-15 0)
(2 1.93452e-15 0)
(2 1.57368e-15 0)
(2 1.3478e-15 0)
(2 1.42616e-15 0)
(2 1.0363e-15 0)
(2 6.79915e-16 0)
(2 3.16746e-16 0)
(2 2.93962e-16 0)
(2 2.10784e-16 0)
(2 -4.26902e-16 0)
(2 -1.27647e-15 0)
(2 -1.43351e-15 0)
(2 -1.39212e-15 0)
(2 -1.62947e-15 0)
(2 -2.0726e-15 0)
(2 -2.21295e-15 0)
(2 -2.0889e-15 0)
(2 -1.87059e-15 0)
(2 -1.76443e-15 0)
(2 -1.6891e-15 0)
(2 -1.54358e-15 0)
(2 -1.39289e-15 0)
(2 -1.15066e-15 0)
(2 -1.15186e-15 0)
(2 -1.18634e-15 0)
(2 -1.65467e-15 0)
(2 -1.73942e-15 0)
(2 -1.82513e-15 0)
(2 -1.81411e-15 0)
(2 -1.83701e-15 0)
(2 -2.14916e-15 0)
(2 -2.35947e-15 0)
(2 -2.36413e-15 0)
(2 -2.35896e-15 0)
(2 -2.31295e-15 0)
(2 -2.27384e-15 0)
(2 -2.32157e-15 0)
(2 1.20768e-15 0)
(2 6.57781e-16 0)
(2 -9.67331e-17 0)
(2 -4.29931e-16 0)
(2 -5.34435e-16 0)
(2 -6.5919e-16 0)
(2 -7.83937e-16 0)
(2 -1.02581e-15 0)
(2 -8.73084e-16 0)
(2 -7.53059e-16 0)
(2 -3.50628e-16 0)
(2 6.30538e-17 0)
(2 6.93987e-16 0)
(2 7.05803e-16 0)
(2 6.64708e-16 0)
(2 5.04664e-16 0)
(2 7.92064e-16 0)
(2 1.52915e-15 0)
(2 1.58587e-15 0)
(2 1.6667e-15 0)
(2 1.87227e-15 0)
(2 1.66119e-15 0)
(2 9.49548e-16 0)
(2 5.74969e-16 0)
(2 4.8628e-16 0)
(2 5.98712e-16 0)
(2 5.11063e-16 0)
(2 2.46863e-16 0)
(2 -1.60345e-17 0)
(2 -1.95554e-16 0)
(2 -3.94789e-16 0)
(2 -4.84704e-16 0)
(2 -5.27119e-16 0)
(2 -4.55983e-16 0)
(2 -3.85001e-16 0)
(2 -3.15917e-16 0)
(2 -3.76851e-16 0)
(2 -5.69368e-16 0)
(2 -7.01604e-16 0)
(2 -4.35137e-16 0)
(2 2.01796e-17 0)
(2 8.93248e-17 0)
(2 5.59431e-19 0)
(2 -4.41252e-17 0)
(2 -1.92421e-16 0)
(2 9.39645e-17 0)
(2 5.03345e-16 0)
(2 4.93205e-16 0)
(2 3.36264e-16 0)
(2 2.25504e-16 0)
(2 -4.45137e-16 0)
(2 -6.12179e-16 0)
(2 -7.34691e-16 0)
(2 -1.41082e-15 0)
(2 -1.83503e-15 0)
(2 -1.99873e-15 0)
(2 -2.13916e-15 0)
(2 -2.58183e-15 0)
(2 -2.80173e-15 0)
(2 -2.60288e-15 0)
(2 -2.30862e-15 0)
(2 -2.03338e-15 0)
(2 -1.81037e-15 0)
(2 -1.64783e-15 0)
(2 -1.06039e-15 0)
(2 -5.79594e-16 0)
(2 -2.14757e-16 0)
(2 1.36096e-16 0)
(2 3.60199e-16 0)
(2 2.93865e-16 0)
(2 4.87385e-16 0)
(2 1.07152e-15 0)
(2 1.04659e-15 0)
(2 8.06661e-16 0)
(2 6.94034e-16 0)
(2 5.76821e-16 0)
(2 7.67567e-16 0)
(2 1.10746e-15 0)
(2 1.16483e-15 0)
(2 8.11017e-16 0)
(2 4.04986e-16 0)
(2 3.43653e-16 0)
(2 1.27524e-16 0)
(2 -3.21865e-16 0)
(2 -4.25962e-16 0)
(2 -3.16694e-16 0)
(2 -4.01808e-17 0)
(2 5.17339e-17 0)
(2 7.63636e-17 0)
(2 8.3585e-18 0)
(2 -1.27774e-16 0)
(2 1.5112e-16 0)
(2 6.47962e-16 0)
(2 6.40771e-16 0)
(2 7.14811e-16 0)
(2 1.37925e-15 0)
(2 1.76581e-15 0)
(2 2.06079e-15 0)
(2 2.06819e-15 0)
(2 2.06613e-15 0)
(2 2.01878e-15 0)
(2 1.87955e-15 0)
(2 1.32556e-15 0)
(2 1.05857e-15 0)
(2 9.27857e-16 0)
(2 -2.75771e-16 0)
(2 -4.56461e-16 0)
(2 -7.00681e-16 0)
(2 -1.17593e-15 0)
(2 -1.37795e-15 0)
(2 -1.15458e-15 0)
(2 -7.10458e-16 0)
(2 -9.41532e-16 0)
(2 -1.03657e-15 0)
(2 -4.61432e-16 0)
(2 -1.70208e-16 0)
(2 -1.42841e-16 0)
(2 6.54407e-17 0)
(2 1.01559e-15 0)
(2 1.55806e-15 0)
(2 1.54763e-15 0)
(2 1.48172e-15 0)
(2 1.13611e-15 0)
(2 1.111e-15 0)
(2 7.59476e-16 0)
(2 1.51259e-16 0)
(2 -6.72462e-16 0)
(2 -8.18403e-16 0)
(2 -8.21499e-16 0)
(2 -1.17071e-15 0)
(2 -1.23028e-15 0)
(2 -1.0038e-15 0)
(2 -1.33012e-18 0)
(2 -3.36327e-16 0)
(2 -3.43155e-16 0)
(2 -3.77119e-16 0)
(2 -4.69154e-16 0)
(2 1.71309e-17 0)
(2 4.54667e-16 0)
(2 7.30863e-16 0)
(2 8.81027e-16 0)
(2 7.83431e-16 0)
(2 7.51387e-16 0)
(2 8.78678e-16 0)
(2 1.06073e-15 0)
(2 1.09042e-15 0)
(2 1.10166e-15 0)
(2 1.05513e-15 0)
(2 9.52461e-16 0)
(2 7.35977e-16 0)
(2 5.64912e-16 0)
(2 4.70698e-16 0)
(2 2.97443e-16 0)
(2 -3.07891e-18 0)
(2 -1.05968e-16 0)
(2 -2.53585e-16 0)
(2 -4.51094e-16 0)
(2 -4.97757e-16 0)
(2 -5.33676e-16 0)
(2 -6.15806e-16 0)
(2 -7.87107e-16 0)
(2 -8.35067e-16 0)
(2 -8.92263e-16 0)
(2 -9.64551e-16 0)
(2 -9.68399e-16 0)
(2 -9.20961e-16 0)
(2 -7.35119e-16 0)
(2 -5.94747e-16 0)
(2 -4.46744e-16 0)
(2 -4.60479e-16 0)
(2 -4.61588e-16 0)
(2 -7.38019e-16 0)
(2 -4.06122e-16 0)
(2 4.19122e-16 0)
(2 5.50142e-16 0)
(2 5.31465e-16 0)
(2 -4.69798e-17 0)
(2 -2.50447e-16 0)
(2 -2.7441e-16 0)
(2 -2.48677e-16 0)
(2 -2.78983e-16 0)
(2 -6.76089e-16 0)
(2 -1.21444e-15 0)
(2 -1.60345e-15 0)
(2 -1.51209e-15 0)
(2 -1.47539e-15 0)
(2 -1.67145e-15 0)
(2 -2.34968e-15 0)
(2 -2.51485e-15 0)
(2 -2.74019e-15 0)
(2 -2.63518e-15 0)
(2 -1.17066e-15 0)
(2 -1.02955e-15 0)
(2 -8.06991e-16 0)
(2 -7.19254e-16 0)
(2 -6.28895e-16 0)
(2 -7.05308e-16 0)
(2 -8.97927e-16 0)
(2 -8.76979e-17 0)
(2 9.59069e-16 0)
(2 1.27553e-15 0)
(2 1.43982e-15 0)
(2 1.3181e-15 0)
(2 1.18652e-15 0)
(2 8.21971e-16 0)
(2 8.51832e-16 0)
(2 7.5444e-16 0)
(2 8.20683e-16 0)
(2 7.41262e-16 0)
(2 3.80821e-16 0)
(2 -2.367e-17 0)
(2 -2.98202e-16 0)
(2 -1.79579e-16 0)
(2 -3.64324e-16 0)
(2 -7.3846e-16 0)
(2 -9.32236e-16 0)
(2 -1.21836e-15 0)
(2 -1.64754e-15 0)
(2 -1.77915e-15 0)
(2 -1.78984e-15 0)
(2 -1.78059e-15 0)
(2 -1.88656e-15 0)
(2 -2.19838e-15 0)
(2 -2.41186e-15 0)
(2 -2.40702e-15 0)
(2 -2.46526e-15 0)
(2 -2.01781e-15 0)
(2 -1.78621e-15 0)
(2 -1.69323e-15 0)
(2 -1.64403e-15 0)
(2 -1.41791e-15 0)
(2 -1.29596e-15 0)
(2 -1.26968e-15 0)
(2 -1.02755e-15 0)
(2 -7.52907e-16 0)
(2 -9.48078e-16 0)
(2 -1.09563e-15 0)
(2 -1.05172e-15 0)
(2 -9.43664e-16 0)
(2 -8.31271e-16 0)
(2 -1.73691e-15 0)
(2 -2.04158e-15 0)
(2 -2.23588e-15 0)
(2 -2.4781e-15 0)
(2 -2.15073e-15 0)
(2 -1.87485e-15 0)
(2 -1.90568e-15 0)
(2 -1.71283e-15 0)
(2 -1.46206e-15 0)
(2 -1.08107e-15 0)
(2 -6.50728e-16 0)
(2 -4.70057e-16 0)
(2 -1.90906e-16 0)
(2 -2.75333e-16 0)
(2 -2.33199e-16 0)
(2 -1.60695e-16 0)
(2 -8.90531e-17 0)
(2 -1.03774e-16 0)
(2 -3.96825e-16 0)
(2 -3.98392e-16 0)
(2 -2.54813e-16 0)
(2 -4.98919e-16 0)
(2 -9.48325e-16 0)
(2 -1.24657e-15 0)
(2 1.20379e-16 0)
(2 -1.41379e-16 0)
(2 -1.4148e-16 0)
(2 7.9596e-16 0)
(2 1.75733e-15 0)
(2 2.1612e-15 0)
(2 2.30052e-15 0)
(2 2.56637e-15 0)
(2 2.7399e-15 0)
(2 1.81991e-15 0)
(2 1.23487e-15 0)
(2 1.3206e-15 0)
(2 1.22506e-15 0)
(2 5.6501e-16 0)
(2 4.87291e-16 0)
(2 7.23648e-16 0)
(2 9.222e-16 0)
(2 9.88614e-16 0)
(2 5.46453e-16 0)
(2 4.70146e-16 0)
(2 4.31808e-16 0)
(2 2.66484e-16 0)
(2 1.57679e-16 0)
(2 1.41724e-16 0)
(2 -1.71583e-16 0)
(2 -2.77563e-16 0)
(2 -1.07028e-16 0)
(2 1.27195e-16 0)
(2 8.55323e-17 0)
(2 -6.48481e-16 0)
(2 -1.10667e-15 0)
(2 -1.21016e-15 0)
(2 -1.3077e-15 0)
(2 -1.37281e-15 0)
(2 -1.57616e-15 0)
(2 -1.39013e-15 0)
(2 -1.0618e-15 0)
(2 -5.67462e-16 0)
(2 -4.78648e-16 0)
(2 -4.5888e-16 0)
(2 -4.75109e-16 0)
(2 -4.92372e-16 0)
(2 -5.41205e-16 0)
(2 -5.78425e-16 0)
(2 -5.92415e-16 0)
(2 -7.44001e-16 0)
(2 -1.0437e-15 0)
(2 -1.23197e-15 0)
(2 -1.30923e-15 0)
(2 -1.44212e-15 0)
(2 -1.51095e-15 0)
(2 -1.82474e-15 0)
(2 -2.15701e-15 0)
(2 -2.05725e-15 0)
(2 -1.90673e-15 0)
(2 -1.2413e-15 0)
(2 -8.62648e-16 0)
(2 -5.25743e-16 0)
(2 1.50128e-16 0)
(2 5.22828e-16 0)
(2 5.00027e-16 0)
(2 3.2931e-16 0)
(2 2.12803e-16 0)
(2 1.69831e-17 0)
(2 4.35329e-16 0)
(2 1.61147e-15 0)
(2 2.36597e-15 0)
(2 2.8882e-15 0)
(2 3.13177e-15 0)
(2 3.6185e-15 0)
(2 3.73922e-15 0)
(2 3.19093e-15 0)
(2 2.12374e-15 0)
(2 1.63776e-15 0)
(2 1.23381e-15 0)
(2 9.19323e-16 0)
(2 8.72343e-16 0)
(2 4.48118e-16 0)
(2 2.49099e-16 0)
(2 2.15719e-16 0)
(2 -1.92215e-16 0)
(2 -5.32535e-16 0)
(2 -1.2217e-15 0)
(2 -1.50384e-15 0)
(2 -1.72509e-15 0)
(2 -1.92928e-15 0)
(2 -1.99301e-15 0)
(2 -1.95536e-15 0)
(2 -1.89161e-15 0)
(2 -1.84536e-15 0)
(2 -1.82979e-15 0)
(2 -2.0039e-15 0)
(2 -2.08606e-15 0)
(2 -2.15808e-15 0)
(2 -2.27244e-15 0)
(2 -2.51563e-15 0)
(2 -2.50754e-15 0)
(2 -2.05018e-15 0)
(2 -1.69418e-15 0)
(2 -1.4777e-15 0)
(2 -1.35171e-15 0)
(2 -1.28869e-15 0)
(2 -1.25597e-15 0)
(2 -1.21609e-15 0)
(2 -6.56297e-16 0)
(2 -1.96e-16 0)
(2 1.86382e-16 0)
(2 7.71865e-16 0)
(2 4.99782e-16 0)
(2 1.70297e-16 0)
(2 3.38313e-18 0)
(2 -9.80634e-17 0)
(2 -2.16274e-16 0)
(2 -1.76942e-16 0)
(2 -2.7317e-16 0)
(2 -7.4315e-16 0)
(2 -8.60771e-16 0)
(2 -1.06515e-15 0)
(2 -1.29634e-15 0)
(2 -1.53758e-15 0)
(2 -1.72711e-15 0)
(2 -1.61085e-15 0)
(2 -1.49822e-15 0)
(2 -1.52913e-15 0)
(2 -1.58731e-15 0)
(2 -1.63913e-15 0)
(2 -1.97595e-15 0)
(2 -1.65265e-15 0)
(2 -9.82906e-16 0)
(2 4.98659e-17 0)
(2 6.19244e-16 0)
(2 6.1004e-16 0)
(2 1.65044e-15 0)
(2 1.64872e-15 0)
(2 1.15459e-15 0)
(2 1.34582e-15 0)
(2 1.89963e-15 0)
(2 2.03616e-15 0)
(2 1.77495e-15 0)
(2 1.7551e-15 0)
(2 1.70094e-15 0)
(2 1.82513e-15 0)
(2 2.09709e-15 0)
(2 2.09264e-15 0)
(2 1.99826e-15 0)
(2 1.98913e-15 0)
(2 1.91566e-15 0)
(2 1.74775e-15 0)
(2 1.82041e-15 0)
(2 1.87458e-15 0)
(2 1.69584e-15 0)
(2 1.2104e-15 0)
(2 1.07702e-15 0)
(2 1.16335e-15 0)
(2 1.1505e-15 0)
(2 1.03968e-15 0)
(2 4.70922e-16 0)
(2 2.90614e-16 0)
(2 7.31163e-16 0)
(2 1.54785e-15 0)
(2 1.66526e-15 0)
(2 1.60129e-15 0)
(2 1.51888e-15 0)
(2 1.46985e-15 0)
(2 1.44145e-15 0)
(2 1.20496e-15 0)
(2 6.65126e-16 0)
(2 2.49109e-16 0)
(2 8.43425e-17 0)
(2 -1.43713e-16 0)
(2 -1.69491e-17 0)
(2 7.0654e-17 0)
(2 -2.62081e-16 0)
(2 -7.77616e-16 0)
(2 -1.35703e-15 0)
(2 -1.8613e-15 0)
(2 -2.01931e-15 0)
(2 -2.34191e-15 0)
(2 -2.50204e-15 0)
(2 -2.52221e-15 0)
(2 -2.00859e-15 0)
(2 -1.28755e-15 0)
(2 -6.66807e-16 0)
(2 -5.47602e-16 0)
(2 -7.9617e-16 0)
(2 -8.50558e-16 0)
(2 -5.39459e-16 0)
(2 1.31992e-16 0)
(2 6.35717e-16 0)
(2 7.11368e-16 0)
(2 4.15324e-16 0)
(2 2.8976e-16 0)
(2 8.27278e-16 0)
(2 1.06958e-15 0)
(2 1.10682e-15 0)
(2 1.44427e-15 0)
(2 1.74388e-15 0)
(2 2.25473e-15 0)
(2 2.77627e-15 0)
(2 3.31616e-15 0)
(2 3.32246e-15 0)
(2 2.89507e-15 0)
(2 2.483e-15 0)
(2 2.69573e-15 0)
(2 2.79377e-15 0)
(2 2.69591e-15 0)
(2 2.4521e-15 0)
(2 1.95821e-15 0)
(2 1.18978e-15 0)
(2 5.21606e-16 0)
(2 5.10214e-16 0)
(2 -2.71134e-16 0)
(2 -5.097e-16 0)
(2 -1.05358e-15 0)
(2 -1.59795e-15 0)
(2 -1.64828e-15 0)
(2 -1.65468e-15 0)
(2 -1.57722e-15 0)
(2 -1.34896e-15 0)
(2 -1.27144e-15 0)
(2 -1.21299e-15 0)
(2 -1.15095e-15 0)
(2 -1.07789e-15 0)
(2 -1.08091e-15 0)
(2 -1.18733e-15 0)
(2 -1.39409e-15 0)
(2 -1.4382e-15 0)
(2 -1.79701e-15 0)
(2 -2.35356e-15 0)
(2 -2.36772e-15 0)
(2 -2.24629e-15 0)
(2 -2.06325e-15 0)
(2 -1.57766e-15 0)
(2 -1.39851e-15 0)
(2 -1.16622e-15 0)
(2 -1.02432e-15 0)
(2 -5.63837e-16 0)
(2 8.65517e-17 0)
(2 6.08437e-16 0)
(2 7.5807e-16 0)
(2 6.31354e-16 0)
(2 5.25844e-16 0)
(2 4.16947e-16 0)
(2 -2.12605e-16 0)
(2 -4.08979e-16 0)
(2 -5.29867e-16 0)
(2 -5.56478e-16 0)
(2 -3.83498e-16 0)
(2 -3.07448e-16 0)
(2 -2.55529e-16 0)
(2 -3.72693e-16 0)
(2 -4.40909e-16 0)
(2 -5.42437e-16 0)
(2 -6.54774e-16 0)
(2 -6.44102e-16 0)
(2 -7.36397e-16 0)
(2 -1.019e-15 0)
(2 -1.01314e-15 0)
(2 -6.29288e-16 0)
(2 2.55418e-17 0)
(2 5.40537e-16 0)
(2 9.06535e-16 0)
(2 1.11149e-15 0)
(2 9.99762e-16 0)
(2 2.14697e-15 0)
(2 2.12021e-15 0)
(2 2.30047e-15 0)
(2 2.50839e-15 0)
(2 2.61111e-15 0)
(2 2.72971e-15 0)
(2 2.91492e-15 0)
(2 3.25949e-15 0)
(2 3.30368e-15 0)
(2 3.74294e-15 0)
(2 4.29206e-15 0)
(2 4.15612e-15 0)
(2 4.11014e-15 0)
(2 4.23264e-15 0)
(2 4.27639e-15 0)
(2 3.16877e-15 0)
(2 2.08908e-15 0)
(2 1.96863e-15 0)
(2 2.06676e-15 0)
(2 2.08868e-15 0)
(2 1.88243e-15 0)
(2 1.9444e-15 0)
(2 1.75596e-15 0)
(2 1.46983e-15 0)
(2 1.42587e-15 0)
(2 1.48301e-15 0)
(2 1.46177e-15 0)
(2 1.5313e-15 0)
(2 1.66856e-15 0)
(2 1.7146e-15 0)
(2 1.52413e-15 0)
(2 1.36877e-15 0)
(2 1.32928e-15 0)
(2 1.42762e-15 0)
(2 1.82586e-15 0)
(2 2.05252e-15 0)
(2 1.65569e-15 0)
(2 1.39297e-15 0)
(2 1.32051e-15 0)
(2 1.26516e-15 0)
(2 7.80959e-16 0)
(2 3.86661e-16 0)
(2 9.28036e-17 0)
(2 -1.50338e-16 0)
(2 -2.23338e-16 0)
(2 -1.43096e-16 0)
(2 -8.93777e-17 0)
(2 -6.52058e-17 0)
(2 -1.3312e-16 0)
(2 -1.38301e-16 0)
(2 -3.62643e-17 0)
(2 1.61317e-16 0)
(2 3.17504e-16 0)
(2 3.19368e-16 0)
(2 3.58878e-16 0)
(2 3.19908e-16 0)
(2 2.46411e-16 0)
(2 1.38897e-16 0)
(2 5.9197e-17 0)
(2 2.92022e-16 0)
(2 4.07132e-16 0)
(2 8.04312e-16 0)
(2 9.64731e-16 0)
(2 1.19858e-15 0)
(2 1.42894e-15 0)
(2 1.44092e-15 0)
(2 1.34614e-15 0)
(2 1.53052e-15 0)
(2 1.721e-15 0)
(2 1.93698e-15 0)
(2 2.12578e-15 0)
(2 2.10687e-15 0)
(2 2.15668e-15 0)
(2 2.00191e-15 0)
(2 1.85062e-15 0)
(2 1.74226e-15 0)
(2 1.16338e-15 0)
(2 8.83795e-16 0)
(2 4.93847e-16 0)
(2 3.89578e-16 0)
(2 1.26616e-16 0)
(2 -4.16728e-16 0)
(2 -7.54626e-16 0)
(2 -1.11735e-15 0)
(2 -1.31558e-15 0)
(2 -1.4034e-15 0)
(2 -1.48229e-15 0)
(2 -1.55127e-15 0)
(2 -1.56694e-15 0)
(2 -1.62719e-15 0)
(2 -1.5345e-15 0)
(2 -1.33241e-15 0)
(2 -1.234e-15 0)
(2 -1.53213e-15 0)
(2 -1.77881e-15 0)
(2 -1.92495e-15 0)
(2 -2.6359e-15 0)
(2 -2.78546e-15 0)
(2 -3.05479e-15 0)
(2 -2.87629e-15 0)
(2 -2.07642e-15 0)
(2 -1.85389e-15 0)
(2 -1.72847e-15 0)
(2 -1.56559e-15 0)
(2 -1.52767e-15 0)
(2 -1.31084e-15 0)
(2 -1.08459e-15 0)
(2 -9.97275e-16 0)
(2 -1.00833e-15 0)
(2 -1.09214e-15 0)
(2 -1.474e-15 0)
(2 -1.7354e-15 0)
(2 -2.24083e-15 0)
(2 -2.39847e-15 0)
(2 -2.71658e-15 0)
(2 -2.70878e-15 0)
(2 -2.56356e-15 0)
(2 -2.30403e-15 0)
(2 -1.94533e-15 0)
(2 -1.55039e-15 0)
(2 -1.49846e-15 0)
(2 -1.57775e-15 0)
(2 -1.58148e-15 0)
(2 -1.22402e-15 0)
(2 -9.24113e-16 0)
(2 -8.39703e-16 0)
(2 -8.79277e-16 0)
(2 5.93775e-16 0)
(2 1.172e-15 0)
(2 1.35216e-15 0)
(2 1.52999e-15 0)
(2 1.28378e-15 0)
(2 2.70508e-15 0)
(2 2.82856e-15 0)
(2 2.93872e-15 0)
(2 3.14734e-15 0)
(2 3.64813e-15 0)
(2 3.98427e-15 0)
(2 3.98647e-15 0)
(2 4.85948e-15 0)
(2 5.40732e-15 0)
(2 5.49067e-15 0)
(2 5.05025e-15 0)
(2 4.08995e-15 0)
(2 4.046e-15 0)
(2 4.1797e-15 0)
(2 4.61934e-15 0)
(2 3.96146e-15 0)
(2 3.28747e-15 0)
(2 3.20729e-15 0)
(2 2.65425e-15 0)
(2 2.55027e-15 0)
(2 2.5271e-15 0)
(2 1.51967e-15 0)
(2 1.49976e-15 0)
(2 1.58071e-15 0)
(2 1.85499e-15 0)
(2 2.07234e-15 0)
(2 2.15271e-15 0)
(2 2.38006e-15 0)
(2 3.01281e-15 0)
(2 3.43571e-15 0)
(2 3.88618e-15 0)
(2 3.96704e-15 0)
(2 3.85475e-15 0)
(2 3.75231e-15 0)
(2 3.91689e-15 0)
(2 3.37285e-15 0)
(2 2.91204e-15 0)
(2 2.83844e-15 0)
(2 2.82815e-15 0)
(2 2.57694e-15 0)
(2 2.42162e-15 0)
(2 2.26229e-15 0)
(2 2.13603e-15 0)
(2 2.096e-15 0)
(2 2.1392e-15 0)
(2 2.25702e-15 0)
(2 2.28175e-15 0)
(2 2.29666e-15 0)
(2 2.27675e-15 0)
(2 1.94563e-15 0)
(2 1.69832e-15 0)
(2 1.89132e-15 0)
(2 2.22898e-15 0)
(2 2.27226e-15 0)
(2 2.27674e-15 0)
(2 2.03677e-15 0)
(2 1.8705e-15 0)
(2 1.30941e-15 0)
(2 1.03225e-15 0)
(2 1.19734e-15 0)
(2 1.38499e-15 0)
(2 1.53315e-15 0)
(2 1.65475e-15 0)
(2 1.77805e-15 0)
(2 1.85712e-15 0)
(2 1.88778e-15 0)
(2 1.55981e-15 0)
(2 1.55424e-15 0)
(2 1.64346e-15 0)
(2 1.73812e-15 0)
(2 1.65102e-15 0)
(2 1.69381e-15 0)
(2 1.94221e-15 0)
(2 2.15084e-15 0)
(2 2.17081e-15 0)
(2 2.08245e-15 0)
(2 1.87166e-15 0)
(2 1.68511e-15 0)
(2 1.43396e-15 0)
(2 9.03668e-16 0)
(2 6.64549e-16 0)
(2 5.08394e-16 0)
(2 -1.9651e-16 0)
(2 -3.87395e-16 0)
(2 1.65037e-17 0)
(2 -4.14143e-17 0)
(2 -3.4269e-16 0)
(2 -2.38054e-16 0)
(2 -6.32693e-16 0)
(2 -7.94775e-16 0)
(2 -8.99913e-16 0)
(2 -9.38506e-16 0)
(2 -9.85379e-16 0)
(2 -1.17392e-15 0)
(2 -1.24593e-15 0)
(2 -1.39755e-15 0)
(2 -1.1794e-15 0)
(2 -9.75308e-16 0)
(2 -5.65436e-16 0)
(2 -6.3671e-16 0)
(2 -1.18463e-15 0)
(2 -1.41163e-15 0)
(2 -1.34895e-15 0)
(2 -1.16695e-15 0)
(2 -1.10902e-15 0)
(2 -9.7638e-16 0)
(2 -8.13075e-16 0)
(2 -6.38714e-16 0)
(2 -4.34364e-16 0)
(2 -4.04787e-16 0)
(2 -4.98563e-16 0)
(2 -5.98107e-16 0)
(2 -6.36523e-16 0)
(2 -6.60019e-16 0)
(2 -8.39658e-16 0)
(2 -1.15372e-15 0)
(2 -1.27594e-15 0)
(2 -1.00172e-15 0)
(2 -6.12341e-16 0)
(2 -4.08128e-16 0)
(2 -1.83971e-16 0)
(2 -1.70084e-16 0)
(2 -1.84902e-16 0)
(2 -2.51946e-16 0)
(2 -4.38528e-16 0)
(2 -6.30573e-16 0)
(2 -1.00467e-15 0)
(2 -1.4319e-15 0)
(2 -1.27287e-15 0)
(2 -1.32479e-15 0)
(2 -1.23806e-15 0)
(2 -1.08422e-15 0)
(2 3.77374e-15 0)
(2 3.77369e-15 0)
(2 3.57083e-15 0)
(2 3.60135e-15 0)
(2 3.60935e-15 0)
(2 3.6404e-15 0)
(2 3.58665e-15 0)
(2 3.75302e-15 0)
(2 3.94462e-15 0)
(2 3.95827e-15 0)
(2 3.94048e-15 0)
(2 3.89231e-15 0)
(2 3.87627e-15 0)
(2 3.79761e-15 0)
(2 3.87821e-15 0)
(2 4.06995e-15 0)
(2 4.29264e-15 0)
(2 4.31981e-15 0)
(2 4.05299e-15 0)
(2 3.98386e-15 0)
(2 3.99399e-15 0)
(2 3.91684e-15 0)
(2 4.13099e-15 0)
(2 4.56695e-15 0)
(2 4.72789e-15 0)
(2 4.68628e-15 0)
(2 4.41078e-15 0)
(2 4.16166e-15 0)
(2 3.95223e-15 0)
(2 4.45853e-15 0)
(2 4.57665e-15 0)
(2 4.35156e-15 0)
(2 4.35339e-15 0)
(2 4.56278e-15 0)
(2 3.72692e-15 0)
(2 2.82076e-15 0)
(2 2.7393e-15 0)
(2 2.7673e-15 0)
(2 2.75419e-15 0)
(2 2.74034e-15 0)
(2 2.58626e-15 0)
(2 2.31971e-15 0)
(2 2.09991e-15 0)
(2 2.13049e-15 0)
(2 2.2201e-15 0)
(2 2.32959e-15 0)
(2 2.62881e-15 0)
(2 3.06913e-15 0)
(2 3.37731e-15 0)
(2 3.61849e-15 0)
(2 3.80268e-15 0)
(2 3.67232e-15 0)
(2 3.53904e-15 0)
(2 3.38516e-15 0)
(2 3.17238e-15 0)
(2 3.05706e-15 0)
(2 2.98968e-15 0)
(2 3.00718e-15 0)
(2 2.79734e-15 0)
(2 1.77492e-15 0)
(2 1.3965e-15 0)
(2 1.33203e-15 0)
(2 1.23483e-15 0)
(2 6.7544e-16 0)
(2 5.06179e-16 0)
(2 6.48595e-16 0)
(2 8.86274e-16 0)
(2 1.04351e-15 0)
(2 1.11427e-15 0)
(2 1.11926e-15 0)
(2 9.6393e-16 0)
(2 7.55359e-16 0)
(2 7.72954e-16 0)
(2 9.96523e-16 0)
(2 1.13571e-15 0)
(2 1.6559e-15 0)
(2 1.82862e-15 0)
(2 1.48913e-15 0)
(2 1.39129e-15 0)
(2 1.18836e-15 0)
(2 1.1211e-15 0)
(2 7.41851e-16 0)
(2 6.6201e-16 0)
(2 1.02309e-15 0)
(2 1.86319e-15 0)
(2 1.34367e-15 0)
(2 1.15419e-15 0)
(2 1.56717e-15 0)
(2 1.91237e-15 0)
(2 1.92608e-15 0)
(2 1.83832e-15 0)
(2 1.74196e-15 0)
(2 1.74237e-15 0)
(2 1.81224e-15 0)
(2 2.02676e-15 0)
(2 2.33587e-15 0)
(2 2.28633e-15 0)
(2 1.89782e-15 0)
(2 1.70591e-15 0)
(2 1.33478e-15 0)
(2 9.85097e-16 0)
(2 9.65488e-16 0)
(2 9.57286e-16 0)
(2 8.76687e-16 0)
(2 4.61981e-16 0)
(2 3.5599e-16 0)
(2 3.66674e-16 0)
(2 3.98932e-16 0)
(2 6.37193e-16 0)
(2 6.85438e-16 0)
(2 8.75838e-16 0)
(2 1.96617e-15 0)
(2 2.44069e-15 0)
(2 2.99981e-15 0)
(2 3.39662e-15 0)
(2 3.13454e-15 0)
(2 3.04102e-15 0)
(2 3.00242e-15 0)
(2 2.59153e-15 0)
(2 2.23186e-15 0)