/*--------------------------------*- C++ -*----------------------------------*\
  =========                 |
  \\      /  F ield         | OpenFOAM: The Open Source CFD Toolbox
   \\    /   O peration     | Website:  https://openfoam.org
    \\  /    A nd           | Version:  7
     \\/     M anipulation  |
\*---------------------------------------------------------------------------*/
FoamFile
{
    version     2.0;
    format      ascii;
    class       volScalarField;
    location    "12";
    object      T;
}
// * * * * * * * * * * * * * * * * * * * * * * * * * * * * * * * * * * * * * //

dimensions      [0 0 0 1 0 0 0];

internalField   nonuniform List<scalar> 
2413
(
1
1
1
1
1
1
1
1
1
1
1
1
1
1
1
1
1
1
1
1
1
1
1
1
1
1
1
1
1
1
1
1
1
1
1
1
1
1
1
1
1
1
1
1
1
1
1
1
1
1
1
1
1
1
1
1
1
1
1
1
1
1
1
1
1
1
1
1
1
1
1
1
1
1
1
1
1
1
1
1
1
1
1
1
1
1
1
1
1
1
1
1
1
1
1
1
1
1
1
1
1
1
1
1
1
1
1
1
1
1
1
1
1
1
1
1
1
1
1
1
1
1
1
1
1
1
1
1
1
1
1
1
1
1
1
1
1
1
1
1
1
1
1
1
1
1
1
1
1
1
1
1
1
1
1
1
1
1
1
1
1
1
1
1
1
1
1
1
1
1
1
1
1
1
1
1
1
1
1
1
1
1
1
1
1
1
1
1
1
1
1
1
1
1
1
1
1
1
1
1
1
1
1
1
1
1
1
1
1
1
1
1
1
1
1
1
1
1
1
1
1
1
1
1
1
1
1
1
1
1
1
1
1
1
1
1
1
1
1
1
1
1
1
1
1
1
1
1
1
1
1
1
1
1
1
1
1
1
1
1
1
1
1
1
1
1
1
1
1
1
1
1
1
1
1
1
1
1
1
1
1
1
1
1
1
1
1
1
1
1
1
1
1
1
1
1
1
1
1
1
1
1
1
1
1
1
1
1
1
1
1
1
1
1
1
1
1
1
1
1
1
1
1
1
1
1
1
1
1
1
1
1
1
1
1
1
1
1
1
1
1
1
1
1
1
1
1
1
1
1
1
1
1
1
1
1
1
1
1
1
1
1
1
1
1
1
1
1
1
1
1
1
1
1
1
1
1
1
1
1
1
1
1
1
1
1
1
1
1
1
1
1
1
1
1
1
1
1
1
1
1
1
1
1
1
1
1
1
1
1
1
1
1
1
1
1
1
1
1
1
1
1
1
1
1
1
1
1
1
1
1
1
1
1
1
1
1
1
1
1
1
1
1
1
1
1
1
1
1
1
1
1
1
1
1
1
1
1
1
1
1
1
1
1
1
1
1
1
1
1
1
1
1
1
1
1
1
1
1
1
1
1
1
1
1
1
1
1
1
1
1
1
1
1
1
1
1
1
1
1
1
1
1
1
1
1
1
1
1
1
1
1
1
1
1
1
1
1
1
1
1
1
1
1
1
1
1
1
1
1
1
1
1
1
1
1
1
1
1
1
1
1
1
1
1
1
1
1
1
1
1
1
1
1
1
1
1
1
1
1
1
1
1
1
1
1
1
1
1
1
1
1
1
1
1
1
1
1
1
1
1
1
1
1
1
1
1
1
1
1
1
1
1
1
1
1
1
1
1
1
1
1
1
1
1
1
1
1
1
1
1
1
1
1
1
1
1
1
1
1
1
1
1
1
1
1
1
1
1
1
1
1
1
1
1
1
1
1
1
1
1
1
1
1
1
1
1
1
1
1
1
1
1
1
1
1
1
1
1
1
1
1
1
1
1
1
1
1
1
1
1
1
1
1
1
1
1
1
1
1
1
1
1
1
1
1
1
1
1
1
1
1
1
1
1
1
1
1
1
1
1
1
1
1
1
1
1
1
1
1
1
1
1
1
1
1
1
1
1
1
1
1
1
1
1
1
1
1
1
1
1
1
1
1
1
1
1
1
1
1
1
1
1
1
1
1
1
1
1
1
1
1
1
1
1
1
1
1
1
1
1
1
1
1
1
1
1
1
1
1
1
1
1
1
1
1
1
1
1
1
1
1
1
1
1
1
1
1
1
1
1
1
1
1
1
1
1
1
1
1
1
1
1
1
1
1
1
1
1
1
1
1
1
1
1
1
1
1
1
1
1
1
1
1
1
1
1
1
1
1
1
1
1
1
1
1
1
1
1
1
1
1
1
1
1
1
1
1
1
1
1
1
1
1
1
1
1
1
1
1
1
1
1
1
1
1
1
1
1
1
1
1
1
1
1
1
1
1
1
1
1
1
1
1
1
1
1
1
1
1
1
1
1
1
1
1
1
1
1
1
1
1
1
1
1
1
1
1
1
1
1
1
1
1
1
1
1
1
1
1
1
1
1
1
1
1
1
1
1
1
1
1
1
1
1
1
1
1
1
1
1
1
1
1
1
1
1
1
1
1
1
1
1
1
1
1
1
1
1
1
1
1
1
1
1
1
1
1
1
1
1
1
1
1
1
1
1
1
1
1
1
1
1
1
1
1
1
1
1
1
1
1
1
1
1
1
1
1
1
1
1
1
1
1
1
1
1
1
1
1
1
1
1
1
1
1
1
1
1
1
1
1
1
1
1
1
1
1
1
1
1
1
1
1
1
1
1
1
1
1
1
1
1
1
1
1
1
1
1
1
1
1
1
1
1
1
1
1
1
1
1
1
1
1
1
1
1
1
1
1
1
1
1
1
1
1
1
1
1
1
1
1
1
1
1
1
1
1
1
1
1
1
1
1
1
1
1
1
1
1
1
1
1
1
1
1
1
1
1
1
1
1
1
1
1
1
1
1
1
1
1
1
1
1
1
1
1
1
1
1
1
1
1
1
1
1
1
1
1
1
1
1
1
1
1
1
1
1
1
1
1
1
1
1
1
1
1
1
1
1
1
1
1
1
1
1
1
1
1
1
1
1
1
1
1
1
1
1
1
1
1
1
1
1
1
1
1
1
1
1
1
1
1
1
1
1
1
1
1
1
1
1
1
1
1
1
1
1
1
1
1
1
1
1
1
1
1
1
1
1
1
1
1
1
1
1
1
1
1
1
1
1
1
1
1
1
1
1
1
1
1
1
1
1
1
1
1
1
1
1
1
1
1
1
1
1
1
1
1
1
1
1
1
1
1
1
1
1
1
1
1
1
1
1
1
1
1
1
1
1
1
1
1
1
1
1
1
1
1
1
1
1
1
1
1
1
1
1
1
1
1
1
1
1
1
1
1
1
1
1
1
1
1
1
1
1
1
1
1
1
1
1
1
1
1
1
1
1
1
1
1
1
1
1
1
1
1
1
1
1
1
1
1
1
1
1
1
1
1
1
1
1
1
1
1
1
1
1
1
1
1
1
1
1
1
1
1
1
1
1
1
1
1
1
1
1
1
1
1
1
1
1
1
1
1
1
1
1
1
1
1
1
1
1
1
1
1
1
1
1
1
1
1
1
1
1
1
1
1
1
1
1
1
1
1
1
1
1
1
1
1
1
1
1
1
1
1
1
1
1
1
1
1
1
1
1
1
1
1
1
1
1
1
1
1
1
1
1
1
1
1
1
1
1
1
1
1
1
1
1
1
1
1
1
1
1
1
1
1
1
1
1
1
1
1
1
1
1
1
1
1
1
1
1
1
1
1
1
1
1
1
1
1
1
1
1
1
1
1
1
1
1
1
1
1
1
1
1
1
1
1
1
1
1
1
1
1
1
1
1
1
1
1
1
1
1
1
1
1
1
1
1
1
1
1
1
1
1
1
1
1
1
1
1
1
1
1
1
1
1
1
1
1
1
1
1
1
1
1
1
1
1
1
1
1
1
1
1
1
1
1
1
1
1
1
1
1
1
1
1
1
1
1
1
1
1
1
1
1
1
1
1
1
1
1
1
1
1
1
1
1
1
1
1
1
1
1
1
1
1
1
1
1
1
1
1
1
1
1
1
1
1
1
1
1
1
1
1
1
1
1
1
1
1
1
1
1
1
1
1
1
1
1
1
1
1
1
1
1
1
1
1
1
1
1
1
1
1
1
1
1
1
1
1
1
1
1
1
1
1
1
1
1
1
1
1
1
1
1
1
1
1
1
1
1
1
1
1
1
1
1
1
1
1
1
1
1
1
1
1
1
1
1
1
1
1
1
1
1
1
1
1
1
1
1
1
1
1
1
1
1
1
1
1
1
1
1
1
1
1
1
1
1
1
1
1
1
1
1
1
1
1
1
1
1
1
1
1
1
1
1
1
1
1
1
1
1
1
1
1
1
1
1
1
1
1
1
1
1
1
1
1
1
1
1
1
1
1
1
1
1
1
1
1
1
1
1
1
1
1.07303
1.2125
1.28578
1.29304
1.29204
1.29427
1.29805
1.30326
1.00194
1.02067
1.05247
1.0889
1.12251
1.14653
1.16219
1.17303
1.00007
1.00195
1.0092
1.02302
1.0415
1.0572
1.0723
1.09015
1
1.00008
1.00092
1.0042
1.01286
1.02556
1.04007
1.05685
1
1
1.00003
1.00031
1.00181
1.00651
1.01497
1.0302
1
1
1
1.00001
1.00009
1.0006
1.00245
1.00803
1
1
1
1
1
1.00002
1.00014
1.00081
1
1
1
1
1
1
1
1.00003
1
1
1
1
1
1
1
1
1
1
1
1
1
1
1
1
1
1
1
1
1
1
1
1
1
1
1
1
1
1
1
1
1
1
1
1
1
1
1
1
1
1
1
1
1
1
1
1
1.45705
1.45575
1.45053
1.4403
1.42626
1.41149
1.39896
1.39024
1.45701
1.45571
1.4505
1.44026
1.42623
1.41146
1.39893
1.39021
1.45704
1.45573
1.45052
1.44028
1.42624
1.41147
1.39892
1.39019
1.45714
1.45583
1.45064
1.44042
1.42637
1.41159
1.39901
1.39024
1.45742
1.45614
1.45096
1.44075
1.42672
1.41191
1.39928
1.39043
1.45791
1.45667
1.45149
1.44131
1.42729
1.41246
1.39973
1.39076
1.45857
1.45736
1.45219
1.44205
1.42806
1.41319
1.40035
1.39123
1.45936
1.45818
1.45301
1.44294
1.42898
1.41405
1.40109
1.39178
1.46024
1.45909
1.45395
1.44395
1.43001
1.41499
1.40187
1.39233
1.4611
1.45997
1.45487
1.44494
1.431
1.41589
1.40258
1.39278
1.4618
1.46068
1.45566
1.44577
1.43185
1.41665
1.40317
1.39312
1.46233
1.46123
1.45629
1.44648
1.43257
1.41729
1.40361
1.39331
1.46274
1.46165
1.45678
1.44704
1.43317
1.4178
1.40394
1.39339
1.46308
1.46199
1.4572
1.44754
1.4337
1.41826
1.40422
1.39341
1.46344
1.46236
1.45765
1.44807
1.43427
1.41877
1.40455
1.39349
1.46393
1.46286
1.45821
1.44872
1.43497
1.41942
1.40502
1.39372
1.46455
1.46349
1.45892
1.44953
1.43584
1.42026
1.40569
1.39414
1.46543
1.46438
1.45985
1.45052
1.43688
1.42126
1.40654
1.39473
1.46668
1.46562
1.46112
1.45182
1.43818
1.42248
1.40758
1.39552
1.46816
1.46709
1.46262
1.45336
1.43972
1.42391
1.40878
1.39646
1.46972
1.46863
1.46417
1.45491
1.44123
1.42529
1.40994
1.39734
1.47115
1.47004
1.46558
1.45632
1.44258
1.42651
1.41098
1.39815
1.47232
1.47119
1.46674
1.45746
1.4437
1.42755
1.41184
1.39878
1.4732
1.47205
1.46761
1.45835
1.44459
1.42835
1.4125
1.39925
1.47385
1.47268
1.46826
1.45903
1.44525
1.42895
1.41298
1.39959
1.47438
1.47318
1.46877
1.45955
1.44578
1.42946
1.41341
1.39988
1.47489
1.47367
1.46925
1.46003
1.44628
1.42995
1.41384
1.40022
1.47555
1.47429
1.46985
1.46065
1.44691
1.43058
1.41442
1.40073
1.47646
1.47514
1.47066
1.46145
1.44774
1.43141
1.41521
1.40143
1.47757
1.4762
1.47166
1.46243
1.44873
1.4324
1.41616
1.4023
1.47874
1.47735
1.47278
1.46355
1.44986
1.43354
1.41726
1.40331
1.47993
1.47854
1.47396
1.46475
1.45108
1.43479
1.41848
1.40441
1.48097
1.47962
1.47508
1.46594
1.45235
1.43608
1.41974
1.40556
1.48161
1.48035
1.47593
1.46697
1.45352
1.43735
1.42101
1.40675
1.48182
1.48068
1.47644
1.46772
1.45451
1.43854
1.42229
1.40801
1.48169
1.48065
1.47662
1.46821
1.45533
1.43963
1.42356
1.40935
1.48128
1.48037
1.47654
1.46846
1.45598
1.44063
1.42482
1.41075
1.48069
1.47991
1.47633
1.4686
1.45653
1.4416
1.4261
1.41218
1.48034
1.47965
1.47624
1.46881
1.45716
1.44263
1.4274
1.41358
1.4804
1.47977
1.47651
1.46934
1.45802
1.44374
1.42863
1.4148
1.48098
1.48041
1.47729
1.47026
1.45904
1.4448
1.42964
1.41566
1.48223
1.48165
1.47852
1.47142
1.46009
1.44568
1.43029
1.41605
1.48405
1.48328
1.47997
1.47261
1.46098
1.44622
1.43049
1.41594
1.48598
1.48496
1.48136
1.47361
1.46154
1.44635
1.43022
1.41527
1.48773
1.48639
1.4824
1.47425
1.46172
1.44608
1.42948
1.41413
1.48906
1.4874
1.48302
1.47451
1.46156
1.44544
1.42845
1.4129
1.48973
1.48787
1.48323
1.47444
1.46114
1.44467
1.42751
1.41196
1.48964
1.48768
1.4829
1.47395
1.4605
1.44404
1.427
1.41159
1.48832
1.48646
1.48176
1.4729
1.45968
1.44363
1.42698
1.41183
1.48562
1.48412
1.47979
1.47139
1.45877
1.44341
1.42735
1.41267
1.48233
1.48123
1.47733
1.46966
1.45784
1.44328
1.42792
1.41373
1.47865
1.47807
1.47474
1.46784
1.45688
1.44309
1.42833
1.41462
1.4749
1.47482
1.47222
1.466
1.45575
1.4426
1.42837
1.41506
1.47241
1.47224
1.46982
1.464
1.45424
1.44151
1.42776
1.41484
1.47035
1.47025
1.46788
1.4619
1.45201
1.43942
1.42597
1.41353
1.46882
1.46854
1.46578
1.45928
1.44885
1.43589
1.42255
1.41069
1.46753
1.46701
1.46353
1.45585
1.44429
1.43091
1.41791
1.40682
1.4662
1.46516
1.46043
1.45129
1.43874
1.4253
1.41312
1.40342
1.46378
1.46252
1.45689
1.44727
1.43474
1.42212
1.41118
1.4026
1.45934
1.45823
1.45374
1.44544
1.43443
1.42292
1.4136
1.40658
1.45351
1.45238
1.45428
1.44782
1.44002
1.43236
1.4258
1.4206
1.45334
1.45913
1.46229
1.4657
1.46176
1.45596
1.44925
1.44276
1.44956
1.47832
1.4835
1.48843
1.48348
1.47626
1.46759
1.45858
1.41149
1.52017
1.48544
1.45847
1.44464
1.44505
1.44245
1.4375
)
;

boundaryField
{
    inlet
    {
        type            fixedValue;
        value           nonuniform 0();
    }
    outlet
    {
        type            inletOutlet;
        inletValue      nonuniform 0();
        value           nonuniform 0();
    }
    bottom
    {
        type            symmetryPlane;
    }
    top
    {
        type            symmetryPlane;
    }
    obstacle
    {
        type            zeroGradient;
    }
    front
    {
        type            empty;
    }
    back
    {
        type            empty;
    }
    procBoundary2to1
    {
        type            processor;
        value           nonuniform List<scalar> 
16
(
1
1
1
1
1
1
1
1
1
1
1
1
1
1
1
1
)
;
    }
    procBoundary2to3
    {
        type            processor;
        value           nonuniform List<scalar> 
28
(
1.38547
1.38543
1.3854
1.38541
1.38552
1.38574
1.38605
1.38639
1.38668
1.38687
1.38693
1.38684
1.38662
1.38635
1.38614
1.3861
1.38623
1.38653
1.38703
1.38767
1.38828
1.38884
1.38926
1.38955
1.38976
1.38992
1.39016
1.3906
)
;
    }
    procBoundary2to10
    {
        type            processor;
        value           nonuniform List<scalar> 
129
(
1
1
1
1
1
1
1
1
1
1
1
1
1
1
1
1
1
1
1
1
1
1
1
1
1
1
1
1
1
1
1
1
1
1
1
1
1
1
1
1
1
1
1
1
1
1
1
1
1
1
1
1
1
1
1
1
1
1
1
1
1
1
1
1
1
1
1
1
1
1
1
1
1
1
1
1
1
1
1
1
1
1
1
1
1
1
1
1
1
1
1
1
1
1
1
1
1
1
1
1
1
1
1
1
1
1
1
1
1
1
1
1
1
1
1
1
1
1
1
1
1
1
1
1
1
1
1
1
1
)
;
    }
    procBoundary2to11
    {
        type            processor;
        value           nonuniform List<scalar> 
27
(
1.39119
1.39195
1.39283
1.39376
1.39475
1.39581
1.39699
1.3983
1.3997
1.40113
1.40248
1.40355
1.40415
1.40427
1.40389
1.40291
1.40158
1.40031
1.39947
1.39924
1.39965
1.40072
1.40204
1.4032
1.40391
1.40404
1.40327
)
;
    }
    procBoundary2to19
    {
        type            processor;
        value           nonuniform List<scalar> 
23
(
1.3127
1.18225
1.10346
1.06671
1.04437
1.019
1.0034
1.00021
1
1
1
1
1
1
1.40122
1.39833
1.39632
1.39647
1.40168
1.41658
1.43668
1.45009
1.43289
)
;
    }
}


// ************************************************************************* //
