/*--------------------------------*- C++ -*----------------------------------*\
  =========                 |
  \\      /  F ield         | OpenFOAM: The Open Source CFD Toolbox
   \\    /   O peration     | Website:  https://openfoam.org
    \\  /    A nd           | Version:  7
     \\/     M anipulation  |
\*---------------------------------------------------------------------------*/
FoamFile
{
    version     2.0;
    format      ascii;
    class       volScalarField;
    location    "5";
    object      p;
}
// * * * * * * * * * * * * * * * * * * * * * * * * * * * * * * * * * * * * * //

dimensions      [0 2 -2 0 0 0 0];

internalField   nonuniform List<scalar> 
607
(
0.00561355
0.00541101
0.00669119
0.00669444
0.00670025
0.00670769
0.00671564
0.0067228
0.00672772
0.00672877
0.00672416
0.00671192
0.00668997
0.00665614
0.00660829
0.00654432
0.00646234
0.00636081
0.00623854
0.00609495
0.00592982
0.0057441
0.00553817
0.00672302
0.00672743
0.00673544
0.00674604
0.00675805
0.00677015
0.00678086
0.00678851
0.00679124
0.00678699
0.00677354
0.00674857
0.00670967
0.00665449
0.0065808
0.00648666
0.00637052
0.00623139
0.00606867
0.00588303
0.0056745
0.00675382
0.00675939
0.00676958
0.00678333
0.00679941
0.00681648
0.00683305
0.00684742
0.00685767
0.00686169
0.00685714
0.00684153
0.00681225
0.00676666
0.00670219
0.00661653
0.00650766
0.00637419
0.00621507
0.00603063
0.00582047
0.00678358
0.00679029
0.00680264
0.00681951
0.00683965
0.0068617
0.00688417
0.00690534
0.00692329
0.00693582
0.00694053
0.00693478
0.00691575
0.00688054
0.00682627
0.00675018
0.00664982
0.00652333
0.00636912
0.00618715
0.0059765
0.00681226
0.0068201
0.00683459
0.00685455
0.00687871
0.00690574
0.00693412
0.00696216
0.00698793
0.0070092
0.00702349
0.00702805
0.00701989
0.00699586
0.00695273
0.00688737
0.00679682
0.0066787
0.00653087
0.00635281
0.00614299
0.00683985
0.00684879
0.00686539
0.00688839
0.00691655
0.00694851
0.00698281
0.00701776
0.00705143
0.00708162
0.00710578
0.00712108
0.00712437
0.00711228
0.00708126
0.00702779
0.0069484
0.00684016
0.00670029
0.00652776
0.0063203
0.00686633
0.00687636
0.00689502
0.00692103
0.00695311
0.00698997
0.00703015
0.00707202
0.00711367
0.00715291
0.00718719
0.0072136
0.00722889
0.00722947
0.00721152
0.00717111
0.00710427
0.0070075
0.00687731
0.00671209
0.00650872
0.00689171
0.00690279
0.00692347
0.00695242
0.00698837
0.00703006
0.00707608
0.00712484
0.0071745
0.0072229
0.00726749
0.00730535
0.00733313
0.00734709
0.00734312
0.00731694
0.00726409
0.00718044
0.00706178
0.00690582
0.00670849
0.00691597
0.00692808
0.00695074
0.00698256
0.0070223
0.00706874
0.00712052
0.00717613
0.0072338
0.00729141
0.00734648
0.00739608
0.0074368
0.00746477
0.00747568
0.00746488
0.00742744
0.00735865
0.00725346
0.0071089
0.00691976
0.00693914
0.00695225
0.00697681
0.00701143
0.00705488
0.00710597
0.00716343
0.00722582
0.00729146
0.00735831
0.00742396
0.00748552
0.00753956
0.00758215
0.00760876
0.00761447
0.00759388
0.0075417
0.00745204
0.00732116
0.00714262
0.0069612
0.00697528
0.0070017
0.00703903
0.00708609
0.00714173
0.00720476
0.00727384
0.00734737
0.00742345
0.00749974
0.00757343
0.00764113
0.00769884
0.00774195
0.00776524
0.00776292
0.00772912
0.00765712
0.00754238
0.00737703
0.00698218
0.00699719
0.00702541
0.00706537
0.00711592
0.007176
0.00724447
0.00732011
0.00740145
0.00748669
0.00757364
0.00765957
0.00774118
0.00781449
0.00787479
0.00791668
0.007934
0.00792036
0.00786822
0.0077722
0.00762287
0.00700209
0.007018
0.00704794
0.00709045
0.00714439
0.00720876
0.00728254
0.00736461
0.00745362
0.00754793
0.00764549
0.00774372
0.00783943
0.00792871
0.00800683
0.00806826
0.00810654
0.00811483
0.00808474
0.00801015
0.00787987
0.00702095
0.00703773
0.00706933
0.00711427
0.00717148
0.00724002
0.00731895
0.00740728
0.00750381
0.00760706
0.00771515
0.00782568
0.00793561
0.00804114
0.00813761
0.00821944
0.00827991
0.00831184
0.00830602
0.00825564
0.00814765
0.00703878
0.00705639
0.00708958
0.00713687
0.00719722
0.00726977
0.00735369
0.00744811
0.00755198
0.007664
0.00778249
0.00790524
0.00802943
0.00815143
0.00826668
0.00836965
0.00845347
0.00851067
0.00853132
0.00850799
0.00842565
0.00705561
0.007074
0.00710872
0.00715825
0.00722161
0.00729802
0.00738675
0.00748706
0.00759807
0.00771867
0.00784738
0.00798224
0.00812066
0.00825924
0.00839361
0.00851834
0.00862653
0.00871054
0.00875979
0.00876637
0.00871317
0.00707146
0.0070906
0.00712676
0.00717844
0.00724468
0.00732479
0.00741814
0.00752414
0.00764206
0.00777101
0.00790973
0.00805653
0.00820907
0.00836425
0.00851795
0.00866495
0.00879841
0.00891065
0.00899053
0.00902985
0.00900934
0.00708635
0.00710621
0.00714375
0.00719746
0.00726645
0.00735009
0.00744788
0.00755934
0.00768394
0.00782097
0.00796945
0.00812795
0.00829445
0.00846617
0.0086393
0.00880893
0.00896839
0.00911012
0.00922255
0.00929737
0.00931314
0.00710033
0.00712086
0.0071597
0.00721534
0.00728694
0.00737395
0.00747597
0.00759266
0.00772368
0.00786853
0.00802648
0.0081964
0.00837662
0.00856471
0.00875727
0.00894975
0.00913579
0.0093081
0.00945481
0.00956779
0.00962338
0.0071134
0.00713458
0.00717464
0.00723211
0.00730619
0.00739639
0.00750244
0.00762413
0.0077613
0.00791366
0.00808076
0.00826178
0.00845541
0.00865964
0.00887149
0.00908691
0.00929992
0.00950368
0.00968622
0.00983982
0.0099387
0.00712561
0.00714739
0.00718862
0.00724781
0.00732422
0.00741745
0.00752731
0.00765376
0.00779679
0.00795636
0.00813226
0.00832401
0.00853069
0.00875073
0.00898164
0.00921992
0.00946011
0.00969599
0.00991565
0.0101121
0.0102576
0.00713699
0.00715933
0.00720165
0.00726246
0.00734107
0.00743715
0.00755063
0.00768158
0.00783019
0.00799663
0.00818096
0.00838304
0.00860235
0.0088378
0.00908742
0.00934833
0.00961574
0.00988415
0.010142
0.0103833
0.0105784
0.00714757
0.00717043
0.00721377
0.0072761
0.00735677
0.00745554
0.00757242
0.00770763
0.00786152
0.00803448
0.00822685
0.00843883
0.00867031
0.00892069
0.00918857
0.00947176
0.0097662
0.0100673
0.010364
0.0106517
0.0108995
0.00715737
0.00718073
0.00722501
0.00728876
0.00737137
0.00747265
0.00759272
0.00773193
0.00789081
0.00806994
0.00826995
0.00849136
0.0087345
0.00899928
0.00928487
0.00958983
0.00991095
0.0102447
0.0105807
0.010916
0.0112188
0.00716644
0.00719025
0.00723542
0.00730049
0.00738489
0.00748852
0.00761158
0.00775455
0.0079181
0.00810305
0.00831027
0.00854063
0.00879488
0.00907347
0.00937614
0.00970223
0.0100495
0.0104155
0.010791
0.0111745
0.0115345
0.00717479
0.00719903
0.00724502
0.00731131
0.00739739
0.0075032
0.00762904
0.00777551
0.00794344
0.00813385
0.00834785
0.00858665
0.00885144
0.0091432
0.00946224
0.0098087
0.0101814
0.010579
0.0109938
0.0114257
0.0118447
0.00718247
0.0072071
0.00725384
0.00732126
0.00740889
0.00751672
0.00764513
0.00779485
0.00796686
0.00816236
0.00838272
0.00862945
0.00890416
0.00920842
0.00954305
0.00990902
0.0103063
0.0107347
0.0111883
0.0116681
0.0121474
0.0071895
0.00721449
0.00726192
0.00733039
0.00741945
0.00752915
0.00765995
0.00781268
0.00798846
0.00818868
0.00841495
0.00866908
0.0089531
0.00926916
0.00961852
0.010003
0.0104238
0.0108819
0.0113736
0.0119005
0.0124407
0.00719591
0.00722123
0.00726928
0.0073387
0.00742908
0.00754051
0.00767353
0.00782907
0.00800838
0.008213
0.00844476
0.00870574
0.00899841
0.00932559
0.00968876
0.0100905
0.0105335
)
;

boundaryField
{
    inlet
    {
        type            zeroGradient;
    }
    outlet
    {
        type            fixedValue;
        value           nonuniform 0();
    }
    cylinder
    {
        type            zeroGradient;
    }
    top
    {
        type            symmetryPlane;
    }
    bottom
    {
        type            symmetryPlane;
    }
    defaultFaces
    {
        type            empty;
    }
    procBoundary8to0
    {
        type            processor;
        value           nonuniform List<scalar> 
22
(
0.00549104
0.00529254
0.00665838
0.00666047
0.00666407
0.00666836
0.00667226
0.00667452
0.00667373
0.00666833
0.0066566
0.00663668
0.00660664
0.00656451
0.00650836
0.00643639
0.00634705
0.00623913
0.00611182
0.00596487
0.00579838
0.00579838
)
;
    }
    procBoundary8to9
    {
        type            processor;
        value           nonuniform List<scalar> 
24
(
0.00519414
0.00531546
0.00544655
0.00558803
0.00574052
0.00590463
0.00608093
0.00626996
0.0064722
0.0066881
0.006918
0.0071622
0.00742086
0.00769405
0.0079817
0.00828357
0.00859926
0.00892816
0.00926945
0.00962208
0.00998477
0.010356
0.010734
0.0111168
)
;
    }
    procBoundary8to16
    {
        type            processor;
        value           nonuniform List<scalar> 
22
(
0.0110202
0.011549
0.0121216
0.0127234
0.00720173
0.00722737
0.00727601
0.00734626
0.00743776
0.00755065
0.00768556
0.00784353
0.00802594
0.00823453
0.00847134
0.00873871
0.00903943
0.00937726
0.0097538
0.0101721
0.0110202
0.0106345
)
;
    }
    procBoundary8to17
    {
        type            processor;
        value           nonuniform List<scalar> 5(0.0115019 0.0118869 0.0122689 0.0126447 0.0130114);
    }
}


// ************************************************************************* //
