/*--------------------------------*- C++ -*----------------------------------*\
  =========                 |
  \\      /  F ield         | OpenFOAM: The Open Source CFD Toolbox
   \\    /   O peration     | Website:  https://openfoam.org
    \\  /    A nd           | Version:  7
     \\/     M anipulation  |
\*---------------------------------------------------------------------------*/
FoamFile
{
    version     2.0;
    format      ascii;
    class       volVectorField;
    location    "1.258";
    object      U;
}
// * * * * * * * * * * * * * * * * * * * * * * * * * * * * * * * * * * * * * //

dimensions      [0 1 -1 0 0 0 0];

internalField   nonuniform List<vector> 
12359
(
(0.981419 0.000133746 4.61924e-17)
(0.971798 -0.000862835 -9.66781e-17)
(0.999959 -1.85322e-06 4.94777e-18)
(0.936716 0.0010465 1.85509e-16)
(0.977062 -0.00104139 -7.71557e-17)
(0.888197 0.000346617 -7.41106e-17)
(0.853217 0.000137928 -4.31456e-18)
(0.872669 3.54049e-05 -5.74889e-17)
(0.803616 0.00950337 3.25971e-17)
(0.900984 0.000110056 4.08258e-17)
(0.828265 0.0096006 3.76566e-18)
(0.743589 0.0282049 -5.24044e-17)
(0.380985 0.0307542 -1.95844e-16)
(0.931851 0.000384675 1.57753e-16)
(0.943106 -0.000181584 2.39382e-16)
(0.566973 0.0238491 -3.4374e-17)
(0.485748 0.0251945 -1.03519e-16)
(0.994714 6.9776e-05 -1.33439e-18)
(0.995097 0.000105772 9.87867e-19)
(0.955681 -8.65106e-05 -1.66566e-16)
(0.924861 -0.000875595 7.0255e-17)
(0.773687 0.0164631 2.94384e-17)
(0.962653 -0.0017235 7.88853e-17)
(0.95294 0.000881227 -1.37953e-17)
(0.968687 -0.00108806 -2.09406e-17)
(0.958126 -0.00133434 -1.18863e-16)
(0.998659 -0.000115242 -7.8778e-17)
(0.998844 -8.15509e-05 -1.52501e-17)
(0.995947 -5.76105e-06 1.93058e-17)
(0.998101 -6.16814e-05 4.2227e-17)
(0.997628 -3.37506e-05 -3.06962e-18)
(0.999423 4.205e-05 5.03746e-18)
(0.999767 -1.42293e-05 3.82172e-17)
(0.998413 -4.96651e-05 3.09447e-17)
(0.999908 -2.02095e-06 -3.13032e-17)
(0.997479 -3.88498e-05 6.81799e-18)
(0.988922 -0.00030577 7.76531e-17)
(0.982681 -0.000267284 -1.68858e-17)
(0.979371 -0.000770816 -8.35314e-17)
(0.985631 -0.000421673 6.99284e-17)
(0.973622 -0.000779126 6.63956e-19)
(0.984132 -0.000353826 2.71649e-17)
(0.99117 -0.00036195 5.25905e-17)
(0.99234 -0.00026716 -1.96114e-17)
(0.996755 -0.000157649 -2.69261e-17)
(0.996344 -9.5628e-05 -5.19078e-17)
(0.997105 -0.000122395 7.46325e-18)
(0.997772 -9.28399e-05 -1.36956e-17)
(0.995508 5.14983e-05 -6.16853e-17)
(0.998553 -8.04155e-05 -6.20925e-17)
(0.998939 -5.66588e-05 -1.09917e-17)
(0.999127 -6.71107e-05 2.47597e-18)
(0.999449 -1.23035e-05 -3.3977e-17)
(0.994219 5.52037e-06 -2.71725e-17)
(0.999595 1.38832e-05 6.00835e-17)
(0.999714 -1.2615e-05 -1.57431e-17)
(0.992998 -2.74965e-05 -3.25629e-17)
(0.99979 -2.87001e-05 -2.81836e-18)
(0.999768 -2.29618e-05 -2.43294e-17)
(0.999863 1.63996e-05 1.40756e-17)
(0.999687 -1.77997e-05 -3.94098e-17)
(0.999928 1.17879e-05 1.12221e-17)
(0.999016 -6.15437e-05 -2.10471e-17)
(0.198052 0.0729643 -1.08422e-15)
(0.993605 -6.75155e-05 6.46348e-17)
(0.913677 -0.00111602 3.47453e-17)
(0.989795 4.88971e-05 5.17466e-18)
(0.999224 -1.60924e-05 8.12278e-18)
(0.987725 -0.000529687 1.01342e-16)
(0.644252 0.0297487 1.53746e-17)
(0.0336459 0.036335 2.00927e-15)
(0.975213 -0.00083633 8.84802e-17)
(0.999959 -1.35142e-05 -1.41095e-17)
(0.986512 -0.000502331 1.32069e-16)
(0.948548 -0.00102676 1.17076e-16)
(0.999899 5.60661e-06 2.22735e-17)
(0.999409 -5.62896e-05 -2.90223e-17)
(0.999928 -8.37157e-06 -2.32748e-17)
(0.989262 -0.000476564 -8.63545e-17)
(0.701262 0.00312061 2.06509e-17)
(0.921401 0.061427 4.58323e-17)
(1.00369 0.00286506 -1.55439e-18)
(1.00004 -1.1246e-05 1.03314e-18)
(0.997919 0.012639 -1.08107e-18)
(1.09471 0.149059 1.76871e-17)
(1.02229 0.000787912 -3.80028e-18)
(1.00388 0.00267302 -4.34721e-18)
(1.00167 0.000242357 3.72498e-18)
(1.113 0.0744586 2.30116e-17)
(1.0828 0.159072 2.54374e-17)
(0.999948 0.000201376 2.1715e-18)
(0.262962 0.184838 -4.5376e-16)
(1 -8.33125e-06 -1.1128e-17)
(0.999545 0.00652278 1.46457e-17)
(0.999253 0.0112931 8.91379e-18)
(1.03823 0.00128284 -1.51858e-19)
(1.00008 0.00540325 1.55718e-18)
(0.999313 0.00618106 -1.04454e-17)
(0.990442 0.0303089 9.42038e-18)
(0.993997 0.0189156 1.9073e-17)
(0.937528 0.0787623 -7.62817e-18)
(1 2.57636e-05 1.39662e-17)
(1.02191 9.04823e-05 -4.5316e-18)
(1.26261 0.0948675 -1.30419e-17)
(1.00487 0.000951574 -3.84679e-18)
(1.0337 0.0234559 -7.86875e-18)
(1.00024 -8.4504e-05 -6.65602e-20)
(1.08819 0.150633 2.45184e-18)
(1.02275 -0.00200706 1.81351e-18)
(1.03376 0.0224393 -2.27098e-18)
(1.00004 0.00506903 -5.88924e-18)
(1.00361 0.00299021 -6.00497e-19)
(0.940352 0.0462954 4.71889e-17)
(0.955923 0.0747226 -7.15968e-18)
(0.998925 0.0109783 -5.92128e-19)
(1.00298 0.000140778 7.1088e-18)
(0.95303 0.0796205 1.70213e-17)
(1.00479 0.00236666 2.35867e-18)
(1.12774 0.0610585 2.9811e-17)
(1 1.46672e-05 -4.60215e-19)
(1.00003 0.00517677 3.47108e-18)
(0.860837 0.0267501 6.00152e-17)
(1.00171 0.000215039 -3.83931e-18)
(1.03939 0.00801915 6.28916e-18)
(1.00494 0.00244222 1.27458e-17)
(1.00343 0.000209262 2.44347e-19)
(1.00817 0.0946588 1.10397e-17)
(0.998289 0.0129972 2.75341e-18)
(0.999997 1.27832e-05 1.21894e-17)
(1.00465 0.00253115 -6.7681e-20)
(1.00258 0.000629177 8.31672e-18)
(1.05039 0.0218682 -5.81045e-18)
(1.05293 0.0205029 -1.11695e-17)
(1.05148 0.0192835 -8.41711e-18)
(1.00022 9.28243e-05 -4.05173e-21)
(1.0387 0.00832624 6.53603e-18)
(1.00285 6.2082e-05 -4.45244e-18)
(1.0389 0.00816306 7.18285e-19)
(1.00001 0.000107976 2.74891e-17)
(1.00785 0.0931678 -7.07555e-18)
(1 2.61298e-05 -7.93239e-19)
(0.981575 0.00221102 -1.1198e-16)
(1.03201 0.01421 -4.22768e-18)
(1.00027 -2.63449e-05 2.02585e-18)
(1.03928 0.0408967 -1.21011e-17)
(0.895668 0.0275572 -4.32887e-17)
(1.00002 -5.09585e-06 -3.10573e-18)
(1.08718 0.125057 6.83612e-18)
(1.00516 0.000907963 4.94892e-18)
(0.920893 0.0679172 -1.19571e-16)
(1.04096 -0.000153831 5.26504e-19)
(0.999997 2.75931e-05 -5.41473e-18)
(1.03198 0.0149577 4.57522e-18)
(1.00183 0.000131524 1.05076e-17)
(1.00001 -4.87505e-06 -4.86852e-18)
(0.577759 1.31243 -6.89329e-17)
(0.934247 0.0889534 2.11308e-17)
(1.04965 0.0218763 -5.76979e-18)
(1.00007 0.00542379 2.14267e-18)
(0.99927 0.000440598 -1.68691e-18)
(1.00244 0.0454625 -9.09852e-18)
(0.999259 0.000616743 -5.24449e-18)
(1.04062 0.00686815 5.31505e-18)
(1.03425 0.0126854 -7.58958e-18)
(1.00004 7.33322e-05 -1.46447e-18)
(1.00324 0.000673919 7.29276e-19)
(1.00086 0.0457549 7.06774e-18)
(0.875845 0.014237 -9.88709e-17)
(1.03303 0.0121357 -2.42086e-18)
(1.12242 0.0734023 5.49429e-18)
(0.999986 1.8303e-05 4.49678e-17)
(0.99998 6.63383e-05 9.38302e-17)
(1.0338 0.0101451 -4.00414e-18)
(0.970757 0.00248615 2.66693e-16)
(1.00476 0.000973702 -3.51583e-18)
(1.00403 0.091446 -2.5181e-17)
(0.996621 0.000509083 -2.07137e-17)
(0.99669 0.000894974 -6.91477e-17)
(0.934848 0.046595 -1.54305e-16)
(1.00354 0.0881554 -2.16545e-17)
(0.932132 0.00633445 1.99795e-16)
(1.00001 3.25661e-05 1.12112e-18)
(0.999983 2.09047e-05 -1.41493e-17)
(1.00409 0.00294212 -7.53811e-18)
(0.991473 0.0283759 1.75904e-17)
(0.863605 0.105044 1.00825e-16)
(1.00438 0.00593186 -9.38288e-18)
(1.00005 0.0109098 -1.30222e-17)
(1.04045 0.000917166 -2.62866e-18)
(1.00466 0.00606122 4.59375e-18)
(0.999597 0.0102466 -4.55701e-18)
(1.03996 0.00426251 6.17353e-19)
(1.03635 -0.000599913 -5.57432e-19)
(1.00191 0.000314102 6.87225e-18)
(1.03466 0.0211792 1.06365e-18)
(1.08926 0.0834153 1.19999e-17)
(1.01507 0.0129993 -5.64257e-18)
(1.0035 0.00619551 3.77732e-18)
(1.03145 0.01655 6.67749e-18)
(1.00459 0.00251288 -1.34482e-18)
(0.892578 0.0286112 4.93614e-17)
(1.04184 0.00190993 -8.64239e-19)
(0.99272 0.0189162 -3.58689e-18)
(1.03366 0.0210838 3.64568e-18)
(1.036 0.0392879 -1.57329e-18)
(1.00001 3.78785e-05 3.96068e-19)
(1.03686 0.0386416 1.63524e-18)
(0.992392 0.0182663 -1.19057e-17)
(1.04272 0.00902504 6.27427e-19)
(1.00571 0.00398244 -2.10855e-18)
(1.00001 3.42256e-05 6.42815e-19)
(1.04649 0.0173072 -1.5598e-18)
(1.04623 0.0180477 -3.20096e-18)
(1.05305 0.121846 -3.95604e-17)
(0.822663 0.0849117 -1.86721e-17)
(0.999957 3.18103e-05 1.96768e-17)
(1.00387 0.00612491 -1.00563e-17)
(0.998984 0.0104842 -1.66299e-17)
(1.00417 0.00595561 1.52733e-18)
(0.981634 0.00105211 -9.79011e-17)
(0.945442 0.0627535 -1.89039e-17)
(1.00542 0.00399409 -4.73625e-18)
(1.03966 0.00659137 1.16321e-18)
(0.472855 0.380462 -1.58273e-16)
(1.00544 0.00207088 -5.27059e-18)
(1.00001 4.55201e-05 -2.95562e-18)
(0.980781 0.00113267 -5.30207e-17)
(1.01633 -0.00314898 -3.02232e-18)
(1.00041 0.0881293 5.52115e-18)
(1.00281 0.00671619 5.75902e-18)
(1.0029 0.00652164 -5.60352e-18)
(1.00003 -2.16092e-05 -3.08592e-19)
(1.03843 0.0414419 -5.09929e-18)
(0.992777 0.0242906 4.99919e-18)
(1.00075 0.0106191 -7.87641e-19)
(0.993698 0.0215791 7.75065e-18)
(1.00001 3.09144e-05 -5.17964e-19)
(1.03257 0.0164787 -1.29373e-18)
(1.00055 0.010462 -5.0331e-18)
(0.635217 0.25494 -2.71358e-18)
(1.00008 5.75959e-05 -5.55983e-19)
(1.0237 0.000224483 -2.82212e-18)
(1.0002 0.00786773 -1.07518e-17)
(0.983605 0.163257 4.02804e-17)
(1.00254 0.0499846 -5.60596e-18)
(1.08566 0.125696 -1.09156e-17)
(0.999851 3.85662e-05 3.22536e-17)
(1.04224 0.00719902 9.69552e-19)
(1.00407 0.00141539 -2.81777e-18)
(1.03475 0.00247888 -1.3098e-18)
(1.04421 0.0146753 -5.59298e-18)
(0.985105 0.000233935 -5.28008e-17)
(0.996964 0.000703984 4.70332e-17)
(1.00242 0.00646213 7.12684e-18)
(0.499916 0.438504 3.71507e-17)
(1.23439 0.137866 -2.60572e-17)
(0.999989 7.28258e-06 2.80765e-18)
(1.00564 0.00312579 7.0626e-18)
(0.349062 0.303983 9.29837e-17)
(0.414639 0.0255479 -4.20016e-17)
(0.993166 0.0192343 8.0693e-18)
(1.00236 0.0479032 -1.07517e-17)
(1.00063 0.0825361 -1.7917e-17)
(1.035 0.0193582 8.43581e-18)
(0.97425 0.000557121 9.83729e-17)
(1.3371 0.364977 -1.70721e-17)
(1.11721 0.0613524 4.12263e-17)
(1.00309 0.051089 2.19038e-18)
(1.00551 0.00269415 5.29705e-18)
(1.03847 0.00894552 4.83636e-18)
(1.03411 0.0108483 -5.45971e-18)
(0.987752 0.0274612 -4.19426e-18)
(1.0328 0.0134165 -6.82486e-18)
(1.00234 0.00684839 6.27083e-19)
(1.00568 0.00346559 3.17903e-18)
(1.00002 2.07885e-05 5.18708e-19)
(1.00551 0.00294359 -6.17303e-18)
(1.15531 0.111457 -8.46156e-18)
(1.00465 0.0515345 3.29752e-18)
(1.00034 0.000137163 6.63631e-19)
(0.999996 5.9938e-05 -2.51469e-17)
(1.03545 0.0193501 3.71562e-18)
(1.0079 0.00144326 -1.25035e-17)
(0.991069 0.00070813 1.88896e-17)
(1.02388 0.00143852 -8.03928e-19)
(1.00001 3.10731e-05 -2.03963e-18)
(0.999149 0.0788746 9.03983e-18)
(1 7.05856e-06 -3.43104e-17)
(0.999997 -1.87381e-05 4.64741e-18)
(0.999429 0.000102188 -4.31904e-17)
(1.04064 0.00625741 3.09289e-18)
(1.00406 0.00237459 -2.76365e-18)
(1.41765 0.421543 -1.00427e-17)
(1.00026 3.29739e-05 5.81464e-19)
(1.00044 0.000112906 9.42242e-19)
(1.02177 0.00255501 1.56534e-18)
(1.00411 0.000712032 3.58954e-18)
(0.943864 0.0689235 6.35493e-17)
(0.99929 0.00988086 -1.45043e-19)
(0.999072 0.00024903 8.48276e-18)
(0.999959 6.12151e-05 4.67363e-18)
(1.14799 0.0998854 1.75442e-18)
(1.00224 0.0802488 5.49697e-18)
(0.999961 5.46327e-05 -7.49495e-18)
(1.00373 0.00621378 -3.37248e-18)
(0.999693 0.00899612 2.71069e-18)
(1.00436 -0.00107181 2.22644e-18)
(1.00287 -0.000654526 -3.54716e-18)
(1.00318 0.000272137 1.11163e-18)
(1.00424 0.000834255 1.87457e-19)
(0.995391 0.00155704 4.76288e-17)
(0.83144 0.0656686 4.24751e-17)
(1.00461 0.000422086 1.0242e-17)
(0.997826 0.000114898 1.0845e-16)
(0.986173 0.00102549 3.04053e-17)
(1.02537 0.0279453 5.97035e-18)
(1.10373 0.0527741 -1.90481e-18)
(1.00489 0.000397942 -5.94362e-18)
(0.989402 0.0260361 -1.3356e-17)
(0.569479 0.07386 -6.17215e-17)
(0.999993 1.01592e-05 -1.80953e-17)
(1.02782 0.0132931 -1.33282e-18)
(1.00032 -8.43842e-06 7.03659e-19)
(1.01462 0.0133564 2.78399e-18)
(1.0003 0.000120005 -7.588e-19)
(1.00531 -0.00119172 -9.46362e-18)
(0.781377 0.0370809 3.4342e-16)
(1.02889 0.0150776 -1.18696e-17)
(0.830938 0.0881028 -1.81481e-16)
(0.990936 0.000415523 2.14091e-17)
(1.00058 0.00829587 -6.48299e-18)
(1.03669 0.00207975 -2.61976e-18)
(1.0406 -0.00233787 -1.89555e-18)
(1.00053 0.00803502 -2.58402e-18)
(1.03828 0.00312337 -5.47235e-18)
(1.03632 0.0017116 -5.24358e-18)
(1.00069 0.000118721 1.22264e-18)
(0.999574 0.000509471 7.19205e-18)
(0.999542 0.000429748 -5.75472e-18)
(0.999516 0.00047212 -6.89133e-18)
(0.999534 0.000358819 -3.28558e-17)
(0.693931 0.279691 4.53961e-17)
(1.00003 5.15269e-05 6.31134e-19)
(0.938698 0.0779629 -9.67437e-18)
(1.04312 0.00543127 -1.25832e-18)
(0.992732 0.0257249 2.7525e-18)
(1.03336 0.0142348 5.73482e-18)
(1.02846 0.0162357 -3.47944e-18)
(1.02121 0.000965642 1.82105e-18)
(1.01382 0.0127699 -3.31391e-18)
(1.02933 0.0146824 -7.18504e-18)
(1.0134 0.0130871 -4.14866e-18)
(0.990819 0.0270912 -9.94318e-18)
(1.02733 0.0295471 9.73647e-18)
(1.02624 0.0334459 -1.0589e-17)
(0.955316 0.0501144 -3.28028e-17)
(0.982114 0.00203997 -1.60426e-16)
(1.03127 0.082673 8.34515e-19)
(0.98387 0.00193809 -5.05768e-17)
(0.982833 0.00108368 -5.06358e-17)
(1.03086 0.0166751 1.19086e-18)
(0.938584 0.0968576 -4.92589e-18)
(1.00311 0.00279112 -6.56643e-18)
(0.999613 9.75504e-05 6.09778e-17)
(1.01622 0.0117454 -4.7414e-18)
(0.99962 4.88243e-05 -2.89614e-17)
(1.00344 0.00314808 1.46376e-18)
(0.724249 0.0204375 3.5842e-17)
(0.0775695 0.0865029 -3.27378e-16)
(1.00321 0.00304359 -8.02139e-18)
(0.99997 1.82134e-05 4.97633e-17)
(1.00022 -8.35208e-06 -3.21452e-18)
(0.999989 2.96985e-05 6.3794e-18)
(1.0294 0.0141942 -7.02863e-18)
(1 2.2039e-05 3.11742e-18)
(0.999996 2.14202e-05 2.2189e-18)
(1.12003 0.0784288 3.58438e-18)
(1.03381 0.0120265 -6.25868e-18)
(1.08091 0.177997 2.62597e-17)
(1.00144 0.00342065 1.03562e-18)
(1.03599 0.0142394 1.2014e-18)
(1.0078 0.00135202 1.02149e-17)
(0.999907 0.00876131 -9.7388e-18)
(1.03182 0.0301867 -1.65096e-17)
(1.01627 0.0114481 -9.65556e-19)
(0.937167 0.00412052 1.67397e-16)
(1.01627 0.0104646 6.48913e-18)
(1.00299 0.00272959 5.82565e-20)
(1.00047 0.000404034 -2.11758e-19)
(1.03429 0.0112025 -5.69912e-18)
(1.03651 0.0143513 -4.42976e-18)
(1.00596 0.00124126 3.11162e-19)
(0.710936 0.0164921 1.86746e-16)
(1.03219 0.029455 -1.40779e-17)
(1.03812 -0.000664263 -5.72488e-19)
(0.997751 0.0352352 2.25239e-18)
(1.00048 0.0433481 6.83515e-19)
(0.99998 0.000129898 -9.32686e-17)
(0.409334 0.56422 -2.54983e-16)
(1.03259 0.0848289 -1.05146e-17)
(1.00131 0.00364636 7.14902e-18)
(0.970073 0.18172 2.83983e-17)
(0.984334 0.00107932 8.61185e-17)
(0.999971 7.85762e-05 3.35254e-18)
(1.00001 3.31229e-05 1.31077e-18)
(0.999991 5.78029e-05 5.90085e-19)
(1.09061 0.174136 3.85602e-17)
(0.945171 0.0957697 -5.94332e-18)
(0.98841 0.0286573 -9.76359e-18)
(1.02871 0.011082 -5.10963e-18)
(1.04128 -0.00262946 -2.52743e-18)
(0.999179 0.0117003 -6.27833e-18)
(0.92885 0.00825395 2.46871e-16)
(0.99848 0.0353335 1.57237e-17)
(1.04733 0.0195249 5.60842e-18)
(1.1131 0.0516552 3.06908e-17)
(0.689675 0.0430035 -3.31621e-17)
(0.993616 0.0257398 1.23917e-17)
(0.953234 0.0540749 4.50228e-17)
(1.01873 0.00197942 7.69851e-18)
(1.02549 0.0386509 3.07399e-18)
(1.01204 0.0115368 6.50559e-18)
(1.01667 0.0129259 -7.10263e-18)
(0.99836 0.000223175 1.46367e-16)
(1.01237 0.0114098 3.386e-18)
(1.0314 0.0126288 3.90429e-18)
(0.999986 1.33329e-05 4.05991e-18)
(0.549014 0.0202703 -1.68412e-17)
(0.990188 0.00122541 -5.04921e-18)
(1.05765 0.00807817 -5.21613e-18)
(1.03755 0.0121437 -1.70955e-19)
(0.993413 0.00113671 1.13622e-16)
(0.948571 0.0601814 -4.46194e-17)
(1.16486 0.254651 2.70761e-17)
(1.02982 0.0161348 1.85559e-18)
(1.0086 0.0165033 9.62799e-18)
(1.03807 -0.000958328 -1.5432e-18)
(1.03828 0.0123709 4.5051e-18)
(1.02896 0.0344543 -7.37119e-18)
(1.00444 0.00292822 -1.71462e-19)
(1.00001 1.0306e-06 -1.33088e-18)
(0.993933 0.0708272 -1.32856e-17)
(1.00028 8.94182e-05 -3.91334e-19)
(1.05119 0.0220414 -1.36085e-18)
(1.00278 9.73006e-05 1.09162e-17)
(0.96531 0.00258145 -1.40827e-16)
(0.962878 0.0413117 -1.1487e-17)
(1.01122 0.000642982 3.93058e-19)
(1.09328 0.122407 -5.69138e-18)
(0.941652 0.0685867 4.03086e-17)
(0.994239 0.0175351 -6.76288e-18)
(1.00095 0.00398668 -7.155e-21)
(0.58531 0.0986594 -4.64468e-16)
(1.00062 0.000209324 -1.36133e-18)
(1.00153 0.00307092 1.9806e-18)
(1.04263 0.0444898 -1.74417e-17)
(0.999978 3.29953e-05 1.50208e-17)
(1.00111 0.00421551 -2.72297e-19)
(1.00159 0.00284343 4.62433e-18)
(0.732812 0.220511 -5.17699e-17)
(0.664275 0.468373 1.31842e-17)
(0.998579 0.011975 -9.35771e-18)
(1.00142 8.22986e-05 4.11343e-18)
(0.932997 0.0346936 -6.3645e-18)
(0.999706 0.0428496 4.54879e-18)
(1.02853 0.0123557 -9.78043e-18)
(1.03219 0.0165177 5.44671e-18)
(1.03338 0.012384 -6.9112e-18)
(1.00075 -2.72713e-05 -8.86661e-19)
(0.999995 4.03218e-05 -3.39524e-18)
(0.999838 0.037875 -3.70866e-18)
(0.999981 9.44452e-06 4.45948e-18)
(0.961279 0.04333 8.65522e-18)
(1.02802 0.0121673 -7.10717e-18)
(1.02589 0.0365743 -8.22667e-18)
(0.996877 0.000810105 -8.82238e-18)
(0.995329 0.068813 2.01919e-17)
(1.045 0.0436124 -6.47097e-18)
(0.998237 5.60121e-05 -2.66656e-17)
(1.0016 0.0116426 -3.34231e-18)
(1.006 0.00157961 -4.677e-18)
(0.929399 0.0461364 -5.39172e-17)
(1.04312 0.0451165 -1.11609e-17)
(0.999983 6.85945e-05 2.39797e-17)
(1.00012 0.0396789 -4.9531e-18)
(1.03456 0.00870934 -1.37887e-18)
(1.01751 0.00145825 -3.12563e-19)
(0.999095 0.0407871 5.04836e-18)
(1.003 -0.000611841 -8.29436e-18)
(0.929118 0.0931266 2.92067e-17)
(1.02705 -0.000273186 -4.16782e-18)
(1.03897 0.00933492 3.83025e-18)
(1.02685 0.0341492 -1.16073e-17)
(1.00068 -0.000102828 4.38908e-18)
(1.00127 0.0121523 -8.22307e-18)
(1.05263 0.0649531 -6.87487e-19)
(1.05386 0.0197511 -1.09142e-17)
(0.999999 2.54126e-05 -6.57245e-18)
(1.01114 0.0168244 3.69321e-18)
(0.985292 0.177067 4.49059e-17)
(1.04046 0.00283076 -5.93349e-18)
(0.512358 0.459611 -5.48187e-17)
(1 3.32975e-05 -4.28494e-18)
(1.00253 0.000437197 -1.63815e-19)
(1.00062 0.000156972 8.6115e-18)
(1.0323 0.0157563 -3.763e-18)
(0.994515 0.0193837 -5.98823e-18)
(0.995397 0.0136857 3.24064e-18)
(1.00333 0.000142962 3.54938e-18)
(0.998469 0.0376607 1.1537e-18)
(1.01757 0.0130515 -2.2242e-18)
(0.972097 0.00452273 -6.80594e-17)
(1.00981 0.00150748 -5.69355e-19)
(1.07819 0.0959306 -1.11595e-17)
(1.00022 0.000125714 1.30584e-18)
(1.08173 0.11149 -1.00412e-17)
(1.00154 0.000177186 4.34513e-18)
(0.629173 0.60682 1.41083e-17)
(1.02835 0.00301828 -3.19974e-18)
(1.04974 0.0676181 2.00089e-18)
(0.999875 3.67881e-05 -4.4023e-17)
(0.997115 0.000775736 -1.81305e-17)
(1.02588 0.0290523 8.13393e-18)
(1.00397 0.00219903 -7.81451e-19)
(0.999111 0.000143761 5.00715e-18)
(0.99224 0.00021692 4.24871e-18)
(0.994172 0.0210568 2.92217e-17)
(0.994043 0.0205442 2.77819e-17)
(0.965529 0.160284 -8.32759e-18)
(1.03374 0.0345595 4.81084e-18)
(1.03415 0.0338764 4.37121e-19)
(1.00001 2.03168e-05 -2.1835e-18)
(1.00434 0.00220011 -1.30692e-18)
(1.02824 0.0134312 -6.91895e-19)
(1.05262 0.0191407 -5.62731e-18)
(1.00001 -2.22283e-06 -1.76661e-18)
(1.00043 -0.000150827 4.74019e-19)
(1.03431 0.0104042 1.31751e-18)
(1.00062 0.000209093 -1.32449e-18)
(0.789982 0.044242 -2.31681e-16)
(1.15839 0.254834 1.90468e-17)
(1.04217 0.0172623 2.79981e-17)
(1.00001 1.33835e-05 2.06507e-18)
(1.00679 0.00978834 -2.10192e-18)
(1.04474 0.0142814 -8.10295e-20)
(0.995124 0.0149692 7.96156e-18)
(1.00458 0.000979854 4.15905e-18)
(0.371442 0.661512 1.27884e-16)
(1.00031 -1.37199e-05 1.20954e-18)
(0.930545 0.0770452 -4.55349e-19)
(0.957044 0.0480196 2.50927e-17)
(1.00705 0.00979808 -5.09378e-19)
(1.00395 0.000627159 7.04823e-18)
(0.998987 0.000138863 -3.51023e-17)
(1.01057 0.000591477 5.37779e-18)
(1.04336 0.00500342 -3.43617e-18)
(1.01735 0.00907154 -2.09715e-18)
(0.996723 0.011944 2.0752e-17)
(0.999995 8.5163e-06 8.57591e-19)
(0.999991 2.44373e-05 -3.46353e-17)
(0.994735 0.0176306 1.06999e-17)
(0.996538 0.00157775 -3.71024e-17)
(0.992163 0.0615285 8.32439e-19)
(1.033 0.0145389 -4.09088e-18)
(0.999415 1.0814e-05 -4.09328e-17)
(1.00032 0.000201571 -1.36883e-18)
(1.02737 0.0313632 5.87668e-18)
(0.595916 -0.00202486 -2.3941e-17)
(0.997974 0.000245168 -3.86706e-17)
(1.0471 0.0188805 3.39561e-18)
(1.00017 3.84146e-05 1.15871e-18)
(0.996161 0.0117657 8.39573e-18)
(0.949222 0.0829313 8.0255e-19)
(1.04234 0.00233788 -1.44129e-18)
(1.04366 0.0138924 -2.3582e-18)
(0.950185 0.0561184 1.91927e-17)
(1.00209 0.0195159 -1.08625e-17)
(1.04288 0.0066159 -5.40088e-19)
(1.00001 4.54885e-05 -1.00641e-19)
(0.999915 1.86526e-05 -7.52649e-17)
(1.03865 0.0026903 6.77876e-19)
(1.01081 0.0101881 -4.82529e-18)
(1.0027 0.0202135 -1.02846e-17)
(1.01093 0.0102921 2.45425e-18)
(0.999998 5.04235e-05 1.98792e-18)
(1.0004 0.000150588 7.70764e-19)
(1.00367 0.000496501 3.28586e-18)
(0.998704 0.0309659 -2.50003e-18)
(1.04337 0.00838936 8.24365e-19)
(0.945528 0.0402806 -2.21678e-17)
(0.990251 0.000925993 -9.28238e-17)
(0.932518 0.0368395 1.7374e-17)
(1.03148 0.0151864 9.1641e-18)
(1.00857 0.0178672 5.65691e-18)
(0.935219 0.045101 -9.61194e-17)
(0.985967 0.0217395 3.94514e-17)
(1.05425 0.00511125 1.85455e-18)
(1.03347 0.0134385 -1.90626e-18)
(0.984007 0.0217945 1.28626e-17)
(0.992952 0.0601037 -5.87025e-18)
(0.999889 7.53309e-05 9.23927e-18)
(1.00921 0.0673336 1.45088e-17)
(1.02673 0.0287844 1.26862e-17)
(1.00002 6.82958e-06 2.80253e-18)
(0.999989 7.42786e-07 1.73957e-17)
(1.00071 2.96737e-05 4.70137e-19)
(0.999755 0.000315213 1.07339e-17)
(1.06291 0.0742225 5.80506e-18)
(1.01074 0.017338 -3.99214e-18)
(1.01336 0.000250971 1.13747e-18)
(0.940915 0.0444419 6.73766e-17)
(0.992192 0.000284479 8.14425e-17)
(0.79726 0.01947 2.37494e-16)
(1.03954 0.0035622 -4.32087e-18)
(1.04275 0.00506506 -2.09806e-19)
(1.00403 -0.000429553 -1.11944e-18)
(1.04977 0.0443463 -2.00803e-17)
(1.00001 4.34603e-05 -4.76101e-18)
(0.997898 0.0305775 2.96102e-18)
(1.00053 0.0038839 2.87917e-18)
(0.934803 0.114202 3.09852e-17)
(0.934465 0.0512522 -3.56637e-17)
(1.00175 0.0169901 -5.10616e-18)
(1.01704 0.0128609 -9.2049e-18)
(0.414001 0.662328 1.01753e-16)
(1.03113 0.0140908 1.75394e-18)
(1.04134 0.0650614 2.03634e-17)
(1.00969 0.013211 7.60498e-18)
(0.974791 0.147644 -8.97799e-18)
(1.14874 0.210924 -1.8051e-17)
(1.00108 -8.68381e-05 1.88723e-18)
(0.998274 0.00350635 -6.63807e-18)
(1 1.66057e-05 2.90022e-18)
(1.05701 0.0697329 3.16135e-18)
(0.998378 0.00340051 -2.13145e-18)
(1.01653 0.0100132 3.13463e-18)
(1.09698 0.116608 -1.06442e-17)
(1.00034 0.000100421 1.10746e-18)
(0.973416 0.0033297 1.67286e-17)
(0.990509 0.0523364 -2.08368e-18)
(1.00688 0.0156352 -5.05869e-18)
(0.997731 0.000172919 1.57847e-17)
(1.00166 0.0176192 -3.86722e-18)
(0.99937 0.000763883 7.61466e-18)
(0.994942 0.0164125 -1.24596e-17)
(0.999368 0.00060644 4.42494e-18)
(0.999385 0.000865503 1.4022e-18)
(0.995455 0.0138797 1.14436e-17)
(1.03919 0.00748191 4.65363e-18)
(1.03608 0.00970685 2.60377e-18)
(1.00686 0.0173892 -8.62033e-18)
(0.651103 0.0453806 -1.11044e-16)
(1.04336 -0.000412799 -1.84024e-18)
(0.301215 0.280287 -3.01129e-16)
(1.03023 0.0160961 -1.34788e-18)
(1.024 0.000937976 -1.143e-18)
(0.995156 0.0148298 8.24528e-18)
(1.02893 0.0161357 -4.77167e-18)
(0.991583 0.0273275 1.53316e-17)
(1.03662 0.000100081 -1.75189e-18)
(0.545009 0.377667 -1.3312e-16)
(0.949691 0.0353865 -1.49128e-17)
(0.992556 0.0252175 -3.56531e-18)
(1.00447 0.0235978 4.61086e-18)
(0.994985 0.00102412 8.35848e-18)
(0.996452 0.00105597 1.14216e-17)
(1.02634 0.0313829 6.09759e-18)
(0.999996 2.86761e-05 -2.5157e-18)
(1.07018 -0.0198866 -9.80081e-18)
(0.999517 9.84741e-06 2.1415e-18)
(0.947332 0.0391546 -2.10898e-17)
(0.998148 0.0747414 2.08343e-17)
(1.06118 0.0673007 -6.73095e-18)
(1.03952 0.0279869 1.30186e-18)
(1.0358 0.0163894 2.57661e-18)
(0.991736 0.0513488 -9.05266e-18)
(1.00914 0.0134474 5.38286e-18)
(1.03903 0.0282523 -4.90964e-18)
(0.971333 0.0307334 -1.13733e-17)
(1.042 0.0655573 7.01736e-18)
(1.00758 0.0227114 9.21445e-19)
(1.0446 0.0434927 -1.01224e-17)
(1.00516 0.0236821 -8.21424e-19)
(1.00001 2.38617e-05 -6.91323e-19)
(0.998156 0.0265595 -3.85136e-18)
(0.639103 0.0524359 7.51135e-18)
(0.971007 0.137504 -7.87008e-18)
(1.00652 0.00573098 -1.3752e-18)
(1.00005 -1.01618e-05 -2.84765e-18)
(0.999282 0.000164599 -1.76781e-17)
(0.994269 0.00794293 -7.92729e-18)
(0.968142 0.00251318 -2.35021e-16)
(1.03623 0.00812243 4.21032e-18)
(1.02999 -0.000905988 -2.80523e-18)
(1.00092 3.05584e-05 3.03134e-18)
(1.0049 0.00704065 -5.12878e-18)
(0.993061 0.0277509 6.1559e-18)
(1.00662 0.0056088 1.58354e-18)
(1.00925 0.000885462 -2.01087e-18)
(1.04562 0.0386093 -6.69344e-18)
(0.993626 0.00155581 -5.55634e-17)
(0.991014 0.0358254 2.83253e-18)
(1.03772 0.0173843 1.62323e-18)
(1.00533 0.00678223 -1.82063e-18)
(1.00798 0.00704436 -5.95947e-18)
(0.941583 0.0630903 3.1517e-17)
(1 -1.88045e-05 4.45938e-19)
(0.993194 0.00573827 -1.68864e-17)
(1.28926 0.190718 7.89273e-18)
(0.999878 3.42366e-05 1.36e-16)
(1.04018 0.0410942 -1.43612e-17)
(0.996155 0.0736303 -4.30571e-18)
(1.00761 0.00708249 -4.97305e-18)
(0.959842 0.0456503 1.08982e-17)
(1.03691 0.0170261 1.95738e-18)
(0.997475 0.0264763 2.75113e-18)
(1.02903 0.0363487 -7.69175e-18)
(0.999629 0.00331991 -3.92474e-18)
(0.940242 0.0382087 4.04193e-17)
(1.00535 0.00127714 1.02764e-17)
(1.03495 0.00127112 -3.86394e-18)
(1.03603 0.0170642 1.19739e-18)
(0.937115 0.0411264 -5.23215e-17)
(0.999775 0.00334681 9.77574e-20)
(1.04324 0.0071066 -2.04011e-18)
(1.05421 0.0266647 4.7551e-18)
(0.992075 0.0351928 -7.60795e-18)
(1.00595 0.0139473 1.53293e-17)
(1.00465 0.00302953 -1.22838e-17)
(1.01093 0.0675576 2.96944e-19)
(0.782914 0.205977 -1.74144e-17)
(0.995624 0.000978977 -1.76667e-19)
(0.999962 4.23516e-05 1.44166e-17)
(0.993496 0.0261419 8.07672e-19)
(0.999992 -7.28309e-06 -4.6885e-19)
(1.14463 0.212573 -6.17743e-18)
(1.00627 0.023399 2.39393e-18)
(1.03529 0.0923156 4.20279e-18)
(1.01616 0.00821819 -2.74779e-18)
(1.02915 0.00156436 2.22735e-18)
(0.250579 0.143703 -9.61333e-16)
(1.00647 0.0163409 -6.56999e-18)
(1.08381 0.20795 3.1837e-17)
(1.03593 0.00817053 2.76368e-18)
(0.945118 0.0131298 3.79863e-17)
(1.02893 0.0134619 -9.67876e-18)
(0.996851 0.0123025 1.0321e-18)
(1.00637 0.0150814 -5.09941e-18)
(1.01624 -0.000377634 3.25034e-18)
(1.09087 0.101554 -1.06257e-17)
(1.08031 0.0944948 1.91499e-18)
(1.00158 0.000121963 -8.78056e-19)
(1.00154 -0.000385107 5.35816e-19)
(0.924825 0.0461711 8.63079e-17)
(1.002 5.06813e-05 2.18085e-18)
(0.685356 0.395778 -7.91873e-17)
(1.02778 0.0340759 -3.35399e-18)
(0.966121 0.169461 2.35169e-17)
(1.00429 0.00312765 6.48905e-18)
(0.0928956 0.300206 -4.5865e-16)
(1.12166 0.234773 5.96318e-18)
(1.00581 0.0231821 5.8773e-18)
(0.999994 1.62289e-05 3.07407e-18)
(0.999889 0.00294166 -3.06923e-18)
(0.954684 0.0319911 -1.59463e-17)
(0.994207 0.00792352 4.27105e-18)
(0.988987 0.000221067 -5.5253e-17)
(0.996882 0.00991997 1.76423e-17)
(1.03204 0.0129998 -4.49652e-18)
(0.970836 0.0305721 -9.99607e-18)
(1.08326 -0.0068384 -8.49382e-18)
(0.607844 0.0350658 -1.11358e-16)
(1.00071 -8.56517e-05 3.29671e-18)
(0.96592 0.0369612 1.325e-17)
(1.03335 0.0314443 -5.77025e-18)
(0.928024 0.0541366 -3.19747e-17)
(1.00479 0.013415 -2.45693e-18)
(0.929529 0.0778772 2.27677e-17)
(1.03836 0.0103868 -1.49233e-18)
(0.952383 0.0348608 -1.47392e-17)
(0.997382 0.000611809 -3.76686e-17)
(1.00006 7.5639e-06 8.20791e-19)
(1.0382 0.0267815 2.94438e-18)
(1.04063 0.0280564 3.08857e-18)
(1.02947 0.00172205 -2.04593e-19)
(0.923355 0.038346 1.50683e-17)
(1.033 0.0904934 9.2481e-19)
(1.02295 0.000309182 -5.98113e-18)
(0.997026 0.0252483 -2.18702e-18)
(1.00039 0.00414054 -6.69498e-18)
(1.00967 0.00906319 -4.68379e-18)
(0.783996 0.0264184 1.16549e-16)
(1.00966 0.00913025 -1.72452e-18)
(1.03524 0.023377 -2.05524e-19)
(0.981395 0.0420496 1.728e-18)
(1.02733 0.0105483 -5.01138e-18)
(1.01179 -0.000148197 -5.46175e-19)
(0.996192 0.0118455 1.09394e-17)
(1.05304 0.0252622 8.86157e-18)
(1.01559 0.00758404 -1.29469e-18)
(1.00517 0.0136328 -3.39509e-19)
(1.06674 -0.0228802 -4.48819e-17)
(0.990184 0.0309152 -6.20115e-18)
(1.02114 0.00116065 -4.39468e-18)
(0.792193 0.33641 -8.86584e-17)
(1 9.26872e-06 -1.14838e-18)
(1.01584 0.00818212 -1.51921e-18)
(0.998422 0.0217511 -6.88722e-18)
(0.99225 0.00697913 -4.15649e-18)
(1.00304 0.000816956 1.74745e-18)
(0.997827 0.0250037 -8.24652e-18)
(1.00002 -2.16163e-05 -1.62152e-18)
(1.04236 0.111553 5.00028e-18)
(1.00571 0.00109135 -7.16801e-18)
(0.969542 0.00486159 1.86087e-16)
(1.03578 0.0360258 -9.00149e-19)
(0.951469 0.0499935 -1.82334e-17)
(1.01701 0.00979855 -1.90392e-18)
(1.01652 0.00897058 -4.46127e-18)
(1.03712 0.0263776 9.34262e-18)
(1.0233 0.108318 -3.49415e-17)
(0.999872 7.95603e-05 5.69333e-19)
(0.992952 0.000612548 7.70155e-17)
(1.02391 0.00175072 -9.94352e-18)
(1.09661 0.203292 2.30576e-17)
(1.04053 0.0278307 -1.65688e-18)
(0.999843 0.00316769 2.67927e-18)
(0.237309 0.0983559 -9.88504e-16)
(1.00004 2.43591e-05 4.00013e-19)
(1.00505 0.00153963 -1.08783e-17)
(0.662946 0.0143966 2.70509e-17)
(0.994444 0.00539113 1.06726e-17)
(0.999565 0.00351352 -2.99508e-18)
(0.999462 0.00370609 -1.85382e-18)
(0.982657 0.0391491 1.24719e-18)
(0.958697 0.0281707 -8.68016e-18)
(0.99987 3.49131e-05 -3.27572e-17)
(0.993402 0.00668597 1.56276e-17)
(0.936733 0.0669237 -2.48057e-17)
(0.99789 0.0217212 1.04195e-17)
(0.995616 0.0177997 -3.39566e-19)
(0.996488 0.00969332 5.37814e-18)
(1.00101 6.5761e-05 -4.44866e-18)
(0.957093 0.0312472 2.48196e-17)
(1.06465 0.063074 -1.20785e-18)
(0.994687 0.0160788 -8.14699e-18)
(0.923803 0.0325779 -1.39956e-17)
(1.03536 0.00797545 -4.86138e-18)
(1.03522 -0.00159233 -2.8094e-18)
(1.03855 0.109332 4.12568e-19)
(1.03235 0.0319594 -8.95599e-18)
(0.996492 0.00995851 2.12599e-17)
(1.00531 0.00148882 -5.00708e-18)
(1.08252 0.108604 -7.94602e-18)
(1.0403 0.0072647 2.31815e-18)
(0.975477 0.0254057 1.39653e-18)
(1.00074 0.00415609 -2.34469e-18)
(0.999712 0.000241918 -3.15074e-17)
(0.929768 0.0129436 -1.05485e-16)
(1.04943 0.0445164 -1.55741e-17)
(1.01458 0.00717657 1.2316e-19)
(1.01046 0.0506503 -6.94329e-18)
(1.01495 0.00792201 -3.49434e-18)
(0.997033 0.0101702 4.92167e-18)
(1.00563 0.00479732 -2.2407e-18)
(0.963649 0.0357363 8.40392e-18)
(0.78585 0.0133303 -4.54287e-17)
(0.301473 0.440851 3.45705e-17)
(0.964363 0.0387466 -3.64425e-18)
(0.998776 0.0185324 1.50769e-17)
(1.00565 0.00458618 -1.51682e-18)
(0.967774 0.0347517 1.12257e-17)
(0.571932 0.309322 -9.20178e-18)
(0.940495 0.0322245 4.03623e-17)
(0.999875 0.00308844 8.46413e-18)