/*--------------------------------*- C++ -*----------------------------------*\
  =========                 |
  \\      /  F ield         | OpenFOAM: The Open Source CFD Toolbox
   \\    /   O peration     | Website:  https://openfoam.org
    \\  /    A nd           | Version:  7
     \\/     M anipulation  |
\*---------------------------------------------------------------------------*/
FoamFile
{
    version     2.0;
    format      ascii;
    class       surfaceScalarField;
    location    "0.675";
    object      phi;
}
// * * * * * * * * * * * * * * * * * * * * * * * * * * * * * * * * * * * * * //

dimensions      [0 3 -1 0 0 0 0];

internalField   nonuniform List<scalar> 
12640
(
1.88178e-10
-1.93095e-10
5.55464e-10
-3.67287e-10
8.83307e-10
-3.27844e-10
1.04666e-09
-1.63353e-10
9.83422e-10
6.32358e-11
6.66519e-10
3.16902e-10
8.90835e-11
5.77435e-10
-7.43775e-10
8.32859e-10
-1.81985e-09
1.07607e-09
-3.12266e-09
1.30281e-09
-4.6332e-09
1.51055e-09
-6.331e-09
1.6978e-09
-8.19482e-09
1.86381e-09
-1.02031e-08
2.00828e-09
-1.23343e-08
2.13121e-09
-1.45671e-08
2.23286e-09
-1.68808e-08
2.31363e-09
-1.92548e-08
2.37405e-09
-2.16696e-08
2.41474e-09
-2.41059e-08
2.43638e-09
-2.65456e-08
2.43969e-09
-2.8971e-08
2.42544e-09
-3.13654e-08
2.3944e-09
-3.37128e-08
2.34739e-09
-3.5998e-08
2.28522e-09
-3.82068e-08
2.20872e-09
-4.03255e-08
2.11872e-09
-4.23415e-08
2.01606e-09
-4.42431e-08
1.90157e-09
-4.60192e-08
1.7761e-09
-4.76597e-08
1.64051e-09
-4.91553e-08
1.49564e-09
-5.04977e-08
1.34237e-09
-5.16793e-08
1.18155e-09
-5.26933e-08
1.01406e-09
-5.35341e-08
8.40801e-10
-5.41968e-08
6.62665e-10
-5.46774e-08
4.80571e-10
-5.49728e-08
2.95453e-10
-5.50811e-08
1.08255e-10
-5.5001e-08
-8.006e-11
-5.47325e-08
-2.68509e-10
-5.42764e-08
-4.56091e-10
-5.36346e-08
-6.41784e-10
-5.28101e-08
-8.24549e-10
-5.18068e-08
-1.00334e-09
-5.06297e-08
-1.17708e-09
-4.9285e-08
-1.34471e-09
-4.77798e-08
-1.50513e-09
-4.61226e-08
-1.65724e-09
-4.43227e-08
-1.79997e-09
-4.23905e-08
-1.9322e-09
-4.03376e-08
-2.05285e-09
-3.81767e-08
-2.16088e-09
-3.59215e-08
-2.25521e-09
-3.35867e-08
-2.33484e-09
-3.11879e-08
-2.39877e-09
-2.87419e-08
-2.44605e-09
-2.62661e-08
-2.47578e-09
-2.3779e-08
-2.48712e-09
-2.12997e-08
-2.47932e-09
-1.8848e-08
-2.45167e-09
-1.64445e-08
-2.40357e-09
-1.411e-08
-2.33451e-09
-1.18659e-08
-2.24412e-09
-9.7337e-09
-2.13216e-09
-7.73513e-09
-1.99857e-09
-5.89163e-09
-1.8435e-09
-4.22428e-09
-1.66735e-09
-2.75338e-09
-1.47091e-09
-1.49796e-09
-1.25543e-09
-4.7506e-10
-1.0229e-09
3.01333e-10
-7.76393e-10
8.22005e-10
-5.20668e-10
1.08533e-09
-2.63323e-10
1.10206e-09
-1.67288e-11
9.03289e-10
1.98766e-10
5.54843e-10
3.48442e-10
1.84027e-10
3.70814e-10
1.84027e-10
3.65162e-10
-5.58257e-10
8.86401e-10
-8.88529e-10
1.21791e-09
-6.59354e-10
1.13634e-09
-8.17863e-11
5.03939e-10
6.95638e-10
-7.53178e-10
1.57402e-09
-2.6642e-09
2.48846e-09
-5.22807e-09
3.39672e-09
-8.42333e-09
4.27134e-09
-1.22149e-08
5.09442e-09
-1.65588e-08
5.85438e-09
-2.14048e-08
6.54387e-09
-2.66995e-08
7.15846e-09
-3.23869e-08
7.69572e-09
-3.84104e-08
8.1547e-09
-4.4713e-08
8.53548e-09
-5.12383e-08
8.83895e-09
-5.79308e-08
9.06655e-09
-6.47363e-08
9.22017e-09
-7.16019e-08
9.30203e-09
-7.84768e-08
9.3146e-09
-8.53119e-08
9.26055e-09
-9.20602e-08
9.14268e-09
-9.86767e-08
8.96391e-09
-1.05119e-07
8.72724e-09
-1.11346e-07
8.43573e-09
-1.1732e-07
8.09252e-09
-1.23004e-07
7.70075e-09
-1.28366e-07
7.26361e-09
-1.33374e-07
6.78432e-09
-1.38e-07
6.26615e-09
-1.42217e-07
5.71237e-09
-1.46001e-07
5.1263e-09
-1.49331e-07
4.51129e-09
-1.52187e-07
3.87074e-09
-1.54554e-07
3.20807e-09
-1.56419e-07
2.52679e-09
-1.57768e-07
1.83042e-09
-1.58596e-07
1.12257e-09
-1.58894e-07
4.06904e-10
-1.58661e-07
-3.12857e-10
-1.57897e-07
-1.03293e-09
-1.56604e-07
-1.74945e-09
-1.54787e-07
-2.45852e-09
-1.52455e-07
-3.15615e-09
-1.4962e-07
-3.8383e-09
-1.46297e-07
-4.50091e-09
-1.42501e-07
-5.13986e-09
-1.38256e-07
-5.75102e-09
-1.33583e-07
-6.33024e-09
-1.28509e-07
-6.87337e-09
-1.23065e-07
-7.37628e-09
-1.17283e-07
-7.83489e-09
-1.11199e-07
-8.2452e-09
-1.04851e-07
-8.60327e-09
-9.82802e-08
-8.9053e-09
-9.15313e-08
-9.14763e-09
-8.46506e-08
-9.32678e-09
-7.76869e-08
-9.43945e-09
-7.06914e-08
-9.48264e-09
-6.37172e-08
-9.4536e-09
-5.68189e-08
-9.34994e-09
-5.00528e-08
-9.16964e-09
-4.34762e-08
-8.91114e-09
-3.71469e-08
-8.5734e-09
-3.11231e-08
-8.15601e-09
-2.54623e-08
-7.65934e-09
-2.02211e-08
-7.08469e-09
-1.54539e-08
-6.43455e-09
-1.12119e-08
-5.71297e-09
-7.54118e-09
-4.92612e-09
-4.48103e-09
-4.08307e-09
-2.06032e-09
-3.19711e-09
-2.93265e-10
-2.28772e-09
8.27123e-10
-1.38371e-09
1.33854e-09
-5.28141e-10
1.32308e-09
2.14224e-10
9.25158e-10
7.46365e-10
3.70842e-10
9.25129e-10
5.54867e-10
3.30117e-10
-8.88375e-10
6.66393e-10
-1.22481e-09
6.13787e-10
-6.06751e-10
-8.89837e-11
6.20982e-10
-1.61294e-09
2.21959e-09
-4.05741e-09
4.01848e-09
-7.46684e-09
5.89789e-09
-1.18452e-08
7.77511e-09
-1.71672e-08
9.59331e-09
-2.33863e-08
1.13135e-08
-3.04413e-08
1.29093e-08
-3.82605e-08
1.43631e-08
-4.67653e-08
1.56633e-08
-5.58728e-08
1.68032e-08
-6.54976e-08
1.77794e-08
-7.55529e-08
1.85908e-08
-8.59523e-08
1.92383e-08
-9.661e-08
1.97243e-08
-1.07442e-07
2.00519e-08
-1.18365e-07
2.02256e-08
-1.29301e-07
2.02502e-08
-1.40171e-07
2.0131e-08
-1.50903e-07
1.98739e-08
-1.61424e-07
1.94848e-08
-1.71667e-07
1.89702e-08
-1.81567e-07
1.83365e-08
-1.91065e-07
1.75904e-08
-2.00103e-07
1.67387e-08
-2.08628e-07
1.57882e-08
-2.16589e-07
1.47459e-08
-2.23942e-07
1.36189e-08
-2.30644e-07
1.24144e-08
-2.36657e-07
1.11395e-08
-2.41948e-07
9.80162e-09
-2.46485e-07
8.40816e-09
-2.50244e-07
6.96663e-09
-2.53202e-07
5.48467e-09
-2.55341e-07
3.97004e-09
-2.56649e-07
2.4306e-09
-2.57117e-07
8.74373e-10
-2.56739e-07
-6.905e-10
-2.55516e-07
-2.25575e-09
-2.53453e-07
-3.81296e-09
-2.50558e-07
-5.3536e-09
-2.46845e-07
-6.86902e-09
-2.42333e-07
-8.35044e-09
-2.37045e-07
-9.78903e-09
-2.31009e-07
-1.11759e-08
-2.24258e-07
-1.2502e-08
-2.16829e-07
-1.37584e-08
-2.08767e-07
-1.49362e-08
-2.00116e-07
-1.60265e-08
-1.90931e-07
-1.70205e-08
-1.81266e-07
-1.79097e-08
-1.71184e-07
-1.86856e-08
-1.60749e-07
-1.93402e-08
-1.50031e-07
-1.98656e-08
-1.39103e-07
-2.02545e-08
-1.28043e-07
-2.05001e-08
-1.16929e-07
-2.05961e-08
-1.05846e-07
-2.05369e-08
-9.48783e-08
-2.03177e-08
-8.41134e-08
-1.99345e-08
-7.36401e-08
-1.93845e-08
-6.35473e-08
-1.86661e-08
-5.39241e-08
-1.77793e-08
-4.48579e-08
-1.67255e-08
-3.64338e-08
-1.55088e-08
-2.87327e-08
-1.41356e-08
-2.18295e-08
-1.26163e-08
-1.57901e-08
-1.09654e-08
-1.0669e-08
-9.20425e-09
-6.50359e-09
-7.36249e-09
-3.30929e-09
-5.48203e-09
-1.07094e-09
-3.62206e-09
2.67398e-10
-1.86648e-09
8.16006e-10
-3.34381e-10
7.55014e-10
8.07359e-10
3.51227e-10
1.32892e-09
9.06091e-10
1.71831e-10
-1.06021e-09
1.04761e-10
-1.15774e-09
-5.88078e-10
8.60851e-11
-2.17082e-09
2.20372e-09
-4.82072e-09
4.8695e-09
-8.64424e-09
7.842e-09
-1.36908e-08
1.09445e-08
-1.99654e-08
1.40497e-08
-2.74386e-08
1.70665e-08
-3.60553e-08
1.99302e-08
-4.5741e-08
2.25951e-08
-5.64076e-08
2.50296e-08
-6.79567e-08
2.72124e-08
-8.02835e-08
2.913e-08
-9.32788e-08
3.07748e-08
-1.06831e-07
3.21434e-08
-1.20829e-07
3.3236e-08
-1.3516e-07
3.40553e-08
-1.49714e-07
3.46062e-08
-1.64384e-07
3.4895e-08
-1.79063e-07
3.49295e-08
-1.9365e-07
3.47182e-08
-2.08047e-07
3.42706e-08
-2.22159e-07
3.35968e-08
-2.35896e-07
3.27072e-08
-2.49172e-07
3.16129e-08
-2.61907e-07
3.03252e-08
-2.74024e-07
2.88555e-08
-2.85451e-07
2.72156e-08
-2.96123e-07
2.54175e-08
-3.05977e-07
2.34733e-08
-3.14958e-07
2.13954e-08
-3.23015e-07
1.91962e-08
-3.30102e-07
1.68884e-08
-3.36178e-07
1.44848e-08
-3.4121e-07
1.19985e-08
-3.45168e-07
9.4426e-09
-3.48029e-07
6.83058e-09
-3.49774e-07
4.17609e-09
-3.50393e-07
1.49297e-09
-3.49879e-07
-1.20468e-09
-3.48232e-07
-3.90257e-09
-3.45459e-07
-6.58616e-09
-3.41571e-07
-9.24073e-09
-3.36589e-07
-1.18514e-08
-3.30537e-07
-1.4403e-08
-3.23445e-07
-1.68803e-08
-3.15353e-07
-1.92681e-08
-3.06304e-07
-2.1551e-08
-2.96349e-07
-2.37135e-08
-2.85544e-07
-2.57405e-08
-2.73954e-07
-2.76168e-08
-2.61647e-07
-2.93273e-08
-2.487e-07
-3.08576e-08
-2.35192e-07
-3.21933e-08
-2.21211e-07
-3.33208e-08
-2.0685e-07
-3.42269e-08
-1.92205e-07
-3.48995e-08
-1.77378e-07
-3.5327e-08
-1.62475e-07
-3.54992e-08
-1.47605e-07
-3.54068e-08
-1.32881e-07
-3.50421e-08
-1.18416e-07
-3.43992e-08
-1.04327e-07
-3.34739e-08
-9.07286e-08
-3.22642e-08
-7.77367e-08
-3.07712e-08
-6.54635e-08
-2.89987e-08
-5.40176e-08
-2.69547e-08
-4.35013e-08
-2.4652e-08
-3.40082e-08
-2.21094e-08
-2.56199e-08
-1.93537e-08
-1.8402e-08
-1.64221e-08
-1.23992e-08
-1.33653e-08
-7.62859e-09
-1.02527e-08
-4.07197e-09
-7.17869e-09
-1.66607e-09
-4.27237e-09
-2.91047e-10
-1.70941e-09
2.42397e-10
2.73918e-10
2.08052e-10
1.36326e-09
1.11414e-09
-4.74338e-11
-1.01277e-09
-6.54512e-10
-5.50663e-10
-2.15917e-09
1.59074e-09
-4.80195e-09
4.8465e-09
-8.74712e-09
8.81466e-09
-1.40941e-08
1.3189e-08
-2.08879e-08
1.77383e-08
-2.91288e-08
2.22905e-08
-3.87811e-08
2.67189e-08
-4.97811e-08
3.09302e-08
-6.20429e-08
3.4857e-08
-7.54644e-08
3.8451e-08
-8.99309e-08
4.16789e-08
-1.05319e-07
4.45186e-08
-1.21501e-07
4.69564e-08
-1.38344e-07
4.89859e-08
-1.55713e-07
5.06054e-08
-1.73475e-07
5.18178e-08
-1.91498e-07
5.26289e-08
-2.0965e-07
5.30473e-08
-2.27805e-07
5.30837e-08
-2.45837e-07
5.27504e-08
-2.63627e-07
5.2061e-08
-2.81061e-07
5.10301e-08
-2.98027e-07
4.96733e-08
-3.1442e-07
4.80068e-08
-3.30143e-07
4.60474e-08
-3.451e-07
4.38124e-08
-3.59204e-07
4.13195e-08
-3.72373e-07
3.85867e-08
-3.84532e-07
3.56324e-08
-3.95612e-07
3.24752e-08
-4.05549e-07
2.91341e-08
-4.14289e-07
2.56282e-08
-4.21782e-07
2.19772e-08
-4.27984e-07
1.82008e-08
-4.3286e-07
1.43191e-08
-4.36382e-07
1.03526e-08
-4.38528e-07
6.32202e-09
-4.39284e-07
2.24844e-09
-4.38642e-07
-1.84672e-09
-4.36603e-07
-5.94171e-09
-4.33174e-07
-1.00145e-08
-4.28372e-07
-1.40426e-08
-4.2222e-07
-1.80036e-08
-4.14749e-07
-2.18746e-08
-4.05997e-07
-2.56324e-08
-3.96011e-07
-2.9254e-08
-3.84846e-07
-3.27162e-08
-3.72563e-07
-3.59957e-08
-3.59234e-07
-3.90696e-08
-3.44936e-07
-4.19152e-08
-3.29753e-07
-4.45099e-08
-3.13779e-07
-4.68318e-08
-2.97113e-07
-4.88598e-08
-2.7986e-07
-5.05734e-08
-2.62134e-07
-5.19532e-08
-2.44052e-07
-5.2981e-08
-2.25739e-07
-5.364e-08
-2.07323e-07
-5.39152e-08
-1.88937e-07
-5.37933e-08
-1.70715e-07
-5.32636e-08
-1.52797e-07
-5.23176e-08
-1.35321e-07
-5.09502e-08
-1.18425e-07
-4.91596e-08
-1.02248e-07
-4.69485e-08
-8.69225e-08
-4.43241e-08
-7.25772e-08
-4.13e-08
-5.93322e-08
-3.78969e-08
-4.72969e-08
-3.41447e-08
-3.65659e-08
-3.00847e-08
-2.72153e-08
-2.57728e-08
-1.92969e-08
-2.12837e-08
-1.28326e-08
-1.6717e-08
-7.80695e-09
-1.22043e-08
-4.15924e-09
-7.92009e-09
-1.77407e-09
-4.09459e-09
-4.71846e-10
-1.0283e-09
2.23357e-12
8.89185e-10
1.11637e-09
-2.94365e-10
-7.1841e-10
-1.5189e-09
6.73873e-10
-3.9424e-09
4.01423e-09
-7.76409e-09
8.66818e-09
-1.31213e-08
1.41718e-08
-2.00954e-08
2.01631e-08
-2.87186e-08
2.63615e-08
-3.89811e-08
3.2553e-08
-5.08376e-08
3.85754e-08
-6.42142e-08
4.43068e-08
-7.90138e-08
4.96566e-08
-9.51213e-08
5.45585e-08
-1.12408e-07
5.89655e-08
-1.30735e-07
6.28454e-08
-1.49956e-07
6.61776e-08
-1.69921e-07
6.8951e-08
-1.90477e-07
7.11618e-08
-2.11472e-07
7.28121e-08
-2.32751e-07
7.39087e-08
-2.54166e-07
7.44623e-08
-2.75569e-07
7.44866e-08
-2.96817e-07
7.39977e-08
-3.17769e-07
7.30137e-08
-3.38294e-07
7.15545e-08
-3.58262e-07
6.96412e-08
-3.77551e-07
6.7296e-08
-3.96046e-07
6.45421e-08
-4.13636e-07
6.14032e-08
-4.30221e-07
5.79039e-08
-4.45703e-07
5.40694e-08
-4.59996e-07
4.99251e-08
-4.73018e-07
4.54971e-08
-4.84696e-07
4.0812e-08
-4.94964e-07
3.58965e-08
-5.03765e-07
3.07781e-08
-5.11049e-07
2.54846e-08
-5.16774e-07
2.00441e-08
-5.20907e-07
1.44853e-08
-5.23422e-07
8.83731e-09
-5.24303e-07
3.12969e-09
-5.23542e-07
-2.60754e-09
-5.2114e-07
-8.34393e-09
-5.17106e-07
-1.40486e-08
-5.11458e-07
-1.96903e-08
-5.04225e-07
-2.52373e-08
-4.95441e-07
-3.06578e-08
-4.85154e-07
-3.59197e-08
-4.73417e-07
-4.09906e-08
-4.60295e-07
-4.58382e-08
-4.45861e-07
-5.04304e-08
-4.30195e-07
-5.47351e-08
-4.1339e-07
-5.87207e-08
-3.95543e-07
-6.23562e-08
-3.76764e-07
-6.56113e-08
-3.57167e-07
-6.84568e-08
-3.36876e-07
-7.08644e-08
-3.16022e-07
-7.28076e-08
-2.94741e-07
-7.42615e-08
-2.73178e-07
-7.52034e-08
-2.5148e-07
-7.56129e-08
-2.29801e-07
-7.54724e-08
-2.08297e-07
-7.47678e-08
-1.87126e-07
-7.34884e-08
-1.66448e-07
-7.16281e-08
-1.46422e-07
-6.91858e-08
-1.27204e-07
-6.61664e-08
-1.08946e-07
-6.25817e-08
-9.17946e-08
-5.84519e-08
-7.58843e-08
-5.38072e-08
-6.1339e-08
-4.86901e-08
-4.82656e-08
-4.31581e-08
-3.67506e-08
-3.72878e-08
-2.68549e-08
-3.11793e-08
-1.86088e-08
-2.4963e-08
-1.20055e-08
-1.88076e-08
-6.9949e-09
-1.29307e-08
-3.47699e-09
-7.61251e-09
-1.29569e-09
-3.2096e-09
-2.32875e-10
-1.73625e-10
8.83502e-10
-5.50792e-10
-1.67622e-10
-2.43075e-09
2.55383e-09
-5.83307e-09
7.41656e-09
-1.09058e-08
1.37409e-08
-1.77498e-08
2.10159e-08
-2.64205e-08
2.88337e-08
-3.69304e-08
3.68714e-08
-4.92542e-08
4.48769e-08
-6.33338e-08
5.26549e-08
-7.90827e-08
6.00557e-08
-9.63917e-08
6.69656e-08
-1.15133e-07
7.32998e-08
-1.35164e-07
7.89968e-08
-1.56332e-07
8.40133e-08
-1.78476e-07
8.83211e-08
-2.01429e-07
9.19038e-08
-2.25021e-07
9.47546e-08
-2.49084e-07
9.68746e-08
-2.73446e-07
9.82712e-08
-2.97941e-07
9.89569e-08
-3.22403e-07
9.89485e-08
-3.46671e-07
9.82663e-08
-3.70591e-07
9.69331e-08
-3.94011e-07
9.49745e-08
-4.16787e-07
9.24174e-08
-4.38782e-07
8.92909e-08
-4.59865e-07
8.56249e-08
-4.79912e-07
8.14506e-08
-4.98808e-07
7.68003e-08
-5.16446e-07
7.17068e-08
-5.32725e-07
6.6204e-08
-5.47554e-07
6.03261e-08
-5.6085e-07
5.41083e-08
-5.7254e-07
4.7586e-08
-5.82557e-07
4.07955e-08
-5.90846e-07
3.37736e-08
-5.9736e-07
2.65577e-08
-6.0206e-07
1.91858e-08
-6.04919e-07
1.16963e-08
-6.05918e-07
4.12862e-09
-6.05048e-07
-3.47766e-09
-6.0231e-07
-1.10822e-08
-5.97714e-07
-1.86441e-08
-5.91283e-07
-2.61219e-08
-5.83046e-07
-3.3474e-08
-5.73046e-07
-4.06582e-08
-5.61333e-07
-4.7632e-08
-5.47971e-07
-5.43529e-08
-5.33031e-07
-6.07784e-08
-5.16595e-07
-6.6866e-08
-4.98757e-07
-7.25737e-08
-4.79618e-07
-7.786e-08
-4.59289e-07
-8.26843e-08
-4.37894e-07
-8.70068e-08
-4.15561e-07
-9.07894e-08
-3.9243e-07
-9.39953e-08
-3.68648e-07
-9.65901e-08
-3.44368e-07
-9.85416e-08
-3.19751e-07
-9.98203e-08
-2.94964e-07
-1.004e-07
-2.70177e-07
-1.00259e-07
-2.45565e-07
-9.93795e-08
-2.21305e-07
-9.77482e-08
-1.97575e-07
-9.53585e-08
-1.7455e-07
-9.22103e-08
-1.52405e-07
-8.83113e-08
-1.31308e-07
-8.36786e-08
-1.1142e-07
-7.834e-08
-9.28914e-08
-7.2336e-08
-7.58585e-08
-6.57229e-08
-6.0441e-08
-5.85757e-08
-4.67369e-08
-5.09919e-08
-3.48187e-08
-4.30975e-08
-2.47286e-08
-3.50532e-08
-1.64736e-08
-2.70626e-08
-1.00211e-08
-1.93832e-08
-5.29467e-09
-1.2339e-08
-2.17102e-09
-6.33325e-09
-4.78863e-10
-1.86579e-09
4.04643e-10
-8.0683e-10
6.39206e-10
-3.35522e-09
5.10221e-09
-7.76389e-09
1.18252e-08
-1.41255e-08
2.01025e-08
-2.24991e-08
2.93895e-08
-3.2908e-08
3.92426e-08
-4.53402e-08
4.93036e-08
-5.97507e-08
5.92873e-08
-7.60644e-08
6.89687e-08
-9.41807e-08
7.81719e-08
-1.13976e-07
8.67613e-08
-1.3531e-07
9.46339e-08
-1.58027e-07
1.01713e-07
-1.81959e-07
1.07946e-07
-2.06932e-07
1.13294e-07
-2.32764e-07
1.17736e-07
-2.59271e-07
1.21262e-07
-2.86268e-07
1.23871e-07
-3.13569e-07
1.25572e-07
-3.40991e-07
1.26379e-07
-3.68354e-07
1.26312e-07
-3.95482e-07
1.25394e-07
-4.22204e-07
1.23655e-07
-4.48354e-07
1.21125e-07
-4.73774e-07
1.17838e-07
-4.98314e-07
1.1383e-07
-5.21827e-07
1.09139e-07
-5.4418e-07
1.03803e-07
-5.65244e-07
9.78643e-08
-5.84901e-07
9.13632e-08
-6.03039e-07
8.43428e-08
-6.1956e-07
7.68466e-08
-6.3437e-07
6.89189e-08
-6.47389e-07
6.06049e-08
-6.58545e-07
5.19508e-08
-6.67774e-07
4.30032e-08
-6.75026e-07
3.38096e-08
-6.80259e-07
2.44184e-08
-6.83441e-07
1.48785e-08
-6.84552e-07
5.23982e-09
-6.83582e-07
-4.44716e-09
-6.80533e-07
-1.41312e-08
-6.75417e-07
-2.37605e-08
-6.68256e-07
-3.32825e-08
-6.59086e-07
-4.26442e-08
-6.47952e-07
-5.17921e-08
-6.34912e-07
-6.06726e-08
-6.20033e-07
-6.92317e-08
-6.03396e-07
-7.74158e-08
-5.8509e-07
-8.51711e-08
-5.6522e-07
-9.24446e-08
-5.43896e-07
-9.9184e-08
-5.21242e-07
-1.05338e-07
-4.97392e-07
-1.10857e-07
-4.72489e-07
-1.15692e-07
-4.46685e-07
-1.19799e-07
-4.20142e-07
-1.23133e-07
-3.93029e-07
-1.25655e-07
-3.65522e-07
-1.27327e-07
-3.37803e-07
-1.28119e-07
-3.1006e-07
-1.28003e-07
-2.82483e-07
-1.26956e-07
-2.55266e-07
-1.24966e-07
-2.28602e-07
-1.22023e-07
-2.02683e-07
-1.18129e-07
-1.777e-07
-1.13295e-07
-1.53835e-07
-1.07543e-07
-1.31265e-07
-1.00911e-07
-1.10152e-07
-9.34484e-08
-9.06485e-08
-8.52268e-08
-7.28858e-08
-7.63384e-08
-5.69756e-08
-6.69021e-08
-4.30042e-08
-5.70688e-08
-3.10294e-08
-4.7028e-08
-2.10765e-08
-3.70156e-08
-1.31354e-08
-2.73243e-08
-7.15893e-09
-1.83154e-08
-3.06234e-09
-1.04298e-08
-7.25482e-10
-4.20265e-09
-3.20837e-10
-1.05738e-09
1.69658e-09
-4.27205e-09
8.31688e-09
-9.69299e-09
1.72462e-08
-1.73571e-08
2.77666e-08
-2.7279e-08
3.93114e-08
-3.94465e-08
5.14101e-08
-5.38191e-08
6.36762e-08
-7.03285e-08
7.57967e-08
-8.88802e-08
8.75204e-08
-1.09356e-07
9.86482e-08
-1.31619e-07
1.09024e-07
-1.55512e-07
1.18527e-07
-1.80866e-07
1.27068e-07
-2.07501e-07
1.3458e-07
-2.35228e-07
1.4102e-07
-2.63852e-07
1.46359e-07
-2.93174e-07
1.50584e-07
-3.22996e-07
1.53693e-07
-3.53118e-07
1.55694e-07
-3.83343e-07
1.56604e-07
-4.13476e-07
1.56445e-07
-4.43328e-07
1.55246e-07
-4.72714e-07
1.53041e-07
-5.01456e-07
1.49867e-07
-5.29382e-07
1.45764e-07
-5.56329e-07
1.40777e-07
-5.82141e-07
1.34951e-07
-6.06671e-07
1.28333e-07
-6.2978e-07
1.20973e-07
-6.5134e-07
1.12923e-07
-6.71231e-07
1.04234e-07
-6.89345e-07
9.49599e-08
-7.05581e-07
8.51552e-08
-7.19852e-07
7.48756e-08
-7.32078e-07
6.41776e-08
-7.42194e-07
5.31188e-08
-7.50142e-07
4.17577e-08
-7.55878e-07
3.01539e-08
-7.59367e-07
1.83677e-08
-7.60587e-07
6.46046e-09
-7.59529e-07
-5.50562e-09
-7.56193e-07
-1.74675e-08
-7.50592e-07
-2.93613e-08
-7.42752e-07
-4.11225e-08
-7.3271e-07
-5.2686e-08
-7.20516e-07
-6.3986e-08
-7.06232e-07
-7.49567e-08
-6.89932e-07
-8.55319e-08
-6.71702e-07
-9.56456e-08
-6.51641e-07
-1.05232e-07
-6.29859e-07
-1.14227e-07
-6.06478e-07
-1.22565e-07
-5.81631e-07
-1.30185e-07
-5.55463e-07
-1.37025e-07
-5.28129e-07
-1.43027e-07
-4.99793e-07
-1.48135e-07
-4.7063e-07
-1.52296e-07
-4.40823e-07
-1.55462e-07
-4.1056e-07
-1.5759e-07
-3.8004e-07
-1.5864e-07
-3.49463e-07
-1.58579e-07
-3.19036e-07
-1.57384e-07
-2.88966e-07
-1.55035e-07
-2.59462e-07
-1.51526e-07
-2.30732e-07
-1.46859e-07
-2.02979e-07
-1.41047e-07
-1.76402e-07
-1.34121e-07
-1.51189e-07
-1.26123e-07
-1.2752e-07
-1.17118e-07
-1.05558e-07
-1.07188e-07
-8.54511e-08
-9.64456e-08
-6.73248e-08
-8.50284e-08
-5.12821e-08
-7.31115e-08
-3.73992e-08
-6.09109e-08
-2.57233e-08
-4.86915e-08
-1.62707e-08
-3.67769e-08
-9.0271e-09
-2.5559e-08
-3.94876e-09
-1.55082e-08
-9.6737e-10
-7.18404e-09
-1.28821e-09
-1.30003e-09
2.99661e-09
-5.17005e-09
1.21869e-08
-1.15954e-08
2.36715e-08
-2.05592e-08
3.67303e-08
-3.2031e-08
5.07832e-08
-4.59613e-08
6.53404e-08
-6.22787e-08
7.99936e-08
-8.08889e-08
9.44069e-08
-1.01675e-07
1.08307e-07
-1.24502e-07
1.21474e-07
-1.49212e-07
1.33734e-07
-1.75636e-07
1.44951e-07
-2.03589e-07
1.55021e-07
-2.32877e-07
1.63868e-07
-2.63297e-07
1.7144e-07
-2.94642e-07
1.77704e-07
-3.26699e-07
1.82642e-07
-3.59257e-07
1.86251e-07
-3.92104e-07
1.88541e-07
-4.25028e-07
1.89528e-07
-4.57823e-07
1.8924e-07
-4.90288e-07
1.8771e-07
-5.22224e-07
1.84977e-07
-5.53441e-07
1.81085e-07
-5.83758e-07
1.76081e-07
-6.12998e-07
1.70017e-07
-6.40996e-07
1.62949e-07
-6.67595e-07
1.54931e-07
-6.92646e-07
1.46024e-07
-7.16011e-07
1.36289e-07
-7.37564e-07
1.25787e-07
-7.57187e-07
1.14583e-07
-7.74775e-07
1.02743e-07
-7.90232e-07
9.03325e-08
-8.03474e-07
7.74202e-08
-8.14431e-07
6.40752e-08
-8.23041e-07
5.03676e-08
-8.29256e-07
3.6369e-08
-8.3304e-07
2.2152e-08
-8.3437e-07
7.79002e-09
-8.33233e-07
-6.64204e-09
-8.29632e-07
-2.10685e-08
-8.23581e-07
-3.54129e-08
-8.15106e-07
-4.95976e-08
-8.04247e-07
-6.35445e-08
-7.91058e-07
-7.7175e-08
-7.75605e-07
-9.041e-08
-7.57966e-07
-1.0317e-07
-7.38235e-07
-1.15377e-07
-7.16516e-07
-1.26951e-07
-6.92927e-07
-1.37816e-07
-6.67598e-07
-1.47894e-07
-6.40671e-07
-1.57111e-07
-6.12301e-07
-1.65395e-07
-5.82653e-07
-1.72675e-07
-5.51903e-07
-1.78885e-07
-5.20236e-07
-1.83963e-07
-4.87847e-07
-1.87851e-07
-4.5494e-07
-1.90497e-07
-4.21723e-07
-1.91857e-07
-3.88411e-07
-1.91891e-07
-3.55225e-07
-1.9057e-07
-3.22386e-07
-1.87874e-07
-2.90117e-07
-1.83796e-07
-2.58639e-07
-1.78337e-07
-2.28169e-07
-1.71517e-07
-1.98921e-07
-1.63369e-07
-1.71097e-07
-1.53947e-07
-1.44892e-07
-1.43323e-07
-1.20483e-07
-1.31597e-07
-9.80337e-08
-1.18895e-07
-7.76873e-08
-1.05375e-07
-5.9565e-08
-9.12339e-08
-4.37639e-08
-7.6712e-08
-3.03555e-08
-6.20999e-08
-1.93854e-08
-4.7747e-08
-1.08738e-08
-3.40706e-08
-4.81872e-09
-2.15632e-08
-1.20196e-09
-1.08008e-08
-2.49017e-09
-1.53391e-09
4.53052e-09
-6.04369e-09
1.66967e-08
-1.34575e-08
3.10853e-08
-2.37076e-08
4.69804e-08
-3.67193e-08
6.37949e-08
-5.24052e-08
8.10264e-08
-7.06615e-08
9.82499e-08
-9.13662e-08
1.15112e-07
-1.14379e-07
1.3132e-07
-1.39543e-07
1.46638e-07
-1.66683e-07
1.60874e-07
-1.95612e-07
1.7388e-07
-2.26131e-07
1.8554e-07
-2.58031e-07
1.95768e-07
-2.91096e-07
2.04505e-07
-3.25104e-07
2.11712e-07
-3.59832e-07
2.1737e-07
-3.95054e-07
2.21474e-07
-4.30547e-07
2.24033e-07
-4.66086e-07
2.25068e-07
-5.01455e-07
2.24609e-07
-5.36439e-07
2.22694e-07
-5.7083e-07
2.19368e-07
-6.04427e-07
2.14682e-07
-6.37038e-07
2.08691e-07
-6.68476e-07
2.01456e-07
-6.98566e-07
1.93039e-07
-7.27142e-07
1.83507e-07
-7.54048e-07
1.7293e-07
-7.79137e-07
1.61378e-07
-8.02276e-07
1.48925e-07
-8.23339e-07
1.35647e-07
-8.42216e-07
1.21619e-07
-8.58805e-07
1.06921e-07
-8.73017e-07
9.16329e-08
-8.84778e-07
7.58355e-08
-8.94022e-07
5.96118e-08
-9.00698e-07
4.30458e-08
-9.0477e-07
2.62231e-08
-9.0621e-07
9.23022e-09
-9.05007e-07
-7.84485e-09
-9.01163e-07
-2.49131e-08
-8.94691e-07
-4.18843e-08
-8.85621e-07
-5.86674e-08
-8.73995e-07
-7.51707e-08
-8.59869e-07
-9.13015e-08
-8.43311e-07
-1.06967e-07
-8.24407e-07
-1.22074e-07
-8.03253e-07
-1.36531e-07
-7.79961e-07
-1.50244e-07
-7.54654e-07
-1.63123e-07
-7.27469e-07
-1.75078e-07
-6.98559e-07
-1.86022e-07
-6.68084e-07
-1.95869e-07
-6.3622e-07
-2.04539e-07
-6.03153e-07
-2.11952e-07
-5.69078e-07
-2.18037e-07
-5.34202e-07
-2.22727e-07
-4.98739e-07
-2.25961e-07
-4.62911e-07
-2.27685e-07
-4.26944e-07
-2.27857e-07
-3.91071e-07
-2.26442e-07
-3.55528e-07
-2.23418e-07
-3.2055e-07
-2.18774e-07
-2.86372e-07
-2.12515e-07
-2.53226e-07
-2.04663e-07
-2.21338e-07
-1.95257e-07
-1.90927e-07
-1.84358e-07
-1.622e-07
-1.7205e-07
-1.35354e-07
-1.58444e-07
-1.10567e-07
-1.43682e-07
-8.80007e-08
-1.27941e-07
-6.77975e-08
-1.11437e-07
-5.00773e-08
-9.44322e-08
-3.49379e-08
-7.72392e-08
-2.24554e-08
-6.02295e-08
-1.26852e-08
-4.38408e-08
-5.66657e-09
-2.85819e-08
-1.4283e-09
-1.50391e-08
-3.91847e-09
-1.75899e-09
6.2895e-09
-6.891e-09
2.18287e-08
-1.5273e-08
3.94673e-08
-2.67897e-08
5.84971e-08
-4.1324e-08
7.83292e-08
-5.87507e-08
9.84531e-08
-7.89331e-08
1.18432e-07
-1.0172e-07
1.37899e-07
-1.26947e-07
1.56547e-07
-1.54433e-07
1.74124e-07
-1.83985e-07
1.90426e-07
-2.15397e-07
2.05293e-07
-2.48454e-07
2.18597e-07
-2.82933e-07
2.30247e-07
-3.18602e-07
2.40174e-07
-3.55228e-07
2.48338e-07
-3.92573e-07
2.54715e-07
-4.30401e-07
2.59301e-07
-4.68475e-07
2.62107e-07
-5.06561e-07
2.63154e-07
-5.44431e-07
2.62478e-07
-5.81858e-07
2.60122e-07
-6.18626e-07
2.56136e-07
-6.54524e-07
2.50579e-07
-6.89348e-07
2.43515e-07
-7.22904e-07
2.35012e-07
-7.55009e-07
2.25144e-07
-7.85487e-07
2.13986e-07
-8.14175e-07
2.01618e-07
-8.4092e-07
1.88123e-07
-8.65581e-07
1.73586e-07
-8.88027e-07
1.58093e-07
-9.0814e-07
1.41733e-07
-9.25816e-07
1.24597e-07
-9.40961e-07
1.06778e-07
-9.53496e-07
8.837e-08
-9.63353e-07
6.94685e-08
-9.70478e-07
5.0171e-08
-9.74831e-07
3.05763e-08
-9.76386e-07
1.07848e-08
-9.75129e-07
-9.10176e-09
-9.71061e-07
-2.89803e-08
-9.64199e-07
-4.87466e-08
-9.54571e-07
-6.82953e-08
-9.42222e-07
-8.75202e-08
-9.27209e-07
-1.06314e-07
-9.09606e-07
-1.2457e-07
-8.89499e-07
-1.42181e-07
-8.66992e-07
-1.59039e-07
-8.42199e-07
-1.75037e-07
-8.1525e-07
-1.90072e-07
-7.86291e-07
-2.04038e-07
-7.55477e-07
-2.16836e-07
-7.2298e-07
-2.28366e-07
-6.88982e-07
-2.38536e-07
-6.53679e-07
-2.47256e-07
-6.17276e-07
-2.54441e-07
-5.79988e-07
-2.60014e-07
-5.42042e-07
-2.63907e-07
-5.03669e-07
-2.66058e-07
-4.65109e-07
-2.66417e-07
-4.26606e-07
-2.64945e-07
-3.88409e-07
-2.61615e-07
-3.50765e-07
-2.56418e-07
-3.13923e-07
-2.49357e-07
-2.7813e-07
-2.40457e-07
-2.43625e-07
-2.29762e-07
-2.10643e-07
-2.1734e-07
-1.79408e-07
-2.03285e-07
-1.50131e-07
-1.8772e-07
-1.23011e-07
-1.70802e-07
-9.82289e-08
-1.52723e-07
-7.59483e-08
-1.33718e-07
-5.63142e-08
-1.14066e-07
-3.94521e-08
-9.41014e-08
-2.54689e-08
-7.42128e-08
-1.44554e-08
-5.48542e-08
-6.49041e-09
-3.65469e-08
-1.64638e-09
-1.98831e-08
-5.56484e-09
-1.97576e-09
8.26526e-09
-7.71221e-09
2.75651e-08
-1.70403e-08
4.87954e-08
-2.9801e-08
7.12578e-08
-4.58364e-08
9.43646e-08
-6.49847e-08
1.17601e-07
-8.70758e-08
1.40523e-07
-1.1193e-07
1.62753e-07
-1.39354e-07
1.83971e-07
-1.69147e-07
2.03916e-07
-2.01092e-07
2.22372e-07
-2.34967e-07
2.39168e-07
-2.70539e-07
2.54169e-07
-3.07567e-07
2.67275e-07
-3.45808e-07
2.78415e-07
-3.85014e-07
2.87543e-07
-4.24934e-07
2.94635e-07
-4.6532e-07
2.99687e-07
-5.05924e-07
3.02711e-07
-5.46501e-07
3.03732e-07
-5.86811e-07
3.02789e-07
-6.26621e-07
2.99931e-07
-6.65701e-07
2.95217e-07
-7.03833e-07
2.88711e-07
-7.40805e-07
2.80487e-07
-7.76414e-07
2.70621e-07
-8.10468e-07
2.59198e-07
-8.42786e-07
2.46303e-07
-8.73196e-07
2.32029e-07
-9.0154e-07
2.16467e-07
-9.2767e-07
1.99716e-07
-9.51451e-07
1.81873e-07
-9.72759e-07
1.63041e-07
-9.91486e-07
1.43324e-07
-1.00753e-06
1.22826e-07
-1.02082e-06
1.01655e-07
-1.03127e-06
7.99215e-08
-1.03884e-06
5.77353e-08
-1.04347e-06
3.52098e-08
-1.04514e-06
1.24594e-08
-1.04385e-06
-1.03998e-08
-1.03958e-06
-3.32502e-08
-1.03235e-06
-5.59727e-08
-1.0222e-06
-7.84473e-08
-1.00917e-06
-1.00553e-07
-9.93313e-07
-1.22167e-07
-9.74716e-07
-1.43168e-07
-9.53463e-07
-1.63433e-07
-9.29662e-07
-1.8284e-07
-9.03432e-07
-2.01267e-07
-8.74909e-07
-2.18595e-07
-8.44242e-07
-2.34705e-07
-8.11594e-07
-2.49483e-07
-7.77144e-07
-2.62817e-07
-7.41081e-07
-2.74599e-07
-7.03608e-07
-2.84728e-07
-6.64941e-07
-2.93108e-07
-6.25304e-07
-2.99652e-07
-5.84932e-07
-3.04279e-07
-5.44068e-07
-3.06922e-07
-5.02964e-07
-3.07521e-07
-4.61874e-07
-3.06034e-07
-4.2106e-07
-3.0243e-07
-3.80782e-07
-2.96695e-07
-3.41303e-07
-2.88836e-07
-3.02883e-07
-2.78877e-07
-2.65778e-07
-2.66867e-07
-2.30237e-07
-2.52881e-07
-1.965e-07
-2.37021e-07
-1.64799e-07
-2.19422e-07
-1.3535e-07
-2.00251e-07
-1.08356e-07
-1.79717e-07
-8.40043e-08
-1.58069e-07
-6.24648e-08
-1.35606e-07
-4.38914e-08
-1.12675e-07
-2.84226e-08
-8.96816e-08
-1.61836e-08
-6.70932e-08
-7.29076e-09
-4.54398e-08
-1.85674e-09
-2.53171e-08
-7.42157e-09
-2.18496e-09
1.04502e-08
-8.50884e-09
3.3889e-08
-1.87612e-08
5.90477e-08
-3.27423e-08
8.52389e-08
-5.02558e-08
1.11878e-07
-7.11041e-08
1.3845e-07
-9.50844e-08
1.64504e-07
-1.21987e-07
1.89655e-07
-1.51593e-07
2.13577e-07
-1.83675e-07
2.35998e-07
-2.17997e-07
2.56695e-07
-2.54316e-07
2.75486e-07
-2.92381e-07
2.92234e-07
-3.31936e-07
3.0683e-07
-3.72721e-07
3.192e-07
-4.14475e-07
3.29297e-07
-4.56935e-07
3.37096e-07
-4.99841e-07
3.42593e-07
-5.42933e-07
3.45802e-07
-5.85955e-07
3.46754e-07
-6.28659e-07
3.45492e-07
-6.70799e-07
3.42072e-07
-7.1214e-07
3.36557e-07
-7.52452e-07
3.29023e-07
-7.91517e-07
3.19551e-07
-8.29124e-07
3.08229e-07
-8.65074e-07
2.95148e-07
-8.9918e-07
2.80409e-07
-9.31263e-07
2.64112e-07
-9.61159e-07
2.46363e-07
-9.88715e-07
2.27272e-07
-1.01379e-06
2.06949e-07
-1.03626e-06
1.85511e-07
-1.05601e-06
1.63072e-07
-1.07294e-06
1.39753e-07
-1.08695e-06
1.15674e-07
-1.09799e-06
9.0959e-08
-1.10599e-06
6.57336e-08
-1.1109e-06
4.01247e-08
-1.11271e-06
1.42615e-08
-1.11138e-06
-1.17251e-08
-1.10693e-06
-3.77025e-08
-1.09937e-06
-6.35365e-08
-1.08872e-06
-8.90917e-08
-1.07504e-06
-1.14231e-07
-1.05839e-06
-1.38818e-07
-1.03885e-06
-1.62714e-07
-1.0165e-06
-1.85781e-07
-9.91456e-07
-2.07881e-07
-9.63845e-07
-2.28878e-07
-9.33804e-07
-2.48635e-07
-9.01488e-07
-2.67021e-07
-8.67066e-07
-2.83906e-07
-8.3072e-07
-2.99162e-07
-7.9265e-07
-3.1267e-07
-7.53063e-07
-3.24314e-07
-7.12185e-07
-3.33987e-07
-6.70247e-07
-3.41589e-07
-6.27496e-07
-3.47031e-07
-5.84183e-07
-3.50234e-07
-5.40571e-07
-3.51133e-07
-4.96927e-07
-3.49678e-07
-4.53523e-07
-3.45834e-07
-4.10634e-07
-3.39584e-07
-3.68536e-07
-3.30934e-07
-3.27503e-07
-3.1991e-07
-2.87806e-07
-3.06564e-07
-2.49712e-07
-2.90975e-07
-2.1348e-07
-2.73254e-07
-1.79357e-07
-2.53544e-07
-1.47583e-07
-2.32025e-07
-1.18382e-07
-2.08918e-07
-9.19655e-08
-1.84486e-07
-6.85299e-08
-1.59041e-07
-4.8258e-08
-1.32947e-07
-3.13193e-08
-1.0662e-07
-1.78725e-08
-8.05399e-08
-8.0696e-09
-5.52427e-08
-2.06024e-09
-3.13265e-08
-9.48181e-09
-2.38747e-09
1.28377e-08
-9.28322e-09
4.07847e-08
-2.04391e-08
7.02036e-08
-3.56179e-08
1.00418e-07
-5.45866e-08
1.30847e-07
-7.71131e-08
1.60976e-07
-1.02962e-07
1.90353e-07
-1.31895e-07
2.18587e-07
-1.63665e-07
2.45347e-07
-1.9802e-07
2.70354e-07
-2.34703e-07
2.93377e-07
-2.73449e-07
3.14232e-07
-3.13988e-07
3.32773e-07
-3.56049e-07
3.48891e-07
-3.99356e-07
3.62508e-07
-4.43634e-07
3.73575e-07
-4.88606e-07
3.82068e-07
-5.34e-07
3.87987e-07
-5.79545e-07
3.91347e-07
-6.24976e-07
3.92185e-07
-6.70033e-07
3.90549e-07
-7.14463e-07
3.86501e-07
-7.5802e-07
3.80115e-07
-8.00468e-07
3.71472e-07
-8.41581e-07
3.60664e-07
-8.81142e-07
3.47789e-07
-9.18944e-07
3.32951e-07
-9.54794e-07
3.16259e-07
-9.88509e-07
2.97827e-07
-1.01992e-06
2.77773e-07
-1.04887e-06
2.56219e-07
-1.07521e-06
2.3329e-07
-1.09881e-06
2.09112e-07
-1.11955e-06
1.83818e-07
-1.13734e-06
1.5754e-07
-1.15208e-06
1.30412e-07
-1.16369e-06
1.02573e-07
-1.17212e-06
7.41634e-08
-1.17732e-06
4.53243e-08
-1.17926e-06
1.62001e-08
-1.17792e-06
-1.30631e-08
-1.17331e-06
-4.23172e-08
-1.16543e-06
-7.14127e-08
-1.15433e-06
-1.00198e-07
-1.14004e-06
-1.28521e-07
-1.12263e-06
-1.56229e-07
-1.10217e-06
-1.83166e-07
-1.07878e-06