/*--------------------------------*- C++ -*----------------------------------*\
  =========                 |
  \\      /  F ield         | OpenFOAM: The Open Source CFD Toolbox
   \\    /   O peration     | Website:  https://openfoam.org
    \\  /    A nd           | Version:  7
     \\/     M anipulation  |
\*---------------------------------------------------------------------------*/
FoamFile
{
    version     2.0;
    format      ascii;
    class       volScalarField;
    location    "0.403";
    object      T;
}
// * * * * * * * * * * * * * * * * * * * * * * * * * * * * * * * * * * * * * //

dimensions      [0 2 -2 0 0 0 0];

internalField   nonuniform List<scalar> 
12359
(
1.5474e-81
4.32793e-66
-3.17244e-226
8.69213e-43
8.48142e-75
1.26684e-29
-5.17967e-24
7.09932e-27
1.02446e-18
-5.51902e-32
1.11188e-21
-8.48354e-14
0.105823
-3.54601e-40
-4.54532e-47
-1.57938e-06
0.000285869
-1.37591e-122
5.02861e-126
6.68155e-56
5.68708e-38
-2.37388e-16
5.65667e-60
1.6216e-51
-7.96309e-63
-1.41077e-57
3.32992e-163
7.06601e-167
-6.47759e-132
-2.44683e-153
-9.60658e-148
-5.01288e-182
6.31672e-201
1.86215e-156
-4.37398e-215
-5.57573e-145
9.75014e-99
-5.95733e-85
9.99856e-78
4.49496e-90
8.52281e-69
-1.91425e-87
-2.80557e-107
9.87768e-111
-5.34985e-138
7.17852e-135
2.61433e-141
2.05886e-150
2.28992e-129
-1.0192e-159
-2.56072e-169
-1.93292e-175
1.20692e-185
2.07987e-119
-2.44795e-191
-1.3184e-197
1.28419e-113
-2.29446e-204
5.40815e-208
-1.47744e-211
1.92295e-194
-3.85647e-220
2.68528e-172
5.91024
-2.27272e-116
5.58593e-35
-9.32056e-102
1.2452e-178
7.7886e-98
-9.64045e-10
101.399
-1.84577e-71
-1.14105e-229
-6.749e-93
-2.35176e-48
2.62191e-217
1.69814e-188
4.95582e-223
1.41435e-104
4.41455e-11
-9.42586e-31
-1.88618e-143
-7.34161e-303
-2.60185e-88
0.000665543
1.54621e-94
5.54775e-142
5.70626e-199
0.329706
0.000192573
-1.21063e-254
2.43327
-1.42341e-256
-1.07291e-115
-6.0102e-93
1.32117e-71
1.70978e-121
-3.31146e-116
-2.41877e-58
-1.06684e-72
9.37621e-26
-3.15656e-247
-7.55586e-95
19.9508
-1.54021e-152
1.76992e-36
1.08518e-258
0.000845798
2.88001e-103
6.98452e-38
8.3428e-124
-2.55612e-142
-8.43319e-36
3.76329e-30
-1.32568e-93
-3.2539e-178
-4.65365e-31
-1.33143e-142
1.27877
7.7264e-300
2.99787e-125
4.65775e-27
3.49951e-197
6.02911e-52
-6.70712e-141
2.29305e-167
3.74163e-19
-1.78312e-87
-1.07443e-224
-4.04869e-142
5.59225e-177
9.77923e-11
1.81599e-08
7.03386e-09
-1.6712e-260
7.42199e-52
1.18694e-176
3.33914e-54
-2.64093e-242
3.03358e-20
-1.31471e-289
-1.88697e-80
1.73876e-49
-6.82486e-259
2.84883e-22
-4.22607e-32
-4.55357e-304
0.000233389
3.34978e-151
1.31483e-29
3.56741e-70
-4.34252e-244
1.87035e-48
-7.19455e-195
-8.58442e-264
109.693
9.1388e-27
5.66904e-11
4.00046e-122
3.76656e-190
-9.68972e-41
1.25826e-188
2.54655e-52
8.2534e-50
5.73021e-288
3.63954e-169
4.9641e-42
-9.17664e-27
1.72516e-51
0.325571
5.14341e-221
7.48169e-219
1.29075e-53
-8.87645e-65
-1.14119e-154
1.15439e-20
-1.28247e-137
-1.57424e-139
5.70549e-37
8.23284e-22
-7.85811e-42
2.02612e-261
-2.1166e-224
-4.52686e-144
-7.05619e-60
-4.29904e-18
-7.46145e-119
-2.48998e-97
2.69523e-68
-4.16398e-117
-1.10243e-95
2.84464e-73
4.50084e-74
3.57659e-193
1.24273e-37
26.9582
1.69786e-76
3.93587e-118
4.26189e-49
-2.8135e-141
-1.01576e-30
4.01524e-69
-2.60075e-72
2.49218e-38
4.36755e-26
-1.16183e-261
1.09432e-24
-7.36398e-71
3.25456e-46
-1.3574e-129
1.96547e-280
4.36499e-24
1.71453e-23
149.124
-1.52701e-17
-3.40383e-240
2.29066e-118
-4.40396e-95
-7.92147e-119
-1.30466e-78
2.05194e-30
1.89164e-129
2.89633e-53
2.56053
1.13619e-142
3.96402e-280
-4.59815e-77
3.3656e-105
2.52919e-22
-1.56352e-114
-2.38257e-113
-1.77224e-290
2.08247e-22
9.12882e-68
-2.30905e-98
4.44487e-69
-2.3777e-299
9.36413e-46
-1.44347e-96
2.77332e-05
-2.4702e-276
2.66894e-90
-9.30291e-106
3.0393e-11
4.02575e-39
0.000341871
-1.32339e-209
1.90757e-47
5.2139e-161
3.7609e-74
9.69927e-32
5.14593e-88
2.14913e-143
-2.19382e-113
0.933698
121.434
-6.71623e-298
-6.8104e-134
1.07158
149.206
-1.76641e-71
6.08484e-39
1.18722e-24
1.51415e-38
-1.7468e-66
53.8735
1.12849
2.39089e-36
-1.15466e-135
1.64503e-51
1.57318e-52
-1.33053e-59
2.61238e-50
-1.63713e-116
-2.61679e-131
-1.40855e-278
-6.06699e-133
5.61348
3.67843e-36
4.70566e-240
-6.8763e-246
1.32805e-38
8.82007e-137
4.11666e-103
4.62017e-92
2.83818e-292
9.47498e-25
-2.70171e-245
5.01348e-247
3.05322e-184
1.36072e-53
-3.39553e-146
48.7314
3.26701e-260
1.39966e-257
-4.11401e-94
-1.46766e-162
2.1611e-31
-1.80708e-98
-2.03248e-173
-2.02271e-254
4.80968
1.60435e-23
-4.91706e-255
1.17045e-117
-4.14769e-100
9.66884e-160
1.81104e-176
-3.98211e-178
8.3665e-157
4.00302e-129
-8.97109e-18
1.23536e-159
-6.01125e-148
-1.25507e-86
1.46543e-42
0.371194
-3.12568e-156
-3.02866e-61
5.0176e-07
-2.1682e-246
3.87395e-58
4.41835e-239
4.28764e-75
-2.44279e-256
9.48303e-156
1.03283e-18
6.63758e-54
-1.30994e-19
1.3226e-104
-2.98345e-106
1.11395e-74
4.95202e-71
-5.27474e-105
2.27983e-75
5.77895e-75
6.79017e-219
-3.19509e-197
-7.88424e-198
-6.30622e-196
-7.58349e-196
0.000140982
6.33584e-292
4.72885e-29
1.01543e-55
-1.16522e-62
1.44132e-47
6.35714e-53
4.42005e-95
2.23572e-78
1.35662e-53
-1.40476e-78
-5.83249e-62
5.12527e-39
6.15553e-38
3.18524e-35
-5.46759e-79
3.50878e-17
-7.43537e-82
-9.97094e-82
2.19918e-48
9.09187e-23
2.3187e-143
2.8046e-190
6.77093e-76
3.18319e-192
-7.04815e-142
157.182
15.8703
-4.46724e-142
9.20442e-239
-3.82081e-262
7.91728e-269
1.07694e-54
-6.71356e-262
8.76283e-263
0.503784
5.87212e-50
0.00014237
-9.36447e-143
9.42023e-43
7.29106e-139
-2.65785e-104
4.78999e-35
5.59157e-77
1.33187e-43
1.06795e-78
-8.36849e-146
9.18217e-240
5.90547e-51
4.23984e-43
-8.72807e-145
4.32536e-13
8.10486e-36
7.46142e-72
-7.68482e-52
-1.70126e-43
3.37844e-239
8.58413
3.6302e-16
-2.65469e-141
7.91167e-12
-2.22249e-83
-2.06981e-288
1.84691e-287
1.71424e-273
0.000296699
7.43349e-24
-6.72542e-60
6.30598e-60
3.78259e-71
-3.85753e-91
-1.57601e-42
-3.82274e-53
4.4441e-18
0.428786
4.56344e-12
-7.05215e-62
2.19782e-36
1.88455e-101
5.46373e-35
-1.73489e-82
3.69447e-74
9.46256e-158
1.29473e-84
3.44024e-52
-1.15606e-260
141.087
6.04835e-103
0.0135277
2.18192e-45
8.75356e-114
6.69516e-34
0.730583
5.54931e-51
-8.55553e-74
1.17081e-72
6.93878e-44
2.65855e-34
-3.65875e-138
2.34651e-280
3.12082e-28
-1.89011e-254
2.78734e-11
2.68651e-175
-6.82432e-59
2.59003e-40
4.26682e-121
0.00339865
3.78876e-28
-8.61323e-75
-3.0079e-135
5.45592e-06
4.85066e-225
-3.67293e-147
1.04126e-18
3.32308e-237
7.06292e-135
-1.49197e-148
1.85847e-08
15.3611
-5.45911e-90
-1.74201e-205
-1.10462e-37
5.18138e-45
7.44685e-59
3.16566e-46
1.31986e-51
1.60116e-217
1.21748e-270
-9.93823e-50
-7.24926e-252
1.44854e-41
3.34841e-59
8.37735e-36
1.04434e-141
1.1688e-29
2.39573e-17
2.43664e-156
-4.04729e-92
-4.16213e-143
-2.81504e-33
1.22371e-18
-2.97444e-242
-3.79393e-48
1.65012e-54
5.24773e-104
3.80627e-48
2.11313e-174
3.11749e-24
2.98627e-86
4.90315e-49
1.60488e-36
1.13854e-215
6.63376e-93
8.70724e-12
1.2201e-07
-1.62939e-253
-9.9985e-71
1.8634e-11
8.92831e-65
0.51632
1.30682e-274
7.63918e-177
5.02466e-223
6.75744e-47
-4.88741e-73
7.70298e-84
1.16741e-172
6.47276e-51
1.1701e-71
4.39325e-68
1.45705e-130
6.23361e-05
2.02077e-249
0.000170793
1.43713e-200
141.843
3.95764e-84
1.06458e-12
-8.45791e-208
-6.83643e-143
4.34984e-41
-3.79972e-145
-7.59121e-175
-1.93812e-107
1.05035e-70
-5.54853e-72
1.1139e-13
4.88441e-30
1.75697e-30
-9.00056e-305
1.4953e-144
1.58327e-56
1.81353e-07
-4.74463e-304
-7.0882e-245
2.07508e-53
2.1548e-220
1.35531e-19
0.874745
56.6542
-2.16418e-302
-7.04098e-97
1.47731e-30
5.72182e-81
5.98146e-155
89.3101
-2.89827e-248
3.99203e-27
5.51687e-39
7.79647e-98
4.0674e-158
-7.23654e-172
4.35343e-123
1.22884e-56
5.0372e-80
-3.05939e-89
4.49939e-300
4.63087e-223
-2.95422e-74
-6.43866e-139
5.21711e-33
1.54845e-47
2.58386e-182
-1.82366e-242
3.86661e-38
134.407
-3.17401e-149
1.11983e-18
-2.92891e-264
3.64686e-89
1.66152e-27
3.01298e-66
7.24434e-33
8.71653e-33
-1.93212e-73
1.05643e-50
-2.11299e-283
-2.36505e-214
7.53619e-70
-1.43919e-88
-6.25149e-74
-1.12357e-89
-2.06277e-265
4.37665e-241
1.02992e-167
2.1606e-58
8.58793e-45
-2.63289e-38
-4.1948e-101
-5.43082e-36
-1.96502e-49
-2.76273e-72
-7.57863e-35
-8.88914e-64
0.0193202
1.06207e-48
-1.27469e-61
1.07573e-34
8.99856e-218
5.7726e-28
1.61889e-40
2.73811e-305
-1.61622e-237
1.8309e-219
1.03079e-212
2.72475e-08
-6.80697e-72
5.85163e-112
-2.12764e-37
-8.75046e-108
2.81613e-18
7.82747e-66
1.0102e-55
1.72185e-166
2.9581e-14
-2.86572e-266
-1.32178e-57
1.68153e-136
1.44295e-21
-2.49301e-34
-3.79184e-79
2.21206e-73
7.3338
4.21178e-51
2.80561e-16
1.83745e-82
4.93946e-13
0.388636
6.35114e-210
-4.62371e-143
-2.48444e-267
5.94318e-10
4.33418e-142
8.42901e-80
0.00298641
-3.89397e-246
1.87296e-66
2.04822e-38
4.07907e-77
1.7775e-146
-7.4296e-80
-1.84285e-194
-1.59621e-76
1.44808e-194
-2.06445e-195
-6.789e-83
8.24734e-52
3.09717e-53
1.91992e-75
-3.3634e-11
1.74565e-67
15.6685
1.9093e-49
1.35336e-92
-1.25625e-79
2.45111e-51
-3.17057e-61
7.25582e-73
0.386945
-5.58047e-41
-8.98347e-64
-1.85352e-64
1.69709e-127
-8.79083e-140
7.87336e-39
1.30168e-278
3.02099
2.18713e-186
-8.60506e-40
3.09391e-26
9.04592e-09
2.52322e-26
1.76084e-41
3.10112e-40
7.16685e-84
3.01923e-26
2.42531e-48
2.87115e-16
-5.26384e-64
2.26669e-17
8.05783e-65
3.45398e-294
7.9396e-62
165.412
6.50889e-15
-2.4586e-113
9.9272e-286
5.14687e-181
3.56854e-100
-2.3039e-60
2.25301e-54
9.25259e-80
9.11128e-219
4.34711e-111
-2.24823e-60
5.20591e-115
-7.35219e-130
6.04222e-17
2.93884e-115
-2.01643e-51
6.09498e-38
-2.7812e-112
8.04899e-105
4.89732e-32
-9.52885e-307
-1.96854e-105
42.7249
1.16631e-212
6.59662e-21
5.10677e-27
-3.52176e-106
9.88331e-38
1.13387e-37
-9.09478e-63
1.97829e-33
-1.77043e-143
-7.91559e-38
-1.57876e-155
7.38024e-76
5.15721e-40
-3.70699e-36
-2.34837e-143
9.47936e-50
7.13596e-11
1.07758e-52
9.00641e-83
-1.82126e-139
3.9565e-27
1.4825e-07
6.97021e-131
2.77779e-241
-4.21186e-63
-3.71271e-261
0.449699
2.50756e-65
1.8151e-14
2.76746e-84
2.07556e-81
8.59212
2.24978e-78
0.00065167
5.83887e-56
51.2697
3.15987e-56
-9.67135e-88
4.62655e-80
9.14576e-106
0.00127198
7.58495e-05
4.93358e-206
1.47311e-202
-1.5897e-33
2.38097e-190
0.00169474
8.56034e-36
2.15509e-11
4.12594e-140
126.932
0.053831
-9.94367e-64
3.42703e-293
-1.50784e-148
-1.2002e-43
-2.16429e-98
4.25752e-99
-1.47025e-96
3.46735e-52
9.2996e-50
16.5899
1.618e-09
9.84549e-221
6.41555e-43
4.46612e-32
-1.31943e-32
4.53974e-87
5.20019e-26
3.17257e-47
-2.24528e-42
-1.1086e-146
-2.67283e-289
1.44754e-28
4.06127e-25
2.76996e-82
-7.56163e-35
1.78276e-15
2.72182e-94
-3.96574e-64
1.26662e-133
-1.29239e-94
3.80427e-17
2.15781e-93
6.08881e-35
-3.12634e-48
1.53203e-63
-1.43648e-121
3.17855e-90
1.22213e-11
8.0727e-87
1.32349e-87
17.6851
-3.39616e-57
-8.10118e-96
0.00492796
1.82293e-298
5.05561e-85
2.89865e-71
-1.98259e-100
7.47851e-170
5.63658e-67
2.33684e-307
3.67181e-11
-4.20488e-146
2.53641e-66
2.91754e-27
3.04088e-37
5.97971e-79
1.58991e-82
5.91804e-30
78.2297
5.14899e-216
4.0739e-112
1.5415e-95
0.00361963
5.80008e-25
-3.17028e-145
1.81086
-9.83729e-290
7.68127e-150
164.977
-3.99504e-111
-1.20082e-141
-2.73645e-138
1.35002e-49
-2.10349e-46
-2.85254e-211
-4.20558e-104
2.05007e-28
-5.96633e-71
-1.17794e-75
4.44866e-98
-3.92021e-208
-5.27548e-45
7.84907e-08
-7.2547e-79
-4.31563e-36
4.52241e-57
1.16864e-74
3.4775e-12
1.78063e-33
1.10112e-96
-4.333e-147
0.000129399
5.43881e-52
6.0829e-54
-1.83708e-132
6.18447e-211
-9.36421e-42
3.15373e-14
1.20085e-89
1.45302e-35
7.57668e-88
-4.90582e-95
2.57299e-122
2.12154e-45
139.72
15.7139
2.80852e-44
1.84131e-75
-5.44647e-124
5.66351e-47
0.00711814
-7.98371e-39
-9.32153e-147
5.68544e-16
2.77747e-09
7.79662
1.00046e-110
71.6879
3.54876e-213
-4.39893e-94
3.69624e-209
8.88824e-13
1.42805e-52
67.5621
-6.48939e-155
0.0101423
2.94958e-189
-1.49109e-76
8.79088e-42
1.01171e-99
3.68306e-16
0.0149153
-2.07591e-108
4.35513e-121
1.54183e-87
2.12877e-111
-3.3378e-110
1.23336e-15
2.03722e-55
9.22866e-82
1.0892e-17
-1.03049e-110
6.5409e-206
-2.10152e-79
1.86873e-178
7.89929e-31
5.05437e-88
6.31138e-11
7.53318e-13
-3.53485e-49
3.55111e-42
2.94494e-48
4.42999e-81
0.00648297
1.57159e-93
-8.93846e-116
-5.54985e-265
5.04862e-15
-2.58521e-40
-8.12503e-157
8.45042e-32
8.9735e-99
8.29006e-43
-4.67268e-43
-1.46847e-37
8.50955e-50
83.0417
1.05497e-47
-8.79665e-48
0.0126152
1.72251e-100
2.69568e-08
2.08315e-33
7.04587e-194
7.39863e-92
5.62705e-130
1.92586e-85
-3.68422e-285
-1.99759e-140
8.40562e-09
5.21495e-14
5.95916e-143
168.458
2.44213e-33
-1.89932e-187
1.65053e-13
5.31672e-17
8.51371e-192
4.94133e-12
1.48532e-28
3.89197e-13
-1.09558e-192
-5.53203e-141
1.83529e-119
1.17028e-192
-3.17502e-41
20.7772
1.15201e-152
1.36571e-13
4.74514e-301
1.85872
1.3298e-33
3.99407e-49
-1.04275e-249
-3.4937e-155
-8.04112e-93
1.10265e-51
2.8543e-17
8.69332e-43
2.91829e-111
3.80212e-104
-1.27683e-193
1.23137e-35
5.52186e-44
4.40535e-130
2.08093e-236
1.52389e-70
1.05828e-43
3.9234e-51
1.25799e-166
3.33422e-08
-3.04491e-33
3.12934e-189
1.59381e-57
3.34316e-105
2.47604e-89
180.132
-1.67775e-112
5.94258e-187
9.3998e-55
-1.44244e-41
-4.84101e-52
1.96891
-1.99737e-68
-5.92843e-95
2.81753e-41
-3.82808e-101
-3.5669e-100
-4.24376e-93
-8.41617e-100
1.21816e-32
-6.00534e-88
13.786
-1.43167e-50
5.86107e-11
9.05576e-99
3.2177e-06
6.39272e-36
4.00054e-15
5.87146e-16
1.0587e-49
-9.54634e-97
1.40658e-101
-6.52725e-72
4.41066e-303
-8.52152e-92
3.11263e-41
3.10991e-21
-3.43864e-103
1.12762e-190
1.42933e-53
5.23125e-47
8.38764e-24
1.33119e-45
7.31321e-16
5.48068e-24
-1.07312e-130
2.48317e-58
0.136633
1.29305e-42
-1.21847e-287
2.63476e-112
8.0185e-102
-2.24274e-291
8.90742e-60
3.50732e-215
-3.96042e-90
2.54278e-17
1.47236e-38
7.66059e-08
3.65722e-211
-3.84167e-156
1.10348e-257
-6.85013e-103
-1.26418e-122
7.8465e-15
-5.33861e-122
-1.44812e-155
6.08608e-08
3.70172e-46
5.68452e-70
2.69182e-61
4.27871e-20
3.68129e-114
1.46237e-13
4.38309e-103
1.00164e-207
0.000502423
8.4286e-60
4.28101e-23
-1.5726e-116
46.573
-7.63213e-46
-3.43586e-55
1.26495e-52
6.384e-37
14.5167
7.17336e-100
9.3003e-17
-4.19593e-52
3.04059e-56
2.14601e-154
1.20102e-86
2.05239e-08
-4.78312e-91
4.47571e-11
-1.86387e-109
-4.52019e-114
2.34924e-14
1.22625e-178
-1.401e-137
2.25875e-97
1.77008e-58
1.44136e-12
-1.84129e-110
4.53145e-103
-7.71787e-268
-8.56067e-51
0.000513436
1.36805e-53
-8.75436e-104
-3.58282e-74
1.11805e-115
-3.00913e-151
10.3999
-6.36673e-55
-1.59336e-243
7.49098e-57
3.14464e-117
-2.40319e-44
-4.51477e-32
3.58378e-68
9.66544e-101
3.93941e-18
1.4079e-13
-5.61078e-255
1.85278e-77
3.56264e-14
-4.88594e-158
-1.62444e-220
1.19075e-72
1.46162e-64
-1.00434e-93
-1.26103e-218
-5.46702e-63
5.86028e-14
-2.31389e-189
4.97962e-28
1.01444e-213
7.58988e-129
2.26843e-64
1.47893e-05
1.66058e-271
1.54184
-1.90965e-53
1.71011e-26
25.2131
-1.09006e-48
6.32786e-73
0.0189463
-3.17357e-102
4.43345e-06
1.52843e-21
-2.0871e-75
-2.87936e-94
4.09884e-96
1.51677e-115
-5.87207e-121
5.91514e-32
0.0147586
170.435
1.56161e-36
6.57341e-32
1.65015e-05
3.6566e-39
2.68331
-6.93838e-171
2.00965e-113
6.19151e-22
3.68836e-55
-3.25944e-139
8.73607e-37
2.7488e-101
13.215
1.31357e-287
7.46539e-145
1.97421e-164
183.195
-1.96491e-40
4.2847e-51
-1.94707e-90
1.2722e-21
-4.29283e-98
-3.82018e-159
3.71753e-08
1.46767e-99
3.57707e-08
1.02568e-31
1.15177e-89
6.82741e-18
1.21254e-58
5.45124e-111
8.26689e-153
-2.3738e-149
0.141784
2.27719e-15
9.9001e-133
1.07444e-20
6.16491e-71
4.77568e-31
5.274e-268
7.05801e-62
2.05573e-08
7.36852e-18
-3.45598e-47
-1.26868e-77
-2.84585e-154
9.48165e-23
-1.12975e-98
-1.95347e-157
9.23798e-12
1.0749e-21
-3.99445e-127
-1.846e-35
1.11078e-64
-1.57854e-259
-5.12665e-140
3.88855e-229
5.92576e-47
67.8491
5.96589e-13
2.80926e-25
-7.87141e-133
-1.76376e-97
1.10329e-58
-1.73128e-248
4.65026e-10
9.69759e-60
52.2311
2.89165e-30
4.58004e-92
5.28503e-128
-2.74887e-168
5.78083e-100
-1.12235e-100
7.97648e-137
10.6638
3.51762e-20
-1.43328e-43
1.00488e-19
-4.27081e-50
-3.34967e-156
-6.24148e-301
-1.27652e-136
5.20189e-31
0.409864
-1.35047e-24
1.58372e-56
-2.43189e-56
-3.36933e-80
5.47589e-21
0.0186456
0.0134505
3.9125e-99
-1.86292e-80
1.76502e-37
-1.33675e-118
1.50859e-221
-9.13405e-139
3.71702e-18
-9.2212e-124
2.21625e-75
-9.2874e-109
8.97567e-47
7.74332e-10
6.72779e-115
-4.80954e-138
7.56511e-13
5.16428e-22
1.02902e-101
-8.51649e-154
-7.25057e-58
2.35494e-08
5.81813e-31
4.80147e-28
-7.44984e-61
3.25052e-79
0.00320175
-1.12975e-94
-1.08995e-24
8.41135e-151
5.46896e-14
3.83283e-14
-3.36264e-201
-1.58326e-164
84.1324
-3.95869e-140
-3.70458e-85
5.35752e-34
-4.01915e-123
-1.46411e-122
4.91757e-108
-7.1001e-142
4.2684e-257
6.4584e-30
2.40445e-06
-1.27709e-168
0.00958105
-4.26486e-104
-2.13397e-143
3.07598e-14
4.37076e-10
1.07928e-31
2.12924e-100
5.04819e-136
-1.33983e-51
141.572
-3.89903e-124
-3.08091e-170
-6.24604e-176
7.43178e-122
3.48673e-70
1.56036e-37
-7.54472e-128
-1.22689e-84
5.65492e-140
5.29813
3.70354e-10
8.40566e-59
4.1651e-45
-3.21452e-102
-4.5246e-143
5.90793e-23
0.891219
1.87176e-86
-4.66846e-174
-6.11366e-145
1.18718e-15
-4.74441e-124
-2.59995e-153
2.16357e-13
1.39324e-101
1.174e-140
110.084
2.14957e-11
1.18742
6.29761e-23
-1.08506e-125
2.45695e-20
1.23142e-11
0.096237
3.75357e-113
3.61389e-40
1.66592e-251
0.0753888
2.67336e-292
-4.76343e-114
1.38897e-104
-6.29561e-174
5.07108e-52
2.90551e-100
4.26091e-124
-6.38452e-114
3.45896
5.26069e-16
4.04056e-53
-4.11019e-137
7.76229e-36
3.90784
4.82204e-11
1.29672e-49
-2.53201e-59
-8.46274e-115
-5.18263e-99
1.70691e-171
-1.30292e-127
-8.63628e-167
-8.45671e-140
-4.57867e-50
7.04656e-17
1.52341e-21
0.19977
3.46456e-05
6.91063e-10
2.50208e-29
0.0716818
-4.8317e-155
7.12421e-06
-7.54853e-146
0.000654226
1.01032e-11
1.36718e-44
-3.87558e-126
2.19777e-43
5.89065e-31
1.57143e-81
51.3359
4.16673e-14
0.228902
-1.37248e-141
3.2116e-11
5.07794e-08
3.46906e-12
2.46262e-08
1.55139e-12
5.68314e-142
1.03619e-107
2.44057e-57
-3.45367e-131
5.2167e-35
-6.00801e-118
-2.298e-46
-5.02535e-203
-4.5343e-107
1.21201e-30
5.24944e-48
-4.1601e-159
-1.4314e-54
0.461844
85.4315
3.79679e-176
5.27213e-57
-1.91896e-98
9.0853e-12
2.15579e-36
3.88408
1.10539e-05
-1.81855e-114
3.91758e-50
3.87667e-08
-3.56553e-26
1.37797e-06
8.64572e-63
3.09464e-13
1.4949e-162
0.108678
1.4655e-12
-4.8842e-151
1.70009e-08
0.00934721
1.6774e-52
2.02942
-1.49783e-106
7.93501e-10
-9.93693e-92
1.01084e-181
-8.29157e-86
-9.40421e-97
0.0423375
7.10527e-09
0.0169566
1.63805e-162
3.11709
6.51616e-45
2.36532e-15
-3.3963e-36
1.31366e-52
1.66606e-63
0.0066082
-9.74349e-105
-7.98894e-121
6.15715e-30
3.28015e-10
8.63663e-35
1.06601e-23
-4.99617e-67
0.0279939
1.32737e-34
2.19017e-35
1.88486e-10
6.20465e-189
1.33672e-08
1.08458e-18
6.35815e-09
4.91974e-89
0.000167117
-5.74144e-169
3.33504e-36
2.83662e-60
4.61246e-11
-5.86915e-83
6.45526e-31
1.60527e-09
74.383
6.41268e-117
1.4187e-53
3.38739e-55
3.17414e-16
4.65774e-26
-5.94757e-113
3.71952e-47
-3.14976e-170
11.6964
-7.04187e-263
-4.46694e-170
3.72785e-227
1.82685e-08
-1.17531e-139
-4.65068e-45
0.464284
3.10273e-66
4.48057e-69
4.44599e-132
9.27746e-216
8.79548e-11
-7.2183e-175
6.73317e-49
3.28075e-14
-4.97478e-53
6.06441e-07
6.41917e-111
3.93479e-46
1.26343e-08
7.09472e-24
1.58217e-84
82.1202
1.48447e-267
5.16219e-210
-1.40821e-101
185.498
3.54902e-91
7.39434e-91
1.12336e-08
-3.61075e-126
5.24013e-109
1.1044e-18
9.30823e-07
1.92225e-38
0.00225373
1.14115e-125
2.60307e-103
6.01475e-57
1.74647e-61
2.91932e-11
-1.01571e-147
7.27268e-88
-6.69089e-64
-9.51683e-19
-5.69101e-75
-6.36419e-161
-5.8957e-48
-5.72503e-21
1.726e-226
2.10108e-223
1.08553e-05
7.68177e-38
2.34147e-05
-2.96352e-108
6.85268e-287
-1.14398e-19
1.66429e-08
-5.40086e-156
-3.43091e-122
-4.748e-172
9.14345
1.42861e-226
6.88538e-40
8.32462e-06
1.45481e-220
2.65741e-214
1.55882e-24
2.46774e-185
1.19445e-222
3.16555e-55
4.03321e-15
-8.42541e-163
4.83854e-26
-3.10284e-177
7.66429e-09
1.55864e-289
1.74624e-08
1.73915e-14
2.50056e-28
7.44955e-220
1.93098e-19
3.97549
1.52761e-118
1.88706e-55
1.56002e-188
1.50751e-15
-1.74019e-178
7.50873e-08
1.04589e-11
1.13154e-98
6.58e-223
4.67445e-15
3.39341e-16
1.43005e-62
1.87776e-61
2.29306e-18
1.66708e-183
3.10757e-20
9.74893e-225
5.41513e-07
6.47181e-10
2.20507e-12
2.12384e-27
-5.61287e-26
4.91692
6.05335e-31
4.91825e-60
9.1882e-17
1.31039e-116
6.8063e-17
3.50316e-18
-6.87793e-52
1.13436e-98
0.0462849
-1.74761e-244
0.017977
101.707
-9.64748e-130
9.81507e-11
51.0696
1.78433e-40
1.26843e-57
7.75968e-21
-2.50832e-62
-3.17864e-168
4.2848e-09
0.00609836
0.574444
-1.98829e-117
9.4783e-24
4.79098e-05
9.20857e-16
-6.52763e-140
-5.24896e-205
2.51307e-46
0.00663679
6.25825e-10
1.34633e-18
1.01047e-274
7.68931e-180
1.55366e-16
-7.8022e-126
3.62963e-54
-1.61126e-120
2.36801e-219
2.36921e-08
-1.6675e-107
1.20309e-05
1.8706e-61
-5.25044e-197
-6.66109e-206
8.27044e-17
-1.06729e-118
2.11669e-40
2.33635e-18
0.113259
-1.3073e-57
-5.13085e-162
3.75128e-07
1.34401e-103
-4.67906e-172
5.79514e-85
6.61219e-16
-3.23133e-117
1.31623e-15
9.34083e-57
189.226
5.12297e-17
1.94731e-152
8.45944e-06
5.31923e-226
2.05521e-10
1.28417e-45
1.3708e-06
0.00138604
2.68037e-53
2.52272e-05
-7.52944e-195
1.64472e-10
5.88007e-136
1.95179e-58
2.25932e-06
3.31507e-34
1.09719e-06
0.0074258
-3.95872e-22
2.19256e-09
4.88564e-07
-1.56647e-158
-8.18043e-175
3.42514e-224
2.78424e-05
-3.34626e-27
-7.38345e-157
1.40667e-08
4.80561e-07
2.33539e-50
7.08868e-18
2.62849e-67
-1.59694e-39
0.000137496
1.27228e-82
1.54926e-39
2.58892e-41
-2.09268e-252
8.85791e-250
-1.55666e-158
-4.74561e-117
1.35094e-62
-9.72049e-199
-1.61808e-99
-7.01017e-115
4.93845e-71
1.45424e-29
1.26173e-137
1.01961e-07
1.94608e-291
2.04823e-13
7.44421e-07
-2.47263e-151
1.53497e-05
3.95503e-16
3.20171e-07
-1.32724e-73
5.68351e-19
3.54783e-128
1.59678e-46
1.70095e-59
-4.9539e-208
8.07155e-136
4.75629e-105
-1.74903e-149
5.80485e-231
5.02529e-63
7.48806e-233
-4.86555e-35
6.98728e-30
0.0368169
-7.44649e-201
-9.59043e-71
-1.24905e-196
-1.92278e-124
1.17489e-24
-1.06243e-73
7.88926e-154
116.529
5.03162e-16
9.56231e-38
4.84595e-69
1.43927e-17
1.22171e-26
-3.68537e-85
4.7152e-23
2.40771e-15
2.21936e-115
1.18061e-226
-6.87615e-96
2.19262e-09
-6.87892e-176
-1.13871e-159
2.23762e-15
-2.75638e-129
-2.31822e-125
3.72622e-95
-5.48286e-161
0.000161832
-1.1039e-198
-1.47792e-161
1.93036e-28
3.4663e-23
1.89181
7.74754e-15
-1.47969e-67
-4.62502e-153
2.79551e-22
-6.25618e-155
1.3586e-32
4.3074e-70
1.01744e-115
1.02488e-06
9.05521e-218
5.91304e-26
1.81477e-61
4.45203e-17
-9.45708e-49
1.19278e-236
-1.41777e-116
1.64407e-289
6.51336e-30
4.36331e-178
5.44852e-22
8.14623e-55
-1.0964e-105
-2.04504e-65
4.58476e-48
7.06201e-229
2.64179e-25
6.39492e-28
-1.42327e-118
2.68558e-27
7.06717e-09
1.71628e-217
4.89879e-48
9.28512e-13
8.60708e-18
-8.79175e-87
-3.86956e-50
-1.35285e-48
9.06244e-58
-2e-83
1.27254e-16
3.58653e-84
-2.20024e-150
-4.64902e-152
0.000473444
1.18319e-09
2.68366e-06
3.2533e-07
-2.17296e-40
6.35318e-24
1.44908e-54
8.77428e-24
-2.78595e-153
0.704765
-2.22046e-124
6.49668e-07
1.37436e-14
-1.11097e-156
-9.73303e-29
3.75373e-10
1.1511e-07
1.0498e-52
4.76686e-32
-4.85632e-155
-5.11775e-253
4.13737e-17
6.35179e-227
-4.19585e-201
2.08945e-19
6.72426e-124
-3.86478e-77
-2.39163e-160
-3.62325e-107
2.5988e-17
8.69732
-1.2308e-123
2.82e-130
1.99271e-10
-1.03811e-43
2.41358e-12
8.07073e-30
1.52446e-29
-7.25614e-128
-8.90124e-46
4.31873e-24
1.98757e-19
-1.76616e-34
7.01694e-171
1.21707e-12
2.74238e-37
1.37509e-22
-6.02227e-98
-2.06405e-157
4.35913e-19
-2.28752e-120
-5.4343e-219
3.27627e-27
2.13745e-09
-3.28518e-199
1.44009e-27
7.00801e-58
6.93244e-136
-6.79854e-88
-2.44165e-136
2.78404e-27
-3.36635e-150
-2.76784e-159
1.09808e-59
7.63177e-28
-3.81065e-46
6.30689e-34
7.94444
1.17114e-118
1.2373e-70
0.0310268
1.02518e-40
-5.92092e-138
1.01342e-38
5.10598e-07
2.99412e-208
-7.62667e-129
4.6947e-221
2.63773e-31
1.30447e-16
-6.35657e-62
8.65066e-235
-3.48015e-92
-1.11298e-82
1.86637e-105
1.88256e-10
7.23916e-123
1.94737e-233
5.11026e-229
3.12114e-34
1.04621e-53
4.07284e-06
-2.41622e-96
-4.80906e-56
4.35546e-45
1.10413e-20
-5.99178e-173
6.61198e-28
7.89871e-212
-5.1637e-202
-8.47209e-228
1.72697e-11
-1.02685e-124
3.73972e-29
3.05859e-33
3.74178e-33
7.69929e-22
1.82882e-33
2.20972e-15
3.12741e-29
9.13524e-121
1.96622e-39
-2.53076e-56
4.8612e-43
4.21481e-24
-6.82931e-128
30.9785
5.15017e-19
1.36801e-21
-6.23789e-199
0.957008
5.28265e-21
4.10675e-23
-2.84016e-35
2.8374e-13
-2.19706e-72
-1.74996e-115
-5.0961e-109
6.62338e-116
1.99679e-109
5.5388e-21
3.15316e-25
-5.83542e-132
1.04689e-32
3.61349e-107
6.09983e-109
3.50527e-67
4.08835e-54
1.29391e-87
1.43632e-64
-5.14866e-52
2.93529e-37
4.5209e-30
1.77764e-60
-3.1392e-206
-1.82661e-97
-2.59469e-118
2.44923e-12
-1.45025e-176
-3.48435e-128
8.58967e-32
0.219303
3.23488e-150
8.25819e-06
-1.02554e-155
-7.77267e-122
1.01117e-58
1.13832e-35
3.45011e-42
-5.54884e-173
3.9978e-27
1.94646e-28
5.51057e-13
-5.06693e-200
1.97208e-35
1.14271e-51
8.7034e-76
-2.65917e-226
2.98885e-273
-1.00418e-31
3.25279e-53
1.29434e-76
31.938
5.27461e-28
1.54694e-39
-2.93124e-28
8.43718e-61
2.02335e-12
2.61116e-117
-5.12454e-63
-2.87449e-93
-5.85848e-104
0.000265209
2.87503e-34
1.99112e-26
1.54101e-44
1.04177e-166
5.06602e-26
4.28447e-25
8.68781e-10
-7.74252e-104
5.40409e-40
6.67452e-06
2.01495e-05
-1.62347e-157
1.0506e-07
2.28581e-67
12.2093
-7.03847e-218
5.60543e-30
2.08376e-45
8.05026e-242
8.64185e-22
8.37466e-84
1.58323e-92
7.55304e-17
2.13413e-05
1.59972e-10
-3.63425e-90
4.76226e-33
-2.0802e-214
-4.48479e-120
7.18406e-07
2.05977e-36
2.88691e-100
3.38412e-26
-1.34897e-24
1.87704e-34
2.89939e-52
3.79805e-48
5.40212e-33
0.000108151
-1.27342e-165
1.06622e-50
2.61113e-64
1.87875e-32
3.17709e-08
8.84044e-31
2.3723e-40
-1.49785e-88
6.93864e-221
7.24134e-31
1.23694e-38
1.03835e-29
-3.40077e-170
-7.83889e-72
6.23836e-37
2.95749e-32
-2.42192e-27
8.91232e-27
1.31991e-92
1.84742e-36
-1.7974e-126
1.18769e-19
7.08618e-68
4.3006e-30
-6.23342e-73
-1.39993e-88
4.57656e-32
-6.0443e-72
6.11682e-81
-2.83173e-98
-2.53134e-166
9.55437e-45
2.56411e-60
3.67491e-69
2.82043
0.002151
2.53803e-133
3.97474e-102
-5.0249e-51
3.03784e-52
8.99308e-235
1.37007e-34
-7.21696e-42
5.01903e-36
-1.09985e-216
1.87348e-15
2.74746e-27
2.67155e-18
5.05913e-35
7.74368e-201
1.44534e-109
2.51186e-78
3.24007e-36
5.24325e-10
8.56869
-2.29565e-162
-9.31264e-78
7.05174e-87
3.75814e-09
4.39535e-05
2.42366e-10
6.87288e-61
1.17455e-30
-1.08731e-214
3.18767e-48
-3.58907e-61
-2.13477e-160
-6.55469e-25
-1.23151e-53
1.1976e-43
2.17872e-29
-8.28681e-83
2.64957e-53
3.73009e-39
-2.61027e-202
-1.08897e-303
1.80901e-53
-9.98259e-78
2.78156e-09
1.89294e-65
-8.41683e-26
3.42376e-15
-1.11202e-47
1.6642e-162
-3.3879e-69
3.09258e-28
-1.39485e-164
0.00360668
0.000321686
-1.36677e-134
-1.28727e-212
-2.49991e-128
2.76275e-166
2.16263e-244
6.01998e-71
-3.72011e-84
-1.91865e-36
5.66693e-54
4.46021e-38
1.58429e-56
1.11697e-08
1.19555e-29
1.87809e-37
2.55652e-56
4.16802e-66
1.36394e-42
2.625e-201
-4.63517e-87
9.6058e-87
-1.64202e-36
-1.37324e-29
1.51061e-10
2.92659e-247
-9.31678e-31
6.25522e-47
4.10078e-62
3.02027e-26
-7.06493e-46
1.04193e-28
6.7993e-05
4.29292e-49
3.36538e-21
1.39092e-65
-1.47321e-105
-8.04116e-50
6.3756e-40
-1.70658e-167
7.04694e-57
0.000869826
-1.17124e-91
1.04728e-05
-1.54499e-158
5.63211e-40
-7.74085e-107
6.82347e-94
1.74538e-34
-2.00184e-23
9.57033e-27
3.4022e-86
8.41296e-60
1.94552e-62
1.00504e-20
1.60173e-22
-1.49162e-53
1.937e-14
1.32049e-242
1.0676e-51
5.51153
1.83153e-16
4.11159e-89
0.0394517
6.45389e-26
1.19762e-82
-6.64493e-186
5.59977e-12
5.10723e-40
4.23507e-64
-7.17332e-44
9.64927e-168
3.28532e-32
-2.29707e-96
6.12222e-19
1.57921e-42
1.64582e-39
5.09471e-34
3.63754e-296
1.00806e-124
2.04876e-71
-9.77213e-108
-3.2879e-110
6.60167e-66
-6.13082e-88
2.45173e-80
-3.60865e-28
7.04304e-32
5.50279e-231
6.67729e-22
-3.50178e-121
1.81159e-200
-1.55754e-31
3.43216e-152
8.24376e-65
1.80003e-65
-2.79931e-169
8.63965e-165
5.6188e-100
1.12963e-36
-2.28098e-71
3.45407e-37
3.50029e-45
-1.82966e-30
2.4519e-31
4.03776e-65
1.11706e-54
3.54646e-45
-8.58391e-263
-1.09413e-70
-5.5732e-95
8.2534e-67
0.00254384
4.67259e-39
-2.04718e-83
-1.17876e-51
-1.0094e-73
2.46912e-85
1.2329e-88
-6.06362e-73
5.73546e-90
-1.49667e-37
8.06687e-48
1.36884e-202
7.38029e-38
8.09901e-58
1.25357e-35
-3.397e-186
-3.32193e-32
2.14125e-06
-4.79657e-117
-1.18027e-46
3.53636e-27
1.40363e-135
5.00977e-31
3.77094e-18
7.14906e-43
-4.11367e-43
8.31075e-21
2.08975e-52
-3.73941e-59
7.00892e-48
3.66466e-33
3.63928e-150
2.07228e-93
4.05016e-252
3.57027e-119
3.77677e-187
5.9178e-58
5.55969e-52
3.63121e-33
1.08416e-48
3.14236
-3.14644e-23
8.45962
4.4535e-46
2.09791e-11
1.19714
7.54354e-19
11.1489
1.13782e-90
2.48111e-55
-8.74438e-65
1.72788e-68
4.39877e-54
1.0741e-124
3.93326e-60
1.24308e-107
-4.01226e-188
-9.71304e-61
0.27561
9.72255e-61
1.53142e-34
9.18162e-63
-3.1536e-101
1.53298e-48
-5.2448e-52
1.57035e-120
1.91962e-57
-5.44002e-100
6.92433e-28
9.44125e-46
3.30821e-48
-1.38745e-49
0.00135634
3.56835e-15
3.1199e-33
9.12217e-67
40.2802
1.74302e-62
1.00744e-64
9.13061e-35
-1.30483e-33
-7.29905e-71
4.15266e-23
-1.16441e-162
-3.08372e-43
-8.22024e-32
1.26221e-50
1.0292e-51
-1.17316e-87
-1.08551e-54
-2.43923e-39
4.90321e-89
2.88281e-35
2.05433e-61
1.51063e-79
-2.31876e-160
1.4572e-69
8.75083e-50
-1.51007e-95
2.83144e-66
3.00299e-79
-5.48929e-123
-5.74164e-39
-3.60156e-98
9.93052e-19
5.3877e-54
3.49434e-75
-9.74412e-170
8.43981e-118
4.78536e-25
4.33123e-55
3.10129e-223
1.90343e-53
1.10563
1.40244e-35
-1.25073e-89
5.40123e-67
0.000668734
0.0575104
13.2588
6.24597e-112
4.92363e-114
-8.17697e-117
2.98561e-78
4.86802e-37
1.63343e-07
1.08431e-05
6.21684e-16
2.61661e-33
-4.0323e-96
-2.27201e-182
-1.43002e-179
-1.69286e-31
-1.39756e-89
3.98243e-31
-4.50021e-112
7.34895e-12
1.59483e-104
1.2887e-55
1.49753e-13
-4.65001e-49
3.43803e-28
1.6981e-123
5.46192e-58
-8.00457e-199
1.95051e-24
4.81742e-34
6.47482e-88
5.88451e-189
-2.28377e-79
-6.55716e-28
7.14911e-127
-1.51217e-52
0.000453273
-4.63225e-211
-2.58039e-84
-1.08199e-44
-3.09369e-45
3.58386e-57
-1.84977e-138
2.79594e-126
-1.38652e-123
-5.08114e-233
-2.66336e-179
3.30983e-78
6.19462e-42
2.38362e-199
-2.71468e-86
-5.23418e-130
139.976
-9.65519e-33
1.02942e-121
2.85326e-249
1.74958e-33
6.34713e-61
1.1832e-25
8.10437e-55
-3.23759e-60
-3.37456e-191