/*--------------------------------*- C++ -*----------------------------------*\
  =========                 |
  \\      /  F ield         | OpenFOAM: The Open Source CFD Toolbox
   \\    /   O peration     | Website:  https://openfoam.org
    \\  /    A nd           | Version:  7
     \\/     M anipulation  |
\*---------------------------------------------------------------------------*/
FoamFile
{
    version     2.0;
    format      ascii;
    class       surfaceScalarField;
    location    "0.384";
    object      phi;
}
// * * * * * * * * * * * * * * * * * * * * * * * * * * * * * * * * * * * * * //

dimensions      [0 3 -1 0 0 0 0];

internalField   nonuniform List<scalar> 
18389
(
-7.97498e-05
7.97498e-05
4.35285e-05
-4.35285e-05
-5.20448e-05
5.20448e-05
4.00689e-05
-4.00689e-05
-5.17967e-05
5.17967e-05
-3.98861e-05
3.98861e-05
-3.47548e-05
3.47548e-05
3.88221e-05
-3.88221e-05
-3.49431e-05
3.49431e-05
4.13751e-05
-4.13751e-05
4.46935e-05
-4.46935e-05
-3.44906e-05
3.44906e-05
-1.09097e-05
1.09097e-05
-4.27851e-05
4.27851e-05
4.34096e-05
-4.34096e-05
2.44883e-05
-2.44883e-05
1.86861e-05
-1.86861e-05
4.58883e-05
-4.58883e-05
4.59215e-05
-4.59215e-05
4.33565e-05
-4.33565e-05
-4.25671e-05
4.25671e-05
3.51661e-05
-3.51661e-05
4.29779e-05
-4.29779e-05
-5.85806e-05
5.85806e-05
-4.97106e-05
4.97106e-05
-4.17738e-05
4.17738e-05
-4.45284e-05
4.45284e-05
4.56125e-05
-4.56125e-05
4.58466e-05
-4.58466e-05
4.41288e-05
-4.41288e-05
-4.13291e-05
4.13291e-05
-6.30575e-05
6.30575e-05
4.31127e-05
-4.31127e-05
-4.47326e-05
4.47326e-05
4.08601e-05
-4.08601e-05
4.66858e-05
-4.66858e-05
-4.55511e-05
4.55511e-05
5.36082e-05
-5.36082e-05
-5.89365e-05
5.89365e-05
3.78799e-05
-3.78798e-05
4.49305e-05
-4.49305e-05
4.54255e-05
-4.54255e-05
-4.10204e-05
4.10204e-05
4.4905e-05
-4.4905e-05
4.58617e-05
-4.58617e-05
-4.58448e-05
4.58448e-05
-4.58413e-05
4.58413e-05
-4.06527e-05
4.06527e-05
-4.58804e-05
4.58804e-05
4.59268e-05
-4.59268e-05
4.59451e-05
-4.59451e-05
4.46057e-05
-4.46057e-05
3.77253e-05
-3.77253e-05
-4.576e-05
4.576e-05
-5.55297e-05
5.55297e-05
-4.38099e-05
4.38099e-05
4.57579e-05
-4.57579e-05
-4.59926e-05
4.59926e-05
4.32273e-05
-4.32273e-05
-5.93207e-05
5.93207e-05
-4.71398e-05
4.71398e-05
4.9606e-05
-4.9606e-05
4.57224e-05
-4.57224e-05
-8.54637e-06
8.54639e-06
4.5773e-05
-4.5773e-05
4.1468e-05
-4.1468e-05
5.12104e-05
-5.12104e-05
-4.58601e-05
4.58602e-05
4.23227e-05
-4.23227e-05
3.12684e-05
-3.12684e-05
4.55673e-07
-4.55673e-07
-4.41174e-05
4.41174e-05
3.28683e-05
-3.28683e-05
-3.65718e-05
3.65718e-05
3.97181e-05
-3.97181e-05
2.66258e-05
-2.66258e-05
2.61929e-05
-2.61929e-05
2.70489e-05
-2.70489e-05
2.43964e-05
-2.43964e-05
1.22679e-05
-1.22679e-05
0.00108315
-0.000885683
-0.000197463
0.00546478
-0.00207341
-0.00339136
-0.00594643
0.00594645
-1.42296e-08
0.0033548
-0.0026003
-0.000754505
-0.00156646
0.00176878
-0.00020232
-0.00675246
0.00283898
0.00391348
0.00121374
0.00425105
0.00725513
-0.00587523
-0.0013799
0.00120516
-0.00190937
0.000704214
-0.000869168
-0.000697291
-0.00144206
-0.00031466
0.00175672
0.000143403
5.7928e-07
-0.000143982
0.00077861
-0.00222067
-0.00360377
0.000122779
0.00348098
-0.00320184
0.00289355
0.000308295
-0.00569968
0.00723541
-0.00153573
-0.0037089
0.0028976
0.000811295
-0.000563168
-0.00304061
-0.00175347
0.00239136
-0.000637891
-0.000463116
0.00255907
-0.00209595
-0.00161236
0.00111502
0.000497337
0.00058352
0.000581839
-0.0015979
-0.00515456
0.00132356
-0.00181239
0.000488829
0.00577846
-0.00385969
-0.00191876
-0.000670389
0.00331332
-0.00264293
-0.00583492
0.0058352
0.000463361
0.00130542
-0.00633805
0.000965435
0.00537262
0.0023154
-0.00298579
-0.00378924
0.00311412
0.00067512
0.00214872
-0.00422213
0.0010891
-0.000202265
-0.000886834
0.00151167
-0.00129278
-0.00021889
-0.00280279
-0.000399042
0.00535144
-0.00535189
0.000375418
0.00113625
0.00522742
-0.0013358
-0.00389163
0.00196953
-0.000764371
0.00308572
0.00190865
-0.00499436
-0.000720862
-0.00306839
-8.9122e-05
-0.00015621
0.000245332
0.00393588
0.00331924
0.00115153
-0.00487134
0.00371981
0.0016266
0.00360082
-0.00498162
0.00632046
-0.00133884
-0.0011432
-0.000588608
0.00173181
0.00133543
0.00201936
0.00013529
0.000103626
-0.000238916
0.00502032
-0.00339372
0.00645957
-0.000840602
-0.00561897
0.00321761
-0.00266708
-0.000550529
0.00221591
0.000458937
-0.00267485
0.0029571
-0.000741191
0.00650398
-0.00539861
-0.00110536
0.000494136
-0.00385265
0.00335852
7.04544e-05
0.00638912
0.00478994
-0.0042958
-0.000535766
0.00105939
-0.000523619
-0.00176366
0.000620465
0.00191701
0.00224914
-0.00416614
0.00025364
-0.000333812
8.01719e-05
-0.0012561
-0.002849
0.0041051
-2.63686e-05
0.00653035
-0.00281397
0.00230211
0.000511867
0.00038934
-1.21255e-05
-0.000377215
-0.00569232
-0.000254108
0.00188022
-0.00141685
0.000828326
0.00495014
0.000895774
0.000187375
0.00261662
-0.00642202
0.0038054
-0.00112019
0.00058443
0.00264152
-0.00389762
0.00619606
-0.00226017
0.00109212
0.00117726
-0.000790889
0.00105249
-0.000261601
-0.00111547
-0.000496889
0.00188368
0.00133393
-0.000594774
0.0014295
-0.00123737
-0.00019213
-0.00265376
0.00199177
0.000661989
0.00116676
0.000262743
0.00112272
-0.00495529
0.00383256
-0.00474623
0.00140649
0.00333973
-0.00455437
0.00611813
-0.00156376
-0.00506197
8.0347e-05
-0.0020186
-0.000635159
-0.000215716
0.000126594
-0.00121451
0.00463833
-0.00342382
-0.00119242
-0.000716948
0.000103301
-0.000192023
8.87216e-05
0.000126281
-2.29801e-05
-0.00124999
0.00462973
-0.00337974
-0.000156259
2.44267e-05
0.000131832
-0.00556628
0.00170659
-0.00120217
-0.000561492
-0.000449385
-1.89137e-05
0.000468298
-0.000543205
9.38188e-05
0.00101326
7.5838e-05
-0.0018159
0.000613734
-0.000150533
1.70406e-05
0.000133492
0.00136804
-0.00234445
0.000976404
0.000271101
-0.000135811
-0.00392542
0.00513916
-0.00245878
0.000705323
-9.70532e-05
-0.000417943
0.000514996
0.00568541
-0.00216812
-0.00351729
7.95341e-05
0.0025064
-0.00258594
0.00444634
-0.00559776
0.00115143
0.00263521
0.0030502
0.00291478
-0.00283525
-0.00614402
0.000444341
-0.0064473
0.00362228
0.00282503
0.00229266
0.0039034
-0.00438798
0.00137106
0.00301692
0.00150649
-0.000182928
-0.00102228
0.00401744
-0.00299516
0.00463876
-0.00162528
-0.00301348
-0.00459567
0.00374697
0.000848712
0.00369336
-0.00502916
5.96446e-05
0.000329696
-0.00137072
0.00581706
-9.05405e-05
0.00214868
-0.00205813
-0.00207258
0.00261381
0.000163667
-0.00277748
-0.00127739
0.00264543
-0.000639679
0.00325349
0.00164241
-0.00173294
0.000889142
0.00397046
-0.00485961
-0.00504212
0.00384083
0.0012013
0.0025519
-0.00359411
0.00104222
-0.00330961
0.00411541
-0.00080579
0.000358211
-0.00366783
-0.000913526
0.000913526
-0.000455427
0.000358374
-0.000126948
-0.000973485
0.00110043
0.005069
-0.00184159
-0.00322741
-0.00243331
-0.000369491
0.00290088
0.000157887
1.65021e-05
-0.000174389
-0.00147471
0.00112922
0.00034549
-0.000142024
-0.0049001
0.00503724
-0.00388572
0.000230348
-8.6945e-05
0.00444284
0.000577482
0.00406761
-0.00151571
0.000165027
-7.13986e-06
-0.00632993
-0.000996635
-0.000819271
0.00430045
-0.00190399
-0.00239646
0.00275764
0.00154282
0.00107763
-0.005632
-0.00226737
-0.000546595
-0.00112521
-0.000955445
0.00208065
4.17627e-05
-0.00272426
0.00268249
-0.00235899
0.00123379
-0.00221808
0.0053038
-0.00461091
0.00159198
0.00301893
0.00254816
0.000686103
-0.000338736
-0.000347367
-0.00601574
0.000582905
0.00543283
-0.00417604
0.00581402
-0.00163798
0.00182443
0.00163132
-0.00345576
-0.00168244
0.000900611
0.00078183
-0.0027153
0.00208574
0.000629562
0.00112581
0.000754404
0.000247181
-0.000328936
8.17561e-05
0.00487681
-0.00398767
-0.00638638
0.0055768
0.000809579
-0.00478535
-0.00166195
0.00334983
0.000623223
-0.00397306
0.000154038
-0.000162221
8.18275e-06
0.000590418
-0.000125237
-0.000465181
-0.00451863
0.00261465
0.000377019
-0.000595633
0.000218615
5.45887e-05
-0.000968117
-0.00257575
0.0044844
-0.00530413
-0.000322272
0.0056264
0.000208894
0.000202109
-0.000411003
0.00123997
-0.00123997
0.00168556
-0.000723526
-0.00211078
0.00181793
0.000292848
0.00439703
-0.00302598
-0.000162441
6.18189e-06
-0.00120932
0.0012639
0.000672938
0.00129659
0.00234779
-0.000262046
-0.00401727
-0.00128685
0.0011206
-0.00497326
0.00321303
-0.00446302
0.000833019
-0.00213693
0.00130391
0.0033596
-0.00457412
-0.00271072
-0.00180791
-0.0048359
0.00469388
-0.00067686
-0.00533887
-0.00515817
0.00147985
-0.00148624
6.38763e-06
0.00223613
0.00011166
-0.00601453
0.00204871
0.00396582
-0.00121934
0.000526007
0.000693327
0.00144549
0.00295154
-0.00462515
-0.00101509
0.00564025
-0.00021291
0.00013858
7.43286e-05
-0.0055055
0.00132946
0.00375313
-0.00493692
0.0011838
-0.00149884
-0.000611944
-0.000536676
-0.000637497
0.00013833
-0.000203784
6.54537e-05
0.00497593
-0.00385322
-0.00130018
0.00512446
-0.00382428
-0.000419778
-0.000789538
-0.00586129
0.000439718
0.00539548
-0.00616002
0.00456211
-0.000924314
-0.00546207
-0.0010984
-0.000376304
-0.00181904
0.00285828
-0.00103924
-0.000419068
0.000321988
9.70812e-05
-0.00173208
0.00141742
0.00161699
-0.000137135
0.000821297
-3.6739e-05
-0.00169534
0.00279717
0.00121671
-0.00303575
0.00605604
-0.000479241
0.00528071
7.07281e-05
-0.00528143
0.00438935
0.00114434
-0.00553369
0.000556548
-0.000768853
0.000212305
-4.19621e-05
-0.000413465
-1.02091e-05
0.00606625
-0.000162173
0.000156816
5.35652e-06
0.000133419
2.06185e-05
0.00254197
-0.00335492
0.000812944
-0.00189686
0.000696582
0.00120028
0.00791728
-0.00345191
-0.00446536
0.00116906
0.00126771
-0.00243678
0.000104768
-0.000171783
6.7015e-05
-0.000805873
0.00133187
0.00115508
0.00318264
-0.00433773
-0.00561451
0.00016571
0.0054488
-0.00401753
0.00299525
0.00173487
0.00479548
0.00458297
0.0033343
-2.28988e-05
0.000192145
-0.000169246
-0.00130028
0.00439121
-0.00309093
0.000301869
-0.000343831
-0.000131419
-8.149e-05
0.00410059
-0.00227617
0.00475405
-0.00500381
0.00024976
-0.00322758
0.00605235
-0.00282477
0.00252838
0.00157221
0.00574102
-0.000986969
-0.00138152
-0.00562116
0.00137251
0.00424865
0.000654648
0.000520486
-0.00117513
0.00126934
-0.000614689
0.000585359
-0.00111005
0.000524689
0.00110585
0.000283196
0.000402908
-0.000678231
0.00443136
0.00152034
-0.000391121
0.00351798
-0.00610603
0.00258806
0.00153612
-0.00258538
0.00104927
-0.00431334
0.00115532
0.00315802
0.00291773
-0.00421801
-0.00490757
-0.00125245
-0.00409551
0.00126239
0.00283312
0.00124168
0.00314953
-0.00326388
-0.000831638
0.00222657
-0.00105752
-0.000672793
-0.00253598
0.00320877
0.00241014
0.00061111
-0.00302125
-0.00159326
0.00120326
0.000389999
0.000270142
0.00149751
-0.00196848
0.000470973
-0.00011097
-0.000222843
-0.000264546
0.000153576
-0.00434971
-0.000245957
-0.000294044
0.00117395
-0.000879907
0.00435105
-0.00464426
0.000293216
-8.84009e-05
0.000117738
-2.9337e-05
0.000969491
0.00338296
-0.00435245
-0.000156976
6.85756e-05
-0.00475109
0.000709703
0.0040414
-0.00079674
8.80527e-05
0.000708685
8.08932e-05
-8.03138e-05
-0.000400036
0.00086467
-0.000347469
-0.000517201
-0.00603619
0.000637586
-0.00254964
-0.000128251
0.00267789
-0.00317115
0.00441282
0.00218085
-0.00108873
-0.00116719
-0.00118609
-6.33636e-06
-0.00351769
-0.00122854
0.00152054
-0.000415551
-0.00110499
0.00191981
0.00183815
-0.00375796
0.00503821
-0.00160404
-0.00343417
0.000792054
-0.0054172
-0.00137214
0.00300347
0.0019507
0.000787665
-0.00273836
-0.0034996
0.0044691
-0.000153249
2.7162e-06
0.000932262
-0.00443187
-0.0044969
-0.000147374
-0.000998102
-0.00461641
0.00461952
0.0014799
0.00355831
0.00415868
0.00114151
-0.00530019
3.58953e-05
5.98624e-05
-9.57577e-05
-0.00141363
0.00336433
0.00370119
0.00353421
-0.00140371
0.00237267
-0.000968948
-0.00247982
0.000461222
-0.000878388
0.000751439
-0.000201351
0.000410245
-0.000205908
0.00170342
0.00376339
-0.00184357
-0.00107997
-0.000602477
-0.000107278
-0.000157268
0.00355042
-0.00163341
-0.0024037
0.00465285
0.000674538
-0.00309589
0.00242136
0.000651375
0.000765769
-0.00105981
0.00210073
-0.00130566
-0.00327541
0.00458106
-0.00215593
0.00477256
-0.000552705
0.00344625
0.000238291
-0.000221251
-0.0023634
0.000959698
0.00230401
-0.00386871
0.00156471
-0.00122392
5.81179e-05
-2.22227e-05
0.00215226
-0.00279848
0.000646226
-0.00117275
-0.000420506
-0.00353497
0.0045004
0.00118146
0.00168569
-0.00286715
-0.00169322
0.00366424
-0.00197102
0.00423813
-0.000855175
0.000234323
1.41061e-05
-0.000248429
-0.00372123
0.00202801
-0.00141994
0.00471057
-0.00329063
0.00087793
0.00130292
0.000204168
0.0010358
0.000253085
-0.000300741
4.76555e-05
0.00169913
0.000218359
-0.00191749
0.003021
-0.00458267
0.00156167
-5.29138e-05
0.000374376
-0.000321462
0.00156398
-0.000360718
0.00142897
-0.000620564
-0.000808402
0.00282782
-0.00392129
0.00109347
0.00268187
-0.00374212
0.00106026
-0.00515728
0.0019297
0.00389562
-0.000874613
-0.000624291
-0.00238143
0.00300573
0.00140617
-0.00511677
0.0037106
0.00336051
-0.00145893
-0.00190159
-0.000688838
0.00173109
-0.00104226
0.00477166
-0.00303679
-0.000707716
-0.00195936
-0.00598182
0.00514121
3.83513e-06
0.000121841
-0.000125677
-0.00158071
0.00120445
0.000376266
-0.00490573
0.006304
-0.00139828
-0.00188805
0.000706541
0.00118151
0.000404869
0.00268698
-0.00208969
-0.000597291
0.00343439
0.000490305
-0.0039247
0.000123292
-1.85231e-05
0.00517229
0.000336887
-0.00550917
-0.00194161
0.00379782
-0.00185621
0.00276598
-0.000629222
-0.00213676
0.000462534
0.000402136
-0.000437953
0.00387234
0.00202531
-0.00396691
0.000712639
-0.000266996
-0.000445643
-0.000647243
1.5427e-05
0.000631818
-0.00315301
-0.00576494
0.00576662
-0.000275084
0.000953125
-0.000678042
-0.00229246
-0.000187367
-0.00454716
0.0032415
-0.000863948
0.00112064
0.00360765
-0.0050197
0.00141205
0.000410693
-0.00296033
0.00233486
-0.00244023
0.000105361
-0.00157144
0.00148229
8.91442e-05
-0.00121321
-0.000367505
-0.00339208
0.00342551
-0.00224404
0.000457326
0.000133093
-0.00173985
0.00105101
-0.0027912
0.000734053
0.00205715
0.000242335
-8.01262e-06
-0.00347715
0.00102155
0.0024556
-0.00144358
0.00560226
0.000338898
-0.000958514
0.000619618
0.00212553
0.00064044
-0.00127776
0.000304274
0.0011202
0.00121467
-0.00141792
0.00494403
-0.00352611
-0.00485644
0.00577213
-0.000915693
-0.00117225
0.00228559
0.00410353
0.00107537
3.96519e-05
0.00585662
-0.00551462
-0.000341993
0.00353917
-0.00465122
0.00111205
0.00309024
-0.000680101
0.00542641
-0.00181876
-0.00250469
-0.00097246
-0.00218338
-0.000307483
0.00249087
0.00242267
-0.00196374
-0.00160818
-0.00423992
0.00274897
0.00149095
-0.000329857
0.00123047
0.001208
0.00364903
-0.00485703
-0.000321463
0.000698481
0.00305958
-0.00238504
-0.00472411
-0.00125772
0.00647074
-0.00129845
0.0042335
0.0020638
0.000495274
0.00285559
-0.00212718
-0.000728412
0.00473743
-0.00245184
-6.7575e-05
-0.0033283
-0.000863061
0.00419137
0.000388738
-8.67708e-05
-0.000301967
-0.00514028
0.00610391
-0.000963634
-0.00071689
0.00190249
-0.0011856
-0.000696982
0.00525266
-0.00455568
0.00119492
-0.00191181
-0.0001126
-0.00576262
-0.000790889
0.00203142
0.0038252
-0.000258156
-0.00192523
0.000251392
-4.21052e-06
0.000362562
-0.000487799
0.00335923
-0.000817258
-0.0052256
-0.000271555
-0.000147513
0.000150214
-0.00013359
-1.66242e-05
-0.00248335
0.000124354
-0.000419556
0.0015957
-0.00102071
-0.000574992
0.00245805
0.000606986
-0.00306504
-0.000722698
0.00318074
-0.00520293
-0.000271533
0.00547446
0.00375074
0.00137372
0.00440311
-0.00122046
-0.00012726
0.00254993
0.00540384
-0.000206645
-0.0051972
-0.00608771
0.00425306
0.00183465
0.00321181
-0.00126803
-0.00435313
0.000203399
-0.000226298
0.000587166
0.000841797
0.00116267
0.000191373
-0.00135404
0.00421231
0.00119153
-0.000962557
0.00317189
-0.00220934
0.00471977
-0.00136994
-0.00218139
0.00279379
-0.000612391
-0.00117693
-9.99595e-05
0.000285739
-0.000185779
0.00344668
-0.00414366
0.00134601
-0.000990964
-0.000355043
0.00159975
-0.000395306
-0.00324987
0.0022873
0.0054869
-0.00434256
-3.0621e-05
0.000352609
-0.00535218
0.00044644
0.00542126
-0.00190329
-0.000997426
-0.00361546
0.00461289
-0.0006451
0.00288303
-0.00223792
0.00549724
-0.00286245
-0.00263479
-8.83972e-05
0.000591033
-0.000677084
0.000660578
1.65052e-05
-0.000698547
0.00173543
-0.00103688
-0.00315124
-0.0011621
0.000155528
-1.71976e-05
-0.00122478
-0.00478974
-0.00307348
0.00240068
-0.000960193
-0.000279771
-7.26205e-05
-8.95519e-05
-0.00122922
-0.000805928
-0.00523027
-0.0028389
0.0021938
-0.000813984
0.0011894
0.00111852
0.0043604
-0.00547892
0.00337703
-0.00275381
0.000465576
0.000770018
-0.0028832
0.00211318
0.00497722
-0.00491654
-6.0676e-05
-0.00320949
0.00361563
-0.000406135
0.000207791
-9.56048e-05
-0.000112187
-0.00494051
-0.00148153
-0.00176051
0.00368983
-0.00192932
0.00298087
-0.00221085
-0.0037835
0.00202299
0.00139508
-0.00258174
0.00118665
-0.00363301
0.00568172
0.00649868
-0.00219576
-0.00430292
-0.00239887
0.00237659
2.22897e-05
0.00559294
-0.00162249
0.00118576
-0.000925583
-0.000260175
-9.09035e-06
0.000262175
0.000249935
-0.000774834
0.000524899
-0.0030489
0.00365003
-0.000968168
0.000848772
-0.00105104
0.00236449
-0.000633381
-0.00173111
0.0022131
-0.000513969
0.00451492
0.000630852
0.00173364
-0.00175989
0.00106135
0.00040859
-0.000464701
5.61106e-05
0.00222005
-0.00174866
-0.000471389
0.000823248
-0.0051478
-0.000544526
0.00036949
-0.000588351
0.000218861
-0.0041016
0.00547411
0.000941919
-0.00111656
0.000174643
-0.00153757
0.00216368
-0.000626113
-0.00148661
-0.00275331
-0.00537339
-0.000165671
0.00553906
0.000298925
0.000108304
4.1911e-05
0.00012797
-0.000128193
2.22804e-07
0.0040984
-0.0028904
-0.00379518
-0.00231085
0.0034651
0.00303357
-0.0025904
0.000718192
0.0018722
-0.000844628
0.00223971
-0.00229832
-0.000100552
0.00272968
-0.00377722
0.00104754
0.00130604
-0.000132088
0.000462379
0.000550881
-0.0032778
0.000961859
0.00231594
0.000909819
-0.000623567
-2.36776e-05
-0.00426894
0.00171416
0.000113564
-0.00182771
-0.00396273
0.00146083
0.0025019
0.000515731
0.00149459
-0.000907423
-0.000245598
-0.00466067
0.00490627
0.000784057
-0.00247674
0.00169269
0.00120221
0.00131231
-0.000457236
-0.00172681
0.00218405
0.00258002
-0.00179596
0.00446669
-0.00353443
-0.000762234
-0.00264104
-0.000227267
0.000251693
-0.000710097
0.00176706
-0.00105696
0.00266213
-0.00366657
0.00100443
0.000136427
2.03892e-05
-0.00236511
-0.000912693
0.00142117
-0.00163613
0.000214955
-0.0027748
0.000685118
0.00127616
-0.0014185
0.000142342
0.00161852
-0.0018076
0.000189078
0.000674205
-0.00372057
-0.00115077
0.00133877
-0.0048865
0.00354773
-0.000910921
0.00357304
0.000118393
-7.92753e-05
-3.91175e-05
0.00473525
-0.00361672
-0.00030131
-0.0015219
-0.00401303
-0.00149248
0.00209386
0.000699917
-0.00100356
-0.00092267
-0.00452149
-0.00162253
-0.000393524
0.00124483
-0.000933561
-0.000311265
-0.00149653
-0.00108886
0.000653424
0.00226103
-0.00291445
-0.000114312
0.000670859
-0.000715942
3.88588e-05
-0.00246237
0.00196647
0.00139404
-0.000687318
0.00163561
-0.000948293
-8.68556e-05
-0.000116929
0.000319244
-0.00194708
0.000448241
0.0016174
-0.00230745
0.000690049
-0.00333717
0.00258482
0.000752338
0.00120568
0.00240588
-0.00361157
-0.00175711
0.00104701
-0.00294107
-0.00102166
-0.000780478
-0.00255669
-0.00167845
0.00125521
0.000423241
0.00176706
-5.29044e-05
-0.00075904
-0.00243681
0.00319584
-0.000665663
0.00291333
-0.00225991
-0.00085858
-0.00394757
0.00480617
-0.00234244
0.00234263
-1.8682e-07
-0.00079674
-0.00156719
0.000546488
-0.00240709
0.00381935
-0.00141227
0.00323307
0.00288506
0.000194329
3.62217e-05
-0.000230551
0.00234059
-0.000602195
-0.0017384
0.000188017
-0.000184182
-0.00358891
0.00492768
-0.00329178
0.00523382
-0.00194204
-0.00351001
-0.00150969
-0.000916347
0.00323205
-0.00231571
0.0028576
0.00177203
-0.00417913
-0.0049946
-0.000145675
-0.000779779
0.0028425
-0.00206272
-0.00043177
0.000378856
-0.000532073
0.00167635
-0.00114428
-0.00402471
0.00334554
0.000679168
-0.00326892
0.00235257
-0.00386606
0.000672966
0.00319309
0.00141201
-0.00101524
-0.000396772
-0.00589955
0.000696619
0.00184702
-0.00141148
-0.000435537
0.0014667
-0.000457841
-0.00100885
7.83743e-05
0.000129417
0.00292844
-0.000626334
-0.000215983
-0.00348699
-0.000379075
0.000426999
-0.00305581
-0.000968904
-0.00233714
-5.29025e-06
-0.00292244
0.00229815
0.000720154
0.00260224
-0.00332239
0.00058597
-0.000861054
0.00140652
-0.00671426
0.00530774
-0.00577259
0.000987238
-0.00233281
0.0035385
0.000694763
0.000258363
-0.00273334
0.00345349
-8.50447e-05
0.00506227
0.000606609
0.00171038
-0.00231699
-0.00177844
0.00124637
0.00274911
-0.00369531
0.000946194
0.00509953
0.00067865
0.0015414
0.000322106
0.000390532
-0.000364008
-0.000404844
0.000181
-0.00174921
0.00176685
-0.000888919
0.000898542
0.000596042
-0.000581169
0.00300989
-0.00242872
-0.00150916
0.00184307
-0.000333912
-0.00489196
0.00380357
0.00108839
-0.00479634
0.00150455
-4.09236e-05
3.7176e-05
3.7476e-06
-0.00281297
-0.000853597
0.00110174
-0.00129751
0.000195772
0.00134748
-0.00493639
0.00116222
4.54111e-07
0.00123195
0.00069294
0.00219008
-0.0036666
0.000853644
0.000182682
-0.00503913
0.00190146
0.00123057
0.000671919
-0.00527309
-0.000491853
0.00565403
0.00118767
0.00710706
-0.00218369
-0.00492337
0.000798058
-0.000375953
-0.000422106
0.000708802
-0.00138748
0.000785
-0.00386073
-0.00125605
0.000285739
-0.000957316
-0.000401994
0.00135931
0.00233217
0.00400852
-0.00486709
0.00270312
0.000834028
-0.00353715
0.00125042
-0.000964876
-0.000285538
0.00074465
0.00159594
-0.000135149
0.000138377
-3.2282e-06
-0.00070874
0.0028837
-0.00217496
0.00362025
0.00109032
-0.00126551
-0.000412939
0.00141855
-0.00151407
9.55211e-05
4.68506e-05
7.15423e-05
-0.0044777
0.000967686
-0.00165709
0.000443884
-0.00364887
0.00292616
-0.000948751
6.30668e-05
0.000932905
0.00268169
-0.00361459
0.000849121
-0.00127129
0.00418306
-0.00291177
0.000316851
0.000279884
4.65582e-05
-0.000326443
7.8362e-05
-0.00539167
0.00531331
-0.00263879
-0.000767982
0.00340678
-0.00348422
0.00261114
0.000873092
-0.00276492
-0.000263751
-0.00171506
-0.00490163
0.000888602
-0.00145725
-0.000879897
-0.00106259
0.00379227
0.00171087
-0.0037245
0.00201363
0.000105531
2.24396e-05
0.00372595
-0.00201508
0.00286751
0.000946505
-0.003814
-0.00130518
0.00174226
-0.000437077
0.00357444
0.00109423
-0.00466868
0.00717502
-0.00196859
-0.00520642
-0.00212843
-0.000710473
-0.00173746
0.00234406
0.00377344
-0.00492505
0.0011516
-0.00280352
0.00373642
0.00116715
-5.68826e-05
-0.00111027
0.00147984
0.000911514
-0.00550562
0.000598046
0.000434688
0.00036337
0.0029215
-0.00111852
-0.0025188
0.00248058
3.82222e-05
0.000504461
-0.00184091
0.00133644
-0.00386983
-0.00119214
0.00108781
-0.00254506
-0.0052991
0.000151308
-0.00125856
-0.000519052
0.00177761
0.00563364
-0.00449213
0.000104598
0.00028414
-0.00302221
0.00318588
0.00144271
-0.00107559
-0.000367124
0.00346927
0.00475592
-0.000952359
0.000635118
-0.00327391
0.00114946
-0.00106141
-5.28947e-05
0.000461484
0.000394117
-1.97414e-05
-0.00206264
-0.000442367
0.0015441
-0.000899406
-0.00349737
0.000764044
-2.83153e-05
-1.26084e-05
0.00599848
-0.00492084
0.00522203
-0.00439371
-3.25775e-05
-0.000708685
0.000741262
0.00194908
-0.00045806
-0.00149102
0.00335867
-0.000756431
-0.00256846
0.00336099
-0.000792524
-0.00183356
0.000528381
0.00127934
-0.000953249
-0.000326091
-0.00011877
-0.000210166
0.00205949
-0.000547926
-0.00151156
-0.00138209
-0.00239427
-0.000124526
0.00209329
-0.00274607
0.000652775
0.00280666
-0.000749498
-0.00205717
0.00410355
-0.00434914
0.000314465
0.00223662
-0.000619219
-0.000680944
0.000835905
-0.00367526
0.00502273
0.00121952
0.000461216
-0.00171978
-0.0028612
0.00209792
0.00363251
0.00158952
-0.0011574
-0.00382671
-0.00112857
0.00130595
-0.0017184
0.000412442
0.00367587
-0.00318557
-0.000193962
0.00113588
-3.85161e-05
-0.000271703
0.00031022
-0.000684851
-0.00190555
0.0037727
-0.0049063
0.0011336
-0.0018686
0.00235077
-0.000482183
-0.00115235
0.00213344
0.000750258
-0.00226386
0.00375502
-0.00149117
0.00150834
-0.00114475
-0.00036359
-0.00109217
0.000295435
0.00020394
-0.000457032
0.000253092
-0.000426681
-0.00123041
-0.00247933
0.00250618
-2.68536e-05
0.00144725
-0.00371111
0.00162607
-0.000370858
0.000369639
-0.000402732
3.30938e-05
-0.000827848
0.0005946
0.000233248
-0.00079426
-0.00284433
0.000817907
0.00202643
-0.0019948
-0.000877835
-0.000726295
0.00160413
-0.00524
0.00389544
0.00134455
-0.00135109
0.00131851
-0.0005763
-0.000115989
0.000692288
0.00286845
-0.000735015
-0.000770179
-0.000160292
0.000930471
0.00184054
-0.00137933
0.00169965
-0.000393698
-0.000201626
-0.000636301
-0.00420313
0.00483943
-0.00139969
0.00283131
0.00427575
-0.00239909
-8.02288e-05
0.00312501
-0.00472905
0.000732638
0.00158242
-0.00231506
0.00201577
-0.00279555
0.00197948
-0.000707034
-0.00127245
-0.00179626
0.000455584
0.00134068
0.00431289
0.00286213
-0.00551554
0.00133591
0.00417963
-0.00124987
-0.00399012
-0.000459885
-0.00133638
-0.0010103
-0.00055689
-0.00129329
-0.000425105
0.00114047
-0.000531653
0.00151287
-0.000981215
-0.0017574
0.00129751
-0.000944224
-0.000207303
0.00115153
0.00217374
-0.00286722
0.000693483
-1.17696e-05
0.000206098
0.00103571
0.00606069
-0.00140832
-0.00465238
-0.00203428
-0.0018736
0.00134761
0.000525983
0.00127176
-0.000980097
-0.000291662
-0.0022974
-0.00102166
0.00331907
-0.00267459
0.00358192
-0.000907333
-0.000917501
0.00113477
-4.47079e-06
-0.0011303
0.00376156
-0.00493459
0.00117302
0.00174777
-0.00135586
-0.000391908
0.00242708
-0.00122487
0.00273396
-0.000636192
-0.000191656
-0.00408821
0.00229807
-0.0018018
-0.000496266
0.000560199
-0.00200946
0.00144926
-0.00251853
-0.000836381
0.000860492
-0.0006594
-0.000201093
-0.000180234
-0.003639
0.000964416
0.000661507
-0.000457566
0.0025957
0.000986216
0.000318511
0.0013103
0.000669183
-0.00160415
0.00233678
-0.00150918
0.000996766
0.000512416
0.00354389
-0.000676368
-0.00380976
0.00610243
-0.00114473
-0.0024849
0.00682791
-0.00434301
-0.000886253
0.00356795
-0.00414182
0.000932345
-0.00210094
0.00424966
-0.000679379
-0.00162807
-0.00244836
0.00171895
0.000729415
-0.00127843
0.000692858
-0.000653619
-3.92375e-05
-0.00137596
-0.000776619
-0.000153524
0.000930143
-0.00156888
0.00137053
0.000198359
0.00204325
0.000799244
6.25179e-05
-0.00129989
-0.000550655
-0.000836821
-0.00241523
-0.000472549
-0.00140105
-0.000171104
0.00159228
-0.000180643
0.00341015
-0.000512555
0.00133868
0.000199776
-0.000776887
-0.00103551
-0.00193032
0.00247682
-0.000546499
-0.00105315
-0.00572891
0.00351083
0.00148241
-0.000583868
0.00288738
-0.0012017
0.000953865
-0.00135916
-0.00453065
0.00588981
0.000619954
-0.00255028
0.000740026
-0.00368624
0.00269954
0.000986694
0.000895453
-0.00142711
0.00222936
-0.00311765
0.000888289
0.00119482
-0.00342927
0.00223445
0.000860123
0.00168876
-0.00254888
-0.000174381
0.0017929
0.0027454
0.00108166
0.00361902
-0.000413526
0.000783014
0.00315918
-0.00402224
0.000975935
-0.00327333
0.000434143
0.0041247
0.0014843
-1.03458e-05
-0.000276454
0.000286799
-0.00619228
0.00385678
0.00233551
-0.000824656
-0.00261762
0.00344229
0.00263995
-0.00177982
-0.00369596
0.000892439
-0.00132186
-0.00043554
-0.000152708
0.00131948
0.00372189
0.00122213
0.0002243
0.00131005
-0.00099378
-0.000316269
0.000918113
0.000564299
-0.000314037
0.00376898
-0.00493226
0.00116328
0.0030773
-0.000847957
-0.00139922
0.00190367
0.00125966
-0.003554
0.00229434
-0.00116562
0.00145679
0.000678073
-0.00213487
0.000192881
-0.000203227
0.00219895
-0.000863526
-0.00129761
0.000329952
0.000923356
-0.000351033
-0.000572323
0.00353139
-0.00227174
-0.000506924
0.00229524
-0.00178832
0.0010222
-0.00296443
0.002092
0.000872443
0.000106206
-6.75424e-07
0.00465976
0.000544798
-0.00569937
-0.00519296
0.00392713
0.00126584
-0.00107502
-0.00269582
0.00377083
0.00222131
0.00372513
0.00282847
-0.00375313
0.000924669
-0.00147096
0.00110346
-0.000940621
0.00337005
-0.00242943
0.00149755
0.000561937
-0.00378475
-0.00240754
0.00106938
-0.00230437
0.00321142
-0.000907047
0.00342742
-0.000816284
0.000395653
-0.000801086
0.00254787
0.000879556
-0.000634672
0.00431055
-0.00131036
0.00171664
-0.000406283
0.00197917
-0.00128258
-0.0003893
0.00607684
-0.00491641
-0.000456978
0.00085809
-0.00246224
-0.00539144
-0.00172342
0.000413054
-0.000678147
0.000101847
-0.000867485
0.000214584
-0.00147089
0.00065582
0.00158079
-0.000905381
0.000135202
0.000804683
0.00251635
-0.00332105
-0.00109507
0.00187368
-0.00194714
-0.00047407
0.00196128
-0.00148721
-0.000872828
-0.0020916
-0.00195183
0.00147776
-0.00265787
0.00346254
-0.00164197
0.000578326
0.00106365
-0.000970695
0.00356639
0.00599527
-0.00229408
-0.00130425
-0.000419162
-0.00174229
0.00110575
0.000636545
0.000902985
-0.00451795
0.00361497
-0.00132032
0.000544926
0.000775393
-0.00403502
-0.00115794
0.000191856
-0.00113608
0.00193564
-0.000705073
-0.00133836
-0.00380223
0.00514058
0.00100583
6.95436e-05
0.00329718
-0.00252859
-0.000768592
0.00014843
0.00131826
0.000877443
-0.000670617
-0.000206827
-0.00135037
-0.00101303
-0.00106923
0.0050976
-0.00402837
0.000629726
-0.00249832
0.000172717
0.00124583
0.00377309
-0.00496
0.00118691
0.0028749
-0.002057
0.000101902
-0.000168343
6.64413e-05
0.00102622
0.000138076
0.000104259
0.00235812
0.00370257
-0.000578589
-0.000817419
0.00139601
0.000652365
0.00177224
-0.0024246
0.00239875
-0.00171237
-0.000686381
0.000475344
0.00147373
0.000425917
-0.000512835
-0.000807485
0.000600133
-0.00532424
0.000690406
-2.98286e-05
-0.00115916
-0.0013077
-0.00378851
0.00509621
0.00104067
0.00143758
-0.00189564
0.00254685
-0.000395069
-0.00490899
0.00530406
0.000120765
-1.88624e-05
0.000642647
0.00129299
0.00273218
0.000939049
-0.00367122
0.0013757
0.00047132
0.00258857
-0.00364134
0.00454433
0.00277437
0.000843102
-0.00361748
0.00162905
-0.000891858
-0.000737189
0.00132943
-0.00102005
-0.000309385
0.000423352
0.00105777
-0.00469912
0.000218043
-7.0088e-06
0.00019989
0.00602147
-0.00128622
0.00152675
-0.00212895
0.00252304
-0.0018289
-0.000694147
0.000853712
-0.0025455
0.00169179
0.00523519
-0.00281841
-0.000923703
-0.00159465
0.00500766
0.00148596
-0.00178134
0.000295379
0.000499984
-0.000103701
-0.000396282
-0.000991475
-0.0031412
0.00413268
0.00074193
0.00182031
-0.00256224
0.00176744
-0.000281484
0.00225084
0.00141181
-0.000866887
-0.000937195