/*--------------------------------*- C++ -*----------------------------------*\
  =========                 |
  \\      /  F ield         | OpenFOAM: The Open Source CFD Toolbox
   \\    /   O peration     | Website:  https://openfoam.org
    \\  /    A nd           | Version:  7
     \\/     M anipulation  |
\*---------------------------------------------------------------------------*/
FoamFile
{
    version     2.0;
    format      ascii;
    class       volVectorField;
    location    "15.5";
    object      U;
}
// * * * * * * * * * * * * * * * * * * * * * * * * * * * * * * * * * * * * * //

dimensions      [0 1 -1 0 0 0 0];

internalField   nonuniform List<vector> 
2413
(
(2 -6.12242e-15 0)
(2 -4.5555e-15 0)
(2 -1.87392e-15 0)
(2 -1.37266e-15 0)
(2 -2.2654e-15 0)
(2 -2.81051e-15 0)
(2 -3.84476e-15 0)
(2 -4.96403e-15 0)
(2 -5.56158e-15 0)
(2 -6.5084e-15 0)
(2 -6.3501e-15 0)
(2 -6.72459e-15 0)
(2 -6.69476e-15 0)
(2 -8.30653e-15 0)
(2 -8.43645e-15 0)
(2 -9.74916e-15 0)
(2 -1.09057e-14 0)
(2 -1.27586e-14 0)
(2 -1.35131e-14 0)
(2 -1.56163e-14 0)
(2 -2.15096e-14 0)
(2 -2.64385e-14 0)
(2 -3.82101e-14 0)
(2 -5.06617e-14 0)
(2 -6.94663e-14 0)
(2 -1.01513e-13 0)
(2 -1.32482e-13 0)
(2 -1.71661e-13 0)
(2 -2.15103e-13 0)
(2 -2.7509e-13 0)
(2 -3.09035e-13 0)
(2 -3.1946e-13 0)
(2 -3.35057e-13 0)
(2 -3.63066e-13 0)
(2 -3.83736e-13 0)
(2 -3.84114e-13 0)
(2 -3.80798e-13 0)
(2 -3.56606e-13 0)
(2 -6.88035e-14 0)
(2 2.40117e-12 0)
(2 2.13099e-11 0)
(2 1.33914e-10 0)
(2 7.71378e-10 0)
(2 3.62938e-09 0)
(2 1.5378e-08 0)
(2 5.75701e-08 0)
(2 1.90184e-07 0)
(2 5.54921e-07 0)
(2 1.57043e-06 0)
(2 3.61565e-06 0)
(1.99999 8.75986e-06 0)
(1.99999 1.79208e-05 0)
(1.99998 3.53336e-05 0)
(1.99996 6.94581e-05 0)
(1.99992 0.000117298 0)
(1.99986 0.000213437 0)
(1.99976 0.000361634 0)
(1.99962 0.000530112 0)
(1.99929 0.00101697 0)
(1.99897 0.00133037 0)
(1.9982 0.0022074 0)
(1.99714 0.00355238 0)
(1.99611 0.00429806 0)
(1.99355 0.00722556 0)
(1.9913 0.00915625 0)
(1.98875 0.0112887 0)
(1.98482 0.0153894 0)
(1.98225 0.016626 0)
(1.97873 0.0196471 0)
(1.97635 0.0206695 0)
(1.97441 0.0219658 0)
(1.973 0.0224978 0)
(1.97281 0.0222332 0)
(1.97294 0.021328 0)
(1.97361 0.0198726 0)
(1.97457 0.0182492 0)
(1.97614 0.0155804 0)
(1.97786 0.0128398 0)
(1.97948 0.010833 0)
(2 -9.12538e-15 0)
(2 -9.70252e-15 0)
(2 -9.73005e-15 0)
(2 -9.24149e-15 0)
(2 -8.49449e-15 0)
(2 -8.945e-15 0)
(2 -9.60237e-15 0)
(2 -9.40829e-15 0)
(2 -9.53313e-15 0)
(2 -8.94681e-15 0)
(2 -7.41095e-15 0)
(2 -6.92798e-15 0)
(2 -6.99997e-15 0)
(2 -6.91351e-15 0)
(2 -6.64169e-15 0)
(2 -6.32831e-15 0)
(2 -5.99232e-15 0)
(2 -7.46222e-15 0)
(2 -7.3536e-15 0)
(2 -7.12523e-15 0)
(2 -8.96909e-15 0)
(2 -9.80238e-15 0)
(2 -1.09487e-14 0)
(2 -1.22368e-14 0)
(2 -1.21093e-14 0)
(2 -1.11654e-14 0)
(2 -8.65314e-15 0)
(2 -8.37869e-15 0)
(2 -8.63176e-15 0)
(2 -1.06966e-14 0)
(2 -1.4733e-14 0)
(2 -1.90827e-14 0)
(2 -2.60197e-14 0)
(2 -3.70846e-14 0)
(2 -4.93672e-14 0)
(2 -7.45402e-14 0)
(2 -1.07123e-13 0)
(2 -1.40156e-13 0)
(2 -1.83405e-13 0)
(2 -2.26276e-13 0)
(2 -2.6793e-13 0)
(2 -3.18428e-13 0)
(2 -3.61053e-13 0)
(2 -3.57271e-13 0)
(2 -3.59745e-13 0)
(2 -3.70983e-13 0)
(2 -3.77154e-13 0)
(2 -3.76675e-13 0)
(2 -3.72728e-13 0)
(2 -3.19777e-13 0)
(2 1.88115e-13 0)
(2 4.33419e-12 0)
(2 3.41971e-11 0)
(2 2.13208e-10 0)
(2 1.17204e-09 0)
(2 5.44579e-09 0)
(2 2.33471e-08 0)
(2 8.31516e-08 0)
(2 2.86074e-07 0)
(2 8.24675e-07 0)
(2 2.27836e-06 0)
(2 5.60714e-06 0)
(1.99999 1.31242e-05 0)
(1.99998 2.73742e-05 0)
(1.99996 5.84952e-05 0)
(1.99993 0.000106721 0)
(1.99986 0.000206008 0)
(1.99975 0.000369631 0)
(1.99957 0.000607714 0)
(1.99918 0.00109981 0)
(1.99868 0.00171979 0)
(1.99785 0.00262916 0)
(1.99624 0.00458157 0)
(1.99492 0.00572738 0)
(1.99196 0.00890361 0)
(1.98891 0.0119252 0)
(1.98598 0.0142389 0)
(1.98233 0.0178633 0)
(1.9792 0.0204045 0)
(1.976 0.0225663 0)
(1.97433 0.02315 0)
(1.97261 0.0247819 0)
(1.97192 0.0248946 0)
(1.97185 0.0244061 0)
(1.97218 0.023445 0)
(1.97298 0.0220036 0)
(1.97446 0.0194615 0)
(1.976 0.0170919 0)
(2 -1.27908e-14 0)
(2 -1.23504e-14 0)
(2 -1.25564e-14 0)
(2 -1.24524e-14 0)
(2 -1.21714e-14 0)
(2 -1.02218e-14 0)
(2 -8.73635e-15 0)
(2 -8.37287e-15 0)
(2 -8.76166e-15 0)
(2 -9.90189e-15 0)
(2 -1.00499e-14 0)
(2 -1.15802e-14 0)
(2 -1.1502e-14 0)
(2 -1.23875e-14 0)
(2 -1.10296e-14 0)
(2 -9.77025e-15 0)
(2 -1.00671e-14 0)
(2 -9.97738e-15 0)
(2 -9.55069e-15 0)
(2 -9.02023e-15 0)
(2 -9.42929e-15 0)
(2 -9.94674e-15 0)
(2 -9.8318e-15 0)
(2 -1.00965e-14 0)
(2 -9.46704e-15 0)
(2 -8.47475e-15 0)
(2 -6.50307e-15 0)
(2 -6.27939e-15 0)
(2 -6.166e-15 0)
(2 -7.67439e-15 0)
(2 -1.00832e-14 0)
(2 -1.29597e-14 0)
(2 -1.66088e-14 0)
(2 -2.12366e-14 0)
(2 -2.3468e-14 0)
(2 -3.27592e-14 0)
(2 -4.68584e-14 0)
(2 -6.46908e-14 0)
(2 -9.22137e-14 0)
(2 -1.31702e-13 0)
(2 -1.77355e-13 0)
(2 -2.13485e-13 0)
(2 -2.56945e-13 0)
(2 -2.92682e-13 0)
(2 -3.38009e-13 0)
(2 -3.76922e-13 0)
(2 -3.83095e-13 0)
(2 -3.70131e-13 0)
(2 -3.61286e-13 0)
(2 -3.58149e-13 0)
(2 -3.58518e-13 0)
(2 -3.50992e-13 0)
(2 -2.7703e-13 0)
(2 4.2787e-13 0)
(2 6.07333e-12 0)
(2 4.6772e-11 0)
(2 2.84297e-10 0)
(2 1.59036e-09 0)
(2 7.34759e-09 0)
(2 3.15718e-08 0)
(2 1.16251e-07 0)
(2 3.98567e-07 0)
(2 1.17631e-06 0)
(2 3.40822e-06 0)
(1.99999 8.40972e-06 0)
(1.99999 2.05056e-05 0)
(1.99997 4.54668e-05 0)
(1.99994 9.71587e-05 0)
(1.99987 0.00018892 0)
(1.99973 0.000383857 0)
(1.9995 0.000692495 0)
(1.99908 0.00117297 0)
(1.99826 0.00220248 0)
(1.99723 0.00343323 0)
(1.99563 0.00493166 0)
(1.99277 0.0086435 0)
(1.99035 0.0104787 0)
(1.98701 0.0136535 0)
(1.98259 0.01932 0)
(1.97993 0.0203096 0)
(1.977 0.0226233 0)
(1.97418 0.025635 0)
(1.97268 0.0260767 0)
(1.97116 0.0271482 0)
(1.97104 0.0270389 0)
(1.97114 0.0263452 0)
(1.97161 0.0253884 0)
(1.97276 0.0234219 0)
(2 -1.50321e-14 0)
(2 -1.46051e-14 0)
(2 -1.43459e-14 0)
(2 -1.33914e-14 0)
(2 -1.22072e-14 0)
(2 -1.13605e-14 0)
(2 -1.14038e-14 0)
(2 -1.17949e-14 0)
(2 -1.37048e-14 0)
(2 -1.56265e-14 0)
(2 -1.59151e-14 0)
(2 -1.509e-14 0)
(2 -1.50892e-14 0)
(2 -1.52159e-14 0)
(2 -1.41312e-14 0)
(2 -1.35158e-14 0)
(2 -1.31912e-14 0)
(2 -1.15301e-14 0)
(2 -1.07905e-14 0)
(2 -1.0213e-14 0)
(2 -8.92533e-15 0)
(2 -8.83916e-15 0)
(2 -7.90913e-15 0)
(2 -7.49032e-15 0)
(2 -7.74446e-15 0)
(2 -7.8788e-15 0)
(2 -1.09569e-14 0)
(2 -1.21635e-14 0)
(2 -1.19605e-14 0)
(2 -1.19488e-14 0)
(2 -1.25456e-14 0)
(2 -1.38989e-14 0)
(2 -1.56967e-14 0)
(2 -1.76468e-14 0)
(2 -1.76165e-14 0)
(2 -1.86075e-14 0)
(2 -2.06918e-14 0)
(2 -2.59823e-14 0)
(2 -3.6857e-14 0)
(2 -5.45298e-14 0)
(2 -7.71299e-14 0)
(2 -1.08251e-13 0)
(2 -1.54335e-13 0)
(2 -2.00493e-13 0)
(2 -2.40705e-13 0)
(2 -2.70196e-13 0)
(2 -2.97044e-13 0)
(2 -3.23323e-13 0)
(2 -3.50611e-13 0)
(2 -3.6333e-13 0)
(2 -3.60642e-13 0)
(2 -3.5145e-13 0)
(2 -3.40114e-13 0)
(2 -3.35213e-13 0)
(2 -3.26486e-13 0)
(2 -2.32756e-13 0)
(2 6.05021e-13 0)
(2 7.3661e-12 0)
(2 5.6097e-11 0)
(2 3.53187e-10 0)
(2 1.99538e-09 0)
(2 9.54826e-09 0)
(2 4.2916e-08 0)
(2 1.60809e-07 0)
(2 5.84613e-07 0)
(2 1.82983e-06 0)
(2 5.32284e-06 0)
(1.99999 1.46711e-05 0)
(1.99998 3.61378e-05 0)
(1.99994 8.34204e-05 0)
(1.99986 0.000197477 0)
(1.99972 0.000370509 0)
(1.99938 0.000812634 0)
(1.99888 0.0014468 0)
(1.99795 0.00244961 0)
(1.99625 0.0046355 0)
(1.99457 0.00628052 0)
(1.99122 0.00991062 0)
(1.98749 0.0142363 0)
(1.98522 0.0160412 0)
(1.98038 0.0218314 0)
(1.97743 0.0238926 0)
(1.97469 0.0259679 0)
(1.97282 0.027604 0)
(1.97135 0.0282117 0)
(1.97035 0.0291923 0)
(1.9704 0.0290108 0)
(1.97066 0.028314 0)
(2 -1.54864e-14 0)
(2 -1.4109e-14 0)
(2 -1.28966e-14 0)
(2 -1.11419e-14 0)
(2 -1.03202e-14 0)
(2 -1.07147e-14 0)
(2 -1.28064e-14 0)
(2 -1.48136e-14 0)
(2 -1.52166e-14 0)
(2 -1.55115e-14 0)
(2 -1.56448e-14 0)
(2 -1.50504e-14 0)
(2 -1.47667e-14 0)
(2 -1.38605e-14 0)
(2 -1.34075e-14 0)
(2 -1.28552e-14 0)
(2 -1.16037e-14 0)
(2 -9.66051e-15 0)
(2 -8.98821e-15 0)
(2 -8.42486e-15 0)
(2 -6.93892e-15 0)
(2 -5.69081e-15 0)
(2 -4.67753e-15 0)
(2 -6.07873e-15 0)
(2 -7.63155e-15 0)
(2 -1.13778e-14 0)
(2 -1.35777e-14 0)
(2 -1.58582e-14 0)
(2 -1.65522e-14 0)
(2 -1.65478e-14 0)
(2 -1.62223e-14 0)
(2 -1.62539e-14 0)
(2 -1.68837e-14 0)
(2 -1.81691e-14 0)
(2 -1.82299e-14 0)
(2 -1.73611e-14 0)
(2 -1.76905e-14 0)
(2 -1.91284e-14 0)
(2 -1.98323e-14 0)
(2 -2.23415e-14 0)
(2 -3.05441e-14 0)
(2 -4.21433e-14 0)
(2 -6.30366e-14 0)
(2 -9.48752e-14 0)
(2 -1.37126e-13 0)
(2 -1.69718e-13 0)
(2 -2.23538e-13 0)
(2 -2.65334e-13 0)
(2 -2.84164e-13 0)
(2 -2.9369e-13 0)
(2 -3.12729e-13 0)
(2 -3.30064e-13 0)
(2 -3.41017e-13 0)
(2 -3.36935e-13 0)
(2 -3.26426e-13 0)
(2 -3.15697e-13 0)
(2 -3.00845e-13 0)
(2 -2.87948e-13 0)
(2 -1.92925e-13 0)
(2 7.32939e-13 0)
(2 8.5583e-12 0)
(2 6.79805e-11 0)
(2 4.49914e-10 0)
(2 2.70987e-09 0)
(2 1.38441e-08 0)
(2 6.5298e-08 0)
(2 2.72482e-07 0)
(2 1.01784e-06 0)
(2 3.41877e-06 0)
(1.99999 1.1072e-05 0)
(1.99998 2.97595e-05 0)
(1.99994 7.95606e-05 0)
(1.99985 0.000202583 0)
(1.99968 0.00041147 0)
(1.99926 0.000924149 0)
(1.99853 0.00185479 0)
(1.99755 0.00292541 0)
(1.99522 0.00569594 0)
(1.99277 0.00851628 0)
(1.99012 0.0111428 0)
(1.98514 0.0173148 0)
(1.98178 0.0203416 0)
(1.97935 0.022469 0)
(1.97568 0.0266178 0)
(1.97302 0.0294435 0)
(1.97149 0.029353 0)
(1.97033 0.0304215 0)
(1.96989 0.0311225 0)
(2 -1.35724e-14 0)
(2 -1.20361e-14 0)
(2 -1.03913e-14 0)
(2 -9.54994e-15 0)
(2 -9.80724e-15 0)
(2 -8.00464e-15 0)
(2 -8.90715e-15 0)
(2 -1.03964e-14 0)
(2 -1.13941e-14 0)
(2 -1.11181e-14 0)
(2 -1.13046e-14 0)
(2 -1.22405e-14 0)
(2 -1.2815e-14 0)
(2 -1.16359e-14 0)
(2 -1.12437e-14 0)
(2 -1.05902e-14 0)
(2 -1.1251e-14 0)
(2 -1.08581e-14 0)
(2 -9.73103e-15 0)
(2 -8.45334e-15 0)
(2 -7.54644e-15 0)
(2 -8.4084e-15 0)
(2 -8.07978e-15 0)
(2 -7.6996e-15 0)
(2 -7.54944e-15 0)
(2 -1.05238e-14 0)
(2 -1.19026e-14 0)
(2 -1.28657e-14 0)
(2 -1.43592e-14 0)
(2 -1.69102e-14 0)
(2 -1.71016e-14 0)
(2 -1.69278e-14 0)
(2 -1.63399e-14 0)
(2 -1.62627e-14 0)
(2 -1.65742e-14 0)
(2 -1.65698e-14 0)
(2 -1.59724e-14 0)
(2 -1.54918e-14 0)
(2 -1.56122e-14 0)
(2 -1.61941e-14 0)
(2 -1.9181e-14 0)
(2 -2.02095e-14 0)
(2 -2.62133e-14 0)
(2 -3.54551e-14 0)
(2 -4.83583e-14 0)
(2 -7.28417e-14 0)
(2 -1.11534e-13 0)
(2 -1.41121e-13 0)
(2 -1.86064e-13 0)
(2 -2.22525e-13 0)
(2 -2.61138e-13 0)
(2 -2.85394e-13 0)
(2 -2.85608e-13 0)
(2 -2.82232e-13 0)
(2 -2.87272e-13 0)
(2 -2.89352e-13 0)
(2 -2.93182e-13 0)
(2 -2.89811e-13 0)
(2 -2.78714e-13 0)
(2 -2.65675e-13 0)
(2 -2.41741e-13 0)
(2 -1.2656e-13 0)
(2 1.04093e-12 0)
(2 1.19428e-11 0)
(2 1.02454e-10 0)
(2 7.60731e-10 0)
(2 4.91963e-09 0)
(2 2.82213e-08 0)
(2 1.4305e-07 0)
(2 6.33825e-07 0)
(2 2.55077e-06 0)
(1.99999 8.85306e-06 0)
(1.99998 2.89361e-05 0)
(1.99994 8.15909e-05 0)
(1.99983 0.000210073 0)
(1.99959 0.000527358 0)
(1.99914 0.00105007 0)
(1.99813 0.00223742 0)
(1.99668 0.00408467 0)
(1.99459 0.00626397 0)
(1.99084 0.0108158 0)
(1.98763 0.0143889 0)
(1.98428 0.017917 0)
(1.97932 0.0244431 0)
(1.97646 0.026678 0)
(1.97498 0.0276147 0)
(1.97213 0.0307199 0)
(1.97094 0.0315761 0)
(2 -1.17706e-14 0)
(2 -1.14933e-14 0)
(2 -1.16591e-14 0)
(2 -1.21261e-14 0)
(2 -1.10779e-14 0)
(2 -1.04458e-14 0)
(2 -1.10523e-14 0)
(2 -1.09016e-14 0)
(2 -1.00374e-14 0)
(2 -9.65908e-15 0)
(2 -1.05067e-14 0)
(2 -1.14672e-14 0)
(2 -1.20995e-14 0)
(2 -1.15101e-14 0)
(2 -1.1423e-14 0)
(2 -1.18804e-14 0)
(2 -1.22218e-14 0)
(2 -1.16412e-14 0)
(2 -1.0894e-14 0)
(2 -1.00567e-14 0)
(2 -9.59379e-15 0)
(2 -9.4315e-15 0)
(2 -9.50228e-15 0)
(2 -9.88903e-15 0)
(2 -1.03647e-14 0)
(2 -1.11777e-14 0)
(2 -1.21148e-14 0)
(2 -1.17411e-14 0)
(2 -1.163e-14 0)
(2 -1.21388e-14 0)
(2 -1.29373e-14 0)
(2 -1.34293e-14 0)
(2 -1.31437e-14 0)
(2 -1.28567e-14 0)
(2 -1.28306e-14 0)
(2 -1.30294e-14 0)
(2 -1.28443e-14 0)
(2 -1.22301e-14 0)
(2 -1.23735e-14 0)
(2 -1.30101e-14 0)
(2 -1.31336e-14 0)
(2 -1.53346e-14 0)
(2 -1.77549e-14 0)
(2 -1.95568e-14 0)
(2 -2.34286e-14 0)
(2 -2.95515e-14 0)
(2 -4.44265e-14 0)
(2 -5.95451e-14 0)
(2 -8.38754e-14 0)
(2 -1.15386e-13 0)
(2 -1.50015e-13 0)
(2 -1.84596e-13 0)
(2 -2.11e-13 0)
(2 -2.37697e-13 0)
(2 -2.54376e-13 0)
(2 -2.67367e-13 0)
(2 -2.62133e-13 0)
(2 -2.55178e-13 0)
(2 -2.53066e-13 0)
(2 -2.48647e-13 0)
(2 -2.40172e-13 0)
(2 -2.31514e-13 0)
(2 -2.20903e-13 0)
(2 -1.95565e-13 0)
(2 1.63248e-15 0)
(2 2.4234e-12 0)
(2 2.84194e-11 0)
(2 2.73581e-10 0)
(2 2.25282e-09 0)
(2 1.5628e-08 0)
(2 9.4734e-08 0)
(2 4.90405e-07 0)
(2 2.23138e-06 0)
(1.99999 8.55494e-06 0)
(1.99998 3.02675e-05 0)
(1.99992 9.40272e-05 0)
(1.9998 0.000241438 0)
(1.99947 0.000640068 0)
(1.99889 0.00138037 0)
(1.9978 0.00257474 0)
(1.99562 0.00534407 0)
(1.99341 0.00785266 0)
(1.98972 0.011956 0)
(1.98499 0.0181516 0)
(1.98246 0.0202851 0)
(1.9787 0.0250755 0)
(1.97486 0.0306647 0)
(1.97291 0.0310221 0)
(2 -1.11986e-14 0)
(2 -1.25509e-14 0)
(2 -1.29773e-14 0)
(2 -1.40574e-14 0)
(2 -1.36817e-14 0)
(2 -1.48592e-14 0)
(2 -1.434e-14 0)
(2 -1.30518e-14 0)
(2 -1.14047e-14 0)
(2 -1.04826e-14 0)
(2 -1.02124e-14 0)
(2 -1.03959e-14 0)
(2 -1.07857e-14 0)
(2 -1.11839e-14 0)
(2 -1.13581e-14 0)
(2 -1.1683e-14 0)
(2 -1.05198e-14 0)
(2 -1.03588e-14 0)
(2 -1.04769e-14 0)
(2 -1.11167e-14 0)
(2 -1.12306e-14 0)
(2 -1.02184e-14 0)
(2 -1.02988e-14 0)
(2 -1.10383e-14 0)
(2 -1.16197e-14 0)
(2 -1.01391e-14 0)
(2 -9.61747e-15 0)
(2 -1.01079e-14 0)
(2 -1.06874e-14 0)
(2 -9.65748e-15 0)
(2 -1.00421e-14 0)
(2 -8.96737e-15 0)
(2 -9.73939e-15 0)
(2 -1.03072e-14 0)
(2 -1.06483e-14 0)
(2 -1.15371e-14 0)
(2 -1.22424e-14 0)
(2 -1.24721e-14 0)
(2 -1.25783e-14 0)
(2 -1.287e-14 0)
(2 -1.31725e-14 0)
(2 -1.38621e-14 0)
(2 -1.45975e-14 0)
(2 -1.499e-14 0)
(2 -1.77428e-14 0)
(2 -1.84203e-14 0)
(2 -2.16315e-14 0)
(2 -2.48708e-14 0)
(2 -3.42677e-14 0)
(2 -4.66019e-14 0)
(2 -6.15306e-14 0)
(2 -9.02517e-14 0)
(2 -1.14569e-13 0)
(2 -1.39184e-13 0)
(2 -1.56225e-13 0)
(2 -1.8363e-13 0)
(2 -2.01674e-13 0)
(2 -2.05103e-13 0)
(2 -2.21948e-13 0)
(2 -2.22617e-13 0)
(2 -2.14334e-13 0)
(2 -2.04167e-13 0)
(2 -1.97844e-13 0)
(2 -1.90099e-13 0)
(2 -1.79024e-13 0)
(2 -1.70208e-13 0)
(2 -1.09005e-13 0)
(2 7.64726e-13 0)
(2 1.28139e-11 0)
(2 1.52604e-10 0)
(2 1.49987e-09 0)
(2 1.22036e-08 0)
(2 8.19338e-08 0)
(2 4.70987e-07 0)
(2 2.30843e-06 0)
(1.99999 9.66741e-06 0)
(1.99997 3.4242e-05 0)
(1.9999 0.000114099 0)
(1.99975 0.000310473 0)
(1.99936 0.000748567 0)
(1.99851 0.0018253 0)
(1.9973 0.0032704 0)
(1.99488 0.00603358 0)
(1.99151 0.0104093 0)
(1.98872 0.0135159 0)
(1.98366 0.0197165 0)
(1.9795 0.0251143 0)
(1.97792 0.0262285 0)
(2 -1.30486e-14 0)
(2 -1.43017e-14 0)
(2 -1.52455e-14 0)
(2 -1.61963e-14 0)
(2 -1.68609e-14 0)
(2 -1.71118e-14 0)
(2 -1.60813e-14 0)
(2 -1.43382e-14 0)
(2 -1.19227e-14 0)
(2 -1.04121e-14 0)
(2 -9.40648e-15 0)
(2 -8.29837e-15 0)
(2 -7.16605e-15 0)
(2 -7.55714e-15 0)
(2 -7.57391e-15 0)
(2 -7.23694e-15 0)
(2 -7.00465e-15 0)
(2 -7.75852e-15 0)
(2 -9.71775e-15 0)
(2 -1.11799e-14 0)
(2 -1.21462e-14 0)
(2 -1.1724e-14 0)
(2 -1.18512e-14 0)
(2 -1.17263e-14 0)
(2 -1.07342e-14 0)
(2 -9.24058e-15 0)
(2 -7.99285e-15 0)
(2 -9.46443e-15 0)
(2 -1.06983e-14 0)
(2 -9.96484e-15 0)
(2 -1.00979e-14 0)
(2 -1.11179e-14 0)
(2 -1.1105e-14 0)
(2 -1.10787e-14 0)
(2 -1.03067e-14 0)
(2 -8.49316e-15 0)
(2 -7.64312e-15 0)
(2 -7.43935e-15 0)
(2 -8.48958e-15 0)
(2 -8.77008e-15 0)
(2 -9.68365e-15 0)
(2 -9.77294e-15 0)
(2 -1.0598e-14 0)
(2 -1.11112e-14 0)
(2 -1.21517e-14 0)
(2 -1.3218e-14 0)
(2 -1.58164e-14 0)
(2 -1.93853e-14 0)
(2 -2.28594e-14 0)
(2 -2.36965e-14 0)
(2 -2.83016e-14 0)
(2 -3.2793e-14 0)
(2 -4.36525e-14 0)
(2 -5.71054e-14 0)
(2 -8.01057e-14 0)
(2 -1.0212e-13 0)
(2 -1.22474e-13 0)
(2 -1.31033e-13 0)
(2 -1.54706e-13 0)
(2 -1.72486e-13 0)
(2 -1.8315e-13 0)
(2 -1.91087e-13 0)
(2 -1.94971e-13 0)
(2 -1.92542e-13 0)
(2 -1.85675e-13 0)
(2 -1.73657e-13 0)
(2 -1.56198e-13 0)
(2 -1.43493e-13 0)
(2 -1.05242e-13 0)
(2 4.89271e-13 0)
(2 1.01335e-11 0)
(2 1.32879e-10 0)
(2 1.4129e-09 0)
(2 1.24948e-08 0)
(2 8.83873e-08 0)
(2 5.32577e-07 0)
(2 2.69294e-06 0)
(1.99999 1.17864e-05 0)
(1.99996 4.32502e-05 0)
(1.99988 0.000137892 0)
(1.99966 0.000408565 0)
(1.99921 0.000954708 0)
(1.99819 0.0021522 0)
(1.99648 0.00436823 0)
(1.99423 0.00698979 0)
(1.99019 0.0119201 0)
(1.98644 0.0166013 0)
(1.98329 0.0205841 0)
(2 -1.40282e-14 0)
(2 -1.42635e-14 0)
(2 -1.56637e-14 0)
(2 -1.61255e-14 0)
(2 -1.63515e-14 0)
(2 -1.60295e-14 0)
(2 -1.43721e-14 0)
(2 -1.20497e-14 0)
(2 -1.14978e-14 0)
(2 -9.2411e-15 0)
(2 -8.56821e-15 0)
(2 -6.99411e-15 0)
(2 -5.76462e-15 0)
(2 -4.1583e-15 0)
(2 -3.39776e-15 0)
(2 -3.87413e-15 0)
(2 -5.70561e-15 0)
(2 -6.60832e-15 0)
(2 -8.26094e-15 0)
(2 -1.04102e-14 0)
(2 -1.18123e-14 0)
(2 -1.25043e-14 0)
(2 -1.2593e-14 0)
(2 -1.05677e-14 0)
(2 -8.51147e-15 0)
(2 -9.56847e-15 0)
(2 -9.98527e-15 0)
(2 -8.77855e-15 0)
(2 -7.93183e-15 0)
(2 -6.83148e-15 0)
(2 -6.54869e-15 0)
(2 -6.81803e-15 0)
(2 -6.34679e-15 0)
(2 -6.90264e-15 0)
(2 -6.05919e-15 0)
(2 -3.64112e-15 0)
(2 -3.51497e-15 0)
(2 -4.00777e-15 0)
(2 -5.25911e-15 0)
(2 -5.8537e-15 0)
(2 -6.99543e-15 0)
(2 -8.30669e-15 0)
(2 -8.86343e-15 0)
(2 -9.46563e-15 0)
(2 -1.03238e-14 0)
(2 -1.3188e-14 0)
(2 -1.42785e-14 0)
(2 -1.43347e-14 0)
(2 -1.58012e-14 0)
(2 -1.51462e-14 0)
(2 -1.52083e-14 0)
(2 -1.39861e-14 0)
(2 -1.72838e-14 0)
(2 -2.15476e-14 0)
(2 -2.82662e-14 0)
(2 -3.74834e-14 0)
(2 -4.9295e-14 0)
(2 -6.5532e-14 0)
(2 -8.0899e-14 0)
(2 -9.66977e-14 0)
(2 -1.08521e-13 0)
(2 -1.21542e-13 0)
(2 -1.29854e-13 0)
(2 -1.36589e-13 0)
(2 -1.3915e-13 0)
(2 -1.35861e-13 0)
(2 -1.33951e-13 0)
(2 -1.27787e-13 0)
(2 -1.17125e-13 0)
(2 -1.05693e-13 0)
(2 -6.25002e-14 0)
(2 5.93339e-13 0)
(2 1.14695e-11 0)
(2 1.54939e-10 0)
(2 1.66299e-09 0)
(2 1.47659e-08 0)
(2 1.09569e-07 0)
(2 6.61226e-07 0)
(2 3.38692e-06 0)
(1.99999 1.49204e-05 0)
(1.99995 5.63143e-05 0)
(1.99985 0.000176068 0)
(1.99957 0.00050826 0)
(1.99898 0.00125767 0)
(1.99788 0.00255697 0)
(1.99569 0.00529958 0)
(1.99312 0.00856516 0)
(1.98955 0.012877 0)
(2 -1.63585e-14 0)
(2 -1.59601e-14 0)
(2 -1.50428e-14 0)
(2 -1.28666e-14 0)
(2 -1.27507e-14 0)
(2 -1.17633e-14 0)
(2 -1.17509e-14 0)
(2 -1.10405e-14 0)
(2 -1.14714e-14 0)
(2 -9.31909e-15 0)
(2 -7.34581e-15 0)
(2 -4.81205e-15 0)
(2 -2.72264e-15 0)
(2 -6.34014e-16 0)
(2 -4.85357e-16 0)
(2 -2.58801e-15 0)
(2 -5.33019e-15 0)
(2 -5.96921e-15 0)
(2 -6.31593e-15 0)
(2 -7.39349e-15 0)
(2 -9.18557e-15 0)
(2 -1.04757e-14 0)
(2 -1.08875e-14 0)
(2 -1.07861e-14 0)
(2 -1.05093e-14 0)
(2 -1.1904e-14 0)
(2 -1.29186e-14 0)
(2 -1.01673e-14 0)
(2 -7.72908e-15 0)
(2 -5.1634e-15 0)
(2 -4.14137e-15 0)
(2 -2.59615e-15 0)
(2 -3.10948e-15 0)
(2 -3.91124e-15 0)
(2 -4.28771e-15 0)
(2 -4.3243e-15 0)
(2 -4.88835e-15 0)
(2 -5.74881e-15 0)
(2 -6.35636e-15 0)
(2 -7.08974e-15 0)
(2 -7.74938e-15 0)
(2 -7.97076e-15 0)
(2 -8.43261e-15 0)
(2 -9.23385e-15 0)
(2 -1.03898e-14 0)
(2 -1.06654e-14 0)
(2 -9.0965e-15 0)
(2 -9.27854e-15 0)
(2 -9.09871e-15 0)
(2 -1.08009e-14 0)
(2 -1.22079e-14 0)
(2 -1.20315e-14 0)
(2 -1.23715e-14 0)
(2 -1.33022e-14 0)
(2 -1.50925e-14 0)
(2 -1.81709e-14 0)
(2 -2.26609e-14 0)
(2 -2.43235e-14 0)
(2 -3.12095e-14 0)
(2 -3.96256e-14 0)
(2 -4.83927e-14 0)
(2 -5.64619e-14 0)
(2 -7.07484e-14 0)
(2 -8.37345e-14 0)
(2 -9.17173e-14 0)
(2 -9.32244e-14 0)
(2 -1.01401e-13 0)
(2 -1.00959e-13 0)
(2 -9.83617e-14 0)
(2 -9.06097e-14 0)
(2 -7.94535e-14 0)
(2 -6.7922e-14 0)
(2 -1.46025e-14 0)
(2 8.72787e-13 0)
(2 1.50002e-11 0)
(2 2.03085e-10 0)
(2 2.16403e-09 0)
(2 1.90694e-08 0)
(2 1.4031e-07 0)
(2 8.65685e-07 0)
(2 4.42666e-06 0)
(1.99998 1.90613e-05 0)
(1.99994 7.28655e-05 0)
(1.99981 0.000229813 0)
(1.99948 0.000622219 0)
(1.99872 0.00157027 0)
(1.99745 0.00319905 0)
(1.99521 0.00587698 0)
(2 -1.50712e-14 0)
(2 -1.49098e-14 0)
(2 -1.41799e-14 0)
(2 -1.34312e-14 0)
(2 -1.26601e-14 0)
(2 -1.25123e-14 0)
(2 -1.11684e-14 0)
(2 -1.10585e-14 0)
(2 -1.18881e-14 0)
(2 -1.02203e-14 0)
(2 -9.03427e-15 0)
(2 -7.83583e-15 0)
(2 -6.67703e-15 0)
(2 -5.82745e-15 0)
(2 -5.73593e-15 0)
(2 -6.80355e-15 0)
(2 -7.45428e-15 0)
(2 -9.05972e-15 0)
(2 -9.96423e-15 0)
(2 -8.88801e-15 0)
(2 -8.85747e-15 0)
(2 -9.24522e-15 0)
(2 -9.52598e-15 0)
(2 -1.06474e-14 0)
(2 -1.0858e-14 0)
(2 -1.06287e-14 0)
(2 -9.52689e-15 0)
(2 -8.97142e-15 0)
(2 -9.22073e-15 0)
(2 -8.18775e-15 0)
(2 -6.78244e-15 0)
(2 -5.41643e-15 0)
(2 -5.58623e-15 0)
(2 -4.7965e-15 0)
(2 -5.15948e-15 0)
(2 -5.56513e-15 0)
(2 -6.19455e-15 0)
(2 -6.11984e-15 0)
(2 -6.28733e-15 0)
(2 -7.2357e-15 0)
(2 -7.87678e-15 0)
(2 -8.83954e-15 0)
(2 -9.09952e-15 0)
(2 -8.84906e-15 0)
(2 -7.96016e-15 0)
(2 -5.51989e-15 0)
(2 -4.7995e-15 0)
(2 -5.00243e-15 0)
(2 -4.63599e-15 0)
(2 -6.05694e-15 0)
(2 -8.69789e-15 0)
(2 -1.09537e-14 0)
(2 -1.26186e-14 0)
(2 -1.44197e-14 0)
(2 -1.61509e-14 0)
(2 -1.56331e-14 0)
(2 -1.4021e-14 0)
(2 -1.51835e-14 0)
(2 -1.66266e-14 0)
(2 -1.94827e-14 0)
(2 -2.30906e-14 0)
(2 -2.65202e-14 0)
(2 -3.36851e-14 0)
(2 -3.77101e-14 0)
(2 -4.14922e-14 0)
(2 -4.84161e-14 0)
(2 -5.5973e-14 0)
(2 -6.14609e-14 0)
(2 -6.48074e-14 0)
(2 -6.27838e-14 0)
(2 -6.09308e-14 0)
(2 -5.65942e-14 0)
(2 -5.124e-14 0)
(2 -4.25834e-14 0)
(2 2.87032e-14 0)
(2 1.28567e-12 0)
(2 2.0604e-11 0)
(2 2.67537e-10 0)
(2 2.9076e-09 0)
(2 2.52198e-08 0)
(2 1.82987e-07 0)
(2 1.13142e-06 0)
(1.99999 5.76258e-06 0)
(1.99998 2.48333e-05 0)
(1.99992 9.17747e-05 0)
(1.99976 0.000289415 0)
(1.99936 0.000784708 0)
(1.9985 0.00184566 0)
(2 -1.71763e-14 0)
(2 -1.62373e-14 0)
(2 -1.54974e-14 0)
(2 -1.51126e-14 0)
(2 -1.40061e-14 0)
(2 -1.26936e-14 0)
(2 -1.15626e-14 0)
(2 -1.03725e-14 0)
(2 -8.94533e-15 0)
(2 -8.82504e-15 0)
(2 -9.93366e-15 0)
(2 -8.485e-15 0)
(2 -8.75396e-15 0)
(2 -1.03896e-14 0)
(2 -1.15002e-14 0)
(2 -1.1012e-14 0)
(2 -1.22503e-14 0)
(2 -1.32088e-14 0)
(2 -1.45575e-14 0)
(2 -1.33866e-14 0)
(2 -1.18672e-14 0)
(2 -1.07061e-14 0)
(2 -1.06016e-14 0)
(2 -1.01743e-14 0)
(2 -9.70937e-15 0)
(2 -9.30227e-15 0)
(2 -8.68428e-15 0)
(2 -8.08967e-15 0)
(2 -7.49337e-15 0)
(2 -7.42051e-15 0)
(2 -7.45967e-15 0)
(2 -7.26508e-15 0)
(2 -6.54902e-15 0)
(2 -5.70985e-15 0)
(2 -6.25893e-15 0)
(2 -6.28595e-15 0)
(2 -6.54957e-15 0)
(2 -6.814e-15 0)
(2 -7.78776e-15 0)
(2 -7.51556e-15 0)
(2 -7.14464e-15 0)
(2 -7.73941e-15 0)
(2 -7.77895e-15 0)
(2 -7.70971e-15 0)
(2 -5.09152e-15 0)
(2 -4.53336e-15 0)
(2 -4.99981e-15 0)
(2 -5.72716e-15 0)
(2 -6.40264e-15 0)
(2 -7.18956e-15 0)
(2 -8.40158e-15 0)
(2 -1.04994e-14 0)
(2 -1.16874e-14 0)
(2 -1.33602e-14 0)
(2 -1.47416e-14 0)
(2 -1.44883e-14 0)
(2 -1.40353e-14 0)
(2 -1.32729e-14 0)
(2 -1.29272e-14 0)
(2 -1.20096e-14 0)
(2 -1.16539e-14 0)
(2 -1.21529e-14 0)
(2 -1.35403e-14 0)
(2 -1.6647e-14 0)
(2 -1.69101e-14 0)
(2 -2.14048e-14 0)
(2 -2.49335e-14 0)
(2 -2.79732e-14 0)
(2 -3.25485e-14 0)
(2 -3.76969e-14 0)
(2 -4.45329e-14 0)
(2 -4.50519e-14 0)
(2 -4.49399e-14 0)
(2 -4.16197e-14 0)
(2 -2.9392e-14 0)
(2 -2.34602e-14 0)
(2 6.52441e-14 0)
(2 1.75769e-12 0)
(2 2.80162e-11 0)
(2 3.54123e-10 0)
(2 3.74283e-09 0)
(2 3.33612e-08 0)
(2 2.38581e-07 0)
(2 1.43475e-06 0)
(1.99999 7.45146e-06 0)
(1.99997 3.15146e-05 0)
(1.99991 0.000112824 0)
(1.99971 0.000360407 0)
(2 -1.74193e-14 0)
(2 -1.65113e-14 0)
(2 -1.57905e-14 0)
(2 -1.51048e-14 0)
(2 -1.42521e-14 0)
(2 -1.18842e-14 0)
(2 -1.0172e-14 0)
(2 -1.04733e-14 0)
(2 -1.00682e-14 0)
(2 -1.01335e-14 0)
(2 -1.10275e-14 0)
(2 -1.30363e-14 0)
(2 -1.44618e-14 0)
(2 -1.75063e-14 0)
(2 -1.74418e-14 0)
(2 -1.63538e-14 0)
(2 -1.50595e-14 0)
(2 -1.23561e-14 0)
(2 -1.23957e-14 0)
(2 -1.27992e-14 0)
(2 -1.23152e-14 0)
(2 -1.07658e-14 0)
(2 -1.10262e-14 0)
(2 -9.30409e-15 0)
(2 -8.82876e-15 0)
(2 -8.78023e-15 0)
(2 -9.23724e-15 0)
(2 -9.19844e-15 0)
(2 -9.35658e-15 0)
(2 -9.81768e-15 0)
(2 -9.95735e-15 0)
(2 -1.01552e-14 0)
(2 -9.45509e-15 0)
(2 -8.67235e-15 0)
(2 -8.51495e-15 0)
(2 -8.20331e-15 0)
(2 -8.02743e-15 0)
(2 -8.1953e-15 0)
(2 -8.25411e-15 0)
(2 -7.46783e-15 0)
(2 -5.83515e-15 0)
(2 -5.65269e-15 0)
(2 -5.99728e-15 0)
(2 -6.3393e-15 0)
(2 -7.62071e-15 0)
(2 -8.87184e-15 0)
(2 -9.85523e-15 0)
(2 -1.11762e-14 0)
(2 -1.23669e-14 0)
(2 -1.33219e-14 0)
(2 -1.36943e-14 0)
(2 -1.35548e-14 0)
(2 -1.34762e-14 0)
(2 -1.32115e-14 0)
(2 -1.23343e-14 0)
(2 -1.26509e-14 0)
(2 -1.38021e-14 0)
(2 -1.43012e-14 0)
(2 -1.47525e-14 0)
(2 -1.455e-14 0)
(2 -1.37969e-14 0)
(2 -1.25389e-14 0)
(2 -1.27382e-14 0)
(2 -1.28827e-14 0)
(2 -1.21819e-14 0)
(2 -1.12901e-14 0)
(2 -9.97241e-15 0)
(2 -8.94025e-15 0)
(2 -1.0423e-14 0)
(2 -1.37215e-14 0)
(2 -1.54261e-14 0)
(2 -1.64958e-14 0)
(2 -1.79041e-14 0)
(2 -1.81225e-14 0)
(2 -1.97821e-14 0)
(2 -2.04328e-14 0)
(2 -1.90386e-14 0)
(2 -9.96806e-15 0)
(2 1.09553e-13 0)
(2 2.26397e-12 0)
(2 3.60047e-11 0)
(2 4.54431e-10 0)
(2 4.74686e-09 0)
(2 4.19655e-08 0)
(2 3.009e-07 0)
(2 1.81309e-06 0)
(1.99999 9.20311e-06 0)
(1.99997 3.80092e-05 0)
(2 -1.57167e-14 0)
(2 -1.45045e-14 0)
(2 -1.38019e-14 0)
(2 -1.31616e-14 0)
(2 -1.35018e-14 0)
(2 -1.38879e-14 0)
(2 -1.49108e-14 0)
(2 -1.6605e-14 0)
(2 -1.79292e-14 0)
(2 -1.76909e-14 0)
(2 -1.68066e-14 0)
(2 -1.74841e-14 0)
(2 -1.83358e-14 0)
(2 -1.91628e-14 0)
(2 -1.95946e-14 0)
(2 -1.87207e-14 0)
(2 -1.62957e-14 0)
(2 -1.37768e-14 0)
(2 -1.21249e-14 0)
(2 -1.03944e-14 0)
(2 -9.81383e-15 0)
(2 -9.50634e-15 0)
(2 -9.93228e-15 0)
(2 -8.86979e-15 0)
(2 -7.19172e-15 0)
(2 -7.70751e-15 0)
(2 -8.3877e-15 0)
(2 -9.05084e-15 0)
(2 -9.68681e-15 0)
(2 -9.93932e-15 0)
(2 -1.06424e-14 0)
(2 -1.03742e-14 0)
(2 -1.08939e-14 0)
(2 -1.07855e-14 0)
(2 -1.00622e-14 0)
(2 -1.06824e-14 0)
(2 -1.09487e-14 0)
(2 -1.09159e-14 0)
(2 -1.02022e-14 0)
(2 -1.08201e-14 0)
(2 -1.09314e-14 0)
(2 -9.17141e-15 0)
(2 -9.41929e-15 0)
(2 -9.25747e-15 0)
(2 -9.77604e-15 0)
(2 -9.91465e-15 0)
(2 -1.10409e-14 0)
(2 -1.29498e-14 0)
(2 -1.2943e-14 0)
(2 -1.23058e-14 0)
(2 -1.2247e-14 0)
(2 -1.09845e-14 0)
(2 -1.01427e-14 0)
(2 -8.94421e-15 0)
(2 -9.25845e-15 0)
(2 -9.69147e-15 0)
(2 -1.11058e-14 0)
(2 -1.22317e-14 0)
(2 -1.20485e-14 0)
(2 -1.17145e-14 0)
(2 -1.10313e-14 0)
(2 -1.03768e-14 0)
(2 -9.39848e-15 0)
(2 -8.16484e-15 0)
(2 -8.55751e-15 0)
(2 -7.00696e-15 0)
(2 -6.84975e-15 0)
(2 -6.39984e-15 0)
(2 -6.62945e-15 0)
(2 -6.61923e-15 0)
(2 -6.65045e-15 0)
(2 -7.04183e-15 0)
(2 -7.21455e-15 0)
(2 -9.07963e-15 0)
(2 -1.10763e-14 0)
(2 -1.37579e-14 0)
(2 -1.40763e-14 0)
(2 -1.18062e-14 0)
(2 -8.98458e-15 0)
(2 -2.36805e-15 0)
(2 1.40651e-13 0)
(2 2.75497e-12 0)
(2 4.26024e-11 0)
(2 5.579e-10 0)
(2 5.81851e-09 0)
(2 4.99522e-08 0)
(2 3.67907e-07 0)
(2 2.20948e-06 0)
(2 -1.78635e-14 0)
(2 -1.61886e-14 0)
(2 -1.37229e-14 0)
(2 -1.31307e-14 0)
(2 -1.46123e-14 0)
(2 -1.77143e-14 0)
(2 -2.0314e-14 0)
(2 -2.07219e-14 0)
(2 -2.08845e-14 0)
(2 -2.09865e-14 0)
(2 -2.09808e-14 0)
(2 -1.92918e-14 0)
(2 -1.83049e-14 0)
(2 -1.77173e-14 0)
(2 -1.78723e-14 0)
(2 -1.72515e-14 0)
(2 -1.66416e-14 0)
(2 -1.57092e-14 0)
(2 -1.40232e-14 0)
(2 -1.19356e-14 0)
(2 -1.14484e-14 0)
(2 -1.11913e-14 0)
(2 -9.95438e-15 0)
(2 -8.28006e-15 0)
(2 -9.97809e-15 0)
(2 -1.01489e-14 0)
(2 -1.02146e-14 0)
(2 -1.0135e-14 0)
(2 -1.13313e-14 0)
(2 -1.19439e-14 0)
(2 -1.2755e-14 0)
(2 -1.25173e-14 0)
(2 -1.1854e-14 0)
(2 -1.17066e-14 0)
(2 -1.19733e-14 0)
(2 -1.1523e-14 0)
(2 -1.20179e-14 0)
(2 -1.22882e-14 0)
(2 -1.2262e-14 0)
(2 -1.31046e-14 0)
(2 -1.40485e-14 0)
(2 -1.37218e-14 0)
(2 -1.2192e-14 0)
(2 -1.22792e-14 0)
(2 -1.23265e-14 0)
(2 -1.17596e-14 0)
(2 -1.21772e-14 0)
(2 -1.22783e-14 0)
(2 -1.11765e-14 0)
(2 -9.68099e-15 0)
(2 -7.33637e-15 0)
(2 -5.24271e-15 0)
(2 -4.41986e-15 0)
(2 -4.45993e-15 0)
(2 -5.60194e-15 0)
(2 -7.12061e-15 0)
(2 -8.69697e-15 0)
(2 -7.60454e-15 0)
(2 -7.63171e-15 0)
(2 -7.35873e-15 0)
(2 -7.40576e-15 0)
(2 -7.70337e-15 0)
(2 -7.18673e-15 0)
(2 -6.77447e-15 0)
(2 -7.56195e-15 0)
(2 -8.5321e-15 0)
(2 -8.14449e-15 0)
(2 -7.56266e-15 0)
(2 -6.87971e-15 0)
(2 -6.64879e-15 0)
(2 -6.67655e-15 0)
(2 -6.89205e-15 0)
(2 -6.74044e-15 0)
(2 -6.30891e-15 0)
(2 -6.00168e-15 0)
(2 -6.36004e-15 0)
(2 -7.15209e-15 0)
(2 -8.1062e-15 0)
(2 -8.05858e-15 0)
(2 -7.38549e-15 0)
(2 -6.06677e-15 0)
(2 -1.12564e-16 0)
(2 1.58756e-13 0)
(2 3.12811e-12 0)
(2 4.84552e-11 0)
(2 6.37558e-10 0)
(2 6.64746e-09 0)
(2 5.82558e-08 0)
(2 -1.73915e-14 0)
(2 -1.7613e-14 0)
(2 -1.64315e-14 0)
(2 -1.81497e-14 0)
(2 -1.75117e-14 0)
(2 -1.73525e-14 0)
(2 -1.77641e-14 0)
(2 -1.7782e-14 0)
(2 -1.76182e-14 0)
(2 -1.70707e-14 0)
(2 -1.66324e-14 0)
(2 -1.62823e-14 0)
(2 -1.49996e-14 0)
(2 -1.3952e-14 0)
(2 -1.32453e-14 0)
(2 -1.36377e-14 0)
(2 -1.3716e-14 0)
(2 -1.29871e-14 0)
(2 -1.15557e-14 0)
(2 -1.176e-14 0)
(2 -1.28169e-14 0)
(2 -1.32332e-14 0)
(2 -1.18396e-14 0)
(2 -1.17031e-14 0)
(2 -1.33093e-14 0)
(2 -1.2778e-14 0)
(2 -1.19871e-14 0)
(2 -1.26577e-14 0)
(2 -1.37435e-14 0)
(2 -1.61323e-14 0)
(2 -1.60998e-14 0)
(2 -1.65662e-14 0)
(2 -1.58022e-14 0)
(2 -1.65486e-14 0)
(2 -1.69346e-14 0)
(2 -1.52238e-14 0)
(2 -1.40537e-14 0)
(2 -1.2618e-14 0)
(2 -1.23832e-14 0)
(2 -1.18863e-14 0)
(2 -1.24073e-14 0)
(2 -1.52479e-14 0)
(2 -1.48641e-14 0)
(2 -1.4487e-14 0)
(2 -1.32797e-14 0)
(2 -1.16265e-14 0)
(2 -7.85736e-15 0)
(2 -4.96269e-15 0)
(2 -4.32886e-15 0)
(2 -4.74871e-15 0)
(2 -3.74968e-15 0)
(2 -4.00667e-15 0)
(2 -3.11926e-15 0)
(2 -3.17479e-15 0)
(2 -2.85968e-15 0)
(2 -2.99775e-15 0)
(2 -3.68355e-15 0)
(2 -4.68827e-15 0)
(2 -5.65771e-15 0)
(2 -7.0282e-15 0)
(2 -7.68096e-15 0)
(2 -8.03362e-15 0)
(2 -7.52847e-15 0)
(2 -7.14271e-15 0)
(2 -7.50982e-15 0)
(2 -8.14434e-15 0)
(2 -7.37296e-15 0)
(2 -6.12319e-15 0)
(2 -4.81565e-15 0)
(2 -3.60789e-15 0)
(2 -3.92701e-15 0)
(2 -5.36002e-15 0)
(2 -6.48566e-15 0)
(2 -5.34796e-15 0)
(2 -5.11387e-15 0)
(2 -2.97767e-15 0)
(2 -2.37949e-15 0)
(2 -2.07011e-15 0)
(2 -2.62379e-15 0)
(2 -3.66984e-15 0)
(2 -4.42661e-15 0)
(2 -3.79244e-15 0)
(2 -1.96292e-15 0)
(2 6.52812e-15 0)
(2 1.69752e-13 0)
(2 3.29723e-12 0)
(2 5.2391e-11 0)
(2 6.66642e-10 0)
(2 -1.52694e-14 0)
(2 -1.75504e-14 0)
(2 -1.91675e-14 0)
(2 -1.94417e-14 0)
(2 -1.92024e-14 0)
(2 -1.80911e-14 0)
(2 -1.8238e-14 0)
(2 -1.72569e-14 0)
(2 -1.69514e-14 0)
(2 -1.65459e-14 0)
(2 -1.45957e-14 0)
(2 -1.45702e-14 0)
(2 -1.44585e-14 0)
(2 -1.39153e-14 0)
(2 -1.25887e-14 0)
(2 -1.28987e-14 0)
(2 -1.27615e-14 0)
(2 -1.30748e-14 0)
(2 -1.32658e-14 0)
(2 -1.37226e-14 0)
(2 -1.37755e-14 0)
(2 -1.3277e-14 0)
(2 -1.31561e-14 0)
(2 -1.43429e-14 0)
(2 -1.44144e-14 0)
(2 -1.46527e-14 0)
(2 -1.46385e-14 0)
(2 -1.44318e-14 0)
(2 -1.36602e-14 0)
(2 -1.39265e-14 0)
(2 -1.47285e-14 0)