/*--------------------------------*- C++ -*----------------------------------*\
  =========                 |
  \\      /  F ield         | OpenFOAM: The Open Source CFD Toolbox
   \\    /   O peration     | Website:  https://openfoam.org
    \\  /    A nd           | Version:  7
     \\/     M anipulation  |
\*---------------------------------------------------------------------------*/
FoamFile
{
    version     2.0;
    format      ascii;
    class       volScalarField;
    location    "0.736";
    object      p;
}
// * * * * * * * * * * * * * * * * * * * * * * * * * * * * * * * * * * * * * //

dimensions      [0 2 -2 0 0 0 0];

internalField   nonuniform List<scalar> 
12359
(
0.0707377
0.0794324
0.0559788
0.112146
0.0738156
0.157432
0.188369
0.171592
0.229084
0.146324
0.212186
0.27861
0.488472
0.119007
0.106813
0.399981
0.444329
0.0596952
0.0594285
0.0916942
0.126795
0.252656
0.0852135
0.0969859
0.0821315
0.0882503
0.0569049
0.0568027
0.0587685
0.0573362
0.0576609
0.0563845
0.0561073
0.0571285
0.0560066
0.05784
0.0644439
0.0691144
0.0725119
0.0667151
0.0776298
0.0678401
0.0622065
0.0616242
0.0582862
0.0585251
0.0580493
0.0575314
0.0591418
0.0569817
0.0566813
0.0565804
0.0563178
0.0600882
0.0562456
0.0561311
0.0610257
0.0561004
0.0560902
0.0560439
0.0561728
0.0559944
0.0566216
0.518234
0.0605159
0.135267
0.0637454
0.0565187
0.0650458
0.348187
0.535404
0.0755918
0.0559699
0.065843
0.101714
0.0560047
0.0563015
0.0559843
0.0630884
0.318111
0.128252
0.0514748
0.0552395
0.0557857
-0.058659
0.0290287
0.0512879
0.0543347
-0.0684927
-0.0527596
0.0558017
0.472514
0.0557679
0.0550664
0.0546002
0.00933235
0.0545993
0.0551919
0.0622579
0.0592442
0.110976
0.0558876
0.0298175
-0.128085
0.0507779
0.0156
0.0550502
-0.0559891
0.032399
0.0159363
0.0547099
0.051547
0.113362
0.0944071
0.0549187
0.0524256
0.0960991
0.0505433
-0.0726637
0.0552728
0.0548379
0.178091
0.0542461
0.00700387
0.0503221
0.0524065
0.0403255
0.0556421
0.0559769
0.050218
0.053121
-0.00170776
-0.00312912
-0.00211635
0.0550854
0.00812972
0.0528933
0.00835757
0.0559144
0.0401634
0.0553778
0.0720339
0.0176041
0.0550609
0.0105311
0.150442
0.0552487
-0.0444633
0.0505688
0.129899
0.00433158
0.0559005
0.0176125
0.0541597
0.0557267
-0.181657
0.110685
-0.00120386
0.0547248
0.0564507
0.0492958
0.0564985
0.00514591
0.0142966
0.0552366
0.0525333
0.0503477
0.17696
0.015804
-0.0698907
0.0559851
0.0559977
0.0148176
0.082204
0.0510495
0.0443639
0.0588348
0.058584
0.113876
0.0451664
0.119647
0.0557052
0.055978
0.0511834
0.06131
0.207639
0.0499464
0.0538535
0.00665653
0.0496588
0.0541341
0.010523
0.0122213
0.0540977
0.0148105
-0.137839
0.0369838
0.050938
0.0180785
0.0506388
0.154082
0.00607339
0.0603716
0.0157134
0.0140225
0.0556862
0.0130575
0.0611419
0.00293341
0.04908
0.0554928
0.000364646
0.000539901
-0.540063
0.20888
0.0559195
0.0504746
0.0549792
0.0501897
0.0725127
0.104693
0.049266
0.00698966
0.480588
0.0499003
0.0554742
0.0732249
0.0330553
0.0487918
0.0517037
0.0514276
0.0552397
0.0115104
0.0604167
0.0532353
0.0595342
0.0552682
0.0168457
0.0535047
0.300902
0.0552021
0.027091
0.0540185
0.0575171
0.0478721
-0.0468013
0.0560647
0.002626
0.051666
0.0127741
0.00211224
0.0685894
0.0582469
0.0519696
0.321615
-0.596547
0.05528
0.0492194
0.406469
-0.0462137
0.0598869
0.0490169
0.0484084
0.0144503
0.0807016
-0.456015
-0.0660774
0.0475776
0.0495011
0.00854416
0.0148079
0.0652639
0.0158128
0.0520819
0.0491116
0.0552201
0.04932
-0.116532
0.0464039
0.0549927
0.0558773
0.013708
0.0470223
0.0637759
0.0274567
0.0553296
0.05055
0.0558945
0.0558783
0.0564058
0.00498129
0.051249
-0.45892
0.0550574
0.0550373
0.0296561
0.0517169
0.104426
0.0550099
0.0567291
0.0558177
-0.103977
0.047708
0.0558199
0.0506829
0.0546212
0.0516207
0.052423
0.0527822
0.0515357
0.0597114
0.208276
0.0513981
0.057722
0.0691891
0.025195
-0.0534521
0.0511846
0.0632702
0.372629
0.0558676
0.0222164
0.0549581
0.0372705
0.0550427
0.0506256
0.224237
0.0211763
0.209618
0.0632913
0.053835
0.0114279
0.00640197
0.0536629
0.0112695
0.0118755
0.0548435
0.0562139
0.056205
0.056268
0.0562375
0.299042
0.0553099
0.108421
0.00133268
0.060281
0.0154268
0.0214741
0.0301565
0.0380916
0.0204274
0.0386961
0.0621451
0.0229382
0.0243174
0.0964795
0.0728152
0.0170766
0.0710927
0.0709948
0.0186808
0.10877
0.0520018
0.0562862
0.0355816
0.0562529
0.0516601
-0.197724
0.505729
0.0518695
0.055943
0.0551009
0.0556143
0.0203763
0.0557292
0.0557165
-0.0728118
0.0149345
-0.0487427
0.0536162
0.012147
0.0471007
0.054283
0.0181438
0.0353829
0.115637
0.0357039
0.0522053
0.0549531
0.0142003
0.0115917
0.0496073
0.296374
0.0179834
0.00801521
0.0540842
0.0507179
0.0559319
0.391424
0.0152802
0.0537374
0.065305
0.070148
0.0553946
0.0553698
0.0555666
-0.0581456
0.1035
0.0643318
0.0212391
0.00451675
0.0546332
0.118827
0.0535686
-9.95018e-06
-0.0581959
0.300105
0.0589256
0.0958594
0.0328022
0.0246065
0.0402144
0.0352017
0.0573815
0.0401566
0.0178428
0.0557318
-0.0488525
0.0642606
-0.00526472
0.0104153
0.0614836
0.100108
-0.143653
0.0199339
0.0440626
0.00766405
0.00990633
0.0214649
0.0505055
0.0555231
0.0554997
0.0550499
-0.00228213
0.0532289
0.0879121
0.0898966
0.0413073
-0.0538595
0.107526
0.0590508
0.0539646
0.391675
0.0549132
0.0537138
0.00716174
0.055948
0.0538336
0.0537198
0.240882
0.208792
0.0554173
0.0544419
0.113672
0.0520702
0.0213949
0.0173651
0.0153251
0.0548367
0.0556
0.0518537
0.0558244
0.0893737
0.0220254
0.0245713
0.0584588
0.0547572
0.00443844
0.0574687
0.0522552
0.0493379
0.124238
0.00653503
0.0558985
0.0514892
0.0139764
0.0347701
0.0525764
0.0526835
0.117782
0.0222276
0.00874989
0.0235047
0.054805
0.0525694
-0.00361871
-0.00342297
0.0558186
0.0412559
0.0524594
0.00657208
0.285767
0.055551
0.0533786
0.0548557
0.0170091
0.0588606
0.0582865
0.0526928
0.0533316
0.0339436
0.0810339
0.0446909
-0.034206
0.0550334
-0.0390606
0.0544551
-0.114999
0.0209805
-0.000710238
0.0560744
0.0582311
0.0244971
0.0513516
0.0566425
0.062557
0.0591302
0.0594257
0.073555
0.0163016
0.015894
0.0552568
0.0510061
0.0217471
-0.00268225
0.0552583
0.0549875
0.0141091
0.0548559
0.229486
-0.150198
-0.0947783
0.0552589
0.0466989
0.00153795
0.0587657
0.0513112
0.4593
0.0550216
0.117621
0.0928853
0.0465195
0.0516638
0.0568025
0.0418297
0.00101718
0.0344181
0.057168
0.0552838
0.0559783
0.058853
0.0588072
0.0586533
0.016184
0.0564611
0.0550182
0.0230997
-0.0717827
0.0576315
-5.94368e-05
0.0551235
0.0577265
0.0981164
0.00251273
0.00209922
0.100299
0.0505716
0.00237263
0.0554234
0.0560265
0.00507745
0.0417456
0.0499919
0.0416977
0.0556592
0.0549808
0.0521022
0.0534059
0.00236174
0.107904
0.0645939
0.122255
0.0180496
0.0440472
0.116957
0.0678949
-0.00416747
0.0153793
0.0686617
0.0575764
0.0560468
0.0408626
0.0235834
0.0552499
0.0559561
0.0548581
0.0560741
-0.0140625
0.0417267
0.0382548
0.109132
0.0628768
0.240891
0.00666165
0.00213778
0.0518741
0.000211224
0.0556458
0.0544119
0.0545153
0.109555
0.117112
0.051144
0.0343918
0.230899
0.0179883
0.00782242
0.0430863
0.0672953
-0.127273
0.0546507
0.0567525
0.0556769
-0.00817598
0.0566403
0.035378
-0.0549635
0.0550149
0.0825495
0.0606761
0.0459454
0.057838
0.0515105
0.0563066
0.0585891
0.0563603
0.0562515
0.0582658
0.00736198
0.0118608
0.0460542
0.338446
0.00255778
0.416838
0.0193927
0.0279364
0.0584392
0.0208088
0.0611981
0.0102308
0.320222
0.102165
0.0603747
0.0479035
0.0599937
0.0587875
0.0241533
0.0555202
-0.00439997
0.0563493
0.103707
0.0515081
-0.0124362
0.00969115
0.013207
0.0596294
0.0436082
0.0101371
0.0816076
0.00741776
0.0446349
0.00490092
0.0474062
0.0552923
0.0542238
-0.210708
0.0731515
0.0474739
0.0552265
0.0565245
0.0600272
0.0876533
0.0118529
0.0196262
0.0548457
0.049021
0.0596761
0.0474814
0.0449127
0.00369062
0.0613768
0.0615373
0.0108885
0.0488419
0.0455112
0.107572
0.0552568
0.0612878
-0.257612
0.056069
0.00918882
0.0540326
0.0458889
0.0929271
0.0113686
0.0551018
0.0214207
0.055449
0.115386
0.0505113
0.0130674
0.0128893
0.116708
0.0552913
0.00161329
-0.0045108
0.0604734
0.0470879
0.0504592
0.0392567
0.241975
0.0594536
0.0559314
0.0593777
0.0557431
-0.126158
0.0459686
0.0122566
0.0356268
0.0204493
0.527505
0.0464083
-0.056198
0.0122237
-0.0798458
0.0210756
0.0570888
0.0465805
0.0352098
-0.0464986
-0.0348674
0.0545417
0.0543807
0.121984
0.0542803
0.210026
0.022408
0.0724773
0.05081
0.407342
-0.102585
0.0467162
0.0552972
0.055235
0.0973344
0.0600759
0.0648296
0.0572868
0.0173153
0.0814697
-0.0149044
0.356661
0.0548435
0.0869222
0.0162939
0.12405
0.0485443
0.116626
0.0091354
0.0986106
0.058084
0.0552096
0.0113502
0.00843877
0.0200756
0.121259
0.0148021
0.0286075
0.0554954
0.0545043
0.0432232
0.251943
0.043236
0.0139639
0.0705587
0.022797
0.0400421
0.057832
-0.00381123
0.0365432
0.0481208
-0.00639825
0.062197
0.0308952
0.197181
0.055284
0.0362689
0.0545665
0.0620867
0.0526463
0.0550034
0.0552552
0.00354828
0.0496013
0.0823724
0.0145074
0.0988419
0.0346099
0.0353165
0.0122103
-0.198291
0.0560606
0.061958
0.0291953
-0.0688992
0.00887194
0.0552253
0.514636
0.0552277
0.0504636
-0.173055
0.0601706
0.0555068
0.0555249
0.069519
0.0933602
0.0560722
0.0610779
0.112455
0.0550574
0.0577153
0.0577697
0.0546738
0.0944214
-0.0153655
0.0588945
0.120252
0.0122705
0.0102428
0.00759855
0.0174199
0.0577395
0.0503048
-0.0396708
0.00552314
0.0774067
0.0541809
0.056097
0.121481
0.000396677
0.0374747
0.0399839
0.0371177
0.057154
0.0487562
0.0879586
-0.226136
0.375187
0.0866288
0.0545333
0.0488208
0.0837788
0.351667
0.115417
0.055274
0.00176165
-0.0106583
-0.237691
0.0403054
-0.166303
0.056073
0.057504
0.0561105
0.00850643
0.0790432
-0.16839
0.050787
-0.0833714
0.0540652
0.0550631
0.0123395
0.0593687
0.00274757
-0.03984
0.060927
0.0395365
0.0280656
0.0407402
0.0607826
0.0777803
0.0768656
0.0346982
0.081415
0.0609819
0.056138
0.0575235
0.0565732
0.108413
0.0256509
-0.00541276
0.00478897
0.0899688
0.0272957
0.0257248
0.0471501
-0.0098194
0.0384106
0.0603418
0.0556872
0.00129791
0.112835
0.0510557
0.043368
0.0617782
0.0261057
0.106328
0.119806
0.0263296
0.244548
0.0248397
0.0909944
-0.036674
0.0590517
0.0202574
0.0132165
0.0541772
0.0380908
0.0444326
0.0486064
0.0554183
0.0515633
-0.0121433
0.000392643
0.050862
-0.143331
0.10382
0.0564841
0.0533793
0.00353567
0.0564092
0.0800549
0.015635
0.00696452
0.0563568
0.0583678
0.0546785
0.0564192
0.122253
-0.140766
0.056384
0.0595122
0.0552653
-0.14488
0.0238584
0.0169294
0.0550848
0.0563055
0.057445
0.0277015
0.087787
0.0309334
0.0532183
0.0581491
0.0563098
0.0235025
0.0885547
0.0442097
0.0559523
0.0342008
0.0280412
0.079489
0.0521752
-0.0148931
0.148256
0.0541931
0.0360677
0.0578227
0.0480747
-0.188199
0.0608184
0.0565397
0.0134399
0.108745
0.0868013
-0.137994
0.0809017
0.0391197
0.030263
0.0618154
0.0444758
0.0388639
0.0609544
0.149821
0.0551342
-0.335429
0.0876765
0.18368
0.044431
-0.00453004
0.0993654
-0.000691546
0.264681
0.00841509
0.0305166
0.0378529
0.0426867
0.0552354
0.0485285
0.0920071
0.00195347
0.0612015
0.0542245
0.00788564
0.019349
0.00747504
0.0841782
0.002075
0.00692909
0.0542771
0.0748405
-0.0471214
0.0910265
0.0552202
0.0389361
0.0586509
0.0552196
0.0735899
0.0560629
0.04853
0.248021
0.0956974
-0.0152607
0.0560962
0.0554749
0.0557602
0.061369
0.0590719
-0.000746499
0.0592114
0.0553962
-0.0153561
0.0241912
0.00775727
0.0732433
0.0527598
0.0468621
0.0942266
0.0383387
0.0561156
-0.0402568
0.0126256
0.116299
0.0554906
-0.23703
0.101069
0.0541772
0.00390147
0.0410707
-0.0120199
0.0400926
0.00240659
0.0983927
0.0533891
0.0575616
0.0249425
0.04116
0.0597446
-0.00525779
0.0602877
0.0605006
0.0999488
0.0535533
0.0589037
0.0397929
0.0116367
0.0526295
0.0603505
0.0583754
0.0551612
0.0999144
-0.0394686
0.0290411
0.0614826
0.058328
0.0466491
0.0550505
-0.192458
0.0836769
0.0558884
0.0753583
0.0468404
0.102955
0.155772
0.00180791
0.0603575
0.00724409
-6.9297e-05
0.0550333
0.0446999
0.0011513
0.0515103
0.0559291
0.077292
0.0305478
0.0589273
0.0559534
0.0452177
0.0856867
0.056428
0.0339257
0.0560764
0.0439081
0.0715754
0.133765
0.0555917
-0.202145
0.0845452
0.0178726
-0.119139
0.0961546
0.0353697
-0.0298752
0.0619168
0.144224
0.208758
0.0580452
0.0489682
0.0489392
0.0572769
0.0591754
0.00834534
-0.0776881
-0.148448
0.0102249
0.150648
-0.00518301
0.0118705
-0.0514519
0.0554005
0.0574751
0.0507211
0.0276931
0.055062
0.00964297
0.0408242
-0.00544841
0.0553067
0.0581885
0.0535712
-0.159639
0.124061
0.0820138
0.0664894
0.126012
0.0492731
0.0563528
-0.0143452
0.0405545
-0.0104064
0.00872443
0.0261539
0.00634477
0.0173272
0.0624615
0.0547785
0.0551233
-0.120776
0.0438385
0.0454496
0.0560296
0.00564819
0.0205594
0.0556252
0.02227
-0.0113035
-7.39301e-05
0.0979702
0.0579307
0.0555171
0.0060387
0.0614313
0.0553458
0.00140158
0.00937143
0.0587745
0.141777
0.00143785
0.0557173
0.0554567
0.0551268
0.111541
-0.144067
0.0427965
0.0122496
0.0581595
0.0581155
0.0129623
0.0558596
0.181997
0.0172847
-0.0481374
0.155918
0.0339633
0.0545387
0.0552403
0.0367664
0.0616518
0.0546254
-0.179091
0.00713264
0.0473222
0.219948
0.105046
0.0505937
0.0552604
0.0554367
0.0559212
-0.0739559
0.163211
0.0365484
0.081677
0.0717159
0.00754798
-0.0770725
0.0266278
0.0597073
0.0575764
0.0186338
0.0461338
0.0548436
0.0576204
0.00547354
0.0591
0.0362672
0.0606975
0.0857262
-0.00933533
0.0522724
0.0577221
-0.00155932
0.00465104
0.0642023
0.0575905
0.080833
-0.000661844
0.0418434
0.0193679
0.0784493
0.0188504
-0.0304568
0.0584601
0.160826
0.0548206
0.107438
0.00190608
0.0558195
0.0553106
0.378061
0.0556948
0.061119
0.0286583
0.060309
0.0603898
0.0631933
0.0556181
0.0557463
0.000329875
-0.0242406
0.0538613
0.33539
0.0415697
0.0574528
0.2355
0.100886
0.0579544
0.0502946
0.0570938
0.0920428
-0.261913
0.0601035
0.0538272
0.0550506
0.0574853
0.0682775
0.0185078
0.0596997
0.0697905
0.0586613
-0.154786
-0.00407388
0.00986108
0.11438
0.0412949
0.0575397
0.00579527
-0.117796
0.058027
0.0552208
0.057486
0.0491752
0.0602447
0.0545131
-0.00225014
0.0500191
0.0498342
0.312185
-0.0007241
-0.00572142
0.00497327
0.0600681
0.00160284
0.0883459
-0.0876162
0.0529735
0.0118838
0.0558527
0.238414
0.0553037
0.0548485
0.0344102
0.0550724
0.0283524
0.0645683
0.0603315
0.052875
-0.0898589
0.0899026
0.0127257
0.0576779
0.0383692
-0.0500811
-0.00561674
0.0827968
0.0790969
0.0554121
0.0606957
0.0525798
0.057423
0.0538215
0.057658
0.0935014
0.0765277
0.0088063
-0.104445
0.0255744
-0.00668472
0.0349281
-0.108173
0.0545033
-0.0280493
0.0575671
-0.0111979
-0.00413537
0.0277752
0.0550893
0.0321352
0.0123758
0.035675
-0.00354496
0.231757
-0.102497
0.0575073
-0.000199616
0.0482694
-0.00318519
0.0925113
0.00593731
0.0509449
0.0631304
0.0117165
0.0582393
0.0387904
0.055368
0.0483908
0.0553027
0.0608662
0.00762156
0.0016948
0.0553775
0.0886323
-0.0840895
0.490004
0.0549026
0.0774034
0.0306231
0.19755
0.0339382
-0.179908
-0.0335013
0.0526892
0.0272319
0.0689576
0.179505
0.0515961
0.0718497
0.0798866
0.0535292
-0.0861394
-0.00295972
0.0575831
0.0266928
-0.0314553
0.0802543
-0.0867898
0.0424058
0.0808973
0.0593181
0.0549195
0.0607061
0.0492942
-0.0754526
-0.000417845
-0.0630582
0.0562608
-0.0810872
0.0326657
0.00548263
0.114806
0.0274092
0.0307816
-0.0534839
0.042152
0.040554
0.00621154
0.0718076
0.0280777
0.0104833
0.0741734
-0.0888407
0.0889729
0.0367619
0.0900366
0.056326
0.116044
0.000586621
0.103374
0.0582315
-0.0345204
0.0554352
0.0361224
0.0100622
-0.000792857
0.0621708
0.00726103
0.0469839
0.51127
0.060985
0.00633392
0.095608
0.000144767
0.00871224
0.0552228
0.0340888
0.0552096
0.465453
0.0556791
0.0553356
0.0551258
-0.01254
0.0499027
0.047502
-0.00798003
0.0311456
0.0686362
0.0496056
0.0553618
0.109563
0.0540302
0.108033
0.00973244
0.0899896
0.0404955
0.0467282
0.0284038
-0.0113006
0.0110906
0.0475796
0.539726
0.0556623
0.0554066
0.0609059
-0.132813
0.0582757
0.0341664
0.0803693
0.0591037
0.0463638
0.00455769
-0.021142
0.0359564
-0.0448491
0.0600169
0.0500724
0.0162864
0.0215553
-0.000613917
0.0575094
0.0286932
0.0762403
0.19449
0.0407915
0.0553218
0.0483029
0.180937
0.0559517
0.0559523
-0.0338008
0.0345901
-0.0400002
0.0463152
0.0553086
0.190933
-0.0123431
0.0509146
0.0603085
0.0538465
-0.108247
0.0559576
0.0363612
-0.0258078
0.0559528
0.0553501
0.0109889
0.05495
0.0559625
0.0151057
0.0531369
0.055212
0.0235978
0.0549924
-0.0111827
0.0553016
0.0605866
0.121899
0.00984242
0.0559644
0.00689381
-0.173465
0.046719
0.0778841
0.0541827
0.0358914
0.0542252
-0.0162011
-0.00394431
0.050407
0.0553568
0.135135
0.0316524
0.017629
0.013422
0.131994
0.0549575
0.00757149
0.0553462
-0.0181315
-0.00376916
-0.00334678
0.00949731
0.158784
-0.0866355
0.00613695
0.0119357
0.0500372
0.0575226
0.00236603
0.140963
0.102219
0.0370819
-0.0733915
0.0549727
-0.0625444
0.195977
0.0544572
-0.00622734
-0.00885828
0.0837417
0.00988354
0.00865565
0.0769693
0.0553105
-0.0102113
-0.0626985
0.257098
0.060036
0.00322734
-0.0290765
0.144712
0.0569231
0.0553188
0.00745159
-0.0513023
0.0423745
0.0708044
0.055571
0.0549362
0.0589941
0.0598511
0.0281117
0.060604
0.0553136
-0.0136549
0.0396473
-0.0244708
0.0176948
0.0555326
0.0553487
0.147874
0.0595992
0.0831066
0.0632677
-0.0433698
0.0850895
0.0545852
-0.0208252
0.0638944
0.0552425
0.0310636
0.0405983
0.046323
0.0967361
0.0281448
-0.153122
0.0428911
0.0549621
-0.0255221
0.0550934
-0.00428383
0.0336547
-0.0250341
-0.0472628
0.0997394
-0.029666
0.0555617
-0.00714573
0.0589883
0.0758092
-0.0217315
0.0224228
-0.0216769
-0.0632757
0.176394
-0.00982389
0.0662136
0.0545341
0.0551689
0.055075
-0.029672
0.144483
0.05456
-0.0128883
-0.0178118
0.0166822
0.00365813
0.0306356
0.113362
-0.0270209
0.0589233
0.0138432
0.0275936
0.0558428
0.0558594
0.0570057
0.0598849
0.01338
0.0554706
0.0571986
0.0612191
0.0784578
0.000721257
0.0548189
-0.0172984
0.0552996
0.00596427
0.015861
0.0573207
0.0435897
0.00315861
-0.01841
0.0401319
0.0804734
0.0597754
0.0292511
0.0352962
0.0553639
0.059057
0.0590203
0.0573765
0.0554132
0.073655
0.0554022
0.129658
0.0147606
-0.0904709
0.0554088
0.0638528
0.0554965
0.0550329
0.124027
0.0632832
0.0546515
0.320292
0.135703
0.0400103
0.0690091
0.0404689
0.124193
0.02298
0.0103594
0.0577619
0.0611167
0.0553565
0.0553104
-0.010011
0.0549502
0.0570606
0.126182
0.0572583
0.0588718
0.0316362
0.0552529
-0.0338751
0.0554334
0.0570137
0.00937531
0.0109878
-0.0681186
0.111881
0.0747672
0.0571982
0.00885394
0.0571507
0.0276614
0.00697894
0.06103
-0.0257709
0.0560125
0.0283073
0.0740959
0.0544205
0.105134
0.0554336
0.0609879
0.0553586
0.0315546
0.0549003
0.0558749
0.0269069
0.0504764
0.0748219
0.0296984
0.0553858
0.0291782
0.0141913
0.0608202
0.00995363
-0.0120201
0.0553484
0.0336861
0.112104
0.00428004
0.0610549
0.0473639
0.0473179
0.0278696
0.0616343
0.154776
0.0591219
0.0553379
0.0553883
-0.0185845
-0.00659483
-0.0201448
0.280753
0.103701
0.05315
0.028875
0.0126334
0.0557005
-0.0552693
0.0592181
0.10588
-3.32999e-05
0.0570516
0.146808
-0.00592432
-0.0147205
0.0254805
0.0315452
0.0556255
0.0550452
0.0633291
0.0553765
0.0553185
0.14082
0.0573132
0.0684734
0.0545878
0.0427607
0.0472646
0.371079
0.0465093
0.0494864
-0.0073926
0.10737
0.0963047
0.0365952
0.112486
0.0550368
0.0494248
0.00577465
0.0748691
0.127378
0.0567973
-0.00053368
0.0433249
0.0531248
0.0570315
0.0552506
0.0671421
0.0463644
0.0557809
0.0322255
0.258322
0.055856
0.0135921
0.0349832
0.0547348
0.0677437
0.0576111
0.0296262
0.0552687
0.0552129
0.0167103
0.0315006
0.0951508
0.144601
-0.22561
0.0608007
0.0687418
-0.0355255
0.0356001
0.0575628
0.0432408
-0.000573724
0.0553936
0.0585613
0.0553465
0.0321736
0.0674846
0.0208284
0.0554097
0.0659078
0.0378764
0.0592845
0.121167
0.0508151
0.0551996
0.0554054
0.0318572
0.0253055
0.307931
0.0653654
0.0865057
0.0063593
0.00615236
0.0551335
0.103795
0.0553906
0.0553513
0.0558453
-0.000637257
0.0601041
0.0370098
0.00794888
0.0221666
0.00764542
0.03241
0.0663492
0.118219
0.0523199
0.0131669
0.0955327
0.0355508
0.131113
0.0588854
-0.164051
0.144976
0.136413
0.0549145
-0.113676
0.00698287
0.00924171
0.140227
-0.000188167
0.0631853
0.061484
0.0430901
0.0392266
0.0360358
0.212527
0.0764042
0.0593399
0.0162584
0.05922
0.0400538
0.0267207
0.0975388
0.0396863
0.072463
0.0876125
0.0065389
0.100034
0.0348473
0.0560989
0.0651784
0.0543674
0.0466994
0.0541797
0.0596947
0.021424
-0.0450064
0.0548882
0.166697
0.0544131
0.0462101
0.0109592
0.0326976
0.0360596
0.0539465
0.00858724
0.0139291
0.253528
0.0553725
0.0101673
0.0394552
0.013476
0.0558513
0.0555804
0.153517
0.0263989
0.0360019
-0.122603
0.0288328
0.0423532
0.140892
0.01658
0.122176
0.0608139
0.020703
0.0412811
0.0504132
-0.0253344
0.00788942
0.0220773
0.0359487
0.0547754
0.00744856
0.00711852
-0.000678789
0.0442184
0.0397323
0.413223
-0.0362752
0.0544097
-0.0114023
0.0229451
-0.108835
0.0553246
0.034096
0.0354022
0.0553285
0.00515375
0.0313538
0.0579392
0.000108586
-0.020606
-0.00120187
0.0606196
0.02577
0.0558767
0.0500729
-0.0230896
0.0856914
0.0320924
0.00825013
0.148439
0.0270992
0.0223379
0.0236978
0.00854943
-0.0255828
0.0539014
0.0241935
0.0181189
0.0952391
0.280168
0.015046
0.0376392
0.0218581
0.0553248
0.0960539
0.0339543
0.0105325
0.0550425
0.0392529
0.00711813
0.015642
0.151993
0.0122339
0.0334133
0.0318815
0.0598784
0.00466793
0.0297337
0.0764451
0.0639171
0.0606337
0.0117664
0.039872
0.0460038
0.0427995
0.0553424
0.00696459
0.0666198
0.0326742
-0.00210636
-0.043609
0.0495614
0.0322794
0.018869
0.0265844
0.0554276
0.102842
0.101971
0.0758099
0.055828
0.227372
0.008101
0.0549927
0.0927443
0.0549768
0.0627829
0.0362955
0.0287758
0.0558588
-0.103338
0.0564421
0.0639941
0.0472184
-0.00990881
-0.0283935
-0.000431576
0.0666487
0.0107486
0.0558568
0.0321344
0.0792586
0.0564589
0.152246
0.0195046
0.0304167
0.00967804
0.0715518
0.024568
0.040752
0.0551148
0.0552575
0.0503107
0.0680054
0.125257
0.017963
0.14982
0.0850605
0.0939792
0.0570649
0.0740927
0.00828836
0.0552432
-0.0212018
-0.0162014
0.0579667
0.0553638
0.0457027
0.0536713
0.055245
0.0695246
0.038217
0.135285
0.0186241
0.0380002
0.0932808
-0.00929171
0.00671268
0.0896779
0.0150067
0.0269859
0.0738607
0.0550338
0.0676452
0.0316346
0.125856
0.133166
0.221786
0.0552756
0.129971
0.0357754
0.0352638
0.107587
0.111611
0.103875
-0.0221249
0.0235539
0.0692048
0.0239144
0.0443578
0.0494859
0.0950792
0.0547018
0.0191294
-0.0266401
0.0644767
-0.0236914
0.0543221
0.0872592
0.0601244
0.0345006
0.105338
0.166965
0.0235887
0.0476848
0.0194632
0.0371017
0.0739681
-0.000155389
0.0864793
-0.00123667
0.0552853
0.0239524
-0.146037
0.100797
0.039987
-0.0383914
0.0119166
0.0461072
0.0544782
0.106556
0.0970048
0.0374509
0.0605086
0.0568047
0.00683673
0.0485962
0.00599217
0.084749
0.0385392
0.144812
0.0552906
0.0511171
0.00578299
0.0422439
0.042876
0.0703966
0.0614428
0.0333916
0.170659
0.110387
0.0551417
0.00716599
0.0497973
0.055063
0.135998
0.0545959
0.0248359
0.0278821
0.0546951
0.054786
0.0574567
0.00846936
0.0657934
0.101491
0.0309845
0.133843
0.0348514
0.0369053
0.0406044
0.0823305
0.0554618
0.0433352
0.0415597
0.0299411
-0.0183313
0.0109567
0.0713713
0.0483094
0.0598762
0.0352268
0.0472111
0.0656366
0.0255031
0.110369
0.035123
0.0550867
0.00966876
0.0912152
0.00857887
0.0551779
0.138035
-0.0214582
0.0512205
0.101494
0.00720495
0.0589932
0.0992249
0.00497965
0.0932873
0.118324
0.00566829
0.0513424
0.0832887
0.079905
0.0158766
0.0522743
0.0352675
0.0552579
0.0541153
0.054988
0.0154319
0.0198825
0.0228995
0.0862923
-0.0572557
0.171396
-0.0538427
0.0306264
0.0443297
-0.034262
0.0521246
-0.0977466
0.0371365
0.0257525
0.0210275
0.0320562
0.0686567
0.0468748
0.035978
0.0594657
0.0551616
0.0822096
-0.0322453
0.0159438
0.00750564
0.020004
0.0574386
0.0307083
0.0187504
0.060355
0.0271393
0.0431141
0.123504
0.089466
0.0849737
0.0971888
-0.00138067
9.37472e-06
0.00689582
0.0260072
-0.00178956
0.0171281
0.0624777
0.0460882
0.134226
0.0786451
0.00856898
0.0553533
0.0988264
0.130154
0.0780969
0.0833955
0.0619166
0.0194101
0.117298
0.0326862
0.026386
0.0374843
0.0370741
0.0543104
0.0318949
0.0326362
0.0589041
0.0230328
0.0337572
0.0498849
0.107694
0.0485081
0.0424888
0.0795502
0.0602461
0.0546379
0.0565863
0.00318092
0.018359
0.0559803
0.0761191
-0.046206
0.00785267
0.0610071
0.0223466
-0.0163253
-0.0365936
-0.00275748
0.0376726
0.0382055
0.0608147
0.0373793
0.0283148
-0.00023737
-0.00111903
0.00484714
0.00124068
0.0389113
0.0544069
0.0541823
0.131799
0.0672286
0.0371191
0.0431822
-0.000328536
0.049731
0.0303702
0.151187
0.0915426
0.0132853
0.0599101
0.0189849
0.0549458
0.0103521
0.000986198
0.0314887
0.0549844
0.0639216
0.169965
0.0474986
0.0930135
-0.0142031
0.0553098
0.0389239
0.0976268
0.104807
0.0743428
0.0556452
0.051216
0.0522036
0.055791
0.0549845
0.0454711
0.00824204
0.0550071
0.0615068
0.0594904
-0.339015
0.12178
0.0521984
0.0552723
0.0125709
0.0193289
0.0259543
0.0805763
0.0202965
0.0546058
0.0477721
0.00618447
0.055729
0.0164911
0.0958294
0.0754753
0.0538766
0.0144678
0.0555203
0.0434409
0.0415358
0.0473821
-0.00195088
0.063879
0.039167
0.03741
0.115228
0.0856575
0.0549523
0.0553718
0.0406642
0.0346921
0.0161327
0.0242963
0.0442749
0.00946525
0.0846311
0.0558073
0.0424651
0.00728207
0.0456302
0.0889857
0.0684984
0.0573276
0.153749
0.0248843
0.127963
0.143796
0.0310897
-0.00204379
0.000324024
0.127364
0.0453592
0.00837459
0.0785032
0.040644
0.0257597
0.0930038
0.076476
0.0563674
0.00354127
0.0344701
0.0317832
0.0448784
0.00754697
0.0566785
0.0844357
0.0565193
0.0614885
0.0902243
0.0605745
0.0488076
0.109283
0.00911109
0.0957173
0.0323496
0.0766987
0.0104276
0.0662517
0.0140741
0.0562964
0.0343124
0.0112887
0.0719912
0.0298138
0.0562577
0.0465743
0.0172992
0.0493529
0.0391546
0.0610737
0.0408962
0.0255257
-4.45862e-05
0.0995541
0.108265
0.103727
0.0456874
0.046755
0.0395612
0.021711
0.0323542
0.0555918
0.0598252
0.074413
0.0277111
0.0627134
0.00620037
0.0351112
0.061845
0.0371736
0.0360763
0.0477315
0.0337423
0.0421415
0.137524
0.262076
0.0255919
0.0301761
0.0320616
0.0354337
0.0421172
0.0398597
0.0380517
0.0254312
0.0154005
0.0542299
0.0552608
0.0543978
0.00775691
0.0551019
0.0332333
0.0483222
0.0341247
0.0644347
0.0378495
0.126751
-0.00554105
0.0548772
0.0381005
0.094886
0.0461489
0.0653841
0.0914335
0.0593564
0.055032
0.0323584
0.00668443
0.0898049
0.00553222
0.118235
0.0870813
0.00495935
0.0683568
0.0729074
0.0125807
0.0476241
0.0539377
0.0563578
0.0408334
0.0548596
0.036396
-0.0310773
0.0542182
0.0842329
0.0480956
0.067475
0.068093
0.162062
0.0605571
0.0467843
0.00619976
0.0156814
0.0907505
0.0341971
0.0874868
0.056195
0.0423945
0.0697922
0.0502935
0.0363313
0.0558239
0.056224
0.0354131
0.0548114
0.0389129
0.0657465
0.0845613
0.0171197
0.0546327
0.00832
0.00327303
0.0722825
0.0626561
0.0565427
0.0727406
0.135516
0.0552465
0.0448658
0.0520238
0.0652893
0.043548
0.0396637
0.0441921
0.07835
0.0873662
0.0359763
0.0834633
0.0944999
0.0648052
0.111349
0.0625082
0.0821728
0.0320789
0.0472615
0.0244637
0.0558885
0.0692013
0.0565052
0.0875195
0.00305815
0.0596376
-0.0107035
0.0501679
0.0299399
0.121037
0.00915256
0.0520832
0.0549867
0.00705513
0.110777
0.0299187
0.0326992
0.0184296
0.0488711
0.0835347
0.0422813
0.0538337
0.0405626
0.0101651
0.0484682
0.0449737
0.399856
0.0441271
0.0565333
0.0638724
0.0693508
0.0477848
0.0357192
0.0552674
0.105722
0.045926
0.0552544
0.0153878
0.0413016
0.0329392
0.045437
0.0681011
0.0479646
0.0496591
0.0488661
0.038163
0.0842723
0.0552858
0.043735
0.0620592
0.0497777
0.0450226
0.0605669
0.0601501
0.0643484
0.0646025
0.0553344
0.0481571
0.0562665
0.0325145
-0.00131221
-0.000583967
0.148343
0.079061
-0.0077877
0.0347625
0.0546517
0.0575385
0.0632254
0.0784113
0.0555582
0.0311991
0.0797128
0.0612378
0.0292616
-0.00821091
0.0242864
0.054627
0.0420422
0.0551583
0.097783
0.233784
0.0442981
0.0618797
0.0459898
0.00776558
0.0549803
0.0769674
0.0302519
0.0507071
0.0556954
0.037449
0.100901
0.042877
0.061097
0.029033
0.0466381
0.0486211
0.0920767
0.064733
0.0453657
0.0570193
0.0437232
0.0601807
0.0428658
0.0555167
0.0436424
0.0550534
0.0600151
0.0127804
0.0728461
0.0196269
0.0780049
0.0781026
0.0585868
0.0434813
0.0397569
0.0815632
0.0963189
0.0125549
0.0473178
0.0589418
0.0631165
0.0442989
0.0538302
0.0490675
0.0400606
0.0311732
0.0314002
0.0502087
0.0172354
0.044412
0.0833972
0.0450752
0.0476599
0.0423076
0.0267941
0.0880311
0.0586395
-0.000526554
0.0441946
0.0469764
0.0120561
0.057727
0.00098283
0.0571612
0.0473074
0.0515254
0.0525794
0.0560296
0.0477177
0.00556254
0.0552678
0.0237017
0.0760223
0.0573247
0.0625052
0.0373639
0.0995982
0.0653019
0.05559
0.0391414
-0.0627279
0.0553588
0.00689654
-0.0777504
0.0700512
0.0895707
0.0584958
0.0456471
0.0326184
0.0759607
0.0633963
0.0549671
0.0958024
0.0131248
0.0854681
0.0552892
0.0548535
0.0481631
0.0495201
0.050165
0.0704751
0.0785523
0.0506346
-0.00126057
0.0523908
0.0586549
0.0462378
0.0356855
0.000485037
0.0548362
0.0478014
0.0267619
0.0493711
0.0511279
0.0573034
0.130969
0.0763247
0.0556504
0.0672255
0.058114
0.047474
0.0779069
0.064474
0.0489965
0.0672362
0.0413123
0.0670463
0.0884096
0.00415283
0.0265898
0.0557334
0.0742943
0.0528344
0.0573707
0.0564001
0.0467947
0.00234362
0.00055393
0.0636478
0.0364342
0.038899
0.0306117
0.0543906
0.0542474
0.0556487
0.0744693
0.0390682
0.0553231
0.0474727
0.0592878
0.0262229
0.0115718
0.0553241
0.0549207
0.0409095
0.0533338
0.0537429
0.0473414
0.050436
0.0447083
0.0708585
0.0662519
0.0380649
0.0531435
0.0578626
0.0613277
0.0479494
0.0552775
0.0478313
0.034712
0.00191563
0.00645719
0.0398229
0.127081
0.0483251
-0.058156
0.0924363
0.0477614
0.0464927
0.0584949
0.0538022
0.0553221
0.0558626
0.0613102
0.0472696
0.0566127
0.0546672
0.100189
0.00687671
0.0372413
0.0554523
0.0597234
0.0678158
0.0746906
0.036653
0.0572111
0.0552259
0.053971
0.0486637
0.0315939
0.0295669
0.00747236
0.0661485
0.0535632
0.0454344
0.0606023
0.0587297
0.0585307
0.0528561
0.0626341
0.055341
0.0178221
-0.00221719
0.0547543
0.0705849
0.0474242
0.0499053
0.0519234
0.0563552
-0.0407056
0.0678049
0.000380761
0.0481611
0.0102911
0.0572186
0.0715536
0.130145
0.0600971
0.0554833
0.0345184
0.0256197
0.114793
0.0485985
0.0713191
0.0501699
0.0549509
0.0688359
0.0530329
0.12382
0.000189855
0.0826099
0.0581009
0.0533165
0.0553143
0.053027
-0.0251917
0.0436013
0.0548867
0.0613767
0.053858
0.0548744
0.0548523
0.0126697
0.00448108
0.05955
0.0540566
0.0861191
0.0600444
0.104878
0.385672
0.0250529
0.0486658
0.0785643
0.0538723
-0.0416367