/*--------------------------------*- C++ -*----------------------------------*\
  =========                 |
  \\      /  F ield         | OpenFOAM: The Open Source CFD Toolbox
   \\    /   O peration     | Website:  https://openfoam.org
    \\  /    A nd           | Version:  7
     \\/     M anipulation  |
\*---------------------------------------------------------------------------*/
FoamFile
{
    version     2.0;
    format      ascii;
    class       volVectorField;
    location    "9";
    object      U;
}
// * * * * * * * * * * * * * * * * * * * * * * * * * * * * * * * * * * * * * //

dimensions      [0 1 -1 0 0 0 0];

internalField   nonuniform List<vector> 
2413
(
(1.85493 0.0588326 0)
(1.85578 0.0568754 0)
(1.85723 0.0550164 0)
(1.85861 0.0542214 0)
(1.8603 0.0533386 0)
(1.86202 0.0519773 0)
(1.86332 0.0507836 0)
(1.86432 0.0501155 0)
(1.85301 0.0635801 0)
(1.85395 0.0613697 0)
(1.85534 0.0595896 0)
(1.85671 0.0587406 0)
(1.85846 0.0576756 0)
(1.86021 0.0562464 0)
(1.86161 0.0550493 0)
(1.86272 0.0544224 0)
(1.85103 0.0683634 0)
(1.85186 0.066107 0)
(1.85317 0.064512 0)
(1.85458 0.0636105 0)
(1.85653 0.0623108 0)
(1.85837 0.0606777 0)
(1.85983 0.0593632 0)
(1.86107 0.0586388 0)
(1.85009 0.0715124 0)
(1.85059 0.0694573 0)
(1.8515 0.0684145 0)
(1.85274 0.0678816 0)
(1.85458 0.0667341 0)
(1.8564 0.0651429 0)
(1.8579 0.0638041 0)
(1.85922 0.0630093 0)
(1.84824 0.07568 0)
(1.84883 0.0734437 0)
(1.84969 0.0723954 0)
(1.85095 0.0718537 0)
(1.85282 0.0706754 0)
(1.85459 0.0691426 0)
(1.85605 0.0679319 0)
(1.85731 0.0672687 0)
(1.84656 0.0792695 0)
(1.84733 0.0768654 0)
(1.84821 0.0757957 0)
(1.84954 0.0750917 0)
(1.85149 0.0738012 0)
(1.85324 0.0723249 0)
(1.85469 0.0712716 0)
(1.85591 0.070783 0)
(1.84421 0.0835468 0)
(1.84496 0.081118 0)
(1.84581 0.0800666 0)
(1.84727 0.0791197 0)
(1.84947 0.0776388 0)
(1.85133 0.0760591 0)
(1.85294 0.0750231 0)
(1.85432 0.0744787 0)
(1.84305 0.0863549 0)
(1.84351 0.0842841 0)
(1.84416 0.0834155 0)
(1.84579 0.0822638 0)
(1.84811 0.0806958 0)
(1.84998 0.079048 0)
(1.85169 0.0780646 0)
(1.85322 0.077376 0)
(1.84138 0.089677 0)
(1.84143 0.0882613 0)
(1.84156 0.0876503 0)
(1.84315 0.0863706 0)
(1.84576 0.0848093 0)
(1.84792 0.0829833 0)
(1.84985 0.0818101 0)
(1.85171 0.0807224 0)
(1.8402 0.0918823 0)
(1.84046 0.0905537 0)
(1.84046 0.0901743 0)
(1.84186 0.0889438 0)
(1.84433 0.0874377 0)
(1.84623 0.0862066 0)
(1.8481 0.08531 0)
(1.84982 0.0843127 0)
(1.83817 0.0954178 0)
(1.83875 0.0939348 0)
(1.83877 0.0936526 0)
(1.83986 0.0923759 0)
(1.84213 0.0906638 0)
(1.84397 0.089718 0)
(1.84589 0.088944 0)
(1.84776 0.0877921 0)
(1.83617 0.0991463 0)
(1.83676 0.0977606 0)
(1.83682 0.0973219 0)
(1.83797 0.0955784 0)
(1.83981 0.0938553 0)
(1.84154 0.0931143 0)
(1.84341 0.0924644 0)
(1.84522 0.0914849 0)
(1.83273 0.104082 0)
(1.83364 0.102722 0)
(1.83418 0.101785 0)
(1.83599 0.0994513 0)
(1.83791 0.0975894 0)
(1.83969 0.0967287 0)
(1.84177 0.09563 0)
(1.84378 0.0941789 0)
(1.83059 0.107666 0)
(1.83141 0.106983 0)
(1.83201 0.106012 0)
(1.83391 0.103493 0)
(1.83567 0.101954 0)
(1.83744 0.1012 0)
(1.83965 0.0999027 0)
(1.84169 0.0983304 0)
(1.82904 0.111071 0)
(1.82993 0.110579 0)
(1.83079 0.109226 0)
(1.83241 0.106622 0)
(1.83392 0.105492 0)
(1.83567 0.104791 0)
(1.8379 0.10335 0)
(1.83985 0.10181 0)
(1.82648 0.116081 0)
(1.82759 0.115538 0)
(1.82899 0.113623 0)
(1.83074 0.110739 0)
(1.8322 0.109537 0)
(1.83401 0.108504 0)
(1.83628 0.106696 0)
(1.83814 0.105032 0)
(1.82405 0.120252 0)
(1.8254 0.11966 0)
(1.82716 0.117568 0)
(1.82876 0.115007 0)
(1.83006 0.114102 0)
(1.83171 0.113087 0)
(1.83387 0.111152 0)
(1.83563 0.109444 0)
(1.82166 0.124196 0)
(1.82312 0.123446 0)
(1.82499 0.121416 0)
(1.82643 0.119345 0)
(1.82759 0.118694 0)
(1.82904 0.117735 0)
(1.8311 0.115659 0)
(1.83282 0.113871 0)
(1.81927 0.128742 0)
(1.82105 0.127356 0)
(1.82307 0.125203 0)
(1.82459 0.12334 0)
(1.82585 0.122431 0)
(1.8274 0.121206 0)
(1.82912 0.119348 0)
(1.83052 0.117912 0)
(1.81347 0.148692 0)
(1.81096 0.154487 0)
(1.80678 0.166707 0)
(1.79371 0.187539 0)
(1.78972 0.199789 0)
(1.78978 0.199719 0)
(1.79169 0.199251 0)
(1.79278 0.202694 0)
(1.79236 0.205748 0)
(1.79183 0.207908 0)
(1.79315 0.208552 0)
(1.79504 0.208185 0)
(1.79727 0.207931 0)
(1.79938 0.208054 0)
(1.8018 0.208177 0)
(1.80399 0.208023 0)
(1.80595 0.20748 0)
(1.80872 0.206112 0)
(1.81206 0.204152 0)
(1.81531 0.202144 0)
(1.819 0.199496 0)
(1.82228 0.197171 0)
(1.82468 0.195771 0)
(1.82795 0.192818 0)
(1.83068 0.190647 0)
(1.83315 0.188969 0)
(1.83663 0.185916 0)
(1.8393 0.183905 0)
(1.8413 0.183304 0)
(1.84435 0.181165 0)
(1.84742 0.178565 0)
(1.84981 0.177701 0)
(1.85202 0.17699 0)
(1.85472 0.175232 0)
(1.85739 0.173026 0)
(1.85938 0.171844 0)
(1.86119 0.171539 0)
(1.86345 0.170361 0)
(1.86604 0.168393 0)
(1.86807 0.167152 0)
(1.86985 0.166975 0)
(1.87152 0.166631 0)
(1.8737 0.165467 0)
(1.8756 0.164161 0)
(1.87705 0.16385 0)
(1.87823 0.163945 0)
(1.87962 0.163467 0)
(1.88104 0.162608 0)
(1.88212 0.162288 0)
(1.88302 0.162436 0)
(1.88401 0.162425 0)
(1.88513 0.162242 0)
(1.88604 0.162123 0)
(1.88704 0.161908 0)
(1.88807 0.161647 0)
(1.88902 0.161582 0)
(1.89003 0.161489 0)
(1.89137 0.161107 0)
(1.89282 0.160474 0)
(1.8942 0.160245 0)
(1.89559 0.160133 0)
(1.89748 0.159349 0)
(1.89953 0.15809 0)
(1.90134 0.157528 0)
(1.90295 0.157308 0)
(1.90523 0.156162 0)
(1.90799 0.154073 0)
(1.91029 0.152598 0)
(1.91224 0.152075 0)
(1.91451 0.151002 0)
(1.91733 0.149023 0)
(1.92005 0.146892 0)
(1.92237 0.145742 0)
(1.92443 0.144973 0)
(1.92718 0.142902 0)
(1.93041 0.139696 0)
(1.86494 0.0496317 0)
(1.86515 0.0487851 0)
(1.86528 0.0472627 0)
(1.86566 0.0458135 0)
(1.86637 0.0448895 0)
(1.86731 0.0440575 0)
(1.86829 0.0431249 0)
(1.86921 0.0421651 0)
(1.8702 0.0410584 0)
(1.87117 0.0398119 0)
(1.87192 0.0389353 0)
(1.87253 0.0386176 0)
(1.87302 0.0379879 0)
(1.87335 0.0367925 0)
(1.87352 0.0361001 0)
(1.87395 0.0350322 0)
(1.87488 0.0333122 0)
(1.87568 0.0325816 0)
(1.87655 0.0318699 0)
(1.87739 0.0305793 0)
(1.87787 0.0297635 0)
(1.87853 0.0287089 0)
(1.879 0.0272036 0)
(1.87915 0.0265717 0)
(1.87919 0.0267523 0)
(1.87925 0.0260008 0)
(1.87955 0.0242115 0)
(1.87971 0.0234297 0)
(1.88013 0.0227293 0)
(1.88109 0.0210581 0)
(1.8819 0.019127 0)
(1.88266 0.0177428 0)
(1.88315 0.0173928 0)
(1.88386 0.0159294 0)
(1.88427 0.0141609 0)
(1.88462 0.0141835 0)
(1.88453 0.0151011 0)
(1.88431 0.0155733 0)
(1.88423 0.0158596 0)
(1.884 0.016392 0)
(1.88288 0.0184145 0)
(1.88004 0.0231232 0)
(1.87475 0.0323725 0)
(1.8663 0.0470402 0)
(1.85578 0.0669089 0)
(1.84537 0.0886822 0)
(1.82829 0.120833 0)
(1.82028 0.13945 0)
(1.81986 0.149071 0)
(1.80493 0.172315 0)
(1.79849 0.192105 0)
(1.7977 0.193022 0)
(1.79951 0.19351 0)
(1.79851 0.19841 0)
(1.7969 0.203738 0)
(1.7962 0.20697 0)
(1.79745 0.207103 0)
(1.79953 0.206527 0)
(1.8023 0.206807 0)
(1.80401 0.207342 0)
(1.80636 0.207994 0)
(1.80825 0.208289 0)
(1.81007 0.208224 0)
(1.81268 0.207662 0)
(1.81552 0.206497 0)
(1.8185 0.20511 0)
(1.82163 0.203413 0)
(1.82439 0.201719 0)
(1.82703 0.199409 0)
(1.82993 0.196749 0)
(1.83251 0.194755 0)
(1.83582 0.192032 0)
(1.83896 0.189339 0)
(1.84163 0.187767 0)
(1.84391 0.186501 0)
(1.84692 0.184354 0)
(1.85013 0.181685 0)
(1.85248 0.180637 0)
(1.85435 0.180173 0)
(1.85705 0.17819 0)
(1.85963 0.17598 0)
(1.86191 0.174533 0)
(1.86384 0.173999 0)
(1.86575 0.173215 0)
(1.86843 0.171527 0)
(1.87069 0.169872 0)
(1.87243 0.169616 0)
(1.87389 0.169649 0)
(1.87586 0.168717 0)
(1.87778 0.167279 0)
(1.87913 0.166679 0)
(1.88021 0.166762 0)
(1.88131 0.166471 0)
(1.88276 0.165619 0)
(1.88385 0.165105 0)
(1.88479 0.165168 0)
(1.88571 0.165102 0)
(1.88675 0.164901 0)
(1.88767 0.164773 0)
(1.8887 0.164554 0)
(1.88986 0.164165 0)
(1.89095 0.163887 0)
(1.89205 0.163843 0)
(1.89337 0.163544 0)
(1.89503 0.162769 0)
(1.8966 0.162064 0)
(1.89798 0.161985 0)
(1.89951 0.161648 0)
(1.9018 0.160271 0)
(1.90391 0.15892 0)
(1.90566 0.15866 0)
(1.90751 0.158097 0)
(1.91033 0.156397 0)
(1.91293 0.154424 0)
(1.91502 0.153749 0)
(1.91697 0.153143 0)
(1.91968 0.151391 0)
(1.92251 0.149048 0)
(1.92495 0.147161 0)
(1.92695 0.146288 0)
(1.86344 0.0539667 0)
(1.86365 0.0531315 0)
(1.86364 0.0517257 0)
(1.86391 0.0504269 0)
(1.86459 0.0497042 0)
(1.86545 0.0491523 0)
(1.86643 0.0483973 0)
(1.86745 0.0474528 0)
(1.86852 0.046284 0)
(1.86951 0.0450485 0)
(1.87032 0.0441777 0)
(1.87097 0.0436774 0)
(1.87148 0.0429656 0)
(1.87174 0.0417725 0)
(1.87182 0.0408287 0)
(1.8721 0.0398227 0)
(1.87297 0.0382128 0)
(1.87381 0.0373092 0)
(1.8746 0.0369422 0)
(1.87559 0.0358746 0)
(1.87635 0.0346541 0)
(1.877 0.0336402 0)
(1.8776 0.032166 0)
(1.87779 0.0312923 0)
(1.87784 0.0314055 0)
(1.87786 0.0306634 0)
(1.87786 0.0289395 0)
(1.8778 0.0281932 0)
(1.87791 0.0277611 0)
(1.87871 0.0262899 0)
(1.87942 0.024571 0)
(1.88002 0.0238733 0)
(1.88075 0.023176 0)
(1.88192 0.0213987 0)
(1.8829 0.0190183 0)
(1.8836 0.0181843 0)
(1.8839 0.0183543 0)
(1.88451 0.0170843 0)
(1.88458 0.0162325 0)
(1.88484 0.0166099 0)
(1.88465 0.0171815 0)
(1.88433 0.0174972 0)
(1.88378 0.0180608 0)
(1.88247 0.0200567 0)
(1.87968 0.0247395 0)
(1.87459 0.0337493 0)
(1.86701 0.0476303 0)
(1.85769 0.066502 0)
(1.8463 0.090353 0)
(1.83365 0.116548 0)
(1.83081 0.129772 0)
(1.82067 0.150021 0)
(1.80896 0.177965 0)
(1.8066 0.183499 0)
(1.80858 0.183864 0)
(1.80554 0.191161 0)
(1.80167 0.200459 0)
(1.80136 0.204728 0)
(1.80238 0.204267 0)
(1.8053 0.203636 0)
(1.80826 0.205112 0)
(1.80942 0.206289 0)
(1.81112 0.207353 0)
(1.81287 0.207641 0)
(1.81481 0.207582 0)
(1.81705 0.207311 0)
(1.81952 0.206922 0)
(1.82197 0.206479 0)
(1.82441 0.205931 0)
(1.82663 0.204905 0)
(1.82923 0.203003 0)
(1.83206 0.20089 0)
(1.83507 0.198677 0)
(1.83817 0.196382 0)
(1.84127 0.193939 0)
(1.84412 0.191866 0)
(1.84633 0.190607 0)
(1.84927 0.188375 0)
(1.85244 0.18547 0)
(1.85478 0.184188 0)
(1.8567 0.183395 0)
(1.85926 0.181458 0)
(1.86181 0.179414 0)
(1.86434 0.177601 0)
(1.86648 0.176848 0)
(1.8682 0.176502 0)
(1.87068 0.17515 0)
(1.87312 0.173192 0)
(1.87487 0.172511 0)
(1.87622 0.172727 0)
(1.8779 0.171979 0)
(1.87967 0.170399 0)
(1.88087 0.169964 0)
(1.88197 0.169778 0)
(1.88309 0.169372 0)
(1.88405 0.169087 0)
(1.88521 0.168644 0)
(1.88642 0.168197 0)
(1.88739 0.167978 0)
(1.88837 0.167983 0)
(1.88943 0.167837 0)
(1.89044 0.167623 0)
(1.89163 0.167231 0)
(1.89297 0.16659 0)
(1.89418 0.166341 0)
(1.89531 0.166284 0)
(1.89697 0.165489 0)
(1.89879 0.16429 0)
(1.90044 0.163788 0)
(1.90192 0.16356 0)
(1.90407 0.162541 0)
(1.90665 0.160737 0)
(1.90876 0.159651 0)
(1.91055 0.159508 0)
(1.91266 0.158861 0)
(1.91527 0.157263 0)
(1.91756 0.155633 0)
(1.91943 0.155131 0)
(1.9214 0.15424 0)
(1.92451 0.151688 0)
(1.86188 0.0581072 0)
(1.86215 0.0572215 0)
(1.86204 0.0559019 0)
(1.8621 0.0548657 0)
(1.86267 0.0544132 0)
(1.86346 0.0540982 0)
(1.86445 0.0534611 0)
(1.86557 0.0525332 0)
(1.86666 0.0514349 0)
(1.86767 0.0503077 0)
(1.86851 0.0494823 0)
(1.86921 0.0488777 0)
(1.86972 0.0480951 0)
(1.86996 0.0468928 0)
(1.87001 0.0456555 0)
(1.87022 0.0446074 0)
(1.87095 0.0432573 0)
(1.87181 0.0423342 0)
(1.87265 0.0420485 0)
(1.87362 0.0412669 0)
(1.87463 0.039914 0)
(1.87533 0.0387885 0)
(1.87603 0.0374218 0)
(1.87631 0.0362846 0)
(1.87637 0.0361661 0)
(1.87642 0.0353635 0)
(1.87645 0.0333996 0)
(1.87625 0.0325723 0)
(1.87624 0.0320795 0)
(1.87694 0.0307306 0)
(1.87748 0.0294016 0)
(1.87801 0.0290232 0)
(1.87869 0.028558 0)
(1.87987 0.0269329 0)
(1.88073 0.0250673 0)
(1.88146 0.0242261 0)
(1.8821 0.0236519 0)
(1.88301 0.0218339 0)
(1.88366 0.0195916 0)
(1.88402 0.0194532 0)
(1.88417 0.0191453 0)
(1.88413 0.0180901 0)
(1.88426 0.0180703 0)
(1.88423 0.0183477 0)
(1.884 0.0189802 0)
(1.88355 0.019841 0)
(1.88241 0.0216305 0)
(1.87997 0.0259161 0)
(1.87551 0.034185 0)
(1.86913 0.0469758 0)
(1.86069 0.0652962 0)
(1.85058 0.0868665 0)
(1.84226 0.107544 0)
(1.83666 0.124043 0)
(1.82287 0.151232 0)
(1.81654 0.169269 0)
(1.81836 0.170037 0)
(1.81542 0.17914 0)
(1.80894 0.193485 0)
(1.80807 0.200599 0)
(1.80939 0.200028 0)
(1.81226 0.199738 0)
(1.8146 0.202607 0)
(1.81485 0.204823 0)
(1.81555 0.206217 0)
(1.81753 0.206418 0)
(1.81946 0.206136 0)
(1.82152 0.205811 0)
(1.82391 0.206163 0)
(1.82612 0.206446 0)
(1.82793 0.206454 0)
(1.82967 0.206105 0)
(1.83227 0.205205 0)
(1.835 0.203829 0)
(1.83781 0.202341 0)
(1.84068 0.200889 0)
(1.84356 0.19896 0)
(1.8462 0.196898 0)
(1.84855 0.195127 0)
(1.85139 0.192852 0)
(1.85427 0.19044 0)
(1.85687 0.188452 0)
(1.85918 0.186827 0)
(1.86137 0.185424 0)
(1.86398 0.183631 0)
(1.86683 0.181427 0)
(1.86908 0.180394 0)
(1.87068 0.180309 0)
(1.87293 0.178991 0)
(1.87523 0.176944 0)
(1.87683 0.17645 0)
(1.87832 0.175904 0)
(1.87964 0.175241 0)
(1.88102 0.174342 0)
(1.88247 0.173272 0)
(1.88357 0.172906 0)
(1.88454 0.172795 0)
(1.88575 0.172517 0)
(1.88692 0.172209 0)
(1.88795 0.171951 0)
(1.88906 0.171652 0)
(1.8901 0.17131 0)
(1.89119 0.171051 0)
(1.89229 0.170859 0)
(1.89337 0.170548 0)
(1.89473 0.169839 0)
(1.89614 0.169067 0)
(1.89734 0.168892 0)
(1.89873 0.168493 0)
(1.90092 0.16716 0)
(1.90288 0.166044 0)
(1.90453 0.165823 0)
(1.90638 0.165196 0)
(1.90907 0.163641 0)
(1.91147 0.162012 0)
(1.91333 0.161552 0)
(1.91549 0.160569 0)
(1.91791 0.159004 0)
(1.92025 0.157484 0)
(1.92235 0.15657 0)
(1.86017 0.0622977 0)
(1.86062 0.0611488 0)
(1.86067 0.0596393 0)
(1.86077 0.05862 0)
(1.86129 0.058316 0)
(1.86207 0.0581064 0)
(1.86304 0.0575854 0)
(1.86417 0.0567761 0)
(1.86523 0.0558139 0)
(1.8662 0.0549213 0)
(1.86702 0.0542601 0)
(1.86767 0.0537378 0)
(1.86811 0.0529831 0)
(1.86828 0.0517568 0)
(1.86832 0.0502697 0)
(1.86852 0.0490693 0)
(1.86917 0.047993 0)
(1.87007 0.0471238 0)
(1.87095 0.0467643 0)
(1.87195 0.046119 0)
(1.87301 0.0448495 0)
(1.87366 0.0437769 0)
(1.87423 0.0427861 0)
(1.87456 0.0416644 0)
(1.87458 0.0412949 0)
(1.87458 0.0404684 0)
(1.87465 0.0383992 0)
(1.87445 0.0373386 0)
(1.87435 0.036758 0)
(1.87517 0.0353806 0)
(1.87583 0.0340309 0)
(1.8764 0.0337058 0)
(1.87713 0.0332082 0)
(1.87823 0.0317875 0)
(1.87894 0.0302408 0)
(1.87954 0.0298393 0)
(1.88014 0.0291789 0)
(1.88105 0.0270832 0)
(1.88157 0.025065 0)
(1.88198 0.024194 0)
(1.88222 0.0233918 0)
(1.88319 0.0211776 0)
(1.88367 0.0198097 0)
(1.88402 0.0198237 0)
(1.88401 0.0195394 0)
(1.88405 0.0193255 0)
(1.88424 0.0194553 0)
(1.88421 0.0200539 0)
(1.88384 0.0210945 0)
(1.88304 0.0228691 0)
(1.88122 0.0264928 0)
(1.87773 0.0335113 0)
(1.87249 0.0445132 0)
(1.86502 0.0604713 0)
(1.85705 0.0784073 0)
(1.84943 0.097498 0)
(1.84082 0.11912 0)
(1.83012 0.144399 0)
(1.82835 0.153551 0)
(1.8292 0.161463 0)
(1.81949 0.179585 0)
(1.81717 0.192976 0)
(1.81799 0.192683 0)
(1.82063 0.193378 0)
(1.82058 0.197693 0)
(1.81988 0.202575 0)
(1.82027 0.204329 0)
(1.82203 0.204034 0)
(1.82445 0.203694 0)
(1.82662 0.204285 0)
(1.82831 0.204844 0)
(1.83033 0.205617 0)
(1.83208 0.205638 0)
(1.8341 0.205507 0)
(1.83633 0.205124 0)
(1.83884 0.204558 0)
(1.84122 0.204044 0)
(1.84357 0.203579 0)
(1.84577 0.202715 0)
(1.84816 0.20117 0)
(1.85075 0.199453 0)
(1.85346 0.197696 0)
(1.85626 0.195678 0)
(1.85895 0.193618 0)
(1.8615 0.1918 0)
(1.86378 0.190379 0)
(1.86624 0.188751 0)
(1.86906 0.186512 0)
(1.87125 0.185333 0)
(1.87303 0.184494 0)
(1.87484 0.183207 0)
(1.87688 0.181526 0)
(1.87858 0.180212 0)
(1.87997 0.179579 0)
(1.88106 0.179183 0)
(1.88255 0.178328 0)
(1.88393 0.177503 0)
(1.88529 0.176841 0)
(1.88638 0.176645 0)
(1.88738 0.176644 0)
(1.88843 0.176449 0)
(1.88964 0.175885 0)
(1.89061 0.175492 0)
(1.89162 0.175338 0)
(1.89289 0.174753 0)
(1.89401 0.174321 0)
(1.8949 0.174179 0)
(1.89638 0.17328 0)
(1.89807 0.172072 0)
(1.89957 0.171657 0)
(1.90102 0.171317 0)
(1.90334 0.170055 0)
(1.90552 0.16831 0)
(1.90733 0.168009 0)
(1.90911 0.167945 0)
(1.91147 0.166766 0)
(1.91382 0.165334 0)
(1.91585 0.164802 0)
(1.91772 0.164301 0)
(1.9205 0.162473 0)
(1.85818 0.0667046 0)
(1.85863 0.0655511 0)
(1.85883 0.0638588 0)
(1.85909 0.0627572 0)
(1.85965 0.0625023 0)
(1.86045 0.0622227 0)
(1.86163 0.0616128 0)
(1.86284 0.0607897 0)
(1.86393 0.0598611 0)
(1.8649 0.0590726 0)
(1.86571 0.0585565 0)
(1.86632 0.0581517 0)
(1.86664 0.0575286 0)
(1.86662 0.0564796 0)
(1.86644 0.0551237 0)
(1.86658 0.0539502 0)
(1.86717 0.0530931 0)
(1.86816 0.0523013 0)
(1.86914 0.0517247 0)
(1.87015 0.0510763 0)
(1.87122 0.0499628 0)
(1.87192 0.0488165 0)
(1.87248 0.0478644 0)
(1.87292 0.0467286 0)
(1.873 0.0460138 0)
(1.87296 0.0450483 0)
(1.87291 0.0431579 0)
(1.87265 0.042115 0)
(1.87255 0.0414411 0)
(1.87343 0.0400757 0)
(1.87412 0.038806 0)
(1.8747 0.0385454 0)
(1.87545 0.0380516 0)
(1.87651 0.0366888 0)
(1.8771 0.0354385 0)
(1.87759 0.0352623 0)
(1.87806 0.0346667 0)
(1.87873 0.0326608 0)
(1.87904 0.0309366 0)
(1.87918 0.0303375 0)
(1.8798 0.0288557 0)
(1.88091 0.0264077 0)
(1.88158 0.0247769 0)
(1.88208 0.0243543 0)
(1.88274 0.0233572 0)
(1.88359 0.0216397 0)
(1.88401 0.021054 0)
(1.88433 0.0214681 0)
(1.88421 0.0216794 0)
(1.88428 0.021492 0)
(1.88447 0.0214524 0)
(1.88434 0.0219083 0)
(1.8839 0.0232815 0)
(1.88269 0.0260619 0)
(1.88023 0.0315381 0)
(1.8763 0.0406052 0)
(1.87075 0.053556 0)
(1.86436 0.0693801 0)
(1.8572 0.0882773 0)
(1.84876 0.110267 0)
(1.84237 0.128933 0)
(1.84154 0.139817 0)
(1.83524 0.155866 0)
(1.82786 0.177324 0)
(1.82747 0.181701 0)
(1.83023 0.181932 0)
(1.82801 0.188269 0)
(1.82559 0.197453 0)
(1.82577 0.200778 0)
(1.82721 0.199834 0)
(1.83014 0.199609 0)
(1.83257 0.20172 0)
(1.83323 0.203256 0)
(1.83458 0.204327 0)
(1.83668 0.204381 0)
(1.83864 0.203907 0)
(1.84072 0.203504 0)
(1.84302 0.203788 0)
(1.8452 0.203908 0)
(1.84698 0.203891 0)
(1.84878 0.203663 0)
(1.85123 0.203185 0)
(1.85374 0.202272 0)
(1.85629 0.201257 0)
(1.85885 0.200238 0)
(1.86138 0.198804 0)
(1.86371 0.197207 0)
(1.86596 0.195832 0)
(1.86831 0.19441 0)
(1.87072 0.192667 0)
(1.87283 0.191004 0)
(1.87466 0.189655 0)
(1.87627 0.188446 0)
(1.87812 0.186955 0)
(1.87997 0.185423 0)
(1.88151 0.184502 0)
(1.88278 0.183927 0)
(1.88426 0.183109 0)
(1.88543 0.182631 0)
(1.88689 0.181936 0)
(1.88804 0.181506 0)
(1.889 0.181369 0)
(1.89001 0.18092 0)
(1.8911 0.180289 0)
(1.89214 0.179944 0)
(1.89301 0.179856 0)
(1.89413 0.179239 0)
(1.89537 0.178398 0)
(1.89635 0.178126 0)
(1.89805 0.177235 0)
(1.90006 0.175786 0)
(1.90168 0.17534 0)
(1.90333 0.174968 0)
(1.90586 0.17349 0)
(1.90805 0.172521 0)
(1.91063 0.17112 0)
(1.91263 0.170794 0)
(1.91481 0.169796 0)
(1.91645 0.168805 0)
(1.91834 0.167484 0)
(1.85671 0.0704041 0)
(1.85713 0.0693223 0)
(1.85737 0.0675955 0)
(1.85767 0.0665902 0)
(1.85823 0.0663487 0)
(1.85912 0.0658947 0)
(1.86047 0.0652763 0)
(1.86173 0.0644114 0)
(1.86285 0.063489 0)
(1.86385 0.0627549 0)
(1.86466 0.0622792 0)
(1.86526 0.0619039 0)
(1.86555 0.0612598 0)
(1.86538 0.0603191 0)
(1.86496 0.0592676 0)
(1.86505 0.0582122 0)
(1.86569 0.0574395 0)
(1.86656 0.0568328 0)
(1.86749 0.0562507 0)
(1.86841 0.0556744 0)
(1.86933 0.0548581 0)
(1.87007 0.0538418 0)
(1.87062 0.0529022 0)
(1.87104 0.0519016 0)
(1.87113 0.0510429 0)
(1.87101 0.0500078 0)
(1.87088 0.048262 0)
(1.8707 0.0471054 0)
(1.87078 0.0462112 0)
(1.87181 0.0448055 0)
(1.87264 0.0434799 0)
(1.87325 0.0430615 0)
(1.87411 0.0423349 0)
(1.87515 0.0408284 0)
(1.8757 0.0397569 0)
(1.87612 0.0397882 0)
(1.87654 0.0390805 0)
(1.87696 0.0371656 0)
(1.877 0.0359404 0)
(1.87696 0.0355115 0)
(1.87749 0.0341331 0)
(1.87844 0.031999 0)
(1.87906 0.0307975 0)
(1.87967 0.0301673 0)
(1.88079 0.0286526 0)
(1.8819 0.0264882 0)
(1.8826 0.025218 0)
(1.88304 0.0250464 0)
(1.88367 0.0239851 0)
(1.88411 0.0222733 0)
(1.88446 0.0220618 0)
(1.88449 0.0227646 0)
(1.88446 0.0227283 0)
(1.88469 0.0226745 0)
(1.88535 0.0228778 0)
(1.88536 0.0237023 0)
(1.88495 0.0256481 0)
(1.88367 0.0295331 0)
(1.88127 0.0363154 0)
(1.87752 0.0464097 0)
(1.87247 0.0600203 0)
(1.86632 0.076985 0)
(1.85955 0.0953557 0)
(1.85513 0.111389 0)
(1.85036 0.127381 0)
(1.84287 0.147142 0)
(1.83805 0.162721 0)
(1.83993 0.16522 0)
(1.83922 0.172615 0)
(1.83332 0.186261 0)
(1.83312 0.194112 0)
(1.83453 0.193138 0)
(1.83738 0.193671 0)
(1.83824 0.197257 0)
(1.8385 0.201076 0)
(1.83926 0.202046 0)
(1.84111 0.201672 0)
(1.84345 0.201238 0)
(1.84543 0.201499 0)
(1.84727 0.202008 0)
(1.8493 0.202728 0)
(1.85123 0.202838 0)
(1.85316 0.202838 0)
(1.8554 0.202733 0)
(1.85785 0.202488 0)
(1.86002 0.202242 0)
(1.86212 0.20219 0)
(1.86402 0.201822 0)
(1.86605 0.200937 0)
(1.86813 0.199976 0)
(1.87024 0.199057 0)
(1.87229 0.198143 0)
(1.87415 0.196956 0)
(1.87602 0.195533 0)
(1.87784 0.194292 0)
(1.87967 0.193135 0)
(1.88143 0.191926 0)
(1.88299 0.190918 0)
(1.88437 0.190258 0)
(1.8856 0.189851 0)
(1.88702 0.189061 0)
(1.88822 0.188358 0)
(1.88928 0.187793 0)
(1.89033 0.187117 0)
(1.89118 0.186758 0)
(1.8923 0.186014 0)
(1.89323 0.185563 0)
(1.89428 0.184918 0)
(1.89569 0.183751 0)
(1.89696 0.183245 0)
(1.89832 0.18277 0)
(1.90045 0.181316 0)
(1.90231 0.180856 0)
(1.90455 0.17996 0)
(1.90662 0.179575 0)
(1.90866 0.178844 0)
(1.91014 0.178196 0)
(1.91149 0.175872 0)
(1.91159 0.172451 0)
(1.90864 0.163246 0)
(1.8553 0.0739525 0)
(1.85591 0.0727202 0)
(1.85618 0.0710326 0)
(1.85644 0.0702364 0)
(1.85694 0.0698839 0)
(1.858 0.0692213 0)
(1.85941 0.0685973 0)
(1.86069 0.0676589 0)
(1.8618 0.0667579 0)
(1.86278 0.0661282 0)
(1.86359 0.0657184 0)
(1.86414 0.0653818 0)
(1.86433 0.0649032 0)
(1.86405 0.0641841 0)
(1.86352 0.0633606 0)
(1.86355 0.0625052 0)
(1.86422 0.061827 0)
(1.86499 0.0613051 0)
(1.86583 0.0607586 0)
(1.8667 0.0601205 0)
(1.86757 0.0593358 0)
(1.8683 0.0584578 0)
(1.86884 0.0576201 0)
(1.8692 0.0567178 0)
(1.86925 0.0557865 0)
(1.869 0.0547693 0)
(1.86874 0.0533215 0)
(1.86865 0.0521781 0)
(1.86895 0.0512401 0)
(1.86996 0.0499672 0)
(1.87077 0.0488113 0)
(1.87137 0.0482842 0)
(1.87227 0.047375 0)
(1.87328 0.0457407 0)
(1.87383 0.0446957 0)
(1.87422 0.0446843 0)
(1.87468 0.0437409 0)
(1.87502 0.0417686 0)
(1.87499 0.0407995 0)
(1.87486 0.0403289 0)
(1.87556 0.038887 0)
(1.8764 0.0371224 0)
(1.87694 0.0363483 0)
(1.87753 0.0357562 0)
(1.87872 0.0341871 0)
(1.87967 0.0321536 0)
(1.88029 0.0312207 0)
(1.88087 0.0305293 0)
(1.8818 0.0287455 0)
(1.88257 0.0263709 0)
(1.8831 0.0253913 0)
(1.88329 0.0252701 0)
(1.88403 0.0239287 0)
(1.88473 0.0226047 0)
(1.88545 0.0225544 0)
(1.88623 0.0232448 0)
(1.88678 0.0235488 0)
(1.88734 0.0236884 0)
(1.88809 0.0240364 0)
(1.88819 0.025256 0)
(1.88767 0.0277439 0)
(1.88627 0.0321027 0)
(1.88385 0.0392668 0)
(1.88014 0.0497567 0)
(1.87551 0.0629999 0)
(1.87034 0.078012 0)
(1.86551 0.093583 0)
(1.8596 0.11182 0)
(1.85346 0.130338 0)
(1.85113 0.141959 0)
(1.85173 0.150338 0)
(1.84605 0.16478 0)
(1.84248 0.180427 0)
(1.84338 0.182174 0)
(1.84655 0.182611 0)
(1.84512 0.187916 0)
(1.84385 0.195661 0)
(1.8443 0.197985 0)
(1.84579 0.196776 0)
(1.84903 0.19684 0)
(1.85056 0.19872 0)
(1.85162 0.200847 0)
(1.8535 0.201548 0)
(1.8558 0.201374 0)
(1.85808 0.200964 0)
(1.86007 0.2009 0)
(1.8622 0.201201 0)
(1.86424 0.201544 0)
(1.86576 0.201495 0)
(1.8673 0.201431 0)
(1.86919 0.20134 0)
(1.87116 0.201209 0)
(1.87292 0.20105 0)
(1.87465 0.200993 0)
(1.87629 0.200678 0)
(1.87816 0.200208 0)
(1.87997 0.199542 0)
(1.88166 0.199016 0)
(1.88327 0.198636 0)
(1.88474 0.198103 0)
(1.88597 0.19746 0)
(1.88706 0.196974 0)
(1.88827 0.196392 0)
(1.8894 0.195777 0)
(1.89033 0.195112 0)
(1.89113 0.194737 0)
(1.89206 0.19429 0)
(1.89316 0.193695 0)
(1.89437 0.192931 0)
(1.89574 0.192041 0)
(1.89721 0.191366 0)
(1.89901 0.190481 0)
(1.90087 0.189811 0)
(1.90296 0.188687 0)
(1.9053 0.187321 0)
(1.90519 0.184597 0)
(1.90447 0.179371 0)
(1.90093 0.170653 0)
(1.88811 0.148549 0)
(1.86796 0.115039 0)
(1.85438 0.0765602 0)
(1.85512 0.0753511 0)
(1.85537 0.0741484 0)
(1.85542 0.0737501 0)
(1.85558 0.0735751 0)
(1.85634 0.0729141 0)
(1.85777 0.0722326 0)
(1.85904 0.0712905 0)
(1.86021 0.0703095 0)
(1.86127 0.069609 0)
(1.86215 0.0692127 0)
(1.86278 0.0687369 0)
(1.86309 0.068047 0)
(1.863 0.0672625 0)
(1.86265 0.0664944 0)
(1.86269 0.0658034 0)
(1.86329 0.0652776 0)
(1.86398 0.0648457 0)
(1.86473 0.0643511 0)
(1.86551 0.0637418 0)
(1.86624 0.0630333 0)
(1.86686 0.0623134 0)
(1.86734 0.0616413 0)
(1.86762 0.0608883 0)
(1.86758 0.0599814 0)
(1.86718 0.0590732 0)
(1.86679 0.0579298 0)
(1.86692 0.0567529 0)
(1.86746 0.05582 0)
(1.86835 0.0547661 0)
(1.86911 0.053821 0)
(1.86973 0.0531738 0)
(1.87067 0.0520436 0)
(1.87158 0.0503276 0)
(1.87209 0.0493696 0)
(1.87242 0.0492015 0)
(1.87291 0.0479428 0)
(1.87314 0.0460439 0)
(1.8731 0.0453381 0)
(1.87303 0.0447699 0)
(1.87389 0.0434208 0)
(1.87461 0.041979 0)
(1.87508 0.0415089 0)
(1.87567 0.0409088 0)
(1.87672 0.0394124 0)
(1.87739 0.0377923 0)
(1.87789 0.0371887 0)
(1.87841 0.0364486 0)
(1.87937 0.0343319 0)
(1.88007 0.0320224 0)
(1.88052 0.0310796 0)
(1.88109 0.0301012 0)
(1.88232 0.0280977 0)
(1.88346 0.0260829 0)
(1.88455 0.02562 0)
(1.88534 0.0257077 0)
(1.88662 0.0250569 0)
(1.88746 0.0240155 0)
(1.88849 0.0240393 0)
(1.88904 0.024663 0)
(1.88964 0.0246892 0)
(1.89016 0.0244053 0)
(1.89091 0.0246459 0)
(1.89083 0.0259083 0)
(1.89037 0.0284407 0)
(1.88919 0.0327436 0)
(1.88704 0.0397879 0)
(1.88405 0.0494754 0)
(1.88034 0.0614181 0)
(1.87586 0.0758604 0)
(1.87113 0.0921553 0)
(1.86677 0.10801 0)
(1.86454 0.121091 0)
(1.86124 0.134607 0)
(1.85598 0.151028 0)
(1.85352 0.162162 0)
(1.85527 0.165007 0)
(1.85546 0.171043 0)
(1.85105 0.182137 0)
(1.85137 0.189518 0)
(1.85318 0.188605 0)
(1.85623 0.189017 0)
(1.85725 0.192843 0)
(1.85738 0.197566 0)
(1.85851 0.198991 0)
(1.86044 0.198523 0)
(1.8632 0.198475 0)
(1.86462 0.198987 0)
(1.86588 0.199851 0)
(1.86735 0.200402 0)
(1.86925 0.200183 0)
(1.87101 0.199733 0)
(1.87302 0.199915 0)
(1.87491 0.200395 0)
(1.87676 0.200694 0)
(1.87832 0.200823 0)
(1.87978 0.200892 0)
(1.88142 0.201109 0)
(1.88322 0.201328 0)
(1.88452 0.201745 0)
(1.88556 0.202094 0)
(1.8867 0.202196 0)
(1.88782 0.202203 0)
(1.88891 0.202375 0)
(1.88977 0.202605 0)
(1.8906 0.202878 0)
(1.89165 0.202812 0)
(1.89267 0.202596 0)
(1.89368 0.202524 0)
(1.89494 0.202459 0)
(1.8965 0.202159 0)
(1.89771 0.201472 0)
(1.89863 0.199804 0)
(1.89876 0.197067 0)
(1.8971 0.190683 0)
(1.89013 0.176288 0)
(1.87714 0.15426 0)
(1.8512 0.113021 0)
(1.82007 0.0667513 0)
(1.79554 0.0279928 0)
(1.85319 0.0793849 0)
(1.85419 0.0778046 0)
(1.85469 0.0766381 0)
(1.85484 0.0764217 0)
(1.85483 0.0762406 0)
(1.85548 0.0754078 0)
(1.8569 0.0745471 0)
(1.85812 0.0736692 0)
(1.85924 0.0727562 0)
(1.86024 0.0721984 0)
(1.86105 0.0721096 0)
(1.86156 0.0717981 0)
(1.86183 0.0710077 0)
(1.86184 0.0702303 0)
(1.86164 0.0697678 0)
(1.86157 0.0694039 0)
(1.86201 0.0689773 0)
(1.86272 0.0685836 0)
(1.86343 0.0681337 0)
(1.86414 0.0675741 0)
(1.8648 0.0669085 0)
(1.86535 0.0662043 0)
(1.86575 0.065564 0)
(1.86597 0.0649035 0)
(1.86586 0.0640492 0)
(1.86537 0.0631537 0)
(1.86492 0.0622119 0)
(1.86525 0.0611861 0)
(1.86587 0.060386 0)
(1.8666 0.0595825 0)
(1.86732 0.0587916 0)
(1.86801 0.0580401 0)
(1.86891 0.0568424 0)
(1.86967 0.0552336 0)
(1.87006 0.0543393 0)
(1.87034 0.053876 0)
(1.87083 0.0523136 0)
(1.87106 0.0505512 0)
(1.87108 0.0499706 0)
(1.87128 0.0491786 0)
(1.87238 0.0478468 0)
(1.87308 0.0465607 0)
(1.87352 0.0461725 0)
(1.87421 0.0454045 0)
(1.87512 0.0438341 0)
(1.87559 0.0425477 0)
(1.87594 0.0422829 0)
(1.87639 0.0414259 0)
(1.87709 0.0393366 0)
(1.87749 0.037616 0)
(1.87782 0.0369484 0)
(1.87852 0.0357846 0)
(1.88003 0.0335483 0)
(1.88134 0.0315989 0)
(1.88253 0.031029 0)
(1.88372 0.030372 0)
(1.88548 0.0286919 0)
(1.88678 0.0268272 0)
(1.88786 0.0263921 0)
(1.88842 0.0266586 0)
(1.88942 0.0255832 0)
(1.89013 0.024379 0)
(1.89094 0.0244458 0)
(1.89142 0.0247983 0)
(1.89209 0.0247575 0)
(1.89292 0.0247418 0)
(1.89377 0.0250339 0)
(1.89401 0.0262073 0)
(1.89393 0.0284636 0)
(1.8932 0.0323115 0)
(1.89175 0.0383209 0)
(1.8895 0.0469755 0)
(1.88642 0.0578436 0)
(1.88285 0.0702897 0)
(1.87937 0.0832948 0)
(1.8756 0.0974877 0)
(1.87172 0.112593 0)
(1.86784 0.127571 0)
(1.86666 0.137472 0)
(1.86683 0.146118 0)
(1.86372 0.15822 0)
(1.86139 0.170804 0)
(1.86226 0.174993 0)
(1.86613 0.175804 0)
(1.86516 0.181445 0)
(1.86362 0.189565 0)
(1.86453 0.192545 0)
(1.86597 0.191267 0)
(1.86862 0.191722 0)
(1.86946 0.193938 0)
(1.86987 0.197063 0)
(1.8711 0.197797 0)
(1.87298 0.197371 0)
(1.87571 0.197336 0)
(1.87736 0.198477 0)
(1.87848 0.199616 0)
(1.88023 0.200238 0)
(1.8818 0.200233 0)
(1.88345 0.200148 0)
(1.88495 0.200664 0)
(1.8863 0.201398 0)
(1.88768 0.201835 0)
(1.8887 0.202096 0)
(1.8895 0.202565 0)
(1.89044 0.203328 0)
(1.89161 0.204135 0)
(1.89256 0.205023 0)
(1.89298 0.206272 0)
(1.89379 0.207077 0)
(1.89476 0.207681 0)
(1.8958 0.207942 0)
(1.89545 0.205916 0)
(1.89155 0.199186 0)
(1.88081 0.183103 0)
(1.85941 0.151599 0)
(1.83313 0.113457 0)
(1.79834 0.0579938 0)
(1.77141 0.0161398 0)
(1.75143 -0.00894924 0)
(1.73334 -0.0391827 0)
(1.8512 0.0830243 0)
(1.85218 0.0814616 0)
(1.85277 0.0803613 0)
(1.85302 0.0802324 0)
(1.85294 0.0799839 0)
(1.85365 0.0788329 0)
(1.85471 0.0779533 0)
(1.85601 0.0770646 0)
(1.85734 0.0759291 0)
(1.85845 0.075313 0)
(1.8594 0.0752959 0)
(1.86024 0.0747451 0)
(1.86087 0.0735028 0)
(1.86115 0.0724148 0)
(1.86126 0.0719397 0)
(1.86127 0.0716911 0)
(1.86162 0.0712912 0)
(1.86232 0.0709107 0)
(1.86303 0.070451 0)
(1.86368 0.0698697 0)
(1.8642 0.0693467 0)
(1.8646 0.0688627 0)
(1.86485 0.0683316 0)
(1.86487 0.0678425 0)
(1.86455 0.0673249 0)
(1.86397 0.0665494 0)
(1.86364 0.0656799 0)
(1.86397 0.0649463 0)
(1.8645 0.0643692 0)
(1.86511 0.0637864 0)
(1.86574 0.0631562 0)
(1.86641 0.0624579 0)
(1.8672 0.0614105 0)
(1.86781 0.0600674 0)
(1.86808 0.0591909 0)
(1.8683 0.0583297 0)
(1.86868 0.0565784 0)
(1.86887 0.0551535 0)
(1.86897 0.0546805 0)
(1.86953 0.0537731 0)
(1.87072 0.0524374 0)
(1.87139 0.051388 0)
(1.87185 0.0509572 0)
(1.87266 0.049938 0)
(1.87347 0.0482178 0)
(1.87385 0.0471547 0)
(1.87408 0.0469404 0)
(1.8745 0.0458133 0)
(1.87495 0.0437658 0)
(1.87518 0.042598 0)
(1.8754 0.042196 0)
(1.87635 0.0408996 0)
(1.87785 0.0389246 0)
(1.87907 0.0375719 0)
(1.88024 0.0370775 0)
(1.88166 0.0360588 0)
(1.88348 0.0340061 0)
(1.88485 0.0321257 0)
(1.88592 0.0315861 0)
(1.88683 0.0309409 0)
(1.88812 0.0289509 0)
(1.88912 0.0268131 0)
(1.88998 0.0264143 0)
(1.89044 0.0262702 0)
(1.89178 0.0253558 0)
(1.8927 0.024308 0)
(1.89396 0.0243591 0)