/*--------------------------------*- C++ -*----------------------------------*\
  =========                 |
  \\      /  F ield         | OpenFOAM: The Open Source CFD Toolbox
   \\    /   O peration     | Website:  https://openfoam.org
    \\  /    A nd           | Version:  7
     \\/     M anipulation  |
\*---------------------------------------------------------------------------*/
FoamFile
{
    version     2.0;
    format      ascii;
    class       volScalarField;
    location    "4";
    object      T;
}
// * * * * * * * * * * * * * * * * * * * * * * * * * * * * * * * * * * * * * //

dimensions      [0 0 0 1 0 0 0];

internalField   nonuniform List<scalar> 
2413
(
1.10973
1.10821
1.10625
1.10391
1.10146
1.09909
1.09733
1.09609
1.09538
1.09572
1.09645
1.09793
1.09996
1.10256
1.10574
1.10924
1.11287
1.11709
1.12222
1.1276
1.13317
1.13891
1.14472
1.1505
1.15616
1.16168
1.16705
1.17204
1.17666
1.18134
1.18642
1.19133
1.19692
1.20357
1.21219
1.22318
1.23659
1.2528
1.27215
1.29418
1.31774
1.34101
1.36303
1.38271
1.3993
1.41239
1.42163
1.42702
1.43022
1.43136
1.43046
1.42779
1.42406
1.42117
1.42226
1.42869
1.43756
1.44379
1.44675
1.44651
1.44473
1.44364
1.44459
1.44797
1.45419
1.46319
1.47508
1.48944
1.50656
1.52622
1.54783
1.57037
1.59236
1.61249
1.62968
1.64371
1.6543
1.66087
1.66406
1.66494
1.66468
1.6636
1.66118
1.65709
1.65074
1.64149
1.62895
1.61319
1.06385
1.06606
1.0684
1.07004
1.07126
1.07233
1.07338
1.07461
1.07616
1.07801
1.08017
1.08265
1.08551
1.08876
1.09225
1.09593
1.09974
1.10375
1.10814
1.1129
1.11794
1.12335
1.12903
1.13508
1.1413
1.14745
1.15296
1.15786
1.16239
1.16681
1.17108
1.17494
1.17882
1.18332
1.18746
1.19208
1.19739
1.20473
1.21465
1.2275
1.24333
1.26234
1.28428
1.30844
1.33305
1.35654
1.37796
1.39643
1.4109
1.42107
1.42721
1.43065
1.43172
1.43115
1.43082
1.43247
1.43859
1.44848
1.45786
1.46401
1.46695
1.46671
1.46728
1.46918
1.4731
1.47919
1.4874
1.49801
1.51127
1.52701
1.54468
1.56397
1.58424
1.60437
1.62306
1.63934
1.65245
1.66286
1.6705
1.67524
1.6773
1.67747
1.67673
1.67461
1.67078
1.66489
1.65643
1.64463
1.06085
1.06124
1.06268
1.06418
1.06568
1.06714
1.06861
1.07021
1.07204
1.07402
1.07615
1.0785
1.08117
1.08415
1.08735
1.09063
1.0942
1.09772
1.10106
1.1047
1.10862
1.1129
1.11752
1.12264
1.12818
1.13413
1.1401
1.14597
1.15158
1.15652
1.16061
1.16412
1.16755
1.17094
1.17408
1.17717
1.18026
1.1837
1.18744
1.19212
1.19887
1.20812
1.22065
1.23639
1.25545
1.27754
1.30247
1.32892
1.35457
1.37754
1.39671
1.41139
1.42137
1.42716
1.43002
1.43201
1.43556
1.44221
1.4527
1.46344
1.47183
1.47826
1.48173
1.48421
1.48741
1.49204
1.49838
1.50658
1.51675
1.52903
1.54331
1.5593
1.57671
1.59493
1.6132
1.63038
1.64566
1.65847
1.6685
1.67622
1.68205
1.68589
1.68748
1.68729
1.68603
1.68334
1.67851
1.67131
1.07065
1.06901
1.06883
1.06915
1.07005
1.0712
1.07238
1.07361
1.07504
1.0767
1.07857
1.08065
1.0829
1.08531
1.08784
1.09038
1.09328
1.0964
1.09922
1.102
1.10485
1.10789
1.11119
1.11488
1.11894
1.12348
1.1286
1.13426
1.14021
1.14592
1.15118
1.15598
1.16029
1.16359
1.16594
1.16808
1.17041
1.17308
1.17514
1.17736
1.17996
1.18292
1.18705
1.19346
1.20237
1.21477
1.23108
1.25122
1.27469
1.30083
1.32821
1.35476
1.37838
1.39739
1.41113
1.42021
1.42662
1.4325
1.43999
1.45038
1.46235
1.47345
1.48206
1.48846
1.49265
1.49749
1.50337
1.51027
1.51864
1.52866
1.54045
1.55381
1.56861
1.58448
1.60103
1.61754
1.63349
1.64793
1.66036
1.67067
1.67859
1.68454
1.68896
1.69233
1.69426
1.69407
1.69229
1.68898
1.0855
1.08223
1.08038
1.07943
1.07919
1.07945
1.08001
1.08073
1.08162
1.08269
1.08397
1.08544
1.08708
1.08883
1.09064
1.09247
1.09448
1.09682
1.09909
1.10125
1.10348
1.10571
1.10808
1.11065
1.11347
1.11665
1.12023
1.1243
1.12901
1.13444
1.14026
1.14611
1.15149
1.15588
1.15927
1.16225
1.1648
1.16677
1.16849
1.16996
1.17144
1.17248
1.17406
1.17602
1.17846
1.18228
1.18864
1.19781
1.21073
1.22799
1.24944
1.27436
1.30166
1.32941
1.35527
1.3774
1.39504
1.40851
1.4192
1.42928
1.44045
1.4533
1.46639
1.47812
1.48813
1.49535
1.50184
1.50848
1.51567
1.52388
1.53338
1.54445
1.55703
1.57079
1.58542
1.60054
1.61579
1.63053
1.64444
1.65693
1.6676
1.67629
1.68321
1.68835
1.69199
1.69425
1.69623
1.69637
1.09826
1.09414
1.09134
1.08949
1.08845
1.08779
1.08776
1.08789
1.0883
1.08892
1.08971
1.09065
1.09172
1.09291
1.09419
1.09557
1.09699
1.0986
1.10026
1.10184
1.10342
1.10508
1.10686
1.10859
1.11039
1.11237
1.11471
1.11748
1.12067
1.12445
1.12904
1.13446
1.14026
1.14587
1.15085
1.15519
1.15878
1.16166
1.16403
1.16571
1.16704
1.16749
1.16828
1.16922
1.16969
1.17055
1.17192
1.17373
1.17738
1.18398
1.19387
1.2079
1.22658
1.24936
1.275
1.30212
1.32858
1.35243
1.37291
1.39038
1.40584
1.4201
1.43465
1.44985
1.46472
1.47802
1.48893
1.4987
1.50716
1.51468
1.5222
1.53071
1.54072
1.55217
1.56476
1.5782
1.59217
1.60633
1.62033
1.63374
1.64618
1.6574
1.6671
1.67514
1.68151
1.68653
1.69019
1.69249
1.10856
1.10419
1.10078
1.09821
1.0964
1.09518
1.0945
1.09405
1.09408
1.09418
1.09452
1.09506
1.09574
1.09653
1.0974
1.09838
1.09941
1.10052
1.10176
1.103
1.10419
1.10539
1.1066
1.1078
1.10905
1.11045
1.11205
1.11389
1.11587
1.11804
1.12068
1.12404
1.12842
1.13365
1.13928
1.14483
1.15001
1.15451
1.1583
1.16109
1.16305
1.16437
1.16518
1.16612
1.16619
1.16641
1.16628
1.16583
1.16612
1.16704
1.16864
1.17252
1.1798
1.19076
1.20601
1.22568
1.24877
1.27354
1.2988
1.32332
1.34603
1.36677
1.3861
1.40422
1.42189
1.43934
1.45593
1.47084
1.48387
1.49491
1.5043
1.5127
1.5208
1.5295
1.53922
1.55012
1.56207
1.57488
1.58814
1.60157
1.61472
1.62735
1.639
1.64952
1.65865
1.6666
1.6731
1.67836
1.11708
1.11271
1.10904
1.10607
1.10373
1.10192
1.1006
1.09968
1.09915
1.0988
1.09882
1.09891
1.09915
1.09957
1.10011
1.10074
1.10147
1.10222
1.10304
1.10393
1.1049
1.10589
1.10677
1.10761
1.10842
1.10931
1.11034
1.11143
1.11259
1.11385
1.11537
1.1173
1.1198
1.12301
1.12721
1.1323
1.13791
1.1436
1.14892
1.15341
1.157
1.15974
1.16166
1.16315
1.16403
1.16451
1.16413
1.16339
1.16296
1.16221
1.16082
1.16089
1.16166
1.16342
1.16779
1.1761
1.18783
1.20342
1.22282
1.2449
1.26802
1.29133
1.31455
1.33724
1.35917
1.38056
1.40113
1.4205
1.43852
1.45533
1.47051
1.4835
1.49445
1.50397
1.51252
1.52096
1.52989
1.53979
1.55063
1.5624
1.57469
1.58726
1.59964
1.6116
1.62279
1.63305
1.64217
1.65011
1.1241
1.11996
1.11626
1.11311
1.11048
1.1083
1.10651
1.1051
1.10405
1.10332
1.10286
1.10256
1.10251
1.10258
1.10273
1.10299
1.10339
1.10387
1.10439
1.10499
1.10563
1.10634
1.10706
1.10776
1.10843
1.109
1.10957
1.1102
1.11091
1.11169
1.11258
1.11359
1.11479
1.11634
1.11842
1.12136
1.12542
1.13053
1.13623
1.14193
1.14711
1.15159
1.15518
1.15805
1.16026
1.16161
1.16225
1.16219
1.16182
1.16069
1.15911
1.1581
1.15686
1.155
1.15516
1.1564
1.15866
1.16337
1.17223
1.18428
1.19931
1.21724
1.2375
1.25905
1.28108
1.30358
1.32626
1.34892
1.37124
1.39273
1.4131
1.43199
1.44901
1.46397
1.47676
1.48786
1.49746
1.50599
1.51424
1.52289
1.53224
1.54244
1.55326
1.56459
1.57603
1.58726
1.59797
1.60798
1.1298
1.12601
1.12251
1.11935
1.11655
1.11413
1.11207
1.11033
1.1089
1.10775
1.10687
1.10624
1.10585
1.10561
1.10545
1.1054
1.10545
1.1056
1.10585
1.1062
1.10656
1.10697
1.10745
1.10796
1.10846
1.10892
1.1093
1.10964
1.11
1.11043
1.11088
1.11131
1.11179
1.11248
1.11345
1.11483
1.1167
1.11948
1.12344
1.12847
1.1339
1.13944
1.1445
1.149
1.1529
1.15577
1.15796
1.15938
1.1599
1.15946
1.15858
1.15754
1.15565
1.15331
1.15212
1.15097
1.14945
1.14974
1.15145
1.15453
1.15928
1.16754
1.17907
1.19276
1.2088
1.2269
1.24661
1.26753
1.28924
1.31155
1.33415
1.3567
1.37868
1.3995
1.4184
1.43533
1.45021
1.46302
1.47419
1.48393
1.49253
1.5006
1.50863
1.51714
1.52623
1.53586
1.54582
1.5559
1.13453
1.13108
1.12783
1.12476
1.12191
1.11937
1.11715
1.11522
1.11352
1.11205
1.11083
1.10988
1.10918
1.10866
1.10824
1.10791
1.10766
1.10754
1.10753
1.10759
1.10771
1.10787
1.10811
1.10842
1.10871
1.10899
1.10925
1.1095
1.10972
1.10991
1.11004
1.11017
1.11033
1.11059
1.11097
1.11149
1.11213
1.11319
1.11482
1.11742
1.12108
1.1257
1.13086
1.13617
1.14141
1.1459
1.14985
1.15297
1.15503
1.15623
1.15664
1.15627
1.15496
1.15312
1.15174
1.14972
1.14743
1.14631
1.14548
1.14456
1.14485
1.14653
1.14998
1.15475
1.16168
1.1713
1.18336
1.19743
1.21352
1.23141
1.25081
1.2715
1.29312
1.31532
1.33717
1.35847
1.37863
1.39707
1.41398
1.42884
1.44189
1.45326
1.46312
1.47186
1.4799
1.48759
1.49532
1.5033
1.13856
1.13537
1.13231
1.12939
1.12663
1.12407
1.12175
1.11967
1.1178
1.11613
1.11467
1.11345
1.11246
1.11167
1.11102
1.11047
1.11
1.10963
1.10934
1.10913
1.109
1.10898
1.10902
1.10911
1.1092
1.10927
1.10936
1.1095
1.10964
1.10971
1.10969
1.10966
1.10964
1.10967
1.1097
1.10973
1.1098
1.11006
1.11059
1.11152
1.11286
1.11491
1.11809
1.12228
1.12725
1.13254
1.13769
1.14242
1.1462
1.1491
1.15127
1.15251
1.15234
1.15177
1.15093
1.14929
1.14721
1.14557
1.1439
1.142
1.14097
1.14017
1.13976
1.14026
1.14147
1.14412
1.14831
1.15407
1.16208
1.17215
1.18423
1.19809
1.2139
1.2316
1.25062
1.27064
1.29085
1.31137
1.33152
1.35063
1.36886
1.38535
1.40034
1.41361
1.42523
1.43529
1.44402
1.45186
1.14202
1.13909
1.13619
1.13338
1.13073
1.12824
1.12591
1.12374
1.12174
1.11993
1.11831
1.11688
1.11565
1.1146
1.11372
1.11298
1.11235
1.11178
1.11127
1.11082
1.11046
1.11022
1.11006
1.10996
1.10986
1.10976
1.10971
1.10971
1.10971
1.10967
1.10961
1.10953
1.10942
1.10929
1.10912
1.10889
1.10867
1.10855
1.10862
1.1088
1.10909
1.10958
1.11031
1.11199
1.11479
1.11871
1.12339
1.12847
1.13339
1.1377
1.14153
1.14445
1.14622
1.14732
1.14762
1.14717
1.14615
1.14492
1.14343
1.14148
1.1399
1.13841
1.13688
1.13612
1.13528
1.13443
1.1346
1.13556
1.13768
1.1411
1.1458
1.15186
1.15982
1.16963
1.18126
1.19454
1.20922
1.22559
1.24285
1.26147
1.28022
1.29893
1.31722
1.33452
1.35063
1.36532
1.3784
1.38984
1.14504
1.14228
1.13957
1.13692
1.13437
1.13194
1.12963
1.12743
1.12537
1.12345
1.12171
1.12012
1.1187
1.11745
1.11637
1.11544
1.11462
1.11387
1.11319
1.11258
1.11205
1.11161
1.11122
1.11088
1.1106
1.11036
1.11022
1.1101
1.10993
1.10977
1.10963
1.1095
1.10935
1.10914
1.10886
1.10853
1.10821
1.10793
1.10771
1.10751
1.10729
1.10703
1.10706
1.10733
1.10795
1.1092
1.11149
1.1148
1.11888
1.12334
1.12795
1.13223
1.13572
1.13859
1.14054
1.14173
1.14216
1.14199
1.14148
1.14023
1.13898
1.13783
1.13627
1.13481
1.13322
1.13157
1.13048
1.12979
1.12903
1.12894
1.1294
1.13072
1.13313
1.13661
1.1411
1.14687
1.15407
1.16272
1.17279
1.18489
1.19818
1.21328
1.22893
1.24562
1.26234
1.27884
1.29479
1.30982
1.14775
1.14515
1.14259
1.14009
1.13764
1.13526
1.13296
1.13077
1.12869
1.12672
1.12488
1.12316
1.12158
1.12017
1.11892
1.11782
1.11683
1.11593
1.1151
1.11434
1.11367
1.11305
1.11246
1.11193
1.11146
1.11106
1.11078
1.11053
1.11027
1.11003
1.1098
1.10957
1.10932
1.10902
1.10869
1.10836
1.10804
1.1077
1.10734
1.10693
1.10646
1.10594
1.10553
1.10533
1.10529
1.10537
1.10563
1.10629
1.10771
1.11013
1.11348
1.11748
1.12162
1.12556
1.12908
1.13194
1.13388
1.1354
1.1362
1.13624
1.13608
1.13567
1.1349
1.13371
1.13236
1.13088
1.12935
1.12792
1.12637
1.12488
1.12399
1.12345
1.12297
1.12308
1.12356
1.12482
1.12692
1.12979
1.13355
1.13843
1.14453
1.15216
1.16101
1.17148
1.18292
1.1956
1.20902
1.22283
1.15023
1.14776
1.14531
1.14291
1.14054
1.13823
1.13598
1.13379
1.1317
1.12971
1.12782
1.12603
1.12435
1.1228
1.12138
1.1201
1.11895
1.11791
1.11697
1.1161
1.1153
1.11453
1.11377
1.11308
1.11244
1.11188
1.11143
1.11102
1.11064
1.11034
1.11003
1.10969
1.10934
1.10894
1.10855
1.10821
1.10788
1.10752
1.10712
1.10664
1.10609
1.10549
1.10497
1.10457
1.10421
1.10381
1.10343
1.10315
1.10296
1.10305
1.10352
1.10517
1.10774
1.11097
1.1146
1.11813
1.1214
1.12431
1.12644
1.12825
1.12943
1.13017
1.13079
1.13049
1.13003
1.12931
1.12823
1.12694
1.12545
1.12383
1.12227
1.12074
1.11934
1.1182
1.11748
1.11701
1.11652
1.11648
1.11674
1.11745
1.11893
1.12121
1.12434
1.12844
1.13331
1.13936
1.1464
1.15448
1.15255
1.15016
1.14778
1.14544
1.14315
1.14091
1.13871
1.13656
1.13447
1.13245
1.13052
1.12868
1.12694
1.1253
1.12376
1.12233
1.12103
1.11985
1.11877
1.11779
1.11688
1.11599
1.11513
1.1143
1.11351
1.1128
1.11218
1.11161
1.11112
1.11071
1.11028
1.10984
1.1094
1.10892
1.10849
1.10812
1.10773
1.10733
1.1069
1.1064
1.10588
1.1053
1.10478
1.10433
1.10381
1.10318
1.10254
1.10193
1.10137
1.1008
1.10026
1.0999
1.10004
1.1006
1.10207
1.10422
1.10685
1.10986
1.11294
1.11581
1.11827
1.12056
1.12233
1.12353
1.12444
1.12492
1.12485
1.12442
1.12362
1.12253
1.12113
1.11954
1.11805
1.11649
1.11503
1.11377
1.11257
1.11164
1.11087
1.11013
1.10962
1.10921
1.10927
1.10972
1.11065
1.11224
1.11447
1.11736
1.15461
1.1523
1.15001
1.14774
1.14551
1.14332
1.14117
1.13908
1.13703
1.13503
1.13309
1.13122
1.12942
1.1277
1.12608
1.12455
1.12313
1.12181
1.1206
1.11947
1.11843
1.11744
1.11649
1.11557
1.11467
1.11383
1.11306
1.11233
1.11172
1.11117
1.11061
1.11007
1.10953
1.10897
1.10849
1.10806
1.10759
1.10714
1.10668
1.10616
1.10568
1.10516
1.10465
1.1042
1.10362
1.1029
1.10217
1.10146
1.10076
1.10003
1.09923
1.09848
1.09783
1.09712
1.09636
1.09591
1.09606
1.09708
1.09888
1.10121
1.10397
1.1068
1.10957
1.11216
1.11425
1.11606
1.11751
1.11834
1.11876
1.11871
1.11824
1.11731
1.11621
1.11489
1.11348
1.11211
1.11074
1.10948
1.10823
1.10703
1.10594
1.10481
1.10385
1.10306
1.1025
1.10217
1.10208
1.10225
1.15641
1.15421
1.15204
1.14985
1.14767
1.14552
1.14342
1.14138
1.1394
1.13744
1.1355
1.1336
1.13176
1.13
1.12834
1.12674
1.12523
1.1238
1.12245
1.12118
1.12001
1.11891
1.11787
1.50168
1.51574
1.52576
1.53134
1.53363
1.53379
1.53088
1.52326
1.51125
1.49599
1.47848
1.46065
1.44455
1.43152
1.34976
1.36146
1.37248
1.38242
1.39123
1.39875
1.40508
1.41046
1.41505
1.41891
1.4221
1.42466
1.42673
1.42852
1.42999
1.43102
1.43134
1.43108
1.4304
1.4296
1.42794
1.42513
1.42116
1.41608
1.40986
1.40261
1.39414
1.38398
1.37239
1.36066
1.34955
1.33926
1.33036
1.32335
1.31831
1.31455
1.31168
1.30971
1.3086
1.3082
1.30819
1.30843
1.30882
1.30899
1.30872
1.30847
1.30887
1.31165
1.32071
1.33291
1.34088
1.34352
1.34292
1.34062
1.33813
1.33734
1.33801
1.33926
1.34091
1.34341
1.34731
1.35279
1.35994
1.36865
1.37877
1.39028
1.40303
1.41677
1.43116
1.44577
1.46037
1.47483
1.48928
1.5036
1.51714
1.5288
1.53758
1.54296
1.54556
1.54616
1.54366
1.53611
1.5236
1.5075
1.48808
1.46814
1.451
1.43831
1.34636
1.35564
1.36409
1.37169
1.37843
1.384
1.38884
1.39318
1.39713
1.40076
1.40404
1.40733
1.41074
1.41432
1.41786
1.42115
1.42433
1.42734
1.42992
1.43174
1.43253
1.43239
1.43142
1.42994
1.4282
1.4251
1.42012
1.41318
1.40462
1.39499
1.38427
1.37212
1.36001
1.34942
1.34021
1.33239
1.32617
1.32186
1.31891
1.31663
1.31492
1.31396
1.31367
1.31361
1.31333
1.31277
1.31262
1.31366
1.31904
1.33043
1.34139
1.34705
1.34844
1.34687
1.34449
1.34331
1.34401
1.34564
1.34796
1.35117
1.3558
1.36217
1.37039
1.38057
1.39254
1.40591
1.42042
1.4359
1.4519
1.46788
1.48333
1.4978
1.51108
1.52303
1.53358
1.54256
1.5496
1.55432
1.55693
1.55783
1.55602
1.54965
1.53779
1.52182
1.50188
1.48073
1.46194
1.44804
1.34101
1.34682
1.35167
1.35549
1.35846
1.36055
1.36181
1.3625
1.36318
1.36416
1.36582
1.36816
1.37128
1.37527
1.38008
1.38574
1.39221
1.39916
1.40609
1.41233
1.41801
1.42306
1.42734
1.4306
1.4325
1.43292
1.43185
1.42969
1.42694
1.42227
1.41525
1.40609
1.39581
1.38535
1.37388
1.36233
1.35252
1.34456
1.33795
1.33244
1.3283
1.32562
1.32391
1.32258
1.32125
1.31962
1.31826
1.31804
1.3201
1.32823
1.34049
1.34948
1.35339
1.35362
1.35155
1.34978
1.34996
1.35155
1.35437
1.35814
1.36335
1.37041
1.37962
1.39095
1.40456
1.42
1.43667
1.45389
1.47121
1.48822
1.5044
1.51908
1.5318
1.54236
1.55081
1.5575
1.56263
1.56625
1.56842
1.56929
1.56801
1.56309
1.55259
1.53779
1.51874
1.49688
1.4761
1.45997
1.33067
1.33199
1.33208
1.33132
1.32944
1.32692
1.32382
1.32057
1.31741
1.31476
1.31295
1.3123
1.31289
1.31499
1.31875
1.32424
1.33142
1.33999
1.34967
1.36015
1.37133
1.38283
1.39413
1.40465
1.41365
1.42113
1.42683
1.43065
1.43257
1.43241
1.43029
1.427
1.42272
1.41629
1.40775
1.39783
1.38796
1.37798
1.36745
1.35802
1.3508
1.34523
1.34071
1.3369
1.3339
1.33135
1.32873
1.32676
1.32615
1.32938
1.33926
1.35077
1.35796
1.36071
1.35966
1.35752
1.3564
1.35755
1.36026
1.36423
1.36967
1.3771
1.3869
1.39931
1.41413
1.43125
1.44999
1.46944
1.48873
1.50703
1.52375
1.53853
1.55108
1.56096
1.56816
1.57322
1.57668
1.57905
1.58047
1.58104
1.58
1.57608
1.56704
1.55381
1.53714
1.51575
1.49327
1.47361
1.31752
1.31517
1.31111
1.30629
1.30003
1.29304
1.28548
1.27826
1.27156
1.26578
1.26113
1.25779
1.25599
1.25564
1.25663
1.25937
1.26395
1.27036
1.27858
1.28857
1.30025
1.31335
1.32736
1.34196
1.35728
1.37282
1.38799
1.40187
1.41327
1.42178
1.42723
1.43009
1.4311
1.42992
1.42681
1.42261
1.4171
1.41006
1.40136
1.3923
1.38356
1.37449
1.36569
1.35845
1.35295
1.34857
1.34458
1.34047
1.33736
1.33658
1.34124
1.352
1.36203
1.36749
1.369
1.36708
1.3649
1.36452
1.36628
1.36992
1.37523
1.38256
1.3924
1.40507
1.42083
1.4392
1.45943
1.48082
1.50216
1.5223
1.54058
1.55622
1.56885
1.57827
1.58479
1.58896
1.59148
1.59302
1.59377
1.59387
1.59268
1.58896
1.5814
1.56984
1.55514
1.53545
1.51284
1.49
1.30409
1.29885
1.29198
1.28404
1.27508
1.26559
1.25596
1.24669
1.23816
1.23064
1.22433
1.21928
1.21566
1.21358
1.21304
1.21356
1.21522
1.21828
1.22277
1.22886
1.2365
1.24593
1.25719
1.27021
1.28489
1.30102
1.31827
1.33621
1.35436
1.37228
1.38933
1.40415
1.41572
1.42326
1.42723
1.42879
1.42876
1.4268
1.42322
1.41847
1.41276
1.40572
1.39778
1.38988
1.38184
1.3738
1.36627
1.35974
1.35422
1.35021
1.34971
1.35538
1.36597
1.3743
1.37828
1.37837
1.37605
1.37401
1.37422
1.37645
1.38099
1.38769
1.39687
1.40904
1.42447
1.44311
1.46451
1.48725
1.51024
1.53232
1.55282
1.5703
1.58415
1.59428
1.60102
1.6048
1.60666
1.60756
1.60792
1.6077
1.6063
1.60271
1.59637
1.5862
1.57275
1.55547
1.53407
1.51016
1.29025
1.28226
1.27308
1.26279
1.25199
1.24101
1.23033
1.2202
1.21098
1.20285
1.19601
1.19051
1.18625
1.18342
1.18237
1.18252
1.18339
1.18509
1.18766
1.19111
1.19545
1.20079
1.20729
1.21535
1.22525
1.23673
1.25003
1.26537
1.28254
1.30124
1.321
1.34094
1.3604
1.37882
1.39543
1.40928
1.41932
1.42509
1.42758
1.42795
1.42725
1.42494
1.4209
1.41612
1.41046
1.40362
1.39607
1.38817
1.38004
1.37221
1.36649
1.36574
1.37177
1.38146
1.38828
1.39108
1.39008
1.38752
1.38569
1.38638
1.38924
1.39455
1.40239
1.41306
1.42675
1.44398
1.46449
1.48743
1.51205
1.53675
1.55954
1.57904
1.59503
1.60722
1.61529
1.61979
1.62187
1.62254
1.62265
1.6223
1.62084
1.61751
1.61193
1.603
1.59067
1.57565
1.55638
1.53354
1.25891
1.24806
1.23704
1.22596
1.21503
1.20441
1.1944
1.18525
1.17707
1.17013
1.16455
1.16024
1.1574
1.15562
1.15551
1.15631
1.15794
1.16035
1.16361
1.16764
1.17213
1.17682
1.18161
1.18651
1.19173
1.19759
1.20452
1.2131
1.22392
1.23685
1.25218
1.26963
1.28884
1.30925
1.33047
1.35176
1.37196
1.38999
1.40482
1.41623
1.42351
1.4276
1.42892
1.4284
1.42692
1.42417
1.41996
1.41475
1.40796
1.40011
1.39222
1.38595
1.38506
1.39076
1.39929
1.40485
1.40666
1.40502
1.40242
1.40105
1.40205
1.40528
1.4111
1.41961
1.43105
1.4459
1.46392
1.48523
1.50908
1.53385
1.55821
1.58083
1.6005
1.61568
1.62627
1.63283
1.63617
1.63729
1.63736
1.63705
1.63572
1.63285
1.62805
1.62066
1.60995
1.59631
1.57909
1.55857
1.19161
1.18181
1.17233
1.16337
1.15507
1.1476
1.1412
1.13585
1.13146
1.12846
1.12621
1.12531
1.12558
1.12645
1.12815
1.13054
1.13351
1.13725
1.14185
1.14682
1.15204
1.15734
1.16259
1.16761
1.17259
1.17771
1.18312
1.18869
1.19468
1.20072
1.20815
1.21757
1.22926
1.24362
1.26098
1.28103
1.30284
1.3251
1.34719
1.36843
1.38759
1.40356
1.41573
1.42345
1.42769
1.43016
1.43032
1.42921
1.42674
1.4226
1.41714
1.4107
1.40521
1.4053
1.41087
1.41909
1.42464
1.42636
1.42434
1.42157
1.42017
1.42113
1.42425
1.43037
1.43979
1.45181
1.46661
1.48493
1.50582
1.52895
1.55322
1.57691
1.5985
1.6169
1.63164
1.64185
1.64785
1.65068
1.65145
1.65127
1.65034
1.64827
1.64449
1.6385
1.62969
1.61777
1.60267
1.58485
)
;

boundaryField
{
    inlet
    {
        type            fixedValue;
        value           nonuniform 0();
    }
    outlet
    {
        type            inletOutlet;
        inletValue      nonuniform 0();
        value           nonuniform 0();
    }
    bottom
    {
        type            symmetryPlane;
    }
    top
    {
        type            symmetryPlane;
    }
    obstacle
    {
        type            zeroGradient;
    }
    front
    {
        type            empty;
    }
    back
    {
        type            empty;
    }
    procBoundary19to2
    {
        type            processor;
        value           nonuniform List<scalar> 
23
(
1.11056
1.06191
1.06104
1.07397
1.09057
1.10374
1.11386
1.12197
1.12849
1.13379
1.13814
1.14183
1.14497
1.14782
1.33833
1.33697
1.33432
1.32813
1.31846
1.30813
1.29649
1.26944
1.20146
)
;
    }
    procBoundary19to10
    {
        type            processor;
        value           nonuniform List<scalar> 5(1.15037 1.15271 1.15493 1.15691 1.15864);
    }
    procBoundary19to11
    {
        type            processor;
        value           nonuniform List<scalar> 
89
(
1.48659
1.50221
1.51274
1.51824
1.52032
1.52034
1.51782
1.51147
1.50117
1.4881
1.47317
1.45745
1.44191
1.42787
1.35282
1.36587
1.3781
1.38902
1.39833
1.40661
1.41364
1.4189
1.4228
1.42568
1.4279
1.42938
1.43001
1.43007
1.42974
1.42903
1.42751
1.425
1.42164
1.41738
1.41239
1.40657
1.39984
1.39212
1.38337
1.37375
1.36364
1.35309
1.34257
1.33284
1.32468
1.31841
1.31362
1.31017
1.30786
1.30648
1.30575
1.30541
1.30528
1.30526
1.30531
1.30545
1.30562
1.30557
1.30533
1.30535
1.30645
1.31195
1.32336
1.3339
1.33877
1.33929
1.3375
1.33447
1.33202
1.33135
1.33174
1.33244
1.33341
1.33518
1.33825
1.34276
1.34868
1.35588
1.36435
1.37405
1.38491
1.39672
1.40923
1.42226
1.43604
1.45102
1.46748
1.4849
1.4849
)
;
    }
    procBoundary19to12
    {
        type            processor;
        value           uniform 1.4236;
    }
    procBoundary19to20
    {
        type            processor;
        value           nonuniform List<scalar> 
27
(
1.59512
1.62965
1.66141
1.68409
1.69517
1.69331
1.68219
1.65685
1.61715
1.56589
1.51165
1.45918
1.39971
1.32372
1.2372
1.16379
1.12105
1.10279
1.43193
1.44073
1.45012
1.46005
1.47245
1.48829
1.50902
1.53433
1.56297
)
;
    }
    procBoundary19to27
    {
        type            processor;
        value           nonuniform List<scalar> 
89
(
1.11686
1.11588
1.11494
1.11405
1.11319
1.11245
1.11175
1.11105
1.11041
1.10977
1.10914
1.10859
1.10808
1.10752
1.10701
1.10652
1.10597
1.10549
1.105
1.10449
1.10404
1.10343
1.10269
1.10199
1.10127
1.10054
1.09975
1.09888
1.09804
1.09721
1.09625
1.09511
1.0939
1.09269
1.09157
1.09085
1.0907
1.09153
1.09306
1.09515
1.09765
1.10031
1.10293
1.10538
1.10757
1.10931
1.11061
1.11142
1.11176
1.11161
1.11119
1.11045
1.10956
1.10852
1.10746
1.10636
1.10517
1.10398
1.10269
1.10143
1.10017
1.09905
1.09806
1.09717
1.09642
1.15798
1.15591
1.15385
1.15176
1.14966
1.14757
1.14553
1.14357
1.14164
1.13972
1.1378
1.13589
1.13403
1.13224
1.13054
1.1289
1.12732
1.12579
1.12433
1.12295
1.12166
1.12044
1.11686
1.11931
)
;
    }
}


// ************************************************************************* //
