/*--------------------------------*- C++ -*----------------------------------*\
  =========                 |
  \\      /  F ield         | OpenFOAM: The Open Source CFD Toolbox
   \\    /   O peration     | Website:  https://openfoam.org
    \\  /    A nd           | Version:  7
     \\/     M anipulation  |
\*---------------------------------------------------------------------------*/
FoamFile
{
    version     2.0;
    format      ascii;
    class       volScalarField;
    location    "13";
    object      rho;
}
// * * * * * * * * * * * * * * * * * * * * * * * * * * * * * * * * * * * * * //

dimensions      [1 -3 0 0 0 0 0];

internalField   nonuniform List<scalar> 
2413
(
1.19524
1.19437
1.19822
1.20851
1.22238
1.24233
1.25404
1.25697
1.25922
1.25802
1.25586
1.25826
1.25941
1.25846
1.26106
1.26337
1.26192
1.26181
1.26271
1.2626
1.26068
1.25854
1.26013
1.2622
1.26394
1.26991
1.28436
1.30883
1.34432
1.38589
1.42536
1.45998
1.4721
1.4747
1.4761
1.47792
1.47969
1.48288
1.48852
1.49408
1.49852
1.50268
1.50706
1.51196
1.51661
1.52133
1.52713
1.53429
1.54198
1.55053
1.55812
1.56196
1.5636
1.56494
1.56512
1.56434
1.56396
1.56254
1.55841
1.55593
1.5546
1.55158
1.54893
1.54836
1.54678
1.54483
1.54497
1.54455
1.54242
1.54195
1.54167
1.53932
1.53797
1.53783
1.53605
1.53392
1.53326
1.53163
1.52927
1.52853
1.52768
1.52521
1.52336
1.52297
1.5219
1.51933
1.51569
1.51033
1.50508
1.50227
1.49861
1.49254
1.48496
1.47671
1.47116
1.36214
1.35946
1.35509
1.35137
1.34928
1.34625
1.34177
1.33664
1.33316
1.33065
1.32677
1.32142
1.31664
1.31281
1.30854
1.30364
1.29858
1.29376
1.28884
1.28331
1.27773
1.27307
1.2681
1.26156
1.25446
1.2501
1.24566
1.23899
1.23181
1.22808
1.22389
1.21647
1.21099
1.20757
1.20246
1.20019
1.2009
1.20037
1.20102
1.20773
1.21971
1.2372
1.26019
1.26947
1.27161
1.27375
1.27219
1.27111
1.27343
1.27403
1.27354
1.2749
1.27748
1.27707
1.27402
1.27371
1.27341
1.27157
1.26842
1.26852
1.27137
1.27236
1.27496
1.28453
1.30436
1.336
1.37886
1.42424
1.46499
1.4797
1.48244
1.4838
1.4848
1.48482
1.48753
1.49287
1.49744
1.50113
1.50496
1.50916
1.51343
1.51754
1.52142
1.52644
1.5327
1.53954
1.54744
1.55576
1.56033
1.56232
1.56341
1.56337
1.56274
1.56201
1.55983
1.55575
1.55435
1.55291
1.54982
1.54776
1.54693
1.54503
1.5435
1.54346
1.5426
1.54101
1.54091
1.54042
1.53797
1.53656
1.53646
1.53506
1.53326
1.5326
1.53095
1.52919
1.5287
1.52762
1.52516
1.52373
1.52338
1.52214
1.5196
1.51607
1.51059
1.50501
1.50285
1.49998
1.49394
1.48588
1.47866
1.47528
1.35694
1.3546
1.35066
1.3468
1.34452
1.3415
1.33721
1.33226
1.3289
1.32622
1.32229
1.31721
1.31306
1.30927
1.30495
1.30021
1.29531
1.29062
1.28596
1.28094
1.27546
1.27088
1.26666
1.26141
1.25504
1.24997
1.24556
1.23963
1.23335
1.22962
1.22589
1.21987
1.21415
1.20907
1.20451
1.20406
1.20498
1.20474
1.20717
1.2157
1.22934
1.25015
1.27393
1.28023
1.28127
1.28377
1.28281
1.28237
1.28366
1.28355
1.28542
1.28537
1.28548
1.28643
1.28432
1.28176
1.28088
1.27938
1.27698
1.275
1.27678
1.27837
1.27918
1.28472
1.29955
1.32571
1.3675
1.4166
1.46342
1.48547
1.48916
1.49041
1.49094
1.49082
1.49407
1.49893
1.50238
1.50541
1.50835
1.51139
1.51468
1.51789
1.52173
1.52655
1.53245
1.5389
1.54629
1.55479
1.56016
1.56238
1.56312
1.5628
1.56192
1.56097
1.55911
1.55658
1.55502
1.55259
1.54908
1.54724
1.54572
1.54364
1.54266
1.54217
1.54091
1.53986
1.53993
1.53935
1.53709
1.53577
1.53572
1.5347
1.53325
1.53181
1.53023
1.52954
1.52913
1.52764
1.52525
1.52408
1.52376
1.52258
1.52008
1.51631
1.51056
1.50577
1.50423
1.50118
1.4947
1.48657
1.48141
1.47881
1.35148
1.3494
1.34582
1.34199
1.33963
1.3367
1.33259
1.32783
1.32458
1.32171
1.31771
1.31303
1.30942
1.30577
1.30161
1.2971
1.2924
1.28792
1.28353
1.27897
1.27391
1.26922
1.26523
1.26052
1.2546
1.24997
1.24605
1.24092
1.23515
1.2306
1.22625
1.22173
1.21704
1.211
1.20741
1.20781
1.20824
1.20824
1.21161
1.22066
1.23625
1.26029
1.28242
1.28659
1.2873
1.28976
1.28932
1.28831
1.29017
1.29007
1.29133
1.29176
1.29173
1.2923
1.29064
1.28784
1.28647
1.2844
1.2814
1.27932
1.28093
1.28283
1.2828
1.28565
1.29601
1.31631
1.35297
1.40492
1.45827
1.49054
1.49646
1.4977
1.49767
1.49824
1.50167
1.50486
1.50744
1.51003
1.51224
1.51372
1.51656
1.51968
1.52331
1.5278
1.5334
1.53966
1.54667
1.55519
1.56114
1.56334
1.56378
1.56296
1.5615
1.5604
1.55882
1.55716
1.55547
1.55268
1.54963
1.54746
1.5452
1.54341
1.54254
1.54157
1.53999
1.53916
1.53924
1.53855
1.53653
1.53537
1.53534
1.53465
1.53308
1.53123
1.53032
1.5302
1.52957
1.52773
1.52546
1.5245
1.52443
1.52331
1.52051
1.5162
1.51061
1.50735
1.50569
1.50164
1.49468
1.4877
1.48424
1.48217
1.34642
1.34435
1.34103
1.33709
1.33462
1.33183
1.32791
1.32339
1.32029
1.3173
1.31335
1.30911
1.30583
1.30237
1.29845
1.29419
1.28971
1.28541
1.28121
1.27686
1.27198
1.26781
1.26425
1.26007
1.25441
1.24943
1.24558
1.24087
1.23608
1.23183
1.22748
1.22321
1.21832
1.21218
1.20969
1.21026
1.21098
1.21147
1.21493
1.22433
1.24236
1.26886
1.28877
1.29142
1.29193
1.29444
1.29427
1.29307
1.29514
1.29647
1.29629
1.29723
1.29858
1.29861
1.29607
1.29289
1.2915
1.28906
1.28608
1.28408
1.28483
1.28652
1.28644
1.2877
1.29478
1.30985
1.33878
1.38964
1.44809
1.49251
1.5037
1.50521
1.50594
1.50718
1.509
1.511
1.51304
1.51501
1.5161
1.51675
1.51959
1.52237
1.52543
1.52952
1.53455
1.54044
1.54694
1.55521
1.56206
1.56451
1.56483
1.56393
1.56284
1.56179
1.56008
1.55807
1.55567
1.55277
1.55023
1.54801
1.54569
1.54431
1.54339
1.54212
1.5403
1.53933
1.53897
1.538
1.53616
1.53507
1.53505
1.53446
1.5328
1.53114
1.5306
1.5306
1.52974
1.52779
1.52568
1.52499
1.52512
1.52376
1.52051
1.51572
1.51118
1.50904
1.50653
1.5015
1.49445
1.48955
1.48718
1.48548
1.34047
1.33859
1.33563
1.33183
1.32938
1.32686
1.32323
1.31892
1.31595
1.313
1.30925
1.30544
1.30243
1.29918
1.29547
1.29141
1.28714
1.28308
1.27915
1.27504
1.27021
1.26587
1.26236
1.2584
1.25327
1.24888
1.24521
1.2407
1.2359
1.23142
1.22759
1.22395
1.21955
1.21403
1.21145
1.21173
1.21245
1.21301
1.21687
1.22837
1.24959
1.27762
1.29559
1.29844
1.30016
1.30072
1.29938
1.30013
1.30149
1.30245
1.30332
1.30395
1.30505
1.30519
1.30248
1.2992
1.29779
1.29505
1.29148
1.28974
1.2896
1.29088
1.29114
1.29134
1.29576
1.30658
1.32783
1.37202
1.43312
1.48959
1.51131
1.5135
1.51439
1.51515
1.51584
1.51699
1.51854
1.51989
1.52019
1.52066
1.5236
1.52623
1.52857
1.53208
1.53616
1.54143
1.54744
1.5551
1.56238
1.56514
1.56525
1.56426
1.56347
1.56234
1.56054
1.55861
1.55646
1.55398
1.5515
1.54911
1.54692
1.54561
1.54437
1.54269
1.54074
1.53973
1.53907
1.53786
1.53598
1.53489
1.53482
1.53414
1.53251
1.53114
1.53083
1.53083
1.5298
1.52773
1.52594
1.52567
1.5257
1.52376
1.51992
1.5153
1.51216
1.51
1.50653
1.50093
1.49489
1.49175
1.48989
1.48827
1.33448
1.33263
1.32986
1.32624
1.32386
1.32168
1.31844
1.31434
1.31141
1.30857
1.30507
1.30155
1.29869
1.29569
1.2922
1.28836
1.28426
1.28037
1.27673
1.27296
1.26872
1.26467
1.2609
1.25681
1.25145
1.2471
1.24375
1.23985
1.23574
1.2313
1.22721
1.22363
1.21927
1.21445
1.21265
1.21329
1.21387
1.21458
1.21918
1.23197
1.25503
1.28405
1.30177
1.30576
1.30757
1.30734
1.30623
1.30835
1.30889
1.31003
1.31264
1.31216
1.31242
1.31299
1.31128
1.30761
1.30536
1.30281
1.29822
1.29703
1.29627
1.2962
1.29704
1.2968
1.29887
1.30616
1.32102
1.35507
1.4139
1.47941
1.5167
1.52172
1.52228
1.52247
1.52245
1.52256
1.52338
1.52429
1.52411
1.52528
1.52827
1.53062
1.53269
1.53555
1.53875
1.54285
1.54823
1.55464
1.56209
1.56551
1.56558
1.56495
1.56458
1.5638
1.56225
1.56037
1.55832
1.55604
1.55361
1.55121
1.54916
1.54749
1.54564
1.54335
1.54118
1.53989
1.53887
1.53767
1.53598
1.5349
1.53467
1.53388
1.5323
1.5312
1.53109
1.53101
1.52971
1.52754
1.52637
1.52651
1.52584
1.52298
1.51878
1.51531
1.51296
1.51024
1.50607
1.50028
1.49589
1.49377
1.49209
1.49045
1.32844
1.32662
1.32397
1.32052
1.31825
1.31641
1.31355
1.30969
1.30679
1.30411
1.30097
1.29758
1.29476
1.29189
1.28855
1.2849
1.28096
1.27704
1.27351
1.26998
1.26593
1.26202
1.2586
1.25499
1.25061
1.24628
1.24239
1.23847
1.23453
1.23022
1.22682
1.22371
1.21924
1.21453
1.2133
1.21381
1.21413
1.21518
1.22039
1.2343
1.25941
1.29037
1.30909
1.31383
1.3149
1.31397
1.31408
1.31697
1.31724
1.31882
1.3219
1.32149
1.32175
1.32207
1.32027
1.31765
1.31414
1.31121
1.3069
1.30437
1.30418
1.30294
1.30312
1.30351
1.30402
1.30775
1.31757
1.34105
1.39201
1.45989
1.51602
1.52877
1.52902
1.529
1.52862
1.52793
1.52824
1.52871
1.52834
1.53004
1.5327
1.53461
1.53662
1.53945
1.54224
1.54516
1.54964
1.55418
1.56042
1.56481
1.5657
1.56557
1.56536
1.56468
1.56361
1.56239
1.56085
1.55886
1.55648
1.55403
1.55178
1.54957
1.54709
1.54423
1.5418
1.54012
1.53871
1.53735
1.53568
1.53472
1.53441
1.53354
1.53205
1.53123
1.53129
1.53103
1.52935
1.52746
1.52708
1.52707
1.52527
1.52166
1.51786
1.51548
1.51318
1.50991
1.50525
1.49986
1.49711
1.49545
1.49385
1.49232
1.32203
1.32035
1.31783
1.31469
1.31266
1.31117
1.30863
1.30505
1.30206
1.29948
1.29659
1.29335
1.29058
1.28802
1.28508
1.28179
1.27819
1.27424
1.27027
1.26664
1.26275
1.25891
1.2557
1.25225
1.24818
1.24452
1.24113
1.2378
1.23428
1.22959
1.22589
1.22305
1.21885
1.21462
1.21386
1.21438
1.21458
1.21569
1.22107
1.23571
1.26221
1.29478
1.31588
1.32099
1.32138
1.32029
1.32146
1.32479
1.32498
1.32688
1.3296
1.32921
1.32939
1.32978
1.32741
1.32497
1.32198
1.31786
1.31431
1.31022
1.30989
1.30982
1.30879
1.30911
1.30889
1.3103
1.31607
1.33117
1.36942
1.43423
1.50379
1.5327
1.53462
1.53456
1.53444
1.53331
1.53326
1.53309
1.53297
1.53484
1.53668
1.53826
1.54014
1.54203
1.54408
1.54764
1.55103
1.55313
1.55821
1.56311
1.56587
1.56675
1.56684
1.56671
1.56614
1.56513
1.56374
1.56185
1.55952
1.557
1.55437
1.55161
1.54857
1.54527
1.54253
1.54029
1.53838
1.5368
1.53523
1.53438
1.53393
1.53302
1.5317
1.53112
1.53129
1.53072
1.52881
1.52775
1.52782
1.52695
1.5242
1.52032
1.51733
1.51555
1.51298
1.50911
1.50429
1.49999
1.49824
1.49684
1.49527
1.49391
1.31445
1.31326
1.31115
1.30824
1.30637
1.30513
1.30289
1.29978
1.29673
1.29409
1.29136
1.2883
1.28513
1.28252
1.28
1.27711
1.27399
1.27086
1.26776
1.26464
1.26109
1.25684
1.25302
1.24951
1.24572
1.24239
1.23905
1.23586
1.23284
1.22927
1.22605
1.22298
1.21828
1.21429
1.21366
1.21398
1.21419
1.21553
1.22111
1.23611
1.2636
1.29791
1.32185
1.32703
1.32703
1.32604
1.328
1.33097
1.3308
1.3328
1.33497
1.33443
1.33454
1.33484
1.33232
1.3292
1.32673
1.32203
1.31848
1.31506
1.31279
1.3132
1.3126
1.31289
1.31324
1.31321
1.31583
1.32496
1.35012
1.40575
1.4785
1.53046
1.53944
1.53943
1.5395
1.53863
1.5382
1.53808
1.53816
1.53899
1.54007
1.54152
1.5431
1.54438
1.54589
1.54793
1.5492
1.55083
1.55582
1.56138
1.56593
1.56857
1.569
1.569
1.56871
1.56807
1.56698
1.56521
1.56284
1.56007
1.55696
1.55369
1.55022
1.5466
1.54341
1.54066
1.53827
1.53628
1.53458
1.53367
1.53315
1.53231
1.53116
1.53085
1.53099
1.52998
1.52835
1.52808
1.528
1.52632
1.52312
1.51923
1.51709
1.5155
1.51223
1.50768
1.50358
1.50076
1.49929
1.49806
1.49651
1.49522
1.30698
1.30652
1.30498
1.30232
1.30024
1.29882
1.29681
1.29419
1.29125
1.28863
1.28609
1.28331
1.2802
1.27714
1.27474
1.27203
1.26906
1.26631
1.26359
1.26081
1.25786
1.25458
1.25126
1.24783
1.24373
1.24022
1.23701
1.23404
1.23136
1.22819
1.22536
1.22271
1.21848
1.21448
1.2137
1.21374
1.21375
1.215
1.22027
1.23479
1.26296
1.29865
1.32571
1.33243
1.33244
1.33184
1.3342
1.33606
1.33558
1.3376
1.33959
1.33876
1.33857
1.33879
1.33635
1.33251
1.3302
1.32604
1.3216
1.31882
1.3162
1.31626
1.31595
1.31555
1.31622
1.31598
1.31697
1.32224
1.33778
1.37843
1.44897
1.51659
1.54135
1.54371
1.5439
1.5436
1.54334
1.54332
1.54331
1.54347
1.54387
1.5446
1.54515
1.54532
1.54621
1.54754
1.54803
1.55034
1.55502
1.56057
1.56571
1.56975
1.57105
1.57111
1.57107
1.57084
1.57004
1.56831
1.56573
1.56264
1.55914
1.5554
1.55159
1.54778
1.54434
1.54118
1.53835
1.53604
1.53411
1.53295
1.53229
1.53144
1.53057
1.53055
1.53053
1.52917
1.52808
1.52814
1.52767
1.52553
1.52198
1.51862
1.51717
1.51515
1.51088
1.50602
1.50395
1.50201
1.50021
1.49902
1.49762
1.4963
1.29927
1.2989
1.29781
1.2959
1.29394
1.2918
1.28965
1.28721
1.28439
1.28174
1.27945
1.27707
1.27485
1.2731
1.27136
1.26895
1.26603
1.26268
1.25927
1.25623
1.25344
1.25056
1.24766
1.24486
1.24189
1.23906
1.23609
1.23281
1.23019
1.22726
1.22432
1.22174
1.21787
1.21415
1.21342
1.21357
1.2138
1.2153
1.22023
1.23339
1.26104
1.29693
1.32671
1.33696
1.33757
1.33794
1.34007
1.34079
1.3401
1.34203
1.34458
1.34382
1.34276
1.34277
1.34058
1.33628
1.33373
1.33025
1.32509
1.32298
1.32047
1.31945
1.31921
1.31821
1.31864
1.31892
1.31901
1.32186
1.33122
1.35742
1.41839
1.49322
1.53922
1.54792
1.54826
1.54765
1.54737
1.54759
1.54758
1.54728
1.54729
1.54743
1.54709
1.54669
1.54703
1.54692
1.54718
1.55007
1.55451
1.55979
1.56522
1.57045
1.57299
1.57349
1.57364
1.5736
1.57295
1.57115
1.56828
1.56483
1.56102
1.55693
1.55286
1.54903
1.54547
1.54201
1.53883
1.5362
1.53402
1.53252
1.53141
1.5303
1.5299
1.5302
1.52985
1.52844
1.5278
1.52795
1.52706
1.52446
1.52073
1.51845
1.5171
1.51435
1.50964
1.50577
1.50427
1.50269
1.5008
1.49961
1.49864
1.49737
1.29145
1.28989
1.28893
1.28777
1.28591
1.2835
1.28143
1.27966
1.27735
1.27475
1.27252
1.27063
1.26911
1.268
1.26631
1.26411
1.2618
1.25931
1.25648
1.25308
1.24951
1.24643
1.24378
1.24145
1.23896
1.23643
1.23397
1.23134
1.22908
1.22674
1.22399
1.22134
1.21747
1.21385
1.21289
1.21293
1.21297
1.21418
1.21854
1.23034
1.25698
1.29448
1.32795
1.34135
1.34273
1.34373
1.34535
1.34522
1.34467
1.34712
1.34984
1.34952
1.34783
1.34751
1.34572
1.34153
1.3385
1.33528
1.33017
1.32795
1.32598
1.32347
1.32312
1.32214
1.32153
1.32176
1.32141
1.32264
1.32809
1.34446
1.38938
1.46457
1.52948
1.55082
1.55192
1.55161
1.55154
1.55157
1.55119
1.55024
1.54957
1.54885
1.54744
1.54691
1.54679
1.54613
1.54735
1.55052
1.55482
1.55969
1.56485
1.57061
1.57452
1.57548
1.57581
1.57586
1.57532
1.57353
1.57051
1.56674
1.56263
1.55823
1.55389
1.55
1.54644
1.54293
1.53962
1.53679
1.5345
1.53273
1.53096
1.52968
1.5296
1.52964
1.5288
1.52775
1.52756
1.52774
1.52643
1.52324
1.51999
1.51868
1.51701
1.51359
1.509
1.50603
1.50464
1.5032
1.50136
1.5002
1.49961
1.49862
1.28095
1.27879
1.2772
1.27655
1.27572
1.27376
1.27182
1.27071
1.27038
1.27028
1.26839
1.26647
1.2652
1.26323
1.26046
1.25799
1.25597
1.25387
1.25149
1.24905
1.24673
1.24432
1.24159
1.23889
1.23631
1.23377
1.23161
1.22933
1.22712
1.22499
1.22248
1.22025
1.21757
1.2144
1.21287
1.21263
1.21256
1.21326
1.21656
1.22639
1.25022
1.28877
1.32672
1.34574
1.34824
1.34918
1.35088
1.35065
1.3505
1.35305
1.3553
1.35518
1.35358
1.35345
1.35213
1.34855
1.34549
1.3421
1.33717
1.33451
1.33271
1.3294
1.32798
1.3275
1.32635
1.3258
1.32496
1.32467
1.32729
1.33711
1.36685
1.43198
1.50838
1.55007
1.55587
1.55603
1.556
1.55578
1.55468
1.55274
1.55089
1.54903
1.54799
1.54785
1.54705
1.54687
1.54877
1.55194
1.55576
1.56007
1.56484
1.57066
1.57524
1.57661
1.57695
1.57699
1.5765
1.57489
1.57209
1.56845
1.56433
1.55989
1.55545
1.55138
1.54768
1.54411
1.54073
1.53779
1.53538
1.53323
1.53094
1.52967
1.52926
1.52858
1.52765
1.52718
1.52745
1.52723
1.52511
1.52194
1.52023
1.51908
1.51659
1.51258
1.50842
1.50639
1.50513
1.5039
1.50223
1.50103
1.50059
1.49993
1.26743
1.26642
1.26523
1.2649
1.26462
1.26365
1.26264
1.2621
1.26254
1.26369
1.26254
1.26099
1.25992
1.25808
1.25538
1.25222
1.24992
1.24802
1.24612
1.24403
1.24199
1.24006
1.23824
1.23633
1.23439
1.23237
1.23024
1.22788
1.22537
1.2232
1.22091
1.2189
1.21687
1.21385
1.21169
1.21142
1.21138
1.21207
1.21508
1.22333
1.24367
1.28141
1.32245
1.34859
1.35334
1.35438
1.35665
1.35722
1.35719
1.35928
1.36123
1.36117
1.35958
1.35966
1.35891
1.35581
1.35313
1.34987
1.34495
1.34151
1.33934
1.33633
1.33373
1.33295
1.33162
1.33039
1.32938
1.32805
1.3289
1.33414
1.35263
1.40126
1.47806
1.54186
1.55913
1.56027
1.56041
1.55997
1.55796
1.55463
1.55166
1.54991
1.54932
1.54847
1.54779
1.5488
1.55125
1.55418
1.55701
1.56042
1.56476
1.57054
1.57581
1.57747
1.57763
1.57749
1.5768
1.57525
1.57283
1.56966
1.5659
1.56171
1.55735
1.5531
1.54921
1.54552
1.54211
1.53908
1.53654
1.53398
1.53135
1.52999
1.52898
1.52778
1.52704
1.52694
1.52725
1.52617
1.52342
1.52139
1.52061
1.51905
1.516
1.51181
1.50853
1.50694
1.50571
1.50465
1.50325
1.50205
1.50153
1.50111
1.24545
1.25168
1.25313
1.25447
1.25645
1.25831
1.2574
1.25572
1.25561
1.25591
1.25435
1.25223
1.25094
1.25001
1.2492
1.24753
1.24565
1.2444
1.24266
1.24021
1.23796
1.23608
1.23432
1.23259
1.23098
1.22952
1.2282
1.22654
1.22467
1.22286
1.22092
1.21866
1.21633
1.21307
1.2107
1.21009
1.20996
1.21035
1.21269
1.21923
1.236
1.27165
1.31585
1.35017
1.35913
1.36004
1.36205
1.36311
1.36308
1.36486
1.36706
1.36719
1.36591
1.36585
1.36522
1.3622
1.35946
1.35633
1.35164
1.34816
1.34536
1.34216
1.3393
1.33802
1.3363
1.33428
1.33324
1.33189
1.33136
1.33399
1.34507
1.37814
1.44491
1.52372
1.55995
1.56342
1.56349
1.56295
1.56009
1.55554
1.55252
1.55117
1.55001
1.54926
1.54999
1.55196
1.55445
1.55635
1.55832
1.5614
1.56534
1.56888
1.57288
1.57573
1.57655
1.57645
1.57595
1.57484
1.57312
1.57068
1.56754
1.56384
1.55969
1.55536
1.55123
1.54728
1.54376
1.54059
1.53776
1.53488
1.5322
1.53052
1.52916
1.5276
1.52682
1.52686
1.52652
1.52453
1.52224
1.52138
1.52077
1.51872
1.5152
1.51122
1.50911
1.50776
1.50649
1.50543
1.50427
1.50314
1.50252
1.50216
1.20857
1.22132
1.22949
1.23492
1.23958
1.24505
1.2465
1.24652
1.24781
1.24844
1.24661
1.24375
1.242
1.24107
1.24049
1.23992
1.23934
1.2392
1.23924
1.23786
1.23601
1.23414
1.23196
1.22987
1.22802
1.22646
1.22529
1.22414
1.22238
1.22061
1.21881
1.21704
1.21548
1.21334
1.21096
1.20975
1.20935
1.20937
1.21066
1.21536
1.22809
1.25922
1.30548
1.34756
1.36508
1.36665
1.36764
1.36813
1.36781
1.36919
1.37175
1.37214
1.37133
1.37127
1.37058
1.36777
1.3651
1.36178
1.35688
1.35334
1.35024
1.3468
1.34386
1.34208
1.34016
1.33707
1.33567
1.33493
1.334
1.33524
1.34175
1.36325
1.41505
1.49708
1.55654
1.56537
1.56538
1.56424
1.56052
1.55602
1.55349
1.55207
1.55123
1.55168
1.55324
1.55541
1.55667
1.55789
1.5602
1.56245
1.5639
1.5658
1.56871
1.57215
1.57447
1.575
1.57487
1.5743
1.57318
1.57143
1.569
1.56593
1.56218
1.55801
1.5538
1.54967
1.54604
1.54265
1.53944
1.53624
1.53331
1.53125
1.52965
1.5279
1.52692
1.52658
1.52545
1.52315
1.52166
1.52149
1.52061
1.51802
1.51436
1.51132
1.50988
1.50863
1.50738
1.50628
1.50524
1.50427
1.50364
1.50322
1.16528
1.18022
1.19549
1.20875
1.21699
1.22288
1.22815
1.23136
1.23309
1.23577
1.23719
1.23667
1.23705
1.23782
1.23628
1.23447
1.23368
1.23333
1.23301
1.23241
1.23134
1.23023
1.22956
1.2288
1.22717
1.22538
1.2236
1.22179
1.21984
1.218
1.21642
1.21492
1.21357
1.21189
1.20961
1.20824
1.20796
1.20796
1.20882
1.21237
1.22165
1.24618
1.29182
1.33938
1.36735
1.37221
1.37339
1.37414
1.37358
1.37395
1.37619
1.37691
1.37616
1.37607
1.37547
1.37269
1.37036
1.36708
1.36234
1.35866
1.35528
1.3515
1.34827
1.34589
1.3438
1.34071
1.3381
1.33716
1.33627
1.33684
1.34091
1.35458
1.39202
1.46499
1.54609
1.56599
1.56681
1.5652
1.5611
1.55753
1.55523
1.55382
1.55353
1.55416
1.55633
1.55777
1.55829
1.55984
1.56145
1.56208
1.56216
1.56271
1.5647
1.56757
1.57092
1.57303
1.57361
1.57355
1.57309
1.57208
1.57033
1.56785
1.56453
1.56059
1.55643
1.55229
1.54849
1.54482
1.5414
1.53807
1.53495
1.53255
1.5307
1.52881
1.52756
1.52654
1.52471
1.52225
1.52132
1.52132
1.51989
1.517
1.51372
1.51174
1.51057
1.50939
1.50825
1.5072
1.50629
1.50555
1.50496
1.50444
1.1383
1.14557
1.15515
1.16694
1.18
1.19046
1.19961
1.20937
1.21305
1.21666
1.2215
1.22405
1.22604
1.22898
1.22986
1.23
1.23091
1.2307
1.2287
1.22692
1.22573
1.22482
1.22445
1.22449
1.22319
1.22147
1.22027
1.21936
1.21808
1.21673
1.21538
1.21377
1.21179
1.20987
1.2079
1.20656
1.20625
1.20626
1.20684
1.20947
1.21617
1.23385
1.27442
1.32519
1.36355
1.37638
1.37864
1.37988
1.37936
1.37917
1.38097
1.38187
1.38111
1.38065
1.38014
1.37781
1.3758
1.37252
1.36796
1.36416
1.36025
1.35625
1.3529
1.35006
1.34755
1.34495
1.34215
1.3404
1.33936
1.3395
1.34201
1.35067
1.37595
1.43433
)
;

boundaryField
{
    inlet
    {
        type            calculated;
        value           nonuniform 0();
    }
    outlet
    {
        type            calculated;
        value           nonuniform 0();
    }
    bottom
    {
        type            symmetryPlane;
    }
    top
    {
        type            symmetryPlane;
    }
    obstacle
    {
        type            calculated;
        value           nonuniform 0();
    }
    front
    {
        type            empty;
    }
    back
    {
        type            empty;
    }
    procBoundary14to6
    {
        type            processor;
        value           nonuniform List<scalar> 
133
(
1.18868
1.18721
1.18877
1.19764
1.20902
1.22597
1.24046
1.24402
1.24635
1.24554
1.24252
1.24443
1.24503
1.24461
1.24777
1.24812
1.24776
1.24949
1.25113
1.25139
1.24939
1.2488
1.25137
1.25266
1.25626
1.26615
1.28463
1.3124
1.35055
1.39002
1.42444
1.45331
1.46487
1.46802
1.4701
1.4726
1.47553
1.47888
1.48419
1.48997
1.49542
1.5007
1.50609
1.51185
1.51758
1.52317
1.52979
1.53759
1.54564
1.55368
1.5606
1.56413
1.56527
1.56649
1.56722
1.56656
1.56594
1.5652
1.5617
1.55837
1.55751
1.55508
1.55195
1.55145
1.55018
1.54764
1.54745
1.54731
1.54498
1.54406
1.54388
1.54156
1.53994
1.53949
1.53742
1.53502
1.53431
1.53271
1.53006
1.52905
1.52827
1.52597
1.52369
1.52292
1.5218
1.51933
1.51554
1.50998
1.50512
1.50218
1.49787
1.49119
1.48344
1.47512
1.46701
1.36686
1.36395
1.35933
1.35602
1.35424
1.35102
1.34624
1.34087
1.33725
1.33485
1.33094
1.32538
1.32024
1.31633
1.31233
1.30738
1.30214
1.29716
1.29195
1.28586
1.28019
1.27526
1.2694
1.26198
1.2554
1.25063
1.2453
1.23829
1.23033
1.22584
1.22142
1.21438
1.20799
1.20447
1.19957
1.19509
1.19508
1.19508
)
;
    }
    procBoundary14to7
    {
        type            processor;
        value           uniform 1.46833;
    }
    procBoundary14to13
    {
        type            processor;
        value           nonuniform List<scalar> 
14
(
1.36382
1.35859
1.35334
1.34873
1.34274
1.33687
1.33096
1.32416
1.31639
1.30859
1.30054
1.29177
1.28122
1.26478
)
;
    }
    procBoundary14to15
    {
        type            processor;
        value           nonuniform List<scalar> 
17
(
1.47315
1.47716
1.48073
1.48398
1.48666
1.48888
1.49084
1.49268
1.49425
1.49548
1.49651
1.49767
1.49903
1.50037
1.50156
1.50268
1.50387
)
;
    }
    procBoundary14to21
    {
        type            processor;
        value           nonuniform List<scalar> 4(1.23721 1.19568 1.15138 1.13384);
    }
    procBoundary14to22
    {
        type            processor;
        value           nonuniform List<scalar> 
133
(
1.52495
1.56497
1.5675
1.5662
1.56313
1.5604
1.55829
1.55704
1.55635
1.55673
1.55863
1.5594
1.56024
1.56129
1.56147
1.56113
1.56046
1.56001
1.56112
1.5633
1.5664
1.57012
1.57218
1.57276
1.57276
1.57237
1.57129
1.56943
1.56675
1.56327
1.55935
1.55537
1.55147
1.54757
1.54396
1.54042
1.537
1.53415
1.53192
1.52991
1.52823
1.52652
1.5241
1.52187
1.52143
1.52106
1.51896
1.51589
1.51331
1.51208
1.51105
1.50997
1.50901
1.50819
1.50753
1.50699
1.50642
1.50581
1.13571
1.13628
1.13735
1.14008
1.14642
1.15581
1.16526
1.17519
1.1858
1.19393
1.20241
1.20835
1.21145
1.21499
1.21798
1.21988
1.22135
1.22215
1.22334
1.2242
1.22302
1.2209
1.21979
1.21924
1.21844
1.21705
1.21598
1.2153
1.21423
1.21293
1.21173
1.21075
1.20994
1.2088
1.20717
1.20575
1.20508
1.20487
1.20498
1.20651
1.21131
1.22338
1.25461
1.30677
1.35733
1.38131
1.38528
1.38643
1.38608
1.38601
1.38686
1.38733
1.38673
1.38559
1.38512
1.3837
1.38176
1.37857
1.37393
1.37001
1.36566
1.36076
1.35756
1.35485
1.35202
1.34964
1.34748
1.34513
1.34321
1.34299
1.34476
1.35023
1.36587
1.52495
1.40996
)
;
    }
}


// ************************************************************************* //
