/*--------------------------------*- C++ -*----------------------------------*\
  =========                 |
  \\      /  F ield         | OpenFOAM: The Open Source CFD Toolbox
   \\    /   O peration     | Website:  https://openfoam.org
    \\  /    A nd           | Version:  7
     \\/     M anipulation  |
\*---------------------------------------------------------------------------*/
FoamFile
{
    version     2.0;
    format      ascii;
    class       surfaceScalarField;
    location    "0.168";
    object      phi;
}
// * * * * * * * * * * * * * * * * * * * * * * * * * * * * * * * * * * * * * //

dimensions      [0 3 -1 0 0 0 0];

internalField   nonuniform List<scalar> 
18389
(
-7.98255e-05
7.98255e-05
4.35089e-05
-4.35089e-05
-5.20441e-05
5.20441e-05
4.00561e-05
-4.00561e-05
-5.18208e-05
5.18208e-05
-4.00216e-05
4.00216e-05
-3.43919e-05
3.43919e-05
3.8818e-05
-3.8818e-05
-3.48944e-05
3.48944e-05
4.14437e-05
-4.14437e-05
4.4668e-05
-4.4668e-05
-3.49861e-05
3.49861e-05
-1.20571e-05
1.20571e-05
-4.27816e-05
4.27816e-05
4.3425e-05
-4.3425e-05
2.3692e-05
-2.3692e-05
1.7647e-05
-1.7647e-05
4.58885e-05
-4.58885e-05
4.59211e-05
-4.59211e-05
4.33947e-05
-4.33947e-05
-4.25836e-05
4.25836e-05
3.55876e-05
-3.55876e-05
4.30287e-05
-4.30287e-05
-5.86318e-05
5.86318e-05
-4.97315e-05
4.97315e-05
-4.18168e-05
4.18168e-05
-4.45265e-05
4.45265e-05
4.56073e-05
-4.56073e-05
4.58462e-05
-4.58461e-05
4.4126e-05
-4.4126e-05
-4.1329e-05
4.1329e-05
-6.30509e-05
6.30509e-05
4.31053e-05
-4.31053e-05
-4.47326e-05
4.47326e-05
4.08566e-05
-4.08566e-05
4.66812e-05
-4.66812e-05
-4.56025e-05
4.56025e-05
5.36231e-05
-5.36231e-05
-5.89914e-05
5.89914e-05
3.7881e-05
-3.7881e-05
4.48817e-05
-4.48817e-05
4.53916e-05
-4.53916e-05
-4.10059e-05
4.10059e-05
4.49056e-05
-4.49056e-05
4.58611e-05
-4.58611e-05
-4.58438e-05
4.58438e-05
-4.58467e-05
4.58467e-05
-4.06527e-05
4.06527e-05
-4.58794e-05
4.58794e-05
4.59263e-05
-4.59263e-05
4.594e-05
-4.594e-05
4.46032e-05
-4.46032e-05
3.77206e-05
-3.77206e-05
-4.57638e-05
4.57638e-05
-5.55192e-05
5.55193e-05
-4.38029e-05
4.38029e-05
4.57652e-05
-4.57652e-05
-4.59844e-05
4.59844e-05
4.32194e-05
-4.32194e-05
-5.93114e-05
5.93114e-05
-4.71343e-05
4.71343e-05
4.96044e-05
-4.96044e-05
4.5718e-05
-4.5718e-05
-9.22689e-06
9.22692e-06
4.57793e-05
-4.57793e-05
4.14304e-05
-4.14304e-05
5.12023e-05
-5.12023e-05
-4.58566e-05
4.58566e-05
4.23539e-05
-4.23539e-05
3.21096e-05
-3.21096e-05
1.4857e-06
-1.4857e-06
-4.40869e-05
4.40869e-05
3.2869e-05
-3.2869e-05
-3.65796e-05
3.65796e-05
3.9785e-05
-3.9785e-05
2.66251e-05
-2.66251e-05
2.61905e-05
-2.61905e-05
2.70503e-05
-2.70503e-05
2.43966e-05
-2.43966e-05
1.24014e-05
-1.24014e-05
0.001076
-0.000878444
-0.00019755
0.00546365
-0.00207221
-0.00339144
-0.00594649
0.00594647
2.10067e-08
0.00335569
-0.00260247
-0.000753225
-0.00157404
0.00176397
-0.000189931
-0.00674544
0.00283495
0.0039105
0.00121235
0.00425131
0.00725563
-0.00587591
-0.00137971
0.00119271
-0.00189627
0.000703557
-0.000862864
-0.00071118
-0.00144213
-0.00031459
0.00175672
0.000165623
-9.78696e-06
-0.000155836
0.000778525
-0.00222065
-0.00360119
0.000119932
0.00348125
-0.00320247
0.00289438
0.000308098
-0.00568341
0.00720688
-0.00152347
-0.00370785
0.00289772
0.000810125
-0.000561499
-0.0030397
-0.00175487
0.0023899
-0.000635021
-0.000461819
0.00256036
-0.00209854
-0.00161175
0.00111412
0.00049762
0.000583528
0.000581831
-0.00159179
-0.00515365
0.00128894
-0.00173652
0.000447578
0.00577787
-0.00386043
-0.00191743
-0.000675363
0.00331399
-0.00263863
-0.00583504
0.00583523
0.000453824
0.00131015
-0.00633394
0.000968821
0.00536512
0.00231267
-0.00298804
-0.0037888
0.00311388
0.000674915
0.00214866
-0.00422086
0.00108693
-0.000199396
-0.000887534
0.00151605
-0.00129209
-0.000223956
-0.00280478
-0.000397685
0.00534925
-0.005349
0.000372327
0.00114372
0.00522585
-0.00133443
-0.00389142
0.00195556
-0.000762839
0.00308563
0.00190871
-0.00499434
-0.000720144
-0.00306866
-8.77624e-05
-0.000154926
0.000242688
0.00393524
0.00332039
0.0011396
-0.00485892
0.00371932
0.00162507
0.00360078
-0.0049797
0.00631896
-0.00133926
-0.00115057
-0.000586536
0.00173711
0.00133665
0.00201903
0.000135297
0.00010362
-0.000238917
0.00501802
-0.00339295
0.00645872
-0.000842627
-0.0056161
0.00321694
-0.00267729
-0.000539652
0.00220899
0.00047048
-0.00267948
0.00296844
-0.00075945
0.00650427
-0.00539889
-0.00110537
0.00048745
-0.00383896
0.00335151
7.00404e-05
0.00638869
0.00478014
-0.00429269
-0.000535807
0.00105942
-0.000523609
-0.00176495
0.00061438
0.00191711
0.00224901
-0.00416611
0.000253653
-0.000333914
8.02604e-05
-0.0012516
-0.00284753
0.00409912
-2.635e-05
0.00653062
-0.00281033
0.00230281
0.000507517
0.000389252
-1.00773e-05
-0.000379175
-0.00569233
-0.000254166
0.00187932
-0.00142549
0.000828015
0.00494985
0.000900778
0.000175219
0.00261584
-0.00640606
0.00379022
-0.00112021
0.00058441
0.00264483
-0.00389643
0.00619668
-0.00226144
0.0010921
0.00117728
-0.000791148
0.00101971
-0.000228559
-0.00111788
-0.000493867
0.00187374
0.0013432
-0.000593964
0.00142945
-0.00123737
-0.000192075
-0.00265092
0.00199072
0.000660198
0.00116676
0.00026269
0.00110997
-0.0049424
0.00383242
-0.00473793
0.00139966
0.00333827
-0.0045544
0.00611845
-0.00156405
-0.00506064
8.09384e-05
-0.00202306
-0.000627855
-0.000214385
0.000126623
-0.00120917
0.0046319
-0.00342273
-0.00118254
-0.000713732
0.000103292
-0.000192019
8.87268e-05
0.000126271
-2.29792e-05
-0.00124385
0.00462155
-0.0033777
-0.000156259
2.43115e-05
0.000131947
-0.0055643
0.00170388
-0.00120012
-0.000564833
-0.000449378
-1.88955e-05
0.000468273
-0.000543268
9.38892e-05
0.00101402
7.29062e-05
-0.00181045
0.000610334
-0.000150689
1.71141e-05
0.000133575
0.00136792
-0.00234444
0.000976519
0.000271101
-0.000135803
-0.00392504
0.0051374
-0.00245946
0.000704598
-8.92318e-05
-0.000431411
0.000520643
0.00568506
-0.00216742
-0.00351765
7.96136e-05
0.00250586
-0.00258548
0.00443177
-0.00558106
0.0011493
0.00263442
0.00305064
0.00291495
-0.00283533
-0.00612259
0.00043918
-0.00643594
0.00361869
0.00281726
0.00229245
0.00390424
-0.00438663
0.00136667
0.00301996
0.0014393
-0.000150354
-0.00101855
0.0040142
-0.00299564
0.00463794
-0.00162427
-0.00301367
-0.00458803
0.0037432
0.000844834
0.00369357
-0.005028
5.87762e-05
0.000330476
-0.00136531
0.00579709
-8.95346e-05
0.0021485
-0.00205896
-0.00207396
0.00261869
0.000157893
-0.00277657
-0.00127747
0.00264539
-0.000634898
0.00325358
0.00164291
-0.00173244
0.000880895
0.00396658
-0.00484748
-0.00504311
0.00384184
0.00120128
0.00255184
-0.00359407
0.00104223
-0.00329431
0.0041131
-0.000818779
0.000373988
-0.00366831
-0.000970025
0.000970025
-0.000451552
0.00036232
-0.000127025
-0.000973432
0.00110046
0.00506793
-0.00184014
-0.00322779
-0.00243354
-0.000371252
0.00290051
0.00015789
1.65398e-05
-0.00017443
-0.00147286
0.00113117
0.000341696
-0.000145212
-0.0048979
0.0050208
-0.00388121
0.000227078
-6.14554e-05
0.00444186
0.000576154
0.0040676
-0.00151575
0.000165061
-7.17064e-06
-0.00632191
-0.00099724
-0.000813214
0.00429914
-0.00190142
-0.00239772
0.00275776
0.00154139
0.00107793
-0.00563232
-0.00226911
-0.000541219
-0.00112358
-0.000956963
0.00208054
4.33257e-05
-0.00272468
0.00268135
-0.00236029
0.00123671
-0.00221812
0.00530375
-0.00460058
0.00158184
0.00301874
0.00254919
0.000651826
-0.000310816
-0.00034101
-0.00601603
0.000582862
0.00543317
-0.00417698
0.00581114
-0.00163416
0.00182314
0.00163251
-0.00345565
-0.00168783
0.000892037
0.00079579
-0.00271107
0.00208083
0.000630238
0.00113272
0.000746598
0.000247149
-0.000328889
8.17411e-05
0.0048634
-0.00398251
-0.00638013
0.00557287
0.000807256
-0.00477363
-0.00166231
0.00335267
0.000609571
-0.00396224
0.00015402
-0.000162252
8.2316e-06
0.00059042
-0.000125192
-0.000465228
-0.0045174
0.00261599
0.000377159
-0.000602684
0.000225525
-7.94198e-06
-0.000962085
-0.00257579
0.0044845
-0.00530374
-0.000320828
0.00562457
0.000213229
0.000208877
-0.000422106
0.00136869
-0.00136869
0.00168668
-0.000720345
-0.00210432
0.00181588
0.000288432
0.00439245
-0.00302578
-0.000162481
6.22238e-06
-0.00127477
0.00126682
0.000670314
0.00128524
0.0023445
-0.000263661
-0.00401655
-0.00128718
0.00112328
-0.00496225
0.00321288
-0.00445673
0.000832415
-0.0021365
0.00130409
0.00335887
-0.00456804
-0.00270973
-0.00180767
-0.00483688
0.00469167
-0.000676918
-0.00533911
-0.00515771
0.00143902
-0.00146066
2.16406e-05
0.00223985
0.000104639
-0.00601455
0.00204879
0.00396577
-0.00121932
0.000525982
0.000693334
0.00143877
0.00295367
-0.00462413
-0.00101286
0.005637
-0.000212904
0.000138587
7.43165e-05
-0.0055022
0.00132522
0.00375313
-0.00493692
0.00118379
-0.00149975
-0.000604564
-0.000536689
-0.000637488
0.000138319
-0.000203764
6.54445e-05
0.00495396
-0.003844
-0.00129912
0.0051231
-0.00382398
-0.000381096
-0.000893669
-0.00586138
0.000439584
0.00539565
-0.00615287
0.00456107
-0.000920465
-0.00545967
-0.00109682
-0.000376036
-0.00181955
0.00285817
-0.00103862
-0.000419054
0.000321961
9.7093e-05
-0.00173205
0.00141746
0.00158762
-0.000148604
0.000818643
-3.67133e-05
-0.00169534
0.0027978
0.00121491
-0.00303445
0.00605129
-0.000478412
0.00528089
6.83504e-05
-0.00527896
0.00438884
0.00114417
-0.00553302
0.000556504
-0.000768837
0.000212334
-3.83157e-05
-0.000413236
-1.40869e-05
0.00606537
-0.000162163
0.000156811
5.35207e-06
0.000133464
2.05557e-05
0.00254515
-0.00335333
0.000808181
-0.00188696
0.000696725
0.00119023
0.00792144
-0.00345242
-0.00446901
0.00116913
0.00126923
-0.00243836
0.000104497
-0.000172976
6.84801e-05
-0.000805913
0.00133189
0.00114964
0.00318404
-0.00433368
-0.00561461
0.000165593
0.00544901
-0.00401367
0.00299512
0.00173496
0.00479566
0.00458504
0.00333639
-2.22697e-05
0.000191967
-0.000169698
-0.00129541
0.00438734
-0.00309193
0.000305313
-0.000343629
-0.000131361
-8.15427e-05
0.00410057
-0.00227744
0.00473416
-0.00498838
0.000254227
-0.00323856
0.00604648
-0.00280792
0.00252862
0.00157195
0.00572299
-0.000988837
-0.00136969
-0.00562105
0.00137231
0.00424874
0.000654547
0.000520482
-0.00117503
0.00126924
-0.000614696
0.000585297
-0.00110998
0.000524686
0.00110578
0.000291342
0.000360484
-0.000678256
0.00443139
0.00152022
-0.000389056
0.00350375
-0.00608861
0.00258487
0.0015386
-0.00258533
0.00104674
-0.00430632
0.00114776
0.00315856
0.0029178
-0.0042132
-0.00490226
-0.00125061
-0.00409131
0.0012597
0.00283161
0.00123606
0.00315128
-0.00326349
-0.000827823
0.00222771
-0.00105859
-0.000666537
-0.0025383
0.00320483
0.00241783
0.000602918
-0.00302074
-0.00159502
0.00120602
0.000388989
0.000270193
0.00150345
-0.00196954
0.000466099
-0.000110981
-0.000222933
-0.000264577
0.000153596
-0.00434751
-0.000240516
-0.000296234
0.00118203
-0.000885799
0.00434992
-0.00464329
0.000293374
-8.83969e-05
0.000117726
-2.93289e-05
0.000966832
0.00338218
-0.00434901
-0.000156959
6.85627e-05
-0.00474937
0.000708682
0.0040407
-0.000922779
-5.98599e-06
0.000928762
7.22047e-05
-8.19915e-05
-0.000399446
0.000864669
-0.00034748
-0.00051719
-0.00603644
0.000637549
-0.00254967
-0.000128167
0.00267783
-0.0031704
0.00440646
0.00218085
-0.00108875
-0.00116716
-0.00118561
3.07011e-06
-0.00351741
-0.00122052
0.00152842
-0.000430723
-0.00109769
0.00191953
0.00183726
-0.0037568
0.00503144
-0.00159856
-0.00343288
0.000792076
-0.0054162
-0.00137271
0.00300521
0.001948
0.000791625
-0.00273962
-0.0034994
0.00446624
-0.000153414
2.72541e-06
0.000929538
-0.00442894
-0.00449678
-0.00014652
-0.000998164
-0.00461644
0.00461253
0.00147295
0.00355849
0.00415874
0.00113901
-0.00529775
3.61751e-05
5.89605e-05
-9.51356e-05
-0.00141355
0.00336155
0.00369222
0.00351466
-0.00140633
0.00237341
-0.000967074
-0.00247766
0.000454597
-0.000878399
0.000751373
-0.000201513
0.000414742
-0.000197831
0.00170128
0.0037636
-0.00184406
-0.0010853
-0.000602531
-0.000107262
-0.000157315
0.00355057
-0.00163345
-0.00240377
0.00465279
0.000674409
-0.0030959
0.00242149
0.000665549
0.00076072
-0.00105695
0.00210164
-0.00130034
-0.00327544
0.00457577
-0.0021846
0.00480045
-0.000549323
0.00344369
0.000238981
-0.000221867
-0.00236126
0.000954932
0.0022881
-0.00386584
0.00157775
-0.00121664
5.87597e-05
-2.25847e-05
0.00215188
-0.00279873
0.00064686
-0.00117393
-0.000421083
-0.00352669
0.00449551
0.00118164
0.00168606
-0.0028677
-0.00169232
0.00366328
-0.00197096
0.00423407
-0.000851892
0.000234323
1.40976e-05
-0.00024842
-0.00371931
0.00202699
-0.00141512
0.00470428
-0.00328916
0.000878016
0.00130284
0.000227174
0.00114151
0.00025312
-0.000300793
4.76724e-05
0.00171336
0.000211815
-0.00192518
0.00302401
-0.00457439
0.00155039
-5.29653e-05
0.000374435
-0.00032147
0.00156453
-0.000358512
0.00141107
-0.000594605
-0.000816468
0.00282793
-0.00391534
0.0010874
0.00268319
-0.00374143
0.00105825
-0.00515225
0.00191369
0.00389236
-0.000868348
-0.000621216
-0.00238211
0.00300333
0.00140487
-0.00511538
0.00371051
0.00336057
-0.00145896
-0.00190162
-0.000693203
0.00173582
-0.00104262
0.00477191
-0.00303696
-0.000716289
-0.00196099
-0.00598205
0.00513943
3.70774e-06
0.000121933
-0.000125641
-0.00158196
0.00120541
0.00037655
-0.00491114
0.00630755
-0.00139641
-0.00188367
0.000698772
0.0011849
0.000402344
0.00268557
-0.00208951
-0.000596062
0.00343386
0.000490438
-0.0039243
0.000125521
-2.1024e-05
0.00517238
0.000336942
-0.00550932
-0.00194068
0.00379744
-0.00185676
0.00276239
-0.000624133
-0.00213826
0.000462566
0.000402104
-0.00043799
0.00387185
0.00202551
-0.00396619
0.000723674
-0.000267593
-0.00045608
-0.000699108
6.11775e-05
0.000637932
-0.0031518
-0.00576392
0.0057656
-0.000274361
0.000952693
-0.000678333
-0.0022889
-0.000188762
-0.00454093
0.00324058
-0.000857385
0.00111449
0.00360817
-0.00501979
0.00141162
0.000410664
-0.00296033
0.00233284
-0.00243837
0.00010552
-0.00157147
0.0014823
8.91734e-05
-0.0012148
-0.000367164
-0.00339129
0.00342302
-0.00224137
0.000457351
0.000133068
-0.00174008
0.00104688
-0.0027873
0.000727841
0.00205945
0.000242323
-8.00065e-06
-0.00347601
0.00102057
0.00245544
-0.0014425
0.00560124
0.000341671
-0.000956913
0.000615243
0.002128
0.000634383
-0.00127774
0.000304314
0.00111946
0.00121339
-0.00141183
0.0049396
-0.00352777
-0.0048434
0.00576028
-0.000916883
-0.00116943
0.00228439
0.0041043
0.00107507
3.90489e-05
0.00585196
-0.00550377
-0.000348195
0.0035276
-0.00464318
0.00111558
0.00308799
-0.000670164
0.00542688
-0.00181871
-0.00250476
-0.000971249
-0.00218402
-0.000299239
0.00248327
0.0024385
-0.00196803
-0.00160819
-0.00423773
0.00274962
0.00148812
-0.000343706
0.00123574
0.00119849
0.00364786
-0.00484634
-0.00027547
0.000652628
0.00305957
-0.00238516
-0.00472351
-0.00125854
0.00647054
-0.00129816
0.00422667
0.0020644
0.000495966
0.00285562
-0.00212823
-0.000727384
0.00473588
-0.00245149
-6.49657e-05
-0.00332725
-0.00086083
0.00418808
0.000388779
-8.66805e-05
-0.000302099
-0.00513804
0.00610295
-0.000964906
-0.000710444
0.00190205
-0.00119161
-0.000697222
0.00525313
-0.00455592
0.00119588
-0.00190633
-0.000112717
-0.00576319
-0.000791148
0.00203212
0.00381984
-0.000262007
-0.00192202
0.000251355
-4.20549e-06
0.000362625
-0.000487816
0.00335685
-0.000811699
-0.00522416
-0.000271554
-0.0001475
0.000150234
-0.000133625
-1.66095e-05
-0.00248072
0.000120429
-0.000416321
0.00160357
-0.00102966
-0.000573906
0.00245599
0.0006065
-0.00306249
-0.000728783
0.00318476
-0.00520293
-0.000271511
0.00547444
0.00375032
0.00137279
0.00439825
-0.00121421
-0.000116172
0.00255468
0.00540385
-0.000206636
-0.00519722
-0.00608772
0.0042531
0.00183462
0.00320972
-0.00126787
-0.00435318
0.000205502
-0.000227772
0.000542721
0.00086835
0.00119243
0.000134094
-0.00132652
0.00421229
0.00119157
-0.000961852
0.00317125
-0.0022094
0.00471036
-0.00135769
-0.00218169
0.00279315
-0.000611455
-0.00117546
-0.000103241
0.000289508
-0.000186267
0.00344659
-0.00414381
0.00135045
-0.000995574
-0.00035487
0.00160115
-0.000395743
-0.00324899
0.00228713
0.00548586
-0.00434169
-3.0612e-05
0.000352574
-0.00534863
0.000437476
0.00541457
-0.00191083
-0.000994899
-0.00361479
0.0046097
-0.000644407
0.00288309
-0.00223868
0.00549727
-0.00286245
-0.00263482
-8.8399e-05
0.000587037
-0.000677129
0.00066066
1.64685e-05
-0.000698178
0.00173365
-0.00103548
-0.00315118
-0.00115513
0.000155513
-1.71945e-05
-0.00122479
-0.00478976
-0.00306859
0.00240205
-0.00112404
-0.000244642
-7.26021e-05
-8.95608e-05
-0.00124589
-0.00080605
-0.0052304
-0.00283851
0.00219411
-0.000815465
0.00118779
0.00111518
0.004358
-0.00547317
0.00336843
-0.00275886
0.000467709
0.000768512
-0.00288261
0.0021141
0.00497208
-0.00490451
-6.75657e-05
-0.00320947
0.00361554
-0.000406065
0.000207757
-9.55968e-05
-0.000112161
-0.00494599
-0.00146008
-0.00175956
0.00368986
-0.00193029
0.00297993
-0.00221142
-0.00378076
0.00202121
0.00139505
-0.00258176
0.0011867
-0.00363306
0.00568184
0.00649666
-0.00219571
-0.00430095
-0.00239632
0.00237584
2.04889e-05
0.00557519
-0.00160862
0.00118888
-0.00092913
-0.000259751
-9.07789e-06
0.000262198
0.000249498
-0.000776072
0.000526574
-0.00305159
0.00364883
-0.000965641
0.000852797
-0.00105219
0.00236543
-0.000633935
-0.00173149
0.00222969
-0.000516325
0.00450663
0.000632094
0.00173334
-0.00176049
0.00106231
0.000408517
-0.000464649
5.61314e-05
0.00221439
-0.00174773
-0.000466663
0.00081855
-0.00514776
-0.000544561
0.00036949
-0.000588352
0.000218862
-0.00410183
0.00547413
0.000941873
-0.00111643
0.000174564
-0.00154121
0.00215979
-0.000618577
-0.0014848
-0.00275294
-0.0053796
-0.00015576
0.00553536
0.000301348
0.000108348
4.18866e-05
0.000127437
-0.000128129
6.92967e-07
0.00409149
-0.002893
-0.00378827
-0.00230034
0.00346552
0.00303114
-0.00258825
0.000711307
0.00187694
-0.000844614
0.00223966
-0.00230021
-9.61133e-05
0.00272958
-0.0037771
0.00104752
0.00131661
-0.000134578
0.000457202
0.000556822
-0.00327651
0.0009602
0.00231631
0.000906815
-0.00064064
-5.84693e-05
-0.00426265
0.00171433
0.000113421
-0.00182775
-0.00396221
0.00146018
0.00250202
0.000518268
0.00147589
-0.000933172
-0.000246152
-0.00466043
0.00490659
0.00078387
-0.00247673
0.00169286
0.00120218
0.00131234
-0.000450011
-0.00173434
0.00218435
0.00258003
-0.00179616
0.0044635
-0.00353396
-0.000750947
-0.00264114
-0.000227616
0.000251928
-0.000709278
0.00176779
-0.00105851
0.0026633
-0.00366601
0.0010027
0.000136427
2.03848e-05
-0.00236572
-0.000910802
0.00142118
-0.00163605
0.000214871
-0.00277473
0.000685222
0.00127614
-0.00141841
0.000142264
0.00161855
-0.00180751
0.00018897
0.000673934
-0.00371983
-0.00113909
0.00133463
-0.00488073
0.0035461
-0.000908899
0.00357219
0.00011687
-7.78183e-05
-3.90516e-05
0.00472086
-0.00360567
-0.000304753
-0.00151958
-0.00401133
-0.00149087
0.00209376
0.000699373
-0.000997543
-0.000920867
-0.00450608
-0.00161651
-0.000393806
0.00124421
-0.000933538
-0.00031067
-0.00149778
-0.00108756
0.000651263
0.00226187
-0.00291313
-0.000114184
0.000670687
-0.000715942
3.88139e-05
-0.00246567
0.00196648
0.00139409
-0.000694299
0.00165365
-0.00095935
-8.68438e-05
-0.00011692
0.000315079
-0.0019482
0.000448454
0.00162093
-0.00230445
0.000683515
-0.00333377
0.00258935
0.000744403
0.00121047
0.00239862
-0.00360908
-0.0017573
0.00104802
-0.00294231
-0.00101989
-0.000774728
-0.00255903
-0.00167953
0.00125747
0.00042206
0.00177024
-5.59089e-05
-0.000756574
-0.00243794
0.00319451
-0.000659291
0.00291216
-0.0022609
-0.000858484
-0.00394761
0.00480611
-0.00233844
0.00233943
-9.94737e-07
-0.000922779
-0.00156587
0.000536215
-0.00240714
0.00381923
-0.0014121
0.00323334
0.00288511
0.000194314
3.62271e-05
-0.000230542
0.00234086
-0.000601905
-0.00173896
0.00018828
-0.000184572
-0.00358461
0.00491925
-0.00329024
0.00523002
-0.00193978
-0.00351032
-0.00150947
-0.0009176
0.00323144
-0.00231384
0.00285649
0.00177062
-0.00417777
-0.00499303
-0.000144998
-0.000772138
0.0028403
-0.00206815
-0.000431821
0.000378856
-0.000535623
0.00167884
-0.00114322
-0.00401329
0.0033426
0.000670686
-0.00327
0.0023524
-0.00386305
0.000670786
0.00319225
0.00141528
-0.00101867
-0.000396617
-0.00589957
0.00069663
0.0018472
-0.00141186
-0.000435333
0.00152723
-0.00048064
-0.00104659
7.83606e-05
0.000129397
0.0029251
-0.000622281
-0.000212384
-0.00348686
-0.000376184
0.000427226
-0.00305512
-0.000958168
-0.00233725
-1.18497e-06
-0.00292051
0.00229929
0.000719808
0.00260246
-0.00332227
0.000587454
-0.000861815
0.00140402
-0.00671133
0.00530731
-0.00575225
0.00097861
-0.00232763
0.0035381
0.000695961
0.000256734
-0.00273349
0.0034533
-7.93192e-05
0.00505139
0.000597002
0.00171941
-0.00231641
-0.0017786
0.00124298
0.00275012
-0.00369453
0.00094441
0.00509843
0.000677522
0.00153686
0.000321454
0.000402218
-0.000364011
-0.000404826
0.000181021
-0.001752
0.00176692
-0.000888906
0.000894729
0.000581158
-0.00057794
0.00300837
-0.00243042
-0.00151497
0.00184319
-0.000328211
-0.00488905
0.0038029
0.00108615
-0.00479072
0.00150048
-3.93749e-05
3.533e-05
4.04492e-06
-0.00281441
-0.000851594
0.00111189
-0.00130244
0.000190554
0.00134247
-0.00492709
0.00115259
3.98359e-05
0.00122784
0.000692541
0.00219055
-0.00366621
0.000851803
0.000190206
-0.00503361
0.00189465
0.00123777
0.000664278
-0.00527238
-0.00049155
0.00565289
0.00119447
0.00710896
-0.00218549
-0.00492347
0.000805518
-0.000380326
-0.000425193
0.000705875
-0.00139064
0.00078811
-0.00385971
-0.00125567
0.000289508
-0.00096522
-0.000404005
0.00136923
0.00233423
0.00400862
-0.00486709
0.00270323
0.000833781
-0.00353702
0.0012517
-0.000967066
-0.000284637
0.000744391
0.00159647
-0.000135109
0.000138358
-3.2484e-06
-0.000708193
0.00288381
-0.00217561
0.0036201
0.00108418
-0.00126643
-0.0004131
0.00143071
-0.00152637
9.56584e-05
4.54387e-05
7.14313e-05
-0.00447804
0.00096772
-0.00165672
0.000441918
-0.00364767
0.00291887
-0.000945024
6.65794e-05
0.000931167
0.0026829
-0.00361407
0.000856581
-0.00128068
0.00417981
-0.00289913
0.000318163
0.000279898
4.6584e-05
-0.000326483
7.82206e-05
-0.00539178
0.00531356
-0.00263848
-0.000763073
0.00340156
-0.00348118
0.00261592
0.000865262
-0.0027586
-0.000260952
-0.0017128
-0.0049101
0.000898769
-0.00145907
-0.000878179
-0.00106247
0.00379205
0.00170979
-0.00372299
0.00201319
0.000106186
2.1251e-05
0.00372479
-0.002015
0.00286701
0.000940475
-0.00380747
-0.00130754
0.0017426
-0.000435053
0.00357316
0.00109041
-0.00466356
0.0071853
-0.00197033
-0.00521496
-0.00212916
-0.000709345
-0.00174576
0.00234276
0.00377257
-0.00492236
0.00114978
-0.00280461
0.00373577
0.00117584
-5.34285e-05
-0.00112242
0.00147981
0.000910082
-0.00550302
0.000600753
0.000429167
0.00037635
0.00292149
-0.00111647
-0.00251845
0.00248018
3.82722e-05
0.000504234
-0.0018411
0.00133686
-0.00386792
-0.00119272
0.00108431
-0.00254338
-0.0052991
0.000151342
-0.00126686
-0.00050835
0.00177521
0.00563282
-0.00449381
0.000104632
0.000284148
-0.00302017
0.00317806
0.00144443
-0.0010774
-0.000367034
0.00346861
0.00475299
-0.0009501
0.000628351
-0.00326683
0.00116633
-0.00117232
-5.28996e-05
0.000461416
0.000394129
-1.96942e-05
-0.00207515
-0.000439594
0.00155148
-0.000891834
-0.00349723
0.00076375
-3.10766e-05
-8.29839e-06
0.00599883
-0.00492089
0.00522001
-0.004392
-0.000129056
-0.000928762
0.00105782
0.00194923
-0.000457861
-0.00149137
0.0033586
-0.000756136
-0.00256871
0.00336081
-0.000792106
-0.0018359
0.000528355
0.0012814
-0.000955401
-0.000326001
-0.000118753
-0.000210136
0.00205971
-0.0005477
-0.00151201
-0.00138463
-0.00239653
-0.000121913
0.00209082
-0.00274597
0.000655147
0.00280674
-0.000749072
-0.00205767
0.00410351
-0.00434966
0.000314337
0.00223357
-0.000612633
-0.00068097
0.000836952
-0.0036725
0.00501496
0.0012169
0.000455082
-0.00172195
-0.00285604
0.00209855
0.00362963
0.00159037
-0.00115973
-0.0038228
-0.0011196
0.00130767
-0.00172012
0.000412446
0.00367561
-0.00318518
-0.000193881
0.00113575
-3.88434e-05
-0.000271445
0.000310289
-0.000680483
-0.00190777
0.00377195
-0.00490397
0.00113203
-0.00187259
0.00235064
-0.000478057
-0.00115041
0.00213447
0.000749333
-0.0022636
0.0037543
-0.00149071
0.00150841
-0.00114598
-0.000362425
-0.00118436
0.000261583
0.000178657
-0.000502313
0.000323656
-0.000424711
-0.00123201
-0.0024767
0.00250409
-2.73937e-05
0.00144653
-0.00371014
0.00162689
-0.000369414
0.000393375
-0.000455242
6.18673e-05
-0.000828612
0.000595671
0.000232941
-0.000794006
-0.00284189
0.000811165
0.00203073
-0.00199122
-0.000894173
-0.000741791
0.00163596
-0.00523879
0.00389461
0.00134417
-0.00142181
0.00129276
-0.00057624
-0.000115948
0.000692188
0.00286874
-0.00073428
-0.000770135
-0.000160231
0.000930366
0.00184316
-0.00138808
0.00170055
-0.000392876
-0.00025548
-0.000635915
-0.00420256
0.00483848
-0.00140482
0.00283042
0.00427855
-0.00239945
-7.72518e-05
0.00312818
-0.00472674
0.000732202
0.00158293
-0.00231514
0.00202019
-0.00279232
0.00197468
-0.000702588
-0.00127209
-0.00179642
0.000455387
0.00134103
0.00432081
0.00286449
-0.00550908
0.00133281
0.00417627
-0.0012488
-0.00398999
-0.00045974
-0.00133668
-0.00101233
-0.000553542
-0.00129609
-0.000424026
0.0011382
-0.000530184
0.00151564
-0.000985451
-0.00175757
0.00129783
-0.000944201
-0.000207222
0.00115142
0.00217508
-0.002868
0.000692935
-1.17613e-05
0.000206075
0.00103925
0.00605131
-0.00140452
-0.00464679
-0.00203357
-0.00187373
0.00135326
0.000520473
0.00127366
-0.000981553
-0.000292106
-0.00229802
-0.00101717
0.00331519
-0.00267632
0.00357941
-0.000903094
-0.000916096
0.00113987
-1.85017e-05
-0.00112137
0.003761
-0.00493263
0.00117163
0.0017479
-0.00135612
-0.00039177
0.00242707
-0.00122489
0.00273149
-0.000637314
-0.000191298
-0.00408833
0.00230275
-0.00181024
-0.000492507
0.000559931
-0.00200969
0.00144976
-0.00252188
-0.000831454
0.000861468
-0.000660202
-0.000201267
-0.000180401
-0.0036379
0.000961577
0.00060612
-0.000427462
0.00259989
0.00097952
0.000318259
0.00130614
0.000668539
-0.00160464
0.00233684
-0.00150801
0.00100504
0.000502971
0.00353915
-0.000672134
-0.00381021
0.00610266
-0.00114296
-0.00248401
0.00682143
-0.00433741
-0.000884783
0.00356769
-0.00414177
0.000932311
-0.00210015
0.0042488
-0.000672557
-0.00163189
-0.00244239
0.0017219
0.000720496
-0.00127769
0.000991365
-0.000986523
-4.84047e-06
-0.00137718
-0.000776619
-0.000153476
0.000930095
-0.00157139
0.00136958
0.000201811
0.002048
0.000792291
6.24496e-05
-0.00129982
-0.000549432
-0.000841209
-0.00241367
-0.00046671
-0.00140702
-0.000171015
0.0015922
-0.000180643
0.00341156
-0.00051384
0.00133859
0.000200138
-0.000722632
-0.00101389
-0.00193045
0.00247675
-0.000546301
-0.00105312
-0.0057289
0.00351079
0.00148115
-0.000586421
0.00288506
-0.001199
0.000947943
-0.00135914
-0.00453072
0.00588986
0.000619785
-0.00255024
0.000739584
-0.00368385
0.00270342
0.000980421
0.000899313
-0.0014295
0.00223161
-0.00311547
0.000883855
0.00119355
-0.00342851
0.00223496
0.000859739
0.00168922
-0.00254895
-0.000174283
0.00179283
0.00275285
0.00108369
0.00361893
-0.000413516
0.000783005
0.00315994
-0.00402076
0.000973905
-0.00327192
0.000434117
0.00412325
0.00148724
-1.13992e-05
-0.000275304
0.000286702
-0.00619207
0.0038557
0.00233638
-0.000821306
-0.00261884
0.00344015
0.00263999
-0.00178024
-0.00369505
0.000890442
-0.00132215
-0.000435425
-0.000152645
0.00131941
0.00372227
0.00121733
0.000224154
0.00131115
-0.000995085
-0.00031606
0.000937485
0.000543667
-0.000314297
0.00376837
-0.00493033
0.00116197
0.00307316
-0.000841563
-0.00139966
0.00190389
0.00125853
-0.00355178
0.00229325
-0.00116427
0.00145732
0.000677749
-0.00213507
0.000192808
-0.000204208
0.00219891
-0.000862252
-0.00127527
0.000329592
0.000933858
-0.00034801
-0.000585848
0.00353132
-0.00227279
-0.000503911
0.00229784
-0.00179393
0.00102335
-0.00296165
0.00209619
0.000865466
0.000106787
-6.01408e-07
0.00465088
0.000541568
-0.00569523
-0.0051917
0.00392571
0.001266
-0.00107336
-0.002697
0.00377035
0.00222123
0.00372524
0.00282883
-0.00375271
0.000923886
-0.00147244
0.00110527
-0.000930375
0.00336497
-0.0024346
0.00149803
0.000561678
-0.00378584
-0.00240623
0.00106032
-0.00230575
0.00320386
-0.000898113
0.00342376
-0.000807838
0.000394879
-0.0007939
0.00255151
0.000872252
-0.000634476
0.00431009
-0.00131152
0.0017178
-0.000406276
0.00197477
-0.00127804
-0.000388738
0.00607705
-0.00492016
-0.000459436
0.000857705
-0.00246235
-0.0053918
-0.00172468
0.000413154
-0.000678046
0.000101806
-0.000866216
0.000213218
-0.00147314
0.000650449
0.00158311
-0.000905261
0.000135126
0.000804447
0.00251649
-0.00332094
-0.00109509
0.00187361
-0.00194736
-0.00047391
0.00196136
-0.00148745
-0.000863234
-0.00209841
-0.00195193
0.00147802
-0.00265797
0.00346241
-0.00164625
0.000568516
0.00107773
-0.000966563
0.00356645
0.00597963
-0.00228741
-0.00130616
-0.000418523
-0.00174342
0.00111485
0.000628567
0.000901038
-0.00451654
0.0036155
-0.00131874
0.00054204
0.000776696
-0.00403387
-0.00115784
0.000191769
-0.00113597
0.00192766
-0.000689887
-0.00133228
-0.00379943
0.00513171
0.00100813
6.69478e-05
0.00329674
-0.0025289
-0.000767838
0.000185613
0.00134161
0.000878402
-0.000671597
-0.000206805
-0.00134946
-0.0010118
-0.0010641
0.00508344
-0.00401934
0.000626698
-0.00249929
0.000173204
0.0012575
0.00377277
-0.00495816
0.00118539
0.00287241
-0.00206125
0.000102041
-0.00016832
6.62792e-05
0.00102637
0.000138087
0.000104236
0.00235911
0.0036922
-0.00057585
-0.000820965
0.00139681
0.000651914
0.00177313
-0.00242504
0.00239952
-0.00171915
-0.000680373
0.000475111
0.00147412
0.000425751
-0.000508809
-0.000809928
0.00060089
-0.00532441
0.000690407
-2.97477e-05
-0.00115755
-0.00129998
-0.00378575
0.00508572
0.00102587
0.00143794
-0.00189579
0.00254692
-0.00039507
-0.0049091
0.00530417
0.000120888
-1.88466e-05
0.000634127
0.00129353
0.00273316
0.000934195
-0.00366734
0.00137607
0.000471132
0.00258679
-0.00364242
0.00454346
0.0027744
0.000842851
-0.00361726
0.00162876
-0.00089347
-0.00073529
0.00133017
-0.00102141
-0.000308756
0.000421709
0.00105621
-0.00469863
0.000218199
-6.48083e-06
0.000199289
0.00599839
-0.00127754
0.00152719
-0.00212909
0.00252118
-0.00183242
-0.000688764
0.000843122
-0.00254463
0.00170151
0.00523524
-0.00281954
-0.000921885
-0.00159927
0.00500745
0.00148593
-0.00178115
0.000295225
0.000500283
-0.000103696
-0.000396586
-0.000987838
-0.00314152
0.00412937
0.000741175
0.001821
-0.00256217
0.00176727
-0.000281344
0.00225179
0.00141511
-0.000873074
-0.000937142
0.000160523
-0.00158001