/*--------------------------------*- C++ -*----------------------------------*\
  =========                 |
  \\      /  F ield         | OpenFOAM: The Open Source CFD Toolbox
   \\    /   O peration     | Website:  https://openfoam.org
    \\  /    A nd           | Version:  7
     \\/     M anipulation  |
\*---------------------------------------------------------------------------*/
FoamFile
{
    version     2.0;
    format      ascii;
    class       volVectorField;
    location    "80";
    object      U;
}
// * * * * * * * * * * * * * * * * * * * * * * * * * * * * * * * * * * * * * //

dimensions      [0 1 -1 0 0 0 0];

internalField   nonuniform List<vector> 
41600
(
(-0.0490148 0.000570699 -2.42817e-20)
(-0.117472 -0.0615688 -3.3842e-20)
(-0.180546 -0.136095 2.31635e-23)
(-0.21329 -0.22864 -2.76546e-20)
(-0.222256 -0.31984 3.65653e-20)
(-0.211666 -0.375623 -7.63302e-20)
(-0.180735 -0.365777 -1.02564e-20)
(-0.126313 -0.269033 7.70575e-20)
(-0.0423633 -0.0954231 -1.58967e-20)
(0.0571816 0.10946 -2.32029e-20)
(0.152833 0.294483 -8.00997e-21)
(0.224166 0.431436 2.10997e-20)
(0.261698 0.519306 -1.06974e-20)
(0.248532 0.574539 -9.94321e-21)
(0.202112 0.594503 -9.54787e-21)
(0.202484 0.504323 2.46289e-21)
(0.291132 0.28897 4.7499e-22)
(0.40957 0.0293525 -1.64791e-20)
(0.533559 -0.20359 2.96957e-21)
(0.600069 -0.360097 3.69703e-21)
(0.645306 -0.447354 -1.46328e-20)
(0.661344 -0.474348 1.13879e-20)
(0.617844 -0.498982 -3.29004e-21)
(0.531103 -0.501729 9.23803e-22)
(0.48922 -0.392758 3.80136e-21)
(-0.0503872 0.00707477 -1.13865e-19)
(-0.119789 -0.0550118 1.73483e-19)
(-0.184243 -0.130447 -3.52339e-20)
(-0.218572 -0.225702 1.50445e-20)
(-0.229769 -0.319651 -1.07875e-19)
(-0.222899 -0.378866 1.17985e-19)
(-0.197612 -0.373356 -1.69449e-20)
(-0.150226 -0.282532 -9.9515e-20)
(-0.0729161 -0.114772 2.38912e-20)
(0.0217641 0.0872745 -7.01062e-20)
(0.11498 0.273894 1.14464e-20)
(0.186505 0.416839 3.1462e-20)
(0.223909 0.515149 2.90768e-20)
(0.211019 0.58062 5.61276e-20)
(0.178704 0.597414 1.81593e-20)
(0.208471 0.488404 2.43626e-20)
(0.319596 0.257445 4.21199e-21)
(0.448547 -0.00684339 5.7075e-20)
(0.578388 -0.232803 4.31828e-21)
(0.640472 -0.376127 -1.41824e-20)
(0.67707 -0.456033 -1.39722e-20)
(0.686181 -0.469133 -2.25475e-20)
(0.648725 -0.475307 -8.81733e-21)
(0.558408 -0.475541 -8.86554e-22)
(0.502143 -0.391274 -7.76518e-21)
(-0.0518439 0.0137106 2.34477e-20)
(-0.121724 -0.0482642 -5.75631e-20)
(-0.186934 -0.124507 -8.07557e-20)
(-0.222012 -0.222348 5.06704e-20)
(-0.23448 -0.318889 1.01394e-19)
(-0.230454 -0.381367 -1.36323e-19)
(-0.210191 -0.380146 7.12599e-20)
(-0.169616 -0.295483 5.9095e-21)
(-0.0991805 -0.134092 9.17885e-20)
(-0.00953816 0.0644861 1.24518e-19)
(0.0809514 0.252264 7.3576e-20)
(0.152055 0.401109 8.73899e-22)
(0.188954 0.509789 -6.68581e-22)
(0.17911 0.583402 -5.26144e-20)
(0.165982 0.594056 -5.9817e-20)
(0.224769 0.466834 -3.16236e-20)
(0.357286 0.223813 7.77604e-21)
(0.495495 -0.042545 -6.46628e-20)
(0.627316 -0.259983 1.70434e-20)
(0.683571 -0.388539 -1.95543e-20)
(0.713788 -0.460683 1.61342e-20)
(0.711026 -0.463172 4.00322e-20)
(0.67983 -0.4519 2.52937e-20)
(0.590841 -0.446345 -6.84134e-21)
(0.524271 -0.385391 -5.47189e-21)
(-0.0533763 0.0204373 -1.97755e-19)
(-0.123248 -0.0413649 2.87218e-20)
(-0.188555 -0.118311 2.75025e-19)
(-0.223487 -0.218606 -1.62432e-19)
(-0.236192 -0.317553 9.44618e-20)
(-0.234056 -0.383067 3.61359e-19)
(-0.218128 -0.386001 -1.79957e-19)
(-0.184049 -0.307633 2.661e-19)
(-0.120757 -0.153102 1.15425e-19)
(-0.0365067 0.0413371 1.26762e-19)
(0.0508929 0.229843 2.51361e-20)
(0.121099 0.384383 -1.17499e-19)
(0.157895 0.502871 -6.13569e-20)
(0.154679 0.582163 3.84866e-20)
(0.164588 0.584534 5.28536e-20)
(0.251333 0.440493 3.5176e-21)
(0.404146 0.188766 -3.8429e-20)
(0.550436 -0.076624 4.85559e-20)
(0.680204 -0.284083 -1.23078e-19)
(0.727825 -0.397584 -6.82233e-20)
(0.754322 -0.460944 4.02581e-20)
(0.736191 -0.455661 -1.12577e-20)
(0.709578 -0.429864 7.94194e-21)
(0.627226 -0.415287 1.39963e-20)
(0.552735 -0.374992 7.10738e-21)
(-0.0549761 0.0272196 2.21928e-20)
(-0.124333 -0.0343521 -3.97981e-19)
(-0.189049 -0.111896 3.27102e-19)
(-0.222883 -0.21451 -4.04123e-20)
(-0.234713 -0.315648 -3.70404e-19)
(-0.233433 -0.383907 -3.04176e-19)
(-0.221082 -0.39077 8.47842e-20)
(-0.193085 -0.31871 -2.36302e-19)
(-0.137139 -0.171463 -1.47516e-19)
(-0.0587587 0.0181511 -2.04155e-19)
(0.0251311 0.206879 -2.38184e-20)
(0.0942251 0.366718 4.58971e-20)
(0.13207 0.493968 9.16822e-20)
(0.139451 0.576431 -5.92327e-20)
(0.174623 0.569217 9.44835e-20)
(0.288158 0.410268 -9.80448e-20)
(0.459542 0.152956 -1.08019e-19)
(0.612228 -0.108235 -5.20191e-20)
(0.736451 -0.304008 -3.44872e-20)
(0.772405 -0.403291 8.17909e-20)
(0.796692 -0.45693 -6.79968e-20)
(0.762117 -0.44565 2.41493e-20)
(0.736807 -0.410031 -2.82435e-20)
(0.665565 -0.383713 -1.62299e-20)
(0.586009 -0.359608 -7.17361e-22)
(-0.056635 0.034017 9.34566e-20)
(-0.124958 -0.0272666 3.66596e-19)
(-0.188364 -0.105304 -8.61166e-19)
(-0.220092 -0.210095 4.64198e-19)
(-0.229861 -0.313178 2.27115e-19)
(-0.228323 -0.383826 -5.56052e-20)
(-0.218716 -0.3943 2.26221e-19)
(-0.196286 -0.328435 -2.71096e-20)
(-0.147736 -0.188791 5.09785e-20)
(-0.0757181 -0.00465964 1.73736e-19)
(0.00425941 0.183615 8.23786e-20)
(0.0723516 0.348119 -3.87745e-21)
(0.112966 0.482664 -4.89893e-20)
(0.134795 0.566042 1.91658e-19)
(0.195856 0.548667 -4.44843e-20)
(0.335164 0.377097 1.51536e-19)
(0.522509 0.117171 5.18918e-20)
(0.678939 -0.136693 1.74691e-19)
(0.794579 -0.319002 2.30682e-20)
(0.817046 -0.405432 -8.81721e-20)
(0.838566 -0.449114 5.00204e-20)
(0.788931 -0.432368 -4.78649e-20)
(0.761393 -0.392616 -1.01862e-20)
(0.703033 -0.3534 -2.47258e-20)
(0.623433 -0.338994 -4.61128e-21)
(-0.0583449 0.0407903 -1.86453e-19)
(-0.125102 -0.02015 -5.15482e-19)
(-0.186458 -0.098577 3.29325e-19)
(-0.215019 -0.205401 -7.65343e-19)
(-0.221471 -0.310154 -2.60405e-19)
(-0.218479 -0.382767 7.50778e-20)
(-0.210705 -0.396438 -3.52713e-19)
(-0.193234 -0.336534 1.83982e-19)
(-0.151923 -0.204676 -1.29938e-19)
(-0.0866541 -0.0266544 -6.86845e-20)
(-0.0108823 0.160307 -8.25108e-20)
(0.0566454 0.328593 1.1139e-19)
(0.102063 0.468657 -1.18569e-19)
(0.141538 0.551122 -8.75269e-20)
(0.227912 0.523572 -4.39017e-20)
(0.392006 0.341972 -1.29607e-19)
(0.591923 0.0823553 1.20045e-19)
(0.748587 -0.161342 -4.75088e-20)
(0.852571 -0.328776 1.5879e-20)
(0.861592 -0.403656 9.11902e-20)
(0.877902 -0.43809 5.04017e-20)
(0.816135 -0.415572 -6.15465e-20)
(0.784368 -0.37705 5.17647e-20)
(0.736806 -0.326175 4.3647e-20)
(0.663678 -0.313686 -3.30786e-21)
(-0.0600977 0.0474991 8.23193e-19)
(-0.124751 -0.0130452 5.35629e-19)
(-0.183294 -0.0917624 1.74291e-19)
(-0.207581 -0.200474 8.32142e-19)
(-0.209401 -0.306593 3.79462e-19)
(-0.20369 -0.380678 6.24432e-19)
(-0.196746 -0.397035 -2.67932e-19)
(-0.183538 -0.342741 4.51908e-20)
(-0.149093 -0.218717 1.4039e-20)
(-0.0907221 -0.0473869 -8.39849e-20)
(-0.0192721 0.137301 -3.22313e-20)
(0.0483731 0.308201 -1.15661e-19)
(0.100688 0.451835 1.39355e-19)
(0.159863 0.532024 1.36013e-20)
(0.270345 0.494703 -1.43703e-19)
(0.457876 0.305874 -2.27971e-20)
(0.666359 0.0495818 -1.42051e-19)
(0.819309 -0.181468 -5.7492e-20)
(0.90846 -0.333397 1.6755e-19)
(0.905526 -0.397699 9.75104e-20)
(0.913377 -0.424342 9.97221e-21)
(0.842695 -0.39574 8.44539e-20)
(0.8074 -0.362171 7.01414e-21)
(0.765078 -0.303221 1.21117e-21)
(0.70414 -0.285214 1.30561e-20)
(-0.0618854 0.0541032 -7.25792e-19)
(-0.123893 -0.00599628 4.0857e-19)
(-0.178843 -0.0849095 -3.20578e-20)
(-0.197708 -0.195362 1.69024e-19)
(-0.193542 -0.30252 1.86351e-19)
(-0.183788 -0.377523 -9.03657e-19)
(-0.17658 -0.39595 4.41441e-19)
(-0.166848 -0.346803 -4.48314e-19)
(-0.138725 -0.23053 -9.4334e-20)
(-0.0870883 -0.0663819 -9.9507e-20)
(-0.0198354 0.114987 -1.39992e-19)
(0.048741 0.287082 1.00731e-21)
(0.109846 0.432323 -2.1887e-20)
(0.189342 0.509251 -1.09693e-19)
(0.322599 0.462864 2.84362e-19)
(0.5314 0.269717 2.88317e-19)
(0.743901 0.0197702 -1.34958e-19)
(0.889133 -0.196472 -9.54184e-20)
(0.960741 -0.333115 -8.56392e-20)
(0.947769 -0.387573 -1.75752e-19)
(0.944449 -0.408146 -8.54831e-20)
(0.867511 -0.37395 3.47289e-21)
(0.831825 -0.346705 -8.51942e-20)
(0.787543 -0.284616 -1.0813e-20)
(0.741695 -0.25577 -3.20585e-20)
(-0.0637007 0.0605627 8.50525e-19)
(-0.122522 0.000951542 -1.16382e-18)
(-0.173088 -0.0780707 -7.81884e-19)
(-0.185352 -0.19012 -9.78229e-19)
(-0.173823 -0.297968 2.25103e-19)
(-0.158677 -0.37328 1.47843e-19)
(-0.150017 -0.393064 2.02942e-19)
(-0.14287 -0.348484 4.69344e-20)
(-0.120404 -0.23977 6.20903e-20)
(-0.0750499 -0.0832009 -6.35715e-20)
(-0.011626 0.0937727 1.3291e-19)
(0.0587468 0.265469 -1.95914e-20)
(0.130066 0.410489 1.01069e-19)
(0.2291 0.483399 -3.37482e-20)
(0.383898 0.428871 8.49132e-20)
(0.610668 0.234357 -4.97008e-19)
(0.822241 -0.00634278 -1.16976e-19)
(0.955885 -0.206053 -3.04573e-19)
(1.00843 -0.328246 -1.19627e-19)
(0.986878 -0.373619 -7.98416e-20)
(0.971103 -0.389668 6.99484e-20)
(0.889997 -0.351488 -2.93003e-20)
(0.857696 -0.329782 1.95627e-20)
(0.805231 -0.269378 2.99995e-21)
(0.773872 -0.227533 1.01391e-20)
(-0.0655363 0.0668388 1.02068e-19)
(-0.120637 0.00775231 1.29144e-18)
(-0.166019 -0.0713011 -1.08594e-19)
(-0.17048 -0.184803 4.42757e-19)
(-0.150221 -0.292983 -1.34967e-18)
(-0.128352 -0.367959 -5.59534e-20)
(-0.116979 -0.388291 -3.3548e-19)
(-0.111389 -0.347567 2.37717e-19)
(-0.0938383 -0.246123 2.10211e-19)
(-0.0541246 -0.0974924 4.08024e-20)
(0.00604527 0.0740656 2.31173e-20)
(0.0790437 0.243697 -1.57452e-20)
(0.161266 0.38688 -6.85304e-20)
(0.278018 0.455118 -1.38883e-19)
(0.453112 0.393553 -4.57608e-20)
(0.693378 0.200573 1.39569e-19)
(0.898945 -0.0281636 5.40317e-19)
(1.01744 -0.210272 9.68994e-21)
(1.05085 -0.31916 1.16808e-19)
(1.02148 -0.356432 1.08837e-19)
(0.993536 -0.369165 -1.55745e-19)
(0.910394 -0.329361 -1.34005e-20)
(0.883432 -0.311234 3.83711e-20)
(0.819995 -0.255886 -2.67333e-20)
(0.799557 -0.20217 8.74328e-21)
(-0.0673856 0.0728933 -2.02839e-18)
(-0.118241 0.0143594 -1.09834e-18)
(-0.157635 -0.0646582 9.71606e-19)
(-0.15308 -0.179472 -5.20245e-19)
(-0.122768 -0.287614 1.82149e-18)
(-0.0929172 -0.361597 -3.81872e-19)
(-0.077544 -0.381602 6.46912e-19)
(-0.0723195 -0.343878 9.80915e-20)
(-0.0588521 -0.249298 -1.87071e-19)
(-0.0240919 -0.108916 1.54882e-19)
(0.0334956 0.0562626 3.3189e-20)
(0.109798 0.222184 7.56568e-21)
(0.202699 0.362137 -7.56391e-20)
(0.334857 0.425077 1.00003e-19)
(0.528667 0.357734 -2.4732e-19)
(0.776929 0.169346 2.12534e-19)
(0.971649 -0.0452742 -2.43143e-19)
(1.07203 -0.209494 5.35163e-20)
(1.08748 -0.306327 -6.62782e-20)
(1.05065 -0.336729 -3.49001e-20)
(1.01204 -0.347141 7.66291e-20)
(0.929466 -0.307983 1.44415e-20)
(0.906515 -0.291602 -9.64485e-22)
(0.833927 -0.242494 -1.11911e-20)
(0.819101 -0.180573 -4.17505e-21)
(-0.0692425 0.0786901 1.87112e-18)
(-0.115342 0.0207256 4.51094e-19)
(-0.147946 -0.0582016 -2.2691e-19)
(-0.133158 -0.174185 4.57434e-19)
(-0.091551 -0.28192 -1.56001e-18)
(-0.0526011 -0.354265 9.06775e-19)
(-0.0319878 -0.373049 -2.43881e-19)
(-0.025781 -0.337324 -2.03235e-19)
(-0.0153933 -0.249037 -4.80091e-20)
(0.0150421 -0.11709 -1.14431e-19)
(0.0706542 0.0406805 -5.89316e-20)
(0.15056 0.201386 3.3574e-20)
(0.252977 0.336879 8.70173e-20)
(0.398278 0.39392 2.80386e-19)
(0.608694 0.322202 -1.87661e-19)
(0.858731 0.141254 1.43402e-19)
(1.03809 -0.0575494 2.52674e-19)
(1.11848 -0.204294 3.82493e-19)
(1.11786 -0.290346 1.34448e-19)
(1.07403 -0.315259 1.8063e-19)
(1.02706 -0.324292 3.57617e-20)
(0.94768 -0.287254 9.56877e-20)
(0.925016 -0.271791 -6.93388e-20)
(0.848678 -0.22813 5.43011e-20)
(0.834104 -0.162744 2.67929e-21)
(-0.0711015 0.0841948 -3.13205e-19)
(-0.111953 0.0268035 -7.66679e-19)
(-0.136965 -0.0519924 -8.30315e-19)
(-0.110733 -0.168999 4.45915e-19)
(-0.0567093 -0.275956 1.39818e-18)
(-0.00775559 -0.346064 -2.21172e-19)
(0.0191884 -0.362773 -2.11889e-19)
(0.0278176 -0.327948 -2.02909e-19)
(0.0364027 -0.24514 -8.7642e-20)
(0.0631137 -0.121659 1.56377e-20)
(0.117089 0.0276297 -7.13396e-21)
(0.200266 0.181774 -5.48112e-20)
(0.310254 0.311621 -7.42823e-20)
(0.466905 0.362225 2.27107e-20)
(0.691023 0.287733 1.4868e-19)
(0.936345 0.116581 -3.45169e-19)
(1.0964 -0.0651219 -4.27154e-19)
(1.15612 -0.195384 -2.43183e-19)
(1.14171 -0.271933 3.93285e-20)
(1.09174 -0.292784 -1.35224e-19)
(1.03929 -0.301266 -1.00982e-19)
(0.964572 -0.266994 -1.71449e-19)
(0.938899 -0.252505 3.84052e-20)
(0.864724 -0.212723 -2.31162e-20)
(0.846931 -0.147918 7.31202e-21)
(-0.0729579 0.0893752 9.5394e-19)
(-0.108089 0.0325456 6.99452e-19)
(-0.124713 -0.0460924 1.0146e-18)
(-0.0858374 -0.163964 -7.18694e-19)
(-0.0184316 -0.269774 -1.73465e-18)
(0.0411584 -0.337127 -8.80069e-19)
(0.0752559 -0.350998 2.03385e-19)
(0.0877061 -0.315966 2.96439e-20)
(0.0960534 -0.237523 3.09454e-19)
(0.119869 -0.12233 7.22111e-20)
(0.172185 0.0175879 1.58665e-20)
(0.257455 0.163847 4.10308e-20)
(0.372667 0.286775 -1.82545e-20)
(0.539607 0.330543 -1.21216e-19)
(0.773514 0.255112 1.42789e-19)
(1.00748 0.0957701 2.34416e-19)
(1.14514 -0.0683584 1.76363e-19)
(1.1848 -0.183563 1.28361e-19)
(1.15908 -0.251868 -7.30061e-20)
(1.10435 -0.270048 3.72279e-20)
(1.04935 -0.278465 9.48992e-20)
(0.979102 -0.247337 1.93692e-19)
(0.949878 -0.233873 -7.48601e-20)
(0.881129 -0.197103 1.74247e-20)
(0.859849 -0.134995 -1.37725e-20)
(-0.0748077 0.0942019 -1.40968e-18)
(-0.10377 0.0379044 9.30656e-19)
(-0.111211 -0.0405635 1.14061e-18)
(-0.0585101 -0.159123 4.76884e-20)
(0.0230538 -0.26343 5.45971e-19)
(0.0935909 -0.327585 3.24669e-19)
(0.135293 -0.337984 -6.43318e-19)
(0.152735 -0.30176 2.66852e-19)
(0.16259 -0.226408 -2.53437e-19)
(0.184756 -0.118922 -3.43267e-20)
(0.235299 0.0111062 -3.03942e-21)
(0.320767 0.148205 -4.27525e-21)
(0.4391 0.262779 6.44483e-20)
(0.615791 0.299561 -4.14414e-20)
(0.854076 0.225057 1.82097e-19)
(1.07013 0.0789766 1.35436e-19)
(1.18348 -0.067832 1.30444e-19)
(1.20478 -0.169673 4.6913e-20)
(1.17037 -0.230946 -7.73043e-20)
(1.11268 -0.24769 -1.14975e-19)
(1.05754 -0.256114 -1.40746e-19)
(0.99074 -0.228642 3.99761e-20)
(0.959837 -0.215678 9.98853e-20)
(0.89645 -0.182267 3.00608e-20)
(0.87399 -0.123186 -1.11469e-20)
(-0.0766477 0.0986482 7.64462e-19)
(-0.099019 0.0428325 -8.60111e-19)
(-0.096478 -0.0354668 -1.82523e-18)
(-0.0287943 -0.154508 1.21777e-19)
(0.0674855 -0.256961 5.4648e-19)
(0.148916 -0.317497 -2.05504e-19)
(0.19828 -0.324069 1.08059e-19)
(0.221441 -0.285903 1.60049e-19)
(0.234476 -0.212382 -5.91162e-20)
(0.256664 -0.111505 1.49935e-19)
(0.305636 0.00867565 3.80883e-21)
(0.389403 0.135557 -4.40668e-21)
(0.509716 0.240314 -3.25723e-20)
(0.695094 0.270219 -4.15102e-21)
(0.930357 0.198288 -2.33276e-19)
(1.12253 0.0661633 -2.1803e-19)
(1.21114 -0.0642694 -1.37989e-19)
(1.21673 -0.154556 -1.26074e-20)
(1.1763 -0.209921 -1.06087e-19)
(1.11764 -0.226153 1.86196e-19)
(1.0638 -0.234467 -1.9279e-19)
(0.999991 -0.2111 4.71053e-20)
(0.969415 -0.197921 -4.05476e-20)
(0.910084 -0.168593 5.02214e-21)
(0.88899 -0.112341 2.04036e-20)
(-0.0784756 0.102691 -1.04777e-18)
(-0.0938591 0.0472831 4.1052e-19)
(-0.0805284 -0.030861 7.90887e-19)
(0.00326566 -0.150135 -1.89863e-19)
(0.114567 -0.250348 5.22405e-19)
(0.206493 -0.306961 8.25551e-19)
(0.263143 -0.30959 8.5312e-20)
(0.292212 -0.269045 -3.11655e-19)
(0.309656 -0.196287 1.97313e-19)
(0.333694 -0.100648 -1.16965e-19)
(0.381868 0.0104116 5.52864e-21)
(0.463041 0.126439 6.24243e-21)
(0.585344 0.220307 4.92572e-21)
(0.776222 0.243585 1.48482e-20)
(0.999431 0.1754 5.71743e-20)
(1.16335 0.0570187 5.925e-20)
(1.22854 -0.0585141 -7.70824e-21)
(1.22169 -0.138996 2.57944e-20)
(1.17783 -0.189441 3.60609e-19)
(1.12002 -0.205696 1.43748e-19)
(1.06819 -0.213845 2.79537e-20)
(1.00779 -0.194601 -5.59927e-20)
(0.978157 -0.180982 -1.78651e-20)
(0.922541 -0.155821 -2.60598e-20)
(0.903703 -0.102646 -1.27877e-20)
(-0.0802897 0.10631 6.82838e-19)
(-0.0883146 0.0512094 8.84494e-19)
(-0.0633643 -0.0268003 -4.52691e-19)
(0.037629 -0.146005 5.87317e-20)
(0.16396 -0.243556 7.88353e-19)
(0.265674 -0.296089 4.22308e-19)
(0.328837 -0.294784 8.92973e-19)
(0.363436 -0.251792 2.43082e-19)
(0.385824 -0.179142 -2.44373e-20)
(0.413185 -0.087428 3.63771e-20)
(0.46174 0.0157212 -3.62003e-21)
(0.540921 0.120938 -2.81364e-21)
(0.665569 0.203507 4.58167e-21)
(0.855761 0.220441 5.40625e-20)
(1.05805 0.156504 -1.33647e-19)
(1.19197 0.0509181 1.41855e-20)
(1.2367 -0.0514482 -1.3024e-19)
(1.22098 -0.123673 -3.21862e-19)
(1.17601 -0.169987 -1.20431e-19)
(1.12044 -0.186474 7.75491e-20)
(1.071 -0.194499 5.20659e-20)
(1.01468 -0.178972 1.15607e-19)
(0.985663 -0.165254 -5.43389e-20)
(0.934465 -0.143585 8.82135e-21)
(0.917219 -0.094242 3.50432e-21)
(-0.0820895 0.109489 -1.08033e-19)
(-0.0824084 0.054565 -1.96035e-18)
(-0.0449716 -0.0233309 5.15462e-19)
(0.0742524 -0.142101 5.02748e-19)
(0.215322 -0.236581 -1.80463e-18)
(0.325806 -0.284917 3.82512e-19)
(0.394401 -0.279845 -1.06965e-19)
(0.433669 -0.234641 4.24324e-19)
(0.460759 -0.161925 -1.24697e-19)
(0.492106 -0.0732134 -1.19485e-19)
(0.542126 0.0232863 5.00182e-22)
(0.62082 0.118402 6.32097e-21)
(0.747018 0.189929 -2.62657e-20)
(0.928431 0.200817 -6.51943e-20)
(1.10355 0.141115 3.21469e-20)
(1.20886 0.0470197 -5.95685e-20)
(1.23723 -0.0438855 6.24417e-20)
(1.21603 -0.109107 1.84413e-19)
(1.17181 -0.151865 6.88048e-20)
(1.11941 -0.168581 -2.60135e-19)
(1.07266 -0.176533 -6.40458e-21)
(1.02071 -0.164158 -1.21536e-19)
(0.992103 -0.150861 2.80719e-20)
(0.945908 -0.131764 9.19402e-21)
(0.929317 -0.087053 -1.24846e-20)
(-0.0838749 0.112214 -1.17947e-18)
(-0.07616 0.0573034 6.77905e-19)
(-0.0253133 -0.0204873 2.05309e-19)
(0.113083 -0.138391 -5.04824e-19)
(0.268279 -0.229397 1.61376e-18)
(0.386254 -0.273472 -9.67241e-19)
(0.458981 -0.264912 -8.14737e-19)
(0.501716 -0.217942 -3.10653e-19)
(0.532615 -0.1454 1.47181e-19)
(0.567642 -0.059321 1.03381e-19)
(0.619575 0.0314386 6.04508e-21)
(0.698908 0.11743 -6.90514e-21)
(0.823846 0.178645 4.16393e-20)
(0.989086 0.18394 2.79962e-20)
(1.13499 0.128348 2.85046e-20)
(1.2156 0.0444608 3.06613e-19)
(1.23204 -0.0364668 3.28684e-19)
(1.20821 -0.0956341 2.98798e-19)
(1.16609 -0.135227 1.36815e-19)
(1.11735 -0.152053 1.60994e-19)
(1.0735 -0.159955 -3.30776e-20)
(1.02588 -0.150182 8.80095e-20)
(0.997843 -0.137733 5.27951e-20)
(0.95654 -0.120451 -5.2697e-21)
(0.940236 -0.0808159 1.23907e-20)
(-0.0856469 0.114478 7.92767e-19)
(-0.0695835 0.0593794 2.0099e-19)
(-0.00432249 -0.0182925 1.52557e-19)
(0.154047 -0.13482 -1.43243e-18)
(0.322424 -0.221964 -2.95111e-18)
(0.446408 -0.261777 -1.05604e-20)
(0.521837 -0.250083 1.16806e-18)
(0.566661 -0.201907 -2.46999e-19)
(0.600055 -0.130044 2.62015e-19)
(0.637675 -0.0467225 1.11932e-20)
(0.691105 0.0387047 -7.07149e-21)
(0.770779 0.116443 -2.72359e-21)
(0.890309 0.168253 -4.5292e-20)
(1.03495 0.168774 2.69116e-20)
(1.15351 0.117313 1.74705e-19)
(1.21456 0.0425563 -1.77519e-20)
(1.22308 -0.0296044 7.75163e-20)
(1.19872 -0.0834155 -1.39756e-19)
(1.15949 -0.120106 -2.04942e-19)
(1.1146 -0.136869 -1.8411e-20)
(1.07377 -0.144722 -7.4322e-20)
(1.03024 -0.137069 2.23252e-20)
(1.00309 -0.125737 -8.1502e-20)
(0.966117 -0.109789 -4.64921e-20)
(0.950276 -0.0752153 -4.87589e-23)
(-0.0874068 0.116273 -8.81743e-19)
(-0.0626882 0.0607547 1.35083e-18)
(0.0181065 -0.0167556 3.77979e-19)
(0.197045 -0.131324 8.11624e-19)
(0.377323 -0.214245 1.4101e-18)
(0.505691 -0.249857 -5.38137e-19)
(0.582346 -0.235426 -7.2798e-19)
(0.627841 -0.186643 3.71993e-19)
(0.662259 -0.116074 -2.90743e-19)
(0.700974 -0.0359305 -6.76559e-20)
(0.754741 0.0441823 1.04876e-22)
(0.833007 0.114268 1.83832e-20)
(0.94325 0.157679 6.47029e-20)
(1.06638 0.154572 -7.82776e-20)
(1.16178 0.107394 1.497e-20)
(1.20832 0.0408857 -2.08754e-19)
(1.21197 -0.0234963 3.32688e-19)
(1.18846 -0.0724782 3.47129e-20)
(1.1525 -0.106453 -1.5854e-19)
(1.11144 -0.122978 8.24343e-20)
(1.07362 -0.130759 9.90294e-20)
(1.03391 -0.124829 6.52766e-20)
(1.0079 -0.114739 5.41022e-20)
(0.974617 -0.099878 5.17843e-20)
(0.959586 -0.0700137 -1.21188e-20)
(-0.0891564 0.117598 2.03956e-18)
(-0.0554718 0.0613918 7.78874e-19)
(0.0421109 -0.0158543 1.53435e-19)
(0.241935 -0.127832 2.85071e-18)
(0.432518 -0.206209 5.50338e-19)
(0.563566 -0.23774 -7.10368e-19)
(0.639997 -0.220995 -1.1155e-18)
(0.684812 -0.172187 -7.89462e-19)
(0.718828 -0.103523 -1.33007e-19)
(0.757088 -0.0270573 -5.73676e-20)
(0.809639 0.0475909 1.02682e-20)
(0.884145 0.110447 1.67178e-20)
(0.982722 0.14657 -2.01329e-20)
(1.086 0.141073 2.83495e-19)
(1.16293 0.0982981 -4.45599e-19)
(1.19906 0.0392573 2.25504e-20)
(1.19997 -0.0181854 -2.51418e-19)
(1.17805 -0.062763 1.46062e-19)
(1.14543 -0.094175 2.00785e-19)
(1.10803 -0.110308 -1.91977e-19)
(1.07318 -0.117979 -1.20718e-19)
(1.03697 -0.113461 -1.52755e-19)
(1.01228 -0.10462 -1.43412e-21)
(0.982135 -0.0907567 -2.45392e-20)
(0.968175 -0.0650768 3.72325e-22)
(-0.0908977 0.118454 -8.54135e-19)
(-0.0479042 0.0612286 -3.34171e-18)
(0.0678408 -0.0155018 -1.64894e-18)
(0.288525 -0.12427 -3.36567e-18)
(0.487543 -0.197834 2.68622e-19)
(0.619548 -0.225463 -1.85431e-19)
(0.694393 -0.206834 -1.46762e-19)
(0.737319 -0.158541 6.63248e-19)
(0.769681 -0.0923116 1.35369e-20)
(0.806115 -0.0199573 -7.18114e-20)
(0.855904 0.0490974 -2.54247e-20)
(0.924647 0.105145 -6.14631e-20)
(1.01089 0.135149 -1.1836e-19)
(1.0971 0.128339 -1.36248e-19)
(1.15971 0.0899336 -3.72849e-20)
(1.1884 0.0376199 6.39935e-20)
(1.18787 -0.0136254 2.03406e-19)
(1.1679 -0.0541666 1.41449e-19)
(1.13848 -0.0831561 -1.09759e-19)
(1.10454 -0.0987746 1.3451e-19)
(1.07254 -0.106287 1.20946e-19)
(1.0395 -0.102947 6.37663e-20)
(1.01624 -0.0952798 -3.66731e-21)
(0.98879 -0.0824173 7.38129e-22)
(0.976016 -0.0603447 2.82774e-20)
(-0.0926341 0.118842 -1.9619e-19)
(-0.0399248 0.0602056 -2.0495e-18)
(0.0954823 -0.0155819 1.95043e-19)
(0.336555 -0.120568 2.08994e-18)
(0.541931 -0.189112 -8.62639e-19)
(0.673217 -0.21307 1.72818e-18)
(0.745247 -0.192983 -8.95797e-19)
(0.785259 -0.14568 -2.55927e-19)
(0.814958 -0.0823112 3.10306e-19)
(0.848488 -0.0143649 1.97598e-19)
(0.894281 0.0490907 2.62356e-21)
(0.956083 0.0988485 2.41419e-20)
(1.03052 0.12385 3.21137e-20)
(1.10256 0.116521 -1.63652e-19)
(1.15409 0.0822862 -4.43953e-19)
(1.17739 0.035986 -5.96312e-20)
(1.17619 -0.00973091 -3.92436e-20)
(1.15823 -0.046569 -1.08038e-19)
(1.1318 -0.073276 1.45758e-19)
(1.10105 -0.0882869 -6.17822e-20)
(1.07174 -0.0955952 -8.64952e-20)
(1.04157 -0.0932535 4.85028e-20)
(1.0198 -0.0866393 -1.00593e-20)
(0.994691 -0.0748216 2.47098e-20)
(0.983102 -0.0557955 8.58665e-21)
(-0.0943689 0.118768 3.27734e-18)
(-0.0314615 0.0583019 4.85375e-18)
(0.125237 -0.0159659 1.43647e-18)
(0.385709 -0.116659 6.62872e-19)
(0.595235 -0.180048 2.20599e-18)
(0.724224 -0.200612 -8.09339e-20)
(0.792377 -0.179475 5.04298e-19)
(0.828655 -0.133572 -5.78935e-20)
(0.854943 -0.0733738 -3.28605e-19)
(0.884814 -0.00998611 -6.32446e-20)
(0.925833 0.0480096 -4.71135e-20)
(0.980317 0.0920833 1.57969e-19)
(1.04409 0.113057 8.32988e-20)
(1.10449 0.105725 8.14053e-20)
(1.14736 0.0753488 7.13709e-20)
(1.16664 0.0343876 5.84298e-20)
(1.16518 -0.00640577 -9.65912e-21)
(1.14917 -0.0398503 -1.48484e-19)
(1.12544 -0.0644171 -8.19186e-20)
(1.09763 -0.0787545 2.63019e-20)
(1.07082 -0.0858206 1.65251e-19)
(1.04325 -0.0843357 1.44611e-20)
(1.02298 -0.0786341 2.99023e-20)
(0.999929 -0.0679135 -8.20178e-20)
(0.989449 -0.0514262 -2.54453e-20)
(-0.0961038 0.118236 -3.55597e-18)
(-0.022404 0.0555072 -4.08845e-18)
(0.157287 -0.0164945 -3.48872e-18)
(0.435616 -0.112491 -5.20439e-19)
(0.647038 -0.170661 -3.45879e-18)
(0.772296 -0.188143 -1.51483e-19)
(0.835697 -0.166343 -5.50544e-19)
(0.867635 -0.122175 1.95225e-20)
(0.890014 -0.0653533 3.62484e-19)
(0.915779 -0.00654639 1.14801e-20)
(0.951681 0.0462471 6.87362e-20)
(0.999031 0.0852695 -1.56402e-19)
(1.05346 0.103012 -9.30784e-20)
(1.10431 0.0959828 -3.86971e-20)
(1.1403 0.0691018 2.22494e-19)
(1.15648 0.0328578 -1.01457e-19)
(1.15498 -0.00355702 -2.52688e-20)
(1.14075 -0.0338981 3.40772e-19)
(1.11945 -0.0564691 -9.86138e-20)
(1.09433 -0.0700887 6.16e-20)
(1.0698 -0.0768879 -1.01056e-19)
(1.04461 -0.0761398 -1.06674e-19)
(1.02578 -0.0712131 -8.86675e-20)
(1.00457 -0.0616293 7.42873e-20)
(0.995093 -0.0472405 -5.4772e-20)
(-0.0978377 0.117247 2.2327e-18)
(-0.0125964 0.05183 2.62493e-18)
(0.191762 -0.0169884 1.58358e-19)
(0.485863 -0.10802 -4.3132e-19)
(0.696969 -0.160982 1.75815e-18)
(0.817239 -0.175721 1.20197e-18)
(0.875208 -0.15361 1.04902e-18)
(0.902401 -0.111447 2.13795e-19)
(0.920598 -0.0581137 -1.69023e-19)
(0.942076 -0.00380918 1.42933e-19)
(0.972861 0.0441146 -1.98869e-20)
(1.01357 0.0786925 1.29675e-19)
(1.05993 0.0938359 -8.72995e-20)
(1.10292 0.0872708 3.61022e-20)
(1.13334 0.0635131 1.176e-20)
(1.14708 0.0314245 5.70435e-20)
(1.14562 -0.00110107 -2.62472e-19)
(1.13299 -0.0286109 -2.84338e-19)
(1.11384 -0.0493299 5.11823e-20)
(1.09118 -0.0622062 -1.95671e-19)
(1.0687 -0.0687277 -4.92955e-20)
(1.0457 -0.068607 1.49958e-21)
(1.02824 -0.0643354 8.23214e-22)
(1.00869 -0.0559029 3.58973e-20)
(1.00009 -0.043244 7.23885e-20)
(-0.0995649 0.1158 9.33574e-19)
(-0.00183301 0.047315 -2.30449e-18)
(0.228711 -0.0172722 1.5262e-18)
(0.536016 -0.103214 -6.84358e-19)
(0.744714 -0.15105 8.92342e-19)
(0.858934 -0.163399 -1.66401e-19)
(0.910982 -0.141296 -8.07645e-19)
(0.933211 -0.101343 3.94636e-20)
(0.947143 -0.0515335 -3.66809e-20)
(0.964367 -0.00158045 1.32388e-20)
(0.990261 0.0418411 9.5166e-20)
(1.02497 0.072526 -1.11613e-19)
(1.06442 0.0855612 1.07014e-19)
(1.10089 0.079534 2.82981e-20)
(1.12675 0.0585431 1.46613e-19)
(1.13848 0.0301079 1.08034e-19)
(1.1371 0.0010344 1.44348e-19)
(1.12586 -0.0238989 -3.12518e-20)
(1.10863 -0.0429072 1.66383e-19)
(1.08816 -0.05503 9.65314e-20)
(1.06753 -0.0612757 5.30699e-20)
(1.04659 -0.061677 4.61544e-20)
(1.03035 -0.0579679 5.36677e-20)
(1.01233 -0.0506699 -1.71172e-20)
(1.00448 -0.0394406 -5.66958e-20)
(-0.101281 0.113898 -1.38626e-18)
(0.0101529 0.0420445 5.25253e-19)
(0.268077 -0.0171959 3.10672e-18)
(0.585635 -0.0980548 2.7516e-18)
(0.790018 -0.140915 -1.38699e-18)
(0.897331 -0.151231 -9.94043e-19)
(0.94315 -0.129414 -6.3995e-20)
(0.960358 -0.0918183 -1.49167e-19)
(0.970098 -0.0455065 3.1951e-19)
(0.98325 0.000293965 3.82027e-20)
(1.00462 0.0395873 7.90456e-20)
(1.034 0.0668651 3.97849e-20)
(1.06754 0.0781732 2.93992e-20)
(1.09856 0.0727019 -2.24509e-19)
(1.12064 0.0541486 -1.98456e-19)
(1.13069 0.028922 -3.16825e-19)
(1.12937 0.00291057 -1.03761e-19)
(1.11934 -0.0196838 2.82727e-20)
(1.10379 -0.0371176 -2.28422e-19)
(1.0853 -0.04849 -4.88493e-20)
(1.06634 -0.0544709 -2.91195e-20)
(1.04729 -0.055292 -6.16859e-20)
(1.03213 -0.052082 9.50971e-21)
(1.01555 -0.0458684 -1.28083e-20)
(1.00835 -0.0358312 -5.50659e-21)
(-0.102977 0.111539 -1.7001e-18)
(0.0236761 0.0361609 1.23578e-18)
(0.309682 -0.0166517 -7.21823e-20)
(0.634299 -0.0925321 -1.44935e-18)
(0.832692 -0.130629 1.05524e-18)
(0.932444 -0.139263 6.91244e-19)
(0.971888 -0.117973 -2.07606e-19)
(0.984153 -0.0828304 -3.91308e-19)
(0.98989 -0.0399414 -9.67849e-20)
(0.999256 0.0019338 -4.32488e-19)
(1.01653 0.0374618 -2.80052e-19)
(1.04123 0.0617531 4.91437e-20)
(1.06973 0.0716296 1.33731e-19)
(1.09617 0.066699 1.48322e-19)
(1.11505 0.0502851 -1.84942e-19)
(1.12365 0.0278748 1.72218e-19)
(1.12237 0.00457846 6.8058e-20)
(1.11337 -0.0158974 5.75821e-21)
(1.09932 -0.0318866 1.58038e-19)
(1.08257 -0.0425226 -3.25989e-20)
(1.06513 -0.0482552 -1.27091e-20)
(1.04784 -0.0493988 6.40523e-20)
(1.0336 -0.0466509 -1.97271e-20)
(1.01842 -0.0414411 7.38738e-20)
(1.01174 -0.0324135 -4.89588e-20)
(-0.104631 0.1087 6.64223e-19)
(0.0390869 0.0298841 -2.89206e-18)
(0.353227 -0.0155835 -2.96953e-18)
(0.681625 -0.0866487 -1.81988e-18)
(0.872606 -0.120247 1.57914e-18)
(0.964338 -0.127538 -8.46004e-19)
(0.997406 -0.106974 9.51551e-19)
(1.00491 -0.074337 4.66668e-19)
(1.00692 -0.0347605 -9.16961e-20)
(1.01285 0.00343039 5.83657e-20)
(1.02647 0.0355344 1.86266e-19)
(1.0471 0.0572003 -2.84767e-20)
(1.07128 0.0658748 -3.96437e-20)
(1.09383 0.06145 -2.40661e-20)
(1.10998 0.0469091 7.46229e-20)
(1.11732 0.0269696 -2.18814e-19)
(1.11605 0.00608032 -1.37276e-19)
(1.10793 -0.0124808 1.6156e-19)
(1.09519 -0.027148 -4.9764e-20)
(1.07999 -0.0370706 -1.74627e-20)
(1.06394 -0.0425734 8.50602e-20)
(1.04823 -0.0439502 -3.47703e-20)
(1.0348 -0.0416475 -8.72533e-20)
(1.02099 -0.0373357 -6.44757e-20)
(1.01469 -0.029184 8.35207e-20)
(-0.106205 0.105353 8.14061e-20)
(0.0567578 0.0235009 8.30403e-19)
(0.398311 -0.013986 9.43741e-19)
(0.727276 -0.0804175 2.99845e-18)
(0.909689 -0.109822 -2.49835e-18)
(0.99312 -0.116091 6.50507e-19)
(1.01993 -0.0964153 -5.86051e-19)
(1.02295 -0.0662982 1.39688e-19)
(1.02155 -0.0298986 -2.35052e-19)
(1.02441 0.00485225 -1.5232e-19)
(1.03483 0.0338476 -1.7931e-19)
(1.05192 0.0531958 -7.73644e-20)
(1.07239 0.0608475 1.12571e-19)
(1.0916 0.0568831 -1.21058e-19)
(1.10541 0.0439786 -1.28281e-19)
(1.11163 0.0262066 3.63328e-19)
(1.11034 0.0074509 3.3747e-19)
(1.10296 -0.00938349 -4.15059e-20)
(1.09138 -0.0228429 1.78552e-20)
(1.07754 -0.0320825 4.6886e-20)
(1.06277 -0.0373738 -6.44325e-20)
(1.04848 -0.0389048 6.5001e-20)
(1.03576 -0.0370429 6.10043e-20)
(1.02329 -0.033506 -7.37346e-20)
(1.01723 -0.0261412 -7.73455e-20)
(-0.107652 0.101459 7.90256e-19)
(0.0770541 0.017353 1.7087e-18)
(0.444457 -0.0118929 -2.8607e-18)
(0.770978 -0.0738614 -1.71729e-18)
(0.94392 -0.0994073 1.22788e-18)
(1.01893 -0.104949 8.73337e-19)
(1.0397 -0.0862893 8.84297e-19)
(1.03856 -0.0586764 -4.31099e-19)
(1.03412 -0.0253008 1.92892e-19)
(1.03428 0.00624984 8.16281e-20)
(1.0419 0.0324238 -3.7139e-20)
(1.05592 0.0497166 -2.56715e-19)
(1.07319 0.0564857 -4.02576e-19)
(1.08954 0.0529312 -1.82319e-19)
(1.1013 0.0414543 3.36202e-19)
(1.10653 0.0255833 -6.31146e-20)
(1.10518 0.00871868 -7.33018e-21)
(1.09842 -0.00656175 7.82236e-20)
(1.08786 -0.018919 -1.97422e-21)
(1.07522 -0.0275121 5.95054e-20)
(1.06163 -0.0326077 -7.16181e-20)
(1.04859 -0.0342263 4.19748e-20)
(1.03653 -0.0328055 1.3163e-19)
(1.02536 -0.0299142 7.37764e-20)
(1.01938 -0.0232846 8.69405e-22)
(-0.10891 0.0969714 -2.18502e-18)
(0.100295 0.0118138 -1.56421e-18)
(0.491157 -0.00935829 1.73113e-18)
(0.812518 -0.067011 -1.36518e-18)