/*--------------------------------*- C++ -*----------------------------------*\
  =========                 |
  \\      /  F ield         | OpenFOAM: The Open Source CFD Toolbox
   \\    /   O peration     | Website:  https://openfoam.org
    \\  /    A nd           | Version:  7
     \\/     M anipulation  |
\*---------------------------------------------------------------------------*/
FoamFile
{
    version     2.0;
    format      ascii;
    class       volScalarField;
    location    "20";
    object      p;
}
// * * * * * * * * * * * * * * * * * * * * * * * * * * * * * * * * * * * * * //

dimensions      [0 2 -2 0 0 0 0];

internalField   nonuniform List<scalar> 
607
(
0.00258806
0.0024879
0.00236307
0.00222345
0.00204995
0.00179742
0.00141369
0.000736771
-0.000726342
0.00258969
0.00248912
0.00236381
0.00222351
0.00204979
0.00179704
0.00141305
0.000735527
-0.000730502
0.00259303
0.00249172
0.00236555
0.00222421
0.00204992
0.00179645
0.00141152
0.00073237
-0.000738429
0.0025981
0.00249564
0.0023682
0.00222541
0.00205005
0.00179537
0.00140904
0.000728004
-0.00074684
0.00260487
0.00250085
0.00237171
0.00222707
0.0020502
0.00179395
0.00140597
0.000722953
-0.000755425
0.00261334
0.00250735
0.00237612
0.00222927
0.00205053
0.00179239
0.0014025
0.000717399
-0.000764012
0.00262357
0.00251522
0.00238152
0.00223213
0.00205117
0.00179083
0.00139878
0.000711487
-0.000772442
0.00263564
0.00252457
0.00238806
0.0022358
0.00205227
0.00178942
0.00139496
0.000705377
-0.000780557
0.00264966
0.00253553
0.00239586
0.00224044
0.00205401
0.00178833
0.00139122
0.00069925
-0.000788182
0.00266576
0.00254824
0.00240509
0.00224624
0.00205658
0.0017878
0.0013878
0.000693321
-0.000795108
0.00268407
0.00256287
0.00241595
0.00225343
0.00206025
0.00178807
0.00138497
0.000687867
-0.000801066
0.00270472
0.00257958
0.00242863
0.00226226
0.00206532
0.0017895
0.00138308
0.00068325
-0.000805709
0.00272783
0.00259856
0.00244336
0.00227304
0.00207214
0.00179251
0.00138263
0.000679966
-0.00080854
0.00275348
0.00261992
0.00246035
0.00228609
0.00208115
0.00179764
0.00138426
0.000678712
-0.000808847
0.00278165
0.00264368
0.00247977
0.00230179
0.00209291
0.00180562
0.00138887
0.000680507
-0.000805571
0.00281219
0.00266971
0.00250159
0.00232038
0.00210801
0.00181739
0.00139774
0.000686868
-0.000797044
0.00284482
0.00269768
0.00252564
0.00234193
0.00212698
0.00183414
0.00141271
0.000700095
-0.000780558
0.00287898
0.00272691
0.00255134
0.00236609
0.00215011
0.00185716
0.00143656
0.000724189
-0.000751813
0.00291374
0.00275612
0.00257722
0.00239203
0.00217716
0.00188761
0.0014723
0.000766181
-0.000698267
0.00294794
0.00278337
0.00260015
0.00241673
0.00220711
0.00192706
0.00152487
0.000829708
-0.000615768
0.00298086
0.00280675
0.00261535
0.00243267
0.00222948
0.0019748
0.00160908
0.000966335
-0.000421247
0.00301072
0.00282557
0.00261812
0.00243734
0.00222613
0.00199706
0.00166877
0.00113616
-9.73953e-05
0.00304553
0.00283274
0.00260759
0.00241261
0.00222607
0.00204798
0.00183344
0.00151581
0.000869116
0.00309028
0.00284539
0.00258947
0.00229517
0.00202762
0.00174638
0.00162285
0.00181721
0.00306534
0.0031458
0.00286974
0.00260341
0.00231214
0.00208012
0.00188116
0.00180379
0.00194946
0.0026949
0.00321219
0.00292444
0.0026417
0.00234556
0.00208193
0.00186313
0.001766
0.00196844
0.00292799
0.00329741
0.00299636
0.00270069
0.00239582
0.00212584
0.00192256
0.00184558
0.00203641
0.0028276
-0.00240556
-0.0013695
0.000717531
0.00208271
0.00248294
0.00230176
0.00198089
0.00175879
0.0016795
0.00169087
0.00172797
0.0017526
0.00175575
-0.00241499
-0.00137293
0.000721263
0.00208714
0.00248275
0.00229673
0.00197384
0.00175241
0.00167489
0.00168772
0.00172541
0.00174996
0.00175275
-0.00242927
-0.00137891
0.0007265
0.00209534
0.00248598
0.00229339
0.00196677
0.00174504
0.00166909
0.00168357
0.00172209
0.00174662
0.00174898
-0.00244228
-0.00138349
0.000732922
0.00210405
0.00248833
0.00228773
0.00195655
0.0017344
0.00166031
0.00167679
0.0017163
0.00174082
0.00174264
-0.0024541
-0.0013869
0.000740209
0.00211292
0.00248951
0.00227961
0.00194321
0.00172063
0.00164877
0.00166761
0.00170832
0.00173282
0.00173398
-0.0024645
-0.00138888
0.000748541
0.00212206
0.0024896
0.00226915
0.0019269
0.00170391
0.00163463
0.00165617
0.00169822
0.00172266
0.00172305
-0.00247331
-0.00138934
0.00075793
0.00213142
0.00248855
0.00225634
0.00190766
0.00168435
0.00161803
0.0016426
0.00168611
0.00171043
0.0017099
-0.00248039
-0.00138816
0.000768379
0.00214094
0.0024863
0.00224117
0.00188559
0.00166207
0.00159911
0.00162704
0.00167209
0.00169621
0.00169462
-0.00248554
-0.00138524
0.000779886
0.00215053
0.00248277
0.00222363
0.00186076
0.00163722
0.00157803
0.00160962
0.00165629
0.00168008
0.00167725
-0.00248855
-0.00138042
0.000792471
0.00216013
0.0024779
0.00220374
0.00183324
0.00160993
0.00155495
0.00159047
0.00163879
0.00166211
0.00165786
-0.00248915
-0.00137352
0.000806181
0.0021697
0.00247163
0.00218152
0.00180318
0.0015804
0.00153007
0.00156978
0.00161972
0.0016424
0.00163652
-0.00248699
-0.00136426
0.000821098
0.00217921
0.00246395
0.00215704
0.00177074
0.00154887
0.00150363
0.00154773
0.00159923
0.00162104
0.0016133
-0.00248155
-0.00135226
0.000837419
0.00218871
0.00245492
0.00213047
0.00173617
0.00151563
0.00147592
0.00152457
0.0015775
0.00159817
0.00158831
-0.00247211
-0.00133693
0.000855485
0.00219839
0.0024447
0.00210202
0.00169979
0.00148105
0.00144727
0.00150057
0.00155472
0.00157394
0.00156167
-0.00245758
-0.00131735
0.000875856
0.00220859
0.0024336
0.0020721
0.00166209
0.00144566
0.00141819
0.00147614
0.00153123
0.00154859
0.0015336
0.00150538
-0.00243628
-0.00129215
0.000899387
0.00221971
0.00242194
0.00204113
0.00162359
0.00140996
0.00138907
0.00145153
0.0015071
0.00152208
0.00150392
0.00147318
-0.00240524
-0.00125861
0.000928106
0.0022332
0.002411
0.00201049
0.00158582
0.00137559
0.00136152
0.00142827
0.0014838
0.00149584
0.00147408
0.00144055
-0.00236003
-0.00121381
0.000962431
0.00224775
0.00239874
0.00197793
0.00154647
0.00134007
0.0013328
0.00140318
0.00145767
0.00146568
0.0014394
0.00140238
-0.00228627
-0.00114322
0.00101539
0.00227391
0.00239387
0.00195168
0.00151424
0.00131301
0.00131332
0.00138714
0.0014395
0.00144201
0.00140987
0.00136844
-0.0021714
-0.00104261
0.0010746
0.00228692
0.00236577
0.00190036
0.00146041
0.00126958
0.0012811
0.00135874
0.0014067
0.00140077
0.00136101
0.00131534
-0.00191929
-0.000820535
0.00120892
0.0023237
0.0023271
0.00183164
0.00140276
0.00124004
0.00126979
0.00134353
0.00137095
0.00134129
0.00128499
0.00123213
-0.00141065
-0.000394079
0.00136406
0.00220206
0.0020682
0.00160837
0.00130794
0.00126341
0.00133825
0.00138985
0.00137108
0.00130874
0.00124483
0.00120031
0.000410345
0.000800382
0.00115356
0.00101228
0.000723537
0.000652279
0.000811255
0.00100685
0.00109246
0.00105896
0.000979702
0.000922528
0.000907526
0.000917412
0.00490073
0.00346513
0.000758494
-0.000819028
-0.00088395
-0.000205169
0.000420384
0.000666676
0.000606178
0.00045333
0.000359005
0.000356019
0.000403948
0.000453533
0.00357737
0.0024522
0.000512641
-0.000492485
-0.000417499
8.67523e-05
0.000458759
0.000536273
0.000432847
0.000312703
0.000258355
0.000266091
0.000296703
0.000319274
0.00417072
0.0029837
0.000854431
-0.000315909
-0.000325429
0.000159356
0.000545055
0.000639641
0.000538075
0.000400076
0.000316124
0.000294027
0.000301858
0.000309388
0.00371569
0.0026174
0.000712004
-0.000299987
-0.000255161
0.000217139
0.000566811
0.000627733
0.000504662
0.000357794
0.000273132
0.00025257
0.000259681
0.000262645
)
;

boundaryField
{
    inlet
    {
        type            zeroGradient;
    }
    outlet
    {
        type            fixedValue;
        value           nonuniform 0();
    }
    cylinder
    {
        type            zeroGradient;
    }
    top
    {
        type            symmetryPlane;
    }
    bottom
    {
        type            symmetryPlane;
    }
    defaultFaces
    {
        type            empty;
    }
    procBoundary1to0
    {
        type            processor;
        value           nonuniform List<scalar> 
27
(
0.00270458
0.00270692
0.00271148
0.00271816
0.0027269
0.00273771
0.00275061
0.00276565
0.00278294
0.00280256
0.00282462
0.0028492
0.00287639
0.00290621
0.0029386
0.00297342
0.00301043
0.00304931
0.00308976
0.00313177
0.00317533
0.00322271
0.00327378
0.00333366
0.00340066
0.00348238
0.00357695
)
;
    }
    procBoundary1to2
    {
        type            processor;
        value           nonuniform List<scalar> 
28
(
0.00174426
0.00174098
0.00173675
0.00172981
0.00172046
0.0017087
0.0016946
0.00167823
0.00165964
0.00163889
0.00161604
0.00159116
0.00156434
0.00153568
0.00153568
0.00147872
0.00144499
0.00141067
0.00137031
0.00133362
0.00127942
0.00119463
0.00117268
0.000927288
0.000480498
0.000324898
0.000304357
0.000250073
)
;
    }
    procBoundary1to9
    {
        type            processor;
        value           nonuniform List<scalar> 
23
(
0.00339778
0.00308691
0.00277717
0.00246481
0.00218327
0.001964
0.00185655
0.00200248
0.00277875
0.00373115
0.00262871
0.000709474
-0.00030533
-0.000252872
0.000222657
0.000565149
0.000613689
0.000481487
0.000331751
0.000247873
0.000227405
0.000231493
0.000228688
)
;
    }
}


// ************************************************************************* //
