/*--------------------------------*- C++ -*----------------------------------*\
  =========                 |
  \\      /  F ield         | OpenFOAM: The Open Source CFD Toolbox
   \\    /   O peration     | Website:  https://openfoam.org
    \\  /    A nd           | Version:  7
     \\/     M anipulation  |
\*---------------------------------------------------------------------------*/
FoamFile
{
    version     2.0;
    format      ascii;
    class       volScalarField;
    location    "10";
    object      rho;
}
// * * * * * * * * * * * * * * * * * * * * * * * * * * * * * * * * * * * * * //

dimensions      [1 -3 0 0 0 0 0];

internalField   nonuniform List<scalar> 
2418
(
1.58707
1.58372
1.58016
1.57641
1.57241
1.56826
1.5643
1.56038
1.55662
1.55337
1.55038
1.54751
1.54464
1.54161
1.53833
1.53475
1.53096
1.52698
1.52304
1.51906
1.51494
1.51084
1.50697
1.50354
1.50054
1.4977
1.4948
1.49168
1.48835
1.48511
1.48182
1.47805
1.47397
1.47075
1.46827
1.46592
1.46617
1.46681
1.46782
1.47181
1.48003
1.50386
1.43227
1.42768
1.42313
1.41894
1.41521
1.41187
1.40869
1.40536
1.40153
1.39729
1.39313
1.38916
1.38526
1.3815
1.37801
1.3747
1.37137
1.36784
1.36412
1.36037
1.35675
1.35327
1.34986
1.34647
1.34311
1.33982
1.33646
1.33292
1.32923
1.32557
1.32216
1.31906
1.31615
1.3133
1.31055
1.30804
1.30572
1.30347
1.30112
1.29853
1.29553
1.29213
1.28855
1.28504
1.282
1.2796
1.27737
1.2749
1.27201
1.26881
1.26559
1.26244
1.25936
1.25651
1.2541
1.252
1.25002
1.24804
1.24594
1.2436
1.24067
1.23665
1.23195
1.22815
1.2259
1.2244
1.22327
1.22253
1.22182
1.22065
1.21877
1.21711
1.21623
1.21592
1.2162
1.21708
1.21799
1.2214
1.23982
1.31525
1.47228
1.59367
1.61468
1.61461
1.61307
1.60977
1.60576
1.60198
1.59843
1.59497
1.59162
1.58826
1.58468
1.58081
1.57666
1.57243
1.56844
1.56453
1.56101
1.55799
1.55478
1.55132
1.5477
1.5439
1.5401
1.53646
1.53281
1.52892
1.52486
1.52071
1.51655
1.51253
1.50866
1.50489
1.50118
1.49758
1.49438
1.49129
1.48847
1.48567
1.48214
1.47877
1.47582
1.47458
1.4748
1.47543
1.4784
1.48565
1.49764
1.51553
1.53615
1.56784
1.43947
1.43529
1.43097
1.42693
1.42303
1.41898
1.41466
1.41033
1.40621
1.40234
1.39876
1.39536
1.3919
1.38824
1.38432
1.38017
1.37592
1.37187
1.36829
1.36514
1.36216
1.35913
1.35591
1.35249
1.34895
1.34542
1.34192
1.33843
1.33501
1.33173
1.32862
1.32562
1.32268
1.31985
1.31713
1.31444
1.31161
1.30851
1.30509
1.30147
1.29792
1.29478
1.29211
1.28981
1.28777
1.28582
1.28369
1.28118
1.27815
1.2747
1.2712
1.26793
1.26495
1.26238
1.26017
1.25803
1.25577
1.25327
1.25027
1.24662
1.24248
1.23831
1.23538
1.23354
1.23178
1.22989
1.2283
1.22715
1.22584
1.22358
1.22081
1.21945
1.21919
1.21917
1.21902
1.21856
1.21826
1.21967
1.22823
1.27058
1.39661
1.55883
1.61729
1.62055
1.61976
1.61689
1.61269
1.60853
1.60465
1.60087
1.59704
1.59306
1.58893
1.58476
1.58061
1.57663
1.5729
1.56929
1.56614
1.56306
1.55967
1.55607
1.55209
1.54784
1.54348
1.53913
1.5347
1.53011
1.52574
1.52172
1.51773
1.51401
1.51037
1.50666
1.50296
1.49953
1.49656
1.4934
1.4905
1.48765
1.48514
1.48447
1.48495
1.48759
1.49405
1.5066
1.52525
1.55
1.57559
1.60102
1.6204
1.64073
1.44441
1.44067
1.43694
1.43324
1.42943
1.42544
1.42128
1.4171
1.413
1.40901
1.40513
1.4013
1.39753
1.39382
1.39008
1.38625
1.38238
1.3786
1.37497
1.3714
1.36777
1.36407
1.36037
1.35674
1.35318
1.34966
1.34617
1.34278
1.33963
1.33673
1.33397
1.33125
1.32851
1.32581
1.32317
1.32045
1.31747
1.31413
1.31052
1.30694
1.30366
1.30078
1.29819
1.29571
1.29315
1.29037
1.28731
1.28408
1.28093
1.27806
1.27542
1.27294
1.27057
1.26832
1.26607
1.26372
1.26117
1.25826
1.25484
1.25104
1.24732
1.24444
1.24247
1.24044
1.23809
1.23547
1.23259
1.2297
1.22647
1.22333
1.22207
1.22165
1.22169
1.22154
1.22098
1.22022
1.21952
1.22004
1.22412
1.24516
1.3293
1.49584
1.61184
1.62618
1.62587
1.62357
1.61943
1.61507
1.61105
1.6072
1.60324
1.59901
1.59467
1.59041
1.58627
1.5823
1.57852
1.57499
1.57162
1.56772
1.56369
1.55995
1.5559
1.5516
1.54716
1.54251
1.5377
1.53287
1.52843
1.52429
1.51994
1.51587
1.51193
1.50821
1.50493
1.50236
1.50048
1.49843
1.497
1.49632
1.49884
1.5062
1.51975
1.54145
1.56911
1.59858
1.63193
1.65833
1.67511
1.69049
1.69716
1.70247
1.451
1.44723
1.44337
1.43934
1.43506
1.43053
1.42592
1.42171
1.41798
1.41443
1.41083
1.40713
1.40326
1.39923
1.39515
1.39123
1.38764
1.38431
1.38102
1.3776
1.37397
1.37022
1.36652
1.36297
1.3595
1.35605
1.35262
1.34925
1.34596
1.34275
1.33958
1.33642
1.3333
1.33024
1.32718
1.32409
1.32091
1.31769
1.31457
1.31168
1.30904
1.30655
1.30406
1.30146
1.29868
1.29573
1.29269
1.28972
1.28689
1.28413
1.28137
1.27865
1.27599
1.27334
1.2706
1.26762
1.26436
1.26078
1.25725
1.25434
1.25222
1.25064
1.24908
1.24708
1.24449
1.24139
1.23784
1.23403
1.23046
1.22811
1.22687
1.2258
1.22468
1.22328
1.22165
1.21998
1.21946
1.21986
1.22227
1.23277
1.28102
1.41774
1.58188
1.62967
1.63164
1.63029
1.62676
1.62242
1.61819
1.61409
1.60982
1.60533
1.60086
1.59667
1.59267
1.58877
1.5851
1.58163
1.57798
1.57364
1.56905
1.56454
1.55971
1.55483
1.55003
1.54516
1.54036
1.53574
1.53139
1.52734
1.52336
1.51975
1.51641
1.51368
1.51152
1.51046
1.51116
1.51488
1.5243
1.54052
1.56646
1.59788
1.634
1.67326
1.70127
1.72615
1.74519
1.75138
1.75553
1.7593
1.75788
1.75586
1.45727
1.45314
1.44897
1.44479
1.44061
1.43641
1.4322
1.42812
1.42429
1.42059
1.41691
1.41315
1.4093
1.40532
1.40128
1.39725
1.39327
1.3893
1.38532
1.38144
1.37782
1.37448
1.3713
1.36821
1.3651
1.36191
1.35866
1.35535
1.35201
1.34869
1.3454
1.34213
1.33896
1.3359
1.33289
1.32985
1.32676
1.32366
1.32055
1.31741
1.31419
1.31093
1.30766
1.30448
1.30152
1.29891
1.29668
1.29471
1.29269
1.29036
1.28772
1.28494
1.28208
1.27915
1.27613
1.27294
1.26949
1.26583
1.26266
1.26017
1.25787
1.25553
1.25317
1.25062
1.24772
1.24458
1.24143
1.23831
1.23531
1.23323
1.23187
1.23021
1.22796
1.22604
1.22466
1.22349
1.22278
1.22295
1.22433
1.22928
1.25266
1.3444
1.51671
1.62529
1.63699
1.63641
1.63406
1.63027
1.62603
1.62178
1.6174
1.61289
1.60837
1.60403
1.59977
1.59555
1.5915
1.58754
1.58341
1.57901
1.57445
1.56958
1.56427
1.55911
1.55406
1.54903
1.54401
1.5392
1.53495
1.5312
1.5287
1.52718
1.52713
1.52965
1.53653
1.55005
1.57164
1.60438
1.64126
1.68391
1.72661
1.75541
1.78601
1.80171
1.80564
1.81131
1.80848
1.80337
1.80027
1.79691
1.79389
1.79072
1.46241
1.4583
1.45398
1.44948
1.44499
1.44073
1.43677
1.43307
1.42952
1.42599
1.4224
1.41873
1.41499
1.41119
1.40729
1.4033
1.39924
1.39517
1.39119
1.38747
1.38407
1.38089
1.37775
1.3745
1.37105
1.36744
1.36373
1.35996
1.35616
1.35254
1.34918
1.34607
1.34319
1.34051
1.33789
1.33522
1.33247
1.32966
1.32677
1.32368
1.32038
1.31692
1.31343
1.3101
1.30712
1.30445
1.30183
1.29918
1.2966
1.29403
1.29142
1.28886
1.2863
1.28362
1.28082
1.27793
1.27485
1.27169
1.26901
1.26665
1.26422
1.26169
1.25911
1.25636
1.2533
1.24997
1.24658
1.24336
1.24022
1.23713
1.2347
1.23246
1.22979
1.22828
1.22767
1.22698
1.22648
1.22667
1.22759
1.22985
1.2399
1.29084
1.43405
1.59618
1.64101
1.64242
1.64102
1.63778
1.6335
1.62911
1.62488
1.62069
1.61645
1.61221
1.6078
1.60326
1.59858
1.59373
1.58861
1.5835
1.57857
1.57354
1.56828
1.56342
1.55899
1.55478
1.55077
1.54706
1.54453
1.54483
1.54894
1.56065
1.5817
1.61327
1.65581
1.69965
1.74974
1.79235
1.82527
1.85668
1.86777
1.87383
1.8782
1.87514
1.8702
1.86564
1.85851
1.85056
1.84465
1.83885
1.83413
1.82765
1.46733
1.46334
1.45928
1.45508
1.45089
1.44687
1.44301
1.43927
1.43562
1.43196
1.42817
1.42415
1.41996
1.41568
1.4114
1.40719
1.40314
1.39932
1.39574
1.39246
1.38954
1.3868
1.38392
1.38075
1.3773
1.37364
1.3699
1.36615
1.3624
1.35875
1.35528
1.35196
1.34875
1.34565
1.34259
1.33957
1.33661
1.3337
1.33083
1.32797
1.32505
1.32201
1.31885
1.31578
1.31301
1.31045
1.30793
1.30541
1.30296
1.30045
1.29776
1.29491
1.29192
1.2887
1.28524
1.28203
1.27918
1.27644
1.27389
1.27149
1.26903
1.26649
1.26412
1.26182
1.25925
1.25633
1.25329
1.25038
1.24746
1.24437
1.24117
1.23814
1.23528
1.23268
1.23111
1.22931
1.22807
1.22789
1.22813
1.22951
1.23452
1.2588
1.35557
1.53285
1.63918
1.64949
1.64878
1.6462
1.6419
1.63716
1.63277
1.62847
1.6242
1.61993
1.6154
1.61059
1.60538
1.60008
1.5946
1.58922
1.58414
1.57921
1.57497
1.57162
1.56862
1.56746
1.57042
1.57941
1.59799
1.62706
1.66811
1.71912
1.76835
1.8257
1.86745
1.89743
1.92596
1.93193
1.93166
1.92814
1.91893
1.90964
1.90071
1.89251
1.8871
1.88274
1.87712
1.8721
1.86824
1.86373
1.85916
1.85205
1.47142
1.46727
1.46329
1.45944
1.45571
1.45203
1.44838
1.44477
1.44122
1.43766
1.43396
1.42999
1.42583
1.42163
1.41749
1.41345
1.40957
1.40589
1.40238
1.39894
1.39556
1.39218
1.38869
1.38504
1.38138
1.37785
1.37448
1.37121
1.36794
1.36472
1.36162
1.35858
1.35551
1.35244
1.34941
1.3465
1.34368
1.34083
1.33783
1.33463
1.33124
1.32773
1.32415
1.32076
1.31784
1.31527
1.31276
1.31057
1.30886
1.30703
1.30467
1.30185
1.29882
1.29565
1.29243
1.28953
1.28697
1.28436
1.28162
1.27883
1.27598
1.27285
1.26958
1.26664
1.264
1.26143
1.25899
1.25674
1.25449
1.25202
1.2493
1.24636
1.24347
1.2406
1.23832
1.23618
1.23419
1.23276
1.232
1.232
1.23377
1.24425
1.29699
1.44605
1.61121
1.65629
1.65736
1.65596
1.65236
1.64762
1.64299
1.63833
1.63356
1.6287
1.62345
1.61801
1.61224
1.60697
1.60235
1.59822
1.59511
1.59349
1.5959
1.60353
1.61987
1.6475
1.68526
1.73573
1.79154
1.84581
1.90218
1.94064
1.97323
1.99866
2.00345
2.00558
2.00245
1.99342
1.98234
1.97067
1.958
1.94601
1.93398
1.92261
1.9142
1.90743
1.90115
1.89574
1.89116
1.88639
1.88194
1.87342
1.47697
1.47308
1.46929
1.4656
1.46189
1.45806
1.45413
1.45016
1.44617
1.44219
1.43822
1.43428
1.43046
1.42683
1.42331
1.41978
1.41625
1.41281
1.40945
1.40613
1.40281
1.39948
1.39609
1.39267
1.38932
1.38601
1.38263
1.3791
1.37539
1.37162
1.36803
1.3649
1.36215
1.35954
1.35703
1.35465
1.35234
1.34991
1.34719
1.34419
1.34103
1.33776
1.33437
1.33112
1.32834
1.32577
1.32298
1.31999
1.31754
1.3154
1.31289
1.31002
1.30737
1.30493
1.3025
1.30036
1.29854
1.29647
1.29396
1.29124
1.28847
1.28551
1.28231
1.27918
1.2763
1.27355
1.27082
1.26807
1.26525
1.26228
1.25951
1.25699
1.25449
1.25215
1.25003
1.24818
1.2461
1.24396
1.24228
1.24137
1.24117
1.24477
1.26833
1.36706
1.54535
1.65948
1.67204
1.67165
1.66889
1.66389
1.65852
1.65283
1.6471
1.64132
1.63574
1.63053
1.62548
1.62283
1.62507
1.63282
1.64899
1.67677
1.7165
1.764
1.82327
1.87745
1.93188
1.98375
2.01168
2.03709
2.05548
2.05489
2.0505
2.04246
2.03206
2.02039
2.00924
1.99653
1.98464
1.97459
1.96592
1.95891
1.95075
1.9419
1.93472
1.92843
1.92272
1.91787
1.91269
1.90675
1.90131
1.89083
1.48227
1.47883
1.4754
1.47197
1.46842
1.46472
1.461
1.45735
1.45373
1.4501
1.44649
1.44293
1.43949
1.43615
1.43275
1.42916
1.42545
1.42175
1.41822
1.41492
1.41192
1.40925
1.40683
1.40457
1.40238
1.40007
1.39745
1.39449
1.3913
1.38805
1.3849
1.38207
1.37947
1.37688
1.37434
1.37192
1.36964
1.36749
1.3653
1.36297
1.36102
1.3597
1.35827
1.35645
1.35479
1.3531
1.35105
1.34852
1.34611
1.344
1.34148
1.3386
1.33624
1.3341
1.3317
1.32917
1.32726
1.32566
1.32376
1.32169
1.31973
1.31778
1.31572
1.31373
1.31192
1.31001
1.30772
1.30503
1.30203
1.29875
1.29526
1.29183
1.28859
1.28535
1.28246
1.28011
1.27779
1.27516
1.27266
1.2717
1.27214
1.27388
1.28416
1.33251
1.47672
1.65417
1.71316
1.7138
1.71082
1.70368
1.69428
1.68472
1.67734
1.67142
1.67087
1.67717
1.6924
1.71893
1.75905
1.80774
1.86354
1.92528
1.97642
2.02641
2.06443
2.08948
2.11431
2.1204
2.12388
2.12143
2.11406
2.10318
2.09011
2.07099
2.05026
2.03279
2.01608
2.00103
1.98837
1.97769
1.9696
1.96346
1.95709
1.95096
1.94565
1.94067
1.93625
1.93209
1.92648
1.92008
1.91411
1.90254
1.49173
1.48816
1.48458
1.48105
1.47761
1.47434
1.47149
1.46916
1.46711
1.46517
1.46318
1.46102
1.45892
1.45699
1.45491
1.45261
1.45028
1.44781
1.4454
1.44328
1.44106
1.43922
1.43813
1.43708
1.43638
1.43591
1.43484
1.43376
1.43282
1.43165
1.43072
1.43045
1.43003
1.42886
1.42778
1.42668
1.42529
1.42418
1.42314
1.42135
1.41947
1.41885
1.41906
1.41805
1.41638
1.41522
1.41391
1.41214
1.41064
1.40998
1.40873
1.40717
1.40606
1.405
1.40345
1.40151
1.39952
1.39781
1.39601
1.39402
1.39194
1.38971
1.38731
1.38491
1.38278
1.38085
1.37884
1.37674
1.37472
1.37272
1.3706
1.36811
1.36539
1.36264
1.35959
1.35636
1.35337
1.35025
1.34656
1.34354
1.34188
1.34229
1.3468
1.3731
1.47244
1.66817
1.80022
1.80804
1.80139
1.78706
1.77349
1.76448
1.76907
1.78514
1.81722
1.86453
1.91879
1.98176
2.03284
2.07769
2.12526
2.14367
2.1585
2.17147
2.16956
2.16459
2.15661
2.14691
2.13797
2.12883
2.11517
2.09771
2.08078
2.06428
2.0509
2.03798
2.0243
2.01221
2.00063
1.99053
1.98277
1.97607
1.96955
1.96315
1.95712
1.95147
1.94636
1.94085
1.93454
1.92774
1.92137
1.90932
1.5161
1.51422
1.51255
1.51104
1.51004
1.50952
1.50923
1.50921
1.5092
1.5096
1.51022
1.50977
1.5094
1.50951
1.50931
1.50955
1.51043
1.51081
1.51133
1.51258
1.51262
1.51281
1.51363
1.51329
1.51348
1.5137
1.51234
1.5116
1.51153
1.51019
1.5093
1.50973
1.50905
1.50778
1.50743
1.50723
1.50671
1.50637
1.50677
1.50565
1.50372
1.50287
1.5024
1.50096
1.4985
1.4965
1.49493
1.49301
1.49108
1.48967
1.48779
1.48597
1.4848
1.48363
1.48238
1.48065
1.47901
1.47772
1.47641
1.47471
1.4726
1.47024
1.46771
1.46512
1.46259
1.46012
1.45775
1.45553
1.45347
1.4515
1.44941
1.44726
1.445
1.44276
1.44062
1.4382
1.43567
1.43313
1.43001
1.42664
1.42344
1.42237
1.42381
1.43446
1.48811
1.6447
1.85175
1.89632
1.89441
1.88255
1.88603
1.90926
1.95479
2.01736
2.08332
2.13185
2.17561
2.20392
2.21954
2.23446
2.23829
2.23785
2.23458
2.2292
2.2198
2.20784
2.19065
2.16596
2.13809
2.11666
2.0984
2.08163
2.06564
2.05254
2.04231
2.02978
2.01781
2.00991
2.00484
1.99976
1.99376
1.98739
1.98015
1.97231
1.96464
1.95741
1.95068
1.94379
1.93672
1.92931
1.92251
1.91051
1.57488
1.57568
1.57741
1.57894
1.58079
1.58283
1.5849
1.58664
1.58741
1.58841
1.58886
1.58848
1.58902
1.589
1.58841
1.58936
1.58949
1.58842
1.5889
1.58891
1.58761
1.58771
1.58716
1.5855
1.58522
1.58508
1.58282
1.58101
1.57969
1.57687
1.57471
1.57371
1.57134
1.5687
1.56759
1.56576
1.56328
1.56155
1.55998
1.55777
1.55509
1.55307
1.55135
1.54945
1.54701
1.54419
1.54149
1.53892
1.53624
1.53378
1.53144
1.52927
1.52714
1.52493
1.5227
1.52036
1.51808
1.51596
1.5139
1.5118
1.50961
1.50744
1.50521
1.50283
1.50036
1.49791
1.49555
1.49335
1.49125
1.48925
1.48715
1.48481
1.48235
1.47985
1.47738
1.47497
1.47248
1.47023
1.46812
1.46545
1.46205
1.45997
1.46017
1.46379
1.48585
1.5812
1.78808
1.91272
1.94669
1.97174
2.0248
2.09891
2.17498
2.24174
2.26524
2.27307
2.27667
2.27363
2.26568
2.25841
2.25075
2.24422
2.23637
2.22594
2.21222
2.19365
2.17446
2.15499
2.1351
2.11443
2.09369
2.07468
2.05677
2.04326
2.0331
2.02355
2.01594
2.01071
2.00768
2.00342
1.99779
1.99156
1.98428
1.97618
1.9681
1.96042
1.95322
1.94612
1.93907
1.93171
1.92481
1.91272
1.6566
1.65806
1.65884
1.65937
1.66029
1.66072
1.66067
1.66034
1.66048
1.65991
1.65888
1.65851
1.65835
1.65726
1.65632
1.65608
1.65407
1.65212
1.65149
1.64945
1.64733
1.64633
1.64464
1.64205
1.64032
1.6384
1.63549
1.63279
1.6303
1.62751
1.625
1.62272
1.61997
1.61705
1.61453
1.61176
1.60873
1.60583
1.60302
1.60017
1.5973
1.59446
1.59162
1.58886
1.58597
1.58282
1.57978
1.57706
1.57449
1.57204
1.56966
1.56722
1.56461
1.56184
1.55903
1.55626
1.55356
1.55095
1.5484
1.54593
1.54368
1.54158
1.53946
1.53723
1.53489
1.53263
1.53052
1.52851
1.52649
1.5245
1.52243
1.52009
1.51755
1.51497
1.51247
1.51012
1.50779
1.5056
1.50384
1.50189
1.49914
1.49581
1.49442
1.49507
1.5015
1.53863
1.67879
1.84915
1.97939
2.10273
2.21451
2.27701
2.32634
2.3326
2.33118
2.32782
2.32052
2.30738
2.29068
2.269
2.24572
2.22488
2.20545
2.18777
2.17193
2.15645
2.14159
2.12666
2.11186
2.09716
2.08229
2.06735
2.05313
2.04054
2.02997
2.02265
2.01657
2.01161
2.00704
2.00133
1.99534
1.98898
1.98186
1.97426
1.96654
1.95892
1.95148
1.94404
1.93675
1.92921
1.92234
1.91064
1.70601
1.70602
1.70358
1.70163
1.70069
1.69846
1.69571
1.69422
1.69362
1.69162
1.68902
1.68728
1.68505
1.68222
1.67946
1.67666
1.6737
1.67115
1.66859
1.66569
1.66304
1.66072
1.65816
1.65545
1.6528
1.65004
1.64701
1.64396
1.64123
1.63857
1.63591
1.63312
1.63012
1.62701
1.62397
1.6209
1.61771
1.61463
1.61167
1.60872
1.60578
1.60273
1.5995
1.59627
1.59313
1.59003
1.58719
1.58472
1.58245
1.58029
1.57808
1.57574
1.57319
1.57048
1.56773
1.56502
1.56235
1.55975
1.55719
1.5547
1.55237
1.55014
1.54789
1.54565
1.54351
1.54157
1.5398
1.53806
1.53626
1.53442
1.53245
1.53022
1.52782
1.52547
1.52322
1.52095
1.51863
1.5164
1.51426
1.5122
1.50966
1.5065
1.50307
1.50266
1.50497
1.51833
1.58087
1.74755
2.01882
2.27712
2.38048
2.38221
2.37114
2.35975
2.33744
2.31733
2.29904
2.27905
2.25845
2.2394
2.22141
2.20428
2.18735
2.16956
2.15086
2.13316
2.11726
2.10206
2.08774
2.07795
2.06977
2.06089
2.05324
2.04718
2.04157
2.03696
2.03204
2.02589
2.01866
2.01087
2.00307
1.99524
1.98751
1.97989
1.97228
1.96467
1.95713
1.94952
1.94197
1.93393
1.92675
1.91518
1.74955
1.74739
1.7439
1.74067
1.73824
1.73508
1.73144
1.72917
1.72678
1.72336
1.71975
1.71614
1.71208
1.7077
1.7035
1.69907
1.6947
1.69054
1.68618
1.6819
1.67803
1.67433
1.67064
1.667
1.66336
1.65977
1.65609
1.65233
1.64881
1.64553
1.64233
1.63897
1.63543
1.63189
1.62839
1.62475
1.62102
1.61743
1.61401
1.61072
1.60755
1.60435
1.60093
1.59741
1.594
1.59088
1.58809
1.5855
1.58301
1.58057
1.57812
1.57562
1.57305
1.57043
1.56783
1.56523
1.56259
1.55999
1.55744
1.55488
1.55236
1.54996
1.54769
1.54557
1.54362
1.54186
1.54008
1.53818
1.53617
1.53415
1.53211
1.53005
1.52799
1.52597
1.52397
1.52182
1.51947
1.51715
1.51468
1.51255
1.51042
1.50763
1.504
1.50177
1.50197
1.50529
1.52708
1.6636
2.07386
2.39875
2.43242
2.40563
2.36035
2.32508
2.30261
2.28343
2.26497
2.24729
2.23023
2.21359
2.19644
2.18083
2.16559
2.14957
2.13283
2.11762
2.10469
2.09268
2.08361
2.07617
2.06855
2.06099
2.05346
2.04648
2.04041
2.03494
2.02886
2.02187
2.01386
2.00508
1.99598
1.9868
1.97806
1.96993
1.96232
1.9551
1.94805
1.94103
1.93404
1.92645
1.91949
1.90839
1.76844
1.76534
1.76191
1.7585
1.75555
1.75274
1.74997
1.74707
1.7439
1.74037
1.73666
1.73309
1.72909
1.72459
1.72032
1.71606
1.71126
1.70657
1.70235
1.69811
1.69426
1.69087
1.68741
1.68402
1.68055
1.67672
1.67297
1.66915
1.66453
1.65957
1.65488
1.65024
1.64566
1.64147
1.63759
1.63387
1.63045
1.62717
1.6237
1.61998
1.61616
1.61237
1.60876
1.60533
1.60206
1.59877
1.59538
1.59177
1.5879
1.58402
1.58038
1.57713
1.57437
1.57202
1.56987
1.56765
1.56526
1.56271
1.56002
1.55733
1.55477
1.55246
1.55033
1.54823
1.54619
1.54402
1.54167
1.53916
1.53656
1.53412
1.53203
1.53028
1.52882
1.52743
1.52589
1.52411
1.522
1.51982
1.51775
1.51559
1.51376
1.51176
1.5088
1.50503
1.50113
1.50131
1.51311
1.63884
2.13336
2.43101
2.42308
2.38557
2.34164
2.30721
2.28366
2.26604
2.24865
2.23312
2.21964
2.20447
2.18892
2.17391
2.15822
2.14195
2.12842
2.1197
2.11065
2.10255
2.09495
2.08717
2.07924
2.07166
2.06405
2.05651
2.04907
2.04145
2.03335
2.02481
2.01599
2.00691
1.9974
1.98753
1.97786
1.96882
1.96066
1.95331
1.9463
1.93971
1.93338
1.92673
1.92082
1.91032
1.78045
1.77482
1.76988
1.76542
1.76117
1.75703
1.7528
1.74846
1.74401
1.73964
1.73548
1.73127
1.72727
1.72369
1.71969
1.71508
1.71051
1.7059
1.70104
1.69634
1.69189
1.68761
1.68369
1.67991
1.67608
1.67233
1.66854
1.66455
1.66053
1.65647
1.65229
1.64814
1.6443
1.64074
1.63724
1.63364
1.62975
1.62559
1.62132
1.61712
1.61313
1.60944
1.60593
1.60245
1.59901
1.59567
1.59231
1.58884
1.5853
1.58191
1.57881
1.576
1.57336
1.5709
1.56855
1.56613
1.56356
1.56086
1.5581
1.55537
1.55275
1.55032
1.54807
1.54599
1.54397
1.54187
1.53961
1.53713
1.53477
1.53288
1.53123
1.52962
1.52808
1.52649
1.52475
1.52286
1.5207
1.5183
1.51593
1.51365
1.51141
1.50929
1.50683
1.50294
1.49915
1.49934
1.5085
1.63885
2.16818
2.43024
2.42226
2.37774
2.33047
2.29808
2.27606
2.25843
2.24206
2.22603
2.20866
2.19027
2.17265
2.15557
2.13941
2.12343
2.11105
2.10398
2.09792
2.09194
2.08638
2.08026
2.0732
2.06592
2.05828
2.05019
2.04194
2.03365
2.0258
2.01833
2.01058
2.00241
1.9935
1.9841
1.97485
1.96625
1.95865
1.95203
1.94594
1.94002
1.93374
1.9267
1.92011
1.90877
)
;

boundaryField
{
    inlet
    {
        type            calculated;
        value           nonuniform 0();
    }
    outlet
    {
        type            calculated;
        value           nonuniform List<scalar> 
19
(
1.50376
1.56785
1.64087
1.70268
1.7561
1.79094
1.82787
1.85224
1.87357
1.89094
1.90261
1.90936
1.91053
1.91273
1.91065
1.91519
1.9084
1.91033
1.90879
)
;
    }
    bottom
    {
        type            symmetryPlane;
    }
    top
    {
        type            symmetryPlane;
    }
    obstacle
    {
        type            calculated;
        value           nonuniform 0();
    }
    front
    {
        type            empty;
    }
    back
    {
        type            empty;
    }
    procBoundary55to47
    {
        type            processor;
        value           nonuniform List<scalar> 
133
(
1.58188
1.57879
1.57563
1.5724
1.56906
1.56551
1.5618
1.55789
1.55398
1.55043
1.54724
1.54426
1.5414
1.53846
1.53514
1.5316
1.52816
1.52458
1.5211
1.51783
1.51454
1.51112
1.50757
1.50396
1.50035
1.49683
1.49342
1.49016
1.48695
1.48378
1.48073
1.47761
1.47434
1.47107
1.4681
1.4652
1.46195
1.45915
1.45904
1.45953
1.45988
1.46725
1.42533
1.42154
1.4178
1.41407
1.41017
1.40607
1.40198
1.39799
1.3939
1.38971
1.38578
1.38233
1.37918
1.3761
1.37286
1.36929
1.36536
1.3612
1.35704
1.35317
1.34969
1.34648
1.34337
1.34028
1.33728
1.33446
1.33166
1.32869
1.32544
1.32188
1.31804
1.31425
1.31082
1.30759
1.30442
1.30173
1.29951
1.29738
1.29513
1.29265
1.2899
1.28688
1.28357
1.27996
1.27627
1.27317
1.27075
1.26851
1.26628
1.2642
1.26207
1.25953
1.25647
1.25313
1.24986
1.24697
1.24453
1.24238
1.24033
1.23813
1.23547
1.23203
1.22778
1.22367
1.22065
1.21924
1.21853
1.21809
1.21804
1.21823
1.21793
1.21713
1.21613
1.21523
1.21542
1.21607
1.21777
1.22537
1.2619
1.37717
1.53709
1.60422
1.60917
1.60854
1.60649
1.60314
1.59962
1.59644
1.59341
1.5903
1.5903
)
;
    }
    procBoundary55to54
    {
        type            processor;
        value           nonuniform List<scalar> 
18
(
1.43669
1.44323
1.44822
1.45489
1.46135
1.46639
1.47145
1.47571
1.48089
1.48577
1.49528
1.51801
1.57436
1.65578
1.70673
1.75212
1.77173
1.78591
)
;
    }
}


// ************************************************************************* //
