/*--------------------------------*- C++ -*----------------------------------*\
  =========                 |
  \\      /  F ield         | OpenFOAM: The Open Source CFD Toolbox
   \\    /   O peration     | Website:  https://openfoam.org
    \\  /    A nd           | Version:  7
     \\/     M anipulation  |
\*---------------------------------------------------------------------------*/
FoamFile
{
    version     2.0;
    format      ascii;
    class       volScalarField;
    location    "12.5";
    object      rho;
}
// * * * * * * * * * * * * * * * * * * * * * * * * * * * * * * * * * * * * * //

dimensions      [1 -3 0 0 0 0 0];

internalField   nonuniform List<scalar> 
2413
(
0.934614
0.934905
0.939231
0.94462
0.947962
0.95658
0.983014
1.05813
0.965205
0.964377
0.967136
0.973241
0.975792
0.983117
1.00535
1.06162
0.993139
0.991559
0.994147
0.999768
1.00176
1.00925
1.02946
1.07133
1.019
1.01683
1.01999
1.02461
1.02655
1.0356
1.0547
1.08532
1.04267
1.03988
1.04352
1.04723
1.05019
1.062
1.0809
1.10209
1.06405
1.06196
1.06662
1.06974
1.0738
1.08915
1.10775
1.12037
1.08338
1.08369
1.08876
1.09073
1.09662
1.11559
1.13244
1.13875
1.10345
1.10637
1.11036
1.11225
1.12094
1.14214
1.15479
1.15694
1.12425
1.12883
1.13204
1.13548
1.14755
1.16772
1.17598
1.1762
1.14677
1.15189
1.15408
1.15951
1.17555
1.19096
1.19531
1.19592
1.17057
1.17533
1.17744
1.18542
1.20391
1.21321
1.21366
1.21465
1.19485
1.19798
1.20099
1.21227
1.22777
1.23368
1.23352
1.23221
1.21773
1.21951
1.22468
1.2396
1.24907
1.25157
1.25214
1.24961
1.23857
1.2401
1.24842
1.26372
1.26764
1.26793
1.26897
1.26755
1.25752
1.2601
1.27195
1.28354
1.28504
1.28374
1.28404
1.28386
1.27624
1.28153
1.29481
1.30186
1.30268
1.30106
1.29941
1.29849
1.29583
1.30495
1.3167
1.31979
1.31993
1.31851
1.31607
1.31337
1.318
1.33088
1.33739
1.3387
1.33794
1.33563
1.33324
1.32954
1.3421
1.35494
1.3565
1.35705
1.35664
1.35277
1.34974
1.34644
1.12156
1.12119
1.12007
1.11594
1.11392
1.11419
1.11403
1.11252
1.11175
1.11216
1.1149
1.11975
1.12678
1.1411
1.16866
1.18724
1.18835
1.18623
1.18633
1.18699
1.31161
1.34407
1.34558
1.34501
1.34211
1.33705
1.3282
1.31668
1.30584
1.29716
1.29956
1.30998
1.35433
1.47702
1.6318
1.79539
1.87766
1.8818
1.87909
1.8664
1.83614
1.79745
1.75612
1.71276
1.67005
1.6316
1.59548
1.56086
1.52797
1.49723
1.46862
1.44037
1.41242
1.38668
1.36015
1.33435
1.31138
1.28792
1.26408
1.24092
1.21853
1.19543
1.17411
1.15389
1.13722
1.12591
1.11927
1.11872
1.11759
1.12031
1.13517
1.16348
1.20074
1.24117
1.26607
1.28392
1.29837
1.30019
1.29811
1.29805
1.29943
1.29628
1.29375
1.29284
1.29321
1.29274
1.28746
1.28181
1.27995
1.27912
1.27481
1.27049
1.26706
1.26318
1.25949
1.25508
1.25031
1.24531
1.24036
1.23537
1.23011
1.22476
1.21979
1.21439
1.20829
1.20294
1.19771
1.19207
1.18663
1.18124
1.17666
1.17263
1.16745
1.16218
1.15956
1.15653
1.15126
1.14757
1.14568
1.14182
1.13638
1.13476
1.13415
1.13102
1.12724
1.12659
1.12577
1.12358
1.12166
1.12217
1.1252
1.12863
1.13623
1.15416
1.18604
1.20623
1.20748
1.20661
1.20729
1.16252
1.2926
1.36005
1.36699
1.36663
1.36583
1.36283
1.3573
1.34965
1.3382
1.32548
1.31341
1.30527
1.30774
1.31999
1.36305
1.46786
1.63045
1.74493
1.83671
1.8521
1.84765
1.83013
1.80338
1.77012
1.73197
1.6913
1.65083
1.61316
1.57914
1.54648
1.51528
1.48702
1.45926
1.43296
1.40907
1.38447
1.36023
1.33744
1.31422
1.28994
1.26764
1.24551
1.2202
1.19788
1.1773
1.15578
1.14047
1.12758
1.11636
1.11554
1.11797
1.12454
1.13834
1.16555
1.1966
1.22434
1.2534
1.26593
1.27427
1.28395
1.28642
1.28646
1.28756
1.28698
1.28747
1.28723
1.28328
1.27839
1.2749
1.27294
1.26937
1.26539
1.26218
1.25918
1.25469
1.25064
1.24741
1.24357
1.23926
1.23473
1.22993
1.22531
1.22113
1.21671
1.21213
1.20801
1.20353
1.19835
1.19445
1.19071
1.18597
1.18229
1.17916
1.17469
1.17107
1.16901
1.16562
1.16132
1.15958
1.15759
1.15298
1.14946
1.14864
1.14663
1.14263
1.14042
1.13861
1.13568
1.13321
1.13397
1.13496
1.13648
1.14474
1.16561
1.2
1.22023
1.22145
1.22127
1.22228
1.14387
1.25423
1.36087
1.38546
1.38638
1.38576
1.38365
1.38032
1.37506
1.36807
1.35882
1.34566
1.33218
1.31911
1.31384
1.31656
1.32683
1.37202
1.46451
1.60385
1.72137
1.78742
1.81368
1.80699
1.79691
1.77901
1.75104
1.71523
1.6751
1.63547
1.59986
1.56651
1.53553
1.50689
1.47881
1.45299
1.42934
1.40555
1.38304
1.36139
1.33836
1.31435
1.29251
1.27066
1.24683
1.22462
1.20234
1.18043
1.1614
1.14686
1.13657
1.1301
1.13059
1.13215
1.1344
1.14033
1.15494
1.17997
1.20886
1.23258
1.25392
1.26493
1.27146
1.27639
1.27678
1.27658
1.27622
1.27657
1.27445
1.27159
1.26838
1.26503
1.26227
1.26
1.25657
1.25289
1.2497
1.24687
1.24364
1.2396
1.23513
1.231
1.22727
1.22342
1.21935
1.21547
1.21172
1.20744
1.2026
1.19915
1.19625
1.19221
1.18797
1.18546
1.18238
1.17792
1.17532
1.17304
1.16891
1.16558
1.1638
1.16069
1.15599
1.15419
1.15264
1.1497
1.14735
1.14468
1.14178
1.14159
1.14194
1.14171
1.14381
1.15477
1.17919
1.21463
1.23428
1.23545
1.2353
1.23574
1.13487
1.21739
1.33666
1.39702
1.40317
1.40257
1.40143
1.39936
1.39613
1.39195
1.386
1.37766
1.36669
1.35174
1.33786
1.32525
1.32073
1.32333
1.33312
1.36961
1.46199
1.572
1.68668
1.75091
1.76564
1.76588
1.75948
1.74568
1.72339
1.69499
1.66285
1.6284
1.59353
1.56025
1.53003
1.50175
1.47519
1.45008
1.42505
1.4018
1.38107
1.35997
1.33732
1.31624
1.29426
1.2708
1.24918
1.22755
1.20555
1.18577
1.16755
1.15284
1.14363
1.13642
1.13207
1.13287
1.13528
1.14141
1.15353
1.17232
1.19564
1.21577
1.23391
1.24904
1.25475
1.25833
1.26335
1.26817
1.26695
1.26526
1.264
1.26077
1.25887
1.25753
1.25393
1.25008
1.24722
1.2453
1.24309
1.23903
1.23481
1.23168
1.22886
1.22533
1.22152
1.2179
1.21439
1.21042
1.20563
1.20201
1.19906
1.19537
1.19094
1.18821
1.18597
1.18197
1.17851
1.17634
1.17288
1.16883
1.16659
1.16385
1.15954
1.1568
1.15502
1.15246
1.14989
1.14699
1.14412
1.14387
1.14393
1.14352
1.14647
1.15929
1.1874
1.22557
1.24648
1.24945
1.24911
1.24742
1.13426
1.19133
1.29225
1.39417
1.41648
1.41699
1.41619
1.41496
1.41339
1.41114
1.40773
1.40259
1.39475
1.38439
1.37125
1.35487
1.34147
1.32907
1.32534
1.32746
1.33701
1.36974
1.44079
1.551
1.63672
1.70708
1.74124
1.73278
1.72123
1.7119
1.69659
1.67505
1.64994
1.62072
1.58932
1.5586
1.52868
1.50046
1.47451
1.44852
1.42275
1.40123
1.37953
1.3575
1.3376
1.31702
1.29434
1.27311
1.25266
1.23194
1.21106
1.19217
1.17555
1.16149
1.15179
1.1466
1.14379
1.14479
1.14568
1.14803
1.15265
1.16236
1.17718
1.19598
1.21601
1.22923
1.24071
1.24987
1.25148
1.25316
1.25569
1.25518
1.25374
1.253
1.25057
1.24667
1.24339
1.24203
1.24073
1.23689
1.23296
1.23021
1.22825
1.22545
1.2219
1.21851
1.21532
1.21184
1.20782
1.2042
1.20114
1.19767
1.19302
1.18952
1.1873
1.18384
1.17983
1.17756
1.17463
1.17049
1.16795
1.16534
1.16159
1.15841
1.15606
1.15353
1.1506
1.14707
1.14451
1.14413
1.14358
1.1435
1.1472
1.16062
1.18954
1.23107
1.25617
1.26012
1.25984
1.25809
1.13896
1.17667
1.25253
1.36561
1.42266
1.42914
1.42916
1.42891
1.42832
1.42739
1.42585
1.42282
1.41752
1.40969
1.39931
1.38668
1.3725
1.35604
1.34303
1.33208
1.32872
1.33073
1.33706
1.36558
1.42425
1.5107
1.6017
1.65341
1.69546
1.70249
1.69763
1.68501
1.67199
1.6565
1.63677
1.61315
1.58665
1.55783
1.52965
1.50346
1.47672
1.45076
1.42699
1.40257
1.37885
1.35843
1.33855
1.31748
1.29661
1.27753
1.25719
1.23628
1.21751
1.19819
1.18045
1.16787
1.15859
1.15289
1.15068
1.14853
1.14796
1.14844
1.15194
1.15881
1.17056
1.18416
1.1971
1.21146
1.22141
1.22812
1.23531
1.23908
1.24044
1.24176
1.24324
1.24225
1.23888
1.23692
1.23607
1.23503
1.23153
1.22842
1.22659
1.22433
1.22092
1.21736
1.21423
1.21113
1.20759
1.20415
1.20119
1.19816
1.19435
1.19047
1.18749
1.18415
1.17949
1.17643
1.17383
1.16976
1.16627
1.16379
1.16084
1.15754
1.15448
1.15177
1.14867
1.14473
1.14194
1.14085
1.14033
1.1411
1.14557
1.15919
1.18855
1.23162
1.26168
1.26718
1.26738
1.26628
1.14813
1.17186
1.22521
1.32114
1.41644
1.43896
1.44093
1.44146
1.44167
1.44161
1.44118
1.43966
1.43618
1.42998
1.42136
1.41118
1.39934
1.38619
1.37181
1.35596
1.3437
1.33512
1.33042
1.33189
1.33754
1.35614
1.4055
1.47191
1.55223
1.61128
1.64358
1.66563
1.6654
1.66127
1.65024
1.6362
1.62116
1.60393
1.5839
1.5604
1.53445
1.50782
1.48197
1.45718
1.43246
1.4076
1.38437
1.36316
1.34165
1.32139
1.30259
1.28134
1.26101
1.24327
1.22497
1.2069
1.19167
1.17643
1.16635
1.16166
1.15713
1.15542
1.156
1.15803
1.15828
1.15994
1.16221
1.16783
1.1779
1.18837
1.19904
1.20909
1.21417
1.21822
1.22303
1.22514
1.22542
1.22593
1.22737
1.22899
1.22736
1.22469
1.22358
1.22211
1.21928
1.2159
1.21242
1.20908
1.20589
1.20246
1.19883
1.19559
1.19225
1.18866
1.18539
1.1823
1.17848
1.17488
1.17188
1.16802
1.16369
1.16041
1.15749
1.15391
1.14918
1.14632
1.1443
1.14122
1.14034
1.14047
1.14025
1.14083
1.14434
1.15678
1.18596
1.22964
1.26517
1.27381
1.2746
1.27359
1.16112
1.17434
1.21016
1.28313
1.38828
1.44394
1.45223
1.45334
1.45419
1.45495
1.45503
1.45446
1.45226
1.44767
1.44054
1.43173
1.42172
1.41084
1.39897
1.38568
1.37152
1.35704
1.34508
1.33588
1.33135
1.33213
1.33526
1.34679
1.37754
1.43626
1.49648
1.56206
1.59999
1.61966
1.63182
1.62897
1.62462
1.61617
1.60315
1.58958
1.5744
1.55661
1.53584
1.5124
1.48864
1.46542
1.44155
1.41777
1.39488
1.37145
1.34971
1.32977
1.30916
1.28952
1.27073
1.25144
1.23339
1.21639
1.20042
1.18767
1.17804
1.16945
1.16182
1.15843
1.15697
1.15652
1.15715
1.15875
1.16149
1.16521
1.17141
1.17652
1.17933
1.18308
1.18878
1.19534
1.20034
1.20401
1.20875
1.21226
1.21285
1.21279
1.21261
1.21281
1.21208
1.20969
1.20683
1.20393
1.20103
1.1981
1.19491
1.19154
1.18823
1.18485
1.18145
1.17822
1.17478
1.17135
1.1684
1.1653
1.16192
1.15875
1.1559
1.15369
1.15151
1.14892
1.14728
1.14512
1.14232
1.14121
1.1409
1.1414
1.14467
1.15604
1.18396
1.22776
1.26906
1.28186
1.28317
1.28214
1.17721
1.18339
1.20531
1.25635
1.34666
1.43803
1.46274
1.46556
1.46677
1.46769
1.46789
1.46762
1.46618
1.46282
1.45733
1.44988
1.44114
1.43145
1.42104
1.4096
1.3979
1.38508
1.37127
1.3571
1.34516
1.33767
1.33189
1.32922
1.33036
1.33767
1.35767
1.39585
1.45097
1.50066
1.54983
1.57579
1.59062
1.59774
1.5952
1.59004
1.5824
1.57048
1.55733
1.54304
1.52789
1.51205
1.4941
1.47361
1.45216
1.43063
1.40829
1.38542
1.36307
1.34183
1.32195
1.30268
1.28277
1.26311
1.24401
1.22585
1.2121
1.20031
1.188
1.17942
1.17461
1.16962
1.16709
1.16649
1.1664
1.16674
1.16585
1.16514
1.16482
1.16543
1.16729
1.17071
1.17546
1.17852
1.18127
1.18508
1.18864
1.19144
1.19354
1.19443
1.19491
1.19493
1.19339
1.19104
1.18913
1.18758
1.18598
1.18362
1.18117
1.17876
1.17618
1.17348
1.17062
1.16761
1.16479
1.16212
1.15912
1.15663
1.15503
1.15441
1.15382
1.15204
1.15014
1.14839
1.14628
1.14472
1.14425
1.14472
1.14744
1.15701
1.18312
1.22705
1.27344
1.29063
1.29331
1.29282
1.19517
1.19713
1.20789
1.24024
1.30839
1.40885
1.46883
1.47913
1.48019
1.48073
1.4809
1.48077
1.4796
1.47683
1.4725
1.46652
1.45896
1.45026
1.44076
1.43018
1.41961
1.40871
1.39655
1.3838
1.37041
1.35749
1.34626
1.33731
1.33251
1.32944
1.32713
1.32909
1.33928
1.36156
1.39923
1.44569
1.4903
1.52586
1.5454
1.55684
1.56293
1.56267
1.55755
1.54833
1.5358
1.52411
1.51205
1.49946
1.48718
1.47415
1.45849
1.43991
1.42006
1.39987
1.3791
1.35815
1.33749
1.31724
1.29781
1.27848
1.25897
1.24124
1.22582
1.21208
1.20312
1.1944
1.18634
1.17941
1.17471
1.17057
1.16593
1.16474
1.16485
1.16524
1.16577
1.16524
1.16554
1.16656
1.16687
1.16788
1.16963
1.17252
1.17499
1.17509
1.17499
1.17562
1.1749
1.17313
1.17173
1.17072
1.16943
1.16908
1.16897
1.16809
1.16689
1.16562
1.16422
1.16272
1.16135
1.15989
1.15852
1.15764
1.15721
1.15712
1.15636
1.15482
1.15297
1.15114
1.14931
1.14838
1.1481
1.14856
1.15092
1.15881
1.18176
1.22474
1.27551
1.30181
1.30452
1.3039
1.21482
1.21431
1.21771
1.23473
1.27981
1.36369
1.45925
1.49014
1.49383
1.49408
1.4942
1.49402
1.49278
1.49024
1.48675
1.48196
1.47548
1.46762
1.4588
1.44913
1.43911
1.42911
1.41859
1.40741
1.39568
1.38315
1.37072
1.35903
1.34745
1.338
1.33061
1.32603
1.32404
1.3223
1.32452
1.33508
1.35591
1.38816
1.42586
1.46367
1.48981
1.5114
1.52354
1.52925
1.52891
1.52401
1.51344
1.50018
1.4912
1.48216
1.47176
1.46082
1.45018
1.43784
1.42317
1.40676
1.38928
1.37108
1.35178
1.33218
1.31342
1.29527
1.27771
1.26129
1.24614
1.23287
1.22123
1.20988
1.20195
1.19516
1.18693
1.18002
1.1752
1.17141
1.16738
1.16558
1.16537
1.16594
1.16753
1.16909
1.1705
1.17062
1.16962
1.16833
1.16752
1.16741
1.16749
1.16753
1.1671
1.16645
1.16672
1.16731
1.16578
1.16383
1.16221
1.16084
1.15982
1.15894
1.15805
1.15718
1.15649
1.15614
1.15619
1.15644
1.15615
1.15493
1.15365
1.15234
1.15141
1.15114
1.15097
1.15125
1.15323
1.15923
1.17735
1.21737
1.27061
1.31138
1.31862
1.31775
1.23274
1.23219
1.23213
1.23834
1.26289
1.32213
1.41688
1.49279
1.50713
1.50803
1.50795
1.50757
1.50589
1.50293
1.49972
1.49587
1.49053
1.48363
1.47563
1.46658
1.45693
1.44728
1.43746
1.42741
1.41686
1.40627
1.39532
1.38383
1.37173
1.35954
1.34845
1.33876
1.33089
1.32504
1.32127
1.3174
1.31528
1.31706
1.32543
1.34277
1.36818
1.39829
1.42924
1.45093
1.47281
1.48532
1.48818
1.49001
1.48793
1.48129
1.47058
1.46194
1.4529
1.44298
1.43279
1.42225
1.41135
1.39863
1.38386
1.36926
1.35516
1.34096
1.32582
1.31022
1.29534
1.28131
1.26774
1.25391
1.24033
1.22766
1.21632
1.20562
1.19745
1.19214
1.18711
1.18254
1.17912
1.17708
1.17566
1.17434
1.17352
1.17241
1.17056
1.16919
1.16875
1.1685
1.16835
1.16834
1.16812
1.16762
1.1679
1.16827
1.16726
1.16626
1.16558
1.16467
1.16364
1.16268
1.16157
1.16026
1.15904
1.158
1.157
1.15603
1.15493
1.15394
1.15356
1.15353
1.15331
1.15308
1.15298
1.15304
1.15441
1.1589
1.17149
1.2056
1.25935
1.31307
1.33389
1.33433
1.24859
1.24839
1.24666
1.24776
1.25792
1.29151
1.36387
1.46208
1.51447
1.52193
1.52183
1.52132
1.51933
1.51557
1.51161
1.50792
1.50339
1.49765
1.49091
1.48311
1.47436
1.46516
1.45574
1.44606
1.43609
1.42615
1.41642
1.40623
1.3954
1.38449
1.37285
1.36082
1.34923
1.33797
1.32978
1.32263
1.31652
1.31282
1.30963
1.30708
1.30767
1.31141
1.32243
1.34075
1.36337
1.38919
1.40852
1.42625
1.4381
1.4434
1.44879
1.44854
1.44202
1.43574
1.43033
1.4231
1.41342
1.40234
1.39051
1.37827
1.36659
1.35496
1.34327
1.33287
1.32352
1.31408
1.30373
1.29165
1.27856
1.26613
1.25462
1.24271
1.23113
1.22169
1.2135
1.2061
1.20014
1.19596
1.19284
1.19011
1.1877
1.18545
1.18301
1.1801
1.17715
1.17562
1.17449
1.17357
1.17284
1.17231
1.17216
1.17207
1.17166
1.17128
1.17054
1.16929
1.16783
1.16634
1.16497
1.16368
1.16259
1.16164
1.16062
1.15936
1.15835
1.15784
1.15762
1.15762
1.15701
1.1556
1.15463
1.15446
1.15516
1.15822
1.16673
1.19164
1.24355
1.3061
1.34259
1.34749
1.26382
1.26282
1.26094
1.25928
1.26208
1.27733
1.32072
1.40326
1.49812
1.53153
1.53606
1.53562
1.53378
1.52969
1.52443
1.51975
1.51506
1.50968
1.50374
1.497
1.4894
1.48127
1.47274
1.46375
1.45426
1.44464
1.43506
1.42527
1.41526
1.40538
1.39531
1.38487
1.37395
1.3626
1.35125
1.3402
1.32995
1.32048
1.31428
1.30906
1.30391
1.30081
1.29801
1.29658
1.29867
1.30396
1.31296
1.32607
1.34242
1.35778
1.3724
1.38476
1.39322
1.39955
1.40505
1.40351
1.39661
1.39161
1.3864
1.37844
1.36854
1.35778
1.34654
1.33681
1.3282
1.3198
1.31108
1.30195
1.29274
1.28324
1.27333
1.26256
1.2514
1.24248
1.23523
1.2283
1.22185
1.21661
1.21214
1.20795
1.20386
1.19991
1.19579
1.19093
1.18576
1.18316
1.18164
1.18013
1.1789
1.17792
1.17725
1.17683
1.17621
1.17541
1.17457
1.17324
1.17157
1.17028
1.16941
1.16884
1.16827
1.16787
1.16779
1.16755
1.16681
1.16586
1.1649
1.16371
1.16215
1.16019
1.15867
1.15843
1.15878
1.16073
1.1664
1.1828
1.22656
1.28999
1.33752
1.35547
1.28021
1.27689
1.2746
1.27128
1.27103
1.27663
1.29601
1.34786
1.43721
1.52433
1.54825
1.55128
1.55
1.54591
1.53938
1.53305
1.52797
1.52314
1.51808
1.5121
1.50521
1.49786
1.48999
1.48152
1.47253
1.46317
1.45365
1.44376
1.43351
1.42354
1.41385
1.40436
1.39449
1.38441
1.3746
1.3643
1.3535
1.34208
1.33132
1.32197
1.31381
1.30683
1.30122
1.29841
1.29398
1.2888
1.28466
1.28139
1.28121
1.28407
1.28836
1.29559
1.30652
1.31791
1.32982
1.33961
1.34545
1.35089
1.35203
1.35018
1.34709
1.3421
1.33523
1.3293
1.32381
1.3173
1.30991
1.30289
1.29557
1.28659
1.27649
1.26589
1.25529
1.24659
1.2398
1.23352
1.22758
1.22241
1.2175
1.21247
1.20737
1.20255
1.19778
1.19229
1.18653
1.18393
1.18264
1.18181
1.18137
1.18106
1.18055
1.17986
1.17906
1.17786
1.17615
1.17383
1.17241
1.17181
1.17135
1.17087
1.17063
1.1713
1.1726
1.17385
1.17433
1.17363
1.17231
1.17091
1.16951
1.16843
1.16812
1.16819
1.16817
1.16905
1.17232
1.18164
1.21143
1.27036
1.33005
1.36664
1.29587
1.29137
1.28851
1.28526
1.28236
1.28378
1.29163
1.31389
1.37409
1.46284
1.54194
1.56763
1.56833
1.56541
1.55985
1.55197
1.54423
1.53797
1.53215
1.52627
1.5204
1.51439
1.50774
1.50018
1.49177
1.4828
1.47348
1.46389
1.45405
1.44412
1.43436
1.42483
1.41493
1.40503
1.39569
1.38617
1.3761
1.36529
1.35457
1.34421
1.33422
1.32426
1.31436
1.30643
1.29855
1.29135
1.28483
1.27921
1.27533
1.27
1.2643
1.25947
1.25663
1.25644
1.25792
1.26104
1.26636
1.27374
1.28062
1.28579
1.2892
1.29126
1.29219
1.29342
1.29277
1.29107
1.28939
1.28589
1.28047
1.27356
1.26599
1.25835
1.25061
1.24436
1.23918
1.23394
1.22889
1.22406
1.21888
1.21329
1.20753
1.20175
1.19602
1.18967
1.18467
1.18257
1.18136
1.18055
1.17986
1.17941
1.17884
1.17797
1.17703
1.17633
1.1753
1.17378
1.17377
1.17403
1.17378
1.17287
1.17134
1.17082
1.17142
1.17287
1.17405
1.17383
1.17336
1.17334
1.17355
1.17405
1.17527
1.17662
1.17669
1.17683
1.17881
1.18439
1.2009
1.24765
1.3138
1.37678
1.31058
1.30682
1.30342
1.30073
1.29727
1.29547
1.29772
1.30735
1.33272
1.3931
1.47896
1.55921
1.58771
1.58838
1.58652
1.57931
1.56903
1.55999
1.55213
1.54509
1.53843
1.53194
1.52518
1.51778
1.5097
1.50114
1.49225
1.48318
1.47406
1.46487
1.45559
1.44632
1.43671
1.42682
1.41729
1.40788
1.39808
1.38766
1.37736
1.36739
1.35739
1.34693
1.336
1.32601
1.31623
1.30675
1.29696
1.28771
1.28065
1.27339
1.26627
1.25942
1.25349
1.24847
1.24269
1.23722
1.23216
1.22903
1.22798
1.22712
1.2258
1.22662
1.22912
1.23171
1.2336
1.23451
1.23561
1.23766
1.23812
1.23568
1.2322
1.22887
1.22545
1.22247
1.22005
1.21656
1.21274
1.20925
1.20537
1.20095
1.19635
1.19215
1.18843
1.18401
1.17945
1.17647
1.17426
1.17258
1.1714
1.17006
1.16858
1.16802
1.16799
1.16817
1.16811
1.16827
1.16889
1.16944
1.16982
1.17004
1.16978
1.16882
1.16867
1.16976
1.17043
1.17094
1.17253
1.17506
1.17746
1.17809
1.17792
1.17726
1.17704
1.17733
1.17831
1.1818
1.19169
1.22265
1.28583
1.36986
1.32592
1.32295
1.32018
1.31779
1.31498
1.31189
1.31099
1.31365
1.32378
1.35064
1.40651
1.49188
1.56935
1.61233
1.61301
1.61018
1.60185
1.59083
1.58019
1.57017
1.56119
1.55368
1.54682
1.53967
1.5317
1.5228
1.51319
1.50335
1.49382
1.48457
1.47539
1.46626
1.45698
1.44749
1.43808
1.42868
1.41881
1.40831
1.39792
1.38797
1.37827
1.36829
1.3578
1.34779
1.33774
1.32724
1.31599
1.30448
1.29481
1.2859
1.27737
1.26859
1.2608
1.25464
1.24777
1.24083
1.23314
1.22641
1.22113
1.21517
1.20945
1.20367
1.19937
1.19548
1.1918
1.18852
1.1857
1.18502
1.18466
1.18243
1.17941
1.17817
1.17787
1.17814
1.17761
1.17468
1.17292
1.17246
1.17068
1.16715
1.16319
1.15949
1.157
1.15463
1.15127
1.14879
1.14785
1.1475
1.14738
1.14738
1.14718
1.14731
1.14747
1.14753
1.14728
1.14621
1.14517
1.14584
1.14824
1.15102
1.15368
1.15679
1.16038
1.16319
1.16516
1.1671
1.16898
1.17126
1.17338
1.17425
1.17469
1.17507
1.17441
1.17513
1.17678
1.18059
1.18578
1.20063
1.24499
1.32655
1.34174
1.33866
1.33647
1.33471
1.33269
1.32954
1.32798
1.32687
1.3288
1.33755
1.36012
1.41198
1.49965
1.56727
1.61669
1.63017
1.62743
1.62247
1.61441
1.60253
1.58935
1.57841
1.57002
1.56252
1.55464
1.54582
1.53601
1.52571
1.51566
1.50588
1.49619
1.48662
1.47708
1.46749
1.45801
1.44849
1.43846
1.42779
1.41704
1.40662
1.39661
1.38658
1.37649
1.36712
1.35777
1.3479
1.3371
1.3256
1.3151
1.30502
1.29491
1.2843
1.27417
1.26588
1.25759
1.24928
1.24033
1.23227
1.22561
1.21854
1.21173
1.20458
1.19916
1.19453
1.18888
1.18336
1.17704
1.17138
1.16627
1.16038
1.15459
1.14867
1.14524
1.14313
1.14038
1.13689
1.13359
1.132
1.13004
1.12648
1.12183
1.11664
)
;

boundaryField
{
    inlet
    {
        type            calculated;
        value           nonuniform 0();
    }
    outlet
    {
        type            calculated;
        value           nonuniform 0();
    }
    bottom
    {
        type            symmetryPlane;
    }
    top
    {
        type            symmetryPlane;
    }
    obstacle
    {
        type            calculated;
        value           nonuniform 0();
    }
    front
    {
        type            empty;
    }
    back
    {
        type            empty;
    }
    procBoundary13to5
    {
        type            processor;
        value           nonuniform List<scalar> 
129
(
0.902509
0.905337
0.910592
0.913831
0.918361
0.929389
0.963161
1.05906
1.10492
1.10373
1.10111
1.09642
1.09478
1.09497
1.09449
1.0928
1.09198
1.09146
1.09244
1.09669
1.10105
1.10985
1.13099
1.14892
1.15061
1.14802
1.14768
1.2101
1.31056
1.32351
1.32295
1.3206
1.31461
1.30548
1.2968
1.28799
1.28985
1.30032
1.35065
1.46654
1.66434
1.8268
1.91218
1.93699
1.93013
1.91223
1.87667
1.83472
1.78568
1.7348
1.69105
1.64997
1.61184
1.57768
1.54352
1.51075
1.47973
1.44975
1.41977
1.38976
1.36134
1.33435
1.30748
1.28219
1.25854
1.23479
1.21194
1.19089
1.16945
1.14828
1.1326
1.11691
1.10722
1.10765
1.10961
1.11844
1.14022
1.17326
1.21735
1.24986
1.2779
1.29945
1.30456
1.30946
1.31318
1.31339
1.30985
1.30759
1.30798
1.30473
1.30035
1.29894
1.29894
1.29959
1.29526
1.28992
1.28722
1.28672
1.28418
1.27954
1.2748
1.27072
1.26739
1.26306
1.25774
1.25223
1.24673
1.24091
1.23449
1.22795
1.22192
1.21534
1.20724
1.20006
1.19367
1.18636
1.1776
1.17192
1.16817
1.1632
1.15636
1.15227
1.14951
1.14473
1.13814
1.13506
1.13196
1.12587
1.12587
)
;
    }
    procBoundary13to6
    {
        type            processor;
        value           nonuniform List<scalar> 5(1.18579 1.20622 1.22098 1.23435 1.24512);
    }
    procBoundary13to14
    {
        type            processor;
        value           nonuniform List<scalar> 
14
(
1.25508
1.26325
1.27118
1.28012
1.29142
1.30333
1.31709
1.33335
1.34786
1.35904
1.37386
1.39753
1.41945
1.41732
)
;
    }
    procBoundary13to20
    {
        type            processor;
        value           nonuniform List<scalar> 3(0.932942 0.96386 0.992198);
    }
    procBoundary13to21
    {
        type            processor;
        value           nonuniform List<scalar> 
129
(
1.36072
1.3691
1.36862
1.36815
1.36845
1.36585
1.3616
1.35823
1.11435
1.11279
1.10973
1.10633
1.10488
1.10463
1.10497
1.1035
1.1011
1.1007
1.10101
1.10071
1.1003
1.10021
1.10134
1.10405
1.10777
1.11124
1.11382
1.11672
1.12076
1.12487
1.1282
1.13141
1.13426
1.13797
1.14232
1.14658
1.15121
1.15715
1.16357
1.1687
1.17175
1.17426
1.17779
1.18334
1.20336
1.25949
1.35403
1.34964
1.34704
1.34532
1.34349
1.34074
1.3389
1.3378
1.33645
1.33697
1.34322
1.36209
1.41136
1.48328
1.5655
1.61734
1.64211
1.64582
1.64236
1.63439
1.62332
1.61076
1.59882
1.58809
1.57833
1.56884
1.55887
1.54857
1.53852
1.52869
1.51884
1.50898
1.49902
1.48892
1.47872
1.46837
1.45763
1.44646
1.43528
1.42443
1.41395
1.40356
1.39337
1.3839
1.37466
1.36524
1.35508
1.34417
1.33396
1.32403
1.31388
1.30304
1.29244
1.28341
1.27445
1.26517
1.255
1.2456
1.23777
1.22983
1.22208
1.21365
1.20676
1.20129
1.19523
1.189
1.18205
1.17571
1.16976
1.16326
1.15702
1.14948
1.14405
1.14089
1.13663
1.13151
1.12556
1.12111
1.11705
1.1118
1.10575
1.11435
1.0986
)
;
    }
    procBoundary13to28
    {
        type            processor;
        value           nonuniform List<scalar> 
16
(
1.01872
1.04354
1.06608
1.08717
1.10699
1.12611
1.14602
1.16712
1.18969
1.21228
1.23412
1.25518
1.27536
1.29477
1.31409
1.33316
)
;
    }
}


// ************************************************************************* //
