/*--------------------------------*- C++ -*----------------------------------*\
  =========                 |
  \\      /  F ield         | OpenFOAM: The Open Source CFD Toolbox
   \\    /   O peration     | Website:  https://openfoam.org
    \\  /    A nd           | Version:  7
     \\/     M anipulation  |
\*---------------------------------------------------------------------------*/
FoamFile
{
    version     2.0;
    format      ascii;
    class       volVectorField;
    location    "20";
    object      U;
}
// * * * * * * * * * * * * * * * * * * * * * * * * * * * * * * * * * * * * * //

dimensions      [0 1 -1 0 0 0 0];

internalField   nonuniform List<vector> 
390
(
(1.00534 0.00245979 -1.54649e-23)
(1.00538 0.00241371 4.43292e-23)
(1.00542 0.00236733 -3.66841e-23)
(1.00519 0.00232453 -2.21998e-23)
(1.00523 0.00228163 3.20067e-23)
(1.00528 0.00223847 -4.00881e-23)
(1.00532 0.00219503 1.76446e-23)
(1.00536 0.00215132 2.73027e-23)
(1.00539 0.00210732 1.60137e-22)
(1.00543 0.00206305 1.44046e-22)
(1.00547 0.00201849 -1.7786e-22)
(1.00506 0.00219717 -9.18208e-26)
(1.0051 0.00215725 -2.3186e-24)
(1.00514 0.00211711 6.55354e-23)
(1.00517 0.00207672 -2.56855e-23)
(1.00521 0.0020361 -1.44119e-22)
(1.00525 0.00199525 -1.43257e-22)
(1.00528 0.00195415 -2.97699e-23)
(1.00532 0.0019128 4.31376e-23)
(1.00493 0.002077 7.03704e-24)
(1.00497 0.00203988 -7.0942e-23)
(1.005 0.00200256 -4.89995e-23)
(1.00504 0.00196504 -2.07013e-23)
(1.00507 0.00192732 -7.44775e-23)
(1.00511 0.00188939 6.76616e-23)
(1.00514 0.00185126 -5.54941e-23)
(1.00517 0.00181291 -1.82344e-22)
(1.00481 0.00196337 -1.42403e-23)
(1.00485 0.00192888 5.21735e-23)
(1.00488 0.00189421 1.75275e-23)
(1.00491 0.00185937 -2.00026e-23)
(1.00494 0.00182436 1.59491e-22)
(1.00498 0.00178918 9.51935e-23)
(1.00501 0.00175382 2.09193e-22)
(1.00504 0.00171828 -1.91389e-23)
(1.0047 0.0018557 6.06565e-24)
(1.00473 0.00182367 4.24897e-23)
(1.00476 0.00179149 -5.90186e-23)
(1.00479 0.00175916 -9.79656e-23)
(1.00482 0.00172669 -5.0305e-23)
(1.00485 0.00169407 -2.78003e-23)
(1.00488 0.0016613 -9.06432e-23)
(1.00491 0.00162839 2.25107e-22)
(1.0046 0.00175344 -6.7505e-24)
(1.00463 0.00172371 6.21404e-24)
(1.00465 0.00169386 4.63057e-23)
(1.00468 0.00166389 1.5062e-22)
(1.00471 0.00163379 -4.14107e-23)
(1.00474 0.00160358 -4.68958e-23)
(1.00477 0.00157324 1.284e-22)
(1.00479 0.00154277 -5.15086e-23)
(1.00482 0.00151218 1.64605e-22)
(1.0045 0.00165608 -2.22581e-24)
(1.00452 0.00162851 3.86731e-24)
(1.00455 0.00160085 -2.05859e-23)
(1.00458 0.00157308 -1.07238e-22)
(1.0046 0.00154521 1.68832e-22)
(1.00463 0.00151725 -7.46496e-23)
(1.00466 0.00148918 -6.21394e-23)
(1.00468 0.001461 -9.75163e-23)
(1.00471 0.00143272 -2.64913e-23)
(1.0044 0.00156315 2.13683e-24)
(1.00443 0.00153762 -2.24677e-23)
(1.00446 0.001512 -2.38876e-23)
(1.00448 0.00148631 3.91857e-23)
(1.00451 0.00146053 -1.11069e-22)
(1.00453 0.00143466 -9.12117e-23)
(1.00455 0.00140872 1.54735e-22)
(1.00458 0.00138269 8.35137e-23)
(1.0046 0.00135657 -9.14558e-23)
(1.00432 0.00147424 -1.31564e-23)
(1.00434 0.00145061 2.02925e-23)
(1.00436 0.00142692 1.09278e-23)
(1.00439 0.00140316 7.18364e-23)
(1.00441 0.00137934 7.60332e-23)
(1.00444 0.00135545 1.29614e-22)
(1.00446 0.00133149 5.28159e-23)
(1.00448 0.00130746 -1.34061e-22)
(1.0045 0.00128337 -1.13278e-25)
(1.00423 0.00138893 9.98445e-26)
(1.00426 0.0013671 5.34502e-24)
(1.00428 0.00134521 -2.89016e-23)
(1.0043 0.00132328 -4.78763e-23)
(1.00433 0.00130129 -2.05118e-23)
(1.00435 0.00127924 -1.4981e-22)
(1.00437 0.00125715 -1.36803e-22)
(1.00439 0.001235 -2.48827e-23)
(1.00441 0.0012128 -7.11969e-24)
(1.00416 0.00130688 1.92799e-23)
(1.00418 0.00128673 -1.85599e-23)
(1.0042 0.00126654 7.76399e-24)
(1.00422 0.00124631 -3.42987e-24)
(1.00424 0.00122604 -2.17451e-23)
(1.00426 0.00120573 1.60595e-22)
(1.00429 0.00118538 -6.1623e-23)
(1.00431 0.00116499 8.97641e-23)
(1.00433 0.00114456 4.10386e-23)
(1.00409 0.00122774 4.58609e-24)
(1.00411 0.00120918 6.09213e-24)
(1.00413 0.00119058 5.39534e-23)
(1.00415 0.00117196 -3.06287e-23)
(1.00417 0.0011533 -2.96727e-23)
(1.00419 0.00113462 1.02561e-23)
(1.00421 0.00111591 5.72955e-24)
(1.00423 0.00109716 -6.66965e-23)
(1.00425 0.00107839 1.82979e-22)
(1.00402 0.0011512 -6.14281e-24)
(1.00404 0.00113413 2.08521e-23)
(1.00406 0.00111703 -2.10113e-23)
(1.00408 0.00109992 5.42754e-23)
(1.0041 0.00108278 -1.186e-23)
(1.00412 0.00106562 -8.90873e-23)
(1.00413 0.00104845 -1.81404e-23)
(1.00415 0.00103125 1.08022e-22)
(1.00417 0.00101403 -5.56676e-23)
(1.00396 0.00107698 1.14931e-24)
(1.00398 0.00106131 -3.52068e-23)
(1.00399 0.00104563 1.91344e-23)
(1.00401 0.00102993 5.43908e-25)
(1.00403 0.00101422 1.5681e-23)
(1.00405 0.000998499 -4.36804e-23)
(1.00407 0.000982763 2.73906e-23)
(1.00409 0.000967014 -1.62141e-22)
(1.0041 0.000951253 1.15638e-22)
(1.0039 0.00100481 1.03731e-24)
(1.00392 0.000990461 -2.61344e-23)
(1.00393 0.000976108 -2.87771e-24)
(1.00395 0.000961748 4.88194e-23)
(1.00397 0.000947382 -8.57419e-23)
(1.00399 0.000933009 2.13576e-22)
(1.004 0.000918629 -1.88214e-22)
(1.00402 0.000904242 1.91773e-22)
(1.00404 0.000889849 -2.04531e-23)
(1.00384 0.000934435 -6.68027e-24)
(1.00386 0.000921339 2.45882e-23)
(1.00388 0.000908242 -3.45499e-23)
(1.0039 0.000895143 1.00418e-22)
(1.00391 0.000882042 -3.50719e-23)
(1.00393 0.00086894 -1.15159e-22)
(1.00395 0.000855836 7.2921e-23)
(1.00396 0.000842731 4.17525e-23)
(1.00398 0.000829624 -5.68494e-23)
(1.00379 0.000865636 7.7119e-24)
(1.00381 0.000853723 -1.27738e-23)
(1.00383 0.000841812 -1.69846e-23)
(1.00384 0.000829903 -4.00336e-23)
(1.00386 0.000817997 -3.24906e-23)
(1.00388 0.000806094 8.372e-23)
(1.00389 0.000794193 3.68423e-23)
(1.00391 0.000782295 -1.28524e-23)
(1.00392 0.0007704 6.30722e-23)
(1.00375 0.000798197 8.5342e-24)
(1.00377 0.000787403 3.14013e-24)
(1.00378 0.000776615 -5.48821e-24)
(1.0038 0.000765833 3.68244e-23)
(1.00381 0.000755057 -4.89673e-23)
(1.00383 0.000744287 2.34245e-23)
(1.00384 0.000733522 -1.25869e-22)
(1.00386 0.000722763 1.34492e-22)
(1.00387 0.00071201 -1.37248e-22)
(1.00371 0.000731918 -8.19078e-24)
(1.00372 0.000722187 -1.1619e-23)
(1.00374 0.000712465 -1.19109e-23)
(1.00375 0.000702751 -4.06837e-23)
(1.00377 0.000693045 8.8519e-23)
(1.00378 0.000683347 -7.72027e-23)
(1.0038 0.000673657 -1.53287e-23)
(1.00381 0.000663976 -5.11186e-23)
(1.00383 0.000654302 8.13014e-23)
(1.00367 0.000666613 1.04187e-23)
(1.00368 0.000657894 1.10962e-23)
(1.0037 0.000649185 2.77817e-23)
(1.00371 0.000640486 -3.20445e-23)
(1.00373 0.000631796 -3.62596e-23)
(1.00374 0.000623116 6.23926e-23)
(1.00376 0.000614446 1.87397e-23)
(1.00377 0.000605786 8.73372e-23)
(1.00379 0.000597134 -4.90626e-23)
(1.00363 0.000602108 9.95678e-24)
(1.00365 0.000594354 -1.11223e-23)
(1.00366 0.000586611 1.14936e-23)
(1.00368 0.000578878 5.27102e-23)
(1.00369 0.000571157 -7.6338e-23)
(1.00371 0.000563445 1.71627e-22)
(1.00372 0.000555745 -9.4239e-23)
(1.00374 0.000548055 -5.48349e-23)
(1.00375 0.000540375 -3.68383e-23)
(1.0036 0.000538237 -1.06806e-23)
(1.00362 0.000531406 -7.17936e-24)
(1.00363 0.000524586 -5.26336e-24)
(1.00365 0.000517778 -8.77368e-24)
(1.00366 0.00051098 7.22308e-23)
(1.00367 0.000504194 -4.47056e-24)
(1.00369 0.000497419 1.0167e-23)
(1.0037 0.000490654 1.52595e-22)
(1.00372 0.0004839 -1.67025e-23)
(1.00357 0.000474841 -6.10252e-24)
(1.00359 0.000468897 2.32014e-23)
(1.0036 0.000462964 -1.43407e-23)
(1.00362 0.000457042 -1.7479e-23)
(1.00363 0.000451131 -1.87557e-23)
(1.00365 0.000445231 4.63526e-23)
(1.00366 0.000439342 -5.21178e-23)
(1.00367 0.000433463 -1.22219e-22)
(1.00369 0.000427594 9.26716e-23)
(1.00355 0.00041177 -9.21157e-24)
(1.00356 0.00040668 1.21886e-23)
(1.00358 0.000401601 2.56283e-24)
(1.00359 0.000396532 2.02347e-23)
(1.00361 0.000391474 -1.80468e-23)
(1.00362 0.000386426 4.21642e-23)
(1.00363 0.000381388 -1.44647e-23)
(1.00365 0.00037636 -4.59249e-23)
(1.00366 0.000371341 5.41565e-23)
(1.00353 0.000348886 -3.19615e-24)
(1.00354 0.000344625 -7.94496e-24)
(1.00356 0.000340373 4.74977e-23)
(1.00357 0.000336131 -7.85159e-23)
(1.00358 0.000331899 -5.46918e-23)
(1.0036 0.000327675 4.74976e-23)
(1.00361 0.000323461 -4.16633e-23)
(1.00362 0.000319255 2.45621e-23)
(1.00364 0.000315058 4.67178e-23)
(1.00351 0.00028601 1.14908e-23)
(1.00353 0.000282552 5.84474e-24)
(1.00354 0.000279103 -2.5445e-24)
(1.00355 0.000275662 2.58443e-23)
(1.00357 0.000272229 -5.54823e-23)
(1.00358 0.000268805 7.2075e-23)
(1.00359 0.000265387 -5.83729e-23)
(1.00361 0.000261978 1.53931e-22)
(1.00362 0.000258575 -6.39231e-23)
(1.0035 0.000223123 -2.32327e-24)
(1.00351 0.000220457 -7.81889e-25)
(1.00353 0.000217798 1.44028e-23)
(1.00354 0.000215145 -1.03372e-23)
(1.00355 0.000212499 -7.50593e-23)
(1.00356 0.000209858 1.11247e-22)
(1.00358 0.000207223 6.26234e-24)
(1.00359 0.000204594 -6.25445e-23)
(1.0036 0.000201969 5.18001e-23)
(1.00349 0.000159738 7.29815e-24)
(1.0035 0.000157845 -4.18453e-24)
(1.00351 0.000155958 1.76701e-24)
(1.00353 0.000154077 -4.08358e-23)
(1.00354 0.000152201 -4.49196e-23)
(1.00355 0.00015033 7.85039e-23)
(1.00357 0.000148465 -1.12533e-22)
(1.00358 0.000146604 5.35466e-23)
(1.00359 0.000144747 -6.54491e-24)
(1.00348 9.65689e-05 -5.38441e-25)
(1.00349 9.54405e-05 1.69528e-23)
(1.00351 9.43134e-05 -3.05228e-23)
(1.00352 9.31874e-05 3.38652e-23)
(1.00353 9.20623e-05 -4.72692e-23)
(1.00355 9.09379e-05 1.0464e-23)
(1.00356 8.9814e-05 2.96681e-23)
(1.00357 8.86905e-05 -5.37543e-23)
(1.00358 8.75671e-05 7.15259e-23)
(1.00348 3.16513e-05 4.20438e-24)
(1.00349 3.13389e-05 -2.23054e-23)
(1.0035 3.10311e-05 3.28726e-23)
(1.00352 3.07274e-05 8.398e-24)
(1.00353 3.04271e-05 -9.11435e-23)
(1.00354 3.01295e-05 4.7373e-23)
(1.00355 2.9834e-05 -2.33086e-23)
(1.00357 2.954e-05 2.183e-24)
(1.00358 2.92467e-05 1.14136e-22)
(1.00525 0.00255102 -4.26111e-23)
(1.00529 0.00250556 1.06472e-23)
(1.00503 0.00249348 -5.09824e-23)
(1.00507 0.00245163 2.61747e-23)
(1.00511 0.00240953 3.06632e-23)
(1.00515 0.00236716 6.49331e-25)
(1.00491 0.00235455 1.24727e-24)
(1.00494 0.00231554 -4.58141e-23)
(1.00498 0.00227631 7.99959e-23)
(1.00502 0.00223685 -1.9425e-23)
(1.00479 0.00222353 2.6038e-23)
(1.00483 0.00218718 6.95998e-23)
(1.00486 0.00215065 -1.26524e-23)
(1.0049 0.00211392 7.00801e-24)
(1.00468 0.0020997 2.3104e-23)
(1.00471 0.00206587 -3.73461e-23)
(1.00475 0.00203187 -1.31528e-23)
(1.00478 0.0019977 -9.90507e-24)
(1.00458 0.00198245 1.00607e-22)
(1.00461 0.00195097 1.83173e-23)
(1.00464 0.00191936 1.11962e-23)
(1.00467 0.0018876 -6.16356e-24)
(1.00448 0.00187118 -2.06193e-22)
(1.00451 0.00184192 -3.83366e-23)
(1.00454 0.00181255 2.70418e-23)
(1.00457 0.00178305 -4.44393e-24)
(1.00439 0.00176536 1.39075e-22)
(1.00441 0.00173819 -6.80502e-24)
(1.00444 0.00171092 8.60275e-24)
(1.00447 0.00168355 8.53559e-25)
(1.0043 0.00166448 -6.80435e-24)
(1.00433 0.00163927 -1.32148e-23)
(1.00435 0.00161398 2.18847e-23)
(1.00438 0.00158861 1.86043e-24)
(1.00422 0.00156809 -8.80103e-23)
(1.00424 0.00154472 1.45394e-23)
(1.00427 0.00152129 -2.33293e-23)
(1.00429 0.0014978 -3.43172e-24)
(1.00414 0.00147575 7.69893e-23)
(1.00416 0.00145412 1.72712e-23)
(1.00419 0.00143245 2.27807e-24)
(1.00421 0.00141072 1.07687e-23)
(1.00407 0.00138708 -1.0804e-23)
(1.00409 0.00136709 -4.35376e-24)
(1.00411 0.00134706 -5.15291e-24)
(1.00414 0.00132699 -1.25154e-23)
(1.004 0.0013017 -1.96629e-23)
(1.00402 0.00128326 3.62358e-25)
(1.00404 0.00126478 -2.06727e-23)
(1.00406 0.00124628 3.86876e-24)
(1.00394 0.00121929 -4.04983e-24)
(1.00396 0.0012023 -1.68186e-23)
(1.00398 0.00118529 2.82442e-23)
(1.004 0.00116826 -4.10325e-24)
(1.00388 0.00113953 -1.16376e-23)
(1.0039 0.00112391 4.37691e-23)
(1.00392 0.00110828 -1.90318e-23)
(1.00394 0.00109264 1.93814e-24)
(1.00382 0.00106212 3.05193e-23)
(1.00384 0.0010478 -7.4536e-23)
(1.00386 0.00103348 1.45437e-23)
(1.00388 0.00101915 5.60144e-24)
(1.00377 0.000986796 -2.01386e-24)
(1.00379 0.00097371 -6.39748e-23)
(1.00381 0.00096062 -3.07903e-23)
(1.00383 0.000947529 6.25362e-24)
(1.00372 0.00091331 5.32134e-23)
(1.00374 0.000901389 3.61076e-23)
(1.00376 0.000889469 -2.49722e-23)
(1.00378 0.000877552 3.04337e-24)
(1.00368 0.000841424 -3.20505e-23)
(1.0037 0.000830609 -2.35613e-23)
(1.00372 0.0008198 1.65087e-23)
(1.00373 0.000808996 -7.40548e-24)
(1.00364 0.000770918 4.11001e-23)
(1.00366 0.000761157 9.67317e-24)
(1.00367 0.000751403 1.43882e-23)
(1.00369 0.000741656 1.23205e-23)
(1.0036 0.000701586 -3.70418e-23)
(1.00362 0.000692829 1.98695e-23)
(1.00364 0.000684081 -9.6604e-24)
(1.00365 0.000675342 8.9798e-24)
(1.00357 0.000633233 -3.36608e-23)
(1.00359 0.000625436 -1.58961e-23)
(1.0036 0.000617649 -1.54517e-23)
(1.00362 0.000609873 -3.04681e-24)
(1.00354 0.000565674 2.66872e-23)
(1.00356 0.000558798 2.08883e-23)
(1.00357 0.000551933 -8.6947e-24)
(1.00359 0.000545079 -4.28053e-24)
(1.00351 0.000498733 2.27009e-23)
(1.00353 0.000492743 -1.00974e-23)
(1.00355 0.000486764 1.46999e-23)
(1.00356 0.000480797 -1.1063e-23)
(1.00349 0.000432239 -7.0446e-23)
(1.00351 0.000427105 2.00035e-23)
(1.00352 0.000421982 3.33498e-23)
(1.00354 0.000416871 -1.1615e-23)
(1.00347 0.000366033 1.37123e-23)
(1.00349 0.000361731 3.32927e-23)
(1.0035 0.000357439 -9.58588e-24)
(1.00352 0.000353158 8.2467e-24)
(1.00346 0.00029993 -5.07489e-23)
(1.00347 0.000296437 6.3779e-24)
(1.00348 0.000292952 -6.08317e-24)
(1.0035 0.000289477 6.6313e-24)
(1.00344 0.000233859 -1.4452e-23)
(1.00346 0.000231164 6.91572e-24)
(1.00347 0.000228476 7.66259e-24)
(1.00348 0.000225796 -1.35053e-24)
(1.00343 0.000167375 3.38666e-23)
(1.00345 0.000165456 2.66785e-24)
(1.00346 0.000163544 -2.47385e-24)
(1.00347 0.000161638 5.09799e-24)
(1.00342 0.000101099 -6.62672e-24)
(1.00344 9.99637e-05 -3.10857e-23)
(1.00345 9.88303e-05 1.61843e-23)
(1.00347 9.76987e-05 1.16864e-26)
(1.00342 3.29579e-05 -3.83463e-23)
(1.00344 3.26216e-05 3.30614e-23)
(1.00345 3.22921e-05 -2.40765e-23)
(1.00346 3.19689e-05 4.18878e-24)
)
;

boundaryField
{
    inlet
    {
        type            uniformFixedValue;
        uniformValue    constant (1 0 0);
        value           nonuniform 0();
    }
    outlet
    {
        type            pressureInletOutletVelocity;
        value           nonuniform 0();
    }
    cylinder
    {
        type            fixedValue;
        value           nonuniform 0();
    }
    top
    {
        type            symmetryPlane;
    }
    bottom
    {
        type            symmetryPlane;
    }
    defaultFaces
    {
        type            empty;
    }
    procBoundary51to42
    {
        type            processor;
        value           nonuniform List<vector> 4((1.00499 0.00253507 2.12001e-23) (1.00487 0.00239334 -2.93538e-23) (1.00475 0.00225968 -4.898e-24) (1.00465 0.00213338 -2.03778e-22));
    }
    procBoundary51to43
    {
        type            processor;
        value           nonuniform List<vector> 
14
(
(1.00549 0.00260371 -2.06188e-23)
(1.00553 0.00255424 7.1176e-24)
(1.00558 0.00250441 -6.73968e-23)
(1.00547 0.00232062 2.74095e-23)
(1.00547 0.00232062 2.74095e-23)
(1.00551 0.0022736 -2.16365e-23)
(1.00555 0.00222625 1.82445e-22)
(1.00559 0.00217858 9.33923e-23)
(1.00564 0.00213058 -2.08126e-23)
(1.00539 0.00270159 1.10448e-23)
(1.00544 0.00265283 1.48138e-23)
(1.00516 0.00264105 -3.23716e-23)
(1.0052 0.00259619 -4.54457e-23)
(1.0052 0.00259619 -4.54457e-23)
)
;
    }
    procBoundary51to44
    {
        type            processor;
        value           nonuniform List<vector> 6((1.00551 0.00197363 -8.42346e-23) (1.00535 0.0018712 1.54246e-22) (1.00521 0.00177436 -1.84038e-22) (1.00507 0.00168256 1.29135e-22) (1.00494 0.00159532 9.41432e-23) (1.00494 0.00159532 9.41432e-23));
    }
    procBoundary51to50
    {
        type            processor;
        value           nonuniform List<vector> 
26
(
(1.00454 0.00201379 -9.9531e-24)
(1.00445 0.00190033 9.11985e-23)
(1.00436 0.00179244 -1.71619e-22)
(1.00427 0.00168961 2.18257e-22)
(1.00419 0.00159139 -1.04948e-22)
(1.00412 0.00149733 7.29391e-23)
(1.00404 0.00140703 -5.75356e-23)
(1.00398 0.00132012 -7.35078e-23)
(1.00392 0.00123626 4.48556e-24)
(1.00386 0.00115513 -3.12249e-23)
(1.0038 0.00107643 -1.04064e-22)
(1.00375 0.00099988 4.54016e-23)
(1.00371 0.000925232 -6.73532e-23)
(1.00366 0.000852243 -2.90689e-24)
(1.00362 0.000780687 2.92557e-23)
(1.00359 0.000710353 -2.54506e-23)
(1.00355 0.000641041 -7.11924e-23)
(1.00353 0.000572562 5.29635e-23)
(1.0035 0.000504734 -6.12268e-23)
(1.00348 0.000437383 2.45585e-23)
(1.00346 0.000370345 -1.95846e-23)
(1.00344 0.000303433 -1.09925e-22)
(1.00343 0.000236562 -8.27456e-23)
(1.00342 0.000169301 -4.19212e-23)
(1.00341 0.000102237 -5.7992e-23)
(1.00341 3.33013e-05 -9.62998e-23)
)
;
    }
    procBoundary51to52
    {
        type            processor;
        value           nonuniform List<vector> 
25
(
(1.00485 0.00148146 -5.73681e-23)
(1.00473 0.00140434 -9.62726e-23)
(1.00463 0.00133037 9.3199e-23)
(1.00453 0.00125921 2.38217e-23)
(1.00443 0.00119054 -1.15222e-23)
(1.00435 0.00112409 -1.15891e-22)
(1.00426 0.00105959 3.66323e-22)
(1.00419 0.00099679 1.93402e-22)
(1.00412 0.000935478 -1.16574e-22)
(1.00406 0.000875449 1.57615e-22)
(1.004 0.000816516 -1.39303e-23)
(1.00394 0.000758507 -2.58556e-23)
(1.00389 0.000701262 1.38326e-22)
(1.00384 0.000644636 -4.40164e-23)
(1.0038 0.000588493 7.28261e-23)
(1.00376 0.000532705 5.00798e-23)
(1.00373 0.000477156 -3.663e-23)
(1.0037 0.000421735 3.55121e-23)
(1.00367 0.000366331 2.79833e-23)
(1.00365 0.000310868 -2.05133e-23)
(1.00363 0.000255179 8.61982e-23)
(1.00361 0.000199349 1.09349e-22)
(1.0036 0.000142895 9.61605e-23)
(1.0036 8.64439e-05 -6.25155e-23)
(1.00359 2.89535e-05 -2.25126e-22)
)
;
    }
}


// ************************************************************************* //
