/*--------------------------------*- C++ -*----------------------------------*\
  =========                 |
  \\      /  F ield         | OpenFOAM: The Open Source CFD Toolbox
   \\    /   O peration     | Website:  https://openfoam.org
    \\  /    A nd           | Version:  7
     \\/     M anipulation  |
\*---------------------------------------------------------------------------*/
FoamFile
{
    version     2.0;
    format      ascii;
    class       volVectorField;
    location    "0.188";
    object      U;
}
// * * * * * * * * * * * * * * * * * * * * * * * * * * * * * * * * * * * * * //

dimensions      [0 1 -1 0 0 0 0];

internalField   nonuniform List<vector> 
12359
(
(0.982898 0.000334111 7.61812e-17)
(0.970225 -0.0013688 -1.08878e-17)
(0.999979 1.157e-05 2.43225e-18)
(0.928906 -0.000549312 1.08733e-17)
(0.977066 -0.000254474 -1.67105e-16)
(0.874331 -0.00234048 -2.17458e-17)
(0.830059 -0.00191913 -2.46019e-16)
(0.849521 -0.00762686 -9.99597e-17)
(0.778946 0.0320088 4.92822e-17)
(0.889033 0.00272496 -2.73779e-18)
(0.800786 0.00073453 1.62152e-16)
(0.715689 -0.00546544 1.71076e-16)
(0.218333 0.0234444 6.83551e-17)
(0.921991 -0.000999361 3.49122e-18)
(0.938756 0.00135231 9.44476e-18)
(0.519452 0.0334216 8.60069e-18)
(0.399481 0.0178377 3.83659e-17)
(0.994614 -8.49804e-06 -3.757e-17)
(0.995043 -2.95243e-05 -4.03159e-17)
(0.956904 7.35097e-06 1.12265e-17)
(0.912814 -0.00187299 4.51812e-19)
(0.769554 0.0223367 8.67599e-17)
(0.964004 -0.000496254 -8.82166e-18)
(0.949397 -0.00471986 -2.89e-18)
(0.966472 -0.000491186 -6.10682e-18)
(0.959851 0.00218295 -1.01374e-18)
(0.998253 1.16146e-05 8.74787e-20)
(0.998326 -7.20514e-05 -5.59475e-19)
(0.99578 7.43242e-06 -2.89128e-18)
(0.99768 -0.000126701 -1.92138e-18)
(0.99722 2.28287e-05 2.59593e-18)
(0.998947 -5.78455e-05 2.09907e-19)
(0.999552 2.04172e-05 -1.22029e-18)
(0.997857 -3.57442e-05 4.73612e-19)
(0.999856 -8.33743e-07 -4.41955e-17)
(0.996984 0.000146612 -4.60807e-18)
(0.989794 -0.000349679 -1.00011e-17)
(0.983955 0.000902295 -6.19319e-17)
(0.981337 0.000534379 4.80786e-17)
(0.985615 -0.000352094 6.64177e-17)
(0.972686 7.77388e-05 -1.43099e-17)
(0.985088 0.000605985 3.14267e-17)
(0.991418 0.00012962 1.34155e-16)
(0.992144 -0.000374851 4.34963e-17)
(0.996486 2.12016e-05 3.4564e-18)
(0.996115 -4.5879e-05 4.42855e-19)
(0.996789 -0.000246472 2.67125e-18)
(0.997416 1.21657e-06 -2.61819e-18)
(0.995442 -1.685e-05 -1.33317e-17)
(0.998138 3.23488e-05 -1.60438e-20)
(0.998521 -0.000100149 9.91785e-20)
(0.998785 5.57338e-05 6.46489e-19)
(0.999177 -8.48482e-07 -4.45819e-20)
(0.994194 5.95326e-05 4.54155e-17)
(0.999101 -1.56876e-05 -7.59604e-18)
(0.999522 4.10279e-05 -4.0033e-18)
(0.993257 -0.000163283 5.21228e-17)
(0.999616 3.13194e-05 4.1169e-18)
(0.999635 -1.94126e-06 -6.05371e-17)
(0.999761 7.4234e-06 -7.76327e-17)
(0.999368 -7.7882e-05 -1.66671e-18)
(0.999923 1.24422e-05 6.77825e-17)
(0.998644 -5.47002e-06 4.33981e-19)
(0.185326 0.149757 -2.14652e-16)
(0.993829 7.67801e-05 -1.08294e-17)
(0.900535 0.00184974 -2.29596e-19)
(0.989604 0.000484649 7.16984e-17)
(0.998891 4.7968e-05 1.00144e-18)
(0.98882 -0.00049216 7.71294e-18)
(0.612223 0.00928839 4.25258e-17)
(-0.0970238 -0.157049 1.38332e-16)
(0.974122 -0.000768054 -1.48137e-16)
(0.999985 -1.04755e-05 -1.83237e-19)
(0.987015 -0.000695867 5.00185e-17)
(0.943353 -0.00231932 -2.94602e-17)
(0.999899 -1.93355e-05 6.01253e-17)
(0.999185 1.82133e-05 -2.0427e-18)
(0.999981 -4.5649e-05 1.6812e-17)
(0.990146 0.000152352 -1.52516e-16)
(0.602715 0.00767054 -4.12777e-17)
(0.927509 0.0657959 -5.95341e-17)
(1.00339 0.00246164 2.79739e-17)
(1.00002 -5.52166e-06 3.8668e-18)
(0.998327 0.0118664 2.10431e-17)
(1.10301 0.128289 -8.11736e-18)
(1.01978 0.00224994 3.36184e-19)
(1.00338 0.00224531 -1.48531e-17)
(1.0014 7.28962e-05 -9.51397e-19)
(1.10696 0.0468058 1.16646e-18)
(1.09813 0.139286 -7.33167e-19)
(0.999969 6.07451e-05 -3.58844e-18)
(0.361244 0.309356 -1.27571e-16)
(0.999979 -2.21999e-05 -2.06919e-17)
(0.998859 0.00551992 1.10466e-17)
(0.999136 0.0106559 -5.47181e-17)
(1.03039 -0.000621773 6.96937e-20)
(1.00027 0.00459924 5.08933e-18)
(0.999591 0.00561986 -2.34527e-17)
(0.990079 0.0272032 2.05807e-17)
(0.995071 0.0183084 3.25814e-17)
(0.935452 0.0869355 1.16304e-17)
(0.999996 1.5718e-05 -2.3713e-18)
(1.01902 -0.000596486 -2.88356e-19)
(1.14746 0.0268273 -6.41566e-17)
(1.00421 0.000541774 6.59223e-18)
(1.03245 0.0195468 -7.47821e-18)
(1.00031 -3.46646e-05 -1.72991e-17)
(1.10502 0.127784 7.80983e-18)
(1.01897 -0.00104988 -8.56559e-19)
(1.03024 0.016503 7.25966e-18)
(1.00007 0.00483837 -3.53184e-17)
(1.00283 0.00219131 -2.41002e-17)
(0.944786 0.045352 -6.3341e-17)
(0.953454 0.0643783 -5.16651e-18)
(0.999021 0.00920663 -4.4436e-17)
(1.00267 6.44111e-05 9.0554e-19)
(0.958073 0.0709296 -5.05946e-18)
(1.00427 0.00217618 -7.15741e-18)
(1.10479 0.03489 5.6734e-19)
(0.999991 1.9995e-05 -5.16882e-19)
(0.999824 0.00443541 -1.39486e-17)
(0.863763 0.0261163 4.18472e-16)
(1.00171 -0.000117369 4.84293e-18)
(1.03357 0.00329332 -1.74822e-18)
(1.00425 0.00170738 -5.25771e-18)
(1.00303 0.000738149 -2.2318e-18)
(1.00954 0.0888775 1.11646e-16)
(0.998681 0.0113194 -6.67901e-18)
(0.999987 -1.56759e-06 -4.6992e-17)
(1.00429 0.00260158 3.02511e-17)
(1.00272 0.000512078 4.90411e-18)
(1.05551 0.00983037 7.25641e-19)
(1.05446 0.0159966 2.75139e-18)
(1.05527 0.00938677 1.56601e-18)
(1.00034 9.09564e-05 -6.05736e-20)
(1.03194 0.00458906 4.0995e-18)
(1.00277 -0.000139209 2.90779e-18)
(1.03289 0.00466045 -9.54585e-19)
(1 4.70348e-05 -6.74591e-17)
(1.01197 0.0814774 1.48778e-17)
(0.999982 3.61864e-05 1.69516e-17)
(0.983835 0.00183056 -1.56801e-17)
(1.0291 0.0114735 -7.18376e-18)
(1.00031 4.53036e-05 2.43184e-19)
(1.03886 0.0334587 1.25187e-17)
(0.908605 0.0212442 -3.60713e-17)
(1.00001 1.55126e-05 -8.8588e-18)
(1.09227 0.104853 -1.49433e-17)
(1.00444 0.000952849 1.39567e-17)
(0.916084 0.0607784 1.35758e-16)
(1.02855 -0.00242734 -2.51187e-18)
(0.999999 3.79671e-05 6.94225e-17)
(1.02979 0.0124438 6.20897e-18)
(1.00171 0.000566006 -1.03708e-17)
(0.999996 -8.65856e-06 7.48235e-19)
(0.554198 1.38259 3.68426e-16)
(0.940136 0.0789566 9.35634e-17)
(1.05236 0.0121241 -2.55765e-19)
(0.999894 0.00500493 2.13594e-17)
(0.999004 0.000526454 3.99082e-18)
(1.00094 0.0454267 -6.33332e-17)
(0.998978 0.000554125 -1.1114e-18)
(1.03352 0.00346729 2.62271e-18)
(1.03165 0.00925468 2.69395e-18)
(1.0001 5.29278e-05 -4.56843e-18)
(1.00275 0.000381646 4.06607e-18)
(1.00255 0.0407295 -3.44675e-17)
(0.8591 0.0117443 2.70623e-16)
(1.02998 0.00852975 -6.32905e-18)
(1.11463 0.0437753 -1.03174e-17)
(0.999964 3.89787e-05 -2.41429e-16)
(0.999934 5.14165e-05 4.43249e-16)
(1.02911 0.00638519 -4.05512e-18)
(0.972201 0.00202156 2.73079e-17)
(1.00422 0.000640843 -4.03627e-18)
(1.0058 0.0899676 1.15155e-17)
(0.99619 0.000346624 -4.47539e-18)
(0.996716 0.000931187 3.95411e-18)
(0.933953 0.0422746 -2.69112e-17)
(1.00633 0.0858354 -4.07811e-17)
(0.939608 0.0100272 3.61244e-17)
(1.00001 1.82747e-05 -5.4482e-18)
(0.999972 1.82089e-05 5.61072e-17)
(1.00381 0.00255128 -6.59823e-19)
(0.992663 0.0274393 -4.61928e-17)
(0.843981 0.0835616 -5.47187e-16)
(1.00446 0.00526654 -1.88968e-17)
(1.00029 0.00974713 -2.28118e-17)
(1.03336 0.0011967 1.47428e-19)
(1.00445 0.00465774 2.31898e-18)
(0.999623 0.00996171 -3.40584e-17)
(1.03328 0.00140273 5.12165e-19)
(1.02995 0.000874495 -5.86498e-18)
(1.00156 0.000190971 8.4392e-19)
(1.03219 0.0172787 2.86929e-18)
(1.14794 0.0123079 5.75656e-17)
(1.01403 0.0110157 -1.51203e-19)
(1.00335 0.0054167 4.52271e-18)
(1.02945 0.0125517 -3.79217e-18)
(1.00409 0.00223835 5.77246e-18)
(0.891339 0.0290657 -1.35911e-16)
(1.03319 0.000285774 -4.23659e-19)
(0.992892 0.0179493 -3.6226e-18)
(1.03377 0.0180292 -4.74529e-18)
(1.03563 0.0315303 6.57319e-18)
(1.00001 1.02948e-05 1.00251e-17)
(1.0375 0.0330004 3.96769e-18)
(0.992899 0.016338 7.70417e-17)
(1.03584 0.00272122 4.0705e-18)
(1.00498 0.00280164 3.37965e-17)
(1.00001 3.21442e-05 -3.70325e-19)
(1.0435 0.00477866 -1.96777e-18)
(1.04476 0.00907129 1.83315e-18)
(1.12992 0.0732798 2.70325e-17)
(0.840245 0.0925978 1.37606e-16)
(0.999975 8.23514e-05 -7.60162e-18)
(1.00375 0.00516722 -1.07417e-18)
(0.999686 0.0105988 -3.68535e-17)
(1.00391 0.00559336 3.87836e-18)
(0.981489 0.00125741 -1.44098e-17)
(0.948747 0.0612272 -5.40098e-17)
(1.00481 0.00326364 7.72387e-18)
(1.03314 0.00287076 -1.65561e-18)
(0.243782 0.287784 6.71178e-17)
(1.00437 0.00208608 -2.35044e-17)
(1.00002 5.52416e-05 -1.18668e-18)
(0.982131 0.00184348 2.21462e-16)
(1.01583 -0.00155437 -1.99748e-18)
(1.00247 0.0782476 -2.5743e-17)
(1.00281 0.00587031 -1.22857e-17)
(1.00287 0.00570338 3.20405e-18)
(1.00007 4.75472e-05 -1.43494e-18)
(1.03799 0.0354951 -4.25315e-18)
(0.992576 0.0225467 -5.48003e-17)
(1.00093 0.00964143 1.08777e-17)
(0.99392 0.0196672 1.40984e-17)
(1 2.29878e-05 -2.9043e-19)
(1.02911 0.0129103 1.279e-18)
(1.00066 0.00981661 -6.98347e-18)
(0.700243 0.167176 1.07449e-16)
(1.00018 3.5024e-05 -6.74418e-19)
(1.02213 -0.000358285 1.07785e-18)
(0.999794 0.00669512 1.11489e-17)
(0.998954 0.14971 2.31572e-17)
(1.00348 0.0452816 1.2785e-17)
(1.09733 0.106698 -1.55969e-17)
(0.999757 7.7525e-05 -6.49911e-17)
(1.03557 0.00387775 -8.33322e-19)
(1.00342 -0.00024843 8.15314e-18)
(1.03301 0.000778925 -3.03737e-18)
(1.0398 0.00675252 2.17723e-18)
(0.98679 0.000608861 1.45582e-16)
(0.996992 0.000455764 2.57879e-17)
(1.00203 0.00598933 1.44205e-17)
(0.572541 0.438648 3.82628e-16)
(1.31133 0.189263 1.6726e-16)
(0.999991 1.71539e-05 2.77977e-19)
(1.00506 0.00269479 3.36613e-18)
(0.466251 0.370007 6.65652e-16)
(0.979935 0.0094978 -7.49377e-17)
(0.994693 0.0164014 4.95528e-18)
(1.0041 0.0426938 -3.49897e-17)
(1.00511 0.0729854 -7.0036e-17)
(1.03216 0.0151166 3.41758e-18)
(0.975247 0.000527488 1.23849e-16)
(1.41826 0.451158 6.05692e-17)
(1.10427 0.034519 1.56588e-17)
(1.00374 0.051056 1.29766e-17)
(1.00493 0.00232968 -2.11045e-18)
(1.03254 0.0039358 -5.56582e-18)
(1.03043 0.00858622 -5.22e-19)
(0.988406 0.0256194 2.91118e-17)
(1.02968 0.0104927 -1.23864e-17)
(1.00223 0.0066642 8.72289e-18)
(1.00553 0.00279577 -5.21827e-18)
(1.00011 7.06992e-05 -1.73411e-18)
(1.00507 0.00275751 3.77817e-18)
(1.16157 0.0537856 2.23811e-18)
(1.00579 0.0486078 2.09294e-17)
(1.00047 0.000165784 -8.00688e-20)
(0.999998 4.69793e-05 -5.4284e-18)
(1.0333 0.0155251 9.68207e-18)
(1.00828 0.00145402 -9.46212e-19)
(0.991821 0.00071211 3.49785e-17)
(1.02073 0.000138263 -3.27506e-19)
(1.00004 1.71787e-05 4.07332e-18)
(1.00106 0.0728069 -1.1999e-18)
(1.00001 1.9245e-05 -4.3222e-17)
(0.999987 1.16668e-05 2.45348e-17)
(0.999223 0.00010215 2.4967e-17)
(1.03328 0.00309161 -4.18172e-20)
(1.00368 0.00201529 -3.4962e-18)
(1.41662 0.533878 1.09218e-16)
(1.00034 4.14592e-05 9.51072e-18)
(1.00038 3.25025e-05 2.32231e-17)
(1.01994 0.00199025 -1.71929e-18)
(1.00349 0.000699599 7.46211e-19)
(0.94678 0.0702536 1.99591e-16)
(0.998889 0.00895669 1.0164e-17)
(0.998823 0.000227277 4.05679e-17)
(0.999966 1.50335e-05 5.41698e-18)
(1.13907 0.0499648 1.69245e-18)
(1.0013 0.0721994 -5.07699e-17)
(0.999996 5.05257e-05 2.22337e-18)
(1.00347 0.0055446 1.30051e-17)
(0.999252 0.00800887 1.95844e-18)
(1.00396 0.00127751 1.53957e-17)
(1.00271 0.000163026 -9.28452e-19)
(1.00276 0.000411171 -7.74193e-19)
(1.00404 0.000622895 -8.23863e-19)
(0.995772 0.00107303 1.88579e-16)
(0.828271 0.060872 -2.34777e-16)
(1.00389 0.000206489 -2.36404e-18)
(0.997531 9.39454e-05 -1.49242e-17)
(0.985962 0.000562578 -2.12417e-16)
(1.0244 0.0242472 4.29633e-18)
(1.09174 0.0303427 -3.83929e-18)
(1.00532 -0.000183203 -9.34133e-19)
(0.991144 0.0233156 3.04162e-17)
(0.608391 0.101913 -2.36216e-16)
(0.999995 -7.13841e-06 -8.04232e-18)
(1.0253 0.0105251 1.44007e-18)
(1.00059 8.52058e-05 -2.84826e-19)
(1.01335 0.0119141 -3.03906e-18)
(1.00038 8.54787e-06 -4.01603e-19)
(1.00458 -0.000528258 -3.43791e-18)
(0.822886 0.0399975 3.12295e-16)
(1.02637 0.0118412 -4.59732e-18)
(0.840201 0.0822223 -3.90109e-16)
(0.99114 0.000682859 -3.90028e-17)
(1.00068 0.00735896 -9.33056e-18)
(1.0309 0.00224737 3.34412e-19)
(1.03566 -0.00227629 -7.24172e-19)
(1.00037 0.00708581 -1.28036e-17)
(1.03007 0.00172667 8.97709e-19)
(1.03054 0.00398302 -2.37643e-18)
(1.00076 0.000116762 -3.05105e-18)
(0.99933 0.00048677 -4.10249e-17)
(0.999267 0.000502024 -2.62774e-17)
(0.999275 0.000479371 3.41334e-17)
(0.999256 0.000463162 -1.28007e-17)
(0.605905 0.307015 3.35605e-17)
(1.00003 4.00898e-05 3.60113e-18)
(0.941155 0.0731598 -1.13916e-16)
(1.03467 0.00163119 -1.89122e-19)
(0.99356 0.0246137 2.37888e-17)
(1.03004 0.0111545 2.70882e-18)
(1.02736 0.0136127 2.60262e-18)
(1.0187 0.00122842 2.02534e-19)
(1.01236 0.011082 1.76575e-18)
(1.02647 0.01255 1.40338e-18)
(1.01243 0.0105798 1.39516e-18)
(0.992421 0.0262015 2.14804e-17)
(1.0262 0.0261597 -5.29137e-18)
(1.02568 0.0286859 6.20316e-18)
(0.956955 0.0502107 -5.76582e-17)
(0.980804 0.00203866 -5.72794e-16)
(1.0342 0.0726152 2.33718e-18)
(0.982814 0.00131054 -1.47927e-18)
(0.985643 0.00134189 6.2736e-16)
(1.0284 0.0134858 -3.06398e-18)
(0.941745 0.100195 -1.1445e-17)
(1.00265 0.00253733 -2.91974e-18)
(0.999284 4.93262e-05 -2.1874e-17)
(1.01491 0.0100747 -1.7075e-18)
(0.999414 0.000137113 -4.02382e-17)
(1.00308 0.00246639 -7.29289e-18)
(0.954242 -0.0430394 3.00735e-17)
(0.291213 0.277497 8.60011e-17)
(1.00322 0.00301916 -8.61777e-18)
(0.99998 2.54189e-05 1.58051e-17)
(1.00029 2.24089e-05 -6.44753e-20)
(0.999973 3.9275e-05 1.24281e-17)
(1.02656 0.0110154 -2.18739e-18)
(1.00001 4.54952e-05 -1.26656e-18)
(0.999998 4.01748e-05 -4.30125e-19)
(1.11692 0.0447481 1.24907e-17)
(1.02936 0.00801699 -5.02908e-19)
(1.09051 0.152757 4.35528e-18)
(1.00117 0.00276011 -5.35243e-18)
(1.03264 0.0109328 -3.95964e-18)
(1.00671 0.000733549 -1.52239e-17)
(0.999866 0.0085294 -3.24131e-18)
(1.02958 0.0246657 -1.50034e-17)
(1.01542 0.00997845 1.53139e-18)
(0.937658 -3.9513e-05 7.08058e-17)
(1.0149 0.00888894 4.87e-18)
(1.00301 0.00245224 -1.75055e-18)
(1.00048 0.0001872 -3.70604e-18)
(1.02999 0.00711148 5.51671e-18)
(1.03397 0.00929719 -3.10005e-18)
(1.00454 0.000594373 2.24306e-17)
(0.718705 0.0270788 1.46786e-15)
(1.03358 0.0246613 -5.91925e-18)
(1.03117 -0.00153455 3.81368e-19)
(0.997058 0.0331063 -2.77945e-17)
(1.00191 0.0409433 3.44512e-17)
(0.999999 8.98009e-05 3.32946e-17)
(0.331745 0.467788 -1.05246e-15)
(1.03652 0.0750888 2.86826e-18)
(1.00095 0.00364557 -3.04136e-18)
(0.973944 0.184343 2.42776e-17)
(0.983924 0.00157323 2.31056e-16)
(0.999977 5.62642e-05 -3.96034e-19)
(0.999995 3.25689e-05 -1.94586e-18)
(0.999975 5.0832e-05 -1.17028e-17)
(1.10387 0.153692 1.15253e-17)
(0.947138 0.092803 1.00676e-18)
(0.991039 0.0267341 -2.39836e-17)
(1.02597 0.00892396 5.23395e-18)
(1.03489 -0.00083008 -3.35618e-19)
(1.0005 0.0110317 -4.58918e-18)
(0.929328 0.00180384 1.13492e-16)
(0.9982 0.0326577 -9.21656e-19)
(1.04638 0.0082141 5.20153e-18)
(1.09747 0.0317425 1.32008e-19)
(0.729456 0.0485787 4.76983e-16)
(0.994735 0.0252658 -2.66605e-17)
(0.959242 0.0483053 3.72173e-17)
(1.01651 0.00266919 8.31108e-19)
(1.02603 0.0357134 -3.40324e-18)
(1.01127 0.0110299 -6.30101e-19)
(1.01548 0.0107783 -1.32174e-19)
(0.998062 8.06253e-06 -1.95021e-16)
(1.01135 0.00959456 -3.90552e-18)
(1.02886 0.0105712 -1.28315e-17)
(0.99998 3.68895e-05 1.00077e-18)
(1.08757 0.000712666 1.90513e-18)
(0.991026 0.000864029 3.46483e-16)
(1.06723 0.00673458 -1.10605e-17)
(1.0323 0.0059639 1.84622e-18)
(0.993619 0.00130025 1.36494e-16)
(0.953559 0.0549713 -9.87357e-17)
(1.18643 0.247397 -3.07615e-17)
(1.02613 0.0124665 1.44921e-18)
(1.00815 0.0147133 -1.65126e-17)
(1.03481 -0.00273336 3.41523e-19)
(1.03407 0.00652094 -3.89531e-18)
(1.02772 0.027865 -1.42151e-18)
(1.00409 0.00251169 3.21537e-18)
(1.00002 -1.22679e-05 8.25337e-19)
(0.999572 0.0663528 1.951e-17)
(1.00039 0.000142038 3.31615e-19)
(1.05106 0.0150454 4.27932e-19)
(1.00247 0.000231574 1.72489e-17)
(0.965044 0.00203997 -3.07219e-17)
(0.962609 0.0376025 5.73469e-17)
(1.01082 0.000212033 2.38999e-19)
(1.10167 0.0988405 -2.93301e-17)
(0.943392 0.0743607 -1.34599e-16)
(0.994631 0.0173734 2.30777e-17)
(1.00105 0.00356821 -3.75359e-18)
(0.534159 0.0661235 -5.01361e-16)
(1.00068 3.35558e-05 8.05094e-19)
(1.00097 0.00287289 -3.3619e-18)
(1.04233 0.0371425 6.99491e-18)
(0.999987 9.38825e-06 -6.32361e-18)
(1.0011 0.00383129 -2.00924e-19)
(1.00128 0.00260375 -1.84464e-17)
(0.800213 0.183837 1.49744e-16)
(0.647732 0.492242 9.83029e-17)
(0.998092 0.0109996 -2.97991e-17)
(1.00125 -0.000430566 -2.26117e-19)
(0.941254 0.0327723 -2.68577e-16)
(0.998801 0.0419726 3.07231e-17)
(1.02574 0.00953593 -4.0926e-18)
(1.02878 0.0118856 -1.44589e-18)
(1.02984 0.00911154 -1.63206e-18)
(1.00082 -7.98142e-05 2.17368e-17)
(0.999979 6.21314e-05 2.3118e-18)
(1.00331 0.0334682 2.44472e-17)
(1.00001 -2.93562e-05 -2.27359e-18)
(0.967222 0.0401069 5.65419e-17)
(1.02524 0.00968735 3.82045e-18)
(1.02602 0.0331017 -1.85861e-18)
(0.996766 0.000555866 -1.281e-18)
(0.995902 0.0634573 8.19613e-17)
(1.04472 0.0341196 -1.60737e-17)
(0.997915 0.000285843 -1.92651e-16)
(1.00134 0.0110242 7.64287e-18)
(1.0059 0.00156344 8.759e-18)
(0.926779 0.0495674 -7.64683e-17)
(1.04309 0.0354697 -1.08381e-17)
(0.999993 3.53711e-05 -4.5484e-17)
(0.999631 0.0368754 -7.48296e-18)
(1.03126 0.00496086 1.04957e-17)
(1.01529 0.000472511 2.91369e-19)
(1.00207 0.0361211 -1.34328e-17)
(1.00273 0.000363936 -1.91405e-18)
(0.939217 0.0906417 -1.46446e-17)
(1.02577 -0.00155206 -5.07187e-18)
(1.03204 0.00460477 -6.56818e-19)
(1.02694 0.0278452 -1.10464e-17)
(1.00089 -0.000146823 8.3218e-18)
(1.00173 0.0111248 6.90891e-18)
(1.05186 0.0562027 7.46526e-18)
(1.05951 0.00841997 -2.12525e-18)
(0.99999 4.55593e-05 -3.34586e-18)
(1.01062 0.0150207 -9.91547e-18)
(0.993405 0.166107 -1.97366e-17)
(1.03196 0.00235806 5.29266e-19)
(0.569114 0.482989 9.31278e-17)
(1.00001 3.06092e-05 -4.70456e-18)
(1.00245 0.000512506 5.56584e-18)
(1.00066 1.2231e-05 -3.29673e-18)
(1.0307 0.0114897 -3.71529e-18)
(0.994753 0.0194384 -1.66305e-17)
(0.995989 0.0126277 -3.12108e-18)
(1.00276 0.000150022 3.10183e-17)
(1.001 0.0348143 2.38553e-17)
(1.01658 0.011268 -2.03821e-19)
(0.971996 0.00400806 1.0259e-16)
(1.00901 0.00141286 -5.42922e-18)
(1.08262 0.0804585 1.90462e-17)
(1.00049 7.52438e-05 -1.85471e-17)
(1.08782 0.086684 -5.7891e-19)
(1.00166 9.73044e-05 -7.94354e-20)
(0.600748 0.577067 3.59407e-16)
(1.02404 -0.000628628 5.42377e-18)
(1.05124 0.0566609 -2.12733e-18)
(0.999677 9.48785e-05 2.02577e-16)
(0.996987 0.000590648 -5.57936e-18)
(1.02517 0.0241428 2.19338e-17)
(1.00364 0.00213735 -5.41118e-18)
(0.99867 0.000166539 9.07816e-17)
(0.99245 5.70789e-05 8.11977e-16)
(0.995013 0.0195513 3.05619e-18)
(0.995478 0.0189258 6.65802e-18)
(0.978244 0.158957 -2.59824e-17)
(1.03225 0.0280269 1.53162e-20)
(1.03318 0.0291126 8.35484e-18)
(1.00001 1.54749e-05 9.26375e-19)
(1.00391 0.00192456 6.37128e-18)
(1.02534 0.0106788 -3.09655e-18)
(1.059 0.00754265 2.63061e-18)
(0.999997 9.80177e-06 -1.77479e-17)
(1.00047 7.48545e-05 -7.60396e-19)
(1.03089 0.00861605 -9.40443e-18)
(1.00074 9.48167e-05 -1.63807e-18)
(0.818438 0.0488641 -2.29593e-16)
(1.17153 0.233836 2.07284e-17)
(1.10011 0.00359734 -9.32468e-18)
(1.00001 1.37052e-05 -1.1073e-17)
(1.00621 0.00957231 -1.24662e-17)
(1.04017 0.00634829 8.53377e-19)
(0.995758 0.0135332 1.20736e-17)
(1.0038 0.000981839 -7.41699e-18)
(0.183354 0.475779 1.13718e-15)
(1.00042 6.26778e-05 2.44992e-18)
(0.93935 0.0708984 2.49519e-17)
(0.964108 0.0449126 -1.54542e-16)
(1.00639 0.00852649 -8.17106e-18)
(1.00399 0.00103133 1.26594e-18)
(0.998415 0.000201606 -1.36084e-16)
(1.00937 0.00010732 -6.67665e-18)
(1.03642 0.000884764 -1.37034e-19)
(1.01612 0.0077765 -8.57699e-18)
(0.997193 0.0108485 -1.40002e-17)
(0.999998 5.05491e-06 2.08537e-19)
(1.00001 5.612e-05 1.14677e-16)
(0.995404 0.0156589 -2.37065e-17)
(0.996374 0.00116894 -5.4222e-17)
(0.994243 0.0568552 1.0177e-17)
(1.03023 0.011347 8.21694e-18)
(0.998969 -1.97905e-05 9.71865e-18)
(1.00044 0.000184218 1.19416e-19)
(1.0248 0.0255546 1.65833e-18)
(1.08328 -0.000798229 1.35966e-17)
(0.997741 0.000387959 3.64047e-17)
(1.04726 0.00622395 1.89359e-18)
(1.00027 6.76109e-05 4.96546e-20)
(0.996451 0.01093 3.57581e-18)
(0.960813 0.0813097 2.60765e-17)
(1.03489 0.00112803 6.48722e-20)
(1.03824 0.00410447 -9.21916e-19)
(0.954104 0.0517932 -7.41877e-17)
(1.00221 0.0179984 -6.90118e-18)
(1.03677 0.000822701 -1.82728e-19)
(0.999987 1.91905e-05 1.44729e-17)
(0.99974 8.03667e-05 -3.15635e-16)
(1.03522 -0.00123912 2.53855e-19)
(1.01038 0.010175 -1.19535e-17)
(1.00342 0.0181866 1.76163e-17)
(1.00972 0.00826732 -1.19196e-17)
(1.00001 8.4273e-05 -3.11204e-17)
(1.00053 0.000180086 -3.42574e-19)
(1.00378 0.000796546 1.5038e-17)
(1.00039 0.0271089 7.68171e-18)
(1.03631 0.00371832 1.00298e-18)
(0.944757 0.0358158 -2.57703e-17)
(0.98953 0.000887647 -2.37162e-16)
(0.931057 0.0346962 1.55545e-16)
(1.03055 0.0117125 -4.87596e-18)
(1.0086 0.0160922 -1.41479e-17)
(0.936584 0.0453412 1.47207e-16)
(0.984295 0.0218006 5.86534e-17)
(1.06243 0.00700985 -9.44863e-18)
(1.03008 0.0100496 1.43716e-17)
(0.98659 0.0202035 -2.00859e-17)
(0.993866 0.0555495 -2.92265e-17)
(0.999781 0.000153216 -2.89295e-17)
(1.01258 0.0665129 6.05082e-18)
(1.02532 0.0233102 1.04693e-17)
(1.00001 -1.41828e-05 1.0573e-17)
(1 3.1237e-06 -2.26886e-17)
(1.00078 4.99586e-05 1.68912e-17)
(0.999556 0.000397967 -6.57395e-17)
(1.06297 0.0627378 3.71765e-19)
(1.01089 0.0156738 -1.11773e-17)
(1.01469 -0.000705432 -4.94463e-18)
(0.942591 0.0471854 -5.42094e-17)
(0.992444 9.96626e-05 1.21084e-15)
(0.816181 0.0237761 -3.9108e-16)
(1.03291 0.00125936 -5.23864e-19)
(1.03566 0.001896 8.65413e-19)
(1.00331 0.000425365 2.0447e-17)
(1.04928 0.0343054 -1.08622e-17)
(0.999997 4.98467e-05 -3.16792e-18)
(0.999898 0.028482 -1.51718e-17)
(1.00049 0.00325771 6.14256e-18)
(0.945062 0.101426 1.37513e-18)
(0.934414 0.0416723 -4.16666e-17)
(1.00197 0.0154947 -5.52836e-18)
(1.01594 0.0106478 -1.25174e-19)
(0.482914 0.72722 -6.58687e-17)
(1.02796 0.0104189 7.49074e-18)
(1.04267 0.0569058 -3.97062e-18)
(1.00927 0.0117687 1.42577e-17)
(0.983577 0.136507 -1.80188e-18)
(1.1669 0.169286 -1.53328e-17)
(1.001 -7.25975e-05 -6.2988e-18)
(0.998357 0.00319444 -5.76883e-18)
(1.00001 3.5501e-06 -4.7055e-18)
(1.05904 0.0583985 6.3571e-19)
(0.998518 0.00302341 1.16873e-17)
(1.01544 0.00850397 1.29892e-17)
(1.10601 0.0947384 9.51516e-18)
(1.00047 0.000133003 1.72108e-18)
(0.971364 0.00327783 -2.15209e-16)
(0.992454 0.0495842 6.74778e-18)
(1.0065 0.0143001 3.39978e-17)
(0.997514 0.00019477 -3.63935e-17)
(1.00212 0.0158623 -1.33981e-18)
(0.999134 0.000738754 -5.69921e-17)
(0.995745 0.0144693 -2.31977e-17)
(0.999126 0.000621686 5.7655e-18)
(0.999183 0.000808636 1.28611e-17)
(0.995708 0.0125514 2.72853e-18)
(1.03329 0.00514781 3.87144e-18)
(1.03362 0.00641302 2.80947e-18)
(1.00687 0.0154559 -2.13389e-17)
(0.64498 0.0327837 4.99758e-17)
(1.03359 0.00031301 5.09336e-19)
(0.376713 0.348128 -2.94664e-17)
(1.02787 0.0118063 2.95792e-18)
(1.02164 0.00131527 3.71522e-19)
(0.995664 0.0133273 -1.64222e-17)
(1.02646 0.0127438 -5.81564e-18)
(0.993284 0.0252087 2.15227e-17)
(1.03113 -0.000378618 7.72839e-19)
(0.533985 0.417838 -8.39361e-17)
(0.946449 0.0377241 1.01254e-16)
(0.992994 0.0241107 5.38551e-18)
(1.00454 0.0215286 -1.37037e-17)
(0.99473 0.00125541 2.55383e-17)
(0.996272 0.000733711 5.51794e-17)
(1.02566 0.0262711 -6.71231e-18)
(1.00001 4.34589e-05 2.19801e-17)
(1.06723 0.00539172 3.74743e-19)
(0.999097 5.43748e-05 3.92831e-17)
(0.953386 0.0374154 1.01434e-16)
(1.00048 0.0735663 -4.60308e-17)
(1.06171 0.0533134 -9.67405e-18)
(1.03852 0.0209525 3.60263e-18)
(1.03114 0.0107196 1.14701e-18)
(0.992348 0.0482969 -4.0847e-17)
(1.00911 0.012147 -6.59893e-18)
(1.03808 0.0218597 1.35308e-17)
(0.971812 0.0296423 -1.06356e-16)
(1.04489 0.0576228 -4.90002e-19)
(1.00814 0.0205912 1.82862e-17)
(1.04424 0.0355193 1.89814e-17)
(1.00572 0.0216167 -3.48467e-18)
(1.00001 2.96594e-05 -2.54246e-19)
(1.00007 0.023248 -2.76395e-17)
(0.809425 0.0239833 -6.34144e-18)
(0.972079 0.130284 4.20651e-17)
(1.00614 0.00563497 -1.05561e-17)
(1.00009 5.16149e-05 1.99992e-18)
(0.999082 0.000249209 1.02859e-16)
(0.994902 0.00704628 2.20271e-18)
(0.964743 0.00285643 -6.6583e-16)
(1.03044 0.00573399 2.21182e-18)
(1.02666 0.00115811 -2.48729e-18)
(1.00078 3.02831e-05 5.26984e-18)
(1.00476 0.00667478 -1.63405e-17)
(0.994857 0.024793 -2.02385e-17)
(1.006 0.00496673 2.99777e-18)
(1.00859 0.000519736 1.38178e-17)
(1.04544 0.0306131 -6.3409e-18)
(0.993962 0.000917864 -8.74644e-17)
(0.991595 0.0332921 3.28337e-17)
(1.03342 0.0111383 -8.54997e-19)
(1.00511 0.00550509 1.37499e-17)
(1.00698 0.00574966 -2.49519e-18)
(0.94697 0.0602036 -1.25702e-16)
(0.999994 -1.67671e-06 5.83872e-19)
(0.993621 0.00537246 6.02539e-18)
(1.33817 0.116125 4.82769e-17)
(0.999796 5.47406e-05 4.46677e-18)
(1.04 0.0341436 -8.39378e-18)
(1.00303 0.0673079 -1.73199e-17)
(1.00758 0.00581574 8.4373e-18)
(0.95931 0.0424629 1.22896e-17)
(1.03236 0.0113577 3.98729e-18)
(0.998471 0.0241514 -5.00018e-17)
(1.02739 0.0306665 3.92083e-18)
(0.999602 0.00304247 1.05321e-19)
(0.938562 0.037438 -6.29603e-17)
(1.00432 0.000181467 -2.12943e-18)
(1.02818 -0.000693856 -9.29558e-19)
(1.03252 0.0128104 5.54216e-18)
(0.935548 0.0429848 -6.13751e-17)
(0.999825 0.00292737 1.31553e-18)
(1.03601 0.00207038 -1.56646e-19)
(1.05462 0.0171498 -9.4501e-18)
(0.993512 0.0327259 -1.77037e-17)
(1.00575 0.012701 -2.00229e-17)
(1.00436 0.00271956 -1.75787e-17)
(1.01523 0.0659964 -4.5476e-18)
(0.752977 0.254404 4.57674e-18)
(0.995175 0.00112512 -2.43153e-17)
(0.999999 2.50668e-06 -8.54906e-18)
(0.994191 0.0225222 -1.91353e-17)
(0.999998 2.27929e-06 -7.82304e-19)
(1.16089 0.182296 -3.90779e-17)
(1.00687 0.0209474 -2.84928e-17)
(1.03877 0.0831914 1.27081e-18)
(1.01483 0.00637212 1.20524e-17)
(1.02875 -0.000496792 -1.8612e-17)
(0.202835 0.0380705 -3.78706e-15)
(1.00646 0.0145106 1.57305e-18)
(1.10036 0.191811 -1.36344e-17)
(1.03226 0.00520546 2.23319e-18)
(1.09082 0.00891388 -7.88426e-18)
(1.02617 0.0105195 1.51899e-18)
(0.996922 0.0114594 3.72129e-17)
(1.00608 0.0134454 1.80191e-17)
(1.01652 5.82428e-05 -1.69401e-18)
(1.09282 0.0868167 1.37126e-18)
(1.08418 0.0798756 3.39568e-17)
(1.0013 3.55108e-05 -3.59854e-19)
(1.00188 0.000208423 7.66236e-21)
(0.933525 0.0448944 -7.14468e-17)
(1.00235 7.67209e-05 8.68802e-18)
(0.730867 0.375394 1.14856e-17)
(1.02726 0.0306815 1.98879e-18)
(0.974887 0.159935 7.10583e-18)
(1.00381 0.00274081 -5.42366e-18)
(0.233169 0.418136 2.99069e-16)
(1.13589 0.215936 -3.96019e-17)
(1.00581 0.0212986 2.48352e-18)
(0.999991 1.92591e-05 4.04412e-19)
(0.999892 0.00264938 9.27467e-18)
(0.95358 0.031825 -5.92996e-17)
(0.994671 0.00775543 -3.09819e-18)
(0.990491 0.000161094 -1.84117e-16)
(0.9974 0.00900006 2.71984e-18)
(1.02898 0.0101844 -3.85742e-18)
(0.974165 0.0280982 8.4247e-17)
(1.07206 0.00786156 4.2975e-17)
(0.626228 0.0466578 -9.89313e-17)
(1.00093 -1.63719e-05 -2.2399e-18)
(0.966081 0.0348975 -1.8817e-17)
(1.03161 0.0241518 -3.6741e-18)
(0.918165 0.0619932 9.5755e-17)
(1.00448 0.0122783 1.60235e-17)
(0.930881 0.079031 1.38738e-16)
(1.03358 0.0041877 -4.94188e-18)
(0.958748 0.0312718 1.20759e-16)
(0.997456 0.000664669 4.63604e-17)
(1.0001 2.14636e-05 6.80458e-19)
(1.03588 0.0206491 -1.26138e-18)
(1.03931 0.0202299 -2.07183e-17)
(1.02384 -0.00110317 2.87156e-18)
(0.934138 0.0328546 9.14989e-17)
(1.03548 0.0797124 9.81373e-18)
(1.02435 -0.000278726 -2.79961e-20)
(0.997261 0.0237252 -2.80324e-17)
(1.00033 0.00383655 -1.16303e-17)
(1.00836 0.00776872 -1.48827e-18)
(0.758517 0.0232228 -1.21324e-15)
(1.00983 0.00902365 7.8228e-18)
(1.03217 0.0184681 8.21417e-18)
(0.984156 0.0385003 4.71111e-18)
(1.02469 0.00788202 1.59417e-18)
(1.01302 -0.000476949 1.11927e-17)
(0.996706 0.0106307 -3.10485e-18)
(1.05561 0.0162588 7.17864e-18)
(1.0142 0.00612771 -5.02458e-18)
(1.00519 0.0120926 2.01205e-17)
(1.07266 0.00480835 1.96822e-17)
(0.992154 0.0260209 -1.85544e-17)
(1.02 0.0013011 1.11946e-18)
(0.819765 0.297614 -1.0129e-16)
(1 4.08566e-05 6.12507e-20)
(1.01464 0.00717227 1.04366e-17)
(0.999308 0.0186497 3.66775e-17)
(0.99282 0.00661694 5.08252e-19)
(1.00282 0.000731758 1.78405e-17)
(0.996766 0.0235822 1.96071e-18)
(1.00001 1.12885e-06 -5.3413e-18)
(1.04659 0.100903 3.30029e-17)
(1.00561 0.000241246 -3.46803e-17)
(0.974306 0.00486657 -1.08674e-16)
(1.03464 0.0303791 1.96978e-17)
(0.956997 0.04238 3.34615e-17)
(1.01561 0.00858371 1.81274e-18)
(1.01539 0.00750272 -1.1294e-17)
(1.0353 0.019983 -1.0647e-17)
(1.27488 -0.00697353 4.1375e-18)
(0.999739 0.000153446 -3.22327e-17)
(0.993112 0.000459112 -2.76606e-16)
(1.01969 -0.00103364 2.80518e-19)
(1.11011 0.182357 3.21632e-18)
(1.03906 0.0212089 -1.23544e-17)
(0.999814 0.00286759 5.59005e-18)
(0.271488 0.172755 -2.47404e-16)
(1.00009 3.99819e-05 3.77038e-18)
(1.00488 0.00143576 -2.56946e-18)
(1.01681 -0.0570467 1.33733e-16)
(0.994824 0.00497079 -9.26308e-19)
(0.999613 0.00308411 1.22681e-18)
(0.999583 0.00331799 -2.16106e-18)
(0.984434 0.0369539 -3.55655e-17)
(0.959972 0.0271745 5.04888e-17)
(0.99968 8.9594e-05 4.15067e-17)
(0.993797 0.00625938 2.84677e-19)
(0.936301 0.0659246 5.37771e-17)
(0.999515 0.0197944 3.5424e-17)
(0.99548 0.0173854 4.00989e-18)
(0.997006 0.00868011 -4.53171e-18)
(1.00104 9.09663e-06 3.21629e-19)
(0.96123 0.0299954 -6.70802e-17)
(1.06445 0.0513455 -5.99538e-18)
(0.994678 0.0151892 2.87253e-17)
(0.933361 0.0319472 2.45382e-17)
(1.03088 0.00502223 4.35217e-19)
(1.02996 -0.00453766 1.28567e-18)
(1.04534 0.0989427 3.80727e-17)
(1.03224 0.0268863 1.08577e-17)
(0.996726 0.00926279 -7.67178e-19)
(1.00476 0.00084174 9.83947e-18)
(1.0858 0.0886648 -1.2358e-17)
(1.03483 0.00310224 2.20624e-18)
(0.97698 0.0244327 -3.08756e-17)
(1.00057 0.00386816 -6.13574e-18)
(0.999508 0.000347974 8.13089e-17)
(0.934241 0.00714695 7.48445e-17)
(1.04878 0.0359469 6.58772e-18)
(1.01354 0.00586648 1.21916e-17)
(1.01306 0.04797 -4.35625e-18)
(1.01391 0.00682697 -1.11242e-17)
(0.997111 0.00930661 3.15455e-18)
(1.00528 0.00498719 -5.10714e-18)
(0.967548 0.0306358 6.63427e-17)
(0.963469 0.0201875 -1.44127e-16)
(0.401694 0.564495 -6.39834e-16)
(0.969182 0.0353458 6.88157e-18)
(0.999929 0.0163049 3.20594e-17)
(1.00533 0.00386303 -5.08562e-18)
(0.971901 0.0311133 8.35328e-17)
(0.587229 0.300314 1.29567e-17)