/*--------------------------------*- C++ -*----------------------------------*\
  =========                 |
  \\      /  F ield         | OpenFOAM: The Open Source CFD Toolbox
   \\    /   O peration     | Website:  https://openfoam.org
    \\  /    A nd           | Version:  7
     \\/     M anipulation  |
\*---------------------------------------------------------------------------*/
FoamFile
{
    version     2.0;
    format      ascii;
    class       surfaceScalarField;
    location    "140";
    object      phi;
}
// * * * * * * * * * * * * * * * * * * * * * * * * * * * * * * * * * * * * * //

dimensions      [0 3 -1 0 0 0 0];

internalField   nonuniform List<scalar> 
53160
(
-0.000179208
-0.00891759
0.0090968
-9.9145e-05
-0.0083599
0.00827984
0.000303882
-0.00269817
0.00229514
0.000846979
0.00580378
-0.00634687
0.00132267
0.0112294
-0.0117051
0.00159142
0.0141531
-0.0144219
0.0015466
0.0159665
-0.0159216
0.00177832
0.0151853
-0.015417
0.0028767
0.00813477
-0.00923315
0.00421826
-0.00177226
0.000430698
0.00532681
-0.00953226
0.0084237
0.00622834
-0.0138115
0.01291
0.00670019
-0.0155499
0.0150781
0.00667886
-0.0168155
0.0168368
0.00667281
-0.017607
0.0176131
0.00741761
-0.012979
0.0122342
0.00895797
-0.00385283
0.00231247
0.0104837
0.00428036
-0.00580614
0.0114181
0.0111872
-0.0121215
0.0168384
-0.017393
0.0119727
-0.000210331
-0.00870726
-0.000156068
-0.00841416
0.000224908
-0.00307915
0.000761803
0.00526688
0.00125248
0.0107387
0.00152384
0.0138818
0.00150157
0.0159887
0.00187122
0.0148156
0.00309453
0.00691146
0.00446842
-0.00314615
0.00552755
-0.0105914
0.00633475
-0.0146187
0.00677762
-0.0159928
0.00673525
-0.0167731
0.00673199
-0.0176038
0.00743734
-0.0136843
0.00890703
-0.00532252
0.0103444
0.00284304
0.0112374
0.0102941
0.0162305
0.0118453
-0.000241736
-0.00846552
-0.000212632
-0.00844327
0.000149616
-0.00344139
0.000682002
0.00473449
0.0011878
0.0102329
0.00146308
0.0136065
0.00147937
0.0159724
0.00200368
0.0142913
0.00333599
0.00557915
0.00472589
-0.00453604
0.00573789
-0.0116034
0.00644363
-0.0153245
0.00686183
-0.016411
0.0068164
-0.0167277
0.00682106
-0.0176084
0.00750509
-0.0143684
0.00888087
-0.0066983
0.0102351
0.00148877
0.0111022
0.00942702
0.0156052
0.0117275
-0.000273057
-0.00819246
-0.000268269
-0.00844805
7.82492e-05
-0.00378791
0.000608129
0.00420461
0.00112883
0.00971223
0.00141017
0.0133252
0.00148316
0.0158995
0.00217886
0.0135956
0.00360741
0.0041506
0.00498997
-0.00591859
0.00595144
-0.0125649
0.00655501
-0.015928
0.00694717
-0.0168031
0.00691568
-0.0166962
0.00690604
-0.0175988
0.00756811
-0.0150304
0.00886729
-0.00799748
0.0101635
0.000192548
0.0110054
0.00858511
0.0149852
0.0116255
-0.00030389
-0.00788857
-0.000322484
-0.00842946
1.15341e-05
-0.00412193
0.000540549
0.0036756
0.00107571
0.00917707
0.00136598
0.0130349
0.00151579
0.0157496
0.00239668
0.0127147
0.00390971
0.00263757
0.00525993
-0.00726881
0.00616183
-0.0134668
0.00666923
-0.0164355
0.00702592
-0.0171598
0.0070239
-0.0166942
0.00696879
-0.0175437
0.00758586
-0.0156475
0.00885328
-0.0092649
0.0101178
-0.00107195
0.0109179
0.00778501
0.0143516
0.0115515
-0.00033379
-0.00755478
-0.00037479
-0.00838846
-5.30474e-05
-0.00444367
0.000479424
0.00314313
0.0010285
0.008628
0.00133113
0.0127323
0.00157979
0.015501
0.00265347
0.0116411
0.00423499
0.00105604
0.00553233
-0.00856615
0.00636305
-0.0142975
0.00678559
-0.016858
0.00709145
-0.0174657
0.00713041
-0.0167332
0.00701148
-0.0174248
0.00753296
-0.016169
0.00880232
-0.0105343
0.0100428
-0.00231248
0.010794
0.00703389
0.0136172
0.0115283
-0.000362276
-0.00719251
-0.000424675
-0.00832606
-0.000113563
-0.00475478
0.000424799
0.00260477
0.000987209
0.00806559
0.00130612
0.0124134
0.00167731
0.0151298
0.00294411
0.0103743
0.00457154
-0.000571385
0.00580119
-0.0097958
0.0065499
-0.0150462
0.00690108
-0.0172092
0.00714173
-0.0177063
0.00722445
-0.0168159
0.00705037
-0.0172507
0.00740742
-0.016526
0.00865301
-0.0117799
0.00985949
-0.00351896
0.0105919
0.0063015
0.0126441
0.011565
-0.00038884
-0.00680367
-0.00047155
-0.00824335
-0.000169576
-0.00505676
0.000376553
0.00205864
0.000951733
0.00749041
0.00129165
0.0120734
0.00180998
0.0146115
0.00326398
0.00892026
0.00490887
-0.00221628
0.0060596
-0.0109465
0.00671825
-0.0157048
0.00701052
-0.0175014
0.00718024
-0.017876
0.00729617
-0.0169318
0.00710029
-0.0170548
0.00723244
-0.0166582
0.00835793
-0.0129054
0.0095098
-0.00467083
0.0102844
0.0055269
0.0113046
0.0116239
-0.000412929
-0.00639074
-0.000514764
-0.00814152
-0.000221376
-0.00535015
0.000334471
0.00150279
0.000921806
0.00690307
0.00128917
0.0117061
0.00197896
0.0139217
0.00360752
0.0072917
0.00523907
-0.00384783
0.00630062
-0.0120081
0.0068653
-0.0162695
0.00710809
-0.0177442
0.00721349
-0.0179814
0.00734049
-0.0170588
0.0071636
-0.0168779
0.00705067
-0.0165452
0.00791889
-0.0137736
0.00897975
-0.00573169
0.00986856
0.00463809
0.00952345
0.0116497
-0.000433961
-0.00595678
-0.000553596
-0.00802188
-0.000268934
-0.00563481
0.000298256
0.000935599
0.000896832
0.0063045
0.0013014
0.0113015
0.002185
0.0130381
0.00396635
0.00551035
0.00555468
-0.00543615
0.00651756
-0.012971
0.00698952
-0.0167415
0.00718891
-0.0179436
0.00724726
-0.0180398
0.00736162
-0.0171732
0.00723239
-0.0167487
0.00691371
-0.0162266
0.00739394
-0.0142538
0.00829544
-0.00663319
0.00939254
0.00354099
0.00725905
0.0116569
-0.000451323
-0.00550545
-0.000587096
-0.00788611
-0.000311986
-0.00590992
0.000267468
0.000356145
0.00087567
0.0056963
0.00133254
0.0108446
0.00242868
0.0119419
0.00432965
0.00360937
0.00584759
-0.00695409
0.00670444
-0.0138278
0.00709024
-0.0171273
0.00725003
-0.0181034
0.00728354
-0.0180733
0.00737166
-0.0172613
0.00729836
-0.0166754
0.00687302
-0.0158012
0.00690087
-0.0142816
0.0075529
-0.00728521
0.00898652
0.00210736
0.00448767
0.0117579
-0.000464376
-0.00504108
-0.000613986
-0.0077365
-0.000349944
-0.00617396
0.000241363
-0.000235161
0.000856525
0.00508113
0.00138794
0.0103132
0.00271002
0.0106199
0.00468594
0.00163345
0.00610963
-0.00837777
0.00685681
-0.014575
0.00716685
-0.0174373
0.00729087
-0.0182274
0.00731982
-0.0181022
0.00738409
-0.0173256
0.00735899
-0.0166503
0.00696208
-0.0154043
0.00661438
-0.0139339
0.0070079
-0.00767874
0.0088815
0.00023376
0.00129631
0.0120729
-0.000472473
-0.00456861
-0.000632589
-0.00757638
-0.000381782
-0.00642477
0.000218725
-0.000835668
0.000837361
0.0044625
0.00147307
0.00967751
0.00302679
0.00906615
0.0050242
-0.000363957
0.00633356
-0.00968713
0.00697223
-0.0152137
0.00721841
-0.0176835
0.00731317
-0.0183222
0.00735032
-0.0181394
0.0074071
-0.0173824
0.00741729
-0.0166605
0.00716961
-0.0151566
0.0067133
-0.0134776
0.00703522
-0.00800066
0.00931586
-0.00204687
-0.00201419
0.0126264
-0.000474984
-0.00409362
-0.000640823
-0.00741054
-0.000405894
-0.0066597
0.000197956
-0.00143952
0.000817424
0.00384303
0.00159274
0.0089022
0.0033719
0.00728698
0.00533344
-0.00232549
0.00651382
-0.0108675
0.00705012
-0.01575
0.00724418
-0.0178776
0.00731985
-0.0183979
0.00736928
-0.0181888
0.00743958
-0.0174527
0.00747884
-0.0166997
0.00743213
-0.0151099
0.00719849
-0.013244
0.00778194
-0.00858411
0.0102301
-0.00449506
-0.00505582
0.0132718
-0.00047134
-0.00362228
-0.000636308
-0.00724558
-0.000419867
-0.00687614
0.000177769
-0.00203716
0.000800153
0.00322065
0.00175148
0.00795087
0.00373172
0.00530674
0.00560352
-0.00419729
0.00664694
-0.0119109
0.0070912
-0.0161942
0.0072448
-0.0180312
0.00731283
-0.0184659
0.00737522
-0.0182512
0.00747398
-0.0175514
0.0075516
-0.0167774
0.0076762
-0.0152345
0.00782039
-0.0133882
0.00882906
-0.00959278
0.0111822
-0.00684819
-0.00759726
0.0137236
-0.000461099
-0.00316118
-0.000616604
-0.00709007
-0.000420218
-0.00707252
0.000158958
-0.00261633
0.000796469
0.00258314
0.00195504
0.0067923
0.00408704
0.00317475
0.00582591
-0.00593616
0.0067318
-0.0128168
0.00709728
-0.0165597
0.00722255
-0.0181564
0.00729235
-0.0185357
0.00737063
-0.0183295
0.00750279
-0.0176836
0.0076373
-0.0169119
0.00788485
-0.0154821
0.00831787
-0.0138212
0.0095918
-0.0108667
0.011686
-0.00894245
-0.00968373
0.0137725
-0.000444014
-0.00271717
-0.000579582
-0.0069545
-0.00040224
-0.00724987
0.000147075
-0.00316565
0.000825661
0.00190455
0.00220978
0.00540817
0.00441677
0.000967763
0.00599444
-0.00751384
0.0067696
-0.013592
0.0070713
-0.0168614
0.00718035
-0.0182655
0.00725847
-0.0186138
0.0073578
-0.0184288
0.0075231
-0.0178489
0.00772003
-0.0171088
0.00806267
-0.0158247
0.00863231
-0.0143908
0.00991599
-0.0121504
0.0117265
-0.0107529
-0.011473
0.0135157
-0.000420108
-0.00229706
-0.000523851
-0.00685076
-0.000360294
-0.00741342
0.000154854
-0.00368079
0.000911023
0.00114838
0.00251664
0.00380255
0.00470264
-0.00121823
0.00610593
-0.00891713
0.00676356
-0.0142496
0.00701725
-0.0171151
0.00712089
-0.0183692
0.00721238
-0.0187053
0.00733661
-0.0185531
0.00753429
-0.0180466
0.00778585
-0.0173604
0.00820391
-0.0162428
0.00883649
-0.0150234
0.0100276
-0.0133415
0.0116173
-0.0123426
-0.0130583
0.0132026
-0.000389726
-0.00190733
-0.000449176
-0.00679131
-0.000288877
-0.00757372
0.000201786
-0.00417146
0.00107063
0.000279534
0.00286156
0.00201163
0.00493214
-0.00328882
0.0061606
-0.0101456
0.0067186
-0.0148076
0.00693967
-0.0173362
0.00704666
-0.0184761
0.00715564
-0.0188142
0.00730606
-0.0187035
0.00753481
-0.0182753
0.00783264
-0.0176582
0.0083045
-0.0167146
0.00897975
-0.0156987
0.0100914
-0.0144531
0.0115159
-0.0137671
-0.0144742
0.0129318
-0.000353546
-0.00155379
-0.00035675
-0.00678811
-0.000184539
-0.00774593
0.000307953
-0.00466395
0.00130793
-0.000720444
0.00321263
0.000106927
0.00509819
-0.00517437
0.00616209
-0.0112095
0.0066408
-0.0152863
0.00684308
-0.0175384
0.00696013
-0.0185932
0.00708928
-0.0189434
0.00726586
-0.0188801
0.00752297
-0.0185324
0.00786082
-0.017996
0.00836885
-0.0172227
0.0090672
-0.016397
0.0101128
-0.0154987
0.0114019
-0.0150563
-0.0157537
0.0126814
-0.000312543
-0.00124125
-0.000249161
-0.00685149
-4.79546e-05
-0.00794714
0.000482784
-0.00519469
0.0016069
-0.00184456
0.00353001
-0.00181618
0.00519876
-0.00684313
0.00611702
-0.0121277
0.0065368
-0.0157061
0.00673171
-0.0177333
0.00686353
-0.018725
0.00701408
-0.019094
0.00721594
-0.0190819
0.00749831
-0.0188148
0.0078694
-0.0183671
0.00840093
-0.0177542
0.00910577
-0.0171018
0.0100902
-0.0164832
0.0112681
-0.0162341
-0.0169261
0.0124405
-0.000267888
-0.000973358
-0.000129776
-0.0069896
0.000115134
-0.00819205
0.000716092
-0.00579565
0.0019331
-0.00306157
0.00378298
-0.00366606
0.00523703
-0.00829718
0.00603405
-0.0129248
0.00641311
-0.0160852
0.00660927
-0.0179295
0.00675864
-0.0188744
0.00693075
-0.0192661
0.00715621
-0.0193074
0.0074608
-0.0191194
0.00785832
-0.0187647
0.00840365
-0.0182995
0.0091066
-0.0178048
0.0100379
-0.0174145
0.0111238
-0.01732
-0.0180106
0.0122083
-0.000220853
-0.000752505
4.21104e-06
-0.00721466
0.000294879
-0.00848272
0.00097977
-0.00648054
0.00224521
-0.00432701
0.00395811
-0.00537896
0.0052211
-0.00956016
0.00592253
-0.0136262
0.00627556
-0.0164382
0.00647879
-0.0181327
0.00664689
-0.0190425
0.00683988
-0.0194591
0.00708673
-0.0195542
0.00741048
-0.0194431
0.00782839
-0.0191826
0.00838018
-0.0188513
0.00907588
-0.0185005
0.00995955
-0.0182981
0.0109681
-0.0183285
-0.0190219
0.0119793
-0.000172744
-0.000579761
0.000121251
-0.00750866
0.000479467
-0.00884093
0.00124064
-0.00724171
0.0025091
-0.00559547
0.00405829
-0.00692815
0.00516228
-0.0106642
0.00579119
-0.0142551
0.00612893
-0.0167759
0.00634259
-0.0183464
0.00652938
-0.0192293
0.00674193
-0.0196716
0.00700774
-0.01982
0.00734763
-0.019783
0.00778042
-0.0196154
0.00833354
-0.0194044
0.00901862
-0.0191856
0.00985836
-0.0191379
0.0108014
-0.0192716
-0.0199719
0.0117514
-0.000124558
-0.000455203
0.000242947
-0.00787616
0.000658315
-0.0092563
0.00147374
-0.00805714
0.00270861
-0.00683035
0.00409614
-0.00831567
0.00507251
-0.0116405
0.00564723
-0.0148298
0.0059768
-0.0171055
0.00620236
-0.018572
0.00640692
-0.0194338
0.0066373
-0.019902
0.00691949
-0.0201022
0.00727261
-0.0201361
0.00771549
-0.0200582
0.00826642
-0.0199554
0.00893871
-0.0198579
0.00973756
-0.0199367
0.0106254
-0.0201594
-0.0208698
0.0115233
-7.7044e-05
-0.000378159
0.000360688
-0.0083139
0.000823611
-0.00971922
0.00166757
-0.0089011
0.00284532
-0.0080081
0.00408745
-0.0095578
0.00496217
-0.0125152
0.00549604
-0.0153637
0.0058217
-0.0174312
0.00605929
-0.0188095
0.0062801
-0.0196546
0.00652631
-0.0201482
0.00682231
-0.0203982
0.00718589
-0.0204997
0.0076348
-0.0205072
0.00818105
-0.0205016
0.00883867
-0.0205155
0.00959934
-0.0206974
0.0104409
-0.021001
-0.0217222
0.0112933
-3.07119e-05
-0.000347447
0.000471602
-0.00881621
0.000971147
-0.0102188
0.00182136
-0.00975131
0.00293026
-0.009117
0.00404647
-0.010674
0.00483908
-0.0133079
0.00534128
-0.0158659
0.0056653
-0.0177552
0.00591414
-0.0190584
0.00614937
-0.0198899
0.00640925
-0.0204081
0.00671654
-0.0207055
0.007088
-0.0208712
0.00753952
-0.0209587
0.00807934
-0.0210414
0.00872058
-0.0211567
0.00944614
-0.021423
0.0102491
-0.021804
-0.0225329
0.0110597
1.43046e-05
-0.000361752
0.000574052
-0.00937596
0.0010997
-0.0107444
0.00193964
-0.0105912
0.00297587
-0.0101532
0.00398384
-0.011682
0.0047086
-0.0140326
0.00518529
-0.0163426
0.00550862
-0.0180785
0.00576743
-0.0193172
0.00601504
-0.0201375
0.0062864
-0.0206794
0.00660259
-0.0210217
0.00697949
-0.0212481
0.00743078
-0.02141
0.00796283
-0.0215735
0.0085861
-0.02178
0.00928027
-0.0221171
0.0100497
-0.0225734
-0.0233036
0.0108205
5.98365e-05
-0.000421588
0.000667187
-0.00998331
0.00120978
-0.011287
0.00202814
-0.0114096
0.00299221
-0.0111173
0.00390669
-0.0125965
0.00457415
-0.0147001
0.00502951
-0.016798
0.00535228
-0.0184013
0.00561946
-0.0195844
0.00587734
-0.0203954
0.00615799
-0.0209601
0.00648084
-0.0213446
0.00686092
-0.0216281
0.0073097
-0.0218587
0.00783282
-0.0220966
0.00843684
-0.022384
0.0091037
-0.022784
0.0098417
-0.0233114
-0.0240355
0.0105736
0.00010474
-0.000526328
0.000750762
-0.0106293
0.00130265
-0.0118389
0.00209194
-0.0121989
0.00298649
-0.0120118
0.0038197
-0.0134297
0.0044379
-0.0153183
0.00487476
-0.0172348
0.00519658
-0.0187231
0.0054704
-0.0198582
0.00573645
-0.0206614
0.00602426
-0.0212479
0.00635168
-0.021672
0.00673284
-0.0220093
0.00717729
-0.0223032
0.0076903
-0.0226096
0.00827454
-0.0229683
0.00891746
-0.0234269
0.00962313
-0.0240171
-0.0247378
0.0103255
0.000150273
-0.000676601
0.000824863
-0.0113039
0.00137968
-0.0123937
0.00213505
-0.0129543
0.00296374
-0.0128405
0.00372583
-0.0141918
0.00430108
-0.0158935
0.00472135
-0.0176551
0.0050415
-0.0190432
0.00532015
-0.0201369
0.00559233
-0.0209336
0.00588525
-0.0215408
0.00621528
-0.022002
0.00659558
-0.0223896
0.00703418
-0.0227418
0.00753588
-0.0231113
0.00810074
-0.0235331
0.0087214
-0.0240476
0.00938949
-0.0246852
-0.025424
0.0100757
0.000197338
-0.00087394
0.000889873
-0.0119965
0.00144235
-0.0129462
0.00216076
-0.0136727
0.00292772
-0.0136075
0.00362731
-0.0148913
0.00416471
-0.0164309
0.00456971
-0.0180601
0.00488733
-0.0193609
0.00516909
-0.0204186
0.00544545
-0.02121
0.0057416
-0.021837
0.00607242
-0.0223328
0.00645017
-0.0227673
0.00688164
-0.0231733
0.00737102
-0.0236007
0.00791729
-0.0240794
0.00851543
-0.0246457
0.00915085
-0.0253206
-0.0260872
0.00981404
0.000246682
-0.00112062
0.000946222
-0.012696
0.0014919
-0.0134919
0.00217164
-0.0143524
0.00288114
-0.014317
0.00352549
-0.0155357
0.00402915
-0.0169346
0.00441971
-0.0184507
0.00473385
-0.019675
0.00501701
-0.0207018
0.00529573
-0.0214887
0.0055933
-0.0221345
0.00592325
-0.0226628
0.0062969
-0.023141
0.00672007
-0.0235964
0.0071964
-0.024077
0.00772436
-0.0246074
0.00829921
-0.0252206
0.00891033
-0.0259317
-0.0267262
0.00954932
0.00029877
-0.00141939
0.000994387
-0.0133916
0.00152951
-0.014027
0.00216982
-0.0149927
0.0028261
-0.0149733
0.00342138
-0.016131
0.00389462
-0.0174078
0.00427128
-0.0188273
0.00458094
-0.0199847
0.00486391
-0.0209847
0.00514325
-0.021768
0.00544059
-0.0224319
0.00576811
-0.0229903
0.00613628
-0.0235091
0.00655011
-0.0240103
0.00701275
-0.0245396
0.00752237
-0.025117
0.00807574
-0.0257739
0.00866066
-0.0265166
-0.0273416
0.00927612
0.000353614
-0.00177301
0.00103482
-0.0140728
0.00155623
-0.0145484
0.00215711
-0.0155936
0.00276423
-0.0155804
0.00331565
-0.0166824
0.0037612
-0.0178534
0.00412426
-0.0191904
0.00442846
-0.0202889
0.00470973
-0.021266
0.00498811
-0.0220464
0.00528366
-0.0227274
0.00560732
-0.023314
0.00596876
-0.0238706
0.00637233
-0.0244138
0.00682071
-0.024988
0.0073124
-0.0256087
0.00784336
-0.0263049
0.00840583
-0.0270791
-0.0279336
0.00899778
0.000410615
-0.00218362
0.0010679
-0.0147301
0.00157298
-0.0150535
0.00213503
-0.0161557
0.0026968
-0.0161422
0.0032088
-0.0171944
0.00362886
-0.0182734
0.00397845
-0.01954
0.00427626
-0.0205867
0.00455444
-0.0215442
0.00483038
-0.0223223
0.00512271
-0.0230197
0.00544119
-0.0236325
0.00579479
-0.0242242
0.00618724
-0.0248063
0.00662099
-0.0254218
0.00709436
-0.026082
0.00760439
-0.0268149
0.0081439
-0.0276186
-0.0285009
0.00871124
0.000468484
-0.0026521
0.00109394
-0.0153556
0.00158059
-0.0155401
0.00210486
-0.0166799
0.00262485
-0.0166621
0.00310113
-0.0176707
0.00349753
-0.0186698
0.00383366
-0.0198761
0.0041242
-0.0208772
0.00439801
-0.021818
0.00467015
-0.0225945
0.00495794
-0.0233075
0.00527004
-0.0239446
0.00561477
-0.0245689
0.00599535
-0.0251869
0.00641399
-0.0258404
0.00686926
-0.0265373
0.00735806
-0.0273037
0.00787539
-0.028136
-0.0290447
0.00841919
0.000525291
-0.00317739
0.00111316
-0.0159434
0.00157979
-0.0160068
0.00206769
-0.0171678
0.00254915
-0.0171436
0.00299288
-0.0181144
0.00336708
-0.019044
0.00368972
-0.0201988
0.00397214
-0.0211596
0.00424041
-0.0220863
0.00450749
-0.0228616
0.00478952
-0.0235896
0.00509414
-0.0242492
0.00542908
-0.0249039
0.00579709
-0.0255549
0.00620029
-0.0262436
0.00663717
-0.0269742
0.00710533
-0.0277719
0.00760068
-0.0286313
-0.0295644
0.00812029
0.000578673
-0.00375607
0.00112577
-0.0164905
0.00157126
-0.0164523
0.00202446
-0.017621
0.00247036
-0.0175895
0.00288417
-0.0185282
0.00323739
-0.0193972
0.00354643
-0.0205078
0.00381998
-0.0214332
0.00408161
-0.0223479
0.0043425
-0.0231224
0.00461766
-0.0238647
0.00491377
-0.0245453
0.00523806
-0.0252282
0.00559289
-0.0259097
0.00598024
-0.026631
0.00639874
-0.0273927
0.00684627
-0.0282194
0.0073195
-0.0291045
-0.0300605
0.00781567
0.000626205
-0.00438227
0.00113196
-0.0169963
0.00155565
-0.016876
0.00197595
-0.0180413
0.00238898
-0.0180025
0.00277511
-0.0189143
0.00310832
-0.0197305
0.00340363
-0.0208031
0.0036676
-0.0216972
0.00392161
-0.0226019
0.00417525
-0.0233761
0.00444251
-0.024132
0.00472919
-0.024832
0.00504207
-0.025541
0.00538313
-0.0262508
0.00575431
-0.0270022
0.00615422
-0.0277926
0.0065812
-0.0286464
0.00703256
-0.0295559
-0.030533
0.00750508
0.000665834
-0.00504811
0.00113196
-0.0174624
0.00153357
-0.0172776
0.00192284
-0.0184306
0.00230546
-0.0183852
0.00266573
-0.0192746
0.00297975
-0.0200445
0.00326118
-0.0210845
0.00351492
-0.0219509
0.0037604
-0.0228474
0.00400584
-0.0236215
0.00426425
-0.0243904
0.00454065
-0.0251084
0.0048414
-0.0258418
0.00516818
-0.0265776
0.00552282
-0.0273568
0.00590402
-0.0281738
0.0063105
-0.0290529
0.00673975
-0.0299852
-0.0309823
0.00718897
0.000696254
-0.00574436
0.0011261
-0.0178922
0.00150564
-0.0176571
0.00186572
-0.0187907
0.00222012
-0.0187396
0.00255608
-0.0196106
0.00285155
-0.0203399
0.00311895
-0.0213519
0.00336186
-0.0221938
0.00359799
-0.0230835
0.00383436
-0.0238579
0.00408306
-0.0246391
0.0043484
-0.0253737
0.00463637
-0.0261298
0.00494836
-0.0268895
0.00528614
-0.0276946
0.00564847
-0.0285361
0.00603433
-0.0294387
0.00644162
-0.0303924
-0.0314082
0.00686754
0.000717085
-0.00646145
0.00111479
-0.0182899
0.00147245
-0.0180148
0.00180512
-0.0191234
0.00213322
-0.0190677
0.00244616
-0.0199235
0.00272362
-0.0206174
0.00297682
-0.0216051
0.00320839
-0.0224254
0.0034344
-0.0233095
0.00366089
-0.0240844
0.00389909
-0.0248773
0.00415266
-0.0256273
0.00442725
-0.0264043
0.00472399
-0.0271863
0.0050446
-0.0280152
0.00538788
-0.0288794
0.00575311
-0.029804
0.00613827
-0.0307776
-0.0318109
0.00654104
0.00072881
-0.00719026
0.00109848
-0.0186596
0.00143459
-0.0183509
0.00174149
-0.0194302
0.00204499
-0.0193712
0.00233598
-0.0202145
0.00259588
-0.0208773
0.00283472
-0.021844
0.00305444
-0.0226451
0.00326966
-0.0235248
0.00348555
-0.0243003
0.00371251
-0.0251042
0.00395366
-0.0258684
0.00421431
-0.026665
0.00449538
-0.0274674
0.00479852
-0.0283183
0.00512258
-0.0292035
0.00546704
-0.0301484
0.00583011
-0.0311407
-0.0321906
0.00620977
0.000732519
-0.00792278
0.00107769
-0.0190048
0.0013926
-0.0186658
0.00167522
-0.0197129
0.0019556
-0.0196515
0.00222556
-0.0204844
0.00246824
-0.02112
0.00269256
-0.0220683
0.0029
-0.0228525
0.0031038
-0.0237286
0.00330842
-0.0245049
0.00352348
-0.0253193
0.00375161
-0.0260966
0.00399782
-0.0269112
0.00426282
-0.0277323
0.00454819
-0.0286037
0.00485284
-0.0295081
0.00517646
-0.030472
0.00551737
-0.0314816
-0.0325472
0.00587397
0.000729576
-0.00865235
0.00105291
-0.0193281
0.001347
-0.0189599
0.00160667
-0.0199725
0.0018652
-0.0199101
0.00211488
-0.0207341
0.00234064
-0.0213457
0.0025503
-0.022278
0.00274505
-0.0230473
0.00293687
-0.0239204
0.00312961
-0.0246976
0.00333215
-0.0255218
0.00354671
-0.0263111
0.00377802
-0.0271425
0.00402657
-0.0279809
0.0042939
-0.028871
0.00457899
-0.0297932
0.00488165
-0.0307747
0.00520036
-0.0318003
-0.0328808
0.00553393
0.000721341
-0.00937369
0.00102461
-0.0196314
0.00129824
-0.0192335
0.00153613
-0.0202104
0.00177392
-0.0201479
0.00200396
-0.0209642
0.00221305
-0.0215548
0.00240789
-0.0224728
0.00258959
-0.023229
0.0027689
-0.0240997
0.00294922
-0.024878
0.00313869
-0.0257113
0.00333918
-0.0265116
0.00355514
-0.0273585
0.0037869
-0.0282127
0.00403595
-0.0291201
0.00430128
-0.0300585
0.00458289
-0.0310563
0.00487937
-0.0320968
-0.0331913
0.0051899
0.000708965
-0.0100827
0.000993224
-0.0199157
0.00124684
-0.0194871
0.00146389
-0.0204275
0.00168186
-0.0203658
0.0018928
-0.0211751
0.00208542
-0.0217475
0.00226531
-0.0226527
0.00243364
-0.0233973
0.00259997
-0.024266
0.00276735
-0.0250453
0.00294324
-0.0258872
0.0031292
-0.0266976
0.00332942
-0.0275587
0.00354407
-0.0284273
0.00377459
-0.0293506
0.00402001
-0.030304
0.00428046
-0.0313168
0.00455466
-0.032371
-0.0334788
0.00484215
0.000693342
-0.010776
0.000959139
-0.0201815
0.00119318
-0.0197212
0.00139016
-0.0206245
0.00158914
-0.0205648
0.00178142
-0.0213674
0.00195773
-0.0219238
0.00212255
-0.0228175
0.00227719
-0.0235519
0.00243012
-0.0244189
0.00258412
-0.0251993
0.00274596
-0.026049
0.00291697
-0.0268686
0.00310108
-0.0277428
0.00329833
-0.0286246
0.00351009
-0.0295624
0.00373546
-0.0305293
0.00397465
-0.0315559
0.00422651
-0.0326228
-0.0337432
0.00449092
0.000675132
-0.0114511
0.000922667
-0.020429
0.00113758
-0.0199361
0.00131518
-0.0208021
0.00149582
-0.0207455
0.00166984
-0.0215414
0.00182999
-0.0220839
0.0019796
-0.0229671
0.00212029
-0.0236926
0.00225943
-0.0245581
0.00239962
-0.0253395
0.00254699
-0.0261964
0.00270268
-0.0270243
0.00287034
-0.0279104
0.00304991
-0.0288041
0.00324271
-0.0297552
0.00344788
-0.0307345
0.00366571
-0.0317738
0.00389518
-0.0328523
-0.0339845
0.00413645
0.000654819
-0.0121059
0.000884026
-0.0206582
0.00108031
-0.0201324
0.00123911
-0.0209609
0.00140201
-0.0209084
0.00155807
-0.0216975
0.00170217
-0.022228
0.00183647
-0.0231014
0.00196297
-0.0238191
0.00208797
-0.0246831
0.00221398
-0.0254655
0.00234649
-0.0263289
0.0024865
-0.0271643
0.00263741
-0.0280614
0.00279906
-0.0289658
0.00297271
-0.0299288
0.00315754
-0.0309193
0.00335392
-0.0319702
0.00356094
-0.0330593
-0.0342025
0.00377901
0.000632763
-0.0127387
0.000843503
-0.0208689
0.00102162
-0.0203105
0.00116212
-0.0211014
0.00130776
-0.021054
0.00144614
-0.0218358
0.0015743
-0.0223562
0.00169317
-0.0232203
0.00180527
-0.0239312
0.00191581
-0.0247936
0.00202731
-0.025577
0.00214461
-0.0264462
0.00226863
-0.0272883
0.0024025
-0.0281952
0.002546
-0.0291093
0.00270032
-0.0300831
0.0028647
-0.0310837
0.00303954
-0.032145
0.00322404
-0.0332438
-0.0343973
0.00341884
0.000609243
-0.013348
0.000801363
-0.0210611
0.000961736
-0.0204709
0.00108436
-0.021224
0.00121315
-0.0211828
0.00133409
-0.0219568
0.00144639
-0.0224685
0.00154975
-0.0233236
0.00164724
-0.0240287
0.00174303
-0.0248894
0.00183971
-0.0256737
0.00194149
-0.026548
0.00204924
-0.0273961
0.00216582
-0.0283118
0.00229096
-0.0292344
0.00242581
-0.030218
0.00256961
-0.0312275
0.00272283
-0.0322982
0.00288475
-0.0334057
-0.0345688
0.00305619
0.000584487
-0.0139324
0.000757845
-0.0212344
0.000900849
-0.0206139
0.00100597
-0.0213291
0.00111826
-0.0212951
0.00122193
-0.0220605
0.00131846
-0.022565
0.00140622
-0.0234114
0.00148892
-0.0241114
0.00156972
-0.0249702
0.0016513
-0.0257553
0.00173727
-0.026634
0.0018285
-0.0274873
0.00192756
-0.0284109
0.00203416
-0.029341
0.00214939
-0.0303332
0.00227253
-0.0313507
0.00240405
-0.0324297
0.00254334
-0.033545
-0.0347168
0.00269133
0.000558687
-0.0144911
0.000713163
-0.0213889
0.000839134
-0.0207398
0.000927042
-0.021417
0.00102314
-0.0213912
0.00110972
-0.022147
0.00119055
-0.0226458
0.00126262
-0.0234835
0.00133039
-0.0241792
0.00139597
-0.0250358
0.00146221
-0.0258215
0.00153212
-0.0267039
0.00160658
-0.0275618
0.00168792
-0.0284922
0.00177583
-0.0294289
0.00187131
-0.0304287
0.00197369
-0.031453
0.00208345
-0.0325395
0.00220008
-0.0336617
-0.0348412
0.00232451
0.00053201
-0.0150231
0.000667509
-0.0215244
0.000776751
-0.0208491
0.0008477
-0.021488
0.000927877
-0.0214714
0.000997485
-0.0222166
0.0010627
-0.0227111
0.00111901
-0.0235398
0.00117171
-0.0242319
0.00122186
-0.0250859
0.00127255
-0.0258722
0.00132616
-0.0267575
0.00138368
-0.0276193
0.00144711
-0.0285556
0.00151616
-0.029498
0.00159179
-0.0305043
0.00167335
-0.0315346
0.00176129
-0.0326274
0.00185521
-0.0337556
-0.034942
0.00195598
0.000504603
-0.0155277
0.000621056
-0.0216408
0.000713842
-0.0209419
0.000768032
-0.0215421
0.00083252
-0.0215358
0.000885271
-0.0222694
0.000934932
-0.0227607
0.000975424
-0.0235803
0.00101295
-0.0242694
0.00104748
-0.0251205
0.00108244
-0.0259072
0.00111955
-0.0267946
0.00115996
-0.0276597
0.0012053
-0.028601
0.00125539
-0.0295481
0.00131107
-0.03056
0.00137174
-0.0315953
0.00143781
-0.0326935
0.00150897
-0.0338267
-0.035019
0.00158602
0.000476595
-0.0160043
0.000573958
-0.0217382
0.000650536
-0.0210184
0.000688124
-0.0215797
0.00073714
-0.0215849
0.000773116
-0.0223054
0.000807317
-0.0227949
0.000831905
-0.0236049
0.000854191
-0.0242917
0.000872921
-0.0251392
0.000892015
-0.0259263
0.000912426
-0.026815
0.000935575
-0.0276828
0.000962683
-0.0286281
0.000993717
-0.0295791
0.00102937
-0.0305957
0.0010691
-0.031635
0.00111328
-0.0327377
0.00116156
-0.033875
-0.0350723
0.0012149
0.000448104
-0.0164524
0.000526352
-0.0218165
0.000586953
-0.021079
0.000608052
-0.0216008
0.000641807
-0.0216186
0.000661054
-0.0223246
0.000679918
-0.0228138
0.000688496
-0.0236134
0.000695521
-0.0242987
0.000698273
-0.025142
0.000701377
-0.0259294
0.000704957
-0.0268186
0.000710682
-0.0276886
0.000719469
-0.0286369
0.00073134
-0.029591
0.000746905
-0.0306112
0.000765685
-0.0316538
0.000787952
-0.03276
0.000813212
-0.0339003
-0.035102
0.000842844
0.000419234
-0.0168717
0.00047836
-0.0218756
0.000523204
-0.0211239
0.000527877
-0.0216055
0.000546602
-0.0216373
0.000549108
-0.0223271
0.000552804
-0.0228175
0.000545255
-0.0236059
0.000536989
-0.0242905
0.000523677
-0.0251286
0.000510609
-0.0259163
0.000497295
-0.0268053
0.000485413
-0.0276767
0.000475857
-0.0286273
0.000468445
-0.0295836
0.00046389
-0.0306067
0.000461699
-0.0316516
0.000462086
-0.0327603
0.00046436
-0.0339026
-0.0351075
0.000469832
0.000390054
-0.0172617
0.000430034
-0.0219156
0.000459328
-0.0211532
0.000447554
-0.0215937
0.000451512
-0.0216413
0.000437171
-0.0223128
0.000425886
-0.0228062
0.000402097
-0.0235821
0.000378426
-0.0242668
0.000349046
-0.0250993
0.000319575
-0.0258868
0.000289267
-0.026775
0.000259689
-0.0276471
0.000231655
-0.0285993
0.000204897
-0.0295568
0.000180122
-0.0305819
0.000156925
-0.0316284
0.000135312
-0.0327387
0.000115421
-0.0338827
-0.0350868
9.4786e-05
0.000360704
-0.0176224
0.000381567
-0.0219364
0.000395565
-0.0211672
0.000367285
-0.0215655
0.000356836
-0.0216309
0.000325536
-0.0222815
0.000299502
-0.0227802
0.000259397
-0.023542
0.000220355
-0.0242278
0.000174721
-0.0250536
0.000129104
-0.0258412
8.11655e-05
-0.026727
3.46956e-05
-0.0276006
-1.29152e-05
-0.0285517
-5.82874e-05
-0.0295114
-0.000103342
-0.0305368
-0.000147467
-0.0315843
-0.000190837
-0.0326954
-0.00023419
-0.0338393
-0.0350433
-0.000277745
0.000331235
-0.0179537
0.000332979
-0.0219382
0.000331955
-0.0211661
0.000286999
-0.0215205
0.000262544
-0.0216064
0.000214058
-0.022233
0.000173711
-0.0227398
0.000116623
-0.0234849
6.33768e-05
-0.0241745
-1.55116e-06
-0.0249887
-6.09629e-05
-0.0257818
-0.000125928
-0.026662
-0.000190884
-0.0275357
-0.000255882
-0.0284867
-0.000321498
-0.0294458
-0.000386515
-0.0304718
-0.000451659
-0.0315191
-0.000516979
-0.03263
-0.000583685
-0.0337726
-0.0349769
-0.000650072
0.000301722
-0.0182554
0.000284323
-0.0219208
0.000268599
-0.0211504
0.000206673
-0.0214586
0.000168818
-0.0215685
0.000102281
-0.0221665
4.9567e-05
-0.0226871
-2.67479e-05
-0.0234086
-9.42811e-05
-0.024107
-0.000172066
-0.0249109
-0.000251564
-0.0257023
-0.000332509
-0.0265811
-0.000415711
-0.0274525
-0.000499275
-0.0284031
-0.000584238
-0.0293609
-0.000669493
-0.0303866
-0.000755601
-0.031433
-0.000842937
-0.0325427
-0.000932347
-0.0336832
-0.0348868
-0.00102239
0.000272234
-0.0185276
0.000235629
-0.0218842
0.00020562
-0.0211204
0.000126052
-0.021379
7.63946e-05
-0.0215189
-1.17871e-05
-0.0220783
-7.63681e-05
-0.0226225
-0.000164803
-0.0233202
-0.000251981
-0.0240198
-0.000344259
-0.0248186
-0.00044093
-0.0256056
-0.000539
-0.026483
-0.0006399
-0.0273516
-0.000742257
-0.0283007
-0.000846479
-0.0292566
-0.000951963
-0.0302811
-0.00105904
-0.0313259
-0.00116828
-0.0324335
-0.00128022
-0.0335713
-0.0347729
-0.00139415
0.000242834
-0.0187705
0.000186898
-0.0218282
0.000143237
-0.0210768
4.38276e-05
-0.0212796
-1.34645e-05
-0.0214616
-0.000116141
-0.0219756
-0.000203038
-0.0225356
-0.000303905
-0.0232193
-0.000408255
-0.0239155
-0.000516287
-0.0247106
-0.000629413
-0.0254925
-0.000744938