/*--------------------------------*- C++ -*----------------------------------*\
  =========                 |
  \\      /  F ield         | OpenFOAM: The Open Source CFD Toolbox
   \\    /   O peration     | Website:  https://openfoam.org
    \\  /    A nd           | Version:  7
     \\/     M anipulation  |
\*---------------------------------------------------------------------------*/
FoamFile
{
    version     2.0;
    format      ascii;
    class       surfaceScalarField;
    location    "10";
    object      phi;
}
// * * * * * * * * * * * * * * * * * * * * * * * * * * * * * * * * * * * * * //

dimensions      [0 3 -1 0 0 0 0];

internalField   nonuniform List<scalar> 
725
(
0.0583037
0.0143654
0.0570754
0.0148026
0.0558052
0.0152319
0.0143368
0.0521793
0.0544918
0.0156502
0.0147059
0.0509397
0.0531668
0.0160309
0.0150693
0.0496668
0.0518107
0.0164253
0.0154226
0.0483614
0.0504231
0.0168102
0.0157647
0.047025
0.0490052
0.0171827
0.0160953
0.0475582
0.0175423
0.0460831
0.0178892
0.0445815
0.018223
0.0185433
0.0595482
-0.0114381
0.0597454
-0.0118119
0.0599486
-0.0121777
0.0601577
-0.0125353
-0.0128838
0.0603724
0.0586969
-0.0112395
0.0588861
-0.0116272
0.0590813
-0.0120071
0.0592824
-0.0123788
0.0594893
-0.0127422
-0.0130962
0.0597017
0.0580472
-0.0114207
0.0582345
-0.0118145
0.0584278
-0.0122004
0.0586268
-0.0125778
0.0588316
-0.0129469
-0.0133064
0.0590418
0.0574083
-0.0116002
0.0575938
-0.012
0.0577851
-0.0123917
0.0579822
-0.0127748
0.0581848
-0.0131496
-0.0135144
0.0583928
0.0567804
-0.011778
0.0569641
-0.0121837
0.0571535
-0.0125812
0.0573486
-0.0129699
0.0575491
-0.0133501
-0.0137201
0.0577548
0.0561637
-0.0119542
0.0563456
-0.0123656
0.0565332
-0.0127688
0.0567262
-0.0131629
0.0569247
-0.0135486
-0.0139237
0.0571282
0.0555585
-0.0121288
0.0557387
-0.0125458
0.0559244
-0.0129545
0.0561155
-0.013354
0.0563119
-0.013745
-0.014125
0.0565132
0.0549651
-0.0123017
0.0551436
-0.0127243
0.0553275
-0.0131384
0.0555167
-0.0135431
0.055711
-0.0139393
-0.0143241
0.0559101
0.0543841
-0.0124731
0.0545609
-0.0129011
0.054743
-0.0133205
0.0549302
-0.0137304
0.0551225
-0.0141316
-0.0145209
0.0553193
0.053816
-0.012643
0.0539911
-0.0130762
0.0541713
-0.0135007
0.0543565
-0.0139155
0.0545466
-0.0143218
-0.0147153
0.054741
0.0532613
-0.0128113
0.0534347
-0.0132496
0.0536131
-0.0136791
0.053796
-0.0140985
0.0539836
-0.0145094
-0.0149069
0.0541752
0.0527201
-0.0129777
0.0528913
-0.0134208
0.0530674
-0.0138551
0.053248
-0.0142791
0.0534331
-0.0146945
-0.0150953
0.0536215
0.052192
-0.013142
0.0523608
-0.0135896
0.0525336
-0.014028
0.0527107
-0.0144561
0.0528924
-0.0148761
-0.0152816
0.0530787
0.0516765
-0.013304
0.0518431
-0.0137562
0.0520143
-0.0141991
0.0521895
-0.0146314
0.0523672
-0.0150539
-0.0154614
0.052547
0.0511832
0.0513455
0.0515117
0.0516829
0.0518609
0.0520497
0.0610186
5.82056e-05
0.061011
6.32158e-05
0.061003
6.8499e-05
0.0609944
7.40537e-05
0.0609852
7.98761e-05
0.0609754
8.59598e-05
9.22952e-05
0.060367
4.2488e-05
0.0603611
4.66613e-05
0.0603548
5.11148e-05
0.0603479
5.58371e-05
0.0603406
6.08359e-05
0.0603326
6.61224e-05
0.0603241
7.17026e-05
0.0603151
7.75764e-05
0.0603054
8.37402e-05
0.0602951
9.01878e-05
0.0602841
9.691e-05
0.000103894
0.0596955
4.86336e-05
0.0596889
5.3318e-05
0.0596817
5.831e-05
0.0596739
6.35951e-05
0.0596656
6.91805e-05
0.0596566
7.50776e-05
0.0596471
8.1291e-05
0.0596368
8.7819e-05
0.0596259
9.46551e-05
0.0596143
0.00010179
0.059602
0.000109211
0.000116901
0.0590348
5.56361e-05
0.0590272
6.08958e-05
0.059019
6.64926e-05
0.0590102
7.24082e-05
0.0590007
7.86491e-05
0.0589906
8.52264e-05
0.0589797
9.21434e-05
0.0589682
9.93955e-05
0.0589558
0.000106973
0.0589428
0.000114863
0.0589289
0.000123049
0.000131507
0.0583848
6.36353e-05
0.0583761
6.95431e-05
0.0583668
7.58195e-05
0.0583568
8.24416e-05
0.058346
8.94151e-05
0.0583345
9.67502e-05
0.0583222
0.000104448
0.0583091
0.000112501
0.0582951
0.000120896
0.0582804
0.000129614
0.0582648
0.000138633
0.000147924
0.0577457
7.27973e-05
0.0577358
7.94352e-05
0.0577251
8.64754e-05
0.0577137
9.38892e-05
0.0577014
0.000101681
0.0576883
0.00010986
0.0576743
0.000118424
0.0576595
0.000127363
0.0576437
0.000136656
0.0576271
0.00014628
0.0576095
0.000156206
0.000166397
0.0571177
8.33185e-05
0.0571064
9.07792e-05
0.0570942
9.86775e-05
0.0570811
0.000106978
0.0570671
0.000115684
0.0570521
0.000124801
0.0570362
0.000134326
0.0570194
0.00014424
0.0570015
0.000154519
0.0569826
0.000165132
0.0569628
0.000176042
0.000187203
0.0565011
9.54296e-05
0.0564881
0.000103818
0.0564741
0.00011268
0.0564591
0.000121974
0.0564431
0.000131698
0.056426
0.000141858
0.0564079
0.000152444
0.0563887
0.000163433
0.0563684
0.000174792
0.0563471
0.000186481
0.0563246
0.000198454
0.000210656
0.0558961
0.00010941
0.0558811
0.000118839
0.055865
0.000128781
0.0558478
0.000139183
0.0558295
0.000150042
0.05581
0.000161357
0.0557893
0.000173115
0.0557674
0.000185284
0.0557444
0.000197821
0.0557202
0.000210677
0.0556949
0.000223794
0.000237104
0.0553031
0.000125582
0.0552858
0.000136181
0.0552673
0.000147331
0.0552475
0.000158968
0.0552264
0.000171085
0.0552041
0.000183678
0.0551805
0.000196724
0.0551556
0.000210182
0.0551294
0.000223999
0.055102
0.000238113
0.0550733
0.000252453
0.000266937
0.0547223
0.000144302
0.0547023
0.000156223
0.0546809
0.000168726
0.0546581
0.000181739
0.0546339
0.000195251
0.0546084
0.00020925
0.0545814
0.000223706
0.054553
0.000238566
0.0545232
0.000253764
0.0544921
0.000269225
0.0544597
0.000284864
0.000300579
0.0541534
0.000166074
0.0541302
0.000179417
0.0541056
0.000193413
0.0540793
0.000207955
0.0540516
0.000223007
0.0540223
0.000238546
0.0539915
0.000254535
0.0539591
0.00027091
0.0539253
0.000287589
0.05389
0.000304482
0.0538534
0.000321484
0.000338478
0.0535963
0.000191293
0.0535694
0.000206327
0.0535408
0.000222026
0.0535105
0.000238249
0.0534785
0.000254961
0.0534449
0.000272153
0.0534097
0.000289779
0.0533728
0.000307761
0.0533344
0.000325999
0.0532945
0.000344385
0.0532532
0.000362799
0.000381101
0.0530501
0.000219893
0.0530192
0.000237232
0.0529861
0.000255073
0.0529511
0.000273226
0.0529143
0.00029178
0.0528757
0.000310788
0.0528353
0.00033019
0.0527932
0.000349878
0.0527494
0.000369743
0.0527041
0.000389669
0.0526574
0.00040952
0.000429136
0.0525122
0.000254703
0.0524752
0.000274243
0.0524366
0.000293644
0.0523963
0.000313501
0.0523541
0.000333986
0.0523099
0.000354974
0.0522638
0.000376293
0.0522159
0.000397821
0.0521662
0.00041945
0.0521148
0.000441051
0.0520619
0.000462453
0.000483458
0.0519967
0.000307693
0.0519468
0.000324188
0.0518965
0.000343881
0.0518447
0.000365356
0.0517913
0.000387341
0.0517368
0.000409554
0.051681
0.000432075
0.0516239
0.000454886
0.0515655
0.000477825
0.0515059
0.000500677
0.0514452
0.00052321
0.000545177
0.0160609
0.000277706
0.0160912
0.000293796
0.0161232
0.000311906
0.016157
0.000331548
0.0161929
0.000351442
0.016231
0.000371437
0.0162715
0.000391651
0.0163143
0.000412021
0.0163598
0.00043235
0.0164081
0.000452412
0.0164593
0.000471972
0.000490778
0.0164503
0.000252721
0.0164761
0.00026803
0.016503
0.000285035
0.0165315
0.000303003
0.0165619
0.000321001
0.0165944
0.000339026
0.0166288
0.000357169
0.0166655
0.000375317
0.0167046
0.000393251
0.0167463
0.000410745
0.0167907
0.00042756
0.0168305
0.000232471
0.0168513
0.000247191
0.0168733
0.00026305
0.0168968
0.000279513
0.0169219
0.000295856
0.0169488
0.000312145
0.0169775
0.000328438
0.0170083
0.000344582
0.0170412
0.000360348
0.0170764
0.000375504
0.00038981
0.0171982
0.000216933
0.0172143
0.000231094
0.0172315
0.000245869
0.01725
0.00026098
0.01727
0.000275878
0.0172915
0.000290638
0.0173146
0.000305281
0.0173396
0.000319628
0.0173665
0.000333439
0.0173955
0.000346479
0.0175533
0.000205982
0.0175648
0.000219567
0.0175773
0.000233386
0.017591
0.000247321
0.0176059
0.000260959
0.0176221
0.000274378
0.0176399
0.000287556
0.0176592
0.000300295
0.0176803
0.00031235
0.000323481
0.0178957
0.000199527
0.0179027
0.000212554
0.0179105
0.000225539
0.0179194
0.000238463
0.0179294
0.000251009
0.0179405
0.000263249
0.0179529
0.00027513
0.0179668
0.000286438
0.0179822
0.00029692
0.018225
0.000197476
0.0182276
0.000209992
0.0182309
0.00022226
0.018235
0.00023433
0.0182401
0.000245935
0.0182462
0.000257147
0.0182534
0.000267888
0.0182619
0.000277926
0.018541
0.000199724
0.0185392
0.000211802
0.018538
0.000223473
0.0185375
0.000234837
0.0185378
0.000245648
0.0185389
0.000255976
0.0185411
0.000265723
0.000274644
0.0188435
0.0188374
0.0188317
0.0188267
0.0188223
0.0188186
0.0188158
)
;

boundaryField
{
    inlet
    {
        type            calculated;
        value           nonuniform 0();
    }
    outlet
    {
        type            calculated;
        value           nonuniform 0();
    }
    cylinder
    {
        type            calculated;
        value           nonuniform 0();
    }
    top
    {
        type            symmetryPlane;
        value           nonuniform 0();
    }
    bottom
    {
        type            symmetryPlane;
        value           nonuniform 0();
    }
    defaultFaces
    {
        type            empty;
        value           nonuniform 0();
    }
    procBoundary21to13
    {
        type            processor;
        value           nonuniform List<scalar> 
20
(
0.011247
0.0116147
0.0119745
0.0123262
0.0126691
-0.0593571
0.0110564
-5.1194e-05
-5.56912e-05
-6.04413e-05
-6.54445e-05
-7.06989e-05
-7.62003e-05
-8.19419e-05
-3.70812e-05
-4.08e-05
-4.47737e-05
-4.89934e-05
-0.0610256
-5.3467e-05
)
;
    }
    procBoundary21to14
    {
        type            processor;
        value           nonuniform List<scalar> 
11
(
0.0609651
0.0602725
0.059589
0.0589143
0.0582484
0.057591
0.056942
0.0563012
0.0556684
0.0550435
0.0544261
)
;
    }
    procBoundary21to20
    {
        type            processor;
        value           nonuniform List<scalar> 
24
(
-0.0134624
-0.0594923
-0.0139185
-0.0131768
-0.0135743
-0.0139616
-0.0533891
-0.013127
-0.0134663
-0.0137964
-0.0585138
-0.057866
-0.0572288
-0.0566026
-0.0559875
-0.0553839
-0.0547922
-0.0542127
-0.0536461
-0.053093
-0.0525538
-0.0520277
-0.0515145
-0.0510248
)
;
    }
    procBoundary21to22
    {
        type            processor;
        value           nonuniform List<scalar> 
19
(
0.0538155
0.0532106
0.0526094
0.0520076
0.0513834
0.0165137
0.0168381
0.000443437
0.0171142
0.0174268
0.000358502
0.0177033
0.0179993
0.00030633
0.0182718
0.000287004
0.0185444
0.0188139
0.000276482
)
;
    }
    procBoundary21to29
    {
        type            processor;
        value           nonuniform List<scalar> 
16
(
-0.0141171
-0.0144284
-0.01473
0.0456597
-0.0164142
-0.0167213
-0.0170165
0.0430547
-0.0188499
0.000206175
0.000217906
0.000229102
0.000239903
0.000250062
0.000259642
0.000268535
)
;
    }
}


// ************************************************************************* //
