0.05 	0.0003125 	0.005 	-0.00220302 	3.497e-07 	0
0.05 	0.0009375 	0.005 	-0.0064792 	2.38706e-06 	0
0.05 	0.0015625 	0.005 	-0.0106334 	6.85768e-06 	0
0.05 	0.0021875 	0.005 	-0.0146727 	1.3362e-05 	0
0.05 	0.0028125 	0.005 	-0.0186036 	2.16883e-05 	0
0.05 	0.0034375 	0.005 	-0.0224324 	3.17287e-05 	0
0.05 	0.0040625 	0.005 	-0.0261649 	4.33773e-05 	0
0.05 	0.0046875 	0.005 	-0.0298069 	5.65356e-05 	0
0.05 	0.0053125 	0.005 	-0.0333638 	7.11188e-05 	0
0.05 	0.0059375 	0.005 	-0.0368407 	8.70557e-05 	0
0.05 	0.0065625 	0.005 	-0.0402426 	0.000104287 	0
0.05 	0.0071875 	0.005 	-0.0435741 	0.000122765 	0
0.05 	0.0078125 	0.005 	-0.0468397 	0.000142453 	0
0.05 	0.0084375 	0.005 	-0.0500436 	0.000163327 	0
0.05 	0.0090625 	0.005 	-0.0531899 	0.000185371 	0
0.05 	0.0096875 	0.005 	-0.0562824 	0.000208582 	0
0.05 	0.0103125 	0.005 	-0.0593248 	0.000232965 	0
0.05 	0.0109375 	0.005 	-0.0623204 	0.000258534 	0
0.05 	0.0115625 	0.005 	-0.0652726 	0.000285316 	0
0.05 	0.0121875 	0.005 	-0.0681845 	0.000313343 	0
0.05 	0.0128125 	0.005 	-0.0710591 	0.000342658 	0
0.05 	0.0134375 	0.005 	-0.073899 	0.000373313 	0
0.05 	0.0140625 	0.005 	-0.0767071 	0.000405366 	0
0.05 	0.0146875 	0.005 	-0.0794856 	0.000438886 	0
0.05 	0.0153125 	0.005 	-0.082237 	0.000473949 	0
0.05 	0.0159375 	0.005 	-0.0849635 	0.000510638 	0
0.05 	0.0165625 	0.005 	-0.0876671 	0.000549045 	0
0.05 	0.0171875 	0.005 	-0.0903497 	0.000589268 	0
0.05 	0.0178125 	0.005 	-0.0930131 	0.000631413 	0
0.05 	0.0184375 	0.005 	-0.095659 	0.000675594 	0
0.05 	0.0190625 	0.005 	-0.098289 	0.000721929 	0
0.05 	0.0196875 	0.005 	-0.100904 	0.000770547 	0
0.05 	0.0203125 	0.005 	-0.103506 	0.000821579 	0
0.05 	0.0209375 	0.005 	-0.106096 	0.000875166 	0
0.05 	0.0215625 	0.005 	-0.108675 	0.000931453 	0
0.05 	0.0221875 	0.005 	-0.111243 	0.000990592 	0
0.05 	0.0228125 	0.005 	-0.113802 	0.00105274 	0
0.05 	0.0234375 	0.005 	-0.116353 	0.00111806 	0
0.05 	0.0240625 	0.005 	-0.118895 	0.00118672 	0
0.05 	0.0246875 	0.005 	-0.121429 	0.00125888 	0
0.05 	0.0253125 	0.005 	-0.123956 	0.00133474 	0
0.05 	0.0259375 	0.005 	-0.126476 	0.00141447 	0
0.05 	0.0265625 	0.005 	-0.128988 	0.00149826 	0
0.05 	0.0271875 	0.005 	-0.131493 	0.00158629 	0
0.05 	0.0278125 	0.005 	-0.133991 	0.00167875 	0
0.05 	0.0284375 	0.005 	-0.136481 	0.00177585 	0
0.05 	0.0290625 	0.005 	-0.138962 	0.00187778 	0
0.05 	0.0296875 	0.005 	-0.141435 	0.00198474 	0
0.05 	0.0303125 	0.005 	-0.143898 	0.00209693 	0
0.05 	0.0309375 	0.005 	-0.146351 	0.00221454 	0
0.05 	0.0315625 	0.005 	-0.148793 	0.00233779 	0
0.05 	0.0321875 	0.005 	-0.151222 	0.00246687 	0
0.05 	0.0328125 	0.005 	-0.153638 	0.00260197 	0
0.05 	0.0334375 	0.005 	-0.156038 	0.00274331 	0
0.05 	0.0340625 	0.005 	-0.158422 	0.00289106 	0
0.05 	0.0346875 	0.005 	-0.160788 	0.00304543 	0
0.05 	0.0353125 	0.005 	-0.163133 	0.00320659 	0
0.05 	0.0359375 	0.005 	-0.165455 	0.00337474 	0
0.05 	0.0365625 	0.005 	-0.167754 	0.00355003 	0
0.05 	0.0371875 	0.005 	-0.170025 	0.00373264 	0
0.05 	0.0378125 	0.005 	-0.172267 	0.00392273 	0
0.05 	0.0384375 	0.005 	-0.174477 	0.00412044 	0
0.05 	0.0390625 	0.005 	-0.176652 	0.00432591 	0
0.05 	0.0396875 	0.005 	-0.178789 	0.00453927 	0
0.05 	0.0403125 	0.005 	-0.180885 	0.00476061 	0
0.05 	0.0409375 	0.005 	-0.182935 	0.00499005 	0
0.05 	0.0415625 	0.005 	-0.184938 	0.00522765 	0
0.05 	0.0421875 	0.005 	-0.186888 	0.00547348 	0
0.05 	0.0428125 	0.005 	-0.188781 	0.00572758 	0
0.05 	0.0434375 	0.005 	-0.190614 	0.00598996 	0
0.05 	0.0440625 	0.005 	-0.192382 	0.00626063 	0
0.05 	0.0446875 	0.005 	-0.19408 	0.00653955 	0
0.05 	0.0453125 	0.005 	-0.195704 	0.00682667 	0
0.05 	0.0459375 	0.005 	-0.197247 	0.0071219 	0
0.05 	0.0465625 	0.005 	-0.198705 	0.00742514 	0
0.05 	0.0471875 	0.005 	-0.200072 	0.00773622 	0
0.05 	0.0478125 	0.005 	-0.201342 	0.00805499 	0
0.05 	0.0484375 	0.005 	-0.202509 	0.00838121 	0
0.05 	0.0490625 	0.005 	-0.203567 	0.00871465 	0
0.05 	0.0496875 	0.005 	-0.204509 	0.00905499 	0
0.05 	0.0503125 	0.005 	-0.205328 	0.00940192 	0
0.05 	0.0509375 	0.005 	-0.206017 	0.00975505 	0
0.05 	0.0515625 	0.005 	-0.206568 	0.010114 	0
0.05 	0.0521875 	0.005 	-0.206975 	0.0104782 	0
0.05 	0.0528125 	0.005 	-0.207228 	0.0108472 	0
0.05 	0.0534375 	0.005 	-0.207319 	0.0112204 	0
0.05 	0.0540625 	0.005 	-0.207241 	0.0115973 	0
0.05 	0.0546875 	0.005 	-0.206985 	0.0119771 	0
0.05 	0.0553125 	0.005 	-0.20654 	0.0123591 	0
0.05 	0.0559375 	0.005 	-0.205898 	0.0127426 	0
0.05 	0.0565625 	0.005 	-0.20505 	0.0131266 	0
0.05 	0.0571875 	0.005 	-0.203985 	0.0135104 	0
0.05 	0.0578125 	0.005 	-0.202693 	0.013893 	0
0.05 	0.0584375 	0.005 	-0.201164 	0.0142733 	0
0.05 	0.0590625 	0.005 	-0.199387 	0.0146503 	0
0.05 	0.0596875 	0.005 	-0.197351 	0.015023 	0
0.05 	0.0603125 	0.005 	-0.195044 	0.0153901 	0
0.05 	0.0609375 	0.005 	-0.192455 	0.0157504 	0
0.05 	0.0615625 	0.005 	-0.189573 	0.0161027 	0
0.05 	0.0621875 	0.005 	-0.186385 	0.0164457 	0
0.05 	0.0628125 	0.005 	-0.182879 	0.0167779 	0
0.05 	0.0634375 	0.005 	-0.179043 	0.0170981 	0
0.05 	0.0640625 	0.005 	-0.174863 	0.0174047 	0
0.05 	0.0646875 	0.005 	-0.170327 	0.0176964 	0
0.05 	0.0653125 	0.005 	-0.165422 	0.0179715 	0
0.05 	0.0659375 	0.005 	-0.160133 	0.0182286 	0
0.05 	0.0665625 	0.005 	-0.154449 	0.0184663 	0
0.05 	0.0671875 	0.005 	-0.148355 	0.0186828 	0
0.05 	0.0678125 	0.005 	-0.141837 	0.0188768 	0
0.05 	0.0684375 	0.005 	-0.134881 	0.0190467 	0
0.05 	0.0690625 	0.005 	-0.127474 	0.0191909 	0
0.05 	0.0696875 	0.005 	-0.119602 	0.0193081 	0
0.05 	0.0703125 	0.005 	-0.11125 	0.0193968 	0
0.05 	0.0709375 	0.005 	-0.102405 	0.0194556 	0
0.05 	0.0715625 	0.005 	-0.0930521 	0.0194833 	0
0.05 	0.0721875 	0.005 	-0.0831777 	0.0194785 	0
0.05 	0.0728125 	0.005 	-0.072768 	0.0194401 	0
0.05 	0.0734375 	0.005 	-0.0618092 	0.0193671 	0
0.05 	0.0740625 	0.005 	-0.0502878 	0.0192587 	0
0.05 	0.0746875 	0.005 	-0.0381906 	0.0191139 	0
0.05 	0.0753125 	0.005 	-0.0255045 	0.0189322 	0
0.05 	0.0759375 	0.005 	-0.0122169 	0.0187132 	0
0.05 	0.0765625 	0.005 	0.0016848 	0.0184564 	0
0.05 	0.0771875 	0.005 	0.0162123 	0.0181618 	0
0.05 	0.0778125 	0.005 	0.0313772 	0.0178296 	0
0.05 	0.0784375 	0.005 	0.0471903 	0.01746 	0
0.05 	0.0790625 	0.005 	0.063662 	0.0170536 	0
0.05 	0.0796875 	0.005 	0.080802 	0.0166113 	0
0.05 	0.0803125 	0.005 	0.0986192 	0.016134 	0
0.05 	0.0809375 	0.005 	0.117122 	0.0156231 	0
0.05 	0.0815625 	0.005 	0.136317 	0.0150803 	0
0.05 	0.0821875 	0.005 	0.156212 	0.0145073 	0
0.05 	0.0828125 	0.005 	0.176811 	0.0139063 	0
0.05 	0.0834375 	0.005 	0.198119 	0.0132798 	0
0.05 	0.0840625 	0.005 	0.22014 	0.0126305 	0
0.05 	0.0846875 	0.005 	0.242874 	0.0119614 	0
0.05 	0.0853125 	0.005 	0.266324 	0.0112756 	0
0.05 	0.0859375 	0.005 	0.290489 	0.0105767 	0
0.05 	0.0865625 	0.005 	0.315366 	0.00986841 	0
0.05 	0.0871875 	0.005 	0.340952 	0.00915467 	0
0.05 	0.0878125 	0.005 	0.367243 	0.0084396 	0
0.05 	0.0884375 	0.005 	0.394232 	0.00772748 	0
0.05 	0.0890625 	0.005 	0.421911 	0.00702271 	0
0.05 	0.0896875 	0.005 	0.450269 	0.00632977 	0
0.05 	0.0903125 	0.005 	0.479296 	0.0056532 	0
0.05 	0.0909375 	0.005 	0.508978 	0.00499751 	0
0.05 	0.0915625 	0.005 	0.539301 	0.00436716 	0
0.05 	0.0921875 	0.005 	0.570246 	0.00376651 	0
0.05 	0.0928125 	0.005 	0.601796 	0.0031997 	0
0.05 	0.0934375 	0.005 	0.63393 	0.00267067 	0
0.05 	0.0940625 	0.005 	0.666626 	0.00218302 	0
0.05 	0.0946875 	0.005 	0.699859 	0.00173997 	0
0.05 	0.0953125 	0.005 	0.733604 	0.00134429 	0
0.05 	0.0959375 	0.005 	0.767833 	0.000998185 	0
0.05 	0.0965625 	0.005 	0.802517 	0.000703277 	0
0.05 	0.0971875 	0.005 	0.837626 	0.000460492 	0
0.05 	0.0978125 	0.005 	0.873126 	0.000269876 	0
0.05 	0.0984375 	0.005 	0.908986 	0.000130383 	0
0.05 	0.0990625 	0.005 	0.945169 	4.15119e-05 	0
0.05 	0.0996875 	0.005 	0.981641 	4.90301e-06 	0
