/*--------------------------------*- C++ -*----------------------------------*\
  =========                 |
  \\      /  F ield         | OpenFOAM: The Open Source CFD Toolbox
   \\    /   O peration     | Website:  https://openfoam.org
    \\  /    A nd           | Version:  7
     \\/     M anipulation  |
\*---------------------------------------------------------------------------*/
FoamFile
{
    version     2.0;
    format      ascii;
    class       volVectorField;
    location    "20";
    object      U;
}
// * * * * * * * * * * * * * * * * * * * * * * * * * * * * * * * * * * * * * //

dimensions      [0 1 -1 0 0 0 0];

internalField   nonuniform List<vector> 
2413
(
(2 2.0521e-15 0)
(2 2.21014e-15 0)
(2 2.15466e-15 0)
(2 1.96908e-15 0)
(2 1.68455e-15 0)
(2 1.4374e-15 0)
(2 1.25246e-15 0)
(2 1.18283e-15 0)
(2 1.07298e-15 0)
(2 1.22322e-15 0)
(2 1.47273e-15 0)
(2 1.43793e-15 0)
(2 1.37086e-15 0)
(2 1.30133e-15 0)
(2 1.10683e-15 0)
(2 9.96694e-16 0)
(2 1.03634e-15 0)
(2 1.28457e-15 0)
(2 1.39006e-15 0)
(2 1.5166e-15 0)
(2 1.58159e-15 0)
(2 1.61455e-15 0)
(2 1.64828e-15 0)
(2 1.56203e-15 0)
(2 1.55443e-15 0)
(2 1.7446e-15 0)
(2 1.68901e-15 0)
(2 1.60937e-15 0)
(2 1.54034e-15 0)
(2 1.41843e-15 0)
(2 1.28832e-15 0)
(2 9.36671e-16 0)
(2 7.69135e-16 0)
(2 3.16667e-16 0)
(2 3.78542e-16 0)
(2 5.62479e-16 0)
(2 7.19801e-16 0)
(2 8.83679e-16 0)
(2 7.85171e-16 0)
(2 6.93545e-16 0)
(2 7.33129e-16 0)
(2 8.20104e-16 0)
(2 8.44803e-16 0)
(2 1.07665e-15 0)
(2 1.0616e-15 0)
(2 1.09786e-15 0)
(2 1.52347e-15 0)
(2 1.79477e-15 0)
(2 1.93351e-15 0)
(2 2.61141e-15 0)
(2 3.08224e-15 0)
(2 3.42591e-15 0)
(2 4.07761e-15 0)
(2 4.56058e-15 0)
(2 4.66002e-15 0)
(2 4.79258e-15 0)
(2 4.76648e-15 0)
(2 4.8019e-15 0)
(2 4.38068e-15 0)
(2 4.12753e-15 0)
(2 3.88919e-15 0)
(2 3.53528e-15 0)
(2 3.31996e-15 0)
(2 3.43752e-15 0)
(2 3.58505e-15 0)
(2 3.62874e-15 0)
(2 3.54999e-15 0)
(2 3.47751e-15 0)
(2 3.23925e-15 0)
(2 2.8988e-15 0)
(2 2.88186e-15 0)
(2 2.40394e-15 0)
(2 2.26585e-15 0)
(2 2.14845e-15 0)
(2 2.03162e-15 0)
(2 1.91303e-15 0)
(2 1.78078e-15 0)
(2 1.68414e-15 0)
(2 1.6299e-15 0)
(2 1.65284e-15 0)
(2 1.59046e-15 0)
(2 1.53126e-15 0)
(2 1.56749e-15 0)
(2 1.88128e-15 0)
(2 2.09552e-15 0)
(2 2.35258e-15 0)
(2 2.64838e-15 0)
(2 2.86675e-15 0)
(2 3.00281e-15 0)
(2 2.9872e-15 0)
(2 3.04399e-15 0)
(2 8.95087e-16 0)
(2 8.87859e-16 0)
(2 7.98638e-16 0)
(2 4.93054e-16 0)
(2 4.13155e-16 0)
(2 5.74215e-16 0)
(2 1.26773e-15 0)
(2 1.30709e-15 0)
(2 1.23013e-15 0)
(2 1.14924e-15 0)
(2 1.2654e-15 0)
(2 1.47083e-15 0)
(2 1.58765e-15 0)
(2 1.602e-15 0)
(2 1.81064e-15 0)
(2 2.0588e-15 0)
(2 2.07867e-15 0)
(2 2.12502e-15 0)
(2 2.06362e-15 0)
(2 1.97822e-15 0)
(2 1.73911e-15 0)
(2 1.50311e-15 0)
(2 1.33463e-15 0)
(2 1.24386e-15 0)
(2 1.26634e-15 0)
(2 1.52298e-15 0)
(2 1.68909e-15 0)
(2 1.70434e-15 0)
(2 1.5935e-15 0)
(2 1.50422e-15 0)
(2 1.42431e-15 0)
(2 1.28426e-15 0)
(2 1.38953e-15 0)
(2 1.33315e-15 0)
(2 1.26218e-15 0)
(2 1.19348e-15 0)
(2 1.13988e-15 0)
(2 1.15521e-15 0)
(2 1.18338e-15 0)
(2 1.16849e-15 0)
(2 1.07414e-15 0)
(2 4.48323e-16 0)
(2 2.71732e-16 0)
(2 1.68093e-16 0)
(2 1.20461e-16 0)
(2 7.98449e-17 0)
(2 -1.65198e-16 0)
(2 -2.58119e-16 0)
(2 -2.05521e-17 0)
(2 4.87562e-17 0)
(2 -1.46531e-17 0)
(2 6.59055e-18 0)
(2 5.97358e-17 0)
(2 1.33246e-16 0)
(2 3.42208e-16 0)
(2 1.63349e-16 0)
(2 -1.7054e-16 0)
(2 -2.85163e-16 0)
(2 -4.532e-16 0)
(2 -7.10658e-16 0)
(2 -9.12636e-16 0)
(2 -1.40841e-15 0)
(2 -2.13277e-15 0)
(2 -2.33109e-15 0)
(2 -2.23649e-15 0)
(2 -2.16134e-15 0)
(2 -1.89553e-15 0)
(2 -6.96769e-16 0)
(2 -1.68182e-16 0)
(2 -1.92208e-16 0)
(2 -1.9226e-16 0)
(2 -1.08301e-16 0)
(2 2.79404e-16 0)
(2 4.74204e-16 0)
(2 4.77822e-16 0)
(2 5.4674e-16 0)
(2 8.18461e-16 0)
(2 1.52202e-15 0)
(2 2.16493e-15 0)
(2 2.71759e-15 0)
(2 3.04736e-15 0)
(2 3.37533e-15 0)
(2 3.7431e-15 0)
(2 3.96558e-15 0)
(2 4.03897e-15 0)
(2 3.85742e-15 0)
(2 3.6261e-15 0)
(2 2.93352e-15 0)
(2 2.62749e-15 0)
(2 2.41916e-15 0)
(2 2.05822e-15 0)
(2 1.88356e-15 0)
(2 1.71887e-15 0)
(2 1.56703e-15 0)
(2 1.32593e-15 0)
(2 1.23323e-15 0)
(2 1.14876e-15 0)
(2 1.12482e-15 0)
(2 1.10495e-15 0)
(2 1.022e-15 0)
(2 1.02932e-15 0)
(2 1.06088e-15 0)
(2 1.10712e-15 0)
(2 1.07959e-15 0)
(2 1.04125e-15 0)
(2 1.13747e-15 0)
(2 1.21015e-15 0)
(2 1.30651e-15 0)
(2 1.38527e-15 0)
(2 1.39283e-15 0)
(2 1.44268e-15 0)
(2 1.49035e-15 0)
(2 1.434e-15 0)
(2 1.33335e-15 0)
(2 9.66441e-16 0)
(2 7.44515e-16 0)
(2 6.31811e-16 0)
(2 6.17486e-16 0)
(2 7.22202e-16 0)
(2 7.29353e-16 0)
(2 8.31146e-16 0)
(2 8.76423e-16 0)
(2 8.51023e-16 0)
(2 7.21323e-16 0)
(2 4.91434e-16 0)
(2 5.43148e-16 0)
(2 1.20761e-15 0)
(2 1.00012e-15 0)
(2 3.5287e-16 0)
(2 2.36816e-16 0)
(2 2.45806e-16 0)
(2 3.65137e-16 0)
(2 3.7397e-16 0)
(2 8.81456e-16 0)
(2 1.25965e-15 0)
(2 1.57035e-15 0)
(2 1.76641e-15 0)
(2 2.00919e-15 0)
(2 2.18007e-15 0)
(2 2.10981e-15 0)
(2 1.66857e-15 0)
(2 7.60983e-16 0)
(2 4.17529e-16 0)
(2 1.82739e-16 0)
(2 8.13091e-17 0)
(2 3.29992e-17 0)
(2 -8.49701e-17 0)
(2 -3.37395e-16 0)
(2 -1.56318e-16 0)
(2 4.51897e-17 0)
(2 3.09157e-16 0)
(2 3.26524e-16 0)
(2 4.47627e-16 0)
(2 6.42249e-16 0)
(2 3.81482e-16 0)
(2 8.12704e-17 0)
(2 -3.69948e-16 0)
(2 -7.9005e-16 0)
(2 -9.66384e-16 0)
(2 -1.08141e-15 0)
(2 -1.21869e-15 0)
(2 -1.2812e-15 0)
(2 -1.12905e-15 0)
(2 -6.92882e-16 0)
(2 -5.11344e-16 0)
(2 -5.11477e-16 0)
(2 -6.31998e-16 0)
(2 -8.76915e-16 0)
(2 -9.53728e-16 0)
(2 -9.20409e-16 0)
(2 -9.66839e-16 0)
(2 -1.07909e-15 0)
(2 -1.06708e-15 0)
(2 -9.80099e-16 0)
(2 -8.61245e-16 0)
(2 -6.68912e-16 0)
(2 -6.25812e-16 0)
(2 -6.54685e-16 0)
(2 -7.42113e-16 0)
(2 -9.51693e-16 0)
(2 -1.00549e-15 0)
(2 -1.10979e-15 0)
(2 -1.14659e-15 0)
(2 -1.20805e-15 0)
(2 -1.24e-15 0)
(2 -1.23562e-15 0)
(2 -1.2357e-15 0)
(2 -9.55868e-16 0)
(2 -6.37948e-16 0)
(2 -5.0541e-16 0)
(2 -2.48477e-16 0)
(2 1.36192e-16 0)
(2 2.4013e-16 0)
(2 3.97915e-16 0)
(2 3.7842e-16 0)
(2 1.34305e-16 0)
(2 -1.25274e-16 0)
(2 -1.39766e-16 0)
(2 2.96921e-16 0)
(2 9.32308e-16 0)
(2 1.23415e-15 0)
(2 1.36209e-15 0)
(2 1.43605e-15 0)
(2 1.58009e-15 0)
(2 1.85323e-15 0)
(2 1.88974e-15 0)
(2 1.94903e-15 0)
(2 1.78322e-15 0)
(2 1.50651e-15 0)
(2 1.181e-15 0)
(2 9.74011e-16 0)
(2 6.36796e-16 0)
(2 1.20311e-16 0)
(2 -3.12778e-16 0)
(2 -5.09029e-16 0)
(2 -5.87e-16 0)
(2 -5.39893e-16 0)
(2 -3.92054e-16 0)
(2 -2.68488e-16 0)
(2 -1.3105e-16 0)
(2 2.16266e-16 0)
(2 3.4086e-16 0)
(2 7.71361e-16 0)
(2 9.85881e-16 0)
(2 1.16777e-15 0)
(2 1.2266e-15 0)
(2 1.15595e-15 0)
(2 9.58865e-16 0)
(2 8.41837e-16 0)
(2 6.56949e-16 0)
(2 4.50774e-16 0)
(2 1.74623e-16 0)
(2 -2.08234e-16 0)
(2 -4.69574e-16 0)
(2 -9.22569e-16 0)
(2 -1.28554e-15 0)
(2 -1.27434e-15 0)
(2 -1.19087e-15 0)
(2 -1.05365e-15 0)
(2 -7.91827e-16 0)
(2 7.51224e-16 0)
(2 5.7963e-16 0)
(2 4.82101e-16 0)
(2 7.37207e-16 0)
(2 7.74946e-16 0)
(2 9.00734e-16 0)
(2 1.2614e-15 0)
(2 1.19646e-15 0)
(2 9.94195e-16 0)
(2 5.80867e-16 0)
(2 4.736e-16 0)
(2 4.72849e-16 0)
(2 6.72061e-16 0)
(2 7.28652e-16 0)
(2 1.06576e-15 0)
(2 9.46908e-16 0)
(2 7.28877e-16 0)
(2 5.86753e-16 0)
(2 6.65039e-16 0)
(2 7.07797e-16 0)
(2 7.20359e-16 0)
(2 7.52743e-16 0)
(2 7.68596e-16 0)
(2 7.31292e-16 0)
(2 6.81209e-16 0)
(2 6.64247e-16 0)
(2 7.06547e-16 0)
(2 1.05525e-15 0)
(2 1.35059e-15 0)
(2 1.72546e-15 0)
(2 2.01555e-15 0)
(2 2.052e-15 0)
(2 1.71215e-15 0)
(2 1.2973e-15 0)
(2 9.70842e-16 0)
(2 1.51278e-16 0)
(2 -2.76002e-16 0)
(2 -4.9242e-16 0)
(2 -5.65827e-16 0)
(2 -6.26559e-16 0)
(2 -5.60002e-16 0)
(2 -3.84477e-16 0)
(2 -7.36486e-17 0)
(2 2.94357e-17 0)
(2 -1.44078e-16 0)
(2 -2.5355e-16 0)
(2 -3.27131e-16 0)
(2 -3.8252e-16 0)
(2 -4.85471e-16 0)
(2 -5.8068e-16 0)
(2 -5.99289e-16 0)
(2 -4.55185e-16 0)
(2 -3.17118e-16 0)
(2 -4.09577e-16 0)
(2 -5.68853e-16 0)
(2 -3.91534e-16 0)
(2 -5.63362e-17 0)
(2 8.83861e-17 0)
(2 1.94892e-16 0)
(2 2.40885e-16 0)
(2 5.23738e-16 0)
(2 1.23607e-15 0)
(2 1.38836e-15 0)
(2 1.18629e-15 0)
(2 8.04158e-16 0)
(2 6.66579e-16 0)
(2 4.57141e-16 0)
(2 1.63386e-16 0)
(2 1.64979e-16 0)
(2 2.23475e-16 0)
(2 1.91304e-16 0)
(2 9.11101e-16 0)
(2 1.1152e-15 0)
(2 1.82134e-15 0)
(2 2.09462e-15 0)
(2 2.13464e-15 0)
(2 2.05026e-15 0)
(2 1.79868e-15 0)
(2 1.52078e-15 0)
(2 1.19776e-15 0)
(2 1.17021e-15 0)
(2 1.16064e-15 0)
(2 1.04139e-15 0)
(2 1.0104e-15 0)
(2 1.06628e-15 0)
(2 1.20963e-15 0)
(2 1.58449e-15 0)
(2 1.95611e-15 0)
(2 2.1462e-15 0)
(2 2.25972e-15 0)
(2 2.02657e-15 0)
(2 1.84999e-15 0)
(2 1.83536e-15 0)
(2 1.86481e-15 0)
(2 1.56398e-15 0)
(2 1.11717e-15 0)
(2 9.99341e-16 0)
(2 8.11108e-16 0)
(2 7.42321e-16 0)
(2 7.65494e-16 0)
(2 8.74553e-16 0)
(2 9.0923e-16 0)
(2 1.04031e-15 0)
(2 9.86247e-16 0)
(2 8.93469e-16 0)
(2 6.36457e-16 0)
(2 3.7569e-16 0)
(2 2.09198e-17 0)
(2 -1.76538e-16 0)
(2 -8.99679e-16 0)
(2 -1.59566e-15 0)
(2 -1.81874e-15 0)
(2 -1.96742e-15 0)
(2 -1.87296e-15 0)
(2 -1.72777e-15 0)
(2 -1.56354e-15 0)
(2 -1.58566e-15 0)
(2 -1.41504e-15 0)
(2 -1.4399e-15 0)
(2 -1.51739e-15 0)
(2 1.55095e-15 0)
(2 1.32164e-15 0)
(2 1.10201e-15 0)
(2 9.39888e-16 0)
(2 1.16546e-15 0)
(2 1.55535e-15 0)
(2 1.72533e-15 0)
(2 1.19112e-15 0)
(2 1.0746e-15 0)
(2 1.17541e-15 0)
(2 1.42316e-15 0)
(2 1.63247e-15 0)
(2 1.84119e-15 0)
(2 1.7286e-15 0)
(2 1.53465e-15 0)
(2 7.43883e-16 0)
(2 2.28894e-16 0)
(2 5.2208e-17 0)
(2 -6.01287e-17 0)
(2 4.86143e-17 0)
(2 3.66294e-16 0)
(2 8.74965e-16 0)
(2 1.56401e-15 0)
(2 1.7475e-15 0)
(2 1.61535e-15 0)
(2 2.22712e-15 0)
(2 2.7457e-15 0)
(2 2.95114e-15 0)
(2 2.82307e-15 0)
(2 2.77348e-15 0)
(2 2.58417e-15 0)
(2 2.56218e-15 0)
(2 2.49368e-15 0)
(2 2.15287e-15 0)
(2 1.95242e-15 0)
(2 1.64086e-15 0)
(2 1.44196e-15 0)
(2 1.28906e-15 0)
(2 9.91452e-16 0)
(2 8.66023e-16 0)
(2 8.68109e-16 0)
(2 1.08797e-15 0)
(2 1.24369e-15 0)
(2 1.35758e-15 0)
(2 7.94014e-16 0)
(2 4.33566e-16 0)
(2 3.57933e-16 0)
(2 3.10408e-16 0)
(2 1.69963e-16 0)
(2 -1.23238e-16 0)
(2 -1.25096e-16 0)
(2 -1.30337e-16 0)
(2 -1.5463e-16 0)
(2 -2.58734e-16 0)
(2 -3.28179e-16 0)
(2 -2.60973e-16 0)
(2 -1.59705e-16 0)
(2 -3.85592e-17 0)
(2 1.34595e-16 0)
(2 2.22017e-16 0)
(2 3.31817e-16 0)
(2 4.59113e-16 0)
(2 4.85211e-16 0)
(2 5.5489e-16 0)
(2 4.78181e-16 0)
(2 4.04058e-16 0)
(2 3.45352e-16 0)
(2 1.50704e-16 0)
(2 9.14677e-18 0)
(2 -1.09714e-17 0)
(2 4.09458e-17 0)
(2 2.33837e-16 0)
(2 4.25114e-16 0)
(2 6.54772e-16 0)
(2 1.54486e-15 0)
(2 2.07609e-15 0)
(2 2.35074e-15 0)
(2 2.73935e-15 0)
(2 2.91598e-15 0)
(2 2.50611e-15 0)
(2 2.32447e-15 0)
(2 2.19575e-15 0)
(2 2.12318e-15 0)
(2 2.09331e-15 0)
(2 2.19394e-15 0)
(2 2.3199e-15 0)
(2 2.28713e-15 0)
(2 2.12543e-15 0)
(2 2.2064e-15 0)
(2 2.43833e-15 0)
(2 2.69688e-15 0)
(2 2.95957e-15 0)
(2 2.98317e-15 0)
(2 2.66643e-15 0)
(2 2.53519e-15 0)
(2 2.3485e-15 0)
(2 2.12676e-15 0)
(2 1.95288e-15 0)
(2 1.61213e-15 0)
(2 1.57016e-15 0)
(2 1.27352e-15 0)
(2 1.13425e-15 0)
(2 9.96312e-16 0)
(2 6.32503e-16 0)
(2 4.96754e-16 0)
(2 3.42954e-16 0)
(2 2.10365e-16 0)
(2 3.75229e-18 0)
(2 -5.17149e-17 0)
(2 4.02892e-16 0)
(2 5.07095e-16 0)
(2 6.71653e-16 0)
(2 7.32964e-16 0)
(2 7.78834e-16 0)
(2 8.82957e-16 0)
(2 9.69172e-16 0)
(2 9.38356e-16 0)
(2 7.84948e-16 0)
(2 4.70947e-16 0)
(2 2.84374e-16 0)
(2 1.71533e-17 0)
(2 -2.30257e-16 0)
(2 -2.81663e-16 0)
(2 -4.77026e-16 0)
(2 -3.93524e-16 0)
(2 -7.15215e-16 0)
(2 -8.35226e-16 0)
(2 -8.26315e-16 0)
(2 -7.97224e-16 0)
(2 -5.57877e-16 0)
(2 -5.94445e-16 0)
(2 -6.15609e-16 0)
(2 -6.25532e-16 0)
(2 -8.66165e-16 0)
(2 -1.1947e-15 0)
(2 -1.38529e-15 0)
(2 -1.37797e-15 0)
(2 -1.29016e-15 0)
(2 -1.27762e-15 0)
(2 -1.38491e-15 0)
(2 -1.55214e-15 0)
(2 -1.74414e-15 0)
(2 -1.61509e-15 0)
(2 -1.43665e-15 0)
(2 -1.22173e-15 0)
(2 -7.19843e-16 0)
(2 -6.8599e-16 0)
(2 -8.60911e-16 0)
(2 -9.14113e-16 0)
(2 -3.49237e-17 0)
(2 2.90957e-16 0)
(2 7.11318e-16 0)
(2 8.91867e-16 0)
(2 1.3288e-15 0)
(2 1.59105e-15 0)
(2 1.66686e-15 0)
(2 1.52385e-15 0)
(2 1.26472e-15 0)
(2 9.68815e-16 0)
(2 7.05058e-16 0)
(2 4.05473e-16 0)
(2 1.04491e-16 0)
(2 -1.66633e-16 0)
(2 -3.88333e-16 0)
(2 -2.76694e-16 0)
(2 -1.94378e-16 0)
(2 -2.07781e-16 0)
(2 -2.02219e-16 0)
(2 -1.61262e-16 0)
(2 -2.37153e-16 0)
(2 -4.30105e-16 0)
(2 -7.39103e-16 0)
(2 -1.09626e-15 0)
(2 -1.12047e-15 0)
(2 -1.11634e-15 0)
(2 -1.08769e-15 0)
(2 -1.12409e-15 0)
(2 -1.23204e-15 0)
(2 -1.2629e-15 0)
(2 -1.25953e-15 0)
(2 -1.23563e-15 0)
(2 -1.1134e-15 0)
(2 -9.61295e-16 0)
(2 -8.27922e-16 0)
(2 -6.52964e-16 0)
(2 -6.25806e-16 0)
(2 -6.36211e-16 0)
(2 -6.85636e-16 0)
(2 -8.11178e-16 0)
(2 -9.33784e-16 0)
(2 -9.74258e-16 0)
(2 -9.36782e-16 0)
(2 -8.42034e-16 0)
(2 -6.56382e-16 0)
(2 -2.52624e-16 0)
(2 2.91747e-16 0)
(2 8.62531e-16 0)
(2 1.22427e-15 0)
(2 1.52468e-15 0)
(2 1.76993e-15 0)
(2 1.88175e-15 0)
(2 1.97801e-15 0)
(2 2.02217e-15 0)
(2 2.03254e-15 0)
(2 2.00571e-15 0)
(2 1.87614e-15 0)
(2 1.59121e-15 0)
(2 1.35602e-15 0)
(2 8.45176e-16 0)
(2 4.99903e-16 0)
(2 3.30017e-16 0)
(2 2.70866e-16 0)
(2 2.4728e-16 0)
(2 5.02022e-16 0)
(2 7.19896e-16 0)
(2 7.45718e-16 0)
(2 7.66398e-16 0)
(2 7.2476e-16 0)
(2 6.87119e-16 0)
(2 6.85977e-16 0)
(2 6.54446e-16 0)
(2 5.80872e-16 0)
(2 4.76298e-16 0)
(2 4.56853e-16 0)
(2 4.74157e-16 0)
(2 5.82578e-16 0)
(2 6.26562e-16 0)
(2 7.02612e-16 0)
(2 7.8056e-16 0)
(2 1.39695e-15 0)
(2 1.70063e-15 0)
(2 2.07941e-15 0)
(2 2.22494e-15 0)
(2 2.33153e-15 0)
(2 2.47981e-15 0)
(2 2.63524e-15 0)
(2 2.55828e-15 0)
(2 2.21852e-15 0)
(2 1.5256e-15 0)
(2 1.43103e-15 0)
(2 -1.49425e-15 0)
(2 -1.51927e-15 0)
(2 -1.44509e-15 0)
(2 -1.47597e-15 0)
(2 -1.86757e-15 0)
(2 -2.38663e-15 0)
(2 -2.50299e-15 0)
(2 -2.49064e-15 0)
(2 -2.5397e-15 0)
(2 -2.7116e-15 0)
(2 -2.86236e-15 0)
(2 -2.7491e-15 0)
(2 -2.61097e-15 0)
(2 -2.33824e-15 0)
(2 -2.07903e-15 0)
(2 -1.70906e-15 0)
(2 -1.22281e-15 0)
(2 -1.03973e-15 0)
(2 -1.10652e-15 0)
(2 -1.35382e-15 0)
(2 -1.54341e-15 0)
(2 -1.64572e-15 0)
(2 -1.67811e-15 0)
(2 -1.82583e-15 0)
(2 -1.8404e-15 0)
(2 -2.00336e-15 0)
(2 -2.12017e-15 0)
(2 -2.16078e-15 0)
(2 -1.98933e-15 0)
(2 -1.79879e-15 0)
(2 -1.80415e-15 0)
(2 -1.90136e-15 0)
(2 -1.8799e-15 0)
(2 -1.67226e-15 0)
(2 -1.16153e-15 0)
(2 -4.34747e-16 0)
(2 -3.36869e-16 0)
(2 -5.18455e-16 0)
(2 -5.98852e-16 0)
(2 -6.33999e-16 0)
(2 -8.85232e-16 0)
(2 -1.16373e-15 0)
(2 -2.19923e-15 0)
(2 -2.19094e-15 0)
(2 -1.95113e-15 0)
(2 -1.90391e-15 0)
(2 -1.76305e-15 0)
(2 -1.61169e-15 0)
(2 -1.49048e-15 0)
(2 -1.31408e-15 0)
(2 -1.58927e-15 0)
(2 -1.7488e-15 0)
(2 -1.4311e-15 0)
(2 -1.21859e-15 0)
(2 -1.04898e-15 0)
(2 -1.198e-15 0)
(2 -1.32493e-15 0)
(2 -1.33849e-15 0)
(2 -1.25869e-15 0)
(2 -1.28868e-15 0)
(2 -1.11034e-15 0)
(2 -9.95915e-16 0)
(2 -1.04638e-15 0)
(2 -1.17091e-15 0)
(2 -1.33304e-15 0)
(2 -1.19643e-15 0)
(2 -9.04864e-16 0)
(2 -7.22567e-16 0)
(2 -5.97539e-16 0)
(2 -4.62209e-16 0)
(2 -1.56152e-16 0)
(2 -7.58752e-17 0)
(2 2.22203e-16 0)
(2 6.23346e-16 0)
(2 1.07812e-15 0)
(2 1.21295e-15 0)
(2 1.04347e-15 0)
(2 9.74314e-16 0)
(2 8.42507e-16 0)
(2 4.09728e-16 0)
(2 1.52913e-16 0)
(2 1.36658e-16 0)
(2 2.78551e-17 0)
(2 4.50283e-19 0)
(2 -1.21444e-16 0)
(2 -3.43925e-16 0)
(2 -6.86729e-16 0)
(2 -1.01934e-15 0)
(2 -1.0448e-15 0)
(2 -1.02669e-15 0)
(2 -1.05822e-15 0)
(2 -1.51955e-15 0)
(2 -1.57743e-15 0)
(2 -1.53872e-15 0)
(2 -1.46808e-15 0)
(2 -1.01367e-15 0)
(2 -9.75063e-16 0)
(2 -1.08903e-15 0)
(2 -1.19204e-15 0)
(2 -1.2659e-15 0)
(2 -1.08287e-15 0)
(2 -9.68566e-16 0)
(2 -8.04553e-16 0)
(2 -6.27285e-16 0)
(2 -5.74827e-16 0)
(2 -5.10184e-16 0)
(2 -3.32274e-16 0)
(2 -2.86972e-16 0)
(2 -2.20796e-16 0)
(2 -1.29648e-17 0)
(2 -2.94427e-19 0)
(2 2.01889e-16 0)
(2 3.25099e-16 0)
(2 7.32344e-16 0)
(2 8.37397e-16 0)
(2 7.9394e-16 0)
(2 7.31042e-16 0)
(2 6.19913e-16 0)
(2 5.77224e-16 0)
(2 5.68481e-16 0)
(2 -7.91695e-16 0)
(2 -4.92934e-16 0)
(2 -4.7749e-16 0)
(2 -7.09629e-16 0)
(2 -1.54984e-15 0)
(2 -2.03031e-15 0)
(2 -2.18224e-15 0)
(2 -2.275e-15 0)
(2 -2.33675e-15 0)
(2 -2.11885e-15 0)
(2 -1.95539e-15 0)
(2 -1.77708e-15 0)
(2 -1.68553e-15 0)
(2 -1.68909e-15 0)
(2 -1.67454e-15 0)
(2 -1.18706e-15 0)
(2 -7.14594e-16 0)
(2 -4.7065e-16 0)
(2 -4.05615e-16 0)
(2 -3.54002e-16 0)
(2 -1.94911e-16 0)
(2 -1.47807e-16 0)
(2 -3.35117e-16 0)
(2 -8.00669e-16 0)
(2 -1.03018e-15 0)
(2 -1.15464e-15 0)
(2 -1.45067e-15 0)
(2 -1.50518e-15 0)
(2 -1.52425e-15 0)
(2 -1.59053e-15 0)
(2 -1.88334e-15 0)
(2 -2.02057e-15 0)
(2 -2.03077e-15 0)
(2 -1.77504e-15 0)
(2 -1.4141e-15 0)
(2 -1.29312e-15 0)
(2 -1.3119e-15 0)
(2 -1.25261e-15 0)
(2 -1.00528e-15 0)
(2 -5.60343e-16 0)
(2 -4.81353e-16 0)
(2 -1.78212e-16 0)
(2 3.2588e-18 0)
(2 2.22628e-16 0)
(2 2.53638e-16 0)
(2 2.2063e-16 0)
(2 4.67288e-16 0)
(2 7.43239e-16 0)
(2 8.29827e-16 0)
(2 9.41204e-16 0)
(2 1.54202e-15 0)
(2 1.77514e-15 0)
(2 1.54607e-15 0)
(2 5.31151e-16 0)
(2 -1.01501e-16 0)
(2 -2.58272e-16 0)
(2 -4.40319e-16 0)
(2 -4.55313e-16 0)
(2 -4.667e-16 0)
(2 -4.60383e-16 0)
(2 -4.46718e-16 0)
(2 -3.35001e-16 0)
(2 -3.16917e-16 0)
(2 -3.37195e-16 0)
(2 -5.02435e-16 0)
(2 -5.45442e-16 0)
(2 -5.8748e-16 0)
(2 -5.7318e-16 0)
(2 -1.42918e-16 0)
(2 -1.03161e-16 0)
(2 3.81068e-16 0)
(2 5.86981e-16 0)
(2 6.01482e-16 0)
(2 6.04108e-16 0)
(2 5.57853e-16 0)
(2 5.40393e-16 0)
(2 8.59685e-17 0)
(2 -1.70812e-16 0)
(2 -6.1885e-16 0)
(2 -8.7168e-16 0)
(2 -1.3361e-15 0)
(2 -1.57399e-15 0)
(2 -1.47883e-15 0)
(2 -1.56601e-15 0)
(2 -1.69224e-15 0)
(2 -2.07402e-15 0)
(2 -2.3822e-15 0)
(2 -2.48332e-15 0)
(2 -2.15843e-15 0)
(2 -1.75524e-15 0)
(2 -1.60179e-15 0)
(2 -1.44281e-15 0)
(2 -1.37609e-15 0)
(2 -1.38524e-15 0)
(2 -1.39268e-15 0)
(2 -1.33611e-15 0)
(2 -1.24585e-15 0)
(2 -1.28464e-15 0)
(2 -1.42521e-15 0)
(2 -1.43286e-15 0)
(2 -1.47267e-15 0)
(2 -1.49209e-15 0)
(2 -1.38344e-15 0)
(2 -1.28842e-15 0)
(2 -1.18285e-15 0)
(2 -1.10342e-15 0)
(2 -1.00463e-15 0)
(2 -1.12875e-15 0)
(2 -8.71629e-16 0)
(2 -8.01589e-16 0)
(2 -8.03308e-16 0)
(2 -7.32228e-16 0)
(2 -6.51056e-16 0)
(2 -5.65922e-16 0)
(2 -5.27433e-16 0)
(2 -5.15514e-16 0)
(2 -5.17947e-16 0)
(2 -1.78918e-16 0)
(2 7.94807e-17 0)
(2 -1.33494e-16 0)
(2 -9.12482e-16 0)
(2 -8.40791e-16 0)
(2 -8.61345e-16 0)
(2 -9.50083e-16 0)
(2 -1.2576e-15 0)
(2 -1.27687e-15 0)
(2 -1.2301e-15 0)
(2 -1.14088e-15 0)
(2 -1.07272e-15 0)
(2 -1.20447e-15 0)
(2 -1.15641e-15 0)
(2 -1.36873e-15 0)
(2 -1.68872e-15 0)
(2 -2.08249e-15 0)
(2 -2.20488e-15 0)
(2 -2.08067e-15 0)
(2 -1.76437e-15 0)
(2 -1.52627e-15 0)
(2 -1.43292e-15 0)
(2 -1.02064e-15 0)
(2 -8.59636e-16 0)
(2 -7.93891e-16 0)
(2 -9.60555e-16 0)
(2 -1.08135e-15 0)
(2 -1.4024e-15 0)
(2 -1.6854e-15 0)
(2 -1.72953e-15 0)
(2 -1.77635e-15 0)
(2 -1.70279e-15 0)
(2 -1.66711e-15 0)
(2 -1.61164e-15 0)
(2 -1.71474e-15 0)
(2 -1.7203e-15 0)
(2 -1.63208e-15 0)
(2 -1.62867e-15 0)
(2 -1.21849e-15 0)
(2 -1.2412e-15 0)
(2 -1.5034e-15 0)
(2 -1.55387e-15 0)
(2 -5.55291e-16 0)
(2 3.82296e-17 0)
(2 1.74711e-16 0)
(2 2.90204e-16 0)
(2 3.25841e-16 0)
(2 2.55302e-16 0)
(2 2.69099e-16 0)
(2 2.63023e-16 0)
(2 1.24096e-16 0)
(2 1.66061e-16 0)
(2 2.40468e-16 0)
(2 3.7601e-16 0)
(2 3.91884e-16 0)
(2 4.10596e-17 0)
(2 -2.99391e-16 0)
(2 -7.39769e-16 0)
(2 -8.00912e-16 0)
(2 -8.39456e-16 0)
(2 -1.02135e-15 0)
(2 -1.18185e-15 0)
(2 -1.12575e-15 0)
(2 -1.12654e-15 0)
(2 -1.12204e-15 0)
(2 -8.87941e-16 0)
(2 -4.45585e-16 0)
(2 -3.33396e-16 0)
(2 -2.27036e-16 0)
(2 -4.53415e-16 0)
(2 -6.11868e-16 0)
(2 -5.81385e-16 0)
(2 -4.67237e-16 0)
(2 -5.46627e-16 0)
(2 -5.50131e-16 0)
(2 -7.75965e-16 0)
(2 -9.83017e-16 0)
(2 -1.19473e-15 0)
(2 -1.45917e-15 0)
(2 -1.65433e-15 0)
(2 -1.71775e-15 0)
(2 -1.71824e-15 0)
(2 -1.71161e-15 0)
(2 -1.64637e-15 0)
(2 -1.47661e-15 0)
(2 -1.5033e-15 0)
(2 -1.68422e-15 0)
(2 -2.37207e-15 0)
(2 -2.53767e-15 0)
(2 -2.39896e-15 0)
(2 -2.25174e-15 0)
(2 -2.24377e-15 0)
(2 -2.21503e-15 0)
(2 -2.08865e-15 0)
(2 -1.94291e-15 0)
(2 -1.8836e-15 0)
(2 -1.82547e-15 0)
(2 -2.07786e-15 0)
(2 -2.30806e-15 0)
(2 -2.50095e-15 0)
(2 -2.16139e-15 0)
(2 -1.88516e-15 0)
(2 -1.99048e-15 0)
(2 -2.10964e-15 0)
(2 -2.23539e-15 0)
(2 -2.31173e-15 0)
(2 -2.53229e-15 0)
(2 -2.70277e-15 0)
(2 -2.73279e-15 0)
(2 -2.61121e-15 0)
(2 -2.32001e-15 0)
(2 -1.99208e-15 0)
(2 -1.6554e-15 0)
(2 -1.59308e-15 0)
(2 -1.44051e-15 0)
(2 -1.44159e-15 0)
(2 -1.7734e-15 0)
(2 -1.91142e-15 0)
(2 -1.81577e-15 0)
(2 -1.69951e-15 0)
(2 -1.64527e-15 0)
(2 -1.50165e-15 0)
(2 -1.50868e-15 0)
(2 5.28441e-17 0)
(2 -4.36032e-17 0)
(2 -5.94561e-17 0)
(2 -7.88881e-17 0)
(2 5.04857e-18 0)
(2 3.02711e-17 0)
(2 2.86793e-16 0)
(2 4.11946e-16 0)
(2 4.21505e-16 0)
(2 2.68411e-16 0)
(2 1.64708e-16 0)
(2 1.12486e-16 0)
(2 -2.57899e-16 0)
(2 -1.10519e-15 0)
(2 -1.16925e-15 0)
(2 -1.3212e-15 0)
(2 -1.91668e-15 0)
(2 -2.2056e-15 0)
(2 -2.10811e-15 0)
(2 -1.8697e-15 0)
(2 -1.83064e-15 0)
(2 -1.89721e-15 0)
(2 -1.89054e-15 0)
(2 -1.85744e-15 0)
(2 -1.79007e-15 0)
(2 -1.75968e-15 0)
(2 -1.76191e-15 0)
(2 -1.75769e-15 0)
(2 -1.76303e-15 0)
(2 -1.75928e-15 0)
(2 -1.66305e-15 0)
(2 -1.58139e-15 0)
(2 -1.51473e-15 0)
(2 -1.37602e-15 0)
(2 -1.27169e-15 0)
(2 -1.02207e-15 0)
(2 -7.63384e-16 0)
(2 -7.68653e-16 0)
(2 -7.9224e-16 0)
(2 -1.27123e-15 0)
(2 -1.46083e-15 0)
(2 -1.52283e-15 0)
(2 -1.5694e-15 0)
(2 -1.58797e-15 0)
(2 -1.38647e-15 0)
(2 -1.21881e-15 0)
(2 -1.35747e-15 0)
(2 -1.48316e-15 0)
(2 -1.81953e-15 0)
(2 -2.23725e-15 0)
(2 -2.38733e-15 0)
(2 -2.34589e-15 0)
(2 -1.96508e-15 0)
(2 -1.90993e-15 0)
(2 -2.05462e-15 0)
(2 -2.09824e-15 0)
(2 -2.22369e-15 0)
(2 -2.29375e-15 0)
(2 -2.37119e-15 0)
(2 -2.42056e-15 0)
(2 -2.4179e-15 0)
(2 -2.4663e-15 0)
(2 -2.54791e-15 0)
(2 -2.45352e-15 0)
(2 -2.15116e-15 0)
(2 -1.9711e-15 0)
(2 -1.64571e-15 0)
(2 -1.52505e-15 0)
(2 -1.5146e-15 0)
(2 -1.57896e-15 0)
(2 -1.70034e-15 0)
(2 -1.83889e-15 0)
(2 -1.80924e-15 0)
(2 -1.90884e-15 0)
(2 -2.04081e-15 0)
(2 -1.99345e-15 0)
(2 -2.11912e-15 0)
(2 -2.28148e-15 0)
(2 -2.35408e-15 0)
(2 -2.29559e-15 0)
(2 -2.73524e-15 0)
(2 -2.92959e-15 0)
(2 -3.15756e-15 0)
(2 -3.74497e-15 0)
(2 -3.88155e-15 0)
(2 -3.66454e-15 0)
(2 -3.28615e-15 0)
(2 -3.18252e-15 0)
(2 -3.33653e-15 0)
(2 -3.64359e-15 0)
(2 -3.6786e-15 0)
(2 -4.2733e-15 0)
(2 -4.67212e-15 0)
(2 -4.82662e-15 0)
(2 -4.82285e-15 0)
(2 -4.82963e-15 0)
(2 -4.84364e-15 0)
(2 -4.98891e-15 0)
(2 -5.00421e-15 0)
(2 -5.0963e-15 0)
(2 -4.91715e-15 0)
(2 -4.77072e-15 0)
(2 -4.58638e-15 0)
(2 -4.74931e-15 0)
(2 -4.95649e-15 0)
(2 -4.98443e-15 0)
(2 -4.87966e-15 0)
(2 -3.78191e-15 0)
(2 -3.18533e-15 0)
(2 -2.92009e-15 0)
(2 -2.82713e-15 0)
(2 -2.66149e-15 0)
(2 -2.39563e-15 0)
(2 -1.78432e-15 0)
(2 -1.75097e-15 0)
(2 -1.92431e-15 0)
(2 -2.09301e-15 0)
(2 -2.10523e-15 0)
(2 -1.9415e-15 0)
(2 -1.83113e-15 0)
(2 -8.81735e-16 0)
(2 -6.39257e-16 0)
(2 -6.92476e-16 0)
(2 -7.91128e-16 0)
(2 -8.69002e-16 0)
(2 -1.1043e-15 0)
(2 -1.19563e-15 0)
(2 -8.28272e-16 0)
(2 -6.15293e-16 0)
(2 -7.276e-16 0)
(2 -8.64328e-16 0)
(2 -5.64936e-16 0)
(2 -3.53589e-16 0)
(2 -2.86836e-16 0)
(2 -2.45306e-16 0)
(2 -2.00129e-16 0)
(2 -9.03897e-16 0)
(2 -1.77169e-15 0)
(2 -1.96133e-15 0)
(2 -1.9618e-15 0)
(2 -1.89829e-15 0)
(2 -1.87783e-15 0)
(2 -1.83681e-15 0)
(2 -1.77638e-15 0)
(2 -1.59145e-15 0)
(2 -1.44851e-15 0)
(2 -1.25913e-15 0)
(2 -1.11475e-15 0)
(2 -1.05653e-15 0)
(2 -1.08325e-15 0)
(2 -1.0575e-15 0)
(2 -1.00692e-15 0)
(2 -1.0723e-15 0)
(2 -1.27395e-15 0)
(2 -1.36718e-15 0)
(2 -1.36153e-15 0)
(2 -1.43785e-15 0)
(2 -1.43297e-15 0)
(2 -1.49969e-15 0)
(2 -1.90418e-15 0)
(2 -2.30937e-15 0)
(2 -2.33139e-15 0)
(2 -2.16465e-15 0)
(2 -1.93459e-15 0)
(2 -1.86595e-15 0)
(2 -2.03062e-15 0)
(2 -2.23541e-15 0)
(2 -2.40012e-15 0)
(2 -2.63016e-15 0)
(2 -2.74824e-15 0)
(2 -2.85353e-15 0)
(2 -3.10635e-15 0)
(2 -3.34391e-15 0)
(2 -3.32679e-15 0)
(2 -3.23092e-15 0)
(2 -3.00851e-15 0)
(2 -3.52373e-15 0)
(2 -3.93074e-15 0)
(2 -3.7644e-15 0)
(2 -3.51018e-15 0)
(2 -3.01861e-15 0)
(2 -2.65468e-15 0)
(2 -2.62439e-15 0)
(2 -2.77073e-15 0)
(2 -3.06443e-15 0)
(2 -3.11828e-15 0)
(2 -3.03167e-15 0)
(2 -3.03621e-15 0)
(2 -3.12728e-15 0)
(2 -3.26202e-15 0)
(2 -3.38657e-15 0)
(2 -3.45677e-15 0)
(2 -3.48234e-15 0)
(2 -3.38814e-15 0)
(2 -3.1786e-15 0)
(2 -3.12344e-15 0)
(2 -3.15634e-15 0)
(2 -3.23099e-15 0)
(2 -3.49711e-15 0)
(2 -3.85225e-15 0)
(2 -4.35132e-15 0)
(2 -4.86891e-15 0)
(2 -5.10121e-15 0)
(2 -5.31323e-15 0)
(2 -5.47629e-15 0)
(2 -5.47753e-15 0)
(2 -5.26645e-15 0)
(2 -5.01826e-15 0)
(2 -4.63361e-15 0)
(2 -4.62568e-15 0)
(2 -4.95493e-15 0)
(2 -5.19912e-15 0)
(2 -5.36373e-15 0)
(2 -5.48868e-15 0)
(2 -5.38302e-15 0)
(2 -5.44395e-15 0)
(2 -5.7761e-15 0)
(2 -5.63042e-15 0)
(2 -5.41627e-15 0)
(2 -5.24412e-15 0)
(2 -4.96705e-15 0)
(2 -4.80591e-15 0)
(2 -4.63334e-15 0)
(2 -4.32275e-15 0)
(2 -4.18905e-15 0)
(2 -3.70384e-15 0)
(2 -3.45334e-15 0)
(2 -3.1354e-15 0)
(2 -2.89419e-15 0)
(2 -2.69227e-15 0)
(2 -2.56636e-15 0)
(2 -2.26043e-15 0)
(2 -1.97735e-15 0)
(2 -2.0004e-15 0)
(2 -1.98473e-15 0)
(2 -1.77983e-15 0)
(2 -1.64476e-15 0)
(2 -1.45829e-15 0)
(2 -1.35358e-15 0)
(2 -1.36687e-15 0)
(2 -1.48263e-15 0)
(2 -1.46607e-15 0)
(2 -1.3161e-15 0)
(2 -1.27221e-15 0)
(2 -1.45368e-15 0)
(2 -1.70964e-15 0)
(2 -1.83812e-15 0)
(2 -1.31733e-15 0)
(2 -5.04816e-16 0)
(2 -4.35477e-16 0)
(2 -6.9921e-16 0)
(2 -1.11279e-15 0)
(2 -1.26764e-15 0)
(2 -1.19547e-15 0)
(2 -1.06486e-15 0)
(2 -8.2371e-16 0)
(2 -7.00532e-16 0)
(2 -6.61456e-16 0)
(2 -1.15542e-15 0)
(2 -6.06634e-16 0)
(2 -3.0085e-16 0)
(2 -1.30289e-16 0)
(2 -1.69632e-16 0)
(2 -4.82474e-16 0)
(2 -9.76093e-16 0)
(2 -9.96493e-16 0)
(2 -9.56536e-16 0)
(2 -8.43213e-16 0)
(2 -9.60069e-16 0)
(2 -1.23503e-15 0)
(2 -1.42676e-15 0)
(2 -1.49252e-15 0)
(2 -1.52575e-15 0)
(2 -1.61246e-15 0)
(2 -1.7322e-15 0)
(2 -2.02884e-15 0)
(2 -1.96092e-15 0)
(2 -1.87771e-15 0)
(2 -1.79333e-15 0)
(2 -1.40019e-15 0)
(2 -5.8272e-16 0)
(2 -4.24325e-16 0)
(2 -4.31857e-16 0)
(2 -4.86713e-16 0)
(2 -6.4115e-16 0)
(2 -1.55714e-15 0)
(2 -1.9918e-15 0)
(2 -2.12005e-15 0)
(2 -2.15317e-15 0)
(2 -2.50637e-15 0)
(2 -2.81936e-15 0)
(2 -2.93599e-15 0)
(2 -3.08248e-15 0)
(2 -3.02221e-15 0)
(2 -2.91695e-15 0)
(2 -2.64309e-15 0)
(2 -2.27091e-15 0)
(2 -2.20801e-15 0)
(2 -2.24864e-15 0)
(2 -2.08075e-15 0)
(2 -1.90547e-15 0)
(2 -1.75527e-15 0)
(2 -1.6758e-15 0)
(2 -1.8368e-15 0)
(2 -2.83789e-15 0)
(2 -3.04798e-15 0)
(2 -3.24634e-15 0)
(2 -3.21432e-15 0)
(2 -2.99875e-15 0)
(2 -2.73403e-15 0)
(2 -2.81818e-15 0)
(2 -3.32636e-15 0)
(2 -3.89449e-15 0)
(2 -3.88558e-15 0)
(2 -3.9111e-15 0)
(2 -3.94209e-15 0)
(2 -4.10959e-15 0)
(2 -4.0901e-15 0)
(2 -4.09368e-15 0)
(2 -3.83428e-15 0)
(2 -3.60585e-15 0)
(2 -3.6153e-15 0)
(2 -3.21242e-15 0)
(2 -3.15329e-15 0)
(2 -3.59722e-15 0)
(2 -3.71192e-15 0)
(2 -3.80826e-15 0)
(2 -3.77462e-15 0)
(2 -3.48986e-15 0)
(2 -3.40063e-15 0)
(2 -3.27138e-15 0)
(2 -3.08928e-15 0)
(2 -3.03047e-15 0)
(2 -3.25788e-15 0)
(2 -3.39571e-15 0)
(2 -3.58317e-15 0)
(2 -3.80411e-15 0)
(2 -3.41528e-15 0)
(2 -3.1896e-15 0)
(2 -2.88085e-15 0)
(2 -2.67564e-15 0)
(2 -2.53665e-15 0)
(2 -2.21616e-15 0)
(2 -1.96934e-15 0)
(2 -1.78901e-15 0)
(2 -1.67881e-15 0)
(2 -1.90549e-15 0)
(2 -2.05785e-15 0)
(2 -2.0809e-15 0)
(2 -1.83579e-15 0)
(2 -1.56316e-15 0)
(2 -1.40538e-15 0)
(2 -1.51335e-15 0)
(2 -1.58967e-15 0)
(2 -1.56616e-15 0)
(2 -1.52397e-15 0)
(2 -1.48025e-15 0)
(2 -1.52036e-15 0)
(2 -1.4832e-15 0)
(2 -1.35677e-15 0)
(2 -1.86065e-15 0)
(2 -1.74976e-15 0)
(2 -1.51933e-15 0)
(2 -1.34729e-15 0)
(2 -1.00803e-15 0)
(2 -7.45774e-16 0)
(2 -6.83938e-16 0)
(2 -1.5532e-16 0)
(2 1.15183e-17 0)
(2 -3.12408e-17 0)
(2 -5.21285e-16 0)
(2 -6.95953e-16 0)
(2 -1.06016e-15 0)
(2 -9.24233e-16 0)
(2 -4.19249e-16 0)
(2 -7.07208e-17 0)
(2 -2.58372e-16 0)
(2 -4.24864e-16 0)
(2 -5.62149e-16 0)
(2 -6.71208e-16 0)
(2 -7.13049e-16 0)
(2 -6.99342e-16 0)
(2 -5.81405e-16 0)
(2 -4.0253e-16 0)
(2 -7.76714e-16 0)
(2 -1.29453e-15 0)
(2 -1.34897e-15 0)
(2 -1.40553e-15 0)
(2 -1.23526e-15 0)
(2 -1.1908e-15 0)
(2 -8.00967e-16 0)
(2 -4.40532e-16 0)
(2 -3.07984e-16 0)
(2 -3.83402e-16 0)
(2 -4.01713e-16 0)
(2 -3.61532e-16 0)
(2 -1.02026e-16 0)
(2 2.41631e-16 0)
(2 4.70222e-16 0)
(2 5.08617e-16 0)
(2 9.38269e-16 0)
(2 1.27158e-15 0)
(2 1.50369e-15 0)
(2 1.51655e-15 0)
(2 1.56859e-15 0)
(2 9.15215e-16 0)
(2 7.50011e-16 0)
(2 7.60956e-16 0)
(2 5.18874e-16 0)
(2 5.21766e-16 0)
(2 5.8233e-16 0)
(2 8.84751e-16 0)
(2 1.16356e-15 0)
(2 1.25395e-15 0)
(2 3.71159e-16 0)
(2 8.65808e-17 0)
(2 -1.54529e-16 0)
(2 -5.75525e-16 0)
(2 -8.68903e-16 0)
(2 -1.07245e-15 0)
(2 -1.26969e-15 0)
(2 -1.32684e-15 0)
(2 -1.2987e-15 0)
(2 -1.2835e-15 0)
(2 -2.06932e-15 0)
(2 -2.30932e-15 0)
(2 -2.53976e-15 0)
(2 -2.78998e-15 0)
(2 -2.57092e-15 0)
(2 -2.58248e-15 0)
(2 -2.88954e-15 0)
(2 -3.06184e-15 0)
(2 -3.09971e-15 0)
(2 -3.51991e-15 0)
(2 -3.83742e-15 0)
(2 -4.22913e-15 0)
(2 -4.6071e-15 0)
(2 -4.85564e-15 0)
(2 -4.9659e-15 0)
(2 -4.77759e-15 0)
(2 -4.54332e-15 0)
(2 -4.34705e-15 0)
(2 -3.1798e-15 0)
(2 -2.57033e-15 0)
(2 -2.27826e-15 0)
(2 -2.14864e-15 0)
(2 -2.30454e-15 0)
(2 -2.48113e-15 0)
(2 -2.39261e-15 0)
(2 -2.29069e-15 0)
(2 -2.09779e-15 0)
(2 -1.6769e-15 0)
(2 -1.31445e-15 0)
(2 -1.60306e-15 0)
(2 -1.81694e-15 0)
(2 -2.00713e-15 0)
(2 -2.21128e-15 0)
(2 -2.09895e-15 0)
(2 -1.63051e-15 0)
(2 -1.59804e-15 0)
(2 -1.61437e-15 0)
(2 -1.46777e-15 0)
(2 -1.19777e-15 0)
(2 -4.25584e-16 0)
(2 -1.59815e-16 0)
(2 -2.80006e-16 0)
(2 -7.35325e-16 0)
(2 -9.14012e-16 0)
(2 -1.01882e-15 0)
(2 -1.45435e-15 0)
(2 -2.08066e-15 0)
(2 -2.28514e-15 0)
(2 -2.4816e-15 0)
(2 -2.44186e-15 0)
(2 -2.22675e-15 0)
(2 -2.0851e-15 0)
(2 -1.99699e-15 0)
(2 -1.83159e-15 0)
(2 -1.77602e-15 0)
(2 -2.0423e-15 0)
(2 -7.9893e-16 0)
(2 -8.11174e-16 0)
(2 -9.74859e-16 0)
(2 -9.92653e-16 0)
(2 -6.74939e-16 0)
(2 -3.96132e-16 0)
(2 -5.76606e-16 0)
(2 -1.09436e-15 0)
(2 -1.23791e-15 0)
(2 -1.1559e-15 0)
(2 -8.24744e-16 0)
(2 -7.14309e-16 0)
(2 -4.52632e-16 0)
(2 2.80212e-17 0)
(2 -1.53901e-16 0)
(2 -4.63422e-16 0)
(2 -5.34254e-16 0)
(2 -4.86563e-16 0)
(2 -3.89426e-16 0)
(2 -4.51364e-16 0)
(2 -4.21679e-16 0)
(2 -3.30912e-16 0)
(2 -2.47273e-16 0)
(2 -1.5164e-16 0)
(2 -1.99891e-16 0)
(2 -2.35291e-16 0)
(2 -9.73152e-18 0)
(2 1.52198e-16 0)
(2 2.42817e-16 0)
(2 7.51739e-16 0)
(2 1.54186e-15 0)
(2 1.98291e-15 0)
(2 1.73836e-15 0)
(2 1.42144e-15 0)
(2 1.36455e-15 0)
(2 1.15538e-15 0)
(2 9.49013e-16 0)
(2 8.81681e-16 0)
(2 9.49768e-16 0)
(2 1.24172e-15 0)
(2 8.9857e-16 0)
(2 7.31113e-16 0)
(2 8.39925e-16 0)
(2 9.62255e-16 0)
(2 1.31615e-15 0)
(2 1.49014e-15 0)
(2 1.59147e-15 0)
(2 1.60537e-15 0)
(2 1.41961e-15 0)
(2 1.28411e-15 0)
(2 1.17451e-15 0)
(2 1.69814e-15 0)
(2 1.9487e-15 0)
(2 1.9136e-15 0)