/*--------------------------------*- C++ -*----------------------------------*\
  =========                 |
  \\      /  F ield         | OpenFOAM: The Open Source CFD Toolbox
   \\    /   O peration     | Website:  https://openfoam.org
    \\  /    A nd           | Version:  7
     \\/     M anipulation  |
\*---------------------------------------------------------------------------*/
FoamFile
{
    version     2.0;
    format      ascii;
    class       volVectorField;
    location    "4";
    object      U;
}
// * * * * * * * * * * * * * * * * * * * * * * * * * * * * * * * * * * * * * //

dimensions      [0 1 -1 0 0 0 0];

internalField   nonuniform List<vector> 
2413
(
(0.41305 0.359688 0)
(0.402262 0.359433 0)
(0.39038 0.359875 0)
(0.379084 0.361107 0)
(0.3688 0.362175 0)
(0.362535 0.365503 0)
(0.356151 0.36788 0)
(0.355912 0.374796 0)
(0.359197 0.382935 0)
(0.365877 0.392401 0)
(0.376203 0.406627 0)
(0.390898 0.426506 0)
(0.410554 0.448029 0)
(0.434555 0.468008 0)
(0.45491 0.487258 0)
(0.473299 0.501048 0)
(0.47969 0.513864 0)
(0.482991 0.516239 0)
(0.481583 0.51177 0)
(0.477352 0.516581 0)
(0.471458 0.520386 0)
(0.462925 0.527157 0)
(0.45568 0.532693 0)
(0.45041 0.540588 0)
(0.448615 0.546311 0)
(0.449024 0.552521 0)
(0.449867 0.559186 0)
(0.451523 0.561529 0)
(0.452478 0.558844 0)
(0.450242 0.550976 0)
(0.446157 0.534727 0)
(0.439901 0.511904 0)
(0.433834 0.485168 0)
(0.425655 0.45816 0)
(0.4179 0.429604 0)
(0.409765 0.400257 0)
(0.403647 0.370665 0)
(0.397513 0.343277 0)
(0.394843 0.31585 0)
(0.392529 0.289236 0)
(0.39373 0.262282 0)
(0.393191 0.235148 0)
(0.393813 0.205761 0)
(0.390538 0.174026 0)
(0.386261 0.139169 0)
(0.375617 0.104012 0)
(0.359864 0.0686815 0)
(0.334358 0.0349248 0)
(0.304835 -0.0030438 0)
(0.266876 -0.0358549 0)
(0.225708 -0.0640156 0)
(0.18413 -0.0874687 0)
(0.144231 -0.107593 0)
(0.108837 -0.12958 0)
(0.0755041 -0.147853 0)
(0.0418471 -0.156923 0)
(0.0115468 -0.170704 0)
(-0.0171984 -0.188407 0)
(-0.0413317 -0.211646 0)
(-0.0633411 -0.236547 0)
(-0.0815822 -0.264799 0)
(-0.099163 -0.29688 0)
(-0.112725 -0.336076 0)
(-0.124898 -0.380882 0)
(-0.131932 -0.429373 0)
(-0.135903 -0.477739 0)
(-0.132973 -0.523616 0)
(-0.124295 -0.565468 0)
(-0.110146 -0.6022 0)
(-0.0889255 -0.632394 0)
(-0.0619217 -0.654147 0)
(-0.0294964 -0.664571 0)
(0.004833 -0.663883 0)
(0.0385609 -0.653543 0)
(0.0662936 -0.639362 0)
(0.0859954 -0.624402 0)
(0.0964979 -0.611141 0)
(0.0994655 -0.599817 0)
(0.100986 -0.589549 0)
(0.11079 -0.576974 0)
(0.132816 -0.556061 0)
(0.16258 -0.519824 0)
(0.193647 -0.476933 0)
(0.222641 -0.429831 0)
(0.245335 -0.386197 0)
(0.26898 -0.350495 0)
(0.284506 -0.300824 0)
(0.298229 -0.250441 0)
(0.497499 0.375729 0)
(0.490443 0.374465 0)
(0.481807 0.372695 0)
(0.47191 0.371384 0)
(0.461388 0.370586 0)
(0.452789 0.371613 0)
(0.445447 0.374435 0)
(0.443417 0.379159 0)
(0.442352 0.384538 0)
(0.447143 0.392323 0)
(0.454749 0.399696 0)
(0.466117 0.404918 0)
(0.481104 0.416195 0)
(0.501932 0.434173 0)
(0.52689 0.456127 0)
(0.557654 0.476236 0)
(0.585958 0.495219 0)
(0.614684 0.508036 0)
(0.631852 0.521558 0)
(0.647019 0.52688 0)
(0.651281 0.532323 0)
(0.659532 0.531959 0)
(0.666093 0.53524 0)
(0.675867 0.537835 0)
(0.684761 0.544731 0)
(0.696109 0.550623 0)
(0.709877 0.553197 0)
(0.725017 0.555054 0)
(0.743052 0.553405 0)
(0.761017 0.544216 0)
(0.778451 0.526373 0)
(0.792129 0.503704 0)
(0.805349 0.477314 0)
(0.814264 0.451364 0)
(0.822986 0.423728 0)
(0.828778 0.396556 0)
(0.833754 0.369487 0)
(0.83514 0.343277 0)
(0.835908 0.314951 0)
(0.833229 0.286677 0)
(0.830791 0.257983 0)
(0.824246 0.231908 0)
(0.816552 0.205112 0)
(0.804698 0.177892 0)
(0.788943 0.149952 0)
(0.76813 0.121705 0)
(0.744333 0.09256 0)
(0.715577 0.0645815 0)
(0.68429 0.0361336 0)
(0.646115 0.0146328 0)
(0.605612 -0.00526519 0)
(0.562568 -0.0228055 0)
(0.520345 -0.0431263 0)
(0.477347 -0.0613952 0)
(0.433349 -0.075335 0)
(0.389441 -0.0866439 0)
(0.350919 -0.108808 0)
(0.313996 -0.138243 0)
(0.27903 -0.172284 0)
(0.243741 -0.205287 0)
(0.210687 -0.237031 0)
(0.179929 -0.267831 0)
(0.153681 -0.301649 0)
(0.130514 -0.340527 0)
(0.111752 -0.386464 0)
(0.0976165 -0.437305 0)
(0.0887717 -0.489276 0)
(0.0869315 -0.540372 0)
(0.0899808 -0.589941 0)
(0.0970897 -0.636221 0)
(0.109721 -0.676499 0)
(0.128421 -0.705746 0)
(0.152066 -0.718261 0)
(0.181979 -0.709656 0)
(0.212278 -0.685539 0)
(0.237315 -0.655073 0)
(0.253699 -0.628529 0)
(0.260591 -0.60943 0)
(0.258248 -0.596659 0)
(0.249032 -0.587159 0)
(0.239504 -0.578227 0)
(0.240907 -0.564737 0)
(0.256494 -0.541459 0)
(0.281004 -0.49969 0)
(0.308219 -0.44876 0)
(0.33363 -0.395987 0)
(0.353439 -0.349497 0)
(0.375639 -0.307573 0)
(0.578689 0.379167 0)
(0.57459 0.381111 0)
(0.571021 0.38251 0)
(0.565569 0.383999 0)
(0.558727 0.384127 0)
(0.551107 0.383635 0)
(0.542917 0.382475 0)
(0.537334 0.381583 0)
(0.533481 0.382594 0)
(0.534857 0.384774 0)
(0.537951 0.389856 0)
(0.546678 0.398477 0)
(0.557086 0.408236 0)
(0.573786 0.414565 0)
(0.591179 0.421099 0)
(0.615981 0.433152 0)
(0.645241 0.450248 0)
(0.67961 0.469222 0)
(0.714317 0.486925 0)
(0.751565 0.500621 0)
(0.785806 0.509342 0)
(0.81547 0.516956 0)
(0.841334 0.520375 0)
(0.860253 0.522116 0)
(0.880014 0.519609 0)
(0.900503 0.514708 0)
(0.923511 0.511092 0)
(0.947963 0.507654 0)
(0.975207 0.50219 0)
(1.00267 0.495523 0)
(1.03131 0.486522 0)
(1.05799 0.47544 0)
(1.0863 0.458992 0)
(1.11034 0.440029 0)
(1.13351 0.416607 0)
(1.1528 0.390812 0)
(1.17062 0.363826 0)
(1.18342 0.337779 0)
(1.19333 0.310912 0)
(1.19828 0.284527 0)
(1.20072 0.25941 0)
(1.19684 0.238802 0)
(1.19063 0.217087 0)
(1.1797 0.197471 0)
(1.16469 0.179819 0)
(1.14448 0.161967 0)
(1.12189 0.140465 0)
(1.09452 0.11947 0)
(1.06292 0.0986563 0)
(1.02627 0.0814518 0)
(0.988263 0.0645673 0)
(0.947704 0.0467704 0)
(0.905633 0.0294374 0)
(0.860688 0.0167579 0)
(0.815898 0.00516407 0)
(0.771856 -0.00918276 0)
(0.728641 -0.0284337 0)
(0.683458 -0.0484906 0)
(0.633882 -0.0666811 0)
(0.581937 -0.0873082 0)
(0.533298 -0.115469 0)
(0.490807 -0.153697 0)
(0.455271 -0.202743 0)
(0.424275 -0.261839 0)
(0.396175 -0.328924 0)
(0.373142 -0.401613 0)
(0.353142 -0.473928 0)
(0.339351 -0.541321 0)
(0.331199 -0.602616 0)
(0.326625 -0.658266 0)
(0.325894 -0.708065 0)
(0.328838 -0.747987 0)
(0.334035 -0.773929 0)
(0.343052 -0.781299 0)
(0.358977 -0.76581 0)
(0.37914 -0.731001 0)
(0.397189 -0.688401 0)
(0.408841 -0.646527 0)
(0.412321 -0.614258 0)
(0.407897 -0.593391 0)
(0.395558 -0.580209 0)
(0.379165 -0.570899 0)
(0.366078 -0.561462 0)
(0.365639 -0.545628 0)
(0.380012 -0.517152 0)
(0.402037 -0.468361 0)
(0.42755 -0.411924 0)
(0.450761 -0.356093 0)
(0.65722 0.392692 0)
(0.655653 0.387345 0)
(0.654822 0.383717 0)
(0.651954 0.384367 0)
(0.650128 0.386426 0)
(0.646863 0.388927 0)
(0.643564 0.390585 0)
(0.639595 0.391568 0)
(0.634678 0.391942 0)
(0.63225 0.389677 0)
(0.631224 0.390117 0)
(0.634953 0.389309 0)
(0.640952 0.392727 0)
(0.652835 0.395589 0)
(0.665748 0.405414 0)
(0.683252 0.414437 0)
(0.705471 0.42105 0)
(0.73042 0.425555 0)
(0.759941 0.434674 0)
(0.796767 0.447219 0)
(0.837378 0.462735 0)
(0.878821 0.476818 0)
(0.923635 0.486118 0)
(0.964691 0.491178 0)
(1.00617 0.491506 0)
(1.04415 0.489895 0)
(1.08206 0.485911 0)
(1.11491 0.481285 0)
(1.14857 0.472964 0)
(1.18003 0.463056 0)
(1.21242 0.450905 0)
(1.24486 0.435519 0)
(1.27994 0.416755 0)
(1.31121 0.399904 0)
(1.34202 0.381325 0)
(1.36984 0.360968 0)
(1.39703 0.340269 0)
(1.4192 0.323564 0)
(1.43751 0.306342 0)
(1.45388 0.284886 0)
(1.46797 0.264119 0)
(1.47468 0.246901 0)
(1.4778 0.225323 0)
(1.4768 0.20367 0)
(1.4713 0.187798 0)
(1.45938 0.173638 0)
(1.444 0.156834 0)
(1.42481 0.141162 0)
(1.40015 0.127509 0)
(1.36926 0.117207 0)
(1.33571 0.107626 0)
(1.30001 0.0987719 0)
(1.26292 0.0902827 0)
(1.22314 0.0822278 0)
(1.1825 0.0760293 0)
(1.14165 0.0670614 0)
(1.10163 0.0502054 0)
(1.05861 0.0321328 0)
(1.01115 0.0126293 0)
(0.960482 -0.0170627 0)
(0.909085 -0.0581464 0)
(0.855964 -0.102488 0)
(0.802811 -0.146675 0)
(0.752132 -0.195866 0)
(0.702394 -0.252706 0)
(0.658808 -0.317939 0)
(0.62009 -0.385964 0)
(0.589512 -0.453106 0)
(0.570561 -0.518703 0)
(0.557603 -0.580745 0)
(0.550462 -0.635618 0)
(0.547924 -0.682002 0)
(0.546979 -0.718189 0)
(0.544493 -0.743136 0)
(0.539208 -0.754935 0)
(0.536933 -0.746938 0)
(0.53974 -0.718219 0)
(0.544225 -0.67954 0)
(0.546816 -0.637304 0)
(0.545689 -0.602834 0)
(0.539232 -0.581458 0)
(0.526542 -0.569548 0)
(0.508801 -0.562681 0)
(0.49195 -0.55617 0)
(0.482384 -0.54455 0)
(0.486347 -0.524104 0)
(0.502515 -0.484508 0)
(0.525533 -0.429741 0)
(0.731434 0.400392 0)
(0.731804 0.401144 0)
(0.733039 0.398563 0)
(0.733411 0.394247 0)
(0.735723 0.388371 0)
(0.735714 0.385456 0)
(0.735899 0.385568 0)
(0.73574 0.386826 0)
(0.733378 0.389358 0)
(0.733484 0.390989 0)
(0.733164 0.393977 0)
(0.734625 0.392437 0)
(0.736709 0.393807 0)
(0.74253 0.391684 0)
(0.750615 0.393555 0)
(0.763406 0.392923 0)
(0.778391 0.396217 0)
(0.797718 0.405724 0)
(0.820523 0.411832 0)
(0.847423 0.416401 0)
(0.877255 0.416538 0)
(0.909314 0.418763 0)
(0.948621 0.422687 0)
(0.990978 0.429673 0)
(1.0368 0.437693 0)
(1.08352 0.445214 0)
(1.1332 0.44922 0)
(1.18091 0.448328 0)
(1.22749 0.442379 0)
(1.27161 0.432882 0)
(1.31601 0.419514 0)
(1.3576 0.404507 0)
(1.39838 0.387811 0)
(1.43518 0.372092 0)
(1.47026 0.354879 0)
(1.50169 0.336725 0)
(1.5338 0.316962 0)
(1.56164 0.302349 0)
(1.58552 0.28788 0)
(1.61136 0.263411 0)
(1.63472 0.240337 0)
(1.65113 0.231295 0)
(1.66388 0.21531 0)
(1.67428 0.190744 0)
(1.6798 0.181027 0)
(1.68098 0.177017 0)
(1.67926 0.162462 0)
(1.6717 0.148641 0)
(1.65931 0.144341 0)
(1.64093 0.142708 0)
(1.61777 0.136011 0)
(1.59243 0.12976 0)
(1.56574 0.124297 0)
(1.53671 0.119899 0)
(1.50483 0.117526 0)
(1.47122 0.11321 0)
(1.43446 0.107777 0)
(1.39475 0.103351 0)
(1.35499 0.0928506 0)
(1.31138 0.0747979 0)
(1.25873 0.0540734 0)
(1.19562 0.0256813 0)
(1.12898 -0.0171692 0)
(1.06513 -0.0738477 0)
(1.00215 -0.141361 0)
(0.947391 -0.221715 0)
(0.901845 -0.312365 0)
(0.862092 -0.40524 0)
(0.832424 -0.493891 0)
(0.804927 -0.573918 0)
(0.782349 -0.642304 0)
(0.763575 -0.696576 0)
(0.747564 -0.73176 0)
(0.731444 -0.745131 0)
(0.715562 -0.738303 0)
(0.700334 -0.72134 0)
(0.686608 -0.702087 0)
(0.676056 -0.674769 0)
(0.667974 -0.644991 0)
(0.661589 -0.613204 0)
(0.655535 -0.58361 0)
(0.64868 -0.563436 0)
(0.637246 -0.553698 0)
(0.621058 -0.55136 0)
(0.605197 -0.550626 0)
(0.594552 -0.543009 0)
(0.592906 -0.52692 0)
(0.604114 -0.492135 0)
(0.801619 0.40607 0)
(0.804265 0.40182 0)
(0.806093 0.39958 0)
(0.809814 0.396886 0)
(0.812605 0.398965 0)
(0.816011 0.398413 0)
(0.819038 0.395796 0)
(0.823172 0.390907 0)
(0.826365 0.386662 0)
(0.829121 0.383189 0)
(0.832037 0.382583 0)
(0.833889 0.383115 0)
(0.834487 0.385325 0)
(0.839039 0.3854 0)
(0.844822 0.388038 0)
(0.853999 0.386973 0)
(0.864487 0.38975 0)
(0.878691 0.389919 0)
(0.896764 0.389995 0)
(0.914813 0.388636 0)
(0.937741 0.396681 0)
(0.964193 0.401243 0)
(0.993196 0.405463 0)
(1.02258 0.403999 0)
(1.05786 0.397604 0)
(1.09554 0.390031 0)
(1.13774 0.384462 0)
(1.17991 0.3819 0)
(1.22364 0.381618 0)
(1.26882 0.382955 0)
(1.31797 0.38291 0)
(1.36637 0.381006 0)
(1.41395 0.37382 0)
(1.46087 0.361 0)
(1.50576 0.346859 0)
(1.54889 0.327822 0)
(1.58959 0.305615 0)
(1.62479 0.291049 0)
(1.65814 0.277046 0)
(1.69079 0.254453 0)
(1.71794 0.234114 0)
(1.74133 0.227954 0)
(1.76117 0.220516 0)
(1.78003 0.198559 0)
(1.79508 0.180178 0)
(1.80989 0.172868 0)
(1.82253 0.160543 0)
(1.82564 0.142905 0)
(1.82346 0.138369 0)
(1.82184 0.137945 0)
(1.81675 0.133425 0)
(1.80375 0.126144 0)
(1.78727 0.124304 0)
(1.77039 0.130022 0)
(1.75243 0.131186 0)
(1.7316 0.131056 0)
(1.70564 0.131675 0)
(1.67493 0.130141 0)
(1.64136 0.128087 0)
(1.60433 0.121235 0)
(1.55868 0.110014 0)
(1.49697 0.0943976 0)
(1.42385 0.0614158 0)
(1.34991 0.0100419 0)
(1.27817 -0.0595679 0)
(1.21671 -0.141922 0)
(1.16607 -0.231729 0)
(1.11674 -0.319801 0)
(1.07273 -0.40136 0)
(1.02835 -0.475472 0)
(0.986894 -0.540503 0)
(0.95102 -0.593152 0)
(0.919826 -0.630787 0)
(0.890971 -0.654702 0)
(0.864762 -0.669399 0)
(0.840309 -0.674431 0)
(0.817668 -0.658774 0)
(0.794097 -0.635708 0)
(0.774368 -0.615666 0)
(0.760996 -0.594698 0)
(0.752873 -0.573492 0)
(0.74714 -0.556262 0)
(0.741763 -0.543406 0)
(0.731796 -0.5383 0)
(0.716979 -0.539659 0)
(0.703204 -0.542177 0)
(0.693887 -0.537638 0)
(0.69142 -0.52342 0)
(0.873348 0.41253 0)
(0.876317 0.409075 0)
(0.879304 0.406063 0)
(0.883152 0.402899 0)
(0.886481 0.398766 0)
(0.890839 0.394155 0)
(0.895077 0.391843 0)
(0.901288 0.390975 0)
(0.90782 0.391673 0)
(0.914229 0.391293 0)
(0.919896 0.388854 0)
(0.92554 0.384226 0)
(0.93171 0.380563 0)
(0.93837 0.376503 0)
(0.94478 0.375029 0)
(0.951744 0.372385 0)
(0.957159 0.374756 0)
(0.965935 0.373662 0)
(0.977212 0.374152 0)
(0.993623 0.375366 0)
(1.0119 0.377129 0)
(1.03489 0.378377 0)
(1.05522 0.374129 0)
(1.07761 0.374759 0)
(1.10602 0.377228 0)
(1.13745 0.380591 0)
(1.16835 0.380082 0)
(1.19855 0.374021 0)
(1.23147 0.363694 0)
(1.26742 0.349522 0)
(1.30854 0.333391 0)
(1.34823 0.321964 0)
(1.38777 0.314247 0)
(1.42999 0.30575 0)
(1.47319 0.300927 0)
(1.51628 0.301791 0)
(1.5586 0.300203 0)
(1.60177 0.290881 0)
(1.64496 0.277502 0)
(1.6851 0.263752 0)
(1.72216 0.244284 0)
(1.75559 0.225635 0)
(1.78481 0.216148 0)
(1.81257 0.201209 0)
(1.83947 0.17429 0)
(1.86107 0.15822 0)
(1.88064 0.163891 0)
(1.89173 0.164602 0)
(1.90475 0.144848 0)
(1.91315 0.130039 0)
(1.92253 0.135404 0)
(1.92341 0.139777 0)
(1.9181 0.135945 0)
(1.91322 0.129758 0)
(1.90902 0.127244 0)
(1.90436 0.131551 0)
(1.89191 0.130511 0)
(1.87581 0.130484 0)
(1.85454 0.131011 0)
(1.8264 0.130844 0)
(1.79111 0.135916 0)
(1.73513 0.136894 0)
(1.65471 0.121954 0)
(1.55953 0.0839772 0)
(1.47036 0.0201921 0)
(1.40042 -0.0612754 0)
(1.35166 -0.150238 0)
(1.30721 -0.241404 0)
(1.26069 -0.327514 0)
(1.20891 -0.40692 0)
(1.15793 -0.47969 0)
(1.11373 -0.540213 0)
(1.07179 -0.58385 0)
(1.02732 -0.60875 0)
(0.986573 -0.613756 0)
(0.952867 -0.604475 0)
(0.921214 -0.592083 0)
(0.890154 -0.581719 0)
(0.865749 -0.575355 0)
(0.849119 -0.568399 0)
(0.838067 -0.557095 0)
(0.830007 -0.540246 0)
(0.825023 -0.527009 0)
(0.819697 -0.520041 0)
(0.810445 -0.519864 0)
(0.797064 -0.525889 0)
(0.785699 -0.531442 0)
(0.779456 -0.527145 0)
(0.948702 0.423695 0)
(0.951553 0.418837 0)
(0.954163 0.414705 0)
(0.957982 0.409735 0)
(0.961303 0.405973 0)
(0.966112 0.402116 0)
(0.971064 0.399131 0)
(0.978237 0.395228 0)
(0.983976 0.390663 0)
(0.99105 0.385014 0)
(0.99729 0.381554 0)
(1.00531 0.380174 0)
(1.01567 0.379755 0)
(1.02605 0.379924 0)
(1.03512 0.378482 0)
(1.04403 0.374436 0)
(1.05277 0.369366 0)
(1.06404 0.364422 0)
(1.07481 0.360338 0)
(1.08784 0.359297 0)
(1.10022 0.357388 0)
(1.11187 0.355744 0)
(1.12559 0.35536 0)
(1.14502 0.354388 0)
(1.17068 0.355565 0)
(1.19666 0.352783 0)
(1.22073 0.348954 0)
(1.24525 0.347029 0)
(1.27199 0.343238 0)
(1.29981 0.343966 0)
(1.33012 0.342438 0)
(1.36065 0.334948 0)
(1.39197 0.322904 0)
(1.42564 0.306711 0)
(1.45941 0.289858 0)
(1.49515 0.271067 0)
(1.53125 0.252082 0)
(1.56649 0.238782 0)
(1.60267 0.228273 0)
(1.63918 0.222445 0)
(1.67454 0.223563 0)
(1.70873 0.222473 0)
(1.74473 0.214254 0)
(1.78042 0.203789 0)
(1.81248 0.192086 0)
(1.84031 0.179771 0)
(1.86642 0.173838 0)
(1.89095 0.167659 0)
(1.91495 0.148936 0)
(1.93222 0.125446 0)
(1.9475 0.120888 0)
(1.96103 0.127275 0)
(1.96994 0.123061 0)
(1.97544 0.111387 0)
(1.97944 0.107545 0)
(1.98396 0.111221 0)
(1.98602 0.118837 0)
(1.98255 0.118093 0)
(1.97339 0.116839 0)
(1.96187 0.120327 0)
(1.94233 0.123854 0)
(1.90148 0.137531 0)
(1.82608 0.14609 0)
(1.68709 0.114876 0)
(1.56913 0.0560873 0)
(1.48594 -0.0211523 0)
(1.44223 -0.103573 0)
(1.41522 -0.188062 0)
(1.37805 -0.260441 0)
(1.32425 -0.322979 0)
(1.26871 -0.383426 0)
(1.21949 -0.43077 0)
(1.16786 -0.461756 0)
(1.11147 -0.481923 0)
(1.06228 -0.494714 0)
(1.02687 -0.500968 0)
(0.995108 -0.505331 0)
(0.963934 -0.509501 0)
(0.941225 -0.517514 0)
(0.923032 -0.522131 0)
(0.910095 -0.519373 0)
(0.901297 -0.512108 0)
(0.894584 -0.501736 0)
(0.890005 -0.492457 0)
(0.884726 -0.490753 0)
(0.875368 -0.497979 0)
(0.864891 -0.510461 0)
(0.856959 -0.51802 0)
(1.02817 0.437734 0)
(1.03026 0.432172 0)
(1.03249 0.426661 0)
(1.03564 0.42104 0)
(1.03905 0.415683 0)
(1.04375 0.410121 0)
(1.04873 0.404836 0)
(1.05499 0.399125 0)
(1.06084 0.39406 0)
(1.06778 0.389644 0)
(1.07532 0.386651 0)
(1.08531 0.383417 0)
(1.09429 0.379775 0)
(1.10409 0.374222 0)
(1.11253 0.369687 0)
(1.12313 0.366051 0)
(1.13517 0.365681 0)
(1.15052 0.366554 0)
(1.16376 0.366135 0)
(1.17709 0.363334 0)
(1.1909 0.358082 0)
(1.20281 0.349493 0)
(1.21788 0.343778 0)
(1.23556 0.338744 0)
(1.25321 0.335196 0)
(1.26972 0.332451 0)
(1.28652 0.330244 0)
(1.30626 0.32826 0)
(1.32994 0.327131 0)
(1.3536 0.321408 0)
(1.37846 0.314598 0)
(1.40316 0.309236 0)
(1.42984 0.303296 0)
(1.45653 0.299048 0)
(1.48266 0.29732 0)
(1.50925 0.290627 0)
(1.53757 0.279502 0)
(1.5663 0.265564 0)
(1.59502 0.247954 0)
(1.62382 0.229866 0)
(1.65146 0.214021 0)
(1.68222 0.194861 0)
(1.71318 0.175851 0)
(1.74273 0.164667 0)
(1.77144 0.160448 0)
(1.79834 0.155598 0)
(1.82476 0.149313 0)
(1.85219 0.146956 0)
(1.87875 0.143143 0)
(1.90128 0.132098 0)
(1.92033 0.123877 0)
(1.94147 0.127509 0)
(1.95942 0.130947 0)
(1.9747 0.121226 0)
(1.98368 0.111216 0)
(1.99317 0.113014 0)
(2.00117 0.115275 0)
(2.00717 0.114415 0)
(2.01091 0.110484 0)
(2.00897 0.109176 0)
(2.00485 0.110942 0)
(1.98808 0.114637 0)
(1.92062 0.148558 0)
(1.74572 0.136616 0)
(1.57823 0.0782615 0)
(1.48698 0.0135417 0)
(1.45043 -0.0548293 0)
(1.43738 -0.126435 0)
(1.41356 -0.188688 0)
(1.36577 -0.240558 0)
(1.31446 -0.291734 0)
(1.26938 -0.332472 0)
(1.22294 -0.365901 0)
(1.17357 -0.395097 0)
(1.12899 -0.415248 0)
(1.09276 -0.424611 0)
(1.05881 -0.430838 0)
(1.02933 -0.443416 0)
(1.00979 -0.46159 0)
(0.992238 -0.474706 0)
(0.97644 -0.479146 0)
(0.966447 -0.478012 0)
(0.959486 -0.472729 0)
(0.953205 -0.465344 0)
(0.947552 -0.460168 0)
(0.940734 -0.460801 0)
(0.931543 -0.470324 0)
(0.922654 -0.484258 0)
(1.10802 0.450274 0)
(1.10982 0.445033 0)
(1.11169 0.439955 0)
(1.11429 0.434554 0)
(1.1173 0.428973 0)
(1.12117 0.423175 0)
(1.12563 0.416948 0)
(1.13095 0.41026 0)
(1.13617 0.404259 0)
(1.14321 0.39776 0)
(1.15131 0.391949 0)
(1.16148 0.385574 0)
(1.17069 0.379698 0)
(1.17961 0.37529 0)
(1.18974 0.371225 0)
(1.20241 0.367991 0)
(1.21595 0.365693 0)
(1.22916 0.361958 0)
(1.24172 0.356334 0)
(1.25373 0.352684 0)
(1.2684 0.348038 0)
(1.28106 0.349617 0)
(1.30045 0.351236 0)
(1.31894 0.350142 0)
(1.33588 0.346101 0)
(1.35214 0.339629 0)
(1.36862 0.330777 0)
(1.38698 0.319679 0)
(1.40552 0.311054 0)
(1.42568 0.305429 0)
(1.44572 0.300871 0)
(1.46532 0.29802 0)
(1.48816 0.293874 0)
(1.51149 0.287447 0)
(1.53306 0.279686 0)
(1.55432 0.272214 0)
(1.57825 0.261982 0)
(1.60237 0.255445 0)
(1.62539 0.253533 0)
(1.64926 0.244188 0)
(1.67303 0.229634 0)
(1.69578 0.217851 0)
(1.7189 0.205132 0)
(1.74206 0.189431 0)
(1.76446 0.178183 0)
(1.78627 0.167729 0)
(1.81043 0.150179 0)
(1.83404 0.132274 0)
(1.85745 0.119384 0)
(1.87952 0.109371 0)
(1.89849 0.0950263 0)
(1.91534 0.0883301 0)
(1.93413 0.0902594 0)
(1.95203 0.0864955 0)
(1.96304 0.0790471 0)
(1.97415 0.0795294 0)
(1.9855 0.0834762 0)
(1.99565 0.0896144 0)
(2.00556 0.0927868 0)
(2.00969 0.0939135 0)
(2.01064 0.0979576 0)
(2.0082 0.101781 0)
(1.9675 0.122057 0)
(1.78088 0.16948 0)
(1.52459 0.112573 0)
(1.43428 0.0636281 0)
(1.40326 0.00401537 0)
(1.39757 -0.0622859 0)
(1.39157 -0.120823 0)
(1.35674 -0.166821 0)
(1.31926 -0.209413 0)
(1.28396 -0.245961 0)
(1.24592 -0.276953 0)
(1.2054 -0.302519 0)
(1.16463 -0.319321 0)
(1.13097 -0.332992 0)
(1.10614 -0.351563 0)
(1.08608 -0.376351 0)
(1.06781 -0.401328 0)
(1.05214 -0.422127 0)
(1.03695 -0.431263 0)
(1.0244 -0.434994 0)
(1.01775 -0.4345 0)
(1.01076 -0.430175 0)
(1.00451 -0.424914 0)
(0.99826 -0.423333 0)
(0.98984 -0.429475 0)
(0.980855 -0.442514 0)
(1.17432 0.464836 0)
(1.17875 0.458498 0)
(1.18264 0.452509 0)
(1.18634 0.446842 0)
(1.19019 0.440888 0)
(1.19402 0.435188 0)
(1.19883 0.428409 0)
(1.20371 0.42197 0)
(1.20889 0.415172 0)
(1.21486 0.408348 0)
(1.2227 0.400954 0)
(1.23222 0.393221 0)
(1.24069 0.387302 0)
(1.24949 0.381506 0)
(1.26051 0.375388 0)
(1.2737 0.370124 0)
(1.28756 0.366201 0)
(1.30098 0.360953 0)
(1.3136 0.35683 0)
(1.32766 0.352245 0)
(1.34273 0.350017 0)
(1.35779 0.349015 0)
(1.37552 0.343951 0)
(1.39233 0.337687 0)
(1.40793 0.333177 0)
(1.42317 0.330856 0)
(1.43962 0.329731 0)
(1.4572 0.331978 0)
(1.47747 0.330293 0)
(1.49825 0.324479 0)
(1.51877 0.31659 0)
(1.53746 0.307655 0)
(1.55654 0.296965 0)
(1.57688 0.285241 0)
(1.59525 0.274362 0)
(1.61499 0.266526 0)
(1.63756 0.258513 0)
(1.66031 0.250216 0)
(1.68181 0.242087 0)
(1.70177 0.232774 0)
(1.7213 0.22218 0)
(1.74003 0.214285 0)
(1.75915 0.208451 0)
(1.77811 0.197595 0)
(1.79759 0.181293 0)
(1.8162 0.169441 0)
(1.83622 0.158288 0)
(1.85492 0.143887 0)
(1.87279 0.130351 0)
(1.89008 0.126272 0)
(1.90666 0.117178 0)
(1.92345 0.0981311 0)
(1.93709 0.0875813 0)
(1.95167 0.0816799 0)
(1.96588 0.069035 0)
(1.97778 0.0516345 0)
(1.98505 0.0465209 0)
(1.99443 0.0412834 0)
(2.00204 0.0366662 0)
(2.00654 0.0370576 0)
(2.00763 0.039034 0)
(2.00729 0.0441304 0)
(1.99224 0.0502533 0)
(1.82848 0.0993669 0)
(1.50495 0.129346 0)
(1.38189 0.102108 0)
(1.33759 0.069147 0)
(1.32756 0.0226841 0)
(1.33164 -0.0343851 0)
(1.32269 -0.0921748 0)
(1.30401 -0.137836 0)
(1.28431 -0.174945 0)
(1.25671 -0.201041 0)
(1.22534 -0.223726 0)
(1.19912 -0.246211 0)
(1.17907 -0.270738 0)
(1.16144 -0.297961 0)
(1.14429 -0.3242 0)
(1.12529 -0.345176 0)
(1.10805 -0.3645 0)
(1.09453 -0.380787 0)
(1.0823 -0.389424 0)
(1.07369 -0.393989 0)
(1.06616 -0.392541 0)
(1.0586 -0.388513 0)
(1.05143 -0.385115 0)
(1.04342 -0.387367 0)
(1.03447 -0.399246 0)
(1.2132 0.480904 0)
(1.22231 0.473905 0)
(1.23088 0.466644 0)
(1.23854 0.459661 0)
(1.24584 0.452774 0)
(1.25209 0.446527 0)
(1.25867 0.43991 0)
(1.2649 0.43362 0)
(1.27136 0.4269 0)
(1.27718 0.420461 0)
(1.28519 0.412147 0)
(1.29357 0.404749 0)
(1.30257 0.396915 0)
(1.31194 0.388443 0)
(1.32185 0.382324 0)
(1.33386 0.376618 0)
(1.34795 0.369799 0)
(1.36128 0.364569 0)
(1.37491 0.358793 0)
(1.38845 0.356117 0)
(1.40328 0.354156 0)
(1.42119 0.348528 0)
(1.43844 0.342804 0)
(1.4542 0.340123 0)
(1.46914 0.339107 0)
(1.48546 0.336495 0)
(1.504 0.330563 0)
(1.52379 0.323245 0)
(1.54196 0.318654 0)
(1.55994 0.314939 0)
(1.57919 0.31112 0)
(1.59853 0.309215 0)
(1.61766 0.305631 0)
(1.63697 0.299575 0)
(1.65701 0.293476 0)
(1.67808 0.2876 0)
(1.69734 0.279825 0)
(1.71834 0.26792 0)
(1.73802 0.25653 0)
(1.7553 0.250428 0)
(1.77272 0.240637 0)
(1.79587 0.225446 0)
(1.81582 0.21165 0)
(1.83298 0.203839 0)
(1.85096 0.190143 0)
(1.86897 0.172425 0)
(1.88529 0.162927 0)
(1.89976 0.157136 0)
(1.91603 0.141362 0)
(1.9297 0.125399 0)
(1.94408 0.117018 0)
(1.95726 0.108185 0)
(1.97017 0.0921611 0)
(1.983 0.0736404 0)
(1.99397 0.0712114 0)
(2.00608 0.0619893 0)
(2.01349 0.0507568 0)
(2.02294 0.0386306 0)
(2.02974 0.0315268 0)
(2.03447 0.0239196 0)
(2.03817 0.0164247 0)
(2.03846 0.00641323 0)
(2.03683 0.00193261 0)
(1.94628 0.028086 0)
(1.57976 0.113954 0)
(1.39018 0.106873 0)
(1.334 0.098574 0)
(1.29789 0.0807405 0)
(1.28723 0.0431465 0)
(1.29015 -0.00547256 0)
(1.29078 -0.0548004 0)
(1.28706 -0.0978294 0)
(1.2771 -0.133927 0)
(1.26031 -0.166532 0)
(1.24634 -0.198552 0)
(1.23229 -0.225378 0)
(1.21414 -0.24627 0)
(1.19834 -0.269796 0)
(1.18405 -0.294217 0)
(1.16714 -0.313016 0)
(1.15227 -0.330346 0)
(1.14075 -0.34524 0)
(1.12885 -0.349108 0)
(1.11629 -0.347783 0)
(1.1068 -0.344133 0)
(1.09794 -0.339536 0)
(1.08994 -0.341119 0)
(1.08199 -0.356667 0)
(1.22981 0.489161 0)
(1.24088 0.484941 0)
(1.25224 0.479165 0)
(1.26374 0.47216 0)
(1.27504 0.464747 0)
(1.2855 0.457319 0)
(1.29577 0.449544 0)
(1.30518 0.442664 0)
(1.31472 0.435368 0)
(1.32305 0.428356 0)
(1.33174 0.421335 0)
(1.34081 0.413947 0)
(1.35089 0.405857 0)
(1.36026 0.398543 0)
(1.37003 0.391656 0)
(1.38122 0.385158 0)
(1.39423 0.378198 0)
(1.40804 0.370767 0)
(1.42095 0.366245 0)
(1.43427 0.362334 0)
(1.44972 0.35723 0)
(1.46704 0.351515 0)
(1.48276 0.349301 0)
(1.4982 0.347603 0)
(1.5149 0.342424 0)
(1.53297 0.334766 0)
(1.55025 0.331589 0)
(1.56738 0.330997 0)
(1.58472 0.327976 0)
(1.60342 0.32165 0)
(1.62341 0.312915 0)
(1.64334 0.304497 0)
(1.66286 0.300367 0)
(1.68375 0.297294 0)
(1.70646 0.292502 0)
(1.72835 0.287994 0)
(1.7485 0.284188 0)
(1.76839 0.277258 0)
(1.79027 0.265768 0)
(1.81025 0.256748 0)
(1.8282 0.250523 0)
(1.84849 0.238974 0)
(1.86884 0.224211 0)
(1.88618 0.216754 0)
(1.90069 0.211105 0)
(1.91895 0.196276 0)
(1.93669 0.177409 0)
(1.95117 0.169962 0)
(1.96312 0.162495 0)
(1.97965 0.144544 0)
(1.99301 0.125843 0)
(2.00488 0.120091 0)
(2.01515 0.110648 0)
(2.02951 0.0901222 0)
(2.0386 0.0753583 0)
(2.04715 0.0705287 0)
(2.05645 0.0570058 0)
(2.06546 0.0382078 0)
(2.0713 0.0268791 0)
(2.07426 0.021542 0)
(2.08188 0.00818487 0)
(2.08445 0.00112654 0)
(2.08866 -0.0110239 0)
(2.06557 -0.0131535 0)
(1.77811 0.0816 0)
(1.46709 0.0943304 0)
(1.3964 0.0777938 0)
(1.3518 0.0697033 0)
(1.31299 0.0644817 0)
(1.29954 0.0463108 0)
(1.29327 0.0083242 0)
(1.30075 -0.0359411 0)
(1.30358 -0.0812674 0)
(1.30129 -0.120937 0)
(1.29158 -0.149644 0)
(1.27985 -0.173992 0)
(1.26597 -0.197669 0)
(1.25053 -0.22177 0)
(1.2354 -0.24248 0)
(1.21964 -0.25889 0)
(1.20429 -0.273508 0)
(1.19012 -0.285502 0)
(1.17369 -0.290828 0)
(1.1592 -0.291974 0)
(1.14851 -0.28959 0)
(1.13904 -0.289475 0)
(1.13093 -0.296609 0)
(1.12312 -0.314436 0)
(1.23861 0.478766 0)
(1.24718 0.482101 0)
(1.25705 0.48226 0)
(1.2679 0.479802 0)
(1.2799 0.47535 0)
(1.29259 0.468923 0)
(1.30545 0.461461 0)
(1.3185 0.453318 0)
(1.33155 0.444813 0)
(1.34369 0.4365 0)
(1.35551 0.427953 0)
(1.36691 0.41992 0)
(1.3787 0.411738 0)
(1.38973 0.404248 0)
(1.40045 0.397663 0)
(1.41167 0.391215 0)
(1.42382 0.384978 0)
(1.43689 0.378825 0)
(1.44997 0.373457 0)
(1.46334 0.369019 0)
(1.47783 0.364689 0)
(1.49299 0.361572 0)
(1.50882 0.3577 0)
(1.52543 0.352277 0)
(1.54193 0.348437 0)
(1.55808 0.346261 0)
(1.57389 0.344588 0)
(1.5914 0.339446 0)
(1.61066 0.329431 0)
(1.62883 0.321373 0)
(1.64589 0.319651 0)
(1.66334 0.317962 0)
(1.68404 0.310735 0)
(1.70653 0.300595 0)
(1.7279 0.293033 0)
(1.74814 0.287699 0)
(1.76914 0.282269 0)
(1.79173 0.2762 0)
(1.8148 0.270613 0)
(1.83734 0.265791 0)
(1.85965 0.25914 0)
(1.88124 0.250369 0)
(1.9019 0.241116 0)
(1.9218 0.233845 0)
(1.93954 0.227323 0)
(1.95705 0.215371 0)
(1.97464 0.200262 0)
(1.99032 0.190608 0)
(2.003 0.184364 0)
(2.01666 0.171007 0)
(2.03294 0.151713 0)
(2.04537 0.140643 0)
(2.05516 0.132914 0)
(2.06868 0.116433 0)
(2.08153 0.094698 0)
(2.08904 0.086734 0)
(2.09863 0.0747814 0)
(2.10659 0.0585907 0)
(2.11456 0.0409808 0)
(2.11673 0.0339057 0)
(2.12471 0.0201546 0)
(2.12969 0.00756366 0)
(2.13547 -0.00856925 0)
(2.13132 -0.014982 0)
(1.99958 0.0188323 0)
(1.60235 0.0753738 0)
(1.47524 0.0572392 0)
(1.44583 0.052384 0)
(1.40615 0.0563979 0)
(1.36364 0.0513095 0)
(1.33352 0.0397995 0)
(1.32693 0.0127069 0)
(1.32461 -0.0255989 0)
(1.32914 -0.0625693 0)
(1.32735 -0.0977413 0)
(1.32518 -0.130476 0)
(1.31507 -0.152904 0)
(1.29547 -0.167457 0)
(1.27786 -0.184582 0)
(1.26376 -0.202913 0)
(1.24829 -0.216001 0)
(1.23026 -0.22206 0)
(1.21339 -0.229427 0)
(1.19985 -0.238233 0)
(1.18898 -0.241103 0)
(1.17843 -0.241166 0)
(1.1683 -0.246078 0)
(1.15916 -0.262211 0)
(1.24685 0.444121 0)
(1.25211 0.452302 0)
(1.2596 0.460491 0)
(1.26707 0.466104 0)
(1.27563 0.469502 0)
(1.28513 0.47061 0)
(1.29621 0.468876 0)
(1.3085 0.464598 0)
(1.3219 0.458408 0)
(1.33598 0.450562 0)
(1.35035 0.441387 0)
(1.3649 0.431537 0)
(1.37947 0.421621 0)
(1.39346 0.412411 0)
(1.40704 0.403814 0)
(1.41987 0.396396 0)
(1.43279 0.389511 0)
(1.44609 0.383197 0)
(1.45924 0.37844 0)
(1.47264 0.374412 0)
(1.48638 0.370774 0)
(1.50081 0.367484 0)
(1.51604 0.364663 0)
(1.53176 0.361774 0)
(1.54775 0.358857 0)
(1.5637 0.35659 0)
(1.58079 0.35172 0)
(1.5987 0.345185 0)
(1.61553 0.341671 0)
(1.63177 0.338173 0)
(1.64927 0.331559 0)
(1.66869 0.322271 0)
(1.68896 0.312482 0)
(1.70778 0.307839 0)
(1.72548 0.306309 0)
(1.74533 0.300158 0)
(1.76824 0.289005 0)
(1.79102 0.277775 0)
(1.81289 0.270421 0)
(1.83402 0.267596 0)
(1.85623 0.263512 0)
(1.88032 0.255183 0)
(1.90354 0.248061 0)
(1.92504 0.245527 0)
(1.94499 0.240815 0)
(1.96752 0.228029 0)
(1.98768 0.214951 0)
(2.00465 0.211157 0)
(2.02001 0.204749 0)
(2.03945 0.188432 0)
(2.0555 0.171391 0)
(2.06746 0.166006 0)
(2.08005 0.156007 0)
(2.09573 0.137743 0)
(2.10702 0.120904 0)
(2.11411 0.115401 0)
(2.12408 0.103639 0)
(2.1351 0.0855925 0)
(2.14206 0.0714367 0)
(2.14618 0.0616028 0)
(2.15372 0.046569 0)
(2.16272 0.027325 0)
(2.16893 0.0183965 0)
(2.16948 -0.00303446 0)
(2.11205 -0.00636911 0)
(1.73553 0.0443917 0)
(1.5349 0.0236346 0)
(1.52855 0.0121024 0)
(1.51151 0.0172572 0)
(1.47199 0.0301007 0)
(1.42183 0.044679 0)
(1.37247 0.0405166 0)
(1.3532 0.0294213 0)
(1.34774 0.00396219 0)
(1.3454 -0.028651 0)
(1.34731 -0.0610775 0)
(1.34021 -0.0853925 0)
(1.32786 -0.109138 0)
(1.31463 -0.13201 0)
(1.29606 -0.140734 0)
(1.27552 -0.14622 0)
(1.2593 -0.153748 0)
(1.24372 -0.166506 0)
(1.23048 -0.176854 0)
(1.21782 -0.177497 0)
(1.20627 -0.177793 0)
(1.19708 -0.187046 0)
(1.19039 -0.211236 0)
(1.25601 0.407907 0)
(1.26042 0.415527 0)
(1.26597 0.423459 0)
(1.27024 0.431178 0)
(1.27639 0.438608 0)
(1.28191 0.444751 0)
(1.28925 0.450417 0)
(1.29691 0.454033 0)
(1.30599 0.45582 0)
(1.31625 0.455112 0)
(1.32757 0.451822 0)
(1.34037 0.446261 0)
(1.35449 0.43873 0)
(1.3698 0.42966 0)
(1.38551 0.419856 0)
(1.40102 0.410091 0)
(1.41645 0.40063 0)
(1.43151 0.392329 0)
(1.44651 0.385162 0)
(1.46136 0.379057 0)
(1.4758 0.374553 0)
(1.49004 0.371779 0)
(1.50485 0.369203 0)
(1.52025 0.366555 0)
(1.5358 0.364844 0)
(1.55192 0.363025 0)
(1.56888 0.360012 0)
(1.58604 0.355776 0)
(1.60309 0.351082 0)
(1.62058 0.3455 0)
(1.63859 0.338856 0)
(1.65664 0.332889 0)
(1.67419 0.32874 0)
(1.69155 0.32363 0)
(1.71157 0.312778 0)
(1.73263 0.30046 0)
(1.75235 0.293548 0)
(1.77156 0.289891 0)
(1.79162 0.285464 0)
(1.8133 0.278057 0)