/*--------------------------------*- C++ -*----------------------------------*\
  =========                 |
  \\      /  F ield         | OpenFOAM: The Open Source CFD Toolbox
   \\    /   O peration     | Website:  https://openfoam.org
    \\  /    A nd           | Version:  7
     \\/     M anipulation  |
\*---------------------------------------------------------------------------*/
FoamFile
{
    version     2.0;
    format      ascii;
    class       volScalarField;
    location    "6";
    object      rho;
}
// * * * * * * * * * * * * * * * * * * * * * * * * * * * * * * * * * * * * * //

dimensions      [1 -3 0 0 0 0 0];

internalField   nonuniform List<scalar> 
2413
(
1.62373
1.61919
1.61304
1.60665
1.60054
1.59397
1.58729
1.57946
1.5719
1.56797
1.56318
1.55838
1.55554
1.55318
1.54967
1.55113
1.56268
1.59815
1.6814
1.78557
1.92467
2.02401
2.08807
2.13349
2.14175
2.13946
2.13083
2.12178
2.11052
2.09752
2.08535
2.07625
2.06743
2.05843
2.04948
2.04058
2.03188
2.02285
2.01329
2.00366
1.99431
1.9852
1.97616
1.96707
1.95807
1.94919
1.94011
1.93059
1.92072
1.91068
1.90113
1.89245
1.88411
1.87828
1.87427
1.87141
1.86929
1.86786
1.86651
1.8632
1.85897
1.85435
1.85003
1.84623
1.84387
1.84428
1.84715
1.85474
1.86627
1.88295
1.90158
1.91975
1.93383
1.94866
1.95568
1.95889
1.96378
1.96548
1.9633
1.96042
1.95652
1.95056
1.94398
1.93745
1.93108
1.92535
1.92005
1.91489
1.91008
1.90547
1.90053
1.89509
1.88959
1.88409
1.87834
1.87247
1.86691
1.86182
1.85711
1.85244
1.84741
1.84294
1.83983
1.83696
1.83387
1.83058
1.827
1.82313
1.819
1.81461
1.81005
1.80556
1.80133
1.7974
1.79373
1.79031
1.7538
1.74695
1.73986
1.73183
1.72624
1.72126
1.71463
1.70722
1.69946
1.69119
1.68194
1.67268
1.66475
1.65763
1.65027
1.64333
1.63868
1.63355
1.62693
1.62001
1.61326
1.60592
1.59828
1.58949
1.58073
1.57632
1.5712
1.56754
1.56548
1.56949
1.58257
1.62487
1.7035
1.82052
1.95369
2.0418
2.12476
2.1529
2.15724
2.15533
2.15068
2.14059
2.12981
2.11728
2.10524
2.09286
2.08052
2.07047
2.06192
2.05366
2.04535
2.03682
2.02836
2.01983
2.01058
2.00048
1.99018
1.98029
1.97084
1.96175
1.95289
1.94404
1.93505
1.92583
1.91664
1.90768
1.89858
1.89007
1.88441
1.88056
1.87765
1.87541
1.8741
1.87208
1.86807
1.86311
1.85748
1.85135
1.84539
1.83988
1.8351
1.83131
1.82855
1.82828
1.82976
1.83417
1.8417
1.85267
1.86426
1.87687
1.89348
1.90418
1.91338
1.92353
1.92428
1.92566
1.92724
1.92459
1.92247
1.92137
1.919
1.91544
1.91193
1.90824
1.90414
1.89948
1.89424
1.88845
1.88278
1.87726
1.87147
1.86563
1.86008
1.85487
1.85026
1.84607
1.84213
1.83845
1.83524
1.83267
1.83009
1.82681
1.82293
1.81866
1.81401
1.80914
1.80436
1.79984
1.79558
1.79155
1.78777
1.78427
1.76888
1.76263
1.75562
1.74838
1.74351
1.73814
1.73106
1.72337
1.71519
1.70665
1.69713
1.68753
1.67986
1.67291
1.6656
1.65935
1.65468
1.64911
1.64222
1.63502
1.62754
1.61933
1.61063
1.60101
1.59249
1.58767
1.58538
1.58907
1.60687
1.65433
1.73385
1.86499
1.97598
2.08449
2.14922
2.16974
2.18169
2.18187
2.17669
2.16749
2.15274
2.13804
2.12399
2.1105
2.09867
2.0871
2.07604
2.06721
2.05977
2.05263
2.04528
2.037
2.02764
2.01766
2.00726
1.99667
1.98626
1.97639
1.96741
1.95902
1.95061
1.94187
1.93296
1.92403
1.91497
1.90602
1.89823
1.89255
1.88866
1.88568
1.8832
1.8813
1.87853
1.87414
1.86888
1.86293
1.85631
1.84938
1.84258
1.83628
1.83038
1.82521
1.8211
1.81784
1.81543
1.81363
1.81231
1.81271
1.81457
1.8181
1.82536
1.83579
1.845
1.85683
1.86751
1.87456
1.8839
1.8897
1.89241
1.89761
1.89903
1.89659
1.89573
1.89452
1.8905
1.88528
1.88074
1.87636
1.87187
1.86698
1.8618
1.85643
1.85101
1.84589
1.84246
1.83919
1.83584
1.83359
1.83174
1.8287
1.82504
1.8212
1.81699
1.81241
1.8076
1.80281
1.79829
1.79406
1.79007
1.78635
1.78293
1.77988
1.78426
1.77818
1.77093
1.76482
1.7604
1.75455
1.74717
1.73926
1.73071
1.72191
1.71222
1.7022
1.69508
1.68859
1.6814
1.67591
1.67104
1.6649
1.65774
1.65011
1.64175
1.6327
1.62396
1.61472
1.60984
1.61289
1.63313
1.68065
1.77994
1.89855
2.0206
2.12863
2.17131
2.2034
2.21722
2.21689
2.21067
2.19378
2.17654
2.16128
2.147
2.13299
2.11924
2.10725
2.09726
2.088
2.07922
2.07098
2.06276
2.05431
2.0456
2.0363
2.02618
2.0157
2.00537
1.99545
1.98584
1.97655
1.96771
1.95894
1.95007
1.94102
1.93194
1.9237
1.91568
1.90816
1.9027
1.89858
1.89527
1.89273
1.88998
1.88634
1.88161
1.87591
1.8696
1.86285
1.85566
1.84818
1.84085
1.8339
1.82749
1.82169
1.81669
1.81215
1.80777
1.80348
1.79933
1.79599
1.79359
1.79177
1.79141
1.793
1.79589
1.80011
1.80796
1.81439
1.82242
1.83281
1.83798
1.84566
1.85343
1.85473
1.85763
1.86112
1.86005
1.85781
1.85722
1.85658
1.85376
1.8501
1.84765
1.84454
1.8402
1.83655
1.83432
1.83169
1.82849
1.82645
1.82457
1.82141
1.81786
1.81412
1.80994
1.80541
1.80075
1.79614
1.79182
1.78775
1.78384
1.78016
1.77672
1.7735
1.80044
1.79393
1.78652
1.78135
1.77681
1.77036
1.76273
1.75459
1.74575
1.73677
1.72692
1.71686
1.71057
1.70446
1.69764
1.69267
1.68718
1.68034
1.67305
1.66462
1.656
1.64846
1.6405
1.64332
1.6615
1.71687
1.8184
1.93682
2.07703
2.15278
2.21479
2.24807
2.25135
2.24488
2.23397
2.21845
2.20335
2.18832
2.17394
2.16075
2.14925
2.13801
2.12617
2.11432
2.10308
2.09258
2.08279
2.07362
2.06476
2.05598
2.04725
2.03827
2.0286
2.01825
2.00751
1.99675
1.98641
1.97671
1.96757
1.9592
1.95111
1.94261
1.93394
1.92627
1.91959
1.9141
1.91005
1.90705
1.90383
1.90008
1.8957
1.89055
1.88451
1.87771
1.87042
1.86291
1.8552
1.84737
1.83977
1.83261
1.82581
1.81936
1.81334
1.80771
1.80228
1.79695
1.79209
1.7879
1.78431
1.78107
1.77817
1.77651
1.77533
1.77489
1.77609
1.77762
1.7795
1.78476
1.78927
1.79415
1.80241
1.80819
1.8128
1.81964
1.82461
1.8257
1.82827
1.83084
1.82949
1.8281
1.82743
1.82684
1.82489
1.82329
1.82268
1.82051
1.81843
1.81765
1.81559
1.81224
1.80839
1.80438
1.80039
1.7963
1.79215
1.78816
1.78443
1.78074
1.77702
1.77334
1.76972
1.76608
1.81703
1.80984
1.80279
1.79819
1.79303
1.78594
1.77807
1.76966
1.76058
1.7514
1.74117
1.73159
1.72612
1.71997
1.71387
1.70836
1.70221
1.69515
1.68749
1.68138
1.67411
1.67729
1.69635
1.75773
1.85236
1.99303
2.10691
2.19967
2.26367
2.273
2.27728
2.27413
2.26301
2.2487
2.23436
2.22131
2.20865
2.19679
2.1842
2.17072
2.15715
2.14362
2.13039
2.11791
2.10679
2.09729
2.08881
2.08047
2.07162
2.062
2.05174
2.04107
2.03024
2.01952
2.00901
1.99883
1.98946
1.98089
1.9717
1.9619
1.95353
1.94592
1.93861
1.93222
1.92698
1.92322
1.91989
1.91606
1.91187
1.90698
1.90114
1.8945
1.88721
1.87937
1.87113
1.86285
1.85472
1.84667
1.83883
1.83135
1.82418
1.81724
1.81067
1.80451
1.79861
1.79288
1.78765
1.78302
1.77868
1.77464
1.77157
1.76912
1.76642
1.7647
1.76352
1.76211
1.76161
1.76266
1.76307
1.76337
1.76597
1.76863
1.77107
1.7755
1.78098
1.78444
1.788
1.79322
1.79605
1.79741
1.7999
1.80047
1.80067
1.80243
1.80308
1.80256
1.80288
1.80381
1.80201
1.79843
1.79437
1.79095
1.78774
1.78423
1.78053
1.77699
1.77359
1.77012
1.76654
1.76289
1.7591
1.75507
1.83336
1.82575
1.81938
1.81486
1.8088
1.80116
1.7931
1.78448
1.77537
1.76606
1.75555
1.7471
1.74178
1.73532
1.72925
1.7232
1.71674
1.71198
1.70692
1.71113
1.73633
1.79488
1.90454
2.03817
2.15027
2.25059
2.27947
2.30581
2.31547
2.31089
2.3036
2.29063
2.27547
2.2607
2.24585
2.23116
2.2166
2.2026
2.18843
2.17433
2.1611
2.14905
2.13792
2.12726
2.11654
2.10565
2.0952
2.08541
2.07571
2.06576
2.05568
2.04558
2.03541
2.02533
2.01526
2.00464
1.99372
1.98355
1.97515
1.96704
1.95943
1.95227
1.94595
1.94148
1.93734
1.93339
1.92928
1.92452
1.91897
1.91254
1.90522
1.89725
1.88898
1.88052
1.8719
1.8633
1.85493
1.84677
1.83884
1.8312
1.82384
1.81663
1.8096
1.80293
1.79651
1.79035
1.78476
1.77989
1.77541
1.77144
1.76822
1.76499
1.76151
1.75939
1.75766
1.75535
1.7543
1.75418
1.75271
1.75172
1.75196
1.75139
1.75069
1.75113
1.75272
1.75375
1.75508
1.7584
1.76167
1.7641
1.76795
1.7713
1.77343
1.77719
1.77912
1.77904
1.78034
1.78178
1.78011
1.77692
1.77425
1.77263
1.77053
1.76744
1.76395
1.76055
1.75714
1.75356
1.7499
1.74619
1.74227
1.73792
1.84925
1.8417
1.83601
1.83097
1.82394
1.81589
1.80761
1.79878
1.78968
1.78004
1.76954
1.76252
1.75657
1.75048
1.74395
1.74035
1.73737
1.74463
1.77302
1.83942
1.95835
2.07871
2.21156
2.27716
2.31784
2.34508
2.35327
2.35245
2.34515
2.32879
2.30997
2.29233
2.276
2.26102
2.24708
2.23353
2.22071
2.20887
2.1971
2.18462
2.17144
2.15798
2.14476
2.13251
2.12146
2.11145
2.10224
2.09334
2.08411
2.07415
2.06316
2.05139
2.03976
2.02853
2.01793
2.00884
1.9994
1.98944
1.98169
1.97421
1.96705
1.96163
1.95664
1.95174
1.94712
1.94257
1.93747
1.93149
1.92463
1.91706
1.90885
1.9001
1.89108
1.88195
1.87284
1.86397
1.8555
1.84742
1.83957
1.83188
1.82431
1.81672
1.80925
1.80219
1.79553
1.78926
1.78348
1.7783
1.77361
1.76976
1.7666
1.76321
1.7602
1.7582
1.75577
1.75279
1.75133
1.75019
1.74818
1.74682
1.74622
1.74494
1.743
1.74173
1.7412
1.74012
1.73964
1.73992
1.73986
1.74015
1.7421
1.74399
1.7454
1.74864
1.75078
1.75131
1.75329
1.75434
1.75294
1.75166
1.75003
1.74895
1.74762
1.74533
1.74272
1.74007
1.73715
1.73393
1.73046
1.72676
1.72268
1.71799
1.86507
1.85799
1.85259
1.84653
1.83866
1.83038
1.8218
1.81278
1.80341
1.79345
1.78299
1.7772
1.77152
1.7677
1.76615
1.77581
1.80821
1.88943
2.00165
2.1436
2.25725
2.31673
2.36459
2.38677
2.3898
2.38531
2.37206
2.35459
2.33964
2.32438
2.30747
2.2915
2.2777
2.26623
2.25592
2.24486
2.23219
2.21813
2.20335
2.18881
2.17526
2.16318
2.15228
2.14193
2.13165
2.12107
2.1101
2.09904
2.08798
2.07708
2.06656
2.05621
2.04609
2.03639
2.0259
2.01512
2.00536
1.99604
1.98836
1.98239
1.97675
1.9715
1.96675
1.96182
1.95645
1.95057
1.94399
1.93658
1.92843
1.91975
1.91064
1.90126
1.89199
1.88298
1.87418
1.86565
1.85742
1.84943
1.84155
1.83368
1.82578
1.81786
1.8102
1.80288
1.79612
1.78998
1.78437
1.77903
1.77395
1.7697
1.76607
1.76272
1.76037
1.75831
1.75566
1.75362
1.7522
1.74967
1.74707
1.74557
1.7441
1.74219
1.74004
1.73826
1.73679
1.73498
1.73386
1.73285
1.73085
1.72973
1.72951
1.72914
1.72941
1.7303
1.72953
1.72899
1.72996
1.72948
1.72869
1.72813
1.72668
1.72575
1.72459
1.7226
1.7204
1.71814
1.71552
1.71253
1.70926
1.70561
1.70146
1.69663
1.88058
1.8742
1.86838
1.8611
1.85266
1.84421
1.83512
1.82588
1.81633
1.80592
1.79788
1.794
1.79498
1.8056
1.84601
1.93212
2.05178
2.20421
2.29464
2.37276
2.4158
2.42049
2.41674
2.41135
2.39753
2.38357
2.37029
2.35544
2.3414
2.32871
2.3164
2.30331
2.28917
2.27471
2.2609
2.24772
2.23455
2.22145
2.20872
2.19627
2.18403
2.17183
2.15936
2.14715
2.13587
2.12558
2.1159
2.106
2.0957
2.0851
2.07386
2.06223
2.05035
2.03865
2.02955
2.02128
2.01205
2.00429
1.99809
1.99197
1.98605
1.98076
1.97547
1.96964
1.96315
1.95605
1.94837
1.94012
1.93135
1.92219
1.91275
1.90315
1.89377
1.88487
1.87634
1.8681
1.86008
1.85219
1.84433
1.83636
1.82832
1.82037
1.81274
1.80527
1.7982
1.79188
1.78635
1.78123
1.77644
1.77233
1.76843
1.76458
1.76187
1.75959
1.75718
1.75504
1.75318
1.75151
1.75016
1.74854
1.74564
1.7422
1.73983
1.738
1.73603
1.73424
1.73292
1.73098
1.72831
1.72689
1.72577
1.72445
1.72361
1.72244
1.72059
1.71925
1.71795
1.71609
1.71434
1.71242
1.71025
1.70901
1.70787
1.7061
1.70416
1.70223
1.69994
1.69702
1.69348
1.6894
1.68491
1.68019
1.89577
1.88977
1.8828
1.87453
1.86576
1.85674
1.84748
1.83815
1.82933
1.82174
1.82307
1.836
1.88382
1.97036
2.11476
2.24501
2.34524
2.43038
2.45034
2.45198
2.44775
2.43952
2.42771
2.41491
2.40235
2.39153
2.3814
2.36906
2.35339
2.3364
2.32016
2.30559
2.29164
2.27769
2.26428
2.25178
2.23969
2.22718
2.2135
2.19915
2.18558
2.17395
2.16393
2.15411
2.14366
2.13248
2.12107
2.1094
2.098
2.08721
2.0765
2.06591
2.05597
2.04606
2.03537
2.02685
2.01973
2.01276
2.0066
2.00093
1.9952
1.98935
1.98312
1.97618
1.9685
1.96027
1.95163
1.94261
1.93324
1.92369
1.91418
1.90482
1.89584
1.88741
1.87937
1.87151
1.86373
1.85599
1.84818
1.84015
1.83199
1.824
1.81642
1.8091
1.80209
1.7956
1.78979
1.78452
1.77982
1.77597
1.77263
1.76946
1.76609
1.76282
1.7606
1.7587
1.75663
1.75424
1.75233
1.75056
1.74867
1.74694
1.74504
1.74222
1.73857
1.73597
1.73367
1.73113
1.72925
1.72765
1.72573
1.72397
1.72235
1.72037
1.71844
1.71684
1.71484
1.71231
1.70955
1.70672
1.70408
1.70172
1.69948
1.69732
1.69522
1.69316
1.69091
1.68811
1.68467
1.68089
1.67712
1.67351
1.91016
1.90379
1.89569
1.88685
1.87798
1.8688
1.86093
1.85278
1.85392
1.86984
1.91964
2.02105
2.16605
2.28652
2.40812
2.47398
2.48289
2.48535
2.47971
2.47239
2.46172
2.45009
2.43969
2.42906
2.41635
2.40019
2.38309
2.3671
2.35193
2.33656
2.32169
2.30837
2.29654
2.2849
2.27228
2.25848
2.24402
2.22953
2.21567
2.20257
2.18994
2.17787
2.16675
2.15711
2.1485
2.13959
2.12891
2.11703
2.10509
2.09324
2.08155
2.06961
2.05742
2.04866
2.04156
2.03444
2.02771
2.02146
2.01539
2.0092
2.00266
1.99581
1.98858
1.98074
1.97234
1.96352
1.95434
1.94482
1.93507
1.9254
1.91609
1.90721
1.89881
1.89089
1.88327
1.87568
1.86808
1.86051
1.85288
1.84501
1.83701
1.82915
1.82158
1.81437
1.80766
1.80144
1.79565
1.79021
1.78506
1.7805
1.7768
1.77376
1.77116
1.76899
1.76672
1.76372
1.761
1.75937
1.75795
1.75604
1.75347
1.75055
1.74773
1.74526
1.74327
1.7415
1.73943
1.73723
1.73481
1.7319
1.72902
1.72645
1.7239
1.72139
1.71922
1.71712
1.71477
1.71205
1.7091
1.70611
1.70326
1.70077
1.69854
1.69635
1.69405
1.69162
1.68897
1.68595
1.68269
1.67944
1.67614
1.67268
1.92316
1.91605
1.90746
1.89927
1.89271
1.88425
1.88717
1.90601
1.96219
2.07353
2.20185
2.35527
2.45847
2.4955
2.5196
2.52271
2.51644
2.50794
2.49803
2.48798
2.47642
2.46282
2.44699
2.43042
2.41409
2.39761
2.38122
2.36644
2.35371
2.34209
2.3298
2.31594
2.30084
2.28552
2.27085
2.25675
2.24283
2.229
2.21592
2.20463
2.19456
2.18433
2.17364
2.16267
2.151
2.13889
2.12746
2.11679
2.10537
2.09342
2.08299
2.07263
2.0629
2.05454
2.04702
2.04084
2.03522
2.02951
2.02347
2.01683
2.00945
2.00149
1.99318
1.98447
1.97537
1.96601
1.95649
1.9469
1.93736
1.92805
1.91918
1.91077
1.90275
1.89515
1.88782
1.8805
1.87311
1.86572
1.85823
1.8506
1.84293
1.83538
1.82787
1.82051
1.81373
1.80761
1.80212
1.79706
1.79225
1.78794
1.78415
1.78044
1.77648
1.77315
1.77104
1.76929
1.76758
1.76566
1.76337
1.76103
1.75898
1.7571
1.75511
1.75283
1.75027
1.74754
1.7448
1.74225
1.73992
1.73757
1.73527
1.73291
1.73029
1.72744
1.72438
1.72114
1.71784
1.71462
1.71164
1.70895
1.70634
1.70368
1.70103
1.69843
1.69583
1.69325
1.69061
1.68769
1.68464
1.6819
1.67927
1.67689
1.93569
1.92924
1.92294
1.9172
1.92298
1.94872
2.0128
2.11982
2.26965
2.39437
2.49048
2.53913
2.55354
2.55764
2.55371
2.54333
2.53366
2.51931
2.5019
2.48511
2.47019
2.45637
2.44163
2.42621
2.41228
2.39956
2.38631
2.37157
2.35575
2.34022
2.326
2.31244
2.29857
2.28431
2.27005
2.2562
2.24312
2.23077
2.21889
2.20706
2.19526
2.1839
2.17289
2.16189
2.15089
2.14007
2.12935
2.11887
2.10864
2.09717
2.08519
2.0759
2.06798
2.06103
2.05464
2.04851
2.04239
2.03605
2.02932
2.02199
2.01402
2.00565
1.99704
1.98807
1.97873
1.96916
1.95946
1.9498
1.94032
1.93122
1.92267
1.91466
1.907
1.89971
1.89273
1.8858
1.87885
1.87188
1.86476
1.85748
1.85017
1.84299
1.83587
1.82878
1.82188
1.8153
1.80911
1.80341
1.79824
1.79402
1.79073
1.7878
1.78477
1.78191
1.77925
1.77637
1.77364
1.77172
1.76991
1.76792
1.76578
1.76349
1.76123
1.75919
1.75726
1.75527
1.75324
1.75098
1.7484
1.74569
1.74296
1.74015
1.73727
1.73436
1.73137
1.7283
1.72516
1.72195
1.71872
1.71546
1.71244
1.70977
1.70715
1.7044
1.70146
1.69842
1.69527
1.69199
1.68882
1.6859
1.68366
1.6822
1.9566
1.95593
1.96651
1.99853
2.06655
2.18527
2.31275
2.44862
2.52886
2.56662
2.59177
2.5942
2.5901
2.57887
2.56078
2.5404
2.52371
2.50941
2.49528
2.48062
2.46667
2.45394
2.44157
2.42805
2.41275
2.39662
2.38107
2.36628
2.35152
2.33701
2.32336
2.31045
2.29788
2.28511
2.27182
2.25801
2.24418
2.23093
2.21863
2.20716
2.1961
2.1853
2.17459
2.16381
2.15324
2.14305
2.13242
2.12097
2.10995
2.0999
2.08974
2.08046
2.07315
2.06689
2.0609
2.05497
2.04888
2.04231
2.03504
2.02699
2.01824
2.009
1.99948
1.98984
1.98036
1.97115
1.96208
1.95312
1.94433
1.93579
1.92769
1.92001
1.91257
1.90535
1.89839
1.89157
1.88485
1.87824
1.87163
1.8649
1.85806
1.85121
1.84443
1.83772
1.83123
1.82514
1.81943
1.81393
1.80872
1.80391
1.79919
1.79487
1.79118
1.7887
1.78681
1.78475
1.78237
1.77985
1.77735
1.77503
1.77318
1.7716
1.76993
1.76794
1.76568
1.76335
1.76114
1.75897
1.75685
1.75477
1.75256
1.75007
1.74726
1.74415
1.7409
1.73764
1.73453
1.73163
1.72878
1.72572
1.72244
1.7192
1.71599
1.71263
1.7092
1.70565
1.70205
1.6987
1.6956
1.69272
1.69091
1.68963
2.03278
2.06621
2.137
2.23655
2.37039
2.48653
2.55649
2.60878
2.624
2.62401
2.61531
2.59964
2.58243
2.56618
2.54933
2.53188
2.5161
2.50347
2.49286
2.48235
2.47031
2.45529
2.43827
2.42132
2.40525
2.38995
2.37574
2.36244
2.3495
2.33643
2.32308
2.30972
2.29657
2.28349
2.27031
2.25694
2.24351
2.23063
2.21884
2.208
2.19759
2.18716
2.17659
2.16599
2.15499
2.14433
2.13462
2.12434
2.11309
2.10303
2.09478
2.08712
2.08012
2.07363
2.06725
2.06065
2.05366
2.04624
2.03841
2.03016
2.02152
2.01248
2.00311
1.99363
1.98436
1.97534
1.96645
1.95773
1.94922
1.94102
1.93329
1.92604
1.91902
1.91213
1.90539
1.89873
1.89215
1.8857
1.87937
1.87312
1.86691
1.86069
1.85441
1.84794
1.84133
1.8349
1.82899
1.82368
1.81891
1.81462
1.81036
1.80618
1.80219
1.79864
1.79587
1.79356
1.79151
1.78948
1.78727
1.7848
1.78219
1.77954
1.77759
1.77613
1.7747
1.77323
1.7717
1.76989
1.76768
1.76528
1.76285
1.76046
1.75809
1.75554
1.75281
1.74995
1.74689
1.74369
1.74042
1.73707
1.73357
1.7299
1.72617
1.72241
1.71863
1.71478
1.71113
1.70793
1.70481
1.70207
1.70022
1.69849
2.20931
2.28984
2.41503
2.50635
2.58964
2.63158
2.64028
2.63983
2.63381
2.61792
2.6012
2.58554
2.57055
2.55658
2.54349
2.53052
2.51755
2.50498
2.49212
2.47847
2.46393
2.44819
2.43122
2.41456
2.39942
2.38578
2.37289
2.35995
2.34666
2.33316
2.31977
2.30677
2.29415
2.28168
2.26908
2.25634
2.24365
2.23135
2.21979
2.20899
2.19869
2.18848
2.17823
2.16833
2.15806
2.14652
2.13676
2.12796
2.11828
2.1089
2.10067
2.09334
2.08657
2.08007
2.07346
2.0665
2.05916
2.05144
2.0432
2.03433
2.02496
2.01544
2.00603
1.99686
1.9881
1.97954
1.9712
1.96321
1.95546
1.94787
1.94053
1.93348
1.9266
1.91984
1.91322
1.90671
1.90033
1.89412
1.8881
1.88225
1.87654
1.87093
1.86549
1.85998
1.85422
1.8483
1.84229
1.83631
1.83067
1.8254
1.82125
1.81793
1.81464
1.81144
1.80842
1.80552
1.80288
1.80055
1.7984
1.79629
1.79419
1.79184
1.78921
1.78658
1.78447
1.78322
1.78225
1.78112
1.77968
1.77796
1.77588
1.77333
1.77044
1.76753
1.76473
1.76197
1.75915
1.75617
1.75286
1.74919
1.74521
1.74101
1.7367
1.73244
1.72822
1.72414
1.72057
1.71733
1.714
1.71126
1.70906
1.7069
2.41135
2.5113
2.60042
2.64202
2.66717
2.6671
2.66277
2.64715
2.62751
2.61125
2.59508
2.57938
2.56515
2.55182
2.53877
2.52602
2.51329
2.50047
2.48706
2.4728
2.45773
2.44228
2.42692
2.41177
2.39674
2.38204
2.368
2.3547
2.34191
2.32928
2.31668
2.30441
2.29253
2.28082
2.26889
2.25666
2.24452
2.23277
2.2216
2.21098
2.20074
2.19074
2.18055
2.16987
2.16003
2.15008
2.1404
2.13205
2.12376
2.11567
2.10821
2.10121
2.09435
2.08737
2.08008
2.07228
2.06403
2.0555
2.04667
2.03755
2.02835
2.01934
2.01063
2.00216
1.99378
1.98537
1.97721
1.96958
1.96235
1.95536
1.94862
1.9421
1.9357
1.9293
1.92291
1.9166
1.91049
1.90455
1.89877
1.8932
1.88769
1.88213
1.87682
1.87185
1.86686
1.86178
1.85653
1.85112
1.84589
1.84067
1.83584
1.83242
1.82929
1.8262
1.82332
1.82048
1.81765
1.81489
1.81207
1.80928
1.80684
1.80472
1.80237
1.79968
1.79697
1.79522
1.79396
1.7926
1.79107
1.78939
1.78749
1.78515
1.78231
1.77917
1.77606
1.77298
1.76989
1.76686
1.76361
1.75991
1.75581
1.75138
1.74668
1.7419
1.73722
1.73294
1.72925
1.72582
1.72262
1.71979
1.7169
1.71395
2.56988
2.63868
2.6705
2.68219
2.67894
2.66568
2.6485
2.6314
2.61531
2.60096
2.58699
2.57335
2.56029
2.54734
2.534
2.52073
2.50803
2.49596
2.48405
2.47131
2.45687
2.44065
2.4235
2.40648
2.39035
2.37557
2.36223
2.35004
2.33863
2.32772
2.31677
2.30524
2.29295
2.2805
2.26855
2.2571
2.24591
2.23485
2.22398
2.21333
2.20287
2.19302
2.18376
2.17379
2.16278
2.1537
2.1462
2.13837
2.13039
2.12283
2.11569
2.1087
2.10166
)
;

boundaryField
{
    inlet
    {
        type            calculated;
        value           nonuniform 0();
    }
    outlet
    {
        type            calculated;
        value           nonuniform 0();
    }
    bottom
    {
        type            symmetryPlane;
    }
    top
    {
        type            symmetryPlane;
    }
    obstacle
    {
        type            calculated;
        value           nonuniform 0();
    }
    front
    {
        type            empty;
    }
    back
    {
        type            empty;
    }
    procBoundary38to30
    {
        type            processor;
        value           nonuniform List<scalar> 
133
(
1.61086
1.60683
1.60129
1.59556
1.5902
1.58455
1.57891
1.57212
1.5659
1.56162
1.55674
1.55217
1.54951
1.54704
1.54371
1.53967
1.53674
1.53807
1.54961
1.58277
1.65613
1.77056
1.88697
2.01422
2.06532
2.10441
2.12172
2.12076
2.11704
2.10602
2.09592
2.0856
2.07365
2.06211
2.05329
2.0452
2.03721
2.02876
2.01946
2.00978
1.99994
1.99006
1.98058
1.97184
1.96363
1.95552
1.94707
1.9378
1.92759
1.91684
1.90633
1.89638
1.88721
1.87929
1.87332
1.86919
1.86632
1.86486
1.86457
1.86352
1.86217
1.86038
1.85953
1.86134
1.86657
1.87687
1.89387
1.91168
1.93382
1.95387
1.97026
1.98097
1.98854
1.9942
1.99262
1.99
1.98863
1.98541
1.98068
1.97531
1.96917
1.96219
1.95488
1.94772
1.94044
1.9336
1.92745
1.92179
1.91674
1.9118
1.90633
1.90063
1.89523
1.88999
1.88458
1.87911
1.87376
1.86867
1.86377
1.85878
1.85354
1.84822
1.84341
1.83981
1.83669
1.83369
1.83064
1.8273
1.82358
1.81956
1.81522
1.81061
1.80592
1.80154
1.79756
1.79358
1.73858
1.73121
1.72394
1.71557
1.70928
1.7046
1.69836
1.69112
1.68366
1.67551
1.66663
1.65769
1.64968
1.64269
1.63558
1.62826
1.62826
)
;
    }
    procBoundary38to31
    {
        type            processor;
        value           uniform 1.78713;
    }
    procBoundary38to37
    {
        type            processor;
        value           nonuniform List<scalar> 
16
(
1.76148
1.7759
1.79076
1.8067
1.8234
1.84001
1.85634
1.87269
1.88827
1.9029
1.91642
1.9289
1.94115
1.9584
2.01309
2.15321
)
;
    }
    procBoundary38to39
    {
        type            processor;
        value           nonuniform List<scalar> 
17
(
1.78111
1.77704
1.77038
1.7623
1.75069
1.73305
1.71256
1.69125
1.67561
1.67025
1.67018
1.67508
1.68106
1.68856
1.69682
1.70478
1.71108
)
;
    }
    procBoundary38to45
    {
        type            processor;
        value           nonuniform List<scalar> 2(2.33352 2.48677);
    }
    procBoundary38to46
    {
        type            processor;
        value           nonuniform List<scalar> 
133
(
2.09438
2.08674
2.07862
2.07001
2.06097
2.05164
2.04223
2.03304
2.02423
2.01587
2.00791
2.00015
1.99252
1.98506
1.97796
1.97119
1.9646
1.95819
1.952
1.94598
1.93996
1.93383
1.9277
1.92175
1.91599
1.91065
1.90591
1.90132
1.89649
1.89159
1.88686
1.88195
1.87683
1.87169
1.86657
1.86184
1.85744
1.85312
1.8498
1.84674
1.84336
1.84022
1.83719
1.83403
1.83108
1.82797
1.82463
1.82127
1.81827
1.81528
1.81207
1.80866
1.80627
1.80459
1.80281
1.80092
1.79893
1.79682
1.79441
1.79155
1.78831
1.78499
1.7817
1.77827
1.77478
1.77136
1.76767
1.76359
1.7592
1.75444
1.74941
1.74441
1.73985
1.73577
1.73201
1.72864
1.72543
1.72211
1.71877
2.6491
2.67401
2.68253
2.67674
2.66544
2.65234
2.63802
2.62324
2.60817
2.5945
2.58248
2.57071
2.55857
2.54601
2.53307
2.51995
2.5068
2.49369
2.48055
2.46687
2.45213
2.43616
2.4193
2.40224
2.38611
2.37196
2.35989
2.34918
2.33902
2.32886
2.31809
2.30615
2.29325
2.28057
2.26903
2.25846
2.24825
2.23802
2.2277
2.21723
2.2066
2.19603
2.18674
2.17834
2.16936
2.16013
2.15214
2.14496
2.13772
2.13063
2.1237
2.11669
2.09438
2.10943
)
;
    }
}


// ************************************************************************* //
