/*--------------------------------*- C++ -*----------------------------------*\
  =========                 |
  \\      /  F ield         | OpenFOAM: The Open Source CFD Toolbox
   \\    /   O peration     | Website:  https://openfoam.org
    \\  /    A nd           | Version:  7
     \\/     M anipulation  |
\*---------------------------------------------------------------------------*/
FoamFile
{
    version     2.0;
    format      ascii;
    class       volScalarField;
    location    "0.261";
    object      T;
}
// * * * * * * * * * * * * * * * * * * * * * * * * * * * * * * * * * * * * * //

dimensions      [0 2 -2 0 0 0 0];

internalField   nonuniform List<scalar> 
12359
(
2.43776e-86
-1.45874e-69
-1.92931e-239
-2.77257e-45
3.9958e-79
-1.68754e-31
1.89431e-25
-2.0085e-28
-2.48718e-21
7.5225e-34
-8.41551e-23
-9.91975e-15
0.026337
4.43948e-43
3.82029e-48
-3.42431e-07
-3.83633e-05
-1.54891e-130
7.99324e-134
2.84365e-57
8.1021e-40
4.95076e-17
4.02917e-63
-9.05247e-55
-8.41904e-67
-4.56557e-60
2.53008e-173
-3.86185e-177
1.58341e-140
-2.86019e-164
5.70308e-157
-4.81886e-193
1.01425e-212
9.3229e-167
6.82517e-227
-1.10962e-153
1.09745e-105
1.59296e-90
3.36967e-82
4.74002e-96
1.88004e-72
-2.18268e-93
-5.84266e-114
2.65139e-117
-6.05999e-148
-4.11023e-144
1.52677e-150
-2.04599e-160
-3.85667e-137
-6.38918e-170
-3.93129e-180
-2.63684e-186
1.48621e-196
2.58963e-127
-6.13327e-203
-2.53049e-209
-3.8082e-121
-3.2716e-216
8.7502e-220
-2.4799e-223
4.51795e-206
-2.28697e-233
4.30895e-183
2.99717
-2.62623e-124
-1.03703e-36
-2.00459e-108
1.39552e-189
3.23925e-102
1.02286e-09
76.0154
-1.25181e-75
7.78102e-244
-7.07521e-99
-2.59295e-51
-2.11669e-231
3.32168e-201
3.44701e-236
3.54926e-111
-1.19891e-13
6.20777e-35
-1.66057e-157
0
-4.63983e-98
0.000182489
2.06928e-109
-5.97527e-155
2.06748e-219
0.0451652
4.64408e-05
1.34962e-272
1.60191
2.83781e-275
1.72067e-127
4.72121e-103
6.01944e-87
-1.51673e-133
-5.2682e-128
1.56856e-65
4.59667e-81
5.4308e-29
-1.19751e-262
-1.99007e-110
10.2247
3.82793e-167
1.75724e-44
8.43194e-283
0.000207612
1.40206e-118
4.57723e-46
-6.25661e-136
-2.94805e-156
-7.51829e-40
1.09095e-33
-8.34898e-104
3.93453e-195
-1.74768e-32
7.80519e-157
0.229896
0
7.74748e-138
-9.24537e-30
1.52083e-215
1.64771e-64
2.41794e-155
-1.86806e-183
5.18022e-22
1.71819e-97
-1.03937e-237
1.19796e-156
-2.17313e-194
7.87857e-15
5.5009e-12
1.5057e-12
-1.02402e-285
3.77187e-64
-1.05773e-194
-2.70745e-66
-1.99383e-257
2.79055e-23
3.58294e-314
-2.0995e-85
2.07866e-60
-7.29341e-284
3.31915e-27
-2.76703e-35
0
4.61299e-05
1.0685e-166
1.11419e-32
5.41142e-86
-2.41006e-259
4.10829e-59
-5.62053e-214
3.35603e-282
96.2219
3.16368e-30
3.37064e-15
5.08153e-134
-1.73169e-203
-6.28063e-46
-7.03533e-202
4.65573e-65
9.10654e-61
3.40512e-314
-1.13465e-185
-7.37457e-48
8.46514e-29
1.01974e-62
0.0536652
7.1179e-234
8.16346e-232
3.54276e-65
7.10805e-69
3.52251e-169
1.01421e-23
-3.5377e-147
-4.3623e-149
3.00121e-39
4.95457e-25
2.46413e-44
7.20042e-280
4.73197e-238
-2.38738e-156
3.61832e-67
-1.28706e-19
7.83595e-131
2.32266e-107
1.58005e-83
-1.76069e-131
7.95179e-106
8.20719e-89
3.03856e-89
-3.39738e-212
4.9987e-46
12.8918
-2.74209e-89
1.59259e-130
-6.17212e-58
1.90394e-155
-1.32335e-33
1.46424e-84
-1.15028e-79
1.07624e-46
1.38947e-31
7.41013e-281
7.05925e-30
-4.20034e-78
4.15867e-58
1.24824e-141
1.42248e-305
1.052e-31
6.53542e-31
141.222
-5.92362e-19
-9.20362e-256
1.4822e-130
-1.7374e-106
1.53439e-129
-2.46744e-83
3.32002e-34
4.91579e-143
4.01065e-66
1.68009
-1.21961e-156
1.50628e-305
-9.78486e-82
7.43072e-121
1.48195e-25
-1.47348e-126
-9.12467e-126
6.75146e-319
4.02352e-27
1.27966e-74
-2.02905e-108
2.76477e-76
0
7.03715e-56
6.32214e-107
6.28737e-06
-4.83429e-303
-1.35075e-105
-8.49287e-117
1.1235e-12
-8.44498e-44
6.03064e-05
-4.27958e-222
1.66707e-59
-4.65851e-176
2.60223e-89
5.04179e-41
-4.65341e-93
4.99353e-153
-2.04984e-125
0.593426
114.476
0
5.9936e-149
0.596561
129.257
9.77954e-80
1.22145e-45
2.92282e-28
3.59269e-47
-1.13471e-69
47.8753
0.167892
7.87623e-42
-6.84362e-152
1.77755e-63
6.68206e-64
1.89868e-65
2.77814e-61
9.56349e-128
6.77749e-145
5.53655e-305
1.99118e-147
2.6724
1.0131e-41
-8.96458e-265
3.66279e-263
1.83639e-47
-1.71279e-152
9.84737e-110
-1.63422e-107
3.28055e-319
2.31078e-28
-1.50881e-260
2.1513e-263
1.1954e-195
1.45395e-66
-8.50452e-160
43.9433
7.77303e-285
3.89505e-281
1.86717e-108
8.00401e-178
3.3558e-35
-2.05199e-108
-1.33945e-184
-7.65365e-272
2.05629
6.71679e-27
6.72498e-273
1.19479e-129
-2.80084e-110
-1.90679e-174
3.26379e-195
4.61133e-195
-2.49571e-172
-3.1654e-138
-1.0291e-19
-4.07842e-175
-1.08492e-158
-3.25017e-91
2.55429e-50
0.0345857
5.06816e-173
2.39227e-68
3.89793e-08
-2.39412e-263
3.08516e-69
1.18889e-260
9.38531e-87
-2.71688e-281
-5.02725e-172
1.73747e-21
1.84431e-64
-8.61344e-21
2.40274e-111
5.37692e-119
3.5149e-90
1.61692e-86
2.71048e-116
5.20119e-91
2.48184e-90
2.84325e-240
7.45326e-211
1.27592e-211
-2.06036e-208
3.73066e-209
5.22948e-05
2.25498e-318
1.14985e-32
2.94772e-69
6.75008e-70
4.18551e-58
2.70975e-63
1.26058e-109
2.26942e-90
3.2586e-64
1.27878e-90
4.76885e-69
2.76028e-46
5.81232e-45
2.03977e-39
-7.3334e-84
5.85464e-20
-7.79329e-87
-1.62037e-86
2.26487e-58
1.31168e-25
4.66436e-157
6.11224e-202
1.94181e-87
8.41828e-204
-8.59297e-156
139.417
11.835
-6.4968e-156
6.70881e-254
-1.96999e-287
-1.21985e-288
1.45311e-65
8.88839e-280
1.56849e-281
0.101548
4.27909e-61
3.69193e-05
3.16379e-156
1.3183e-52
-1.85296e-154
-4.71325e-115
-3.15509e-42
1.09187e-88
-1.04598e-45
1.43309e-90
-3.7154e-159
1.68336e-262
3.49389e-62
3.23486e-53
6.53117e-161
1.20479e-14
-8.85365e-43
2.40001e-87
-1.79215e-58
-6.6918e-49
4.93696e-255
5.79178
9.54681e-19
1.55551e-154
2.13652e-13
-3.83354e-88
8.67805e-312
-3.95062e-313
-5.38438e-294
8.25577e-05
7.67284e-27
8.31914e-67
3.10287e-71
3.69946e-87
2.26569e-101
1.80964e-45
-6.13903e-60
3.55211e-24
0.0487053
3.22355e-13
-4.22013e-69
1.22549e-40
1.41412e-116
3.36013e-41
2.68735e-94
1.55268e-85
1.4589e-167
2.10019e-96
8.149e-64
1.65503e-278
118.013
1.66313e-108
0.000537728
3.79422e-56
5.18305e-121
6.25466e-38
0.486784
2.80317e-61
7.76566e-85
2.51542e-88
2.2491e-54
8.16194e-41
4.29811e-152
-1.62335e-302
2.32376e-32
-2.51262e-279
1.47244e-15
-3.32125e-192
-4.61079e-62
6.34926e-45
1.23244e-138
0.000655432
1.05719e-31
-2.13856e-82
-1.63507e-147
5.40708e-07
1.7182e-246
4.25061e-161
5.99749e-23
1.47852e-251
-9.17691e-148
1.32746e-162
2.33748e-09
13.0197
3.21102e-101
-1.24399e-223
-5.02454e-42
-1.33174e-50
5.53152e-70
4.23546e-56
5.30202e-63
7.1251e-239
-1.2579e-290
-1.1873e-56
4.41298e-269
2.89767e-46
1.69465e-70
3.07404e-42
3.19437e-151
4.49087e-34
9.68064e-22
3.05867e-167
-1.13826e-101
-7.17133e-159
-4.61052e-37
4.5078e-23
-1.15079e-257
-2.30963e-54
2.61281e-66
4.18034e-119
-2.96575e-52
-3.64269e-191
2.27528e-27
-1.00232e-99
1.19694e-60
2.25927e-43
4.49136e-238
1.65876e-102
2.81453e-14
7.38821e-11
4.31988e-271
-1.45871e-81
5.54649e-13
1.98333e-79
0.307675
-1.84991e-295
-3.49186e-194
2.12492e-244
1.69722e-57
8.51791e-81
-1.18121e-90
-3.46874e-189
1.5171e-57
1.00322e-82
1.20846e-72
-9.35176e-146
5.54327e-06
-7.06177e-274
1.9993e-05
4.28282e-219
131.31
-2.51824e-98
2.31492e-15
-4.75952e-220
-2.26602e-152
1.17541e-48
-2.5761e-158
-4.45576e-186
-5.541e-114
3.10059e-78
5.36004e-79
1.61533e-15
4.18723e-36
8.22125e-37
0
-7.52904e-159
1.91689e-67
1.78613e-10
0
-7.62238e-269
5.1682e-65
7.68448e-242
-1.06478e-21
0.565709
34.8697
0
-9.56331e-109
1.26683e-39
-1.6368e-87
-2.18623e-170
75.9684
-8.06557e-273
2.46254e-30
1.81633e-43
2.58551e-109
-9.4943e-174
-7.75568e-183
5.23352e-140
1.95489e-70
4.28556e-92
-1.00891e-96
0
4.57461e-236
6.2462e-83
-4.0567e-148
6.61786e-38
5.17555e-58
1.48295e-193
-2.44337e-266
3.11478e-45
117.34
4.19945e-160
5.86853e-25
-1.11283e-289
-1.40523e-95
5.86912e-31
5.56196e-82
2.44925e-42
9.02594e-37
-1.1212e-80
1.98395e-63
6.34082e-308
-4.13628e-227
1.81159e-85
-3.78785e-101
-8.04874e-82
5.28424e-102
6.45828e-285
2.21572e-265
3.20172e-184
-1.26166e-64
1.73272e-56
-1.30638e-42
3.81262e-107
-4.25178e-40
-4.5185e-59
7.47941e-83
-1.09559e-38
5.97558e-68
0.000762071
1.75809e-59
-1.14659e-66
2.3748e-40
8.45071e-231
2.88592e-32
5.3811e-48
0
5.2224e-250
8.66772e-241
3.1687e-227
3.88599e-10
5.94592e-83
1.54094e-127
-9.83854e-42
-3.97597e-113
5.20119e-20
1.19978e-80
2.26774e-69
1.48499e-182
3.10727e-18
7.34947e-286
-3.17475e-64
3.0682e-148
2.88479e-24
2.54857e-38
-1.11157e-86
1.24019e-84
5.29141
2.55756e-62
3.04513e-19
2.75039e-94
9.86023e-15
0.231541
4.82474e-229
4.74995e-155
-8.71399e-288
4.1206e-12
-5.40026e-155
7.79182e-92
0.000677752
-2.24354e-270
1.3768e-70
1.86218e-44
-9.38848e-89
-2.45445e-156
7.17393e-88
-3.01268e-210
-2.25775e-84
-3.12196e-208
-2.15221e-212
-2.10642e-89
1.50196e-64
3.72381e-65
-3.58305e-87
-2.35259e-11
2.17836e-83
11.4605
1.76951e-59
-4.43257e-108
-1.19107e-86
1.62134e-61
2.36742e-68
3.15248e-88
0.204558
-1.38534e-45
5.53795e-71
2.26801e-73
-2.54403e-136
-2.14436e-149
4.79547e-46
-6.88348e-301
0.63699
8.1026e-198
-2.58742e-44
4.64087e-30
4.80269e-11
5.58487e-33
5.63533e-51
1.10434e-46
2.35501e-95
1.03355e-32
1.31644e-53
2.27066e-19
1.80589e-73
1.35958e-21
6.8271e-74
1.44267e-321
1.15415e-68
150.151
7.04354e-17
-2.25169e-126
5.2423e-312
-4.20776e-193
1.55714e-109
-1.76906e-63
1.69265e-66
-1.47607e-94
4.71307e-240
7.46528e-123
-1.5164e-67
1.08431e-128
1.82384e-145
1.70378e-21
1.19815e-122
4.55108e-57
3.02562e-47
-5.98771e-124
3.00613e-118
1.04675e-35
0
-7.60677e-116
37.4764
1.77821e-225
1.39955e-25
5.44005e-31
1.52798e-119
3.94265e-42
8.89332e-47
-2.29014e-69
9.34095e-40
1.88677e-157
6.70072e-43
1.08275e-170
3.62522e-91
2.51196e-49
-2.72198e-40
2.43937e-157
3.60125e-62
4.55304e-15
-7.57146e-59
4.53069e-93
1.28548e-153
2.75551e-31
2.51412e-08
-4.04812e-140
-1.32247e-256
-2.11076e-71
2.90972e-276
0.267489
5.53864e-74
9.31623e-17
8.73094e-97
-2.75106e-96
5.45394
3.14765e-89
0.000212651
2.91643e-68
30.4163
4.23134e-67
-1.54132e-95
4.48353e-91
4.78243e-121
0.000192322
5.44894e-06
3.18628e-225
2.60186e-221
-2.73693e-37
8.15103e-209
0.000561204
1.64546e-42
7.1688e-13
-2.46554e-154
115.133
0.0288026
3.97739e-73
2.12152e-320
6.8407e-163
-1.65885e-48
4.14795e-108
3.18419e-105
-2.75042e-104
1.00045e-63
3.72892e-55
6.81234
-1.85042e-10
5.21278e-242
9.68771e-48
1.31444e-38
1.81864e-35
1.21054e-95
2.99223e-29
1.61668e-58
-3.95626e-47
-7.54245e-156
-2.46187e-317
1.88846e-35
9.93376e-32
-2.23408e-96
-5.73601e-39
5.92852e-18
-5.82758e-110
-3.98144e-71
-2.62432e-147
2.59213e-107
8.04898e-19
-4.21008e-106
7.15321e-43
3.26543e-53
2.03783e-75
9.94073e-138
-3.4992e-97
5.40742e-16
1.94077e-99
5.47911e-97
7.02098
1.87626e-63
-5.01863e-111
0.00178043
0
1.88888e-97
-1.17486e-77
-1.59641e-110
-5.5189e-186
1.46137e-72
0
7.57407e-13
2.54256e-162
2.58075e-71
7.01482e-33
2.22149e-41
7.34015e-91
7.52895e-95
4.67154e-37
62.2666
5.71481e-229
3.18425e-119
1.48006e-110
0.00145099
2.2041e-31
2.32727e-159
0.970468
1.17882e-317
2.83897e-164
134.202
-4.91655e-122
1.77732e-155
6.47245e-152
1.04717e-54
-1.56669e-51
-8.64969e-224
-7.2206e-115
8.15548e-32
2.87943e-78
-6.18274e-84
-1.68524e-105
6.09435e-227
-5.473e-50
5.98868e-10
-1.10283e-84
-2.31846e-40
1.48122e-69
3.13102e-90
4.80178e-14
3.24417e-42
-1.50786e-103
3.39298e-162
1.80128e-05
1.08822e-64
1.15958e-59
1.48257e-145
5.50291e-226
1.11666e-44
4.82922e-18
9.59207e-103
3.1174e-41
7.93142e-101
-1.7617e-102
1.65344e-135
2.91101e-50
126.672
12.4689
3.22121e-49
-3.65315e-83
-1.87233e-137
3.8901e-52
0.00218795
-3.13569e-43
5.86197e-161
1.1529e-20
2.76615e-11
6.20283
-2.83928e-125
49.8519
-6.14481e-228
-9.31791e-101
1.28236e-223
9.12852e-15
3.36844e-58
49.8026
1.05781e-170
0.00450906
3.58517e-207
-2.75898e-84
1.95741e-51
1.45917e-109
1.623e-20
0.000511173
-7.33903e-119
-2.79176e-137
-3.38888e-102
-2.66885e-127
-8.70886e-121
9.45283e-18
2.81101e-61
5.21193e-94
4.24991e-20
-1.29976e-121
-1.01963e-219
-3.77924e-88
1.56206e-189
2.03414e-34
-2.92917e-103
3.0091e-13
5.55847e-15
-1.49497e-54
2.59297e-49
5.41631e-57
3.9985e-91
0.00236819
1.29913e-105
-5.77172e-127
1.70437e-284
3.44566e-19
-6.77191e-45
2.12241e-172
9.2848e-37
1.32019e-108
2.58358e-50
-6.85654e-48
-6.28077e-42
1.00043e-58
75.2641
2.20928e-56
-5.11965e-53
0.000347586
1.68574e-110
2.10915e-09
4.18499e-41
8.41414e-213
1.15615e-103
-5.24822e-145
9.46556e-94
1.08515e-309
-4.55501e-154
6.21095e-11
2.55618e-17
-3.48776e-157
138.82
3.87114e-37
-1.21724e-199
2.33901e-15
1.02751e-21
-2.93753e-205
1.22013e-13
1.96644e-34
2.87386e-15
-3.14518e-208
-1.54787e-150
6.41048e-131
-3.2539e-206
4.15933e-44
11.824
-4.25978e-166
2.04986e-15
0
1.26747
1.29806e-39
8.65797e-60
4.97098e-274
3.92807e-168
-6.75619e-99
1.5025e-60
1.41813e-19
1.11742e-49
-3.47687e-122
6.26546e-115
-1.96694e-210
2.76609e-42
1.02858e-48
-7.99203e-144
-5.95544e-251
2.01767e-81
4.63204e-51
1.26246e-56
7.49904e-183
3.57539e-10
-2.76023e-36
5.15435e-208
1.50565e-66
5.15055e-116
6.89217e-99
159.79
-1.59167e-123
-4.55198e-200
8.26064e-67
-3.16224e-46
-1.11006e-57
1.29852
1.88653e-73
3.36548e-108
5.6985e-48
-1.81471e-111
4.70306e-113
3.28252e-106
-6.24697e-110
-9.68725e-35
-1.91973e-98
11.1737
-4.68854e-56
3.46276e-12
-1.19299e-111
6.80265e-09
6.09948e-40
1.65546e-20
2.60073e-17
1.62432e-61
-3.54931e-112
5.10379e-116
2.74279e-83
0
-1.42926e-101
1.02079e-45
3.52907e-28
4.29609e-114
1.36632e-209
1.50905e-66
1.6565e-56
3.54027e-30
1.2127e-50
2.19194e-20
1.50597e-30
1.50438e-143
1.98776e-64
0.00953934
3.13636e-47
8.49178e-316
6.08112e-128
2.59052e-112
1.15567e-319
5.53105e-66
2.89765e-230
-1.07216e-99
9.66741e-20
8.28562e-43
4.15448e-10
1.2682e-225
5.98161e-171
1.29397e-274
-2.55002e-113
-3.92575e-134
4.669e-20
-2.74854e-133
2.23372e-170
4.37317e-09
1.26768e-54
3.07321e-85
1.20249e-67
6.74493e-23
1.1974e-127
2.51122e-15
6.1456e-117
-6.06773e-222
4.72017e-05
1.18335e-72
6.79736e-26
-3.60157e-128
41.2406
-6.20526e-51
-2.10473e-61
1.45838e-65
9.10732e-43
5.39651
-4.29388e-112
1.21706e-21
-2.95607e-55
-2.02573e-63
4.93338e-165
8.18483e-103
1.75606e-09
-1.03273e-100
7.43351e-14
-2.88488e-120
-3.79876e-125
2.93922e-16
-4.43987e-196
-1.54553e-146
-5.56293e-110
2.60535e-71
3.37598e-14
-3.5294e-121
1.33124e-113
-1.37725e-293
-6.52172e-54
3.79654e-05
1.84536e-62
-4.30369e-114
-1.50575e-83
4.22165e-129
-3.56182e-165
8.45092
-8.05425e-61
-2.44132e-259
8.24086e-63
7.38303e-131
-2.9021e-49
-3.30236e-33
3.44657e-84
6.13954e-110
4.8401e-22
1.42664e-16
-1.44886e-279
3.16203e-86
2.43253e-17
5.98156e-173
-1.07993e-236
9.15854e-78
7.56889e-75
-6.02259e-103
-8.54112e-235
2.07411e-72
7.81182e-16
-1.3509e-201
1.11065e-32
1.5712e-226
2.9123e-145
5.25862e-71
2.83163e-06
-1.2035e-291
1.07915
-3.44042e-59
3.25883e-31
10.8911
-4.78345e-54
4.43445e-84
0.00931077
-1.79597e-112
7.22016e-07
-4.58164e-24
3.33273e-84
3.89091e-103
5.32082e-105
1.60502e-127
-2.20302e-132
2.11675e-40
0.00588152
136.787
1.36946e-45
-1.961e-34
5.17749e-08
1.8843e-48
0.491628
5.97204e-187
-3.85192e-123
4.98915e-25
1.43561e-64
-2.06721e-152
4.91019e-46
3.69704e-115
4.72039
1.31936e-314
-2.92614e-154
-1.11618e-180
150.664
1.1019e-42
1.84039e-56
1.05391e-100
2.43563e-24
-1.01132e-107
-1.02068e-171
2.14021e-09
5.91327e-113
2.56746e-09
5.47125e-40
-1.93089e-105
6.11193e-22
5.13932e-71
2.56984e-120
1.04807e-167
-3.13083e-163
0.0818571
1.73339e-17
-5.06357e-148
1.3221e-23
1.73937e-86
5.88284e-37
-6.79487e-288
1.57702e-73
1.14841e-09
6.93522e-24
-2.23866e-52
-7.78625e-86
6.62729e-169
4.23356e-29
-7.22959e-108
2.0803e-172
1.0214e-13
9.12313e-27
-1.00839e-138
-9.44636e-38
1.00915e-80
-3.61229e-278
9.39381e-154
2.53424e-250
4.08541e-50
43.0756
1.13133e-14
5.10794e-31
-6.20584e-145
-1.63267e-105
2.33545e-71
-3.55517e-266
3.51234e-11
2.55216e-72
35.3789
-3.46959e-32
9.83748e-106
-2.45138e-140
3.62851e-184
2.96924e-114
-1.15587e-110
4.23865e-150
8.47281
2.57018e-25
-1.32599e-49
2.42334e-22
5.06896e-54
6.65507e-172
0
3.76981e-150
1.56192e-35
0.0971446
-2.38544e-27
2.29148e-65
-2.39984e-62
-5.57867e-85
2.59334e-26
0.00693136
0.00555663
4.8701e-108
-5.01503e-88
-1.54905e-44
-2.46012e-132
7.2636e-243
-2.00745e-151
9.50173e-23
-3.619e-135
1.16209e-86
-2.24892e-119
9.46234e-52
3.92023e-12
1.1583e-126
-1.74233e-150
5.54141e-16
1.59626e-28
2.05566e-108
2.87475e-163
-4.92513e-64
1.21973e-11
1.10411e-35
-2.9973e-33
-2.70161e-67
-1.87658e-94
5.01969e-05
-4.92459e-104
-1.99883e-27
2.89218e-165
8.86353e-16
3.76094e-17
-3.29697e-219
5.09508e-180
77.7397
1.06304e-153
-5.70774e-94
1.37781e-39
-7.76453e-133
-8.46438e-132
8.57692e-118
1.40085e-155
1.74992e-274
5.88372e-39
1.19003e-07
-5.95208e-184
0.0033469
8.90291e-119
-3.21233e-156
5.93253e-16
2.26124e-11
1.99352e-36
4.10984e-111
1.76626e-148
-3.06673e-57
132.183
-2.6612e-134
-3.3456e-185
-1.92008e-192
-1.70743e-134
-1.33321e-75
-1.70064e-45
-4.13282e-138
-1.50404e-89
1.96914e-149
3.81428
8.37316e-12
5.8345e-72
1.40234e-48
5.17631e-117
-1.03569e-155
1.74503e-29
0.525179
-1.99542e-92
1.86338e-190
-9.95121e-158
7.51286e-18
-1.45045e-133
8.34912e-167
2.93366e-18
1.8837e-112
-1.09128e-154
102.101
9.05344e-16
0.168549
1.25805e-29
-1.3093e-134
4.19393e-27
3.83748e-13
0.0426608
6.96395e-123
1.31064e-49
-1.63348e-268
0.0360445
3.08085e-319
-1.05677e-125
7.96267e-120
-3.14619e-190
1.04181e-60
1.03458e-106
-1.57862e-132
1.19577e-124
0.94994
3.64711e-18
5.66961e-65
-1.10222e-149
1.73735e-41
0.913198
5.61906e-14
7.66739e-55
-1.32621e-65
-4.39837e-126
1.39454e-108
-7.92804e-188
7.65319e-141
-6.1302e-182
-2.3146e-152
-1.56549e-55
4.00586e-19
9.61065e-27
0.10795
7.61553e-06
1.52573e-11
3.35015e-34
0.0374936
7.39708e-169
4.75119e-07
-7.5027e-159
0.000195338
5.39854e-15
3.81066e-52
3.71518e-138
2.33648e-50
3.08603e-38
1.00764e-93
28.9534
8.43162e-16
0.117117
-2.84457e-154
4.87988e-13
5.19995e-09
3.8125e-15
2.13792e-09
1.558e-14
-3.75884e-156
2.53873e-114
5.52371e-70
-3.31587e-143
1.76145e-40
-1.13508e-129
-9.9769e-53
1.05884e-221
-1.41377e-117
7.13582e-39
3.068e-60
3.55417e-174
-1.66397e-60
0.128881
71.4552
-3.73912e-192
6.73306e-63
-6.19147e-114
4.80231e-13
2.33866e-42
2.73083
1.89211e-06
1.11823e-125
8.08103e-59
3.61521e-09
4.72078e-28
2.09904e-07
2.88491e-69
5.6526e-15
-1.1578e-178
0.0433493
6.87977e-17
5.43419e-162
1.32544e-09
0.00022684
5.51366e-58
0.540375
3.90549e-120
4.38071e-11
2.28199e-101
-4.05957e-198
2.06681e-94
-9.0157e-106
0.0142169
2.67041e-12
0.00398462
1.43518e-173
0.719797
4.44399e-52
2.45352e-18
-3.34904e-40
1.16636e-61
1.33754e-73
0.00101909
3.55642e-118
2.92967e-136
2.6831e-38
1.45794e-11
1.47307e-40
2.68261e-29
-4.74347e-74
0.013148
4.75414e-39
4.2225e-41
7.86066e-12
-9.32104e-201
1.11667e-09
7.89822e-25
4.35314e-10
-1.92954e-96
9.04786e-06
7.60933e-185
4.15769e-42
1.31147e-73
2.5513e-15
-5.04576e-91
2.55944e-39
1.0395e-10
65.7063
2.30919e-124
1.59796e-66
-3.08998e-59
7.26018e-22
7.01015e-33
-1.66546e-124
1.03137e-54
2.75192e-186
8.62211
3.58864e-282
5.22985e-186
2.53568e-248
6.69966e-11
-5.12815e-153
-2.84451e-51
0.0562088
1.04385e-76
-7.16488e-74
-8.80474e-146
1.78816e-235
3.49161e-12
-9.66348e-191
5.90114e-52
1.62213e-16
-8.62324e-59
8.01899e-08
1.70164e-125
6.74039e-54
5.55854e-10
2.27603e-29
-7.06055e-94
73.1306
-6.67348e-287
5.65775e-229
1.67807e-112
157.816
-2.84981e-98
2.57429e-104
8.2187e-10
-5.95162e-138
-2.35905e-123
6.13861e-24
2.64685e-08
1.05518e-44
0.000208005
-2.72285e-135
2.11488e-114
3.82816e-69
6.23994e-73
1.52148e-15
-7.24559e-161
-5.08087e-103
-1.26207e-70
-1.18124e-20
1.28827e-85
3.85419e-176
-1.53575e-54
-3.16954e-23
1.00506e-241
2.92591e-238
1.61801e-06
5.31942e-44
4.30332e-06
7.53146e-121
8.29132e-314
-7.99637e-22
4.26142e-11
1.10626e-170
-1.24067e-132
-3.08745e-187
3.73663
-2.16537e-242
2.48451e-46
2.45776e-07
-6.37191e-236
2.74483e-233
2.52522e-30
-5.29961e-202
1.33831e-237
5.43693e-67
3.28599e-17
3.09222e-178
2.50397e-30
-3.50916e-193
2.47797e-10
1.34995e-316
1.37605e-09
2.79024e-16
1.4574e-35
4.62077e-236
3.03541e-24
2.83625
2.63928e-132
3.3864e-61
1.57053e-207
9.64998e-18
-5.99039e-195
1.94363e-09
8.06419e-15
3.52304e-109
-2.2515e-244
7.4791e-17
1.0149e-18
1.06756e-75
1.65514e-74
1.44631e-20
-6.16308e-200
3.09646e-25
-4.478e-246
4.08889e-09
1.9229e-11
1.5391e-16
1.96158e-34
-6.83333e-29
1.19051
1.70579e-39
4.78006e-73
4.03019e-19
-5.04177e-129
6.04417e-22
2.80125e-20
-2.48806e-55
1.0198e-112
0.0135235
2.06176e-267
0.00355257
93.7773
9.20531e-143
7.73462e-14
29.0475
2.68239e-45
1.35742e-70
1.03037e-25
-6.9467e-69
5.18696e-184
9.24349e-11
0.00190144
0.330951
-1.07142e-128
4.0244e-31
1.39352e-06
1.45422e-17
-6.14667e-151
8.08178e-224
9.58005e-58
0.000823189
3.23671e-11
4.29093e-21
-2.14311e-295
-5.13e-196
9.14334e-19
-3.95319e-136
2.22459e-63
-8.69792e-131
9.16957e-239
1.03165e-09
7.89208e-122
1.77085e-07
2.32657e-74
1.2212e-212
9.79636e-225
9.57481e-19
-8.44733e-130
4.59631e-45
7.66784e-21
0.00640908
-7.38448e-64
1.61099e-176
3.08395e-08
8.3215e-110
2.95309e-188
3.70957e-98
3.83803e-18
-6.06158e-131
1.18458e-17
2.45323e-66
155.828
1.93976e-19
-2.72998e-166
1.85945e-07
2.67171e-247
3.30335e-12
5.52587e-53
1.71924e-07
0.00017179
-2.04623e-56
1.33931e-06
1.48459e-210
5.70048e-13
-5.14971e-145
1.91325e-64
3.46506e-08
1.19524e-40
2.3757e-08
0.00205631
-1.40437e-24
7.90976e-12
5.8584e-08
1.14578e-172
5.28726e-192
1.49106e-245
1.14491e-06
-3.17366e-30
1.21043e-170
4.19348e-10
2.55236e-09
2.77815e-61
6.07451e-23
5.67388e-78
6.56045e-44
1.50321e-06
-1.26402e-89
1.23015e-48
3.09786e-48
-3.68219e-269
-5.90387e-267
-1.84881e-172
-4.58466e-128
7.77692e-76
6.86447e-216
-7.89037e-108
-4.92245e-123
1.19014e-76
1.56939e-38
-5.57092e-151
2.06951e-09
1.39257e-318
1.09792e-15
9.28118e-08
-9.80639e-165
2.97903e-06
2.56407e-20
3.56393e-09
-5.10512e-85
1.58783e-21
-1.1414e-137
3.2671e-54
7.58545e-69
6.52716e-227
5.16344e-147
2.66674e-116
-9.63387e-163
1.96529e-251
1.93608e-69
1.47303e-253
-4.79455e-39
1.54322e-36
0.0169342
1.13276e-218
6.08353e-77
8.6952e-214
5.26427e-136
1.0239e-27
3.44998e-80
5.66963e-168
110.929
6.07991e-18
9.31469e-44
4.04245e-76
3.99373e-20
1.36304e-29
-3.23003e-99
2.40422e-28
1.99348e-17
1.21795e-122
-5.2059e-248
-1.12455e-105
5.587e-12
-3.56396e-191
-9.06207e-174
2.73984e-17
1.11395e-141
-7.67995e-137
4.21851e-110
2.79681e-176
6.63775e-06
1.62074e-216
-8.35504e-176
7.96003e-36
2.65146e-28
0.305884
9.37415e-17
-1.04028e-74
-1.43502e-166
8.3283e-28
-1.37528e-168
5.45064e-38
1.96547e-85
2.47543e-123
1.07551e-07
-2.54673e-231
4.14341e-30
9.54292e-68
1.94473e-19
8.92864e-53
2.41805e-257
-3.87705e-125
-2.56405e-315
1.04617e-34
-2.81502e-194
4.69366e-25
1.57078e-64
-4.41692e-117
-2.89284e-72
6.00351e-56
-4.71535e-251
2.59471e-29
4.01967e-34
-3.48998e-129
3.74879e-34
1.2776e-10
1.05301e-237
9.24106e-56
2.05781e-14
1.07357e-22
-1.01726e-95
-4.1217e-57
-2.2653e-55
1.51317e-67
-4.92832e-92
1.78445e-18
-2.64086e-91
7.79216e-165
1.28721e-166
3.61378e-06
3.57138e-11
1.90361e-08
3.42733e-08
-8.91986e-45
2.60536e-27
1.29661e-63
9.16587e-29
2.43596e-167
0.0748012
-4.79585e-136
8.40802e-08
1.01407e-19
-1.85889e-170
-5.78568e-32
5.52661e-12
4.11842e-10
3.13898e-62
3.37188e-37
2.30347e-169
-2.09367e-277
1.89677e-19
-2.86529e-250
1.1964e-219
9.61874e-22
-7.35422e-137
-2.45455e-85
1.56139e-174
2.95181e-121
8.41539e-20
6.75449
-9.94948e-138
-4.07761e-144
4.93281e-13
-1.02705e-48
5.61972e-14
1.23343e-34
5.55318e-33
1.28976e-139
-7.25485e-52
5.49387e-31
4.25925e-22
-2.12999e-38
1.10363e-181
2.17235e-17
4.38897e-43
8.20932e-26
-5.43879e-106
1.97547e-172
1.03877e-21
-2.5631e-134
9.15889e-238
1.63541e-31
1.29511e-10
-5.05309e-217
9.15249e-34
4.75516e-67
-3.80361e-149
8.87386e-98
-4.87452e-149
1.28061e-31
1.20596e-164
1.83603e-174
2.65972e-72
2.69001e-32
-4.38615e-51
1.25234e-35
6.08758
4.44177e-126
7.32671e-78
0.0010406
2.45676e-47
-9.79088e-151
1.08634e-44
7.03599e-10
5.84413e-227
-1.53529e-140
1.13156e-242
2.76997e-36
7.90315e-19
-3.13689e-73
1.00275e-255
1.8352e-102
1.53198e-94
2.60886e-115
9.34016e-12
2.29056e-135
1.32016e-257
2.81698e-249
9.62226e-40
1.80866e-63
5.41943e-07
1.39992e-106
-4.09634e-62
1.90994e-56
2.59136e-26
-2.36827e-190
5.4325e-32
3.9862e-231
1.15344e-220
-1.20767e-244
1.85193e-13
-2.02505e-134
8.57132e-34
4.84251e-42
2.15279e-39
1.66555e-27
8.39944e-39
1.84556e-17
1.97024e-32
1.10099e-131
1.44607e-48
-4.77589e-59
5.0394e-50
8.01453e-27
-9.30311e-140
20.0514
3.62746e-21
4.26985e-24
2.3639e-218
0.508527
1.76592e-26
7.89826e-29
4.19456e-37
3.53956e-18
1.16116e-78
-5.03332e-124
3.00066e-123
7.47414e-132
4.07353e-125
5.85389e-24
1.08867e-28
-1.74094e-141
7.42187e-40
2.58582e-117
-3.12717e-123
-1.13203e-79
-8.13234e-58
-2.48651e-100
3.95513e-71
-1.63031e-57
4.06471e-47
6.43469e-34
5.29495e-70
-1.51611e-218
-5.0823e-104
-7.01953e-131
5.75333e-14
-6.81547e-193
-7.08638e-138
5.6038e-38
0.0147001
-1.66109e-164
1.57249e-06
5.69406e-170
-1.01801e-135
1.10797e-71
2.27858e-41
5.38845e-49
-1.09257e-188
2.6725e-34
7.50405e-35
1.45783e-14
1.55859e-218
2.60077e-44
8.14502e-60
5.32353e-91
-1.87732e-243
-1.28946e-293
6.70635e-36
9.78779e-63
4.28824e-88
14.0562
1.64735e-32
1.09924e-45
-1.87439e-31
1.28194e-73
5.74991e-14
1.26202e-124
-1.64539e-74
-2.03223e-107
-3.88317e-115
1.85838e-06
2.94533e-43
7.40469e-31
1.03635e-51
6.30352e-183
3.85425e-33
5.06739e-32
1.38236e-13
4.06982e-117
2.29904e-46
-3.10662e-06
2.88994e-06
5.24296e-172
6.01357e-11
8.05087e-80
4.28806
1.32836e-236
6.34422e-35
9.34345e-53
-3.3435e-264
3.99916e-28
8.33302e-97
-5.6761e-100
1.16554e-22
7.93506e-08
1.2471e-14
-1.80891e-99
1.23136e-38
2.63247e-233
-8.24047e-134
5.84507e-08
-1.0627e-40
1.14041e-115
3.5492e-33
-7.07985e-27
2.95936e-40
2.18798e-62
5.51678e-57
1.2564e-41
8.39994e-07
-1.08319e-180
5.47021e-60
7.05692e-78
1.5121e-36
2.5185e-09
1.18601e-37
9.94646e-47
-4.14406e-103
5.42263e-241
1.0945e-34
6.03037e-45
3.78429e-37
-6.52798e-186
-4.38818e-83
1.26141e-46
2.33613e-39
-2.09718e-30
5.53777e-33
1.8084e-106
2.47488e-42
-3.63676e-136
2.91482e-25
8.95131e-79
3.60674e-34
1.54215e-79
-9.4046e-98
9.819e-40
-4.53402e-83
2.41589e-92
1.91496e-111
6.04647e-182
5.80413e-56
2.01708e-65
7.03782e-80
0.566485
0.000153186
-4.43586e-147
1.02413e-117
-8.6703e-61
1.4769e-61
5.05444e-255
1.74857e-38
-2.00532e-46
-2.04791e-41
-6.80007e-236
2.59853e-17
1.28788e-34
8.23521e-21
2.18498e-39
-7.63306e-219
-5.07469e-118
6.19767e-90
3.5726e-42
2.5768e-11
3.06405
-1.03334e-177
-5.50091e-85
-4.58713e-97
6.41936e-12
9.35628e-07
2.77775e-14
-2.95385e-67
2.7063e-38
-1.2096e-233
6.18026e-56
-1.32819e-67
-3.63433e-175
-1.67088e-27
-8.20366e-64
9.99024e-51
5.76765e-37
3.15239e-88
4.95103e-63
2.35455e-45
-1.24626e-220
0
5.3727e-60
-2.4679e-86
1.82632e-10
2.70025e-79
-1.04992e-28
3.34072e-17
-8.54701e-53
-2.36211e-176
-1.48547e-76
9.35812e-36
3.71403e-180
5.41497e-05
1.94015e-06
-8.19453e-147
4.18868e-231
7.74821e-143
-6.91127e-182
-9.61041e-268
4.26003e-78
3.21042e-96
6.10645e-39
-2.4495e-66
4.38965e-44
-9.01099e-61
3.13735e-12
7.72317e-38
5.60358e-42
2.87167e-68
-2.22584e-79
-2.21683e-46
-6.73927e-220
1.00726e-97
3.9943e-100
-1.06897e-40
-6.67236e-33
1.06769e-11
-1.1278e-270
-3.14593e-34
1.81826e-54
7.98742e-72
1.25157e-29
2.01403e-49
1.95191e-32
3.24305e-07
3.82081e-58
3.86022e-24
8.12939e-78
5.94263e-119
1.60587e-56
2.66981e-44
1.67961e-182
-1.22251e-68
9.58277e-06
-5.64065e-101
1.09592e-07
2.5398e-173
1.03822e-44
8.24764e-119
9.36845e-108
3.65811e-38
-5.55204e-26
3.45523e-31
-8.38116e-96
-1.35556e-71
2.88512e-72
1.52063e-23
1.26675e-29
-3.22014e-59
1.29315e-19
-1.91892e-265
3.36272e-61
3.57955
1.21069e-18
-7.71888e-102
0.00164844
6.29751e-32
2.98552e-94
-9.20337e-204
1.65259e-13
3.08111e-44
4.00032e-74
-2.43457e-49
2.1483e-178
5.69872e-41
1.52927e-106
7.05534e-24
1.82972e-47
1.04883e-45
-1.00874e-36
0
8.50077e-137
3.71334e-87
1.87078e-121
1.58866e-124
1.10296e-72
-1.21214e-96
1.7792e-92
-1.32674e-30
2.51053e-35
2.68028e-252
1.0011e-27
-1.72203e-134
-9.82298e-219
-4.46259e-35
6.64971e-166
7.87052e-77
7.73657e-77
1.45639e-184
7.15985e-181
-2.3616e-107
4.58386e-46
-7.00017e-78
4.00962e-41
1.83649e-52
-6.56617e-34
1.76516e-36
2.56269e-75
-1.58532e-62
2.44576e-50
-1.42365e-286
-2.26421e-82
-2.70035e-108
1.60418e-77
3.12983e-05
1.5875e-48
7.78493e-89
-2.56538e-59
-4.06734e-81
5.53464e-98
-5.85939e-99
-1.25221e-79
8.13301e-106
-1.1739e-41
1.56568e-55
-1.87394e-221
2.64003e-47
-2.64956e-62
7.89048e-45
6.77307e-204
-7.11803e-36
2.3668e-08
-5.62224e-129
-5.67599e-52
1.18791e-34
-3.68107e-145
5.638e-35
6.7335e-23
2.26282e-47
3.1765e-46
1.32107e-26
-9.21297e-59
-1.46154e-65
2.80793e-53
1.93545e-40
-1.91391e-163
3.71169e-107
-3.67795e-276
-3.73807e-131
-6.58894e-204
3.93553e-70
1.68185e-62
4.8457e-39
9.91287e-54
0.636927
-7.90722e-26
2.60707
1.53432e-53
6.6819e-13
0.172481
1.69563e-21
3.47803
7.17239e-104
2.43556e-65
-1.88011e-76
3.8353e-79
4.59347e-60
3.52651e-139
1.61872e-69
1.3658e-118
5.58317e-206
-2.48837e-67
0.0204198
2.43331e-73
1.07227e-43
-1.15481e-74
-2.44861e-109
2.22547e-56
-5.51198e-62
9.08564e-128
1.42299e-67
2.37408e-113
6.00061e-31
1.59835e-50
2.57541e-53
-3.45078e-55
2.32244e-05
1.8204e-20
3.49498e-42
2.76605e-79
22.9228
1.50434e-75
5.01473e-71
4.62974e-40
-1.9622e-37
-1.71193e-76
5.68848e-29
5.39039e-178
-6.7957e-48
-1.88297e-35
3.74067e-56
5.17565e-57
-4.70099e-96
-4.52459e-65
-7.77363e-44
1.53183e-102
3.1e-41
4.70057e-71
-4.97425e-92
2.19486e-175
2.06835e-80
1.09997e-57
-1.36961e-104
1.53786e-78
3.28296e-91
-2.24936e-136
-3.09662e-43
1.93489e-108
1.78317e-21
1.29325e-59
-1.13862e-81
2.00196e-185
-1.64542e-129
9.17826e-33
-4.07332e-67
2.01927e-236
4.60599e-60
0.148047
6.3594e-45
-1.52391e-98
3.39955e-79
5.74163e-06
0.00232256
4.80692
8.8923e-128
7.25941e-130
-2.46443e-124
-7.10072e-91
3.58318e-43
1.64384e-10
3.78314e-08
2.8434e-19
6.93056e-43
1.93141e-109
-1.00856e-199
-4.50975e-196
-5.34569e-35
1.90862e-99
4.09753e-36
1.63542e-126
2.74381e-16
7.83483e-116
1.3277e-64
4.12381e-15
-2.85121e-54
1.28244e-34
-3.47754e-131
-7.39031e-70
-6.47329e-217
2.36016e-30
8.94149e-44
1.73873e-101
-6.05719e-206
-8.95872e-87
1.88598e-30
-7.75462e-141
-1.92239e-58
3.15275e-06
3.27773e-230
9.41365e-97
-1.67165e-49
-2.01659e-50
4.78552e-62
6.02713e-152
9.2678e-139
4.29142e-135
-4.62896e-250
-2.48756e-195
-1.4118e-90
2.01754e-52
-1.53887e-217
-8.79639e-95
-1.14332e-139
131.019
-1.25419e-36
4.17317e-133
-7.11835e-273
2.25159e-41
-7.31229e-73
8.36603e-30
2.37982e-60
-2.36533e-71
-5.52194e-210
6.72991e-136
4.17015e-32
1.27704e-274
1.28345e-76
9.54203e-38
4.00343e-66
-1.33964e-190