/*--------------------------------*- C++ -*----------------------------------*\
  =========                 |
  \\      /  F ield         | OpenFOAM: The Open Source CFD Toolbox
   \\    /   O peration     | Website:  https://openfoam.org
    \\  /    A nd           | Version:  7
     \\/     M anipulation  |
\*---------------------------------------------------------------------------*/
FoamFile
{
    version     2.0;
    format      ascii;
    class       volScalarField;
    location    "16";
    object      rho;
}
// * * * * * * * * * * * * * * * * * * * * * * * * * * * * * * * * * * * * * //

dimensions      [1 -3 0 0 0 0 0];

internalField   nonuniform List<scalar> 
2413
(
1.35873
1.36923
1.38393
1.39812
1.40987
1.41437
1.4144
1.41385
1.36177
1.37094
1.38328
1.39854
1.41266
1.4231
1.42634
1.42607
1.36494
1.37309
1.38373
1.39743
1.41365
1.42816
1.43714
1.43944
1.36995
1.37609
1.38544
1.39685
1.4121
1.42913
1.44298
1.45232
1.37655
1.38115
1.38877
1.39846
1.41102
1.4286
1.4446
1.45914
1.38473
1.38811
1.39403
1.40214
1.41231
1.42855
1.44614
1.46116
1.3935
1.39605
1.40045
1.40727
1.41553
1.42843
1.44461
1.45981
1.39859
1.40025
1.40306
1.4078
1.41385
1.42261
1.4372
1.45205
1.3993
1.40032
1.40204
1.40527
1.41005
1.41644
1.42773
1.4416
1.39893
1.39945
1.40064
1.40284
1.40621
1.41063
1.41807
1.42899
1.39647
1.39656
1.39713
1.39845
1.4009
1.4043
1.40912
1.41655
1.39309
1.39284
1.39297
1.39348
1.39452
1.39641
1.39912
1.40352
1.38732
1.38658
1.38585
1.38563
1.38598
1.38699
1.38872
1.39096
1.38161
1.38005
1.37871
1.37713
1.37649
1.37688
1.37771
1.37866
1.3785
1.37626
1.37432
1.37215
1.36987
1.36925
1.36944
1.36951
1.37826
1.37533
1.37311
1.371
1.36846
1.36652
1.36571
1.36535
1.38
1.37664
1.37362
1.3714
1.36904
1.36674
1.36499
1.36413
1.38282
1.37954
1.37568
1.37278
1.37085
1.36838
1.36603
1.36424
1.38607
1.38347
1.38023
1.37568
1.37285
1.37103
1.36844
1.36568
1.58377
1.57651
1.57142
1.56509
1.55888
1.55462
1.54889
1.54207
1.53842
1.53401
1.5275
1.52285
1.51946
1.51566
1.50991
1.50553
1.49993
1.49412
1.49471
1.50371
1.54254
1.64892
1.79047
1.86959
1.87728
1.87387
1.86534
1.85455
1.8403
1.83061
1.82349
1.81414
1.80487
1.79706
1.78695
1.77738
1.76945
1.76012
1.74996
1.7412
1.73253
1.72337
1.71395
1.70692
1.70228
1.69815
1.69672
1.69773
1.69647
1.69517
1.69497
1.69137
1.68391
1.67623
1.6674
1.65608
1.64567
1.41279
1.40988
1.40519
1.4019
1.3977
1.39263
1.38939
1.38601
1.38117
1.37718
1.37301
1.36777
1.3633
1.36077
1.35882
1.35808
1.35847
1.35941
1.36251
1.37275
1.39627
1.44224
1.5062
1.58115
1.65382
1.72333
1.76637
1.79739
1.82412
1.8254
1.82652
1.8251
1.82274
1.82224
1.81876
1.81262
1.80552
1.79881
1.79311
1.78753
1.78109
1.77379
1.76664
1.75906
1.75115
1.74339
1.73481
1.72536
1.71681
1.70805
1.6987
1.69034
1.68208
1.67393
1.66549
1.6567
1.64958
1.64231
1.63311
1.62656
1.62118
1.61292
1.6061
1.60094
1.59374
1.58785
1.58215
1.57548
1.57092
1.56598
1.559
1.55409
1.55053
1.54463
1.53925
1.53547
1.53207
1.52799
1.52264
1.51842
1.51179
1.50805
1.51016
1.52369
1.57729
1.70122
1.83665
1.89475
1.89849
1.89413
1.88527
1.87089
1.8579
1.84871
1.83814
1.82891
1.82233
1.81368
1.80455
1.79633
1.78689
1.77572
1.76559
1.7554
1.74322
1.73482
1.73138
1.72891
1.72598
1.72584
1.72643
1.72403
1.72224
1.72099
1.71538
1.70727
1.69936
1.68956
1.67841
1.66876
1.42568
1.4242
1.42023
1.41641
1.41255
1.40665
1.40212
1.3991
1.39465
1.39116
1.38806
1.38382
1.37933
1.37538
1.37081
1.36653
1.36416
1.36171
1.3611
1.36163
1.36278
1.36685
1.37821
1.40427
1.44776
1.50744
1.57987
1.64295
1.7082
1.74863
1.77542
1.8038
1.8085
1.81162
1.81002
1.80429
1.79996
1.79715
1.79485
1.78937
1.78288
1.77581
1.76917
1.76386
1.75817
1.75193
1.74555
1.73845
1.73076
1.72333
1.71566
1.70779
1.69997
1.69232
1.68439
1.67586
1.66817
1.66133
1.6532
1.64503
1.63904
1.63205
1.62404
1.61804
1.6115
1.60544
1.60005
1.59291
1.58743
1.58304
1.57703
1.57053
1.56671
1.56276
1.55709
1.55243
1.54861
1.54539
1.54079
1.53534
1.53056
1.52351
1.52206
1.52625
1.54494
1.61435
1.75079
1.8758
1.91916
1.92084
1.91593
1.90288
1.88801
1.87712
1.86622
1.8554
1.84696
1.83679
1.82791
1.82079
1.81234
1.80261
1.79362
1.78372
1.77216
1.7619
1.75564
1.75165
1.74876
1.74965
1.75119
1.7498
1.7499
1.74851
1.74204
1.73369
1.72509
1.71376
1.70178
1.69193
1.43917
1.43847
1.43575
1.43166
1.42831
1.42296
1.41786
1.41433
1.41004
1.40568
1.40269
1.39878
1.39384
1.39043
1.38679
1.38211
1.37818
1.37413
1.37044
1.36817
1.36549
1.36508
1.3656
1.36686
1.37077
1.382
1.40724
1.44759
1.50231
1.56849
1.6265
1.68512
1.72644
1.75479
1.77591
1.78465
1.79122
1.79412
1.79196
1.78729
1.77975
1.77296
1.7686
1.76463
1.75957
1.75325
1.74726
1.7417
1.73588
1.72987
1.72401
1.71805
1.71135
1.70473
1.69846
1.69152
1.6842
1.67793
1.67141
1.66376
1.65681
1.65056
1.6435
1.63638
1.62964
1.62376
1.6185
1.61168
1.60504
1.60085
1.59587
1.58968
1.58436
1.58068
1.57634
1.57076
1.56604
1.56275
1.55918
1.55361
1.54877
1.54385
1.53774
1.53762
1.54377
1.56792
1.65228
1.7919
1.90988
1.94346
1.94431
1.93717
1.92226
1.90909
1.89518
1.88376
1.87568
1.86614
1.85648
1.84843
1.83836
1.82521
1.81546
1.80616
1.79625
1.7897
1.78498
1.78054
1.77744
1.77838
1.77813
1.77512
1.7746
1.77261
1.76509
1.75742
1.74908
1.73749
1.72603
1.71576
1.45444
1.45405
1.45273
1.4496
1.44651
1.44211
1.43582
1.4315
1.42677
1.42171
1.41846
1.41483
1.41054
1.40709
1.40359
1.39888
1.3943
1.39064
1.38601
1.38186
1.37758
1.37413
1.37199
1.36942
1.36872
1.36923
1.37058
1.37434
1.38467
1.40675
1.44286
1.49057
1.54966
1.6046
1.65468
1.69878
1.73101
1.74934
1.75971
1.76633
1.76866
1.76992
1.76924
1.76554
1.75734
1.74926
1.74459
1.74115
1.73659
1.73073
1.72538
1.72062
1.71537
1.70963
1.70421
1.6989
1.69283
1.68697
1.68186
1.67617
1.66985
1.66424
1.65904
1.6532
1.64663
1.64079
1.63583
1.63003
1.62322
1.61863
1.61465
1.60946
1.60393
1.59909
1.59523
1.59065
1.58483
1.58042
1.57739
1.57324
1.56784
1.56425
1.55977
1.55383
1.55414
1.56219
1.59264
1.68497
1.82615
1.93811
1.9738
1.97154
1.96094
1.94758
1.93118
1.91361
1.90343
1.89288
1.88391
1.87658
1.8675
1.85598
1.84569
1.83555
1.82315
1.81412
1.80892
1.80394
1.80235
1.80444
1.80404
1.80232
1.80205
1.79906
1.79053
1.78223
1.77286
1.76015
1.74875
1.73811
1.47037
1.47157
1.47139
1.4697
1.46699
1.46354
1.45767
1.45247
1.44736
1.44122
1.4364
1.43205
1.42686
1.42306
1.41978
1.41578
1.41192
1.40852
1.40458
1.40019
1.39605
1.3906
1.38563
1.38125
1.37766
1.37549
1.37378
1.37294
1.37319
1.37442
1.37786
1.38616
1.40408
1.43413
1.47574
1.52416
1.57733
1.62575
1.6643
1.69941
1.71793
1.73014
1.742
1.74744
1.74871
1.74756
1.74553
1.74083
1.7326
1.72625
1.72223
1.71964
1.71573
1.71014
1.70503
1.70083
1.69621
1.69095
1.68592
1.68091
1.67533
1.66954
1.66524
1.66141
1.65648
1.65137
1.64722
1.64305
1.63775
1.63271
1.62917
1.62511
1.62023
1.61506
1.61136
1.6082
1.60348
1.59777
1.59488
1.59188
1.58725
1.58269
1.57932
1.57398
1.5683
1.56958
1.57792
1.61293
1.71191
1.85161
1.95941
2.00585
2.00212
1.99239
1.97585
1.95478
1.94115
1.92857
1.91542
1.9049
1.8925
1.8791
1.8709
1.86206
1.85119
1.84427
1.83894
1.83277
1.83096
1.83166
1.82955
1.82671
1.82642
1.8226
1.81423
1.80658
1.79687
1.78405
1.77279
1.76161
1.47515
1.48706
1.49073
1.49029
1.48905
1.48653
1.48177
1.47598
1.47023
1.46384
1.45817
1.45312
1.44774
1.4423
1.43785
1.43322
1.42854
1.42522
1.42195
1.41787
1.41419
1.41017
1.40491
1.40048
1.39588
1.39006
1.38456
1.38166
1.37969
1.37804
1.37731
1.3774
1.37812
1.38054
1.38695
1.40067
1.42407
1.45874
1.50014
1.54357
1.59041
1.63045
1.6629
1.68598
1.70123
1.71183
1.72003
1.72415
1.72495
1.72442
1.72308
1.71882
1.71093
1.70432
1.70052
1.6987
1.69587
1.69111
1.68657
1.68268
1.6784
1.67317
1.66823
1.66408
1.6595
1.65402
1.65008
1.64758
1.64419
1.63967
1.63572
1.63229
1.6284
1.62363
1.62029
1.61804
1.61476
1.6098
1.60608
1.60357
1.59976
1.59513
1.59137
1.58818
1.58344
1.57956
1.58089
1.59
1.6294
1.72445
1.87368
1.96571
2.02466
2.02634
2.01872
2.00144
1.98446
1.968
1.9507
1.93844
1.92591
1.91262
1.90245
1.8919
1.87806
1.8702
1.86489
1.85844
1.85793
1.85918
1.85661
1.85463
1.85352
1.84808
1.83961
1.83143
1.82068
1.80743
1.79606
1.78447
1.47413
1.48993
1.49971
1.5045
1.5083
1.50829
1.50607
1.50143
1.49595
1.48983
1.48382
1.47733
1.47095
1.46437
1.45832
1.4535
1.448
1.44326
1.43984
1.43586
1.43193
1.42893
1.42475
1.41929
1.4152
1.41039
1.40448
1.39965
1.39503
1.38911
1.38574
1.38396
1.38216
1.38102
1.38137
1.38192
1.38339
1.38727
1.39711
1.41473
1.44093
1.47506
1.5128
1.55065
1.58906
1.62232
1.64715
1.66743
1.68074
1.68929
1.69693
1.70053
1.70194
1.70237
1.70078
1.69605
1.6892
1.68382
1.68075
1.67959
1.6771
1.67271
1.66884
1.66541
1.66131
1.65597
1.6517
1.64927
1.6461
1.64163
1.63723
1.63449
1.63198
1.62817
1.62422
1.62112
1.61782
1.61368
1.60937
1.60648
1.60348
1.59958
1.59599
1.59421
1.59204
1.58803
1.5833
1.5838
1.59254
1.62778
1.72859
1.86307
1.98192
2.04086
2.05778
2.05304
2.03918
2.01967
1.99601
1.97714
1.96026
1.94331
1.93396
1.92374
1.9106
1.90322
1.89673
1.88862
1.88688
1.88662
1.88255
1.88047
1.87928
1.87317
1.86541
1.85724
1.84559
1.83213
1.82036
1.80818
1.46681
1.48485
1.49945
1.50904
1.51629
1.52372
1.52503
1.52383
1.52071
1.51609
1.5109
1.50446
1.49737
1.49076
1.48328
1.47681
1.47044
1.46292
1.45824
1.45419
1.4493
1.44616
1.44316
1.43905
1.43486
1.43118
1.42592
1.41988
1.41533
1.40986
1.40378
1.39894
1.39389
1.38984
1.38791
1.38606
1.38437
1.38475
1.38553
1.38673
1.38931
1.39483
1.40606
1.42445
1.44934
1.48
1.51288
1.5445
1.57723
1.60545
1.62662
1.64336
1.65536
1.66505
1.67233
1.6755
1.67848
1.67966
1.67735
1.67223
1.66788
1.66488
1.66249
1.66194
1.6599
1.65569
1.65259
1.64981
1.64564
1.63985
1.63609
1.63487
1.63327
1.62964
1.62586
1.62208
1.61841
1.61543
1.61116
1.60727
1.60533
1.60249
1.5989
1.59667
1.59449
1.59121
1.58585
1.58234
1.58364
1.59221
1.62858
1.71306
1.85745
1.96692
2.03094
2.06988
2.07188
2.06607
2.05123
2.03318
2.01402
1.99065
1.97401
1.96055
1.94451
1.93521
1.92692
1.9175
1.91623
1.91595
1.91194
1.91037
1.90831
1.90117
1.89305
1.88423
1.87171
1.85801
1.84547
1.83225
1.45485
1.47266
1.49042
1.50302
1.51478
1.5257
1.53443
1.53807
1.53879
1.53782
1.53562
1.53103
1.5245
1.51839
1.51139
1.50375
1.49681
1.48874
1.48149
1.47606
1.47014
1.46432
1.46007
1.45594
1.45157
1.44834
1.4451
1.44066
1.43613
1.43181
1.42589
1.41995
1.41456
1.40874
1.40289
1.39775
1.39354
1.39183
1.3904
1.38939
1.38881
1.38902
1.38966
1.39094
1.39369
1.39996
1.41125
1.42802
1.44927
1.47509
1.50205
1.52907
1.55634
1.57975
1.59978
1.61453
1.62623
1.63691
1.64376
1.64731
1.65239
1.65442
1.65244
1.64945
1.64739
1.64539
1.64364
1.64265
1.64166
1.63881
1.63629
1.63374
1.62958
1.62445
1.62147
1.61993
1.61845
1.61585
1.61258
1.60859
1.60462
1.60192
1.59876
1.59468
1.59138
1.58832
1.5846
1.58116
1.57812
1.57873
1.58636
1.61277
1.69391
1.81649
1.9499
2.03845
2.06439
2.07922
2.07928
2.07255
2.05776
2.03574
2.01765
2.00437
1.98724
1.97423
1.96288
1.95109
1.94788
1.94573
1.94113
1.93974
1.93745
1.93007
1.92209
1.91294
1.89957
1.88582
1.87281
1.85855
1.44002
1.45452
1.47194
1.48821
1.50471
1.51761
1.52913
1.53962
1.54567
1.55079
1.55176
1.55087
1.54841
1.54468
1.53927
1.53204
1.52462
1.51709
1.50904
1.50175
1.4948
1.48762
1.48138
1.47625
1.47111
1.46609
1.462
1.45782
1.45322
1.44952
1.44582
1.44121
1.4359
1.43048
1.42466
1.41832
1.41262
1.40751
1.40204
1.39668
1.39478
1.39378
1.39278
1.39204
1.39198
1.39181
1.39206
1.39312
1.39582
1.40146
1.41078
1.42411
1.44086
1.46092
1.48238
1.50507
1.52744
1.54705
1.56551
1.58008
1.59206
1.60292
1.61022
1.61508
1.62074
1.62327
1.62339
1.62298
1.62194
1.62108
1.61996
1.61897
1.61808
1.61596
1.61388
1.61161
1.60837
1.60461
1.60241
1.60038
1.59756
1.59412
1.5912
1.58828
1.58462
1.58263
1.58087
1.57758
1.57244
1.56698
1.56653
1.57089
1.5932
1.65212
1.76021
1.8982
1.99618
2.06139
2.08299
2.08365
2.07977
2.06785
2.05386
2.04157
2.02451
2.00811
1.99437
1.98148
1.97776
1.97507
1.97052
1.9689
1.96612
1.95884
1.95152
1.94296
1.92973
1.91554
1.90169
1.8859
1.42455
1.43517
1.45001
1.46522
1.4842
1.49848
1.5128
1.52851
1.53866
1.54644
1.55319
1.55797
1.56188
1.56172
1.55994
1.55606
1.55122
1.54554
1.53847
1.53041
1.52212
1.51392
1.50579
1.4991
1.49285
1.4865
1.4814
1.47654
1.47203
1.46752
1.46275
1.45862
1.45397
1.4488
1.44448
1.43965
1.4331
1.42756
1.42228
1.41568
1.41018
1.40611
1.40131
1.39724
1.39625
1.39517
1.39384
1.39266
1.39259
1.39244
1.39255
1.39303
1.3949
1.39884
1.40516
1.41415
1.42598
1.4406
1.45696
1.47463
1.49264
1.50921
1.52504
1.53911
1.5506
1.56074
1.56886
1.57467
1.5802
1.58393
1.58524
1.58658
1.58685
1.587
1.58635
1.5857
1.58504
1.58333
1.58174
1.5797
1.57708
1.57387
1.57134
1.5694
1.56672
1.56424
1.56218
1.56022
1.55714
1.55358
1.54963
1.54574
1.54749
1.55969
1.59566
1.68252
1.80709
1.94178
2.01424
2.05462
2.07142
2.07129
2.06495
2.05257
2.03974
2.02796
2.01613
2.00354
1.9972
1.99283
1.98776
1.98521
1.98174
1.97524
1.9694
1.96146
1.9484
1.93458
1.92089
1.90416
1.40886
1.41529
1.42564
1.43688
1.45184
1.46965
1.48702
1.50733
1.52009
1.53135
1.54224
1.55095
1.55876
1.56263
1.56338
1.56455
1.56467
1.56391
1.56112
1.55607
1.54942
1.5419
1.53341
1.52514
1.51755
1.5091
1.50195
1.49586
1.48999
1.48542
1.48024
1.47533
1.47147
1.46651
1.46106
1.45687
1.45171
1.44553
1.44064
1.43563
1.42889
1.42354
1.41908
1.41332
1.40774
1.40434
1.4007
1.39766
1.39627
1.395
1.39341
1.3924
1.39189
1.39128
1.39064
1.39028
1.39103
1.39301
1.39641
1.40153
1.40881
1.41854
1.42972
1.44221
1.4557
1.46856
1.48134
1.49335
1.50384
1.51316
1.52074
1.52709
1.53268
1.53697
1.53924
1.54121
1.54271
1.54328
1.54317
1.54293
1.54249
1.5412
1.5397
1.53806
1.5361
1.53358
1.53159
1.53063
1.52956
1.52787
1.5256
1.52212
1.5197
1.51826
1.52176
1.54027
1.59128
1.69411
1.81604
1.95167
2.02011
2.0481
2.04804
2.04238
2.03778
2.03005
2.01869
2.00856
2.00165
1.9969
1.9921
1.98879
1.9848
1.97795
1.97295
1.96717
1.95618
1.94409
1.93098
1.91322
1.39386
1.3974
1.40275
1.41
1.41947
1.43272
1.44688
1.46537
1.48294
1.50071
1.52188
1.53254
1.54452
1.55207
1.55586
1.5608
1.56411
1.5642
1.56411
1.5637
1.56221
1.55963
1.55526
1.54898
1.54178
1.53355
1.52514
1.51796
1.51037
1.50351
1.4976
1.49082
1.48605
1.4817
1.47666
1.47216
1.46796
1.46297
1.4572
1.45213
1.44696
1.44039
1.43489
1.43041
1.42424
1.41882
1.41486
1.40959
1.40492
1.40214
1.39929
1.39717
1.39528
1.39334
1.39171
1.39032
1.38888
1.38792
1.38707
1.38605
1.38592
1.38657
1.38776
1.38985
1.39364
1.39892
1.40551
1.41363
1.4227
1.43209
1.44175
1.45106
1.45989
1.46791
1.47478
1.48067
1.48622
1.49074
1.49344
1.4958
1.49757
1.49859
1.49864
1.49865
1.49885
1.49841
1.49765
1.49702
1.4966
1.49599
1.49477
1.49316
1.49357
1.49345
1.4931
1.4947
1.50186
1.52789
1.58537
1.70425
1.83203
1.93533
2.01882
2.0388
2.03619
2.02246
2.01355
2.00863
2.00271
1.99731
1.99276
1.98908
1.98581
1.98049
1.97576
1.97039
1.96001
1.94854
1.93612
1.91974
1.37983
1.38142
1.3839
1.38744
1.3923
1.39941
1.40812
1.41981
1.4345
1.44976
1.47015
1.48859
1.50708
1.52641
1.53828
1.54894
1.5564
1.55692
1.5587
1.56082
1.56081
1.56022
1.55922
1.55702
1.55367
1.54971
1.54485
1.53877
1.53131
1.52296
1.51559
1.50877
1.50241
1.49663
1.49066
1.48496
1.47981
1.47575
1.47161
1.46661
1.46204
1.45723
1.45097
1.44566
1.44081
1.43435
1.42904
1.42426
1.41865
1.4141
1.40945
1.40534
1.40248
1.39947
1.39714
1.39496
1.39229
1.3896
1.38835
1.38697
1.38533
1.38411
1.38282
1.38143
1.38069
1.38065
1.38044
1.38092
1.38237
1.3849
1.38859
1.3935
1.39937
1.40592
1.41302
1.42019
1.42733
1.43401
1.43988
1.4452
1.45022
1.45446
1.4572
1.45939
1.46114
1.46267
1.46397
1.46483
1.46639
1.46846
1.46935
1.4702
1.47203
1.47412
1.4754
1.47473
1.4746
1.47759
1.48822
1.52286
1.60231
1.71147
1.86304
1.9486
1.98934
2.00696
2.01386
2.0124
2.00791
2.00181
1.99523
1.99061
1.9885
1.98558
1.98024
1.9732
1.96253
1.95113
1.9398
1.92642
1.36955
1.37015
1.37125
1.3727
1.3747
1.37768
1.3818
1.38706
1.39415
1.40276
1.4149
1.43018
1.44712
1.46878
1.48836
1.50865
1.52494
1.53577
1.54575
1.55463
1.55765
1.55815
1.55702
1.55556
1.55367
1.5523
1.55068
1.54782
1.54346
1.53824
1.53236
1.52586
1.51897
1.51222
1.5057
1.49993
1.49417
1.48774
1.48274
1.4778
1.47291
1.46905
1.4645
1.45911
1.45442
1.44951
1.44412
1.43894
1.4334
1.4285
1.42347
1.41761
1.41364
1.40975
1.40417
1.40116
1.39881
1.39544
1.39353
1.39154
1.3886
1.38619
1.38458
1.38268
1.3812
1.38001
1.37856
1.37697
1.3761
1.37559
1.37487
1.37463
1.37526
1.37657
1.37866
1.38183
1.38586
1.39048
1.39552
1.40098
1.40662
1.41198
1.41668
1.42112
1.42535
1.42909
1.43261
1.43552
1.43831
1.44151
1.44471
1.44797
1.45173
1.45694
1.46162
1.46385
1.46405
1.46394
1.46433
1.46819
1.48512
1.52657
1.61707
1.75137
1.86671
1.9427
1.98389
1.99733
1.99658
1.99481
1.98986
1.99023
1.99169
1.99167
1.9884
1.98092
1.97092
1.95928
1.94632
1.93314
1.36499
1.365
1.36554
1.36599
1.36675
1.3681
1.37009
1.37245
1.37516
1.37841
1.38273
1.38884
1.39699
1.40954
1.42513
1.44386
1.46576
1.48562
1.50639
1.52171
1.53236
1.54111
1.54723
1.55107
1.5526
1.55271
1.55133
1.54807
1.54506
1.54334
1.54146
1.53789
1.53257
1.52663
1.52031
1.51405
1.50822
1.50195
1.49608
1.49074
1.48517
1.47997
1.47536
1.47088
1.46615
1.4609
1.45607
1.45165
1.44631
1.44153
1.43774
1.43229
1.4267
1.42281
1.41767
1.41217
1.4089
1.40481
1.40023
1.39755
1.39418
1.3907
1.38933
1.38727
1.38457
1.38244
1.38063
1.37844
1.37702
1.37592
1.37454
1.37295
1.37232
1.37189
1.37113
1.37078
1.37102
1.37159
1.37268
1.37472
1.37747
1.38045
1.38378
1.38747
1.39169
1.39609
1.40041
1.40493
1.40927
1.41355
1.41814
1.42257
1.42715
1.43285
1.43943
1.44607
1.45175
1.4529
1.45237
1.45093
1.45176
1.45823
1.47936
1.53914
1.64087
1.75673
1.88605
1.95882
1.96945
1.97168
1.97421
1.97932
1.98623
1.98924
1.99069
1.9891
1.98128
1.96972
1.9564
1.94297
1.36388
1.36392
1.36425
1.36442
1.36447
1.36528
1.36672
1.36819
1.36965
1.37122
1.37291
1.37471
1.37682
1.38005
1.38527
1.3933
1.40618
1.42199
1.44185
1.46342
1.48358
1.50498
1.51721
1.52699
1.53601
1.54152
1.54467
1.5451
1.54547
1.54506
1.54336
1.54102
1.53875
1.53609
1.5327
1.52801
1.52222
1.51604
1.50996
1.5043
1.49876
1.49334
1.48792
1.48282
1.47839
1.4737
1.46804
1.46357
1.45922
1.45307
1.44872
1.44476
1.43926
1.43509
1.43122
1.42562
1.42127
1.41733
1.4118
1.4078
1.40451
1.39999
1.39639
1.39357
1.38943
1.38647
1.38511
1.38297
1.38068
1.37878
1.37688
1.37464
1.37339
1.37263
1.37146
1.37004
1.36953
1.36909
1.36839
1.36795
1.36796
1.36787
1.36813
1.36888
1.37025
1.37217
1.37445
1.3774
1.38085
1.38462
1.38895
1.39361
1.39837
1.40394
1.41037
1.41723
1.42433
1.42879
1.43094
1.43091
1.43
1.42879
1.43025
1.43987
1.47001
1.53567
1.64758
1.77455
1.86018
1.93423
1.97272
1.97274
1.97279
1.97848
1.98598
1.99065
1.98936
1.98153
1.97031
1.95686
1.36373
1.36382
1.36409
1.36436
1.36438
1.36475
1.36589
1.36716
1.36842
1.36967
1.37084
1.37193
1.37281
1.37356
1.37448
1.37592
1.37879
1.384
1.3924
1.40572
1.42158
1.44195
1.46327
1.483
1.50519
1.51543
1.52231
1.52928
1.53508
1.53967
1.53976
1.53952
1.53952
1.53899
1.53789
1.53595
1.53301
1.52939
1.52498
1.5197
1.51387
1.50816
1.50278
1.49706
1.49085
1.48621
1.48138
1.47613
1.472
1.46692
1.46141
1.45719
1.45207
1.44694
1.44311
1.4384
1.43366
1.4298
1.42487
1.41963
1.41587
1.41169
1.40696
1.4036
1.39981
1.39569
1.39266
1.38952
1.38489
1.38264
1.38148
1.37945
1.37747
1.37587
1.37408
1.37178
1.37072
1.37012
1.36895
1.36761
1.36715
1.36679
1.3663
1.36568
1.36512
1.36462
1.36439
1.36468
1.36544
1.36692
1.3689
1.37124
1.37392
1.3773
1.38174
1.387
1.39276
1.39821
1.40186
1.40381
1.40384
1.40324
1.40204
1.40132
1.40362
1.41538
1.4489
1.52597
1.63648
1.74913
1.86159
1.92343
1.95403
1.97356
1.9806
1.99004
1.99419
1.99381
1.98802
1.9764
1.36446
1.36456
1.36467
1.36473
1.36476
1.36489
1.36573
1.36693
1.36812
1.36925
1.37033
1.37131
1.37196
1.37246
1.37293
1.37316
1.37331
1.37384
1.37504
1.37772
1.38322
1.39244
1.40717
1.42389
1.44418
1.46409
1.48295
1.50294
1.51353
1.52142
1.52484
1.52905
1.53353
1.53613
1.53583
1.53494
1.53465
1.53418
1.53284
1.53023
1.52694
1.52318
1.51872
1.51364
)
;

boundaryField
{
    inlet
    {
        type            calculated;
        value           nonuniform 0();
    }
    outlet
    {
        type            calculated;
        value           nonuniform 0();
    }
    bottom
    {
        type            symmetryPlane;
    }
    top
    {
        type            symmetryPlane;
    }
    obstacle
    {
        type            calculated;
        value           nonuniform 0();
    }
    front
    {
        type            empty;
    }
    back
    {
        type            empty;
    }
    procBoundary29to21
    {
        type            processor;
        value           nonuniform List<scalar> 
129
(
1.35726
1.37032
1.38402
1.39593
1.40247
1.40316
1.40259
1.40214
1.56605
1.55996
1.55503
1.54772
1.54223
1.53811
1.53164
1.52607
1.52241
1.51714
1.51058
1.50619
1.50304
1.49783
1.49222
1.4875
1.48068
1.47976
1.48436
1.50938
1.59535
1.73604
1.83979
1.85571
1.85468
1.84667
1.83542
1.82478
1.81285
1.80481
1.79844
1.78886
1.77946
1.77179
1.76254
1.75323
1.74553
1.73667
1.72668
1.71731
1.70787
1.69813
1.687
1.67972
1.67666
1.67389
1.67232
1.67377
1.67369
1.67137
1.67001
1.66647
1.65871
1.65093
1.6428
1.63198
1.6218
1.40043
1.3968
1.3934
1.3901
1.38525
1.37998
1.37638
1.37143
1.36579
1.36216
1.35904
1.35669
1.35507
1.35537
1.35559
1.35761
1.36531
1.38633
1.42986
1.49301
1.57205
1.66184
1.72546
1.7759
1.8241
1.8408
1.83911
1.84278
1.84267
1.84296
1.83997
1.83475
1.82843
1.82298
1.81777
1.81143
1.80416
1.79617
1.78776
1.77964
1.77141
1.76273
1.75345
1.74372
1.73446
1.7257
1.71573
1.70635
1.6984
1.68885
1.67967
1.67159
1.6629
1.65478
1.64619
1.63847
1.63196
1.62362
1.61525
1.61017
1.60354
1.59479
1.58977
1.58977
)
;
    }
    procBoundary29to22
    {
        type            processor;
        value           nonuniform List<scalar> 3(1.63688 1.65907 1.68125);
    }
    procBoundary29to30
    {
        type            processor;
        value           nonuniform List<scalar> 
16
(
1.70474
1.72678
1.74958
1.7716
1.79441
1.817
1.84214
1.86922
1.88816
1.89723
1.90532
1.91384
1.92131
1.93067
1.94252
1.96052
)
;
    }
    procBoundary29to36
    {
        type            processor;
        value           nonuniform List<scalar> 
19
(
1.35084
1.35489
1.3596
1.36585
1.37336
1.38236
1.39176
1.39774
1.39894
1.39888
1.39709
1.39431
1.38935
1.38403
1.38144
1.38166
1.38335
1.38566
1.39028
)
;
    }
    procBoundary29to37
    {
        type            processor;
        value           nonuniform List<scalar> 
129
(
1.39271
1.3884
1.38547
1.38183
1.37731
1.37451
1.37242
1.36946
1.50788
1.50197
1.49661
1.49073
1.48505
1.48021
1.47491
1.47026
1.46567
1.46048
1.45597
1.4512
1.44597
1.44177
1.43746
1.43262
1.42827
1.4239
1.41902
1.41481
1.41121
1.4069
1.40296
1.39979
1.39583
1.39159
1.38877
1.38591
1.38177
1.37993
1.37891
1.37685
1.37492
1.3735
1.37171
1.36949
1.36841
1.36791
1.36721
1.36618
1.36511
1.36447
1.36395
1.36375
1.36351
1.36366
1.36447
1.36491
1.36542
1.36695
1.36954
1.37268
1.37624
1.37986
1.3824
1.3835
1.38405
1.38451
1.38451
1.38399
1.38355
1.38447
1.38826
1.40198
1.44072
1.51094
1.62663
1.73767
1.83568
1.91798
1.94965
1.97101
1.98224
1.99432
1.99668
1.99426
1.3666
1.36606
1.366
1.36563
1.36552
1.36555
1.36619
1.36732
1.36839
1.36938
1.37031
1.37117
1.3719
1.37228
1.37254
1.37273
1.37261
1.37222
1.37185
1.37116
1.37149
1.37304
1.37656
1.38311
1.3933
1.40834
1.42519
1.44523
1.4643
1.48176
1.49817
1.50967
1.52016
1.52523
1.52498
1.5274
1.53037
1.53124
1.53088
1.53
1.52898
1.52801
1.52653
1.50788
1.52413
)
;
    }
}


// ************************************************************************* //
