/*--------------------------------*- C++ -*----------------------------------*\
  =========                 |
  \\      /  F ield         | OpenFOAM: The Open Source CFD Toolbox
   \\    /   O peration     | Website:  https://openfoam.org
    \\  /    A nd           | Version:  7
     \\/     M anipulation  |
\*---------------------------------------------------------------------------*/
FoamFile
{
    version     2.0;
    format      ascii;
    class       volScalarField;
    location    "4";
    object      p;
}
// * * * * * * * * * * * * * * * * * * * * * * * * * * * * * * * * * * * * * //

dimensions      [1 -1 -2 0 0 0 0];

internalField   nonuniform List<scalar> 
2413
(
1.24455
1.24189
1.24032
1.23964
1.23914
1.23903
1.23988
1.24031
1.23983
1.23883
1.23686
1.2346
1.23373
1.23305
1.23249
1.2326
1.23234
1.23149
1.2307
1.22969
1.2277
1.22491
1.22341
1.22233
1.22101
1.21984
1.21905
1.21838
1.21805
1.21824
1.21777
1.21715
1.21636
1.21501
1.21371
1.21301
1.21258
1.21239
1.21189
1.21117
1.21015
1.20855
1.20751
1.2069
1.20624
1.20552
1.20479
1.20399
1.20284
1.20029
1.19787
1.19708
1.19627
1.19525
1.1944
1.19377
1.19326
1.19304
1.19329
1.19318
1.19267
1.19207
1.19135
1.1902
1.18827
1.18651
1.18551
1.18477
1.18422
1.18396
1.18391
1.18348
1.18279
1.18197
1.18069
1.17775
1.17464
1.17366
1.17305
1.17246
1.17204
1.17248
1.1723
1.31007
1.3089
1.30694
1.30219
1.29552
1.29278
1.29174
1.29133
1.29288
1.29779
1.29972
1.29891
1.29742
1.2937
1.28644
1.28274
1.28187
1.28138
1.28262
1.28676
1.2877
1.28693
1.28582
1.28265
1.27731
1.27541
1.27482
1.27439
1.2744
1.2744
1.27394
1.27333
1.27281
1.27258
1.2731
1.2733
1.27267
1.27196
1.27098
1.26852
1.26386
1.26193
1.26135
1.26079
1.26042
1.26052
1.26027
1.25943
1.25843
1.25629
1.25312
1.2519
1.25128
1.25087
1.25112
1.25168
1.25134
1.25045
1.24875
1.24674
1.24589
1.2453
1.24504
1.24565
1.24557
1.24473
1.24394
1.2429
1.24043
1.23756
1.23669
1.236
1.2351
1.23394
1.23232
1.23115
1.23041
1.22974
1.2292
1.22865
1.22801
1.22702
1.22552
1.22451
1.22396
1.22379
1.22372
1.22313
1.2223
1.22117
1.22024
1.21956
1.21885
1.21811
1.21737
1.21661
1.2157
1.21411
1.21141
1.20948
1.20846
1.20771
1.20719
1.20687
1.20658
1.20604
1.20541
1.20474
1.20382
1.2021
1.20059
1.19973
1.19893
1.19828
1.19814
1.19862
1.19843
1.19774
1.197
1.19617
1.19514
1.19364
1.19118
1.18875
1.18763
1.187
1.18642
1.18589
1.18558
1.18552
1.1855
1.18439
1.32293
1.32208
1.32055
1.31691
1.30937
1.30482
1.3036
1.30292
1.30331
1.30708
1.31138
1.31134
1.31015
1.3064
1.29907
1.29609
1.29535
1.29506
1.29724
1.30034
1.30002
1.29909
1.29677
1.29164
1.28913
1.28847
1.28805
1.28821
1.28803
1.28742
1.28665
1.2855
1.28452
1.28392
1.28375
1.2841
1.28369
1.28298
1.28183
1.27874
1.27563
1.2748
1.2742
1.27368
1.27353
1.27354
1.27283
1.27189
1.27033
1.26734
1.2655
1.26477
1.26425
1.26415
1.26414
1.26364
1.26278
1.26124
1.2586
1.25713
1.25648
1.25606
1.2566
1.2576
1.25719
1.2564
1.25539
1.25307
1.25021
1.24937
1.24898
1.24838
1.24767
1.24686
1.2457
1.24418
1.24306
1.24227
1.24153
1.24068
1.2393
1.23728
1.23613
1.23563
1.23563
1.23551
1.23485
1.23401
1.23276
1.23147
1.23075
1.23018
1.22981
1.22935
1.22876
1.22807
1.22718
1.22562
1.22296
1.22113
1.22036
1.21982
1.21958
1.21983
1.21952
1.21886
1.21817
1.21732
1.21556
1.21207
1.21001
1.20911
1.20838
1.20825
1.20983
1.21141
1.2109
1.21014
1.20923
1.20764
1.20464
1.20205
1.20099
1.20036
1.19979
1.19932
1.19911
1.19917
1.19901
1.19858
1.19812
1.1968
1.33609
1.33513
1.33344
1.32878
1.32184
1.31939
1.31853
1.31797
1.31865
1.32092
1.32093
1.31979
1.31668
1.31152
1.30936
1.30864
1.30824
1.30935
1.31331
1.31432
1.31354
1.31196
1.30742
1.30359
1.30274
1.30212
1.30186
1.30214
1.30177
1.30112
1.30032
1.29883
1.29732
1.2966
1.29595
1.29515
1.29405
1.29182
1.28856
1.28721
1.28661
1.28615
1.28606
1.28665
1.28677
1.28618
1.28532
1.284
1.28142
1.2793
1.27851
1.27797
1.27791
1.27786
1.27726
1.27644
1.27537
1.27307
1.2699
1.26872
1.26807
1.26765
1.26799
1.26808
1.26729
1.26608
1.26373
1.26154
1.26082
1.26056
1.26072
1.26039
1.25981
1.25914
1.25827
1.25719
1.25635
1.25562
1.25484
1.25368
1.25129
1.24855
1.2476
1.24721
1.24739
1.247
1.24628
1.2455
1.24424
1.24205
1.24067
1.23997
1.23941
1.23925
1.23948
1.23913
1.23839
1.23736
1.23561
1.23341
1.23238
1.23176
1.23137
1.23154
1.23152
1.23097
1.2303
1.22946
1.22801
1.22474
1.22146
1.22016
1.2195
1.21966
1.2216
1.22222
1.22158
1.22074
1.21948
1.21761
1.21593
1.21497
1.21415
1.21328
1.21252
1.21179
1.21107
1.21051
1.21039
1.21062
1.21027
1.20901
1.34822
1.34612
1.34098
1.337
1.33588
1.33533
1.33566
1.3358
1.33501
1.33387
1.33122
1.32659
1.32413
1.32338
1.32317
1.32352
1.32319
1.32248
1.32156
1.32064
1.3199
1.31923
1.3186
1.318
1.3175
1.31699
1.31636
1.31563
1.31476
1.31328
1.31163
1.31077
1.31014
1.30945
1.30861
1.30763
1.30607
1.30229
1.29792
1.29668
1.29601
1.29556
1.29629
1.29854
1.299
1.29837
1.29742
1.29567
1.2928
1.29131
1.29062
1.29026
1.29079
1.29089
1.29017
1.2894
1.28846
1.28644
1.28279
1.28096
1.28021
1.27962
1.27944
1.2792
1.27837
1.27723
1.27566
1.27365
1.27166
1.27046
1.2697
1.26907
1.26862
1.26868
1.26962
1.26988
1.2694
1.26884
1.26812
1.2669
1.26437
1.26099
1.25974
1.25913
1.25896
1.25864
1.25797
1.25726
1.25628
1.25413
1.25135
1.25015
1.2494
1.24885
1.24895
1.25026
1.25037
1.24963
1.24879
1.24758
1.2454
1.24359
1.24285
1.24235
1.2423
1.24254
1.24223
1.24167
1.24085
1.23964
1.23793
1.23532
1.23204
1.23005
1.22915
1.22849
1.22805
1.22817
1.22965
1.23042
1.23001
1.22945
1.22877
1.22799
1.22683
1.22448
1.22221
1.22123
1.22065
1.22065
1.22175
1.22108
1.35797
1.35177
1.34845
1.34765
1.34779
1.3504
1.35188
1.35112
1.34988
1.34644
1.33984
1.33691
1.33617
1.33608
1.33787
1.33859
1.3378
1.3365
1.33328
1.32933
1.32817
1.32765
1.32816
1.33117
1.33215
1.3315
1.33077
1.3297
1.32709
1.32367
1.32248
1.32193
1.32192
1.32176
1.32105
1.32021
1.31904
1.31627
1.31096
1.30818
1.30737
1.30668
1.30634
1.30761
1.31023
1.3103
1.30946
1.30817
1.30561
1.30266
1.30157
1.30093
1.30086
1.30214
1.30237
1.30168
1.30094
1.30002
1.29846
1.29508
1.29098
1.2893
1.28855
1.28842
1.28905
1.28872
1.28793
1.28706
1.28606
1.28469
1.28227
1.28006
1.27919
1.27851
1.27802
1.27847
1.28062
1.2814
1.28073
1.27966
1.27772
1.27409
1.27178
1.27105
1.27049
1.27023
1.26973
1.26905
1.26827
1.26697
1.26419
1.26142
1.2603
1.25961
1.25917
1.25952
1.26168
1.26247
1.2618
1.26101
1.25999
1.25802
1.25465
1.25291
1.25219
1.25166
1.25171
1.25315
1.25383
1.25318
1.25222
1.25096
1.24872
1.24385
1.23938
1.23827
1.23767
1.23724
1.23762
1.24097
1.24382
1.24359
1.24292
1.24216
1.24115
1.23882
1.2346
1.23239
1.23166
1.23121
1.23163
1.2329
1.36354
1.35863
1.35754
1.35714
1.35889
1.36426
1.36591
1.36506
1.36304
1.35712
1.35183
1.35072
1.3501
1.35029
1.35246
1.35301
1.35222
1.35098
1.34761
1.34133
1.33872
1.33801
1.33754
1.33844
1.34276
1.34442
1.34372
1.34285
1.34106
1.3363
1.33219
1.33113
1.33062
1.33119
1.33208
1.33149
1.33065
1.32951
1.32702
1.32284
1.32074
1.31992
1.31923
1.31895
1.32022
1.32182
1.32141
1.32045
1.31882
1.31542
1.31234
1.31137
1.31069
1.31036
1.31158
1.31341
1.31319
1.31252
1.31167
1.31028
1.30706
1.30139
1.29852
1.29769
1.29711
1.29734
1.29932
1.29983
1.29912
1.29824
1.2969
1.29414
1.29108
1.28989
1.28915
1.28874
1.28961
1.29218
1.2925
1.29162
1.29037
1.28784
1.28416
1.28267
1.282
1.28144
1.2812
1.28081
1.28016
1.27933
1.27797
1.27528
1.27258
1.27159
1.27091
1.27043
1.27085
1.27342
1.27463
1.274
1.2732
1.27208
1.26963
1.26552
1.26352
1.26276
1.26224
1.26229
1.26421
1.26559
1.26504
1.26424
1.26316
1.26055
1.25466
1.2508
1.24992
1.24929
1.24889
1.24967
1.25389
1.25659
1.25615
1.2554
1.25455
1.25285
1.24858
1.24487
1.24388
1.24334
1.24314
1.24424
1.37125
1.37016
1.36974
1.37096
1.37412
1.37434
1.37325
1.37103
1.36785
1.36623
1.36546
1.36485
1.3647
1.36609
1.36763
1.36733
1.36653
1.36511
1.36083
1.35386
1.35141
1.35065
1.34998
1.34962
1.35106
1.3546
1.35501
1.35421
1.35304
1.35011
1.34442
1.34157
1.34074
1.34016
1.34021
1.34189
1.34233
1.34159
1.34064
1.33914
1.33652
1.33456
1.33367
1.33296
1.33259
1.33288
1.33267
1.33168
1.32978
1.32623
1.32372
1.3228
1.32205
1.32138
1.32098
1.32176
1.32412
1.3247
1.32409
1.32314
1.3217
1.3186
1.31289
1.30955
1.30868
1.30806
1.30787
1.30961
1.31117
1.31058
1.30965
1.30836
1.30594
1.30292
1.30154
1.30076
1.30032
1.30101
1.30294
1.30284
1.30199
1.30075
1.29821
1.29509
1.29389
1.2932
1.29266
1.29253
1.2925
1.29194
1.29107
1.28976
1.28729
1.28475
1.28375
1.28303
1.28248
1.28271
1.28504
1.28614
1.2855
1.28465
1.2833
1.28024
1.27662
1.27536
1.27471
1.27425
1.2746
1.27668
1.27737
1.27675
1.27599
1.27483
1.27188
1.26622
1.26346
1.26271
1.2621
1.2618
1.26322
1.26748
1.26881
1.26818
1.26739
1.26618
1.2631
1.25892
1.25758
1.25699
1.25662
1.25708
1.38214
1.38216
1.38474
1.38779
1.3874
1.38622
1.38343
1.37968
1.3784
1.37777
1.37789
1.38034
1.38187
1.38132
1.38046
1.37883
1.37513
1.37051
1.36811
1.36706
1.36632
1.36558
1.3649
1.36433
1.36412
1.36447
1.36434
1.36365
1.36261
1.36068
1.35729
1.3548
1.35373
1.35289
1.35213
1.35151
1.35125
1.35222
1.35258
1.35185
1.35101
1.35014
1.34931
1.3484
1.34695
1.34354
1.33966
1.33847
1.33807
1.33785
1.33725
1.33654
1.33574
1.33493
1.3342
1.33354
1.33303
1.33348
1.33476
1.33444
1.33354
1.3324
1.33047
1.32651
1.32206
1.32041
1.31961
1.31904
1.31918
1.32125
1.32203
1.32125
1.3203
1.31894
1.31647
1.31374
1.31259
1.31196
1.31179
1.31291
1.31326
1.31251
1.31151
1.30974
1.30712
1.30576
1.30504
1.30457
1.30459
1.30453
1.30391
1.30307
1.30176
1.29926
1.29713
1.29624
1.29552
1.29502
1.29547
1.2975
1.29775
1.29704
1.29611
1.29441
1.29114
1.28903
1.28829
1.28765
1.28728
1.28811
1.28962
1.2895
1.28889
1.28804
1.2864
1.28223
1.2778
1.27663
1.27597
1.27541
1.27555
1.27845
1.2814
1.28122
1.2805
1.27951
1.27736
1.27389
1.27245
1.27184
1.27141
1.27164
1.39233
1.39449
1.40058
1.40241
1.40154
1.40011
1.39618
1.39175
1.39059
1.38995
1.39037
1.39365
1.39482
1.394
1.39276
1.38946
1.38266
1.3794
1.3787
1.37836
1.37948
1.38078
1.38034
1.37963
1.37878
1.37719
1.37362
1.37097
1.37003
1.36951
1.36979
1.36999
1.36937
1.36861
1.36767
1.36605
1.3635
1.3622
1.36148
1.36126
1.36253
1.36298
1.36227
1.3614
1.3599
1.35573
1.35012
1.34844
1.3478
1.34758
1.34904
1.35102
1.35069
1.34996
1.34914
1.34773
1.34545
1.34424
1.34361
1.34368
1.34441
1.34394
1.34305
1.34186
1.33947
1.33502
1.33198
1.33099
1.33041
1.33032
1.33211
1.33416
1.33371
1.33289
1.33178
1.3293
1.32586
1.32444
1.32377
1.3234
1.32412
1.32517
1.32462
1.32374
1.32237
1.31995
1.31829
1.31758
1.31716
1.31709
1.31663
1.31583
1.31476
1.31277
1.31058
1.30956
1.30881
1.3082
1.308
1.30937
1.31072
1.31021
1.30944
1.30838
1.30622
1.30355
1.30251
1.30183
1.30127
1.3013
1.30227
1.3024
1.30186
1.30102
1.29953
1.29595
1.2919
1.29073
1.29006
1.28946
1.28941
1.29189
1.29493
1.29486
1.29416
1.2932
1.29126
1.28864
1.28763
1.28702
1.28676
1.28696
1.40482
1.40684
1.41372
1.41696
1.41625
1.41515
1.41244
1.40618
1.40245
1.40154
1.401
1.40196
1.40441
1.40419
1.40315
1.401
1.39584
1.39198
1.39108
1.39044
1.39039
1.39249
1.39382
1.39315
1.39214
1.39011
1.38537
1.38195
1.38101
1.38034
1.3804
1.38277
1.38424
1.38362
1.38271
1.38117
1.37753
1.37392
1.37289
1.37225
1.37249
1.37375
1.37342
1.37256
1.37129
1.36819
1.36316
1.36116
1.36044
1.35996
1.36043
1.36346
1.36513
1.36451
1.36365
1.36224
1.35906
1.35626
1.35536
1.3548
1.35501
1.35565
1.35513
1.35428
1.35302
1.3501
1.34587
1.34417
1.34345
1.343
1.34364
1.34618
1.34666
1.34591
1.34504
1.34328
1.33989
1.33794
1.33714
1.33656
1.33662
1.33814
1.33846
1.33772
1.33673
1.33474
1.33225
1.33126
1.33066
1.33018
1.32949
1.3286
1.32731
1.3253
1.32379
1.32294
1.3222
1.32162
1.32143
1.32283
1.32453
1.32413
1.32339
1.32248
1.3207
1.31798
1.31677
1.31609
1.31549
1.31533
1.31574
1.31561
1.31499
1.31401
1.31215
1.30839
1.30589
1.30514
1.30448
1.304
1.30465
1.30808
1.30966
1.30909
1.30832
1.30709
1.30475
1.30313
1.30246
1.30204
1.30228
1.30154
1.41867
1.41925
1.42412
1.42967
1.42965
1.42873
1.42687
1.42112
1.4144
1.41267
1.41193
1.41174
1.41366
1.41514
1.41445
1.41345
1.41135
1.40706
1.4045
1.40368
1.40306
1.40329
1.4047
1.40445
1.40344
1.40172
1.39817
1.39546
1.39455
1.39382
1.39353
1.39531
1.3974
1.39702
1.39613
1.39461
1.39069
1.38612
1.38479
1.38407
1.38386
1.38505
1.38523
1.38446
1.38351
1.38186
1.37835
1.37543
1.37452
1.37388
1.37369
1.37553
1.37791
1.37757
1.37667
1.37522
1.37198
1.36915
1.36824
1.36761
1.36759
1.36806
1.36758
1.36678
1.36566
1.36322
1.35957
1.35807
1.35738
1.35694
1.35751
1.35952
1.35955
1.35878
1.35788
1.35602
1.35316
1.35177
1.35101
1.35049
1.35084
1.35233
1.35216
1.35136
1.35028
1.34794
1.34551
1.34464
1.34398
1.34328
1.34243
1.3413
1.33971
1.33834
1.33748
1.33673
1.33609
1.33567
1.33607
1.33828
1.33902
1.33835
1.33758
1.33646
1.33394
1.33134
1.33044
1.32976
1.32927
1.32935
1.32941
1.32886
1.32799
1.32658
1.32362
1.32086
1.32
1.31936
1.31887
1.31929
1.32258
1.32477
1.32427
1.32352
1.32239
1.31998
1.31801
1.31728
1.31685
1.31693
1.31667
1.31542
1.43323
1.43318
1.43622
1.44065
1.44062
1.43965
1.43772
1.43211
1.42611
1.42462
1.42387
1.42353
1.42508
1.42743
1.42709
1.42628
1.42503
1.42178
1.41789
1.41662
1.41587
1.41561
1.41652
1.41647
1.41557
1.41428
1.41189
1.40972
1.40881
1.40808
1.40777
1.40877
1.40912
1.4084
1.4073
1.40504
1.40049
1.39776
1.3969
1.39624
1.39616
1.39772
1.39845
1.3978
1.39699
1.39586
1.39342
1.38981
1.38837
1.38765
1.38731
1.38858
1.39053
1.39012
1.38921
1.38774
1.38467
1.38225
1.38139
1.38079
1.38077
1.38083
1.38021
1.37936
1.37804
1.37534
1.37289
1.37201
1.37142
1.37122
1.37247
1.37341
1.37277
1.37197
1.37081
1.36848
1.36654
1.36566
1.36506
1.36498
1.36616
1.36636
1.36561
1.3647
1.36291
1.35973
1.35823
1.35754
1.35685
1.356
1.35494
1.35369
1.35263
1.35183
1.3511
1.35047
1.35005
1.35042
1.3527
1.35377
1.35316
1.3524
1.35131
1.34859
1.34523
1.34411
1.34343
1.34299
1.34329
1.34352
1.34292
1.34207
1.34075
1.33789
1.33507
1.33416
1.33351
1.33309
1.33385
1.33754
1.3394
1.3388
1.33798
1.33636
1.33309
1.33125
1.33056
1.33021
1.33037
1.32996
1.3292
1.32714
1.4467
1.44687
1.45007
1.45246
1.45179
1.4507
1.44817
1.44235
1.43888
1.43797
1.43731
1.43737
1.43968
1.44072
1.43997
1.43902
1.43693
1.43227
1.42947
1.42857
1.42797
1.42836
1.42991
1.42968
1.42879
1.42755
1.42526
1.42333
1.42246
1.4218
1.42169
1.42167
1.421
1.42003
1.41837
1.41476
1.41152
1.41051
1.40978
1.40935
1.41034
1.41259
1.41258
1.41181
1.41092
1.40934
1.40537
1.40185
1.40086
1.40024
1.40042
1.40269
1.40359
1.40283
1.40185
1.40002
1.39675
1.39503
1.39427
1.39382
1.39389
1.39355
1.39278
1.39174
1.38975
1.3871
1.38593
1.38527
1.38488
1.38566
1.38701
1.38655
1.38574
1.38471
1.38263
1.38042
1.37946
1.37884
1.37872
1.37976
1.37993
1.3792
1.37832
1.37662
1.37311
1.3711
1.37037
1.37002
1.36962
1.36879
1.36778
1.36678
1.36598
1.36526
1.36462
1.3642
1.36465
1.36683
1.36754
1.36686
1.36601
1.36426
1.36009
1.35718
1.35633
1.35572
1.3556
1.35655
1.35672
1.35604
1.35514
1.35348
1.34982
1.34722
1.34641
1.3458
1.34553
1.34702
1.35088
1.35176
1.35102
1.34978
1.34655
1.343
1.34186
1.34123
1.34105
1.3411
1.34045
1.33934
1.33716
1.33407
1.45914
1.4613
1.46449
1.4642
1.46323
1.4615
1.45706
1.45305
1.45198
1.45127
1.45115
1.45321
1.45451
1.4538
1.45288
1.45104
1.44623
1.44252
1.44152
1.44086
1.44102
1.44314
1.44376
1.44297
1.44192
1.43976
1.43654
1.43519
1.43445
1.4342
1.43423
1.4336
1.43266
1.43124
1.42835
1.4255
1.42449
1.42375
1.42331
1.42428
1.42703
1.42732
1.42651
1.42554
1.42346
1.41811
1.41416
1.41315
1.4125
1.4126
1.41509
1.4168
1.41614
1.4152
1.41356
1.41004
1.40765
1.40681
1.40629
1.40648
1.40647
1.40576
1.40482
1.40315
1.40036
1.39885
1.39812
1.39764
1.39821
1.39984
1.39961
1.39879
1.39776
1.39559
1.39285
1.39175
1.39112
1.39104
1.39205
1.39204
1.39127
1.39028
1.38789
1.38385
1.38216
1.38148
1.3813
1.38167
1.3811
1.3802
1.37905
1.37806
1.3773
1.37665
1.37629
1.37701
1.37878
1.37874
1.37793
1.37657
1.3731
1.36853
1.3669
1.3662
1.36574
1.36621
1.36753
1.36732
1.3665
1.36527
1.3623
1.35791
1.35616
1.35541
1.35482
1.35478
1.35699
1.36003
1.3599
1.35894
1.3571
1.3531
1.35008
1.34912
1.3485
1.34841
1.34804
1.34707
1.34553
1.34263
1.3405
1.33917
1.47359
1.47736
1.47734
1.47642
1.47485
1.47054
1.46616
1.46501
1.46429
1.46424
1.46645
1.46767
1.4669
1.4659
1.46355
1.45815
1.45493
1.454
1.45336
1.45377
1.45644
1.45727
1.45646
1.45538
1.45274
1.4485
1.44682
1.44608
1.44585
1.44622
1.44574
1.44483
1.44353
1.44095
1.43839
1.43742
1.4367
1.43637
1.43774
1.44064
1.44074
1.43987
1.4386
1.43497
1.42836
1.42533
1.42447
1.42386
1.42424
1.42738
1.42925
1.42854
1.42751
1.42536
1.42103
1.41867
1.41784
1.41737
1.41787
1.41819
1.41749
1.41656
1.41486
1.41169
1.40985
1.40907
1.40856
1.40919
1.41099
1.4108
1.40994
1.40873
1.40588
1.40282
1.40175
1.40117
1.40132
1.40228
1.40194
1.40107
1.39961
1.39605
1.39242
1.39124
1.39058
1.3905
1.39152
1.39138
1.39052
1.3893
1.38758
1.38652
1.3858
1.38538
1.3859
1.38652
1.38592
1.38492
1.38314
1.37939
1.37576
1.37456
1.37387
1.3735
1.37428
1.37526
1.3747
1.37371
1.37209
1.36851
1.36418
1.36261
1.36182
1.36121
1.36127
1.36382
1.36599
1.36533
1.36418
1.3621
1.35782
1.35464
1.35364
1.35297
1.35273
1.35206
1.35101
1.3495
1.34685
1.34455
1.34365
1.34263
1.49005
1.49006
1.4891
1.4871
1.48179
1.4776
1.47654
1.47585
1.47601
1.47838
1.47922
1.47839
1.4772
1.47393
1.46843
1.46613
1.46528
1.46476
1.46571
1.46877
1.46923
1.46834
1.46682
1.46272
1.45835
1.45703
1.45633
1.45627
1.45709
1.45675
1.45585
1.45454
1.45179
1.44919
1.4482
1.4475
1.4473
1.44913
1.45157
1.45127
1.4503
1.44853
1.44371
1.43725
1.43497
1.43416
1.43364
1.43437
1.43804
1.43982
1.43905
1.43781
1.43464
1.42971
1.42777
1.42699
1.42665
1.42758
1.42807
1.42731
1.42626
1.42398
1.42027
1.41853
1.41774
1.41728
1.41806
1.41987
1.41957
1.41862
1.41703
1.41347
1.41054
1.40958
1.40905
1.4093
1.40975
1.40912
1.40813
1.40633
1.40269
1.39982
1.39884
1.39822
1.39832
1.39953
1.39934
1.39841
1.3969
1.39456
1.39328
1.39255
1.39223
1.39269
1.39253
1.39168
1.3905
1.38839
1.38447
1.38161
1.38061
1.37988
1.37955
1.38039
1.38073
1.37987
1.37874
1.37694
1.37315
1.36889
1.36738
1.36652
1.36587
1.36596
1.36846
1.36988
1.36903
1.3679
1.36592
1.36159
1.35798
1.35691
1.35624
1.35609
1.35579
1.35501
1.35386
1.35179
1.34955
1.34852
1.34791
1.34752
1.50074
1.49959
1.49661
1.49053
1.48718
1.48625
1.4856
1.48607
1.48844
1.48866
1.48773
1.48612
1.48193
1.47721
1.47567
1.47489
1.47454
1.47613
1.47888
1.47872
1.47766
1.47533
1.47031
1.46684
1.46582
1.46519
1.46544
1.46655
1.46613
1.46515
1.4635
1.46012
1.45773
1.4568
1.45613
1.45617
1.45839
1.46007
1.4594
1.45826
1.45598
1.45058
1.44483
1.44306
1.4423
1.44183
1.44286
1.44654
1.44766
1.44677
1.44528
1.4416
1.43681
1.43508
1.43433
1.43409
1.43523
1.43562
1.43478
1.43353
1.4308
1.42708
1.4255
1.42471
1.42428
1.42518
1.42678
1.42631
1.4253
1.42357
1.42
1.41719
1.41626
1.41575
1.41601
1.41609
1.41531
1.41421
1.41217
1.40857
1.40625
1.40536
1.40475
1.40497
1.4062
1.40583
1.40481
1.4031
1.4003
1.39873
1.39792
1.39753
1.3976
1.39707
1.39613
1.39487
1.39253
1.38861
1.38624
1.38524
1.38446
1.38419
1.38501
1.38483
1.38385
1.38266
1.38069
1.3766
1.37263
1.3713
1.37049
1.3699
1.37025
1.37298
1.37445
1.37381
1.37281
1.37097
1.36681
1.3633
1.36237
1.36192
1.36214
1.3626
1.36249
1.3621
1.36118
1.36063
1.36128
1.36271
1.36532
1.37097
1.50775
1.50362
1.49769
1.49533
1.49446
1.4939
1.49477
1.49647
1.49596
1.4949
1.49291
1.48855
1.48495
1.48381
1.4831
1.48307
1.48524
1.48694
1.48622
1.48487
1.48173
1.47665
1.47418
1.47331
1.47279
1.47348
1.47469
1.47411
1.47302
1.47088
1.46705
1.46486
1.46396
1.46333
1.46363
1.46586
1.46653
1.46565
1.46439
1.46194
1.45652
1.45157
1.45015
1.44939
1.44903
1.45049
1.45404
1.45452
1.45354
1.4518
1.44766
1.44302
1.44151
1.44079
1.44067
1.44191
1.44208
1.44117
1.43984
1.43701
1.43331
1.43177
1.43099
1.43058
1.43157
1.4332
1.4327
1.43164
1.42984
1.42618
1.42331
1.42236
1.42182
1.42192
1.42166
1.42078
1.41958
1.41737
1.41388
1.41188
1.41097
1.41032
1.41061
1.41173
1.41113
1.41002
)
;

boundaryField
{
    inlet
    {
        type            fixedValue;
        value           nonuniform 0();
    }
    outlet
    {
        type            zeroGradient;
    }
    bottom
    {
        type            symmetryPlane;
    }
    top
    {
        type            symmetryPlane;
    }
    obstacle
    {
        type            zeroGradient;
    }
    front
    {
        type            empty;
    }
    back
    {
        type            empty;
    }
    procBoundary47to39
    {
        type            processor;
        value           nonuniform List<scalar> 
133
(
1.23101
1.23002
1.22932
1.22867
1.22815
1.22804
1.22836
1.22843
1.2279
1.22686
1.2249
1.222
1.22072
1.22003
1.21933
1.21892
1.21952
1.21917
1.21841
1.21764
1.2167
1.21524
1.21287
1.21086
1.20956
1.20854
1.2078
1.20725
1.20723
1.20755
1.20697
1.20629
1.20546
1.20391
1.20216
1.20133
1.20071
1.20032
1.19984
1.19918
1.19833
1.19685
1.19503
1.19419
1.19367
1.19334
1.19269
1.192
1.19118
1.18965
1.18703
1.18571
1.18517
1.18485
1.18429
1.18353
1.18281
1.18218
1.18166
1.18132
1.18099
1.18046
1.17985
1.17918
1.17834
1.17678
1.17397
1.17232
1.1716
1.17099
1.17065
1.17079
1.17072
1.17011
1.16931
1.16816
1.16562
1.16225
1.16108
1.16048
1.15995
1.16004
1.16048
1.29682
1.29524
1.29172
1.28615
1.28347
1.28237
1.28196
1.2838
1.28659
1.28627
1.28489
1.28323
1.28101
1.27729
1.27384
1.27238
1.27143
1.27086
1.27136
1.27344
1.27379
1.27307
1.2723
1.2712
1.26851
1.26411
1.26225
1.26161
1.26112
1.26105
1.26232
1.26297
1.2626
1.26209
1.26135
1.26043
1.25946
1.25852
1.25753
1.25587
1.25245
1.24994
1.24921
1.24866
1.2482
1.24791
1.24765
1.24692
1.24603
1.24603
)
;
    }
    procBoundary47to46
    {
        type            processor;
        value           nonuniform List<scalar> 
17
(
1.30939
1.32054
1.33472
1.34913
1.36081
1.37016
1.37645
1.38289
1.39258
1.40509
1.41921
1.43393
1.44739
1.45939
1.47143
1.48583
1.50102
)
;
    }
    procBoundary47to54
    {
        type            processor;
        value           uniform 1.50939;
    }
    procBoundary47to55
    {
        type            processor;
        value           nonuniform List<scalar> 
133
(
1.40816
1.40502
1.40315
1.40225
1.40174
1.40158
1.40084
1.39982
1.39841
1.39581
1.39209
1.3902
1.3893
1.3886
1.38857
1.38938
1.38917
1.38837
1.38728
1.38545
1.38166
1.37842
1.37748
1.37698
1.37681
1.37797
1.38171
1.38396
1.38419
1.38432
1.38379
1.38155
1.38153
1.38385
1.38768
1.39337
1.40045
1.40622
1.41283
1.42082
1.42897
1.44011
1.45222
1.46667
1.48128
1.50504
1.50914
1.50418
1.50257
1.50175
1.50138
1.50277
1.50385
1.50303
1.50183
1.49923
1.4947
1.49212
1.49119
1.49058
1.49104
1.49345
1.49395
1.49296
1.49122
1.48719
1.48258
1.4809
1.48011
1.47975
1.4809
1.48191
1.48114
1.47992
1.47741
1.47342
1.47139
1.47052
1.46996
1.4705
1.47255
1.4726
1.47163
1.47029
1.46751
1.46204
1.45805
1.45688
1.45617
1.45597
1.45797
1.46122
1.46118
1.4601
1.45801
1.45331
1.44908
1.44781
1.44713
1.44714
1.44844
1.44844
1.44749
1.44607
1.44307
1.4394
1.43791
1.43713
1.43673
1.43783
1.43941
1.43879
1.43764
1.43562
1.43169
1.42894
1.42795
1.42734
1.4273
1.42678
1.42576
1.42435
1.42172
1.41838
1.41674
1.4158
1.41516
1.41566
1.41636
1.41552
1.41434
1.40816
1.41228
)
;
    }
}


// ************************************************************************* //
