/*--------------------------------*- C++ -*----------------------------------*\
  =========                 |
  \\      /  F ield         | OpenFOAM: The Open Source CFD Toolbox
   \\    /   O peration     | Website:  https://openfoam.org
    \\  /    A nd           | Version:  7
     \\/     M anipulation  |
\*---------------------------------------------------------------------------*/
FoamFile
{
    version     2.0;
    format      ascii;
    class       surfaceScalarField;
    location    "127";
    object      phi;
}
// * * * * * * * * * * * * * * * * * * * * * * * * * * * * * * * * * * * * * //

dimensions      [0 3 -1 0 0 0 0];

internalField   nonuniform List<scalar> 
67470
(
-0.000173163
0.00829706
-0.0081239
-0.000149571
0.0098708
-0.00989439
0.000155258
0.00707009
-0.00737492
0.000645698
-0.00236444
0.001874
0.00112579
-0.0091768
0.0086967
0.00149046
-0.0133752
0.0130106
0.00166351
-0.0151217
0.0149487
0.00159234
-0.0160093
0.0160805
0.00177216
-0.0152125
0.0150326
0.00257523
-0.00867781
0.00787475
0.00355175
0.00095018
-0.0019267
0.00445766
0.00846372
-0.00936963
0.00514021
0.0127675
-0.01345
0.00541091
0.0149863
-0.015257
0.00537409
0.0175974
-0.0175606
0.00555672
0.01668
-0.0168626
0.00639182
0.00861398
-0.00944908
0.00763084
-0.00101727
-0.000221746
0.00872203
-0.00882234
0.00773115
-0.0148091
0.0142561
0.00927495
-0.000153323
0.00845039
-0.000111815
0.00982929
0.000210975
0.0067473
0.000710587
-0.00286405
0.00118573
-0.00965195
0.00153607
-0.0137256
0.00170761
-0.0152933
0.00163454
-0.0159362
0.00174157
-0.0153195
0.00246145
-0.0093977
0.00342427
-1.26374e-05
0.00437458
0.00751341
0.00508931
0.0120527
0.00538282
0.0146927
0.00535791
0.0176223
0.0055919
0.016446
0.00645671
0.00774917
0.00770612
-0.00226668
0.00885491
-0.00997112
-0.0153375
0.00938337
-0.000133248
0.00858363
-7.37202e-05
0.00976976
0.000267841
0.00640574
0.000777016
-0.00337323
0.00124712
-0.0101221
0.00158316
-0.0140616
0.00175313
-0.0154633
0.00168324
-0.0158663
0.00172658
-0.0153628
0.00236489
-0.010036
0.00331361
-0.000961361
0.00430001
0.00652701
0.0050433
0.0113094
0.00536285
0.0143732
0.00536271
0.0176224
0.00568911
0.0161196
0.00659836
0.00683991
0.00782268
-0.003491
0.00899138
-0.0111398
-0.0158358
0.00948969
-0.00011309
0.00869672
-3.56462e-05
0.00969232
0.000325769
0.00604432
0.000844722
-0.00389218
0.00130947
-0.0105868
0.00163155
-0.0143837
0.00179964
-0.0156313
0.00173685
-0.0158035
0.00172759
-0.0153536
0.00228944
-0.0105979
0.00322252
-0.00189444
0.00423472
0.00551482
0.00500276
0.0105414
0.005348
0.014028
0.00538963
0.0175808
0.00584674
0.0156625
0.00681757
0.00586908
0.00798861
-0.00466204
0.00912811
-0.0122793
-0.0162985
0.00959077
-9.30042e-05
0.00878973
1.04657e-06
0.00959827
0.00038467
0.0056607
0.000913411
-0.00442092
0.00137229
-0.0110457
0.00168106
-0.0146924
0.00184662
-0.0157969
0.00179405
-0.015751
0.0017441
-0.0153036
0.00223634
-0.0110901
0.00315207
-0.00281017
0.00417974
0.00448714
0.00496746
0.00975369
0.00533433
0.0136611
0.00543636
0.0174788
0.00604875
0.0150501
0.00709485
0.00482298
0.00820226
-0.00576945
0.0092628
-0.0133399
-0.0167198
0.00968409
-7.31438e-05
0.00886287
4.21359e-05
0.00948299
0.000444457
0.00525838
0.000982756
-0.00495922
0.00143515
-0.0114981
0.00173149
-0.0149888
0.0018935
-0.0159589
0.00185377
-0.0157113
0.00177464
-0.0152245
0.00220415
-0.0115196
0.00310209
-0.00370811
0.00413607
0.00345316
0.00493607
0.00895369
0.00531805
0.0132791
0.00549824
0.0172986
0.00627069
0.0142776
0.00739989
0.00369378
0.00845235
-0.00682191
0.00939421
-0.0142817
-0.0170936
0.00976798
-5.36699e-05
0.00891654
8.13354e-05
0.00934798
0.000505022
0.00483469
0.00105241
-0.0055066
0.00149762
-0.0119433
0.00178256
-0.0152737
0.0019397
-0.0161161
0.00191508
-0.0156866
0.00181707
-0.0151265
0.0021896
-0.0118921
0.00307136
-0.00458987
0.0041038
0.00242073
0.00490612
0.00815137
0.00529643
0.0128888
0.00556984
0.0170252
0.00649198
0.0133555
0.00770553
0.00248023
0.00872241
-0.00783879
0.00952185
-0.0150812
-0.0174133
0.00984162
-3.47224e-05
0.00895126
0.000120174
0.00919308
0.000566274
0.00438859
0.00112199
-0.00606232
0.00155934
-0.0123806
0.00183387
-0.0155482
0.00198474
-0.0162669
0.00197701
-0.0156789
0.00186886
-0.0150183
0.00218875
-0.012212
0.00305661
-0.00545773
0.00408094
0.0013964
0.00487445
0.00735786
0.00526789
0.0124954
0.0056471
0.0166459
0.00670583
0.0122968
0.00799836
0.0011877
0.00899599
-0.00883642
0.00964548
-0.0157307
-0.0176728
0.00990499
-1.63633e-05
0.00896763
0.000158644
0.00901808
0.000628111
0.00391912
0.00119114
-0.00662535
0.00161997
-0.0128095
0.00188495
-0.0158132
0.00202833
-0.0164103
0.0020385
-0.0156891
0.00192758
-0.0149074
0.00219751
-0.012482
0.00305237
-0.00631259
0.00406274
0.000386032
0.00483776
0.00658284
0.00523162
0.0121015
0.00572883
0.0161487
0.00692058
0.011105
0.00827963
-0.000171347
0.00925964
-0.00981642
0.00976564
-0.0162367
-0.0178662
0.00995898
1.7302e-06
0.0089659
0.000196646
0.00882316
0.00069041
0.00342536
0.00125947
-0.00719441
0.0016792
-0.0132292
0.00193521
-0.0160692
0.00207042
-0.0165455
0.00209834
-0.015717
0.0019913
-0.0148003
0.00221238
-0.0127031
0.0030503
-0.00715051
0.00404213
-0.000605799
0.00479246
0.00583251
0.00518756
0.0117064
0.00581742
0.0155189
0.00715142
0.00977101
0.00855695
-0.00157689
0.00950327
-0.0107627
0.00988295
-0.0166163
-0.0179884
0.0100052
1.70652e-05
0.00894883
0.000234053
0.00860617
0.000753027
0.00290639
0.00132661
-0.007768
0.00173672
-0.0136393
0.00198408
-0.0163166
0.00211114
-0.0166726
0.00215536
-0.0157612
0.00205873
-0.0147037
0.00223082
-0.0128751
0.00304035
-0.00796004
0.00401072
-0.00157617
0.00473386
0.00510936
0.00513709
0.0113032
0.00591869
0.0147373
0.00740768
0.00828202
0.00883388
-0.00300309
0.00971973
-0.0116486
0.00999604
-0.0168927
-0.0180382
0.0100458
3.1896e-05
0.00891694
0.00027074
0.00836733
0.000815789
0.00236134
0.00139221
-0.00834442
0.00179225
-0.0140394
0.00203102
-0.0165553
0.00215074
-0.0167923
0.00220854
-0.015819
0.00212886
-0.014624
0.0022516
-0.0129979
0.0030131
-0.00872154
0.00395954
-0.0025226
0.00465553
0.00441337
0.00508331
0.0108754
0.0060404
0.0137802
0.00768576
0.00663666
0.00910467
-0.004422
0.00990423
-0.0124481
0.0101003
-0.0170887
-0.0180211
0.0100832
4.55037e-05
0.00887143
0.00030658
0.00810625
0.000878494
0.00178942
0.00145593
-0.00892186
0.0018455
-0.0144289
0.00207562
-0.0167855
0.0021894
-0.0169061
0.00225727
-0.0158869
0.00220046
-0.0145672
0.00227489
-0.0130723
0.00296261
-0.00940926
0.00387915
-0.00343914
0.00454985
0.00374266
0.00502988
0.0103954
0.00618985
0.0126202
0.00797266
0.00485385
0.00935682
-0.00580616
0.0100538
-0.0131451
0.0101882
-0.0172231
-0.0179514
0.0101185
5.77422e-05
0.00881369
0.000341459
0.00782253
0.000940901
0.00118998
0.00151745
-0.00949841
0.00189619
-0.0148077
0.00211758
-0.0170069
0.00222713
-0.0170156
0.00230141
-0.0159612
0.00227167
-0.0145375
0.00230223
-0.0131029
0.00288821
-0.00999525
0.00376099
-0.00431192
0.00441009
0.00309356
0.00498028
0.00982519
0.00637068
0.0112298
0.00825495
0.00296958
0.00957696
-0.00712816
0.0101661
-0.0137342
0.0102516
-0.0173087
-0.0178505
0.0101507
6.85548e-05
0.00874514
0.000375301
0.00751579
0.00100274
0.000562544
0.00157648
-0.0100722
0.00194405
-0.0151752
0.00215673
-0.0172195
0.0022637
-0.0171226
0.00234132
-0.0160388
0.00234023
-0.0145364
0.00233612
-0.0130987
0.00279598
-0.0104551
0.00359938
-0.00511531
0.0042335
0.00245944
0.00494019
0.0091185
0.00658213
0.00958786
0.0085219
0.00102981
0.00975479
-0.00836106
0.0102388
-0.0142183
0.0102848
-0.0173546
-0.0177425
0.0101767
7.79552e-05
0.00866718
0.000408085
0.00718566
0.00106371
-9.30758e-05
0.00163275
-0.0106412
0.00198883
-0.0155313
0.00219298
-0.0174237
0.00229867
-0.0172283
0.00237779
-0.0161179
0.00240408
-0.0145627
0.00237928
-0.013074
0.0026983
-0.0107741
0.00339624
-0.00581325
0.00402572
0.00182996
0.00492254
0.00822168
0.00681925
0.00769115
0.00876434
-0.000915282
0.00988308
-0.00947979
0.0102703
-0.0146055
0.0102862
-0.0173705
-0.017649
0.0101926
8.60371e-05
0.00858114
0.000439874
0.00683182
0.00112348
-0.00077668
0.00168601
-0.0112037
0.00203034
-0.0158756
0.00222628
-0.0176196
0.00233153
-0.0173335
0.00241178
-0.0161981
0.002462
-0.0146129
0.00243349
-0.0130454
0.00261243
-0.0109531
0.00316702
-0.00636785
0.00380727
0.00118971
0.00495029
0.00707866
0.00707632
0.00556511
0.00897051
-0.00280947
0.00995671
-0.010466
0.0102605
-0.0149092
0.0102581
-0.0173681
-0.017586
0.0101951
9.29843e-05
0.00848816
0.000470833
0.00645397
0.00118172
-0.00148757
0.00173605
-0.0117581
0.0020684
-0.016208
0.0022566
-0.0178078
0.00236187
-0.0174388
0.00244418
-0.0162805
0.00251388
-0.0146826
0.00249865
-0.0130302
0.00255813
-0.0110126
0.00294624
-0.00675596
0.00362101
0.000514942
0.00505319
0.00564649
0.00734471
0.00327359
0.00912841
-0.00459317
0.0099731
-0.0113107
0.0102112
-0.0151473
0.0102049
-0.0173618
-0.0175631
0.010182
9.90776e-05
0.00838908
0.000501249
0.0060518
0.00123811
-0.00222443
0.00178269
-0.0123026
0.00210291
-0.0165282
0.00228389
-0.0179888
0.00238939
-0.0175443
0.00247553
-0.0163666
0.00256055
-0.0147676
0.00257264
-0.0130423
0.00255386
-0.0109938
0.00278823
-0.00699033
0.00353264
-0.000229466
0.00525689
0.00392224
0.00760903
0.000921457
0.00922675
-0.00621089
0.0099329
-0.0120168
0.0101264
-0.0153408
0.0101315
-0.017367
-0.0175852
0.0101536
0.000104692
0.00828439
0.000531534
0.00562496
0.0012923
-0.00298519
0.00182577
-0.0128361
0.00213377
-0.0168362
0.0023081
-0.0181631
0.002414
-0.0176502
0.00250585
-0.0164584
0.00260335
-0.0148651
0.00265175
-0.0130907
0.00261112
-0.0109531
0.00275317
-0.00713238
0.00361078
-0.00108708
0.00556381
0.00196921
0.00784403
-0.00135877
0.00925672
-0.00762358
0.00984037
-0.0126005
0.0100117
-0.0155121
0.0100423
-0.0173976
-0.0176542
0.0101113
0.000110283
0.00817411
0.000562213
0.00517303
0.00134401
-0.003767
0.00186519
-0.0133573
0.00216094
-0.017132
0.00232917
-0.0183314
0.00243574
-0.0177568
0.00253474
-0.0165574
0.00264369
-0.0149741
0.00273159
-0.0131786
0.00272788
-0.0109494
0.00287973
-0.00728423
0.00388017
-0.00208752
0.00593497
-8.55859e-05
0.00801806
-0.00344186
0.00921414
-0.00881966
0.00970322
-0.0130895
0.00987413
-0.015683
0.00994119
-0.0174647
-0.0177702
0.0100572
0.000116352
0.00805776
0.000593889
0.00469549
0.00139297
-0.00456608
0.00190086
-0.0138652
0.00218441
-0.0174155
0.00234709
-0.0184941
0.00245469
-0.0178644
0.00256164
-0.0166644
0.00268265
-0.0150951
0.00280842
-0.0133044
0.00288572
-0.0110267
0.00314923
-0.00754774
0.00428849
-0.00322678
0.0062931
-0.0020902
0.00810259
-0.00525135
0.00910247
-0.00981955
0.00953217
-0.0135192
0.00972138
-0.0158722
0.00983161
-0.0175749
-0.017932
0.00999341
0.000123402
0.00793435
0.000627185
0.00419171
0.00143894
-0.00537783
0.00193273
-0.014359
0.00220419
-0.017687
0.00236186
-0.0186517
0.00247092
-0.0179734
0.00258606
-0.0167795
0.00272053
-0.0152296
0.00288041
-0.0134642
0.00305658
-0.0112029
0.00348429
-0.00797545
0.00471817
-0.00446065
0.00655736
-0.00392939
0.00808489
-0.00677887
0.00893467
-0.0106693
0.00933992
-0.0139245
0.00956051
-0.0160928
0.00971604
-0.0177304
-0.0181373
0.00992126
0.000131877
0.00780248
0.000662661
0.00366093
0.00148174
-0.00619691
0.00196076
-0.014838
0.00222032
-0.0179465
0.0023735
-0.0188049
0.00248443
-0.0180844
0.00260776
-0.0169029
0.00275686
-0.0153787
0.00294752
-0.0136549
0.00321536
-0.0114707
0.00379325
-0.00855334
0.00505454
-0.00572194
0.00668239
-0.00555724
0.00797648
-0.00807296
0.00873108
-0.0114239
0.00913879
-0.0143322
0.00939688
-0.0163509
0.00959624
-0.0179298
-0.0183828
0.00984177
0.000142099
0.00766038
0.000700732
0.00310229
0.0015212
-0.00701738
0.00198495
-0.0153017
0.00223286
-0.0181944
0.00238207
-0.0189541
0.00249523
-0.0181975
0.00262666
-0.0170343
0.00279075
-0.0155428
0.0030099
-0.0138741
0.00334828
-0.0118091
0.00402095
-0.009226
0.00524796
-0.00694895
0.00667933
-0.00698861
0.00780898
-0.00920262
0.00851344
-0.0121284
0.00893829
-0.0147571
0.00923383
-0.0166464
0.00947345
-0.0181694
-0.0186649
0.00975558
0.000154205
0.00750617
0.000741575
0.00251492
0.00155722
-0.00783303
0.00200531
-0.0157498
0.0022419
-0.018431
0.00238762
-0.0190999
0.00250331
-0.0183132
0.00264272
-0.0171737
0.0028214
-0.0157215
0.00306673
-0.0141194
0.00345297
-0.0121954
0.00416408
-0.00993711
0.00532108
-0.00810596
0.00659602
-0.00826354
0.00761776
-0.0102244
0.00829799
-0.0128086
0.00874369
-0.0152028
0.00907294
-0.0169757
0.00934842
-0.0184449
-0.0189797
0.0096632
0.000168112
0.00733806
0.000785073
0.00189796
0.00158971
-0.00863766
0.00202188
-0.016182
0.00224753
-0.0186567
0.00239024
-0.0192426
0.00250867
-0.0184316
0.00265589
-0.0173209
0.00284824
-0.0159138
0.00311667
-0.0143878
0.0035335
-0.0126122
0.00424803
-0.0106516
0.00532509
-0.00918302
0.00648002
-0.00941847
0.00742674
-0.0111711
0.00809269
-0.0134746
0.00855675
-0.0156668
0.00891469
-0.0173336
0.0092216
-0.0187518
-0.0193232
0.00956506
0.000183504
0.00715456
0.000830782
0.00125069
0.00161858
-0.00942547
0.00203473
-0.0165981
0.00224987
-0.0188718
0.00239001
-0.0193827
0.00251135
-0.018553
0.00266612
-0.0174757
0.00287098
-0.0161187
0.00315887
-0.0146757
0.00359515
-0.0130485
0.00429784
-0.0113543
0.00529889
-0.0101841
0.00635811
-0.0104777
0.00724564
-0.0120586
0.00789932
-0.0141282
0.00837728
-0.0161448
0.00875909
-0.0177154
0.00909321
-0.0190859
-0.0196914
0.00946148
0.000199865
0.00695469
0.000877957
0.000572594
0.00164379
-0.0101913
0.00204391
-0.0169983
0.00224903
-0.0190769
0.00238701
-0.0195207
0.00251137
-0.0186773
0.00267334
-0.0176377
0.00288945
-0.0163348
0.00319321
-0.0149795
0.00364176
-0.013497
0.00432722
-0.0120398
0.00526009
-0.0111169
0.00623922
-0.0114568
0.00707585
-0.0128952
0.00771696
-0.0147694
0.00820449
-0.0166323
0.00860596
-0.0181169
0.00896333
-0.0194433
-0.0200809
0.00935276
0.000216539
0.00673815
0.000925624
-0.000136492
0.00166529
-0.010931
0.00204952
-0.0173825
0.00224515
-0.0192726
0.00238134
-0.0196569
0.00250876
-0.0188047
0.00267751
-0.0178064
0.00290355
-0.0165608
0.00321994
-0.0152958
0.00367565
-0.0139528
0.00434184
-0.012706
0.00521426
-0.0119894
0.00612457
-0.0123671
0.00691612
-0.0136868
0.00754413
-0.0153974
0.00803752
-0.0171257
0.00845508
-0.0185344
0.00883197
-0.0198202
-0.020488
0.00923911
0.000232827
0.00650532
0.000972684
-0.000876348
0.00168307
-0.0116414
0.00205167
-0.0177511
0.00223836
-0.0194593
0.0023731
-0.0197916
0.00250358
-0.0189352
0.00267862
-0.0179815
0.00291328
-0.0167955
0.00323943
-0.015622
0.00369836
-0.0144117
0.00434435
-0.013352
0.00516311
-0.0128081
0.00601357
-0.0132176
0.00676487
-0.0144381
0.00737934
-0.0160118
0.00787561
-0.017622
0.00830618
-0.018965
0.00869902
-0.020213
-0.0209097
0.00912072
0.000248084
0.00625724
0.00101804
-0.0016463
0.00169713
-0.0123204
0.00205045
-0.0181044
0.0022288
-0.0196376
0.00236239
-0.0199252
0.00249587
-0.0190687
0.00267667
-0.0181623
0.00291866
-0.0170375
0.00325206
-0.0159554
0.00371111
-0.0148707
0.00433654
-0.0139774
0.00510751
-0.0135791
0.0059055
-0.0140156
0.00662066
-0.0151532
0.00722128
-0.0166125
0.00771805
-0.0181187
0.00815891
-0.0194059
0.00856438
-0.0206185
-0.0213431
0.00899777
0.000261815
0.00599543
0.00106069
-0.00244517
0.00170752
-0.0129673
0.00204601
-0.0184429
0.00221662
-0.0198082
0.00234931
-0.0200579
0.00248568
-0.0192051
0.00267168
-0.0183482
0.00291976
-0.0172855
0.00325822
-0.0162939
0.00371494
-0.0153274
0.00431984
-0.0145823
0.00504804
-0.0143073
0.00579971
-0.0147672
0.00648224
-0.0158358
0.00706879
-0.017199
0.00756425
-0.0186142
0.0080129
-0.0198545
0.00842791
-0.0210335
-0.0217856
0.00887047
0.00027374
0.00572168
0.00109985
-0.00327128
0.00171432
-0.0135818
0.00203849
-0.0187671
0.00220194
-0.0199717
0.00233395
-0.0201899
0.00247308
-0.0193442
0.00266368
-0.0185388
0.00291666
-0.0175385
0.00325828
-0.0166355
0.00371073
-0.0157799
0.00429538
-0.0151669
0.00498515
-0.0149971
0.00569561
-0.0154777
0.00634853
-0.0164887
0.00692089
-0.0177714
0.00741364
-0.019107
0.00786775
-0.0203086
0.00828952
-0.0214553
-0.0222352
0.0087391
0.000283833
0.00543785
0.00113496
-0.00412242
0.00171766
-0.0141644
0.00202804
-0.0190774
0.00218492
-0.0201285
0.00231641
-0.0203214
0.00245811
-0.0194859
0.00265271
-0.0187334
0.00290947
-0.0177953
0.0032526
-0.0169786
0.00369927
-0.0162266
0.0042641
-0.0157318
0.00491914
-0.0156521
0.00559272
-0.0161513
0.0062186
-0.0171146
0.00677674
-0.0183295
0.0072657
-0.0195959
0.00772306
-0.020766
0.00814911
-0.0218813
-0.0226902
0.00860412
0.000292319
0.00514553
0.00116571
-0.00499581
0.00171769
-0.0147164
0.00201484
-0.0193746
0.00216568
-0.0202794
0.0022968
-0.0204525
0.00244085
-0.01963
0.00263884
-0.0189314
0.00289832
-0.0180548
0.00324153
-0.0173218
0.00368122
-0.0166663
0.00422677
-0.0162773
0.00485027
-0.0162756
0.00549061
-0.0167916
0.00609165
-0.0177156
0.00663562
-0.0188735
0.00711996
-0.0200802
0.00757848
-0.0212245
0.00800665
-0.0223095
-0.0231497
0.00846615
0.000299655
0.00484588
0.00119198
-0.00588814
0.00171459
-0.015239
0.00199903
-0.019659
0.00214438
-0.0204247
0.00227519
-0.0205833
0.00242135
-0.0197761
0.00262212
-0.0191322
0.00288335
-0.018316
0.00322538
-0.0176639
0.00365717
-0.017098
0.00418404
-0.0168042
0.00477873
-0.0168703
0.00538894
-0.0174018
0.00596702
-0.0182937
0.00649691
-0.0194034
0.00697599
-0.0205593
0.00743368
-0.0216822
0.00786231
-0.0227381
-0.0236131
0.00832569
0.000306481
0.0045394
0.00121384
-0.0067955
0.00170859
-0.0157338
0.00198081
-0.0199313
0.00212112
-0.020565
0.00225168
-0.0207139
0.00239967
-0.0199241
0.00260261
-0.0193352
0.00286468
-0.0185781
0.00320448
-0.0180037
0.00362765
-0.0175212
0.00413646
-0.017313
0.00470468
-0.0174385
0.00528742
-0.0179846
0.00584413
-0.0188504
0.00636009
-0.0199193
0.00683339
-0.0210326
0.00728836
-0.0221372
0.00771654
-0.0231663
-0.0240792
0.00818263
0.000313574
0.00422582
0.00123146
-0.00771338
0.0016999
-0.0162022
0.00196033
-0.0201917
0.00209604
-0.0207007
0.00222635
-0.0208442
0.00237587
-0.0200736
0.00258039
-0.0195397
0.00284247
-0.0188401
0.00317909
-0.0183403
0.0035931
-0.0179352
0.00408448
-0.0178044
0.00462826
-0.0179823
0.00518579
-0.0185421
0.00572248
-0.0193871
0.00622473
-0.0204216
0.00669177
-0.0214997
0.00714226
-0.0225877
0.00757004
-0.0235941
-0.0245459
0.00803678
0.000321791
0.00390403
0.0012451
-0.00863669
0.00168875
-0.0166459
0.00193776
-0.0204407
0.00206925
-0.0208322
0.00219929
-0.0209742
0.00235002
-0.0202243
0.00255554
-0.0197452
0.00281685
-0.0191014
0.0031495
-0.0186729
0.00355393
-0.0183397
0.00402849
-0.0182789
0.00454957
-0.0185034
0.00508385
-0.0190764
0.00560164
-0.0199049
0.00609049
-0.0209104
0.00655068
-0.0219599
0.00699525
-0.0230322
0.00742348
-0.0240223
-0.0250086
0.00788618
0.000332012
0.00357202
0.00125504
-0.00955972
0.00167532
-0.0170662
0.00191322
-0.0206786
0.0020408
-0.0209598
0.00217047
-0.0211039
0.00232209
-0.020376
0.00252803
-0.0199511
0.00278785
-0.0193613
0.00311584
-0.0190009
0.00351039
-0.0187342
0.0039687
-0.0187372
0.00446858
-0.0190033
0.00498125
-0.0195891
0.00548111
-0.0204048
0.00595685
-0.0213862
0.00640948
-0.0224125
0.00684722
-0.02347
0.00727594
-0.0244511
-0.025464
0.00773137
0.000345087
0.00322693
0.00126163
-0.0104763
0.00165989
-0.0174644
0.00188695
-0.0209057
0.00201092
-0.0210838
0.00214015
-0.0212331
0.00229232
-0.0205281
0.00249813
-0.0201569
0.00275584
-0.019619
0.00307858
-0.0193237
0.00346302
-0.0191186
0.00390564
-0.0191799
0.00438565
-0.0194833
0.00487816
-0.0200816
0.00536093
-0.0208875
0.00582388
-0.0218491
0.00626823
-0.0228568
0.00669929
-0.023901
0.00712846
-0.0248802
-0.0259039
0.00756833
0.000361762
0.00286517
0.00126517
-0.0113797
0.00164261
-0.0178419
0.00185905
-0.0211221
0.00197965
-0.0212044
0.00210829
-0.0213618
0.00226068
-0.0206805
0.00246584
-0.0203621
0.00272084
-0.019874
0.00303781
-0.0196406
0.00341199
-0.0194928
0.00383944
-0.0196073
0.00430072
-0.0199446
0.00477429
-0.0205551
0.00524072
-0.0213539
0.0056911
-0.0222995
0.00612661
-0.0232923
0.00655107
-0.0243255
0.00697685
-0.025306
-0.0263364
0.00740936
0.000382607
0.00248256
0.00126597
-0.012263
0.00162365
-0.0181995
0.00182965
-0.0213281
0.00194706
-0.0213218
0.00207498
-0.0214897
0.00222722
-0.0208328
0.00243123
-0.0205661
0.00268299
-0.0201257
0.00299374
-0.0199514
0.00335756
-0.0198566
0.00377032
-0.0200201
0.00421386
-0.0203881
0.00466955
-0.0210108
0.00512026
-0.0218047
0.00555827
-0.0227375
0.00598451
-0.0237186
0.00640183
-0.0247428
0.00682295
-0.0257271
-0.0267621
0.00724867
0.00040793
0.00207463
0.00126429
-0.0131194
0.00160315
-0.0185384
0.00179888
-0.0215238
0.00191324
-0.0214361
0.00204025
-0.0216167
0.00219201
-0.0209845
0.00239437
-0.0207685
0.0026424
-0.0203738
0.00294656
-0.0202555
0.00329995
-0.02021
0.00369846
-0.0204186
0.00412513
-0.0208148
0.00456383
-0.0214495
0.00499939
-0.0222402
0.00542517
-0.0231633
0.00584176
-0.0241352
0.00625174
-0.0251528
0.00666612
-0.0261415
-0.0271811
0.00708505
0.000437695
0.00163694
0.00126036
-0.0139421
0.00158121
-0.0188592
0.00176684
-0.0217095
0.00187827
-0.0215476
0.00200418
-0.0217426
0.00215511
-0.0211355
0.00235536
-0.0209687
0.00259922
-0.0206176
0.00289644
-0.0205528
0.00323938
-0.020553
0.00362403
-0.0208032
0.00403458
-0.0212253
0.00445707
-0.021872
0.00487798
-0.0226611
0.00529163
-0.0235769
0.00569833
-0.0245419
0.00610027
-0.0255547
0.00650728
-0.0265485
-0.0275931
0.00691927
0.000471444
0.00116549
0.00125434
-0.014725
0.00155791
-0.0191628
0.00173363
-0.0218852
0.0018422
-0.0216561
0.00196681
-0.0218673
0.00211656
-0.0212852
0.00231427
-0.0211664
0.00255355
-0.0208569
0.00284355
-0.0208428
0.00317602
-0.0208854
0.00354718
-0.0211744
0.00394228
-0.0216204
0.00434921
-0.0222789
0.00475589
-0.0230678
0.00515752
-0.0239786
0.00555405
-0.0249384
0.00594759
-0.0259483
0.00634645
-0.0269474
-0.0279971
0.00675053
0.000508256
0.000657238
0.00124637
-0.0154631
0.00153332
-0.0194498
0.00169935
-0.0220512
0.00180512
-0.0217619
0.0019282
-0.0219903
0.00207644
-0.0214334
0.00227117
-0.0213611
0.00250551
-0.0210912
0.00278803
-0.0211253
0.00311004
-0.0212075
0.00346805
-0.0215324
0.00384827
-0.0220006
0.00424022
-0.0226709
0.00463305
-0.0234606
0.0050227
-0.0243682
0.00540889
-0.0253246
0.00579352
-0.0263329
0.00618369
-0.0273375
-0.0283931
0.00657969
0.000546777
0.000110461
0.00123649
-0.0161528
0.00150748
-0.0197208
0.00166406
-0.0222078
0.00176706
-0.0218649
0.00188839
-0.0221117
0.00203478
-0.0215798
0.00222615
-0.0215525
0.00245521
-0.0213203
0.00273004
-0.0214001
0.00304161
-0.021519
0.00338676
-0.0218776
0.00375259
-0.0223665
0.00413006
-0.0230484
0.00450935
-0.0238399
0.00488709
-0.0247459
0.00526273
-0.0257002
0.0056381
-0.0267083
0.00601921
-0.0277187
-0.0287803
0.00640637
0.000585302
-0.000474841
0.00122472
-0.0167922
0.00148041
-0.0199764
0.00162785
-0.0223552
0.00172809
-0.0219652
0.00184742
-0.022231
0.00199164
-0.0217241
0.00217928
-0.0217402
0.00240276
-0.0215438
0.0026697
-0.0216671
0.00297085
-0.0218202
0.00330341
-0.0222101
0.00365531
-0.0227184
0.00401872
-0.0234118
0.00438475
-0.024206
0.00475061
-0.0251118
0.00511556
-0.0260652
0.00548129
-0.027074
0.0058529
-0.0280903
-0.0291584
0.00623099
0.000621952
-0.00109679
0.00121106
-0.0173813
0.00145215
-0.0202175
0.00159077
-0.0224938
0.00168825
-0.0220626
0.00180535
-0.0223481
0.00194709
-0.0218658
0.00213064
-0.0219237
0.00234826
-0.0217614
0.00260714
-0.0219259
0.0028979
-0.0221109
0.00321811
-0.0225303
0.00355645
-0.0230567
0.00390618
-0.0237615
0.00425919
-0.024559
0.00461321
-0.0254658
0.0049673
-0.0264193
0.0053231
-0.0274298
0.00568495
-0.0284521
-0.0295269
0.00605346
0.000654909
-0.0017517
0.00119548
-0.0179219
0.00142274
-0.0204448
0.0015529
-0.022624
0.00164759
-0.0221573
0.0017622
-0.0224627
0.00190116
-0.0220047
0.0020803
-0.0221029
0.00229181
-0.0219729
0.00254248
-0.0221766
0.00282288
-0.0223913
0.00313095
-0.0228384
0.00345607
-0.0233818
0.00379243
-0.0240979
0.00413263
-0.0248992
0.00447483
-0.025808
0.00481794
-0.0267624
0.00516355
-0.0277754
0.00551528
-0.0288039
-0.0298855
0.00587394
0.000682661
-0.00243436
0.001178
-0.0184172
0.00139221
-0.020659
0.00151427
-0.0227461
0.00160615
-0.0222492
0.00171803
-0.0225746
0.00185391
-0.0221406
0.00202832
-0.0222773
0.0022335
-0.0221781
0.00247582
-0.0224189
0.0027459
-0.0226614
0.00304203
-0.0231345
0.00335422
-0.023694
0.00367748
-0.0244211
0.00400505
-0.0252267
0.00433544
-0.0261384
0.00466744
-0.0270944
0.00500262
-0.0281106
0.00534401
-0.0291452
-0.030234
0.00569245
0.000704208
-0.00313857
0.00115867
-0.0188717
0.00136064
-0.020861
0.00147496
-0.0228604
0.00156397
-0.0223382
0.00167288
-0.0226835
0.0018054
-0.0222732
0.00197478
-0.0224466
0.00217342
-0.0223767
0.00240726
-0.0226528
0.00266706
-0.0229212
0.00295141
-0.0234189
0.00325093
-0.0239935
0.00356134
-0.0247315
0.00387642
-0.0255418
0.00419502
-0.026457
0.00451581
-0.0274152
0.00484034
-0.0284351
0.00517112
-0.029476
-0.0305719
0.00550906
0.000719151
-0.00385772
0.00113758
-0.0192901
0.00132808
-0.0210515
0.00143501
-0.0229673
0.00152109
-0.0224243
0.00162677
-0.0227892
0.00175567
-0.0224021
0.00191975
-0.0226107
0.00211165
-0.0225686
0.00233692
-0.022878
0.00258646
-0.0231708
0.00285919
-0.0236916
0.00314626
-0.0242806
0.00344402
-0.0250293
0.00374675
-0.0258445
0.00405355
-0.0267638
0.00436304
-0.0277247
0.00467673
-0.0287488
0.00499668
-0.029796
-0.0308991
0.00532382
0.000727673
-0.0045854
0.00111489
-0.0196773
0.00129463
-0.0212312
0.00139446
-0.0230671
0.00147755
-0.0225074
0.00157976
-0.0228914
0.00170477
-0.0225271
0.00186329
-0.0227692
0.00204828
-0.0227536
0.00226487
-0.0230946
0.0025042
-0.0234101
0.00276543
-0.0239528
0.00304025
-0.0245554
0.00332554
-0.0253146
0.00361602
-0.026135
0.00391102
-0.0270588
0.00420912
-0.0280228
0.0045118
-0.0290515
0.0048207
-0.0301049
-0.0312151
0.00513678
0.000730403
-0.0053158
0.00109074
-0.0200376
0.00126035
-0.0214008
0.00135337
-0.0231602
0.00143337
-0.0225874
0.00153188
-0.0229899
0.00165275
-0.0226479
0.00180546
-0.0229219
0.00198339
-0.0229316
0.0021912
-0.0233024
0.00242035
-0.0236392
0.0026702
-0.0242027
0.00293294
-0.0248182
0.00320592
-0.0255876
0.00348425
-0.0264133
0.00376745
-0.027342
0.00405407
-0.0283094
0.00434557
-0.029343
0.00464324
-0.0304026
-0.0315199
0.00494801
0.00072823
-0.00604403
0.00106531
-0.0203747
0.00122534
-0.0215609
0.00131179
-0.0232466
0.0013886
-0.0226642
0.00148315
-0.0230844
0.00159966
-0.0227645
0.00174634
-0.0230686
0.00191705
-0.0231023
0.00211601
-0.0235014
0.00233499
-0.0238582
0.00257358
-0.0244413
0.00282438
-0.025069
0.00308518
-0.0258484
0.00335143
-0.0266796
0.00362283
-0.0276134
0.00389789
-0.0285845
0.00417807
-0.0296232
0.00446431
-0.0306888
-0.0318131
0.00475753
0.000722117
-0.00676615
0.00103876
-0.0206914
0.00118968
-0.0217118
0.00126975
-0.0233267
0.00134326
-0.0227377
0.00143364
-0.0231748
0.00154555
-0.0228764
0.00168598
-0.023209
0.00184934
-0.0232656
0.00203937
-0.0236914
0.00224822
-0.0240671
0.00247562
-0.0246687
0.00271462
-0.025308
0.00296335
-0.0260971
0.0032176
-0.0269339
0.00347718
-0.027873
0.00374062
-0.0288479
0.00400933
-0.0298919
0.00428396
-0.0309634
-0.0320946
0.00456543
0.000712961
-0.00747911
0.00101125
-0.0209897
0.00115344
-0.021854
0.00122729
-0.0234005
0.00129738
-0.0228078
0.00138335
-0.0232608
0.00149045
-0.0229835
0.00162444
-0.023343
0.00178032
-0.0234215
0.00196135
-0.0238725
0.0021601
-0.0242658
0.00237639
-0.024885
0.0026037
-0.0255353
0.00284046
-0.0263339
0.00308277
-0.0271762
0.00333051
-0.0281207
0.00358226
-0.0290996
0.00383937
-0.030149
0.00410224
-0.0312263
-0.0323641
0.00437175
0.000701508
-0.00818061
0.000982893
-0.021271
0.00111669
-0.0219878
0.00118445
-0.0234683
0.00125099
-0.0228743
0.00133234
-0.0233421
0.00143443
-0.0230855
0.00156177
-0.0234704
0.00171007
-0.0235698
0.00188204
-0.0240444
0.0020707
-0.0244545
0.00227596
-0.0250902
0.00249168
-0.025751
0.00271655
-0.0265587
0.00294695
-0.0274066
0.00318286
-0.0283566
0.00342285
-0.0293396
0.00366824
-0.0303944
0.00391919
-0.0314772
-0.0326215
0.00417655
0.000688339
-0.00886895
0.00095382
-0.0215365
0.00107951
-0.0221135
0.00114127
-0.02353
0.00120413
-0.0229372
0.00128064
-0.0234187
0.00137752
-0.0231824
0.00149805
-0.0235909
0.00163866
-0.0237104
0.0018015
-0.0242073
0.00198009
-0.0246331
0.00217437
-0.0252845
0.00237859
-0.0259552
0.00259166
-0.0267718
0.00281019
-0.0276251
0.00303423
-0.0285807
0.00326241
-0.0295678
0.00349596
-0.0306279
0.00373484
-0.0317161
-0.0328665
0.00397989
0.000673876
-0.00954283
0.000924132
-0.0217868
0.00104195
-0.0222313
0.00109778
-0.0235859
0.00115681
-0.0229962
0.00122828
-0.0234901
0.00131976
-0.0232739
0.00143332
-0.0237045
0.00156614
-0.0238432
0.0017198
-0.0243609
0.00188834
-0.0248016
0.0020717
-0.0254679
0.00226449
-0.026148
0.0024658
-0.0269731
0.00267251
-0.0278318
0.00288467
-0.0287928
0.00310098
-0.0297841
0.00332257
-0.0308495
0.00354926
-0.0319428
-0.0330991
0.00378184
0.000658417
-0.0102012
0.000893922
-0.0220223
0.00100407
-0.0223414
0.00105401
-0.0236358
0.00110907
-0.0230513
0.00117529
-0.0235563
0.00126121
-0.0233598
0.00136764
-0.0238109
0.00149257
-0.0239682
0.001637
-0.0245054
0.00179551
-0.0249601
0.00196799
-0.0256403
0.00214942
-0.0263294
0.00233904
-0.0271627
0.00253394
-0.0280267
0.00273421
-0.0289931
0.00293858
-0.0299885
0.00314813
-0.0310591
0.00336249
-0.0321572
-0.0333191
0.00358247
0.000642171
-0.0108434
0.000863273
-0.0222434
0.000965926
-0.0224441
0.00100999
-0.0236799
0.00106093
-0.0231022
0.00112172
-0.0236171
0.00120191
-0.02344
0.00130107
-0.0239101
0.00141803
-0.0240851
0.00155317
-0.0246405
0.00170167
-0.0251086
0.0018633
-0.025802
0.00203344
-0.0264996
0.00221141
-0.0273407
0.00239452
-0.0282098
0.00258288
-0.0291815
0.00277526
-0.0301809
0.00297266
-0.0312565
0.00317459
-0.0323591
-0.0335263
0.00338184
0.000625285
-0.0114687
0.000832258
-0.0224504
0.000927558
-0.0225394
0.000965758
-0.0237181
0.00101242
-0.0231489
0.00106759
-0.0236723
0.00114189
-0.0235143
0.00123364
-0.0240018
0.00134256
-0.024194
0.00146838
-0.0247663
0.00160688
-0.0252471
0.00175769
-0.0259528
0.00191658
-0.0266585
0.00208294
-0.0275071
0.00225429
-0.0283812
0.00243071
-0.0293579
0.00261106
-0.0303612
0.00279622
-0.0314416
0.00298562
-0.0325485
-0.0337207
0.00318002
0.000607868
-0.0120766
0.000800945
-0.0226434
0.000889011