/*--------------------------------*- C++ -*----------------------------------*\
  =========                 |
  \\      /  F ield         | OpenFOAM: The Open Source CFD Toolbox
   \\    /   O peration     | Website:  https://openfoam.org
    \\  /    A nd           | Version:  7
     \\/     M anipulation  |
\*---------------------------------------------------------------------------*/
FoamFile
{
    version     2.0;
    format      ascii;
    class       surfaceScalarField;
    location    "0.07";
    object      phi;
}
// * * * * * * * * * * * * * * * * * * * * * * * * * * * * * * * * * * * * * //

dimensions      [0 3 -1 0 0 0 0];

internalField   nonuniform List<scalar> 
19800
(
6.90096e-11
-6.88569e-11
2.34239e-10
-1.6522e-10
4.1791e-10
-1.83678e-10
5.61483e-10
-1.43562e-10
6.32702e-10
-7.12259e-11
6.13758e-10
1.89486e-11
4.95769e-10
1.17985e-10
2.7553e-10
2.20256e-10
-4.66293e-11
3.22151e-10
-4.68004e-10
4.21381e-10
-9.8444e-10
5.16429e-10
-1.59077e-09
6.06311e-10
-2.28115e-09
6.9038e-10
-3.04935e-09
7.68191e-10
-3.88883e-09
8.39473e-10
-4.7929e-09
9.04078e-10
-5.75483e-09
9.61931e-10
-6.76787e-09
1.01304e-09
-7.82532e-09
1.05747e-09
-8.9206e-09
1.09527e-09
-1.00472e-08
1.12658e-09
-1.11987e-08
1.15153e-09
-1.2369e-08
1.17027e-09
-1.35519e-08
1.18296e-09
-1.47417e-08
1.18977e-09
-1.59326e-08
1.1909e-09
-1.71191e-08
1.18654e-09
-1.8296e-08
1.17688e-09
-1.94581e-08
1.16213e-09
-2.06006e-08
1.14248e-09
-2.17187e-08
1.11814e-09
-2.28081e-08
1.08932e-09
-2.38643e-08
1.05623e-09
-2.48834e-08
1.01909e-09
-2.58615e-08
9.78115e-10
-2.6795e-08
9.33487e-10
-2.76804e-08
8.85409e-10
-2.85145e-08
8.34101e-10
-2.92943e-08
7.79791e-10
-3.0017e-08
7.22689e-10
-3.068e-08
6.63007e-10
-3.1281e-08
6.00958e-10
-3.18177e-08
5.36755e-10
-3.22884e-08
4.70621e-10
-3.26911e-08
4.02773e-10
-3.30246e-08
3.33431e-10
-3.32874e-08
2.62832e-10
-3.34786e-08
1.91202e-10
-3.35974e-08
1.18771e-10
-3.36431e-08
4.57763e-11
-3.36156e-08
-2.75518e-11
-3.35146e-08
-1.00969e-10
-3.33404e-08
-1.74215e-10
-3.30934e-08
-2.47045e-10
-3.27742e-08
-3.19211e-10
-3.23837e-08
-3.90456e-10
-3.19232e-08
-4.60522e-10
-3.1394e-08
-5.29148e-10
-3.0798e-08
-5.96055e-10
-3.0137e-08
-6.60973e-10
-2.94134e-08
-7.23649e-10
-2.86296e-08
-7.83816e-10
-2.77884e-08
-8.41193e-10
-2.68929e-08
-8.95507e-10
-2.59464e-08
-9.46485e-10
-2.49525e-08
-9.9385e-10
-2.39152e-08
-1.03733e-09
-2.28385e-08
-1.07668e-09
-2.17269e-08
-1.11163e-09
-2.0585e-08
-1.14193e-09
-1.94176e-08
-1.16733e-09
-1.823e-08
-1.18758e-09
-1.70276e-08
-1.20246e-09
-1.58158e-08
-1.21173e-09
-1.46007e-08
-1.21518e-09
-1.3388e-08
-1.21264e-09
-1.21841e-08
-1.20394e-09
-1.09952e-08
-1.18889e-09
-9.8278e-09
-1.16737e-09
-8.68854e-09
-1.13925e-09
-7.58411e-09
-1.10443e-09
-6.52126e-09
-1.06285e-09
-5.50678e-09
-1.01447e-09
-4.54748e-09
-9.59298e-10
-3.65009e-09
-8.97393e-10
-2.82124e-09
-8.28856e-10
-2.06738e-09
-7.53863e-10
-1.39469e-09
-6.72688e-10
-8.08958e-10
-5.85727e-10
-3.15422e-10
-4.93541e-10
8.14942e-11
-3.9692e-10
3.7849e-10
-2.96994e-10
5.73896e-10
-1.95399e-10
6.68456e-10
-9.45578e-11
6.66589e-10
1.86391e-12
5.78406e-10
8.81819e-11
4.22864e-10
1.55545e-10
2.33144e-10
1.89724e-10
6.57777e-11
1.6737e-10
6.57778e-11
1.68899e-10
-2.3777e-10
4.60006e-10
-4.56342e-10
7.37304e-10
-4.60979e-10
9.02872e-10
-3.09131e-10
8.87546e-10
-5.59035e-11
6.47328e-10
2.59155e-10
1.56663e-10
6.08665e-10
-5.96834e-10
9.73749e-10
-1.61616e-09
1.34149e-09
-2.89772e-09
1.70296e-09
-4.4332e-09
2.05191e-09
-6.21095e-09
2.38407e-09
-8.21699e-09
2.69642e-09
-1.04357e-08
2.98686e-09
-1.28502e-08
3.25403e-09
-1.54432e-08
3.497e-09
-1.81965e-08
3.71526e-09
-2.10921e-08
3.90862e-09
-2.41117e-08
4.07705e-09
-2.72371e-08
4.22072e-09
-3.04505e-08
4.33993e-09
-3.3734e-08
4.43509e-09
-3.70704e-08
4.50667e-09
-4.04427e-08
4.55525e-09
-4.38344e-08
4.58145e-09
-4.72294e-08
4.5859e-09
-5.06122e-08
4.56929e-09
-5.39677e-08
4.53236e-09
-5.72814e-08
4.47584e-09
-6.05394e-08
4.40048e-09
-6.37283e-08
4.30707e-09
-6.68354e-08
4.19636e-09
-6.98483e-08
4.06917e-09
-7.27554e-08
3.92627e-09
-7.55458e-08
3.76846e-09
-7.82089e-08
3.59656e-09
-8.07348e-08
3.41138e-09
-8.31145e-08
3.21372e-09
-8.53391e-08
3.00441e-09
-8.74007e-08
2.78429e-09
-8.92918e-08
2.55416e-09
-9.10057e-08
2.31487e-09
-9.25363e-08
2.06727e-09
-9.38779e-08
1.8122e-09
-9.50256e-08
1.55053e-09
-9.59753e-08
1.28311e-09
-9.67233e-08
1.01083e-09
-9.72667e-08
7.34599e-10
-9.76032e-08
4.553e-10
-9.77313e-08
1.73852e-10
-9.765e-08
-1.08814e-10
-9.73592e-08
-3.91761e-10
-9.68594e-08
-6.74034e-10
-9.61518e-08
-9.54652e-10
-9.52384e-08
-1.23264e-09
-9.41218e-08
-1.50702e-09
-9.28056e-08
-1.77677e-09
-9.12939e-08
-2.04087e-09
-8.95916e-08
-2.29831e-09
-8.77045e-08
-2.54806e-09
-8.56391e-08
-2.78907e-09
-8.34026e-08
-3.02031e-09
-8.10031e-08
-3.24074e-09
-7.84493e-08
-3.44931e-09
-7.57508e-08
-3.64497e-09
-7.2918e-08
-3.8267e-09
-6.99618e-08
-3.99348e-09
-6.68942e-08
-4.1443e-09
-6.37277e-08
-4.27818e-09
-6.04754e-08
-4.39417e-09
-5.71514e-08
-4.49133e-09
-5.37702e-08
-4.56876e-09
-5.03471e-08
-4.62557e-09
-4.68978e-08
-4.66098e-09
-4.34388e-08
-4.6742e-09
-3.99869e-08
-4.66455e-09
-3.65594e-08
-4.63139e-09
-3.31742e-08
-4.57415e-09
-2.98492e-08
-4.49236e-09
-2.66028e-08
-4.38561e-09
-2.34536e-08
-4.25364e-09
-2.04202e-08
-4.09627e-09
-1.75211e-08
-3.91352e-09
-1.47749e-08
-3.70553e-09
-1.21996e-08
-3.47266e-09
-9.81296e-09
-3.21553e-09
-7.63178e-09
-2.93505e-09
-5.67193e-09
-2.63254e-09
-3.94781e-09
-2.30985e-09
-2.47185e-09
-1.9695e-09
-1.25383e-09
-1.61494e-09
-2.99896e-10
-1.25093e-09
3.88779e-10
-8.84071e-10
8.17847e-10
-5.2362e-10
1.00243e-09
-1.82719e-10
9.70822e-10
1.19798e-10
7.69386e-10
3.56981e-10
4.68482e-10
4.90626e-10
1.67312e-10
4.68544e-10
2.33089e-10
1.83606e-10
-4.21381e-10
4.63484e-10
-7.36249e-10
6.69619e-10
-6.67136e-10
6.834e-10
-3.22912e-10
4.18484e-10
2.08975e-10
-1.8383e-10
8.61496e-10
-1.16028e-09
1.5851e-09
-2.5305e-09
2.34398e-09
-4.30119e-09
3.11218e-09
-6.46928e-09
3.87101e-09
-9.02436e-09
4.60701e-09
-1.19507e-08
5.31038e-09
-1.52284e-08
5.97413e-09
-1.88348e-08
6.59328e-09
-2.27451e-08
7.16431e-09
-2.6933e-08
7.68488e-09
-3.13712e-08
8.15349e-09
-3.60319e-08
8.56933e-09
-4.0887e-08
8.93212e-09
-4.59083e-08
9.24199e-09
-5.10677e-08
9.49936e-09
-5.63376e-08
9.70494e-09
-6.16906e-08
9.85968e-09
-6.71e-08
9.96464e-09
-7.25396e-08
1.00211e-08
-7.79839e-08
1.00302e-08
-8.34083e-08
9.99367e-09
-8.87887e-08
9.91281e-09
-9.41021e-08
9.78921e-09
-9.93261e-08
9.62449e-09
-1.04439e-07
9.42031e-09
-1.09421e-07
9.17835e-09
-1.14253e-07
8.90027e-09
-1.18914e-07
8.58782e-09
-1.23388e-07
8.24273e-09
-1.27658e-07
7.86673e-09
-1.31709e-07
7.46161e-09
-1.35524e-07
7.02916e-09
-1.39091e-07
6.57116e-09
-1.42396e-07
6.08944e-09
-1.45428e-07
5.58581e-09
-1.48175e-07
5.06209e-09
-1.50628e-07
4.52015e-09
-1.52777e-07
3.96186e-09
-1.54616e-07
3.38912e-09
-1.56137e-07
2.80383e-09
-1.57334e-07
2.20793e-09
-1.58203e-07
1.60339e-09
-1.5874e-07
9.92196e-10
-1.58942e-07
3.76351e-10
-1.58809e-07
-2.42101e-10
-1.58339e-07
-8.61081e-10
-1.57535e-07
-1.4785e-09
-1.56397e-07
-2.09223e-09
-1.5493e-07
-2.70013e-09
-1.53137e-07
-3.3e-09
-1.51024e-07
-3.88967e-09
-1.48598e-07
-4.4669e-09
-1.45867e-07
-5.02944e-09
-1.4284e-07
-5.57506e-09
-1.39527e-07
-6.10149e-09
-1.35941e-07
-6.60646e-09
-1.32094e-07
-7.08768e-09
-1.28001e-07
-7.54291e-09
-1.23676e-07
-7.96988e-09
-1.19136e-07
-8.36636e-09
-1.144e-07
-8.73014e-09
-1.09485e-07
-9.05905e-09
-1.04412e-07
-9.35099e-09
-9.92023e-08
-9.60386e-09
-9.38779e-08
-9.81568e-09
-8.84622e-08
-9.98453e-09
-8.29792e-08
-1.01086e-08
-7.74541e-08
-1.01861e-08
-7.19128e-08
-1.02154e-08
-6.63821e-08
-1.01952e-08
-6.08895e-08
-1.01241e-08
-5.54627e-08
-1.00009e-08
-5.01304e-08
-9.82467e-09
-4.49213e-08
-9.59475e-09
-3.98643e-08
-9.31062e-09
-3.49885e-08
-8.97211e-09
-3.03226e-08
-8.57938e-09
-2.58951e-08
-8.13297e-09
-2.17339e-08
-7.63394e-09
-1.78655e-08
-7.08389e-09
-1.43154e-08
-6.48516e-09
-1.1107e-08
-5.84097e-09
-8.26112e-09
-5.15572e-09
-5.7953e-09
-4.43531e-09
-3.7226e-09
-3.68764e-09
-2.05025e-09
-2.92328e-09
-7.77855e-10
-2.15647e-09
1.04995e-10
-1.40647e-09
6.21764e-10
-6.99489e-10
8.12856e-10
-7.12998e-11
7.40308e-10
4.29527e-10
4.92754e-10
7.38182e-10
1.90292e-10
7.71008e-10
4.2338e-10
1.45042e-10
-5.66394e-10
3.15289e-10
-9.06499e-10
3.32705e-10
-6.8455e-10
7.03874e-11
-6.05805e-11
-5.64853e-10
8.44247e-10
-1.63845e-09
1.93507e-09
-3.1928e-09
3.13948e-09
-5.25179e-09
4.40297e-09
-7.82447e-09
5.68486e-09
-1.09082e-08
6.95476e-09
-1.44913e-08
8.19007e-09
-1.85549e-08
9.37399e-09
-2.30749e-08
1.04942e-08
-2.80231e-08
1.15415e-08
-3.33683e-08
1.25094e-08
-3.90768e-08
1.33934e-08
-4.51138e-08
1.41905e-08
-5.14433e-08
1.48988e-08
-5.80285e-08
1.55174e-08
-6.48326e-08
1.60461e-08
-7.18189e-08
1.64856e-08
-7.89506e-08
1.68366e-08
-8.61916e-08
1.71007e-08
-9.35064e-08
1.72794e-08
-1.0086e-07
1.73748e-08
-1.08219e-07
1.73889e-08
-1.15549e-07
1.73242e-08
-1.2282e-07
1.71832e-08
-1.29999e-07
1.69683e-08
-1.37057e-07
1.66824e-08
-1.43965e-07
1.63282e-08
-1.50695e-07
1.59086e-08
-1.57221e-07
1.54264e-08
-1.63518e-07
1.48847e-08
-1.69561e-07
1.42864e-08
-1.75329e-07
1.36345e-08
-1.808e-07
1.29321e-08
-1.85953e-07
1.21822e-08
-1.9077e-07
1.13881e-08
-1.95233e-07
1.05528e-08
-1.99327e-07
9.6794e-09
-2.03036e-07
8.77121e-09
-2.06347e-07
7.83142e-09
-2.09248e-07
6.8633e-09
-2.11729e-07
5.87012e-09
-2.13781e-07
4.85522e-09
-2.15395e-07
3.82199e-09
-2.16565e-07
2.77382e-09
-2.17287e-07
1.71418e-09
-2.17558e-07
6.46581e-10
-2.17374e-07
-4.25447e-10
-2.16737e-07
-1.4983e-09
-2.15647e-07
-2.56832e-09
-2.14108e-07
-3.63182e-09
-2.12123e-07
-4.68509e-09
-2.09698e-07
-5.72434e-09
-2.06842e-07
-6.74574e-09
-2.03564e-07
-7.74546e-09
-1.99873e-07
-8.71963e-09
-1.95784e-07
-9.66434e-09
-1.9131e-07
-1.05757e-08
-1.86467e-07
-1.14497e-08
-1.81272e-07
-1.22826e-08
-1.75744e-07
-1.30703e-08
-1.69905e-07
-1.38091e-08
-1.63777e-07
-1.4495e-08
-1.57382e-07
-1.51243e-08
-1.50748e-07
-1.56933e-08
-1.43901e-07
-1.61984e-08
-1.36869e-07
-1.6636e-08
-1.29682e-07
-1.70027e-08
-1.22371e-07
-1.72953e-08
-1.14969e-07
-1.75107e-08
-1.07509e-07
-1.7646e-08
-1.00026e-07
-1.76985e-08
-9.25551e-08
-1.76658e-08
-8.51335e-08
-1.75457e-08
-7.7798e-08
-1.73364e-08
-7.05863e-08
-1.70364e-08
-6.35364e-08
-1.66447e-08
-5.66864e-08
-1.61606e-08
-5.00746e-08
-1.5584e-08
-4.37384e-08
-1.49155e-08
-3.7715e-08
-1.41564e-08
-3.20403e-08
-1.33087e-08
-2.67486e-08
-1.23756e-08
-2.18721e-08
-1.13616e-08
-1.74405e-08
-1.02726e-08
-1.34795e-08
-9.11669e-09
-1.00105e-08
-7.90432e-09
-7.04883e-09
-6.6493e-09
-4.60239e-09
-5.36971e-09
-2.66957e-09
-4.08929e-09
-1.2368e-09
-2.83924e-09
-2.75608e-10
-1.66068e-09
2.60909e-10
-6.07825e-10
4.4223e-10
2.4821e-10
3.64816e-10
8.156e-10
1.57871e-10
9.77949e-10
5.8125e-10
7.50794e-11
-6.41489e-10
6.88917e-11
-9.00309e-10
-1.87192e-10
-4.28504e-10
-8.17391e-10
5.69635e-10
-1.91427e-09
1.94111e-09
-3.54391e-09
3.56472e-09
-5.75007e-09
5.34564e-09
-8.55786e-09
7.21076e-09
-1.19769e-08
9.10391e-09
-1.60042e-08
1.09821e-08
-2.06267e-08
1.28125e-08
-2.5823e-08
1.45703e-08
-3.15653e-08
1.62365e-08
-3.7821e-08
1.77972e-08
-4.45535e-08
1.92419e-08
-5.17233e-08
2.05633e-08
-5.92889e-08
2.17561e-08
-6.72073e-08
2.28171e-08
-7.54345e-08
2.37446e-08
-8.39261e-08
2.45377e-08
-9.26375e-08
2.51969e-08
-1.01524e-07
2.57234e-08
-1.10542e-07
2.61188e-08
-1.19648e-07
2.63854e-08
-1.288e-07
2.65261e-08
-1.37954e-07
2.65438e-08
-1.47072e-07
2.6442e-08
-1.56113e-07
2.62244e-08
-1.6504e-07
2.58947e-08
-1.73815e-07
2.5457e-08
-1.82402e-07
2.49154e-08
-1.90767e-07
2.42742e-08
-1.98879e-07
2.35378e-08
-2.06705e-07
2.27105e-08
-2.14215e-07
2.1797e-08
-2.21383e-07
2.08018e-08
-2.2818e-07
1.97296e-08
-2.34583e-07
1.85849e-08
-2.40567e-07
1.73727e-08
-2.46112e-07
1.60975e-08
-2.51197e-07
1.47644e-08
-2.55804e-07
1.33781e-08
-2.59916e-07
1.19437e-08
-2.63519e-07
1.0466e-08
-2.66599e-07
8.95014e-09
-2.69145e-07
7.40121e-09
-2.71147e-07
5.82436e-09
-2.72598e-07
4.22482e-09
-2.73492e-07
2.60788e-09
-2.73824e-07
9.78904e-10
-2.73593e-07
-6.5668e-10
-2.72798e-07
-2.29338e-09
-2.71441e-07
-3.92562e-09
-2.69525e-07
-5.54777e-09
-2.67056e-07
-7.15413e-09
-2.64041e-07
-8.73894e-09
-2.60491e-07
-1.02964e-08
-2.56415e-07
-1.18206e-08
-2.51829e-07
-1.33057e-08
-2.46748e-07
-1.47458e-08
-2.41189e-07
-1.61348e-08
-2.35172e-07
-1.74669e-08
-2.28718e-07
-1.87361e-08
-2.21852e-07
-1.99365e-08
-2.14599e-07
-2.10622e-08
-2.06987e-07
-2.21074e-08
-1.99044e-07
-2.30664e-08
-1.90804e-07
-2.39336e-08
-1.82299e-07
-2.47036e-08
-1.73564e-07
-2.53711e-08
-1.64636e-07
-2.59309e-08
-1.55553e-07
-2.63783e-08
-1.46355e-07
-2.67086e-08
-1.37083e-07
-2.69174e-08
-1.27781e-07
-2.7001e-08
-1.18491e-07
-2.69557e-08
-1.09258e-07
-2.67785e-08
-1.00128e-07
-2.64667e-08
-9.11458e-08
-2.60183e-08
-8.23586e-08
-2.54319e-08
-7.38123e-08
-2.47068e-08
-6.55531e-08
-2.38432e-08
-5.76263e-08
-2.28423e-08
-5.00763e-08
-2.17064e-08
-4.29459e-08
-2.0439e-08
-3.62761e-08
-1.90455e-08
-3.01048e-08
-1.75329e-08
-2.44667e-08
-1.59108e-08
-1.93917e-08
-1.41917e-08
-1.49043e-08
-1.23917e-08
-1.10219e-08
-1.05317e-08
-7.75331e-09
-8.6383e-09
-5.09665e-09
-6.74594e-09
-3.03715e-09
-4.89874e-09
-1.54443e-09
-3.15341e-09
-5.69519e-10
-1.58273e-09
-4.13791e-11
-2.79919e-10
1.36931e-10
6.37295e-10
9.34642e-11
1.02141e-09
6.74713e-10
-1.20334e-11
-6.29454e-10
-2.38049e-10
-6.74318e-10
-8.26349e-10
1.59817e-10
-1.89053e-09
1.63381e-09
-3.51658e-09
3.56717e-09
-5.76673e-09
5.81488e-09
-8.68251e-09
8.26141e-09
-1.22875e-08
1.08158e-08
-1.65901e-08
1.34066e-08
-2.1586e-08
1.59779e-08
-2.72598e-08
1.84864e-08
-3.35878e-08
2.08983e-08
-4.0539e-08
2.31876e-08
-4.80766e-08
2.53347e-08
-5.61594e-08
2.73248e-08
-6.4743e-08
2.91468e-08
-7.37801e-08
3.07932e-08
-8.32217e-08
3.22587e-08
-9.30173e-08
3.35402e-08
-1.03116e-07
3.46364e-08
-1.13466e-07
3.55473e-08
-1.24017e-07
3.62739e-08
-1.34717e-07
3.68185e-08
-1.45515e-07
3.7184e-08
-1.56363e-07
3.73737e-08
-1.67211e-07
3.73919e-08
-1.78012e-07
3.72431e-08
-1.8872e-07
3.69321e-08
-1.99289e-07
3.64643e-08
-2.09677e-07
3.5845e-08
-2.19842e-07
3.50801e-08
-2.29743e-07
3.41754e-08
-2.39342e-07
3.31369e-08
-2.48603e-07
3.19708e-08
-2.57489e-07
3.06835e-08
-2.65969e-07
2.92814e-08
-2.7401e-07
2.77709e-08
-2.81584e-07
2.61586e-08
-2.88662e-07
2.44511e-08
-2.9522e-07
2.26553e-08
-3.01233e-07
2.07778e-08
-3.06681e-07
1.88256e-08
-3.11543e-07
1.68056e-08
-3.15801e-07
1.47249e-08
-3.19442e-07
1.25905e-08
-3.2245e-07
1.04097e-08
-3.24816e-07
8.18966e-09
-3.26529e-07
5.93783e-09
-3.27582e-07
3.66166e-09
-3.27972e-07
1.36871e-09
-3.27695e-07
-9.33387e-10
-3.26752e-07
-3.23687e-09
-3.25144e-07
-5.5339e-09
-3.22875e-07
-7.81654e-09
-3.19952e-07
-1.00768e-08
-3.16385e-07
-1.23065e-08
-3.12183e-07
-1.44976e-08
-3.07362e-07
-1.66418e-08
-3.01937e-07
-1.87307e-08
-2.95927e-07
-2.07562e-08
-2.89352e-07
-2.27098e-08
-2.82235e-07
-2.45833e-08
-2.74603e-07
-2.63682e-08
-2.66483e-07
-2.80564e-08
-2.57906e-07
-2.96397e-08
-2.48903e-07
-3.11099e-08
-2.3951e-07
-3.24591e-08
-2.29765e-07
-3.36795e-08
-2.19705e-07
-3.47636e-08
-2.09372e-07
-3.5704e-08
-1.98809e-07
-3.64936e-08
-1.88062e-07
-3.71258e-08
-1.77176e-07
-3.75943e-08
-1.662e-07
-3.78932e-08
-1.55184e-07
-3.80171e-08
-1.44179e-07
-3.79612e-08
-1.33236e-07
-3.77215e-08
-1.22408e-07
-3.72944e-08
-1.11749e-07
-3.66775e-08
-1.01312e-07
-3.5869e-08
-9.11499e-08
-3.48684e-08
-8.13169e-08
-3.36762e-08
-7.18647e-08
-3.22945e-08
-6.28441e-08
-3.07269e-08
-5.43042e-08
-2.8979e-08
-4.62912e-08
-2.70584e-08
-3.88483e-08
-2.49757e-08
-3.20145e-08
-2.27446e-08
-2.58235e-08
-2.03827e-08
-2.03027e-08
-1.79125e-08
-1.54718e-08
-1.53626e-08
-1.13409e-08
-1.27691e-08
-7.90939e-09
-1.01775e-08
-5.16303e-09
-7.64511e-09
-3.07233e-09
-5.24411e-09
-1.58982e-09
-3.06524e-09
-6.47413e-10
-1.22232e-09
-1.53436e-10
1.43322e-10
1.11034e-11
8.56863e-10
6.85815e-10
-1.07991e-10
-5.21467e-10
-5.80008e-10
-2.0227e-10
-1.53907e-09
1.11884e-09
-3.08273e-09
3.17749e-09
-5.28628e-09
5.77071e-09
-8.20449e-09
8.73309e-09
-1.18737e-08
1.19306e-08
-1.63137e-08
1.52558e-08
-2.15299e-08
1.86227e-08
-2.75151e-08
2.19631e-08
-3.42515e-08
2.52227e-08
-4.17121e-08
2.83589e-08
-4.98628e-08
3.13383e-08
-5.8663e-08
3.4135e-08
-6.80674e-08
3.67292e-08
-7.80269e-08
3.91063e-08
-8.84891e-08
4.12554e-08
-9.93996e-08
4.31693e-08
-1.10703e-07
4.48432e-08
-1.22341e-07
4.62749e-08
-1.34258e-07
4.74637e-08
-1.46394e-07
4.84108e-08
-1.58694e-07
4.91185e-08
-1.71101e-07
4.95902e-08
-1.83557e-07
4.98304e-08
-1.96009e-07
4.9844e-08
-2.08403e-07
4.96368e-08
-2.20686e-07
4.92152e-08
-2.32808e-07
4.85858e-08
-2.44718e-07
4.77558e-08
-2.56371e-07
4.67325e-08
-2.67719e-07
4.55238e-08
-2.7872e-07
4.41376e-08
-2.89331e-07
4.25819e-08
-2.99513e-07
4.08651e-08
-3.09227e-07
3.89956e-08
-3.18438e-07
3.69821e-08
-3.27113e-07
3.48333e-08
-3.3522e-07
3.25579e-08
-3.42729e-07
3.0165e-08
-3.49615e-07
2.76635e-08
-3.55852e-07
2.50626e-08
-3.61418e-07
2.23717e-08
-3.66293e-07
1.96e-08
-3.7046e-07
1.67569e-08
-3.73902e-07
1.38522e-08
-3.76608e-07
1.08955e-08
-3.78567e-07
7.89665e-09
-3.79771e-07
4.86555e-09
-3.80214e-07
1.81228e-09
-3.79895e-07
-1.25294e-09
-3.78812e-07
-4.31981e-09
-3.76968e-07
-7.37789e-09
-3.74368e-07
-1.04166e-08
-3.71019e-07
-1.34254e-08
-3.66932e-07
-1.63933e-08
-3.6212e-07
-1.93096e-08
-3.56599e-07
-2.21633e-08
-3.50386e-07
-2.49435e-08
-3.43503e-07
-2.76391e-08
-3.35974e-07
-3.0239e-08
-3.27825e-07
-3.27322e-08
-3.19086e-07
-3.51078e-08
-3.09787e-07
-3.73547e-08
-2.99965e-07
-3.94622e-08
-2.89655e-07
-4.14196e-08
-2.78898e-07
-4.32164e-08
-2.67735e-07
-4.48424e-08
-2.56211e-07
-4.62875e-08
-2.44373e-07
-4.75423e-08
-2.32269e-07
-4.85974e-08
-2.19951e-07
-4.94441e-08
-2.07471e-07
-5.00743e-08
-1.94883e-07
-5.04803e-08
-1.82245e-07
-5.06552e-08
-1.69614e-07
-5.0593e-08
-1.57047e-07
-5.02883e-08
-1.44604e-07
-4.97369e-08
-1.32346e-07
-4.89357e-08
-1.20332e-07
-4.78829e-08
-1.08622e-07
-4.6578e-08
-9.72763e-08
-4.50223e-08
-8.6352e-08
-4.32189e-08
-7.5906e-08
-4.11729e-08
-6.59928e-08
-3.88922e-08
-5.66637e-08
-3.63875e-08
-4.79663e-08
-3.36731e-08
-3.99438e-08
-3.07671e-08
-3.26333e-08
-2.76931e-08
-2.60655e-08
-2.44803e-08
-2.02626e-08
-2.11655e-08
-1.52372e-08
-1.77945e-08
-1.09908e-08
-1.44239e-08
-7.5118e-09
-1.11241e-08
-4.77381e-09
-7.9821e-09
-2.7338e-09
-5.10525e-09
-1.33013e-09
-2.62599e-09
-4.80657e-10
-7.06148e-10
-8.07322e-11
4.56938e-10
6.0508e-10
-2.07726e-10
-3.13738e-10
-9.40207e-10
5.30216e-10
-2.29347e-09
2.47211e-09
-4.3463e-09
5.23033e-09
-7.16029e-09
8.58469e-09
-1.07801e-08
1.2353e-08
-1.52347e-08
1.63851e-08
-2.0538e-08
2.0559e-08
-2.66907e-08
2.47755e-08
-3.3682e-08
2.89543e-08
-4.14902e-08
3.30309e-08
-5.0085e-08
3.69538e-08
-5.94285e-08
4.06818e-08
-6.94766e-08
4.4183e-08
-8.01798e-08
4.74324e-08
-9.14846e-08
5.04111e-08
-1.03334e-07
5.3105e-08
-1.15669e-07
5.55045e-08
-1.28429e-07
5.76029e-08
-1.41551e-07
5.93968e-08
-1.54972e-07
6.0885e-08
-1.6863e-07
6.20683e-08
-1.82461e-07
6.29492e-08
-1.96402e-07
6.35317e-08
-2.10393e-07
6.38209e-08
-2.24372e-07
6.38229e-08
-2.3828e-07
6.35448e-08
-2.52059e-07
6.29943e-08
-2.65653e-07
6.21797e-08
-2.79007e-07
6.11099e-08
-2.92068e-07
5.97942e-08
-3.04787e-07
5.82422e-08
-3.17113e-07
5.64641e-08
-3.29001e-07
5.44699e-08
-3.40407e-07
5.22703e-08
-3.51287e-07
4.9876e-08
-3.61603e-07
4.7298e-08
-3.71317e-07
4.45472e-08
-3.80394e-07
4.16349e-08
-3.88802e-07
3.85726e-08
-3.9651e-07
3.53718e-08
-4.03491e-07
3.20442e-08
-4.09721e-07
2.86015e-08
-4.15177e-07
2.50558e-08
-4.19839e-07
2.14192e-08
-4.23691e-07
1.7704e-08
-4.26718e-07
1.39225e-08
-4.28909e-07
1.00873e-08
-4.30254e-07
6.21109e-09
-4.30749e-07
2.30682e-09
-4.30389e-07
-1.61251e-09
-4.29175e-07
-5.53373e-09
-4.2711e-07
-9.44349e-09
-4.24198e-07
-1.33283e-08
-4.20449e-07
-1.71746e-08
-4.15873e-07
-2.09686e-08
-4.10487e-07
-2.46965e-08
-4.04306e-07
-2.83442e-08
-3.97351e-07
-3.1898e-08
-3.89647e-07
-3.53436e-08
-3.81219e-07
-3.8667e-08
-3.72096e-07
-4.18542e-08
-3.62313e-07
-4.48913e-08
-3.51903e-07
-4.77643e-08
-3.40906e-07
-5.04594e-08
-3.29363e-07
-5.29633e-08
-3.17316e-07
-5.52626e-08
-3.04814e-07
-5.73443e-08
-2.91906e-07
-5.9196e-08
-2.78643e-07
-6.08054e-08
-2.65079e-07
-6.2161e-08
-2.51271e-07
-6.32519e-08
-2.37278e-07
-6.40677e-08
-2.23159e-07
-6.4599e-08
-2.08977e-07
-6.48372e-08
-1.94795e-07
-6.47749e-08
-1.80678e-07
-6.44056e-08
-1.66691e-07
-6.37242e-08
-1.52899e-07
-6.27272e-08
-1.3937e-07
-6.14125e-08
-1.26168e-07
-5.978e-08
-1.13358e-07
-5.78318e-08
-1.01005e-07
-5.55721e-08
-8.91699e-08
-5.30081e-08
-7.7912e-08
-5.01501e-08
-6.72875e-08
-4.7012e-08
-5.73484e-08
-4.36122e-08
-4.81415e-08
-3.9974e-08
-3.97079e-08
-3.61267e-08
-3.20815e-08
-3.21067e-08
-2.52879e-08
-2.79592e-08
-1.93428e-08
-2.37395e-08
-1.42513e-08
-1.95154e-08
-1.00059e-08
-1.53695e-08
-6.5854e-09
-1.14026e-08
-3.9534e-09
-7.73726e-09
-2.05737e-09
-4.52203e-09
-8.2761e-10
-1.9359e-09
-1.76844e-10
-1.93833e-10
4.28234e-10
-3.08276e-10
-5.48534e-12
-1.30771e-09
1.52967e-09
-3.06788e-09
4.23227e-09
-5.64755e-09
7.80999e-09
-9.09287e-09
1.203e-08
-1.34367e-08
1.66968e-08
-1.86986e-08
2.1647e-08
-2.48852e-08
2.67457e-08
-3.19914e-08
3.18817e-08
-4.00009e-08
3.69639e-08
-4.8888e-08
4.1918e-08
-5.86181e-08
4.66839e-08
-6.91494e-08
5.12131e-08
-8.04337e-08
5.54673e-08
-9.24176e-08
5.94163e-08
-1.05043e-07
6.30368e-08
-1.1825e-07
6.63115e-08
-1.31973e-07
6.92278e-08
-1.46148e-07
7.17774e-08
-1.60706e-07
7.39554e-08
-1.75581e-07
7.57598e-08
-1.90704e-07
7.7191e-08
-2.06006e-07
7.82518e-08
-2.21421e-07
7.89465e-08
-2.36881e-07
7.9281e-08
-2.52321e-07
7.92625e-08
-2.67675e-07
7.88994e-08
-2.82882e-07
7.82009e-08
-2.97879e-07
7.7177e-08
-3.12608e-07
7.58384e-08
-3.2701e-07
7.41965e-08
-3.41031e-07
7.22629e-08
-3.54617e-07
7.005e-08
-3.67717e-07
6.75703e-08
-3.80283e-07
6.48367e-08
-3.9227e-07
6.18624e-08
-4.03633e-07
5.86609e-08
-4.14331e-07
5.52458e-08
-4.24328e-07
5.1631e-08
-4.33586e-07
4.78307e-08
-4.42073e-07
4.3859e-08
-4.49759e-07
3.97304e-08
-4.56617e-07
3.54597e-08
-4.62623e-07
3.10615e-08
-4.67755e-07
2.65509e-08
-4.71994e-07
2.19431e-08
-4.75325e-07
1.72535e-08
-4.77735e-07
1.24977e-08
-4.79215e-07
7.69127e-09
-4.79759e-07
2.85032e-09
-4.79362e-07
-2.00905e-09
-4.78026e-07
-6.87052e-09
-4.75751e-07
-1.17176e-08
-4.72546e-07
-1.65336e-08
-4.68419e-07
-2.13016e-08
-4.63383e-07
-2.60047e-08
-4.57454e-07
-3.06258e-08
-4.5065e-07
-3.51477e-08
-4.42995e-07
-3.9553e-08
-4.34514e-07
-4.38245e-08
-4.25237e-07
-4.79448e-08
-4.15194e-07
-5.18965e-08
-4.04423e-07
-5.56625e-08
-3.92961e-07
-5.92258e-08
-3.80852e-07
-6.25693e-08
-3.68138e-07
-6.56766e-08
-3.5487e-07
-6.85312e-08
-3.41097e-07
-7.11174e-08
-3.26873e-07
-7.34197e-08
-3.12255e-07
-7.54233e-08
-2.97302e-07
-7.71142e-08
-2.82075e-07
-7.84788e-08
-2.66638e-07
-7.95048e-08
-2.51056e-07
-8.01807e-08
-2.35397e-07
-8.04962e-08
-2.1973e-07
-8.04424e-08
-2.04124e-07
-8.00115e-08
-1.8865e-07
-7.91978e-08
-1.7338e-07
-7.7997e-08
-1.58386e-07
-7.64072e-08
-1.43737e-07
-7.44286e-08
-1.29505e-07
-7.2064e-08
-1.15758e-07
-6.93193e-08
-1.02562e-07
-6.62036e-08
-8.9982e-08
-6.273e-08
-7.80782e-08
-5.89159e-08
-6.69066e-08
-5.47838e-08
-5.65184e-08
-5.03623e-08
-4.69583e-08
-4.56868e-08
-3.82641e-08
-4.08009e-08
-3.04652e-08
-3.57581e-08
-2.35818e-08
-3.0623e-08
-1.76233e-08
-2.54739e-08
-1.25878e-08
-2.0405e-08
-8.46079e-09
-1.55296e-08
-5.21441e-09
-1.09836e-08
-2.807e-09
-6.92944e-09
-1.1831e-09
-3.5598e-09
-2.74103e-10
-1.10284e-09
1.54132e-10
-4.07845e-10
4.02357e-10
-1.6756e-09
2.79743e-09
-3.84779e-09
6.40445e-09
-6.96306e-09
1.09253e-08
-1.10514e-08
1.61184e-08
-1.61326e-08
2.1778e-08
-2.22157e-08
2.77301e-08
-2.92988e-08
3.38288e-08
-3.73696e-08
3.99524e-08
-4.64059e-08
4.60002e-08
-5.63766e-08
5.18887e-08
-6.72423e-08
5.75497e-08
-7.8957e-08
6.29278e-08
-9.1468e-08
6.79784e-08
-1.04718e-07
7.26661e-08
-1.18645e-07
7.69635e-08
-1.33183e-07
8.08497e-08
-1.48264e-07
8.43094e-08
-1.63819e-07
8.73321e-08
-1.79775e-07
8.99116e-08
-1.96061e-07
9.2045e-08
-2.12602e-07
9.37324e-08
-2.29327e-07
9.49765e-08
-2.46162e-07
9.57821e-08
-2.63037e-07
9.61559e-08
-2.79881e-07
9.61062e-08
-2.96624e-07
9.56426e-08
-3.13199e-07
9.4776e-08
-3.2954e-07
9.35181e-08
-3.45584e-07
9.18816e-08
-3.61267e-07
8.98799e-08
-3.76531e-07
8.7527e-08
-3.91319e-07
8.48375e-08
-4.05575e-07
8.18265e-08
-4.19248e-07
7.85094e-08
-4.32287e-07
7.4902e-08
-4.44647e-07
7.10206e-08
-4.56283e-07
6.68815e-08
-4.67153e-07
6.25014e-08
-4.7722e-07
5.78975e-08
-4.86447e-07
5.30867e-08
-4.94804e-07
4.80868e-08
-5.02259e-07
4.29152e-08
-5.08788e-07
3.75899e-08
-5.14366e-07
3.2129e-08
-5.18974e-07
2.6551e-08
-5.22594e-07
2.08742e-08
-5.25214e-07
1.51177e-08
-5.26823e-07
9.3004e-09
-5.27415e-07
3.44156e-09
-5.26984e-07
-2.4393e-09
-5.25533e-07
-8.32247e-09
-5.23062e-07
-1.4188e-08
-5.1958e-07
-2.00158e-08
-5.15096e-07
-2.57855e-08
-5.09624e-07
-3.14767e-08
-5.03181e-07
-3.70686e-08
-4.95788e-07
-4.25406e-08
-4.87469e-07
-4.78718e-08
-4.78253e-07
-5.30414e-08
-4.68169e-07
-5.80285e-08
-4.57253e-07
-6.28122e-08
-4.45544e-07
-6.73719e-08
-4.33083e-07
-7.1687e-08
-4.19915e-07
-7.57373e-08
-4.06088e-07
-7.95029e-08
-3.91655e-07
-8.29642e-08
-3.7667e-07
-8.61022e-08
-3.61192e-07
-8.88985e-08
-3.4528e-07
-9.13354e-08
-3.28998e-07
-9.33961e-08
-3.12412e-07
-9.50646e-08
-2.9559e-07
-9.63262e-08
-2.78604e-07
-9.71673e-08
-2.61524e-07
-9.75757e-08
-2.44426e-07
-9.7541e-08
-2.27383e-07
-9.70543e-08
-2.10472e-07
-9.61087e-08
-1.93769e-07
-9.46999e-08
-1.77351e-07
-9.28255e-08
-1.61293e-07
-9.04864e-08
-1.45671e-07
-8.76863e-08
-1.30558e-07
-8.44326e-08
-1.16025e-07
-8.07367e-08
-1.0214e-07
-7.66144e-08
-8.89693e-08
-7.20867e-08
-7.65724e-08
-6.71806e-08
-6.50048e-08
-6.19299e-08
-5.43155e-08
-5.6376e-08
-4.45466e-08
-5.05699e-08
-3.57321e-08
-4.45727e-08
-2.78969e-08
-3.84581e-08
-2.10565e-08
-3.23143e-08
-1.52153e-08
-2.62462e-08
-1.03668e-08
-2.03781e-08
-6.49296e-09
-1.48575e-08
-3.56413e-09
-9.85826e-09
-1.53994e-09
-5.58398e-09
-3.70663e-10
-2.27212e-09
-2.16528e-10
-5.05468e-10
9.07824e-10
-2.03957e-09
4.33151e-09
-4.62369e-09
8.98858e-09
-8.27702e-09
1.45786e-08
-1.30132e-08
2.08545e-08
-1.88383e-08
2.76031e-08
-2.57501e-08
3.46419e-08
-3.37372e-08
4.18158e-08
-4.27792e-08
4.89944e-08
-5.28471e-08
5.60681e-08
-6.39038e-08
6.29453e-08
-7.59046e-08
6.95505e-08
-8.87985e-08
7.58216e-08
-1.02528e-07
8.17082e-08
-1.17032e-07
8.71699e-08
-1.32244e-07
9.2175e-08
-1.48093e-07
9.66992e-08
-1.64508e-07
1.00725e-07
-1.81415e-07
1.04239e-07
-1.98736e-07
1.07233e-07
-2.16396e-07
1.09705e-07
-2.34318e-07
1.11654e-07
-2.52423e-07
1.13082e-07
-2.70635e-07
1.13994e-07
-2.88878e-07
1.14399e-07
-3.07078e-07
1.14306e-07
-3.2516e-07
1.13725e-07
-3.43053e-07
1.12669e-07
-3.60687e-07
1.11152e-07
-3.77993e-07
1.09188e-07
-3.94906e-07
1.06793e-07
-4.11363e-07
1.03984e-07
-4.27302e-07
1.00777e-07
-4.42665e-07
9.71896e-08
-4.57396e-07
9.32409e-08
-4.71443e-07
8.8949e-08
-4.84756e-07
8.43331e-08
-4.97287e-07
7.94125e-08
-5.08993e-07
7.4207e-08
-5.19832e-07
6.87366e-08
-5.29767e-07
6.30217e-08
-5.38763e-07
5.70829e-08
-5.46789e-07
5.09411e-08
-5.53816e-07
4.46176e-08
-5.59821e-07
3.81337e-08
-5.64782e-07
3.15113e-08
-5.6868e-07
2.47723e-08
-5.71501e-07
1.7939e-08
-5.73235e-07
1.1034e-08
-5.73873e-07
4.08004e-09
-5.73413e-07
-2.89979e-09
-5.71853e-07
-9.88215e-09
-5.69197e-07
-1.68434e-08
-5.65453e-07
-2.37599e-08
-5.60632e-07
-3.06074e-08
-5.54747e-07
-3.73617e-08
-5.47817e-07
-4.39986e-08
-5.39864e-07
-5.04933e-08
-5.30914e-07
-5.68215e-08
-5.20997e-07
-6.29584e-08
-5.10146e-07
-6.88793e-08
-4.98399e-07
-7.45598e-08
-4.85795e-07
-7.99754e-08
-4.7238e-07
-8.5102e-08
-4.58202e-07
-8.99157e-08
-4.43312e-07
-9.4393e-08
-4.27765e-07
-9.8511e-08
-4.1162e-07
-1.02247e-07
-3.94938e-07
-1.0558e-07
-3.77784e-07
-1.08489e-07
-3.60225e-07
-1.10955e-07
-3.42332e-07
-1.12958e-07
-3.24177e-07
-1.14481e-07
-3.05835e-07
-1.15509e-07
-2.87382e-07
-1.16028e-07
-2.68898e-07
-1.16025e-07
-2.50462e-07
-1.15491e-07
-2.32154e-07
-1.14417e-07
-2.14055e-07
-1.12798e-07
-1.96247e-07
-1.10634e-07
-1.7881e-07
-1.07923e-07
-1.61824e-07
-1.04672e-07
-1.45367e-07
-1.0089e-07
-1.29514e-07
-9.65894e-08
-1.14339e-07
-9.17896e-08
-9.99103e-08
-8.65152e-08
-8.62935e-08
-8.07974e-08
-7.35481e-08
-7.46753e-08
-6.17277e-08
-6.81964e-08
-5.08792e-08
-6.14183e-08
-4.10418e-08
-5.44101e-08
-3.22463e-08
-4.72536e-08
-2.45145e-08
-4.00462e-08
-1.78584e-08
-3.29023e-08
-1.22804e-08
-2.59561e-08
-7.77285e-09
-1.9365e-08
-4.31899e-09
-1.33121e-08
-1.89366e-09
-8.0093e-09
-4.65471e-10
-3.70031e-09
-6.82e-10
-6.00637e-10
1.50846e-09
-2.39706e-09
6.12795e-09
-5.38966e-09
1.19812e-08
-9.57905e-09
1.8768e-08
-1.49628e-08
2.62382e-08
-2.15332e-08
3.41736e-08
-2.92762e-08
4.23848e-08
-3.81703e-08
5.07099e-08
-4.81863e-08
5.90105e-08
-5.92878e-08
6.71695e-08
-7.14309e-08
7.50885e-08
-8.45653e-08
8.26849e-08
-9.86343e-08
8.98906e-08
-1.13576e-07
9.66499e-08
-1.29324e-07
1.02918e-07
-1.45806e-07
1.08658e-07
-1.62951e-07
1.13843e-07
-1.80679e-07
1.18453e-07
-1.98914e-07
1.22473e-07
-2.17574e-07
1.25894e-07
-2.3658e-07
1.2871e-07
-2.55848e-07
1.30922e-07
-2.75299e-07
1.32532e-07
-2.9485e-07
1.33546e-07
-3.14423e-07
1.33972e-07
-3.33938e-07
1.3382e-07
-3.53317e-07
1.33104e-07
-3.72485e-07
1.31837e-07
-3.91367e-07
1.30034e-07
-4.09892e-07
1.27713e-07
-4.27991e-07
1.24892e-07
-4.45596e-07
1.21589e-07
-4.62644e-07
1.17824e-07
-4.79071e-07
1.13617e-07
-4.9482e-07
1.0899e-07
-5.09835e-07
1.03964e-07
-5.24063e-07
9.85606e-08
-5.37453e-07
9.2803e-08
-5.4996e-07
8.6714e-08
-5.6154e-07
8.03167e-08
-5.72153e-07
7.3635e-08
-5.81763e-07
6.66927e-08
-5.90336e-07
5.95144e-08
-5.97843e-07
5.21245e-08
-6.04258e-07
4.45482e-08
-6.09557e-07
3.68106e-08
-6.13722e-07
2.89376e-08
-6.16738e-07
2.09549e-08
-6.18593e-07
1.28888e-08
-6.19279e-07
4.76596e-09
-6.18792e-07
-3.38682e-09
-6.17132e-07
-1.15424e-08
-6.14302e-07
-1.96732e-08
-6.1031e-07
-2.77517e-08
-6.05168e-07
-3.57498e-08
-5.9889e-07
-4.36393e-08
-5.91497e-07
-5.1392e-08
-5.83011e-07
-5.89793e-08
-5.73459e-07
-6.63726e-08
-5.62874e-07
-7.35434e-08
-5.51291e-07
-8.04629e-08
-5.38748e-07
-8.71028e-08
-5.25288e-07
-9.34347e-08
-5.1096e-07
-9.94306e-08
-4.95813e-07
-1.05063e-07
-4.79902e-07
-1.10304e-07
-4.63285e-07
-1.15128e-07
-4.46024e-07
-1.19508e-07