/*--------------------------------*- C++ -*----------------------------------*\
  =========                 |
  \\      /  F ield         | OpenFOAM: The Open Source CFD Toolbox
   \\    /   O peration     | Website:  https://openfoam.org
    \\  /    A nd           | Version:  7
     \\/     M anipulation  |
\*---------------------------------------------------------------------------*/
FoamFile
{
    version     2.0;
    format      ascii;
    class       volVectorField;
    location    "4.5";
    object      U;
}
// * * * * * * * * * * * * * * * * * * * * * * * * * * * * * * * * * * * * * //

dimensions      [0 1 -1 0 0 0 0];

internalField   nonuniform List<vector> 
2413
(
(1.4521 0.218438 0)
(1.44458 0.212728 0)
(1.43702 0.208397 0)
(1.43261 0.205201 0)
(1.4319 0.20331 0)
(1.43365 0.201828 0)
(1.43624 0.200133 0)
(1.43927 0.197236 0)
(1.44137 0.240826 0)
(1.43884 0.234515 0)
(1.43369 0.228475 0)
(1.4295 0.224889 0)
(1.42764 0.223941 0)
(1.42824 0.223675 0)
(1.43099 0.222224 0)
(1.43567 0.217993 0)
(1.4285 0.264203 0)
(1.43267 0.253645 0)
(1.43185 0.245792 0)
(1.42893 0.242812 0)
(1.42717 0.24304 0)
(1.4274 0.24323 0)
(1.42979 0.241612 0)
(1.43431 0.237283 0)
(1.41535 0.285521 0)
(1.4238 0.27209 0)
(1.42585 0.264374 0)
(1.42587 0.260387 0)
(1.42631 0.259625 0)
(1.42753 0.259597 0)
(1.43059 0.257189 0)
(1.43572 0.252527 0)
(1.39144 0.309825 0)
(1.40428 0.294113 0)
(1.4163 0.28054 0)
(1.42277 0.273215 0)
(1.42498 0.273062 0)
(1.42709 0.273757 0)
(1.43146 0.270914 0)
(1.43751 0.266425 0)
(1.37228 0.326722 0)
(1.38702 0.312037 0)
(1.40314 0.297683 0)
(1.41287 0.291468 0)
(1.42073 0.286488 0)
(1.42741 0.282739 0)
(1.43337 0.280159 0)
(1.44025 0.277443 0)
(1.36433 0.33215 0)
(1.37092 0.330081 0)
(1.3853 0.320976 0)
(1.40095 0.309924 0)
(1.4149 0.299681 0)
(1.4242 0.293631 0)
(1.43245 0.289196 0)
(1.44264 0.284661 0)
(1.36686 0.325487 0)
(1.36981 0.332446 0)
(1.37554 0.330214 0)
(1.38683 0.324193 0)
(1.40158 0.315812 0)
(1.41433 0.307666 0)
(1.42629 0.299909 0)
(1.44067 0.293148 0)
(1.4287 0.271082 0)
(1.38689 0.31656 0)
(1.37794 0.327298 0)
(1.38167 0.325724 0)
(1.38944 0.322797 0)
(1.39993 0.318854 0)
(1.4137 0.312736 0)
(1.4302 0.30667 0)
(1.54928 0.163027 0)
(1.44059 0.261408 0)
(1.39008 0.316529 0)
(1.38291 0.315838 0)
(1.38568 0.317445 0)
(1.3915 0.320032 0)
(1.40228 0.319504 0)
(1.41889 0.316497 0)
(1.63058 0.0855627 0)
(1.55638 0.154107 0)
(1.4585 0.244178 0)
(1.40216 0.286907 0)
(1.37738 0.312324 0)
(1.38303 0.315821 0)
(1.39521 0.316102 0)
(1.41181 0.314963 0)
(1.64275 0.0715008 0)
(1.61661 0.0915918 0)
(1.55571 0.143079 0)
(1.46525 0.215944 0)
(1.3914 0.275791 0)
(1.38637 0.288838 0)
(1.39195 0.303887 0)
(1.40612 0.314989 0)
(1.63597 0.0757161 0)
(1.62068 0.083599 0)
(1.59611 0.0959768 0)
(1.54059 0.129997 0)
(1.45808 0.1928 0)
(1.40841 0.246207 0)
(1.39344 0.281115 0)
(1.40004 0.300053 0)
(1.62884 0.0847927 0)
(1.61589 0.0891747 0)
(1.59549 0.0952818 0)
(1.5635 0.102349 0)
(1.51845 0.124864 0)
(1.46723 0.171569 0)
(1.43283 0.222271 0)
(1.41253 0.264053 0)
(1.62385 0.0962283 0)
(1.61254 0.0983283 0)
(1.59247 0.101934 0)
(1.56094 0.106364 0)
(1.52914 0.114423 0)
(1.505 0.13136 0)
(1.47931 0.162705 0)
(1.45686 0.202007 0)
(1.62108 0.109204 0)
(1.60865 0.111803 0)
(1.58737 0.116465 0)
(1.55635 0.118485 0)
(1.52565 0.124941 0)
(1.50764 0.133987 0)
(1.49949 0.143452 0)
(1.49138 0.159401 0)
(1.61969 0.127713 0)
(1.60527 0.130952 0)
(1.58222 0.137946 0)
(1.54914 0.14007 0)
(1.52227 0.142798 0)
(1.50803 0.145818 0)
(1.50293 0.148923 0)
(1.5024 0.152396 0)
(1.61517 0.154688 0)
(1.59738 0.159186 0)
(1.57571 0.166539 0)
(1.54154 0.167033 0)
(1.51645 0.164322 0)
(1.50981 0.161058 0)
(1.50759 0.156703 0)
(1.50762 0.156366 0)
(1.60279 0.192913 0)
(1.58472 0.191021 0)
(1.57033 0.191359 0)
(1.54038 0.18941 0)
(1.51442 0.183588 0)
(1.51037 0.177102 0)
(1.50893 0.170634 0)
(1.51124 0.167023 0)
(1.84385 0.0343619 0)
(1.84828 0.0420806 0)
(1.85202 0.0501175 0)
(1.85542 0.0570333 0)
(1.85902 0.0630728 0)
(1.86251 0.0695391 0)
(1.86574 0.0771278 0)
(1.86888 0.084913 0)
(1.87231 0.0920919 0)
(1.87669 0.101533 0)
(1.88305 0.115494 0)
(1.89112 0.130078 0)
(1.90111 0.145673 0)
(1.91277 0.167275 0)
(1.92478 0.190916 0)
(1.93658 0.208525 0)
(1.9472 0.220033 0)
(1.95432 0.227901 0)
(1.95395 0.228458 0)
(1.44197 0.193018 0)
(1.44498 0.185536 0)
(1.45041 0.174377 0)
(1.45516 0.16399 0)
(1.45797 0.15245 0)
(1.46435 0.138206 0)
(1.47164 0.125746 0)
(1.47888 0.11992 0)
(1.48763 0.116918 0)
(1.49792 0.114744 0)
(1.50898 0.112517 0)
(1.52124 0.109501 0)
(1.53422 0.109414 0)
(1.54742 0.116553 0)
(1.56045 0.125766 0)
(1.5716 0.124289 0)
(1.57688 0.106493 0)
(1.58013 0.0856569 0)
(1.58152 0.0757202 0)
(1.5802 0.0658612 0)
(1.58379 0.0514394 0)
(1.58828 0.0359931 0)
(1.59009 0.025839 0)
(1.59271 0.0221555 0)
(1.59772 0.019553 0)
(1.60708 0.0124628 0)
(1.61736 -0.00108015 0)
(1.62942 -0.0133352 0)
(1.64259 -0.0193434 0)
(1.65738 -0.024758 0)
(1.67445 -0.0300932 0)
(1.69279 -0.0380622 0)
(1.71105 -0.0503693 0)
(1.72799 -0.06237 0)
(1.74253 -0.0755365 0)
(1.75563 -0.0885839 0)
(1.76753 -0.107042 0)
(1.78068 -0.118019 0)
(1.79339 -0.12291 0)
(1.80292 -0.133419 0)
(1.81033 -0.142691 0)
(1.81565 -0.145559 0)
(1.81902 -0.145557 0)
(1.82219 -0.147538 0)
(1.8243 -0.152259 0)
(1.82546 -0.159064 0)
(1.82719 -0.165775 0)
(1.82951 -0.168807 0)
(1.83018 -0.16552 0)
(1.82956 -0.159381 0)
(1.83038 -0.154358 0)
(1.83107 -0.146809 0)
(1.82878 -0.143443 0)
(1.82658 -0.139001 0)
(1.82098 -0.13114 0)
(1.81536 -0.122651 0)
(1.80853 -0.113847 0)
(1.79398 -0.100044 0)
(1.78255 -0.0882496 0)
(1.77277 -0.0843943 0)
(1.76238 -0.0799698 0)
(1.75648 -0.0730769 0)
(1.75172 -0.0710056 0)
(1.7473 -0.0707015 0)
(1.74542 -0.0695074 0)
(1.74441 -0.0682144 0)
(1.74359 -0.0664047 0)
(1.74202 -0.0654434 0)
(1.74003 -0.065335 0)
(1.73918 -0.0652897 0)
(1.73882 -0.0648176 0)
(1.73906 -0.0626574 0)
(1.73975 -0.0596751 0)
(1.7409 -0.0574263 0)
(1.74269 -0.0543779 0)
(1.74515 -0.0497039 0)
(1.74853 -0.0439876 0)
(1.75219 -0.0388812 0)
(1.75586 -0.0352339 0)
(1.75995 -0.0317822 0)
(1.76506 -0.0274864 0)
(1.77096 -0.0227064 0)
(1.7768 -0.0180892 0)
(1.78218 -0.0145437 0)
(1.7869 -0.0127394 0)
(1.79096 -0.0119409 0)
(1.7949 -0.0108101 0)
(1.79909 -0.00926612 0)
(1.8028 -0.00749626 0)
(1.80598 -0.00466105 0)
(1.80931 -0.00171919 0)
(1.81236 -0.000530629 0)
(1.81495 0.000730114 0)
(1.81778 0.0027411 0)
(1.82191 0.00634771 0)
(1.82562 0.00964835 0)
(1.8281 0.0104407 0)
(1.83191 0.0131019 0)
(1.83543 0.0176398 0)
(1.83862 0.022513 0)
(1.84177 0.027139 0)
(1.84492 0.0330157 0)
(1.84822 0.0411333 0)
(1.85129 0.0494529 0)
(1.85443 0.0565009 0)
(1.85753 0.0632593 0)
(1.86003 0.0701757 0)
(1.86212 0.077164 0)
(1.86433 0.0842892 0)
(1.86667 0.0911108 0)
(1.86924 0.0997422 0)
(1.87225 0.110683 0)
(1.87642 0.121354 0)
(1.88249 0.134474 0)
(1.89057 0.153583 0)
(1.9007 0.174111 0)
(1.91212 0.191579 0)
(1.92262 0.20675 0)
(1.93149 0.218105 0)
(1.93893 0.221296 0)
(1.44074 0.211747 0)
(1.44497 0.203714 0)
(1.45082 0.191591 0)
(1.45683 0.178785 0)
(1.46051 0.168237 0)
(1.46454 0.155711 0)
(1.47115 0.142493 0)
(1.47679 0.134929 0)
(1.48369 0.132303 0)
(1.49321 0.129397 0)
(1.50395 0.126245 0)
(1.51483 0.125068 0)
(1.52597 0.125575 0)
(1.53779 0.126222 0)
(1.55174 0.127156 0)
(1.56785 0.129207 0)
(1.57823 0.127757 0)
(1.58372 0.109914 0)
(1.59015 0.0870602 0)
(1.59277 0.0704658 0)
(1.59871 0.0576626 0)
(1.60534 0.0481088 0)
(1.61127 0.0395216 0)
(1.61749 0.0321065 0)
(1.62484 0.0235135 0)
(1.63328 0.0118064 0)
(1.64108 -0.00368982 0)
(1.64987 -0.0171852 0)
(1.66014 -0.0267868 0)
(1.6732 -0.0368488 0)
(1.68722 -0.0491959 0)
(1.70192 -0.0605499 0)
(1.71679 -0.072585 0)
(1.73046 -0.0851303 0)
(1.74381 -0.0937071 0)
(1.75738 -0.101087 0)
(1.77103 -0.111653 0)
(1.78382 -0.124436 0)
(1.79461 -0.136361 0)
(1.80259 -0.150214 0)
(1.8046 -0.160202 0)
(1.80682 -0.163851 0)
(1.81177 -0.164759 0)
(1.81597 -0.16644 0)
(1.81959 -0.169618 0)
(1.82318 -0.17385 0)
(1.82706 -0.178125 0)
(1.8317 -0.180947 0)
(1.83672 -0.18123 0)
(1.83995 -0.180693 0)
(1.84233 -0.179317 0)
(1.84408 -0.175429 0)
(1.84257 -0.170434 0)
(1.83942 -0.163476 0)
(1.83846 -0.156601 0)
(1.83371 -0.145269 0)
(1.83062 -0.136812 0)
(1.81927 -0.118705 0)
(1.81039 -0.104759 0)
(1.80199 -0.0980714 0)
(1.78432 -0.0810359 0)
(1.77181 -0.0699271 0)
(1.76336 -0.0691587 0)
(1.7581 -0.065017 0)
(1.75389 -0.0611114 0)
(1.7505 -0.0589746 0)
(1.74869 -0.0577258 0)
(1.74669 -0.0578476 0)
(1.74514 -0.0589951 0)
(1.74424 -0.0607564 0)
(1.74362 -0.0609139 0)
(1.7437 -0.0589869 0)
(1.74402 -0.0564377 0)
(1.74495 -0.0546462 0)
(1.74665 -0.0524046 0)
(1.74899 -0.048731 0)
(1.75277 -0.0437065 0)
(1.75706 -0.0390884 0)
(1.7611 -0.0358829 0)
(1.76529 -0.032996 0)
(1.76998 -0.0292548 0)
(1.77539 -0.0247894 0)
(1.78114 -0.0200235 0)
(1.78689 -0.0157435 0)
(1.7922 -0.0127225 0)
(1.79671 -0.01096 0)
(1.80051 -0.00963122 0)
(1.80428 -0.00800051 0)
(1.80791 -0.00605698 0)
(1.81096 -0.00335702 0)
(1.81376 0.00062455 0)
(1.81715 0.00288973 0)
(1.81992 0.00404848 0)
(1.82276 0.00583615 0)
(1.82657 0.00909562 0)
(1.82854 0.0107905 0)
(1.83133 0.0116711 0)
(1.83463 0.0141012 0)
(1.83759 0.0178392 0)
(1.84032 0.0222477 0)
(1.843 0.0270828 0)
(1.84574 0.0335387 0)
(1.84825 0.0417245 0)
(1.85037 0.0490925 0)
(1.85263 0.055489 0)
(1.85481 0.062944 0)
(1.85641 0.0711838 0)
(1.8578 0.078962 0)
(1.85961 0.0858849 0)
(1.86162 0.0926815 0)
(1.86337 0.101137 0)
(1.86501 0.110143 0)
(1.86747 0.118821 0)
(1.87067 0.130127 0)
(1.87539 0.144754 0)
(1.88266 0.160597 0)
(1.89177 0.177649 0)
(1.90075 0.194396 0)
(1.90937 0.206161 0)
(1.91815 0.210294 0)
(1.43986 0.230716 0)
(1.44434 0.224227 0)
(1.44855 0.215162 0)
(1.45592 0.201456 0)
(1.46244 0.188605 0)
(1.46648 0.178007 0)
(1.47199 0.165799 0)
(1.479 0.154066 0)
(1.48519 0.147642 0)
(1.49235 0.145523 0)
(1.50196 0.143267 0)
(1.51236 0.140065 0)
(1.52277 0.138955 0)
(1.53391 0.139193 0)
(1.54678 0.135674 0)
(1.562 0.130123 0)
(1.57716 0.131834 0)
(1.58574 0.128797 0)
(1.59729 0.105804 0)
(1.60557 0.0852421 0)
(1.61206 0.0702547 0)
(1.621 0.0557612 0)
(1.63155 0.0451214 0)
(1.64255 0.0372045 0)
(1.65311 0.0264479 0)
(1.66204 0.0109597 0)
(1.67184 -0.00221324 0)
(1.68089 -0.0149759 0)
(1.68848 -0.0315012 0)
(1.6987 -0.0432137 0)
(1.71065 -0.0516294 0)
(1.72156 -0.0652814 0)
(1.73161 -0.0810374 0)
(1.74212 -0.092188 0)
(1.75207 -0.104071 0)
(1.76292 -0.115559 0)
(1.77451 -0.12925 0)
(1.78216 -0.143468 0)
(1.78649 -0.147819 0)
(1.79356 -0.15371 0)
(1.79943 -0.159546 0)
(1.80475 -0.162732 0)
(1.80971 -0.168565 0)
(1.81701 -0.173749 0)
(1.82244 -0.178605 0)
(1.82833 -0.183912 0)
(1.83511 -0.19045 0)
(1.83994 -0.196535 0)
(1.84402 -0.200694 0)
(1.84706 -0.203419 0)
(1.84889 -0.205357 0)
(1.85037 -0.20462 0)
(1.85145 -0.20084 0)
(1.85199 -0.19467 0)
(1.85307 -0.188316 0)
(1.85338 -0.180059 0)
(1.8532 -0.169686 0)
(1.8496 -0.155338 0)
(1.84563 -0.142786 0)
(1.83354 -0.121815 0)
(1.81652 -0.097067 0)
(1.8039 -0.0852992 0)
(1.78824 -0.0700813 0)
(1.77542 -0.0620906 0)
(1.76232 -0.0542519 0)
(1.75772 -0.0486471 0)
(1.75381 -0.0496656 0)
(1.75037 -0.0507524 0)
(1.7495 -0.0524181 0)
(1.74812 -0.0541232 0)
(1.74698 -0.0544998 0)
(1.74669 -0.0527639 0)
(1.747 -0.0509521 0)
(1.74819 -0.049784 0)
(1.75035 -0.0486738 0)
(1.75282 -0.0470818 0)
(1.75649 -0.0436868 0)
(1.76162 -0.0396523 0)
(1.76585 -0.0364529 0)
(1.77013 -0.0336417 0)
(1.77508 -0.0298809 0)
(1.78017 -0.0256797 0)
(1.78536 -0.0215661 0)
(1.79118 -0.0173695 0)
(1.79694 -0.0132384 0)
(1.80189 -0.00991035 0)
(1.80594 -0.00778761 0)
(1.80938 -0.00632812 0)
(1.81254 -0.00469176 0)
(1.81528 -0.00241758 0)
(1.81756 0.00107075 0)
(1.82047 0.00451635 0)
(1.8236 0.00557871 0)
(1.82644 0.00717928 0)
(1.82936 0.0103206 0)
(1.83127 0.0114454 0)
(1.83406 0.0127045 0)
(1.83696 0.0149453 0)
(1.83968 0.0182158 0)
(1.84221 0.0221334 0)
(1.84453 0.0269713 0)
(1.84664 0.0339167 0)
(1.84823 0.0420837 0)
(1.84953 0.0493375 0)
(1.8507 0.0561366 0)
(1.85156 0.063908 0)
(1.85211 0.0717091 0)
(1.85287 0.0785752 0)
(1.8541 0.0855782 0)
(1.85551 0.0939226 0)
(1.85685 0.103045 0)
(1.85861 0.111486 0)
(1.86076 0.120146 0)
(1.86277 0.130062 0)
(1.86557 0.140634 0)
(1.86996 0.153274 0)
(1.87611 0.168412 0)
(1.88334 0.18373 0)
(1.89126 0.195383 0)
(1.89925 0.200833 0)
(1.44173 0.246574 0)
(1.44795 0.239371 0)
(1.45408 0.230785 0)
(1.46064 0.220299 0)
(1.4681 0.20832 0)
(1.47576 0.194733 0)
(1.48144 0.182328 0)
(1.4853 0.17379 0)
(1.49089 0.166831 0)
(1.49824 0.160727 0)
(1.50604 0.156713 0)
(1.51421 0.156181 0)
(1.52309 0.15602 0)
(1.53398 0.15422 0)
(1.54629 0.149063 0)
(1.55899 0.141158 0)
(1.57337 0.138447 0)
(1.58574 0.136488 0)
(1.60074 0.115889 0)
(1.61508 0.0934965 0)
(1.62279 0.0803127 0)
(1.63341 0.0659529 0)
(1.6442 0.0526007 0)
(1.65706 0.0423687 0)
(1.67041 0.0339571 0)
(1.68129 0.0205024 0)
(1.69023 0.00426196 0)
(1.70186 -0.00632171 0)
(1.71004 -0.0211977 0)
(1.71686 -0.0386993 0)
(1.72724 -0.0495145 0)
(1.73623 -0.0622783 0)
(1.74252 -0.0756235 0)
(1.75152 -0.0875115 0)
(1.76021 -0.099695 0)
(1.7637 -0.105801 0)
(1.77259 -0.116492 0)
(1.77783 -0.126236 0)
(1.78145 -0.133466 0)
(1.78987 -0.144075 0)
(1.79792 -0.155287 0)
(1.80521 -0.159505 0)
(1.81253 -0.165529 0)
(1.8205 -0.173933 0)
(1.8268 -0.177227 0)
(1.83216 -0.179012 0)
(1.83802 -0.185532 0)
(1.84283 -0.195059 0)
(1.84559 -0.201309 0)
(1.84874 -0.204271 0)
(1.85131 -0.207571 0)
(1.85329 -0.209575 0)
(1.85652 -0.2075 0)
(1.86062 -0.203581 0)
(1.86465 -0.199758 0)
(1.86798 -0.198988 0)
(1.87291 -0.195737 0)
(1.87351 -0.190332 0)
(1.8738 -0.181629 0)
(1.86858 -0.166205 0)
(1.8617 -0.151406 0)
(1.84503 -0.121977 0)
(1.82829 -0.0983756 0)
(1.8057 -0.0721444 0)
(1.78393 -0.0495413 0)
(1.76953 -0.0448619 0)
(1.75619 -0.0408497 0)
(1.75291 -0.0389302 0)
(1.75051 -0.0404596 0)
(1.74937 -0.0428535 0)
(1.74883 -0.0459214 0)
(1.74922 -0.0477622 0)
(1.75049 -0.0482941 0)
(1.75231 -0.0478254 0)
(1.75491 -0.0462939 0)
(1.7575 -0.0440856 0)
(1.76023 -0.0401563 0)
(1.76558 -0.0363735 0)
(1.76992 -0.033882 0)
(1.77452 -0.0317102 0)
(1.77992 -0.0285108 0)
(1.78502 -0.0247991 0)
(1.79004 -0.0215274 0)
(1.79566 -0.0182555 0)
(1.80138 -0.0144871 0)
(1.80642 -0.0104506 0)
(1.81054 -0.00692787 0)
(1.81384 -0.00466839 0)
(1.81653 -0.00337282 0)
(1.81867 -0.00200038 0)
(1.82034 0.000312049 0)
(1.82228 0.00376654 0)
(1.82554 0.00603258 0)
(1.82886 0.00780293 0)
(1.83196 0.0102 0)
(1.83455 0.0112466 0)
(1.83728 0.0127177 0)
(1.83975 0.0151809 0)
(1.84185 0.0187283 0)
(1.84362 0.0229355 0)
(1.84516 0.0282383 0)
(1.84628 0.0352093 0)
(1.84686 0.0425746 0)
(1.84724 0.0494673 0)
(1.84746 0.0569108 0)
(1.8475 0.065609 0)
(1.84737 0.0738187 0)
(1.84736 0.0802698 0)
(1.84769 0.0865026 0)
(1.84848 0.0941548 0)
(1.84977 0.102794 0)
(1.85153 0.111873 0)
(1.85352 0.121808 0)
(1.85575 0.13162 0)
(1.85819 0.140188 0)
(1.86144 0.149582 0)
(1.8656 0.16227 0)
(1.87091 0.175722 0)
(1.87741 0.186238 0)
(1.88453 0.191169 0)
(1.44413 0.261738 0)
(1.45173 0.255393 0)
(1.45921 0.24877 0)
(1.46679 0.240234 0)
(1.47635 0.227811 0)
(1.48371 0.216361 0)
(1.48833 0.206886 0)
(1.49415 0.195374 0)
(1.50132 0.183494 0)
(1.50668 0.17629 0)
(1.51233 0.1753 0)
(1.51958 0.174008 0)
(1.52946 0.16794 0)
(1.54015 0.16203 0)
(1.55018 0.158852 0)
(1.55988 0.153181 0)
(1.5714 0.147814 0)
(1.58505 0.143308 0)
(1.60087 0.128181 0)
(1.6156 0.109916 0)
(1.62589 0.0955314 0)
(1.63979 0.0777489 0)
(1.65053 0.0635602 0)
(1.66024 0.0493626 0)
(1.67472 0.0394342 0)
(1.68568 0.0288831 0)
(1.6957 0.0158081 0)
(1.70717 0.00561289 0)
(1.71525 -0.00686587 0)
(1.72203 -0.0205519 0)
(1.73277 -0.033159 0)
(1.73812 -0.0446822 0)
(1.74297 -0.0554098 0)
(1.75277 -0.0687916 0)
(1.75698 -0.0788277 0)
(1.7625 -0.089251 0)
(1.77245 -0.105933 0)
(1.77785 -0.117142 0)
(1.78353 -0.125717 0)
(1.79128 -0.136159 0)
(1.79773 -0.142953 0)
(1.80432 -0.144941 0)
(1.81023 -0.14825 0)
(1.81921 -0.15716 0)
(1.82689 -0.165484 0)
(1.83407 -0.170506 0)
(1.84203 -0.180254 0)
(1.8473 -0.192198 0)
(1.85093 -0.198257 0)
(1.85412 -0.198965 0)
(1.85553 -0.201659 0)
(1.85663 -0.205012 0)
(1.86026 -0.204018 0)
(1.86498 -0.200755 0)
(1.86936 -0.199639 0)
(1.87353 -0.200187 0)
(1.87836 -0.198375 0)
(1.88211 -0.197851 0)
(1.88959 -0.198804 0)
(1.89132 -0.197171 0)
(1.89222 -0.190839 0)
(1.88756 -0.17757 0)
(1.87645 -0.158358 0)
(1.85387 -0.125232 0)
(1.83497 -0.101226 0)
(1.80231 -0.0629644 0)
(1.77491 -0.0368293 0)
(1.76222 -0.032904 0)
(1.74939 -0.0310786 0)
(1.74682 -0.0315616 0)
(1.74579 -0.0340795 0)
(1.74698 -0.037162 0)
(1.75009 -0.0389247 0)
(1.75392 -0.0404943 0)
(1.75778 -0.041505 0)
(1.76146 -0.04112 0)
(1.76459 -0.0385921 0)
(1.76987 -0.0355985 0)
(1.77448 -0.032784 0)
(1.77928 -0.0302373 0)
(1.78492 -0.0269909 0)
(1.78985 -0.0238261 0)
(1.7948 -0.0215777 0)
(1.80026 -0.0188267 0)
(1.80563 -0.0146144 0)
(1.81008 -0.00974822 0)
(1.81376 -0.00572795 0)
(1.81684 -0.00309304 0)
(1.81922 -0.00154654 0)
(1.82101 -0.000489138 0)
(1.82232 0.000684521 0)
(1.82375 0.00286662 0)
(1.82696 0.00561494 0)
(1.83063 0.00772521 0)
(1.83346 0.00946987 0)
(1.83605 0.0112107 0)
(1.83841 0.0132912 0)
(1.84031 0.0161566 0)
(1.84168 0.0196853 0)
(1.8427 0.0237481 0)
(1.84354 0.0294813 0)
(1.84388 0.0370784 0)
(1.84355 0.0449158 0)
(1.84284 0.0521528 0)
(1.84197 0.0594747 0)
(1.84126 0.0675846 0)
(1.8408 0.0754397 0)
(1.84061 0.0823598 0)
(1.84071 0.0894496 0)
(1.84108 0.0970932 0)
(1.84182 0.104498 0)
(1.84311 0.112189 0)
(1.84498 0.121357 0)
(1.84728 0.13107 0)
(1.85019 0.139631 0)
(1.85366 0.148107 0)
(1.85758 0.158021 0)
(1.86234 0.168747 0)
(1.86794 0.177565 0)
(1.87434 0.181215 0)
(1.44786 0.27479 0)
(1.45645 0.270313 0)
(1.46606 0.263856 0)
(1.47565 0.256463 0)
(1.4841 0.24854 0)
(1.49111 0.239882 0)
(1.49976 0.226899 0)
(1.50665 0.213298 0)
(1.50943 0.205966 0)
(1.51471 0.197899 0)
(1.52204 0.188945 0)
(1.52833 0.185252 0)
(1.53555 0.183056 0)
(1.54392 0.17933 0)
(1.55239 0.175471 0)
(1.56319 0.165723 0)
(1.57551 0.152018 0)
(1.58735 0.141555 0)
(1.59935 0.131185 0)
(1.61194 0.11848 0)
(1.62479 0.105667 0)
(1.63704 0.0929319 0)
(1.64771 0.0811525 0)
(1.65785 0.0689341 0)
(1.66895 0.0562851 0)
(1.67793 0.0462023 0)
(1.68656 0.0341734 0)
(1.69901 0.0222897 0)
(1.70651 0.0126148 0)
(1.71619 -0.000896413 0)
(1.72745 -0.0171845 0)
(1.73172 -0.0256206 0)
(1.73846 -0.0367721 0)
(1.74815 -0.0516359 0)
(1.75295 -0.06119 0)
(1.76025 -0.0732211 0)
(1.7678 -0.0885673 0)
(1.77225 -0.0958788 0)
(1.7769 -0.100907 0)
(1.78362 -0.110393 0)
(1.78944 -0.116568 0)
(1.79548 -0.118622 0)
(1.80425 -0.125701 0)
(1.81441 -0.137241 0)
(1.82235 -0.146527 0)
(1.83007 -0.152039 0)
(1.83678 -0.159273 0)
(1.84137 -0.169411 0)
(1.84442 -0.176634 0)
(1.84689 -0.178674 0)
(1.84914 -0.181821 0)
(1.85181 -0.187637 0)
(1.85623 -0.188633 0)
(1.86156 -0.18713 0)
(1.86721 -0.188359 0)
(1.87324 -0.19082 0)
(1.87933 -0.191612 0)
(1.8854 -0.194151 0)
(1.89197 -0.199025 0)
(1.89662 -0.201308 0)
(1.90543 -0.202552 0)
(1.90747 -0.201856 0)
(1.9079 -0.196633 0)
(1.90284 -0.184717 0)
(1.88745 -0.160293 0)
(1.85629 -0.112899 0)
(1.83304 -0.0910966 0)
(1.79341 -0.054484 0)
(1.76831 -0.0260621 0)
(1.74579 -0.0242823 0)
(1.74255 -0.0266839 0)
(1.74315 -0.0293269 0)
(1.74665 -0.0304287 0)
(1.75195 -0.0315241 0)
(1.75755 -0.0338006 0)
(1.76252 -0.034682 0)
(1.76728 -0.0330369 0)
(1.77327 -0.0315243 0)
(1.77861 -0.029399 0)
(1.78388 -0.0269666 0)
(1.78955 -0.0237334 0)
(1.79432 -0.0208666 0)
(1.79913 -0.0190493 0)
(1.80417 -0.0163878 0)
(1.80869 -0.011883 0)
(1.81219 -0.0070545 0)
(1.81525 -0.00334072 0)
(1.81793 -0.000656023 0)
(1.82 0.00108 0)
(1.8218 0.00169031 0)
(1.82336 0.00188174 0)
(1.8251 0.00272743 0)
(1.8276 0.00469147 0)
(1.83027 0.00720635 0)
(1.83271 0.00985062 0)
(1.8348 0.0122467 0)
(1.83651 0.0146851 0)
(1.83784 0.0178738 0)
(1.8387 0.0217274 0)
(1.83911 0.026278 0)
(1.83908 0.0325267 0)
(1.83843 0.0403515 0)
(1.83726 0.0484042 0)
(1.83579 0.0559849 0)
(1.83426 0.0634661 0)
(1.83302 0.0713108 0)
(1.83222 0.0785973 0)
(1.83187 0.084887 0)
(1.83201 0.0913809 0)
(1.83256 0.0986234 0)
(1.83332 0.106176 0)
(1.83431 0.114106 0)
(1.83583 0.122472 0)
(1.8382 0.130547 0)
(1.84135 0.138077 0)
(1.84504 0.145848 0)
(1.84965 0.154229 0)
(1.85486 0.162457 0)
(1.86083 0.168642 0)
(1.86731 0.170613 0)
(1.45241 0.282698 0)
(1.46194 0.281137 0)
(1.4723 0.277703 0)
(1.48231 0.273778 0)
(1.49216 0.26718 0)
(1.50158 0.257525 0)
(1.50753 0.249973 0)
(1.51227 0.240515 0)
(1.51916 0.227634 0)
(1.52394 0.217627 0)
(1.52845 0.210583 0)
(1.53344 0.205044 0)
(1.53928 0.199717 0)
(1.54784 0.191498 0)
(1.55653 0.183194 0)
(1.56462 0.178279 0)
(1.57429 0.170077 0)
(1.58589 0.159071 0)
(1.59632 0.147333 0)
(1.61027 0.129789 0)
(1.62204 0.113682 0)
(1.62973 0.105661 0)
(1.64127 0.0928029 0)
(1.65129 0.0782609 0)
(1.6572 0.0721972 0)
(1.66581 0.0613547 0)
(1.67529 0.0480397 0)
(1.68327 0.039041 0)
(1.69367 0.0270802 0)
(1.70411 0.0134306 0)
(1.71142 0.00527242 0)
(1.71728 -0.00223821 0)
(1.72723 -0.0158135 0)
(1.73732 -0.0323965 0)
(1.74314 -0.0410336 0)
(1.74948 -0.0503263 0)
(1.75799 -0.064779 0)
(1.7636 -0.0734794 0)
(1.76948 -0.0794179 0)
(1.77822 -0.0891272 0)
(1.78578 -0.0970724 0)
(1.79323 -0.100615 0)
(1.80152 -0.106416 0)
(1.80956 -0.11527 0)
(1.81604 -0.121599 0)
(1.82173 -0.124931 0)
(1.82856 -0.132987 0)
(1.83568 -0.146042 0)
(1.84061 -0.156086 0)
(1.84463 -0.160978 0)
(1.8486 -0.166032 0)
(1.8531 -0.174496 0)
(1.85803 -0.177868 0)
(1.8635 -0.177293 0)
(1.87016 -0.181982 0)
(1.87607 -0.187743 0)
(1.88253 -0.189474 0)
(1.88823 -0.187788 0)
(1.89215 -0.188103 0)
(1.89721 -0.192902 0)
(1.90332 -0.198418 0)
(1.9097 -0.20099 0)
(1.91742 -0.203228 0)
(1.91999 -0.202529 0)
(1.91964 -0.197232 0)
(1.91194 -0.183442 0)
(1.89054 -0.153303 0)
(1.85427 -0.115563 0)
(1.80838 -0.0694319 0)
(1.77318 -0.0440337 0)
(1.75262 -0.034976 0)
(1.74744 -0.0312624 0)
(1.74747 -0.0279184 0)
(1.74976 -0.0260235 0)
(1.75533 -0.0274101 0)
(1.76204 -0.0296198 0)
(1.76895 -0.0293654 0)
(1.77647 -0.0284119 0)
(1.78277 -0.0266668 0)
(1.78844 -0.0238141 0)
(1.79368 -0.0202231 0)
(1.79809 -0.0178224 0)
(1.8024 -0.0164189 0)
(1.80664 -0.0135516 0)
(1.81019 -0.0088466 0)
(1.81295 -0.00488468 0)
(1.81546 -0.00228559 0)
(1.81776 0.000284797 0)
(1.81952 0.00254499 0)
(1.82101 0.00324562 0)
(1.82273 0.00306018 0)
(1.82458 0.00371324 0)
(1.82642 0.0059087 0)
(1.828 0.00903296 0)
(1.82949 0.0122655 0)
(1.83083 0.0151315 0)
(1.83184 0.0178832 0)
(1.83252 0.0212196 0)
(1.8327 0.0250257 0)
(1.83226 0.0297765 0)
(1.83126 0.0366001 0)
(1.8297 0.044837 0)
(1.82783 0.0530682 0)
(1.82581 0.0605753 0)
(1.82386 0.0675861 0)
(1.82249 0.0747453 0)
(1.82184 0.0815774 0)
(1.82184 0.0876986 0)
(1.82237 0.093978 0)
(1.82322 0.101049 0)
(1.82418 0.108481 0)
(1.82547 0.115695 0)
(1.8275 0.122649 0)
(1.83032 0.12932 0)
(1.83375 0.13564 0)
(1.83788 0.142011 0)
(1.84285 0.148841 0)
(1.8487 0.155189 0)
(1.85499 0.159412 0)
(1.86141 0.159725 0)
(1.45343 0.290487 0)
(1.46545 0.289472 0)
(1.47743 0.286828 0)
(1.48823 0.284561 0)
(1.49741 0.282722 0)
(1.50636 0.276753 0)
(1.51386 0.269009 0)
(1.51851 0.261552 0)
(1.52406 0.251635 0)
(1.52777 0.242953 0)
(1.53122 0.235334 0)
(1.53765 0.226027 0)
(1.54251 0.217871 0)
(1.54695 0.211064 0)
(1.55555 0.201849 0)
(1.56359 0.192892 0)
(1.57168 0.183866 0)
(1.58404 0.171235 0)
(1.59473 0.158529 0)
(1.60275 0.150578 0)
(1.61006 0.141804 0)
(1.61875 0.130118 0)
(1.62807 0.11605 0)
(1.63472 0.105212 0)
(1.64015 0.0975233 0)
(1.64934 0.0842611 0)
(1.65995 0.0674846 0)
(1.66742 0.0576722 0)
(1.67565 0.0486988 0)
(1.6857 0.0371472 0)
(1.69457 0.0275353 0)
(1.70354 0.0169898 0)
(1.71446 0.00298153 0)
(1.72352 -0.0100995 0)
(1.73005 -0.0183594 0)
(1.73814 -0.0288559 0)
(1.74687 -0.0414802 0)
(1.75347 -0.047738 0)
(1.76117 -0.0530642 0)
(1.76963 -0.0609208 0)
(1.77644 -0.0652134 0)
(1.78299 -0.0669471 0)
(1.79216 -0.0743218 0)
(1.8013 -0.0856021 0)
(1.80851 -0.0935285 0)
(1.81556 -0.101251 0)
(1.82274 -0.111929 0)
(1.8283 -0.121649 0)
(1.83206 -0.127526 0)
(1.83518 -0.129298 0)
(1.8385 -0.131749 0)
(1.84323 -0.1393 0)
(1.84812 -0.143775 0)
(1.85371 -0.143376 0)
(1.86009 -0.148125 0)
(1.86603 -0.156397 0)
(1.87151 -0.160001 0)
(1.87855 -0.165967 0)
(1.88844 -0.177156 0)
(1.89535 -0.187064 0)
(1.90166 -0.190478 0)
(1.90765 -0.190685 0)
(1.91409 -0.194361 0)
(1.91816 -0.197724 0)
(1.92593 -0.199331 0)
(1.92662 -0.199012 0)
(1.92447 -0.194224 0)
(1.91191 -0.178779 0)
(1.8807 -0.145192 0)
(1.83148 -0.0940339 0)
(1.7824 -0.0510244 0)
(1.75494 -0.0318702 0)
(1.74553 -0.0264687 0)
(1.74886 -0.0260985 0)
(1.75472 -0.0250455 0)
(1.76122 -0.0249711 0)
(1.76983 -0.0250095 0)
(1.77848 -0.0244219 0)
(1.7857 -0.0234686 0)
(1.7914 -0.0218035 0)
(1.79618 -0.0189922 0)
(1.80007 -0.0171668 0)
(1.80355 -0.0161735 0)
(1.80692 -0.013184 0)
(1.80986 -0.00821283 0)
(1.81219 -0.00412309 0)
(1.81436 -0.00117217 0)
(1.8161 0.00189991 0)
(1.81719 0.00410041 0)
(1.81845 0.00407196 0)
(1.82001 0.00356292 0)
(1.82144 0.00500006 0)
(1.82241 0.00852641 0)
(1.82295 0.0122415 0)
(1.82359 0.0155666 0)
(1.82411 0.0184804 0)
(1.82427 0.0213131 0)
(1.82415 0.0248934 0)
(1.8235 0.0293599 0)
(1.8221 0.0352029 0)
(1.82012 0.042734 0)
(1.81793 0.051144 0)
(1.81591 0.0596379 0)
(1.81401 0.0674173 0)
(1.81238 0.0737961 0)
(1.81146 0.0792937 0)
(1.81134 0.0844576 0)
(1.81184 0.089432 0)
(1.81288 0.0954118 0)
(1.81426 0.102875 0)
(1.81585 0.110141 0)
(1.81803 0.115893 0)
(1.82094 0.121063 0)
(1.82436 0.126737 0)
(1.82828 0.132414 0)
(1.83296 0.137619 0)
(1.83829 0.142612 0)
(1.84405 0.147113 0)
(1.85036 0.149845 0)
(1.85733 0.149964 0)
(1.44732 0.301712 0)
(1.46216 0.299524 0)
(1.47578 0.298008 0)
(1.48804 0.295814 0)
(1.49829 0.29439 0)
(1.50715 0.290937 0)
(1.51426 0.286032 0)
(1.51946 0.280878 0)
(1.52424 0.27353 0)
(1.52811 0.265572 0)
(1.53317 0.256876 0)
(1.53751 0.248964 0)
(1.54036 0.241456 0)
(1.54641 0.231122 0)
(1.55299 0.220958 0)
(1.55938 0.21192 0)
(1.56873 0.200387 0)
(1.57712 0.189601 0)
(1.58297 0.182719 0)
(1.59075 0.173416 0)
(1.59991 0.160627 0)
(1.60714 0.14954 0)
(1.61371 0.139148 0)
(1.62085 0.128058 0)
(1.63017 0.114279 0)
(1.63944 0.0995789 0)
(1.64639 0.0888561 0)
(1.65352 0.0798515 0)
(1.66345 0.0679377 0)
(1.67434 0.0542181 0)
(1.6825 0.0457634 0)
(1.69084 0.0371744 0)
(1.70123 0.0248181 0)
(1.70936 0.0150654 0)
(1.71734 0.00634897 0)
(1.7273 -0.00465693 0)
(1.7366 -0.0150726 0)
(1.7446 -0.0207951 0)
(1.75254 -0.0247764 0)
(1.76149 -0.0313008 0)
(1.76985 -0.0376517 0)
(1.77781 -0.0423901 0)
(1.78711 -0.0507305 0)
(1.79498 -0.0616445 0)
(1.80076 -0.0673773 0)
(1.80578 -0.0720306 0)
(1.81069 -0.0817343 0)
(1.81478 -0.0900734 0)
(1.81907 -0.0952668 0)
(1.82348 -0.0989604 0)
(1.82886 -0.102647 0)
(1.83617 -0.110096 0)
(1.84235 -0.116649 0)
(1.84832 -0.118731 0)
(1.85502 -0.124476 0)
(1.86256 -0.137443 0)
(1.86827 -0.144028 0)
(1.8733 -0.14738 0)
(1.88178 -0.157478 0)
(1.88872 -0.16694 0)
(1.89486 -0.172081 0)
(1.90312 -0.180095 0)
(1.90969 -0.186861 0)
(1.91661 -0.194301 0)
(1.92267 -0.200757 0)
(1.92642 -0.202472 0)
(1.93219 -0.200221 0)
(1.93163 -0.194919 0)
(1.92723 -0.185574 0)
(1.90611 -0.161152 0)
(1.85934 -0.121756 0)
(1.79674 -0.0676654 0)
(1.75907 -0.0431657 0)
(1.75069 -0.0371208 0)
(1.75785 -0.0298088 0)
(1.76228 -0.0268015 0)
(1.77032 -0.0258182 0)
(1.77921 -0.0253817 0)
(1.78654 -0.0245617 0)
(1.79216 -0.0224974 0)
(1.79674 -0.019351 0)
(1.80044 -0.0172497 0)
(1.80356 -0.0155534 0)
(1.80622 -0.0115546 0)
(1.80801 -0.00646153 0)
(1.80953 -0.00336096 0)
(1.81119 -0.000981179 0)
(1.81236 0.00250236 0)
(1.81287 0.00493453 0)
(1.81364 0.00465466 0)
(1.81448 0.00448118 0)
(1.81504 0.00734966 0)
(1.81501 0.012079 0)
(1.81476 0.0160566 0)
(1.81479 0.0197167 0)
(1.81459 0.0233494 0)
(1.81397 0.0267239 0)
(1.81311 0.0308029 0)
(1.81177 0.0361967 0)
(1.80972 0.0427774 0)
(1.8074 0.0503573 0)
(1.80528 0.0578252 0)
(1.80367 0.0650208 0)
(1.80234 0.0713078 0)
(1.80153 0.0761898 0)
(1.80163 0.080896 0)
(1.80245 0.0855533 0)
(1.80375 0.0900384 0)
(1.8055 0.0955775 0)
(1.80754 0.102249 0)
(1.80986 0.10845 0)
(1.81269 0.113825 0)
(1.81616 0.119197 0)
(1.82023 0.124517 0)
(1.82485 0.128863 0)
(1.82999 0.132275 0)
(1.83559 0.135738 0)
(1.84185 0.138909 0)
(1.84821 0.140555 0)
(1.85452 0.139163 0)
(1.43605 0.312388 0)
(1.4512 0.310491 0)
(1.46606 0.309424 0)
(1.47989 0.308188 0)
(1.49205 0.307024 0)
(1.50183 0.305364 0)
(1.51092 0.300687 0)
(1.51753 0.296037 0)
(1.52101 0.291252 0)
(1.5257 0.28413 0)
(1.52894 0.277505 0)
(1.53081 0.270902 0)
(1.53645 0.261481 0)
(1.54211 0.251233 0)
(1.54569 0.242411 0)
(1.55346 0.231597 0)
(1.56096 0.220832 0)
(1.56503 0.21392 0)
(1.57036 0.205343 0)
(1.57913 0.192939 0)
(1.58578 0.182069 0)
(1.58973 0.174347 0)
(1.59701 0.162374 0)
(1.608 0.146888 0)
(1.61627 0.134248 0)
(1.62422 0.123363 0)
(1.63372 0.111123 0)
(1.64446 0.0972286 0)
(1.65345 0.0860734 0)
(1.66121 0.0784703 0)
(1.66891 0.071366 0)
(1.6785 0.0612614 0)
(1.68986 0.0481155 0)
(1.69868 0.0387227 0)
(1.7071 0.031156 0)
(1.71728 0.0215413 0)
(1.72619 0.0143537 0)
(1.73452 0.0103543 0)
(1.74391 0.00451085 0)
(1.75325 -0.00263712 0)
(1.76136 -0.00842973 0)
(1.76888 -0.0140662 0)
(1.77677 -0.0223289 0)
(1.78438 -0.0335912 0)
(1.79031 -0.0415083 0)
(1.79523 -0.046384 0)
(1.80069 -0.0571861 0)
(1.8048 -0.0666068 0)
(1.80873 -0.0679634 0)
(1.81412 -0.0724293 0)
(1.82067 -0.0787301 0)
(1.82748 -0.0827589 0)
(1.83421 -0.0878493 0)
(1.83938 -0.0911029 0)
(1.84518 -0.0963672 0)
(1.85192 -0.107762 0)
(1.85613 -0.112787 0)
(1.86208 -0.118499 0)
(1.86904 -0.128556 0)
(1.87554 -0.139156 0)
(1.88158 -0.144702 0)
(1.88735 -0.150873 0)
(1.89545 -0.162234 0)
(1.90224 -0.169466 0)
(1.9093 -0.175568 0)
(1.91711 -0.184584 0)
(1.92536 -0.187291 0)
(1.93404 -0.187432 0)
(1.93565 -0.185381 0)
(1.93362 -0.180879 0)
(1.9185 -0.165433 0)
(1.87577 -0.13376 0)
(1.80747 -0.0746026 0)
(1.76388 -0.0470734 0)
(1.75583 -0.0383823 0)
(1.76361 -0.0289282 0)
(1.76917 -0.0271612 0)
(1.77778 -0.0265823 0)
(1.78577 -0.0252079 0)
(1.79192 -0.0219987 0)
(1.79643 -0.0181328 0)
(1.79972 -0.0162166 0)
(1.80216 -0.0146124 0)
(1.8039 -0.0104105 0)
(1.80481 -0.00543797 0)
(1.80565 -0.00247584 0)
(1.80653 0.000537122 0)
(1.80671 0.00484013 0)
(1.80631 0.00717054 0)
(1.80625 0.00646502 0)
(1.80599 0.00686172 0)
(1.80547 0.0113124 0)
(1.80452 0.016845 0)