/*--------------------------------*- C++ -*----------------------------------*\
  =========                 |
  \\      /  F ield         | OpenFOAM: The Open Source CFD Toolbox
   \\    /   O peration     | Website:  https://openfoam.org
    \\  /    A nd           | Version:  7
     \\/     M anipulation  |
\*---------------------------------------------------------------------------*/
FoamFile
{
    version     2.0;
    format      ascii;
    class       surfaceScalarField;
    location    "0.559";
    object      phi;
}
// * * * * * * * * * * * * * * * * * * * * * * * * * * * * * * * * * * * * * //

dimensions      [0 3 -1 0 0 0 0];

internalField   nonuniform List<scalar> 
18389
(
-7.97198e-05
7.97198e-05
4.34331e-05
-4.3433e-05
-5.20447e-05
5.20447e-05
4.01173e-05
-4.01172e-05
-5.18385e-05
5.18385e-05
-4.01201e-05
4.01201e-05
-3.44461e-05
3.44461e-05
3.89079e-05
-3.89079e-05
-3.5311e-05
3.5311e-05
4.1527e-05
-4.1527e-05
4.47265e-05
-4.47265e-05
-3.41431e-05
3.41431e-05
-1.28017e-05
1.28017e-05
-4.28077e-05
4.28077e-05
4.33874e-05
-4.33874e-05
2.36127e-05
-2.36127e-05
1.75808e-05
-1.75807e-05
4.58912e-05
-4.58911e-05
4.59177e-05
-4.59176e-05
4.33267e-05
-4.33267e-05
-4.25104e-05
4.25104e-05
3.49806e-05
-3.49806e-05
4.30272e-05
-4.30272e-05
-5.85149e-05
5.85149e-05
-4.97187e-05
4.97187e-05
-4.18251e-05
4.18251e-05
-4.45302e-05
4.45302e-05
4.56131e-05
-4.56131e-05
4.58445e-05
-4.58445e-05
4.41306e-05
-4.41306e-05
-4.13285e-05
4.13285e-05
-6.30641e-05
6.30641e-05
4.31153e-05
-4.31152e-05
-4.47367e-05
4.47367e-05
4.08601e-05
-4.08601e-05
4.66855e-05
-4.66855e-05
-4.55539e-05
4.55539e-05
5.35766e-05
-5.35766e-05
-5.89086e-05
5.89087e-05
3.78732e-05
-3.78732e-05
4.48666e-05
-4.48666e-05
4.53943e-05
-4.53943e-05
-4.1012e-05
4.1012e-05
4.48979e-05
-4.48979e-05
4.58611e-05
-4.58611e-05
-4.58448e-05
4.58448e-05
-4.58423e-05
4.58423e-05
-4.06538e-05
4.06538e-05
-4.58753e-05
4.58753e-05
4.59306e-05
-4.59306e-05
4.59463e-05
-4.59463e-05
4.46109e-05
-4.46109e-05
3.77289e-05
-3.77289e-05
-4.57623e-05
4.57623e-05
-5.55408e-05
5.55408e-05
-4.38144e-05
4.38144e-05
4.575e-05
-4.575e-05
-4.59937e-05
4.59937e-05
4.3226e-05
-4.3226e-05
-5.93182e-05
5.93182e-05
-4.71469e-05
4.71469e-05
4.96059e-05
-4.96058e-05
4.57237e-05
-4.57237e-05
-8.28479e-06
8.28481e-06
4.57737e-05
-4.57737e-05
4.14853e-05
-4.14853e-05
5.12066e-05
-5.12066e-05
-4.58654e-05
4.58655e-05
4.23255e-05
-4.23255e-05
3.10857e-05
-3.10856e-05
3.41205e-07
-3.41205e-07
-4.41203e-05
4.41203e-05
3.28686e-05
-3.28686e-05
-3.65689e-05
3.65689e-05
3.96307e-05
-3.96307e-05
2.66262e-05
-2.66262e-05
2.61966e-05
-2.61966e-05
2.70487e-05
-2.70487e-05
2.43953e-05
-2.43953e-05
1.28804e-05
-1.28804e-05
0.00107798
-0.000882277
-0.000195696
0.00546653
-0.00207531
-0.00339121
-0.00594643
0.00594645
-2.61974e-08
0.00335332
-0.00259861
-0.00075472
-0.00156317
0.00176667
-0.000203497
-0.00675897
0.00284208
0.0039169
0.00121482
0.00425171
0.00725556
-0.00587563
-0.00137993
0.00119668
-0.00191203
0.000715356
-0.000864313
-0.000698859
-0.00144209
-0.000314642
0.00175674
0.000138794
-7.65792e-07
-0.000138028
0.00077859
-0.00222069
-0.00360349
0.000122732
0.00348074
-0.00320314
0.00289384
0.000309305
-0.00570452
0.00724498
-0.00154046
-0.00370912
0.00289737
0.00081175
-0.000563594
-0.00303989
-0.00175105
0.00239007
-0.00063902
-0.000463898
0.00255835
-0.00209445
-0.0016122
0.00111237
0.000499824
0.000583527
0.000581832
-0.0016015
-0.00515748
0.00131208
-0.00180042
0.000488339
0.00578046
-0.0038607
-0.00191975
-0.000667649
0.00330991
-0.00264227
-0.00583506
0.0058351
0.000473084
0.00129358
-0.00634143
0.000975006
0.00536642
0.00231886
-0.00298651
-0.00378904
0.0031139
0.000675145
0.0021481
-0.0042234
0.0010885
-0.000201474
-0.00088703
0.00150808
-0.00129321
-0.000214866
-0.00280305
-0.000400086
0.00535204
-0.00535066
0.00037358
0.0011345
0.00522773
-0.00133651
-0.00389122
0.00198281
-0.000786125
0.00308569
0.00190868
-0.00499436
-0.000721359
-0.00306769
-8.89979e-05
-0.000155586
0.000244584
0.00393601
0.00331955
0.00115696
-0.00487723
0.00372026
0.00162792
0.00359981
-0.00498244
0.0063215
-0.00133907
-0.00114239
-0.00058983
0.00173222
0.00133639
0.00201693
0.000135293
0.000103626
-0.000238919
0.00502238
-0.00339446
0.00645977
-0.000841948
-0.00561782
0.00321597
-0.00266188
-0.000554086
0.00221576
0.000453957
-0.00266973
0.00295173
-0.000735967
0.00650392
-0.00539859
-0.00110532
0.000498781
-0.00385808
0.0033593
6.91548e-05
0.00639062
0.00479635
-0.00429757
-0.00053578
0.00105939
-0.000523611
-0.00176168
0.000619292
0.00191706
0.0022491
-0.00416615
0.000253447
-0.000333598
8.01506e-05
-0.00126064
-0.00284704
0.00410768
-2.62071e-05
0.00653013
-0.00281497
0.00229788
0.000517086
0.000389746
-1.22416e-05
-0.000377505
-0.00569233
-0.000254103
0.00188051
-0.00140742
0.000828202
0.00495225
0.000893185
0.000184793
0.00263638
-0.00644675
0.00381038
-0.0011202
0.000584426
0.00264011
-0.00390075
0.00619672
-0.0022607
0.0010921
0.00117728
-0.000800511
0.00104727
-0.000246757
-0.00111483
-0.000497364
0.00188395
0.00133202
-0.00059522
0.00142959
-0.0012374
-0.000192187
-0.00265434
0.00199087
0.000663477
0.00116677
0.000262827
0.00112778
-0.004963
0.0038352
-0.00474956
0.00141068
0.00333886
-0.00455432
0.00611805
-0.00156373
-0.0050629
8.04687e-05
-0.00202149
-0.000632852
-0.000215142
0.000126144
-0.00122031
0.00464267
-0.00342237
-0.00120235
-0.000709687
0.000103302
-0.000192022
8.87199e-05
0.000126282
-2.29796e-05
-0.00125397
0.00463215
-0.00337817
-0.000156166
2.43473e-05
0.000131819
-0.00556847
0.00170778
-0.00119908
-0.000562603
-0.000449417
-1.88881e-05
0.000468305
-0.000543237
9.38189e-05
0.00101382
7.46842e-05
-0.00181419
0.000615107
-0.000150267
1.71588e-05
0.000133108
0.00136802
-0.00234446
0.000976436
0.000271105
-0.000135812
-0.00392542
0.00514024
-0.00245763
0.000706591
-9.60746e-05
-0.000414447
0.000510522
0.00568572
-0.00216796
-0.00351776
7.91503e-05
0.0025063
-0.00258545
0.00444838
-0.00559911
0.00115074
0.0026347
0.00305102
0.00291395
-0.0028348
-0.00614689
0.000442378
-0.00644951
0.00362096
0.00282856
0.00229259
0.00390413
-0.00438738
0.00137357
0.00301381
0.00150861
-0.000196526
-0.00102315
0.00401837
-0.00299522
0.00463855
-0.00162604
-0.00301252
-0.00460079
0.00374739
0.000853403
0.00369385
-0.00503037
5.92285e-05
0.000330518
-0.00137952
0.00582791
-9.14249e-05
0.00214927
-0.00205784
-0.00206852
0.0026114
0.000166992
-0.00277839
-0.00127741
0.00264543
-0.000642611
0.00325401
0.00164104
-0.00173246
0.00089724
0.00397136
-0.0048686
-0.00504061
0.00384106
0.00119956
0.00255188
-0.0035941
0.00104222
-0.00331774
0.00411514
-0.000797392
0.000350647
-0.00366839
-0.000898907
0.000898907
-0.00045422
0.000358145
-0.000126964
-0.000973465
0.00110043
0.00506868
-0.00184173
-0.00322695
-0.00243339
-0.000369668
0.00290072
0.000157837
1.66047e-05
-0.000174442
-0.00147313
0.00112769
0.00034544
-0.000140471
-0.00490014
0.00504362
-0.00388666
0.000218081
-7.92877e-05
0.00444423
0.000578147
0.00406759
-0.0015157
0.000164908
-7.07024e-06
-0.00632193
-0.000991358
-0.00082283
0.00430008
-0.0019038
-0.00239628
0.00275646
0.00154362
0.0010777
-0.00563202
-0.00226303
-0.000551935
-0.00112217
-0.000956882
0.00207905
4.04904e-05
-0.00272344
0.00268294
-0.00235839
0.00123622
-0.00221809
0.00530378
-0.00461425
0.00159567
0.00301858
0.00254679
0.000676699
-0.000340458
-0.000336242
-0.00601541
0.000582801
0.00543261
-0.00418412
0.00582323
-0.00163911
0.00182422
0.0016312
-0.00345542
-0.00168039
0.000897603
0.00078278
-0.00271544
0.00208193
0.000633512
0.00111726
0.000763244
0.000247202
-0.000328937
8.17357e-05
0.00488838
-0.00399115
-0.00638789
0.00557804
0.000809855
-0.00478141
-0.0016681
0.00334615
0.000630433
-0.00397658
0.000154048
-0.00016223
8.18236e-06
0.000590369
-0.000125242
-0.000465126
-0.00451839
0.0026146
0.000383734
-0.000558437
0.000174703
3.91098e-05
-0.000938019
-0.00257572
0.0044844
-0.00530538
-0.000322309
0.00562769
0.000224435
0.000190177
-0.000414611
0.00102247
-0.00102247
0.00168538
-0.000724569
-0.00211261
0.0018144
0.00029821
0.004397
-0.00302344
-0.000162451
6.28539e-06
-0.00121794
0.00125704
0.000685281
0.00129753
0.00234763
-0.000265695
-0.00401952
-0.00128585
0.0011163
-0.00497439
0.00321263
-0.00446659
0.000833806
-0.00213574
0.00130194
0.00335984
-0.00458015
-0.00271113
-0.00180726
-0.00483594
0.00469547
-0.000676481
-0.00533893
-0.00515825
0.00151377
-0.00148074
-3.30318e-05
0.00223642
0.000111208
-0.00601448
0.00204868
0.00396581
-0.00121933
0.000526012
0.000693317
0.00144711
0.00294989
-0.00462503
-0.0010144
0.00563944
-0.000212845
0.000138551
7.42942e-05
-0.00551303
0.00132892
0.00375311
-0.00493692
0.00118382
-0.00149965
-0.000612961
-0.00053668
-0.000637499
0.000138341
-0.000203806
6.54636e-05
0.00498424
-0.00385647
-0.00130066
0.00512508
-0.00382443
-0.00039168
-0.000826255
-0.00586126
0.000439669
0.00539543
-0.00616408
0.00456257
-0.000922903
-0.005465
-0.0010963
-0.000376834
-0.00181687
0.00285686
-0.00103999
-0.000419086
0.000321999
9.70879e-05
-0.00173207
0.00141743
0.001634
-0.000120227
0.000823041
-3.67337e-05
-0.00169533
0.00279681
0.00121729
-0.00303416
0.00605697
-0.000478934
0.00528139
7.0648e-05
-0.0052815
0.00439074
0.00114483
-0.00553558
0.000556481
-0.000768813
0.000212333
-4.01425e-05
-0.000414077
-9.884e-06
0.00606686
-0.000162176
0.000156819
5.35677e-06
0.000133395
2.06522e-05
0.00254087
-0.00335656
0.000815692
-0.00190901
0.000705406
0.0012036
0.00792009
-0.00345411
-0.00446597
0.00116897
0.00126593
-0.00243491
0.000106462
-0.000172561
6.61001e-05
-0.00080587
0.00133188
0.00115793
0.00318287
-0.0043408
-0.00561429
0.000165667
0.00544862
-0.00401768
0.00299454
0.00173495
0.00479518
0.0045843
0.00333578
-2.11513e-05
0.000191961
-0.00017081
-0.00130419
0.00439284
-0.00308864
0.000299523
-0.000339666
-0.000131354
-8.14912e-05
0.00410071
-0.00227651
0.00475492
-0.00501204
0.000257119
-0.00323371
0.00607094
-0.00283723
0.00252728
0.00157344
0.00575089
-0.000995975
-0.00139107
-0.00562103
0.00137242
0.00424861
0.000654758
0.000520474
-0.00117523
0.00126943
-0.000614672
0.000585451
-0.00111014
0.000524688
0.00110593
0.000282276
0.000394424
-0.000678253
0.00443136
0.00151978
-0.000392084
0.00352603
-0.00611411
0.00258808
0.00153467
-0.00258431
0.00104964
-0.00431441
0.00115747
0.00315694
0.00291412
-0.00421831
-0.0049106
-0.00125348
-0.00409733
0.00126568
0.00283165
0.00124353
0.00314932
-0.00326426
-0.000833076
0.0022266
-0.00105764
-0.00067625
-0.00253339
0.00320963
0.00241058
0.000612921
-0.0030235
-0.00159281
0.00120272
0.000390092
0.000270052
0.00149379
-0.00196796
0.000474178
-0.000110849
-0.000222749
-0.000264481
0.000153631
-0.00435126
-0.000249526
-0.00029522
0.00117497
-0.000879753
0.00435132
-0.00464507
0.000293751
-8.84081e-05
0.000117753
-2.93444e-05
0.000971253
0.00338169
-0.00435294
-0.00015699
6.85821e-05
-0.00475203
0.000710803
0.00404123
-0.000753438
0.000113485
0.000639951
8.45071e-05
-8.52728e-05
-0.0004007
0.000864672
-0.000347477
-0.000517195
-0.00603619
0.000637595
-0.00254968
-0.000128202
0.00267788
-0.00316951
0.00441303
0.00218083
-0.00108873
-0.00116718
-0.00118326
-1.90908e-05
-0.00351796
-0.00123159
0.00151386
-0.000406916
-0.00110694
0.00191964
0.00183837
-0.00375801
0.00504051
-0.00160903
-0.00343148
0.000793519
-0.00541855
-0.00137219
0.00300338
0.00195464
0.000786391
-0.00274102
-0.00349833
0.00446959
-0.000152958
2.69037e-06
0.000934214
-0.00443255
-0.00449723
-0.000147857
-0.000997845
-0.00461644
0.00462331
0.00148266
0.00355785
0.00415844
0.00114276
-0.0053012
3.68253e-05
5.94132e-05
-9.62386e-05
-0.00140922
0.00336385
0.00370639
0.00353859
-0.00140279
0.00237101
-0.000968216
-0.00248162
0.000460135
-0.000878401
0.000751436
-0.000199033
0.000423468
-0.000205956
0.00169975
0.00376336
-0.00184372
-0.0010736
-0.000606791
-0.000107252
-0.000157228
0.00355042
-0.00163335
-0.00240369
0.0046528
0.000674543
-0.00309588
0.00242134
0.000649541
0.000763077
-0.0010583
0.00209974
-0.00130802
-0.00327429
0.0045823
-0.00214563
0.00478201
-0.000553307
0.00344714
0.000238557
-0.000221399
-0.00236329
0.00096051
0.00231179
-0.00386847
0.00155669
-0.00122373
5.80879e-05
-2.12627e-05
0.00215057
-0.00279617
0.000645605
-0.00117106
-0.00042175
-0.00353006
0.00450506
0.00119084
0.0016783
-0.00286914
-0.00169136
0.00366407
-0.00197271
0.004238
-0.000856319
0.000234328
1.41064e-05
-0.000248434
-0.0037219
0.00203053
-0.00142386
0.00471429
-0.00329044
0.000877957
0.00130287
0.000134594
0.00088787
0.000253062
-0.000300738
4.76758e-05
0.00169146
0.000217434
-0.0019089
0.00301975
-0.00458456
0.00156482
-5.28835e-05
0.000374305
-0.000321422
0.00156298
-0.000360268
0.00141338
-0.000617197
-0.000796179
0.00282713
-0.00392377
0.00109664
0.0026803
-0.00374229
0.001062
-0.00515653
0.00192282
0.00389965
-0.000879892
-0.000630295
-0.00237768
0.00300798
0.0014069
-0.00511688
0.00370998
0.00336051
-0.00145893
-0.00190159
-0.000686171
0.00172656
-0.00104039
0.00477168
-0.00303674
-0.000701616
-0.00196026
-0.00598327
0.00514132
3.85212e-06
0.000121747
-0.0001256
-0.0015806
0.00120271
0.000377899
-0.00490757
0.00630855
-0.00140099
-0.00188914
0.000709781
0.00117936
0.000404946
0.00268671
-0.00208927
-0.000597442
0.00343487
0.000489686
-0.00392457
0.000125884
-1.94218e-05
0.00517219
0.000336913
-0.0055091
-0.00194094
0.00379777
-0.00185683
0.00276695
-0.00063411
-0.00213284
0.000462547
0.000402125
-0.000437241
0.00387211
0.00202588
-0.00396682
0.000702997
-0.000260804
-0.000442192
-0.000657976
2.35954e-05
0.000634382
-0.00315192
-0.00576355
0.00576713
-0.00027303
0.000950672
-0.000677643
-0.00229086
-0.000190773
-0.0045482
0.00324017
-0.000866867
0.00112472
0.00360786
-0.00501948
0.00141162
0.000410667
-0.00296034
0.00233189
-0.00244053
0.000108634
-0.00157144
0.00148228
8.91617e-05
-0.00121168
-0.000368923
-0.00339028
0.00342637
-0.00223552
0.000457254
0.000133115
-0.00173734
0.00105117
-0.00279289
0.000739319
0.00205357
0.000242339
-8.01134e-06
-0.00347673
0.00102246
0.00245426
-0.00144378
0.00560222
0.000339363
-0.000955797
0.000616434
0.0021234
0.000643544
-0.00127774
0.000304281
0.00111541
0.00121648
-0.00142149
0.00494901
-0.00352752
-0.00484899
0.00576475
-0.000915761
-0.00117544
0.00228635
0.00410427
0.00107446
3.79084e-05
0.00585392
-0.00550515
-0.000348768
0.00354779
-0.00465664
0.00110886
0.00309049
-0.000679907
0.00542694
-0.00181907
-0.00250427
-0.000972456
-0.00218046
-0.000312447
0.00249292
0.00241613
-0.00196219
-0.00160818
-0.00424027
0.00274767
0.00149259
-0.000332984
0.00123059
0.00121165
0.00365027
-0.00486192
-0.000291852
0.000675586
0.00305957
-0.00238503
-0.00472499
-0.00125829
0.00647092
-0.00129874
0.00423578
0.00206305
0.000495306
0.00285536
-0.0021264
-0.000728959
0.00473746
-0.00245111
-6.95274e-05
-0.00332659
-0.00086526
0.00419185
0.000388348
-8.65865e-05
-0.000301761
-0.00514537
0.00610863
-0.000963254
-0.00072117
0.00190249
-0.00118132
-0.000697063
0.00525252
-0.00455546
0.00119239
-0.00191356
-0.000112806
-0.00576282
-0.000800511
0.00202391
0.00383001
-0.000253587
-0.00192687
0.000251405
-4.20219e-06
0.000362572
-0.000487814
0.00335977
-0.00081891
-0.00522608
-0.000271567
-0.00014752
0.000150196
-0.000133579
-1.66169e-05
-0.00248373
0.000125341
-0.000420686
0.00159294
-0.00102098
-0.000571957
0.0024635
0.000600622
-0.00306413
-0.000718778
0.00318227
-0.00520295
-0.000271516
0.00547446
0.00375027
0.00137481
0.00440634
-0.00122346
-0.000128656
0.00254479
0.00540385
-0.000206644
-0.00519722
-0.00608752
0.00425295
0.00183457
0.00321066
-0.00126814
-0.00435289
0.000203737
-0.000224888
0.000578545
0.000834828
0.0011442
0.00016383
-0.00130803
0.0042123
0.00119156
-0.000961046
0.00317126
-0.00221022
0.00472639
-0.00138024
-0.00218026
0.00279294
-0.000612673
-0.00117773
-0.000122225
0.000303243
-0.000181017
0.00344663
-0.0041437
0.00134685
-0.000990679
-0.000356165
0.00159756
-0.00039485
-0.00325059
0.00228954
0.00548814
-0.00434331
-3.06343e-05
0.000352634
-0.00535561
0.000448038
0.00542921
-0.00190318
-0.000998773
-0.00361466
0.00461344
-0.000645699
0.00288227
-0.00223657
0.00549726
-0.00286244
-0.00263482
-8.83968e-05
0.000592263
-0.000677065
0.000660542
1.65224e-05
-0.000694058
0.00173235
-0.0010383
-0.00314814
-0.00116627
0.000155541
-1.7199e-05
-0.00122488
-0.00478961
-0.0030744
0.00239815
-0.000729386
-0.000293078
-7.26192e-05
-8.95563e-05
-0.00121954
-0.000806031
-0.00523016
-0.0028388
0.0021931
-0.00081666
0.00119024
0.00111323
0.00437515
-0.00548838
0.00338463
-0.00275419
0.000466684
0.000771018
-0.00288351
0.00211249
0.00497919
-0.00492297
-5.62165e-05
-0.00320953
0.00361558
-0.000406052
0.000207792
-9.56063e-05
-0.000112186
-0.00495478
-0.00149199
-0.0017587
0.00368963
-0.00193093
0.00298137
-0.00221035
-0.0037825
0.0020238
0.00139504
-0.00258174
0.00118669
-0.00363292
0.00568161
0.00649989
-0.00219629
-0.0043036
-0.00239938
0.00237535
2.40371e-05
0.00559747
-0.00162612
0.00118742
-0.000924356
-0.000263067
-9.10397e-06
0.000262166
0.000248384
-0.000774313
0.00052593
-0.00304734
0.00364947
-0.000969173
0.000846768
-0.00104824
0.00236417
-0.000632588
-0.00173158
0.00220536
-0.000513896
0.00451731
0.000631276
0.00173289
-0.00175667
0.00106261
0.000408591
-0.000464689
5.60978e-05
0.00221734
-0.00174379
-0.000473554
0.00082639
-0.00514778
-0.000544544
0.00036949
-0.00058835
0.00021886
-0.00410173
0.00547415
0.000942021
-0.00111667
0.000174649
-0.00153251
0.00216312
-0.000630613
-0.00148838
-0.00275188
-0.00536923
-0.000158732
0.00552797
0.000300394
0.000108302
4.18941e-05
0.00012719
-0.000126859
-3.30526e-07
0.00410694
-0.00289529
-0.00379717
-0.00231693
0.00346638
0.00303351
-0.00258991
0.000721958
0.00186795
-0.000844663
0.0022397
-0.00229796
-0.000101421
0.00272937
-0.00377716
0.00104778
0.00130578
-0.000130807
0.000461805
0.000552014
-0.00327706
0.000962425
0.00231463
0.000911412
-0.000612236
-4.57407e-05
-0.0042709
0.00171734
0.000109232
-0.00182657
-0.00396428
0.00146297
0.00250131
0.000519346
0.00148206
-0.00090352
-0.000245834
-0.00466044
0.00490627
0.000784232
-0.00247668
0.00169245
0.0012022
0.00131232
-0.000462392
-0.00172333
0.00218572
0.00257999
-0.00179576
0.00446745
-0.00353324
-0.000771878
-0.00264089
-0.00022731
0.000251657
-0.000707679
0.00176714
-0.00105946
0.00266096
-0.00366668
0.00100571
0.000136423
2.03964e-05
-0.00236441
-0.000912648
0.00142116
-0.00163622
0.000215055
-0.00277493
0.000685667
0.00127617
-0.00141858
0.000142412
0.0016185
-0.00180768
0.000189187
0.000675102
-0.00372313
-0.0011541
0.00134373
-0.00489229
0.00354857
-0.000911709
0.00357266
0.000119005
-7.91216e-05
-3.98827e-05
0.00473901
-0.00362577
-0.000321258
-0.00152414
-0.00401347
-0.00149956
0.0020927
0.000700221
-0.00100964
-0.000922967
-0.0045253
-0.0016216
-0.00036826
0.00124273
-0.000932011
-0.000310715
-0.00149547
-0.00108885
0.000654633
0.00225964
-0.00291427
-0.000114321
0.0006708
-0.000715868
3.88031e-05
-0.00246148
0.00196646
0.00139405
-0.000685573
0.00162618
-0.000940609
-8.68639e-05
-0.000116941
0.000318371
-0.0019469
0.000447257
0.00161558
-0.0023085
0.000692919
-0.00333914
0.00258317
0.000755961
0.00120088
0.00240967
-0.00361055
-0.00175459
0.00104691
-0.00294127
-0.001023
-0.000784542
-0.0025546
-0.00167752
0.00125393
0.000423585
0.00176557
-4.82224e-05
-0.000760461
-0.00243514
0.0031956
-0.000669485
0.00291345
-0.00225882
-0.000858544
-0.0039476
0.00480616
-0.00234216
0.00234008
2.07279e-06
-0.000753438
-0.00156585
0.000544864
-0.00240609
0.00381882
-0.00141274
0.00323292
0.00288513
0.000194341
3.62318e-05
-0.000230573
0.00234059
-0.000602553
-0.00173803
0.000187981
-0.000184129
-0.00358751
0.00493124
-0.00329286
0.00524219
-0.00194933
-0.00350992
-0.00150956
-0.000914794
0.00323171
-0.00231692
0.00285717
0.00177359
-0.00417968
-0.00499863
-0.000146735
-0.000783117
0.0028449
-0.00206178
-0.000431677
0.000378794
-0.000533112
0.00167781
-0.0011447
-0.00402759
0.00334303
0.000684554
-0.0032688
0.002354
-0.00386819
0.000673713
0.00319448
0.00141155
-0.00101562
-0.00039593
-0.00589957
0.000696622
0.00184686
-0.00141116
-0.000435701
0.00144073
-0.000433093
-0.00100763
7.83765e-05
0.000129416
0.00292883
-0.000630944
-0.000220346
-0.00348717
-0.000381022
0.000426503
-0.00305536
-0.000972239
-0.00233628
-5.86974e-06
-0.00292335
0.00229306
0.000720327
0.00260216
-0.00332249
0.000587926
-0.000860956
0.00140841
-0.00671698
0.00530858
-0.00576386
0.000982448
-0.00233735
0.00353823
0.000692317
0.000258357
-0.002733
0.00345332
-8.94328e-05
0.00506862
0.000609525
0.00170736
-0.00231689
-0.00177862
0.00124551
0.00274781
-0.00369531
0.000947488
0.00510075
0.000671513
0.00154583
0.000312701
0.000390295
-0.000364003
-0.00040481
0.000180994
-0.00174652
0.00176685
-0.000888893
0.000883155
0.000598905
-0.000583136
0.00301042
-0.00242728
-0.00150892
0.00184351
-0.000334593
-0.0048924
0.00380242
0.00108998
-0.00479632
0.00150347
-4.17571e-05
3.88511e-05
2.90607e-06
-0.0028114
-0.000855269
0.00108276
-0.00129452
0.00021176
0.00135219
-0.00493971
0.00114154
2.65903e-06
0.00123682
0.000694135
0.00218813
-0.00366622
0.000854826
0.000184999
-0.00503399
0.00190217
0.00122213
0.00068036
-0.00527181
-0.000491737
0.00565433
0.00118613
0.00710793
-0.00218458
-0.00492334
0.000789822
-0.000379513
-0.00041031
0.000712805
-0.00138513
0.000778332
-0.00386014
-0.00125674
0.000303243
-0.000935076
-0.000426005
0.00136108
0.00233032
0.00400855
-0.00486708
0.0027029
0.000834313
-0.00353722
0.00124905
-0.000964777
-0.000284269
0.000745104
0.00159548
-0.000135099
0.000138328
-3.22821e-06
-0.000709082
0.00288371
-0.00217463
0.0036206
0.00109369
-0.00126378
-0.000413741
0.00141374
-0.00151511
0.000101366
4.68671e-05
7.21373e-05
-0.00447732
0.000967402
-0.00165598
0.000444289
-0.00364856
0.00292977
-0.000946031
6.3753e-05
0.000933863
0.00268086
-0.00361473
0.000849484
-0.00126902
0.00418552
-0.00291651
0.000317033
0.000279886
4.65475e-05
-0.000326434
7.83491e-05
-0.0053916
0.00531325
-0.00263583
-0.000772206
0.00340805
-0.00348746
0.00260998
0.000877481
-0.00277241
-0.00026348
-0.00171487
-0.00490339
0.000889919
-0.00145677
-0.000879518
-0.00106317
0.00379255
0.00170933
-0.00372532
0.00201599
0.000105161
2.20291e-05
0.0037259
-0.00201656
0.00286541
0.000952424
-0.00381782
-0.00130336
0.00174304
-0.00043967
0.00357351
0.00109678
-0.00467029
0.0071802
-0.001974
-0.00520619
-0.00212797
-0.000710824
-0.00173355
0.00234307
0.00377251
-0.00492528
0.00115276
-0.00280235
0.00373621
0.00115936
-5.18072e-05
-0.00110756
0.0014811
0.000908961
-0.00550763
0.000597024
0.00042625
0.000363572
0.00292155
-0.00111989
-0.00252111
0.00248113
3.99898e-05
0.00050468
-0.00184073
0.00133604
-0.00387051
-0.00119239
0.00108831
-0.00254507
-0.0052991
0.000151321
-0.00125609
-0.000520748
0.00177684
0.00563473
-0.00449197
0.000104555
0.000283794
-0.00301857
0.00318556
0.00144224
-0.00107441
-0.000367832
0.00346868
0.00475661
-0.000954199
0.000638778
-0.00327461
0.00112565
-0.00101217
-5.2889e-05
0.00046148
0.000394045
-1.97405e-05
-0.0020613
-0.000456625
0.00153939
-0.000904299
-0.00349732
0.000764333
-2.85278e-05
-1.32294e-05
0.00599854
-0.00492082
0.00522217
-0.00439397
-3.02253e-05
-0.000639951
0.000670176
0.00194891
-0.000458211
-0.00149069
0.00335897
-0.000756813
-0.00256829
0.00336083
-0.000792541
-0.00183331
0.000529952
0.00127963
-0.000953365
-0.000326261
-0.000118764
-0.000210173
0.00205919
-0.000548053
-0.00151114
-0.00138276
-0.0023958
-0.000125301
0.00209105
-0.00274592
0.00065487
0.00280624
-0.0007501
-0.00205614
0.0041037
-0.00434953
0.00031485
0.00223863
-0.000623044
-0.000682229
0.00083631
-0.00367483
0.00502701
0.00122559
0.000460454
-0.00171654
-0.00286217
0.00209715
0.00363312
0.00158905
-0.00115032
-0.00382815
-0.00113485
0.00130423
-0.00171759
0.000413359
0.00367544
-0.00318576
-0.000193982
0.001136
-3.86505e-05
-0.000270735
0.000309386
-0.000687715
-0.0019022
0.00377109
-0.00490653
0.00113545
-0.00186356
0.00235119
-0.000487632
-0.00115419
0.0021333
0.000750408
-0.0022632
0.00375449
-0.0014913
0.00150724
-0.00114306
-0.000364175
-0.00105572
0.000302287
0.000176853
-0.000427077
0.000250225
-0.000426237
-0.00122974
-0.00248006
0.00250465
-2.45941e-05
0.00144807
-0.00371127
0.00162456
-0.000370619
0.000359123
-0.000430884
7.1761e-05
-0.00082643
0.000594485
0.000231945
-0.000794423
-0.0028478
0.000823141
0.00202466
-0.0019949
-0.000874658
-0.000719016
0.00159367
-0.00524103
0.00389262
0.0013484
-0.00130895
0.00127872
-0.000576406
-0.000115908
0.000692314
0.00286883
-0.000735537
-0.000770284
-0.000160284
0.000930569
0.0018406
-0.00138015
0.00169848
-0.000394245
-0.000183293
-0.000635079
-0.00420355
0.00483864
-0.0013917
0.00283097
0.00427695
-0.00239878
-8.12739e-05
0.00312253
-0.00473156
0.000732866
0.00158197
-0.00231484
0.00201299
-0.0027961
0.00198589
-0.000712621
-0.00127327
-0.0017961
0.000455702
0.0013404
0.00432131
0.00285889
-0.00551618
0.00133856
0.00417762
-0.00125203
-0.00398899
-0.000460007
-0.0013361
-0.00100442
-0.00056143
-0.00129341
-0.000424188
0.00114196
-0.000531427
0.00150951
-0.000978088
-0.00175725
0.00129724
-0.00094426
-0.000207379
0.00115164
0.00217248
-0.00286746
0.000694991
-1.17701e-05
0.000206111
0.00103472
0.0060582
-0.00140594
-0.00465227
-0.00203577
-0.00187339
0.00134177
0.000531627
0.00127206
-0.000979717
-0.000292341
-0.00229624
-0.00102168
0.00331793
-0.00267292
0.00358351
-0.000910593
-0.000918414
0.00112591
7.52093e-06
-0.00113343
0.00376068
-0.00493522
0.00117454
0.00174763
-0.00135563
-0.000392004
0.00242708
-0.00122487
0.00273495
-0.000635086
-0.000191344
-0.00408919
0.00229646
-0.00180113
-0.000495331
0.000560409
-0.00200935
0.00144894
-0.0025166
-0.000839955
0.000860171
-0.000658659
-0.000201513
-0.000179828
-0.00364007
0.000967146
0.00065119
-0.000474336
0.00259396
0.000989548
0.000318694
0.00130986
0.000676032
-0.0016036
0.00233646
-0.00150691
0.000997399
0.000509508
0.00354532
-0.000679899
-0.0038103
0.00610289
-0.00114584
-0.00249063
0.00683118
-0.00434055
-0.000887093
0.00356796
-0.00414181
0.000932292
-0.00210115
0.00424925
-0.000683982
-0.00162452
-0.00244886
0.00171569
0.000733175
-0.0012801
0.000553189
-0.000562277
9.08987e-06
-0.00137589
-0.000776624
-0.000153566
0.000930191
-0.00156681
0.00136657
0.000200237
0.00204206
0.000802834
6.25747e-05
-0.00129998
-0.00054827
-0.000836854
-0.00241795
-0.000474604
-0.00139879
-0.000171193
0.00159236
-0.000180665
0.00341082
-0.000513452
0.00133875
0.000199907
-0.000790078
-0.00101034
-0.00193017
0.00247683
-0.000546662
-0.00104746
-0.0057289
0.00351082
0.00150072
-0.000617562
0.00288922
-0.00121093
0.000959545
-0.00135911
-0.00453045
0.00588956
0.000620135
-0.0025503
0.000740859
-0.00368724
0.0026991
0.000988136
0.000893306
-0.00142473
0.00222814
-0.00311622
0.000888067
0.00119534
-0.00342974
0.00223439
0.000860529
0.00168835
-0.00254888
-0.000174483
0.00179298
0.00274645
0.001081
0.003618
-0.000413522
0.00078301
0.00315857
-0.00402383
0.000978751
-0.00327499
0.0004347
0.00412521
0.00147914
-1.06809e-05
-0.000276047
0.000286728
-0.00619276
0.00385641
0.00233636
-0.000827803
-0.00261611
0.00344392
0.00263973
-0.0017792
-0.00369613
0.000893776
-0.00132161
-0.000435634
-0.000152764
0.00131953
0.00372396
0.00122504
0.000225085
0.0013092
-0.000992494
-0.000316702
0.00091217
0.000588549
-0.000313896
0.00376778
-0.00493254
0.00116477
0.00307769
-0.000849559
-0.00139889
0.00190357
0.00125974
-0.00355485
0.00229511
-0.00116744
0.00145632
0.000678173
-0.00213449
0.000192261
-0.000202943
0.00219898
-0.000862586
-0.00126634
0.000329479
0.000929511
-0.000348522
-0.000580989
0.0035323
-0.00227257
-0.000508896
0.00229276
-0.00178387
0.00102049
-0.00296415
0.00208662
0.000877532
0.000105998
-8.37527e-07
0.00466408
0.000545447
-0.00570294
-0.00519349
0.00392675
0.00126675
-0.00107641
-0.00269561
0.00377202
0.00222131
0.00372514
0.00282755
-0.00375349
0.000925944
-0.00147022
0.0011013
-0.000947478
0.00337046
-0.00242299
0.00149716
0.000562031
-0.0037858
-0.00240697
0.00107323
-0.00230429
0.00321243
-0.000908144
0.00343129
-0.000821304
0.000394816
-0.000805746
0.00254706
0.00088423
-0.000635291
0.00431073
-0.00131021
0.00171675
-0.000406543
0.00198947
-0.00128407
-0.000389217
0.00607689
-0.00491475
-0.000454474
0.000858292
-0.00246189
-0.00539145
-0.00172299
0.000412781
-0.000678138
0.000101732
-0.000868575
0.00021399
-0.00146926
0.000661386
0.00157724
-0.000905454
0.00013517
0.000804925
0.00251614
-0.00332108
-0.00109509
0.00187368
-0.00194694
-0.000474191
0.00196114
-0.00148694
-0.000877105
-0.00208704
-0.00195173
0.00147754
-0.00265768
0.0034626
-0.00164188
0.000577239
0.00106464
-0.000975647
0.0035696
0.0060087
-0.00230231
-0.00130322
-0.00041977
-0.00174148
0.00110486
0.000636614
0.000905323
-0.0045192
0.00361388
-0.00131298
0.000545961
0.000767012
-0.00403317
-0.00116032
0.000191944
-0.0011362
0.00193898
-0.000716852
-0.00134262
-0.00380208
0.0051447
0.00100319
7.12766e-05
0.00329732
-0.00252811
-0.000769214
0.000155209
0.00128552
0.000877365
-0.000669773
-0.000207592
-0.00134792
-0.00101537
-0.00107657
0.00510752
-0.00403094
0.000634478
-0.00249804
0.000170288
0.00124345
0.00377156
-0.00496011
0.00118856
0.00287526
-0.00205212
0.000101826
-0.000168255
6.643e-05
0.00102743
0.000138078
0.000104261
0.0023561
0.00370211
-0.00058733
-0.000810078
0.00139741
0.000653265
0.00177175
-0.00242502
0.00240115
-0.00171083
-0.000690308
0.000475515
0.00147339
0.000426021
-0.000508724
-0.00080425
0.000599435
-0.00532443
0.000690401
-2.98597e-05
-0.00116098
-0.0013112
-0.00378933
0.00510052
0.00103359
0.00143727
-0.00189548
0.00254665
-0.000395049
-0.00490873
0.00530378
0.00012071
-1.88841e-05
0.000650218
0.00128876
0.00273061
0.000940418
-0.00367102
0.00137538
0.000471482
0.00258636
-0.00364069
0.00454601
0.0027741
0.000843325
-0.00361743
0.00162565
-0.000862564
-0.000763082
0.0013283
-0.00101931
-0.000308986
0.000423346
0.00105892
-0.00469961
0.000218707
-6.95652e-06
0.000199218
0.00602588
-0.00128688
0.00152626
-0.00212881
0.00252552
-0.00182719
-0.000698323
0.000856994
-0.00254505
0.00168806
0.00523484
-0.00281714
-0.000925143
-0.00159187
0.0050092
0.00148606
-0.00178146
0.000295401
0.000499939
-0.00010378
-0.000396159
-0.000994157
-0.00314021
0.00413437
0.00074151
0.00181977
-0.00256128
0.00176761
-0.000281543
0.00224995
0.00140881