/*--------------------------------*- C++ -*----------------------------------*\
  =========                 |
  \\      /  F ield         | OpenFOAM: The Open Source CFD Toolbox
   \\    /   O peration     | Website:  https://openfoam.org
    \\  /    A nd           | Version:  7
     \\/     M anipulation  |
\*---------------------------------------------------------------------------*/
FoamFile
{
    version     2.0;
    format      ascii;
    class       surfaceScalarField;
    location    "0.881";
    object      phi;
}
// * * * * * * * * * * * * * * * * * * * * * * * * * * * * * * * * * * * * * //

dimensions      [0 3 -1 0 0 0 0];

internalField   nonuniform List<scalar> 
18389
(
-7.97675e-05
7.97675e-05
4.34325e-05
-4.34324e-05
-5.20443e-05
5.20443e-05
4.01567e-05
-4.01567e-05
-5.1782e-05
5.1782e-05
-3.99355e-05
3.99355e-05
-3.47153e-05
3.47153e-05
3.90072e-05
-3.90072e-05
-3.55854e-05
3.55854e-05
4.14716e-05
-4.14716e-05
4.49378e-05
-4.49378e-05
-3.46834e-05
3.46834e-05
-1.36104e-05
1.36104e-05
-4.27768e-05
4.27768e-05
4.34761e-05
-4.34761e-05
2.38475e-05
-2.38475e-05
1.83812e-05
-1.83812e-05
4.58921e-05
-4.58921e-05
4.59199e-05
-4.59199e-05
4.33404e-05
-4.33404e-05
-4.24522e-05
4.24522e-05
3.55507e-05
-3.55507e-05
4.29755e-05
-4.29755e-05
-5.8487e-05
5.8487e-05
-4.97246e-05
4.97246e-05
-4.18188e-05
4.18188e-05
-4.4539e-05
4.4539e-05
4.56225e-05
-4.56225e-05
4.58462e-05
-4.58462e-05
4.41357e-05
-4.41357e-05
-4.13336e-05
4.13336e-05
-6.30758e-05
6.30758e-05
4.31155e-05
-4.31155e-05
-4.47422e-05
4.47422e-05
4.08608e-05
-4.08608e-05
4.66901e-05
-4.66901e-05
-4.55447e-05
4.55447e-05
5.35703e-05
-5.35703e-05
-5.88666e-05
5.88666e-05
3.78741e-05
-3.78741e-05
4.48356e-05
-4.48356e-05
4.53658e-05
-4.53658e-05
-4.10114e-05
4.10114e-05
4.48983e-05
-4.48983e-05
4.58674e-05
-4.58674e-05
-4.5847e-05
4.5847e-05
-4.58472e-05
4.58472e-05
-4.06576e-05
4.06576e-05
-4.58793e-05
4.58793e-05
4.59373e-05
-4.59373e-05
4.59558e-05
-4.59558e-05
4.46221e-05
-4.46221e-05
3.77329e-05
-3.77329e-05
-4.57621e-05
4.57621e-05
-5.55433e-05
5.55433e-05
-4.38145e-05
4.38145e-05
4.57522e-05
-4.57522e-05
-4.59938e-05
4.59938e-05
4.32264e-05
-4.32264e-05
-5.93195e-05
5.93195e-05
-4.71477e-05
4.71477e-05
4.9605e-05
-4.9605e-05
4.57363e-05
-4.57363e-05
-9.34464e-06
9.34465e-06
4.57735e-05
-4.57735e-05
4.14347e-05
-4.14347e-05
5.12077e-05
-5.12077e-05
-4.58728e-05
4.58728e-05
4.23161e-05
-4.2316e-05
3.13958e-05
-3.13958e-05
1.11115e-06
-1.11115e-06
-4.40843e-05
4.40843e-05
3.28684e-05
-3.28684e-05
-3.65737e-05
3.65737e-05
3.97497e-05
-3.97497e-05
2.66252e-05
-2.66252e-05
2.61979e-05
-2.61979e-05
2.7049e-05
-2.7049e-05
2.43945e-05
-2.43945e-05
1.32452e-05
-1.32452e-05
0.00107272
-0.000879039
-0.000193675
0.00546644
-0.00207548
-0.00339095
-0.00594644
0.0059464
3.96187e-08
0.00335414
-0.00259833
-0.000755815
-0.00155515
0.00175973
-0.00020458
-0.006759
0.00283642
0.00392259
0.00121487
0.00425157
0.00725562
-0.00587574
-0.00137989
0.0011922
-0.00191737
0.000725172
-0.000868224
-0.00068693
-0.00144219
-0.000314626
0.00175682
0.000145399
7.40264e-06
-0.000152801
0.000778524
-0.00222072
-0.00360327
0.000122945
0.00348032
-0.00320233
0.00289293
0.000309405
-0.00571076
0.00724936
-0.0015386
-0.00370936
0.00289723
0.000812126
-0.000563777
-0.0030395
-0.00174877
0.00238858
-0.00063981
-0.000464667
0.00255909
-0.00209442
-0.00161279
0.00111186
0.000500925
0.000583526
0.000581833
-0.00159695
-0.00516206
0.00125982
-0.00178746
0.000527643
0.00578052
-0.00386099
-0.00191952
-0.000663799
0.00331103
-0.00264723
-0.00583497
0.00583471
0.000480398
0.00127934
-0.00633463
0.000969031
0.0053656
0.00232272
-0.00298653
-0.00378937
0.00311377
0.000675603
0.00214803
-0.00422351
0.00108616
-0.000202866
-0.000883293
0.00150494
-0.00128832
-0.000216625
-0.00280157
-0.00040076
0.00535242
-0.00534967
0.000368872
0.00113607
0.00522816
-0.00133703
-0.00389113
0.00199885
-0.000806654
0.00308569
0.00190868
-0.00499436
-0.000721683
-0.00306769
-8.90593e-05
-0.000154457
0.000243516
0.00393563
0.00331999
0.00116259
-0.0048863
0.00372371
0.0016274
0.00360075
-0.0049827
0.00632124
-0.00133855
-0.00113856
-0.000591734
0.00173029
0.00133712
0.00201702
0.000135292
0.000103626
-0.000238918
0.0050221
-0.00339469
0.00645844
-0.000841657
-0.00561678
0.00321537
-0.00265706
-0.000558312
0.0022186
0.000450814
-0.00266943
0.00294991
-0.000731302
0.00650353
-0.00539847
-0.00110505
0.000504327
-0.00386847
0.00336414
6.91623e-05
0.00638928
0.00480666
-0.00430233
-0.000535785
0.00105939
-0.000523601
-0.00176035
0.000621793
0.00191706
0.0022491
-0.00416616
0.000253402
-0.000333614
8.02119e-05
-0.00126694
-0.0028461
0.00411304
-2.63117e-05
0.00652985
-0.00281702
0.00229519
0.000521832
0.000389578
-1.22961e-05
-0.000377282
-0.00569231
-0.000254125
0.00187889
-0.00139849
0.000827374
0.00495315
0.000893248
0.00017947
0.0026272
-0.00645516
0.00382797
-0.0011202
0.00058442
0.00263893
-0.00390587
0.00619681
-0.00226117
0.0010921
0.00117729
-0.000794184
0.00104153
-0.000247348
-0.00111274
-0.000500044
0.00188895
0.00132642
-0.000595587
0.00142985
-0.00123755
-0.000192295
-0.00265552
0.00198891
0.000666606
0.00116689
0.000262958
0.00113523
-0.0049742
0.00383896
-0.0047577
0.00141896
0.00333873
-0.0045543
0.00611805
-0.00156375
-0.00506215
7.94574e-05
-0.00201841
-0.000637099
-0.000215357
0.000126298
-0.0012254
0.00464973
-0.00342434
-0.0012204
-0.000696967
0.000103309
-0.000192024
8.87148e-05
0.000126289
-2.29797e-05
-0.00125861
0.00463834
-0.00337973
-0.000156113
2.44125e-05
0.000131701
-0.00556819
0.0017072
-0.00119268
-0.000567668
-0.000449419
-1.89372e-05
0.000468355
-0.000543248
9.38285e-05
0.00101109
7.50696e-05
-0.00181059
0.000617909
-0.000150333
1.73232e-05
0.00013301
0.00136803
-0.00234447
0.000976436
0.000271103
-0.000135811
-0.00392544
0.00514032
-0.00245757
0.000708808
-9.15366e-05
-0.000424555
0.000516092
0.00568575
-0.00216883
-0.00351692
7.7704e-05
0.00250745
-0.00258516
0.00447118
-0.00561949
0.00114832
0.00263445
0.00305129
0.00291409
-0.00283639
-0.00616379
0.000453031
-0.0064668
0.00363572
0.00283108
0.00229299
0.00390382
-0.00438977
0.00137982
0.00300995
0.0015037
-0.000243883
-0.00102525
0.00402038
-0.00299513
0.00463915
-0.00162677
-0.00301238
-0.00460606
0.00374745
0.000858615
0.0036937
-0.00503073
5.90422e-05
0.000330536
-0.00136478
0.00583597
-9.19837e-05
0.00214942
-0.00205743
-0.00206705
0.00260932
0.000172803
-0.00278212
-0.0012774
0.00264543
-0.000646526
0.00325584
0.00164122
-0.0017332
0.000903921
0.00397278
-0.00487671
-0.00504195
0.00384188
0.00120007
0.00255192
-0.00359409
0.00104218
-0.00332762
0.00411612
-0.0007885
0.000342774
-0.0036704
-0.000883542
0.000883542
-0.000449084
0.000357547
-0.000126975
-0.000973461
0.00110043
0.00506949
-0.00184246
-0.00322702
-0.002433
-0.000368577
0.00290066
0.000157858
1.65612e-05
-0.000174419
-0.00147043
0.00112264
0.000347791
-0.000140928
-0.00490102
0.0050543
-0.00389172
0.000230682
-8.52842e-05
0.00444419
0.000577903
0.00406759
-0.00151566
0.000164942
-7.08462e-06
-0.00632757
-0.000987182
-0.00082341
0.00430032
-0.00190462
-0.0023957
0.00275671
0.00154362
0.00107775
-0.00563205
-0.00226138
-0.000555635
-0.00112124
-0.00095852
0.00207976
3.89329e-05
-0.00272217
0.00268323
-0.00235841
0.00123717
-0.00221811
0.0053038
-0.00462029
0.00160156
0.00301873
0.00254638
0.000668113
-0.000331695
-0.000336418
-0.00601505
0.000582756
0.0054323
-0.00418593
0.0058315
-0.00164558
0.00182494
0.00163021
-0.00345515
-0.00167253
0.000899548
0.00077298
-0.00271506
0.00207993
0.000635138
0.00110669
0.000772202
0.0002472
-0.000328937
8.17377e-05
0.00489985
-0.00399593
-0.00638622
0.0055788
0.000807427
-0.00479899
-0.0016678
0.00334321
0.000640307
-0.00398352
0.000153956
-0.00016216
8.2047e-06
0.000590438
-0.00012528
-0.000465157
-0.00451823
0.00261362
0.000390105
-0.000569436
0.000179332
4.75027e-05
-0.000931047
-0.00257573
0.00448441
-0.00530386
-0.000323785
0.00562765
0.000210046
0.000181562
-0.000391608
0.000793128
-0.000793128
0.00168476
-0.000726151
-0.00210979
0.0018132
0.000296593
0.00440186
-0.00302206
-0.000162405
6.29195e-06
-0.00121563
0.00126313
0.000707365
0.00129149
0.00234779
-0.000267859
-0.00401926
-0.0012846
0.00111537
-0.00498384
0.00321354
-0.00447215
0.000835234
-0.00213559
0.00130036
0.00335941
-0.00458481
-0.00271113
-0.00180711
-0.00483582
0.00469489
-0.00067638
-0.00533866
-0.0051596
0.00150312
-0.00146999
-3.31268e-05
0.00223158
0.000116204
-0.00601409
0.00204857
0.00396552
-0.00121933
0.000526009
0.00069332
0.00145367
0.00294819
-0.00462438
-0.00101507
0.00563945
-0.000212803
0.00013852
7.42829e-05
-0.00551644
0.00133051
0.00375312
-0.0049369
0.00118379
-0.00149314
-0.000616652
-0.000536681
-0.000637498
0.000138367
-0.000203831
6.54642e-05
0.00499461
-0.00385939
-0.00130132
0.00512554
-0.00382422
-0.000401621
-0.000814011
-0.00586127
0.00043995
0.00539475
-0.00616325
0.00456629
-0.000922529
-0.0054637
-0.00109505
-0.000375373
-0.0018169
0.00285729
-0.0010404
-0.000419175
0.000322047
9.7128e-05
-0.00173205
0.00141742
0.00161111
-0.000107989
0.000826015
-3.6749e-05
-0.0016953
0.00279668
0.0012178
-0.00303469
0.00605688
-0.000478085
0.0052833
6.9116e-05
-0.00528051
0.00439159
0.00114448
-0.00553608
0.000556439
-0.000768837
0.000212398
-4.10031e-05
-0.000408081
-1.03548e-05
0.00606723
-0.000162182
0.000156826
5.35633e-06
0.000133359
2.05963e-05
0.00253815
-0.00335744
0.000819289
-0.00191906
0.000723681
0.00119537
0.00792505
-0.00345466
-0.00447039
0.00117042
0.00126433
-0.00243475
0.000107197
-0.000173557
6.63601e-05
-0.000805866
0.00133187
0.00116115
0.00318232
-0.00434346
-0.00561412
0.000165646
0.00544847
-0.0040196
0.00299435
0.00173519
0.00479466
0.00458726
0.00333778
-2.16057e-05
0.000190539
-0.000168933
-0.00130906
0.0043968
-0.00308774
0.000300429
-0.000341432
-0.000131318
-8.14848e-05
0.00410085
-0.00227592
0.00476374
-0.00501672
0.000252975
-0.0032469
0.0060826
-0.0028357
0.00252715
0.00157371
0.00575166
-0.000987921
-0.00138099
-0.0056213
0.00137269
0.00424861
0.000654662
0.000520674
-0.00117533
0.00126959
-0.000614929
0.000585398
-0.00111027
0.000524872
0.00110607
0.000273164
0.00039495
-0.000678237
0.00443136
0.00151663
-0.000394
0.00353977
-0.0061308
0.00259104
0.00153402
-0.00258464
0.00105062
-0.00432005
0.00116463
0.00315542
0.00291317
-0.00422223
-0.00490853
-0.00125471
-0.00409959
0.00126807
0.00283152
0.00124826
0.00314853
-0.00326451
-0.000835084
0.00222666
-0.00105625
-0.000680468
-0.00253102
0.00321149
0.00240743
0.000617909
-0.00302533
-0.0015904
0.00120174
0.000388659
0.000269963
0.0014877
-0.00196593
0.000478235
-0.000110868
-0.000222747
-0.000264386
0.000153518
-0.00435437
-0.000251691
-0.000294581
0.00117508
-0.0008805
0.00435123
-0.00464531
0.000294081
-8.84239e-05
0.00011777
-2.93456e-05
0.000973176
0.00338205
-0.00435522
-0.000157004
6.85801e-05
-0.0047522
0.000710838
0.00404137
-0.000732493
0.000117345
0.000615147
8.53374e-05
-7.79347e-05
-0.000400962
0.000864669
-0.000347476
-0.000517193
-0.00603577
0.000637299
-0.00254967
-0.000128205
0.00267787
-0.0031696
0.00441786
0.00218083
-0.00108873
-0.00116718
-0.00117718
-4.322e-05
-0.00351966
-0.00123803
0.00150726
-0.000402759
-0.0011045
0.00191921
0.00183854
-0.00375775
0.00504677
-0.00161464
-0.00343213
0.000793269
-0.00541764
-0.00137301
0.00300321
0.00195929
0.000782832
-0.00274212
-0.00349803
0.00447121
-0.000152953
2.62013e-06
0.000937362
-0.00443539
-0.00449723
-0.000148094
-0.000998231
-0.00461589
0.00463249
0.00148981
0.00355696
0.00415819
0.00114502
-0.00530322
3.63252e-05
5.91977e-05
-9.55229e-05
-0.00140626
0.00336555
0.00371835
0.00353101
-0.00139989
0.00237022
-0.000970322
-0.00248094
0.000462531
-0.000878409
0.000751433
-0.000199956
0.000410003
-0.000212862
0.00170056
0.0037634
-0.00184419
-0.00107334
-0.000599197
-0.000107162
-0.000157224
0.00355042
-0.00163335
-0.00240369
0.0046528
0.000674556
-0.0030959
0.00242134
0.000639038
0.000763126
-0.00105771
0.00209956
-0.00131434
-0.00327504
0.00458937
-0.00218591
0.00481311
-0.000553374
0.0034463
0.000239123
-0.0002218
-0.00236263
0.000962742
0.00232113
-0.00386796
0.00154684
-0.00121169
5.77633e-05
-2.14382e-05
0.00214825
-0.00279631
0.000648065
-0.00116888
-0.000421518
-0.00353131
0.00450034
0.0011929
0.00167762
-0.00287052
-0.00169035
0.00366488
-0.00197454
0.00424104
-0.000858997
0.000234356
1.41095e-05
-0.000248465
-0.0037226
0.00203225
-0.00142902
0.00471945
-0.00329044
0.000877984
0.00130284
0.000163656
0.000629471
0.000253018
-0.000300702
4.76836e-05
0.00169646
0.000208864
-0.00190532
0.0030181
-0.00459075
0.00157265
-5.28488e-05
0.000374287
-0.000321438
0.00156283
-0.000361091
0.00140776
-0.000613172
-0.000794587
0.00282487
-0.00392617
0.0011013
0.0026801
-0.00374321
0.00106312
-0.0051757
0.0019288
0.00390438
-0.000886276
-0.000634188
-0.00237575
0.00300994
0.00140705
-0.00511782
0.00371077
0.00336053
-0.00145893
-0.00190161
-0.00068238
0.00172589
-0.00104351
0.00477141
-0.00303623
-0.000696217
-0.00196083
-0.0059831
0.00514144
3.87058e-06
0.000121703
-0.000125573
-0.00157854
0.00119988
0.000378662
-0.00490996
0.00630959
-0.00139964
-0.00188767
0.000721645
0.00116603
0.000403897
0.00268619
-0.00208785
-0.000598333
0.00343536
0.000489258
-0.00392462
0.000128508
-2.13105e-05
0.00517199
0.000337441
-0.00550943
-0.00194088
0.00379771
-0.00185684
0.00276933
-0.000640268
-0.00212907
0.000462548
0.000402121
-0.000437116
0.00387248
0.00202594
-0.00396681
0.000707823
-0.000265845
-0.000441978
-0.000658048
3.91129e-05
0.000618937
-0.00315171
-0.005765
0.00576668
-0.000274804
0.000951071
-0.000676268
-0.00228848
-0.000192471
-0.00455386
0.00323951
-0.000872846
0.00113007
0.00360666
-0.00501936
0.0014127
0.000410674
-0.00296034
0.00233103
-0.00244133
0.000110291
-0.00157143
0.00148228
8.91527e-05
-0.00120921
-0.000369324
-0.00339272
0.00342812
-0.00223521
0.000457224
0.000133214
-0.00173435
0.00105197
-0.00279544
0.000744407
0.00205103
0.000242362
-8.00581e-06
-0.00347729
0.00102426
0.00245303
-0.00144487
0.00560306
0.000339451
-0.000954635
0.000615185
0.00211966
0.000649674
-0.00127774
0.000304282
0.00111457
0.00121647
-0.00142915
0.00495824
-0.00352909
-0.00484778
0.00577023
-0.000922446
-0.00117391
0.00228522
0.00410405
0.00107168
4.01717e-05
0.00586462
-0.00553089
-0.000333732
0.00355451
-0.00466035
0.00110584
0.00309276
-0.000685337
0.00542643
-0.00181977
-0.0025039
-0.000973389
-0.00217541
-0.000318524
0.00249395
0.00241205
-0.00196125
-0.00160818
-0.00424241
0.00274794
0.00149447
-0.000330497
0.00123004
0.00121479
0.00365999
-0.00487477
-0.000284325
0.00067443
0.00305958
-0.00238502
-0.00472465
-0.00125846
0.00647046
-0.00129847
0.00424048
0.00206125
0.000497848
0.00285496
-0.00212558
-0.000729381
0.00473744
-0.00245221
-7.11123e-05
-0.00332606
-0.000867847
0.00419391
0.000388121
-8.64571e-05
-0.000301665
-0.0051403
0.00610765
-0.000967344
-0.000729302
0.00190557
-0.00117627
-0.000696979
0.00525222
-0.00455524
0.00118241
-0.00191171
-0.000113085
-0.00576264
-0.000794184
0.00203367
0.00383096
-0.000249281
-0.00192614
0.0002514
-4.19956e-06
0.000362566
-0.000487846
0.00336186
-0.000823712
-0.00522677
-0.00027161
-0.000147565
0.000150185
-0.000133568
-1.66171e-05
-0.00248307
0.000124656
-0.000421827
0.0015928
-0.00101319
-0.000579616
0.00246917
0.000595405
-0.00306458
-0.000715809
0.00318497
-0.00520291
-0.000271539
0.00547444
0.00375084
0.0013747
0.00441109
-0.00122877
-0.000131093
0.00254315
0.00540384
-0.000206628
-0.00519722
-0.00608721
0.0042526
0.00183462
0.00320919
-0.0012684
-0.0043529
0.000203423
-0.000225029
0.000582447
0.000825309
0.00110826
0.000138474
-0.00124673
0.0042123
0.00119155
-0.000960597
0.00317165
-0.00221106
0.00473364
-0.00139042
-0.00217903
0.00279231
-0.000613279
-0.0011766
-0.000116297
0.000311631
-0.000195334
0.00344637
-0.00414336
0.00134492
-0.000988601
-0.000356314
0.00159617
-0.000396292
-0.00325162
0.00229102
0.0054881
-0.00434362
-3.06467e-05
0.000352695
-0.00535609
0.000446127
0.00544275
-0.00190298
-0.00100088
-0.00361519
0.00461607
-0.000646649
0.0028828
-0.00223615
0.00549726
-0.00286244
-0.00263482
-8.83978e-05
0.000591769
-0.000677154
0.000660523
1.66308e-05
-0.00068891
0.00173054
-0.00104164
-0.0031496
-0.00117045
0.00015557
-1.72033e-05
-0.00122489
-0.0047892
-0.00307596
0.00239549
-0.000558451
-0.000234676
-7.2613e-05
-8.95692e-05
-0.00120985
-0.000805789
-0.00522999
-0.00283857
0.00219192
-0.000818669
0.00118754
0.00112027
0.00438417
-0.00550444
0.00339588
-0.00275557
0.000467773
0.000772261
-0.00288362
0.00211136
0.00498541
-0.00493463
-5.07757e-05
-0.00320953
0.0036156
-0.000406058
0.000207791
-9.56072e-05
-0.000112185
-0.00496375
-0.00149143
-0.00175723
0.00368931
-0.00193208
0.00298126
-0.002209
-0.00378357
0.00202634
0.00139502
-0.00258174
0.00118671
-0.0036329
0.00568147
0.00649989
-0.00219542
-0.00430447
-0.00239927
0.00237424
2.50473e-05
0.00561254
-0.00163977
0.00118461
-0.000923693
-0.000260917
-9.124e-06
0.000262142
0.000249437
-0.0007742
0.000524763
-0.00304725
0.00365082
-0.000970719
0.000846116
-0.00104898
0.0023631
-0.000632239
-0.00173086
0.00219969
-0.000503232
0.00452404
0.00063031
0.00173279
-0.00175361
0.0010647
0.000408598
-0.000464693
5.60954e-05
0.00221204
-0.00174416
-0.000467879
0.000830842
-0.0051478
-0.000544506
0.000369493
-0.000588346
0.000218852
-0.0041015
0.00547419
0.000942146
-0.00111662
0.000174473
-0.00152588
0.00216526
-0.000639381
-0.00149039
-0.00275202
-0.00538236
-0.000153573
0.00553593
0.000301317
0.000108298
4.18878e-05
0.000127643
-0.000127608
-3.48536e-08
0.00411716
-0.00290238
-0.00380262
-0.00232817
0.00346666
0.00303323
-0.00259478
0.000729857
0.00186493
-0.000844668
0.00223968
-0.00229751
-0.00010177
0.00272937
-0.00377746
0.00104809
0.00130755
-0.000132474
0.00046096
0.000550129
-0.00327751
0.000963434
0.00231408
0.000914975
-0.000607567
-5.04827e-05
-0.00427512
0.00172438
0.000100601
-0.00182497
-0.00396508
0.0014648
0.00250028
0.000519469
0.00147456
-0.000892114
-0.000246351
-0.00466058
0.00490694
0.000784461
-0.00247671
0.00169225
0.0012022
0.00131232
-0.000470027
-0.00171679
0.00218682
0.00258002
-0.00179555
0.00446983
-0.00353247
-0.000780983
-0.00264085
-0.000227344
0.000251757
-0.00070439
0.00176472
-0.00106033
0.00265983
-0.00366742
0.00100758
0.00013644
2.03869e-05
-0.00236381
-0.000913703
0.00142125
-0.00163647
0.000215222
-0.00277431
0.000686461
0.00127632
-0.0014188
0.000142478
0.00161854
-0.00180794
0.000189404
0.000675936
-0.0037253
-0.001161
0.00135121
-0.00490045
0.00354924
-0.00091339
0.00357321
0.000118931
-7.93178e-05
-3.96128e-05
0.00476052
-0.00364024
-0.000316253
-0.0015295
-0.00401976
-0.00149669
0.00209158
0.000700718
-0.001013
-0.000923554
-0.00453042
-0.00163337
-0.000387874
0.00124179
-0.000931042
-0.000310751
-0.00149611
-0.00108854
0.000656775
0.00225768
-0.00291446
-0.00011425
0.000670688
-0.00071595
3.87961e-05
-0.00245805
0.00196643
0.0013941
-0.000717589
0.0016271
-0.00090951
-8.68718e-05
-0.000116959
0.000318101
-0.0019461
0.000452968
0.001609
-0.00231145
0.000702449
-0.00334237
0.00258147
0.000760893
0.00119721
0.00241483
-0.00361204
-0.00175392
0.00104953
-0.00294125
-0.00102383
-0.000790914
-0.00255146
-0.00167605
0.00125271
0.000423343
0.00176579
-4.14063e-05
-0.000762507
-0.00243361
0.00319611
-0.000675777
0.00291414
-0.00225736
-0.000858543
-0.0039476
0.00480616
-0.00234408
0.00233999
4.09167e-06
-0.000732493
-0.00156277
0.000549588
-0.00240503
0.00381903
-0.00141401
0.0032329
0.00288515
0.000194384
3.62297e-05
-0.000230615
0.00234032
-0.00060276
-0.00173755
0.000187995
-0.000184125
-0.0035894
0.00494062
-0.00329668
0.00524367
-0.001947
-0.00350975
-0.00150961
-0.000914999
0.0032317
-0.0023167
0.00285706
0.00177521
-0.00418025
-0.00499459
-0.000145702
-0.000790106
0.00284753
-0.00205742
-0.000431661
0.000378813
-0.000529993
0.00167611
-0.00114611
-0.0040331
0.00334227
0.000690832
-0.00326941
0.0023544
-0.00386852
0.000673983
0.00319453
0.00141011
-0.00101434
-0.000395767
-0.00589956
0.000696651
0.00184668
-0.00141086
-0.000435814
0.0014153
-0.000403912
-0.00101139
7.83743e-05
0.000129417
0.00293241
-0.000637217
-0.000220212
-0.00348732
-0.000381192
0.000427296
-0.00305486
-0.000978247
-0.00233639
-7.68549e-06
-0.00292467
0.00229048
0.000720738
0.00260173
-0.00332247
0.000585314
-0.000860119
0.00140744
-0.00671722
0.00530977
-0.00578249
0.000983492
-0.00234222
0.00353943
0.000692993
0.00025808
-0.00273281
0.00345355
-9.65948e-05
0.005082
0.000614789
0.00170478
-0.00231958
-0.00177617
0.00124617
0.00274699
-0.00369591
0.000948908
0.00510074
0.00066757
0.00154446
0.00031701
0.000390812
-0.000364047
-0.00040479
0.000180981
-0.00174568
0.00176684
-0.000888854
0.000864096
0.00061046
-0.000584113
0.00301085
-0.00242674
-0.00150129
0.00184376
-0.000342461
-0.00489437
0.00380292
0.00109144
-0.00480544
0.00150876
-4.01849e-05
3.99681e-05
2.16759e-07
-0.00281115
-0.000856266
0.0010807
-0.00129654
0.000215845
0.0013567
-0.00494611
0.00108029
2.79681e-05
0.00124147
0.000694202
0.00218859
-0.00366724
0.000856094
0.00019489
-0.00504268
0.00190406
0.00121555
0.000690023
-0.00527272
-0.000492285
0.0056536
0.00118557
0.00710743
-0.00218503
-0.0049224
0.000790824
-0.00038043
-0.000410395
0.000717008
-0.00138218
0.000782983
-0.00386042
-0.0012574
0.000311631
-0.000937251
-0.000419802
0.00135706
0.00233003
0.00400855
-0.00486709
0.00270264
0.000834684
-0.00353733
0.00124965
-0.000963188
-0.000286464
0.000745209
0.0015951
-0.000135059
0.000138287
-3.22848e-06
-0.0007099
0.00288359
-0.00217369
0.00362135
0.0010981
-0.00126194
-0.000414107
0.001422
-0.00156227
0.000140272
4.74601e-05
7.14705e-05
-0.00447729
0.000967537
-0.00165283
0.000443612
-0.0036482
0.00293238
-0.000948684
6.96445e-05
0.000934809
0.00267978
-0.00361459
0.000844873
-0.00126335
0.00419034
-0.002927
0.000318607
0.000279889
4.65561e-05
-0.000326445
7.83349e-05
-0.00539165
0.00531331
-0.00263297
-0.000778898
0.00341187
-0.00349326
0.00260859
0.000884679
-0.00277177
-0.000261642
-0.00171415
-0.0049088
0.000889044
-0.00145536
-0.00088104
-0.00106299
0.00379236
0.00170904
-0.00372597
0.00201693
0.000105158
2.24847e-05
0.00372617
-0.00201714
0.00286359
0.000960267
-0.00382385
-0.0013021
0.00174108
-0.000438977
0.00357432
0.00110123
-0.00467555
0.0071872
-0.00197235
-0.00521484
-0.00212746
-0.000711101
-0.00172953
0.00234431
0.00377276
-0.00492759
0.00115482
-0.00280262
0.00373743
0.00113372
7.33545e-06
-0.00114105
0.00148101
0.00090756
-0.00550705
0.000598512
0.000431091
0.000359733
0.00292153
-0.00112161
-0.00252057
0.00247944
4.11356e-05
0.000504805
-0.00184049
0.00133568
-0.0038691
-0.00119305
0.00108896
-0.00254432
-0.00529912
0.000151315
-0.00125152
-0.000522013
0.00177353
0.00563764
-0.00449262
0.000104298
0.000283824
-0.00301608
0.00318889
0.00144081
-0.00107185
-0.000368962
0.00346895
0.00475964
-0.000956717
0.000644279
-0.00327724
0.00109312
-0.000975778
-5.2882e-05
0.000461479
0.000394001
-1.97142e-05
-0.00207237
-0.000453267
0.00153396
-0.000911799
-0.0034974
0.000764594
-2.68672e-05
-1.33177e-05
0.00599853
-0.00492076
0.00522182
-0.00439445
9.04776e-06
-0.000615146
0.000606098
0.00194887
-0.000458381
-0.00149049
0.00335876
-0.000757023
-0.002568
0.00336098
-0.000792975
-0.00183398
0.000531877
0.0012776
-0.000951569
-0.000326033
-0.000118766
-0.000210171
0.00205908
-0.000548252
-0.00151082
-0.0013826
-0.00239443
-0.000126134
0.00208947
-0.00274544
0.000655972
0.00280643
-0.000750517
-0.00205592
0.00410338
-0.00434972
0.000314415
0.00224174
-0.000632739
-0.000682731
0.000834751
-0.0036792
0.00503589
0.00122123
0.000467433
-0.00171895
-0.00286536
0.00209654
0.00363302
0.0015888
-0.00113951
-0.00383061
-0.00114358
0.0013034
-0.00171762
0.000414221
0.00367527
-0.00318602
-0.000193845
0.00113599
-3.84824e-05
-0.00026955
0.000308033
-0.000696421
-0.00189837
0.00377226
-0.0049092
0.00113694
-0.00186411
0.00235321
-0.000489098
-0.00115532
0.00213256
0.000751025
-0.00226241
0.00375473
-0.00149232
0.00150476
-0.001141
-0.000363759
-0.00101121
0.000278722
0.0001814
-0.000434062
0.000252662
-0.00042493
-0.0012279
-0.00248014
0.00250413
-2.3992e-05
0.00144916
-0.00371158
0.00162497
-0.000372258
0.000372077
-0.000424881
5.28045e-05
-0.000827115
0.000593651
0.000233463
-0.000794764
-0.00285056
0.000831009
0.00201956
-0.0019959
-0.000849498
-0.000716291
0.00156579
-0.00524397
0.00389608
0.00134789
-0.00125847
0.00126752
-0.000576389
-0.000115925
0.000692314
0.00286857
-0.000736018
-0.000770386
-0.000160182
0.000930569
0.00184021
-0.00137277
0.00169759
-0.000394191
-0.000165353
-0.000634993
-0.00420461
0.00483961
-0.00139052
0.00283087
0.00427656
-0.00239912
-8.10144e-05
0.00312071
-0.00473535
0.000733423
0.00158134
-0.00231477
0.00200946
-0.00279956
0.0019941
-0.000726591
-0.00126751
-0.00179591
0.000455801
0.00134011
0.00431865
0.00286855
-0.00551866
0.00133602
0.00418264
-0.00125142
-0.00399255
-0.000460081
-0.00133583
-0.001001
-0.000561778
-0.0012925
-0.000425125
0.00114446
-0.000532832
0.00150774
-0.000974912
-0.0017571
0.00129701
-0.000944477
-0.000207202
0.00115168
0.0021715
-0.00286738
0.000695891
-1.17725e-05
0.000206157
0.00103474
0.00606433
-0.00141063
-0.00465371
-0.0020353
-0.00187305
0.0013376
0.000535454
0.00127089
-0.000978796
-0.000292095
-0.00229217
-0.00102707
0.00331925
-0.00267021
0.00358279
-0.000912584
-0.000920248
0.00111585
8.16797e-06
-0.00112401
0.00376124
-0.00493697
0.00117573
0.00174748
-0.00135539
-0.000392084
0.00242708
-0.00122487
0.00273932
-0.000635793
-0.000191321
-0.00408965
0.00229169
-0.00180267
-0.000489012
0.000560729
-0.00200916
0.00144843
-0.00251507
-0.000842375
0.00085997
-0.000658839
-0.000201132
-0.000180549
-0.00364307
0.000972855
0.000648303
-0.000466903
0.00259121
0.000991586
0.000319323
0.00130833
0.000685767
-0.00160322
0.00233664
-0.00150239
0.000987901
0.000514491
0.00355021
-0.000686611
-0.00381062
0.00610361
-0.00114796
-0.00248854
0.00683171
-0.00434316
-0.000888364
0.00356815
-0.00414181
0.000932288
-0.00210134
0.00424937
-0.000692386
-0.00161907
-0.00245072
0.00171267
0.000738052
-0.0012799
0.000424526
-0.000463166
3.86405e-05
-0.00137543
-0.000776746
-0.000153621
0.000930367
-0.00156341
0.0013623
0.000201104
0.00203738
0.000810143
6.26434e-05
-0.0013002
-0.000555832
-0.000826347
-0.00242068
-0.000478844
-0.00139421
-0.000171356
0.00159261
-0.000180682
0.00341122
-0.000513991
0.00133897
0.000200641
-0.000808871
-0.000978587
-0.00192998
0.00247687
-0.000546891
-0.00104394
-0.00572891
0.00351081
0.00148116
-0.000617063
0.00288837
-0.00121076
0.000963449
-0.00135893
-0.00453033
0.00588925
0.000620378
-0.00255036
0.000741113
-0.00368988
0.00269823
0.000991642
0.000889444
-0.00142228
0.00222568
-0.0031183
0.000892608
0.00119605
-0.00342972
0.00223367
0.000861055
0.00168781
-0.00254887
-0.000174693
0.00179323
0.00274278
0.00107983
0.00361911
-0.00041352
0.000783012
0.00315854
-0.00402638
0.000983763
-0.00327593
0.000435649
0.00412582
0.00147287
-1.10336e-05
-0.000274335
0.000285368
-0.00619336
0.00385632
0.00233705
-0.000829422
-0.00261498
0.00344441
0.00263978
-0.00177873
-0.00369696
0.000894339
-0.00132138
-0.000435717
-0.000152871
0.00131977
0.00372807
0.00123016
0.000224176
0.00130879
-0.000992445
-0.000316344
0.000894528
0.000586632
-0.000313801
0.00376784
-0.0049347
0.00116686
0.00307869
-0.00085302
-0.00139852
0.00190333
0.00125772
-0.00355419
0.00229647
-0.00116913
0.00145601
0.000678339
-0.00213435
0.000193036
-0.00020407
0.00219881
-0.000861696
-0.00125112
0.000329993
0.000925406
-0.000349002
-0.000576405
0.00353268
-0.00227496
-0.000508716
0.0022916
-0.00178288
0.00101929
-0.00296851
0.00208212
0.000886396
0.000106025
-8.67337e-07
0.00466987
0.000541385
-0.00570346
-0.00519684
0.00392757
0.00126927
-0.00107847
-0.00269441
0.00377288
0.00222131
0.00372509
0.0028269
-0.00375381
0.000926916
-0.00146986
0.00110053
-0.000956265
0.00337425
-0.00241799
0.00149683
0.000562247
-0.00378524
-0.00240812
0.00108137
-0.00230369
0.00321472
-0.000911034
0.00343465
-0.000826056
0.000397068
-0.000813191
0.00254311
0.000891534
-0.00063531
0.00431058
-0.00130871
0.00171618
-0.000407466
0.00199738
-0.0012737
-0.000390021
0.00607686
-0.00492219
-0.000460168
0.000858523
-0.00246175
-0.00539151
-0.00172224
0.000413529
-0.000678148
0.000101759
-0.000870053
0.000213024
-0.00146814
0.000670597
0.00157114
-0.000905432
0.000135046
0.000805282
0.00251592
-0.00332121
-0.00109513
0.00187365
-0.00194678
-0.000474316
0.00196106
-0.00148674
-0.000884504
-0.002084
-0.00195167
0.00147735
-0.00265745
0.00346272
-0.00163978
0.000585939
0.00105384
-0.00098189
0.00357309
0.00601891
-0.00230057
-0.00130244
-0.000419798
-0.00174064
0.00110032
0.000640323
0.000905572
-0.00452003
0.00361446
-0.00131331
0.000544913
0.000768395
-0.00403533
-0.0011615
0.000191723
-0.0011362
0.00193875
-0.000723202
-0.00134622
-0.0038046
0.00515083
0.00100003
7.16527e-05
0.00329703
-0.00252779
-0.000769237
0.000143211
0.00127209
0.000876684
-0.000669652
-0.000207032
-0.00134489
-0.00101773
-0.00108443
0.00512355
-0.00403911
0.000633759
-0.00249787
0.000128693
0.00129331
0.00377355
-0.00496206
0.00118851
0.00287963
-0.00204862
0.000101867
-0.000168364
6.64972e-05
0.00102934
0.000138088
0.000104273
0.00235982
0.00370452
-0.000583122
-0.000807404
0.00139053
0.000652902
0.00177126
-0.00242417
0.00240265
-0.00170485
-0.000697807
0.00047577
0.0014731
0.000426097
-0.000512702
-0.000800608
0.000599122
-0.00532377
0.000690379
-2.98568e-05
-0.00116114
-0.0013176
-0.00379032
0.00510792
0.00103181
0.00143699
-0.00189536
0.00254634
-0.000394686
-0.00490878
0.00530347
0.000120604
-1.87372e-05
0.000659805
0.00127895
0.00272908
0.000943586
-0.00367266
0.00137502
0.000471658
0.00258732
-0.0036402
0.00454577
0.00277381
0.000843612
-0.00361742
0.0016374
-0.000840477
-0.000796926
0.0013281
-0.0010186
-0.000309493
0.00042368
0.00106001
-0.00470021
0.000217845
-6.9543e-06
0.00019999
0.00604001
-0.0012795
0.00152591
-0.00212867
0.00252756
-0.00182327
-0.000704294
0.000863383
-0.00254596
0.00168258
0.0052346
-0.00281651
-0.000926689
-0.00158734
0.00501001
0.00148634
-0.00178138
0.000295036
0.000499724
-0.000103773
-0.00039595
-0.000996485
-0.0031396
0.00413609
0.00074296
0.00181914
-0.0025621
0.00176754
-0.000281202
0.00224834
0.00140596
-0.000861049