/*--------------------------------*- C++ -*----------------------------------*\
  =========                 |
  \\      /  F ield         | OpenFOAM: The Open Source CFD Toolbox
   \\    /   O peration     | Website:  https://openfoam.org
    \\  /    A nd           | Version:  7
     \\/     M anipulation  |
\*---------------------------------------------------------------------------*/
FoamFile
{
    version     2.0;
    format      ascii;
    class       volScalarField;
    location    "12.5";
    object      T;
}
// * * * * * * * * * * * * * * * * * * * * * * * * * * * * * * * * * * * * * //

dimensions      [0 0 0 1 0 0 0];

internalField   nonuniform List<scalar> 
2413
(
1.65165
1.67443
1.69539
1.71524
1.73413
1.75235
1.76965
1.78579
1.80052
1.81348
1.82497
1.83537
1.84615
1.85822
1.87067
1.88887
1.9036
1.90554
1.8999
1.88744
1.87241
1.85684
1.84463
1.83374
1.82284
1.81197
1.80144
1.79149
1.78204
1.77235
1.76163
1.74977
1.73727
1.72486
1.7132
1.70275
1.69374
1.6861
1.67954
1.67385
1.66896
1.66512
1.66269
1.66181
1.6623
1.66402
1.66733
1.67191
1.67709
1.68232
1.6871
1.37762
1.36983
1.36451
1.36094
1.35804
1.35552
1.35344
1.35151
1.34972
1.3481
1.34669
1.34551
1.34447
1.34356
1.34271
1.34197
1.34127
1.34064
1.34
1.3393
1.33844
1.33741
1.33625
1.33497
1.33386
1.33258
1.33213
1.3329
1.33645
1.34453
1.35858
1.37898
1.40519
1.43525
1.46738
1.49933
1.52994
1.55782
1.58325
1.60609
1.62704
1.64618
1.66392
1.68015
1.69492
1.70801
1.71937
1.72929
1.73859
1.74879
1.76012
1.77351
1.79357
1.80865
1.81061
1.80493
1.7926
1.7787
1.7644
1.75246
1.74259
1.73342
1.72455
1.71603
1.70827
1.70161
1.69572
1.68959
1.68249
1.67443
1.66581
1.65711
1.64882
1.64133
1.6348
1.62915
1.62431
1.62025
1.61734
1.61592
1.61592
1.61717
1.6201
1.62461
1.63026
1.6364
1.64235
1.64766
1.37673
1.36871
1.36318
1.35959
1.35668
1.35412
1.35202
1.35007
1.3482
1.34646
1.34491
1.34359
1.34251
1.34163
1.34086
1.34018
1.33954
1.339
1.33849
1.33794
1.33722
1.33635
1.3353
1.33405
1.33272
1.33119
1.32977
1.32832
1.32774
1.32835
1.33127
1.33773
1.34882
1.36456
1.38478
1.40804
1.43339
1.45916
1.48474
1.50896
1.53154
1.55214
1.57094
1.58781
1.60286
1.61591
1.62714
1.63691
1.64627
1.65663
1.66762
1.68233
1.70267
1.71623
1.71759
1.71196
1.70025
1.6877
1.67524
1.66358
1.65441
1.64665
1.63943
1.63263
1.62668
1.62228
1.61981
1.61777
1.61499
1.61101
1.60594
1.60014
1.59408
1.58825
1.583
1.57844
1.57467
1.57182
1.57022
1.56997
1.5709
1.57343
1.57737
1.58285
1.58922
1.59588
1.60226
1.60785
1.37552
1.36721
1.36145
1.35777
1.3549
1.35238
1.35032
1.34846
1.34664
1.3449
1.34333
1.34199
1.34093
1.34014
1.33948
1.3389
1.33834
1.33784
1.33737
1.33692
1.3363
1.33551
1.3345
1.33334
1.33199
1.33038
1.32891
1.32705
1.32538
1.32379
1.32293
1.32297
1.32469
1.32889
1.33648
1.34725
1.3614
1.37804
1.39673
1.4163
1.43625
1.45581
1.47453
1.49181
1.5073
1.52078
1.53249
1.54292
1.55316
1.56431
1.57568
1.59218
1.61166
1.62277
1.62394
1.61874
1.60871
1.59813
1.58786
1.57757
1.56937
1.56298
1.55751
1.55258
1.54863
1.54656
1.54703
1.54854
1.54978
1.54958
1.5481
1.54532
1.54178
1.538
1.53438
1.53119
1.52868
1.52713
1.52667
1.52738
1.5294
1.53289
1.53776
1.54378
1.55046
1.55729
1.56377
1.56933
1.37399
1.36539
1.35938
1.35555
1.3528
1.35043
1.34851
1.34685
1.3452
1.34357
1.34208
1.34077
1.33974
1.33901
1.33842
1.33791
1.33743
1.33698
1.33652
1.33608
1.33554
1.33478
1.33379
1.33268
1.3313
1.32972
1.32816
1.3263
1.32456
1.32265
1.32092
1.31915
1.31787
1.31715
1.31781
1.31981
1.32402
1.33045
1.33927
1.35005
1.36256
1.3761
1.39007
1.40383
1.41699
1.42923
1.44053
1.45122
1.46214
1.47371
1.48577
1.50335
1.52136
1.53054
1.53236
1.52818
1.52065
1.5127
1.5052
1.49737
1.4908
1.4862
1.4828
1.48027
1.47858
1.47896
1.48128
1.48565
1.49051
1.49414
1.49592
1.49603
1.49518
1.49367
1.4919
1.49024
1.48906
1.4887
1.48921
1.49081
1.49365
1.49784
1.50306
1.50906
1.51547
1.52188
1.52786
1.5329
1.37226
1.3634
1.3572
1.35321
1.35063
1.34852
1.3468
1.34536
1.34393
1.34246
1.34106
1.33981
1.33881
1.33808
1.33748
1.33698
1.33653
1.33613
1.33569
1.33523
1.33474
1.33405
1.33308
1.33201
1.33062
1.32911
1.32753
1.32572
1.32401
1.32215
1.3204
1.31848
1.31672
1.31485
1.31336
1.31214
1.31183
1.31233
1.31405
1.31722
1.32196
1.328
1.33502
1.3427
1.35075
1.35891
1.36713
1.3758
1.38545
1.39583
1.40856
1.42563
1.4407
1.44922
1.45213
1.4495
1.44499
1.44003
1.43512
1.43035
1.42607
1.42342
1.42216
1.42197
1.42261
1.42448
1.42836
1.43459
1.44195
1.44852
1.45318
1.45598
1.45741
1.45794
1.45792
1.45771
1.45772
1.45823
1.45942
1.46156
1.46477
1.46899
1.47395
1.47939
1.48505
1.49061
1.49566
1.49979
1.37056
1.36154
1.3552
1.35108
1.3486
1.34678
1.34528
1.34402
1.34277
1.34142
1.34008
1.33887
1.33786
1.33707
1.33642
1.33588
1.33545
1.33508
1.33469
1.33426
1.33381
1.33323
1.33237
1.3314
1.33007
1.32868
1.32714
1.32542
1.32375
1.32196
1.32026
1.31844
1.31675
1.3149
1.31321
1.31143
1.30988
1.30853
1.30768
1.30744
1.30782
1.3088
1.31041
1.3127
1.31562
1.31916
1.32347
1.32899
1.33578
1.34412
1.35654
1.37109
1.38272
1.38976
1.39311
1.39208
1.38983
1.38688
1.38407
1.38175
1.37971
1.37844
1.37889
1.38021
1.38234
1.38534
1.38982
1.39664
1.40532
1.41394
1.4209
1.42585
1.42919
1.43145
1.43291
1.43389
1.43481
1.43601
1.43758
1.43983
1.44287
1.44664
1.45091
1.45538
1.45992
1.46425
1.46795
1.47082
1.36916
1.36004
1.35361
1.34939
1.34686
1.34522
1.3439
1.34271
1.34155
1.34029
1.33899
1.33779
1.33673
1.33585
1.33513
1.33457
1.33413
1.33383
1.33353
1.33321
1.33285
1.33242
1.33177
1.33095
1.32979
1.32857
1.32708
1.32546
1.32384
1.32213
1.32045
1.31869
1.31704
1.31529
1.31365
1.31197
1.3104
1.30896
1.30772
1.30654
1.30544
1.30451
1.3038
1.30344
1.30355
1.30423
1.3059
1.30881
1.31306
1.32065
1.33141
1.34278
1.35129
1.35656
1.35944
1.35937
1.35812
1.35614
1.35444
1.35324
1.35254
1.3524
1.3531
1.35502
1.35781
1.36113
1.36533
1.37148
1.37998
1.38952
1.39825
1.40498
1.40975
1.41309
1.4155
1.41739
1.41896
1.42055
1.42233
1.42437
1.42689
1.42984
1.43316
1.43649
1.43976
1.44269
1.44497
1.44654
1.36819
1.359
1.35243
1.34806
1.34534
1.34368
1.34246
1.34131
1.34017
1.33896
1.33769
1.33647
1.33536
1.3344
1.33366
1.33313
1.33276
1.33255
1.3324
1.33225
1.33204
1.33174
1.33132
1.33071
1.32976
1.32873
1.3273
1.32584
1.3243
1.32268
1.32102
1.31933
1.31769
1.31602
1.31445
1.31288
1.31137
1.30995
1.30855
1.30724
1.30596
1.30473
1.3035
1.3023
1.30144
1.30134
1.30206
1.30374
1.30762
1.31487
1.32419
1.33284
1.339
1.34272
1.34488
1.34507
1.34399
1.34237
1.34104
1.3401
1.33968
1.33992
1.34058
1.34219
1.34477
1.34783
1.35129
1.35606
1.36321
1.37255
1.38235
1.39084
1.39708
1.4012
1.4042
1.4066
1.40861
1.41039
1.41217
1.41402
1.4159
1.41796
1.42019
1.42232
1.42419
1.42566
1.42655
1.42672
1.36754
1.35829
1.35154
1.34697
1.34398
1.34213
1.34086
1.3397
1.33855
1.33739
1.3362
1.33502
1.33392
1.33295
1.33224
1.33181
1.33157
1.33146
1.33145
1.33147
1.33142
1.33125
1.33097
1.33056
1.32983
1.32903
1.32776
1.32647
1.325
1.32348
1.32187
1.32025
1.31859
1.31697
1.31542
1.31393
1.31248
1.31112
1.30973
1.30837
1.30695
1.30553
1.30409
1.30281
1.30195
1.30192
1.30256
1.30426
1.30875
1.31597
1.32413
1.33102
1.33583
1.33865
1.34035
1.34066
1.33972
1.33826
1.33697
1.33595
1.33537
1.33543
1.33587
1.33685
1.3387
1.34118
1.34382
1.34718
1.35251
1.36042
1.36999
1.37928
1.38693
1.39266
1.39669
1.39957
1.40186
1.40378
1.40542
1.407
1.40841
1.40962
1.41078
1.41175
1.41239
1.41257
1.4123
1.41146
1.36704
1.35773
1.35078
1.34596
1.34269
1.34058
1.33915
1.33795
1.33682
1.33576
1.3347
1.33365
1.33265
1.33175
1.33111
1.33079
1.33065
1.33062
1.33068
1.33081
1.33087
1.33081
1.33063
1.33035
1.32983
1.32919
1.3281
1.32703
1.32568
1.32428
1.32274
1.32122
1.3196
1.31803
1.31649
1.31504
1.31362
1.31229
1.31092
1.30957
1.30814
1.30667
1.3052
1.30391
1.30314
1.30327
1.30391
1.30622
1.31147
1.31862
1.32564
1.33149
1.33563
1.33811
1.33964
1.34002
1.33922
1.33787
1.33658
1.33549
1.33473
1.3345
1.33466
1.33517
1.33618
1.33791
1.33989
1.34214
1.34577
1.35172
1.36016
1.36946
1.37805
1.38521
1.39062
1.39446
1.39716
1.39923
1.40081
1.4021
1.40314
1.40373
1.40394
1.4039
1.40359
1.40286
1.40167
1.4
1.36656
1.3572
1.35007
1.34501
1.34149
1.33914
1.33752
1.33627
1.33518
1.33426
1.33338
1.33251
1.33166
1.33085
1.33027
1.33001
1.32988
1.32987
1.32993
1.33008
1.33018
1.3302
1.33008
1.32987
1.32951
1.32899
1.32809
1.32723
1.32605
1.32485
1.32346
1.3221
1.32058
1.31912
1.31764
1.31626
1.31487
1.31356
1.31221
1.31086
1.30942
1.30796
1.30654
1.30537
1.3048
1.30506
1.30592
1.30908
1.31486
1.32173
1.32788
1.33274
1.33622
1.33845
1.3399
1.34041
1.33976
1.33856
1.33732
1.33615
1.33526
1.33475
1.33454
1.3347
1.33512
1.33604
1.33754
1.33908
1.34148
1.34561
1.35243
1.36138
1.37054
1.37848
1.3849
1.38988
1.39345
1.39581
1.39743
1.39847
1.39913
1.39932
1.39892
1.39818
1.39719
1.39579
1.39398
1.39182
1.36606
1.35665
1.34939
1.34415
1.34044
1.33792
1.33616
1.33486
1.3338
1.33299
1.33228
1.33158
1.33088
1.33021
1.3297
1.32942
1.32924
1.32915
1.32914
1.3292
1.32927
1.32929
1.3292
1.32903
1.32876
1.32838
1.3277
1.32702
1.32605
1.32508
1.32389
1.32276
1.32144
1.32019
1.31886
1.31761
1.31631
1.31505
1.31373
1.31238
1.31094
1.30949
1.30812
1.30709
1.30668
1.30698
1.3083
1.31214
1.31821
1.32466
1.33008
1.33431
1.33736
1.33929
1.34058
1.34113
1.34061
1.3396
1.33843
1.33717
1.33606
1.3352
1.33461
1.33433
1.33445
1.3348
1.33583
1.33701
1.33864
1.34139
1.34619
1.3537
1.36281
1.37174
1.37927
1.38511
1.3896
1.39277
1.39467
1.39564
1.39596
1.39585
1.39524
1.39404
1.39258
1.39075
1.38861
1.38624
1.36554
1.35611
1.34875
1.34338
1.33956
1.33693
1.33509
1.33373
1.33269
1.33193
1.33132
1.33075
1.33018
1.32965
1.32921
1.32887
1.32857
1.32835
1.32822
1.32816
1.32812
1.3281
1.32802
1.32789
1.32771
1.32746
1.327
1.32655
1.32582
1.32502
1.32408
1.32321
1.32217
1.32118
1.3201
1.31903
1.31789
1.31673
1.31548
1.31416
1.31273
1.31129
1.30996
1.30901
1.30868
1.309
1.31082
1.31512
1.32124
1.32716
1.33188
1.33558
1.33834
1.34013
1.34131
1.34186
1.34143
1.34057
1.33944
1.33807
1.33673
1.33556
1.33464
1.33399
1.33382
1.33394
1.33444
1.33552
1.33674
1.33864
1.3418
1.34732
1.35533
1.36436
1.37286
1.37988
1.38523
1.38925
1.39199
1.39331
1.39352
1.39317
1.39242
1.39108
1.38934
1.38725
1.38492
1.38249
1.365
1.35554
1.34809
1.3426
1.3387
1.336
1.33412
1.33276
1.33172
1.33097
1.33038
1.32985
1.32933
1.32884
1.3284
1.328
1.32762
1.3273
1.32706
1.32691
1.32681
1.32675
1.32669
1.32661
1.32653
1.3264
1.32613
1.32584
1.32538
1.32487
1.32422
1.32362
1.32284
1.3221
1.32125
1.32039
1.31944
1.31841
1.31727
1.31599
1.31461
1.3132
1.31191
1.311
1.31065
1.311
1.31327
1.31783
1.32384
1.32923
1.33334
1.33658
1.33912
1.34084
1.34197
1.34253
1.34217
1.3414
1.34026
1.33879
1.33724
1.33582
1.33465
1.33377
1.33333
1.3333
1.33353
1.33443
1.33547
1.33684
1.33901
1.34267
1.34878
1.3569
1.3656
1.37361
1.38014
1.38502
1.38857
1.39084
1.39165
1.39122
1.39036
1.38906
1.38721
1.38494
1.38246
1.38
1.36431
1.35481
1.34726
1.34166
1.3377
1.33498
1.33311
1.33175
1.33068
1.32989
1.32927
1.32871
1.32818
1.32767
1.32722
1.32679
1.32639
1.32603
1.32576
1.32558
1.32545
1.32538
1.32534
1.32531
1.32528
1.32527
1.32522
1.3251
1.3249
1.32467
1.32431
1.32391
1.32335
1.32278
1.3221
1.32139
1.32058
1.31968
1.31865
1.31748
1.31618
1.31484
1.31361
1.31272
1.31233
1.31278
1.31538
1.3201
1.32595
1.33092
1.33456
1.33745
1.33985
1.34158
1.34271
1.34327
1.34293
1.34214
1.34094
1.33938
1.33768
1.33607
1.33472
1.33371
1.3331
1.33293
1.33306
1.33362
1.33462
1.33571
1.33722
1.33966
1.34379
1.35023
1.35818
1.36639
1.3738
1.3798
1.38427
1.3874
1.38928
1.38972
1.38902
1.38776
1.38602
1.38369
1.3811
1.37855
1.36327
1.35369
1.34606
1.34038
1.33638
1.33367
1.33185
1.3305
1.32942
1.32858
1.3279
1.32728
1.32672
1.32619
1.32572
1.32531
1.32495
1.32462
1.32437
1.3242
1.32408
1.32402
1.32399
1.32401
1.32406
1.32416
1.32427
1.32433
1.3243
1.3242
1.32404
1.32379
1.32339
1.32295
1.32238
1.32173
1.32101
1.3202
1.31928
1.31824
1.31707
1.31583
1.31466
1.3138
1.31339
1.31401
1.31689
1.3217
1.32751
1.33226
1.33564
1.33832
1.34067
1.34248
1.34361
1.34413
1.34374
1.34286
1.34156
1.33995
1.33817
1.33644
1.33496
1.33382
1.33309
1.33279
1.33286
1.33318
1.33398
1.3349
1.33598
1.33766
1.34037
1.3448
1.35129
1.35883
1.36641
1.37321
1.37874
1.38284
1.38568
1.38729
1.38762
1.38682
1.38533
1.3833
1.38072
1.37804
1.36168
1.35204
1.34435
1.33864
1.33466
1.332
1.33025
1.32894
1.32786
1.327
1.32627
1.3256
1.32499
1.32443
1.32397
1.32362
1.32331
1.32305
1.32287
1.32274
1.32266
1.32263
1.32264
1.32271
1.32283
1.32294
1.32305
1.32313
1.32318
1.32315
1.32308
1.32294
1.32268
1.32234
1.32188
1.32133
1.32072
1.32002
1.31923
1.31831
1.31726
1.31611
1.31498
1.31415
1.31376
1.31459
1.31775
1.3227
1.32868
1.33341
1.33672
1.33928
1.34157
1.3434
1.34448
1.34489
1.34443
1.34343
1.34206
1.34045
1.33868
1.33692
1.33534
1.33412
1.33324
1.33281
1.33275
1.33286
1.3333
1.33403
1.33485
1.33597
1.33782
1.34067
1.34521
1.35149
1.35856
1.36558
1.37187
1.37702
1.38086
1.38346
1.38493
1.38518
1.38452
1.383
1.38085
1.37822
1.35948
1.34982
1.34215
1.33649
1.3326
1.33005
1.32839
1.32714
1.32608
1.3252
1.32443
1.3237
1.32303
1.32242
1.32196
1.32164
1.32139
1.32121
1.32111
1.32107
1.32107
1.32111
1.32117
1.32125
1.32132
1.32138
1.32142
1.32142
1.32143
1.32139
1.32129
1.32116
1.32098
1.32074
1.32044
1.32008
1.31966
1.31916
1.31857
1.31783
1.31692
1.31587
1.31482
1.31405
1.31374
1.31476
1.31807
1.32323
1.32948
1.33431
1.33763
1.34006
1.3422
1.34395
1.34494
1.34524
1.34474
1.34366
1.34227
1.34069
1.33898
1.33723
1.33563
1.33431
1.33332
1.3327
1.33238
1.33231
1.33239
1.33278
1.33337
1.33414
1.33536
1.33723
1.34015
1.34469
1.35072
1.35739
1.36396
1.36989
1.37478
1.37844
1.38084
1.38213
1.38258
1.38188
1.3804
1.37831
1.35679
1.34717
1.33959
1.33408
1.33035
1.32795
1.32636
1.32517
1.32412
1.32322
1.32241
1.32159
1.32081
1.32012
1.3196
1.31929
1.31907
1.31896
1.31896
1.31902
1.31913
1.31926
1.31937
1.31944
1.31946
1.31943
1.31937
1.31925
1.31915
1.319
1.31881
1.31862
1.31842
1.31824
1.31806
1.31787
1.31766
1.31742
1.31709
1.31663
1.31597
1.31514
1.31423
1.31358
1.31339
1.31448
1.31785
1.32317
1.32968
1.33467
1.33801
1.34027
1.34212
1.34367
1.34457
1.34483
1.3443
1.34321
1.34182
1.34028
1.33864
1.33697
1.33538
1.33399
1.33286
1.33199
1.3314
1.33107
1.33089
1.33096
1.3313
1.33178
1.33256
1.33383
1.33576
1.33877
1.34336
1.34922
1.35561
1.36187
1.3675
1.37216
1.3756
1.37781
1.37916
1.37942
1.37883
1.37758
1.3538
1.34426
1.33683
1.33154
1.32801
1.32576
1.32431
1.3232
1.32215
1.32116
1.32024
1.31931
1.31837
1.31751
1.31687
1.31647
1.31627
1.3162
1.31628
1.31647
1.31672
1.31696
1.31714
1.31724
1.31725
1.31717
1.31702
1.31678
1.31652
1.31621
1.31589
1.31561
1.31538
1.31521
1.31511
1.31504
1.315
1.31498
1.31489
1.3147
1.3143
1.31367
1.31291
1.31236
1.31225
1.31333
1.31665
1.32199
1.32879
1.33397
1.33727
1.33935
1.34087
1.34215
1.34297
1.3432
1.3427
1.34162
1.34022
1.33875
1.33722
1.33566
1.33411
1.33266
1.33138
1.33033
1.32955
1.32903
1.3287
1.32851
1.32865
1.32894
1.3294
1.33025
1.33161
1.33368
1.33687
1.34161
1.34741
1.35361
1.35958
1.36489
1.36925
1.37248
1.37468
1.37581
1.37599
1.37557
1.3507
1.34128
1.33405
1.329
1.32575
1.32376
1.3225
1.32152
1.32046
1.31932
1.31817
1.31696
1.31576
1.31468
1.31381
1.31326
1.313
1.31293
1.31307
1.3134
1.31381
1.31419
1.31451
1.31471
1.31479
1.31473
1.31455
1.31424
1.31387
1.31342
1.31298
1.31261
1.31234
1.31217
1.31212
1.31216
1.31224
1.31235
1.31243
1.3124
1.31214
1.31161
1.31089
1.31032
1.31017
1.31107
1.31409
1.31914
1.32615
1.33158
1.33481
1.33668
1.3379
1.33895
1.33974
1.34004
1.3397
1.33877
1.33746
1.33607
1.33467
1.33323
1.33176
1.33032
1.32901
1.3279
1.32706
1.32647
1.32608
1.32582
1.32578
1.32597
1.32627
1.32684
1.32776
1.32926
1.33151
1.33497
1.33985
1.34563
1.35162
1.3573
1.36228
1.36633
1.36943
1.37149
1.37244
1.37271
1.34762
1.33838
1.33141
1.32665
1.32368
1.32195
1.32087
1.32001
1.31898
1.31773
1.31638
1.31483
1.31322
1.31174
1.31059
1.30985
1.30947
1.30935
1.30948
1.30989
1.31046
1.31104
1.31155
1.31193
1.31215
1.31219
1.31211
1.31186
1.31149
1.311
1.31051
1.3101
1.30978
1.30959
1.30956
1.30962
1.30974
1.3099
1.31001
1.31003
1.30982
1.30928
1.30849
1.30778
1.30749
1.30805
1.31059
1.31515
1.3223
1.32807
1.33139
1.33309
1.33409
1.33494
1.33577
1.33622
1.33615
1.33543
1.33422
1.33293
1.33167
1.33037
1.32902
1.32768
1.32647
1.32543
1.32465
1.32409
1.32374
1.3235
1.3234
1.32355
1.32377
1.32415
1.32474
1.32575
1.32732
1.32972
1.33337
1.33835
1.3441
1.34995
1.35539
1.36006
1.36391
1.36676
1.36859
1.36965
1.34465
1.33565
1.32894
1.32442
1.32161
1.31996
1.31901
1.31828
1.31732
1.31606
1.31462
1.31292
1.31099
1.30909
1.3075
1.30643
1.3059
1.30573
1.30577
1.30615
1.30682
1.30759
1.30833
1.30895
1.30939
1.30961
1.30967
1.30958
1.30933
1.30895
1.30852
1.30812
1.30781
1.30762
1.30758
1.30763
1.30774
1.30786
1.30793
1.30793
1.30775
1.30715
1.30626
1.30535
1.30484
1.30496
1.30689
1.31077
1.3177
1.32375
1.32724
1.32887
1.32978
1.33054
1.33146
1.3322
1.33243
1.33205
1.33125
1.33026
1.32919
1.32804
1.32688
1.32572
1.32468
1.3238
1.32313
1.32265
1.32235
1.32218
1.32211
1.32219
1.32232
1.32252
1.32281
1.32334
1.32434
1.32597
1.32858
1.33252
1.33765
1.3434
1.34917
1.35441
1.3589
1.36234
1.36485
1.36666
1.34175
1.33296
1.32642
1.32197
1.31922
1.31762
1.31674
1.31613
1.31527
1.31404
1.3126
1.31085
1.30885
1.30679
1.30491
1.30345
1.30258
1.30226
1.30222
1.30248
1.30311
1.30398
1.30492
1.30579
1.30653
1.30704
1.30733
1.3074
1.30734
1.30715
1.30688
1.30658
1.30634
1.30617
1.30609
1.30609
1.30612
1.30616
1.30617
1.30615
1.306
1.30542
1.30452
1.30346
1.30268
1.30249
1.30387
1.30678
1.31312
1.31948
1.3232
1.32503
1.32605
1.32688
1.32793
1.32913
1.32996
1.33031
1.32994
1.32911
1.32815
1.32715
1.32605
1.32499
1.32407
1.3233
1.32272
1.32229
1.32203
1.32188
1.32182
1.32184
1.32188
1.32195
1.32204
1.32227
1.32281
1.3239
1.32571
1.32863
1.33275
1.33808
1.34396
1.34973
1.35487
1.35896
1.36204
1.36443
1.33862
1.32999
1.32359
1.31925
1.31656
1.31499
1.31414
1.31358
1.3128
1.31164
1.31024
1.30857
1.30665
1.30464
1.30276
1.30114
1.29995
1.29933
1.29915
1.29923
1.2997
1.30051
1.30151
1.30255
1.30354
1.30436
1.30498
1.30535
1.30552
1.30555
1.30547
1.30531
1.30517
1.30507
1.305
1.30499
1.30499
1.30501
1.30503
1.30504
1.30496
1.30451
1.30366
1.30252
1.30154
1.30119
1.30192
1.30387
1.3092
1.31599
1.32051
1.32295
1.32424
1.32513
1.32622
1.32764
1.32888
1.32964
1.32981
1.3293
1.32837
1.32732
1.32633
1.32543
1.32461
1.32392
1.32341
1.32306
1.32288
1.32281
1.32278
1.32279
1.3228
1.32279
1.32278
1.32282
1.32304
1.32365
1.3248
1.32689
1.33029
1.3348
1.34031
1.34621
1.35191
1.35682
1.3606
1.36348
1.3349
1.3265
1.32034
1.31621
1.31369
1.31223
1.31143
1.31094
1.31028
1.30922
1.3079
1.30638
1.30465
1.30286
1.30112
1.29955
1.29828
1.29745
1.29707
1.29698
1.29719
1.29777
1.29865
1.29967
1.30076
1.30176
1.30266
1.30337
1.30388
1.30423
1.30441
1.30448
1.30447
1.30444
1.30443
1.30447
1.30452
1.30458
1.30466
1.30473
1.30473
1.30451
1.30391
1.3029
1.30183
1.3013
1.30157
1.30288
1.30707
1.31409
1.31974
1.32289
1.32451
1.32559
1.32675
1.32827
1.32977
1.33079
1.33125
1.33103
1.33038
1.32948
1.32864
1.32794
1.32731
1.32676
1.3263
1.32597
1.32582
1.32575
1.32571
1.32568
1.32566
1.32564
1.32561
1.32563
1.32572
1.32606
1.3269
1.32828
1.33048
1.33403
1.33889
1.34454
1.35049
1.35597
1.36035
1.36367
1.33033
1.32241
1.3168
1.31311
1.31082
1.30946
1.30875
1.30839
1.30793
1.30714
1.30609
1.30485
1.3034
1.30187
1.30035
1.29893
1.2977
1.29678
1.29627
1.2961
1.29615
1.29647
1.29707
1.29786
1.29883
1.29986
1.30089
1.30185
1.30269
1.30335
1.30389
1.30432
1.30465
1.30494
1.3052
1.30543
1.30563
1.30582
1.30599
1.30616
1.30628
1.30624
1.3059
1.30513
1.30407
1.30326
1.30309
1.30394
1.30679
1.3137
1.32077
1.32511
1.32735
1.32862
1.32964
1.3309
1.33246
1.33379
1.33461
1.33484
1.33459
1.33409
1.33351
1.33298
1.33251
1.33211
1.33179
1.33158
1.3315
1.33145
1.33141
1.3314
1.33145
1.33156
)
;

boundaryField
{
    inlet
    {
        type            fixedValue;
        value           nonuniform 0();
    }
    outlet
    {
        type            inletOutlet;
        inletValue      nonuniform 0();
        value           nonuniform 0();
    }
    bottom
    {
        type            symmetryPlane;
    }
    top
    {
        type            symmetryPlane;
    }
    obstacle
    {
        type            zeroGradient;
    }
    front
    {
        type            empty;
    }
    back
    {
        type            empty;
    }
    procBoundary11to2
    {
        type            processor;
        value           nonuniform List<scalar> 
27
(
1.3881
1.38741
1.38643
1.38516
1.38368
1.38219
1.38089
1.3799
1.37916
1.37854
1.37794
1.37732
1.37669
1.37606
1.37533
1.37431
1.37277
1.37064
1.36798
1.365
1.36185
1.35869
1.35555
1.35244
1.34919
1.34535
1.34052
)
;
    }
    procBoundary11to3
    {
        type            processor;
        value           nonuniform List<scalar> 
89
(
1.73526
1.75789
1.78013
1.80223
1.82409
1.84555
1.86628
1.88557
1.90304
1.91802
1.93097
1.94198
1.95264
1.96415
1.97547
1.98986
2.00226
2.00313
1.99756
1.98511
1.96943
1.95395
1.94101
1.92869
1.9159
1.90278
1.88977
1.87698
1.86397
1.84985
1.83415
1.81721
1.79995
1.78338
1.76834
1.75532
1.74438
1.73522
1.72746
1.72082
1.71516
1.71064
1.70746
1.70595
1.70597
1.70689
1.70916
1.71269
1.71695
1.72139
1.72555
1.37822
1.3706
1.36545
1.36187
1.35897
1.35655
1.35454
1.35272
1.35109
1.34969
1.34852
1.34752
1.3466
1.34575
1.34494
1.34419
1.34345
1.34273
1.34195
1.34104
1.33997
1.33877
1.33764
1.33674
1.33631
1.33677
1.34007
1.34846
1.36405
1.38787
1.41923
1.45567
1.49434
1.53217
1.56733
1.59869
1.62672
1.62672
)
;
    }
    procBoundary11to4
    {
        type            processor;
        value           uniform 1.69093;
    }
    procBoundary11to12
    {
        type            processor;
        value           nonuniform List<scalar> 
26
(
1.65185
1.61228
1.5737
1.53679
1.50292
1.47291
1.44734
1.42638
1.40999
1.39781
1.38925
1.38354
1.37983
1.37743
1.37598
1.37539
1.37551
1.37583
1.37571
1.37462
1.37252
1.37005
1.36785
1.36627
1.36568
1.36616
)
;
    }
    procBoundary11to19
    {
        type            processor;
        value           nonuniform List<scalar> 
89
(
1.33171
1.33191
1.33207
1.33226
1.33263
1.33342
1.33489
1.33716
1.34067
1.3455
1.35102
1.35664
1.36158
1.36545
1.32536
1.31838
1.31355
1.31034
1.30831
1.30703
1.30634
1.30604
1.30581
1.30538
1.30475
1.30399
1.30299
1.3018
1.30054
1.29932
1.29825
1.29739
1.29682
1.29654
1.2965
1.29662
1.29696
1.29752
1.29833
1.2993
1.3004
1.30154
1.30266
1.3037
1.30466
1.30557
1.30644
1.30724
1.30795
1.30855
1.30904
1.30946
1.30983
1.31017
1.31046
1.31062
1.31049
1.30997
1.30901
1.30802
1.30758
1.30804
1.30982
1.31566
1.32377
1.32974
1.33295
1.33455
1.33555
1.33661
1.33813
1.33973
1.3409
1.3416
1.34183
1.34178
1.34154
1.34122
1.34094
1.34076
1.34071
1.34073
1.34079
1.34087
1.34097
1.34117
1.34146
1.33171
1.3419
)
;
    }
}


// ************************************************************************* //
