/*--------------------------------*- C++ -*----------------------------------*\
  =========                 |
  \\      /  F ield         | OpenFOAM: The Open Source CFD Toolbox
   \\    /   O peration     | Website:  https://openfoam.org
    \\  /    A nd           | Version:  7
     \\/     M anipulation  |
\*---------------------------------------------------------------------------*/
FoamFile
{
    version     2.0;
    format      ascii;
    class       volScalarField;
    location    "0.086";
    object      T;
}
// * * * * * * * * * * * * * * * * * * * * * * * * * * * * * * * * * * * * * //

dimensions      [0 2 -2 0 0 0 0];

internalField   nonuniform List<scalar> 
12359
(
-2.26734e-100
-4.05167e-81
1.29063e-276
5.11108e-53
-1.86738e-91
2.89821e-37
2.22493e-30
-1.50536e-33
4.79181e-24
3.28342e-40
-2.70086e-27
-2.83437e-18
-0.000204693
-1.08694e-49
-8.73074e-57
1.10642e-09
-1.83772e-07
-7.86853e-152
-9.35452e-156
-8.0832e-67
2.41984e-46
-2.19366e-21
-1.92416e-73
2.65937e-63
4.23464e-77
4.60436e-70
8.52827e-200
-1.47755e-203
-2.03871e-162
-1.21193e-189
2.99933e-181
7.51629e-224
-5.98941e-246
1.55888e-192
-1.61934e-261
-2.19082e-177
-1.93192e-122
-1.04615e-104
-1.78171e-96
4.58303e-112
-1.2646e-84
-3.4758e-109
4.31651e-133
-1.25402e-136
-8.92789e-170
4.68468e-166
1.4372e-173
-3.21204e-185
6.69071e-159
-4.25753e-196
2.09847e-207
2.09984e-215
-5.57911e-228
8.84966e-148
5.3254e-235
3.38929e-242
2.93499e-140
9.10041e-250
-1.2104e-253
1.37468e-257
-1.48791e-238
-1.28904e-269
-2.4593e-211
0.188171
-5.8039e-144
-3.74932e-43
2.71967e-126
-1.23876e-219
8.20375e-119
-2.07661e-12
22.6013
7.9524e-88
-5.64916e-281
-2.75696e-115
-6.42694e-60
2.2112e-265
-5.83175e-232
-4.42208e-273
-7.77851e-130
4.19251e-15
-1.39645e-43
2.26949e-193
0
-3.99792e-121
5.90044e-08
7.48504e-147
-7.81923e-191
-1.34214e-264
4.05361e-06
9.0653e-09
-2.96439e-322
0.165629
0
5.86649e-157
-4.5005e-129
1.8319e-127
-2.01461e-163
-1.51211e-158
5.34011e-84
1.49086e-101
2.38568e-38
4.55502e-307
-2.79961e-147
0.230235
1.29032e-205
-3.47194e-70
0
2.72884e-08
1.29094e-160
-3.10063e-72
-2.12774e-166
2.824e-192
-3.04051e-51
7.83277e-45
-1.72753e-128
3.40639e-239
-5.34356e-44
2.26555e-193
0.000154411
0
7.27723e-169
9.53616e-36
7.26958e-263
1.43535e-98
-8.14227e-192
-1.03238e-225
4.14095e-33
2.00695e-120
6.4358e-274
-4.73291e-194
-2.25351e-239
1.06585e-27
7.30639e-23
6.1732e-24
0
3.20632e-99
1.6475e-237
1.91354e-101
2.30837e-300
7.31827e-35
0
2.6686e-100
2.10698e-92
0
-9.1463e-45
5.12767e-43
0
2.25858e-09
-2.61844e-204
-3.86751e-41
-1.92385e-126
6.15526e-303
1.17452e-90
7.6608e-260
0
67.0009
4.9752e-40
1.87969e-28
1.15063e-164
-1.6374e-239
4.53169e-63
-1.28105e-237
7.05329e-99
-5.72282e-93
0
-3.55971e-228
-2.36288e-65
1.22393e-34
4.14524e-95
2.88932e-06
-1.17443e-269
-1.14142e-267
-7.36146e-99
9.17348e-80
1.74557e-208
3.11781e-35
3.53614e-171
1.70823e-173
-5.62924e-50
5.45438e-37
7.27635e-53
0
-7.21499e-277
-8.6535e-193
4.91513e-86
-4.49536e-26
-1.88366e-162
1.8414e-133
1.23438e-122
-7.88843e-162
8.63429e-132
3.98506e-130
-2.06862e-129
-3.27765e-258
-5.37152e-74
0.630119
-9.63648e-119
-7.89751e-161
-1.16113e-87
1.17655e-191
-5.6377e-42
5.15041e-124
1.11805e-99
-1.82971e-73
-1.54717e-50
0
-9.99834e-49
8.54036e-98
3.93507e-90
2.11426e-176
0
3.06953e-53
5.27348e-52
103.9
-3.60221e-25
-3.69476e-298
1.59819e-161
-6.13363e-131
-1.85529e-163
-1.93168e-98
3.78761e-45
1.95412e-179
9.70944e-101
0.147639
-1.61419e-194
0
-4.20492e-96
2.22453e-162
3.08534e-37
5.40213e-156
3.59355e-156
0
2.87439e-44
8.42571e-94
-1.69787e-135
7.98583e-96
0
9.24581e-86
-6.88605e-133
3.33038e-09
0
-1.06775e-143
1.05504e-144
1.04869e-18
2.62695e-60
1.32991e-09
8.8696e-258
6.43506e-92
1.9597e-216
-5.33997e-130
1.09854e-66
2.87793e-108
6.08442e-178
1.28121e-154
0.0489106
78.9088
0
3.43495e-184
0.0487437
61.6818
1.93354e-100
1.83084e-61
5.4317e-41
3.24097e-76
2.57467e-82
21.9133
6.13509e-05
-3.35635e-58
1.5102e-186
-2.06678e-97
-4.99491e-97
-1.21127e-82
3.58491e-93
7.1859e-157
3.69631e-180
0
1.39127e-182
0.0178552
-2.84229e-59
-6.62147e-320
3.97425e-305
1.62622e-75
1.13698e-191
-2.25184e-129
-4.37626e-146
0
3.20151e-42
2.75175e-304
1.96979e-306
-1.16999e-225
4.62167e-101
-2.84226e-197
20.6073
0
0
1.1743e-144
1.42745e-218
3.79967e-46
-5.67205e-135
-7.30524e-213
-1.17588e-321
0.00736337
5.41319e-39
0
6.46673e-160
-1.88889e-137
6.33723e-215
2.20199e-237
4.71401e-239
-1.01494e-212
1.23458e-160
-1.48836e-26
3.73964e-216
-4.90517e-182
1.4092e-106
-1.02725e-72
3.02975e-06
-4.83931e-216
-1.08232e-85
1.84977e-12
1.62396e-306
-4.42931e-100
9.16937e-316
-6.10058e-117
0
-1.17979e-212
1.17457e-26
4.75946e-93
-7.90676e-28
-7.39288e-131
3.61759e-146
3.47659e-131
2.69209e-126
9.49442e-144
-8.90329e-133
-6.72198e-131
4.40747e-292
7.40207e-248
8.86319e-249
-1.67497e-244
1.07158e-245
1.20077e-07
0
5.59714e-43
-2.2682e-105
2.53166e-89
3.02325e-89
1.89188e-91
1.78668e-145
6.57378e-120
7.26985e-94
-3.71922e-122
-5.98651e-87
-2.16395e-68
-5.64243e-66
1.01293e-51
2.15478e-98
1.11806e-30
4.17758e-102
-5.79318e-102
1.14341e-87
1.51602e-35
6.66902e-196
-2.20042e-233
-1.85937e-118
-1.33122e-235
2.11226e-192
64.1206
2.23978
-8.49252e-193
-1.16879e-294
0
0
2.32622e-96
0
0
1.18982e-05
1.1063e-93
1.32794e-08
-7.35593e-191
-1.91954e-82
6.38506e-194
2.89432e-143
-3.68256e-64
-4.38797e-120
1.08871e-53
-3.15179e-122
7.05321e-198
1.21595e-317
-1.27722e-95
-6.9742e-85
7.76478e-200
1.1405e-18
-1.07705e-64
5.16293e-127
-6.86352e-78
1.08282e-66
-3.01617e-296
1.03212
6.18026e-29
1.35376e-190
8.85562e-20
-8.49574e-104
0
0
0
3.8164e-08
3.9121e-37
-7.62782e-84
-2.43666e-102
-5.04705e-128
-2.4697e-125
1.31114e-54
7.03952e-80
7.7971e-42
8.0699e-06
-7.18723e-18
1.4049e-88
5.71138e-53
3.22763e-158
2.46737e-60
-1.50903e-124
-2.96099e-116
3.20654e-193
-1.04149e-126
-1.43569e-95
0
46.7922
2.37508e-126
2.43346e-09
-1.18949e-87
-1.66253e-141
1.43145e-49
0.0330301
3.68114e-90
-6.79717e-111
1.88075e-128
-2.22012e-85
1.04041e-61
8.19297e-188
0
7.30299e-47
0
4.15212e-29
-5.9405e-236
1.64075e-72
1.18841e-58
-4.57484e-175
1.80964e-08
7.03299e-42
6.26791e-103
-2.09053e-179
4.61619e-11
2.38387e-299
-2.11773e-196
1.20344e-38
-5.12664e-293
8.91266e-181
-5.07933e-198
3.42707e-13
3.43851
-1.2233e-123
-1.15603e-271
-4.83715e-55
1.91344e-68
-7.08232e-101
3.90144e-86
5.96293e-96
2.43973e-290
0
-1.22231e-74
2.50118e-318
6.18388e-60
-1.09915e-100
6.98911e-62
6.65302e-176
2.43883e-48
4.97274e-38
2.3856e-192
-5.69631e-130
9.73187e-199
-4.44215e-49
1.19104e-39
-1.62315e-300
-1.12009e-72
5.04388e-100
3.7861e-159
1.68665e-70
-8.3732e-235
1.57433e-36
-5.70763e-140
-3.66414e-94
-5.62904e-64
5.4793e-288
3.11249e-128
6.89111e-25
5.86181e-21
9.3082e-321
-1.59557e-108
1.55662e-19
1.13668e-117
0.0141061
0
-3.07137e-238
8.22115e-297
-2.76842e-87
9.94503e-101
-2.32463e-114
-1.6688e-232
-5.34673e-76
-2.27292e-113
7.70546e-85
1.56712e-184
5.86978e-12
0
6.28264e-11
2.25917e-269
91.9449
6.53762e-139
1.25857e-26
2.52019e-254
2.22107e-177
-1.41337e-70
-3.92901e-195
-1.333e-214
3.48699e-133
1.99666e-98
-4.28562e-98
9.82399e-23
-4.78693e-58
-1.9108e-59
0
-1.05155e-195
3.26871e-97
5.81993e-20
0
0
2.33405e-98
1.67243e-294
3.64085e-29
0.02981
6.17117
0
4.59889e-140
7.07478e-65
-2.20492e-110
-1.35258e-210
38.815
0
3.73092e-40
1.70085e-56
-5.62739e-141
-1.08874e-214
-2.65406e-210
-1.34302e-177
-6.0393e-107
-1.15614e-124
5.72367e-121
0
-2.57344e-272
1.07315e-103
3.29743e-171
-4.45698e-53
9.21432e-89
-1.22661e-223
5.82997e-322
-3.49419e-67
51.505
-1.40859e-183
3.0891e-43
0
2.43009e-119
4.18467e-42
-4.30027e-121
1.91896e-68
2.52117e-48
-7.30893e-105
-2.53333e-98
0
-6.46696e-263
-1.65973e-125
2.67084e-129
-1.01163e-106
1.30169e-131
0
-6.34874e-321
-1.53698e-226
-4.37409e-85
3.32278e-88
-9.77411e-55
2.07457e-124
2.70455e-53
-2.07554e-89
-2.48049e-108
-4.08636e-51
-1.42663e-85
3.91614e-09
3.71679e-91
2.13174e-84
9.62617e-55
1.09837e-267
5.13452e-47
-2.83135e-70
0
-2.23334e-290
1.69873e-292
9.8801e-267
6.88355e-19
-2.03408e-110
-2.10747e-167
-4.34035e-53
-5.44337e-134
1.49028e-24
2.69274e-119
-3.62812e-105
-6.57614e-225
5.02824e-33
0
3.2331e-84
5.63887e-181
9.01659e-34
-8.63544e-48
-2.72496e-112
-1.35563e-115
0.810539
-4.5753e-94
2.74193e-31
5.28821e-122
1.51515e-21
0.0067283
6.9575e-280
2.29515e-187
0
8.57255e-22
3.90055e-188
-8.51059e-124
4.43279e-08
0
9.47719e-82
-5.01429e-60
-1.48952e-114
1.83627e-180
-4.25755e-113
-6.74795e-248
1.18477e-105
-3.37849e-245
-6.24406e-251
1.22536e-111
-9.62878e-99
-7.88565e-99
-1.21905e-112
1.49987e-15
-5.0299e-123
3.03847
1.08265e-87
2.134e-148
2.79976e-108
3.40996e-89
3.86542e-87
-7.09023e-129
0.00702645
-3.47629e-58
-2.33684e-90
-7.15958e-96
1.2474e-158
1.57379e-173
-3.04177e-67
0
0.00373121
-4.60797e-228
-2.35741e-56
-2.49756e-43
3.80299e-21
5.77014e-56
-4.61103e-80
1.35644e-61
-4.60169e-125
1.88133e-54
2.69167e-71
8.1283e-32
9.61861e-99
2.27728e-37
-1.28636e-97
0
-2.07764e-90
78.8743
1.74504e-24
1.03701e-159
0
-3.0539e-221
5.47534e-136
2.32096e-74
-1.34039e-100
1.58372e-134
1.00772e-291
-1.20152e-155
1.43441e-86
-2.79369e-161
2.97808e-183
6.17966e-38
-3.32964e-143
6.61285e-75
-2.40962e-76
1.28573e-156
-2.61875e-149
1.18879e-46
0
1.09112e-142
10.5907
1.28637e-262
1.15888e-43
-3.38767e-45
9.08198e-151
3.9185e-55
-4.0903e-75
3.7338e-91
4.15139e-60
-4.19144e-193
3.04445e-54
-6.43554e-211
-7.50995e-132
-2.88793e-78
-3.89421e-53
-1.31293e-192
1.89675e-95
4.56027e-28
-2.80934e-76
-4.44471e-121
1.05181e-189
4.28771e-46
8.93329e-12
8.20848e-163
2.746e-299
2.46787e-90
0
0.00494114
1.16934e-97
3.62313e-26
-9.09845e-130
1.22857e-136
0.549273
-1.32263e-116
2.89843e-07
-1.17804e-102
4.09018
-6.81401e-98
6.16184e-120
-1.27478e-118
2.0861e-161
1.88885e-09
2.44762e-12
-1.26209e-273
-4.51603e-269
-4.87136e-50
2.82979e-255
2.08873e-06
2.52104e-64
7.27658e-19
-1.30561e-189
75.0888
0.000525909
5.58479e-96
0
-3.54028e-199
-1.48458e-61
3.18952e-133
1.05147e-122
1.12621e-130
-4.38747e-95
2.35843e-71
0.22226
2.81343e-14
2.05947e-294
3.63482e-62
1.0233e-60
-1.81209e-44
1.19545e-123
1.9332e-38
-4.3588e-91
-9.92948e-60
-2.28161e-180
0
1.10572e-58
1.08447e-53
9.38836e-137
1.90594e-51
6.7587e-28
2.89835e-149
2.72481e-93
-9.63502e-179
1.1405e-137
-2.04697e-23
-6.64211e-136
-9.09821e-70
4.72805e-69
-4.68871e-106
-6.10196e-178
6.67995e-122
2.1095e-29
1.82642e-132
2.55728e-125
0.354404
-4.28466e-82
1.11738e-147
1.23382e-05
0
5.0874e-130
3.33894e-101
1.43494e-136
-9.00548e-229
7.12536e-97
0
2.14892e-20
8.76804e-202
1.05545e-82
-2.56074e-52
1.5085e-53
-4.71819e-123
-1.90991e-127
2.80646e-61
13.0181
2.74383e-265
-1.5314e-139
1.48063e-148
5.3014e-06
1.10982e-52
-4.42832e-195
0.0463608
0
-7.88809e-202
64.4227
1.72609e-150
-1.10299e-190
-1.84781e-186
-3.48004e-70
-4.54536e-65
1.71165e-258
1.64095e-141
1.06687e-41
4.8306e-100
6.43936e-104
-2.95687e-131
-4.99729e-277
-4.09294e-63
1.7669e-19
1.45145e-108
1.60306e-52
-2.67897e-104
-2.22409e-131
3.86429e-22
-5.71095e-63
-9.55919e-129
1.65082e-200
1.32602e-10
-2.92053e-99
-1.97576e-76
-1.34556e-177
2.53634e-264
7.3772e-54
1.80692e-32
2.7228e-136
-1.12438e-59
4.77766e-134
7.3749e-128
-4.01763e-170
3.32502e-64
59.9459
3.12068
1.08551e-63
-8.51751e-106
4.46732e-172
2.2408e-67
2.19685e-05
-4.66769e-58
-7.85513e-197
3.74172e-37
1.50781e-20
1.25521
1.41688e-162
7.68867
5.01937e-266
3.91245e-126
2.4606e-262
2.73911e-23
-9.99957e-76
7.74562
1.61245e-212
3.25901e-05
1.86257e-252
8.16326e-107
-8.54626e-81
3.21759e-136
2.03242e-36
1.52933e-09
1.13042e-145
2.23629e-176
-1.24191e-138
-2.68942e-162
5.33593e-148
8.23155e-26
-1.74559e-78
-6.65557e-127
5.22072e-29
3.04545e-149
-2.25436e-257
-4.81341e-109
-3.44309e-219
6.27641e-45
2.00764e-141
1.89484e-23
2.94419e-24
-1.37951e-68
3.37688e-72
-4.82809e-81
-9.71287e-119
2.12762e-05
1.71122e-139
1.71259e-155
0
1.8079e-34
-1.12301e-60
-2.96167e-215
1.35269e-53
4.99042e-135
8.08711e-73
-9.68156e-63
-4.75855e-55
-3.42693e-83
38.3273
-2.06454e-80
-1.10965e-66
5.98331e-10
3.42455e-137
7.00092e-15
3.09404e-67
1.99015e-259
4.66749e-137
-6.60734e-185
2.63242e-121
0
-3.16774e-190
1.32073e-20
2.0679e-30
-6.09852e-194
68.3135
2.82216e-48
-4.85848e-236
2.53724e-23
1.83922e-38
-1.5233e-241
4.65208e-20
4.96636e-55
2.02741e-24
-1.72885e-245
3.91118e-175
2.97521e-161
-8.32232e-243
1.91486e-52
0.414925
-1.76157e-201
1.08538e-22
0
0.0494658
1.96028e-58
1.04236e-90
0
1.30458e-203
1.85592e-123
-1.14491e-86
3.78522e-28
1.33656e-71
-1.88561e-151
-1.86427e-141
-1.593e-248
-9.25484e-63
2.72853e-62
-6.018e-183
7.26075e-291
-1.33152e-111
1.44443e-75
-4.05429e-73
-4.27556e-225
2.37049e-19
-4.32029e-44
2.91837e-254
-2.006e-93
-1.01574e-142
1.17148e-127
83.1528
1.60679e-151
-1.55415e-235
4.38531e-101
-6.27724e-61
-2.93783e-72
0.0289647
6.82877e-84
3.02701e-143
2.52745e-69
4.04798e-139
5.96078e-144
4.18915e-141
1.1342e-135
-6.40215e-42
-3.29939e-121
3.16802
-2.9419e-70
3.73243e-17
-3.07731e-142
1.64312e-17
1.0546e-51
1.03173e-36
-3.14381e-21
-2.69579e-95
-4.89483e-149
3.59727e-154
-6.49919e-109
0
-2.07698e-131
1.1311e-58
4.82043e-48
2.75148e-139
3.7095e-256
-7.06013e-101
6.83653e-84
4.82565e-51
5.18304e-66
1.60039e-36
7.25271e-52
3.00722e-175
-5.05809e-82
3.59646e-07
1.45905e-60
0
-3.9587e-168
-2.51341e-139
0
-9.88818e-84
1.01713e-267
-4.61266e-129
8.04376e-25
3.59773e-55
4.62371e-20
4.25611e-265
-9.39021e-210
0
7.01703e-141
3.2214e-164
4.73355e-36
1.2126e-162
-2.83662e-208
8.38792e-15
-2.3037e-78
2.89879e-124
-9.37659e-86
2.5674e-33
-7.33904e-161
3.35935e-22
1.73363e-154
-8.73764e-260
6.67014e-11
-4.10105e-108
9.52176e-36
-2.36093e-158
10.2114
-3.83006e-66
-8.09892e-81
-3.18174e-100
-2.04805e-61
0.112759
4.62654e-145
1.27307e-38
-8.18108e-65
-1.38856e-82
6.68391e-190
-1.21447e-138
2.56449e-14
-5.26575e-124
1.89012e-25
1.45499e-148
2.50215e-153
1.40071e-23
-2.81115e-240
1.23634e-169
1.15908e-142
-9.78865e-107
3.42486e-21
6.04816e-149
-6.70283e-140
0
-7.54143e-64
2.14427e-11
-9.25241e-90
1.08494e-140
1.36779e-101
1.58327e-162
7.00382e-201
0.98839
-6.3178e-76
-2.68411e-302
-5.13062e-80
1.5189e-165
-3.26371e-64
-1.28801e-39
-3.27248e-124
5.4687e-136
1.09181e-36
1.11432e-28
0
-8.38167e-112
6.31731e-30
-1.05136e-212
9.62704e-279
6.72184e-92
-3.06366e-106
-6.45021e-128
3.08459e-276
-2.08249e-96
4.19167e-23
-1.05023e-237
-3.77834e-49
7.66299e-262
2.26641e-184
-1.07521e-89
1.77508e-09
0
0.115735
-6.17695e-74
-8.99145e-49
0.38766
-1.08205e-69
-1.93891e-114
0.000287634
6.39882e-139
2.05393e-10
-2.03021e-29
-1.73089e-106
-2.25531e-131
-1.14653e-133
-4.80589e-153
2.14054e-162
3.0584e-66
1.05352e-05
65.1654
1.34874e-73
2.938e-40
3.45867e-16
-4.65773e-77
0.000908015
-1.05224e-228
6.42059e-151
2.80601e-36
-1.28013e-91
1.49278e-185
1.48157e-74
1.03939e-147
0.159828
0
3.40069e-179
-4.31049e-220
80.1869
1.31369e-50
1.16707e-71
1.18322e-124
-4.61e-33
6.60177e-137
5.9387e-207
1.26195e-15
2.55053e-145
5.76916e-15
1.52999e-65
-1.16401e-142
4.27871e-37
2.15182e-105
-1.79346e-142
6.60553e-204
1.74898e-198
0.00262987
1.58644e-26
-2.27024e-185
2.46352e-34
3.92445e-126
3.64789e-56
0
-6.08445e-104
8.07902e-16
5.41508e-43
-1.00917e-67
-4.70278e-107
-2.68605e-207
1.11275e-49
1.02306e-133
-9.84307e-211
1.85996e-22
-4.94678e-45
4.76048e-169
7.58981e-46
-6.60755e-119
0
-1.19997e-188
1.0374e-302
1.01174e-60
5.05541
1.42134e-22
4.61132e-51
8.94237e-177
7.53114e-131
-1.74176e-106
9.54748e-309
8.1792e-16
4.05581e-107
7.92713
-2.24556e-38
1.95019e-143
-1.62451e-171
-2.37613e-224
5.20972e-152
5.73812e-138
-6.82941e-183
0.598262
1.45234e-43
2.14118e-68
1.60749e-27
-5.45361e-65
-5.22935e-213
0
-2.66514e-184
2.5534e-50
1.04567e-05
1.34568e-36
-8.26883e-92
-1.22014e-77
-1.01034e-99
4.76114e-45
6.51036e-06
0.000130283
4.09961e-134
5.71845e-110
-8.61001e-67
5.87385e-167
4.50564e-295
6.79286e-185
1.02605e-39
6.67333e-165
4.92596e-117
8.08208e-147
6.03393e-66
2.53903e-22
6.55349e-158
2.31699e-183
1.33693e-28
4.1923e-49
-3.85088e-127
-5.76564e-189
-1.07396e-79
2.3671e-22
1.89981e-51
3.38596e-50
-1.61024e-83
1.02807e-133
1.77486e-11
2.3736e-128
-2.08094e-36
-1.17284e-201
1.03525e-22
2.31247e-29
-4.07121e-264
-1.28546e-219
41.1287
-2.67853e-189
4.33647e-117
4.35775e-58
-1.85304e-159
-2.29452e-159
-1.48861e-138
-1.90764e-191
0
4.37143e-65
1.43372e-14
-3.58262e-224
2.53346e-05
9.98288e-151
3.09391e-190
4.97781e-22
1.28646e-16
-3.86607e-51
7.60724e-140
2.89816e-181
-2.21055e-73
69.9564
-5.14095e-162
-9.30953e-226
2.21008e-235
-9.16279e-165
-3.76152e-95
-3.90531e-68
1.08741e-166
-2.41264e-105
2.07809e-173
0.130715
1.67858e-19
-5.51887e-108
1.26197e-58
2.61557e-148
3.50318e-189
2.03481e-50
0.00560218
2.14761e-115
-5.6846e-232
1.17796e-191
8.30852e-27
3.7819e-160
-6.25287e-204
5.67106e-33
1.22161e-141
-2.69834e-192
61.7804
1.59084e-29
0.000177484
1.1487e-50
3.88376e-161
1.49414e-46
3.67745e-19
9.44717e-05
4.03615e-151
-1.55395e-78
2.73326e-313
0.000844951
0
-4.92186e-156
6.02487e-161
1.34632e-231
-1.24581e-87
-8.76034e-127
2.2929e-159
2.51898e-153
0.0023966
2.60157e-26
3.24258e-99
6.17252e-183
1.62919e-59
0.00616799
5.46752e-26
1.14618e-69
-1.80285e-81
-7.05581e-156
6.13002e-134
-5.68398e-231
4.78511e-171
-9.9158e-222
1.31391e-185
-2.41631e-71
1.49815e-27
-3.12069e-46
0.000973293
8.48746e-09
1.7874e-19
2.85788e-51
0.000488405
-1.57857e-206
1.64535e-13
2.73276e-193
8.2221e-07
6.93503e-28
4.20218e-77
4.11986e-169
-7.31256e-73
9.50194e-63
-5.61223e-126
3.78014
8.01723e-22
0.000580609
7.28483e-188
2.75549e-21
2.24621e-13
2.88794e-27
7.90132e-14
2.96687e-23
-3.81893e-192
-2.66638e-137
-4.86714e-105
8.04887e-175
4.68513e-58
-7.73657e-160
7.1334e-72
-1.67647e-269
9.98841e-145
6.09017e-64
4.50833e-93
-1.03964e-212
-3.47636e-77
2.99855e-05
28.4167
5.97659e-234
1.97914e-79
-2.60675e-151
5.06552e-18
-2.01114e-62
0.291629
1.04551e-10
2.45106e-155
-1.30996e-84
1.63704e-13
1.29694e-33
5.7618e-11
-1.44781e-87
8.6017e-22
-1.35911e-217
4.70403e-05
1.04487e-31
-6.04927e-186
-5.02067e-16
3.21282e-10
1.90852e-73
0.000290897
2.00629e-153
3.0164e-16
-3.00878e-125
3.94159e-241
3.06308e-117
1.6456e-134
6.37638e-06
1.79334e-23
3.11751e-07
-1.43741e-208
0.00102514
-4.49624e-75
1.8969e-30
-1.44908e-52
-6.00625e-88
-1.29232e-104
1.23717e-08
5.15141e-151
5.13747e-175
4.64842e-63
3.75389e-17
1.50222e-59
-3.05203e-49
-1.65679e-91
8.71086e-05
-1.50437e-52
-4.41274e-59
1.88338e-17
1.49065e-233
3.26007e-14
3.43619e-43
6.09875e-15
-4.36209e-120
1.77025e-12
-3.17748e-226
-1.47432e-60
-4.80462e-110
4.26098e-28
-2.82551e-114
1.31464e-64
4.27636e-16
27.3803
-3.47732e-145
-7.13896e-102
-7.33466e-72
2.85364e-38
-9.06962e-56
-1.23654e-154
5.93985e-78
-5.87941e-227
1.8823
0
-1.14124e-226
2.12985e-300
2.52134e-21
-6.08954e-191
1.73972e-70
1.32128e-05
-1.60386e-108
-2.62578e-93
-8.2675e-181
5.41026e-284
7.24781e-18
-1.50548e-232
9.52161e-63
3.40607e-26
-3.95948e-75
9.228e-12
-1.21992e-156
1.99489e-79
1.11099e-16
-1.24964e-48
-4.66296e-122
33.2167
0
5.69297e-275
3.67826e-138
86.9341
-2.38713e-122
7.88388e-142
1.43072e-14
1.7192e-168
-3.59601e-154
6.18163e-42
4.61198e-16
-4.43654e-64
3.68115e-10
8.50628e-163
5.84406e-144
4.92715e-104
-3.04347e-104
1.93127e-28
9.84408e-196
-3.08998e-138
-1.90848e-87
-1.39474e-27
-2.49456e-113
-4.57099e-215
5.71427e-74
-5.78942e-31
1.91888e-284
-7.35671e-280
3.83098e-11
1.34068e-64
2.84099e-10
1.91953e-153
0
-2.25874e-29
6.23361e-22
-1.43851e-210
-6.41498e-160
-3.26072e-228
0.0386296
-2.3222e-283
-3.07982e-66
5.21848e-15
-6.00844e-278
9.80878e-282
-1.10071e-50
1.04481e-245
6.6549e-280
-3.8262e-101
9.56968e-26
-2.54883e-217
4.50134e-45
6.67756e-236
9.5946e-18
0
2.75868e-14
3.40413e-23
-4.13924e-59
-4.33359e-276
3.55683e-42
0.203598
6.95126e-167
2.53484e-77
-1.61982e-252
6.36567e-27
-1.20163e-237
2.50391e-17
2.55451e-27
1.65252e-137
-1.23235e-293
1.07496e-23
1.45029e-28
3.4516e-111
-1.97767e-110
1.3475e-28
3.03801e-243
5.3109e-44
-8.79074e-296
1.55551e-18
1.38335e-18
4.46542e-31
-1.46978e-57
1.54668e-38
0.00563319
1.02386e-64
-8.08327e-109
1.55608e-28
7.01292e-157
3.15217e-39
5.70765e-28
-4.3752e-67
5.98852e-149
2.72986e-06
-9.88131e-324
1.17376e-07
46.955
9.37181e-174
3.63132e-26
3.67426
-7.56211e-59
-3.22211e-106
-1.48994e-43
-2.47894e-85
-2.47013e-224
7.52958e-19
7.43365e-07
0.0169024
1.69535e-157
1.72311e-52
3.75175e-14
2.36827e-24
-3.90644e-183
-5.02611e-272
7.82133e-91
4.04315e-09
3.2511e-17
2.3804e-30
0
1.3441e-238
2.1133e-27
-3.56224e-164
-4.36251e-90
-1.2343e-157
8.75255e-290
1.192e-16
-2.70315e-160
6.47878e-16
1.92925e-109
2.97872e-255
4.5298e-272
6.57178e-26
1.42369e-158
5.91559e-58
3.43331e-30
1.19754e-07
-3.94442e-81
-1.23912e-215
6.00955e-14
4.66023e-128
-3.08228e-229
-2.94405e-136
1.47891e-27
3.27259e-165
2.06882e-25
-8.63591e-94
84.4171
2.64016e-29
4.10759e-202
1.54318e-15
1.50546e-299
1.26989e-20
8.00513e-76
2.89445e-12
6.99134e-10
-3.38789e-68
2.07184e-13
9.23173e-253
1.30157e-23
3.40948e-168
3.13254e-81
9.92314e-17
-2.10264e-60
1.60394e-16
3.62453e-07
-7.50364e-33
2.02163e-22
6.54053e-12
-4.7064e-211
-3.96101e-233
1.66704e-297
7.09353e-14
9.53251e-40
-1.31818e-208
1.00703e-17
3.7506e-19
1.11453e-92
1.76858e-40
-3.37389e-110
7.62423e-57
1.52394e-14
-8.77364e-112
8.84801e-77
2.54243e-70
8.18438e-315
1.15074e-310
2.04305e-209
1.37424e-156
-4.10474e-112
3.99377e-259
1.02706e-134
4.36489e-143
2.84154e-90
-4.53138e-64
-8.15573e-184
1.08381e-17
0
2.15381e-25
3.07923e-12
2.63352e-200
1.96629e-09
7.419e-36
3.07539e-18
-2.25317e-114
7.46432e-31
1.01369e-164
9.24008e-79
2.48115e-95
2.22673e-274
7.59176e-168
-2.13191e-143
6.61765e-198
-6.2357e-301
2.7092e-87
-2.93218e-303
2.89687e-51
-1.72619e-58
6.74773e-05
3.10301e-263
4.67631e-96
1.20583e-256
1.11382e-166
1.20993e-36
6.18638e-100
2.34814e-206
71.809
3.86516e-25
-6.87665e-63
-1.34699e-95
2.02802e-30
3.22958e-39
-1.435e-138
-4.29773e-47
1.32503e-25
-2.76584e-143
-4.29329e-298
-1.7098e-131
5.6673e-23
3.3344e-233
3.2042e-211
1.5334e-24
-9.75502e-173
8.73136e-167
-5.42376e-149
-5.32879e-215
5.14027e-13
1.05614e-260
1.1867e-213
8.95075e-61
-2.41905e-46
0.000382176
4.45162e-24
-1.19917e-92
2.07999e-202
3.15079e-47
7.62578e-205
5.7855e-56
6.5827e-125
3.72471e-143
6.17463e-13
1.05589e-265
1.43957e-44
3.12592e-85
1.59382e-28
-2.58285e-63
-6.54386e-307
6.2374e-145
0
-2.72592e-51
1.20409e-236
3.15776e-36
-2.15138e-90
-2.51243e-147
-2.49245e-89
4.61758e-81
-1.55133e-299
2.26747e-43
-3.49261e-54
-8.62566e-156
-2.04803e-57
4.9294e-19
8.36838e-287
1.6893e-79
6.30747e-21
6.16678e-40
-5.28835e-119
1.62024e-77
2.21383e-75
-2.39479e-95
3.46058e-114
2.8172e-25
-8.41536e-114
-8.31079e-202
-7.36426e-204
2.23243e-13
2.10785e-18
9.56512e-18
-6.17345e-12
-1.54833e-57
1.82541e-39
-3.0498e-91
1.8198e-47
1.78284e-204
2.25826e-05
3.34653e-166
1.31154e-11
6.91743e-35
5.192e-207
2.36388e-42
1.32562e-20
2.08779e-20
-1.61288e-87
-9.9298e-55
5.5322e-207
0
2.34801e-28
-2.81531e-297
-4.36688e-267
-4.29922e-30
9.94324e-167
-1.15112e-105
-2.8118e-213
1.03645e-155
1.14082e-29
1.19322
2.15769e-173
-1.64535e-178
3.85566e-24
-1.80681e-63
1.9186e-20
-1.23617e-50
2.35765e-43
1.37298e-170
1.95176e-70
1.11698e-52
7.78156e-32
9.79791e-51
-4.5303e-210
1.42248e-31
5.47764e-62
1.59874e-37
3.24604e-132
-1.79871e-210
2.03487e-31
2.91089e-169
-8.80295e-285
-8.58287e-47
-3.8836e-15
-1.85741e-261
1.41383e-54
4.0337e-93
-1.57855e-181
2.78036e-120
9.4444e-183
1.46644e-46
-3.54507e-201
-6.39282e-213
-7.86028e-108
-3.1806e-48
-9.66269e-65
8.82983e-42
1.00144
-2.71538e-147
-1.04104e-97
3.71741e-09
-7.91225e-68
1.39464e-184
1.01173e-63
1.65346e-19
1.19039e-272
3.70634e-171
-1.1941e-291
-2.84591e-53
2.64514e-27
-1.1169e-106
-1.32972e-305
5.67822e-127
1.95927e-125
3.15606e-142
4.3244e-17
3.91795e-167
4.33162e-309
-1.13891e-298
-2.98164e-58
-4.08766e-89
-1.47967e-10
-4.81003e-130
-5.00509e-79
5.65649e-88
2.50439e-45
2.24733e-230
1.47306e-41
1.867e-277
1.46817e-267
8.74423e-289
2.05633e-22
-1.21529e-161
-1.5722e-49
1.57705e-68
-1.41192e-58
7.51215e-47
-9.10202e-57
1.68649e-25
9.67688e-43
-1.12372e-162
-1.57236e-77
-8.84563e-71
-4.41206e-73
7.79275e-36
1.32864e-170
1.26178
7.51157e-29
6.09529e-33
-2.60169e-266
0.00280823
2.33628e-45
9.41902e-49
-9.37767e-45
9.28458e-33
4.59859e-98
-7.99538e-145
4.4042e-158
-7.04757e-173
1.17531e-165
1.50492e-29
1.25529e-40
7.42552e-171
2.8773e-61
1.16394e-144
9.46731e-160
-1.27121e-108
-3.8101e-70
1.99538e-131
2.35505e-89
-3.43127e-72
2.63939e-75
6.60908e-45
5.17768e-97
2.13221e-253
4.15805e-121
5.22648e-161
2.06585e-21
-3.47841e-235
-2.40153e-165
1.56157e-57
9.41838e-07
2.77746e-200
7.87016e-10
-1.62416e-207
4.92431e-171
-2.26317e-107
-2.66912e-60
-3.26988e-70
-4.481e-230
9.2153e-58
2.48432e-56
3.21244e-20
5.8064e-265
5.95844e-72
5.32676e-83
-4.20522e-132
5.93879e-287
0
-4.09048e-42
-3.65719e-88
8.37506e-119
1.14964
6.33654e-48
5.20682e-65
-5.34269e-42
-3.6143e-109
4.205e-20
-1.36977e-145
-2.35819e-108
2.06669e-136
-5.70234e-145
5.14034e-14
3.08967e-70
3.00316e-46
7.92783e-74
8.217e-222
9.90279e-56
3.93955e-54
2.16841e-25
7.06783e-149
-1.93048e-66
-9.19478e-10
3.22623e-11
-5.61741e-210
1.53092e-21
-3.29138e-111
0.0674141
-1.88714e-288
-7.86065e-52
5.07195e-75
-1.70591e-319
2.04061e-48
-5.60989e-134
-2.16005e-124
1.37658e-39
1.12524e-16
5.56538e-27
-2.02742e-123
4.57312e-57
-8.7317e-277
-8.82923e-165
6.25184e-14
-2.61424e-53
-1.16129e-156
4.96911e-56
-1.09468e-34
2.28036e-59
-2.19743e-90
-2.40538e-82
6.38985e-68
5.24419e-15
-4.00025e-220
-5.46039e-86
1.79575e-113
1.97851e-48
-1.55987e-13
-7.40356e-60
1.5986e-66
-4.2835e-143
6.47538e-292
4.65008e-46
1.03307e-65
-2.72336e-61
4.68633e-226
-1.27223e-111
1.06717e-74
-1.87417e-62
2.13855e-40
-1.71362e-54
4.57781e-145
-8.60482e-62
-8.54062e-164
5.13537e-44
-2.04197e-110
1.6079e-47
5.53661e-99
-4.45055e-121
-4.25947e-65
-2.5299e-112
-2.3352e-119
-1.37083e-143
-7.58206e-222
5.92722e-88
6.66731e-83
-5.0772e-111
0.00349679
1.05851e-10
-1.27974e-182
-6.55398e-159
-2.42874e-91
-1.0898e-86
-2.46205e-304
4.98905e-50
-1.90868e-59
3.66118e-54
-1.34383e-280
8.72327e-24
6.53863e-58
2.40698e-30
-3.25068e-52
1.56798e-266
-1.11993e-140
7.44656e-121
1.14459e-61
6.93707e-17
0.0194379
-9.90305e-215
-4.16817e-106
-3.78057e-126
3.2123e-23
9.83065e-15
1.52162e-26
-7.23489e-84
-6.52011e-63
-5.61844e-278
-3.06955e-80
-4.59844e-84
-1.42541e-212
-4.56023e-37
-3.03926e-95
3.4164e-73
-1.35781e-62
9.91827e-106
-1.17888e-89
-6.74148e-65
-6.13745e-268
0
2.0812e-79
-7.73682e-107
2.03849e-15
3.0637e-115
-1.70264e-38
7.21685e-25
-8.75369e-67
5.46936e-213
-6.00752e-95
1.60838e-59
-1.38358e-219
3.92676e-11
5.66406e-14
4.85842e-179
4.29408e-279
-2.62487e-179
-1.50922e-221
0
6.32927e-98
1.79409e-127
-1.62589e-45
-8.0658e-98
5.93645e-63
-8.2888e-74
1.62354e-23
2.10864e-62
2.34158e-55
-1.94884e-103
-5.99435e-107
-1.52105e-60
-3.21605e-267
2.30278e-120
1.73026e-138
1.52248e-53
1.54153e-43
3.65592e-16
0
3.29366e-47
5.33734e-77
2.46666e-99
1.03049e-39
-4.64546e-60
6.83023e-43
3.46222e-15
-6.81409e-84
9.80652e-35
-3.9369e-109
5.89886e-151
-1.69999e-75
4.68719e-57
-7.39463e-223
-1.96522e-102
1.32799e-12
-9.69994e-125
1.57488e-16
-2.70145e-211
5.79654e-60
7.89706e-145
1.01484e-145
1.02226e-49
-1.80402e-34
2.37167e-46
-1.64982e-124
1.45761e-106
-6.48664e-100
1.00248e-33
-2.14955e-50
-3.19801e-74
5.65386e-35
4.6788e-321
-1.40746e-87
0.0719212
8.54832e-27
2.29377e-133
1.26761e-08
-5.46581e-53
-1.53226e-121
-5.78109e-248
1.35197e-19
3.51204e-57
-3.63943e-102
-1.76489e-66
-4.34385e-206
6.72362e-67
-3.07128e-135
1.73295e-41
1.47458e-63
5.18334e-65
2.51932e-43
0
-1.48757e-168
1.38762e-127
3.71097e-155
1.70757e-159
-1.43227e-91
-5.30421e-121
-6.36935e-127
-7.85062e-36
2.76382e-46
5.53733e-305
2.533e-47
-1.49761e-166
1.15666e-266
3.11684e-46
-5.33871e-203
-3.47611e-107
-6.04667e-106
-2.45217e-225
2.34214e-219
-1.37968e-133
2.57012e-74
-1.32845e-97
2.44551e-53
1.50586e-75
-6.02301e-45
-7.42595e-54
-7.60622e-104
9.08698e-86
-6.57325e-66
0
2.26433e-107
1.6361e-138
-9.08266e-109
1.17913e-11
-9.82667e-79
4.3304e-107
-4.91161e-79
2.67582e-101
-2.92652e-131
-1.21091e-128
-1.14697e-99
-4.81105e-143
-4.40611e-54
2.12454e-78
-4.5193e-268
9.76415e-77
-1.25518e-75
1.4975e-72
-1.53657e-247
2.56895e-47
2.61174e-17
-1.07162e-159
-4.11945e-67
6.7707e-58
2.63191e-174
2.2452e-46
5.17053e-40
5.1e-61
6.61838e-56
6.15318e-46
1.08383e-77
-3.92599e-83
-4.79702e-70
-1.0443e-63
-2.71645e-201
-1.33677e-143
0
-8.33876e-161
6.0776e-248
1.90838e-105
1.79152e-91
-5.77588e-58
8.31364e-69
0.00195128
1.02841e-34
0.0385816
3.99667e-77
5.5317e-20
0.000224992
1.7479e-31
0.0372558
9.69276e-138
-2.46616e-91
-2.88346e-110
-3.94315e-111
1.14617e-76
3.21903e-175
-2.96689e-97
-2.2434e-145
-6.02574e-250
-2.81731e-85
2.23237e-06
1.04851e-108
8.90638e-71
-8.27522e-110
-1.65908e-136
5.03195e-81
-5.00647e-93
-2.17647e-148
-2.89934e-94
-3.1798e-145
7.01467e-41
7.25548e-65
7.22102e-68
-6.59546e-71
7.69569e-12
4.33294e-36
1.40971e-68
-7.42005e-109
3.45166
-2.58461e-111
3.0007e-89
-7.94259e-59
3.33229e-49
-5.20383e-93
6.28109e-49
-3.44055e-217
-4.56601e-61
-4.22638e-47
-3.83491e-72
6.98859e-73
-1.15513e-119
-3.82099e-97
1.43986e-57
4.82833e-141
1.03762e-60
-2.97653e-98
-9.05998e-123
-1.03087e-213
-6.43064e-113
-2.12349e-82
1.53944e-129
-1.18535e-109
-3.71681e-125
-5.74187e-169
-7.77234e-56
-1.50591e-137
2.89598e-32
1.91898e-75
-6.07692e-102
-2.09158e-226
1.78051e-158
8.71853e-55
-8.37737e-100
-2.04286e-273
3.47485e-75
0.000114045
1.7417e-72
-2.40404e-123
-1.57053e-111
8.13413e-13
2.8021e-08
0.20672
-9.24516e-169
-2.40202e-170
5.49792e-145
-8.27973e-121
3.98052e-63
1.33119e-20
9.50876e-17
2.23192e-32
7.67789e-70
8.88265e-145
-3.46283e-243
-4.36411e-239
-5.24396e-46
9.78821e-123
-1.93765e-52
6.28575e-162
1.35399e-29
1.04212e-145
5.06606e-93
3.59639e-21
-2.06202e-68
-1.03861e-56
6.46789e-152
3.42783e-104
7.87664e-264
5.40473e-51
3.63584e-71
7.70832e-140
2.40079e-250
-2.92775e-108
-3.29929e-37
-1.04696e-176
-8.96911e-75
2.32685e-13
-1.22887e-279
-2.66012e-129
-6.10315e-63
-3.65246e-65
-4.55541e-78
-5.12547e-187
-4.73963e-171
1.67415e-167
1.21392e-295
5.87736e-239
-1.64797e-115
5.94795e-83
1.17301e-264
-1.07803e-118
-1.10205e-167
82.8436
-2.2801e-46
-1.50087e-164
0
-1.93406e-67
9.97228e-108
1.97404e-44
3.43812e-77
-5.64869e-105
-3.39543e-255
1.63424e-169
2.91588e-54
0
1.61612e-112
-2.58114e-50
2.72754e-83
-2.18861e-232
3.60467e-102
-1.13824e-301
1.08729e-112
4.86751e-116
-2.94857e-174
1.35254e-33
-1.18016e-89
-1.17381e-127
-1.3808e-124
-1.62429e-58
-9.82045e-83
7.82987e-274
-1.56619e-321
2.50057e-149
-9.36387e-61
-4.03457e-106
-4.70598e-145
-9.44277e-116
-1.79462e-47