/*--------------------------------*- C++ -*----------------------------------*\
  =========                 |
  \\      /  F ield         | OpenFOAM: The Open Source CFD Toolbox
   \\    /   O peration     | Website:  https://openfoam.org
    \\  /    A nd           | Version:  7
     \\/     M anipulation  |
\*---------------------------------------------------------------------------*/
FoamFile
{
    version     2.0;
    format      ascii;
    class       volScalarField;
    location    "0.638";
    object      T;
}
// * * * * * * * * * * * * * * * * * * * * * * * * * * * * * * * * * * * * * //

dimensions      [0 2 -2 0 0 0 0];

internalField   nonuniform List<scalar> 
12359
(
3.52163e-77
-3.87724e-63
-3.35624e-213
2.34675e-41
-2.81231e-71
-2.77013e-28
4.13744e-23
-9.86328e-26
-6.35762e-18
9.51433e-31
5.04591e-21
1.76606e-13
0.221562
7.46702e-39
-1.03486e-43
3.14042e-06
0.00172781
1.1431e-115
-4.29889e-119
-3.03625e-52
-6.74818e-36
-1.48424e-15
3.18992e-57
3.65924e-49
-4.19001e-60
-1.36949e-55
3.11317e-153
-2.82938e-156
2.82888e-124
8.41932e-145
8.45053e-139
-2.51084e-171
3.34327e-189
5.86103e-148
-1.68404e-201
-5.14086e-136
1.29306e-93
5.63072e-80
1.4438e-74
-1.32232e-85
1.894e-65
5.83309e-83
2.99169e-101
-2.57869e-104
1.62851e-130
-3.23497e-127
1.64518e-133
-1.14741e-141
-1.18918e-121
-2.20404e-150
1.01782e-159
-3.27399e-165
8.52701e-175
-9.35732e-113
-3.40501e-180
-4.63956e-186
-1.92244e-108
-1.73481e-192
-4.89566e-197
8.08532e-199
4.40556e-183
-5.27276e-207
1.38385e-162
9.20949
4.37177e-110
7.9853e-34
2.96294e-97
4.24548e-168
-6.88876e-91
-1.79801e-08
119.282
-1.13308e-68
-8.62592e-216
3.20002e-88
1.5957e-47
3.55708e-204
1.54962e-177
6.05601e-210
-6.90531e-99
9.57218e-12
-5.92176e-28
-1.57362e-128
3.89947e-275
-1.01093e-79
0.00137343
1.13497e-79
-3.4547e-126
2.37843e-178
0.791747
0.000430567
-1.72692e-236
3.14372
-4.59519e-238
-5.81336e-105
-6.90552e-84
2.63051e-57
1.6929e-110
-2.13499e-105
1.02575e-52
-9.06728e-66
2.21164e-23
1.46699e-230
2.01417e-80
26.9823
-2.84692e-137
4.47182e-30
-4.11399e-235
0.00178315
8.73998e-89
2.74707e-31
1.15491e-112
-2.82074e-128
-1.58042e-32
3.05499e-27
-1.47747e-84
-1.60131e-161
2.57305e-26
-6.45658e-128
2.77279
-7.5225e-272
1.04813e-114
5.90902e-24
6.99432e-177
1.31123e-40
-5.23987e-127
1.40597e-150
4.03081e-17
-6.31981e-79
-2.35846e-211
-1.96583e-129
3.77795e-160
2.8187e-07
1.70265e-05
9.02843e-06
-5.87697e-237
7.2047e-41
1.24562e-159
1.93993e-42
1.16569e-225
4.6071e-18
-2.93905e-263
-1.63252e-76
1.30618e-40
2.81443e-235
8.11429e-19
1.35172e-29
-1.55394e-275
0.000544287
-9.04314e-137
2.06923e-27
2.75466e-55
2.20937e-227
8.55264e-40
5.4519e-175
2.40637e-245
111.744
3.29632e-24
2.14725e-07
1.96825e-111
7.92106e-176
8.93435e-36
2.41768e-174
1.13432e-40
2.70587e-40
3.20536e-260
2.71903e-152
1.72297e-36
6.60603e-25
5.94444e-42
0.726653
9.0603e-208
8.66056e-206
1.84109e-43
-3.47242e-64
-5.90904e-139
1.87247e-18
-1.87855e-128
-4.92998e-130
-2.15594e-32
1.86493e-19
4.98591e-42
-2.90489e-242
-8.90987e-211
-2.29403e-127
4.01602e-54
1.15021e-16
-1.16094e-106
-6.52096e-88
5.2923e-54
-4.99171e-106
-2.09574e-86
9.05553e-59
5.22184e-60
1.23321e-173
7.99867e-31
37.161
8.30439e-66
-1.15387e-105
8.24437e-40
-1.36598e-126
3.99421e-28
1.30571e-54
-2.92928e-66
1.54829e-31
4.21363e-22
-1.91628e-241
5.99172e-21
-8.63182e-65
2.18745e-35
-9.42684e-115
3.18306e-255
2.65492e-17
6.66994e-17
154.905
3.553e-16
3.27573e-223
-3.09712e-106
-6.5894e-86
-1.69967e-105
-1.31325e-74
1.64381e-27
-4.06076e-116
1.13326e-41
3.44381
-1.65992e-127
8.11697e-255
-2.18553e-73
2.02172e-90
6.12806e-20
-8.01103e-103
-6.59951e-102
1.84609e-262
4.37781e-19
-1.40543e-60
-2.09422e-88
-7.12e-62
3.06959e-270
1.62525e-37
-5.04348e-87
7.14603e-05
3.81119e-251
2.79605e-76
-5.95474e-96
2.6232e-10
1.01677e-33
0.000807315
-4.27334e-197
2.01114e-36
6.43236e-145
3.74607e-60
1.36544e-23
-1.0506e-82
-3.115e-133
-5.18499e-102
1.3001
126.324
9.92993e-270
-8.69318e-121
1.32984
170.437
-9.14094e-65
3.98978e-34
6.00855e-22
1.59281e-31
-6.09947e-63
60.0861
2.6999
4.84135e-32
-3.2723e-122
8.33347e-41
1.39945e-42
8.41138e-54
5.17746e-41
-6.565e-104
-1.35594e-117
1.40049e-252
-2.93182e-119
7.57714
7.89428e-32
2.91808e-217
9.64908e-229
2.17151e-31
1.8871e-121
-9.85954e-99
8.21885e-78
-1.02721e-265
4.52732e-22
1.23706e-228
-5.78237e-230
-1.59655e-173
1.02701e-41
-2.37942e-130
53.481
-3.47469e-237
7.08023e-237
3.57331e-79
-1.96722e-145
1.9947e-28
-4.22597e-89
-1.33007e-162
-4.67727e-236
6.9086
5.22154e-21
-6.45486e-237
-4.38112e-105
-1.27802e-90
-7.23746e-144
2.34111e-159
-2.86732e-161
-1.82367e-140
3.8114e-120
-1.95102e-16
-4.9559e-144
1.80003e-140
-2.53847e-81
2.32438e-36
1.19721
1.06262e-142
-1.28626e-55
2.52943e-06
-7.98421e-229
1.03036e-48
-2.68682e-216
9.82743e-65
-1.42591e-233
-1.7052e-139
7.70835e-17
4.92169e-45
2.90541e-17
1.01847e-99
-3.01865e-96
2.53984e-60
1.92869e-56
-4.97456e-95
7.90999e-61
1.09124e-60
2.35955e-197
-2.83222e-183
-1.14276e-183
-1.88975e-182
-3.01969e-182
0.000303942
1.79316e-264
2.64524e-26
4.04221e-43
1.43003e-56
1.07239e-38
2.98864e-44
1.57848e-79
3.14427e-67
1.31814e-44
2.1255e-69
-3.33488e-56
2.58761e-33
1.77533e-32
6.99603e-32
-1.91325e-75
2.72769e-15
-1.56401e-77
-2.91184e-77
4.2847e-40
8.80395e-21
-4.26288e-130
2.24444e-179
2.36279e-65
-1.2071e-181
2.27802e-128
166.94
17.5684
1.86622e-128
7.87291e-224
3.85428e-238
-1.1053e-246
1.91405e-45
2.03622e-242
-5.62779e-245
1.03436
1.82525e-40
0.000332381
2.52428e-130
2.26018e-34
3.41688e-123
-1.37605e-94
2.20649e-29
2.93063e-66
4.10949e-41
8.69854e-68
5.79963e-131
5.78037e-217
3.44118e-41
1.75905e-34
7.92596e-131
2.69525e-12
8.51157e-30
2.38727e-57
1.63288e-45
5.77085e-38
-2.0314e-222
9.30281
1.97676e-14
5.24203e-129
8.00096e-11
-1.32376e-78
-1.83742e-261
-4.56461e-262
-4.25961e-250
0.000632675
9.81504e-22
-1.37936e-54
4.81023e-50
4.7296e-56
-2.88783e-82
-7.10686e-40
3.2954e-47
1.04022e-12
1.21154
-4.21163e-12
1.30396e-56
6.03549e-33
3.69175e-87
3.60921e-30
-1.20629e-71
8.24335e-64
4.92856e-148
-3.16038e-73
6.21519e-43
3.49387e-241
159.462
-6.69061e-96
0.223614
4.68718e-36
3.03619e-107
1.07104e-30
1.01258
2.16822e-42
-1.34181e-64
7.22299e-58
8.40935e-35
2.40074e-29
-1.05704e-123
-4.71378e-255
3.99696e-25
-2.01212e-231
1.09861e-07
1.28616e-158
-1.83693e-56
1.66262e-36
-7.72954e-105
0.00733991
1.80629e-25
-2.23229e-68
-2.6575e-123
2.27288e-05
4.24474e-203
2.27045e-134
7.52387e-16
3.1934e-222
2.84844e-123
3.66792e-135
7.67138e-08
17.6926
-3.01655e-81
1.15129e-183
-3.66107e-34
6.84859e-39
3.42096e-49
4.77749e-38
6.90475e-42
4.86414e-196
-2.35536e-248
3.26308e-43
4.41088e-234
1.20237e-37
1.40729e-49
8.71858e-31
-8.13843e-132
2.49968e-26
2.14708e-14
-4.99802e-147
-2.73469e-83
-2.22373e-129
-2.69739e-30
1.21539e-15
2.16495e-225
1.10849e-41
4.30292e-44
1.07221e-89
3.01027e-40
1.49802e-157
5.05309e-22
7.38453e-71
1.01071e-38
2.92788e-31
2.62195e-194
-8.24891e-84
2.41027e-10
7.14542e-05
-5.46889e-236
-4.48209e-62
1.86429e-10
4.06576e-51
0.792782
-2.10993e-250
4.79142e-160
3.12697e-201
2.3738e-38
-1.5916e-65
-2.62763e-75
6.81321e-156
3.09933e-44
1.18282e-61
-4.96318e-64
-1.52856e-113
0.000196522
2.57154e-226
0.00047214
4.52554e-180
145.994
1.3759e-69
3.95723e-11
-2.19701e-195
-6.55326e-133
4.26856e-35
-3.78208e-129
-4.69888e-164
3.87996e-101
-2.38278e-63
-4.67286e-64
1.73655e-12
1.88469e-25
1.17793e-25
-7.25326e-276
-5.80524e-129
2.77005e-47
8.98597e-05
-2.48255e-275
-6.85772e-222
3.33869e-43
9.19665e-199
2.09626e-17
1.20543
88.3368
-1.05887e-273
-3.79391e-86
1.36834e-22
-8.74458e-73
-9.19926e-139
90.1417
-2.83297e-225
1.05992e-24
2.66692e-35
2.44264e-87
-1.26206e-141
-6.35648e-161
-1.50467e-106
8.48907e-44
6.35097e-69
-3.60486e-80
-6.71919e-272
1.17633e-209
-3.30477e-67
2.93415e-130
2.99069e-29
8.55967e-39
-7.92448e-173
-1.83396e-220
1.29753e-32
156.397
9.08312e-141
3.86307e-13
1.92504e-240
-2.08314e-79
6.45841e-25
1.06384e-51
1.63975e-24
1.14216e-29
-4.16582e-65
4.87379e-39
-1.83042e-257
-1.29433e-201
3.68275e-55
-4.95839e-77
-4.10246e-66
3.58531e-80
-1.21417e-244
3.95594e-218
-6.94319e-151
7.47011e-52
3.63105e-34
-9.20921e-35
-1.33782e-94
-8.79044e-33
3.42843e-41
-3.51747e-63
-9.25914e-32
-2.50786e-57
0.285464
1.34083e-39
6.41537e-56
1.37788e-30
-6.60225e-204
1.18334e-24
1.30802e-34
1.33277e-276
7.89943e-222
6.82339e-198
-7.70504e-198
2.46441e-07
-8.65338e-63
8.24061e-97
-6.40706e-34
1.32757e-100
8.17801e-17
5.41364e-52
3.98699e-43
-9.48745e-150
1.14553e-11
-2.05034e-245
3.49088e-51
1.91026e-123
1.05774e-19
-4.69514e-31
-2.55902e-71
3.54932e-63
9.04669
4.47459e-42
2.22677e-14
-3.8497e-72
6.46568e-12
0.546817
-2.00311e-188
1.67891e-130
-2.62345e-246
9.05294e-09
-2.83015e-130
1.0259e-68
0.00612928
-4.18223e-223
6.06759e-63
8.28201e-34
-1.95099e-68
-6.48671e-138
2.11408e-72
-1.49563e-178
-9.40925e-70
8.14287e-180
-2.61335e-179
-2.78134e-74
1.49661e-40
1.10272e-42
-5.64619e-67
4.83373e-09
9.97304e-53
17.0192
4.4562e-41
3.03823e-78
-6.18501e-72
7.41921e-43
3.68519e-55
1.41345e-58
0.500762
-3.85624e-37
2.21695e-58
-3.11576e-57
1.46122e-118
-5.33661e-131
3.36449e-33
-2.44342e-253
9.7729
-7.56007e-175
-4.42052e-36
2.19082e-23
1.52214e-07
3.11252e-21
1.51338e-33
3.33116e-35
-4.19668e-73
2.49966e-21
8.41444e-44
2.75577e-14
-1.8593e-56
1.48017e-14
-2.66796e-58
-1.10955e-266
-2.54512e-55
173.582
1.31078e-13
-3.47632e-101
2.2503e-258
-1.72807e-169
-6.21619e-92
9.13271e-58
1.31339e-43
5.83479e-66
3.30246e-197
-5.14653e-100
5.99207e-55
5.22879e-103
-1.67969e-113
7.62781e-14
-1.85345e-109
-5.77107e-48
3.76254e-30
3.0859e-101
2.06931e-93
3.6825e-29
-1.09664e-277
-4.34367e-95
51.7554
9.85216e-200
1.14656e-17
4.5809e-24
-1.58832e-94
3.67341e-34
4.40697e-30
4.05152e-57
1.16194e-28
2.32635e-130
-3.27786e-34
6.95924e-140
1.11779e-61
2.76879e-32
-7.63414e-33
2.81108e-131
2.57377e-38
1.33266e-07
-1.07965e-47
-4.87166e-75
-6.70497e-125
5.61797e-24
4.97904e-07
9.87036e-122
-2.97358e-224
3.09837e-57
4.419e-239
0.647903
-2.81444e-57
5.85636e-13
1.1343e-72
2.1354e-67
11.271
-4.79039e-70
0.00134336
5.34249e-45
83.2898
7.03975e-47
-4.34032e-79
-1.04821e-71
2.91761e-91
0.00306108
0.000258289
1.54878e-184
1.23879e-181
-1.56075e-30
-3.439e-172
0.00310993
1.21465e-30
1.8467e-10
-2.18484e-124
128.071
0.0860591
-1.63729e-56
-6.2075e-266
8.25203e-136
-1.51573e-39
-2.24471e-91
-1.9317e-93
-2.58908e-86
1.01448e-42
4.47412e-45
30.1938
5.41274e-08
5.36227e-199
7.09045e-39
4.81816e-27
-3.05861e-29
1.44564e-77
1.19206e-23
2.50843e-37
-2.07495e-38
-1.40449e-137
9.21075e-263
3.03299e-23
4.70318e-20
5.39359e-68
-1.28211e-31
8.04972e-14
1.01303e-79
4.35049e-58
8.12417e-122
2.84222e-84
1.13987e-15
-6.7388e-83
1.37715e-28
1.26829e-42
2.49532e-53
-1.63878e-106
-1.28219e-80
3.476e-08
6.4974e-75
4.32933e-78
34.2043
1.02384e-51
2.58503e-81
0.00821627
-2.12325e-270
2.53446e-73
-1.2086e-63
-1.44176e-90
3.96163e-153
1.31238e-59
1.40245e-278
4.3514e-10
3.00456e-132
-9.53197e-63
4.15295e-23
6.95076e-34
5.05645e-68
4.11376e-71
1.98541e-24
88.2592
-2.55254e-202
2.95718e-106
2.1114e-80
0.0067254
4.42315e-20
6.52146e-133
2.6469
4.25659e-263
1.01768e-135
179.912
-4.65797e-100
1.09445e-128
9.85738e-126
6.11886e-44
-4.99079e-42
-1.07742e-198
-3.80186e-93
7.47235e-26
5.98289e-65
-4.55239e-68
-2.90393e-87
-5.20731e-187
-8.65148e-41
1.03159e-06
-1.99835e-70
-9.08203e-33
6.5501e-46
3.76589e-60
5.60149e-11
4.30458e-28
-1.09835e-85
1.03897e-132
0.000341538
1.76712e-40
6.84565e-49
-1.53476e-121
-3.75617e-196
-1.88713e-38
8.94345e-12
2.66685e-77
4.57265e-31
1.07992e-75
-5.60489e-85
-8.8902e-110
2.76796e-41
147.362
19.0773
4.23095e-40
-5.91507e-70
1.24923e-111
1.50147e-42
0.0109321
-2.50654e-35
3.78197e-134
9.95792e-13
3.23357e-08
9.3896
-9.96958e-96
84.9551
-1.00905e-198
-1.86151e-83
-7.48339e-195
1.71822e-11
1.24294e-47
79.3778
-1.0694e-140
0.0176861
-1.24062e-171
-1.57956e-69
1.31361e-33
2.2073e-92
3.07226e-13
0.0817719
-6.04916e-98
1.42308e-105
4.00697e-74
-1.41925e-96
-1.52911e-99
3.05952e-14
3.2325e-50
1.81432e-70
4.5231e-16
-9.01513e-100
-2.12103e-191
-6.00029e-72
-1.31034e-168
4.68039e-28
3.38921e-74
1.2749e-09
1.58055e-11
-1.52741e-44
2.77256e-36
4.12727e-41
-6.09888e-73
0.0110754
6.3472e-80
-2.36561e-104
-2.49572e-244
2.90036e-12
-1.19589e-36
-9.28045e-142
6.31792e-28
-1.05234e-88
1.12827e-36
-3.85991e-39
-3.82301e-34
1.92253e-42
90.9064
1.26434e-40
-2.6823e-43
0.0832833
-4.60649e-92
1.37531e-07
2.82562e-27
2.26629e-174
2.71169e-78
-1.90556e-112
4.59228e-76
-4.41789e-259
-3.41617e-126
1.15324e-07
5.80503e-12
-2.71803e-127
196.506
2.44315e-30
4.69283e-175
2.84642e-12
9.46227e-14
2.55312e-177
4.98733e-11
3.61977e-24
8.71013e-12
-7.11135e-177
-2.32973e-131
7.71094e-109
4.89795e-178
-2.99169e-38
26.9688
-6.34626e-140
2.2191e-12
-4.17633e-272
2.60951
5.50908e-29
3.40749e-40
-2.49179e-226
-3.84589e-142
-4.05811e-82
3.60874e-44
9.5315e-16
4.42055e-37
9.94136e-101
4.68237e-95
-1.28678e-177
1.47835e-30
5.32608e-40
-8.3638e-112
4.15963e-222
9.87189e-61
1.3414e-37
2.45116e-46
-2.17298e-150
3.52268e-07
-6.91407e-31
2.52427e-170
1.26359e-49
-4.83194e-96
1.55928e-79
191.801
-2.32374e-101
7.78276e-173
4.09743e-44
-8.14948e-38
-3.95655e-47
2.76305
-9.69645e-65
-3.24703e-83
9.04768e-36
-5.43753e-91
1.55249e-89
-1.18664e-81
2.0754e-90
-5.72249e-30
-2.67708e-79
15.5414
-8.03156e-46
3.21572e-10
-3.35514e-88
0.000742305
1.09982e-32
4.83882e-11
1.63571e-14
3.56632e-39
3.81625e-82
1.11405e-87
-6.67216e-63
3.57888e-274
2.13306e-82
1.65578e-37
1.62606e-15
-1.05442e-91
1.38188e-171
4.34925e-42
4.02158e-39
6.00694e-19
2.58581e-41
8.92147e-13
5.98819e-19
2.48184e-120
7.30613e-53
0.538377
9.28223e-39
2.72205e-261
4.48576e-97
3.07893e-93
1.27495e-264
3.47138e-54
-1.47659e-200
6.72497e-81
1.31578e-15
4.43117e-35
1.25487e-06
-1.20059e-196
5.38767e-141
1.34164e-237
-1.42569e-92
-1.23429e-110
6.30852e-11
-2.89287e-110
3.25106e-141
2.9659e-07
2.77577e-39
1.0958e-55
1.49203e-55
4.44944e-18
6.08371e-102
1.84804e-12
1.04941e-88
-2.56427e-193
0.00147821
3.06234e-48
4.03401e-21
-1.13587e-105
55.5124
-1.13705e-41
2.81708e-49
9.15921e-41
2.85922e-32
28.2578
-3.42753e-85
2.4858e-13
-3.15182e-50
-3.36973e-50
-1.24441e-145
5.07145e-73
9.82015e-08
-4.4037e-83
1.82503e-09
-1.51631e-98
-7.93373e-103
3.64023e-13
9.01955e-162
3.31802e-128
-1.38751e-83
6.10397e-47
1.75124e-11
-1.17092e-99
-1.1729e-93
3.51473e-243
-7.12184e-49
0.00167861
6.09621e-46
-1.33144e-93
-1.18607e-66
3.57812e-103
-5.14884e-139
14.1339
-9.69358e-50
1.62549e-226
1.57514e-51
1.01103e-104
-2.46393e-40
-1.5383e-28
3.10084e-53
-2.2105e-92
1.55536e-15
9.2219e-12
-1.56853e-232
-8.40483e-66
3.21786e-12
-7.79e-142
-3.12154e-204
-1.81482e-67
2.21972e-55
-6.16978e-85
-2.39258e-202
-8.45461e-56
9.04783e-13
2.06842e-176
1.24094e-24
-3.41827e-202
-1.63063e-111
2.50037e-58
3.45175e-05
-6.84073e-249
2.01411
-2.01293e-48
4.91568e-23
35.942
-2.99234e-44
8.42682e-63
0.0298417
-3.76644e-92
1.12512e-05
7.53316e-20
-3.86168e-68
1.48883e-83
4.05586e-85
3.14823e-103
-4.10177e-109
5.3957e-25
0.0254778
188.481
5.76269e-29
-5.8809e-30
0.00255176
2.19803e-31
9.64952
2.36567e-154
1.66883e-101
1.15329e-19
4.45167e-47
-6.2442e-127
5.09246e-29
-1.42771e-87
27.9785
-9.55482e-261
-7.36517e-136
3.2893e-148
199.266
-1.55369e-38
1.88525e-46
-1.25078e-81
9.20003e-20
8.75506e-90
-2.05631e-144
1.91336e-07
-6.18095e-86
1.8652e-07
6.10863e-25
1.05428e-75
3.2969e-15
4.73241e-48
9.22253e-102
-2.11728e-139
1.15236e-138
0.213242
6.72408e-14
-1.55141e-115
1.31124e-18
2.87938e-56
1.1503e-26
-9.14164e-247
7.04162e-52
1.13967e-07
1.38e-12
-6.57314e-43
-1.70401e-70
2.83482e-139
6.70659e-18
2.04051e-88
6.21179e-143
1.40461e-10
3.99746e-18
-6.23148e-115
-4.87905e-32
2.62507e-50
-6.75503e-241
2.32326e-127
-3.27937e-206
-3.14191e-42
81.9772
8.61954e-12
4.14171e-21
-5.79619e-120
-3.14727e-87
2.5531e-47
-5.29172e-230
2.06445e-09
6.06166e-49
72.5501
-1.35618e-28
2.82455e-79
1.7739e-116
2.02072e-153
2.94361e-86
-3.5951e-90
7.87688e-125
14.1225
1.50281e-16
7.30465e-39
7.68085e-18
-6.99148e-45
1.27516e-140
-2.25283e-272
1.70499e-124
1.53299e-27
0.75726
-1.33077e-22
8.11305e-49
-4.80706e-51
-6.02012e-76
3.57086e-17
0.032186
0.0204796
-3.71139e-90
-9.51493e-73
3.16298e-31
2.62017e-106
7.81748e-200
-3.37109e-125
5.05026e-15
-7.48307e-112
5.52079e-65
-4.15696e-98
1.58062e-42
1.4004e-08
9.62175e-104
-9.91955e-125
6.01687e-11
5.5632e-17
8.86263e-97
5.95598e-144
-2.10093e-52
2.18561e-05
3.01078e-27
4.06598e-24
-4.13137e-55
2.42654e-65
0.034224
-2.52761e-85
-1.12324e-22
-9.50969e-138
6.88132e-13
2.66564e-12
-1.52428e-182
1.93677e-149
87.4023
1.82525e-126
2.38715e-78
1.33717e-29
-3.83549e-114
3.30193e-113
6.49393e-99
4.21649e-128
2.25218e-237
8.1831e-22
1.04027e-05
6.14086e-152
0.0154446
-1.5465e-90
-1.32038e-129
4.74279e-13
2.47069e-09
4.17701e-28
7.55809e-92
-1.30569e-124
-6.97164e-47
150.48
-1.90949e-111
1.15931e-152
-1.16378e-159
1.48227e-110
1.12705e-62
2.65241e-31
-1.14299e-114
-4.24366e-80
-3.07178e-130
7.10999
3.43212e-09
7.09946e-47
-7.60466e-41
-6.47923e-89
-1.8257e-129
6.33266e-18
1.28774
-8.49365e-77
9.06538e-159
-3.72726e-131
3.85713e-14
-3.72545e-115
-3.57979e-139
9.42123e-10
3.51504e-92
-6.99595e-126
117.327
1.11299e-07
5.13423
1.06603e-17
-5.3279e-115
8.15546e-15
1.03078e-10
0.152125
3.51027e-101
3.27595e-32
-8.17069e-234
0.113794
-1.35147e-265
-1.35352e-103
4.02328e-90
-5.77739e-158
1.44316e-44
-3.62315e-95
-1.12023e-113
6.40959e-103
6.17275
1.32787e-14
1.07244e-42
-1.13578e-123
2.90168e-31
13.009
2.51967e-09
4.20164e-45
-9.65512e-54
-4.25521e-104
4.07575e-90
9.45907e-155
3.5615e-116
3.17479e-150
-2.50507e-126
-1.63406e-45
2.27939e-15
7.33939e-18
0.301822
8.41785e-05
6.04881e-09
9.67808e-26
0.111245
-7.55255e-141
2.647e-05
-1.02408e-131
0.00133698
9.81021e-10
2.68142e-38
-2.10573e-114
1.33559e-37
3.06607e-25
2.9589e-70
75.3968
6.15963e-13
0.346781
-5.76322e-128
4.01495e-10
2.14031e-07
1.97617e-10
1.00621e-07
2.84285e-11
-4.07374e-126
3.23166e-100
5.28532e-46
-1.88257e-118
1.33137e-30
-4.42361e-107
5.54676e-41
2.30938e-185
-1.37785e-96
6.98665e-24
8.62519e-37
1.85796e-144
-1.44269e-49
0.793281
94.4645
-4.39867e-159
8.22825e-52
1.28728e-83
6.13117e-11
1.09137e-31
4.91803
3.1425e-05
6.65094e-104
8.12393e-43
1.61293e-07
-5.42562e-25
4.25785e-06
6.51863e-57
3.96924e-12
1.65644e-146
0.172605
1.32238e-09
3.38941e-142
8.63132e-08
0.0894272
1.01077e-47
3.62208
-1.5735e-93
4.61178e-09
-2.82427e-83
-5.20333e-164
-6.53188e-79
-3.39763e-87
0.0717725
8.85347e-06
0.0332045
-2.19667e-146
5.93057
6.31037e-39
1.71875e-13
-6.17067e-33
6.5494e-45
1.60487e-54
0.0153453
-7.03512e-92
-1.9097e-104
5.30849e-23
2.23488e-09
3.18247e-30
1.22097e-19
-1.09176e-60
0.0450681
5.00736e-31
7.31373e-31
1.26061e-09
8.40166e-178
5.33266e-08
2.80148e-13
2.92197e-08
-5.2547e-80
0.000648027
1.38047e-152
1.62162e-31
3.59743e-48
2.30548e-07
4.62113e-76
5.70326e-24
9.52509e-09
76.9449
4.68303e-110
7.9094e-42
-3.32093e-50
2.74971e-11
8.64999e-21
-1.59867e-102
8.24498e-41
3.01687e-155
14.1481
-2.05083e-242
1.72881e-154
-1.89005e-204
4.03265e-07
-2.04689e-124
2.97362e-40
2.53094
7.45327e-57
2.49273e-61
-2.11615e-118
1.64296e-194
5.78935e-10
1.52845e-157
-1.84103e-43
1.01604e-12
-3.44929e-48
2.10935e-06
7.19493e-99
1.24946e-39
7.51853e-08
6.4059e-20
4.22955e-76
85.4842
-2.30055e-247
6.74543e-189
-9.96008e-93
215.923
-2.63659e-81
2.80395e-78
5.2839e-08
-9.05403e-114
3.99487e-97
6.53775e-15
5.39209e-06
2.08594e-33
0.00665708
-6.93483e-114
8.57274e-94
1.9454e-46
1.77275e-51
1.78675e-07
-2.07286e-133
1.6296e-74
-7.25188e-58
-1.33569e-17
-3.19109e-65
3.8579e-146
2.15664e-42
-2.16666e-19
9.95402e-212
1.34618e-208
3.11572e-05
6.16185e-33
6.14923e-05
1.76217e-97
-2.81155e-260
-3.51338e-18
4.73696e-07
-3.76788e-140
-8.0198e-110
2.25377e-154
13.885
1.94552e-211
1.16743e-34
4.57626e-05
-2.24702e-204
9.07942e-193
2.75789e-20
-3.13342e-167
-8.36351e-208
7.26429e-45
1.08168e-13
1.72861e-148
7.28663e-23
-4.1196e-160
5.0672e-08
-1.55184e-262
8.23201e-08
2.21242e-13
1.15741e-22
-4.73412e-204
4.00926e-16
5.24632
8.27526e-106
2.1518e-50
9.88104e-171
4.65569e-14
1.96257e-161
4.80722e-07
7.66729e-10
4.91141e-90
1.11978e-201
6.01851e-14
1.53676e-14
2.40929e-51
1.11168e-49
6.74217e-17
-1.60287e-165
9.85304e-17
1.6835e-203
7.12713e-06
5.4111e-09
1.3804e-09
6.19646e-22
-7.62473e-24
9.46431
8.29666e-24
2.65591e-48
4.03152e-15
1.34064e-105
2.63418e-13
8.80165e-17
-4.33963e-46
3.32453e-85
0.0817928
-1.96533e-221
0.0372658
109.843
1.76086e-118
7.08106e-09
71.6983
1.92719e-36
6.70385e-46
1.88244e-17
-1.8443e-56
8.14298e-153
3.35418e-08
0.0113194
0.818722
-7.17338e-106
1.00654e-17
0.00026427
1.29741e-14
-1.00232e-126
2.24337e-187
3.29418e-36
0.0168094
4.30847e-09
7.20098e-17
-1.61088e-251
-2.75633e-162
5.4088e-15
-5.63606e-113
2.77711e-46
-2.66072e-108
-2.64763e-198
1.33098e-07
4.07914e-94
0.000101683
1.96266e-50
1.64182e-176
1.08768e-185
1.53466e-15
-3.00906e-107
8.17355e-36
1.26249e-16
0.527858
-2.63778e-52
-4.45909e-147
1.50816e-06
-3.79887e-97
7.032e-157
9.37121e-73
2.38314e-14
-2.56705e-105
2.66118e-14
1.75323e-48
210.164
2.60816e-15
-7.14941e-139
5.46405e-05
-1.97663e-203
2.18582e-09
1.78307e-39
4.77441e-06
0.00358026
-1.57902e-47
0.000100946
9.87737e-175
3.96781e-09
2.93039e-126
4.23352e-53
1.85338e-05
2.37878e-29
7.29259e-06
0.0140223
-2.22113e-20
4.92534e-08
1.66618e-06
-6.15151e-144
-1.31742e-159
-7.93406e-202
0.000125532
-5.3112e-25
-3.0027e-142
9.12076e-08
8.01735e-06
3.45274e-41
2.74352e-14
1.00148e-57
-1.38145e-35
0.00145616
-1.37074e-74
4.19118e-32
1.28585e-35
3.89957e-234
-8.32182e-232
-2.2718e-143
-9.85751e-106
1.27219e-50
3.62224e-178
-2.99878e-89
2.11665e-109
-3.97093e-66
1.27964e-21
1.96451e-126
7.31158e-07
-2.72781e-264
5.32565e-12
2.76618e-06
-9.92041e-137
3.98316e-05
2.37501e-13
3.21898e-06
-1.14656e-64
3.15123e-17
-1.13995e-115
4.67511e-40
2.69468e-51
1.91205e-187
-1.29202e-126
3.36356e-96
-4.76338e-135
1.00321e-208
2.75647e-57
1.59014e-210
-6.24644e-32
6.84405e-25
0.0595803
4.10689e-180
-1.8614e-64
2.08909e-176
-8.04615e-113
1.97247e-22
-1.9359e-67
-5.78574e-140
119.711
8.31645e-15
6.23213e-33
1.53561e-62
9.11363e-16
1.98633e-24
7.67937e-71
2.75327e-19
6.31727e-14
1.75006e-108
2.48465e-205
-1.10409e-86
6.24587e-08
-1.55417e-158
-6.5416e-144
3.5141e-14
5.13711e-118
-2.43652e-113
2.64663e-81
9.18515e-147
0.000723204
2.52576e-178
-1.24542e-145
1.30754e-22
1.49642e-19
4.65749
1.20198e-13
-4.76963e-61
-2.41066e-138
2.78318e-18
-4.78851e-140
2.19376e-28
1.11355e-55
-9.92235e-109
3.66866e-06
1.02102e-204
6.72092e-23
7.56827e-56
1.96571e-15
-1.12744e-45
1.48752e-214
-8.02329e-110
-7.32477e-264
2.78965e-26
-8.16545e-161
9.13091e-20
1.09031e-46
-7.69704e-96
-2.99251e-59
2.12315e-41
7.28437e-207
2.23058e-22
2.20016e-23
-1.16348e-106
5.23752e-22
5.80548e-08
2.48251e-196
1.60261e-41
9.15233e-12
2.33121e-14
5.10453e-80
1.48951e-44
4.11101e-43
2.68488e-49
1.36231e-76
2.13903e-15
-8.39376e-76
1.54652e-136
5.18511e-138
0.0168564
9.24133e-09
3.7379e-05
1.10265e-06
-1.01469e-36
2.02648e-21
9.93471e-47
3.10457e-20
2.53812e-137
2.3335
-3.64128e-112
1.95702e-06
4.34779e-10
-1.12365e-141
-2.52419e-26
3.90952e-09
2.60899e-06
7.76366e-45
4.47123e-28
5.0245e-139
-5.01893e-230
1.67657e-15
4.93094e-205
4.30272e-183
7.9531e-18
2.94083e-112
-1.25006e-69
-2.18139e-145
-8.73037e-95
1.43134e-15
10.8915
2.4834e-110
-9.38678e-117
5.93191e-09
-1.17844e-39
2.38789e-11
3.72415e-26
6.72219e-27
-7.0861e-116
2.77428e-40
1.10268e-18
1.39186e-17
-1.9309e-31
-2.901e-161
1.55015e-08
1.02555e-32
3.12172e-20
-8.0477e-88
1.49133e-143
2.96114e-17
3.68421e-108
-8.24211e-199
4.94022e-24
1.0952e-08
-1.02302e-180
5.4601e-23
7.0257e-50
1.81225e-124
-3.19142e-79
-9.98316e-123
4.70585e-24
3.64702e-137
2.6805e-145
9.14942e-49
1.56008e-24
-7.00243e-42
-2.49447e-31
9.87012
4.73937e-111
5.64927e-64
0.22383
2.51653e-35
-3.08605e-124
5.58179e-34
0.000198733
3.84942e-187
-1.65282e-116
6.86287e-200
1.73198e-27
4.23591e-15
4.59397e-52
2.25673e-212
-3.55828e-83
6.25401e-71
-1.95055e-96
1.05466e-09
-3.75479e-110
-1.28292e-210
6.96103e-207
6.57155e-30
1.23997e-45
1.21566e-05
-8.67998e-87
-6.62286e-51
5.32401e-35
1.4796e-16
-6.43204e-158
4.0234e-25
1.13192e-190
3.0002e-182
6.75685e-210
2.50556e-10
-1.55694e-115
1.27059e-25
6.7405e-26
1.85846e-28
1.08175e-17
2.66418e-29
5.47168e-14
8.90052e-27
3.92004e-108
6.58486e-32
4.75425e-51
2.74523e-37
4.06582e-22
-2.35954e-115
37.7374
1.53932e-17
7.99916e-20
-8.05761e-180
1.35495
4.82455e-17
6.30873e-19
-1.03192e-32
5.11591e-09
-7.79227e-66
-6.80701e-108
-2.17276e-96
2.54462e-100
1.56585e-94
5.13379e-19
1.02036e-22
-7.88438e-122
2.56246e-27
-5.75476e-98
-4.62134e-94
5.01441e-57
-9.46938e-49
-3.92369e-76
1.16965e-58
-3.7521e-47
9.28707e-29
4.33122e-27
4.26258e-52
-6.94269e-194
-3.23584e-92
-1.32187e-107
3.00262e-11
1.01681e-159
-1.35609e-118
2.65339e-27
1.04819
-2.58018e-137
1.94446e-05
-1.22413e-141
1.25469e-108
4.9942e-47
3.7428e-31
1.33094e-36
8.24164e-156
1.73227e-21
1.17474e-23
6.64962e-12
1.89627e-180
4.65275e-28
7.71875e-45
9.70467e-62
2.46999e-208
-1.78136e-250
-1.13166e-30
2.68951e-45
5.45934e-66
46.4244
1.25607e-24
1.26609e-34
-7.30021e-26
1.12764e-49
1.65727e-11
6.27306e-110
7.23922e-53
7.10457e-82
-2.98383e-94
0.00434339
1.00733e-26
3.94889e-23
1.37432e-38
-4.24517e-151
2.07841e-20
1.11313e-19
2.1656e-06
7.24072e-93
7.63128e-35
8.71101e-05
5.61774e-05
-2.38377e-143
1.4167e-05
1.44725e-56
19.4606
-1.16693e-196
2.75822e-26
2.73261e-39
-1.71373e-219
6.16759e-17
8.49149e-72
-8.35412e-83
9.45733e-12
0.000516209
5.67589e-07
-3.13859e-83
1.13559e-28
-4.11026e-197
-9.45911e-109
2.75236e-06
2.23143e-32
8.10845e-86
9.25842e-21
-3.3419e-23
7.16773e-30
7.41946e-44
7.52863e-41
7.81222e-26
0.00146171
1.55268e-149
5.57286e-43
7.42447e-53
3.11847e-29
1.34214e-07
1.38529e-25
4.43624e-35
5.42249e-74
-4.93139e-200
8.47168e-28
1.40477e-33
7.54448e-24
-1.14955e-154
2.63763e-62
1.28862e-28
7.55755e-27
-4.49333e-25
3.91078e-22
1.24283e-79
8.84737e-32
-4.40504e-117
1.57542e-15
4.38858e-58
5.08182e-27
9.22936e-67
-8.77172e-83
5.69025e-26
-2.44379e-63
-2.32785e-71
9.30705e-88
4.6039e-151
7.801e-35
-6.98799e-54
1.72158e-59
9.57153
0.00715951
-1.87237e-119
1.80247e-87
9.50018e-43
1.64325e-44
1.18816e-212
1.76057e-31
-5.12338e-38
5.18296e-32
-3.15922e-197
3.8207e-14
1.75641e-21
1.58187e-16
1.59144e-31
-1.80101e-180
2.49901e-100
1.57048e-67
1.84666e-31
3.5807e-09
13.5918
-2.21205e-146
3.37679e-71
-9.07396e-78
1.48221e-07
0.000289468
8.33528e-07
5.94107e-55
1.35845e-24
-2.18017e-195
1.10546e-41
-2.35061e-55
-1.16674e-144
-2.65663e-23
3.06962e-45
9.27266e-38
2.33816e-23
-9.89563e-76
3.5535e-45
3.56913e-34
-7.12946e-182
-6.22952e-275
1.24306e-46
-5.683e-70
1.27584e-08
8.71343e-54
-1.02787e-23
6.84623e-14
-3.14324e-43
-5.27605e-146
-1.71777e-62
3.12149e-22
4.88263e-150
0.0862871
0.0146062
-1.4376e-121
6.01163e-191
-2.88308e-112
1.49028e-149
-4.91406e-221
1.91413e-64
1.50897e-72
-3.89489e-34
1.71983e-44
3.69432e-33
-1.84663e-51
3.23044e-06
6.72887e-23
9.32807e-34
9.3752e-46
3.72525e-56
2.24185e-37
-2.26905e-181
-1.31313e-78
2.45713e-74
-3.05597e-33
-4.5051e-27
8.89125e-10
-6.65719e-224
-4.532e-28
1.29922e-40
1.56174e-53
9.47308e-24
-1.12179e-42
6.84953e-26
0.00154272
1.3706e-41
4.06411e-19
3.50404e-55
1.42671e-94
9.28975e-44
2.58932e-36
-9.15689e-152
6.44254e-47
0.0126714
-8.26484e-83
0.000109705
-2.78178e-144
4.81659e-36
-4.67306e-97
6.70278e-81
1.50879e-31
-1.42855e-21
1.99223e-23
4.30284e-77
2.3587e-49
7.25535e-54
9.52143e-19
3.82709e-16
-1.63611e-48
1.93554e-10
-8.59407e-220
8.95833e-44
7.07099
4.61458e-15
-9.96295e-78
0.234136
1.81727e-21
-6.86843e-73
2.6762e-168
4.61569e-11
1.48898e-36
2.52297e-55
6.35902e-39
3.4973e-159
7.05576e-25
1.14207e-85
1.74248e-15
2.30748e-38
2.0885e-34
-2.57209e-31
-1.80899e-268
-9.95513e-111
1.49466e-56
-2.83037e-94
-3.6985e-97
1.01689e-59
8.04189e-81
3.83191e-69
-5.03238e-26
3.56448e-29
-7.09799e-208
1.34484e-17
-9.89157e-111
-1.09199e-180
-7.8791e-29
-1.69002e-138
1.06409e-54
9.86789e-56
-1.71167e-153
-2.0537e-149
-8.14335e-89
9.98013e-29
2.41797e-65
5.36361e-34
4.32835e-39
-8.37061e-28
1.8862e-27
3.75976e-56
5.74947e-47
9.13025e-41
-7.89181e-239
-4.69373e-62
4.68128e-83
3.24729e-57
0.07488
4.47787e-31
-1.85334e-75
9.43282e-46
-1.20651e-67
1.46806e-73
-5.1657e-80
9.14503e-67
7.25868e-76
-3.49616e-34
2.48142e-41
-1.94157e-182
6.89797e-30
-6.48244e-53
6.96261e-28
-2.99931e-169
-2.08129e-29
2.14586e-05
-1.33208e-104
-2.73912e-42
3.43627e-21
-2.32235e-125
5.83563e-28
7.06929e-15
3.77444e-39
-8.49974e-40
1.63041e-16
2.20232e-46
-1.07507e-53
3.27947e-43
1.44344e-27
3.02491e-135
1.52035e-80
-3.67401e-228
8.29868e-109
-8.72562e-169
3.57691e-47
3.71682e-43
1.30933e-28
1.395e-44
10.1956
-2.27886e-21
23.0628
8.41181e-40
2.06073e-10
5.80202
5.77894e-17
18.8197
3.51388e-78
4.80358e-47
2.20001e-54
6.87563e-59
7.84384e-49
3.33378e-111
7.51587e-52
-2.65732e-98
-6.83198e-171
-4.11763e-55
2.03119
1.56839e-49
8.18471e-27
8.22995e-52
-2.27223e-90
7.02759e-42
1.39563e-43
-5.07482e-113
6.543e-49
4.00352e-89
1.44014e-25
8.38778e-42
7.82532e-44
-6.31908e-45
0.0441937
1.61092e-10
1.06689e-25
1.42826e-56
62.7372
3.81055e-51
-6.09965e-58
1.15163e-30
-1.1336e-30
-3.75675e-63
8.88932e-19
1.02766e-147
-2.82527e-39
-5.6545e-29
1.00203e-45
1.02842e-47
2.24648e-80
6.84153e-46
-9.06313e-36
1.83482e-76
1.61556e-30
4.82486e-53
2.23111e-68
-4.75675e-146
9.17872e-60
4.81581e-43
-1.73532e-86
1.1402e-55
3.04201e-68
1.48607e-112
-2.0074e-35
3.14596e-87
8.96352e-17
4.36414e-49
-4.22137e-68
-2.487e-154
5.64959e-106
1.23327e-18
2.26459e-45
4.18381e-210
2.92494e-48
4.9551
1.19355e-27
1.41251e-82
3.58175e-56
0.0275459
0.422298
28.551
9.68271e-97
1.25759e-98
-2.78754e-111
2.23909e-67
4.12046e-32
8.3497e-05
0.00170486
8.18988e-14
9.75182e-25
1.25213e-84
3.58492e-165
3.65355e-162
-8.92486e-29
-9.77173e-81
2.82171e-27
-8.58198e-99
6.31701e-08
2.60995e-94
8.44147e-48
1.30337e-12
-1.68592e-44
2.42494e-23
-4.10364e-116
8.4322e-48
-7.23205e-179
4.60891e-20
2.71269e-25
2.63822e-75
-1.74186e-170
1.16058e-72
-4.17624e-26
2.07417e-113
-1.35286e-47
0.0232255
-1.15777e-191
-1.26659e-73
-1.4624e-40
-5.1835e-41
5.7477e-51
4.96788e-125
-2.21622e-112
1.02948e-110
-6.21761e-214
-7.89784e-162
-1.66724e-68
8.16429e-33
-1.16459e-179
3.04784e-79
-3.4309e-120
148.603
-9.33862e-30
4.37592e-109
-9.61929e-226
3.55863e-27
3.00104e-50
1.32583e-22
-3.18322e-50
1.58006e-50
5.88705e-173
-3.85072e-110
2.04582e-19
1.99255e-236
6.20104e-52
3.41534e-30
1.62401e-54
6.10913e-157
1.54151e-45
-1.22489e-211
-2.44039e-65