/*--------------------------------*- C++ -*----------------------------------*\
  =========                 |
  \\      /  F ield         | OpenFOAM: The Open Source CFD Toolbox
   \\    /   O peration     | Website:  https://openfoam.org
    \\  /    A nd           | Version:  7
     \\/     M anipulation  |
\*---------------------------------------------------------------------------*/
FoamFile
{
    version     2.0;
    format      ascii;
    class       volScalarField;
    location    "0.18";
    object      p;
}
// * * * * * * * * * * * * * * * * * * * * * * * * * * * * * * * * * * * * * //

dimensions      [0 2 -2 0 0 0 0];

internalField   nonuniform List<scalar> 
40000
(
4.30552e-06
9.9517e-05
0.00015946
0.00014418
3.92923e-05
-0.000159737
-0.000450788
-0.000827989
-0.00128389
-0.0018106
-0.00240009
-0.0030445
-0.00373626
-0.00446822
-0.00523365
-0.00602622
-0.00683998
-0.00766939
-0.00850925
-0.00935475
-0.0102014
-0.011045
-0.0118816
-0.0127077
-0.0135197
-0.0143146
-0.0150894
-0.0158413
-0.0165679
-0.0172667
-0.0179357
-0.0185728
-0.0191761
-0.0197441
-0.020275
-0.0207676
-0.0212204
-0.0216323
-0.0220022
-0.0223292
-0.0226123
-0.0228509
-0.0230443
-0.0231918
-0.0232931
-0.0233477
-0.0233552
-0.0233154
-0.0232282
-0.0230934
-0.022911
-0.0226809
-0.0224034
-0.0220784
-0.0217063
-0.0212872
-0.0208215
-0.0203094
-0.0197515
-0.0191482
-0.0184998
-0.0178071
-0.0170705
-0.0162906
-0.0154682
-0.0146039
-0.0136984
-0.0127526
-0.0117671
-0.0107429
-0.00968083
-0.00858174
-0.00744658
-0.00627629
-0.00507187
-0.0038343
-0.00256463
-0.00126392
6.67594e-05
0.0014263
0.00281357
0.00422744
0.00566673
0.00713026
0.00861682
0.0101252
0.0116541
0.0132024
0.0147687
0.0163517
0.0179502
0.0195628
0.0211881
0.0228249
0.0244718
0.0261274
0.0277903
0.0294592
0.0311326
0.0328092
0.0344875
0.0361661
0.0378436
0.0395186
0.0411896
0.0428552
0.044514
0.0461646
0.0478055
0.0494354
0.0510527
0.0526561
0.0542441
0.0558155
0.0573687
0.0589023
0.0604151
0.0619057
0.0633726
0.0648146
0.0662304
0.0676186
0.0689779
0.0703072
0.0716052
0.0728706
0.0741023
0.0752991
0.0764598
0.0775835
0.078669
0.0797152
0.0807212
0.081686
0.0826087
0.0834883
0.0843242
0.0851153
0.0858611
0.0865609
0.0872138
0.0878195
0.0883773
0.0888867
0.0893473
0.0897588
0.0901209
0.0904332
0.0906957
0.0909082
0.0910708
0.0911834
0.0912462
0.0912594
0.0912233
0.0911382
0.0910047
0.0908232
0.0905944
0.0903191
0.089998
0.0896322
0.0892227
0.0887706
0.0882773
0.0877441
0.0871726
0.0865644
0.0859213
0.0852452
0.0845383
0.0838027
0.0830409
0.0822553
0.0814489
0.0806245
0.0797851
0.0789343
0.0780755
0.0772125
0.0763495
0.0754906
0.0746405
0.0738041
0.0729865
0.0721934
0.0714305
0.0707041
0.0700207
0.0693874
0.0688113
0.0682999
0.0678608
0.0675013
0.067228
0.0670456
0.0669553
0.0669513
0.0670168
0.0671094
-8.33087e-05
8.9398e-06
4.47638e-05
8.55215e-06
-0.00010346
-0.00029541
-0.000566962
-0.000914504
-0.00133279
-0.00181572
-0.00235674
-0.0029492
-0.00358654
-0.00426243
-0.0049708
-0.00570582
-0.00646199
-0.00723412
-0.00801733
-0.00880705
-0.00959898
-0.0103891
-0.0111737
-0.0119492
-0.0127123
-0.0134598
-0.0141891
-0.0148973
-0.0155819
-0.0162407
-0.0168716
-0.0174725
-0.0180416
-0.0185772
-0.0190778
-0.019542
-0.0199683
-0.0203557
-0.0207031
-0.0210093
-0.0212737
-0.0214955
-0.0216738
-0.0218082
-0.0218982
-0.0219432
-0.021943
-0.0218973
-0.0218058
-0.0216685
-0.0214852
-0.021256
-0.0209809
-0.02066
-0.0202935
-0.0198816
-0.0194246
-0.0189228
-0.0183765
-0.0177862
-0.0171523
-0.0164754
-0.015756
-0.0149946
-0.0141919
-0.0133486
-0.0124654
-0.0115429
-0.010582
-0.00958348
-0.00854815
-0.00747687
-0.00637054
-0.00523009
-0.00405645
-0.0028506
-0.00161355
-0.000346312
0.000950055
0.00227448
0.00362588
0.00500314
0.00640511
0.00783066
0.00927861
0.0107478
0.0122369
0.0137449
0.0152703
0.0168121
0.0183688
0.0199393
0.0215222
0.0231162
0.02472
0.0263322
0.0279516
0.0295767
0.0312063
0.0328388
0.034473
0.0361075
0.0377409
0.0393718
0.0409989
0.0426206
0.0442357
0.0458427
0.0474403
0.0490271
0.0506017
0.0521627
0.0537088
0.0552385
0.0567506
0.0582437
0.0597164
0.0611675
0.0625956
0.0639994
0.0653778
0.0667293
0.0680527
0.0693469
0.0706107
0.0718428
0.0730422
0.0742076
0.0753381
0.0764325
0.0774899
0.0785092
0.0794894
0.0804297
0.0813291
0.0821868
0.0830021
0.083774
0.084502
0.0851854
0.0858236
0.0864159
0.086962
0.0874612
0.0879133
0.0883179
0.0886748
0.0889837
0.0892444
0.089457
0.0896214
0.0897377
0.089806
0.0898266
0.0897997
0.0897258
0.0896054
0.0894389
0.0892271
0.0889706
0.0886705
0.0883275
0.0879429
0.0875176
0.0870531
0.0865506
0.0860118
0.0854382
0.0848317
0.0841941
0.0835274
0.082834
0.0821162
0.0813763
0.0806173
0.0798418
0.0790529
0.078254
0.0774484
0.0766399
0.0758322
0.0750296
0.0742363
0.0734571
0.0726968
0.0719605
0.0712537
0.070582
0.0699514
0.0693681
0.0688382
0.068368
0.0679636
0.0676307
0.0673737
0.0671955
0.0670954
0.0670684
0.0671095
0.0672021
-0.000140973
-2.58461e-05
9.91144e-06
-3.2327e-05
-0.000145229
-0.000330637
-0.000588169
-0.000914824
-0.0013063
-0.00175747
-0.00226274
-0.00281633
-0.00341245
-0.00404538
-0.00470957
-0.00539968
-0.00611055
-0.00683735
-0.00757545
-0.00832052
-0.00906848
-0.00981546
-0.0105578
-0.0112922
-0.0120153
-0.0127242
-0.0134161
-0.0140883
-0.0147384
-0.0153641
-0.0159635
-0.0165344
-0.017075
-0.0175838
-0.0180591
-0.0184996
-0.0189039
-0.0192708
-0.0195992
-0.0198881
-0.0201368
-0.0203443
-0.0205101
-0.0206334
-0.0207138
-0.0207508
-0.0207441
-0.0206933
-0.0205983
-0.0204588
-0.0202748
-0.0200463
-0.0197732
-0.0194557
-0.0190939
-0.0186881
-0.0182384
-0.0177452
-0.0172087
-0.0166295
-0.0160079
-0.0153444
-0.0146395
-0.0138938
-0.0131079
-0.0122823
-0.0114179
-0.0105153
-0.00957526
-0.00859851
-0.00758589
-0.00653824
-0.0054564
-0.00434129
-0.00319381
-0.00201492
-0.000805582
0.000433193
0.00170039
0.00299497
0.00431586
0.00566198
0.00703223
0.00842548
0.00984058
0.0112764
0.0127317
0.0142054
0.0156961
0.0172027
0.018724
0.0202587
0.0218055
0.0233631
0.0249302
0.0265056
0.0280879
0.0296758
0.0312681
0.0328632
0.03446
0.036057
0.0376529
0.0392463
0.040836
0.0424204
0.0439984
0.0455684
0.0471292
0.0486795
0.0502177
0.0517428
0.0532532
0.0547477
0.0562249
0.0576835
0.0591223
0.0605399
0.0619351
0.0633066
0.0646531
0.0659735
0.0672666
0.0685311
0.0697659
0.0709698
0.0721418
0.0732808
0.0743856
0.0754553
0.0764889
0.0774854
0.0784439
0.0793635
0.0802432
0.0810824
0.0818803
0.082636
0.083349
0.0840187
0.0846443
0.0852254
0.0857615
0.0862523
0.0866972
0.087096
0.0874485
0.0877545
0.0880138
0.0882264
0.0883924
0.0885117
0.0885847
0.0886114
0.0885923
0.0885278
0.0884183
0.0882644
0.0880667
0.0878261
0.0875434
0.0872195
0.0868555
0.0864526
0.086012
0.0855351
0.0850234
0.0844785
0.0839022
0.0832964
0.082663
0.0820043
0.0813226
0.0806202
0.0798999
0.0791644
0.0784167
0.0776599
0.0768974
0.0761327
0.0753696
0.0746119
0.0738639
0.0731299
0.0724146
0.0717227
0.0710593
0.0704296
0.0698391
0.0692931
0.0687973
0.0683572
0.0679777
0.0676637
0.0674188
0.0672454
0.0671431
0.0671093
0.0671506
0.0672678
-0.000125038
1.12816e-05
5.29352e-05
1.06004e-05
-0.000100834
-0.000280926
-0.000528558
-0.000840536
-0.00121278
-0.00164064
-0.00211913
-0.00264308
-0.00320723
-0.00380639
-0.00443543
-0.00508939
-0.00576349
-0.00645318
-0.00715409
-0.00786212
-0.00857338
-0.00928415
-0.00999094
-0.0106905
-0.0113797
-0.0120556
-0.0127155
-0.0133568
-0.0139772
-0.0145745
-0.0151465
-0.0156915
-0.0162075
-0.0166929
-0.0171462
-0.017566
-0.0179509
-0.0182999
-0.0186117
-0.0188855
-0.0191203
-0.0193154
-0.01947
-0.0195835
-0.0196555
-0.0196855
-0.0196729
-0.0196177
-0.0195195
-0.0193781
-0.0191934
-0.0189655
-0.0186942
-0.0183798
-0.0180222
-0.0176218
-0.0171786
-0.016693
-0.0161653
-0.0155959
-0.0149852
-0.0143337
-0.0136417
-0.01291
-0.012139
-0.0113294
-0.0104818
-0.00959689
-0.00867543
-0.00771814
-0.00672582
-0.00569926
-0.00463932
-0.00354686
-0.00242278
-0.00126799
-8.34515e-05
0.00112987
0.00237097
0.00363884
0.00493244
0.0062507
0.00759255
0.00895689
0.0103426
0.0117486
0.0131736
0.0146165
0.0160762
0.0175514
0.019041
0.0205436
0.022058
0.023583
0.0251174
0.0266598
0.028209
0.0297636
0.0313225
0.0328842
0.0344474
0.0360109
0.0375733
0.0391332
0.0406894
0.0422406
0.0437853
0.0453223
0.0468502
0.0483678
0.0498737
0.0513666
0.0528452
0.0543082
0.0557542
0.0571821
0.0585906
0.0599784
0.0613442
0.0626869
0.0640051
0.0652978
0.0665638
0.0678018
0.0690108
0.0701896
0.0713373
0.0724526
0.0735347
0.0745824
0.0755949
0.0765711
0.0775103
0.0784114
0.0792737
0.0800965
0.0808789
0.0816203
0.08232
0.0829774
0.0835919
0.0841631
0.0846905
0.0851736
0.0856122
0.0860059
0.0863545
0.0866579
0.0869159
0.0871286
0.0872959
0.0874179
0.0874949
0.0875271
0.0875148
0.0874585
0.0873586
0.0872156
0.0870304
0.0868036
0.0865361
0.0862289
0.0858829
0.0854994
0.0850796
0.0846249
0.0841367
0.0836167
0.0830665
0.0824881
0.0818834
0.0812546
0.0806038
0.0799335
0.0792463
0.0785448
0.0778319
0.0771107
0.0763845
0.0756565
0.0749305
0.0742101
0.0734994
0.0728025
0.0721236
0.0714675
0.0708387
0.070242
0.0696826
0.0691653
0.0686951
0.0682771
0.0679157
0.0676152
0.0673791
0.0672102
0.067109
0.0670753
0.0671235
0.067264
-1.98219e-05
0.000123834
0.000166336
0.000122561
1.1175e-05
-0.000165807
-0.000406511
-0.000707444
-0.0010646
-0.00147366
-0.00193006
-0.0024291
-0.00296598
-0.00353593
-0.00413424
-0.00475631
-0.00539768
-0.00605409
-0.00672146
-0.00739588
-0.00807366
-0.00875125
-0.00942531
-0.0100927
-0.0107504
-0.0113956
-0.0120257
-0.0126382
-0.0132308
-0.0138013
-0.0143477
-0.0148681
-0.0153608
-0.0158241
-0.0162566
-0.0166567
-0.0170233
-0.0173552
-0.0176513
-0.0179106
-0.0181322
-0.0183153
-0.0184593
-0.0185635
-0.0186275
-0.0186506
-0.0186326
-0.018573
-0.0184718
-0.0183285
-0.0181433
-0.0179159
-0.0176465
-0.0173349
-0.0169815
-0.0165862
-0.0161494
-0.0156712
-0.015152
-0.0145921
-0.013992
-0.013352
-0.0126726
-0.0119544
-0.0111979
-0.0104037
-0.00957247
-0.00870479
-0.00780139
-0.00686301
-0.0058904
-0.00488435
-0.00384567
-0.00277523
-0.00167388
-0.000542519
0.000617918
0.00180649
0.00302222
0.00426412
0.00553118
0.00682236
0.0081366
0.00947282
0.01083
0.0122069
0.0136025
0.0150156
0.016445
0.0178897
0.0193483
0.0208198
0.0223028
0.0237961
0.0252986
0.0268089
0.0283259
0.0298482
0.0313746
0.0329038
0.0344344
0.0359653
0.0374951
0.0390225
0.0405463
0.042065
0.0435775
0.0450824
0.0465784
0.0480643
0.0495387
0.0510004
0.0524481
0.0538806
0.0552964
0.0566945
0.0580736
0.0594324
0.0607698
0.0620845
0.0633753
0.0646412
0.0658809
0.0670933
0.0682773
0.0694319
0.0705559
0.0716484
0.0727084
0.0737349
0.0747269
0.0756836
0.076604
0.0774873
0.0783328
0.0791397
0.0799072
0.0806347
0.0813215
0.0819671
0.082571
0.0831325
0.0836514
0.0841273
0.0845597
0.0849484
0.0852933
0.0855942
0.0858509
0.0860636
0.0862322
0.0863568
0.0864376
0.086475
0.0864691
0.0864206
0.0863298
0.0861974
0.0860239
0.0858103
0.0855572
0.0852658
0.0849369
0.0845718
0.0841717
0.0837379
0.0832719
0.0827753
0.0822498
0.0816971
0.0811193
0.0805184
0.0798966
0.0792562
0.0785997
0.0779298
0.0772492
0.0765609
0.0758679
0.0751736
0.0744814
0.0737949
0.0731177
0.072454
0.0718077
0.0711831
0.0705845
0.0700165
0.0694836
0.0689905
0.0685416
0.0681415
0.0677943
0.0675041
0.0672745
0.0671084
0.0670073
0.0669729
0.0670236
0.0671742
0.000178978
0.000315879
0.000352122
0.000303225
0.000188787
1.17531e-05
-0.000225427
-0.000519049
-0.00086517
-0.00125973
-0.0016985
-0.00217713
-0.00269123
-0.0032364
-0.00380829
-0.00440262
-0.00501527
-0.00564226
-0.00627973
-0.00692401
-0.00757159
-0.00821911
-0.00886338
-0.00950137
-0.0101302
-0.0107472
-0.0113498
-0.0119356
-0.0125023
-0.0130479
-0.0135703
-0.0140679
-0.0145387
-0.0149813
-0.0153942
-0.0157759
-0.0161252
-0.016441
-0.0167222
-0.0169677
-0.0171769
-0.0173487
-0.0174827
-0.0175781
-0.0176343
-0.017651
-0.0176277
-0.0175642
-0.01746
-0.0173151
-0.0171293
-0.0169025
-0.0166348
-0.0163261
-0.0159766
-0.0155864
-0.0151556
-0.0146846
-0.0141736
-0.0136229
-0.013033
-0.0124042
-0.0117369
-0.0110318
-0.0102893
-0.00950997
-0.00869446
-0.00784338
-0.00695743
-0.0060373
-0.00508372
-0.00409748
-0.00307935
-0.00203017
-0.00095079
0.000157924
0.00129507
0.00245972
0.00365093
0.00486773
0.00610913
0.00737412
0.00866166
0.00997071
0.0113002
0.0126491
0.0140162
0.0154004
0.0168007
0.0182158
0.0196446
0.0210859
0.0225385
0.0240012
0.0254729
0.0269522
0.0284381
0.0299291
0.0314241
0.0329219
0.0344211
0.0359205
0.0374188
0.0389148
0.0404071
0.0418946
0.043376
0.0448499
0.0463151
0.0477704
0.0492145
0.0506461
0.052064
0.0534669
0.0548537
0.056223
0.0575738
0.0589047
0.0602146
0.0615024
0.0627668
0.0640068
0.0652212
0.0664089
0.0675689
0.0687001
0.0698014
0.070872
0.0719107
0.0729167
0.0738891
0.0748269
0.0757294
0.0765956
0.0774249
0.0782165
0.0789697
0.0796838
0.0803583
0.0809926
0.0815861
0.0821385
0.0826493
0.0831181
0.0835446
0.0839285
0.0842698
0.0845682
0.0848237
0.0850363
0.085206
0.085333
0.0854175
0.0854597
0.08546
0.0854188
0.0853366
0.085214
0.0850517
0.0848504
0.084611
0.0843343
0.0840215
0.0836737
0.0832921
0.0828779
0.0824327
0.081958
0.0814554
0.0809268
0.080374
0.079799
0.079204
0.0785912
0.077963
0.0773221
0.0766711
0.0760127
0.07535
0.0746862
0.0740244
0.0733682
0.072721
0.0720866
0.0714689
0.0708717
0.0702993
0.0697556
0.069245
0.0687717
0.0683398
0.0679536
0.067617
0.0673338
0.0671075
0.0669416
0.066838
0.0667994
0.0668458
0.0669928
0.000469466
0.000587553
0.000610243
0.000551618
0.000430192
0.000249393
1.20229e-05
-0.000278169
-0.000617344
-0.00100165
-0.00142713
-0.00188977
-0.00238549
-0.00291023
-0.00345995
-0.00403072
-0.00461868
-0.00522012
-0.00583143
-0.00644913
-0.00706992
-0.00769059
-0.00830812
-0.00891962
-0.00952234
-0.0101137
-0.0106912
-0.0112525
-0.0117955
-0.0123182
-0.0128186
-0.013295
-0.0137457
-0.0141691
-0.0145637
-0.0149283
-0.0152615
-0.0155623
-0.0158295
-0.0160623
-0.0162597
-0.016421
-0.0165456
-0.0166326
-0.0166818
-0.0166924
-0.0166642
-0.0165969
-0.01649
-0.0163436
-0.0161573
-0.0159311
-0.0156651
-0.0153592
-0.0150135
-0.0146281
-0.0142032
-0.013739
-0.0132359
-0.012694
-0.0121138
-0.0114957
-0.0108401
-0.0101475
-0.0094184
-0.00865335
-0.00785293
-0.00701778
-0.00614855
-0.00524592
-0.0043106
-0.00334335
-0.00234493
-0.00131616
-0.000257848
0.000829144
0.00194394
0.00308564
0.00425332
0.00544603
0.00666281
0.00790266
0.00916458
0.0104476
0.0117505
0.0130724
0.0144122
0.0157688
0.017141
0.0185277
0.0199279
0.0213402
0.0227637
0.0241971
0.0256392
0.0270888
0.0285447
0.0300058
0.0314707
0.0329383
0.0344073
0.0358765
0.0373447
0.0388105
0.0402729
0.0417304
0.0431819
0.0446261
0.0460618
0.0474878
0.0489028
0.0503056
0.0516949
0.0530697
0.0544285
0.0557704
0.057094
0.0583982
0.0596819
0.0609439
0.062183
0.0633983
0.0645885
0.0657526
0.0668896
0.0679985
0.0690782
0.0701277
0.0711462
0.0721327
0.0730863
0.0740062
0.0748915
0.0757414
0.0765552
0.0773323
0.0780718
0.0787732
0.0794359
0.0800594
0.0806431
0.0811867
0.0816897
0.0821518
0.0825726
0.082952
0.0832898
0.0835859
0.0838401
0.0840526
0.0842233
0.0843525
0.0844403
0.084487
0.084493
0.0844586
0.0843844
0.084271
0.0841191
0.0839293
0.0837025
0.0834397
0.0831418
0.08281
0.0824455
0.0820495
0.0816236
0.0811691
0.0806877
0.0801811
0.0796513
0.0791
0.0785295
0.0779419
0.0773396
0.0767249
0.0761005
0.0754692
0.0748336
0.0741969
0.0735622
0.0729327
0.0723117
0.0717028
0.0711096
0.0705358
0.0699852
0.0694617
0.0689691
0.0685114
0.0680925
0.0677163
0.0673864
0.0671066
0.0668803
0.066711
0.0666014
0.0665544
0.0665892
0.0667207
0.000846177
0.000935586
0.000937861
0.000864655
0.00073205
0.000543609
0.00030228
1.17173e-05
-0.0003244
-0.000702424
-0.00111866
-0.00156936
-0.00205075
-0.00255907
-0.00309059
-0.00364165
-0.00420868
-0.0047882
-0.00537683
-0.00597131
-0.0065685
-0.00716539
-0.0077591
-0.00834687
-0.00892607
-0.00949421
-0.0100489
-0.010588
-0.0111094
-0.0116112
-0.0120914
-0.0125483
-0.0129804
-0.013386
-0.0137638
-0.0141124
-0.0144307
-0.0147176
-0.0149719
-0.0151927
-0.0153793
-0.0155307
-0.0156465
-0.0157258
-0.0157682
-0.0157733
-0.0157405
-0.0156697
-0.0155604
-0.0154125
-0.0152258
-0.0150003
-0.014736
-0.0144327
-0.0140907
-0.0137099
-0.0132907
-0.0128331
-0.0123375
-0.0118041
-0.0112333
-0.0106254
-0.00998097
-0.00930036
-0.0085841
-0.00783271
-0.00704678
-0.00622689
-0.00537369
-0.00448783
-0.00357002
-0.00262098
-0.00164147
-0.000632258
0.000405841
0.001472
0.00256536
0.00368504
0.00483015
0.00599975
0.00719291
0.00840865
0.00964599
0.0109039
0.0121815
0.0134775
0.0147911
0.0161211
0.0174664
0.0188259
0.0201986
0.0215832
0.0229787
0.0243839
0.0257976
0.0272187
0.028646
0.0300783
0.0315144
0.0329531
0.0343932
0.0358334
0.0372727
0.0387097
0.0401432
0.041572
0.0429949
0.0444107
0.0458181
0.047216
0.0486032
0.0499784
0.0513404
0.0526881
0.0540203
0.0553359
0.0566335
0.0579122
0.0591708
0.0604082
0.0616232
0.0628148
0.0639819
0.0651235
0.0662386
0.0673261
0.0683851
0.0694147
0.0704138
0.0713817
0.0723174
0.0732201
0.074089
0.0749234
0.0757225
0.0764856
0.0772121
0.0779014
0.0785529
0.079166
0.0797404
0.0802756
0.0807711
0.0812268
0.0816422
0.0820172
0.0823517
0.0826454
0.0828984
0.0831107
0.0832824
0.0834135
0.0835044
0.0835552
0.0835664
0.0835384
0.0834717
0.0833668
0.0832245
0.0830454
0.0828303
0.0825803
0.0822963
0.0819793
0.0816306
0.0812514
0.0808431
0.0804072
0.0799452
0.0794589
0.0789501
0.0784205
0.0778723
0.0773075
0.0767285
0.0761375
0.0755371
0.0749299
0.0743185
0.0737058
0.0730948
0.0724886
0.0718904
0.0713034
0.070731
0.0701768
0.0696441
0.0691368
0.0686583
0.0682124
0.0678026
0.0674325
0.0671058
0.0668257
0.0665959
0.0664198
0.0663
0.06624
0.0662566
0.0663627
0.00130207
0.00135491
0.00133084
0.00123848
0.00109061
0.000890703
0.000641723
0.00034714
1.04096e-05
-0.000365039
-0.000775759
-0.00121827
-0.00168906
-0.00218466
-0.00270163
-0.00323656
-0.00378614
-0.00434713
-0.00491635
-0.00549074
-0.00606736
-0.00664335
-0.00721598
-0.00778264
-0.00834081
-0.00888812
-0.00942233
-0.00994131
-0.0104431
-0.0109257
-0.0113874
-0.0118266
-0.0122415
-0.0126308
-0.0129931
-0.0133271
-0.0136316
-0.0139055
-0.0141478
-0.0143576
-0.014534
-0.0146763
-0.0147839
-0.0148561
-0.0148923
-0.0148921
-0.0148552
-0.014781
-0.0146695
-0.0145204
-0.0143334
-0.0141086
-0.0138459
-0.0135453
-0.0132068
-0.0128306
-0.0124167
-0.0119655
-0.0114771
-0.0109518
-0.01039
-0.00979202
-0.00915824
-0.00848914
-0.00778519
-0.00704691
-0.00627485
-0.00546959
-0.00463176
-0.00376198
-0.00286096
-0.00192938
-0.000967984
2.24649e-05
0.00104118
0.00208736
0.00316016
0.00425874
0.00538219
0.00652963
0.00770013
0.00889275
0.0101065
0.0113405
0.0125936
0.0138649
0.0151533
0.0164578
0.0177773
0.0191107
0.020457
0.0218151
0.0231837
0.0245619
0.0259484
0.0273422
0.028742
0.0301467
0.0315552
0.0329662
0.0343785
0.0357911
0.0372026
0.0386119
0.0400179
0.0414192
0.0428147
0.0442033
0.0455837
0.0469547
0.0483152
0.049664
0.0509999
0.0523218
0.0536285
0.0549188
0.0561917
0.057446
0.0586806
0.0598944
0.0610864
0.0622554
0.0634005
0.0645206
0.0656147
0.0666819
0.0677211
0.0687315
0.0697122
0.0706623
0.0715809
0.0724673
0.0733206
0.0741402
0.0749252
0.0756751
0.0763892
0.0770669
0.0777077
0.078311
0.0788765
0.0794036
0.0798921
0.0803416
0.0807518
0.0811226
0.0814538
0.0817453
0.081997
0.082209
0.0823814
0.0825144
0.082608
0.0826627
0.0826787
0.0826566
0.0825967
0.0824997
0.0823662
0.082197
0.0819928
0.0817546
0.0814833
0.08118
0.0808458
0.080482
0.08009
0.0796711
0.0792269
0.0787591
0.0782693
0.0777594
0.0772314
0.0766873
0.0761292
0.0755594
0.0749804
0.0743945
0.0738045
0.0732129
0.0726226
0.0720366
0.0714577
0.0708892
0.0703342
0.069796
0.0692778
0.068783
0.068315
0.0678772
0.067473
0.0671056
0.0667784
0.0664947
0.0662579
0.0660712
0.0659374
0.0658598
0.0658524
0.0659251
0.00182961
0.00183974
0.00178442
0.00166881
0.00150186
0.00128687
0.00102674
0.000724684
0.000383896
7.56924e-06
-0.000401096
-0.000838874
-0.00130253
-0.00178884
-0.00229465
-0.00281679
-0.00335218
-0.0038978
-0.00445068
-0.00500795
-0.00556684
-0.00612467
-0.00667884
-0.00722688
-0.0077664
-0.00829515
-0.00881098
-0.00931187
-0.0097959
-0.0102612
-0.0107062
-0.0111291
-0.0115285
-0.0119028
-0.0122509
-0.0125714
-0.0128632
-0.0131252
-0.0133564
-0.013556
-0.0137231
-0.013857
-0.013957
-0.0140225
-0.014053
-0.0140481
-0.0140072
-0.0139302
-0.0138166
-0.0136664
-0.0134793
-0.0132552
-0.0129942
-0.0126961
-0.0123611
-0.0119892
-0.0115806
-0.0111355
-0.010654
-0.0101365
-0.00958332
-0.00899476
-0.00837122
-0.00771315
-0.007021
-0.00629527
-0.00553651
-0.00474527
-0.00392215
-0.00306779
-0.00218284
-0.00126799
-0.000323956
0.000648519
0.00164867
0.0026757
0.00372881
0.00480715
0.00590986
0.00703606
0.00818485
0.00935531
0.0105465
0.0117574
0.0129872
0.0142347
0.015499
0.0167791
0.0180739
0.0193823
0.0207034
0.0220359
0.0233789
0.0247312
0.0260917
0.0274592
0.0288328
0.0302111
0.0315931
0.0329776
0.0343634
0.0357494
0.0371344
0.0385172
0.0398968
0.0412718
0.0426411
0.0440036
0.0453582
0.0467035
0.0480385
0.0493621
0.0506731
0.0519703
0.0532526
0.0545189
0.0557681
0.0569991
0.0582108
0.0594021
0.0605721
0.0617196
0.0628436
0.0639432
0.0650173
0.066065
0.0670854
0.0680776
0.0690407
0.0699739
0.0708762
0.071747
0.0725855
0.0733909
0.0741626
0.0748999
0.0756021
0.0762688
0.0768994
0.0774933
0.0780503
0.0785698
0.0790515
0.0794951
0.0799003
0.080267
0.0805951
0.0808843
0.0811348
0.0813465
0.0815195
0.081654
0.0817502
0.0818083
0.0818288
0.081812
0.0817584
0.0816687
0.0815433
0.0813832
0.081189
0.0809616
0.0807019
0.0804112
0.0800903
0.0797406
0.0793634
0.07896
0.078532
0.0780809
0.0776084
0.0771163
0.0766064
0.0760807
0.0755414
0.0749905
0.0744303
0.0738633
0.0732918
0.0727185
0.0721461
0.0715772
0.0710147
0.0704615
0.0699207
0.0693951
0.068888
0.0684025
0.0679416
0.0675085
0.0671064
0.0667384
0.0664076
0.066117
0.0658697
0.065669
0.0655174
0.0654182
0.0653818
0.0654149
0.00242119
0.00238396
0.00229341
0.00215101
0.00196157
0.00172818
0.00145367
0.00114093
0.000792893
0.00041249
2.67855e-06
-0.000433575
-0.000893291
-0.00137352
-0.00187131
-0.00238376
-0.002908
-0.00344121
-0.00398063
-0.00452357
-0.00506743
-0.00560968
-0.00614787
-0.00667966
-0.00720281
-0.00771516
-0.00821467
-0.00869943
-0.00916758
-0.00961738
-0.0100472
-0.0104554
-0.0108406
-0.0112014
-0.0115365
-0.0118447
-0.0121248
-0.0123759
-0.012597
-0.0127873
-0.0129458
-0.0130719
-0.013165
-0.0132244
-0.0132497
-0.0132403
-0.0131959
-0.0131162
-0.0130009
-0.0128497
-0.0126626
-0.0124393
-0.0121799
-0.0118844
-0.0115527
-0.0111851
-0.0107815
-0.0103422
-0.00986744
-0.00935744
-0.00881251
-0.00823299
-0.00761927
-0.00697176
-0.00629091
-0.0055772
-0.00483117
-0.00405334
-0.00324432
-0.00240471
-0.00153514
-0.000636308
0.000291107
0.00124638
0.00222875
0.00323746
0.00427172
0.00533069
0.00641354
0.00751941
0.00864742
0.00979666
0.0109662
0.0121551
0.0133625
0.0145873
0.0158285
0.0170852
0.0183563
0.0196409
0.0209378
0.0222459
0.0235643
0.0248918
0.0262274
0.0275699
0.0289183
0.0302714
0.031628
0.0329871
0.0343476
0.0357082
0.0370679
0.0384254
0.0397797
0.0411296
0.0424739
0.0438116
0.0451414
0.0464622
0.0477729
0.0490724
0.0503595
0.0516331
0.0528922
0.0541355
0.0553621
0.0565709
0.0577608
0.0589307
0.0600797
0.0612066
0.0623106
0.0633906
0.0644457
0.065475
0.0664775
0.0674523
0.0683987
0.0693157
0.0702026
0.0710585
0.0718829
0.0726748
0.0734338
0.074159
0.07485
0.0755062
0.0761271
0.0767121
0.0772609
0.0777731
0.0782484
0.0786863
0.0790868
0.0794496
0.0797746
0.0800617
0.0803108
0.0805221
0.0806956
0.0808314
0.0809298
0.0809911
0.0810156
0.0810037
0.0809559
0.0808727
0.0807549
0.080603
0.0804179
0.0802004
0.0799514
0.079672
0.0793633
0.0790264
0.0786626
0.0782733
0.0778599
0.0774238
0.0769669
0.0764906
0.075997
0.0754877
0.0749649
0.0744306
0.073887
0.0733363
0.0727809
0.0722233
0.0716659
0.0711113
0.0705623
0.0700215
0.0694918
0.0689759
0.0684767
0.0679972
0.0675403
0.0671089
0.0667059
0.0663341
0.0659965
0.0656959
0.0654351
0.0652171
0.0650444
0.06492
0.0648506
0.0648392
0.00306951
0.00298145
0.00285246
0.00268028
0.00246536
0.00221062
0.00191878
0.00159245
0.00123423
0.000846823
0.000432917
-4.77454e-06
-0.000463519
-0.000940602
-0.00143331
-0.00193895
-0.00245487
-0.00297844
-0.0035071
-0.00403832
-0.00456968
-0.00509879
-0.00562335
-0.00614116
-0.00665008
-0.0071481
-0.00763327
-0.00810375
-0.0085578
-0.00899373
-0.00940998
-0.00980503
-0.0101775
-0.010526
-0.0108493
-0.0111463
-0.0114159
-0.0116571
-0.0118689
-0.0120506
-0.0122013
-0.0123203
-0.0124071
-0.0124609
-0.0124814
-0.0124681
-0.0124205
-0.0123384
-0.0122215
-0.0120696
-0.0118825
-0.0116601
-0.0114024
-0.0111094
-0.010781
-0.0104174
-0.0100187
-0.00958508
-0.00911672
-0.0086139
-0.0080769
-0.00750605
-0.00690173
-0.00626433
-0.00559429
-0.00489209
-0.00415823
-0.00339325
-0.0025977
-0.00177219
-0.000917351
-3.38289e-05
0.000877693
0.00181651
0.00278189
0.00377307
0.00478929
0.00582974
0.0068936
0.00798003
0.00908816
0.0102171
0.011366
0.0125339
0.0137198
0.0149228
0.016142
0.0173764
0.0186249
0.0198865
0.0211603
0.0224452
0.0237401
0.0250439
0.0263557
0.0276742
0.0289986
0.0303275
0.03166
0.0329949
0.0343311
0.0356675
0.0370029
0.0383363
0.0396665
0.0409924
0.0423129
0.0436268
0.044933
0.0462304
0.0475179
0.0487944
0.0500588
0.05131
0.0525469
0.0537684
0.0549735
0.0561611
0.0573302
0.0584797
0.0596087
0.0607161
0.061801
0.0628624
0.0638994
0.0649111
0.0658965
0.0668549
0.0677853
0.068687
0.0695591
0.070401
0.0712119
0.0719911
0.0727379
0.0734518
0.0741321
0.0747783
0.0753899
0.0759665
0.0765076
0.0770128
0.0774818
0.0779144
0.0783103
0.0786693
0.0789914
0.0792763
0.0795241
0.0797349
0.0799087
0.0800457
0.0801461
0.0802101
0.0802382
0.0802307
0.0801881
0.080111
0.0799999
0.0798556
0.0796787
0.0794702
0.0792309
0.0789619
0.0786641
0.0783387
0.0779871
0.0776104
0.07721
0.0767875
0.0763443
0.0758822
0.0754028
0.0749081
0.0743997
0.0738799
0.0733505
0.0728139
0.0722721
0.0717276
0.0711827
0.0706399
0.0701016
0.0695704
0.0690489
0.0685398
0.0680458
0.0675694
0.0671136
0.0666809
0.066274
0.0658956
0.0655484
0.0652349
0.0649578
0.0647195
0.0645227
0.0643703
0.0642645
0.0642051
0.00376762
0.00362616
0.00345624
0.00325178
0.00300884
0.00273015
0.00241838
0.00207581
0.00170477
0.00130767
0.000886957
0.000445099
-1.54067e-05
-0.000492071
-0.0009824
-0.0014839
-0.00199413
-0.00251064
-0.00303105
-0.00355302
-0.00407425
-0.00459252
-0.00510567
-0.00561163
-0.00610839
-0.00659404
-0.00706674
-0.00752474
-0.00796637
-0.00839005
-0.00879425
-0.00917754
-0.00953857
-0.00987606
-0.0101888
-0.0104757
-0.0107358
-0.010968
-0.0111714
-0.0113453
-0.0114889
-0.0116015
-0.0116825
-0.0117314
-0.0117476
-0.0117306
-0.0116802
-0.011596
-0.0114778
-0.0113253
-0.0111384
-0.010917
-0.0106609
-0.0103704
-0.0100452
-0.00968557
-0.00929158
-0.00886338
-0.0084012
-0.00790527
-0.00737587
-0.00681333
-0.006218
-0.00559027
-0.00493058
-0.00423938
-0.00351716
-0.00276444
-0.00198178
-0.00116975
-0.000328972
0.000539918
0.00143626
0.00235935
0.00330849
0.00428293
0.00528192
0.00630468
0.0073504
0.00841825
0.0095074
0.010617
0.0117461
0.0128939
0.0140593
0.0152416
0.0164397
0.0176527
0.0188797
0.0201195
0.0213712
0.0226338
0.0239062
0.0251875
0.0264765
0.0277722
0.0290736
0.0303795
0.0316889
0.0330007
0.0343138
0.0356271
0.0369394
0.0382498
0.039557
0.04086
0.0421577
0.043449
0.0447328
0.0460079
0.0472733
0.0485279
0.0497707
0.0510005
0.0522163
0.053417
0.0546016
0.0557691
0.0569184
0.0580485
0.0591585
0.0602474
0.0613141
0.0623579
0.0633777
0.0643726
0.0653419
0.0662846
0.0671999
0.068087
0.0689452
0.0697738
0.0705719
0.0713389
0.0720743
0.0727773
0.0734475
0.0740842
0.0746871
0.0752555
0.0757893
0.0762879
0.076751
0.0771785
0.0775699
0.0779253
0.0782444
0.0785273
0.0787737
0.0789839
0.0791579
0.0792959
0.079398
0.0794645
0.0794958
0.0794923
0.0794544
0.0793826
0.0792776
0.0791401
0.0789707
0.0787703
0.0785397
0.0782799
0.077992
0.077677
0.0773361
0.0769707
0.0765819
0.0761713
0.0757404
0.0752907
0.0748239
0.0743416
0.0738459
0.0733384
0.0728212
0.0722964
0.071766
0.0712323
0.0706975
0.0701638
0.0696337
0.0691095
0.0685937
0.0680887
0.067597
0.0671212
0.0666637
0.066227
0.0658137
0.065426
0.0650666
0.0647376
0.0644415
0.0641805
0.0639571
0.0637739
0.0636293
0.0635191
0.00450897
0.00431228
0.00409951
0.00386077
0.00358765
0.00328278
0.00294879
0.00258764
0.00220137
0.00179214
0.00136215
0.000913627
0.000448851
-2.99009e-05
-0.000520343
-0.00102018
-0.00152716
-0.00203902
-0.00255353
-0.00306853
-0.00358186
-0.00409146
-0.00459529
-0.00509143
-0.00557797
-0.00605311
-0.00651513
-0.00696235
-0.0073932
-0.00780615
-0.00819976
-0.00857267
-0.00892358
-0.00925127
-0.0095546
-0.0098325
-0.010084
-0.0103081
-0.010504
-0.010671
-0.0108082
-0.010915
-0.0109908
-0.0110352
-0.0110475
-0.0110274
-0.0109744
-0.0108884
-0.0107691
-0.0106162
-0.0104296
-0.0102092
-0.00995487
-0.00966672
-0.00934471
-0.00898892
-0.00859947
-0.00817652
-0.00772026
-0.00723094
-0.00670883
-0.00615423
-0.00556751
-0.00494904
-0.00429923
-0.00361853
-0.00290743
-0.00216642
-0.00139606
-0.000596897
0.000230457
0.00108538
0.00196723
0.00287532
0.00380896
0.00476743
0.00574998
0.00675585
0.00778426
0.0088344
0.00990543
0.0109965
0.0121068
0.0132354
0.0143813
0.0155438
0.0167218
0.0179145
0.0191208
0.0203398
0.0215705
0.0228118
0.0240629
0.0253226
0.0265899
0.0278639
0.0291434
0.0304274
0.0317148
0.0330046
0.0342956
0.0355869
0.0368773
0.0381657
0.039451
0.0407323
0.0420083
0.0432781
0.0445404
0.0457944
0.0470388
0.0482726
0.0494948
0.0507043
0.0519
0.053081
0.0542462
0.0553945
0.056525
0.0576368
0.0587287
0.0597999
0.0608495
0.0618765
0.0628799
0.0638591
0.064813
0.0657408
0.0666418
0.0675152
0.0683601
0.069176
0.069962
0.0707176
0.0714421
0.0721348
0.0727954
0.0734231
0.0740176
0.0745784
0.0751052
0.0755975
0.076055
0.0764775
0.0768648
0.0772167
0.077533
0.0778137
0.0780588
0.0782684
0.0784424
0.0785811
0.0786846
0.0787533
0.0787875
0.0787874
0.0787537
0.0786868
0.0785873
0.0784558
0.0782931
0.0780999
0.0778771
0.0776256
0.0773464
0.0770406
0.0767093
0.0763538
0.0759753
0.0755752
0.0751549
0.074716
0.0742599
0.0737885
0.0733034
0.0728064
0.0722994
0.0717843
0.0712631
0.0707379
0.0702109
0.0696841
0.0691598
0.0686401
0.0681275
0.0676242
0.0671325
0.0666546