/*--------------------------------*- C++ -*----------------------------------*\
  =========                 |
  \\      /  F ield         | OpenFOAM: The Open Source CFD Toolbox
   \\    /   O peration     | Website:  https://openfoam.org
    \\  /    A nd           | Version:  7
     \\/     M anipulation  |
\*---------------------------------------------------------------------------*/
FoamFile
{
    version     2.0;
    format      ascii;
    class       volVectorField;
    location    "81";
    object      U;
}
// * * * * * * * * * * * * * * * * * * * * * * * * * * * * * * * * * * * * * //

dimensions      [0 1 -1 0 0 0 0];

internalField   nonuniform List<vector> 
41600
(
(-0.0494254 0.247915 -6.41119e-20)
(-0.120468 0.209904 -1.10432e-19)
(-0.170731 0.0902213 1.06757e-22)
(-0.170238 -0.118872 -1.36455e-19)
(-0.131104 -0.338111 1.9638e-19)
(-0.096173 -0.507828 -4.07822e-19)
(-0.0778883 -0.609066 -5.25607e-20)
(-0.0689032 -0.629343 3.76286e-19)
(-0.0195816 -0.534711 -8.10733e-20)
(0.0901917 -0.32085 -1.32486e-19)
(0.226688 -0.0544611 -5.24935e-20)
(0.354946 0.189193 1.51413e-19)
(0.456143 0.37027 -7.93255e-20)
(0.516439 0.479833 -7.12493e-20)
(0.546508 0.53214 -6.2605e-20)
(0.537179 0.557288 1.39715e-20)
(0.490413 0.563447 2.85607e-21)
(0.448043 0.513818 -9.59883e-20)
(0.471966 0.345223 2.07043e-20)
(0.546947 0.105432 3.26098e-20)
(0.633756 -0.128761 -1.45632e-19)
(0.697245 -0.296009 1.16885e-19)
(0.735094 -0.389869 -3.24158e-20)
(0.740782 -0.426993 7.86494e-21)
(0.710141 -0.449594 2.78073e-20)
(-0.0511459 0.254101 -3.0344e-19)
(-0.117148 0.215573 5.69122e-19)
(-0.161088 0.0932221 -1.47725e-19)
(-0.153443 -0.121029 7.30972e-20)
(-0.108231 -0.342562 -5.87868e-19)
(-0.0708106 -0.511164 6.35927e-19)
(-0.0549799 -0.61025 -9.01928e-20)
(-0.0562466 -0.633665 -4.89175e-19)
(-0.0260469 -0.550164 1.2206e-19)
(0.067842 -0.347595 -3.98913e-19)
(0.194534 -0.0856385 7.46683e-20)
(0.318396 0.159844 2.17807e-19)
(0.420367 0.347743 2.10996e-19)
(0.485138 0.465824 3.88243e-19)
(0.520146 0.527952 1.15512e-19)
(0.512317 0.564409 1.28666e-19)
(0.470478 0.574529 2.02848e-20)
(0.441453 0.515042 3.25141e-19)
(0.487165 0.328286 3.14488e-20)
(0.575357 0.0798858 -1.22677e-19)
(0.669216 -0.152841 -1.49542e-19)
(0.730557 -0.312171 -2.41754e-19)
(0.762052 -0.396139 -9.59667e-20)
(0.761837 -0.421733 -8.16521e-21)
(0.732826 -0.432191 -5.96408e-20)
(-0.0528591 0.259839 6.02715e-20)
(-0.113293 0.220898 -1.87527e-19)
(-0.150296 0.0960431 -3.42931e-19)
(-0.134744 -0.123116 2.55788e-19)
(-0.0827499 -0.346566 5.57581e-19)
(-0.0420605 -0.513537 -7.58463e-19)
(-0.0273967 -0.609581 3.82006e-19)
(-0.0369736 -0.634827 2.8576e-20)
(-0.0251832 -0.56231 4.79923e-19)
(0.0513177 -0.372706 7.09579e-19)
(0.16767 -0.116708 4.66629e-19)
(0.286337 0.12944 -2.17005e-21)
(0.38813 0.323272 -7.94433e-21)
(0.456672 0.449655 -3.57082e-19)
(0.495509 0.522156 -3.45277e-19)
(0.489015 0.569821 -1.68205e-19)
(0.454495 0.58228 3.47444e-20)
(0.440626 0.511662 -3.61079e-19)
(0.509673 0.307876 1.27743e-19)
(0.609459 0.0535549 -1.87597e-19)
(0.709404 -0.175465 1.62419e-19)
(0.767242 -0.325219 4.57658e-19)
(0.791346 -0.399046 2.76127e-19)
(0.783973 -0.415218 -6.90196e-20)
(0.757082 -0.413651 -5.05282e-20)
(-0.0546054 0.265055 -5.34967e-19)
(-0.10897 0.225834 9.64932e-20)
(-0.138449 0.098662 1.16866e-18)
(-0.114245 -0.125138 -8.29795e-19)
(-0.0548263 -0.350131 5.35905e-19)
(-0.0102242 -0.515005 2.06382e-18)
(0.00441777 -0.607202 -9.92618e-19)
(-0.0114353 -0.632839 1.39886e-18)
(-0.0166775 -0.570726 6.18141e-19)
(0.0408663 -0.395577 7.19291e-19)
(0.14614 -0.147275 1.51631e-19)
(0.258975 0.0983355 -7.98432e-19)
(0.359757 0.297154 -4.18167e-19)
(0.43118 0.431613 2.41751e-19)
(0.472755 0.514859 3.06583e-19)
(0.467794 0.573166 2.13104e-20)
(0.443049 0.586353 -1.82215e-19)
(0.446101 0.50363 2.77068e-19)
(0.539643 0.284554 -8.96776e-19)
(0.649221 0.0270919 -6.58264e-19)
(0.753787 -0.196101 4.47817e-19)
(0.806153 -0.334837 -1.20812e-19)
(0.822461 -0.398246 1.05138e-19)
(0.806786 -0.407405 1.50344e-19)
(0.782132 -0.394332 6.0459e-20)
(-0.0563452 0.269741 5.5635e-20)
(-0.104177 0.230361 -1.32458e-18)
(-0.125599 0.10106 1.40754e-18)
(-0.0920343 -0.127103 -2.15293e-19)
(-0.0246181 -0.353258 -2.11354e-18)
(0.0243954 -0.515636 -1.75097e-18)
(0.0399673 -0.603283 4.54376e-19)
(0.0198559 -0.627827 -1.24682e-18)
(-0.000380786 -0.575007 -7.73582e-19)
(0.0369007 -0.415517 -1.15939e-18)
(0.129928 -0.176912 -1.53656e-19)
(0.236412 0.0668741 3.10969e-19)
(0.335428 0.26972 6.10212e-19)
(0.40868 0.411996 -3.62458e-19)
(0.452065 0.506115 4.72866e-19)
(0.449201 0.574085 -4.28084e-19)
(0.436602 0.586466 -4.75937e-19)
(0.458466 0.490974 -2.82116e-19)
(0.576975 0.258919 -2.58853e-19)
(0.694447 0.00119223 7.77205e-19)
(0.801684 -0.214086 -7.90551e-19)
(0.846032 -0.340801 3.09401e-19)
(0.854755 -0.39357 -3.44218e-19)
(0.829955 -0.398181 -1.80252e-19)
(0.80715 -0.374578 -5.90669e-21)
(-0.0580822 0.273855 2.50886e-19)
(-0.0989542 0.234446 1.22286e-18)
(-0.111823 0.103214 -3.70057e-18)
(-0.0681979 -0.129018 2.40398e-18)
(0.00772538 -0.35596 1.29999e-18)
(0.0615033 -0.515471 -3.32975e-19)
(0.0787303 -0.598007 1.308e-18)
(0.056249 -0.620026 -1.48775e-19)
(0.0235951 -0.574861 2.86895e-19)
(0.0399607 -0.431817 9.93049e-19)
(0.119041 -0.205121 5.0556e-19)
(0.218632 0.0353998 -2.34337e-20)
(0.31515 0.241316 -3.20643e-19)
(0.389107 0.391078 1.08673e-18)
(0.433652 0.495922 -2.43556e-19)
(0.433796 0.572243 6.38979e-19)
(0.435491 0.582377 2.51007e-19)
(0.478302 0.473799 9.85208e-19)
(0.621178 0.231591 1.75439e-19)
(0.744602 -0.0234766 -8.86012e-19)
(0.852091 -0.228706 5.82653e-19)
(0.885675 -0.342958 -6.12648e-19)
(0.887446 -0.385074 -1.4321e-19)
(0.853268 -0.387348 -3.18016e-19)
(0.831307 -0.354719 -5.35822e-20)
(-0.0598074 0.277374 -5.11499e-19)
(-0.0933341 0.238064 -1.72651e-18)
(-0.0971942 0.105099 1.41902e-18)
(-0.0428173 -0.130893 -3.98693e-18)
(0.0420683 -0.358257 -1.51967e-18)
(0.100822 -0.51452 4.45326e-19)
(0.120182 -0.591567 -2.07862e-18)
(0.0969801 -0.609772 1.04883e-18)
(0.0548554 -0.570204 -7.20598e-19)
(0.0506423 -0.443723 -3.88297e-19)
(0.113604 -0.23128 -5.0996e-19)
(0.205526 0.00427903 7.16928e-19)
(0.298779 0.212286 -7.26496e-19)
(0.372375 0.369092 -5.22263e-19)
(0.417765 0.484221 -2.06974e-19)
(0.422142 0.567358 -5.04282e-19)
(0.439959 0.57387 5.25231e-19)
(0.506106 0.452341 -2.54691e-19)
(0.671412 0.203229 1.14355e-19)
(0.798795 -0.0462711 9.29968e-19)
(0.903583 -0.239316 6.15603e-19)
(0.924082 -0.341229 -8.30066e-19)
(0.919634 -0.373059 7.00924e-19)
(0.876566 -0.374672 5.5779e-19)
(0.853853 -0.335019 -4.25398e-20)
(-0.0615123 0.280276 2.25303e-18)
(-0.0873523 0.241189 1.79403e-18)
(-0.0817856 0.106687 7.53897e-19)
(-0.015968 -0.132736 4.34763e-18)
(0.0782756 -0.3601 2.21377e-18)
(0.1421 -0.512828 3.80249e-18)
(0.163823 -0.58415 -1.65378e-18)
(0.141215 -0.597477 2.92939e-19)
(0.0927139 -0.561176 7.99351e-20)
(0.0694556 -0.450528 -4.88965e-19)
(0.113973 -0.254603 -1.97858e-19)
(0.196967 -0.0260533 -7.45065e-19)
(0.286091 0.182964 8.55307e-19)
(0.358445 0.346214 4.18585e-20)
(0.404687 0.470906 -5.48981e-19)
(0.414791 0.559223 -5.50763e-20)
(0.450236 0.560765 -5.6067e-19)
(0.542179 0.427008 -3.30444e-19)
(0.726636 0.174563 1.30912e-18)
(0.855836 -0.0665477 1.01978e-18)
(0.954387 -0.245465 1.37023e-19)
(0.960543 -0.335612 1.13541e-18)
(0.950341 -0.35803 1.08724e-19)
(0.899633 -0.359934 3.10644e-20)
(0.874212 -0.31563 1.63342e-19)
(-0.0631894 0.282542 -1.99066e-18)
(-0.0810479 0.243796 1.37204e-18)
(-0.0656712 0.107946 -1.38286e-19)
(0.0122875 -0.134559 8.88417e-19)
(0.116212 -0.361446 1.09817e-18)
(0.185092 -0.510416 -5.51644e-18)
(0.2092 -0.575902 2.67948e-18)
(0.188098 -0.583593 -2.68521e-18)
(0.136215 -0.548168 -5.66956e-19)
(0.0966454 -0.451685 -6.04609e-19)
(0.120794 -0.274133 -8.77183e-19)
(0.192951 -0.0550341 7.54961e-21)
(0.276905 0.153679 -1.31024e-19)
(0.347393 0.32258 -5.27316e-19)
(0.394738 0.45584 1.01439e-18)
(0.412262 0.547709 9.29641e-19)
(0.466644 0.542947 -4.91967e-19)
(0.586478 0.398357 -5.39623e-19)
(0.785706 0.146377 -6.99093e-19)
(0.914249 -0.0836477 -1.847e-18)
(1.00261 -0.246974 -1.08506e-18)
(0.994613 -0.32619 4.49551e-20)
(0.978582 -0.340619 -1.20585e-18)
(0.922106 -0.34302 -1.49173e-19)
(0.892079 -0.296617 -4.21397e-19)
(-0.0648322 0.284157 2.33793e-18)
(-0.0744633 0.24586 -3.90586e-18)
(-0.0489236 0.108843 -3.3909e-18)
(0.0418939 -0.136375 -5.12598e-18)
(0.155749 -0.362298 1.32738e-18)
(0.22956 -0.507257 9.02726e-19)
(0.2559 -0.566923 1.27072e-18)
(0.236807 -0.568565 2.50184e-19)
(0.184195 -0.531821 3.66907e-19)
(0.132027 -0.446925 -4.21273e-19)
(0.13496 -0.288791 8.35604e-19)
(0.19376 -0.081903 -1.23113e-19)
(0.271223 0.124796 5.35007e-19)
(0.33946 0.298316 -1.07972e-19)
(0.388272 0.438889 1.79567e-19)
(0.415008 0.532738 -1.44622e-18)
(0.4897 0.52043 -3.85112e-19)
(0.638491 0.367072 -1.6893e-18)
(0.847347 0.119478 -9.94019e-19)
(0.972214 -0.0969442 -8.50366e-19)
(1.04656 -0.243949 8.91168e-19)
(1.02595 -0.313165 -3.95932e-19)
(1.00349 -0.321471 2.76241e-19)
(0.943436 -0.324017 4.85312e-20)
(0.907515 -0.277961 1.24532e-19)
(-0.0664358 0.28511 2.81643e-19)
(-0.0676454 0.24736 4.33109e-18)
(-0.0316111 0.109332 -4.6713e-19)
(0.0728017 -0.138195 2.31943e-18)
(0.196753 -0.362644 -7.95287e-18)
(0.275271 -0.503328 -3.5322e-19)
(0.303558 -0.557276 -2.13035e-18)
(0.286594 -0.552795 1.49862e-18)
(0.235356 -0.51293 1.35741e-18)
(0.174894 -0.436383 2.14956e-19)
(0.157405 -0.29752 1.51076e-19)
(0.200096 -0.10565 -1.01751e-19)
(0.269368 0.0967946 -3.81587e-19)
(0.335073 0.273599 -3.77973e-19)
(0.385691 0.419967 -2.24963e-19)
(0.423409 0.514249 4.43119e-19)
(0.520133 0.493426 1.96563e-18)
(0.697198 0.333962 2.81455e-20)
(0.910073 0.0946667 9.08345e-19)
(1.0276 -0.105954 1.16402e-18)
(1.08501 -0.236736 -1.93659e-18)
(1.05407 -0.296893 -1.83838e-19)
(1.02448 -0.301159 5.48304e-19)
(0.962963 -0.303278 -4.11671e-19)
(0.920971 -0.25957 1.24436e-19)
(-0.0679958 0.285396 -5.5803e-18)
(-0.0606465 0.248284 -3.67743e-18)
(-0.0137946 0.109356 4.2066e-18)
(0.104968 -0.14003 -2.71395e-18)
(0.239079 -0.362463 1.07306e-17)
(0.321987 -0.498608 -2.38644e-18)
(0.351843 -0.546991 4.16979e-18)
(0.336822 -0.536605 6.63679e-19)
(0.288371 -0.492364 -1.20549e-18)
(0.224015 -0.420685 1.02544e-18)
(0.18879 -0.299497 2.40911e-19)
(0.213096 -0.125028 4.57285e-20)
(0.272078 0.0703558 -3.16526e-19)
(0.334835 0.248713 4.17682e-19)
(0.387466 0.399087 -5.42765e-19)
(0.437852 0.492167 5.32472e-19)
(0.55876 0.462406 -8.04963e-19)
(0.761149 0.29998 3.4203e-19)
(0.97211 0.0727146 -5.32935e-19)
(1.0782 -0.110454 -3.60272e-19)
(1.11733 -0.225824 9.66452e-19)
(1.07827 -0.277928 1.98757e-19)
(1.04143 -0.280133 -1.68912e-20)
(0.980043 -0.281404 -1.83224e-19)
(0.933181 -0.241337 -7.15066e-20)
(-0.0695085 0.285008 5.14591e-18)
(-0.0535189 0.248601 1.50942e-18)
(0.00446935 0.108878 -9.79794e-19)
(0.138357 -0.141888 2.38858e-18)
(0.282571 -0.361732 -9.1772e-18)
(0.369456 -0.493077 5.66629e-18)
(0.400442 -0.536077 -1.5603e-18)
(0.386979 -0.520218 -1.34994e-18)
(0.342005 -0.470984 -3.42263e-19)
(0.277711 -0.400878 -8.58034e-19)
(0.229147 -0.294381 -4.17713e-19)
(0.234156 -0.138677 2.08546e-19)
(0.280534 0.0464542 2.66784e-19)
(0.339515 0.224125 4.76876e-19)
(0.394178 0.376405 -1.82202e-19)
(0.458932 0.466445 2.62543e-19)
(0.606207 0.428114 8.33061e-19)
(0.828552 0.266238 2.11219e-18)
(1.03137 0.0543119 1.12426e-18)
(1.12202 -0.110541 1.91329e-18)
(1.14329 -0.21178 4.43804e-19)
(1.09774 -0.25702 1.25091e-18)
(1.05469 -0.258704 -9.68237e-19)
(0.994234 -0.259179 8.72508e-19)
(0.944877 -0.22317 3.45964e-20)
(-0.0709743 0.283953 -8.61662e-19)
(-0.0463129 0.248262 -2.55089e-18)
(0.0231368 0.107863 -3.55989e-18)
(0.172933 -0.143776 2.30981e-18)
(0.327057 -0.36043 8.19593e-18)
(0.417414 -0.486721 -1.38583e-18)
(0.449047 -0.524535 -1.38528e-18)
(0.436656 -0.503765 -1.41943e-18)
(0.395219 -0.449533 -6.71829e-19)
(0.334047 -0.378331 5.48587e-20)
(0.277627 -0.282526 -6.20215e-20)
(0.264555 -0.145377 -2.74409e-19)
(0.296298 0.0263923 -1.23189e-19)
(0.350057 0.200559 -1.60284e-19)
(0.406635 0.352248 2.40675e-19)
(0.487754 0.437215 -5.65501e-19)
(0.662614 0.391571 -1.38798e-18)
(0.897256 0.233964 -1.36983e-18)
(1.08551 0.0399759 3.33537e-19)
(1.15767 -0.106602 -1.39305e-18)
(1.16281 -0.195244 -1.18473e-18)
(1.11199 -0.235035 -2.22412e-18)
(1.06486 -0.237127 5.51696e-19)
(1.00545 -0.237365 -3.64085e-19)
(0.956465 -0.20507 1.39584e-19)
(-0.0723973 0.282246 2.61084e-18)
(-0.0390859 0.24724 2.32961e-18)
(0.0421907 0.106256 4.34884e-18)
(0.208665 -0.145698 -3.70908e-18)
(0.37235 -0.358537 -1.01278e-17)
(0.465586 -0.479537 -5.5115e-18)
(0.497352 -0.512367 1.35792e-18)
(0.485519 -0.487297 1.69423e-19)
(0.447228 -0.42856 2.37253e-18)
(0.391069 -0.354529 5.72554e-19)
(0.332444 -0.265063 1.54695e-19)
(0.304912 -0.144415 1.42962e-19)
(0.321109 0.0116927 1.20459e-19)
(0.367704 0.179055 -4.85746e-20)
(0.426152 0.327149 5.79743e-20)
(0.526157 0.405023 3.73323e-19)
(0.727358 0.354111 5.53839e-19)
(0.964656 0.204401 6.93398e-19)
(1.13222 0.0299451 -5.93489e-19)
(1.18441 -0.0992438 3.66481e-19)
(1.17592 -0.176969 1.07772e-18)
(1.12114 -0.212794 2.41105e-18)
(1.07244 -0.215709 -1.01757e-18)
(1.01403 -0.216475 2.80304e-19)
(0.967789 -0.187254 -2.57694e-19)
(-0.0737808 0.279896 -3.85822e-18)
(-0.0319016 0.245513 3.0738e-18)
(0.0616388 0.104003 4.83542e-18)
(0.245519 -0.147648 2.53173e-19)
(0.418248 -0.356032 3.19333e-18)
(0.513686 -0.471529 2.03369e-18)
(0.545053 -0.499591 -4.31212e-18)
(0.533279 -0.470827 1.91246e-18)
(0.497507 -0.408386 -2.01464e-18)
(0.447065 -0.330845 -3.57304e-19)
(0.39108 -0.243797 -1.60238e-20)
(0.354658 -0.135979 -1.60475e-19)
(0.356445 0.00376863 -3.49107e-19)
(0.394164 0.160958 6.10051e-20)
(0.454997 0.301957 -1.24031e-19)
(0.576466 0.371065 1.41094e-19)
(0.798708 0.317391 3.49061e-19)
(1.02763 0.178654 2.06394e-19)
(1.1695 0.0241117 -5.91218e-19)
(1.20211 -0.0892328 -1.06454e-18)
(1.18282 -0.15782 -1.52523e-18)
(1.12595 -0.190946 5.17689e-19)
(1.07768 -0.194865 1.30382e-18)
(1.02064 -0.196709 4.72368e-19)
(0.978315 -0.170106 -2.24889e-19)
(-0.0751302 0.276918 2.08341e-18)
(-0.0248228 0.243046 -2.83549e-18)
(0.0815198 0.101065 -7.72699e-18)
(0.283459 -0.149615 6.26357e-19)
(0.464535 -0.352898 3.16719e-18)
(0.561428 -0.462713 -1.27877e-18)
(0.591849 -0.486237 7.13642e-19)
(0.579667 -0.454354 1.19714e-18)
(0.545735 -0.389134 -5.38973e-19)
(0.500758 -0.30833 1.60599e-18)
(0.45071 -0.220887 1.33361e-20)
(0.411766 -0.121393 -1.4887e-21)
(0.402838 0.00335556 3.06499e-19)
(0.431544 0.147677 1.83021e-20)
(0.496477 0.277981 1.50641e-19)
(0.640313 0.33726 -1.61647e-19)
(0.873297 0.283279 -3.51777e-19)
(1.08269 0.157479 -2.47375e-20)
(1.19601 0.0220022 -7.48927e-19)
(1.21116 -0.0774623 1.70301e-18)
(1.18413 -0.138672 -2.00082e-18)
(1.12737 -0.169958 5.65513e-19)
(1.08076 -0.175039 -5.40817e-19)
(1.02593 -0.178071 5.52578e-20)
(0.987509 -0.153976 4.50285e-19)
(-0.0764539 0.273335 -2.84729e-18)
(-0.0179116 0.239795 1.34147e-18)
(0.101911 0.097414 3.3239e-18)
(0.322438 -0.151579 -9.53616e-19)
(0.510983 -0.349119 2.99401e-18)
(0.608525 -0.453113 5.16235e-18)
(0.637457 -0.472346 5.68825e-19)
(0.624432 -0.437885 -2.32732e-18)
(0.591716 -0.370792 1.70058e-18)
(0.551385 -0.287596 -1.3121e-18)
(0.508742 -0.198407 -1.00529e-20)
(0.472949 -0.10301 1.23585e-19)
(0.459106 0.00986762 -7.31426e-20)
(0.481515 0.140135 -6.32264e-20)
(0.55356 0.256885 -5.57738e-20)
(0.716434 0.305884 4.07323e-20)
(0.945801 0.253375 -2.25432e-20)
(1.12645 0.141035 1.36195e-19)
(1.21134 0.0228023 2.57235e-18)
(1.21249 -0.0648974 1.24394e-18)
(1.18091 -0.120268 3.01645e-19)
(1.12625 -0.150178 -6.01772e-19)
(1.08198 -0.156546 -2.35055e-19)
(1.03031 -0.16055 -3.97369e-19)
(0.995196 -0.13906 -2.93584e-19)
(-0.0777629 0.269176 1.85024e-18)
(-0.0112268 0.23571 2.86676e-18)
(0.122934 0.0930413 -1.89369e-18)
(0.362395 -0.153511 3.05914e-19)
(0.557356 -0.344683 4.46667e-18)
(0.654701 -0.442765 2.62142e-18)
(0.681611 -0.457972 6.07524e-18)
(0.667347 -0.421443 1.84199e-18)
(0.635313 -0.353286 -2.10436e-19)
(0.598622 -0.268839 4.56395e-19)
(0.563271 -0.177912 1.58947e-19)
(0.534372 -0.083684 -5.92873e-20)
(0.521995 0.0211351 -9.17573e-20)
(0.543634 0.138018 -2.6174e-19)
(0.625753 0.239942 2.74117e-19)
(0.798754 0.278631 -7.03872e-21)
(1.00956 0.228373 -2.92931e-19)
(1.15649 0.128756 -1.50025e-18)
(1.21612 0.0254561 -8.12033e-19)
(1.20754 -0.0524561 6.12628e-19)
(1.17444 -0.103141 5.07904e-19)
(1.12324 -0.131877 1.2325e-18)
(1.08187 -0.139513 -6.46046e-19)
(1.03388 -0.144194 1.13289e-19)
(1.0016 -0.125372 8.38555e-20)
(-0.0790713 0.264471 -2.92572e-19)
(-0.00482015 0.230734 -6.36089e-18)
(0.144756 0.0879614 2.13241e-18)
(0.403251 -0.155371 2.5138e-18)
(0.603413 -0.339581 -1.02717e-17)
(0.699693 -0.431712 2.35721e-18)
(0.724078 -0.443177 -7.23644e-19)
(0.708216 -0.405061 3.26071e-18)
(0.67642 -0.336542 -1.13573e-18)
(0.642426 -0.251964 -1.48882e-18)
(0.613274 -0.160212 -1.73806e-20)
(0.592627 -0.0659843 1.783e-19)
(0.586733 0.0338975 4.60223e-19)
(0.61388 0.139362 3.73087e-19)
(0.706522 0.226912 -2.92864e-20)
(0.877124 0.255648 7.58616e-22)
(1.05852 0.207762 1.79276e-19)
(1.17225 0.119492 8.8124e-19)
(1.21209 0.0288628 4.31489e-19)
(1.1981 -0.0408683 -2.03675e-18)
(1.1659 -0.0876035 -7.21564e-20)
(1.11894 -0.115215 -1.21437e-18)
(1.08088 -0.123925 3.2953e-19)
(1.03665 -0.129089 1.11527e-19)
(1.00705 -0.112805 -2.62138e-19)
(-0.0803963 0.259257 -3.15929e-18)
(0.00127008 0.224798 2.19105e-18)
(0.167585 0.0822176 8.28404e-19)
(0.444901 -0.157112 -2.50067e-18)
(0.64891 -0.333811 9.08494e-18)
(0.743256 -0.420008 -6.00319e-18)
(0.764654 -0.428028 -5.55573e-18)
(0.746884 -0.388781 -2.37999e-18)
(0.714953 -0.320501 1.34473e-18)
(0.682877 -0.236746 1.2685e-18)
(0.658492 -0.145432 6.98201e-20)
(0.645507 -0.0515473 -4.86321e-19)
(0.648478 0.0449317 -7.11005e-19)
(0.685098 0.141098 -1.28359e-19)
(0.784718 0.215764 -5.86568e-20)
(0.941416 0.235518 -2.9373e-20)
(1.08972 0.190144 7.17409e-19)
(1.17544 0.111925 1.31092e-18)
(1.20178 0.0321229 7.86639e-19)
(1.18598 -0.0305856 1.1942e-18)
(1.15628 -0.0737807 -2.89778e-19)
(1.11385 -0.10023 8.63992e-19)
(1.07932 -0.109717 5.70817e-19)
(1.03869 -0.115276 -8.22821e-20)
(1.01177 -0.101226 2.63443e-19)
(-0.0817586 0.253575 2.12692e-18)
(0.00702763 0.21783 6.41151e-19)
(0.191668 0.0758838 5.98948e-19)
(0.487215 -0.158676 -7.01459e-18)
(0.693609 -0.327376 -1.65291e-17)
(0.785172 -0.407711 -7.03548e-20)
(0.803173 -0.412598 7.95376e-18)
(0.78324 -0.372647 -1.89956e-18)
(0.750865 -0.305123 2.35805e-18)
(0.720089 -0.222947 9.22192e-20)
(0.699127 -0.133267 -1.2864e-19)
(0.692188 -0.0408907 6.47856e-19)
(0.703753 0.0521719 6.53431e-19)
(0.74971 0.140385 -1.36172e-19)
(0.84998 0.203903 -3.98065e-19)
(0.986256 0.216392 -1.05179e-20)
(1.10444 0.174114 1.94267e-19)
(1.16951 0.105037 -5.38328e-19)
(1.18787 0.0347009 -1.19502e-18)
(1.17272 -0.0217814 -1.70431e-19)
(1.1463 -0.0616484 -5.7861e-19)
(1.1084 -0.0868636 2.03952e-19)
(1.07736 -0.0968137 -8.43235e-19)
(1.04012 -0.10273 -5.61767e-19)
(1.01584 -0.0905508 1.14896e-20)
(-0.0831822 0.247467 -2.33489e-18)
(0.0124694 0.209757 4.28836e-18)
(0.217269 0.0690649 1.50147e-18)
(0.530029 -0.160001 4.01734e-18)
(0.737278 -0.320288 7.886e-18)
(0.82525 -0.394889 -3.29802e-18)
(0.839505 -0.396962 -4.95978e-18)
(0.817216 -0.356703 2.84001e-18)
(0.784152 -0.290377 -2.6138e-18)
(0.754186 -0.210361 -7.43103e-19)
(0.735559 -0.123258 -1.23294e-20)
(0.732858 -0.0336887 -4.16039e-19)
(0.75099 0.0551117 -7.02392e-19)
(0.8028 0.135818 3.77843e-19)
(0.897641 0.189844 9.35875e-22)
(1.01263 0.197275 4.0509e-20)
(1.10707 0.158913 6.34855e-19)
(1.15836 0.098326 1.6422e-19)
(1.1726 0.0364177 -7.91615e-19)
(1.15939 -0.0144228 5.18133e-19)
(1.13645 -0.0510897 7.62296e-19)
(1.10283 -0.0750079 5.52517e-19)
(1.07511 -0.0851368 5.44598e-19)
(1.04111 -0.0913721 5.97299e-19)
(1.01928 -0.0807482 -1.99727e-19)
(-0.0846943 0.240976 5.39951e-18)
(0.0176592 0.200511 2.42969e-18)
(0.24465 0.0618917 5.79533e-19)
(0.573151 -0.161017 1.3817e-17)
(0.779696 -0.312565 3.04342e-18)
(0.86333 -0.381614 -4.31338e-18)
(0.873561 -0.381193 -7.54691e-18)
(0.848785 -0.34099 -6.00741e-18)
(0.814853 -0.276237 -1.13271e-18)
(0.785313 -0.198822 -5.32263e-19)
(0.768192 -0.114963 6.45463e-20)
(0.76816 -0.0292241 -1.72314e-19)
(0.790194 0.0543976 2.66101e-19)
(0.843391 0.127669 -1.2682e-18)
(0.929201 0.173799 9.37351e-19)
(1.02558 0.178291 1.18837e-20)
(1.10272 0.144436 -4.52974e-19)
(1.14514 0.091692 5.19202e-19)
(1.15744 0.0373212 1.03709e-18)
(1.14661 -0.00836554 -1.21365e-18)
(1.12698 -0.0419486 -8.65787e-19)
(1.09733 -0.064532 -1.26732e-18)
(1.07267 -0.0746022 -2.70681e-20)
(1.04175 -0.081113 -2.80779e-19)
(1.02211 -0.0717819 3.137e-20)
(-0.0863239 0.234146 -2.25457e-18)
(0.0227235 0.190044 -1.0534e-17)
(0.274047 0.0545127 -6.58517e-18)
(0.61636 -0.161654 -1.62194e-17)
(0.820663 -0.304235 1.45841e-18)
(0.899286 -0.367959 -1.08752e-18)
(0.90529 -0.365365 -1.01615e-18)
(0.877957 -0.325548 5.00769e-18)
(0.843043 -0.262676 1.5429e-19)
(0.813639 -0.188191 -5.95828e-19)
(0.797407 -0.108011 -1.57017e-19)
(0.798812 -0.0267401 1.91377e-19)
(0.822306 0.0511356 6.82048e-19)
(0.873439 0.117192 6.16755e-19)
(0.949243 0.156941 1.37028e-19)
(1.03064 0.160072 -7.92825e-21)
(1.09531 0.130859 3.58959e-19)
(1.1318 0.0852105 4.70546e-19)
(1.14317 0.0375496 -5.00807e-19)
(1.13471 -0.00342872 8.03615e-19)
(1.11803 -0.0340636 8.46713e-19)
(1.09199 -0.0552983 5.18489e-19)
(1.07012 -0.065126 -4.22592e-20)
(1.0421 -0.0718551 5.95472e-21)
(1.02438 -0.0636178 3.7604e-19)
(-0.0881011 0.227015 -5.12196e-19)
(0.0278667 0.178345 -6.37844e-18)
(0.305639 0.0470827 7.78043e-19)
(0.65941 -0.161843 1.00128e-17)
(0.859996 -0.295332 -4.70561e-18)
(0.933027 -0.354002 1.04611e-17)
(0.934674 -0.349548 -6.01465e-18)
(0.904778 -0.310411 -1.92345e-18)
(0.868828 -0.249669 2.56878e-18)
(0.839353 -0.178345 1.70593e-18)
(0.823555 -0.102102 6.25846e-21)
(0.825479 -0.0256036 -1.10681e-19)
(0.848657 0.0463833 -2.43059e-19)
(0.89588 0.105748 4.85078e-19)
(0.962242 0.140435 6.77355e-19)
(1.03176 0.143158 -6.92181e-21)
(1.0871 0.118336 -9.1995e-20)
(1.11927 0.0789772 -3.74857e-19)
(1.1301 0.0372517 6.80761e-19)
(1.12379 0.000565532 -3.73258e-19)
(1.10967 -0.0272822 -5.7892e-19)
(1.08689 -0.0471722 3.71093e-19)
(1.06753 -0.0566235 -8.61103e-20)
(1.04221 -0.0635076 2.44624e-19)
(1.02619 -0.0562118 8.07024e-20)
(-0.0900541 0.219615 8.53172e-18)
(0.0333852 0.165456 1.51132e-17)
(0.339519 0.0397491 5.62793e-18)
(0.702043 -0.161519 3.12242e-18)
(0.897538 -0.285901 1.19135e-17)
(0.964493 -0.339819 -4.96042e-19)
(0.96173 -0.333808 3.35761e-18)
(0.929321 -0.295608 -4.26676e-19)
(0.892336 -0.237188 -2.64045e-18)
(0.862661 -0.16918 -5.20151e-19)
(0.846972 -0.0969948 -2.61429e-19)
(0.848762 -0.0253346 9.98388e-20)
(0.870559 0.0409391 -2.31717e-19)
(0.913233 0.0943235 -7.24621e-20)
(0.971237 0.124996 -1.58881e-19)
(1.03119 0.127792 1.46552e-20)
(1.07918 0.106914 -1.66936e-20)
(1.10793 0.0730587 -4.67173e-19)
(1.11832 0.0365592 -3.63253e-19)
(1.11386 0.00377709 1.2539e-19)
(1.1019 -0.021466 1.0561e-18)
(1.08208 -0.0400257 9.24016e-20)
(1.06493 -0.0490128 2.40606e-19)
(1.04211 -0.0559852 -7.71063e-19)
(1.02759 -0.0495108 -3.1218e-19)
(-0.0922062 0.211968 -9.2457e-18)
(0.0396747 0.151493 -1.26466e-17)
(0.37568 0.0326407 -1.36034e-17)
(0.743992 -0.160628 -2.48498e-18)
(0.933158 -0.275991 -1.86086e-17)
(0.99366 -0.325487 -9.1161e-19)
(0.986505 -0.318206 -3.63949e-18)
(0.951684 -0.281164 1.40965e-19)
(0.913713 -0.225209 2.83841e-18)
(0.883771 -0.1606 8.26569e-20)
(0.86797 -0.0924941 3.68823e-19)
(0.869204 -0.0255845 -1.74803e-19)
(0.889084 0.0353284 9.26006e-20)
(0.927206 0.0834715 1.76334e-19)
(0.977949 0.110917 -1.67152e-19)
(1.03001 0.113994 -4.57648e-20)
(1.07199 0.0965658 -5.05074e-20)
(1.09784 0.0674927 1.06671e-18)
(1.1078 0.0355823 -4.09899e-19)
(1.10488 0.00634377 3.1117e-19)
(1.09473 -0.0164909 -6.39963e-19)
(1.07758 -0.0337405 -7.56116e-19)
(1.06235 -0.0422156 -7.15943e-19)
(1.04183 -0.0492087 6.89766e-19)
(1.02866 -0.0434625 -5.81803e-19)
(-0.0945721 0.204082 5.76304e-18)
(0.0472278 0.136665 8.08867e-18)
(0.414003 0.0258599 6.58569e-19)
(0.784997 -0.159128 -2.03645e-18)
(0.966754 -0.265657 9.41801e-18)
(1.02053 -0.311077 7.12121e-18)
(1.00907 -0.302796 6.87375e-18)
(0.971981 -0.2671 1.51956e-18)
(0.933112 -0.213705 -1.3081e-18)
(0.902888 -0.152525 1.04311e-18)
(0.886842 -0.0884456 -1.00456e-19)
(0.887275 -0.026106 3.07974e-19)
(0.905026 0.0298673 5.48634e-20)
(0.938856 0.0734454 9.1819e-20)
(0.983302 0.0982489 3.65987e-20)
(1.02873 0.101678 4.89892e-20)
(1.06564 0.0872266 -5.2137e-19)
(1.08896 0.062297 -8.83767e-19)
(1.09847 0.0344106 2.3517e-19)
(1.09679 0.0083818 -1.01187e-18)
(1.08814 -0.0122454 -2.8605e-19)
(1.07341 -0.0282089 2.29546e-20)
(1.0598 -0.0361583 1.25365e-20)
(1.04141 -0.0431056 3.14019e-19)
(1.02946 -0.038009 7.35973e-19)
(-0.097153 0.195944 2.37908e-18)
(0.0566181 0.121281 -7.04162e-18)
(0.454258 0.0194807 5.91467e-18)
(0.824815 -0.156993 -3.18082e-18)
(0.998253 -0.25496 4.71866e-18)
(1.04514 -0.296659 -1.01551e-18)
(1.02951 -0.287626 -5.2758e-18)
(0.990339 -0.253429 2.5439e-19)
(0.95069 -0.202652 -2.67166e-19)
(0.920209 -0.144884 5.99342e-20)
(0.903853 -0.0847281 5.18646e-19)
(0.903362 -0.026728 -3.14443e-19)
(0.918953 0.024734 1.02656e-19)
(0.948835 0.0643326 1.24144e-19)
(0.987804 0.0869347 1.10562e-19)
(1.02757 0.0907184 1.48434e-19)
(1.06014 0.0788206 2.981e-19)
(1.08119 0.0574761 -9.98939e-20)
(1.09023 0.0331159 6.94629e-19)
(1.0895 0.0099881 5.02341e-19)
(1.08213 -0.00862957 3.21598e-19)
(1.06953 -0.0233347 3.15133e-19)
(1.0573 -0.0307725 4.07191e-19)
(1.04089 -0.0376069 -1.4828e-19)
(1.03003 -0.0330968 -5.557e-19)
(-0.0999329 0.187524 -3.57107e-18)
(0.0684674 0.105745 1.62438e-18)
(0.496121 0.0135535 1.19209e-17)
(0.863226 -0.15421 1.26919e-17)
(1.02761 -0.243961 -7.33287e-18)
(1.06755 -0.282297 -5.84563e-18)
(1.04794 -0.272737 -4.05951e-19)
(1.00689 -0.240162 -1.06422e-18)
(0.966604 -0.192025 2.31843e-18)
(0.93592 -0.137619 2.4472e-19)
(0.919235 -0.081248 4.4772e-19)
(0.91778 -0.0273343 1.23656e-19)
(0.931272 0.0200228 2.99889e-22)
(0.957564 0.0561375 -7.8985e-20)
(0.991746 0.0768753 -8.49333e-20)
(1.02663 0.0809837 -4.41612e-19)
(1.05543 0.0712698 -2.54695e-19)
(1.07443 0.0530258 8.24477e-20)
(1.08296 0.0317553 -9.52017e-19)
(1.08296 0.0112432 -2.44022e-19)
(1.07666 -0.00555403 -1.68507e-19)
(1.06595 -0.0190338 -4.01583e-19)
(1.05487 -0.0259941 6.48171e-20)
(1.04031 -0.0326482 -1.00058e-19)
(1.03042 -0.0286736 -4.45917e-20)
(-0.102874 0.178769 -4.3435e-18)
(0.0833972 0.0905383 3.75483e-18)
(0.539196 0.00811473 -3.05283e-19)
(0.900048 -0.150785 -6.70312e-18)
(1.05481 -0.232723 5.53362e-18)
(1.08783 -0.268048 4.02212e-18)
(1.06447 -0.258163 -1.31849e-18)
(1.02178 -0.227304 -2.70116e-18)
(0.981005 -0.1818 -7.22709e-19)
(0.950191 -0.130679 -2.97527e-18)
(0.93319 -0.0779334 -1.59712e-18)
(0.930782 -0.0278482 1.98415e-19)
(0.942283 0.0157771 2.97178e-19)
(0.965324 0.0488252 2.01884e-19)
(0.995299 0.0679602 -2.53698e-19)
(1.02594 0.0723486 2.57871e-19)
(1.05143 0.0644991 1.44104e-19)
(1.06856 0.0489359 1.23804e-20)
(1.07657 0.0303733 6.75914e-19)
(1.07708 0.0122142 -1.57887e-19)
(1.07172 -0.00293929 -7.28676e-20)
(1.06262 -0.0152326 4.15655e-19)
(1.05252 -0.0217631 -1.4515e-19)
(1.0397 -0.0281686 5.81662e-19)
(1.03065 -0.0246931 -4.20385e-19)
(-0.105916 0.169607 1.69102e-18)
(0.101967 0.0761796 -8.69555e-18)
(0.583043 0.00319762 -1.13407e-17)
(0.935135 -0.146734 -8.30305e-18)
(1.07986 -0.221306 8.23991e-18)
(1.10607 -0.253964 -4.91115e-18)
(1.07923 -0.243931 6.05147e-18)
(1.03514 -0.214856 3.18563e-18)
(0.994035 -0.171954 -6.69199e-19)
(0.963173 -0.124021 4.05699e-19)
(0.945892 -0.0747304 1.07025e-18)
(0.942569 -0.0282206 -8.47504e-20)
(0.952207 0.0120097 -4.49288e-20)
(0.972308 0.0423419 1.8388e-20)
(0.998571 0.0600802 7.27471e-20)
(1.02549 0.0646981 -4.87244e-19)
(1.04807 0.0584385 -4.08534e-19)
(1.06347 0.0451926 5.57507e-19)
(1.07095 0.0290046 -2.02355e-19)
(1.07182 0.0129567 -8.6472e-20)
(1.06727 -0.000715246 4.84251e-19)
(1.05953 -0.0118676 -2.21806e-19)
(1.05029 -0.0180226 -6.0327e-19)
(1.03908 -0.0241122 -5.01655e-19)
(1.03073 -0.0211154 7.14561e-19)
(-0.10897 0.15995 2.04491e-19)
(0.124609 0.0631758 2.52385e-18)
(0.627203 -0.00115855 3.59367e-18)
(0.968379 -0.142087 1.35797e-17)
(1.10279 -0.209768 -1.29634e-17)
(1.12239 -0.240088 3.74549e-18)
(1.09235 -0.230062 -3.7157e-18)
(1.0471 -0.202816 9.25469e-19)
(1.00583 -0.162465 -1.63554e-18)
(0.975005 -0.117611 -1.01069e-18)
(0.957488 -0.0715984 -1.05266e-18)
(0.953302 -0.0284219 -3.55443e-19)
(0.961211 0.00871512 4.01138e-19)
(0.978653 0.0366271 -2.53751e-19)
(1.00162 0.0531326 -3.33583e-19)
(1.02527 0.0579287 8.47482e-19)
(1.04525 0.0530236 9.76998e-19)
(1.05908 0.0417798 -1.55774e-19)
(1.06602 0.0276762 7.72368e-20)
(1.06711 0.013517 2.39458e-19)
(1.06326 0.0011797 -3.62128e-19)
(1.05665 -0.00888262 4.10405e-19)
(1.04819 -0.014719 4.29567e-19)
(1.03845 -0.0204286 -5.54659e-19)
(1.03069 -0.0179064 -6.36735e-19)
(-0.111925 0.149707 1.99284e-18)
(0.151569 0.0519611 5.12089e-18)
(0.671221 -0.00490485 -1.08623e-17)
(0.99971 -0.136881 -7.77249e-18)
(1.12366 -0.198165 6.37068e-18)
(1.13689 -0.226461 4.98013e-18)
(1.10396 -0.216571 5.52655e-18)
(1.0578 -0.191178 -2.89338e-18)
(1.01651 -0.153314 1.33359e-18)
(0.985807 -0.111418 5.66519e-19)
(0.968101 -0.0685075 -2.20477e-19)
(0.963114 -0.0284361 -1.24718e-18)
(0.969424 0.00587657 -1.40263e-18)
(0.984461 0.0316191 -5.42342e-19)
(1.0045 0.0470235 8.26718e-19)
(1.02524 0.0519486 -1.34227e-19)
(1.04291 0.0481957 8.90008e-21)
(1.0553 0.0386805 3.0008e-19)
(1.0617 0.0264084 -6.27743e-21)
(1.06291 0.0139326 3.01803e-19)
(1.05966 0.00279989 -4.04872e-19)
(1.05396 -0.00622897 2.62408e-19)
(1.04624 -0.0118023 8.97039e-19)
(1.03781 -0.0170724 5.53372e-19)
(1.03053 -0.0150325 1.677e-20)
(-0.11464 0.138792 -5.50698e-18)
(0.182865 0.0428422 -4.64461e-18)
(0.714666 -0.00798535 6.57514e-18)
(1.02909 -0.131161 -6.11085e-18)
(1.14253 -0.186545 3.34353e-18)
(1.14971 -0.213111 -9.15043e-18)
(1.11419 -0.203468 -5.94188e-18)
(1.06735 -0.179934 -9.90517e-20)
(1.02619 -0.144479 1.34e-18)
(0.995685 -0.105417 -5.41941e-19)
(0.977836 -0.065436 1.28372e-18)