/*--------------------------------*- C++ -*----------------------------------*\
  =========                 |
  \\      /  F ield         | OpenFOAM: The Open Source CFD Toolbox
   \\    /   O peration     | Website:  https://openfoam.org
    \\  /    A nd           | Version:  7
     \\/     M anipulation  |
\*---------------------------------------------------------------------------*/
FoamFile
{
    version     2.0;
    format      ascii;
    class       volScalarField;
    location    "0.246";
    object      T;
}
// * * * * * * * * * * * * * * * * * * * * * * * * * * * * * * * * * * * * * //

dimensions      [0 2 -2 0 0 0 0];

internalField   nonuniform List<scalar> 
12359
(
-3.04058e-88
1.87552e-70
8.44411e-242
-4.11893e-46
2.35376e-79
3.72833e-32
1.09713e-25
-1.56924e-28
-1.64312e-20
2.37776e-34
-3.87786e-23
-4.83403e-15
0.0207176
-3.64904e-43
1.4585e-48
-2.39179e-07
-4.10962e-05
2.35345e-132
1.58209e-135
6.72428e-58
7.21802e-40
3.19651e-17
1.27029e-63
3.71758e-55
-6.7101e-67
-1.19901e-60
2.68657e-174
-1.08908e-177
1.31205e-141
-2.10392e-165
3.09766e-158
-1.90583e-194
2.88509e-215
6.54651e-168
2.40417e-228
-5.40452e-155
-1.34284e-106
-1.1524e-90
5.48528e-83
1.10125e-96
1.90686e-73
-6.05911e-94
-3.32505e-115
1.6524e-118
8.48312e-149
-5.13469e-145
4.9477e-152
-1.15464e-161
-2.10008e-138
-5.09009e-171
2.53767e-181
-7.532e-188
6.93518e-198
-1.13562e-128
-2.8405e-206
-1.00581e-211
-6.40734e-122
-1.60012e-218
1.40265e-221
-6.15645e-225
2.58474e-208
5.00168e-235
3.10548e-185
2.68592
2.78294e-125
-5.56497e-37
-7.54784e-110
5.39797e-191
7.05617e-103
8.07064e-10
72.4581
-4.03139e-76
6.08074e-245
-1.38704e-99
-2.01334e-51
-1.19105e-231
-2.7781e-201
-2.19981e-238
2.08658e-112
-9.48144e-13
3.94646e-35
-3.95806e-160
0
7.10793e-99
0.000141734
1.48813e-111
-1.00662e-156
1.13906e-220
0.0309285
3.53256e-05
9.29874e-276
1.50776
-2.69428e-278
3.51674e-129
5.91511e-104
4.0205e-89
-4.68171e-135
3.3737e-130
4.25717e-66
5.80539e-82
1.74036e-29
-1.34403e-264
-8.60487e-112
8.94392
4.51828e-169
1.07457e-45
-8.39192e-287
0.000157392
9.23585e-121
2.64498e-47
-7.25122e-138
-2.7854e-158
-1.9084e-40
3.28954e-34
8.25075e-105
-8.64985e-198
-5.59899e-33
1.57402e-158
0.167668
0
-4.7455e-139
-1.0721e-30
1.8916e-218
2.61155e-66
3.03428e-157
-3.24304e-186
1.76626e-22
4.06861e-98
-1.55436e-240
1.70069e-158
1.00459e-196
1.93179e-15
1.65594e-12
4.30346e-13
-5.07794e-289
6.32421e-66
2.3771e-196
-5.16946e-68
-4.48697e-259
8.96333e-24
3.56462e-317
-4.87288e-86
1.94618e-62
-1.34916e-288
5.45201e-28
-8.23374e-36
0
3.37186e-05
2.58115e-168
3.49971e-33
3.18189e-88
-3.87333e-261
5.76286e-61
-1.75631e-216
8.43008e-286
94.8454
9.56878e-31
7.90104e-16
-7.05711e-136
-5.0682e-206
-9.10551e-47
-2.91835e-204
7.26999e-67
2.26944e-62
-2.54212e-317
-1.03645e-188
-9.97255e-49
5.12056e-29
2.04222e-64
0.0378732
4.2092e-236
-7.32064e-234
7.33265e-67
-3.85634e-69
4.21724e-171
3.3033e-24
-2.17146e-148
-2.39774e-150
8.84866e-40
1.52852e-25
8.67297e-45
3.9385e-283
3.43738e-239
-3.39803e-158
8.45238e-68
-6.80235e-20
3.63405e-132
1.421e-108
1.15322e-85
3.39454e-132
6.58944e-107
5.1302e-91
2.0852e-91
3.8636e-215
2.7165e-47
11.1907
-2.74199e-90
8.00103e-132
-2.4325e-59
3.52484e-157
-4.54215e-34
1.0059e-86
-8.02108e-81
5.90489e-48
1.88817e-32
1.13575e-283
1.07791e-30
-3.07053e-79
8.57254e-60
2.94293e-144
1.25574e-309
8.56461e-33
5.6865e-32
138.242
-3.2531e-19
2.83096e-258
7.04769e-132
2.21881e-106
9.00451e-131
-4.22048e-84
9.17243e-35
1.02226e-145
5.69478e-68
1.559
-2.16605e-158
8.4272e-309
-2.16577e-82
4.23791e-123
4.5842e-26
-2.26409e-128
-4.59992e-127
3.24749e-320
7.23233e-28
5.36077e-76
-9.46653e-110
6.66474e-78
0
1.6534e-57
2.27342e-108
4.87062e-06
2.03422e-306
-1.32429e-107
1.50402e-118
6.56217e-13
-1.32863e-44
4.31136e-05
2.00326e-223
3.2841e-61
-4.4084e-178
1.75536e-91
2.36276e-42
6.29707e-94
4.7098e-154
-6.01848e-127
0.540497
111.903
0
-9.67638e-151
0.546434
125.608
1.84585e-80
-2.52343e-47
7.95395e-29
1.8038e-48
-5.64235e-71
44.0096
0.119473
1.13078e-42
-2.40474e-152
3.34487e-65
1.46584e-65
3.54784e-66
6.13833e-63
3.89207e-129
1.52712e-148
1.81227e-308
-3.49895e-149
2.31612
1.37374e-42
1.52536e-268
-2.72328e-263
8.44457e-49
-1.57252e-154
7.94691e-111
-1.44116e-109
2.81617e-322
6.24491e-29
-2.27539e-262
-1.01492e-264
-5.86189e-197
2.10354e-68
-9.00741e-162
42.0434
-5.11616e-289
-3.15806e-286
1.34342e-111
7.79557e-180
9.20987e-36
-1.9628e-110
-1.01566e-185
-5.28203e-275
1.74335
1.97417e-27
2.78858e-276
7.47213e-131
-2.18535e-112
-2.07948e-176
3.29252e-196
-9.56442e-198
-2.21782e-174
-2.54669e-140
-5.07771e-20
-3.7936e-177
-1.76227e-159
-8.72137e-93
1.50584e-51
0.0231886
4.93338e-175
7.58898e-69
2.56647e-08
-1.77564e-264
6.38237e-71
9.77185e-264
1.72377e-88
-1.22265e-284
-5.05547e-174
3.02373e-22
4.62912e-66
-4.47147e-21
1.64802e-112
4.88828e-119
2.1361e-92
1.09728e-88
1.61425e-117
3.06411e-93
1.60465e-92
1.56935e-242
-4.97211e-213
-8.2167e-214
-3.37138e-210
-3.99643e-212
4.41894e-05
8.92283e-321
3.32534e-33
3.6686e-71
1.12108e-70
1.08726e-59
7.20172e-65
1.10858e-111
1.52249e-91
8.29979e-66
6.01254e-92
1.21827e-69
1.96546e-47
4.33213e-46
5.02465e-40
-2.15192e-84
2.07396e-20
-1.34324e-87
-2.01554e-87
6.92877e-60
4.68388e-26
6.3182e-159
-1.06789e-203
4.3284e-89
-2.81717e-207
-8.29246e-158
136.079
11.1592
-6.361e-158
-6.07426e-255
-9.63689e-292
-1.12116e-291
3.40502e-67
4.28014e-283
3.46349e-285
0.0744186
9.28584e-63
2.86035e-05
1.56715e-158
4.6355e-54
-1.48258e-156
3.86919e-117
-4.35628e-43
2.29275e-90
-2.64664e-46
2.88668e-92
-2.19278e-161
1.17703e-265
7.9238e-64
1.03763e-54
1.17487e-162
4.39575e-15
-9.60027e-44
1.57778e-89
-1.91188e-59
-8.71557e-50
7.95132e-256
5.47489
3.61335e-19
1.2335e-156
1.18429e-13
-3.58102e-89
9.90555e-315
-3.19259e-316
-2.88999e-297
6.48171e-05
2.61572e-27
2.6369e-67
6.65749e-73
2.04798e-89
6.3467e-102
5.57465e-46
-6.03712e-61
4.53003e-25
0.033477
1.56497e-13
-2.21565e-70
2.94918e-41
9.88411e-119
3.62792e-42
5.63402e-96
3.62705e-87
1.50935e-168
-4.08941e-98
-1.92641e-65
8.23694e-282
114.046
3.57869e-109
0.000324462
1.01074e-57
3.09893e-122
1.61016e-38
0.438483
7.74443e-63
2.42247e-86
1.61701e-90
6.55898e-56
7.64179e-42
5.60483e-154
1.2347e-306
5.29526e-33
-1.62162e-282
3.36829e-16
5.63232e-195
-1.67426e-62
1.3807e-45
-6.41637e-141
0.000474568
3.13628e-32
-1.34923e-83
-1.09532e-148
3.69132e-07
3.88379e-249
3.14241e-164
1.25319e-23
-2.21543e-253
-1.43915e-149
-1.75071e-165
1.60288e-09
12.4639
1.18223e-100
-3.80609e-227
-1.13496e-42
-1.6863e-51
1.25159e-71
1.35554e-57
1.02642e-64
6.76078e-241
-1.02946e-293
-4.36502e-58
3.60517e-272
6.09863e-47
3.28566e-72
3.07283e-43
3.164e-152
9.23872e-35
1.91376e-22
-2.79219e-168
-2.03157e-103
-5.78614e-161
-1.24042e-37
8.77933e-24
1.64388e-259
-2.08821e-55
4.96315e-68
2.87925e-121
-3.47348e-53
4.36347e-194
7.23051e-28
-7.45968e-102
2.50526e-62
1.75611e-44
7.52662e-239
1.65577e-104
1.05955e-14
2.4736e-11
2.39684e-274
-7.06534e-84
3.11903e-13
1.71095e-81
0.274489
-7.62759e-299
1.19864e-196
6.51928e-247
2.7316e-59
2.05844e-81
-9.07505e-92
1.35999e-192
1.37679e-58
2.4808e-84
5.78421e-73
-1.00332e-147
3.50889e-06
5.48636e-277
1.32875e-05
3.84751e-222
128.205
-1.97044e-100
8.1956e-16
2.1122e-222
-1.10904e-153
7.24567e-50
-3.25161e-160
-2.52177e-187
-3.94329e-115
3.71772e-80
2.03664e-79
8.12867e-16
4.84577e-37
8.80582e-38
0
-1.15905e-160
4.25423e-69
6.53221e-11
0
-8.45292e-272
1.04356e-66
2.70214e-244
-5.90233e-22
0.519566
32.4198
0
-1.33515e-110
6.41037e-41
-1.43508e-88
-2.02205e-172
74.1663
-4.3456e-276
8.10353e-31
4.08072e-44
5.67396e-111
-8.10428e-176
-1.13055e-183
-1.61599e-142
2.21596e-72
7.71974e-94
-5.43935e-98
0
2.81554e-238
9.44274e-84
3.65567e-149
1.1594e-38
1.30785e-59
-1.39025e-195
-1.55581e-269
2.35058e-46
113.888
-7.40883e-162
7.02806e-26
6.4609e-294
-8.70609e-97
1.74009e-31
2.77133e-84
1.08642e-43
2.36173e-37
-7.40992e-82
3.11144e-65
4.08954e-311
8.07958e-229
1.14231e-87
7.39675e-102
-4.8093e-83
3.91681e-104
9.41882e-288
-1.11077e-268
4.68483e-187
-1.3582e-65
3.80622e-58
-3.02706e-43
1.17309e-107
-9.97396e-41
-1.54873e-60
1.62604e-84
-2.95205e-39
9.63222e-69
0.000454299
4.17487e-61
-1.78159e-67
2.24515e-41
1.5327e-232
6.17955e-33
3.5153e-49
0
6.60774e-252
5.1218e-243
1.67833e-228
1.82643e-10
2.19337e-84
1.01838e-129
-2.24016e-42
-4.13298e-114
1.88855e-20
9.88269e-83
2.61603e-71
2.272e-185
7.07961e-19
9.65437e-289
-2.86473e-65
1.68511e-149
1.08096e-24
9.30768e-39
-6.6368e-88
2.89327e-86
5.07303
-9.0711e-65
9.88039e-20
-5.03365e-97
5.23209e-15
0.212996
-1.23114e-231
3.18167e-156
-1.04612e-290
1.73551e-12
-1.28736e-156
1.48961e-93
0.000505596
-2.0282e-273
-3.29692e-71
2.23903e-45
-1.35298e-89
-1.1916e-157
4.62883e-89
2.96094e-213
-1.31046e-85
1.11614e-210
-1.45951e-214
-1.5851e-90
1.9235e-66
6.89287e-67
-8.84613e-88
-1.44581e-11
1.07542e-85
10.8744
5.4606e-61
-2.77422e-110
-9.63842e-88
4.62221e-63
4.27972e-69
2.05499e-90
0.182901
-2.89802e-46
9.39404e-72
1.38315e-74
-3.31949e-138
-1.26944e-150
3.2879e-47
3.34264e-307
0.501529
-7.0555e-199
-5.51865e-45
1.16123e-30
1.9289e-11
5.34369e-34
2.17651e-52
1.6902e-47
6.63018e-97
1.05195e-33
2.34459e-54
7.00527e-20
1.13067e-74
2.84356e-22
2.46283e-75
0
1.01643e-69
147.289
3.40086e-17
-3.19163e-128
-4.04163e-315
-7.80534e-193
4.25986e-111
-5.72409e-64
2.93773e-68
-1.47165e-96
2.99204e-242
1.13565e-124
-6.16026e-69
7.83346e-131
1.38764e-147
3.22078e-22
6.62255e-124
7.03745e-58
1.25985e-48
-8.4497e-126
2.47878e-120
2.97288e-36
0
-3.50325e-117
37.9635
-4.41128e-227
2.52563e-26
1.29611e-31
4.0281e-121
9.13593e-43
3.942e-48
-2.10519e-70
9.30391e-41
3.01442e-159
3.90312e-43
9.60365e-173
2.34754e-93
1.02193e-50
-6.54089e-41
3.94871e-159
6.38657e-64
1.09882e-15
-1.51994e-59
1.52518e-94
2.36041e-155
6.16039e-32
1.81524e-08
7.30143e-142
-1.29852e-258
7.28547e-72
2.12634e-279
0.244521
1.14305e-75
3.89385e-17
1.44136e-98
-2.5221e-98
5.02098
9.91725e-91
0.000173263
4.80018e-70
28.0311
1.02978e-68
-7.64405e-97
1.37234e-92
3.10337e-123
0.000133709
3.32362e-06
4.12016e-228
2.78337e-224
-7.53453e-38
3.89151e-211
0.000457383
1.42717e-43
4.0974e-13
-5.24621e-156
113.426
0.025276
1.72854e-74
0
8.69523e-165
-3.1837e-49
1.95961e-109
5.71607e-106
-1.23271e-105
7.71985e-66
6.35334e-56
5.90632
-1.19283e-10
1.68593e-244
1.97542e-48
1.32584e-39
6.07335e-36
5.02222e-97
9.62142e-30
3.65812e-60
-7.81674e-48
-4.6872e-157
6.10418e-320
1.67454e-36
9.69527e-33
-1.86438e-98
-1.34855e-39
2.32504e-18
-3.23363e-112
-3.32174e-72
5.55006e-148
5.67564e-109
4.17192e-19
-9.81948e-108
4.53158e-44
7.2158e-54
3.18277e-77
-3.58941e-140
-2.08138e-98
1.24481e-16
3.27942e-101
2.19294e-98
6.10043
2.75663e-64
-8.69333e-113
0.00149366
0
3.39908e-99
-1.01048e-78
-8.16587e-112
-4.27945e-189
1.34918e-73
0
3.92159e-13
3.90285e-164
3.38445e-71
9.31809e-34
5.44789e-42
1.39006e-92
1.30915e-96
3.8545e-38
59.0259
1.48986e-230
2.26023e-120
8.86372e-113
0.00121957
2.28774e-32
3.37897e-161
0.867268
1.92883e-320
4.78722e-166
129.107
-1.85262e-123
3.17308e-157
1.39105e-153
1.50027e-55
-2.74158e-52
4.38621e-225
-6.00651e-116
2.51063e-32
3.01573e-79
-1.84536e-84
-7.93932e-107
-6.62743e-230
-1.00282e-50
2.54605e-10
-1.06006e-85
-5.04559e-41
2.30475e-71
1.91143e-92
2.34067e-14
-5.90862e-42
-8.06285e-105
3.20484e-164
1.23563e-05
1.6611e-66
1.79502e-60
-1.88154e-147
1.53478e-226
3.48591e-45
1.15957e-18
1.45269e-104
4.23455e-42
1.23709e-102
-8.4097e-104
1.58205e-137
5.71794e-51
123.509
11.8763
6.30192e-50
-3.50481e-84
-1.16641e-139
7.11823e-53
0.00183122
-6.6455e-44
8.17345e-163
2.08993e-21
1.22993e-11
5.62672
-2.54568e-127
45.9027
5.90791e-229
-4.74705e-102
5.15475e-225
4.24876e-15
5.34902e-59
46.3606
9.97922e-173
0.00388686
-1.23728e-209
-1.26129e-85
7.33978e-53
3.25107e-111
3.26449e-21
0.000289308
-3.37059e-120
-5.29541e-140
-2.25849e-104
1.03559e-128
-3.80963e-122
4.29587e-18
4.15616e-62
8.87016e-96
1.74555e-20
-5.46778e-123
1.31519e-221
-1.25286e-89
1.23959e-191
5.92104e-35
-3.19875e-105
1.19817e-13
2.41442e-15
-2.41128e-55
2.23419e-50
2.17241e-58
1.4413e-92
0.00200416
2.43372e-107
-2.1639e-128
2.93895e-287
7.3951e-20
-1.35286e-45
1.84956e-174
1.59473e-37
4.089e-110
1.88565e-51
-1.2581e-48
-1.32751e-42
3.79686e-60
73.9363
8.73782e-58
-8.63855e-54
0.000192195
3.26834e-112
1.36835e-09
2.86434e-42
7.98877e-216
2.38071e-105
-8.20213e-147
4.16116e-95
5.44607e-313
-6.75432e-156
2.62824e-11
7.23873e-18
-5.36828e-159
135.794
1.05697e-37
-2.29044e-201
1.16965e-15
1.8444e-22
-4.02422e-208
6.63064e-14
2.41055e-35
1.2534e-15
-4.20534e-211
-8.2336e-152
-2.11017e-133
1.62134e-209
1.75073e-44
10.5742
-6.52401e-168
1.03993e-15
0
1.19149
1.48567e-40
2.02534e-61
9.23277e-278
6.79116e-170
-3.72274e-100
7.13304e-62
6.03064e-20
1.05024e-50
-4.90833e-124
1.0355e-116
-1.56809e-212
2.33213e-43
2.10822e-49
-1.33446e-145
-1.85858e-252
5.30575e-83
3.7024e-52
2.09656e-57
1.22917e-185
1.60162e-10
-2.72336e-37
7.50531e-211
7.439e-68
1.04002e-117
2.60421e-100
155.939
-6.40288e-125
-2.50227e-202
1.43631e-68
-6.16279e-47
-1.63908e-58
1.19194
-1.04684e-72
5.67203e-110
5.70047e-49
-8.55075e-113
9.90211e-115
5.99274e-108
-2.50608e-111
-2.89283e-35
3.5116e-99
10.4327
-7.28739e-57
2.16398e-12
-2.57961e-113
2.75305e-09
1.555e-40
2.55072e-21
1.6642e-17
3.1941e-63
-7.75694e-114
4.97325e-118
1.43262e-84
0
-4.87981e-103
2.25554e-46
3.409e-29
-2.12536e-114
3.48356e-212
1.75451e-68
6.21513e-58
3.75155e-31
2.31393e-51
4.19453e-21
1.50398e-31
6.32545e-145
2.7309e-65
0.00614985
6.64217e-48
3.18683e-318
3.98023e-130
2.9033e-114
3.60668e-322
7.33089e-67
4.10388e-231
-3.87196e-101
3.23442e-20
1.96721e-43
1.6754e-10
3.06415e-227
5.46943e-173
1.08975e-277
-1.15769e-114
-1.16473e-135
7.48637e-21
-9.03136e-135
2.1461e-172
2.73724e-09
5.59587e-56
2.18671e-87
1.5217e-68
2.43281e-23
1.32167e-129
1.28807e-15
6.89676e-119
1.61411e-223
3.02276e-05
1.64389e-74
2.46247e-26
8.35117e-131
40.8831
-1.04389e-51
-2.60176e-62
2.12677e-67
1.16137e-43
4.59694
-1.53132e-113
2.07657e-22
-1.6512e-55
-3.61228e-64
2.24138e-166
-1.67775e-104
1.16782e-09
-7.00656e-102
2.51242e-14
-1.12917e-121
-1.48611e-126
1.43498e-16
1.86036e-198
7.43769e-149
-1.99778e-111
3.64985e-73
1.8255e-14
-1.44738e-122
9.20533e-116
2.71572e-297
-3.78432e-54
2.32402e-05
9.12441e-64
-2.05279e-115
-5.19857e-83
5.26602e-131
-6.05286e-167
8.53009
-1.09308e-61
2.14259e-261
1.18467e-63
8.38319e-133
-5.18448e-50
-1.62256e-33
1.76251e-86
1.93185e-111
1.13442e-22
4.51468e-17
-6.38644e-283
-5.57898e-88
7.28351e-18
5.92365e-175
-1.66117e-238
2.54384e-78
2.4189e-76
-3.57698e-104
-1.73788e-236
1.61757e-73
3.85512e-16
-1.80635e-203
1.99722e-33
1.26966e-227
-4.58032e-147
6.05717e-72
2.12273e-06
-8.78375e-295
0.979856
-4.91284e-60
5.94452e-32
9.34585
-7.34008e-55
1.109e-85
0.00824921
-8.74211e-114
5.25213e-07
-4.81334e-24
3.91984e-85
1.16218e-104
1.50228e-106
2.0276e-127
-6.72737e-134
1.17041e-41
0.00488608
132.61
6.21209e-47
1.04234e-34
2.20736e-08
7.88769e-50
0.378226
2.88455e-189
-5.84219e-125
1.62513e-25
5.7481e-66
-8.61641e-154
2.09705e-47
-3.38473e-117
4.0382
7.86646e-318
-1.58485e-155
-6.25216e-183
145.944
4.82634e-43
3.10165e-57
1.29241e-101
8.98426e-25
-2.44744e-109
-1.63078e-173
1.28442e-09
-2.22507e-115
1.60943e-09
3.18781e-41
-2.53968e-107
1.35996e-22
5.96868e-73
-1.00343e-120
1.59734e-169
-6.05134e-165
0.0732625
7.81419e-18
-4.83955e-150
4.56722e-24
1.16561e-88
6.75445e-38
-6.29006e-291
2.71359e-75
6.90235e-10
8.92165e-25
-3.64745e-53
-3.84624e-87
6.64434e-171
4.53797e-30
-1.64382e-109
1.8321e-174
4.71642e-14
1.43516e-27
-2.90306e-140
5.52407e-39
-2.56104e-83
-1.59487e-281
1.82058e-155
3.51956e-253
8.45685e-52
39.0994
5.87798e-15
6.40358e-32
-1.43903e-146
-4.77225e-107
3.42634e-73
-1.86245e-266
2.2834e-11
2.68625e-74
33.2158
-1.37016e-32
1.06802e-107
2.88993e-142
2.01931e-186
2.94577e-116
-5.403e-112
3.0991e-151
8.18325
4.00388e-26
-1.53217e-50
4.62752e-23
-8.10316e-54
5.46502e-174
0
9.10755e-152
3.13822e-36
0.0729493
-8.87641e-28
1.19886e-66
-3.14883e-63
-9.09149e-86
3.80564e-27
0.00565028
0.00486555
1.46076e-109
-3.27334e-89
-1.56133e-45
-2.64349e-134
2.62572e-245
-3.70389e-153
1.76068e-23
-1.13083e-136
2.96717e-88
-9.6022e-121
1.79852e-52
1.56639e-12
3.13582e-128
-3.51106e-152
1.65971e-16
1.63718e-29
1.90805e-109
2.62469e-164
-6.12714e-65
3.98629e-12
2.07337e-36
-7.85708e-34
-3.08515e-68
-1.83226e-96
2.58687e-05
-2.196e-105
-7.59099e-28
5.46627e-167
4.50389e-16
1.18546e-17
-9.59661e-222
3.44337e-182
76.4988
2.12355e-155
-1.64021e-95
1.948e-40
-9.36272e-134
-7.79077e-133
-1.42172e-117
2.52568e-157
1.5209e-277
3.0553e-40
6.83666e-08
-5.35986e-186
0.00280476
1.83413e-120
-5.5469e-158
3.17584e-16
1.37635e-11
3.65809e-37
1.11794e-112
7.25248e-150
-4.26322e-58
128.896
-1.02068e-135
-2.65066e-187
-9.3879e-195
-4.77506e-136
-1.62533e-76
-2.10042e-46
-1.24656e-139
-1.82176e-90
2.6883e-150
3.50672
4.32081e-12
7.45791e-74
1.6455e-49
2.18682e-119
-1.92718e-157
1.76903e-30
0.467656
-1.36826e-93
7.88223e-193
-1.74312e-159
3.31694e-18
-1.07285e-134
9.57756e-169
5.43053e-19
4.07984e-114
-2.04735e-156
100.832
2.01568e-16
0.123211
1.21646e-30
-6.91535e-136
4.26708e-28
2.16338e-13
0.0359207
1.97239e-124
5.2511e-51
-3.64075e-270
0.0319373
1.87745e-322
2.81504e-128
5.34711e-122
-1.73545e-192
5.45296e-62
9.50465e-108
-1.00913e-133
2.6223e-126
0.742216
1.62833e-18
1.05097e-66
-2.09979e-151
2.42801e-42
0.729209
1.80145e-14
1.35015e-55
-1.59423e-66
-1.81616e-128
6.26007e-110
-7.61257e-192
4.76818e-143
-6.29241e-184
-4.43788e-154
-2.31728e-56
1.74602e-19
1.45686e-27
0.0956478
5.96083e-06
7.81674e-12
5.50738e-35
0.0333397
7.64407e-171
2.8695e-07
-1.22168e-160
0.000164778
1.5492e-15
2.85688e-53
-6.57282e-140
2.13005e-51
2.41397e-39
1.85155e-95
26.4853
4.54545e-16
0.101584
-5.19595e-156
2.36958e-13
3.56881e-09
1.21368e-15
1.41908e-09
7.13911e-15
-6.20417e-158
1.50595e-115
8.19184e-72
-7.95391e-145
2.60285e-41
3.97643e-132
-1.02259e-53
6.66449e-225
-6.28463e-119
4.24136e-40
5.7422e-62
2.98533e-176
-2.0826e-61
0.099946
68.95
-1.74054e-194
9.66856e-64
-9.11464e-116
2.93141e-13
2.86558e-43
2.56468
1.36367e-06
1.6422e-127
4.04119e-60
2.44493e-09
2.04949e-28
1.5405e-07
3.50164e-70
2.9388e-15
-8.02178e-181
0.0357442
1.42409e-17
4.10271e-163
8.58962e-10
0.000127003
8.9881e-59
0.416908
7.04297e-122
2.70515e-11
6.57102e-103
-1.42467e-200
1.72822e-95
-2.3751e-107
0.0113608
8.30698e-13
0.00298927
2.46574e-175
0.546206
3.81511e-53
7.84917e-19
-8.55542e-41
5.20148e-63
4.53973e-75
0.000707831
7.04316e-120
1.71373e-139
1.54851e-39
8.70616e-12
1.96846e-41
3.57143e-30
-4.5554e-75
0.0115266
1.0941e-39
5.62667e-42
4.62652e-12
-1.60429e-201
7.31113e-10
1.01135e-25
2.76332e-10
-1.33245e-97
5.25405e-06
4.04242e-187
5.20208e-43
1.58471e-75
6.09765e-16
-2.96798e-92
1.4459e-40
6.61347e-11
64.0392
1.04498e-125
2.24608e-68
-1.05322e-59
1.08175e-22
6.38392e-34
1.16494e-127
7.77611e-56
1.39281e-188
8.15587
6.2711e-285
2.83453e-188
4.10837e-251
2.55057e-11
-1.13571e-154
-3.11501e-52
0.0400652
3.14491e-78
-9.21121e-75
-3.92681e-147
-4.99733e-238
2.03493e-12
-5.5179e-193
-1.11098e-52
6.66715e-17
-1.15042e-59
5.73229e-08
-1.12631e-126
4.71609e-55
3.18764e-10
3.1101e-30
-2.8509e-95
71.4703
-1.03831e-289
-3.92918e-232
-1.04063e-113
154.49
-1.87702e-99
2.99371e-106
5.30337e-10
-1.69299e-139
-1.99133e-124
9.29069e-25
1.38739e-08
1.18214e-45
0.000131873
-1.1985e-136
4.47651e-116
5.39216e-71
1.27858e-74
3.65191e-16
-1.11297e-162
4.0088e-105
-1.32181e-71
-5.81824e-21
3.06555e-87
2.99342e-178
-1.45248e-55
-1.40292e-23
7.14621e-244
3.32715e-240
1.13064e-06
6.12566e-45
3.12548e-06
1.26722e-122
7.01224e-317
-3.64765e-22
1.53819e-11
1.23256e-172
-4.56106e-134
-2.16595e-189
3.14545
-7.912e-244
2.63655e-47
1.2931e-07
-5.59003e-238
-5.02713e-236
3.16465e-31
-1.55955e-204
1.35104e-239
1.05682e-68
1.51578e-17
2.15972e-180
5.38544e-31
-1.47599e-195
1.34559e-10
7.03895e-320
9.07634e-10
1.41513e-16
1.15994e-36
2.35224e-237
5.236e-25
2.70472
2.87969e-134
5.09646e-62
7.28392e-209
4.13904e-18
-2.82579e-197
1.00709e-09
2.43934e-15
9.8296e-111
-3.39433e-246
3.82862e-17
3.76837e-19
6.17587e-78
2.1562e-76
6.44309e-21
-1.99894e-202
5.01272e-26
-3.21804e-248
1.73797e-09
1.04278e-11
3.35886e-17
1.66427e-35
-2.40546e-29
0.932865
9.28725e-41
6.33292e-75
1.68809e-19
4.58562e-131
9.78598e-23
1.29601e-20
-2.89436e-55
1.09924e-114
0.0105425
7.59852e-271
0.00258075
91.7872
1.51264e-143
2.35333e-14
26.5217
5.6017e-46
1.83792e-72
1.72564e-26
-7.66243e-70
3.02123e-186
4.68561e-11
0.00150173
0.303355
-3.86449e-130
3.26416e-32
7.30817e-07
7.44398e-18
-3.37788e-152
3.43882e-227
2.13422e-59
0.000549045
1.9756e-11
1.71707e-21
-9.22466e-299
-1.98849e-198
4.02242e-19
-1.37162e-137
9.49625e-65
-3.55218e-132
-1.82316e-241
5.88236e-10
7.19384e-124
8.34699e-08
1.64698e-76
4.31971e-215
-1.16155e-228
4.68261e-19
-3.00261e-131
1.03393e-45
3.08946e-21
0.00402153
-8.2339e-65
1.19482e-178
1.95335e-08
1.40679e-110
1.39216e-190
4.75892e-100
1.65004e-18
-6.61334e-133
5.50948e-18
9.35729e-68
151.793
7.8281e-20
-3.54799e-168
9.31009e-08
7.35976e-250
1.60734e-12
4.41803e-54
1.17671e-07
0.00011509
-1.17422e-56
7.7832e-07
5.84922e-213
2.15638e-13
-1.36651e-146
2.65862e-65
1.64091e-08
1.06711e-41
1.18845e-08
0.00158828
-5.84551e-25
2.99937e-12
4.12007e-08
1.00076e-174
4.95529e-195
6.60888e-248
6.35597e-07
-1.09489e-30
1.16162e-172
2.23787e-10
1.02868e-09
5.8147e-63
9.75296e-24
1.60831e-79
1.91766e-44
6.8644e-07
-1.1041e-90
5.16602e-50
2.86718e-49
-4.48264e-271
-4.16297e-268
-2.11489e-174
-1.69017e-129
9.56815e-78
1.18822e-218
-3.00945e-109
2.50568e-124
6.58364e-77
8.2632e-40
-5.72764e-153
1.02741e-09
6.32404e-322
4.54197e-16
6.52505e-08
-1.36316e-166
2.27131e-06
5.43764e-21
1.60353e-09
1.60049e-86
6.21597e-22
-3.57625e-139
2.36233e-55
3.30125e-70
-3.07298e-230
9.70505e-146
-9.15804e-118
-1.41573e-164
6.7359e-255
2.3704e-70
4.18624e-257
-1.16698e-39
1.41489e-37
0.0145869
1.92391e-222
8.00246e-78
1.8913e-216
-3.8683e-138
3.5583e-28
4.0894e-81
6.49176e-170
109.621
2.9877e-18
1.12898e-44
4.03345e-77
1.52037e-20
4.84597e-30
-2.47918e-101
3.50819e-29
9.23611e-18
6.55681e-124
-2.24995e-250
-6.09861e-108
2.01004e-12
-1.63953e-193
-9.51732e-176
1.33833e-17
2.78172e-143
-2.32635e-138
3.07351e-112
2.10419e-178
3.67398e-06
8.95156e-220
-8.2524e-178
6.07156e-37
4.11156e-29
0.226881
4.56033e-17
-9.21605e-76
-1.91666e-168
1.14322e-28
-1.73542e-170
8.19757e-39
1.3881e-87
-1.08959e-124
7.11219e-08
-4.64407e-232
9.31737e-31
1.22009e-68
8.19618e-20
-1.29297e-53
-3.18657e-260
4.30306e-126
-1.97204e-318
1.89407e-35
-1.17273e-196
1.54041e-25
4.27136e-66
-7.09501e-119
-2.92385e-73
4.08213e-57
-8.33317e-253
6.12324e-30
4.17874e-35
-1.31588e-130
3.36716e-35
6.25875e-11
-4.64617e-240
6.61126e-57
1.09581e-14
1.81395e-23
-3.53721e-97
-3.48433e-58
-2.04143e-56
5.414e-69
-1.41115e-93
9.03748e-19
-2.20225e-92
9.14933e-167
1.42224e-168
1.72103e-06
1.93339e-11
8.04597e-09
2.32554e-08
-2.01814e-45
7.6524e-28
6.0669e-65
1.50008e-29
2.43746e-169
0.0523177
-1.43578e-137
5.94643e-08
1.79292e-20
-2.24641e-172
-1.83392e-32
2.6418e-12
1.56723e-10
7.50728e-64
5.45201e-38
2.1274e-171
-1.18142e-280
8.02934e-20
-1.32084e-250
9.70242e-223
4.08726e-22
-2.55207e-138
-1.7935e-86
1.25909e-176
4.65277e-123
3.35285e-20
6.35714
-9.38954e-140
-3.11882e-145
1.76839e-13
-1.78011e-49
3.01745e-14
2.19169e-35
1.6969e-33
-3.141e-141
-7.97635e-53
4.97438e-32
1.60432e-22
-5.33355e-39
1.93777e-183
4.36111e-18
5.52779e-44
2.54236e-26
-2.26908e-107
1.71356e-174
3.97822e-22
-2.55912e-136
2.24295e-240
3.46654e-32
8.07482e-11
-1.56768e-219
9.82557e-35
2.1844e-68
-2.61671e-151
8.65924e-99
-8.66484e-151
2.71629e-32
1.4442e-166
1.46262e-176
3.14189e-74
5.43522e-33
-8.28335e-52
1.0406e-35
5.64624
1.42204e-127
6.97147e-79
0.000608502
2.4631e-48
-1.70289e-152
1.28999e-45
2.62412e-10
-4.66977e-230
-4.23894e-142
-4.18311e-244
4.73318e-37
3.49653e-19
-6.44566e-75
5.96089e-260
1.69337e-103
6.27699e-96
4.64394e-117
5.63424e-12
4.05959e-137
-4.47013e-259
1.25975e-252
1.38803e-40
3.49155e-65
3.81706e-07
5.43348e-108
-4.88707e-63
4.39128e-58
3.47724e-27
-4.19167e-192
1.11099e-32
-5.28999e-234
3.72682e-224
-1.05571e-246
8.47998e-14
-1.79584e-135
1.62121e-34
2.40678e-43
2.16299e-40
2.20074e-28
1.28112e-39
8.56772e-18
6.45568e-33
7.30052e-134
6.18636e-50
-2.7107e-59
4.5183e-51
3.07173e-27
-2.5284e-141
18.3325
1.66733e-21
1.73862e-24
-5.31804e-221
0.442386
2.47565e-27
1.02034e-29
1.38446e-37
6.77478e-19
1.44228e-79
-6.01943e-125
4.92881e-125
4.4324e-134
2.24964e-127
-1.11969e-24
3.1422e-29
-7.91518e-143
5.67326e-41
3.20088e-119
-3.26542e-125
-1.50061e-80
-3.37049e-58
-1.636e-101
4.63239e-72
-2.55267e-58
1.47708e-48
1.79374e-34
2.17843e-71
3.72331e-220
4.81846e-105
2.15241e-132
3.08908e-14
-3.60206e-195
-4.27092e-139
4.69096e-39
0.00964241
-1.54802e-166
1.17482e-06
5.12184e-172
-1.02071e-137
1.49993e-73
3.10111e-42
5.1111e-50
-6.9912e-191
2.18636e-35
7.48874e-36
8.18805e-15
8.6215e-222
1.24421e-45
4.59037e-61
3.50624e-93
-2.51901e-245
-7.81561e-297
3.28106e-36
2.78894e-64
1.03439e-89
12.5283
3.30612e-33
1.22953e-46
-6.17553e-32
1.39736e-75
3.18054e-14
5.27616e-126
-3.17821e-76
-1.15942e-108
-6.99789e-117
8.29019e-07
1.38045e-44
1.51568e-31
8.78518e-53
3.7885e-186
3.23534e-34
4.51579e-33
3.88046e-14
7.63613e-119
2.47469e-47
-2.72862e-06
2.00067e-06
4.29013e-174
1.8779e-11
1.02553e-81
3.54819
-1.7984e-239
1.05319e-35
7.49521e-54
-3.76023e-267
4.32623e-29
1.13368e-98
-3.47309e-101
1.64061e-23
3.13497e-08
3.12855e-15
-6.22053e-101
1.74047e-39
5.07988e-235
-1.24531e-134
3.68517e-08
-2.99521e-41
7.34759e-118
3.0881e-34
-3.14051e-27
3.90194e-41
5.93374e-64
2.41164e-58
6.55752e-43
3.662e-07
-1.25355e-182
1.97554e-61
-1.76167e-80
3.916e-37
1.64245e-09
1.01243e-38
1.11279e-47
-2.77498e-105
-1.68677e-243
3.0807e-35
6.64675e-46
2.8171e-38
-4.28884e-188
2.51213e-84
4.80057e-48
1.84887e-40
-7.02796e-31
6.06937e-34
1.86797e-108
3.1858e-43
-2.66644e-137
3.94891e-26
2.3499e-80
8.52633e-35
2.01739e-80
-3.31335e-99
6.79085e-41
6.5231e-85
4.18283e-94
2.39333e-113
3.83234e-184
1.37932e-57
2.67374e-66
1.95852e-81
0.44445
9.2846e-05
-1.63189e-148
6.217e-120
-2.88675e-62
4.76795e-63
-2.44217e-258
4.62805e-39
-4.29385e-47
-5.87116e-42
1.18632e-238
1.325e-17
1.00783e-35
3.28965e-21
5.12303e-40
-6.15851e-222
-5.92643e-119
1.44383e-91
4.49455e-43
1.5733e-11
2.51455
-3.90534e-180
-4.48008e-86
-1.69436e-98
2.18682e-12
4.66407e-07
7.42173e-15
-2.26376e-68
1.89164e-39
4.54047e-237
4.4699e-57
-1.51076e-68
-2.95513e-177
-6.49156e-28
-2.41798e-65
8.84962e-52
4.14065e-38
2.96049e-89
1.45473e-64
2.67032e-46
-6.13963e-224
0
3.63782e-61
-1.68485e-87
1.14955e-10
-1.69642e-81
-3.76202e-29
1.57585e-17
-1.52177e-53
-1.16301e-178
-1.22634e-77
6.90272e-37
2.41608e-182
2.87561e-05
8.90857e-07
-1.80633e-148
-5.14711e-234
7.19488e-146
-6.68344e-184
-4.0001e-271
4.13469e-79
1.13834e-97
-1.01807e-39
-5.22845e-67
5.50524e-45
-2.57638e-61
9.02145e-13
4.68495e-39
1.26598e-42
5.2747e-70
-2.3957e-79
-5.18114e-47
-2.34531e-223
4.80183e-98
4.83188e-102
-2.44465e-41
-2.118e-33
6.76197e-12
-4.4117e-274
-9.4742e-35
1.37902e-55
3.10918e-73
3.82133e-30
2.44009e-50
5.54721e-33
1.37464e-07
1.54261e-59
1.32714e-24
6.38921e-80
1.08755e-120
1.99547e-57
6.07697e-45
9.46423e-185
-5.03436e-70
4.71524e-06
-3.47339e-102
4.90224e-08
1.272e-175
2.1935e-45
-7.31257e-119
9.54661e-110
1.02655e-38
-2.23662e-26
7.06156e-32
-3.19902e-97
-3.86249e-73
1.04261e-73
5.44773e-24
1.16356e-30
-4.76507e-60
2.21322e-20
-1.33171e-268
1.1152e-62
3.20076
5.38508e-19
-3.23857e-103
0.000993279
7.33681e-33
5.24258e-96
-3.61859e-206
9.21141e-14
7.25278e-45
1.36345e-75
-3.63831e-50
2.74767e-180
2.89046e-42
3.61577e-108
1.17417e-24
3.62651e-48
1.24263e-46
3.11144e-37
0
1.14726e-138
2.31339e-89
3.11791e-123
2.63019e-126
1.21241e-73
-5.35851e-98
3.16023e-94
-5.83885e-30
7.59315e-36
2.96965e-255
1.25981e-28
-9.20406e-136
-7.54191e-222
-1.27256e-35
8.61246e-168
1.79509e-79
1.01957e-78
7.47609e-187
9.36233e-184
-1.02782e-108
1.89013e-47
-7.42555e-79
1.03514e-41
1.52549e-53
-1.97622e-34
2.74702e-37
8.36461e-77
-9.87499e-64
4.51393e-51
2.26084e-289
3.74028e-83
-3.8991e-110
4.46314e-79
1.61115e-05
6.29601e-50
9.12055e-90
-1.12498e-60
-2.81864e-82
8.69683e-100
-2.03752e-100
-1.24809e-80
2.56789e-108
-2.90735e-42
1.12407e-56
9.86619e-225
1.05996e-48
-6.79962e-63
3.44849e-46
1.39724e-206
-1.94107e-36
1.06429e-08
-1.66739e-131
-8.84222e-53
8.94823e-36
-1.34256e-146
1.51245e-35
1.18995e-23
4.86556e-48
8.28105e-47
1.6817e-27
-1.14683e-59
-1.53442e-66
4.80631e-54
1.45326e-41
-3.11785e-165
3.8846e-109
-4.77306e-280
-9.32945e-133
-1.76787e-206
6.71304e-72
4.25112e-64
6.00721e-40
1.78592e-54
0.499842
-3.09824e-26
2.1638
1.20294e-54
3.75792e-13
0.128743
6.45713e-22
2.83972
1.04346e-105
3.52658e-67
-3.42883e-78
1.09656e-80
5.96161e-61
3.09952e-141
7.17179e-71
-3.07957e-120
1.03525e-208
-2.42912e-68
0.013744
3.62071e-75
4.79355e-45
-2.62392e-76
-9.24173e-111
1.54973e-57
-1.71784e-63
3.31393e-129
3.26781e-69
2.24835e-115
2.05762e-31
3.14633e-51
4.69391e-54
-4.87647e-56
1.22311e-05
3.05566e-21
1.67239e-43
-1.52998e-80
21.0877
1.41671e-77
3.50543e-72
6.89015e-41
-5.08474e-38
1.52482e-78
7.03752e-30
3.95027e-180
-1.40867e-48
-5.30549e-36
6.23025e-57
8.53703e-58
-2.37947e-97
-1.24401e-66
-1.60449e-44
1.77543e-104
3.87745e-42
1.78435e-72
-1.75275e-93
9.48168e-178
5.55779e-82
7.50163e-59
-6.25273e-106
2.07786e-80
6.16697e-93
-1.08837e-137
-7.28332e-44
4.26096e-110
6.36283e-22
2.01928e-60
-1.35657e-82
9.31689e-188
-1.29268e-131
6.75794e-34
-3.06197e-68
-1.46398e-238
-2.68438e-61
0.108931
2.68274e-46
-6.10532e-100
5.51978e-81
2.80868e-06
0.00141666
4.13385
4.99318e-130
4.40768e-132
-8.15784e-127
-4.2166e-92
4.26786e-44
5.8347e-11
1.59536e-08
8.04172e-20
3.02857e-44
3.05971e-111
-4.4822e-202
-1.905e-198
-1.58309e-35
1.48609e-100
6.91246e-37
2.73025e-128
6.29314e-17
1.11677e-117
6.38325e-66
2.30299e-15
-4.91806e-55
1.30659e-35
-2.51146e-132
-2.63795e-71
-9.72306e-220
2.85415e-31
3.73151e-45
1.9853e-103
-1.47305e-208
-6.81367e-88
5.73025e-31
-1.0342e-142
-2.45153e-59
1.49303e-06
-8.71403e-234
2.84174e-98
-3.29493e-50
-3.2815e-51
9.27307e-63
1.33086e-153
8.9808e-141
-2.22566e-137
-3.02303e-252
-9.33576e-198
-1.17837e-90
5.96289e-54
-1.44505e-220
-4.30501e-96
-6.10671e-141
130.517
-3.29686e-37
6.51541e-136
-2.19713e-276
1.44748e-42
-1.90842e-74
1.87627e-30
3.6067e-61
-5.12113e-73
-2.32714e-212
2.30483e-137
3.55861e-33
3.63466e-278
1.64755e-78
2.34037e-38
5.32303e-67
-7.26878e-193