/*--------------------------------*- C++ -*----------------------------------*\
  =========                 |
  \\      /  F ield         | OpenFOAM: The Open Source CFD Toolbox
   \\    /   O peration     | Website:  https://openfoam.org
    \\  /    A nd           | Version:  7
     \\/     M anipulation  |
\*---------------------------------------------------------------------------*/
FoamFile
{
    version     2.0;
    format      ascii;
    class       volScalarField;
    location    "1.073";
    object      p;
}
// * * * * * * * * * * * * * * * * * * * * * * * * * * * * * * * * * * * * * //

dimensions      [0 2 -2 0 0 0 0];

internalField   nonuniform List<scalar> 
12359
(
0.0636054
0.0731476
0.0479306
0.105813
0.0672611
0.152017
0.184511
0.166119
0.222819
0.140436
0.204728
0.274653
0.483974
0.112705
0.100582
0.392295
0.44049
0.052163
0.0518118
0.0858321
0.121626
0.247666
0.0792169
0.0911961
0.0757914
0.0821503
0.0489992
0.0488768
0.0511236
0.0494823
0.0498712
0.0484056
0.048085
0.0492653
0.047955
0.0500737
0.0572121
0.0621009
0.0655128
0.0595865
0.0710269
0.060738
0.0548714
0.0541814
0.0505182
0.0508232
0.0502896
0.0497086
0.051449
0.0491199
0.048756
0.048627
0.0483162
0.0525419
0.0482546
0.0481088
0.0535195
0.0480701
0.0480594
0.0480048
0.0481488
0.0479512
0.0486782
0.514091
0.0530318
0.130446
0.0564637
0.048546
0.0579334
0.3457
0.529002
0.0690001
0.0479209
0.0587209
0.0960426
0.0479654
0.0483274
0.0479387
0.0557289
0.314645
0.121915
0.043374
0.0470406
0.0489132
-0.0593416
0.0222795
0.0432258
0.045651
-0.0712152
-0.0535385
0.0477254
0.471054
0.0476748
0.0475213
0.0476353
0.00426594
0.0469931
0.0476074
0.0564522
0.0528373
0.106231
0.047822
0.0226932
-0.127873
0.0424492
0.0122546
0.0468043
-0.0578384
0.0246751
0.0126776
0.0470831
0.0434513
0.107786
0.0893959
0.0479866
0.0438573
0.091097
0.0423831
-0.0749092
0.0470776
0.047212
0.172085
0.0454998
0.00487836
0.0420763
0.0439389
0.0365634
0.0487564
0.047926
0.0419969
0.0444158
-0.00250937
-0.003954
-0.002684
0.0468533
0.00602119
0.0442801
0.00591818
0.0478528
0.0368953
0.0472081
0.0651025
0.0137585
0.0468223
0.00733865
0.144714
0.0470527
-0.0466672
0.042263
0.12456
0.00321043
0.0478385
0.0138582
0.0454238
0.0476291
-0.18793
0.106906
-0.00163706
0.0470847
0.048478
0.0443038
0.0485238
0.00357798
0.0110469
0.0470297
0.0440667
0.0454177
0.171345
0.0124791
-0.07307
0.0479348
0.0479558
0.011272
0.0758815
0.0427032
0.0407556
0.0511215
0.0509179
0.109122
0.0413673
0.113164
0.0476083
0.0479265
0.0430956
0.0554128
0.203983
0.0423505
0.0468232
0.00283236
0.0421435
0.0471422
0.00524852
0.00743028
0.045351
0.0114926
-0.137838
0.0310201
0.0433489
0.0144001
0.0425531
0.149266
0.00240213
0.0540294
0.012375
0.0108569
0.0475876
0.00974372
0.0546444
0.00196037
0.0412491
0.0473457
2.48416e-05
0.000251766
-0.534088
0.197928
0.0478589
0.0428866
0.0479722
0.0426722
0.0656977
0.0991692
0.0413231
0.00468281
0.467232
0.041827
0.047324
0.0664086
0.0257385
0.0439777
0.0441608
0.0439663
0.0470336
0.00823988
0.0541589
0.046264
0.0532921
0.0470718
0.0132606
0.0464485
0.291434
0.0469982
0.0207675
0.046739
0.0533107
0.04307
-0.0474776
0.048037
0.0017523
0.0432616
0.0086253
0.00152715
0.0614766
0.0505594
0.0444935
0.319015
-0.586472
0.047084
0.0412403
0.397315
-0.0518899
0.0535464
0.0441282
0.0440116
0.0112242
0.0742809
-0.450192
-0.0694375
0.0428767
0.0415234
0.00625279
0.0113704
0.0592578
0.012625
0.044646
0.0411605
0.0470375
0.0413588
-0.118575
0.0417927
0.0467078
0.0478096
0.0107117
0.0385207
0.0565281
0.0210537
0.0471426
0.0460666
0.0478305
0.0478098
0.0484366
0.00345786
0.0430442
-0.452849
0.046807
0.0467949
0.0230471
0.0433326
0.0985694
0.0477668
0.0488033
0.0477455
-0.106993
0.043356
0.0477443
0.0431074
0.0473606
0.0432849
0.0437042
0.0442482
0.0432393
0.0521616
0.202585
0.0429488
0.0499827
0.0621003
0.0210405
-0.0571052
0.0427149
0.0572102
0.370081
0.0478057
0.0179089
0.0465926
0.031349
0.0468127
0.0424386
0.224123
0.0171623
0.20428
0.0560988
0.0464246
0.00595701
0.00268703
0.0463253
0.00543735
0.00687635
0.0464641
0.0482201
0.0482136
0.0482731
0.0482565
0.288907
0.0471204
0.103205
0.000724718
0.0541661
0.0122122
0.0173041
0.0236674
0.0320559
0.01649
0.0325755
0.056082
0.0190031
0.0202933
0.0913401
0.0659176
0.013599
0.0641988
0.0639734
0.0150189
0.103347
0.0439238
0.0483162
0.029556
0.04828
0.0436364
-0.188681
0.501143
0.0438555
0.0478906
0.0468659
0.0474991
0.016341
0.0476337
0.0476179
-0.0766567
0.0114453
-0.0490198
0.0456794
0.0092331
0.0387437
0.0470326
0.0146977
0.029375
0.109223
0.0295164
0.0441492
0.046597
0.0108722
0.00889537
0.0413026
0.292042
0.0143738
0.00382592
0.0487239
0.0455613
0.0478713
0.385578
0.0118197
0.0458068
0.0614808
0.0631653
0.0472251
0.0471952
0.0474382
-0.0577575
0.0975961
0.058335
0.0167986
0.0017857
0.0477904
0.113162
0.0480478
-0.000121338
-0.0620522
0.299418
0.0529281
0.0908468
0.0256749
0.0209835
0.0338892
0.0292935
0.0495325
0.033813
0.0140879
0.0476404
-0.0554016
0.0570639
-0.00663308
0.00773188
0.0540084
0.0949762
-0.145385
0.0161043
0.0379882
0.00303731
0.00727981
0.0177303
0.0424943
0.0473849
0.0513137
0.0468077
-0.00322846
0.0445272
0.0820481
0.084342
0.0338894
-0.0564536
0.102902
0.0526222
0.0461466
0.389106
0.0464896
0.0456367
0.00414969
0.0478933
0.0460324
0.0456238
0.235085
0.200956
0.048495
0.0455758
0.10839
0.0469563
0.0170988
0.0137385
0.011913
0.046425
0.0474825
0.0466165
0.047753
0.0837748
0.0177573
0.020672
0.0507539
0.0500949
0.00170394
0.0496177
0.0454449
0.0410897
0.118513
0.00343842
0.0478366
0.0463298
0.0105054
0.0280134
0.047462
0.0440589
0.112132
0.0174584
0.00643562
0.0195429
0.0463716
0.0456141
-0.00642701
-0.00458729
0.0477483
0.0352257
0.0486637
0.00365973
0.279542
0.0474196
0.0446938
0.0464492
0.013361
0.0525207
0.0516585
0.0441385
0.0480531
0.0283443
0.0746635
0.0356316
-0.0361824
0.0468301
-0.0419964
0.045762
-0.121309
0.0168235
-0.00357412
0.0480481
0.0505379
0.0204394
0.0431731
0.0487299
0.0552112
0.0527305
0.0530355
0.0698614
0.0128966
0.0125328
0.0470577
0.0428316
0.0174478
-0.00367818
0.0470599
0.0466875
0.0107644
0.0464715
0.222267
-0.151627
-0.115601
0.0470594
0.0396399
0.0009604
0.0518928
0.0430169
0.445237
0.0467906
0.112
0.0872223
0.0394747
0.0433609
0.0488694
0.0343519
0.000347397
0.028399
0.0503025
0.0470892
0.0479283
0.0523431
0.0511544
0.0538542
0.0128612
0.0484908
0.0467369
0.0191744
-0.0851327
0.0498408
-5.53935e-05
0.0468945
0.0508002
0.093204
0.00161046
0.00155942
0.0947376
0.0443991
0.00143536
0.0472605
0.0479913
0.00298233
0.0352063
0.0438305
0.0351601
0.0475492
0.0466912
0.0436176
0.0478301
0.00133453
0.101833
0.0574561
0.116664
0.0143113
0.0379664
0.111213
0.0613848
-0.00532113
0.0121005
0.0624679
0.052533
0.0480066
0.0365108
0.0195716
0.0470544
0.0479043
0.0464692
0.0480427
-0.0168602
0.0356361
0.0313179
0.103392
0.0555015
0.232933
0.00358896
0.00136549
0.0434361
-0.00259176
0.0475324
0.0487829
0.0466264
0.104291
0.112433
0.0447976
0.0286678
0.225205
0.0142787
0.00476242
0.036699
0.0647192
-0.128055
0.0460859
0.0490159
0.0475706
-0.0109384
0.0489013
0.0293124
-0.0556375
0.0467434
0.076054
0.0559209
0.0397314
0.0500769
0.0451359
0.0483242
0.0521156
0.0483741
0.0482591
0.0515127
0.00524121
0.00895705
0.0397098
0.332203
0.00138482
0.409504
0.0156372
0.0215348
0.0517442
0.0168711
0.0551541
0.00532164
0.317973
0.0967722
0.0543647
0.0421312
0.0524379
0.0511197
0.0201052
0.0473828
-0.00820512
0.0483909
0.0977815
0.0470495
-0.0152105
0.006964
0.010216
0.0547303
0.0371713
0.00746359
0.0757759
0.00449478
0.0387942
0.00204876
0.0414256
0.0470987
0.0485277
-0.202776
0.0689828
0.0399776
0.0470153
0.0485776
0.0527656
0.0815611
0.0087609
0.0155805
0.0464679
0.0415765
0.0537351
0.039908
0.0361971
0.00108653
0.0539567
0.0558738
0.00813689
0.0413902
0.0382387
0.102577
0.0470605
0.054031
-0.255113
0.0480374
0.00618578
0.0497924
0.0386777
0.087555
0.00872289
0.0493338
0.0176182
0.0475382
0.109801
0.0419477
0.00919989
0.00999119
0.110846
0.0474099
0.00100686
-0.00626162
0.0547757
0.0406443
0.0423848
0.0348815
0.235393
0.0518782
0.0478727
0.0532045
0.0476535
-0.126258
0.0402484
0.00912006
0.0295512
0.0162159
0.518216
0.0402047
-0.0558739
0.00926599
-0.0914137
0.0168106
0.0501169
0.0401275
0.0286371
-0.0489592
-0.0365991
0.0457808
0.0455073
0.116729
0.0451455
0.206886
0.0186212
0.0686684
0.0427881
0.394627
-0.102678
0.0408089
0.0471038
0.047289
0.0920616
0.052839
0.0576428
0.0501617
0.0134478
0.0753154
-0.0286413
0.349884
0.046514
0.0811881
0.0130288
0.117978
0.0419627
0.112253
0.00654179
0.0933093
0.0503075
0.0470194
0.0084347
0.00573448
0.0164419
0.115761
0.0116372
0.0216962
0.0495437
0.0466856
0.0364137
0.242246
0.0364497
0.0107283
0.0649863
0.0182233
0.0331619
0.0507982
-0.00541317
0.0302372
0.0414972
-0.0161812
0.0564487
0.0243697
0.192315
0.0470893
0.030069
0.0483754
0.0549103
0.044089
0.0489411
0.047058
0.000826036
0.0412463
0.0760405
0.0111399
0.0929918
0.028737
0.0292135
0.00920358
-0.190944
0.0480213
0.0545109
0.0213288
-0.069576
0.00615826
0.0473291
0.506127
0.0470324
0.0422552
-0.164276
0.0528436
0.0476343
0.047723
0.0636588
0.0877188
0.0480475
0.0539436
0.106933
0.0490125
0.0513688
0.0505934
0.046075
0.0889
-0.0180582
0.0523044
0.114582
0.00918715
0.00404587
0.00481636
0.0140952
0.0505418
0.0420571
-0.0414134
0.00416194
0.0712125
0.0464072
0.0480678
0.115983
-0.00237472
0.0310083
0.0359465
0.0307043
0.0500948
0.0411486
0.0822052
-0.221667
0.366473
0.0807026
0.0482265
0.0411296
0.0779232
0.348318
0.109542
0.0473748
-0.000689191
-0.0133827
-0.238648
0.0331866
-0.156488
0.048038
0.0504782
0.0480871
0.00543204
0.0728354
-0.159637
0.0424454
-0.0845931
0.0448773
0.048733
0.00940492
0.0521398
7.74483e-05
-0.0433174
0.0536623
0.0325569
0.0224677
0.0335761
0.0534816
0.0741165
0.0709362
0.0285014
0.0774669
0.0536419
0.0481247
0.0509486
0.0486334
0.102703
0.0205535
-0.00815135
0.00176377
0.0839857
0.022991
0.0213253
0.0406357
-0.0107646
0.0318158
0.0529748
0.0475842
-0.00130571
0.10715
0.0425948
0.0383541
0.0546707
0.0218895
0.101021
0.113962
0.0218513
0.239254
0.0205209
0.0849931
-0.0401676
0.0518369
0.0176566
0.0102027
0.045358
0.0315903
0.035207
0.0420358
0.0472561
0.0434995
-0.014903
-0.00238673
0.0427712
-0.138458
0.098756
0.0485152
0.0494661
0.000818617
0.0484317
0.0761833
0.0122288
0.00364272
0.0483735
0.0507041
0.0471234
0.0484359
0.116664
-0.137512
0.0485456
0.0556854
0.047066
-0.144193
0.0200631
0.0132084
0.0468193
0.0484472
0.0504079
0.0230337
0.083522
0.0264547
0.0458386
0.0507782
0.0483216
0.0194799
0.0828972
0.0352696
0.0478972
0.0285853
0.0236232
0.0732171
0.043669
-0.0176785
0.143537
0.0453654
0.0308358
0.050558
0.0413962
-0.180507
0.053473
0.0485705
0.00986118
0.103348
0.0805807
-0.137859
0.0745394
0.03252
0.0259369
0.0546321
0.0374633
0.0323172
0.0538438
0.144701
0.0481847
-0.328796
0.0816208
0.178487
0.0374464
-0.00586166
0.0939703
-0.00236451
0.258125
0.00613737
0.0231161
0.0311317
0.0366847
0.0470269
0.0417849
0.0859973
0.00068345
0.0540809
0.0453662
0.00554816
0.0155254
0.00494733
0.0783439
-0.000422837
0.00459461
0.0465458
0.0688814
-0.0514193
0.0854009
0.0470186
0.0318527
0.0514615
0.0470326
0.0673457
0.0480304
0.0418156
0.242495
0.0898366
-0.0180263
0.0480699
0.0475162
0.0476681
0.0541851
0.0515733
-0.00254804
0.0517329
0.047414
-0.0176839
0.0199817
0.00403521
0.0668887
0.0486242
0.0393371
0.0900125
0.0316055
0.0480933
-0.0424101
0.00933765
0.110089
0.0480272
-0.231152
0.0953541
0.0485743
0.0025971
0.0365869
-0.0240454
0.0332027
0.000107989
0.0922295
0.0478256
0.0497116
0.0198944
0.0385959
0.0526816
-0.00800554
0.0529977
0.053145
0.0950219
0.0447902
0.0512413
0.0329945
0.00838868
0.0485146
0.0530649
0.0511602
0.0469391
0.0941914
-0.0423575
0.0243917
0.0542395
0.0518218
0.0390972
0.0470999
-0.189914
0.0775917
0.047826
0.0694215
0.039219
0.0975875
0.151266
0.000779802
0.0530836
0.00424328
-0.00296984
0.0468006
0.0385362
-0.00168108
0.0432178
0.0478766
0.0708584
0.0253491
0.0517884
0.0479036
0.0394697
0.0830048
0.0484623
0.0300213
0.0480417
0.034904
0.0652535
0.130763
0.0474696
-0.198227
0.0784563
0.014155
-0.121186
0.0905027
0.0296287
-0.029917
0.0547008
0.139748
0.205601
0.0516223
0.0421556
0.0420606
0.0498368
0.0516927
0.00596312
-0.0786199
-0.145498
0.00770157
0.146381
-0.00694276
0.00916837
-0.0579106
0.0473576
0.0500648
0.0459853
0.022992
0.0472343
0.007316
0.0338547
-0.0123652
0.0471145
0.0504515
0.0452615
-0.150682
0.117455
0.0763666
0.0596044
0.11992
0.0423055
0.0484767
-0.0172175
0.0336845
-0.0129682
0.00640093
0.020327
0.00339399
0.0133683
0.0551479
0.0467553
0.0471711
-0.12226
0.04034
0.0364425
0.0517091
0.00152248
0.0168179
0.0475095
0.0179884
-0.0141744
-0.000115219
0.0924068
0.0513905
0.0476048
0.00385992
0.0543224
0.0473479
-0.0011663
0.00641713
0.0512174
0.136782
0.000582976
0.0476239
0.0476059
0.0468912
0.105179
-0.13589
0.0392562
0.00902885
0.0505491
0.0510123
0.00932855
0.0477934
0.177856
0.0132869
-0.0530095
0.152042
0.0276107
0.0468581
0.0471738
0.0301982
0.0545251
0.0467379
-0.176086
0.00433455
0.0422339
0.217231
0.0993535
0.0420751
0.0470599
0.0476614
0.0507002
-0.0753787
0.159018
0.0313697
0.0758126
0.064783
0.0049964
-0.0778253
0.0237112
0.0525755
0.0511212
0.0151158
0.0384921
0.0464519
0.0499335
0.00273844
0.0515969
0.0303691
0.0534436
0.0797789
-0.0120166
0.0448458
0.0500402
-0.00444053
0.00255135
0.0569546
0.0497676
0.0749885
-0.000751375
0.0370833
0.0155858
0.0721417
0.015012
-0.0338585
0.051405
0.1566
0.0468253
0.103573
-0.00103655
0.0477671
0.0472896
0.371536
0.0478925
0.0542369
0.0244289
0.0528325
0.0529553
0.0559587
0.0477598
0.0476574
0.000178728
-0.026394
0.0455346
0.332678
0.034583
0.0497244
0.234236
0.0976588
0.0531739
0.0433072
0.0494113
0.0862645
-0.255673
0.0526613
0.0454551
0.0469059
0.0499622
0.0618302
0.0149075
0.0521788
0.0627105
0.0509484
-0.151901
-0.00680742
0.00674382
0.108183
0.0342869
0.0498163
0.00354014
-0.116905
0.0511463
0.047126
0.0497466
0.0451214
0.052758
0.0464706
-0.0040382
0.0429999
0.0416833
0.305328
-0.00116243
-0.00889686
0.00312712
0.052598
0.000421877
0.085451
-0.0887692
0.0455518
0.00902826
0.0477803
0.234164
0.0471106
0.047343
0.0272754
0.0469354
0.0239039
0.0574292
0.0528749
0.0454269
-0.0936442
0.0858383
0.00952687
0.0500045
0.0338666
-0.0578041
-0.00829679
0.0768959
0.0730851
0.0479778
0.0534933
0.0440024
0.0498342
0.0455216
0.0499635
0.087967
0.0732989
0.00597838
-0.10545
0.0229485
-0.0090083
0.0308056
-0.108231
0.0464322
-0.0305856
0.0498318
-0.0124348
-0.00709104
0.0232734
0.047398
0.0274496
0.00939324
0.0295165
-0.0147005
0.231526
-0.10335
0.049788
-0.00319876
0.0448955
-0.00607557
0.088934
0.00272224
0.0428717
0.0558371
0.00865899
0.0506511
0.0345996
0.0477897
0.0432663
0.0471505
0.0536212
0.00550578
0.00107347
0.0473751
0.0823416
-0.0843557
0.491923
0.0467459
0.0714151
0.022329
0.191951
0.029702
-0.178406
-0.0357409
0.0452014
0.022575
0.0659096
0.17373
0.0477785
0.0656328
0.0766909
0.0452261
-0.0870593
-0.00535655
0.0497846
0.0246687
-0.0352038
0.0744074
-0.0893979
0.0351849
0.0772917
0.0522452
0.0467346
0.0537449
0.042373
-0.0748433
-0.000507172
-0.0654842
0.0483759
-0.0865002
0.0279757
0.00252544
0.108615
0.0228565
0.0255958
-0.0550936
0.0350811
0.0333797
0.00440198
0.06858
0.0240379
0.00756487
0.0677779
-0.0897529
0.0835739
0.0326571
0.0868454
0.0483413
0.111932
-0.000188581
0.0997442
0.0513048
-0.0370423
0.0474058
0.031797
0.00707518
-0.00114988
0.0552834
0.00512311
0.0440997
0.507175
0.0535553
0.0044338
0.0894005
-0.000120611
0.00617609
0.0476095
0.029385
0.0471244
0.464777
0.0475759
0.0472839
0.0468902
-0.0151835
0.0417792
0.0421912
-0.0118045
0.0256674
0.0622185
0.0417139
0.047203
0.105011
0.0456065
0.102031
0.00660727
0.0838774
0.0382438
0.0393058
0.0238477
-0.0142532
0.0080073
0.0410988
0.529035
0.047554
0.0472711
0.0537627
-0.136481
0.0513428
0.027843
0.0774107
0.0515953
0.03901
0.00189102
-0.0238109
0.0314395
-0.0476082
0.0525043
0.0429566
0.0128216
0.0173426
-0.000694388
0.0497597
0.0228254
0.0697661
0.192647
0.0347173
0.0473075
0.0430798
0.176399
0.0478956
0.0478996
-0.0364856
0.0302052
-0.0415738
0.0389986
0.0471185
0.186939
-0.0150802
0.0425226
0.0528845
0.0454741
-0.113049
0.0479
0.0319352
-0.0282146
0.0479059
0.0471908
0.00805983
0.046747
0.0479151
0.0115903
0.0495413
0.0471801
0.0198478
0.0468478
-0.0138336
0.0471079
0.0566978
0.117519
0.00721058
0.0479164
0.00407486
-0.170464
0.0389982
0.0720233
0.045237
0.0324346
0.0458504
-0.0187117
-0.00678742
0.0433662
0.0471933
0.129835
0.0282251
0.013589
0.00970359
0.127285
0.0467719
0.00480445
0.0471784
-0.0207654
-0.00665681
-0.00547728
0.00688573
0.153783
-0.0900595
0.00451735
0.00887322
0.0462035
0.0500213
-0.000119678
0.13374
0.0966381
0.0303741
-0.0744527
0.0466881
-0.0639511
0.195029
0.0467621
-0.00891245
-0.0221609
0.0785745
0.00694584
0.00563216
0.0705012
0.0472672
-0.012622
-0.0656386
0.254281
0.0526466
0.00190086
-0.0319773
0.140254
0.0492194
0.0471665
0.00537466
-0.0540413
0.0389388
0.0672447
0.0474428
0.0467503
0.0550198
0.0523733
0.0232535
0.0532031
0.0471405
-0.0161927
0.0325424
-0.0272127
0.0139306
0.0474417
0.047207
0.140588
0.0521823
0.0780325
0.0589566
-0.0475685
0.0791924
0.0464793
-0.0236929
0.0566551
0.0471595
0.025092
0.0372052
0.0386652
0.0927833
0.0234092
-0.144966
0.0392742
0.0469943
-0.0281491
0.04685
-0.00751656
0.0289989
-0.0269972
-0.0485565
0.0942253
-0.0323001
0.0474796
-0.00983036
0.0513315
0.0698871
-0.0244715
0.01851
-0.0243853
-0.0641379
0.170509
-0.0125112
0.0625463
0.0464393
0.0470525
0.0468261
-0.032463
0.138839
0.0464901
-0.0158759
-0.0204349
0.0130923
0.00124613
0.0253223
0.10757
-0.0300222
0.0521727
0.0106237
0.0233325
0.0477694
0.0477899
0.0491676
0.0524842
0.0093588
0.0473621
0.0499139
0.0537847
0.0719373
0.000434304
0.0470075
-0.0199216
0.0471065
0.0031304
0.0134134
0.0495552
0.0401213
0.000340323
-0.0211252
0.0341155
0.0757148
0.0522503
0.0247254
0.030047
0.0472213
0.0514126
0.0517084
0.0496175
0.0472586
0.0674742
0.047245
0.123796
0.0114726
-0.0915951
0.0472841
0.0572887
0.0473966
0.0473617
0.11997
0.0565215
0.0466431
0.314946
0.132087
0.0357564
0.0626445
0.0369076
0.118095
0.0181827
0.0074156
0.0542165
0.0536828
0.0471907
0.0481805
-0.0126952
0.0468129
0.049228
0.121117
0.0496452
0.0513336
0.0248501
0.0472265
-0.0364125
0.0473156
0.0491736
0.00682135
0.00788107
-0.0725111
0.108292
0.0684414
0.0494205
0.00599086
0.0493532
0.0236779
0.00357501
0.0535563
-0.028351
0.047977
0.0243386
0.0678804
0.0506966
0.0995742
0.0472834
0.0534829
0.0471851
0.0274406
0.0467149
0.0517953
0.022261
0.0432231
0.0684349
0.0252151
0.0472256
0.0253245
0.0107766
0.0534279
0.00718948
-0.0143659
0.0471848
0.0288572
0.107723
0.00167696
0.0542001
0.042048
0.0420996
0.0231064
0.0547685
0.148925
0.0521947
0.0474321
0.0474641
-0.0220062
-0.00943413
-0.0229286
0.280508
0.0988174
0.0488593
0.0240204
0.00949671
0.0477942
-0.0600804
0.051734
0.102329
-0.000287239
0.0492212
0.141915
-0.00903237
-0.0175872
0.0210731
0.0274775
0.0477056
0.0468069
0.0589879
0.0472148
0.0471759
0.134491
0.0497396
0.0618612
0.0465045
0.0355266
0.0433037
0.365237
0.0385237
0.0415514
-0.0101314
0.101775
0.0924738
0.0323188
0.106472
0.0473108
0.0443718
0.00372861
0.0708861
0.122513
0.0488582
-0.000638003
0.0385681
0.0487789
0.0498297
0.0472452
0.062816
0.0386008
0.0477077
0.0283552
0.254498
0.0478104
0.010266
0.0296767
0.0469237
0.0609228
0.0499526
0.0255779
0.0473157
0.0471848
0.0128445
0.0275779
0.0891205
0.139678
-0.227186
0.0533591
0.0623987
-0.0397475
0.0311207
0.0498913
0.0386505
-0.000871069
0.0472598
0.0509863
0.0471804
0.0283242
0.0629078
0.0165239
0.0472531
0.0589602
0.0317675
0.0519784
0.116561
0.0431946
0.0469868
0.0472505
0.0275702
0.0208155
0.305996
0.0582467
0.0802883
0.00462972
0.00361351
0.0470241
0.0978609
0.0472481
0.0472187
0.0477747
-0.00341572
0.0526165
0.0329255
0.00577994
0.0182775
0.00487207
0.0283351
0.0623165
0.111528
0.0447505
0.00997992
0.0895217
0.0308427
0.12596
0.0513422
-0.155353
0.140249
0.132199
0.0466582
-0.113193
0.00446737
0.00646136
0.134849
-0.000262749
0.0565748
0.0539862
0.0357002
0.0322042
0.0294379
0.208894
0.0720795
0.051723
0.0128335
0.0519199
0.0329142
0.0217819
0.0916985
0.0333072
0.0661308
0.0817783
0.00478573
0.0938954
0.0296126
0.0480602
0.0579786
0.0468116
0.0432286
0.0458221
0.0521589
0.0176787
-0.0492986
0.046943
0.162534
0.0463121
0.03841
0.00782984
0.0282616
0.0315254
0.0455826
0.00613081
0.010725
0.247875
0.0472447
0.00762358
0.0343047
0.00983323
0.0477862
0.0474569
0.148832
0.0217949
0.0301444
-0.125859
0.0248731
0.0374259
0.135193
0.012916
0.118053
0.0533586
0.0162592
0.0346695
0.043216
-0.0284399
0.00588998
0.0182276
0.0311752
0.046634
0.00501278
0.00470118
-0.000984069
0.0370068
0.035128
0.41553
-0.0392306
0.0462725
-0.0140011
0.0183038
-0.107287
0.0471551
0.029969
0.0306099
0.0471491
0.00274907
0.0253265
0.0509349
-0.000106096
-0.0237556
-0.00164319
0.0535151
0.0217402
0.0478202
0.0424248
-0.0257285
0.0803148
0.0256205
0.00576799
0.14411
0.0227608
0.018095
0.0195818
0.00615698
-0.0284931
0.0456143
0.0198375
0.0144605
0.0906095
0.274549
0.0118024
0.0330514
0.0187281
0.0471539
0.0906628
0.0294734
0.00775628
0.046949
0.0333572
0.00525705
0.0124645
0.146436
0.00932996
0.0270545
0.0276722
0.052359
0.0022497
0.0244693
0.0722239
0.0572462
0.0536125
0.00902372
0.0339485
0.0396529
0.035932
0.0473165
0.00507107
0.0605661
0.0273553
-0.00382667
-0.0462539
0.0416263
0.0259492
0.0149396
0.0221257
0.047275
0.0978064
0.0973062
0.070576
0.0477629
0.226846
0.00566428
0.0512741
0.0876988
0.0467307
0.0555046
0.0304621
0.024655
0.0522529
-0.104886
0.0485629
0.0572912
0.0405865
-0.0128639
-0.0313125
-0.00044085
0.0606417
0.00804403
0.0477961
0.027473
0.0729055
0.0485838
0.147112
0.0156121
0.025996
0.00696924
0.0647135
0.020031
0.0360632
0.04691
0.0470577
0.0449254
0.0613291
0.12079
0.0142475
0.145049
0.0814001
0.0877829
0.0492229
0.0678471
0.00598586
0.0472084
-0.0249738
-0.0196028
0.050332
0.0472117
0.0375011
0.0453622
0.0470408
0.0630392
0.0319547
0.129454
0.0147115
0.0335029
0.0869784
-0.0114774
0.00469183
0.0843915
0.0114991
0.021944
0.0687033
0.0468049
0.0607852
0.0255074
0.12019
0.128081
0.218069
0.0470826
0.124759
0.0309263
0.0298289
0.102357
0.105354
0.0976284
-0.025275
0.0193044
0.0654188
0.0192696
0.037069
0.0440264
0.0889966
0.0465635
0.0152271
-0.0300151
0.0575331
-0.0265167
0.0461729
0.0817841
0.0528236
0.0279545
0.100326
0.161439
0.0197863
0.041065
0.0154844
0.0315775
0.0695675
-8.28537e-05
0.080816
-0.00289217
0.0470925
0.0195872
-0.14214
0.0967968
0.0334529
-0.0422684
0.00902266
0.0396219
0.0461214
0.101374
0.0910818
0.0318153
0.0551959
0.0488839
0.00495311
0.0416246
0.00319883
0.0791093
0.0338347
0.139606
0.0470957
0.0434749
0.0013281
0.0349847
0.0354496
0.0640301
0.0545374
0.0275284
0.165262
0.105649
0.0469126
0.0045012
0.0420795
0.0468454
0.131769
0.0465722
0.0200174
0.0227847
0.0465389
0.0466702
0.0502842
0.00645613
0.0592585
0.0955418
0.0265295
0.127404
0.0307124
0.031393
0.0352685
0.0767007
0.0473118
0.037332
0.0348153
0.0246552
-0.0221974
0.00811061
0.0645852
0.0429414
0.0534008
0.0291849
0.0405407
0.0590228
0.0194806
0.103886
0.0303718
0.0468746
0.00737151
0.0851634
0.00639508
0.0470359
0.133614
-0.0241496
0.0436494
0.0961335
0.00500454
0.0513831
0.0941798
0.00236157
0.0873798
0.112156
0.00319285
0.0460666
0.0773723
0.0742466
0.0126146
0.0441547
0.0287799
0.0470575
0.0465583
0.0467877
0.0119839
0.0158389
0.0189995
0.0806244
-0.0642765
0.166587
-0.062898
0.026039
0.0410862
-0.0420595
0.0481189
-0.10029
0.0306681
0.0212896
0.0168217
0.0266216
0.0628732
0.0389146
0.0306955
0.0521783
0.0470106
0.0763113
-0.0382204
0.012392
0.00545066
0.0156162
0.0503356
0.0260797
0.014942
0.0527985
0.0223839
0.0360563
0.117285
0.0837405
0.0789649
0.0911366
-0.00194252
-0.000134181
0.00507637
0.0210682
-0.00471364
0.0129947
0.0563647
0.0414364
0.129121
0.0723414
0.00586153
0.0473384
0.0939422
0.12457
0.0718746
0.0776936
0.0549372
0.01545
0.11249
0.0263007
0.0222837
0.0321185
0.0309744
0.0461311
0.0264005
0.0278598
0.05177
0.0185186
0.0278848
0.0421621
0.102194
0.041596
0.0388493
0.0737752
0.0536272
0.0464511
0.0491112
0.00191497
0.0145403
0.0479321
0.0700409
-0.0527894
0.00558788
0.0540207
0.0177679
-0.0194633
-0.0409146
-0.00655338
0.0306324
0.0313154
0.0533304
0.0313203
0.0241957
-0.000334302
-0.00131832
0.0018419
0.00073429
0.0321862
0.0460529
0.045779
0.127026
0.0604265
0.0329249
0.0356647
-0.000417778
0.0426019
0.0254686
0.146598
0.0851723
0.0101498
0.0523632
0.0150459
0.0466951
0.00740093
0.000576406
0.0253062
0.0467791
0.0571404
0.163943
0.0395516
0.0868517
-0.0169968
0.0471422
0.0324731
0.0920984
0.0992175
0.0681362
0.04787
0.0434405
0.0444943
0.0477106
0.0468156
0.039089
0.00611381
0.046775
0.0546292
0.0519246
-0.334403
0.117017
0.0445342
0.0470776
0.00965146
0.0153855
0.0222247
0.0749993
0.0160576
0.0462721
0.0400434
0.00405984
0.0476345
0.012462
0.0909819
0.0692891
0.0454532
0.0109852
0.0473897
0.0373238
0.035355
0.0394616
-0.00367873
0.0576369
0.0328107
0.0311952
0.108875
0.0797308
0.0467002
0.0472044
0.0336205
0.0303004
0.0126197
0.0190674
0.0379546
0.00653567
0.0782417
0.0477379
0.0351317
0.00520668
0.0364184
0.0831896
0.0617324
0.049789
0.14918
0.0205915
0.123446
0.138346
0.0257744
-0.00255708
-8.18523e-06
0.122759
0.0372212
0.00519032
0.0724112
0.0339459
0.0188168
0.0873674
0.0702865
0.0490077
0.00223155
0.0299946
0.0255468
0.0385306
0.00529235
0.0488297
0.0785964
0.0486424
0.05536
0.0840552
0.0531117
0.0406968
0.104208
0.00657562
0.0892376
0.026046
0.0704608
0.00769019
0.0596996
0.0107391
0.0483519
0.027747
0.00858434
0.0658134
0.0257782
0.0483092
0.0400836
0.0134478
0.0439607
0.0327324
0.0544431
0.0342395
0.0205674
-0.00169115
0.0935287
0.102346
0.0986193
0.0391598
0.0385866
0.032442
0.0174046
0.0267123
0.0474778
0.0525501
0.0684691
0.0225353
0.0565851
0.0039853
0.0284891
0.0552322
0.0309207
0.0301279
0.0418899
0.0272073
0.0352722
0.132071
0.255137
0.0210249
0.0218607
0.0246638
0.0290424
0.0344619
0.0325943
0.0307869
0.0217988
0.0117314
0.0458005
0.047061
0.0460248
0.0056961
0.0470232
0.0277374
0.040531
0.029285
0.0577656
0.0316438
0.120806
-0.00783654
0.0466756
0.0332928
0.089014
0.0396135
0.0588646
0.0872129
0.0517652
0.0469041
0.0283771
0.00343723
0.0845489
0.00274821
0.113477
0.0817901
0.00315956
0.06139
0.0664593
0.0087513
0.0409223
0.0464364
0.0483477
0.0341363
0.0465886
0.029999
-0.0375222
0.0457452
0.0780386
0.0413413
0.0605362
0.061251
0.157711
0.0530789
0.0400908
0.0044965
0.0121605
0.0852499
0.0296064
0.0818035
0.0482297
0.0355633
0.0633159
0.0439159
0.0309076
0.0477514
0.0482631
0.0289154
0.0465348
0.0323996
0.0597303
0.0790081
0.0129167
0.0463133
0.00597932
0.000699257
0.0659655
0.0582781
0.0490631
0.0664924
0.130044
0.0470457
0.0384991
0.044809
0.0587131
0.0364487
0.0331238
0.0368444
0.0719908
0.0815735
0.030491
0.0774558
0.0883117
0.0582235
0.106314
0.0558299
0.0763998
0.0262814
0.0404576
0.0195498
0.0478328
0.0627107
0.0485896
0.0814011
0.00161122
0.0530724
-0.0131284
0.0424312
0.0251161
0.115694
0.00691298
0.0449383
0.0467233
0.0039092
0.105309
0.0257308
0.0278952
0.0143246
0.0427135
0.0793766
0.0354361
0.0454073
0.0338458
0.00777623
0.0406745
0.038241
0.38832
0.0367836
0.0486251
0.0571933
0.0627547
0.0408777
0.0294751
0.0470692
0.0998767
0.0410208
0.0470535
0.0117634
0.0345438
0.0265789
0.0391287
0.0612765
0.0401326
0.0426265
0.0419596
0.0315438
0.0781431
0.0470917
0.0367317
0.055712
0.0433927
0.0373404
0.0531564
0.053164
0.0575564
0.0580621
0.0471583
0.0412281
0.0489203
0.0273318
-0.00170327
-0.000751561
0.143907
0.0726859
-0.0107451
0.0280761
0.0465322
0.0497683
0.0564661
0.0719988
0.0474499
0.02565
0.0738761
0.0548291
0.0243996
-0.0103395
0.0198573
0.0464384
0.0351187
0.0469409
0.0918553
0.230289
0.0370472
0.0551868
0.0411205
0.00561242
0.0467313
0.0704963
0.0262797
0.0433903
0.047606
0.0310234
0.0946588
0.0367481
0.0545252
0.0241088
0.0401021
0.0415535
0.0859308
0.0586242
0.0381053
0.0491668
0.0366209
0.0527049
0.0358137
0.0473852
0.037413
0.0468062
0.0527029
0.0099773
0.0666391
0.0159462
0.0716488
0.071871
0.0511117
0.0363487
0.0330268
0.0751401
0.0899965
0.00945339
0.039684
0.0546884
0.0563209
0.0379634
0.0456158
0.0418924
0.035409
0.0265793
0.0264942
0.0424709
0.0136453
0.0369943
0.077411
0.0385765
0.0408953
0.0376809
0.0224445
0.0822085
0.0517541
-0.000630575
0.0367001
0.0391246
0.008728
0.0499428
0.000553935
0.049349
0.0395692
0.0446672
0.0450002
0.0479942
0.0404824
0.00391891
0.0470691
0.0191471
0.0698396
0.0494941
0.0558941
0.0304424
0.0939315
0.0587139
0.047477
0.0325467
-0.0668778
0.0471969
0.00499033
-0.0819506
0.0637305
0.0834414
0.0508371
0.0391728
0.0281849
0.0697331
0.0566989
0.0471648
0.0901809
0.0100812
0.0797931
0.0470996
0.0464918
0.0412787
0.0422359
0.042959
0.0641428
0.0740281
0.0440362
-0.00157069
0.0441704
0.0512106
0.0395824
0.0307346
0.000378779
0.0465507
0.0399163
0.0220463
0.0411756
0.0443587
0.0494732
0.125407
0.071255
0.047549
0.0605436
0.0512362
0.0397606
0.0731828
0.0576885
0.0419271
0.0608562
0.0342352
0.0606634
0.0828529
0.000811725
0.0219584
0.0476425
0.0680247
0.0452653
0.049586
0.0484784
0.0400726
0.00114913
0.00028631
0.0567669
0.0301003
0.031805
0.0265115
0.0462135
0.0457806
0.0475532
0.0691042
0.0320835
0.0471375
0.0397171
0.0521605
0.0211421
0.0086065
0.047157
0.0466554
0.033773
0.0461582
0.0456172
0.0404692
0.0430486
0.0375229
0.0640616
0.0597609
0.0323102
0.0450027
0.0506366
0.0559612
0.0400665
0.047083
0.0408681
0.0285197
0.000926438
0.00478399
0.0326075
0.121339
0.0405152
-0.0610038
0.0863297
0.0398756
0.0383662
0.0513746
0.0464552
0.0471616
0.0517028
0.0545962
0.0395183
0.0487525
0.0463034
0.0941541
0.00470439
0.0316506
0.0473038
0.0526402
0.0607692
0.0683361
0.0301259
0.0494069
0.0470132
0.0455458
0.0409385
0.0276905
0.0250296
0.00446047
0.0596148
0.0454254
0.0357398
0.0538907
0.0513911
0.0508812
0.0444454
0.0559685
0.0471581
0.0141805
-0.00243071
0.0463297
0.0641573
0.0394028
0.0426114
0.0443709
0.0484264
-0.047051
0.0614263
-0.000452515
0.0411808
0.00710785
0.0499931
0.0675066
0.125938
0.053045
0.047342
0.0282382
0.0198036
0.108977
0.0402926
0.0646547
0.0428708
0.0466937
0.0629357
0.0447403
0.11904
0.000277266
0.0769415
0.0503914
0.045741
0.04713
0.0454204
-0.0274317
0.0361256
0.0465982
0.0540122
0.0453929
0.0466572
0.0464783
0.00979501
0.00290332
0.0522161