/*--------------------------------*- C++ -*----------------------------------*\
  =========                 |
  \\      /  F ield         | OpenFOAM: The Open Source CFD Toolbox
   \\    /   O peration     | Website:  https://openfoam.org
    \\  /    A nd           | Version:  7
     \\/     M anipulation  |
\*---------------------------------------------------------------------------*/
FoamFile
{
    version     2.0;
    format      ascii;
    class       volScalarField;
    location    "1.365";
    object      T;
}
// * * * * * * * * * * * * * * * * * * * * * * * * * * * * * * * * * * * * * //

dimensions      [0 2 -2 0 0 0 0];

internalField   nonuniform List<scalar> 
12359
(
-1.7367e-73
-1.02324e-60
-4.97295e-197
-7.19441e-40
-1.0233e-68
-9.65833e-27
6.28353e-22
-3.4131e-24
9.34362e-17
7.50476e-30
4.93523e-19
-1.19292e-12
0.228305
-9.62846e-37
-2.58031e-42
1.67832e-05
0.00251996
5.67122e-109
9.1012e-112
-1.58297e-50
-2.25748e-34
1.44457e-14
-1.48875e-55
1.89798e-47
-1.9697e-58
-1.50218e-52
-3.04057e-143
-1.49926e-145
6.10882e-117
-3.9184e-136
-1.0856e-129
-5.30057e-159
-4.10881e-175
-1.83529e-137
4.93372e-186
1.91711e-127
-1.97653e-89
-7.29277e-76
-4.35745e-71
6.26333e-82
-3.82338e-63
-2.57406e-78
-3.16526e-96
-1.53369e-98
-7.60954e-122
1.56968e-119
7.66829e-125
2.60984e-132
-5.14245e-114
4.79125e-140
5.47246e-148
-8.12793e-154
9.93219e-163
-3.04823e-106
-8.01066e-167
-9.22192e-173
4.41975e-101
1.45042e-177
-2.46079e-180
8.76018e-184
1.38704e-169
4.7391e-191
-6.44459e-151
8.52397
2.53935e-104
2.41449e-32
-1.3775e-91
4.49155e-156
2.97732e-87
5.48676e-08
98.226
-4.17184e-66
6.77517e-199
1.16486e-83
4.60357e-45
-2.00318e-188
2.91681e-164
-4.98169e-194
8.98214e-94
-5.99308e-11
-1.73118e-26
-7.33661e-108
1.22808e-232
-8.26323e-71
0.00204149
6.65366e-63
-2.31359e-106
-6.64158e-150
1.20546
0.000667615
-2.19765e-207
3.61946
-7.87464e-209
2.22965e-90
-6.11099e-74
7.13917e-41
1.01661e-94
7.60853e-91
3.93133e-46
4.39851e-58
5.98188e-22
-2.26624e-207
1.9422e-63
31.9284
-9.45632e-114
3.53764e-25
-2.13337e-197
0.00267008
6.51893e-71
3.80978e-26
8.03383e-97
-1.08932e-107
-3.06841e-30
2.85611e-25
-1.23653e-74
-8.52679e-134
2.13684e-24
-7.55483e-107
4.09715
-7.86913e-231
1.8393e-97
6.11385e-22
-5.4188e-149
7.47558e-29
-4.49486e-106
-3.6824e-125
5.98744e-16
-1.33277e-70
8.93657e-195
-7.98055e-107
-7.55638e-134
6.06999e-05
0.00150625
0.00113375
-3.03776e-198
1.06343e-29
-6.5618e-133
1.04139e-30
-3.68518e-204
8.95465e-17
-1.48157e-221
-8.29918e-70
1.29768e-32
5.75029e-198
8.34739e-17
9.97583e-27
-2.98608e-232
0.000859258
-3.66235e-113
8.65651e-26
6.5287e-38
-1.00648e-205
4.1531e-32
-3.54317e-147
7.33398e-213
118.568
1.22644e-22
6.28893e-05
2.73042e-95
-3.11419e-155
9.41005e-32
-7.4625e-154
2.55093e-28
2.615e-31
-3.90446e-219
-1.87218e-126
2.13969e-32
1.16594e-22
5.14626e-33
1.07552
-1.35128e-191
-7.5122e-190
1.552e-33
-2.13952e-57
-4.07886e-115
3.64236e-17
2.60149e-117
1.09269e-118
-4.74385e-30
4.78496e-18
-2.55759e-36
4.12036e-211
5.78071e-194
-3.94126e-107
2.83022e-47
2.03662e-15
5.77905e-91
-3.28507e-77
1.40237e-37
2.56239e-89
-6.45449e-76
5.20587e-42
5.46632e-44
-7.92432e-147
1.81796e-25
43.9098
4.84839e-54
-2.5975e-90
3.02063e-32
-4.78999e-106
1.38573e-25
7.5725e-38
-1.21392e-58
3.65066e-26
1.55447e-19
-4.09584e-210
1.32149e-18
5.44669e-58
3.50216e-24
-1.04027e-96
1.98984e-216
1.59893e-11
2.20485e-11
155.914
5.76407e-15
-5.32597e-202
-2.15413e-90
-1.01207e-75
-2.3825e-90
-6.21439e-70
1.2329e-25
-5.6715e-98
1.46696e-29
3.2981
-6.02862e-107
5.48911e-216
-9.20264e-69
4.24393e-72
1.62125e-18
-1.69232e-88
-8.61627e-88
-7.73839e-221
4.21346e-17
2.98812e-53
-2.44765e-77
2.39606e-54
-4.41574e-229
2.09641e-30
-3.96286e-76
9.78079e-05
-1.04166e-211
4.33783e-60
2.68521e-84
6.90299e-10
4.31972e-30
0.00127373
-2.8334e-181
6.8821e-25
1.6941e-120
2.79777e-44
3.24731e-16
-7.39552e-77
1.71353e-121
-4.83699e-88
1.342
127.311
-4.23472e-229
6.23002e-101
1.39992
199.355
2.70485e-57
1.67106e-30
2.84906e-20
6.55099e-26
-9.37538e-59
59.8332
4.1242
7.8114e-29
2.52169e-102
5.48861e-30
5.71597e-33
3.38776e-47
2.05518e-32
-2.42391e-89
7.26776e-100
-2.50652e-213
1.1288e-101
9.9331
1.36199e-28
-7.12883e-182
1.03095e-205
1.37463e-25
-1.12327e-99
1.88318e-91
2.93794e-61
5.87649e-225
1.94857e-20
-2.38172e-206
-4.01457e-207
-2.36463e-160
5.12423e-29
-2.20769e-109
53.4306
-3.52956e-199
-8.86256e-197
1.15786e-62
-1.21933e-120
1.79693e-26
-2.05281e-79
1.41233e-150
-4.92838e-207
9.05185
1.79668e-19
-4.11977e-208
-9.75369e-90
-7.59679e-81
-9.39375e-119
-3.04601e-132
-6.28371e-135
-4.61061e-117
-3.55274e-108
-9.21723e-16
-4.88548e-119
-5.43523e-130
-1.23409e-75
4.89489e-31
2.04554
-5.31524e-117
1.29608e-49
7.887e-06
7.84969e-206
1.49003e-39
3.67552e-181
2.37544e-53
-1.36389e-196
-1.20256e-115
1.51072e-15
9.94083e-37
4.95009e-16
9.73633e-93
-2.35271e-84
7.24945e-44
1.62001e-39
-4.6863e-83
4.68191e-44
2.54356e-44
-2.16118e-165
-9.93245e-163
-5.60815e-163
-1.55168e-162
-6.24826e-162
0.000392572
6.44289e-226
1.49028e-24
3.5353e-29
2.33888e-49
1.06063e-30
3.04227e-36
4.22669e-63
3.11806e-55
3.28532e-36
6.15052e-56
1.60259e-49
1.10253e-28
4.67943e-28
1.42959e-29
-8.22186e-69
3.54683e-14
-4.29324e-71
-5.10915e-72
9.14273e-33
1.11634e-19
-2.50165e-110
9.46123e-166
1.3354e-53
2.05602e-167
-7.54332e-108
173.105
23.4928
-1.8682e-108
2.86245e-203
-1.091e-200
-1.75261e-210
1.11606e-36
2.80883e-212
1.30631e-211
1.48307
1.29332e-31
0.000509326
-5.19163e-112
5.90984e-27
-4.19489e-101
5.85941e-83
2.97357e-25
3.12788e-54
-1.23675e-37
1.88738e-55
-7.82773e-111
-2.00707e-181
7.30138e-32
8.69844e-27
1.12874e-108
3.41913e-11
1.90583e-25
1.28997e-40
1.61975e-39
1.35859e-33
4.63989e-201
9.52365
2.0761e-13
-2.49876e-112
2.2751e-10
-2.7216e-73
-4.61112e-220
-9.11931e-221
-5.89225e-212
0.000949283
1.551e-20
5.85e-48
4.3131e-40
2.37276e-38
-1.08178e-72
-7.70134e-37
1.01665e-40
2.83763e-08
1.99803
1.31158e-10
6.59751e-49
1.61007e-30
1.36715e-69
2.1268e-26
5.23043e-59
2.27224e-52
1.53388e-137
2.87915e-60
2.23569e-34
-1.31092e-210
189.299
-2.93927e-89
2.30299
2.3713e-27
-9.75179e-99
1.65095e-28
1.07416
1.274e-34
3.52193e-54
1.2786e-40
2.13433e-26
1.26253e-25
-6.99491e-104
-8.12632e-216
3.9193e-23
-2.03501e-194
2.55723e-05
-8.38513e-133
-4.04963e-52
1.09397e-33
5.25847e-84
0.0109877
8.59598e-24
-1.42706e-60
8.1838e-105
7.01561e-05
-3.13191e-170
-6.13608e-115
2.60822e-14
1.12443e-201
9.76722e-105
-1.00151e-115
1.29829e-07
18.4512
-5.36258e-72
-1.50269e-154
-1.27271e-31
2.12198e-34
1.33635e-39
5.68466e-31
1.00364e-32
-2.83635e-164
-6.59339e-212
8.36175e-38
-8.04811e-206
1.07731e-34
4.08103e-40
8.11686e-27
3.41336e-120
3.7509e-24
7.30363e-13
3.75658e-136
3.09962e-72
7.92964e-107
-2.6525e-28
4.80691e-14
5.14977e-203
1.42817e-36
1.0012e-33
6.42957e-72
1.77771e-35
-2.61957e-131
1.00865e-20
9.95763e-55
1.64215e-28
4.22501e-27
-7.8436e-163
-3.72875e-73
1.27555e-09
0.00484536
-3.56756e-207
9.59442e-52
5.32014e-10
1.07876e-35
0.79733
-6.47858e-212
-2.4273e-134
-1.13958e-168
6.90416e-31
4.55084e-57
2.36186e-67
-5.97357e-130
1.56912e-38
1.17055e-50
-1.84588e-57
1.2052e-91
0.000344739
-8.26353e-191
0.0007836
-1.61926e-151
150.674
1.007e-53
2.56297e-10
-2.73151e-180
2.57844e-121
4.7408e-30
-1.31042e-108
6.22399e-152
-1.92105e-96
1.90773e-55
9.82602e-56
6.1452e-12
2.9118e-22
2.66297e-22
-2.25084e-233
-2.35439e-108
2.11132e-38
0.006847
2.51175e-233
1.50476e-186
3.68651e-33
-1.48343e-166
4.18147e-16
1.29343
114.395
5.44729e-232
-1.41994e-71
1.95597e-15
-1.16371e-65
-1.16089e-115
87.1689
2.56075e-188
3.4911e-23
1.30208e-32
1.2104e-72
-6.82073e-118
4.62637e-149
2.3743e-85
1.62659e-29
3.36233e-56
3.22776e-71
5.97893e-230
-1.89171e-193
1.7357e-59
-9.95478e-116
1.09094e-26
5.50368e-31
-5.11526e-159
-1.94403e-183
3.54598e-28
180.781
-2.62315e-131
1.7819e-08
-4.08607e-201
1.7154e-70
2.69347e-23
5.79716e-35
7.8842e-17
1.38886e-27
1.04684e-56
1.35254e-26
-4.72351e-217
2.10654e-186
4.60309e-38
3.08178e-63
-1.84318e-57
1.31331e-64
6.4091e-212
-2.07263e-182
-8.69071e-125
1.7173e-44
2.92231e-23
-3.70893e-32
-1.01435e-88
-1.43288e-30
5.67609e-33
5.76895e-53
-1.20961e-29
4.38961e-53
2.95712
2.76072e-31
1.3573e-51
9.03122e-28
-9.06646e-187
2.27695e-22
1.07425e-29
1.65335e-233
1.38633e-202
-7.39805e-166
4.59872e-176
6.91038e-07
1.95873e-52
1.14508e-77
-1.95725e-31
2.17131e-95
1.96374e-15
2.84165e-36
2.67114e-29
-6.44598e-124
2.07221e-10
-6.20681e-212
-3.10048e-45
3.26405e-105
1.10483e-18
-4.76452e-29
7.90285e-61
7.26163e-52
9.08529
7.56282e-34
2.91936e-13
8.44566e-60
2.12402e-11
0.615519
-1.17158e-157
-1.20631e-110
1.84954e-213
3.35282e-08
-5.92481e-111
4.1841e-56
0.00913514
8.90121e-187
-3.52971e-57
1.64764e-30
6.34109e-57
-1.16671e-128
7.79254e-62
-1.50706e-154
-5.07251e-62
-2.11594e-157
-1.66362e-153
-1.11408e-66
4.89291e-29
3.58778e-32
1.09984e-55
3.64905e-08
1.16447e-35
15.6214
1.32492e-33
1.1444e-61
-3.65843e-64
3.82899e-35
3.51586e-48
3.61621e-42
0.564705
-3.39006e-34
2.11457e-50
4.74176e-48
-6.43386e-107
-5.80142e-117
1.3556e-28
-2.2502e-214
29.2323
-1.12317e-161
-2.62862e-33
1.32922e-21
5.35073e-07
7.4947e-18
8.70516e-27
1.35713e-31
1.4583e-60
4.28488e-18
4.13862e-40
3.81884e-13
1.58273e-47
4.29574e-13
1.24502e-48
1.17042e-225
7.1868e-50
179.363
5.40926e-13
-3.10429e-85
-6.11099e-218
-2.23618e-157
3.1882e-80
-4.85678e-52
9.08991e-33
1.04836e-50
-2.97132e-165
-5.15836e-84
1.03992e-47
-2.51062e-87
5.43743e-92
3.20391e-12
-1.10229e-98
2.46643e-41
1.41184e-23
4.64981e-85
-2.62747e-77
3.05564e-27
-5.34748e-235
-1.567e-82
52.1779
-2.79733e-184
7.80304e-16
3.28035e-22
4.47072e-79
1.3161e-31
9.42447e-24
1.52567e-49
3.97899e-25
8.29425e-112
-1.11649e-31
-1.16294e-115
1.74383e-45
8.27599e-26
-1.63713e-30
9.75419e-112
4.13811e-26
8.97585e-06
1.97856e-42
2.03193e-61
-1.21622e-104
7.92713e-22
7.51928e-07
-1.56954e-109
1.58163e-202
1.16669e-49
-2.94159e-209
0.737097
4.53228e-48
4.27715e-12
3.43746e-59
7.84556e-52
14.6878
6.63707e-58
0.0018744
7.41306e-34
109.868
7.16193e-38
1.18602e-71
3.70372e-59
3.69731e-73
0.00478082
0.000461849
-4.7466e-155
-7.04193e-153
-1.54843e-28
6.10828e-144
0.00379598
1.15213e-26
4.79396e-10
-1.142e-104
125.258
0.100355
1.6495e-47
3.26175e-225
7.97052e-116
-2.8116e-36
9.95427e-79
2.14905e-87
1.02645e-75
5.82302e-34
3.20753e-41
60.8273
3.25809e-07
-1.0583e-166
8.74482e-36
1.7879e-23
-1.50595e-27
7.8931e-65
3.27869e-22
8.33434e-28
-2.55153e-35
-2.50781e-125
-1.71982e-222
1.36335e-19
1.04093e-16
1.9329e-52
-2.09961e-29
7.14121e-13
8.21219e-63
1.73422e-50
7.32693e-104
2.4826e-69
2.10158e-14
7.45457e-68
9.12769e-24
1.04989e-37
5.8371e-43
5.04664e-84
2.99142e-71
3.47821e-06
5.69221e-61
6.73738e-65
64.3283
2.0362e-45
2.06227e-64
0.0103032
1.09949e-228
1.03547e-59
4.26149e-55
-8.48919e-79
-1.74173e-127
9.01441e-52
1.8157e-235
1.67977e-09
-4.74438e-110
-3.16965e-56
2.28893e-20
1.74739e-31
1.44319e-55
5.91728e-58
1.4625e-20
96.1974
-2.90503e-185
-1.92609e-97
2.64782e-63
0.00876244
6.72427e-17
3.64347e-113
3.74878
-6.14238e-222
-1.22921e-111
188.435
-1.80886e-86
2.14791e-110
1.02068e-107
7.64529e-39
-2.0751e-38
-2.15353e-182
-2.20764e-80
3.10815e-24
2.08013e-55
3.16771e-59
2.15804e-76
-1.00782e-156
-2.21755e-37
3.2203e-06
-6.46445e-63
-1.86662e-30
1.88722e-34
2.10503e-43
2.56733e-10
3.18257e-24
2.96741e-75
-2.77157e-110
0.000565028
2.08375e-28
1.47253e-44
3.11358e-103
9.55884e-175
4.01193e-35
1.37786e-10
8.12124e-63
1.2182e-27
1.55237e-61
9.73878e-75
-1.03209e-92
4.34994e-38
152.047
18.7737
7.49835e-37
2.89553e-60
-2.98549e-94
5.23506e-39
0.0123445
-8.20642e-33
1.97672e-114
5.00206e-11
1.04558e-07
9.41517
4.9796e-77
93.6622
3.74298e-181
1.90674e-73
-2.37625e-176
8.98558e-11
1.85011e-43
87.0864
-1.02071e-115
0.0218135
4.64694e-143
-3.53915e-61
1.78716e-26
2.54189e-80
9.46275e-12
0.17083
-4.91223e-85
3.0069e-83
7.15591e-59
6.17937e-78
-2.50954e-86
1.41256e-13
1.00763e-45
1.96442e-57
2.84043e-15
-1.90499e-86
-1.02548e-171
3.06344e-64
-1.08726e-155
3.04853e-26
2.33863e-58
5.63454e-09
9.10645e-11
-1.42421e-40
3.59339e-31
1.37493e-34
3.56023e-60
0.0142934
9.13294e-65
-2.92001e-90
5.19304e-212
6.90817e-11
-5.81608e-34
-7.46114e-117
3.8369e-25
-1.28815e-76
2.39253e-31
-3.74366e-36
-9.45238e-32
1.25241e-35
88.7681
3.27973e-34
-1.56435e-39
0.184209
3.97985e-80
2.82992e-07
1.05148e-22
2.39447e-147
1.83501e-63
1.41367e-90
1.50543e-63
-1.80678e-218
-2.86178e-106
3.79843e-07
5.77476e-11
-6.58604e-107
210.466
2.63877e-28
4.02226e-155
1.0989e-11
4.94401e-12
-1.6023e-156
1.39819e-10
3.34434e-21
5.16855e-11
-3.80332e-153
6.39e-120
2.94954e-93
-5.37824e-156
-8.27371e-36
32.2834
-2.89432e-119
8.2445e-12
-6.40506e-232
2.82953
1.88311e-25
4.12028e-32
-1.11596e-189
-9.78957e-121
1.56029e-72
4.72792e-37
5.27973e-15
5.15167e-32
-5.48454e-88
2.21281e-83
-4.2418e-152
1.39627e-26
6.42153e-37
2.9348e-90
1.84129e-201
5.19093e-50
3.21621e-32
2.5109e-42
-3.31201e-124
1.02695e-06
1.20092e-27
7.00757e-144
8.7753e-42
3.91266e-83
3.40197e-66
198.466
-9.64797e-88
-1.38587e-152
1.71665e-33
-5.23685e-35
-8.86394e-43
3.07586
-2.96077e-58
7.73522e-67
5.67683e-31
-6.40091e-79
3.44161e-74
1.62127e-65
-2.53555e-78
-8.62473e-29
-2.13829e-70
15.6961
-1.07195e-41
7.059e-10
1.45378e-72
0.028488
2.05659e-30
1.39983e-08
2.56184e-13
1.20244e-28
8.86332e-65
1.03438e-70
1.13758e-52
1.35366e-230
1.06485e-68
1.04093e-34
2.77213e-11
-3.71332e-79
3.79912e-145
2.97766e-30
3.02019e-32
8.46825e-16
6.25569e-38
3.53436e-11
1.24662e-15
6.09981e-102
4.84002e-48
0.998935
7.82303e-36
-4.31436e-221
6.58103e-78
4.32918e-82
-4.13977e-224
3.55882e-49
1.68331e-182
2.21134e-67
1.93803e-14
1.49857e-32
4.22768e-06
-5.97723e-178
-2.49555e-121
-4.31635e-208
-3.08077e-80
-2.10042e-95
1.24824e-08
-2.74831e-95
4.45177e-122
6.88609e-07
3.61858e-33
2.65619e-39
2.08681e-50
5.8209e-17
2.55572e-85
5.94188e-12
2.17761e-71
1.10736e-171
0.00249752
3.715e-36
5.53109e-20
3.96249e-91
56.7507
-2.28712e-38
7.78954e-42
4.69008e-28
1.11933e-28
58.8313
4.73447e-69
1.76612e-11
-1.30027e-46
4.09852e-43
3.29434e-135
1.92133e-57
1.91966e-07
8.30758e-73
1.00479e-08
-3.17797e-85
-5.33374e-89
1.30876e-12
-9.86148e-136
-1.28121e-114
1.00836e-67
6.62103e-35
5.63001e-11
-2.36945e-86
1.49682e-81
-3.33949e-204
1.1729e-45
0.00291129
1.57951e-38
-2.58942e-81
6.7529e-58
8.09178e-86
2.22546e-117
14.4801
-5.26776e-45
3.79156e-204
7.43006e-47
2.7909e-87
-3.2317e-37
-2.44935e-27
7.02139e-36
-1.78127e-80
3.94026e-14
7.35821e-11
1.70903e-194
4.55214e-55
3.05623e-11
-2.34775e-117
-2.30315e-177
-2.76293e-60
1.071e-45
2.035e-74
-7.8966e-176
5.02092e-47
3.20515e-12
1.04028e-156
3.10961e-22
-6.15063e-184
1.04638e-89
7.22197e-53
5.33715e-05
-1.22992e-211
2.09243
-6.50724e-44
1.13132e-20
43.2483
-1.30864e-40
1.12925e-51
0.0368328
-4.61427e-80
1.78912e-05
2.92671e-18
4.07107e-60
7.22756e-70
3.39725e-71
-9.50276e-91
-3.78434e-94
1.82317e-19
0.0334683
199.471
1.19008e-22
-6.28321e-28
0.0682107
8.32526e-25
17.7004
-4.14701e-132
-1.47282e-89
2.41928e-18
3.46466e-39
5.44384e-108
1.83833e-22
2.55983e-71
56.1798
9.59368e-221
-2.06635e-125
-8.02591e-126
209.245
-4.6605e-35
8.27236e-43
-7.60631e-72
1.07576e-18
1.10237e-73
-1.71545e-122
4.61607e-07
5.63283e-70
4.42915e-07
1.24533e-19
1.34836e-59
8.61848e-14
1.3629e-37
-1.18263e-88
2.46165e-118
5.99118e-116
0.236981
3.87251e-13
1.58461e-93
1.87265e-17
3.29354e-39
1.57383e-23
-4.87161e-211
8.01576e-42
2.84405e-07
2.45285e-08
-1.85467e-39
1.75412e-63
-6.17119e-120
9.25591e-15
-6.72341e-77
8.51053e-124
6.55144e-10
4.47528e-16
-3.50558e-99
6.5035e-29
6.65707e-34
-8.90307e-209
4.44715e-109
-2.11607e-174
-7.56791e-39
90.7432
3.15135e-11
1.57582e-18
-3.29341e-103
4.08782e-76
1.50137e-35
-3.27856e-207
4.03888e-09
3.63401e-38
106.308
-1.02603e-26
6.02336e-64
1.00834e-99
-9.80094e-132
1.67587e-69
-7.02244e-78
3.04078e-106
14.9128
1.65756e-14
6.92231e-34
1.74421e-16
-4.20177e-41
-2.52523e-116
4.28386e-231
2.05837e-106
3.28284e-25
1.05376
-1.86696e-21
3.0908e-41
-3.82923e-46
-2.82613e-71
5.71018e-15
0.0429631
0.0263609
1.1601e-78
-6.16391e-65
1.24069e-26
-3.50453e-87
-1.69144e-167
-2.29811e-107
2.3473e-13
-1.37152e-96
1.91586e-53
-4.77346e-85
3.67358e-39
5.36752e-08
-1.02444e-89
-3.30058e-107
4.83898e-10
1.16897e-13
5.40665e-90
-3.12291e-133
-2.90532e-47
0.00411915
1.39839e-24
1.85831e-21
-1.49804e-49
4.90086e-50
0.0911098
9.92098e-75
-1.55348e-21
7.69147e-117
2.26227e-12
2.43507e-11
-4.89536e-155
-2.03451e-128
86.6561
1.9856e-109
8.01646e-69
3.68969e-26
-9.47198e-100
-7.70798e-98
-3.5535e-86
8.02444e-111
-1.34715e-207
2.02995e-14
2.11817e-05
-1.27301e-128
0.0180706
1.20435e-73
-2.9436e-111
2.03648e-12
5.35978e-09
1.05145e-25
1.19e-77
-2.89867e-106
-7.00726e-43
153.735
-1.92976e-96
-3.20098e-129
-1.06325e-136
1.85192e-96
2.44565e-56
1.2836e-26
-4.1477e-99
-2.31707e-74
9.33941e-119
7.87127
1.16821e-08
3.35602e-34
-1.24898e-37
2.6991e-72
-2.65389e-111
1.30069e-14
1.51488
1.02573e-68
-1.5327e-135
-1.09671e-112
2.25061e-13
-3.05656e-99
4.40435e-118
1.13358e-07
1.57102e-77
-2.44186e-106
115.546
4.70026e-05
19.5947
3.72808e-14
-8.86621e-99
7.92287e-11
2.66447e-10
0.1951
3.01354e-88
2.34299e-25
-3.18241e-209
0.123494
3.96648e-225
1.63313e-89
3.92465e-72
-6.88359e-136
1.93635e-37
7.41546e-89
-2.1512e-97
1.69444e-89
8.14087
6.19778e-14
2.14032e-32
-4.36367e-106
1.15781e-27
24.4936
1.51256e-08
1.8262e-41
-2.0127e-48
5.96238e-90
-4.896e-79
-6.38299e-129
-1.68608e-100
-3.31678e-127
-1.5685e-108
-1.02983e-41
1.2435e-14
9.48703e-16
0.357137
0.00012334
1.97025e-08
3.80524e-23
0.131653
1.33476e-119
5.01415e-05
-5.83116e-113
0.0018088
7.91372e-09
1.06388e-32
7.39972e-98
2.07865e-32
3.82478e-21
2.44908e-57
110.534
2.39609e-12
0.420506
-6.59327e-110
1.65226e-09
3.9478e-07
1.32894e-09
1.88058e-07
1.47326e-10
-4.11729e-106
-6.2281e-90
2.73112e-34
-6.09647e-102
3.46162e-27
2.26043e-92
9.37117e-36
-1.44449e-156
-8.37259e-84
1.40599e-18
5.72567e-25
-9.03546e-125
-3.50318e-45
1.09821
87.0378
-9.26027e-136
-7.77188e-48
7.45471e-66
1.49764e-10
7.62657e-28
5.11543
5.48681e-05
2.56001e-90
5.53953e-36
2.99062e-07
-1.10751e-23
6.91497e-06
1.46571e-51
1.26987e-11
-2.06163e-124
0.226098
4.04822e-08
-1.2986e-131
1.77086e-07
0.23182
7.59587e-44
4.75601
5.49643e-76
9.93872e-09
4.64657e-73
-1.31905e-139
4.57327e-69
2.24117e-72
0.0988051
0.00242267
0.0474978
-4.76062e-124
8.09575
1.85561e-33
1.85241e-12
-1.26413e-30
1.47715e-37
4.15911e-45
0.0235849
1.28644e-74
2.87148e-83
1.8483e-17
5.18305e-09
1.30741e-26
3.40171e-17
-3.15085e-54
0.0566383
1.706e-28
2.81626e-27
2.91862e-09
2.33701e-164
1.00914e-07
4.77163e-09
5.79888e-08
1.01175e-70
0.00120687
-1.14891e-130
9.45505e-28
3.04645e-35
0.000119093
2.26545e-67
1.93221e-18
2.0846e-08
89.4597
-4.18801e-100
1.92676e-29
-1.85976e-45
2.63274e-07
3.18137e-17
1.39111e-88
6.27749e-35
-5.11062e-133
12.1411
2.05994e-210
-2.61962e-132
-6.71713e-173
1.56613e-06
2.09021e-106
5.14801e-35
11.4479
7.33571e-47
3.50121e-55
-1.9044e-100
-2.21919e-165
1.35499e-09
-4.40669e-133
-6.47459e-40
7.41371e-12
-5.18892e-44
3.5645e-06
1.88995e-83
9.3836e-34
1.96632e-07
1.5543e-17
1.70073e-62
97.3192
2.62502e-213
-6.77846e-161
-1.58425e-79
232.705
1.1504e-71
2.91853e-63
1.0367e-07
-4.40792e-98
3.92491e-82
9.02683e-13
1.21908e-05
3.07846e-29
0.0110722
-3.00046e-98
6.85155e-79
4.3158e-36
2.6937e-41
0.000131432
-2.39524e-114
2.76811e-59
-7.20991e-52
3.368e-17
4.63906e-54
-4.8761e-126
6.22499e-37
-1.14052e-18
3.8042e-191
8.3149e-184
5.4835e-05
7.49945e-29
0.000103565
3.5248e-80
1.80031e-220
-1.67819e-17
2.01746e-06
-6.3277e-116
-4.14624e-95
-1.19566e-130
17.0125
1.81047e-191
2.91168e-30
9.88508e-05
6.26672e-181
-6.66382e-164
1.1552e-17
-3.04507e-142
2.13424e-184
1.2058e-34
5.52394e-13
2.62071e-127
1.08946e-20
-7.33699e-137
1.38298e-07
2.73355e-222
1.60053e-07
7.54798e-13
1.13863e-18
4.25979e-180
2.5819e-14
5.51297
2.32409e-88
2.18066e-46
3.96729e-143
2.89029e-13
-5.89973e-136
1.19147e-06
5.52022e-09
2.745e-76
-1.86278e-171
2.17672e-13
1.19389e-13
6.26163e-40
2.8221e-37
4.21525e-16
-7.58789e-141
8.95198e-15
-5.24088e-173
2.18279e-05
1.72188e-08
3.31667e-08
3.60796e-18
-1.35781e-22
13.3829
5.4272e-18
5.74473e-36
2.85765e-14
-5.83307e-93
2.45477e-11
5.18001e-16
-4.05462e-42
8.64539e-69
0.113064
7.68065e-186
0.0541987
109.517
4.11107e-101
4.84932e-08
108.386
3.22411e-33
1.4784e-33
1.48385e-15
-1.02426e-50
-5.04446e-131
9.73218e-08
0.0158846
0.834922
-1.53791e-91
3.35413e-13
0.000560508
5.17339e-14
-9.89676e-108
-5.24848e-158
2.8584e-26
0.0263629
1.01779e-08
5.44723e-16
-2.73053e-213
-3.08712e-138
3.23309e-14
-9.92685e-98
1.19378e-38
-7.94055e-94
-1.90595e-168
3.32993e-07
8.02955e-75
0.000255943
2.42771e-39
-8.97476e-151
-5.8184e-158
7.42814e-15
-9.5137e-93
1.85348e-32
9.90131e-16
1.02827
-1.6404e-47
2.91315e-125
3.1751e-06
-5.53772e-91
-3.8749e-134
1.33947e-58
1.58017e-13
-5.68135e-87
1.11239e-13
2.65341e-40
223.019
2.16544e-14
9.24572e-118
0.000123841
-9.00473e-172
7.92997e-09
7.25665e-34
9.24244e-06
0.00569435
-2.81625e-43
0.000193623
-2.69857e-149
1.75562e-08
-4.04195e-113
2.84808e-51
4.6791e-05
1.16686e-25
1.71171e-05
0.0199836
-1.84049e-19
1.98601e-07
2.84744e-06
2.24862e-122
-5.14334e-136
-2.17356e-170
0.000248602
-2.7445e-24
7.89106e-121
2.39875e-07
2.6659e-05
8.9085e-33
2.60294e-12
1.86251e-47
-7.83179e-33
0.00394175
1.44766e-66
4.98187e-26
1.01956e-30
-1.61339e-208
-3.2529e-208
-1.19473e-122
-1.83887e-91
6.77721e-38
-4.42879e-152
4.64423e-78
-1.1057e-100
-4.48766e-59
1.80979e-14
4.9021e-107
1.84441e-06
9.37575e-224
3.53591e-11
4.84282e-06
-4.1592e-117
6.04566e-05
6.07604e-12
8.87525e-06
2.34856e-53
2.40075e-16
-1.16625e-99
3.78866e-34
5.58317e-43
-1.99359e-159
2.15589e-115
2.21037e-84
-1.00408e-115
-1.41164e-177
-1.17896e-51
-3.69794e-179
-5.94451e-30
1.58145e-21
0.0749619
-1.58958e-153
4.94426e-58
-1.31333e-150
1.2073e-96
4.25765e-21
4.15659e-60
8.52457e-119
118.731
3.53621e-14
3.82671e-29
1.47552e-56
8.95708e-15
4.82672e-23
6.70492e-55
4.56668e-17
3.1432e-13
-4.80958e-100
-1.40972e-174
-1.30154e-76
2.74031e-07
-5.68263e-136
-5.91015e-123
1.37805e-13
-7.09649e-102
-7.16237e-98
8.24642e-65
7.8928e-126
0.00140123
-4.92251e-152
-2.28903e-124
1.90723e-18
2.18554e-17
7.2291
4.48217e-13
-2.13096e-54
-1.78065e-118
6.42125e-16
-7.12605e-120
3.64367e-25
4.53897e-39
-5.84452e-102
7.24735e-06
-5.63405e-189
8.4508e-21
-6.50215e-51
1.37798e-14
1.91951e-41
-1.54812e-181
-5.0112e-102
-1.8028e-222
1.40356e-23
-4.75709e-137
1.6783e-18
8.07652e-39
1.09457e-81
-4.69758e-53
3.26306e-35
-3.34841e-176
2.1764e-20
2.01632e-20
-1.71636e-92
2.09607e-18
1.65964e-07
-6.56834e-167
1.986e-35
2.63724e-11
1.71765e-12
5.72416e-70
1.69195e-38
2.48666e-37
7.42002e-41
1.53662e-67
9.89097e-15
2.4296e-67
2.13787e-117
6.94232e-119
0.0878064
2.8427e-08
0.000115076
1.75579e-06
-6.37581e-34
6.33959e-20
4.55406e-39
4.80996e-18
-2.99809e-118
4.02244
-9.1974e-97
3.27868e-06
1.76772e-06
-2.98034e-121
-7.62018e-25
1.36079e-08
1.00084e-05
2.3496e-37
5.14956e-25
-1.21228e-119
4.40694e-193
1.07705e-14
-1.24294e-174
-4.31357e-155
6.11019e-17
7.33735e-98
-1.63302e-61
1.17775e-123
5.01622e-77
1.19499e-14
10.7236
-1.45772e-90
-3.23068e-99
2.78331e-08
-1.22696e-36
6.7524e-11
1.70142e-23
3.42752e-25
4.18932e-99
2.34559e-35
5.73866e-15
1.23366e-16
-2.12022e-29
-8.26369e-149
2.15077e-05
3.49878e-29
7.29099e-19
5.32799e-77
7.28931e-123
2.62513e-16
-1.29612e-88
-8.89448e-169
9.05154e-22
2.19056e-08
-1.6075e-153
5.05894e-20
7.54408e-42
7.42157e-106
-9.06336e-70
-4.89565e-105
9.00167e-22
3.76947e-117
2.4328e-124
8.45004e-38
3.73021e-22
-2.46222e-38
-3.92726e-29
9.93019
-1.65851e-101
3.20587e-58
0.513953
9.81498e-31
-2.64297e-106
3.07784e-30
0.019923
-2.01666e-159
-1.63225e-100
-6.24411e-170
1.43336e-24
2.35293e-14
4.23102e-41
-1.34333e-180
-4.19406e-73
8.09393e-58
4.20598e-84
2.31717e-09
-1.21712e-93
-1.60685e-178
-4.08247e-176
1.84669e-26
6.74137e-38
1.76983e-05
-5.05415e-76
-2.49448e-46
4.50535e-25
4.21691e-14
-4.16964e-135
2.00869e-23
-2.12735e-162
-4.61652e-155
-4.67532e-181
1.11844e-09
-3.96691e-101
4.27607e-23
7.20498e-20
6.28154e-25
3.31662e-15
5.24297e-26
2.55824e-13
3.47128e-25
-1.79232e-93
1.02845e-25
-3.15289e-46
2.97198e-32
6.51999e-21
-2.08369e-99
43.8155
1.05266e-16
8.61014e-19
-1.17313e-151
1.64393
9.86607e-15
2.18387e-16
-2.75085e-30
1.13001e-05
3.04209e-59
-8.33742e-98
2.09417e-78
1.55625e-80
8.57419e-76
1.4932e-17
2.77596e-21
-1.58622e-106
1.58023e-23
1.43476e-85
1.20574e-75
2.41612e-46
-2.66908e-44
2.83754e-62
-6.42848e-53
-8.35487e-43
4.02008e-21
3.72938e-25
1.58344e-43
-4.98694e-179
4.00695e-86
1.39668e-92
9.76315e-11
-1.65372e-134
-8.12586e-104
4.89028e-24
2.06784
1.8132e-116
2.94127e-05
2.59662e-120
-3.7607e-89
9.55934e-35
1.84491e-27
8.99162e-32
-1.21779e-131
1.58344e-17
1.69923e-20
2.40198e-11
-1.44207e-153
5.0749e-22
1.8381e-38
8.84209e-46
-1.38798e-179
-6.26569e-213
1.6523e-26
9.87738e-38
4.05355e-54
57.5909
3.24966e-22
1.11047e-30
-1.41419e-24
2.17908e-38
4.4386e-11
-1.8793e-101
1.26764e-41
8.6365e-67
2.87758e-80
0.0136961
2.04471e-20
7.5523e-21
2.63643e-33
7.2265e-129
1.82991e-16
5.76966e-16
0.000776109
2.48863e-76
1.17655e-30
0.000296664
9.67158e-05
6.06164e-122
0.000131119
2.88398e-45
24.9443
-6.39398e-167
1.41764e-23
8.57668e-34
5.61677e-187
8.65359e-14
6.01988e-58
6.04509e-73
1.48376e-07
0.00194061
0.000192891
2.02456e-72
2.59266e-25
-3.12562e-166
5.65348e-92
5.57176e-06
1.3728e-29
2.60935e-68
4.99989e-17
9.45259e-22
2.80451e-26
3.69406e-36
2.66507e-34
4.92561e-20
0.00430255
-1.29012e-126
7.07636e-36
4.0254e-41
4.47065e-27
2.39995e-07
5.14395e-22
1.13035e-30
2.22813e-57
-6.11445e-170
9.88128e-26
2.55077e-29
1.20386e-19
3.7322e-132
1.62088e-51
3.0683e-21
4.66221e-23
-1.04118e-23
3.96202e-19
4.2961e-64
6.37911e-28
-1.97646e-102
4.39321e-13
1.34916e-47
4.12912e-25
1.03363e-59
2.85142e-71
1.82448e-21
3.96288e-52
1.94854e-59
1.61074e-71
-1.28349e-129
3.52673e-25
8.37763e-48
5.90644e-49
29.3911
0.012295
-3.06206e-101
1.3429e-69
3.07565e-34
3.48802e-37
-4.11547e-180
2.46652e-29
-5.31413e-35
2.31959e-29
-2.12482e-167
2.05494e-13
2.43363e-17
1.3645e-15
4.27473e-29
-1.17519e-152
-2.29403e-87
2.32603e-55
1.2944e-27
8.29294e-09
16.8578
-2.00317e-124
1.34371e-63
4.81562e-64
7.42226e-07
0.000652056
0.000450347
9.39845e-49
3.74892e-20
-7.14454e-166
1.61334e-35
-1.114e-49
-4.75944e-123
1.38269e-21
5.76468e-36
1.71965e-32
5.91214e-19
-6.32163e-67
1.67001e-37
3.41848e-30
-1.5458e-154
-4.6722e-233
3.86112e-40
-1.34681e-61
2.56396e-08
1.00468e-41
-4.42238e-23
2.809e-13
-1.90757e-39
-1.10382e-124
-1.42403e-55
7.52623e-18
4.23646e-129
0.384813
0.0886339
-1.4733e-104
-2.22186e-162
7.34574e-92
-8.24625e-127
-7.34022e-188
-2.54568e-57
4.35784e-59
-1.80691e-31
1.26041e-35
3.63563e-29
-1.64232e-46
4.89498e-05
1.37924e-17
4.32579e-31
3.24213e-35
9.34832e-46
1.321e-33
-1.08413e-153
-2.37106e-69
7.37435e-60
-3.95701e-31
-1.13039e-25
1.90742e-09
3.51405e-191
-2.01676e-26
7.37458e-35
1.13838e-44
3.10773e-22
7.09313e-39
4.1347e-24
0.00566142
8.55172e-35
5.32563e-18
1.57375e-44
8.75646e-78
6.0527e-38
1.19287e-33
1.61434e-130
2.13127e-37
0.0386943
-1.71679e-72
0.000297545
-5.64898e-124
4.06617e-33
-2.67339e-83
3.04239e-65
1.65968e-29
-1.42151e-20
3.97384e-21
9.13493e-64
3.58132e-39
4.11929e-45
1.04927e-17
1.69316e-10
-6.33269e-44
5.10221e-08
-5.11316e-189
2.07291e-36
8.16019
2.21696e-14
1.26578e-63
0.503539
1.1829e-18
1.0605e-60
-1.19375e-141
1.203e-10
5.01681e-34
2.85135e-46
1.43767e-34
-1.62676e-146
7.68525e-19
2.21488e-71
1.38402e-13
3.65143e-35
3.32529e-30
-7.16872e-30
3.68726e-227
-2.26891e-94
3.68869e-39
1.60594e-76
6.29878e-79
4.99625e-54
5.35043e-71
2.78145e-56
-2.50422e-24
2.35282e-27
-8.03519e-176
5.49773e-15
1.00826e-92
-2.23088e-153
-4.28362e-27
1.63381e-117
2.29176e-44
1.41127e-45
-5.14882e-131
2.94181e-127
1.06576e-77
6.76884e-22
7.29856e-59
1.0412e-31
1.52156e-33
-3.95159e-26
1.59688e-24
7.95692e-47
4.15476e-40
2.8858e-37
-1.99305e-201
4.12347e-52
3.83979e-68
5.26339e-47
0.383327
3.21398e-24
-1.96879e-66
2.06026e-39
-9.94166e-60
8.12641e-60
2.41674e-65
5.57502e-60
1.73132e-59
-9.67283e-32
2.3525e-35
-8.45367e-155
4.83527e-23
-1.12792e-47
2.44821e-21
-5.19566e-144
-9.91733e-28
5.79208e-05
-1.04554e-89
-6.95492e-39
8.18203e-17
-3.06354e-109
5.99375e-26
3.99185e-13
1.61282e-36
2.45296e-36
6.37506e-14
6.12617e-40
-1.09396e-48
2.11718e-39
1.45731e-23
-7.14878e-114
4.5199e-65
-3.14073e-198
4.0719e-93
-1.603e-143
2.48292e-36
4.93526e-35
3.99981e-25
-1.32528e-40
17.8042
-2.5178e-20
39.3705
4.82099e-34
5.94169e-10
13.9171
5.98371e-16
24.7524
1.93299e-63
5.38868e-39
7.38728e-43
1.72799e-48
2.03309e-43
-7.91037e-92
1.82506e-43
-3.49925e-85
-1.89361e-145
-7.05504e-50
5.36281
4.67991e-38
2.88949e-20
5.81885e-41
7.87851e-79
1.28248e-35
1.0099e-34
5.53324e-106
1.7689e-40
5.63854e-73
4.3038e-24
-3.78925e-39
2.17652e-40
-3.91756e-41
0.893151
1.04413e-06
2.21454e-19
6.32493e-46
90.8567
1.50517e-39
2.83018e-51
1.16898e-27
-6.74845e-29
-2.76233e-56
3.97726e-16
-4.76096e-127
-4.09657e-36
-3.99593e-27
1.39711e-41
-1.49391e-42
5.72239e-71
2.06697e-36
-2.49233e-33
1.26405e-61
9.57019e-27
1.45946e-44
6.10299e-56
-3.93907e-124
4.33435e-49
1.35706e-36
1.38482e-75
1.09669e-44
1.16535e-55
2.22726e-94
-8.88942e-33
1.0265e-72
1.12751e-15
1.87209e-45
-2.63528e-61
-6.13638e-131
1.04247e-91
1.2694e-13
3.56151e-36
-3.96688e-194
8.53407e-44
10.0518
8.14553e-21
2.87085e-72
9.85755e-45
0.173645
0.989701
57.0762
1.44443e-77
4.29352e-79
-9.06387e-104
2.65331e-55
4.4112e-28
0.0118536
0.0938514
1.11458e-12
1.08224e-16
1.98191e-67
-5.00072e-139
-1.41385e-136
-5.34274e-27
-5.05248e-71
2.03117e-24
2.57193e-80
7.18634e-05
4.89757e-79
4.75166e-40
3.84463e-12
-1.46232e-40
3.93217e-20
3.74238e-108
5.9653e-38
-2.74084e-151
2.37627e-17
5.65482e-17
1.6051e-60
-6.21385e-145
8.93581e-65
1.9365e-24
-4.19792e-94
-2.10019e-43
0.17382
-1.77776e-162
7.13463e-60
-3.4652e-37
-8.25272e-38
4.88358e-46
6.00963e-108
-1.01675e-95
-2.76671e-95
-3.35234e-184
-3.88302e-138
3.28417e-57
2.51254e-24
-2.74796e-152
8.20105e-70
-3.94246e-105
149.668
-6.97728e-28
-7.38621e-94
1.82569e-192
1.96389e-22
9.82291e-40
1.56682e-20
-1.25955e-44
7.27005e-40
-1.57675e-145
1.67285e-91
1.81918e-15
-2.09935e-206
8.14051e-40
6.34308e-28
-1.35127e-49
-9.84452e-133
7.27476e-35
-1.46594e-178
1.13166e-54
4.3146e-56
-1.07129e-92
1.28774e-07
1.34094e-51
2.55703e-59
3.45177e-57
1.35557e-37
-5.13707e-48
-5.49252e-156
5.16264e-190
7.27188e-72
2.22202e-27
1.15824e-36
1.23104e-58
9.59377e-57
3.27965e-16
-9.02174e-53
-2.99729e-167
6.71559e-78
3.43149e-23
6.2486e-95
-1.07074e-45