/*--------------------------------*- C++ -*----------------------------------*\
  =========                 |
  \\      /  F ield         | OpenFOAM: The Open Source CFD Toolbox
   \\    /   O peration     | Website:  https://openfoam.org
    \\  /    A nd           | Version:  7
     \\/     M anipulation  |
\*---------------------------------------------------------------------------*/
FoamFile
{
    version     2.0;
    format      ascii;
    class       volScalarField;
    location    "2";
    object      p;
}
// * * * * * * * * * * * * * * * * * * * * * * * * * * * * * * * * * * * * * //

dimensions      [1 -1 -2 0 0 0 0];

internalField   nonuniform List<scalar> 
1008
(
1
1
1
1
1
1
1
1
1
1
1
1
5.31643
10.515
10.7599
10.9248
11.1093
11.2766
11.4347
11.5845
11.7233
11.8402
11.9309
11.9974
1
1
1
1
1
1
1
1
1
1
1
1
5.15274
10.4332
10.7323
10.8971
11.0815
11.2457
11.3991
11.5417
11.6718
11.7791
11.8604
11.9215
1
1
1
1
1
1
1
1
1
1
1
1
4.80732
10.3225
10.6844
10.8483
11.0351
11.198
11.3473
11.4815
11.5991
11.6932
11.7608
11.8162
1
1
1
1
1
1
1
1
1
1
1
1
4.30863
10.1322
10.6183
10.774
10.9577
11.114
11.2575
11.3846
11.4915
11.5715
11.6186
11.6545
1
1
1
1
1
1
1
1
1
1
1
1
3.67547
9.81142
10.5276
10.676
10.86
11.0088
11.138
11.2427
11.3179
11.3731
11.3998
11.4445
1
1
1
1
1
1
1
1
1
1
1
1
2.96828
9.3453
10.4615
10.6001
10.7644
10.8899
10.9961
11.0793
11.137
11.1768
11.1679
11.1172
1
1
1
1
1
1
1
1
1
1
1
1
2.16873
8.61239
10.373
10.4849
10.6394
10.7504
10.8345
10.8803
10.8733
10.8068
10.7024
10.6368
1
1
1
1
1
1
1
1
1
1
1
1
1.38195
7.69052
10.3779
10.39
10.4941
10.554
10.5941
10.5879
10.5318
10.4264
10.2617
10.2238
1
1
1
1
1
1
1
1
1
1
1
1
1.02131
6.43386
10.0443
10.0852
10.191
10.2571
10.2796
10.2392
10.1078
9.83406
9.06303
7.18624
1
1
1
1
1
1
1
1
1
1
1
1
1.00002
4.78927
9.61847
9.95823
10.0266
10.0573
10.0119
9.91022
9.67676
9.20185
8.37192
6.34108
1
1
1
1
1
1
1
1
1
1
1
1
1
3.06378
8.82145
9.78448
9.83475
9.84882
9.75029
9.56909
9.2553
8.67469
7.81199
5.92185
1
1
1
1
1
1
1
1
1
1
1
1
1
1.56933
7.78192
9.82243
9.69816
9.60429
9.46427
9.23293
8.86857
8.29596
7.36158
5.85874
1
1
1
1
1
1
1
1
1
1
1
1
1
1.0362
6.03146
9.28134
9.33389
9.30081
9.16996
8.92401
8.54223
7.98656
7.078
5.88672
1
1
1
1
1
1
1
1
1
1
1
1
1
0.999967
3.54251
8.60485
9.20994
9.17171
9.00705
8.71418
8.29614
7.7345
6.89681
5.95433
1
1
1
1
1
1
1
1
1
1
1
1
1
0.999984
1.48425
7.54747
9.27662
9.04081
8.79884
8.46608
8.05637
7.51306
6.7932
6.02256
1
1
1
1
1
1
1
1
1
1
1
1
1
0.999997
1.02138
5.48309
8.8077
8.70849
8.49766
8.20518
7.83178
7.33809
6.72839
6.07125
1
1
1
1
1
1
1
1
1
1
1
1
1
1
0.999928
2.70859
8.06895
8.6106
8.37608
8.08191
7.70301
7.23238
6.68612
6.10873
1
1
1
1
1
1
1
1
1
1
1
1
1
1
0.999979
1.20436
6.21982
8.47635
8.1981
7.93248
7.57511
7.13862
6.64653
6.12909
1
1
1
1
1
1
1
1
1
1
1
1
1
1
0.999996
1.00315
3.30775
7.71393
8.0729
7.81861
7.48676
7.0819
6.63717
6.16416
1
1
1
1
1
1
1
1
1
1
1
1
1
1
1
0.999999
1.34902
6.11027
8.05686
7.75055
7.42317
7.03262
6.61733
6.18172
1
1
1
1
1
1
1
1
1
1
1
1
1
1
1
1
1.00954
3.18849
7.32933
7.65357
7.33393
6.97639
6.59647
6.20046
1
1
1
1
1
1
1
1
1
1
1
1
1
1
1
1
1.00003
1.32072
5.5859
7.66842
7.30389
6.97036
6.60692
6.2352
1
1
1
1
1
1
1
1
1
1
1
1
1
1
1
1
1
1.0083
1.62493
0.472296
0.144599
0.147903
0.199886
0.306214
0.425269
0.542458
0.652475
0.728468
0.812379
0.932378
1.11801
1.2448
1.25454
1.23073
1.19347
1.1955
1.18847
1.21073
1.2802
1.31586
1.31731
1.30047
1.26218
1.25315
1.25741
1.27943
1.30813
1.31018
1.3024
1.28397
1.27663
2.78903
1.55573
0.899505
0.630835
0.570103
0.559942
0.560361
0.538882
0.541534
0.56914
0.623187
0.707201
0.819188
0.972075
1.04563
1.06987
1.0822
1.09882
1.12063
1.17061
1.24878
1.28469
1.29163
1.28702
1.25953
1.24727
1.24986
1.26973
1.30123
1.3089
1.30646
1.29217
1.27589
3.60523
2.42841
1.77083
1.27279
0.947912
0.784956
0.724667
0.692042
0.628355
0.602729
0.629877
0.684105
0.720998
0.769654
0.862453
0.93752
0.988175
1.03595
1.09079
1.15819
1.22731
1.27701
1.28555
1.29038
1.2784
1.27075
1.27383
1.28381
1.29579
1.29808
1.29791
1.28905
1.27829
4.27032
3.11098
2.41647
1.94515
1.56102
1.19039
0.983142
0.964447
0.927963
0.838889
0.773589
0.728049
0.698623
0.698835
0.722619
0.787192
0.860235
0.915577
0.983572
1.05839
1.11664
1.16841
1.1906
1.21995
1.25842
1.28539
1.30738
1.30811
1.30524
1.30346
1.29783
1.28712
1.27705
4.70742
3.74696
2.94905
2.42157
2.08964
1.7709
1.41131
1.17739
1.14046
1.07942
0.974633
0.875985
0.793937
0.735252
0.73411
0.759892
0.794057
0.820008
0.851268
0.890352
0.929742
0.98674
1.05509
1.12215
1.18557
1.23311
1.25558
1.26509
1.26876
1.27748
1.29064
1.29931
1.29829
5.00843
4.19603
3.51714
2.88993
2.41863
2.16232
1.89207
1.57417
1.35924
1.29442
1.20501
1.09539
1.01089
0.929922
0.854245
0.833067
0.83514
0.829632
0.805563
0.793954
0.797387
0.813524
0.867975
0.946896
1.04666
1.14176
1.1858
1.2158
1.23403
1.24502
1.26122
1.27803
1.27767
5.22798
4.49176
3.89295
3.34132
2.82181
2.42837
2.19436
1.9621
1.69018
1.50973
1.40685
1.30138
1.20172
1.11397
1.02195
0.949653
0.91267
0.873441
0.831478
0.806498
0.808733
0.809451
0.811489
0.830836
0.880027
0.946629
1.01684
1.08513
1.1497
1.17598
1.21307
1.25337
1.25708
5.38725
4.74835
4.16164
3.64388
3.19434
2.78735
2.43983
2.21309
2.01803
1.79522
1.61413
1.49113
1.39782
1.31119
1.21453
1.12435
1.05578
0.997063
0.948028
0.908036
0.88706
0.859442
0.833183
0.829836
0.832532
0.840539
0.857392
0.891461
0.95436
1.02884
1.1056
1.17095
1.24188
5.5011
4.93748
4.40415
3.89625
3.46409
3.10599
2.76818
2.46688
2.25064
2.05086
1.86867
1.70447
1.57484
1.46608
1.37592
1.2985
1.2204
1.13757
1.05685
1.0023
0.963332
0.923218
0.887963
0.85696
0.849811
0.844089
0.841952
0.842472
0.84819
0.876618
0.936406
1.00922
1.42447
5.59598
5.08645
4.58744
4.12779
3.73004
3.34546
2.99764
2.73184
2.49494
2.26021
2.05502
1.91136
1.77728
1.64731
1.51958
1.44095
1.36761
1.29136
1.20941
1.13824
1.08446
1.03073
0.988476
0.953773
0.927318
0.897876
0.875693
0.856735
0.842907
0.843591
0.876289
1.17975
2.02521
5.68564
5.21134
4.74252
4.32366
3.93751
3.562
3.22214
2.9528
2.70125
2.4688
2.26021
2.09903
1.9462
1.81601
1.69091
1.59061
1.49441
1.40445
1.32958
1.26702
1.20557
1.1522
1.09199
1.04696
1.00249
0.962052
0.921284
0.887783
0.862452
0.899045
1.17519
1.82834
2.42274
5.74415
5.29582
4.86456
4.48256
4.11025
3.73888
3.43542
3.16156
2.90268
2.65033
2.45948
2.28575
2.12107
1.96675
1.843
1.73901
1.63217
1.53941
1.45254
1.38521
1.31707
1.25895
1.20599
1.15748
1.10909
1.06284
1.01266
0.972131
1.00517
1.30305
1.93163
2.50775
2.53735
5.79535
5.37548
4.98246
4.62359
4.26031
3.91096
3.62617
3.34913
3.07672
2.83079
2.64626
2.45457
2.28595
2.1195
2.00057
1.87656
1.76413
1.66223
1.58129
1.5086
1.43211
1.36411
1.3052
1.25426
1.19789
1.1474
1.10251
1.137
1.47773
2.18
2.71027
2.74872
2.64284
5.85172
5.45997
5.09758
4.75076
4.39225
4.07477
3.7931
3.51758
3.23246
3.01436
2.814
2.61996
2.43063
2.27696
2.15216
2.01635
1.90046
1.78759
1.70959
1.62543
1.54619
1.47084
1.41145
1.35291
1.29662
1.24082
1.28696
1.69479
2.49886
2.99752
3.00653
2.88399
2.74794
)
;

boundaryField
{
    inlet
    {
        type            fixedValue;
        value           uniform 1;
    }
    outlet
    {
        type            zeroGradient;
    }
    bottom
    {
        type            symmetryPlane;
    }
    top
    {
        type            symmetryPlane;
    }
    obstacle
    {
        type            zeroGradient;
    }
    defaultFaces
    {
        type            empty;
    }
    procBoundary0to1
    {
        type            processor;
        value           nonuniform List<scalar> 
14
(
1.27961
1.27497
1.27741
1.26806
1.28876
1.28175
1.30975
1.66649
2.30015
2.49439
2.43922
2.46883
2.51541
2.65677
)
;
    }
    procBoundary0to2
    {
        type            processor;
        value           nonuniform List<scalar> 
58
(
2.57992
6.64824
7.25712
6.94183
6.60319
6.25582
1
1
1
1
1
1
1
1
1
1
1
1
1
1
1
1
1
2.57992
1.00004
5.8998
5.53755
5.19606
4.86172
4.51703
4.21825
3.94347
3.66329
3.38938
3.18292
2.97294
2.77639
2.5727
2.43755
2.2953
2.15964
2.03011
1.92266
1.83871
1.74142
1.65964
1.57883
1.50561
1.44335
1.39652
1.47001
1.95102
2.80527
3.2828
3.27869
3.15853
3.01661
2.90992
)
;
    }
}


// ************************************************************************* //
