/*--------------------------------*- C++ -*----------------------------------*\
  =========                 |
  \\      /  F ield         | OpenFOAM: The Open Source CFD Toolbox
   \\    /   O peration     | Website:  https://openfoam.org
    \\  /    A nd           | Version:  7
     \\/     M anipulation  |
\*---------------------------------------------------------------------------*/
FoamFile
{
    version     2.0;
    format      ascii;
    class       volScalarField;
    location    "5";
    object      p;
}
// * * * * * * * * * * * * * * * * * * * * * * * * * * * * * * * * * * * * * //

dimensions      [0 2 -2 0 0 0 0];

internalField   nonuniform List<scalar> 
35200
(
-0.339041
-0.347892
-0.346838
-0.34649
-0.342928
-0.338476
-0.332527
-0.325608
-0.317703
-0.308968
-0.299457
-0.289244
-0.278376
-0.2669
-0.254854
-0.242273
-0.22919
-0.215641
-0.201664
-0.187305
-0.172621
-0.157681
-0.142571
-0.127399
-0.11229
-0.0973942
-0.0828788
-0.0689282
-0.0557358
-0.0434956
-0.0323918
-0.0225861
-0.014206
-0.0073329
-0.00199068
0.00186
0.00432426
0.00557187
0.0058225
0.00532588
0.00433369
0.0030742
0.0017279
0.000426105
-0.000759318
-0.00178182
-0.00264848
-0.00333715
-0.00391034
-0.0043058
-0.339267
-0.348056
-0.346988
-0.346614
-0.343042
-0.338577
-0.332622
-0.325699
-0.317792
-0.309056
-0.299548
-0.289338
-0.278475
-0.267006
-0.254968
-0.242398
-0.229327
-0.215792
-0.201831
-0.18749
-0.172825
-0.157907
-0.14282
-0.127671
-0.112586
-0.097713
-0.0832202
-0.0692906
-0.0561166
-0.0438914
-0.032798
-0.0229972
-0.0146154
-0.00773324
-0.00237422
0.00150077
0.0039959
0.00527922
0.00556813
0.00510989
0.00415396
0.002927
0.00160866
0.000330079
-0.00083658
-0.00184408
-0.002699
-0.00337825
-0.00394432
-0.00433368
-0.339719
-0.348383
-0.347288
-0.346864
-0.343268
-0.338781
-0.332812
-0.32588
-0.317968
-0.309233
-0.299727
-0.289525
-0.278672
-0.267216
-0.255196
-0.242646
-0.2296
-0.216092
-0.202163
-0.187858
-0.173231
-0.158354
-0.143311
-0.128207
-0.113169
-0.0983422
-0.0838936
-0.0700048
-0.0568667
-0.0446705
-0.0335971
-0.0238054
-0.0154199
-0.00851972
-0.00312766
0.000794935
0.00335042
0.00470352
0.00506722
0.00468402
0.00379909
0.00263597
0.00137256
0.000139703
-0.000989933
-0.00196779
-0.00279946
-0.00346003
-0.00401196
-0.0043892
-0.340395
-0.348873
-0.347737
-0.347238
-0.343606
-0.339085
-0.333096
-0.32615
-0.318232
-0.309496
-0.299995
-0.289803
-0.278965
-0.267529
-0.255534
-0.243014
-0.230004
-0.216538
-0.202655
-0.188401
-0.173831
-0.159014
-0.144035
-0.128998
-0.114026
-0.0992659
-0.0848809
-0.0710506
-0.0579637
-0.0458085
-0.0347632
-0.0249838
-0.016592
-0.00966518
-0.00422493
-0.000233342
0.00240934
0.00386311
0.00433475
0.00406002
0.00327795
0.00220758
0.00102423
-0.000141757
-0.00121708
-0.00215133
-0.00294869
-0.00358164
-0.00411264
-0.00447189
-0.341292
-0.349524
-0.348334
-0.347733
-0.344055
-0.339488
-0.333473
-0.326507
-0.318581
-0.309843
-0.300349
-0.29017
-0.279351
-0.267941
-0.255979
-0.243499
-0.230535
-0.217122
-0.203298
-0.189111
-0.174613
-0.159874
-0.144977
-0.130024
-0.115137
-0.100461
-0.0861559
-0.072399
-0.0593757
-0.0472711
-0.0362599
-0.0264946
-0.0180936
-0.0111318
-0.00562978
-0.00155054
0.00120249
0.00278349
0.00339163
0.00325435
0.00260303
0.00165102
0.000570292
-0.000509612
-0.00151472
-0.00239236
-0.00314504
-0.00374188
-0.00424543
-0.00458104
-0.342409
-0.350333
-0.349075
-0.34835
-0.344613
-0.339988
-0.333939
-0.32695
-0.319013
-0.310273
-0.300786
-0.290622
-0.279827
-0.268448
-0.256526
-0.244093
-0.231185
-0.217836
-0.204085
-0.189976
-0.175565
-0.160918
-0.146117
-0.131264
-0.116477
-0.101898
-0.0876862
-0.074014
-0.0610636
-0.0490163
-0.0380429
-0.0282919
-0.0198782
-0.012874
-0.00729875
-0.00311652
-0.0002344
0.00149526
0.00226302
0.00228692
0.00178957
0.000977603
1.89614e-05
-0.000957975
-0.00187866
-0.00268788
-0.00338632
-0.00393915
-0.00440914
-0.00471575
-0.34374
-0.3513
-0.34996
-0.349085
-0.345278
-0.340583
-0.334494
-0.327476
-0.319524
-0.310781
-0.301302
-0.291156
-0.280388
-0.269045
-0.257169
-0.244791
-0.231946
-0.21867
-0.205001
-0.190983
-0.17667
-0.162127
-0.147434
-0.132692
-0.118016
-0.103545
-0.0894345
-0.0758544
-0.0629828
-0.0509967
-0.0400626
-0.0303249
-0.021895
-0.014842
-0.00918444
-0.00488757
-0.00186239
3.18629e-05
0.000976624
0.00117986
0.000854628
0.000200153
-0.000620347
-0.00148003
-0.00230398
-0.00303435
-0.00366996
-0.00417155
-0.00460232
-0.0048749
-0.345283
-0.35242
-0.350986
-0.349936
-0.346046
-0.341271
-0.335133
-0.328081
-0.320112
-0.311365
-0.301894
-0.291767
-0.281029
-0.269726
-0.2579
-0.245583
-0.23281
-0.219614
-0.206035
-0.192116
-0.177909
-0.163478
-0.148903
-0.134278
-0.11972
-0.105364
-0.0913602
-0.0778762
-0.0650859
-0.0531621
-0.042267
-0.032541
-0.0240914
-0.0169847
-0.0112385
-0.00681924
-0.00364184
-0.00157252
-0.000439075
-4.38807e-05
-0.000183825
-0.000667664
-0.00133745
-0.00206829
-0.00278523
-0.00342779
-0.00399303
-0.0044369
-0.00482329
-0.0050572
-0.347032
-0.353691
-0.352149
-0.3509
-0.346916
-0.342048
-0.335855
-0.328762
-0.320773
-0.312019
-0.302556
-0.292449
-0.281744
-0.270484
-0.258713
-0.246462
-0.233764
-0.220656
-0.207173
-0.193358
-0.179263
-0.16495
-0.150496
-0.135994
-0.121557
-0.107316
-0.0934214
-0.080034
-0.0673247
-0.0554624
-0.0446048
-0.0348881
-0.0264162
-0.0192528
-0.0134144
-0.00886874
-0.00553452
-0.00328474
-0.0019562
-0.00136154
-0.00130775
-0.00161191
-0.00212179
-0.00271489
-0.00331659
-0.00386389
-0.00435232
-0.00473278
-0.0050702
-0.0052612
-0.348981
-0.355109
-0.353446
-0.351975
-0.347884
-0.342911
-0.336655
-0.329516
-0.321502
-0.312741
-0.303284
-0.293199
-0.282526
-0.271313
-0.259599
-0.247417
-0.234799
-0.221781
-0.208397
-0.19469
-0.18071
-0.166517
-0.152185
-0.137806
-0.12349
-0.109364
-0.0955761
-0.0822831
-0.0696526
-0.0578493
-0.0470268
-0.0373176
-0.0288217
-0.0216005
-0.0156693
-0.0109967
-0.00750521
-0.00507403
-0.00354858
-0.00275146
-0.00249971
-0.00261886
-0.00296281
-0.00341182
-0.00389203
-0.00433814
-0.00474441
-0.00505661
-0.00534101
-0.00548532
-0.351126
-0.356671
-0.354873
-0.353156
-0.348946
-0.343856
-0.337529
-0.330338
-0.322297
-0.313524
-0.304073
-0.294008
-0.283371
-0.272204
-0.26055
-0.248438
-0.235902
-0.222976
-0.209693
-0.196094
-0.182228
-0.168154
-0.153943
-0.139684
-0.125484
-0.11147
-0.0977839
-0.0845813
-0.0720255
-0.060278
-0.0494884
-0.0397853
-0.0312655
-0.0239873
-0.0179652
-0.0131684
-0.00952263
-0.00691283
-0.00519248
-0.00419369
-0.00374331
-0.0036754
-0.0038502
-0.00415112
-0.00450546
-0.00484589
-0.00516577
-0.00540564
-0.0056336
-0.00572786
-0.353459
-0.358372
-0.356426
-0.35444
-0.3501
-0.34488
-0.338475
-0.331225
-0.323151
-0.314364
-0.304918
-0.294873
-0.284269
-0.27315
-0.261556
-0.249516
-0.237061
-0.224226
-0.211043
-0.197551
-0.183797
-0.169837
-0.155741
-0.141596
-0.127507
-0.113597
-0.100007
-0.0868891
-0.0744036
-0.0627085
-0.0519501
-0.042253
-0.0337105
-0.0263785
-0.0202699
-0.0153542
-0.0115599
-0.0087772
-0.00686696
-0.00567031
-0.00502358
-0.00476928
-0.00477417
-0.00492508
-0.00515087
-0.0053825
-0.00561277
-0.00577707
-0.00594572
-0.00598706
-0.355974
-0.360207
-0.358101
-0.355824
-0.35134
-0.34598
-0.339487
-0.332172
-0.324061
-0.315257
-0.305812
-0.295785
-0.285215
-0.274143
-0.262608
-0.250638
-0.238264
-0.225518
-0.212432
-0.199042
-0.185393
-0.171541
-0.157553
-0.143514
-0.129527
-0.115713
-0.102212
-0.0891718
-0.0767518
-0.0651063
-0.0543782
-0.0446883
-0.0361265
-0.0287455
-0.0225566
-0.0175295
-0.0135946
-0.0106469
-0.00855397
-0.00716556
-0.00632707
-0.00588928
-0.00572554
-0.00572634
-0.00582243
-0.00594334
-0.00608179
-0.00616803
-0.0062751
-0.00626107
-0.358664
-0.362174
-0.359894
-0.357304
-0.352664
-0.347151
-0.340562
-0.333175
-0.325021
-0.316196
-0.306751
-0.29674
-0.286202
-0.275174
-0.263697
-0.251795
-0.239499
-0.226838
-0.213842
-0.200547
-0.186997
-0.173243
-0.159353
-0.14541
-0.131515
-0.117788
-0.104367
-0.0913988
-0.0790401
-0.0674424
-0.0567451
-0.0470652
-0.0384889
-0.0310654
-0.0248042
-0.0196745
-0.0156084
-0.012505
-0.0102383
-0.00866585
-0.00764191
-0.00702529
-0.00669588
-0.00654798
-0.00651454
-0.00652396
-0.00656923
-0.00657566
-0.00661939
-0.00654802
-0.361523
-0.364266
-0.361799
-0.358875
-0.354068
-0.348389
-0.341696
-0.334229
-0.326028
-0.317178
-0.307729
-0.297731
-0.287223
-0.276237
-0.264814
-0.252977
-0.240752
-0.22817
-0.215258
-0.20205
-0.188587
-0.174922
-0.161118
-0.147259
-0.133445
-0.119796
-0.106446
-0.0935447
-0.0812441
-0.0696936
-0.0590292
-0.0493636
-0.0407788
-0.0333208
-0.0269962
-0.0217737
-0.0175867
-0.0143379
-0.0119071
-0.0101596
-0.00895778
-0.00816831
-0.00767752
-0.00738359
-0.0072219
-0.00712002
-0.0070716
-0.00699711
-0.00697629
-0.00684599
-0.364542
-0.366479
-0.363814
-0.360534
-0.355547
-0.34969
-0.342885
-0.335332
-0.327078
-0.318197
-0.30874
-0.298752
-0.288271
-0.277324
-0.265949
-0.254171
-0.242013
-0.229502
-0.216664
-0.203532
-0.190146
-0.176556
-0.162827
-0.149039
-0.135295
-0.121713
-0.108429
-0.0955887
-0.0833444
-0.0718422
-0.0612139
-0.0515682
-0.0429825
-0.0354985
-0.0291203
-0.0238154
-0.0195182
-0.0161346
-0.0135502
-0.0116371
-0.0102658
-0.00931045
-0.00866358
-0.00822728
-0.00793958
-0.00772742
-0.00758549
-0.0074296
-0.00734349
-0.00715308
-0.367714
-0.368809
-0.365932
-0.362277
-0.357098
-0.351051
-0.344125
-0.336478
-0.328165
-0.31925
-0.30978
-0.299798
-0.28934
-0.278426
-0.267095
-0.25537
-0.243269
-0.230819
-0.218046
-0.204978
-0.191656
-0.178128
-0.164459
-0.150731
-0.137045
-0.123522
-0.110296
-0.0975149
-0.0853267
-0.0738751
-0.0632879
-0.0536688
-0.0450902
-0.0375895
-0.0311676
-0.0257907
-0.021394
-0.0178865
-0.0151589
-0.0130903
-0.0115585
-0.0104448
-0.00964792
-0.00907373
-0.00866298
-0.00834228
-0.00810766
-0.00787043
-0.00771874
-0.00746743
-0.371033
-0.37125
-0.36815
-0.3641
-0.358716
-0.352469
-0.345413
-0.337663
-0.329285
-0.32033
-0.310845
-0.300863
-0.290422
-0.279538
-0.268242
-0.256561
-0.244509
-0.232111
-0.219389
-0.206372
-0.1931
-0.17962
-0.165998
-0.152317
-0.13868
-0.125208
-0.112036
-0.0993116
-0.0871808
-0.0757837
-0.0652436
-0.0556585
-0.0470956
-0.0395876
-0.0331319
-0.0276933
-0.0232077
-0.0195869
-0.0167267
-0.0145125
-0.0128294
-0.0115655
-0.0106251
-0.00991809
-0.00938788
-0.00896098
-0.008635
-0.00831699
-0.00809984
-0.00778721
-0.37449
-0.373797
-0.370462
-0.365998
-0.360399
-0.353939
-0.346744
-0.338885
-0.330436
-0.321436
-0.311928
-0.301943
-0.291512
-0.280651
-0.269383
-0.257737
-0.245724
-0.233364
-0.220681
-0.207701
-0.194464
-0.181017
-0.167429
-0.153784
-0.140186
-0.126759
-0.113639
-0.100971
-0.0889006
-0.0775631
-0.0670768
-0.0575338
-0.0489954
-0.0414892
-0.0350093
-0.0295188
-0.0249543
-0.0212306
-0.0182481
-0.0158984
-0.0140733
-0.0126674
-0.0115905
-0.0107561
-0.0101104
-0.00958013
-0.0091646
-0.00876678
-0.00848468
-0.0081106
-0.378079
-0.376445
-0.372865
-0.367969
-0.362144
-0.355459
-0.348116
-0.34014
-0.331614
-0.322562
-0.313026
-0.303031
-0.292604
-0.28176
-0.27051
-0.258888
-0.246902
-0.234569
-0.22191
-0.208952
-0.195735
-0.182308
-0.16874
-0.15512
-0.141554
-0.128168
-0.115098
-0.102489
-0.0904831
-0.0792114
-0.0687862
-0.0592934
-0.050788
-0.0432925
-0.0367975
-0.0312644
-0.0266306
-0.0228138
-0.0197189
-0.0172436
-0.0152858
-0.0137462
-0.0125398
-0.0115838
-0.0108271
-0.0101966
-0.00969371
-0.00921743
-0.0088712
-0.00843589
-0.381792
-0.379191
-0.375354
-0.370009
-0.363945
-0.357025
-0.349526
-0.341425
-0.332815
-0.323706
-0.314136
-0.304123
-0.293692
-0.282856
-0.271616
-0.260007
-0.248035
-0.235714
-0.223064
-0.210113
-0.196901
-0.183479
-0.169921
-0.156317
-0.142778
-0.12943
-0.116411
-0.103864
-0.0919281
-0.0807289
-0.0703726
-0.060938
-0.0524738
-0.0449972
-0.0384953
-0.0329283
-0.0282343
-0.0243338
-0.0211362
-0.0185446
-0.0164632
-0.0147982
-0.0134695
-0.0123978
-0.0115348
-0.0108076
-0.0102198
-0.00966669
-0.00925747
-0.00876137
-0.385622
-0.382028
-0.377925
-0.372114
-0.365802
-0.358634
-0.350971
-0.342739
-0.334037
-0.324864
-0.315253
-0.305216
-0.294772
-0.283934
-0.272694
-0.261084
-0.249113
-0.23679
-0.224134
-0.211174
-0.197952
-0.184524
-0.170965
-0.157371
-0.143854
-0.130543
-0.117578
-0.105097
-0.0932374
-0.0821181
-0.0718381
-0.0624694
-0.054054
-0.0466039
-0.0401028
-0.0345099
-0.029764
-0.0257886
-0.0224974
-0.0197988
-0.0176026
-0.0158205
-0.0143766
-0.0131952
-0.0122305
-0.0114104
-0.0107404
-0.0101125
-0.00964163
-0.00908544
-0.389563
-0.384954
-0.380573
-0.374282
-0.36771
-0.360286
-0.352449
-0.344077
-0.335278
-0.326034
-0.316374
-0.306305
-0.295838
-0.284989
-0.273737
-0.262112
-0.250129
-0.237787
-0.225109
-0.212126
-0.198881
-0.185434
-0.171866
-0.158276
-0.14478
-0.131508
-0.118599
-0.106192
-0.0944146
-0.0833824
-0.0731863
-0.0638906
-0.0555308
-0.0481139
-0.0416206
-0.0360089
-0.0312189
-0.027177
-0.0238009
-0.0210042
-0.0187017
-0.0168103
-0.0152583
-0.0139733
-0.0129118
-0.0120026
-0.0112534
-0.0105528
-0.0100219
-0.00940653
-0.393608
-0.387962
-0.383295
-0.376508
-0.369667
-0.361976
-0.353959
-0.345439
-0.336534
-0.327211
-0.317496
-0.307386
-0.296888
-0.286013
-0.274739
-0.263085
-0.251073
-0.238697
-0.225982
-0.212961
-0.19968
-0.186205
-0.172621
-0.159032
-0.145556
-0.132326
-0.11948
-0.107151
-0.0954644
-0.0845266
-0.0744211
-0.0652049
-0.0569068
-0.049529
-0.0430496
-0.0374259
-0.032599
-0.0284983
-0.0250456
-0.0221591
-0.0197586
-0.0177656
-0.0161123
-0.0147297
-0.0135763
-0.0125821
-0.0117566
-0.0109857
-0.0103967
-0.00972317
-0.39775
-0.391049
-0.386087
-0.378791
-0.371671
-0.363703
-0.355497
-0.346823
-0.337804
-0.328396
-0.318616
-0.308456
-0.297916
-0.287003
-0.275695
-0.263996
-0.251938
-0.239513
-0.226745
-0.213672
-0.200345
-0.186834
-0.173229
-0.159639
-0.146185
-0.133002
-0.120224
-0.107981
-0.0963921
-0.0855556
-0.0755471
-0.066416
-0.0581848
-0.0508515
-0.0443914
-0.0387615
-0.0339045
-0.0297523
-0.0262307
-0.0232625
-0.0207718
-0.0186847
-0.0169368
-0.0154625
-0.0142221
-0.013147
-0.0122483
-0.0114097
-0.0107643
-0.0100339
-0.401984
-0.39421
-0.388945
-0.381128
-0.37372
-0.365467
-0.357064
-0.348227
-0.339087
-0.329584
-0.319731
-0.309511
-0.298918
-0.287953
-0.276596
-0.264838
-0.252718
-0.240228
-0.227393
-0.214255
-0.200872
-0.187318
-0.173689
-0.160099
-0.146672
-0.13354
-0.120838
-0.108688
-0.0972039
-0.086475
-0.0765689
-0.0675277
-0.0593679
-0.0520834
-0.0456475
-0.040017
-0.0351358
-0.0309391
-0.0273559
-0.0243135
-0.0217401
-0.019566
-0.0177301
-0.0161699
-0.0148472
-0.0136954
-0.0127267
-0.011823
-0.0111233
-0.0103375
-0.406304
-0.397443
-0.391867
-0.383516
-0.375812
-0.367265
-0.358657
-0.349649
-0.340381
-0.330776
-0.32084
-0.310549
-0.29989
-0.288858
-0.277437
-0.265605
-0.253405
-0.240836
-0.22792
-0.214706
-0.201258
-0.187657
-0.174004
-0.160416
-0.14702
-0.133947
-0.121327
-0.109279
-0.0979056
-0.08729
-0.0774911
-0.0685438
-0.0604592
-0.0532273
-0.0468197
-0.0411935
-0.0362939
-0.0320589
-0.0284211
-0.0253117
-0.0226628
-0.0204086
-0.0184909
-0.0168503
-0.0154501
-0.0142258
-0.0131903
-0.0122242
-0.0114724
-0.0106325
-0.410704
-0.400742
-0.394848
-0.385953
-0.377946
-0.369096
-0.360275
-0.351089
-0.341686
-0.331968
-0.321939
-0.311565
-0.300828
-0.289715
-0.278212
-0.266291
-0.253995
-0.241331
-0.228322
-0.215023
-0.201503
-0.187852
-0.174176
-0.160595
-0.147236
-0.134229
-0.1217
-0.109759
-0.0985033
-0.0880059
-0.0783182
-0.069468
-0.0614615
-0.0542854
-0.04791
-0.0422923
-0.0373797
-0.0331123
-0.0294265
-0.0262568
-0.0235391
-0.0212114
-0.0192178
-0.0175025
-0.0160294
-0.0147367
-0.0136374
-0.012612
-0.0118101
-0.0109178
-0.415179
-0.404104
-0.397886
-0.388437
-0.380119
-0.370959
-0.361919
-0.352547
-0.342998
-0.33316
-0.323027
-0.312557
-0.301728
-0.290518
-0.278916
-0.266891
-0.254483
-0.241709
-0.228595
-0.215202
-0.201608
-0.187907
-0.17421
-0.160641
-0.147326
-0.134394
-0.121962
-0.110136
-0.0990028
-0.0886277
-0.0790542
-0.0703037
-0.0623777
-0.0552601
-0.04892
-0.0433151
-0.0383942
-0.0341001
-0.0303722
-0.0271487
-0.0243688
-0.0219737
-0.0199102
-0.0181253
-0.0165839
-0.015227
-0.0140669
-0.0129852
-0.0121353
-0.0111923
-0.419724
-0.407526
-0.400978
-0.390967
-0.382332
-0.372853
-0.363587
-0.354021
-0.344319
-0.334349
-0.324101
-0.313522
-0.302585
-0.291263
-0.279543
-0.267399
-0.254863
-0.241966
-0.228738
-0.215245
-0.201573
-0.187823
-0.17411
-0.16056
-0.147298
-0.134447
-0.122121
-0.110415
-0.0994095
-0.0891602
-0.0797033
-0.0710543
-0.0632107
-0.0561537
-0.0498518
-0.0442633
-0.0393386
-0.035023
-0.0312589
-0.0279876
-0.0251515
-0.022695
-0.020567
-0.0187179
-0.0171124
-0.0156955
-0.0144776
-0.0133426
-0.0124467
-0.0114547
-0.424335
-0.411004
-0.404122
-0.393541
-0.384581
-0.374778
-0.365278
-0.35551
-0.345647
-0.335534
-0.325158
-0.314456
-0.303395
-0.291944
-0.280089
-0.267811
-0.255132
-0.242099
-0.228748
-0.215151
-0.201401
-0.187605
-0.173883
-0.160359
-0.147157
-0.134397
-0.122182
-0.110603
-0.0997286
-0.0896075
-0.0802688
-0.0717228
-0.0639628
-0.0569683
-0.0507073
-0.0451385
-0.0402141
-0.0358819
-0.032087
-0.0287737
-0.0258872
-0.0233749
-0.0211879
-0.0192794
-0.0176141
-0.0161413
-0.0148682
-0.0136833
-0.0127431
-0.0117041
-0.429006
-0.414534
-0.407314
-0.396157
-0.386868
-0.376733
-0.366993
-0.357015
-0.34698
-0.336714
-0.326197
-0.315356
-0.304155
-0.292558
-0.28055
-0.268119
-0.255287
-0.242107
-0.228626
-0.214922
-0.201096
-0.187259
-0.173533
-0.160044
-0.146912
-0.134249
-0.122154
-0.110705
-0.0999647
-0.0899736
-0.0807543
-0.0723118
-0.0646365
-0.0577061
-0.051488
-0.0459421
-0.0410221
-0.0366778
-0.0328571
-0.0295072
-0.0265758
-0.0240132
-0.0217722
-0.0198091
-0.0180882
-0.0165635
-0.0152379
-0.0140065
-0.0130234
-0.0119393
-0.433734
-0.418114
-0.410553
-0.398812
-0.38919
-0.378718
-0.368731
-0.358535
-0.348318
-0.337886
-0.327213
-0.316218
-0.304859
-0.293099
-0.280921
-0.268322
-0.255324
-0.241987
-0.228372
-0.214561
-0.200661
-0.186789
-0.173069
-0.159623
-0.146569
-0.134011
-0.122039
-0.110726
-0.100122
-0.0902621
-0.0811626
-0.0728241
-0.0652342
-0.058369
-0.052196
-0.0466758
-0.0417636
-0.0374117
-0.0335701
-0.0301886
-0.0272175
-0.0246098
-0.0223197
-0.0203066
-0.0185341
-0.0169614
-0.0155857
-0.0143113
-0.0132865
-0.0121591
-0.438514
-0.42174
-0.413836
-0.401507
-0.391546
-0.380731
-0.370491
-0.360068
-0.349658
-0.339048
-0.328205
-0.317039
-0.305504
-0.293562
-0.281196
-0.268414
-0.255241
-0.24174
-0.227986
-0.214069
-0.2001
-0.186201
-0.172495
-0.159102
-0.146134
-0.133688
-0.121845
-0.110669
-0.100204
-0.090476
-0.0814964
-0.073262
-0.0657578
-0.0589589
-0.0528328
-0.0473409
-0.0424402
-0.0380846
-0.0342265
-0.0308184
-0.0278126
-0.0251645
-0.0228301
-0.0207715
-0.0189512
-0.0173344
-0.0159109
-0.0145972
-0.0135311
-0.0123624
-0.443342
-0.425409
-0.417159
-0.404239
-0.393937
-0.382773
-0.372273
-0.361614
-0.351
-0.340198
-0.329168
-0.317813
-0.306085
-0.293943
-0.281375
-0.268394
-0.255037
-0.241366
-0.227472
-0.213452
-0.199421
-0.185502
-0.171819
-0.158488
-0.145614
-0.133285
-0.121576
-0.11054
-0.100214
-0.0906181
-0.0817582
-0.0736277
-0.0662094
-0.0594777
-0.0534002
-0.0479391
-0.0430529
-0.0386974
-0.0348273
-0.031397
-0.0283612
-0.0256775
-0.0233032
-0.0212033
-0.0193392
-0.017682
-0.0162128
-0.0148638
-0.0137562
-0.0125485
-0.448213
-0.429118
-0.420521
-0.407007
-0.39636
-0.384843
-0.374075
-0.363171
-0.352341
-0.341332
-0.330099
-0.318537
-0.306597
-0.294236
-0.281451
-0.26826
-0.254707
-0.240865
-0.22683
-0.212712
-0.198626
-0.184698
-0.171047
-0.157787
-0.145013
-0.132808
-0.121236
-0.110342
-0.100155
-0.0906909
-0.0819501
-0.073923
-0.0665908
-0.0599272
-0.0538997
-0.0484717
-0.043603
-0.0392514
-0.0353732
-0.031925
-0.0288637
-0.0261488
-0.0237391
-0.0216019
-0.0196977
-0.0180038
-0.0164908
-0.0151104
-0.0139601
-0.0127156
-0.453124
-0.432864
-0.42392
-0.409809
-0.398814
-0.386939
-0.375897
-0.364738
-0.353679
-0.342448
-0.330994
-0.319207
-0.307035
-0.294438
-0.281422
-0.268008
-0.254254
-0.240238
-0.226066
-0.211854
-0.197722
-0.183793
-0.170185
-0.157004
-0.144338
-0.132261
-0.120828
-0.110076
-0.10003
-0.0906966
-0.0820741
-0.07415
-0.0669038
-0.0603088
-0.0543329
-0.0489402
-0.0440919
-0.0397474
-0.0358649
-0.0324031
-0.0293205
-0.0265786
-0.0241378
-0.0219672
-0.0200267
-0.0182994
-0.0167446
-0.015337
-0.0141394
-0.0128566
-0.458069
-0.436642
-0.427352
-0.412643
-0.401299
-0.389061
-0.377737
-0.366312
-0.355011
-0.343541
-0.331848
-0.319816
-0.307393
-0.294545
-0.281283
-0.267637
-0.253675
-0.239487
-0.225181
-0.210883
-0.196714
-0.182795
-0.169239
-0.156144
-0.143592
-0.131647
-0.120355
-0.109748
-0.0998402
-0.0906371
-0.082132
-0.0743102
-0.0671501
-0.0606242
-0.0547012
-0.0493458
-0.0445206
-0.0401865
-0.0363035
-0.0328319
-0.0297321
-0.0269673
-0.0244993
-0.0222991
-0.0203262
-0.0185687
-0.0169746
-0.0155443
-0.014289
-0.0129592
-0.463046
-0.440449
-0.430814
-0.415507
-0.403812
-0.391206
-0.379592
-0.367891
-0.356334
-0.344608
-0.332657
-0.32036
-0.307668
-0.294552
-0.281031
-0.267145
-0.252972
-0.238614
-0.22418
-0.209804
-0.195609
-0.181709
-0.168214
-0.155213
-0.14278
-0.13097
-0.119821
-0.109357
-0.0995883
-0.0905142
-0.0821255
-0.0744053
-0.067331
-0.060875
-0.0550061
-0.04969
-0.0448905
-0.0405698
-0.0366897
-0.033212
-0.0300988
-0.027315
-0.0248237
-0.0225975
-0.020596
-0.0188114
-0.0171817
-0.0157341
-0.0144068
-0.0130324
-0.468048
-0.444282
-0.434305
-0.4184
-0.406352
-0.393373
-0.381462
-0.369472
-0.357643
-0.345644
-0.333414
-0.320834
-0.307853
-0.294456
-0.280663
-0.266531
-0.252146
-0.237619
-0.223067
-0.208622
-0.19441
-0.18054
-0.167114
-0.154214
-0.141905
-0.130232
-0.119227
-0.108907
-0.0992756
-0.0903294
-0.082056
-0.0744367
-0.0674481
-0.0610624
-0.0552489
-0.049974
-0.0452025
-0.0408982
-0.0370243
-0.033544
-0.0304213
-0.0276221
-0.0251113
-0.0228626
-0.0208362
-0.0190274
-0.0173668
-0.0159071
-0.0145041
-0.013153
-0.473071
-0.448137
-0.43782
-0.421319
-0.408916
-0.395561
-0.383343
-0.371052
-0.358934
-0.346643
-0.334116
-0.321231
-0.307943
-0.294252
-0.280178
-0.265795
-0.251198
-0.236508
-0.221845
-0.207342
-0.193123
-0.179293
-0.165944
-0.153152
-0.14097
-0.129437
-0.118576
-0.108398
-0.0989037
-0.090084
-0.0819247
-0.0744057
-0.0675027
-0.061188
-0.0554309
-0.050199
-0.045458
-0.0411728
-0.0373081
-0.0338288
-0.0306999
-0.027889
-0.0253623
-0.0230945
-0.0210468
-0.0192164
-0.0175304
-0.0160598
-0.0146019
-0.0134137
-0.47811
-0.452009
-0.441356
-0.42426
-0.411502
-0.397764
-0.385231
-0.372625
-0.360203
-0.3476
-0.334755
-0.321546
-0.307937
-0.293934
-0.279572
-0.264936
-0.250131
-0.235282
-0.220518
-0.205969
-0.191752
-0.177972
-0.164708
-0.152028
-0.139977
-0.128585
-0.117869
-0.107833
-0.0984737
-0.0897793
-0.0817331
-0.0743137
-0.0674963
-0.0612529
-0.0555536
-0.0503663
-0.0456579
-0.0413946
-0.0375422
-0.0340669
-0.0309353
-0.0281161
-0.0255768
-0.0232932
-0.0212278
-0.0193785
-0.0176721
-0.0161894
-0.0147046
-0.0135896
-0.483159
-0.455894
-0.444909
-0.427221
-0.414107
-0.399982
-0.387123
-0.374188
-0.361443
-0.348508
-0.335325
-0.321772
-0.307826
-0.293501
-0.278844
-0.263954
-0.248944
-0.233946
-0.219091
-0.204506
-0.190304
-0.17658
-0.163409
-0.150846
-0.138929
-0.127679
-0.117107
-0.107213
-0.097987
-0.0894165
-0.0814823
-0.0741619
-0.06743
-0.0612586
-0.055618
-0.0504771
-0.0458035
-0.0415646
-0.0377273
-0.0342591
-0.031128
-0.0283037
-0.0257552
-0.0234589
-0.021379
-0.0195135
-0.0177908
-0.0162959
-0.014794
-0.0137082
-0.488212
-0.459787
-0.448476
-0.430198
-0.416726
-0.402208
-0.389013
-0.375735
-0.362648
-0.349361
-0.335819
-0.321904
-0.307608
-0.292948
-0.277994
-0.262851
-0.247641
-0.232503
-0.217567
-0.202957
-0.18878
-0.175123
-0.162051
-0.149609
-0.137827
-0.12672
-0.116292
-0.106537
-0.0974443
-0.0889965
-0.0811734
-0.0739515
-0.067305
-0.0612062
-0.0556255
-0.0505325
-0.0458958
-0.0416836
-0.0378642
-0.0344061
-0.0312785
-0.0284524
-0.0258979
-0.0235919
-0.0215006
-0.0196214
-0.017886
-0.0163787
-0.0148651
-0.0137844
-0.493263
-0.463684
-0.45205
-0.433187
-0.419357
-0.40444
-0.390897
-0.37726
-0.363813
-0.350153
-0.336231
-0.321934
-0.307277
-0.292274
-0.277019
-0.261626
-0.246225
-0.230956
-0.21595
-0.201327
-0.187185
-0.173602
-0.160634
-0.148317
-0.136673
-0.12571
-0.115424
-0.105808
-0.0968467
-0.0885203
-0.0808074
-0.0736835
-0.0671226
-0.0610968
-0.0555771
-0.0505336
-0.0459357
-0.0417527
-0.0379538
-0.0345086
-0.0313876
-0.0285625
-0.026005
-0.0236923
-0.0215926
-0.0197023
-0.017957
-0.0164378
-0.0149156
-0.0138278
-0.498304
-0.467578
-0.455628
-0.436183
-0.421993
-0.406672
-0.392769
-0.378755
-0.364928
-0.350875
-0.336553
-0.321861
-0.306825
-0.291475
-0.27592
-0.260281
-0.244696
-0.229308
-0.214245
-0.19962
-0.185522
-0.17202
-0.159162
-0.146973
-0.135468
-0.124648
-0.114505
-0.105027
-0.0961948
-0.0879888
-0.0803852
-0.073359
-0.0668837
-0.0609316
-0.055474
-0.0504815
-0.0459245
-0.0417728
-0.0379969
-0.0345674
-0.0314557
-0.0286346
-0.0260769
-0.0237605
-0.021655
-0.0197562
-0.0180035
-0.0164734
-0.0149449
-0.0138444
-0.503329
-0.471463
-0.459204
-0.439182
-0.424631
-0.408897
-0.394623
-0.380215
-0.365987
-0.351519
-0.336777
-0.321677
-0.30625
-0.29055
-0.274695
-0.258816
-0.243059
-0.227563
-0.212454
-0.197837
-0.183793
-0.17038
-0.157636
-0.145578
-0.134213
-0.123535
-0.113534
-0.104192
-0.0954895
-0.0874027
-0.0799078
-0.0729791
-0.0665896
-0.0607118
-0.0553173
-0.0503774
-0.0458629
-0.0417449
-0.0379943
-0.0345831
-0.0314835
-0.0286692
-0.0261141
-0.0237966
-0.021688
-0.019783
-0.0180253
-0.0164856
-0.0149528
-0.0138379
-0.508329
-0.475334
-0.462772
-0.442178
-0.427264
-0.411111
-0.39645
-0.381631
-0.366982
-0.352078
-0.336897
-0.321375
-0.305548
-0.289495
-0.273344
-0.257235
-0.241315
-0.225724
-0.210581
-0.195983
-0.182002
-0.168684
-0.156057
-0.144132
-0.132908
-0.122373
-0.112513
-0.103307
-0.0947313
-0.086763
-0.0793762
-0.0725445
-0.0662411
-0.0604383
-0.055108
-0.0502221
-0.0457521
-0.0416697
-0.0379469
-0.0345565
-0.0314715
-0.0286667
-0.0261169
-0.0238009
-0.0216917
-0.019783
-0.0180224
-0.0164747
-0.0149395
-0.0138103
-0.513295
-0.479182
-0.466325
-0.445165
-0.429885
-0.413305
-0.398244
-0.382994
-0.367902
-0.352543
-0.336905
-0.32095
-0.304716
-0.28831
-0.271868
-0.255537
-0.239466
-0.223793
-0.208628
-0.19406
-0.180149
-0.166932
-0.154427
-0.142637
-0.131554
-0.121162
-0.111442
-0.102369
-0.0939209
-0.0860702
-0.078791
-0.0720564
-0.0658393
-0.0601122
-0.0548473
-0.0500168
-0.045593
-0.0415483
-0.0378555
-0.0344882
-0.0314204
-0.0286277
-0.0260857
-0.0237738
-0.0216665
-0.0197564
-0.017995
-0.0164409
-0.0149052
-0.0137628
-0.518219
-0.483001
-0.469856
-0.448136
-0.432488
-0.415472
-0.399994
-0.384295
-0.368741
-0.352905
-0.336794
-0.320393
-0.30375
-0.286993
-0.270267
-0.253724
-0.237516
-0.221773
-0.206598
-0.192069
-0.178236
-0.165125
-0.152746
-0.141092
-0.130151
-0.119902
-0.11032
-0.101382
-0.0930589
-0.0853252
-0.0781532
-0.0715156
-0.0653852
-0.0597344
-0.0545359
-0.0497623
-0.0453865
-0.0413814
-0.0377209
-0.034379
-0.0313309
-0.0285526
-0.026021
-0.0237157
-0.0216125
-0.0197032
-0.017943
-0.0163846
-0.0148502
-0.0136964
-0.523089
-0.486783
-0.473358
-0.451083
-0.435065
-0.417602
-0.401693
-0.385525
-0.369487
-0.353155
-0.33656
-0.3197
-0.302646
-0.285542
-0.26854
-0.251799
-0.235467
-0.219666
-0.204494
-0.190014
-0.176265
-0.163266
-0.151014
-0.139499
-0.1287
-0.118592
-0.109149
-0.100343
-0.0921458
-0.0845285
-0.0774635
-0.070923
-0.0648797
-0.0593061
-0.0541751
-0.0494598
-0.0451335
-0.0411701
-0.0375438
-0.0342296
-0.0312034
-0.0284421
-0.0259231
-0.0236268
-0.02153
-0.0196238
-0.0178669
-0.0163059
-0.0147749
-0.0136113
-0.527897
-0.490519
-0.476822
-0.453999
-0.437606
-0.419688
-0.403331
-0.386673
-0.370131
-0.353284
-0.336194
-0.318866
-0.301403
-0.283957
-0.26669
-0.249763
-0.233319
-0.217476
-0.202316
-0.187894
-0.174237
-0.161353
-0.149233
-0.137856
-0.1272
-0.117234
-0.107929
-0.0992552
-0.0911822
-0.0836808
-0.0767226
-0.0702795
-0.0643237
-0.058828
-0.0537657
-0.04911
-0.044835
-0.040915
-0.037325
-0.0340408
-0.0310388
-0.0282966
-0.0257927
-0.0235075
-0.0214194
-0.0195184
-0.0177666
-0.0162051
-0.0146793
-0.0135079
-0.53263
-0.494201
-0.48024
-0.456875
-0.440103
-0.421719
-0.404896
-0.387729
-0.370663
-0.353284
-0.335688
-0.317887
-0.300017
-0.282236
-0.264716
-0.247617
-0.231077
-0.215202
-0.200067
-0.185711
-0.172153
-0.159389
-0.147401
-0.136166
-0.125652
-0.115827
-0.10666
-0.0981175
-0.0901685
-0.0827829
-0.0759315
-0.0695858
-0.0637181
-0.0583012
-0.0533086
-0.048714
-0.0444919
-0.0406171
-0.0370654
-0.0338131
-0.0308375
-0.0281168
-0.02563
-0.0233583
-0.0212809
-0.0193872
-0.0176425
-0.0160825
-0.0145637
-0.0133864
-0.537276
-0.497817
-0.483601
-0.459702
-0.442546
-0.423684
-0.406378
-0.388682
-0.371072
-0.353146
-0.335037
-0.316758
-0.298485
-0.28038
-0.262619
-0.245362
-0.22874
-0.212848
-0.197747
-0.183467
-0.170013
-0.157372
-0.14552
-0.134426
-0.124055
-0.114372
-0.105342
-0.0969305
-0.0891052
-0.0818352
-0.0750906
-0.0688428
-0.0630638
-0.0577266
-0.0528048
-0.0482726
-0.0441049
-0.0402772
-0.0367657
-0.0335474
-0.0306002
-0.0279031
-0.0254357
-0.0231795
-0.0211149
-0.0192306
-0.0174949
-0.0159382
-0.0144283
-0.0132468
-0.541823
-0.501359
-0.486896
-0.462469
-0.444924
-0.425573
-0.407765
-0.389521
-0.371349
-0.352861
-0.334228
-0.315476
-0.296806
-0.278387
-0.2604
-0.243001
-0.226311
-0.210415
-0.195359
-0.181162
-0.167817
-0.155303
-0.143589
-0.132638
-0.122411
-0.112869
-0.103975
-0.0956946
-0.087993
-0.0808385
-0.0742009
-0.0680513
-0.0623616
-0.057105
-0.0522552
-0.0477868
-0.0436751
-0.0398961
-0.0364266
-0.0332443
-0.0303277
-0.0276562
-0.0252102
-0.0229717
-0.0209218
-0.0190489
-0.0173239
-0.0157725
-0.0142732
-0.0130894
-0.546258
-0.504816
-0.490115
-0.465167
-0.447226
-0.427373
-0.409046
-0.390234
-0.371482
-0.352421
-0.333259
-0.314036
-0.294976
-0.276257
-0.25806
-0.240534
-0.223792
-0.207903
-0.192902
-0.178795
-0.165565
-0.153182
-0.141608
-0.130801
-0.120717
-0.111317
-0.10256
-0.0944102
-0.0868321
-0.0797933
-0.073263
-0.0672121
-0.0616125
-0.0564373
-0.0516607
-0.0472574
-0.0432032
-0.0394746
-0.036049
-0.0329046
-0.0300204
-0.0273766
-0.024954
-0.0227351
-0.0207019
-0.0188423
-0.0171299
-0.0155856
-0.0140987
-0.0129142
-0.550567
-0.508175
-0.493244
-0.467783
-0.44944
-0.429073
-0.410207
-0.390808
-0.371461
-0.351821
-0.332121
-0.312435