/*--------------------------------*- C++ -*----------------------------------*\
  =========                 |
  \\      /  F ield         | OpenFOAM: The Open Source CFD Toolbox
   \\    /   O peration     | Website:  https://openfoam.org
    \\  /    A nd           | Version:  7
     \\/     M anipulation  |
\*---------------------------------------------------------------------------*/
FoamFile
{
    version     2.0;
    format      ascii;
    class       volScalarField;
    location    "0.25";
    object      p;
}
// * * * * * * * * * * * * * * * * * * * * * * * * * * * * * * * * * * * * * //

dimensions      [0 2 -2 0 0 0 0];

internalField   nonuniform List<scalar> 
10000
(
4.66177e-06
0.000103498
-0.000119373
-0.000707927
-0.00161211
-0.00277567
-0.00414152
-0.00565486
-0.00726602
-0.00893108
-0.0106115
-0.0122736
-0.0138881
-0.0154297
-0.0168762
-0.0182089
-0.0194115
-0.0204702
-0.0213735
-0.0221117
-0.0226771
-0.0230635
-0.0232661
-0.0232816
-0.0231079
-0.0227441
-0.0221901
-0.0214472
-0.0205172
-0.0194028
-0.0181076
-0.016636
-0.0149926
-0.0131832
-0.0112137
-0.00909085
-0.00682173
-0.00441396
-0.00187555
0.000785031
0.00355897
0.00643709
0.00940989
0.0124675
0.0156
0.0187968
0.0220475
0.0253413
0.0286672
0.0320141
0.0353707
0.0387258
0.0420679
0.0453855
0.0486673
0.0519019
0.0550778
0.0581839
0.061209
0.0641424
0.0669732
0.069691
0.072286
0.0747482
0.0770685
0.0792381
0.0812486
0.0830925
0.0847626
0.0862527
0.0875571
0.0886712
0.0895912
0.090314
0.090838
0.0911623
0.0912875
0.0912151
0.0909484
0.0904917
0.089851
0.0890342
0.0880506
0.0869114
0.0856302
0.0842225
0.0827064
0.0811024
0.0794343
0.0777288
0.0760165
0.0743317
0.0727134
0.0712054
0.0698563
0.068719
0.0678473
0.0672925
0.067097
0.0672073
-8.73231e-05
9.08142e-06
-0.000208002
-0.000733932
-0.00151769
-0.00251978
-0.00369838
-0.00501019
-0.00641404
-0.00787219
-0.00935053
-0.0108186
-0.0122493
-0.013619
-0.0149067
-0.0160942
-0.017166
-0.0181083
-0.0189099
-0.0195611
-0.020054
-0.0203823
-0.0205409
-0.0205263
-0.020336
-0.0199688
-0.0194242
-0.0187029
-0.0178065
-0.0167372
-0.0154982
-0.0140932
-0.0125267
-0.0108036
-0.00892973
-0.00691106
-0.00475429
-0.00246652
-5.52638e-05
0.00247152
0.00510554
0.00783811
0.0106603
0.0135627
0.0165359
0.01957
0.022655
0.0257807
0.0289367
0.0321124
0.0352972
0.0384803
0.0416509
0.0447982
0.0479113
0.0509794
0.0539918
0.0569379
0.0598073
0.0625896
0.0652749
0.0678533
0.0703154
0.0726522
0.074855
0.0769156
0.0788263
0.0805802
0.0821707
0.083592
0.0848392
0.0859081
0.0867952
0.0874982
0.0880158
0.0883474
0.088494
0.0884576
0.0882413
0.08785
0.0872897
0.0865682
0.0856947
0.0846805
0.0835385
0.0822839
0.0809339
0.0795083
0.0780292
0.0765217
0.0750137
0.0735363
0.0721239
0.0708137
0.0696461
0.0686627
0.067903
0.0674027
0.067208
0.0673186
0.000136245
0.000227113
1.02097e-05
-0.000483512
-0.00119881
-0.00210277
-0.0031615
-0.00433893
-0.00560005
-0.00691204
-0.00824465
-0.00957034
-0.0108644
-0.0121046
-0.0132714
-0.0143477
-0.0153182
-0.0161701
-0.0168922
-0.017475
-0.0179107
-0.0181929
-0.0183166
-0.018278
-0.0180746
-0.0177046
-0.0171676
-0.0164639
-0.0155947
-0.0145621
-0.0133686
-0.0120179
-0.0105139
-0.00886124
-0.00706524
-0.0051316
-0.00306657
-0.000876844
0.00143047
0.00384785
0.0063674
0.00898089
0.0116798
0.0144552
0.0172981
0.0201991
0.0231485
0.0261367
0.0291537
0.0321895
0.0352338
0.0382764
0.0413069
0.0443151
0.0472906
0.050223
0.0531022
0.0559181
0.0586607
0.0613202
0.0638872
0.0663524
0.0687068
0.0709418
0.0730494
0.0750219
0.076852
0.0785332
0.0800594
0.0814253
0.0826264
0.0836588
0.0845195
0.0852065
0.0857187
0.086056
0.0862194
0.0862111
0.0860345
0.0856944
0.0851969
0.0845495
0.0837615
0.0828436
0.0818085
0.0806706
0.0794464
0.0781544
0.0768156
0.0754529
0.0740921
0.0727612
0.0714905
0.0703126
0.0692617
0.0683726
0.0676774
0.0672064
0.0670127
0.0671249
0.000723811
0.00075397
0.000504874
1.03316e-05
-0.00067859
-0.00153206
-0.00252053
-0.00361287
-0.00477871
-0.00598925
-0.00721757
-0.00843892
-0.00963073
-0.0107726
-0.0118464
-0.012836
-0.013727
-0.0145072
-0.0151658
-0.0156937
-0.0160832
-0.0163282
-0.0164236
-0.0163657
-0.0161516
-0.0157798
-0.0152495
-0.0145609
-0.0137149
-0.0127133
-0.0115586
-0.0102538
-0.00880291
-0.00721011
-0.00548035
-0.00361905
-0.00163212
0.000474114
0.00269287
0.00501701
0.00743898
0.00995095
0.0125447
0.0152119
0.0179436
0.020731
0.0235649
0.026436
0.0293346
0.0322511
0.0351759
0.0380989
0.0410104
0.0439003
0.0467589
0.0495762
0.0523424
0.0550478
0.0576831
0.0602387
0.0627057
0.0650752
0.0673387
0.069488
0.0715154
0.0734137
0.075176
0.0767961
0.0782683
0.0795877
0.0807501
0.0817518
0.0825902
0.0832636
0.0837709
0.0841123
0.0842889
0.0843031
0.0841582
0.083859
0.0834115
0.082823
0.0821024
0.0812602
0.0803084
0.0792607
0.0781327
0.0769417
0.0757072
0.0744503
0.0731946
0.0719653
0.0707894
0.0696957
0.0687139
0.067874
0.0672044
0.0667331
0.0665114
0.0665728
0.0016283
0.00154049
0.00122239
0.000698433
7.0083e-06
-0.0008253
-0.00177251
-0.00280786
-0.00390511
-0.0050391
-0.00618608
-0.00732395
-0.00843235
-0.00949274
-0.0104884
-0.0114043
-0.0122272
-0.0129454
-0.0135489
-0.0140289
-0.0143781
-0.0145904
-0.014661
-0.0145862
-0.0143632
-0.0139903
-0.0134667
-0.0127924
-0.0119682
-0.0109956
-0.00987693
-0.00861508
-0.00721356
-0.00567644
-0.00400834
-0.00221438
-0.000300156
0.00172831
0.00386459
0.00610185
0.00843292
0.0108503
0.0133461
0.0159123
0.0185406
0.0212222
0.0239485
0.0267104
0.0294988
0.0323045
0.035118
0.0379299
0.0407307
0.0435108
0.0462608
0.0489712
0.0516327
0.0542358
0.0567716
0.0592312
0.0616057
0.0638867
0.0660662
0.0681364
0.0700899
0.0719198
0.0736196
0.0751834
0.0766059
0.0778825
0.0790091
0.0799825
0.0808002
0.0814605
0.0819628
0.0823072
0.0824951
0.0825286
0.0824112
0.0821475
0.0817433
0.0812057
0.0805433
0.0797658
0.0788848
0.0779132
0.0768655
0.0757578
0.074608
0.0734356
0.0722617
0.0711089
0.0700013
0.0689642
0.0680233
0.0672048
0.0665336
0.066035
0.0657498
0.0657036
0.0027966
0.00254971
0.00213206
0.00155305
0.000833458
-3.52237e-06
-0.000935053
-0.00193838
-0.00299101
-0.00407111
-0.00515789
-0.00623175
-0.0072745
-0.00826942
-0.00920127
-0.0100563
-0.0108223
-0.0114884
-0.0120451
-0.0124842
-0.0127989
-0.0129833
-0.0130329
-0.0129439
-0.0127137
-0.0123407
-0.0118239
-0.0111632
-0.0103594
-0.00941381
-0.0083286
-0.00710642
-0.00575058
-0.00426492
-0.00265378
-0.000922036
0.000925017
0.00288164
0.00494171
0.00709871
0.00934577
0.0116757
0.0140811
0.016554
0.0190866
0.0216706
0.0242975
0.0269587
0.0296455
0.0323488
0.0350598
0.0377692
0.0404681
0.0431471
0.0457973
0.0484094
0.0509746
0.0534838
0.0559284
0.0582997
0.0605895
0.0627896
0.0648922
0.06689
0.0687759
0.0705433
0.072186
0.0736985
0.0750756
0.076313
0.0774068
0.0783541
0.0791525
0.0798005
0.0802976
0.0806439
0.0808408
0.0808905
0.0807963
0.0805627
0.0801951
0.0797005
0.0790868
0.0783635
0.0775411
0.0766318
0.0756491
0.0746079
0.0735244
0.0724164
0.0713028
0.0702039
0.0691407
0.0681354
0.0672104
0.0663882
0.0656907
0.0651404
0.0647615
0.0645664
0.00417575
0.00374311
0.00320279
0.00254715
0.00177714
0.000912745
-2.59217e-05
-0.00101974
-0.00204963
-0.00309679
-0.0041431
-0.00517137
-0.00616546
-0.0071104
-0.00799247
-0.00879921
-0.00951938
-0.010143
-0.0106614
-0.0110669
-0.0113531
-0.0115145
-0.0115468
-0.0114464
-0.011211
-0.0108387
-0.0103288
-0.00968119
-0.00889642
-0.00797584
-0.00692138
-0.00573557
-0.00442154
-0.00298291
-0.00142382
0.000251102
0.00203681
0.00392783
0.00591831
0.00800202
0.0101724
0.0124225
0.0147453
0.0171331
0.0195785
0.0220733
0.0246096
0.027179
0.0297731
0.0323832
0.0350008
0.037617
0.0402231
0.0428103
0.0453698
0.0478927
0.0503705
0.0527946
0.0551565
0.057448
0.0596611
0.0617881
0.0638213
0.0657538
0.0675787
0.0692898
0.070881
0.0723472
0.0736833
0.0748853
0.0759495
0.076873
0.0776537
0.0782901
0.0787817
0.0791288
0.0793325
0.0793952
0.0793198
0.0791107
0.0787731
0.0783135
0.0777393
0.0770594
0.0762837
0.0754234
0.0744909
0.0734998
0.0724651
0.0714025
0.0703292
0.0692629
0.0682223
0.0672266
0.066295
0.0654466
0.0647011
0.0640779
0.0635825
0.0632111
0.00571587
0.00508129
0.00440177
0.00365248
0.00281393
0.00190325
0.000938262
-6.52281e-05
-0.0010912
-0.00212361
-0.0031468
-0.0041458
-0.00510641
-0.00601537
-0.00686041
-0.00763031
-0.00831495
-0.00890523
-0.00939317
-0.00977178
-0.0100351
-0.0101781
-0.0101967
-0.0100877
-0.00984881
-0.00947838
-0.00897562
-0.00834048
-0.00757353
-0.00667602
-0.00564978
-0.00449724
-0.00322136
-0.00182559
-0.000313896
0.00130932
0.00303923
0.00487059
0.00679779
0.00881487
0.0109155
0.0130931
0.0153408
0.0176514
0.0200174
0.0224314
0.0248854
0.0273715
0.0298815
0.0324072
0.0349402
0.037472
0.0399942
0.0424983
0.0449758
0.0474182
0.0498172
0.0521645
0.054452
0.0566717
0.0588159
0.060877
0.062848
0.0647219
0.0664921
0.0681527
0.0696979
0.0711225
0.0724219
0.0735921
0.0746295
0.0755315
0.0762959
0.0769213
0.0774072
0.0777539
0.0779625
0.0780351
0.0779745
0.0777848
0.0774709
0.0770389
0.0764957
0.0758494
0.0751094
0.0742859
0.0733901
0.0724346
0.0714327
0.0703988
0.0693479
0.0682959
0.0672589
0.0662536
0.0652963
0.0644031
0.0635916
0.0628785
0.06225
0.0616856
0.00737255
0.00652728
0.00569749
0.0048417
0.00392029
0.00294802
0.0019408
0.000911526
-0.00012657
-0.0011599
-0.00217507
-0.00315913
-0.00409972
-0.00498518
-0.00580465
-0.00654815
-0.00720658
-0.0077718
-0.00823655
-0.00859451
-0.00884023
-0.00896916
-0.00897756
-0.00886251
-0.00862187
-0.0082542
-0.00775882
-0.00713569
-0.00638541
-0.0055092
-0.00450882
-0.00338662
-0.00214542
-0.000788559
0.000680174
0.00225655
0.00393594
0.0057133
0.00758326
0.00954006
0.0115777
0.0136897
0.0158695
0.0181102
0.0204047
0.0227456
0.0251254
0.0275363
0.0299705
0.0324201
0.0348769
0.0373327
0.0397795
0.0422089
0.0446128
0.046983
0.0493114
0.0515899
0.0538108
0.0559663
0.058049
0.0600515
0.0619669
0.0637886
0.0655102
0.0671258
0.06863
0.0700177
0.0712844
0.0724263
0.0734398
0.0743223
0.0750718
0.0756869
0.076167
0.0765123
0.0767239
0.0768035
0.076754
0.0765791
0.0762832
0.0758719
0.0753518
0.0747304
0.074016
0.0732181
0.0723471
0.071414
0.070431
0.0694109
0.068367
0.0673132
0.0662636
0.0652325
0.0642336
0.0632802
0.0623882
0.0615723
0.0607992
0.0600323
0.00910719
0.00804763
0.00706066
0.00608904
0.00507373
0.0040276
0.00296512
0.00189658
0.000832766
-0.000214943
-0.00123519
-0.00221689
-0.00314936
-0.00402245
-0.00482664
-0.00555313
-0.00619387
-0.00674159
-0.00718981
-0.00753288
-0.0077659
-0.00788477
-0.00788615
-0.00776741
-0.00752667
-0.00716267
-0.00667485
-0.00606327
-0.00532855
-0.00447193
-0.00349513
-0.00240044
-0.00119061
0.000131154
0.00156119
0.00309542
0.00472937
0.0064582
0.00827671
0.0101794
0.0121604
0.0142135
0.0163325
0.0185105
0.0207408
0.0230162
0.0253295
0.0276731
0.0300396
0.0324211
0.0348098
0.0371979
0.0395774
0.0419403
0.0442787
0.0465846
0.0488502
0.0510678
0.0532297
0.0553283
0.0573566
0.0593073
0.0611737
0.0629494
0.0646282
0.0662043
0.0676724
0.0690277
0.0702656
0.0713824
0.0723748
0.07324
0.073976
0.0745814
0.0750557
0.0753988
0.0756116
0.0756959
0.0756541
0.0754895
0.0752063
0.0748097
0.0743056
0.0737008
0.0730031
0.0722209
0.0713637
0.0704414
0.0694649
0.0684455
0.0673951
0.0663257
0.0652496
0.0641789
0.0631251
0.0620991
0.0611155
0.0601871
0.059262
0.0582886
0.0108865
0.00961243
0.00846449
0.00737054
0.00625301
0.0051234
0.00399508
0.00287612
0.00177514
0.000701575
-0.000335042
-0.00132531
-0.00226011
-0.00313067
-0.00392876
-0.00464667
-0.00527737
-0.00581444
-0.0062522
-0.00658562
-0.00681039
-0.00692289
-0.00692016
-0.00679993
-0.00656055
-0.00620101
-0.00572089
-0.00512034
-0.0044001
-0.00356139
-0.00260596
-0.00153605
-0.000354359
0.000935992
0.00233145
0.00382806
0.0054215
0.00710709
0.00887979
0.0107343
0.0126649
0.0146657
0.0167305
0.0188529
0.0210261
0.0232434
0.0254977
0.0277817
0.0300881
0.0324093
0.0347379
0.0370661
0.0393862
0.0416904
0.0439712
0.0462206
0.0484312
0.0505952
0.0527054
0.0547544
0.0567351
0.0586407
0.0604645
0.0622002
0.0638418
0.0653836
0.0668205
0.0681476
0.0693606
0.0704557
0.0714296
0.0722796
0.0730036
0.0736002
0.0740686
0.0744089
0.0746216
0.0747083
0.074671
0.074513
0.0742379
0.0738503
0.0733557
0.0727603
0.0720711
0.0712957
0.0704426
0.0695208
0.0685399
0.0675099
0.0664412
0.0653443
0.0642297
0.063108
0.0619884
0.0608799
0.059796
0.0587483
0.0576671
0.0564863
0.0126817
0.0111951
0.00988468
0.0086641
0.00743827
0.00621772
0.00501512
0.00383659
0.00268892
0.0015798
0.000517157
-0.000491133
-0.00143735
-0.00231403
-0.0031141
-0.00383093
-0.00445841
-0.004991
-0.00542373
-0.00575224
-0.00597278
-0.00608222
-0.00607801
-0.00595822
-0.00572151
-0.00536708
-0.00489468
-0.00430463
-0.00359773
-0.00277528
-0.00183904
-0.000791244
0.000365454
0.00162798
0.00299287
0.00445627
0.00601398
0.00766145
0.0093938
0.0112059
0.0130921
0.0150469
0.0170641
0.0191376
0.0212608
0.0234271
0.0256296
0.0278614
0.0301152
0.0323838
0.0346598
0.0369358
0.0392042
0.0414575
0.0436881
0.0458886
0.0480515
0.0501694
0.052235
0.0542413
0.0561812
0.058048
0.0598354
0.0615369
0.0631469
0.0646596
0.06607
0.0673732
0.0685651
0.0696417
0.0705998
0.0714367
0.0721503
0.072739
0.0732019
0.0735388
0.0737502
0.0738374
0.0738021
0.0736472
0.0733759
0.0729924
0.0725017
0.0719092
0.0712212
0.0704447
0.0695872
0.0686568
0.0676619
0.0666113
0.0655141
0.0643796
0.0632167
0.0620343
0.0608401
0.0596413
0.0584506
0.057279
0.0560397
0.0546529
0.0144681
0.0127723
0.0112993
0.00994949
0.00861105
0.00729393
0.00601036
0.00476488
0.00356262
0.00240981
0.00131295
0.00027854
-0.000686958
-0.00157728
-0.00238642
-0.00310875
-0.00373907
-0.00427262
-0.00470517
-0.00503299
-0.00525288
-0.0053622
-0.00535883
-0.00524119
-0.00500823
-0.00465939
-0.00419466
-0.00361447
-0.00291975
-0.00211187
-0.00119265
-0.000164324
0.000970463
0.00220868
0.00354692
0.00498141
0.00650805
0.0081224
0.00981972
0.011595
0.0134428
0.0153576
0.0173337
0.0193648
0.0214447
0.023567
0.0257249
0.0279116
0.0301202
0.0323435
0.0345744
0.0368056
0.0390298
0.0412395
0.0434275
0.0455864
0.0477088
0.0497876
0.0518156
0.0537859
0.0556916
0.057526
0.0592829
0.0609561
0.0625398
0.0640284
0.0654169
0.0667005
0.067875
0.0689364
0.0698816
0.0707077
0.0714124
0.0719942
0.072452
0.0727854
0.0729947
0.0730808
0.0730453
0.0728905
0.0726193
0.0722356
0.0717436
0.0711482
0.0704552
0.0696707
0.0688012
0.0678542
0.0668369
0.0657572
0.064623
0.0634422
0.0622226
0.0609717
0.0596957
0.0584004
0.0570982
0.0557996
0.0544017
0.0528119
0.0162241
0.0143231
0.0126886
0.0112082
0.00975426
0.00833639
0.00696666
0.00564827
0.00438498
0.00318172
0.00204373
0.000976321
-1.52067e-05
-0.000925656
-0.00175003
-0.00248363
-0.00312206
-0.00366137
-0.00409799
-0.00442882
-0.00465121
-0.00476297
-0.00476243
-0.00464837
-0.00442002
-0.00407712
-0.00361983
-0.00304877
-0.00236499
-0.00156998
-0.000665589
0.000345896
0.00146183
0.0026792
0.00399464
0.00540444
0.00690457
0.00849069
0.0101582
0.0119021
0.0137172
0.0155981
0.0175392
0.0195344
0.0215776
0.0236626
0.0257827
0.0279315
0.0301019
0.0322872
0.0344802
0.0366739
0.0388611
0.0410346
0.0431872
0.0453116
0.0474006
0.0494473
0.0514445
0.0533854
0.0552632
0.0570715
0.0588039
0.0604544
0.0620171
0.0634866
0.0648578
0.066126
0.0672869
0.0683365
0.0692716
0.0700891
0.0707869
0.071363
0.0718163
0.0721463
0.0723528
0.0724366
0.0723989
0.0722418
0.0719677
0.0715799
0.0710822
0.070479
0.0697753
0.0689766
0.0680888
0.0671182
0.0660714
0.0649552
0.0637765
0.0625422
0.0612589
0.059933
0.0585696
0.0571732
0.0557561
0.0543286
0.0527727
0.0509833
0.017931
0.0158292
0.0140348
0.0124234
0.0108521
0.00933045
0.00787059
0.00647459
0.00514503
0.00388574
0.00270086
0.00159464
0.000571346
-0.000364795
-0.00120971
-0.00195953
-0.00261067
-0.00315989
-0.00360428
-0.00394132
-0.00416889
-0.0042853
-0.00428926
-0.00417992
-0.00395683
-0.00361998
-0.00316977
-0.00260699
-0.00193284
-0.00114891
-0.000257143
0.00074014
0.00184027
0.00304022
0.00433666
0.00572592
0.00720403
0.00876673
0.0104095
0.0121274
0.0139155
0.0157684
0.0176805
0.019646
0.021659
0.0237133
0.0258025
0.0279201
0.0300594
0.0322136
0.0343759
0.0365392
0.0386966
0.0408409
0.0429651
0.045062
0.0471246
0.0491459
0.051119
0.053037
0.0548934
0.0566816
0.0583953
0.0600286
0.0615757
0.0630311
0.0643896
0.0656466
0.0667977
0.0678389
0.0687668
0.0695783
0.0702709
0.0708428
0.0712926
0.0716193
0.0718228
0.0719035
0.0718623
0.0717007
0.0714211
0.071026
0.0705189
0.0699035
0.0691844
0.0683663
0.0674544
0.0664543
0.0653718
0.0642128
0.0629834
0.0616895
0.0603368
0.0589306
0.0574752
0.055974
0.0544396
0.0528824
0.0511696
0.0491846
0.0195722
0.017274
0.015322
0.0135798
0.01189
0.0102624
0.00870944
0.00723213
0.0058321
0.00451223
0.0032757
0.00212581
0.00106592
9.93731e-05
-0.000770584
-0.00154088
-0.00220865
-0.00277133
-0.00322663
-0.00357261
-0.00380765
-0.00393051
-0.00394031
-0.00383656
-0.00361913
-0.00328827
-0.00284461
-0.00228913
-0.00162319
-0.000848484
3.29322e-05
0.00101868
0.00210605
0.00329201
0.00457323
0.00594606
0.00740658
0.00895058
0.0105736
0.0122708
0.0140374
0.0158679
0.0177571
0.0196992
0.0216883
0.0237183
0.0257832
0.0278763
0.0299913
0.0321214
0.0342598
0.0363998
0.0385343
0.0406565
0.0427592
0.0448356
0.0468785
0.0488812
0.0508367
0.0527383
0.0545794
0.0563535
0.0580544
0.0596761
0.0612128
0.062659
0.0640095
0.0652596
0.0664047
0.067441
0.0683647
0.0691727
0.0698624
0.0704317
0.070879
0.0712032
0.0714037
0.0714807
0.0714349
0.0712674
0.07098
0.070575
0.0700553
0.0694242
0.0686855
0.0678434
0.0669027
0.065868
0.0647445
0.0635375
0.0622521
0.0608934
0.0594665
0.0579759
0.0564248
0.0548162
0.0531628
0.0514755
0.0496075
0.0474307
0.0211331
0.018643
0.0165354
0.014663
0.0128543
0.0111195
0.00947118
0.00790972
0.00643589
0.00505174
0.00375965
0.00256207
0.00146156
0.000460668
-0.000438128
-0.00123247
-0.00192018
-0.00249931
-0.00296817
-0.00332534
-0.0035697
-0.00370045
-0.00371712
-0.00361955
-0.00340793
-0.00308278
-0.00264496
-0.00209565
-0.00143637
-0.000668959
0.000204439
0.00118136
0.00225905
0.00343445
0.00470421
0.00606469
0.00751201
0.00904199
0.0106502
0.012332
0.0140824
0.0158963
0.0177684
0.0196931
0.0216645
0.0236767
0.0257237
0.027799
0.0298963
0.0320091
0.0341306
0.036254
0.0383726
0.0404794
0.0425676
0.0446301
0.0466602
0.0486508
0.0505952
0.0524867
0.0543187
0.0560848
0.0577786
0.0593943
0.0609258
0.0623678
0.063715
0.0649625
0.0661057
0.0671405
0.0680633
0.0688706
0.0695597
0.0701282
0.0705744
0.0708968
0.0710948
0.0711681
0.071117
0.0709423
0.0706456
0.0702286
0.0696937
0.0690437
0.068282
0.0674123
0.0664386
0.0653651
0.0641962
0.0629366
0.0615907
0.0601631
0.058658
0.0570794
0.05543
0.0537118
0.0519385
0.050121
0.0480994
0.0457345
0.0226007
0.0199226
0.017662
0.0156603
0.0137326
0.0118896
0.0101444
0.00849662
0.00694637
0.00549502
0.0041442
0.00289566
0.00175122
0.000712711
-0.000218068
-0.00103942
-0.0017498
-0.00234785
-0.00283241
-0.0032026
-0.00345774
-0.00359747
-0.0036217
-0.00353061
-0.00332471
-0.00300477
-0.0025719
-0.00202748
-0.0013732
-0.000611038
0.000256756
0.00122763
0.00229876
0.00346704
0.0047291
0.00608132
0.0075198
0.0090404
0.0106387
0.0123102
0.0140499
0.0158528
0.0177135
0.0196267
0.0215866
0.0235873
0.0256228
0.0276868
0.0297731
0.0318752
0.0339864
0.0361001
0.0382095
0.0403078
0.0423881
0.0444436
0.0464673
0.0484525
0.0503923
0.05228
0.0541091
0.0558731
0.0575656
0.0591807
0.0607125
0.0621553
0.0635039
0.0647532
0.0658985
0.0669357
0.0678608
0.0686704
0.0693613
0.0699312
0.0703779
0.0706998
0.0708959
0.0709657
0.0709091
0.0707266
0.0704193
0.0699886
0.0694365
0.0687653
0.0679778
0.0670773
0.0660672
0.0649513
0.0637333
0.0624173
0.0610073
0.0595072
0.0579208
0.0562515
0.0545014
0.0526722
0.050778
0.0488307
0.0466571
0.0441076
0.0239631
0.021101
0.0186894
0.0165594
0.0145131
0.0125614
0.0107182
0.00898254
0.00735387
0.00583299
0.00442093
0.00311878
0.00192773
0.000848957
-0.000116359
-0.000967131
-0.00170239
-0.00232132
-0.00282329
-0.00320789
-0.00347489
-0.00362434
-0.0036565
-0.00357193
-0.0033714
-0.00305597
-0.00262697
-0.002086
-0.00143492
-0.000675834
0.00018886
0.00115652
0.00222426
0.00338891
0.00464707
0.00599509
0.00742909
0.00894494
0.0105383
0.0122045
0.0139388
0.0157362
0.0175914
0.019499
0.0214533
0.0234487
0.025479
0.0275382
0.02962
0.031718
0.0338256
0.0359363
0.0380432
0.0401397
0.0422189
0.0442739
0.046298
0.0482842
0.0502257
0.052116
0.0539483
0.0557161
0.0574132
0.0590334
0.0605707
0.0620194
0.0633742
0.0646298
0.0657815
0.0668249
0.0677559
0.0685708
0.0692664
0.0698399
0.0702891
0.070612
0.0708073
0.0708741
0.0708122
0.0706216
0.070303
0.0698575
0.0692866
0.0685923
0.0677768
0.066843
0.0657938
0.0646324
0.0633623
0.0619869
0.0605097
0.0589342
0.0572638
0.0555014
0.0536488
0.0517074
0.0496921
0.0476151
0.045291
0.0425599
0.0252097
0.0221668
0.0196065
0.0173493
0.0151847
0.0131242
0.0111823
0.00935754
0.00764894
0.00605676
0.00458149
0.00322365
0.00198386
0.00086272
-0.00013916
-0.00102125
-0.0017831
-0.00242443
-0.00294509
-0.0033451
-0.00362467
-0.00378423
-0.00382442
-0.0037461
-0.00355036
-0.00323851
-0.00281212
-0.00227298
-0.00162314
-0.00086486
-6.58003e-07
0.000966721
0.00203429
0.00319885
0.00445693
0.00580486
0.00723875
0.00875445
0.0103476
0.0120137
0.0137479
0.0155453
0.0174006
0.0193084
0.0212633
0.0232595
0.0252909
0.0273517
0.0294354
0.0315358
0.0336464
0.0357607
0.0378718
0.0399731
0.0420578
0.0441191
0.04615
0.0481437
0.0500935
0.0519925
0.0538342
0.0556119
0.0573193
0.0589502
0.0604985
0.0619584
0.0633242
0.0645909
0.0657533
0.066807
0.0677475
0.0685712
0.0692744
0.0698541
0.0703079
0.0706336
0.0708294
0.0708943
0.0708276
0.0706291
0.0702989
0.0698379
0.0692472
0.0685283
0.0676832
0.0667141
0.0656236
0.0644145
0.0630897
0.0616523
0.0601055
0.0584522
0.0566956
0.0548383
0.0528818
0.0508272
0.0486902
0.046484
0.0440107
0.0411004
0.0263306
0.0231099
0.0204027
0.0180194
0.015737
0.0135678
0.0115267
0.00961206
0.00782242
0.0061576
0.00461761
0.00320249
0.00191231
0.000747189
-0.000292805
-0.00120764
-0.00199738
-0.0026622
-0.00320241
-0.00361846
-0.00391096
-0.00408072
-0.00412872
-0.00405614
-0.00386435
-0.00355493
-0.00312967
-0.00259058
-0.00193988
-0.00118
-0.00031357
0.000656542
0.00172727
0.00289531
0.00415718
0.00550915
0.0069473
0.00846749
0.0100654
0.0117364
0.0134758
0.0152785
0.0171396
0.0190536
0.0210149
0.0230179
0.0250567
0.0271253
0.0292174
0.0313268
0.033447
0.0355714
0.0376933
0.0398061
0.0419029
0.043977
0.0460213
0.048029
0.0499934
0.0519076
0.0537648
0.0555585
0.0572822
0.0589295
0.0604942
0.0619705
0.0633526
0.0646351
0.0658128
0.0668809
0.0678349
0.0686708
0.0693849
0.0699738
0.0704347
0.0707652
0.0709633
0.0710276
0.0709571
0.0707511
0.0704096
0.0699328
0.0693217
0.0685774
0.0677014
0.0666956
0.0655621
0.0643033
0.0629219
0.0614205
0.059802
0.058069
0.0562244
0.0542706
0.052209
0.0500404
0.0477815
0.0454462
0.0428248
0.0397371
0.0273164
0.0239204
0.0210681
0.0185597
0.0161601
0.0138822
0.0117418
0.0097368
0.00786534
0.0061269
0.0045211
0.0030475
0.00170574
0.000495441
-0.000583791
-0.0015324
-0.00235089
-0.0030399
-0.00360016
-0.00403253
-0.00433799
-0.00451772
-0.00457303
-0.0045054
-0.00431648
-0.00400812
-0.00358234
-0.00304134
-0.00238753
-0.00162348
-0.000751996
0.000223967
0.00130123
0.00247644
0.00374601
0.0051062
0.00655303
0.00808234
0.00968978
0.0113708
0.0131206
0.0149343
0.0168067
0.0187326
0.0207063
0.0227223
0.0247746
0.0268573
0.0289642
0.0310889
0.0332252
0.0353663
0.0375057
0.0396366
0.0417522
0.0438456
0.0459099
0.0479382
0.0499236
0.0518593
0.0537383
0.0555541
0.0573
0.0589695
0.0605564
0.0620545
0.063458
0.0647612
0.0659589
0.0670459
0.0680176
0.0688696
0.0695979
0.0701991
0.0706699
0.0710078
0.0712103
0.0712756
0.0712025
0.07099
0.0706377
0.0701456
0.069514
0.0687438
0.0678361
0.0667925
0.0656148
0.064305
0.0628654
0.0612984
0.0596065
0.0577923
0.0558582
0.0538067
0.0516389
0.0493556
0.0469744
0.0445101
0.0417412
0.0384776
0.0281584
0.0245894
0.0215933
0.0189607
0.0164445
0.0140582
0.0118184
0.00972267
0.00776889
0.00595619
0.0042838
0.00275091
0.00135673
0.000100442
-0.00101877
-0.00200178
-0.00284953
-0.00356307
-0.00414353
-0.00459216
-0.0049103
-0.00509948
-0.00516131
-0.00509759
-0.00491025
-0.00460136
-0.00417319
-0.00362814
-0.00296879
-0.0021979
-0.00131839
-0.000333347
0.000753953
0.00194006
0.00322133
0.00459395
0.00605391
0.00759702
0.00921891
0.010915
0.0126805
0.0145106
0.0164
0.0183435
0.0203355
0.0223705
0.0244425
0.0265456
0.0286736
0.0308202
0.0329791
0.0351435
0.0373069
0.0394625
0.0416035
0.0437229
0.0458138
0.0478692
0.0498821
0.0518457
0.0537529
0.0555969
0.0573711
0.0590688
0.0606836
0.0622091
0.0636394
0.0649685
0.066191
0.0673015
0.0682952
0.0691674
0.0699138
0.0705307
0.0710146
0.0713625
0.0715718
0.0716403
0.0715663
0.0713487
0.0709866
0.0704796
0.0698278
0.0690317
0.0680921
0.0670102
0.0657875
0.0644257
0.0629267
0.0612929
0.0595264
0.0576296
0.0556048
0.0534545
0.0511795
0.0487808
0.0462769
0.0436835
0.0407673
0.0373287
0.0288484
0.0251079
0.0219693
0.0192133
0.0165809
0.0140866
0.0117473
0.0095608
0.00752441
0.00563703
0.00389758
0.00230489
0.000857775
-0.000444957
-0.00160454
-0.00262224
-0.00349942
-0.00423749
-0.00483798
-0.00530249
-0.00563273
-0.00583054
-0.00589786
-0.00583676
-0.00564943
-0.00533822
-0.0049056
-0.00435418
-0.00368672
-0.00290615
-0.00201552
-0.00101805
8.28683e-05
0.0012837
0.00258073
0.00397007
0.00544767
0.00700931
0.00865055
0.0103668
0.0121534
0.0140052
0.0159173
0.0178842
0.0199004
0.0219604
0.0240583
0.0261881
0.0283436
0.0305185
0.0327064
0.0349007
0.0370948
0.0392817
0.0414547
0.0436068
0.0457309
0.04782
0.049867
0.0518649
0.0538067
0.0556854
0.057494
0.059226
0.0608745
0.0624332
0.0638958
0.0652562
0.0665086
0.0676476
0.0686679
0.0695646
0.0703332
0.0709695
0.0714698
0.0718309
0.0720496
0.0721237
0.072051
0.0718299
0.0714594
0.0709387
0.0702674
0.0694459
0.0684744
0.067354
0.0660859
0.0646715
0.0631125
0.0614109
0.0595688
0.0575883
0.0554718
0.0532217
0.0508387
0.0483238
0.0456966
0.0429738
0.0399103
0.0362968
0.0293782
0.0254676
0.0221874
0.0193085
0.0165605
0.0139583
0.0115198
0.00924243
0.00712331
0.00516106
0.00335431
0.00170158
0.000201323
-0.00114802
-0.00234805
-0.00340042
-0.00430686
-0.00506916
-0.00568919
-0.00616892
-0.0065104
-0.00671576
-0.00678725
-0.00672724
-0.00653816
-0.00622261
-0.00578328
-0.00522299
-0.00454468
-0.00375143
-0.00284645
-0.0018331
-0.000714855
0.000504627
0.00182156
0.00323198
0.00473179
0.00631671
0.00798228
0.00972389
0.0115368
0.0134159
0.0153562
0.0173523
0.0193987
0.0214898
0.0236197
0.0257824
0.0279718
0.0301815
0.032405
0.0346358
0.0368671
0.0390921
0.0413038
0.0434952
0.0456592
0.0477886
0.0498764
0.0519153
0.0538981
0.0558178
0.0576673
0.0594397
0.0611281
0.0627259
0.0642265
0.0656237
0.0669114
0.0680839
0.0691357
0.0700616
0.0708567
0.0715166
0.0720371
0.0724147
0.0726461
0.0727285
0.0726595
0.0724371
0.0720599
0.0715268
0.0708373
0.069991
0.0689883
0.0678297
0.0665161
0.0650488
0.0634293
0.0616593
0.0597408
0.0576759
0.0554668
0.0531159
0.0506241
0.0479922
0.0452411
0.0423882
0.0391771
0.0353884
0.0297399
0.0256601
0.0222389
0.0192378
0.0163744
0.0136646
0.011127
0.00875888
0.00655703
0.0045199
0.00264585
0.000933067
-0.000620294
-0.00201614
-0.00325642
-0.00434314
-0.00527839
-0.00606431
-0.00670313
-0.00719714
-0.0075487
-0.00776026
-0.00783438
-0.00777367
-0.00758085
-0.00725873
-0.00681023
-0.00623838
-0.0055463
-0.00473723
-0.00381454
-0.0027817
-0.00164233
-0.000400165
0.000940904
0.00237685
0.00390351
0.00551653
0.00721143
0.00898356
0.0108281
0.0127401
0.0147143
0.0167454
0.0188279
0.0209562
0.0231243
0.0253262
0.0275558
0.0298067
0.0320724
0.0343463
0.0366215
0.0388912
0.0411484
0.0433859
0.0455966
0.0477732
0.0499084
0.0519949
0.0540254
0.0559927
0.0578895
0.0597087
0.0614432
0.0630862
0.0646308
0.0660707
0.0673993
0.0686107
0.0696991
0.070659
0.0714853
0.0721731
0.072718
0.073116
0.0733635
0.0734573
0.0733948
0.0731736
0.0727919
0.0722484
0.071542
0.0706723
0.0696391
0.0684428
0.0670841
0.065564
0.0638838
0.0620451
0.0600497
0.0578997
0.0555973
0.0531448
0.0505433
0.0477936
0.0449176
0.0419339
0.0385742
0.0346095
0.0299258
0.0256773
0.0221156
0.0189924
0.016014
0.0131968
0.0105603
0.0081015
0.00581706
0.00370518
0.00176397
-8.65233e-06
-0.00161484
-0.00305683
-0.0043369
-0.00545739
-0.00642074
-0.00722941
-0.00788597
-0.00839303
-0.00875328
-0.00896945
-0.00904439
-0.00898097
-0.00878218
-0.00845106
-0.00799074
-0.00740446
-0.00669551
-0.00586732
-0.00492339
-0.00386735
-0.00270291
-0.00143393
-6.43944e-05
0.0014016
0.00295981
0.00460584
0.00633514
0.00814302
0.0100246
0.011975
0.0139888
0.0160608
0.0181854
0.0203569
0.0225694
0.0248169
0.0270932
0.0293918
0.0317063
0.0340299
0.0363558
0.038677
0.0409864
0.0432768
0.045541
0.0477716
0.0499611
0.052102
0.054187
0.0562086
0.0581594
0.0600319
0.061819
0.0635134
0.0651083
0.0665968
0.0679722
0.0692282
0.0703587
0.0713578
0.0722202
0.0729407
0.0735144
0.0739369
0.0742044
0.0743132
0.0742604
0.0740433
0.0736597
0.0731078
0.0723865
0.0714949
0.0704326
0.0691996
0.0677964
0.0662238
0.0644831
0.0625755
0.0605029
0.0582673
0.0558709
0.0533161
0.0506038
0.0477354
0.0447335
0.0416179
0.0381084
0.0339662
0.0299281
0.025511
0.021809
0.0185639
0.0154706
0.0125462
0.00981092
0.00726164
0.00489482
0.00270844
0.000700395
-0.00113168
-0.00279022
-0.00427777
-0.00559693
-0.00675037
-0.00774083
-0.00857112
-0.00924413
-0.00976277
-0.01013
-0.010349
-0.0104227
-0.0103543
-0.0101471
-0.00980435
-0.00932936
-0.00872558
-0.00799651
-0.00714573
-0.0061769
-0.00509378
-0.00390022
-0.00260018
-0.00119773
0.000302938
0.0018975
0.00358149
0.00535033
0.00719927
0.00912341
0.0111177
0.0131769
0.0152956
0.0174683
0.0196892
0.0219524
0.0242518
0.0265812
0.0289341
0.031304
0.033684
0.0360673
0.0384468
0.0408154
0.0431657
0.0454903
0.0477818
0.0500325
0.0522349
0.0543813
0.056464
0.0584755
0.0604082
0.0622545
0.0640071
0.0656585
0.0672019
0.0686302
0.0699368
0.0711151
0.0721591
0.0730629
0.073821
0.0744283
0.0748799
0.0751716
0.0752994
0.0752599
0.0750502
0.0746676
0.0741101
0.073376
0.0724644
0.0713745
0.0701061
0.0686595
0.0670351
0.0652341
0.0632578
0.0611079
0.0587863
0.0562952
0.0536373
0.0508135
0.0478251
0.0446961