/*--------------------------------*- C++ -*----------------------------------*\
  =========                 |
  \\      /  F ield         | OpenFOAM: The Open Source CFD Toolbox
   \\    /   O peration     | Website:  https://openfoam.org
    \\  /    A nd           | Version:  7
     \\/     M anipulation  |
\*---------------------------------------------------------------------------*/
FoamFile
{
    version     2.0;
    format      ascii;
    class       volVectorField;
    location    "35";
    object      U;
}
// * * * * * * * * * * * * * * * * * * * * * * * * * * * * * * * * * * * * * //

dimensions      [0 1 -1 0 0 0 0];

internalField   nonuniform List<vector> 
41600
(
(-0.0339907 0.00192892 -3.21678e-20)
(-0.0815185 0.0017312 -5.56248e-20)
(-0.127228 0.00133822 4.01955e-23)
(-0.156476 0.000632126 -6.47317e-20)
(-0.179187 0.000209582 9.92007e-20)
(-0.197342 -0.000173609 -2.32751e-19)
(-0.210871 -0.000290081 -3.39665e-20)
(-0.22254 -0.000164555 2.68547e-19)
(-0.231312 0.000281408 -5.9368e-20)
(-0.238699 0.00102338 -9.66379e-20)
(-0.244101 0.00200996 -3.92753e-20)
(-0.247996 0.00310089 1.22301e-19)
(-0.250204 0.00412935 -7.22351e-20)
(-0.250441 0.00481855 -7.609e-20)
(-0.248872 0.00500899 -7.59144e-20)
(-0.244647 0.0043841 1.84552e-20)
(-0.238155 0.00299908 3.72799e-21)
(-0.228468 0.00069105 -1.09864e-19)
(-0.215372 -0.00220465 2.08423e-20)
(-0.200041 -0.00525547 2.76938e-20)
(-0.178043 -0.00866864 -1.19486e-19)
(-0.158189 -0.0106169 9.92807e-20)
(-0.125843 -0.0128505 -2.86657e-20)
(-0.102129 -0.012729 7.37793e-21)
(-0.060233 -0.0128289 2.51521e-20)
(-0.0341096 0.00636819 -1.49554e-19)
(-0.0814505 0.00627945 2.83022e-19)
(-0.126906 0.00558688 -6.89274e-20)
(-0.155839 0.00398653 3.56433e-20)
(-0.178165 0.00321169 -2.91075e-19)
(-0.195863 0.00235678 3.60323e-19)
(-0.208838 0.0019552 -5.80881e-20)
(-0.219849 0.00177607 -3.50162e-19)
(-0.22784 0.00196238 9.1092e-20)
(-0.234302 0.00242784 -3.18664e-19)
(-0.238615 0.00312363 5.60337e-20)
(-0.241219 0.00386458 1.98437e-19)
(-0.241923 0.00450676 2.02157e-19)
(-0.240359 0.0046582 4.32198e-19)
(-0.236732 0.00430195 1.4197e-19)
(-0.230029 0.00284715 1.69192e-19)
(-0.220808 0.000682289 2.57185e-20)
(-0.207908 -0.00273533 3.58473e-19)
(-0.191313 -0.00679599 2.83354e-20)
(-0.17252 -0.0109239 -1.01401e-19)
(-0.145803 -0.0162008 -1.10372e-19)
(-0.123674 -0.0187118 -2.00483e-19)
(-0.0846989 -0.0234172 -8.32299e-20)
(-0.0607725 -0.0237813 -7.46998e-21)
(-0.0115051 -0.0264927 -5.48077e-20)
(-0.0343445 0.0107832 3.19074e-20)
(-0.0813021 0.0108 -9.4969e-20)
(-0.126239 0.00981092 -1.55228e-19)
(-0.15453 0.00731538 1.15986e-19)
(-0.176075 0.00618691 2.72302e-19)
(-0.192846 0.00485688 -4.18682e-19)
(-0.204709 0.00416475 2.43859e-19)
(-0.214403 0.00367337 1.86783e-20)
(-0.220836 0.00358914 3.88748e-19)
(-0.225463 0.0037641 5.6261e-19)
(-0.22763 0.00415026 4.06962e-19)
(-0.227707 0.00451798 2.56948e-20)
(-0.225497 0.00474381 5.27709e-22)
(-0.220489 0.0043226 -4.06017e-19)
(-0.212995 0.00337758 -4.5013e-19)
(-0.201694 0.00105356 -2.21907e-19)
(-0.187519 -0.00193216 4.20094e-20)
(-0.168839 -0.00648934 -3.86346e-19)
(-0.145996 -0.0116885 1.04004e-19)
(-0.121185 -0.0169771 -1.36809e-19)
(-0.0858562 -0.0237797 1.2929e-19)
(-0.0599388 -0.0272222 3.68199e-19)
(-0.00881896 -0.0335176 2.4124e-19)
(0.0156661 -0.0348892 -6.61521e-20)
(0.0784399 -0.0393826 -5.13272e-20)
(-0.0346953 0.0151562 -2.55399e-19)
(-0.0810749 0.0152732 4.46862e-20)
(-0.125229 0.0139928 5.27358e-19)
(-0.152551 0.0106007 -3.66441e-19)
(-0.17292 0.00911666 2.49598e-19)
(-0.1883 0.00730652 1.1156e-18)
(-0.198496 0.00631585 -6.34551e-19)
(-0.206224 0.00550117 1.05939e-18)
(-0.210341 0.00513044 5.49904e-19)
(-0.212252 0.0049945 6.66441e-19)
(-0.21126 0.00504361 1.86008e-19)
(-0.207647 0.00500549 -7.94152e-19)
(-0.201224 0.0047729 -4.71986e-19)
(-0.191283 0.00373441 3.08191e-19)
(-0.178346 0.00214482 3.99876e-19)
(-0.160629 -0.00109161 2.79065e-20)
(-0.139721 -0.00494548 -2.23019e-19)
(-0.113267 -0.0106909 2.78404e-19)
(-0.0821291 -0.0169306 -7.43774e-19)
(-0.0497578 -0.0235987 -4.70359e-19)
(-0.00314224 -0.031266 3.25601e-19)
(0.0270417 -0.0363414 -9.64805e-20)
(0.0933112 -0.0432669 9.4568e-20)
(0.117924 -0.0457933 1.48673e-19)
(0.196772 -0.0514428 5.70917e-20)
(-0.0351614 0.0194709 3.14477e-20)
(-0.0807697 0.0196799 -6.3171e-19)
(-0.123878 0.0181153 6.12568e-19)
(-0.149906 0.0138245 -8.54484e-20)
(-0.168705 0.0119825 -9.74816e-19)
(-0.182232 0.00968598 -9.40042e-19)
(-0.190213 0.00838682 2.95775e-19)
(-0.195339 0.00723523 -9.39563e-19)
(-0.196406 0.00655828 -6.4163e-19)
(-0.194759 0.00608665 -1.07518e-18)
(-0.18966 0.00576545 -9.54348e-20)
(-0.181286 0.00528379 3.10543e-19)
(-0.169492 0.00454355 7.43803e-19)
(-0.153323 0.00284266 -4.84946e-19)
(-0.133654 0.000546875 6.91326e-19)
(-0.108068 -0.00363489 -5.9799e-19)
(-0.0791498 -0.00839708 -5.77282e-19)
(-0.0435842 -0.015379 -2.76176e-19)
(-0.00290562 -0.0224449 -1.90574e-19)
(0.0377059 -0.0308152 5.65722e-19)
(0.0966008 -0.038622 -5.6598e-19)
(0.13109 -0.0457311 2.42383e-19)
(0.212325 -0.0527887 -3.04609e-19)
(0.236961 -0.0560801 -1.85189e-19)
(0.330094 -0.0624991 -1.0746e-20)
(-0.0357423 0.0237106 1.22123e-19)
(-0.0803885 0.0240006 5.79307e-19)
(-0.122189 0.0221608 -1.61458e-18)
(-0.146599 0.0169689 1.02266e-18)
(-0.163435 0.0147664 5.96485e-19)
(-0.17465 0.0119764 -1.74123e-19)
(-0.179878 0.0103576 8.38386e-19)
(-0.181781 0.00885409 -1.14312e-19)
(-0.179089 0.00784916 2.94472e-19)
(-0.173086 0.00701522 1.05833e-18)
(-0.163 0.006288 6.77804e-19)
(-0.148898 0.00532542 -4.20455e-20)
(-0.130728 0.00402663 -4.16683e-19)
(-0.10724 0.00162823 1.66715e-18)
(-0.0798417 -0.00143349 -3.2982e-19)
(-0.0453083 -0.00657061 9.17311e-19)
(-0.00757217 -0.0122462 2.97689e-19)
(0.037832 -0.0205057 9.22826e-19)
(0.0884617 -0.0281074 1.43396e-19)
(0.137529 -0.0383726 -6.17065e-19)
(0.207669 -0.0458747 4.12355e-19)
(0.247158 -0.0548112 -4.89471e-19)
(0.339379 -0.061737 -1.33346e-19)
(0.365074 -0.0655029 -3.41876e-19)
(0.467336 -0.0721098 -6.73702e-20)
(-0.0364371 0.0278594 -2.34971e-19)
(-0.0799332 0.0282161 -8.02013e-19)
(-0.120165 0.026112 6.13829e-19)
(-0.142633 0.0200162 -1.66212e-18)
(-0.157116 0.0174506 -6.71317e-19)
(-0.165564 0.0141599 2.33797e-19)
(-0.167505 0.0122099 -1.33635e-18)
(-0.165578 0.0103396 8.63237e-19)
(-0.158444 0.00898509 -6.7934e-19)
(-0.147331 0.00776352 -3.68244e-19)
(-0.131445 0.00659611 -5.33505e-19)
(-0.11075 0.00512146 1.08291e-18)
(-0.0853438 0.00321736 -1.22299e-18)
(-0.0536458 0.000106189 -7.30193e-19)
(-0.0177795 -0.0037705 -3.24916e-19)
(0.0264174 -0.00983973 -7.65828e-19)
(0.0733887 -0.0163775 6.2781e-19)
(0.128835 -0.0259217 -2.53812e-19)
(0.188957 -0.0338021 9.36501e-20)
(0.246647 -0.0458026 6.43415e-19)
(0.324848 -0.0528769 4.39493e-19)
(0.370736 -0.0630774 -6.88481e-19)
(0.467447 -0.0696344 6.66289e-19)
(0.495488 -0.0737018 6.31175e-19)
(0.599911 -0.0797355 -5.55951e-20)
(-0.037245 0.0319019 1.04118e-18)
(-0.0794059 0.0323074 8.31142e-19)
(-0.11781 0.0299515 3.17754e-19)
(-0.138015 0.0229487 1.78879e-18)
(-0.149752 0.0200179 9.77579e-19)
(-0.154979 0.0162198 1.96435e-18)
(-0.153104 0.0139279 -1.07548e-18)
(-0.14675 0.0116779 2.74566e-19)
(-0.134514 0.00995472 8.31016e-20)
(-0.117572 0.00832501 -5.87751e-19)
(-0.0951347 0.00668917 -2.30118e-19)
(-0.06707 0.00468378 -1.12606e-18)
(-0.0336956 0.00213818 1.4604e-18)
(0.00691813 -0.00167483 1.88251e-19)
(0.0517809 -0.00638578 -1.08415e-18)
(0.105993 -0.0133364 -1.43733e-19)
(0.162281 -0.0206328 -7.36679e-19)
(0.227502 -0.0313512 -3.00614e-19)
(0.295823 -0.0393891 9.92212e-19)
(0.361999 -0.0525671 7.1591e-19)
(0.443963 -0.0593626 1.12666e-19)
(0.496817 -0.0700686 9.45652e-19)
(0.591093 -0.0759789 1.36945e-19)
(0.62187 -0.0802679 4.63217e-20)
(0.720964 -0.084989 2.3189e-19)
(-0.0381647 0.0358233 -9.12568e-19)
(-0.0788091 0.0362555 6.22029e-19)
(-0.115128 0.0336618 -6.04045e-20)
(-0.132745 0.025749 3.46166e-19)
(-0.141345 0.0224516 4.70854e-19)
(-0.142894 0.0181407 -2.84777e-18)
(-0.136677 0.0154986 1.72909e-18)
(-0.125304 0.0128597 -2.29105e-18)
(-0.107318 0.0107544 -6.49743e-19)
(-0.0838573 0.00870481 -9.05754e-19)
(-0.0541629 0.00658316 -1.56602e-18)
(-0.0180306 0.00404671 3.03915e-20)
(0.0239406 0.000842327 -2.62498e-19)
(0.0739872 -0.00363464 -1.13385e-18)
(0.1282 -0.00914812 2.12064e-18)
(0.19238 -0.0169051 1.6525e-18)
(0.257728 -0.0248165 -7.05979e-19)
(0.33188 -0.0364377 -5.06001e-19)
(0.40655 -0.0446392 -5.20923e-19)
(0.479902 -0.0582202 -1.30447e-18)
(0.56156 -0.0648929 -8.08778e-19)
(0.619756 -0.0754257 3.28948e-20)
(0.705781 -0.080406 -1.26119e-18)
(0.738159 -0.0848294 -1.67805e-19)
(0.825172 -0.0877688 -6.58395e-19)
(-0.0391952 0.0396096 1.05999e-18)
(-0.0781453 0.0400415 -1.76657e-18)
(-0.112122 0.0372256 -1.38957e-18)
(-0.126828 0.0283999 -2.04764e-18)
(-0.131892 0.0247359 5.62604e-19)
(-0.129302 0.0199093 4.66101e-19)
(-0.11821 0.0169121 8.3653e-19)
(-0.101223 0.0138818 1.94884e-19)
(-0.076844 0.0113897 4.01727e-19)
(-0.0461904 0.00892132 -8.39476e-19)
(-0.00856779 0.00631301 1.56678e-18)
(0.0362585 0.00326689 -2.8445e-19)
(0.0873628 -0.000580615 1.61424e-18)
(0.147144 -0.00566156 -4.33874e-19)
(0.21087 -0.0118817 6.8739e-19)
(0.284511 -0.0203353 -2.91794e-18)
(0.358237 -0.028687 -6.42607e-19)
(0.439685 -0.0408314 -1.67043e-18)
(0.518537 -0.049179 -7.73227e-19)
(0.596098 -0.0624796 -6.38733e-19)
(0.67413 -0.0689984 7.02494e-19)
(0.733845 -0.0788948 -3.50677e-19)
(0.807587 -0.082782 2.6425e-19)
(0.839043 -0.0871956 8.21683e-20)
(0.909233 -0.088281 1.77525e-19)
(-0.0403352 0.0432474 1.2128e-19)
(-0.0774169 0.0436466 1.94453e-18)
(-0.108794 0.0406254 -1.7704e-19)
(-0.120262 0.0308844 9.20844e-19)
(-0.121386 0.0268554 -3.38229e-18)
(-0.114185 0.0215142 -1.7639e-19)
(-0.0976721 0.0181627 -1.40785e-18)
(-0.074466 0.0147476 1.33851e-18)
(-0.0430431 0.0118765 1.7678e-18)
(-0.00452789 0.00900809 1.74755e-19)
(0.0416678 0.00593538 3.9292e-19)
(0.0957353 0.00242523 -4.03834e-19)
(0.156402 -0.00200373 -9.99337e-19)
(0.225948 -0.00761035 -1.8951e-18)
(0.299059 -0.0143737 -3.34961e-19)
(0.38112 -0.0233744 7.97313e-19)
(0.461942 -0.0319603 2.86958e-18)
(0.548158 -0.0442407 -1.92992e-20)
(0.628624 -0.0525927 7.14472e-19)
(0.706196 -0.0651764 8.53553e-19)
(0.777774 -0.0713648 -1.59628e-18)
(0.834159 -0.0803909 -1.94452e-19)
(0.893464 -0.0832007 6.31541e-19)
(0.920935 -0.0874599 -6.13882e-19)
(0.97243 -0.0869715 1.86841e-19)
(-0.0415834 0.0467244 -2.49462e-18)
(-0.0766262 0.0470524 -1.64064e-18)
(-0.105146 0.0438438 1.70036e-18)
(-0.113042 0.0331858 -1.05565e-18)
(-0.109813 0.0287961 4.53168e-18)
(-0.0975101 0.0229465 -1.22694e-18)
(-0.0750108 0.0192497 2.80185e-18)
(-0.0449555 0.0154687 6.21671e-19)
(-0.00582256 0.0122436 -1.63499e-18)
(0.0412206 0.00901586 1.93002e-18)
(0.0966017 0.0055315 8.97073e-19)
(0.160347 0.00162904 -2.41522e-20)
(0.230835 -0.00326732 -1.6673e-18)
(0.309826 -0.00930045 1.10738e-18)
(0.391716 -0.0163949 -2.05253e-18)
(0.48054 -0.0257513 1.27408e-18)
(0.566385 -0.0343507 -1.33668e-18)
(0.654091 -0.0464378 2.55407e-19)
(0.733024 -0.0545797 -4.75045e-19)
(0.806117 -0.0662446 -3.12216e-19)
(0.868687 -0.0719232 7.95141e-19)
(0.917388 -0.0800509 1.80987e-19)
(0.961785 -0.081945 -2.41362e-20)
(0.982821 -0.0859853 -3.20508e-19)
(1.01661 -0.0843919 -1.36577e-19)
(-0.0429385 0.0500292 2.29213e-18)
(-0.075775 0.0502406 6.70713e-19)
(-0.101178 0.0468634 -3.93322e-19)
(-0.105162 0.0352881 9.2956e-19)
(-0.0971457 0.0305452 -3.85765e-18)
(-0.0792262 0.0242009 2.90512e-18)
(-0.0501448 0.0201781 -1.04022e-18)
(-0.0125784 0.0160669 -1.27418e-18)
(0.0349523 0.0125348 -5.01616e-19)
(0.0911801 0.00901488 -2.06783e-18)
(0.156297 0.00520847 -1.43155e-18)
(0.229984 0.00101209 1.31977e-18)
(0.310261 -0.00418877 2.57513e-18)
(0.397923 -0.0105218 4.22385e-18)
(0.487296 -0.0177248 -1.68106e-18)
(0.580553 -0.0272151 9.34177e-19)
(0.668493 -0.0356365 1.46278e-18)
(0.75397 -0.0472848 2.33095e-18)
(0.82783 -0.0550392 9.49037e-19)
(0.892548 -0.0657614 1.6211e-18)
(0.94408 -0.0708493 4.17737e-19)
(0.982351 -0.0782063 1.3869e-18)
(1.01276 -0.0794199 -1.35609e-18)
(1.02631 -0.0832806 1.48286e-18)
(1.04541 -0.0810556 4.4703e-20)
(-0.0443988 0.0531512 -3.83419e-19)
(-0.0748647 0.0531929 -1.12077e-18)
(-0.0968879 0.0496668 -1.41057e-18)
(-0.0966043 0.0371756 8.86026e-19)
(-0.0833485 0.0320915 3.43555e-18)
(-0.0592612 0.0252762 -7.03842e-19)
(-0.0229611 0.020961 -9.53689e-19)
(0.0228173 0.0165764 -1.42386e-18)
(0.0794503 0.0128116 -1.043e-18)
(0.145484 0.00909705 -8.19365e-20)
(0.22076 0.00509765 -4.02374e-19)
(0.304389 0.000733204 -3.70036e-18)
(0.393959 -0.00458012 -2.41524e-18)
(0.488938 -0.0110588 5.48605e-19)
(0.583671 -0.0181804 1.25097e-18)
(0.678369 -0.0275876 -2.29979e-18)
(0.764826 -0.0357126 -2.60077e-18)
(0.844344 -0.0467819 -1.55698e-18)
(0.9098 -0.0540753 3.14798e-19)
(0.963452 -0.0639587 -1.23705e-18)
(1.00293 -0.0684921 -1.20058e-18)
(1.02999 -0.0752881 -2.60268e-18)
(1.04837 -0.0760589 6.97713e-19)
(1.05484 -0.0798443 -5.90387e-19)
(1.06304 -0.0773473 3.47909e-19)
(-0.0459631 0.0560811 1.14783e-18)
(-0.0738959 0.0558916 1.02336e-18)
(-0.0922699 0.0522366 1.7211e-18)
(-0.0873481 0.038834 -1.42258e-18)
(-0.0683682 0.0334265 -4.24123e-18)
(-0.037517 0.0261766 -2.85756e-18)
(0.00668761 0.0216212 9.46509e-19)
(0.0614189 0.0170461 1.40747e-19)
(0.127857 0.0131555 3.8539e-18)
(0.204228 0.00937714 1.49036e-18)
(0.289859 0.00534897 9.95912e-19)
(0.383032 0.000966906 3.88623e-18)
(0.480761 -0.00426955 -1.28944e-18)
(0.581014 -0.0107315 -2.00975e-18)
(0.678181 -0.0176495 1.36229e-18)
(0.77084 -0.0268124 1.5885e-18)
(0.852069 -0.0346175 1.08385e-18)
(0.9224 -0.0450848 8.57143e-19)
(0.977024 -0.0519507 -5.79771e-19)
(1.01844 -0.0611736 3.38976e-19)
(1.04612 -0.0652642 1.14013e-18)
(1.06282 -0.0717171 3.03082e-18)
(1.07169 -0.0722367 -1.54409e-18)
(1.0724 -0.07606 5.37999e-19)
(1.07325 -0.0735083 -6.42517e-19)
(-0.0476295 0.0588105 -1.69667e-18)
(-0.0728681 0.0583192 1.34161e-18)
(-0.0873152 0.0545557 1.89996e-18)
(-0.0773604 0.0402499 9.79113e-20)
(-0.0521335 0.0345445 1.33789e-18)
(-0.0138657 0.0269139 1.04986e-18)
(0.0389845 0.0221941 -3.04874e-18)
(0.10344 0.0175426 1.94791e-18)
(0.180342 0.0136697 -3.40328e-18)
(0.26741 0.00999089 -1.24283e-18)
(0.363219 0.0061201 7.26981e-20)
(0.46499 0.0018821 2.36407e-18)
(0.568983 -0.0031268 3.70585e-18)
(0.671764 -0.00944111 -7.99253e-19)
(0.767862 -0.0161221 1.90793e-18)
(0.854903 -0.0249748 1.01849e-18)
(0.927603 -0.032526 9.30331e-19)
(0.986531 -0.0424657 3.41673e-19)
(1.02923 -0.0490077 -6.75873e-19)
(1.05871 -0.0577638 -1.20904e-18)
(1.07596 -0.061541 -1.80504e-18)
(1.08413 -0.0678279 5.99015e-19)
(1.08605 -0.0682227 2.18734e-18)
(1.08262 -0.0721719 1.02481e-18)
(1.07889 -0.0696694 -6.21137e-19)
(-0.0493966 0.0613321 9.1269e-19)
(-0.0717793 0.0604583 -1.23928e-18)
(-0.0820102 0.0566069 -3.03833e-18)
(-0.0665966 0.0414119 2.40559e-19)
(-0.0345509 0.0354438 1.32414e-18)
(0.011853 0.0275093 -6.91454e-19)
(0.0741454 0.0227304 4.74146e-19)
(0.149099 0.0181531 1.28844e-18)
(0.237011 0.0144781 -1.03793e-18)
(0.334837 0.0110877 5.86306e-18)
(0.440124 0.00755945 -3.43668e-19)
(0.54886 0.00361039 -1.42609e-18)
(0.656459 -0.00109173 -2.44086e-18)
(0.758474 -0.00720055 -9.35408e-20)
(0.849849 -0.0137046 -2.44939e-18)
(0.928124 -0.0222818 -1.72e-18)
(0.989974 -0.0297038 -9.59541e-19)
(1.03659 -0.0392407 -7.14675e-20)
(1.06763 -0.0455832 -1.03251e-18)
(1.0866 -0.0540328 1.96144e-18)
(1.0954 -0.0576048 -2.55725e-18)
(1.09716 -0.0638444 7.81821e-19)
(1.09437 -0.064183 -8.60408e-19)
(1.08823 -0.0683128 1.81587e-19)
(1.08186 -0.065894 1.36318e-18)
(-0.0512624 0.0636398 -1.24552e-18)
(-0.0706259 0.0622922 5.84241e-19)
(-0.0763355 0.0583735 1.30473e-18)
(-0.0549976 0.0423111 -3.62445e-19)
(-0.0155008 0.0361297 1.25408e-18)
(0.039834 0.0279951 2.69107e-18)
(0.11241 0.0232993 3.62451e-19)
(0.198591 0.0189864 -2.5332e-18)
(0.297838 0.0157201 3.07554e-18)
(0.406038 0.0128158 -4.92192e-18)
(0.519436 0.00978311 -1.41744e-18)
(0.632766 0.00621238 -1.70196e-18)
(0.740716 0.00180193 4.12256e-19)
(0.83847 -0.00413919 3.31397e-19)
(0.921846 -0.0106016 6.12245e-19)
(0.989124 -0.0190079 4.53347e-19)
(1.03907 -0.02644 -4.89451e-20)
(1.07373 -0.0356969 2.50365e-19)
(1.09442 -0.0419472 3.44381e-18)
(1.10486 -0.0501944 1.62989e-18)
(1.10731 -0.0536368 3.29045e-19)
(1.10462 -0.0598953 -1.05561e-18)
(1.09885 -0.0602068 -4.03992e-19)
(1.09111 -0.0645453 -8.70318e-19)
(1.08333 -0.0622105 -9.27231e-19)
(-0.053225 0.0657286 8.08627e-19)
(-0.069402 0.0638046 1.24689e-18)
(-0.0702644 0.0598392 -7.40707e-19)
(-0.042486 0.0429422 1.17564e-19)
(0.00516584 0.036615 1.90456e-18)
(0.070305 0.028419 1.40536e-18)
(0.154024 0.0239913 4.42753e-18)
(0.252034 0.0201708 1.99598e-18)
(0.362588 0.0175404 -3.70447e-19)
(0.480178 0.0152992 1.8125e-18)
(0.599584 0.0128479 3.99502e-18)
(0.71449 0.00965361 4.71573e-19)
(0.819273 0.00542104 4.36975e-19)
(0.909549 -0.000476134 1.16602e-18)
(0.982502 -0.00706859 -1.72254e-18)
(1.03773 -0.0154294 1.43179e-19)
(1.07596 -0.0229856 -1.16537e-18)
(1.09995 -0.0320497 -2.93573e-18)
(1.11214 -0.0382822 -1.15547e-18)
(1.11611 -0.0463761 1.04212e-18)
(1.11409 -0.0497387 7.74005e-19)
(1.10852 -0.056044 2.07763e-18)
(1.101 -0.0563366 -1.34831e-18)
(1.0924 -0.0608941 3.00699e-19)
(1.08396 -0.0586292 2.95106e-19)
(-0.0552822 0.0675945 -1.2782e-19)
(-0.0680988 0.0649797 -2.76473e-18)
(-0.0637614 0.0609884 8.36498e-19)
(-0.0289635 0.043304 9.60496e-19)
(0.0276308 0.0369232 -4.34345e-18)
(0.10352 0.0288476 1.29168e-18)
(0.199211 0.0249193 -5.11834e-19)
(0.309412 0.0218477 3.63751e-18)
(0.430733 0.0200705 -2.13404e-18)
(0.55602 0.0186109 -6.11683e-18)
(0.678644 0.0167282 3.56286e-20)
(0.79173 0.0138012 -1.40667e-18)
(0.890014 0.00955441 -2.15906e-18)
(0.970321 0.00352947 -1.57907e-18)
(1.03155 -0.00335367 3.0029e-19)
(1.07484 -0.0117725 -6.04387e-19)
(1.10242 -0.01952 4.7372e-19)
(1.11756 -0.0284343 1.69524e-18)
(1.12319 -0.0346927 7.49562e-19)
(1.12253 -0.042642 -3.20449e-18)
(1.11753 -0.0459609 -8.98503e-20)
(1.11024 -0.0523152 -2.29828e-18)
(1.10178 -0.0525889 6.74093e-19)
(1.0928 -0.0573657 3.27284e-19)
(1.08413 -0.0551527 -9.14451e-19)
(-0.0574315 0.0692348 -1.38061e-18)
(-0.0667044 0.0658026 9.52722e-19)
(-0.0567804 0.0618061 3.27839e-19)
(-0.0143067 0.0434018 -9.54618e-19)
(0.0521103 0.0370921 3.89785e-18)
(0.139748 0.0293688 -3.21457e-18)
(0.248129 0.0262164 -4.14816e-18)
(0.370496 0.0241586 -2.64995e-18)
(0.501397 0.0234053 2.57869e-18)
(0.63196 0.0227482 5.22752e-18)
(0.754533 0.0213079 9.35348e-19)
(0.862426 0.0184454 4.02313e-18)
(0.951502 0.0139563 3.38406e-18)
(1.02035 0.0076329 5.69124e-19)
(1.06967 0.000345864 3.32718e-19)
(1.10201 -0.00818985 3.37902e-18)
(1.12056 -0.0161493 3.27765e-18)
(1.12873 -0.0249207 2.94928e-18)
(1.12957 -0.0312278 1.61489e-18)
(1.12577 -0.0390171 2.11027e-18)
(1.1189 -0.0423242 -5.11674e-19)
(1.11066 -0.0487126 1.64774e-18)
(1.10177 -0.0489679 1.34064e-18)
(1.09271 -0.0539587 -1.80712e-19)
(1.08404 -0.0517794 9.63654e-19)
(-0.05967 0.0706477 9.29023e-19)
(-0.0652025 0.066259 2.79368e-19)
(-0.0492621 0.0622784 2.40434e-19)
(0.00163526 0.0432502 -2.69501e-18)
(0.0788538 0.0371772 -7.11093e-18)
(0.179249 0.0300931 -7.29176e-21)
(0.300812 0.0280286 6.02321e-18)
(0.434779 0.0272248 -2.14661e-18)
(0.573344 0.0275771 4.47433e-18)
(0.706158 0.0276207 4.20761e-19)
(0.825274 0.0263937 -3.0458e-18)
(0.92505 0.0233408 -5.72667e-18)
(1.00312 0.0183954 -3.22836e-18)
(1.06008 0.0116435 6.08557e-19)
(1.09821 0.00390196 2.59847e-18)
(1.12109 -0.00476471 -1.18459e-20)
(1.13237 -0.012922 6.98221e-19)
(1.13533 -0.0215363 -1.57539e-18)
(1.13282 -0.027904 -2.42272e-18)
(1.12696 -0.0355061 -2.2188e-19)
(1.11901 -0.0388343 -1.19286e-18)
(1.11034 -0.04523 4.43015e-19)
(1.10131 -0.0454729 -2.04533e-18)
(1.09234 -0.0506685 -1.5933e-18)
(1.0838 -0.0485063 7.3525e-20)
(-0.0619942 0.0718325 -1.02381e-18)
(-0.063572 0.0663359 1.86912e-18)
(-0.0411325 0.0623955 5.98236e-19)
(0.0190462 0.0428725 1.53034e-18)
(0.108138 0.0372558 3.3973e-18)
(0.222239 0.0311535 -1.80034e-18)
(0.357104 0.0305008 -3.71262e-18)
(0.501432 0.0311227 3.21707e-18)
(0.645044 0.0325382 -4.97872e-18)
(0.776753 0.0330582 -2.87974e-18)
(0.889266 0.0317502 4.39778e-19)
(0.978779 0.0282523 4.3524e-18)
(1.04506 0.0226905 3.87011e-18)
(1.09056 0.0154401 -1.91013e-18)
(1.11878 0.00725088 3.24112e-19)
(1.13389 -0.00152843 -2.46194e-18)
(1.13956 -0.00984971 3.77156e-18)
(1.13877 -0.0182845 3.33581e-19)
(1.13402 -0.0247199 -2.03801e-18)
(1.12689 -0.0321044 1.22073e-18)
(1.11839 -0.0354898 1.61471e-18)
(1.10959 -0.0418569 1.31104e-18)
(1.10059 -0.0421019 1.38053e-18)
(1.09182 -0.0474897 1.78014e-18)
(1.08347 -0.0453297 -7.69119e-19)
(-0.0644001 0.0727891 2.3679e-18)
(-0.0617858 0.0660216 1.06569e-18)
(-0.0322994 0.0621508 2.38407e-19)
(0.0381431 0.0423059 5.35619e-18)
(0.140254 0.037431 1.32805e-18)
(0.268842 0.032699 -2.43224e-18)
(0.4166 0.0337562 -5.79638e-18)
(0.569307 0.0358609 -6.8115e-18)
(0.714822 0.0381579 -2.00034e-18)
(0.842096 0.0388384 -1.84298e-18)
(0.945473 0.0371432 8.40243e-19)
(1.0235 0.0329916 2.24086e-18)
(1.07809 0.0267253 -1.28581e-18)
(1.11318 0.0189647 7.08278e-18)
(1.13304 0.0103759 -7.22265e-18)
(1.14201 0.00151921 2.62332e-19)
(1.14349 -0.0069238 -2.98248e-18)
(1.14011 -0.0151582 1.76946e-18)
(1.13393 -0.0216664 2.54742e-18)
(1.12606 -0.0288042 -2.77585e-18)
(1.11735 -0.032286 -2.02187e-18)
(1.10861 -0.0385814 -3.06974e-18)
(1.09973 -0.0388538 -6.53742e-20)
(1.09121 -0.0444158 -8.68744e-19)
(1.08307 -0.0422463 1.41803e-19)
(-0.0668827 0.0735187 -9.90269e-19)
(-0.0598097 0.0653062 -4.60702e-18)
(-0.0226477 0.0615405 -2.62442e-18)
(0.0591766 0.0416068 -6.31803e-18)
(0.175485 0.0378328 6.658e-19)
(0.319034 0.0348825 -6.41608e-19)
(0.4786 0.0378712 -7.46904e-19)
(0.637013 0.0413675 5.71184e-18)
(0.781049 0.0442403 3.36557e-19)
(0.900954 0.0447254 -1.85673e-18)
(0.993483 0.0423754 -1.56704e-18)
(1.05969 0.0374336 -4.35296e-18)
(1.10334 0.0304447 -5.26357e-18)
(1.12939 0.022206 -3.448e-18)
(1.14246 0.0132886 -4.97283e-19)
(1.14674 0.00439409 8.9416e-19)
(1.1452 -0.00412714 2.58995e-18)
(1.1401 -0.0121469 1.86895e-18)
(1.13302 -0.0187314 -1.50284e-18)
(1.12479 -0.0255979 2.03022e-18)
(1.11609 -0.0292167 2.05554e-18)
(1.10748 -0.0353924 1.27728e-18)
(1.09878 -0.0357285 -1.09051e-19)
(1.09055 -0.0414395 7.14595e-21)
(1.08262 -0.039253 1.4505e-18)
(-0.0694363 0.0740229 -2.26456e-19)
(-0.0576016 0.0641826 -2.8063e-18)
(-0.0120365 0.0605675 3.10186e-19)
(0.0824284 0.0408533 3.92816e-18)
(0.21407 0.038616 -2.10163e-18)
(0.37258 0.0378405 5.92405e-18)
(0.542118 0.0428532 -4.66943e-18)
(0.703051 0.0474937 -2.18091e-18)
(0.842344 0.0505571 4.56694e-18)
(0.952613 0.0505072 5.6269e-18)
(1.03344 0.0473066 3.83146e-19)
(1.08821 0.0415146 1.96784e-18)
(1.12208 0.033839 1.49006e-18)
(1.14058 0.0251816 -3.9542e-18)
(1.14829 0.0160143 -7.64961e-18)
(1.14907 0.00711778 -8.30009e-19)
(1.14542 -0.00144042 -4.49052e-19)
(1.13922 -0.0092405 -1.35945e-18)
(1.13164 -0.0159022 2.02427e-18)
(1.12327 -0.0224794 -9.36194e-19)
(1.1147 -0.0262754 -1.52789e-18)
(1.10627 -0.03228 1.0171e-18)
(1.09779 -0.0327269 -2.32807e-19)
(1.08986 -0.0385526 8.21756e-19)
(1.08213 -0.0363479 3.16265e-19)
(-0.0720535 0.0743037 3.77677e-18)
(-0.0551079 0.0626434 6.64936e-18)
(-0.000296393 0.0592474 2.27776e-18)
(0.108203 0.0401489 1.25141e-18)
(0.256156 0.0399509 5.41576e-18)
(0.428991 0.0416689 -2.72297e-19)
(0.605944 0.0486299 2.62235e-18)
(0.765991 0.0540362 -4.47639e-19)
(0.897714 0.056884 -4.56615e-18)
(0.996875 0.0560206 -1.64196e-18)
(1.06591 0.0518563 -1.58466e-18)
(1.11011 0.045219 6.67253e-18)
(1.13556 0.036928 2.92917e-18)
(1.14791 0.0279228 1.80597e-18)
(1.15151 0.0185823 1.18599e-18)
(1.14975 0.00971237 8.96594e-19)
(1.14467 0.00115437 -8.13059e-20)
(1.13781 -0.006431 -2.05704e-18)
(1.12997 -0.0131662 -1.18787e-18)
(1.12164 -0.0194447 4.24484e-19)
(1.11325 -0.023455 2.9228e-18)
(1.105 -0.0292354 2.91497e-19)
(1.09677 -0.0298506 7.39953e-19)
(1.08913 -0.0357459 -2.59604e-18)
(1.08159 -0.0335307 -1.23902e-18)
(-0.0747259 0.0743636 -4.09612e-18)
(-0.0522626 0.0606841 -5.58499e-18)
(0.0127755 0.057611 -5.52953e-18)
(0.136809 0.0396258 -9.78082e-19)
(0.301746 0.0420073 -8.51585e-18)
(0.487511 0.0463998 -5.33336e-19)
(0.668756 0.0550544 -2.80733e-18)
(0.824624 0.0607703 1.56908e-19)
(0.94661 0.0630314 4.78158e-18)
(1.03397 0.0611592 2.4305e-19)
(1.0917 0.0559944 2.53905e-18)
(1.12649 0.0485636 -6.30245e-18)
(1.14488 0.039747 -2.75791e-18)
(1.15236 0.0304662 -9.95905e-19)
(1.15288 0.0210205 3.949e-18)
(1.14932 0.0121976 -1.55273e-18)
(1.14331 0.00367239 -3.17958e-19)
(1.13608 -0.00371229 4.881e-18)
(1.12815 -0.0105117 -1.49033e-18)
(1.11994 -0.0164921 1.01999e-18)
(1.11175 -0.0207475 -1.80893e-18)
(1.10371 -0.0262521 -2.21431e-18)
(1.09573 -0.0271016 -2.2297e-18)
(1.08838 -0.0330093 2.3397e-18)
(1.08101 -0.0308024 -2.31303e-18)
(-0.0774432 0.0742049 2.56684e-18)
(-0.0489868 0.0583057 3.58167e-18)
(0.0274202 0.0557066 2.49095e-19)
(0.168536 0.0394442 -8.13702e-19)
(0.35064 0.04493 4.34887e-18)
(0.547153 0.0519869 4.14598e-18)
(0.729269 0.0619286 5.36887e-18)
(0.878077 0.0674835 1.70465e-18)
(0.988904 0.0688595 -2.14698e-18)
(1.06443 0.0658696 2.65394e-18)
(1.11174 0.0597275 -5.27633e-19)
(1.13839 0.051583 3.94991e-18)
(1.15101 0.0423352 -2.46951e-18)
(1.1547 0.0328474 6.67137e-19)
(1.15296 0.023353 1.87108e-19)
(1.14816 0.0145901 8.83198e-19)
(1.14158 0.00612543 -3.8765e-18)
(1.13416 -0.00107979 -4.14213e-18)
(1.12625 -0.00792807 7.62483e-19)
(1.11821 -0.0136219 -3.19529e-18)
(1.11023 -0.0181436 -8.84676e-19)
(1.10241 -0.0233253 3.2494e-20)
(1.09469 -0.0244815 1.11802e-20)
(1.08759 -0.0303317 1.10125e-18)
(1.0804 -0.0281664 2.93399e-18)
(-0.0801932 0.0738298 1.07112e-18)
(-0.0451844 0.0555134 -3.13779e-18)
(0.0439151 0.0536098 2.42004e-18)
(0.20361 0.0397857 -1.29365e-18)
(0.402404 0.0488113 2.2432e-18)
(0.606788 0.0583081 -5.86847e-19)
(0.786371 0.0690342 -4.1279e-18)
(0.925848 0.0739993 2.42577e-19)
(1.0248 0.0742815 -5.07915e-19)
(1.08897 0.0701394 -2.91442e-20)
(1.12695 0.0630846 2.33606e-18)
(1.14673 0.0543202 -3.29592e-18)
(1.15471 0.0447308 2.70444e-18)
(1.15552 0.0350968 4.53633e-19)
(1.15216 0.0255995 2.59983e-18)
(1.14652 0.0169036 1.72211e-18)
(1.13961 0.00852204 2.12564e-18)
(1.13215 0.00147022 -5.05772e-19)
(1.12432 -0.00540567 2.59778e-18)
(1.11648 -0.0108362 1.61828e-18)
(1.1087 -0.0156326 9.77043e-19)
(1.1011 -0.020453 9.63259e-19)
(1.09364 -0.021991 1.31427e-18)
(1.08677 -0.0277013 -5.16688e-19)
(1.07974 -0.0256281 -2.20401e-18)
(-0.0829611 0.0732396 -1.59289e-18)
(-0.0407391 0.0523174 7.16073e-19)
(0.0625713 0.0514313 4.94103e-18)
(0.242149 0.0408381 5.23301e-18)
(0.45636 0.0536688 -3.46984e-18)
(0.665255 0.0651833 -3.47077e-18)
(0.839213 0.0761642 -3.47743e-19)
(0.96778 0.0801889 -1.19766e-18)
(1.05476 0.0792564 3.54717e-18)
(1.10837 0.0739852 3.79148e-19)
(1.1382 0.0661067 1.48407e-18)
(1.15227 0.0568195 9.94328e-19)
(1.15661 0.0469693 7.92535e-19)
(1.15526 0.0372402 -4.67458e-18)
(1.15077 0.0277747 -3.55032e-18)
(1.14459 0.0191489 -5.09926e-18)
(1.13752 0.0108679 -1.61561e-18)
(1.13008 0.0039413 4.08235e-19)
(1.12239 -0.00293649 -3.6148e-18)
(1.11475 -0.00813778 -8.24262e-19)
(1.10716 -0.0132023 -5.35027e-19)
(1.09978 -0.0176359 -1.28383e-18)
(1.09256 -0.019629 2.18949e-19)
(1.08592 -0.0251057 -3.42578e-19)
(1.07905 -0.0231955 -1.61812e-19)
(-0.0857297 0.0724341 -1.95284e-18)
(-0.0355109 0.0487357 1.68082e-18)
(0.0837219 0.0493221 -1.06798e-19)
(0.284114 0.0427714 -2.74898e-18)
(0.511634 0.059437 2.66561e-18)
(0.721484 0.0724045 2.42058e-18)
(0.887252 0.0831444 -1.01655e-18)
(1.00399 0.0859712 -2.87619e-18)
(1.07934 0.0837781 -1.1767e-18)
(1.1234 0.0774403 -6.60754e-18)
(1.14625 0.0688388 -5.59256e-18)
(1.15568 0.0591223 1.01249e-18)
(1.15719 0.0490815 2.89647e-18)
(1.15426 0.0392988 2.87065e-18)
(1.14898 0.0298898 -3.22941e-18)
(1.14248 0.0213348 2.78818e-18)
(1.13537 0.0131665 1.03943e-18)
(1.12799 0.00633728 7.36817e-20)
(1.12046 -0.000514346 2.53452e-18)
(1.11302 -0.00552956 -5.56123e-19)
(1.10563 -0.0108395 -2.41889e-19)
(1.09847 -0.0148782 1.32287e-18)
(1.09147 -0.0173918 -4.82587e-19)
(1.08503 -0.0225333 2.04156e-18)
(1.07832 -0.0208797 -1.61933e-18)
(-0.0884786 0.0714114 7.62743e-19)
(-0.0293327 0.0447974 -3.93673e-18)
(0.107702 0.0474767 -4.73649e-18)
(0.329262 0.0457092 -3.49016e-18)
(0.567233 0.0659767 4.01468e-18)
(0.774595 0.0797654 -2.95741e-18)
(0.930232 0.089844 4.72724e-18)
(1.03482 0.091306 3.35863e-18)
(1.09921 0.0878647 -9.75233e-19)
(1.13479 0.0805471 1.07042e-18)
(1.15175 0.0713254 3.45405e-18)
(1.15746 0.061265 -6.86156e-19)
(1.15681 0.0510926 -9.15823e-19)
(1.15274 0.0412895 -5.41537e-19)
(1.14694 0.031953 1.32423e-18)
(1.14026 0.0234683 -3.54872e-18)
(1.13318 0.0154194 -2.16062e-18)
(1.1259 0.0086625 2.53514e-18)
(1.11855 0.00186487 -8.01426e-19)
(1.11129 -0.00301361 -3.03432e-19)
(1.10409 -0.00852997 1.5842e-18)
(1.09715 -0.0121869 -7.20231e-19)
(1.09035 -0.0152721 -2.00875e-18)
(1.08411 -0.0199741 -1.75646e-18)
(1.07757 -0.0186952 2.74302e-18)
(-0.0911835 0.0701665 9.34178e-20)
(-0.0220066 0.0405474 1.12669e-18)
(0.134817 0.0461269 1.51033e-18)
(0.377133 0.0497018 5.7801e-18)
(0.622146 0.073099 -6.37302e-18)
(0.82394 0.0870849 2.28611e-18)
(0.968145 0.096176 -2.91728e-18)
(1.06069 0.0961847 9.19572e-19)
(1.11499 0.0915487 -2.31101e-18)
(1.14318 0.0833505 -1.80546e-18)
(1.15526 0.0736076 -2.95814e-18)
(1.15802 0.0632783 -1.47032e-18)
(1.15575 0.0530223 2.01672e-18)
(1.15088 0.0432249 -2.27384e-18)
(1.14475 0.0339704 -2.14987e-18)
(1.138 0.0255545 5.88217e-18)
(1.13098 0.0176272 5.3218e-18)
(1.12382 0.0109218 -6.56649e-19)
(1.11666 0.00420311 2.93263e-19)
(1.10956 -0.000590342 8.15704e-19)
(1.10256 -0.00626014 -1.19407e-18)
(1.09581 -0.00957158 1.33481e-18)
(1.08921 -0.0132582 1.43597e-18)
(1.08316 -0.0174212 -1.92987e-18)
(1.07679 -0.0166595 -2.40569e-18)
(-0.0938159 0.0686908 9.09715e-19)
(-0.0133018 0.0360536 2.32657e-18)
(0.165298 0.0455254 -4.59177e-18)
(0.427069 0.0547134 -3.30804e-18)
(0.675441 0.0805973 3.12105e-18)
(0.86912 0.0942192 3.05383e-18)
(1.00117 0.102092 4.31615e-18)
(1.08213 0.10062 -2.97332e-18)
(1.12731 0.0948703 1.82167e-18)
(1.14915 0.0858943 1.21799e-18)
(1.15722 0.0757219 -4.46491e-19)