/*--------------------------------*- C++ -*----------------------------------*\
  =========                 |
  \\      /  F ield         | OpenFOAM: The Open Source CFD Toolbox
   \\    /   O peration     | Website:  https://openfoam.org
    \\  /    A nd           | Version:  7
     \\/     M anipulation  |
\*---------------------------------------------------------------------------*/
FoamFile
{
    version     2.0;
    format      ascii;
    class       volVectorField;
    location    "9.5";
    object      U;
}
// * * * * * * * * * * * * * * * * * * * * * * * * * * * * * * * * * * * * * //

dimensions      [0 1 -1 0 0 0 0];

internalField   nonuniform List<vector> 
2413
(
(2 -3.50175e-15 0)
(2 -3.97028e-15 0)
(2 -4.30067e-15 0)
(2 -4.57904e-15 0)
(2 -4.65394e-15 0)
(2 -4.26364e-15 0)
(2 -4.13759e-15 0)
(2 -3.90996e-15 0)
(2 -3.38063e-15 0)
(2 -3.07576e-15 0)
(2 -2.55133e-15 0)
(2 -1.56723e-15 0)
(2 -9.29831e-16 0)
(2 -5.90421e-16 0)
(2 -6.13106e-16 0)
(2 -6.66538e-16 0)
(2 -1.0994e-15 0)
(2 -1.53159e-15 0)
(2 -2.40033e-15 0)
(2 -2.992e-15 0)
(2 -3.00261e-15 0)
(2 -3.03322e-15 0)
(2 -3.11977e-15 0)
(2 -3.23179e-15 0)
(2 -3.35279e-15 0)
(2 -3.44956e-15 0)
(2 -3.42439e-15 0)
(2 -3.43187e-15 0)
(2 -3.62118e-15 0)
(2 -3.79292e-15 0)
(2 -4.5244e-15 0)
(2 -4.86402e-15 0)
(2 -4.913e-15 0)
(2 -4.94107e-15 0)
(2 -4.92043e-15 0)
(2 -4.56296e-15 0)
(2 -4.4022e-15 0)
(2 -4.10086e-15 0)
(2 -4.04301e-15 0)
(2 -3.73601e-15 0)
(2 -3.56585e-15 0)
(2 -3.472e-15 0)
(2 -3.40262e-15 0)
(2 -3.3701e-15 0)
(2 -3.46246e-15 0)
(2 -3.28015e-15 0)
(2 -2.62602e-15 0)
(2 -2.20351e-15 0)
(2 -1.74347e-15 0)
(2 -4.98557e-16 0)
(2 -6.13639e-16 0)
(2 -1.8387e-15 0)
(2 -2.47566e-15 0)
(2 -2.27448e-15 0)
(2 -1.99119e-15 0)
(2 -1.82942e-15 0)
(2 -1.89504e-15 0)
(2 -2.12766e-15 0)
(2 -2.21727e-15 0)
(2 -2.25736e-15 0)
(2 -2.52147e-15 0)
(2 -2.94926e-15 0)
(2 -4.08211e-15 0)
(2 -4.45768e-15 0)
(2 -4.84623e-15 0)
(2 -5.03278e-15 0)
(2 -4.0239e-15 0)
(2 -3.76477e-15 0)
(2 -3.32261e-15 0)
(2 -3.14416e-15 0)
(2 -2.40853e-15 0)
(2 -2.61153e-15 0)
(2 -2.87162e-15 0)
(2 -2.91169e-15 0)
(2 -3.00104e-15 0)
(2 -2.97529e-15 0)
(2 -2.68487e-15 0)
(2 -2.46535e-15 0)
(2 -2.43368e-15 0)
(2 -2.62724e-15 0)
(2 -2.73428e-15 0)
(2 -3.11308e-15 0)
(2 -3.37066e-15 0)
(2 -3.48127e-15 0)
(2 -3.72064e-15 0)
(2 -3.91891e-15 0)
(2 -4.02001e-15 0)
(2 -4.05251e-15 0)
(2 -3.98345e-15 0)
(2 -4.10044e-15 0)
(2 -4.22406e-15 0)
(2 4.00013e-16 0)
(2 4.42841e-16 0)
(2 5.23724e-16 0)
(2 3.07487e-16 0)
(2 8.06626e-16 0)
(2 1.57078e-15 0)
(2 1.97735e-15 0)
(2 1.83458e-15 0)
(2 1.55659e-15 0)
(2 1.38292e-15 0)
(2 1.36678e-15 0)
(2 1.30072e-15 0)
(2 1.33335e-15 0)
(2 1.33911e-15 0)
(2 1.3828e-15 0)
(2 1.34746e-15 0)
(2 1.3553e-15 0)
(2 1.31746e-15 0)
(2 1.30245e-15 0)
(2 1.32873e-15 0)
(2 1.31127e-15 0)
(2 1.14744e-15 0)
(2 9.92703e-16 0)
(2 9.44887e-16 0)
(2 9.22694e-16 0)
(2 9.13017e-16 0)
(2 9.09019e-16 0)
(2 8.83038e-16 0)
(2 7.63601e-16 0)
(2 6.91504e-16 0)
(2 6.2019e-16 0)
(2 5.14501e-16 0)
(2 5.40728e-16 0)
(2 4.87787e-16 0)
(2 1.84858e-16 0)
(2 8.86658e-17 0)
(2 -4.91291e-17 0)
(2 -3.61978e-16 0)
(2 -4.26591e-16 0)
(2 -4.38039e-16 0)
(2 -5.65034e-16 0)
(2 -7.63018e-16 0)
(2 -8.31362e-16 0)
(2 -9.53901e-16 0)
(2 -1.3005e-15 0)
(2 -1.46139e-15 0)
(2 -1.72534e-15 0)
(2 -1.84403e-15 0)
(2 -2.1477e-15 0)
(2 -2.42376e-15 0)
(2 -2.48545e-15 0)
(2 -2.43499e-15 0)
(2 -2.47807e-15 0)
(2 -2.49047e-15 0)
(2 -2.43615e-15 0)
(2 -2.49129e-15 0)
(2 -2.50216e-15 0)
(2 -2.54633e-15 0)
(2 -2.75389e-15 0)
(2 -2.90997e-15 0)
(2 -3.03979e-15 0)
(2 -3.16271e-15 0)
(2 -3.42486e-15 0)
(2 -3.5957e-15 0)
(2 -4.30006e-15 0)
(2 -4.60636e-15 0)
(2 -4.06048e-15 0)
(2 -3.27581e-15 0)
(2 -2.40873e-15 0)
(2 -2.14066e-15 0)
(2 -1.87611e-15 0)
(2 -1.09971e-15 0)
(2 -9.16474e-16 0)
(2 -7.16519e-16 0)
(2 -5.27334e-16 0)
(2 -1.18694e-15 0)
(2 -1.66608e-15 0)
(2 -1.47455e-15 0)
(2 -1.34538e-15 0)
(2 -1.40441e-15 0)
(2 -1.76364e-15 0)
(2 -1.66419e-15 0)
(2 -1.4545e-15 0)
(2 -1.32309e-15 0)
(2 -1.25657e-15 0)
(2 -1.32815e-15 0)
(2 -1.49074e-15 0)
(2 -1.5682e-15 0)
(2 -1.41891e-15 0)
(2 -1.30078e-15 0)
(2 -1.31464e-15 0)
(2 -1.16628e-15 0)
(2 -1.18491e-15 0)
(2 -1.1151e-15 0)
(2 -1.15518e-15 0)
(2 -1.15337e-15 0)
(2 -1.48011e-15 0)
(2 -1.98343e-15 0)
(2 -1.87444e-15 0)
(2 -2.09312e-15 0)
(2 -2.47755e-15 0)
(2 -2.00614e-15 0)
(2 -1.82587e-15 0)
(2 -1.55615e-15 0)
(2 -1.20446e-15 0)
(2 -1.21476e-15 0)
(2 -1.22456e-15 0)
(2 -1.02682e-15 0)
(2 -1.08724e-15 0)
(2 -1.30821e-15 0)
(2 -1.71884e-15 0)
(2 -1.78628e-15 0)
(2 -1.78937e-15 0)
(2 -1.77834e-15 0)
(2 -1.66586e-15 0)
(2 -1.81734e-15 0)
(2 -1.94723e-15 0)
(2 -2.2485e-15 0)
(2 -2.40839e-15 0)
(2 -2.4659e-15 0)
(2 -4.1318e-16 0)
(2 -3.36637e-16 0)
(2 -4.04993e-16 0)
(2 -7.47751e-16 0)
(2 -8.88293e-16 0)
(2 -1.03761e-15 0)
(2 -1.47109e-15 0)
(2 -1.6425e-15 0)
(2 -1.59387e-15 0)
(2 -1.55872e-15 0)
(2 -1.25591e-15 0)
(2 -1.02318e-15 0)
(2 -5.74485e-16 0)
(2 2.26816e-16 0)
(2 8.52433e-16 0)
(2 9.00242e-16 0)
(2 8.36858e-16 0)
(2 8.52832e-16 0)
(2 1.00138e-15 0)
(2 1.20259e-15 0)
(2 1.294e-15 0)
(2 1.5548e-15 0)
(2 1.69073e-15 0)
(2 1.7068e-15 0)
(2 1.66035e-15 0)
(2 1.46771e-15 0)
(2 1.01469e-15 0)
(2 3.1209e-16 0)
(2 -3.2606e-17 0)
(2 -2.10824e-16 0)
(2 -4.82313e-17 0)
(2 2.25149e-16 0)
(2 3.94362e-16 0)
(2 4.13727e-16 0)
(2 2.47461e-16 0)
(2 1.27662e-16 0)
(2 -1.31116e-16 0)
(2 -4.54998e-16 0)
(2 -6.00404e-16 0)
(2 -9.1646e-16 0)
(2 -1.09154e-15 0)
(2 -1.21934e-15 0)
(2 -1.23387e-15 0)
(2 -1.21866e-15 0)
(2 -1.46152e-15 0)
(2 -1.63691e-15 0)
(2 -1.68183e-15 0)
(2 -2.21025e-15 0)
(2 -2.66507e-15 0)
(2 -2.58536e-15 0)
(2 -2.58196e-15 0)
(2 -2.52927e-15 0)
(2 -2.56536e-15 0)
(2 -2.6313e-15 0)
(2 -2.63616e-15 0)
(2 -2.67063e-15 0)
(2 -2.68423e-15 0)
(2 -2.67359e-15 0)
(2 -2.67854e-15 0)
(2 -2.77644e-15 0)
(2 -2.75291e-15 0)
(2 -2.50326e-15 0)
(2 -2.61051e-15 0)
(2 -3.44688e-15 0)
(2 -3.49258e-15 0)
(2 -3.3559e-15 0)
(2 -3.08622e-15 0)
(2 -2.86481e-15 0)
(2 -2.49534e-15 0)
(2 -2.33531e-15 0)
(2 -2.18662e-15 0)
(2 -1.85006e-15 0)
(2 -1.80626e-15 0)
(2 -1.50587e-15 0)
(2 -1.25217e-15 0)
(2 -1.45161e-15 0)
(2 -1.88988e-15 0)
(2 -1.87516e-15 0)
(2 -2.0158e-15 0)
(2 -2.57801e-15 0)
(2 -2.7796e-15 0)
(2 -2.47812e-15 0)
(2 -2.33372e-15 0)
(2 -2.41476e-15 0)
(2 -2.52479e-15 0)
(2 -2.79927e-15 0)
(2 -2.82589e-15 0)
(2 -2.84737e-15 0)
(2 -3.02958e-15 0)
(2 -2.75027e-15 0)
(2 -2.01397e-15 0)
(2 -1.61578e-15 0)
(2 -1.64945e-15 0)
(2 -1.62549e-15 0)
(2 -1.46264e-15 0)
(2 -1.48735e-15 0)
(2 -2.05192e-15 0)
(2 -2.22711e-15 0)
(2 -2.41969e-15 0)
(2 -2.87504e-15 0)
(2 -3.01226e-15 0)
(2 -2.94609e-15 0)
(2 -2.09978e-15 0)
(2 -1.40244e-15 0)
(2 -1.3202e-15 0)
(2 -1.20983e-15 0)
(2 -1.05883e-15 0)
(2 -8.95089e-16 0)
(2 -8.31705e-16 0)
(2 -5.06282e-16 0)
(2 -3.12113e-16 0)
(2 1.47132e-16 0)
(2 3.07231e-16 0)
(2 1.5242e-16 0)
(2 -5.03325e-16 0)
(2 -8.30217e-16 0)
(2 -9.78812e-16 0)
(2 -1.14619e-15 0)
(2 -1.31825e-15 0)
(2 -1.68298e-15 0)
(2 -1.45109e-15 0)
(2 -1.46333e-15 0)
(2 -1.68285e-15 0)
(2 -1.86589e-15 0)
(2 -1.85221e-15 0)
(2 -2.10786e-15 0)
(2 -2.29874e-15 0)
(2 -2.68327e-15 0)
(2 -2.6467e-15 0)
(2 -2.19577e-15 0)
(2 -1.91644e-15 0)
(2 -1.53918e-15 0)
(2 -1.36746e-15 0)
(2 -9.25989e-16 0)
(2 -7.0916e-16 0)
(2 -2.90207e-16 0)
(2 3.56024e-16 0)
(2 3.9775e-16 0)
(2 3.42014e-16 0)
(2 5.13639e-16 0)
(2 6.61939e-16 0)
(2 9.58928e-16 0)
(2 9.83373e-16 0)
(2 5.5947e-16 0)
(2 1.76054e-16 0)
(2 -7.974e-17 0)
(2 -3.82801e-16 0)
(2 -6.83586e-16 0)
(2 -1.01024e-15 0)
(2 -1.23502e-15 0)
(2 -1.36418e-15 0)
(2 -1.43082e-15 0)
(2 -1.5662e-15 0)
(2 -1.67865e-15 0)
(2 -1.65287e-15 0)
(2 -1.68206e-15 0)
(2 -1.63683e-15 0)
(2 -1.75703e-15 0)
(2 -1.93353e-15 0)
(2 -2.0458e-15 0)
(2 -2.13389e-15 0)
(2 -2.27451e-15 0)
(2 -2.48087e-15 0)
(2 -2.55304e-15 0)
(2 -2.47741e-15 0)
(2 -2.39445e-15 0)
(2 -2.35463e-15 0)
(2 -3.21242e-15 0)
(2 -4.19338e-15 0)
(2 -4.55663e-15 0)
(2 -4.38795e-15 0)
(2 -4.08749e-15 0)
(2 -4.00269e-15 0)
(2 -4.00065e-15 0)
(2 -3.97607e-15 0)
(2 -4.05477e-15 0)
(2 -4.18693e-15 0)
(2 -4.38241e-15 0)
(2 -4.42367e-15 0)
(2 -4.28833e-15 0)
(2 -4.08623e-15 0)
(2 -3.96325e-15 0)
(2 -3.70271e-15 0)
(2 -3.38932e-15 0)
(2 -2.81612e-15 0)
(2 -2.53961e-15 0)
(2 -2.47242e-15 0)
(2 -2.23524e-15 0)
(2 -1.84361e-15 0)
(2 -1.84697e-15 0)
(2 -1.8276e-15 0)
(2 -1.77275e-15 0)
(2 -1.97243e-15 0)
(2 -2.1632e-15 0)
(2 -2.34525e-15 0)
(2 -2.69011e-15 0)
(2 -3.03566e-15 0)
(2 -3.13431e-15 0)
(2 -3.57717e-15 0)
(2 -3.76617e-15 0)
(2 -3.80403e-15 0)
(2 -3.80672e-15 0)
(2 -3.81085e-15 0)
(2 -4.49304e-15 0)
(2 -5.12961e-15 0)
(2 -5.19244e-15 0)
(2 -4.876e-15 0)
(2 -4.46315e-15 0)
(2 -4.39332e-15 0)
(2 -4.33994e-15 0)
(2 -4.2346e-15 0)
(2 -3.96445e-15 0)
(2 -3.76602e-15 0)
(2 -3.84997e-15 0)
(2 -3.87589e-15 0)
(2 -3.82957e-15 0)
(2 -3.23778e-15 0)
(2 -2.98958e-15 0)
(2 -3.01542e-15 0)
(2 -2.54207e-15 0)
(2 -2.33164e-15 0)
(2 -2.23854e-15 0)
(2 -2.21742e-15 0)
(2 -2.37974e-15 0)
(2 -2.05327e-15 0)
(2 -1.7364e-15 0)
(2 -1.05387e-15 0)
(2 -9.41281e-16 0)
(2 -1.02877e-15 0)
(2 -1.23989e-15 0)
(2 -1.31902e-15 0)
(2 -1.40294e-15 0)
(2 -1.45883e-15 0)
(2 -1.5465e-15 0)
(2 -1.8532e-15 0)
(2 -2.47935e-15 0)
(2 -2.89322e-15 0)
(2 -3.05937e-15 0)
(2 -3.20795e-15 0)
(2 -3.6238e-15 0)
(2 -1.07704e-15 0)
(2 -8.55336e-16 0)
(2 -5.26318e-17 0)
(2 3.81468e-16 0)
(2 6.00167e-16 0)
(2 6.8937e-16 0)
(2 7.11582e-16 0)
(2 6.00058e-16 0)
(2 3.73573e-16 0)
(2 9.41733e-16 0)
(2 1.27367e-15 0)
(2 1.20292e-15 0)
(2 1.18655e-15 0)
(2 9.81176e-16 0)
(2 5.2434e-16 0)
(2 -1.13506e-16 0)
(2 -4.06846e-16 0)
(2 -5.50885e-16 0)
(2 -7.04459e-16 0)
(2 -9.5826e-16 0)
(2 -1.22993e-15 0)
(2 -1.54944e-15 0)
(2 -2.04252e-15 0)
(2 -2.11161e-15 0)
(2 -2.1338e-15 0)
(2 -1.26429e-15 0)
(2 -9.96574e-16 0)
(2 -9.49206e-16 0)
(2 -1.11336e-15 0)
(2 -1.25917e-15 0)
(2 -1.10312e-15 0)
(2 -9.39547e-16 0)
(2 -1.47711e-15 0)
(2 -1.78528e-15 0)
(2 -2.04071e-15 0)
(2 -2.23199e-15 0)
(2 -2.38107e-15 0)
(2 -2.42744e-15 0)
(2 -2.34532e-15 0)
(2 -2.30752e-15 0)
(2 -2.3587e-15 0)
(2 -2.37595e-15 0)
(2 -2.6893e-15 0)
(2 -3.11321e-15 0)
(2 -3.30737e-15 0)
(2 -3.27091e-15 0)
(2 -3.30702e-15 0)
(2 -3.49372e-15 0)
(2 -3.67712e-15 0)
(2 -3.72462e-15 0)
(2 -3.86565e-15 0)
(2 -3.94477e-15 0)
(2 -3.34536e-15 0)
(2 -3.21922e-15 0)
(2 -3.34536e-15 0)
(2 -3.33314e-15 0)
(2 -3.05146e-15 0)
(2 -2.17774e-15 0)
(2 -1.56987e-15 0)
(2 -1.47043e-15 0)
(2 -1.50152e-15 0)
(2 -1.71443e-15 0)
(2 -1.83266e-15 0)
(2 -1.86092e-15 0)
(2 -1.83454e-15 0)
(2 -1.8657e-15 0)
(2 -1.6117e-15 0)
(2 -1.38023e-15 0)
(2 -1.65924e-15 0)
(2 -1.68795e-15 0)
(2 -1.57074e-15 0)
(2 -1.52218e-15 0)
(2 -1.51131e-15 0)
(2 -1.72667e-15 0)
(2 -2.09948e-15 0)
(2 -2.22804e-15 0)
(2 -2.20425e-15 0)
(2 -2.46169e-15 0)
(2 -2.53076e-15 0)
(2 -2.63651e-15 0)
(2 -3.12914e-15 0)
(2 -3.36267e-15 0)
(2 -3.75655e-15 0)
(2 -4.00463e-15 0)
(2 -4.00882e-15 0)
(2 -3.93097e-15 0)
(2 -4.44999e-15 0)
(2 -4.57732e-15 0)
(2 -4.72831e-15 0)
(2 -4.88126e-15 0)
(2 -4.89763e-15 0)
(2 -4.77412e-15 0)
(2 -4.6268e-15 0)
(2 -4.42464e-15 0)
(2 -3.78784e-15 0)
(2 -3.10168e-15 0)
(2 -2.85606e-15 0)
(2 -2.29283e-15 0)
(2 -2.17138e-15 0)
(2 -2.08964e-15 0)
(2 -1.94298e-15 0)
(2 -1.8142e-15 0)
(2 -1.84046e-15 0)
(2 -1.32111e-15 0)
(2 -1.10119e-15 0)
(2 -9.97253e-16 0)
(2 -1.34462e-15 0)
(2 -1.48079e-15 0)
(2 -1.12044e-15 0)
(2 -9.23571e-16 0)
(2 -1.02727e-15 0)
(2 -1.07921e-15 0)
(2 -1.19831e-15 0)
(2 -1.21945e-15 0)
(2 -1.45897e-15 0)
(2 -2.18375e-15 0)
(2 -3.72144e-15 0)
(2 -4.37657e-15 0)
(2 -4.29023e-15 0)
(2 -4.17244e-15 0)
(2 3.34162e-16 0)
(2 1.71806e-16 0)
(2 -3.25221e-17 0)
(2 3.50019e-17 0)
(2 -1.55162e-17 0)
(2 -1.73977e-16 0)
(2 -3.91927e-16 0)
(2 -5.23909e-16 0)
(2 -3.91725e-16 0)
(2 -1.79869e-16 0)
(2 1.59852e-16 0)
(2 5.83705e-16 0)
(2 3.98524e-16 0)
(2 1.33837e-16 0)
(2 -3.09823e-16 0)
(2 -4.72916e-16 0)
(2 -5.27455e-16 0)
(2 -5.85697e-16 0)
(2 -6.21262e-16 0)
(2 -7.80101e-16 0)
(2 -9.5248e-16 0)
(2 -1.04482e-15 0)
(2 -1.24052e-15 0)
(2 -1.31466e-15 0)
(2 -1.14441e-15 0)
(2 -1.01022e-15 0)
(2 -1.3097e-15 0)
(2 -1.23376e-15 0)
(2 -1.08078e-15 0)
(2 -9.24959e-16 0)
(2 -8.12137e-16 0)
(2 -1.01033e-15 0)
(2 -1.28683e-15 0)
(2 -1.46674e-15 0)
(2 -2.00346e-15 0)
(2 -2.16647e-15 0)
(2 -2.22873e-15 0)
(2 -2.10985e-15 0)
(2 -2.01401e-15 0)
(2 -2.35337e-15 0)
(2 -2.53096e-15 0)
(2 -2.88692e-15 0)
(2 -2.91234e-15 0)
(2 -3.01377e-15 0)
(2 -3.0602e-15 0)
(2 -3.03287e-15 0)
(2 -2.75418e-15 0)
(2 -3.13006e-15 0)
(2 -2.98773e-15 0)
(2 -2.17186e-15 0)
(2 -2.06928e-15 0)
(2 -2.06728e-15 0)
(2 -2.05502e-15 0)
(2 -1.86102e-15 0)
(2 -1.33455e-15 0)
(2 -9.0212e-16 0)
(2 -6.48145e-16 0)
(2 -6.16919e-16 0)
(2 -8.86616e-16 0)
(2 -1.14097e-15 0)
(2 -1.1858e-15 0)
(2 -1.06701e-15 0)
(2 -1.07126e-15 0)
(2 -1.41727e-15 0)
(2 -2.13063e-15 0)
(2 -2.41619e-15 0)
(2 -2.71869e-15 0)
(2 -2.98804e-15 0)
(2 -3.15998e-15 0)
(2 -3.30148e-15 0)
(2 -3.29729e-15 0)
(2 -3.05534e-15 0)
(2 -2.99152e-15 0)
(2 -2.82305e-15 0)
(2 -2.67531e-15 0)
(2 -2.68764e-15 0)
(2 -2.90208e-15 0)
(2 -2.91835e-15 0)
(2 -3.24508e-15 0)
(2 -3.61323e-15 0)
(2 -3.78836e-15 0)
(2 -3.7763e-15 0)
(2 -3.73214e-15 0)
(2 -3.46574e-15 0)
(2 -2.97368e-15 0)
(2 -3.31115e-15 0)
(2 -3.46894e-15 0)
(2 -3.51169e-15 0)
(2 -3.76308e-15 0)
(2 -3.94512e-15 0)
(2 -4.00332e-15 0)
(2 -3.83395e-15 0)
(2 -3.48984e-15 0)
(2 -3.254e-15 0)
(2 -2.81447e-15 0)
(2 -2.79552e-15 0)
(2 -2.79546e-15 0)
(2 -2.69621e-15 0)
(2 -2.60326e-15 0)
(2 -2.44633e-15 0)
(2 -2.24934e-15 0)
(2 -2.26106e-15 0)
(2 -2.2969e-15 0)
(2 -2.18576e-15 0)
(2 -2.07224e-15 0)
(2 -2.24045e-15 0)
(2 -2.63977e-15 0)
(2 -2.67884e-15 0)
(2 -2.29848e-15 0)
(2 -1.98966e-15 0)
(2 -2.01415e-15 0)
(2 -1.81235e-15 0)
(2 -1.62042e-15 0)
(2 -1.63754e-15 0)
(2 -1.5958e-15 0)
(2 -1.45583e-15 0)
(2 -1.27678e-15 0)
(2 -1.62341e-15 0)
(2 -1.96238e-15 0)
(2 -2.39195e-15 0)
(2 1.39355e-15 0)
(2 1.46011e-15 0)
(2 9.99933e-16 0)
(2 1.78671e-16 0)
(2 -3.26333e-16 0)
(2 -4.9144e-16 0)
(2 -5.59688e-16 0)
(2 -6.86514e-16 0)
(2 -7.28703e-16 0)
(2 -7.85478e-16 0)
(2 -4.00156e-16 0)
(2 -2.07862e-16 0)
(2 -1.45329e-16 0)
(2 -5.8166e-17 0)
(2 2.59463e-16 0)
(2 2.7204e-16 0)
(2 3.25302e-16 0)
(2 5.61643e-16 0)
(2 5.39531e-16 0)
(2 -3.83027e-16 0)
(2 -7.01487e-16 0)
(2 -7.83181e-16 0)
(2 -9.01474e-16 0)
(2 -9.44387e-16 0)
(2 -6.42799e-16 0)
(2 -5.11952e-16 0)
(2 -5.858e-16 0)
(2 -6.7109e-16 0)
(2 -6.54281e-16 0)
(2 -6.52743e-16 0)
(2 -1.07391e-15 0)
(2 -1.27937e-15 0)
(2 -9.6409e-16 0)
(2 -9.1453e-16 0)
(2 -6.49498e-16 0)
(2 -1.73579e-16 0)
(2 -7.22639e-17 0)
(2 -1.83403e-16 0)
(2 -4.69986e-16 0)
(2 -8.76267e-16 0)
(2 -1.7409e-15 0)
(2 -2.26854e-15 0)
(2 -2.49649e-15 0)
(2 -2.41431e-15 0)
(2 -2.25697e-15 0)
(2 -2.29566e-15 0)
(2 -2.12216e-15 0)
(2 -1.80413e-15 0)
(2 -1.67261e-15 0)
(2 -1.72645e-15 0)
(2 -1.41745e-15 0)
(2 -1.23506e-15 0)
(2 -6.97426e-16 0)
(2 -1.97969e-16 0)
(2 2.89506e-16 0)
(2 4.91009e-16 0)
(2 3.24552e-16 0)
(2 1.37467e-17 0)
(2 -3.10237e-16 0)
(2 -7.28541e-16 0)
(2 -7.95906e-16 0)
(2 -6.19626e-16 0)
(2 -2.86926e-16 0)
(2 -2.15587e-16 0)
(2 -1.0272e-15 0)
(2 -1.48853e-15 0)
(2 -1.92892e-15 0)
(2 -2.44937e-15 0)
(2 -2.86558e-15 0)
(2 -3.28008e-15 0)
(2 -3.38296e-15 0)
(2 -3.78207e-15 0)
(2 -4.48914e-15 0)
(2 -4.41962e-15 0)
(2 -4.4889e-15 0)
(2 -4.01558e-15 0)
(2 -3.52698e-15 0)
(2 -3.49133e-15 0)
(2 -4.13173e-15 0)
(2 -4.20712e-15 0)
(2 -4.19589e-15 0)
(2 -3.80665e-15 0)
(2 -3.07868e-15 0)
(2 -2.48409e-15 0)
(2 -2.64035e-15 0)
(2 -3.64977e-15 0)
(2 -3.68158e-15 0)
(2 -3.59151e-15 0)
(2 -3.06198e-15 0)
(2 -2.74662e-15 0)
(2 -2.44482e-15 0)
(2 -1.82367e-15 0)
(2 -1.57571e-15 0)
(2 -1.44937e-15 0)
(2 -1.28767e-15 0)
(2 -1.18034e-15 0)
(2 -1.23795e-15 0)
(2 -1.26429e-15 0)
(2 -1.15252e-15 0)
(2 -1.04769e-15 0)
(2 -8.97299e-16 0)
(2 -7.07397e-16 0)
(2 -9.72938e-16 0)
(2 -1.35065e-15 0)
(2 -1.61435e-15 0)
(2 -1.8607e-15 0)
(2 -2.23606e-15 0)
(2 -2.62374e-15 0)
(2 -2.57475e-15 0)
(2 -2.60747e-15 0)
(2 -2.61198e-15 0)
(2 -2.36856e-15 0)
(2 -2.16975e-15 0)
(2 -1.85013e-15 0)
(2 -1.49766e-15 0)
(2 -5.35958e-16 0)
(2 -9.71377e-17 0)
(2 4.65274e-16 0)
(2 3.93375e-16 0)
(2 -6.51594e-16 0)
(2 8.9042e-16 0)
(2 1.11016e-15 0)
(2 1.29055e-15 0)
(2 1.16494e-15 0)
(2 1.3127e-15 0)
(2 1.45767e-15 0)
(2 1.64938e-15 0)
(2 1.82294e-15 0)
(2 1.8179e-15 0)
(2 1.37429e-15 0)
(2 1.16661e-15 0)
(2 8.44916e-16 0)
(2 3.86638e-16 0)
(2 -1.85654e-16 0)
(2 -6.5392e-16 0)
(2 -8.94963e-16 0)
(2 -1.00325e-15 0)
(2 -1.01189e-15 0)
(2 -1.12898e-15 0)
(2 -1.15813e-15 0)
(2 -1.01622e-15 0)
(2 -8.45403e-16 0)
(2 -6.99378e-16 0)
(2 -4.07198e-16 0)
(2 -1.12815e-17 0)
(2 -1.3918e-16 0)
(2 -2.01523e-16 0)
(2 -1.61535e-16 0)
(2 -1.70295e-16 0)
(2 -5.51008e-16 0)
(2 -9.60657e-16 0)
(2 -9.08884e-16 0)
(2 -5.31078e-17 0)
(2 5.37674e-16 0)
(2 5.48104e-16 0)
(2 5.22461e-17 0)
(2 -1.5382e-16 0)
(2 -6.09993e-16 0)
(2 -1.22865e-15 0)
(2 -1.14797e-15 0)
(2 -1.27173e-15 0)
(2 -1.54076e-15 0)
(2 -1.59296e-15 0)
(2 -1.37875e-15 0)
(2 -1.34087e-15 0)
(2 -1.25532e-15 0)
(2 -1.0413e-15 0)
(2 -9.21712e-16 0)
(2 -1.21485e-15 0)
(2 -1.33715e-15 0)
(2 -1.33599e-15 0)
(2 -1.03243e-15 0)
(2 -5.74207e-16 0)
(2 -4.91187e-16 0)
(2 -5.07e-16 0)
(2 -5.50369e-16 0)
(2 -3.2348e-16 0)
(2 -6.18418e-17 0)
(2 -1.69449e-16 0)
(2 -4.99902e-16 0)
(2 -7.92079e-16 0)
(2 -1.29377e-15 0)
(2 -1.37362e-15 0)
(2 -2.16709e-15 0)
(2 -2.51103e-15 0)
(2 -2.55575e-15 0)
(2 -2.43628e-15 0)
(2 -3.09896e-15 0)
(2 -3.64464e-15 0)
(2 -3.9932e-15 0)
(2 -4.32169e-15 0)
(2 -4.72574e-15 0)
(2 -4.85213e-15 0)
(2 -4.86153e-15 0)
(2 -4.77549e-15 0)
(2 -4.57989e-15 0)
(2 -4.38311e-15 0)
(2 -3.52477e-15 0)
(2 -3.09823e-15 0)
(2 -2.96447e-15 0)
(2 -2.78284e-15 0)
(2 -2.76815e-15 0)
(2 -2.40151e-15 0)
(2 -2.18629e-15 0)
(2 -2.00323e-15 0)
(2 -1.59635e-15 0)
(2 -1.26193e-15 0)
(2 -1.22559e-15 0)
(2 -1.08799e-15 0)
(2 -9.28782e-16 0)
(2 -6.0694e-16 0)
(2 -4.54835e-16 0)
(2 -5.01514e-16 0)
(2 -5.41597e-16 0)
(2 -1.4869e-16 0)
(2 4.68016e-16 0)
(2 7.18067e-16 0)
(2 4.81684e-16 0)
(2 3.77202e-16 0)
(2 4.10784e-16 0)
(2 3.03961e-16 0)
(2 -7.79031e-16 0)
(2 -1.17038e-15 0)
(2 -1.37949e-15 0)
(2 -1.56085e-15 0)
(2 -1.48659e-15 0)
(2 -1.45995e-15 0)
(2 -1.70263e-15 0)
(2 -1.86991e-15 0)
(2 -2.35829e-15 0)
(2 -2.39094e-15 0)
(2 -2.39718e-15 0)
(2 -2.42597e-15 0)
(2 -2.41816e-15 0)
(2 -2.80922e-15 0)
(2 -3.11861e-15 0)
(2 -3.31864e-15 0)
(2 -3.49507e-15 0)
(2 -3.37413e-15 0)
(2 -2.95942e-15 0)
(2 2.62752e-15 0)
(2 2.52519e-15 0)
(2 2.41357e-15 0)
(2 2.36435e-15 0)
(2 2.62042e-15 0)
(2 2.65613e-15 0)
(2 2.93141e-15 0)
(2 2.45878e-15 0)
(2 1.89979e-15 0)
(2 1.33162e-15 0)
(2 2.1988e-16 0)
(2 -2.60481e-16 0)
(2 -7.12777e-16 0)
(2 -1.46908e-15 0)
(2 -1.77705e-15 0)
(2 -1.93634e-15 0)
(2 -1.9465e-15 0)
(2 -1.83555e-15 0)
(2 -1.29718e-15 0)
(2 -3.69434e-16 0)
(2 -6.06662e-17 0)
(2 1.32227e-16 0)
(2 6.45976e-16 0)
(2 1.10079e-15 0)
(2 1.03918e-15 0)
(2 9.55499e-16 0)
(2 9.6463e-16 0)
(2 1.28723e-15 0)
(2 1.5034e-15 0)
(2 1.62842e-15 0)
(2 1.81105e-15 0)
(2 1.71997e-15 0)
(2 1.48073e-15 0)
(2 1.30435e-15 0)
(2 8.79922e-16 0)
(2 8.5637e-17 0)
(2 -4.43947e-16 0)
(2 -7.85187e-16 0)
(2 -1.2549e-15 0)
(2 -1.39034e-15 0)
(2 -1.25215e-15 0)
(2 -9.3182e-16 0)
(2 -2.0636e-16 0)
(2 1.21373e-16 0)
(2 4.18532e-16 0)
(2 1.03199e-15 0)
(2 1.60151e-15 0)
(2 1.73406e-15 0)
(2 1.58703e-15 0)
(2 1.52913e-15 0)
(2 1.61656e-15 0)
(2 1.04481e-15 0)
(2 5.42778e-16 0)
(2 2.29819e-16 0)
(2 -1.60731e-16 0)
(2 -6.961e-16 0)
(2 -1.39959e-15 0)
(2 -1.39593e-15 0)
(2 -1.28838e-15 0)
(2 -1.12059e-15 0)
(2 -1.01142e-15 0)
(2 -9.82869e-16 0)
(2 -1.46354e-15 0)
(2 -2.04696e-15 0)
(2 -2.93821e-15 0)
(2 -3.30951e-15 0)
(2 -3.55479e-15 0)
(2 -3.50019e-15 0)
(2 -3.36661e-15 0)
(2 -3.21295e-15 0)
(2 -3.03117e-15 0)
(2 -2.7924e-15 0)
(2 -2.57837e-15 0)
(2 -2.55347e-15 0)
(2 -2.44044e-15 0)
(2 -2.49869e-15 0)
(2 -2.25571e-15 0)
(2 -1.79679e-15 0)
(2 -1.09624e-15 0)
(2 -8.54221e-16 0)
(2 -6.75579e-16 0)
(2 -6.7592e-16 0)
(2 -3.38349e-16 0)
(2 8.55391e-17 0)
(2 6.48555e-16 0)
(2 1.06371e-15 0)
(2 1.50654e-15 0)
(2 1.87542e-15 0)
(2 2.00881e-15 0)
(2 1.82621e-15 0)
(2 1.76015e-15 0)
(2 1.48149e-15 0)
(2 1.12328e-15 0)
(2 5.76597e-16 0)
(2 -9.1304e-18 0)
(2 -4.12869e-16 0)
(2 -5.26722e-16 0)
(2 -8.92212e-17 0)
(2 2.89333e-17 0)
(2 2.58661e-16 0)
(2 2.64931e-16 0)
(2 1.87289e-16 0)
(2 -4.88411e-17 0)
(2 -5.76957e-16 0)
(2 -8.28201e-16 0)
(2 -1.23794e-15 0)
(2 -1.70571e-15 0)
(2 -1.92654e-15 0)
(2 -2.54706e-15 0)
(2 -2.31176e-15 0)
(2 -1.60854e-15 0)
(2 -1.41131e-15 0)
(2 -1.44159e-15 0)
(2 -1.63079e-15 0)
(2 -2.13823e-15 0)
(2 -2.65598e-15 0)
(2 -2.74419e-15 0)
(2 -2.79991e-15 0)
(2 -2.81953e-15 0)
(2 -2.61693e-15 0)
(2 3.29531e-15 0)
(2 2.95812e-15 0)
(2 2.77044e-15 0)
(2 2.37816e-15 0)
(2 2.16141e-15 0)
(2 1.98388e-15 0)
(2 1.57374e-15 0)
(2 1.26762e-15 0)
(2 1.08302e-15 0)
(2 1.00209e-15 0)
(2 9.01822e-16 0)
(2 6.55442e-16 0)
(2 4.15641e-16 0)
(2 1.8347e-16 0)
(2 8.50489e-17 0)
(2 -1.42507e-16 0)
(2 -1.57226e-16 0)
(2 -1.83257e-16 0)
(2 2.04604e-16 0)
(2 9.30987e-16 0)
(2 1.21575e-15 0)
(2 1.35365e-15 0)
(2 1.08884e-15 0)
(2 1.38139e-15 0)
(2 1.48829e-15 0)
(2 1.83826e-15 0)
(2 2.15734e-15 0)
(2 3.12376e-15 0)
(2 3.38131e-15 0)
(2 3.31118e-15 0)
(2 3.17201e-15 0)
(2 2.94096e-15 0)
(2 2.65023e-15 0)
(2 1.73566e-15 0)
(2 1.15099e-15 0)
(2 6.77248e-16 0)
(2 4.24585e-17 0)
(2 -4.28446e-16 0)
(2 -5.29353e-16 0)
(2 -2.17962e-16 0)
(2 3.2298e-17 0)
(2 4.25623e-16 0)
(2 7.34729e-16 0)
(2 8.12376e-16 0)
(2 1.10666e-15 0)
(2 1.2159e-15 0)
(2 1.35903e-15 0)
(2 1.85533e-15 0)
(2 2.56536e-15 0)
(2 2.5978e-15 0)
(2 2.9168e-15 0)
(2 3.24862e-15 0)
(2 2.63802e-15 0)
(2 2.12616e-15 0)
(2 1.94538e-15 0)
(2 1.7918e-15 0)
(2 1.57357e-15 0)
(2 1.22171e-15 0)
(2 8.29843e-16 0)
(2 3.73258e-16 0)
(2 3.99975e-16 0)
(2 3.91096e-16 0)
(2 2.78558e-16 0)
(2 1.95966e-16 0)
(2 1.85608e-16 0)
(2 2.91786e-16 0)
(2 2.03089e-16 0)
(2 -4.28825e-16 0)
(2 -5.23188e-16 0)
(2 -5.06797e-16 0)
(2 -4.82129e-16 0)
(2 -2.54696e-16 0)
(2 -2.76594e-16 0)
(2 -3.00595e-16 0)
(2 -3.12288e-16 0)
(2 -8.79465e-17 0)
(2 1.16274e-16 0)
(2 3.80036e-16 0)
(2 8.43521e-16 0)
(2 1.24565e-15 0)
(2 1.71666e-15 0)
(2 2.18553e-15 0)
(2 2.59158e-15 0)
(2 2.8925e-15 0)
(2 2.80575e-15 0)
(2 3.11382e-15 0)
(2 3.39599e-15 0)
(2 3.45666e-15 0)
(2 3.70128e-15 0)
(2 3.88048e-15 0)
(2 3.85749e-15 0)
(2 3.76108e-15 0)
(2 3.54782e-15 0)
(2 1.82631e-15 0)
(2 1.43833e-15 0)
(2 1.35251e-15 0)
(2 1.40895e-15 0)
(2 1.45955e-15 0)
(2 1.49408e-15 0)
(2 1.66316e-15 0)
(2 1.90417e-15 0)
(2 2.28943e-15 0)
(2 2.45315e-15 0)
(2 2.28163e-15 0)
(2 1.41981e-15 0)
(2 1.0173e-15 0)
(2 8.91824e-16 0)
(2 6.40776e-16 0)
(2 -1.14881e-16 0)
(2 -3.39335e-16 0)
(2 -3.64929e-16 0)
(2 -1.70082e-16 0)
(2 -1.9631e-16 0)
(2 -2.34487e-16 0)
(2 -6.6162e-16 0)
(2 -9.79291e-16 0)
(2 -1.32669e-15 0)
(2 -1.74268e-15 0)
(2 -1.85215e-15 0)
(2 -1.99454e-15 0)
(2 1.26873e-15 0)
(2 1.07209e-15 0)
(2 8.40172e-16 0)
(2 7.63857e-16 0)
(2 6.39591e-16 0)
(2 5.72677e-16 0)
(2 5.7585e-16 0)
(2 6.16747e-16 0)
(2 8.57218e-16 0)
(2 1.11261e-15 0)
(2 1.18035e-15 0)
(2 1.10345e-15 0)
(2 1.16531e-15 0)
(2 1.49324e-15 0)
(2 1.65676e-15 0)
(2 2.13836e-15 0)
(2 2.29026e-15 0)
(2 2.43622e-15 0)
(2 2.79641e-15 0)
(2 3.10006e-15 0)
(2 3.04674e-15 0)
(2 2.94176e-15 0)
(2 3.15976e-15 0)
(2 3.40576e-15 0)
(2 3.97213e-15 0)
(2 4.23878e-15 0)
(2 4.34225e-15 0)
(2 4.41446e-15 0)
(2 4.80086e-15 0)
(2 5.28789e-15 0)
(2 5.35831e-15 0)
(2 4.96044e-15 0)
(2 4.00331e-15 0)
(2 3.09891e-15 0)
(2 2.50567e-15 0)
(2 1.5371e-15 0)
(2 1.05528e-15 0)
(2 8.19614e-16 0)
(2 7.13366e-16 0)
(2 8.6215e-16 0)
(2 1.13909e-15 0)
(2 1.39199e-15 0)
(2 1.58106e-15 0)
(2 1.696e-15 0)
(2 1.77667e-15 0)
(2 1.85082e-15 0)
(2 2.08074e-15 0)
(2 2.3181e-15 0)
(2 2.47981e-15 0)
(2 2.17273e-15 0)
(2 2.11898e-15 0)
(2 2.42802e-15 0)
(2 2.02035e-15 0)
(2 1.86222e-15 0)
(2 1.74675e-15 0)
(2 1.85575e-15 0)
(2 2.11202e-15 0)
(2 2.06411e-15 0)
(2 2.00881e-15 0)
(2 1.84206e-15 0)
(2 1.87658e-15 0)
(2 1.84704e-15 0)
(2 1.75706e-15 0)
(2 1.7224e-15 0)
(2 2.06787e-15 0)
(2 2.54667e-15 0)
(2 2.67453e-15 0)
(2 2.13218e-15 0)
(2 1.89849e-15 0)
(2 1.97338e-15 0)
(2 1.60656e-15 0)
(2 1.17382e-15 0)
(2 9.64396e-16 0)
(2 8.73031e-16 0)
(2 8.42026e-16 0)
(2 6.65224e-16 0)
(2 7.49166e-16 0)
(2 9.80353e-16 0)
(2 1.28468e-15 0)
(2 1.27834e-15 0)
(2 1.33082e-15 0)
(2 1.80292e-15 0)
(2 2.10842e-15 0)
(2 2.33455e-15 0)
(2 2.61479e-15 0)
(2 3.11527e-15 0)
(2 3.04112e-15 0)
(2 3.74636e-15 0)
(2 4.07602e-15 0)
(2 4.01694e-15 0)
(2 4.38872e-15 0)
(2 4.95897e-15 0)
(2 4.98337e-15 0)
(2 4.83092e-15 0)
(2 5.02593e-15 0)
(2 3.843e-15 0)
(2 3.18268e-15 0)
(2 3.05344e-15 0)
(2 2.75041e-15 0)
(2 2.40881e-15 0)
(2 1.67213e-15 0)
(2 1.58585e-15 0)
(2 1.54192e-15 0)
(2 1.58447e-15 0)
(2 1.53088e-15 0)
(2 1.25321e-15 0)
(2 1.03807e-15 0)
(2 9.05845e-16 0)
(2 3.51515e-16 0)
(2 2.76651e-17 0)
(2 6.5459e-19 0)
(2 -4.33967e-16 0)
(2 -5.73573e-16 0)
(2 -6.13805e-16 0)
(2 -7.51055e-16 0)
(2 -7.0595e-16 0)
(2 -7.59877e-16 0)
(2 -7.46954e-16 0)
(2 -7.83131e-16 0)
(2 -7.9703e-16 0)
(2 2.36433e-17 0)
(2 2.57303e-16 0)
(2 6.94209e-16 0)
(2 1.24154e-15 0)
(2 1.57554e-15 0)
(2 1.59621e-15 0)
(2 1.51583e-15 0)
(2 1.33903e-15 0)
(2 1.19106e-15 0)
(2 1.08514e-15 0)
(2 1.13756e-15 0)
(2 1.07621e-15 0)
(2 1.08116e-15 0)
(2 1.21003e-15 0)
(2 1.58119e-15 0)
(2 1.80344e-15 0)
(2 2.4816e-15 0)
(2 3.14783e-15 0)
(2 3.60575e-15 0)
(2 3.6322e-15 0)
(2 3.42424e-15 0)
(2 3.10511e-15 0)
(2 2.91456e-15 0)
(2 2.94021e-15 0)
(2 3.52391e-15 0)
(2 3.84028e-15 0)
(2 3.87509e-15 0)
(2 3.77191e-15 0)
(2 3.96262e-15 0)
(2 3.69797e-15 0)
(2 3.06121e-15 0)
(2 2.80473e-15 0)
(2 2.69419e-15 0)
(2 2.67105e-15 0)
(2 2.60286e-15 0)
(2 2.61206e-15 0)
(2 2.52534e-15 0)
(2 2.52264e-15 0)
(2 2.50392e-15 0)
(2 2.3249e-15 0)
(2 2.04615e-15 0)
(2 1.39183e-15 0)
(2 1.07158e-15 0)
(2 1.1181e-15 0)
(2 1.24717e-15 0)
(2 1.47036e-15 0)
(2 1.4704e-15 0)
(2 1.5827e-15 0)
(2 1.56333e-15 0)
(2 1.55377e-15 0)
(2 1.64972e-15 0)
(2 1.83034e-15 0)
(2 1.89519e-15 0)
(2 1.91766e-15 0)
(2 2.0968e-15 0)
(2 1.72461e-15 0)
(2 1.12428e-15 0)
(2 1.09955e-15 0)
(2 1.20841e-15 0)
(2 1.22853e-15 0)
(2 1.03612e-15 0)
(2 9.99032e-16 0)
(2 7.46887e-16 0)
(2 6.63205e-16 0)
(2 5.88236e-16 0)
(2 5.17315e-16 0)
(2 7.55378e-16 0)
(2 1.41283e-15 0)
(2 2.34146e-15 0)
(2 2.47216e-15 0)
(2 2.61654e-15 0)
(2 2.50526e-15 0)
(2 2.42511e-15 0)
(2 2.25017e-15 0)
(2 2.06829e-15 0)
(2 1.9428e-15 0)
(2 1.72546e-15 0)
(2 1.67794e-15 0)
(2 1.67952e-15 0)
(2 1.6262e-15 0)
(2 1.40618e-15 0)
(2 9.58593e-16 0)
(2 8.94114e-16 0)
(2 7.65963e-16 0)
(2 8.8732e-16 0)
(2 9.90831e-16 0)
(2 1.42543e-15 0)
(2 1.98999e-15 0)
(2 1.81942e-15 0)
(2 1.57876e-15 0)
(2 1.81454e-15 0)
(2 1.76468e-15 0)
(2 1.66884e-15 0)
(2 1.70777e-15 0)
(2 1.80532e-15 0)
(2 1.73643e-15 0)
(2 1.8007e-15 0)
(2 1.95243e-15 0)
(2 1.64374e-15 0)
(2 9.66236e-16 0)
(2 4.79e-16 0)
(2 3.17305e-16 0)
(2 -2.02792e-17 0)
(2 -3.18137e-16 0)
(2 -3.45707e-16 0)
(2 -3.02516e-16 0)
(2 -4.12361e-16 0)
(2 -4.42731e-16 0)
(2 -5.7231e-16 0)
(2 -7.34418e-16 0)
(2 -8.08864e-16 0)
(2 -8.91631e-16 0)
(2 -8.36371e-16 0)
(2 -9.05818e-16 0)
(2 -9.28699e-16 0)
(2 -9.68984e-16 0)
(2 -9.4932e-16 0)
(2 -8.62289e-16 0)
(2 -8.01069e-16 0)
(2 -8.33608e-16 0)
(2 1.15611e-15 0)
(2 1.47533e-15 0)
(2 1.5391e-15 0)
(2 1.5187e-15 0)
(2 1.504e-15 0)
(2 1.60474e-15 0)
(2 2.09098e-15 0)
(2 2.76221e-15 0)
(2 2.90327e-15 0)
(2 3.02203e-15 0)
(2 3.03542e-15 0)
(2 3.10646e-15 0)
(2 3.05325e-15 0)
(2 2.76821e-15 0)
(2 2.32646e-15 0)
(2 1.68873e-15 0)
(2 1.46672e-15 0)
(2 7.16031e-16 0)
(2 1.76683e-16 0)
(2 4.7656e-16 0)
(2 1.41926e-15 0)
(2 1.72506e-15 0)
(2 2.02341e-15 0)
(2 2.48064e-15 0)
(2 3.07381e-15 0)
(2 3.33949e-15 0)
(2 3.31942e-15 0)
(2 3.0876e-15 0)
(2 2.90908e-15 0)
(2 2.68721e-15 0)
(2 2.6389e-15 0)
(2 2.92717e-15 0)
(2 2.97037e-15 0)
(2 2.94822e-15 0)
(2 3.25465e-15 0)
(2 3.93057e-15 0)
(2 4.09042e-15 0)
(2 3.96672e-15 0)
(2 3.60768e-15 0)
(2 3.3368e-15 0)
(2 2.88672e-15 0)
(2 2.208e-15 0)
(2 2.03462e-15 0)
(2 1.83785e-15 0)
(2 1.64419e-15 0)
(2 1.25886e-15 0)
(2 8.04994e-16 0)
(2 2.369e-16 0)
(2 5.05128e-16 0)
(2 8.27608e-16 0)
(2 1.18542e-15 0)
(2 1.40537e-15 0)
(2 1.44535e-15 0)
(2 1.94124e-15 0)
(2 2.2045e-15 0)
(2 1.82026e-15 0)
(2 1.57571e-15 0)
(2 1.60145e-15 0)
(2 1.94382e-15 0)
(2 1.47566e-15 0)
(2 1.34715e-15 0)
(2 1.24361e-15 0)
(2 1.18756e-15 0)
(2 1.18729e-15 0)
(2 1.14718e-15 0)
(2 1.17007e-15 0)
(2 1.29873e-15 0)
(2 1.47635e-15 0)
(2 1.73149e-15 0)
(2 2.2079e-15 0)
(2 2.29604e-15 0)
(2 2.23713e-15 0)
(2 2.17005e-15 0)
(2 2.1313e-15 0)
(2 2.06121e-15 0)
(2 2.02002e-15 0)
(2 1.88604e-15 0)
(2 1.75262e-15 0)
(2 1.46538e-15 0)
(2 1.4939e-15 0)
(2 1.52541e-15 0)
(2 1.50691e-15 0)
(2 1.20852e-15 0)
(2 1.00012e-15 0)
(2 1.01212e-15 0)
(2 9.83663e-16 0)
(2 7.07496e-16 0)
(2 6.09934e-16 0)
(2 8.61686e-16 0)
(2 8.33024e-16 0)
(2 9.34861e-16 0)
(2 1.18908e-15 0)
(2 1.27662e-15 0)
(2 1.01035e-15 0)
(2 1.56623e-15 0)
(2 1.43961e-15 0)
(2 1.0413e-15 0)
(2 6.72536e-16 0)
(2 4.51964e-16 0)
(2 3.19493e-16 0)
(2 2.15531e-16 0)
(2 2.19256e-17 0)
(2 -6.20345e-17 0)
(2 -3.12181e-16 0)
(2 -4.14111e-16 0)
(2 -4.96501e-16 0)
(2 -5.99586e-16 0)
(2 -6.52843e-16 0)
(2 -6.21913e-16 0)
(2 -6.26168e-16 0)
(2 -6.45953e-16 0)
(2 -5.54895e-16 0)
(2 -5.89849e-16 0)
(2 -7.44265e-16 0)
(2 -7.6627e-16 0)
(2 -8.34238e-16 0)
(2 -1.03823e-15 0)
(2 -1.34705e-15 0)
(2 -1.96674e-15 0)
(2 -2.46354e-15 0)
(2 1.99578e-15 0)
(2 1.37955e-15 0)
(2 8.32703e-16 0)
(2 6.72297e-16 0)
(2 4.91729e-16 0)
(2 2.68817e-16 0)
(2 1.26144e-16 0)
(2 6.2001e-17 0)
(2 -2.19004e-16 0)
(2 -3.00233e-16 0)
(2 -3.84881e-16 0)
(2 -5.85442e-16 0)
(2 -4.28577e-16 0)
(2 9.18057e-16 0)
(2 1.46122e-15 0)
(2 2.25823e-15 0)
(2 2.38843e-15 0)
(2 1.79007e-15 0)
(2 1.38721e-15 0)
(2 1.32183e-15 0)
(2 1.14018e-15 0)
(2 1.13816e-15 0)
(2 1.89534e-15 0)
(2 2.47207e-15 0)
(2 2.374e-15 0)
(2 2.18224e-15 0)
(2 2.30642e-15 0)
(2 2.3223e-15 0)
(2 2.23423e-15 0)
(2 2.18817e-15 0)
(2 2.37692e-15 0)
(2 2.66848e-15 0)
(2 2.86208e-15 0)
(2 2.75477e-15 0)
(2 2.44874e-15 0)
(2 2.22411e-15 0)
(2 2.18441e-15 0)
(2 2.26484e-15 0)
(2 2.32949e-15 0)
(2 2.29327e-15 0)
(2 2.16833e-15 0)
(2 2.21909e-15 0)
(2 2.51175e-15 0)
(2 2.00349e-15 0)
(2 1.38316e-15 0)
(2 1.04856e-15 0)
(2 9.67758e-16 0)
(2 2.2392e-16 0)
(2 -9.41372e-17 0)
(2 -5.37193e-16 0)
(2 -8.65007e-16 0)
(2 -6.67839e-16 0)
(2 -2.02505e-16 0)
(2 -1.22482e-16 0)