/*--------------------------------*- C++ -*----------------------------------*\
  =========                 |
  \\      /  F ield         | OpenFOAM: The Open Source CFD Toolbox
   \\    /   O peration     | Website:  https://openfoam.org
    \\  /    A nd           | Version:  7
     \\/     M anipulation  |
\*---------------------------------------------------------------------------*/
FoamFile
{
    version     2.0;
    format      ascii;
    class       volVectorField;
    location    "1.147";
    object      U;
}
// * * * * * * * * * * * * * * * * * * * * * * * * * * * * * * * * * * * * * //

dimensions      [0 1 -1 0 0 0 0];

internalField   nonuniform List<vector> 
12359
(
(0.981273 -0.00041583 -1.16809e-16)
(0.970359 -0.000353707 1.03768e-16)
(0.999962 -7.81381e-06 -9.89474e-18)
(0.938577 -0.000775776 7.05799e-17)
(0.976204 -0.00097181 -4.60634e-17)
(0.888048 -0.00145163 6.81753e-17)
(0.850682 0.000134389 -9.98589e-17)
(0.870519 -0.000264561 9.8073e-18)
(0.807392 0.00981443 -2.11144e-17)
(0.903517 -0.00052529 9.76304e-19)
(0.827865 0.0123319 5.06536e-17)
(0.737387 0.0284403 6.63839e-18)
(0.370453 0.0407352 -1.97682e-16)
(0.930087 0.000165256 1.14378e-17)
(0.941657 -0.000163857 6.74294e-17)
(0.574652 0.0248678 -2.02371e-17)
(0.489043 0.0229067 -1.02911e-16)
(0.994616 5.66645e-05 -7.18954e-17)
(0.995125 5.62169e-05 4.31529e-17)
(0.954922 -0.00217883 1.03865e-16)
(0.921089 0.00119081 5.58056e-17)
(0.77207 0.0165436 -1.48568e-17)
(0.96598 -0.000836973 -1.95701e-16)
(0.949967 0.000325636 2.51551e-16)
(0.968711 -9.64172e-05 -4.82824e-17)
(0.961273 -0.00163444 3.71005e-18)
(0.998694 -7.0334e-05 7.84771e-18)
(0.998786 -8.89362e-05 -4.5058e-17)
(0.995978 -4.45535e-05 -5.10207e-17)
(0.998113 -2.95898e-06 -4.9433e-17)
(0.997489 -0.000115207 1.87684e-19)
(0.999393 -1.48167e-05 -1.13354e-17)
(0.999758 -2.40599e-05 -1.81791e-17)
(0.998359 -6.25353e-05 -4.73341e-17)
(0.999918 -1.19196e-05 4.63987e-17)
(0.997224 -7.34618e-05 -4.00079e-17)
(0.988311 -0.000193881 1.10591e-16)
(0.983012 -0.000310293 1.06221e-16)
(0.978058 -0.000805734 1.17128e-16)
(0.9854 -0.000428605 4.96149e-17)
(0.97209 -0.00103076 -7.5282e-17)
(0.984245 3.69965e-05 7.63664e-18)
(0.991437 -0.0001937 -4.50131e-17)
(0.992171 -0.000178015 7.56165e-17)
(0.996738 -0.000102987 -1.58808e-17)
(0.996395 -8.62892e-05 2.83371e-17)
(0.997076 -5.81743e-05 -3.17406e-17)
(0.997805 -5.79247e-05 1.27632e-17)
(0.995511 5.89897e-05 -1.95657e-17)
(0.998568 -9.62265e-05 1.25979e-17)
(0.99896 -8.21665e-05 -1.70423e-17)
(0.999134 -3.10979e-05 7.67506e-18)
(0.999458 -5.12737e-05 -5.84109e-18)
(0.994184 5.56273e-05 6.51237e-17)
(0.99955 4.01147e-05 -4.93145e-17)
(0.999749 -1.18941e-05 2.43561e-17)
(0.993007 -0.000174953 2.0585e-19)
(0.99976 -1.86136e-05 -2.29521e-17)
(0.99981 -2.94115e-05 2.0436e-17)
(0.999886 1.89844e-05 -5.20979e-17)
(0.999684 -1.17486e-05 3.6553e-17)
(0.999928 3.52781e-05 4.14277e-17)
(0.999108 -5.02188e-05 1.78277e-17)
(0.18867 0.0661948 -1.05848e-15)
(0.993666 -4.36612e-05 -2.79278e-17)
(0.914987 0.00134974 2.80486e-17)
(0.989508 -5.826e-05 1.14802e-16)
(0.999241 -8.49671e-06 -1.78169e-17)
(0.987759 -0.000382875 1.61231e-17)
(0.64597 0.0312289 -8.98978e-18)
(0.0175736 0.0255293 3.27822e-15)
(0.974064 -0.0015701 -1.02821e-16)
(0.999953 -1.93264e-05 2.38432e-17)
(0.986741 -0.000594459 -2.56464e-18)
(0.943449 -0.000354252 1.18082e-16)
(0.999885 3.28379e-07 -4.47298e-17)
(0.999433 -2.67534e-05 9.96816e-18)
(0.999932 -6.77842e-06 -2.87176e-17)
(0.989752 -0.00058962 -5.67346e-17)
(0.693358 0.00212184 1.33819e-17)
(0.91897 0.056944 -1.8746e-18)
(1.00374 0.00291179 3.09275e-18)
(1.00003 -1.86313e-06 -5.49709e-19)
(0.998264 0.0126454 1.55204e-18)
(1.09573 0.148469 4.73606e-18)
(1.0225 0.000958586 -3.61434e-20)
(1.00393 0.00260272 9.50335e-19)
(1.00147 -0.000104006 6.582e-18)
(1.11495 0.0734156 -3.69207e-17)
(1.08468 0.1588 -6.59521e-18)
(0.999951 0.000182024 3.64287e-17)
(0.260865 0.179935 -5.37097e-16)
(1 3.45062e-07 6.07383e-18)
(0.999566 0.00616386 -5.04807e-18)
(0.99928 0.0111022 -7.57461e-18)
(1.03949 0.00144083 -1.9906e-18)
(1.00013 0.00522976 -5.34589e-18)
(0.999428 0.00628767 -1.79165e-17)
(0.990518 0.0299192 1.60193e-17)
(0.994096 0.0189355 2.00003e-17)
(0.937483 0.0786037 1.15259e-17)
(0.999999 2.24427e-05 -1.31782e-17)
(1.02195 0.00245693 8.60434e-20)
(1.26208 0.103524 -9.56261e-18)
(1.0048 0.00126238 -3.87213e-18)
(1.03396 0.0234841 9.67463e-19)
(1.00033 -8.01901e-06 -5.32767e-18)
(1.09018 0.149205 1.44603e-17)
(1.01576 0.00102388 -6.49748e-18)
(1.03341 0.0218938 -1.28272e-18)
(0.999992 0.00500939 -2.28452e-18)
(1.00359 0.00280407 9.79637e-19)
(0.938941 0.0462268 1.14781e-16)
(0.956247 0.075035 -1.65076e-17)
(0.999 0.0108646 -7.39816e-18)
(1.00356 7.84095e-05 2.13425e-18)
(0.952737 0.0780256 -2.72326e-17)
(1.00461 0.00247793 -9.83165e-18)
(1.13172 0.0602178 -2.40266e-17)
(0.999999 1.35629e-05 -8.09515e-19)
(1.0001 0.00504411 1.39553e-18)
(0.862808 0.0266294 7.32862e-17)
(1.00172 0.000326562 4.49947e-18)
(1.03978 0.00690596 4.93515e-19)
(1.00508 0.00227616 -5.65784e-18)
(1.00334 0.00102951 -3.93814e-18)
(1.00854 0.0962578 5.53905e-18)
(0.998379 0.0125158 1.22385e-18)
(0.999985 1.2619e-05 5.94176e-18)
(1.00486 0.00224941 1.97368e-17)
(1.00264 -0.000444009 -2.9659e-18)
(1.0505 0.0202045 -2.53519e-18)
(1.05251 0.0191847 -5.02735e-18)
(1.05068 0.0183681 -4.94562e-18)
(1.00022 2.89555e-05 -5.43527e-19)
(1.03875 0.00772037 5.23311e-18)
(1.0029 0.000684646 1.23073e-17)
(1.03795 0.00736932 5.15175e-18)
(1 9.33555e-05 -8.62371e-17)
(1.00799 0.0923047 -1.62567e-17)
(1 2.00802e-05 -3.22524e-18)
(0.981459 0.00191012 4.06298e-17)
(1.0317 0.0139015 9.76791e-18)
(1.00025 3.21098e-05 -5.84449e-18)
(1.03925 0.0414337 -7.46938e-18)
(0.894202 0.0266433 -4.32271e-17)
(1.00002 1.68051e-05 6.0178e-21)
(1.08831 0.122507 1.73142e-17)
(1.005 0.00121258 -8.16122e-18)
(0.922549 0.0622163 4.93648e-17)
(1.04101 0.00503451 -4.33086e-19)
(0.999998 3.24046e-05 1.77517e-17)
(1.03168 0.0145561 9.12545e-18)
(1.00178 0.000225317 -9.08161e-18)
(1.00001 -6.13497e-06 -1.77534e-18)
(0.55321 1.30666 -5.34708e-17)
(0.934992 0.0886454 4.84583e-17)
(1.05006 0.0207252 -5.78834e-18)
(1.00012 0.00548208 -1.87091e-18)
(0.999288 0.000419025 -7.99663e-18)
(1.00228 0.0452105 1.68615e-17)
(0.99924 0.000548437 6.57986e-18)
(1.04078 0.00669254 -2.70566e-20)
(1.03454 0.0116606 -7.52188e-19)
(1.00003 3.61228e-05 1.49907e-18)
(1.00336 0.000363904 1.11626e-18)
(1.001 0.0459524 -3.69142e-18)
(0.877344 0.012772 1.36056e-16)
(1.03277 0.0117742 -7.16196e-18)
(1.12231 0.0686028 -1.44065e-17)
(0.999981 8.02664e-06 -4.05485e-17)
(0.999957 4.67624e-05 -5.6133e-17)
(1.03405 0.00972139 -4.07156e-20)
(0.971338 0.00218612 -1.71963e-16)
(1.00474 0.00109505 1.79028e-18)
(1.00365 0.0904061 -6.25938e-18)
(0.996547 0.000471635 -2.45254e-18)
(0.996616 0.000873351 2.36424e-17)
(0.935183 0.0493935 9.71964e-17)
(1.00462 0.0878728 2.31274e-17)
(0.933417 0.00545225 7.53912e-17)
(1.00002 2.94588e-05 -4.78357e-18)
(0.999975 1.41996e-05 6.56753e-18)
(1.00395 0.00277234 3.83128e-18)
(0.991465 0.0281397 -4.86647e-18)
(0.857564 0.106788 2.21278e-16)
(1.00436 0.00583644 -1.92547e-19)
(1.00016 0.0108392 -1.40615e-18)
(1.03922 0.0020624 -2.25517e-18)
(1.00468 0.00616751 -7.60949e-18)
(0.999799 0.0102918 -8.10119e-19)
(1.03528 -0.000297318 -6.27981e-19)
(1.03514 0.00209478 -1.06768e-19)
(1.0019 8.70072e-05 3.01682e-18)
(1.03485 0.020598 -2.47591e-18)
(1.10683 0.094849 8.87085e-18)
(1.01494 0.0127549 1.60729e-18)
(1.00354 0.0060142 4.13794e-18)
(1.03135 0.0162665 7.04803e-19)
(1.00459 0.00243923 -1.59542e-18)
(0.899368 0.02932 1.39873e-16)
(1.04026 0.0022081 -3.41e-18)
(0.992519 0.0190165 -6.70663e-18)
(1.03412 0.0214239 -1.06773e-18)
(1.03568 0.0389723 -9.89635e-18)
(1.00001 3.10708e-05 1.02963e-17)
(1.03705 0.0383867 -1.16741e-17)
(0.99235 0.0180383 5.87012e-18)
(1.04251 0.00781852 -1.08602e-18)
(1.00571 0.00409463 -3.86407e-18)
(1.00001 3.19812e-05 9.8528e-19)
(1.04584 0.017104 -1.00845e-18)
(1.0462 0.0171552 4.99279e-18)
(1.0466 0.113344 -7.34877e-17)
(0.824202 0.0871055 -1.91129e-17)
(0.999961 2.44286e-05 -5.55324e-18)
(1.00403 0.00615505 2.34184e-18)
(0.998993 0.0106689 7.08919e-18)
(1.00419 0.00593916 2.95321e-19)
(0.982065 0.0012801 8.29285e-17)
(0.946414 0.0614538 2.18137e-17)
(1.00547 0.00373345 8.08384e-19)
(1.03906 0.00739399 7.75726e-18)
(0.466832 0.385246 -1.80871e-16)
(1.00501 0.0027977 -7.90293e-18)
(1.00001 3.88391e-05 -4.07102e-18)
(0.981084 0.00101408 9.67332e-17)
(1.02042 0.00378952 -5.92151e-18)
(1.00114 0.0872359 -3.71841e-18)
(1.00268 0.00661903 3.67057e-18)
(1.00288 0.00644477 1.16262e-17)
(1.00003 -7.21487e-06 9.03644e-19)
(1.03877 0.0417247 -9.5276e-18)
(0.992785 0.0236795 1.06101e-17)
(1.00068 0.0104737 -6.33322e-18)
(0.993799 0.0214325 4.08557e-17)
(1.00001 2.35148e-05 -8.5183e-19)
(1.03255 0.0162384 1.04348e-17)
(1.00056 0.0106286 -1.27351e-17)
(0.63752 0.258485 -2.37288e-17)
(1.00007 4.73824e-05 4.54512e-19)
(1.02468 0.00264048 5.35554e-19)
(1.0001 0.00769535 -7.08121e-18)
(0.982948 0.162256 -4.70324e-17)
(1.00311 0.0497038 -2.00581e-17)
(1.087 0.126631 2.01455e-17)
(0.99987 4.40825e-05 -1.07002e-16)
(1.0419 0.00781623 4.78686e-18)
(1.00417 0.0014994 1.34772e-18)
(1.036 0.00179071 -4.04972e-18)
(1.04394 0.0137525 -4.99443e-18)
(0.985115 0.00030347 -3.17682e-17)
(0.996961 0.000674981 -2.32424e-17)
(1.00243 0.0064453 3.48571e-18)
(0.492604 0.458514 1.41359e-16)
(1.21124 0.122112 -2.54995e-18)
(0.999989 8.50274e-06 2.37523e-18)
(1.00571 0.00310305 -6.41764e-18)
(0.352561 0.307611 1.08919e-16)
(0.435828 0.0232841 3.40181e-18)
(0.993614 0.0190524 -4.37508e-18)
(1.00294 0.0472169 3.6953e-19)
(1.0011 0.0822813 -2.27577e-17)
(1.03473 0.0195441 -2.37491e-18)
(0.973647 0.0012413 -7.04776e-17)
(1.33584 0.34307 -2.92286e-17)
(1.11993 0.0614782 -8.75511e-18)
(1.00308 0.051143 -2.37426e-18)
(1.00551 0.00282487 -6.67757e-18)
(1.03843 0.00771308 8.29216e-19)
(1.03375 0.0107403 -1.93558e-18)
(0.987623 0.0269089 8.78701e-18)
(1.03299 0.013429 -3.30789e-18)
(1.00239 0.00676974 -1.89898e-18)
(1.00559 0.00338613 -8.1082e-18)
(1.00004 3.50113e-06 2.16373e-20)
(1.0056 0.00308398 -2.00584e-18)
(1.15501 0.106409 1.30892e-17)
(1.00477 0.0517265 -1.33175e-17)
(1.00037 9.82513e-05 -1.06954e-18)
(1 5.77474e-05 2.86004e-17)
(1.03493 0.0194086 4.45475e-18)
(1.00778 0.00127233 9.28587e-18)
(0.991102 0.000664117 -6.81925e-17)
(1.02313 -0.00045194 -1.86408e-19)
(1.00001 3.04878e-05 -2.13995e-18)
(0.999609 0.078193 1.45644e-17)
(1.00001 1.10189e-05 2.70772e-17)
(0.999993 -1.57006e-05 3.37492e-18)
(0.999463 0.000114911 -7.25528e-17)
(1.04036 0.00623704 -4.23355e-19)
(1.00417 0.00234924 3.63716e-18)
(1.40612 0.417054 -6.65646e-18)
(1.00022 5.00719e-05 4.14967e-18)
(1.00024 -3.88189e-05 2.33567e-18)
(1.02176 0.00120152 2.5293e-18)
(1.00414 -0.000278605 6.89494e-18)
(0.942895 0.0688021 2.96616e-17)
(0.999107 0.00956907 -1.1098e-17)
(0.999094 0.000235263 -1.35749e-16)
(0.999961 4.97266e-05 -8.26726e-18)
(1.14816 0.0920292 7.75937e-18)
(1.00294 0.0796245 -1.70922e-17)
(0.999961 5.13681e-05 -3.40876e-18)
(1.00372 0.00597557 1.62914e-17)
(0.999704 0.00899471 4.62502e-18)
(1.00437 0.00126818 -4.50422e-18)
(1.00303 0.000503837 -3.77949e-18)
(1.00287 -0.000459988 -4.39614e-18)
(1.00428 0.00081085 -5.96328e-19)
(0.99544 0.0014521 1.52095e-17)
(0.82618 0.0665363 -2.66846e-17)
(1.00469 -0.00105149 -1.83799e-17)
(0.997795 3.87286e-05 5.16694e-17)
(0.986 0.00107306 -4.61444e-17)
(1.02539 0.027836 -1.28136e-18)
(1.10513 0.0523239 1.78411e-17)
(1.00563 0.000462216 4.06334e-18)
(0.990035 0.0252123 9.51207e-18)
(0.559135 0.0704302 3.02112e-17)
(0.999994 1.2073e-05 1.77588e-17)
(1.02755 0.0131427 -7.98222e-18)
(1.00045 0.000344979 -1.7765e-18)
(1.0148 0.0131955 -3.97219e-18)
(1.00025 9.16402e-05 1.30195e-18)
(1.00569 0.00176757 -2.71441e-18)
(0.790211 0.0393571 2.4769e-16)
(1.02837 0.0148755 7.81506e-18)
(0.833898 0.0873594 -4.03621e-17)
(0.991119 0.000352085 -8.87692e-17)
(1.00063 0.00813453 -8.2018e-18)
(1.03555 0.000118843 7.60417e-19)
(1.039 0.0037257 -9.88614e-19)
(1.00068 0.00792004 2.67757e-18)
(1.03617 0.00204001 4.28331e-19)
(1.03624 -0.00033106 -3.6832e-19)
(1.00066 0.000294633 -3.15022e-18)
(0.999581 0.00047633 2.95751e-17)
(0.99956 0.000412983 3.66742e-17)
(0.999532 0.00045317 1.2747e-18)
(0.999515 0.000377571 -1.45644e-17)
(0.688293 0.277267 -5.94373e-17)
(1.00003 4.62499e-05 -7.56817e-19)
(0.938788 0.078337 -1.29166e-17)
(1.04335 0.00440041 5.75344e-19)
(0.992807 0.0260402 -3.76487e-18)
(1.03327 0.0141297 -3.04919e-18)
(1.02851 0.0161793 9.02999e-18)
(1.02131 0.00292461 -1.13793e-18)
(1.01383 0.0126595 9.36211e-19)
(1.02909 0.0148077 4.66437e-18)
(1.0136 0.0125779 1.87575e-18)
(0.990542 0.0271924 3.61447e-18)
(1.02746 0.0295003 -1.35268e-17)
(1.02631 0.033006 6.89085e-18)
(0.956544 0.0508437 1.46483e-17)
(0.982106 0.00256163 -1.05299e-16)
(1.03198 0.0818593 1.61858e-17)
(0.983582 0.00208865 -1.28817e-16)
(0.982691 0.000790352 -5.6206e-17)
(1.03091 0.0163478 -3.4581e-18)
(0.938857 0.0962581 -2.68432e-17)
(1.00312 0.00272445 6.74457e-19)
(0.999612 7.73672e-05 -4.54939e-17)
(1.0163 0.0117803 -4.76025e-18)
(0.999644 4.78918e-05 -1.88735e-17)
(1.00334 0.00313877 -8.14121e-18)
(0.743947 0.0292121 6.99263e-17)
(0.0906217 0.0917546 -3.6643e-16)
(1.00337 0.00291847 3.62096e-19)
(0.99998 1.17301e-05 -3.95616e-17)
(1.0002 5.62457e-05 2.71457e-19)
(0.999989 2.40552e-05 -6.2831e-18)
(1.02926 0.0130379 -1.97053e-18)
(0.999999 2.76002e-05 1.74802e-18)
(0.999993 2.37703e-05 5.80974e-18)
(1.12149 0.0755216 -3.58726e-18)
(1.03374 0.0120756 -2.55503e-18)
(1.08162 0.17535 -2.97026e-17)
(1.0015 0.00334377 -7.26611e-19)
(1.03609 0.0141229 -4.25276e-18)
(1.00744 0.000696432 5.90111e-18)
(1.00003 0.0088958 -8.3108e-18)
(1.03163 0.0297078 1.4641e-18)
(1.01667 0.0113 -1.81273e-18)
(0.936085 0.00390824 -6.86025e-17)
(1.01653 0.0104769 -9.26401e-18)
(1.00301 0.00267687 5.88601e-18)
(1.00038 -0.00020241 -6.99382e-19)
(1.03433 0.0108646 -1.54273e-18)
(1.03679 0.0138306 1.2655e-18)
(1.00561 0.00104792 4.43124e-18)
(0.713009 0.0121061 -1.34794e-16)
(1.03209 0.0287234 4.05746e-18)
(1.03992 0.00184726 9.9798e-19)
(0.998109 0.0354873 -5.34113e-18)
(1.00078 0.042944 -8.64351e-18)
(0.999993 0.000129692 3.94556e-17)
(0.395875 0.565034 -2.4582e-16)
(1.03294 0.0849128 -2.99212e-18)
(1.00124 0.00355253 1.09399e-18)
(0.971118 0.180821 -2.23345e-17)
(0.984738 0.00122779 -5.00945e-17)
(0.999971 6.54698e-05 1.14862e-18)
(1.00001 2.69055e-05 1.35186e-20)
(0.999989 5.34727e-05 2.68156e-18)
(1.09101 0.173216 -2.61519e-17)
(0.946302 0.0959012 1.41877e-17)
(0.988656 0.028689 -2.46136e-17)
(1.02869 0.0110916 3.59776e-18)
(1.03886 0.00277385 1.62746e-18)
(0.998996 0.0116815 -3.06261e-18)
(0.930892 0.00908322 -3.69565e-17)
(0.998695 0.0352201 -1.6939e-17)
(1.04695 0.0187478 -4.27343e-18)
(1.11589 0.0547341 3.69868e-18)
(0.6961 0.0393131 -3.9665e-17)
(0.994176 0.0261758 4.75179e-18)
(0.953231 0.0541795 2.93129e-17)
(1.0191 -0.00137788 -4.77624e-18)
(1.0256 0.0386505 1.16269e-18)
(1.01194 0.0113274 -3.92955e-18)
(1.01673 0.0123955 9.4267e-19)
(0.998358 0.000240537 -2.75664e-17)
(1.0122 0.011533 4.50786e-18)
(1.03126 0.0130006 -6.76984e-18)
(0.999991 1.20608e-05 -3.25088e-18)
(0.583481 0.0146709 7.16016e-17)
(0.990345 0.00131185 -9.94541e-17)
(1.05758 0.00728186 -3.11529e-18)
(1.03722 0.0113462 -6.1906e-18)
(0.993535 0.00118236 4.73553e-17)
(0.948725 0.0594192 -5.081e-18)
(1.17024 0.251891 -6.8126e-17)
(1.02968 0.0158395 3.89441e-18)
(1.00851 0.0162039 -5.77782e-18)
(1.04007 0.00291168 8.52067e-20)
(1.03757 0.0117378 -2.5107e-18)
(1.02864 0.0341497 -4.31051e-19)
(1.00454 0.00272091 4.75627e-18)
(1.00001 1.92022e-07 1.56923e-18)
(0.994061 0.0714891 7.63606e-18)
(1.00025 0.000135118 2.68538e-19)
(1.05126 0.0208508 -6.04649e-18)
(1.00256 0.000147109 -3.30319e-18)
(0.964838 0.00305656 1.285e-16)
(0.963412 0.0406852 -6.46327e-18)
(1.01103 0.000968219 6.33495e-18)
(1.09309 0.122956 -2.69095e-17)
(0.941305 0.0692211 -5.95906e-17)
(0.994595 0.0174111 4.67545e-18)
(1.00096 0.00394389 -3.57877e-18)
(0.574676 0.10246 -3.87366e-16)
(1.00055 -0.000141123 -4.18196e-18)
(1.00154 0.00308935 5.65649e-18)
(1.04275 0.0435201 -1.99748e-18)
(0.999984 3.96713e-05 -8.13532e-18)
(1.00112 0.00402848 -5.68664e-18)
(1.00161 0.00283059 5.56699e-19)
(0.733316 0.224864 1.31098e-17)
(0.676125 0.454805 -4.11289e-17)
(0.998459 0.0120153 -6.09566e-20)
(1.00171 8.19199e-05 -2.74224e-18)
(0.932247 0.0347835 -1.73462e-17)
(0.999745 0.0422386 -1.57776e-17)
(1.02841 0.0118889 1.5716e-18)
(1.03199 0.0167237 9.49093e-18)
(1.03364 0.0120599 -5.04391e-18)
(1.00079 -0.000195178 -6.39457e-18)
(0.999997 3.58946e-05 -3.18107e-18)
(0.999851 0.0376737 7.66717e-20)
(0.999988 1.10958e-05 -7.40939e-18)
(0.961594 0.0427083 9.35434e-18)
(1.028 0.0121813 1.93042e-18)
(1.02598 0.0365729 4.01969e-18)
(0.996827 0.000688415 3.05765e-17)
(0.995132 0.0689565 4.76602e-18)
(1.0451 0.0429794 5.3907e-19)
(0.998164 0.000107298 -1.16218e-16)
(1.00147 0.0118301 -1.53785e-17)
(1.00612 0.00154884 7.38129e-18)
(0.931143 0.046237 -7.5406e-17)
(1.04302 0.0445357 -6.37836e-18)
(0.999981 7.33584e-05 -1.54456e-17)
(1.00029 0.0394881 -7.12382e-18)
(1.03453 0.00882899 6.35436e-18)
(1.01671 -9.28761e-05 6.84992e-19)
(0.999064 0.0406859 -6.67512e-18)
(1.00314 0.000637389 1.00318e-20)
(0.929279 0.0942676 2.68276e-17)
(1.02876 -1.35667e-05 -1.80554e-18)
(1.03784 0.00959951 2.52496e-18)
(1.02709 0.0339768 -2.61451e-18)
(1.00094 -0.000137467 -1.64819e-18)
(1.00114 0.0124421 -7.51133e-18)
(1.05347 0.0639979 7.23322e-18)
(1.05322 0.018296 -1.63046e-18)
(0.999997 1.71993e-05 1.2531e-20)
(1.01123 0.0164668 7.51078e-20)
(0.985192 0.177502 -1.00506e-17)
(1.03906 0.00269952 -2.4137e-18)
(0.498493 0.476864 3.62444e-17)
(1 3.0265e-05 3.91444e-18)
(1.00236 0.000391687 2.5234e-18)
(1.00066 0.000127264 2.92241e-19)
(1.03236 0.015019 8.14948e-18)
(0.99458 0.0192027 1.61147e-18)
(0.995477 0.013849 -2.88509e-19)
(1.00301 0.000333533 -6.41068e-18)
(0.998565 0.0375197 -4.83849e-18)
(1.01765 0.0132426 -3.55521e-18)
(0.970232 0.00439769 -6.38256e-17)
(1.00905 0.00120649 1.21057e-18)
(1.07969 0.0968333 -4.76158e-19)
(1.00046 -4.82509e-05 -1.39855e-18)
(1.08448 0.112747 6.64881e-18)
(1.00143 -0.000143009 8.73184e-19)
(0.644039 0.651715 -1.8307e-17)
(1.02853 -0.000917839 -8.3287e-19)
(1.05042 0.0664988 5.05551e-18)
(0.999856 3.77989e-05 2.8382e-19)
(0.997046 0.000720029 1.05549e-18)
(1.02589 0.0289086 -1.23121e-17)
(1.00402 0.0022165 1.40719e-18)
(0.999123 0.000118035 -5.17673e-17)
(0.992338 0.000303614 2.16634e-16)
(0.994456 0.0211004 -7.22491e-19)
(0.994046 0.0203331 -1.97057e-17)
(0.965418 0.161279 2.46444e-17)
(1.03363 0.0337922 2.6908e-18)
(1.03409 0.0333848 -1.02403e-18)
(1 1.41547e-05 3.36229e-18)
(1.00431 0.00218116 -1.00494e-17)
(1.0282 0.0136339 -1.12267e-18)
(1.05213 0.0175075 -2.58234e-18)
(1.00001 -2.89888e-06 -1.87752e-18)
(1.00032 7.2993e-05 1.11234e-18)
(1.03429 0.00990089 -2.38964e-19)
(1.00069 9.74731e-05 -2.19339e-18)
(0.794409 0.0472514 -2.15238e-16)
(1.16035 0.2545 -2.34834e-17)
(1.05204 0.00956965 -4.20897e-17)
(1.00001 5.8776e-06 -1.45827e-18)
(1.00678 0.00972517 7.85476e-18)
(1.04438 0.0139366 -1.34479e-18)
(0.995096 0.0148292 1.43365e-18)
(1.00429 0.000700159 -1.44366e-18)
(0.36807 0.670685 1.66234e-16)
(1.00032 1.5094e-05 -2.93424e-18)
(0.931099 0.0761304 -5.06132e-17)
(0.957778 0.0488572 -4.122e-17)
(1.00715 0.00971821 1.09574e-18)
(1.00453 0.0012545 3.39269e-20)
(0.998981 0.00012689 8.58253e-17)
(1.01076 0.00104922 6.35401e-19)
(1.04355 0.00429084 1.66169e-18)
(1.01738 0.0089672 4.03125e-18)
(0.996908 0.011776 1.68651e-17)
(0.999996 6.30887e-06 8.04189e-19)
(0.999998 2.53787e-05 2.5936e-17)
(0.994766 0.0176847 1.14367e-17)
(0.996478 0.00152457 -7.71298e-18)
(0.991731 0.0612808 1.23797e-17)
(1.03289 0.0142642 5.9898e-18)
(0.999379 -2.09124e-05 9.49273e-17)
(1.00034 0.000166719 -7.54641e-19)
(1.02727 0.0309607 -1.13941e-17)
(0.624974 -0.00700066 -4.84569e-19)
(0.997983 0.000199484 6.17659e-17)
(1.04664 0.0182759 -8.15105e-18)
(1.00017 -2.35679e-05 -1.42442e-19)
(0.996304 0.0119357 7.26377e-18)
(0.950602 0.0824921 -1.1553e-17)
(1.04202 0.00151743 1.52681e-18)
(1.04338 0.0137095 -4.3982e-18)
(0.952453 0.0559212 -4.44895e-17)
(1.00244 0.0195119 -6.3509e-18)
(1.04304 0.00623594 3.59429e-18)
(1.00001 3.26401e-05 6.15307e-19)
(0.999936 1.70148e-05 -1.62143e-16)
(1.04269 0.0017402 -1.09661e-18)
(1.01092 0.0102376 3.10047e-18)
(1.0031 0.0197094 -1.49429e-17)
(1.011 0.0101371 8.47634e-18)
(0.999997 4.58924e-05 4.14603e-18)
(1.00033 0.000196988 -2.9902e-18)
(1.00376 0.000953203 3.10526e-18)
(0.998968 0.0309828 6.00732e-18)
(1.04291 0.00859028 2.09575e-19)
(0.944629 0.0401495 -4.06614e-17)
(0.990199 0.000824513 -8.50056e-17)
(0.933819 0.0352844 1.37497e-18)
(1.03146 0.0153431 -3.10334e-18)
(1.00871 0.0178935 -6.19756e-20)
(0.934875 0.0456291 -2.35221e-17)
(0.985848 0.0215436 -2.7703e-18)
(1.05379 0.00482178 -9.88082e-18)
(1.03341 0.0133299 -4.40659e-18)
(0.984819 0.0215046 1.96988e-17)
(0.993541 0.0594738 -1.15199e-17)
(0.999886 8.1969e-05 -2.97293e-17)
(1.00924 0.0669864 1.21557e-17)
(1.02681 0.0281584 -1.85446e-17)
(1.00002 -2.3644e-05 2.71288e-18)
(0.999994 6.22349e-06 5.95485e-17)
(1.0007 1.48232e-06 1.79608e-18)
(0.999751 0.000305559 -2.71714e-18)
(1.06315 0.0732352 4.5923e-18)
(1.01065 0.01733 2.46329e-18)
(1.01394 -0.00012275 6.67041e-18)
(0.942118 0.0437731 -5.33291e-17)
(0.992 0.000333055 -1.33868e-16)
(0.792941 0.0211987 7.66586e-17)
(1.03998 0.00217265 -3.64959e-18)
(1.04267 0.00440061 -1.03091e-18)
(1.00376 0.000691412 -4.5761e-19)
(1.04945 0.0433687 1.40568e-17)
(1.00001 3.47832e-05 -9.40725e-18)
(0.998368 0.0306989 4.43945e-18)
(1.00047 0.00382733 -3.20849e-18)
(0.934719 0.113005 -4.461e-17)
(0.933826 0.0477216 -7.78451e-17)
(1.00199 0.0168726 -2.53542e-18)
(1.01715 0.0121146 -6.17907e-18)
(0.442771 0.639988 5.37093e-17)
(1.03113 0.0137021 5.32828e-19)
(1.04122 0.0645558 3.17554e-18)
(1.00959 0.012871 -4.91782e-20)
(0.974454 0.14765 -7.88242e-18)
(1.14614 0.211067 -4.31618e-17)
(1.00127 -1.15962e-05 9.79782e-19)
(0.998249 0.00347247 1.43525e-18)
(1 1.52217e-05 1.06463e-18)
(1.05757 0.068873 -4.94896e-18)
(0.998421 0.00331029 -5.07434e-18)
(1.01645 0.00990656 -6.68769e-18)
(1.09745 0.117019 -1.78538e-17)
(1.0003 0.000138327 -1.95439e-18)
(0.973906 0.00293356 -3.52433e-16)
(0.990137 0.052909 -6.13582e-18)
(1.00686 0.0157676 3.81954e-18)
(0.997659 0.000308242 -6.34185e-17)
(1.00171 0.0174773 -8.70982e-18)
(0.999364 0.000702254 1.72857e-17)
(0.994947 0.0160065 2.66997e-17)
(0.999366 0.00062741 -1.94908e-17)
(0.999394 0.000738803 8.84956e-18)
(0.995493 0.0137612 -3.74225e-18)
(1.03942 0.00784041 -1.71148e-19)
(1.03601 0.00958166 8.8788e-18)
(1.00691 0.0170652 1.57373e-18)
(0.649535 0.0473918 -1.11163e-16)
(1.04055 0.00156868 3.09796e-18)
(0.282952 0.275987 -2.20792e-16)
(1.03023 0.0155587 2.76501e-18)
(1.02224 -0.000375838 -2.84258e-18)
(0.995281 0.0150049 8.18616e-19)
(1.0291 0.0159532 5.70032e-18)
(0.991853 0.0268556 1.52128e-18)
(1.03671 0.000584658 -2.53103e-18)
(0.542125 0.387405 -1.02191e-16)
(0.950201 0.0357827 1.06765e-17)
(0.992848 0.0252084 -1.17398e-19)
(1.00468 0.0235996 -1.1154e-17)
(0.995001 0.00107534 7.73515e-17)
(0.996447 0.00101996 3.04879e-17)
(1.02641 0.0310134 -1.03124e-17)
(0.999997 2.62576e-05 1.19027e-18)
(1.07088 -0.0194068 1.36175e-18)
(0.999493 1.16235e-05 7.96294e-17)
(0.947155 0.0382583 4.58207e-17)
(0.998861 0.074263 -8.89639e-18)
(1.0619 0.0665238 3.56277e-18)
(1.03971 0.0279195 6.8487e-18)
(1.03554 0.0159187 -5.10731e-18)
(0.992103 0.0510101 7.72475e-18)
(1.00924 0.0134116 -3.36029e-18)
(1.03923 0.0281073 2.80808e-18)
(0.971074 0.0309328 2.14767e-18)
(1.04175 0.0647023 1.40504e-17)
(1.0078 0.0228923 1.47462e-17)
(1.04455 0.0429913 -2.54548e-18)
(1.00534 0.0237111 -3.7646e-18)
(1.00001 2.01624e-05 -6.06978e-19)
(0.998421 0.0266525 7.87261e-18)
(0.664074 0.0601945 5.60171e-17)
(0.970781 0.13629 2.69383e-17)
(1.00652 0.00571266 -6.0828e-18)
(1.00005 -1.91518e-05 5.16455e-19)
(0.999313 0.000157821 2.17769e-17)
(0.994428 0.00755915 -1.71083e-18)
(0.96823 0.00334855 -2.368e-16)
(1.0356 0.00821599 3.41063e-18)
(1.02931 0.00258084 1.13515e-18)
(1.00049 -9.89747e-05 -3.74259e-19)
(1.00491 0.0071446 5.78088e-18)
(0.992831 0.0276385 1.73883e-17)
(1.00656 0.00563028 -1.93593e-18)
(1.00909 0.00175844 1.23534e-18)
(1.04588 0.0375922 9.4397e-19)
(0.9936 0.00152915 -9.17218e-17)
(0.991186 0.0357208 2.84414e-18)
(1.03747 0.016837 2.74404e-18)
(1.00524 0.00670219 -3.5913e-18)
(1.008 0.00691867 2.5061e-18)
(0.942353 0.0636877 -1.53584e-17)
(1 -1.94919e-05 1.15787e-18)
(0.993364 0.00554267 1.49786e-17)
(1.28538 0.171413 -2.60646e-17)
(0.999878 2.49664e-05 -6.02162e-17)
(1.04068 0.0404335 -5.23478e-18)
(0.995697 0.0745862 -9.9154e-18)
(1.00775 0.00687141 5.86321e-18)
(0.959878 0.0443917 -2.13796e-17)
(1.03716 0.0163871 -3.95461e-18)
(0.997589 0.0265939 -5.55172e-19)
(1.02888 0.0361996 1.15321e-17)
(0.999686 0.00323842 8.25937e-18)
(0.941711 0.036586 -7.16656e-17)
(1.00549 0.000154905 -1.08661e-17)
(1.03514 0.0026718 -2.82445e-18)
(1.03604 0.0165054 5.93117e-18)
(0.938466 0.0415895 -2.85693e-17)
(0.999815 0.00330507 6.91587e-18)
(1.04347 0.00573806 3.0802e-18)
(1.05385 0.02569 6.90881e-19)
(0.992043 0.0350701 5.04729e-18)
(1.00612 0.0139233 -1.44791e-17)
(1.00458 0.00324682 -1.73611e-21)
(1.01101 0.0670324 7.68228e-18)
(0.779297 0.206475 -5.56916e-17)
(0.995562 0.00096589 4.11931e-17)
(0.999968 3.29211e-05 3.24412e-17)
(0.993749 0.0257314 2.06256e-18)
(0.999989 -9.92986e-06 1.24984e-17)
(1.14747 0.210416 -2.36695e-17)
(1.00648 0.0232561 6.75393e-18)
(1.0357 0.0924031 -3.63154e-18)
(1.01637 0.00772403 2.72653e-18)
(1.0286 0.00111467 4.41456e-19)
(0.249701 0.140679 -1.02535e-15)
(1.00634 0.0163612 2.08202e-18)
(1.08261 0.20752 -2.77046e-18)
(1.03524 0.00845865 2.41065e-18)
(0.963785 0.00467705 -3.25781e-17)
(1.02869 0.0133296 -1.18624e-19)
(0.996816 0.0122047 2.02674e-17)
(1.00649 0.0149076 1.04505e-17)
(1.01663 -0.000294596 2.89461e-18)
(1.09072 0.102919 -2.54586e-17)
(1.08276 0.0950711 -1.83031e-17)
(1.0013 -0.000248613 -2.77756e-18)
(1.00129 0.000346854 -6.72719e-20)
(0.927324 0.0465598 -1.5259e-16)
(1.00214 -9.18991e-05 -2.72604e-18)
(0.695948 0.393922 2.71952e-17)
(1.02773 0.0334927 3.49244e-18)
(0.967341 0.168604 -1.3681e-17)
(1.00433 0.00312588 -5.24583e-18)
(0.0724715 0.313387 -4.90385e-16)
(1.12069 0.233248 -1.45215e-17)
(1.00588 0.0228737 3.61019e-18)
(0.999994 8.27372e-06 3.06186e-18)
(0.999962 0.00289439 -5.41099e-19)
(0.954206 0.0313211 4.96865e-17)
(0.99439 0.00834711 1.11083e-17)
(0.989031 0.000230928 -1.62488e-16)
(0.996961 0.00995553 1.16728e-17)
(1.03178 0.0128363 -1.84443e-18)
(0.971619 0.031449 3.99788e-18)
(1.08157 -0.0145424 -4.20771e-17)
(0.617845 0.0301958 -2.61071e-17)
(1.00048 -8.07421e-05 -7.59815e-18)
(0.966437 0.0371656 -5.59135e-18)
(1.0335 0.0308222 -7.55934e-18)
(0.927862 0.0574246 1.04243e-17)
(1.00479 0.0133964 1.27692e-17)
(0.930533 0.0785007 3.6513e-17)
(1.03814 0.00976406 -4.12053e-19)
(0.952959 0.0351236 4.91597e-18)
(0.997349 0.000601857 -2.87511e-17)
(1.00007 1.68746e-05 3.08301e-18)
(1.03788 0.0258236 -4.26538e-19)
(1.04081 0.0274842 7.33563e-18)
(1.02804 0.000711717 -1.81577e-18)
(0.922735 0.0385468 -7.06297e-18)
(1.03316 0.0898863 1.31299e-17)
(1.02239 0.000932837 -3.92021e-18)
(0.997277 0.0252464 5.31617e-18)
(1.0005 0.00406966 1.32563e-18)
(1.00982 0.00899394 6.80719e-19)
(0.786618 0.0261261 -9.64573e-17)
(1.00973 0.00908562 1.91121e-18)
(1.03527 0.0228168 -6.18839e-18)
(0.981112 0.0418037 1.78678e-17)
(1.02725 0.0102579 5.43408e-18)
(1.01182 6.63509e-05 -4.6992e-18)
(0.996187 0.0114675 8.72405e-18)
(1.05322 0.0241325 -7.53344e-18)
(1.01531 0.00764325 -2.04298e-18)
(1.00516 0.0134981 1.14266e-17)
(1.07226 -0.0241967 -3.32169e-17)
(0.990803 0.0304738 -1.98005e-18)
(1.02045 0.00214407 1.03915e-18)
(0.796164 0.338316 7.35431e-17)
(1 5.31026e-06 1.39832e-19)
(1.01554 0.0083908 -1.34942e-20)
(0.998602 0.0216896 1.77135e-17)
(0.992279 0.00721835 2.50605e-17)
(1.00341 0.000268501 2.96195e-18)
(0.997827 0.02461 1.17886e-17)
(1.00001 1.4817e-06 -1.39977e-18)
(1.04272 0.11228 -1.38852e-17)
(1.00587 0.000983491 -3.14615e-18)
(0.971711 0.00501733 -1.52606e-16)
(1.03554 0.0358148 4.10554e-18)
(0.951681 0.050003 2.613e-17)
(1.01714 0.010182 -6.36498e-18)
(1.01649 0.00849285 2.41869e-18)
(1.03729 0.0259644 2.23269e-18)
(1.04802 0.124334 4.52096e-17)
(0.999871 6.989e-05 3.55668e-17)
(0.992798 0.00056724 -1.43119e-16)
(1.02092 0.000352408 -1.01441e-19)
(1.1005 0.202358 -7.20067e-18)
(1.04026 0.0268063 3.44639e-18)
(0.999876 0.00307217 1.44235e-18)
(0.235382 0.10225 -1.00552e-15)
(1.00004 2.84869e-05 -1.05205e-18)
(1.005 0.00170012 6.02621e-19)
(0.671024 0.0189488 8.88674e-17)
(0.994446 0.00513312 1.01768e-17)
(0.999566 0.00345829 -7.96801e-18)
(0.999554 0.0036926 -1.53364e-18)
(0.983532 0.0389119 4.21837e-18)
(0.958495 0.0292781 2.98514e-17)
(0.999845 3.30951e-05 -5.66613e-17)
(0.993461 0.00681212 9.08491e-18)
(0.936634 0.0674305 9.05272e-18)
(0.998106 0.0214742 -8.94105e-18)
(0.995713 0.0179485 1.47265e-17)
(0.996646 0.00957448 -3.58581e-19)
(1.00113 0.000118998 8.68077e-19)
(0.957828 0.0307366 -5.12813e-17)
(1.06491 0.0626681 2.77824e-18)
(0.994883 0.0159254 1.89777e-17)
(0.923657 0.0328398 1.13768e-16)
(1.03588 0.00694488 3.06231e-18)
(1.03791 0.00405602 3.60439e-19)
(1.03845 0.108623 -1.04985e-17)
(1.03254 0.031733 -4.39042e-18)
(0.99645 0.0097422 1.76716e-18)
(1.00509 0.00165295 -1.26012e-17)
(1.08243 0.109453 2.90887e-17)
(1.04031 0.00669082 2.3961e-18)
(0.976052 0.025971 1.51537e-17)
(1.00076 0.00414395 -3.08704e-18)
(0.999735 0.000225656 1.40719e-17)
(0.93065 0.0124585 -9.91773e-17)
(1.0498 0.0433833 7.46698e-18)
(1.01483 0.00730151 -4.00022e-18)
(1.01061 0.0500795 4.88277e-18)
(1.01487 0.00789384 -3.77137e-18)
(0.996804 0.0102157 1.77548e-17)
(1.00563 0.00462869 1.38125e-18)
(0.963934 0.0360251 -3.40594e-18)
(0.813361 0.0176204 -2.39367e-17)
(0.310046 0.424381 8.6514e-17)
(0.965598 0.0381556 6.93232e-18)
(0.998885 0.0184968 -4.8338e-18)
(1.00558 0.00457495 1.5687e-18)
(0.968581 0.033858 -6.18063e-18)
(0.580077 0.310764 5.0202e-18)
(0.94189 0.032096 -6.95018e-18)
(0.999854 0.003077 2.25581e-18)
(1.04799 0.0364646 -1.43651e-17)