/*--------------------------------*- C++ -*----------------------------------*\
  =========                 |
  \\      /  F ield         | OpenFOAM: The Open Source CFD Toolbox
   \\    /   O peration     | Website:  https://openfoam.org
    \\  /    A nd           | Version:  7
     \\/     M anipulation  |
\*---------------------------------------------------------------------------*/
FoamFile
{
    version     2.0;
    format      ascii;
    class       surfaceScalarField;
    location    "5";
    object      phi;
}
// * * * * * * * * * * * * * * * * * * * * * * * * * * * * * * * * * * * * * //

dimensions      [0 3 -1 0 0 0 0];

internalField   nonuniform List<scalar> 
1162
(
0.00959924
0.000116753
6.72736e-06
0.00948124
0.000100483
1.75142e-05
0.00936862
9.02747e-05
2.23435e-05
0.00926119
8.28722e-05
2.45585e-05
0.00915871
7.60535e-05
2.64299e-05
0.00906092
6.9025e-05
2.87585e-05
0.0089676
6.15672e-05
3.17566e-05
0.00887851
5.3599e-05
3.54965e-05
0.00879341
4.50448e-05
4.00457e-05
0.00871211
3.58036e-05
4.54982e-05
0.00863439
2.57441e-05
5.19804e-05
0.00856003
1.46877e-05
5.96666e-05
0.00848886
2.45032e-06
6.87233e-05
0.00842064
-1.11668e-05
7.93828e-05
0.00835518
-2.67747e-05
9.22406e-05
0.00829227
-4.45335e-05
0.00010744
0.00823166
-6.52674e-05
0.000125876
0.00817313
-8.88399e-05
0.000147377
0.00811655
-0.000117948
0.000174528
0.00806146
-0.000149092
0.000204176
-0.00019468
0.000248231
0.00960824
0.000231227
0.00949883
0.000209896
0.00939439
0.000194711
0.00929476
0.000182504
0.00919971
0.000171104
0.00910901
0.000159724
0.00902244
0.00014814
0.00893978
0.000136261
0.00886082
0.000124005
0.00878536
0.000111264
0.0087132
9.79032e-05
0.00864415
8.37376e-05
0.00857801
6.85855e-05
0.0085146
5.22507e-05
0.00845369
3.41319e-05
0.00839511
1.40489e-05
0.00833866
-8.81744e-06
0.00828407
-3.42492e-05
0.00823113
-6.50079e-05
0.00817954
-9.75067e-05
-0.000144264
0.00961706
0.000336881
0.00951606
0.000310899
0.00941964
0.00029113
0.00932765
0.000274495
0.00923988
0.000258871
0.00915613
0.00024348
0.00907617
0.000228093
0.00899982
0.000212612
0.00892688
0.000196948
0.00885715
0.000180988
0.00879047
0.000164591
0.00872663
0.000147573
0.00866547
0.000129747
0.0086068
0.000110924
0.00855042
9.05083e-05
0.00849616
6.83069e-05
0.0084438
4.35429e-05
0.00839317
1.63858e-05
0.00834408
-1.59209e-05
0.00829609
-4.9518e-05
-9.71509e-05
0.0096257
0.000433903
0.00953292
0.000403673
0.00944435
0.000379706
0.00935983
0.000359009
0.00927919
0.00033951
0.00920223
0.000320442
0.00912875
0.00030157
0.00905858
0.00028279
0.00899152
0.000264008
0.0089274
0.000245104
0.00886606
0.000225935
0.00880731
0.000206317
0.00875101
0.000186054
0.00869697
0.000164958
0.00864503
0.00014245
0.00859499
0.000118342
0.00854668
9.18578e-05
0.00849986
6.32032e-05
0.00845437
2.95714e-05
0.00841009
-5.23395e-06
-5.32509e-05
0.00963414
0.000522486
0.00954941
0.000488401
0.0094685
0.000460612
0.0093913
0.000436212
0.00931763
0.000413181
0.00924731
0.000390761
0.00918016
0.000368714
0.00911602
0.000346931
0.00905472
0.000325311
0.00899609
0.000303733
0.00893998
0.000282048
0.00888622
0.000260073
0.00883467
0.000237605
0.00878517
0.000214461
0.00873754
0.000190078
0.00869162
0.000164264
0.00864724
0.000136235
0.00860421
0.000106233
0.00856234
7.14445e-05
0.00852138
3.57289e-05
-1.27291e-05
0.00964238
0.000602824
0.00956551
0.00056527
0.0094921
0.000534026
0.00942203
0.000506274
0.00935517
0.000480044
0.00929134
0.00045459
0.00923038
0.000429672
0.00917214
0.000405175
0.00911646
0.000380994
0.00906319
0.000357002
0.00901219
0.000333051
0.0089633
0.000308957
0.0089164
0.000284513
0.00887132
0.000259535
0.00882792
0.000233481
0.00878603
0.000206154
0.00874549
0.000176778
0.00870611
0.000145604
0.00866771
0.000109847
0.00863021
7.32306e-05
2.47726e-05
0.00965042
0.000675117
0.00958123
0.000634469
0.00951512
0.000600129
0.00945203
0.000569367
0.00939181
0.000540263
0.00933431
0.000512086
0.00927939
0.000484592
0.0092269
0.000457663
0.00917671
0.000431189
0.00912867
0.000405041
0.00908265
0.000379067
0.00903853
0.000353086
0.00899615
0.000326886
0.0089554
0.000300287
0.00891612
0.000272761
0.00887816
0.000244113
0.00884137
0.000213569
0.00880558
0.000181392
0.00877058
0.000144847
0.00873633
0.000107484
5.91473e-05
0.00965827
0.000739568
0.00959655
0.00069619
0.00953757
0.000659105
0.00948127
0.000625666
0.00942753
0.000594007
0.00937621
0.000563408
0.00932717
0.000533627
0.00928029
0.000504541
0.00923545
0.000476035
0.00919251
0.00044798
0.00915136
0.000420222
0.00911186
0.000392579
0.00907391
0.00036484
0.00903737
0.000336824
0.00900211
0.000308022
0.00896799
0.000278237
0.00893485
0.000246703
0.00890256
0.000213688
0.00887088
0.000176527
0.00883983
0.000138533
9.0554e-05
0.00966591
0.000796379
0.00961147
0.00075063
0.00955943
0.000711139
0.00950975
0.000675347
0.00946231
0.000641442
0.00941701
0.000608717
0.0093737
0.00057693
0.00933229
0.000545953
0.00929265
0.000515672
0.00925468
0.000485952
0.00921826
0.000456641
0.00918328
0.000427558
0.00914963
0.000398489
0.0091172
0.000369257
0.00908586
0.000339367
0.00905547
0.000308625
0.00902589
0.000276276
0.008997
0.000242582
0.00896855
0.000204972
0.00894062
0.000166469
0.000119046
0.00967334
0.000845761
0.00962598
0.000797985
0.0095807
0.00075642
0.00953745
0.000718593
0.00949615
0.000682742
0.00945669
0.000648178
0.00941897
0.000614657
0.00938287
0.000582051
0.0093483
0.00055024
0.00931516
0.000519093
0.00928335
0.000488454
0.00925276
0.000458144
0.0092233
0.000427951
0.00919486
0.000397696
0.00916732
0.000366904
0.00914057
0.000335381
0.00911446
0.000302383
0.00908888
0.000268165
0.00906358
0.00023027
0.00903867
0.000191378
0.000144669
0.00968056
0.000887922
0.00964008
0.000838458
0.00960136
0.000795141
0.00956437
0.000755584
0.00952903
0.00071808
0.00949526
0.000681954
0.00946295
0.000646966
0.00943202
0.000612982
0.00940237
0.000579885
0.00937392
0.000547539
0.00934659
0.000515791
0.00932027
0.000484463
0.00929488
0.000453343
0.00927032
0.000422255
0.00924648
0.000390741
0.00922326
0.000358606
0.00920052
0.000325124
0.00917815
0.000290533
0.00915591
0.000252509
0.00913394
0.000213349
0.000167513
0.00968756
0.000923078
0.00965377
0.000872251
0.00962141
0.000827495
0.00959049
0.000786506
0.00956094
0.000747633
0.00953268
0.000710216
0.00950563
0.000674017
0.00947971
0.000638902
0.00945484
0.000604751
0.00943095
0.00057143
0.00940796
0.000538784
0.00938578
0.00050664
0.00936434
0.000474786
0.00934354
0.000443049
0.0093233
0.000410986
0.0093035
0.000378404
0.00928403
0.000344597
0.00926478
0.000309779
0.00924551
0.000271779
0.00922639
0.00023247
0.000187643
0.00969435
0.000951444
0.00966703
0.000899571
0.00964085
0.000853678
0.00961581
0.000811546
0.00959186
0.000771578
0.00956895
0.000733133
0.00954699
0.000695972
0.00952593
0.000659964
0.00950569
0.000624986
0.00948622
0.000590906
0.00946743
0.000557568
0.00944927
0.000524804
0.00943165
0.000492402
0.00941451
0.000460193
0.00939775
0.00042775
0.00938127
0.000394882
0.00936496
0.000360904
0.00934874
0.000326
0.00933235
0.00028817
0.00931599
0.000248834
0.000205141
0.00970092
0.000973238
0.00967987
0.000920627
0.00965966
0.00087389
0.00964031
0.000830894
0.00962179
0.000790098
0.00960404
0.000750876
0.00958702
0.000712996
0.00957066
0.000676325
0.00955491
0.00064074
0.0095397
0.000606108
0.00952499
0.000572278
0.00951072
0.000539083
0.0094968
0.000506315
0.00948319
0.000473805
0.00946979
0.000441146
0.00945653
0.000408147
0.00944329
0.000374146
0.00942999
0.000339294
0.00941639
0.000301775
0.00940269
0.000262532
0.000220083
0.00970727
0.000988683
0.00969227
0.000935629
0.00967783
0.000888331
0.00966398
0.000844742
0.00965071
0.000803374
0.00963796
0.000763622
0.0096257
0.000725255
0.00961388
0.000688143
0.00960246
0.000652162
0.00959139
0.000617181
0.00958061
0.000583051
0.00957009
0.000549608
0.00955976
0.000516648
0.00954956
0.000484004
0.00953942
0.000451287
0.00952926
0.000418305
0.00951898
0.000384426
0.00950851
0.00034976
0.0094976
0.000312685
0.00948648
0.000273657
0.000232547
0.0097134
0.000998002
0.00970424
0.00094479
0.00969536
0.000897206
0.00968682
0.000853282
0.0096786
0.000811591
0.00967068
0.000771545
0.00966302
0.000732917
0.00965558
0.000695578
0.00964834
0.000659406
0.00964125
0.000624271
0.00963428
0.000590027
0.00962737
0.000556512
0.00962049
0.000523528
0.00961358
0.000490911
0.00960658
0.000458287
0.00959942
0.000425468
0.009592
0.00039185
0.00958426
0.000357498
0.00957595
0.000320994
0.0095673
0.000282305
0.00955724
0.000242613
0.000186801
0.0097193
0.00100142
0.00971576
0.000948327
0.00971225
0.000900718
0.00970882
0.000856713
0.00970547
0.000814936
0.00970219
0.000774823
0.00969896
0.000736152
0.00969575
0.000698792
0.00969253
0.000662626
0.00968927
0.000627525
0.00968595
0.000593344
0.00968254
0.000559928
0.00967898
0.000527083
0.00967525
0.000494646
0.00967127
0.000462263
0.00966699
0.000429746
0.00966232
0.000396521
0.00965721
0.00036261
0.00965141
0.000326799
0.00964514
0.000288569
0.00963739
0.000250364
0.00019469
0.00972497
0.000999168
0.00972684
0.000946458
0.00972848
0.000899077
0.00972996
0.00085523
0.0097313
0.000813599
0.00973249
0.000773637
0.00973351
0.00073513
0.00973435
0.000697949
0.009735
0.000661978
0.00973543
0.00062709
0.00973563
0.000593145
0.00973557
0.000559992
0.00973521
0.00052744
0.00973452
0.000495334
0.00973346
0.000463331
0.00973195
0.00043125
0.00972993
0.000398547
0.00972734
0.000365196
0.00972394
0.000330193
0.00971997
0.000292547
0.00971445
0.000255883
0.000200591
0.00973041
0.000991476
0.00973747
0.000939401
0.00974405
0.000892492
0.00975025
0.000849034
0.00975608
0.000807769
0.00976155
0.000768169
0.00976665
0.000730025
0.00977139
0.000693214
0.00977575
0.000657619
0.00977972
0.000623118
0.00978329
0.000589574
0.00978644
0.000556839
0.00978915
0.000524731
0.00979139
0.000493096
0.00979311
0.000461611
0.00979427
0.000430093
0.00979478
0.000398035
0.00979461
0.000365361
0.00979353
0.000331273
0.00979175
0.000294333
0.00978837
0.000259256
0.000204589
0.00973562
0.000978575
0.00974764
0.00092738
0.00975896
0.000881174
0.00976966
0.000838328
0.0097798
0.000797638
0.00978936
0.0007586
0.00979838
0.000721012
0.00980684
0.000684752
0.00981475
0.000649708
0.00982211
0.000615759
0.00982891
0.000582773
0.00983514
0.000550608
0.00984079
0.000519087
0.00984582
0.000488059
0.00985021
0.00045722
0.00985392
0.00042639
0.00985686
0.000395094
0.00985901
0.000363209
0.00986014
0.000330139
0.00986045
0.000294026
0.00985914
0.00026057
0.000206773
0.00974059
0.000960701
0.00975735
0.000910617
0.00977319
0.000865337
0.00978821
0.000823313
0.00980244
0.0007834
0.00981593
0.000745117
0.00982867
0.000708267
0.00984069
0.000672733
0.009852
0.000638404
0.00986259
0.000605166
0.00987247
0.000572889
0.00988164
0.000541436
0.00989009
0.000510638
0.0098978
0.00048035
0.00990474
0.00045028
0.00991088
0.000420254
0.00991614
0.000389832
0.0099205
0.000358844
0.00992375
0.000326887
0.00992606
0.000291721
0.00992672
0.000259913
0.000207227
0.00974533
0.000938091
0.00976661
0.000889339
0.00978675
0.000845195
0.00980587
0.000804195
0.00982401
0.000765251
0.00984123
0.000727905
0.00985753
0.000691968
0.00987293
0.000657325
0.00988747
0.00062387
0.00990114
0.000591493
0.00991396
0.000560068
0.00992593
0.000529465
0.00993705
0.00049952
0.00994731
0.000470094
0.00995668
0.000440912
0.00996513
0.000411803
0.0099726
0.000382361
0.00997907
0.000352373
0.00998434
0.000321618
0.00998854
0.000287518
0.00999108
0.000257377
0.000206037
0.00974983
0.000910982
0.00977539
0.000863773
0.00979962
0.000820966
0.00982264
0.000781181
0.0098445
0.000743388
0.00986525
0.000707152
0.00988493
0.000672293
0.00990355
0.000638699
0.00992115
0.000606268
0.00993775
0.000574895
0.00995336
0.000544458
0.00996799
0.000514834
0.00998165
0.000485866
0.00999432
0.00045742
0.010006
0.000429238
0.0100166
0.000401151
0.0100262
0.000372791
0.0100347
0.000343902
0.0100419
0.000314432
0.0100479
0.000281513
0.0100522
0.000253052
0.000203287
0.00975408
0.000879616
0.00978371
0.000834147
0.00981181
0.000792868
0.00983851
0.000754478
0.00986389
0.000718009
0.00988799
0.000683048
0.00991086
0.000649422
0.00993254
0.000617026
0.00995304
0.000585762
0.00997241
0.000555528
0.00999066
0.000526209
0.0100078
0.000497687
0.0100239
0.000469813
0.0100388
0.000442458
0.0100527
0.000415381
0.0100654
0.000388418
0.010077
0.000361234
0.0100873
0.000333539
0.0100963
0.000305431
0.010104
0.000273806
0.0101101
0.000247033
0.00019906
0.0097581
0.000844234
0.00979155
0.000800693
0.0098233
0.00076112
0.00985348
0.000724297
0.00988218
0.000689314
0.00990944
0.000655782
0.00993533
0.000623538
0.00995987
0.000592481
0.00998312
0.000562517
0.0100051
0.000533549
0.0100258
0.00050547
0.0100454
0.000478165
0.0100637
0.000451495
0.0100808
0.000425336
0.0100967
0.000399465
0.0101114
0.000373722
0.0101248
0.000347804
0.010137
0.000321391
0.0101477
0.000294716
0.010157
0.000264495
0.0101646
0.000239414
0.000193442
0.00976187
0.00979892
0.0098341
0.00986755
0.00989936
0.00992959
0.00995831
0.00998555
0.0100114
0.0100358
0.0100589
0.0100806
0.0101011
0.0101202
0.0101381
0.0101546
0.0101698
0.0101836
0.010196
0.000282391
0.0102068
0.000253678
0.0102159
0.000230291
0.000186515
0.0102411
0.0102533
0.0102638
0.0370476
-0.000167557
0.0370376
-0.000196737
0.0370263
-0.000229974
-0.000273147
0.0362612
-7.31843e-06
0.0362597
-1.90303e-05
0.0362577
-2.42799e-05
0.0362556
-2.66843e-05
0.0362533
-2.8709e-05
0.0362508
-3.12241e-05
0.0362481
-3.44598e-05
0.036245
-3.84929e-05
0.0362417
-4.33943e-05
0.0362379
-4.92618e-05
0.0362337
-5.62284e-05
0.0362289
-6.44683e-05
0.0362235
-7.41639e-05
0.0362173
-8.56268e-05
0.0362104
-9.93555e-05
0.0362026
-0.000115559
0.0361939
-0.00013494
0.036184
-0.000157681
0.0361733
-0.000186011
0.0361608
-0.000217521
-0.000261554
0.0354191
0.0354176
0.0354157
0.0354135
0.0354112
0.0354088
0.0354061
0.0354031
0.0353997
0.035396
0.0353917
0.0353869
0.0353815
0.0353752
0.0353681
0.03536
0.0353509
0.0353406
0.0353292
0.0353158
)
;

boundaryField
{
    inlet
    {
        type            calculated;
        value           nonuniform List<scalar> 
28
(
-0.00972272
-0.00972272
-0.00972272
-0.00972272
-0.00972272
-0.00972272
-0.00972272
-0.00972272
-0.00972272
-0.00972272
-0.00972272
-0.00972272
-0.00972272
-0.00972272
-0.00972272
-0.00972272
-0.00972272
-0.00972272
-0.00972272
-0.00972272
-0.00972272
-0.00972272
-0.00972272
-0.00972272
-0.00972272
-0.00972272
-0.0362618
-0.0354197
)
;
    }
    outlet
    {
        type            calculated;
        value           nonuniform 0();
    }
    cylinder
    {
        type            calculated;
        value           nonuniform 0();
    }
    top
    {
        type            symmetryPlane;
        value           nonuniform 0();
    }
    bottom
    {
        type            symmetryPlane;
        value           nonuniform 0();
    }
    defaultFaces
    {
        type            empty;
        value           nonuniform 0();
    }
    procBoundary16to8
    {
        type            processor;
        value           nonuniform List<scalar> 
22
(
0.000176884
0.000206712
0.000241274
0.000283543
7.91701e-06
2.05628e-05
2.62354e-05
2.88296e-05
3.10071e-05
3.37082e-05
3.71804e-05
4.15048e-05
4.67547e-05
5.30317e-05
6.04732e-05
6.92548e-05
7.95877e-05
9.17781e-05
0.000106275
0.000123337
-0.0370569
0.000143646
)
;
    }
    procBoundary16to17
    {
        type            processor;
        value           nonuniform List<scalar> 
30
(
0.00800791
0.00812912
0.00824898
0.00836619
0.00848085
0.00859271
0.00870195
0.00880842
0.00891213
0.00901305
0.0091111
0.00920626
0.00929849
0.00938775
0.00947401
-0.000176833
0.00954727
0.0096295
0.00970855
0.00978438
0.00985695
0.00992626
0.00999227
0.010055
0.0101143
0.0101703
0.0102228
0.0370159
0.0361493
0.0353025
)
;
    }
    procBoundary16to24
    {
        type            processor;
        value           nonuniform List<scalar> 
23
(
0.00080508
0.000763643
0.000725944
0.000690847
0.000657503
0.000625546
0.000594823
0.000565236
0.000536699
0.000509118
0.000482391
0.000456413
0.000431051
0.000406188
0.000381615
0.00035718
0.000332612
0.000307567
-0.0102273
0.00026856
0.000241454
0.00021976
0.000178364
)
;
    }
    procBoundary16to25
    {
        type            processor;
        value           uniform 0.010272;
    }
}


// ************************************************************************* //
