/*--------------------------------*- C++ -*----------------------------------*\
  =========                 |
  \\      /  F ield         | OpenFOAM: The Open Source CFD Toolbox
   \\    /   O peration     | Website:  https://openfoam.org
    \\  /    A nd           | Version:  7
     \\/     M anipulation  |
\*---------------------------------------------------------------------------*/
FoamFile
{
    version     2.0;
    format      ascii;
    class       surfaceScalarField;
    location    "0.8";
    object      phi;
}
// * * * * * * * * * * * * * * * * * * * * * * * * * * * * * * * * * * * * * //

dimensions      [0 3 -1 0 0 0 0];

internalField   nonuniform List<scalar> 
3120
(
2.53445e-09
-2.55111e-09
4.09748e-09
-1.56302e-09
2.2543e-09
1.84317e-09
-3.5541e-09
5.8084e-09
-1.31385e-08
9.58439e-09
-2.599e-08
1.28516e-08
-4.1469e-08
1.5479e-08
-5.88988e-08
1.74298e-08
-7.76116e-08
1.87128e-08
-9.69705e-08
1.93588e-08
-1.16381e-07
1.94104e-08
-1.35297e-07
1.89157e-08
-1.53223e-07
1.79261e-08
-1.69717e-07
1.64943e-08
-1.8439e-07
1.46735e-08
-1.96908e-07
1.25176e-08
-2.06989e-07
1.00808e-08
-2.14407e-07
7.41817e-09
-2.18993e-07
4.58597e-09
-2.20635e-07
1.64203e-09
-2.19281e-07
-1.35377e-09
-2.14942e-07
-4.33931e-09
-2.07692e-07
-7.25013e-09
-1.97672e-07
-1.00196e-08
-1.85093e-07
-1.25792e-08
-1.70233e-07
-1.48597e-08
-1.53442e-07
-1.67912e-08
-1.35137e-07
-1.83055e-08
-1.158e-07
-1.93369e-08
-9.59753e-08
-1.98244e-08
-7.62617e-08
-1.97136e-08
-5.73018e-08
-1.89599e-08
-3.97702e-08
-1.75316e-08
-2.43548e-08
-1.54154e-08
-1.17279e-08
-1.26269e-08
-2.49561e-09
-9.23233e-09
2.89842e-09
-5.39406e-09
4.35973e-09
-1.46134e-09
2.5621e-09
1.79762e-09
2.56211e-09
1.61513e-09
-4.16624e-09
-1.17356e-09
1.22568e-09
-1.17196e-08
1.23892e-08
-3.1083e-08
2.51718e-08
-5.90623e-08
3.75637e-08
-9.47137e-08
4.8503e-08
-1.36688e-07
5.74529e-08
-1.83444e-07
6.41862e-08
-2.33383e-07
6.86514e-08
-2.84922e-07
7.08981e-08
-3.36547e-07
7.10357e-08
-3.86841e-07
6.92096e-08
-4.34502e-07
6.5587e-08
-4.78356e-07
6.03482e-08
-5.17364e-07
5.36818e-08
-5.50629e-07
4.57823e-08
-5.77397e-07
3.68491e-08
-5.97065e-07
2.70861e-08
-6.09182e-07
1.67031e-08
-6.13456e-07
5.91578e-09
-6.09757e-07
-5.05293e-09
-5.98123e-07
-1.59726e-08
-5.78768e-07
-2.66056e-08
-5.5208e-07
-3.67077e-08
-5.18629e-07
-4.60299e-08
-4.79167e-07
-5.43219e-08
-4.34623e-07
-6.13351e-08
-3.861e-07
-6.68285e-08
-3.34862e-07
-7.05746e-08
-2.8232e-07
-7.23672e-08
-2.30002e-07
-7.2031e-08
-1.79529e-07
-6.94332e-08
-1.32561e-07
-6.44997e-08
-9.0738e-08
-5.72382e-08
-5.55881e-08
-4.77768e-08
-2.83883e-08
-3.64321e-08
-9.94974e-09
-2.38327e-08
-2.91182e-10
-1.11199e-08
1.8551e-09
-3.48672e-10
4.41719e-09
-1.66893e-09
-2.49731e-09
-1.21215e-08
1.16783e-08
-3.41012e-08
3.4369e-08
-6.84712e-08
5.95418e-08
-1.14818e-07
8.39105e-08
-1.71856e-07
1.05541e-07
-2.3775e-07
1.23347e-07
-3.10364e-07
1.368e-07
-3.87428e-07
1.45715e-07
-4.66656e-07
1.50126e-07
-5.45829e-07
1.50208e-07
-6.22843e-07
1.46224e-07
-6.95752e-07
1.38496e-07
-7.62787e-07
1.27384e-07
-8.22379e-07
1.13274e-07
-8.73165e-07
9.6569e-08
-9.14004e-07
7.76879e-08
-9.4398e-07
5.70616e-08
-9.62411e-07
3.51341e-08
-9.68859e-07
1.23636e-08
-9.63134e-07
-1.07774e-08
-9.45305e-07
-3.38016e-08
-9.15703e-07
-5.62079e-08
-8.74927e-07
-7.74834e-08
-8.23849e-07
-9.71085e-08
-7.63608e-07
-1.14562e-07
-6.95611e-07
-1.29333e-07
-6.21513e-07
-1.40926e-07
-5.43205e-07
-1.48883e-07
-4.62778e-07
-1.52794e-07
-3.82487e-07
-1.52322e-07
-3.04692e-07
-1.47228e-07
-2.31785e-07
-1.37406e-07
-1.66092e-07
-1.22931e-07
-1.09737e-07
-1.04132e-07
-6.44644e-08
-8.17051e-08
-3.13904e-08
-5.69067e-08
-1.06933e-08
-3.1817e-08
-1.2388e-09
-9.80319e-09
3.17838e-09
-5.57098e-09
3.07366e-09
-2.49869e-08
3.10942e-08
-5.97058e-08
6.90879e-08
-1.09904e-07
1.0974e-07
-1.7469e-07
1.48697e-07
-2.52358e-07
1.83208e-07
-3.40634e-07
2.11624e-07
-4.369e-07
2.33066e-07
-5.38365e-07
2.4718e-07
-6.422e-07
2.53961e-07
-7.45633e-07
2.53641e-07
-8.46023e-07
2.46614e-07
-9.40909e-07
2.33382e-07
-1.02805e-06
2.14522e-07
-1.10544e-06
1.90663e-07
-1.17134e-06
1.62473e-07
-1.2243e-06
1.30646e-07
-1.26314e-06
9.5904e-08
-1.287e-06
5.89925e-08
-1.29532e-06
2.06805e-08
-1.28786e-06
-1.82386e-08
-1.26471e-06
-5.6948e-08
-1.22631e-06
-9.46098e-08
-1.17342e-06
-1.30369e-07
-1.10717e-06
-1.63363e-07
-1.029e-06
-1.92729e-07
-9.40709e-07
-2.17624e-07
-8.44394e-07
-2.37241e-07
-7.42441e-07
-2.50835e-07
-6.37483e-07
-2.57751e-07
-5.32343e-07
-2.57462e-07
-4.2996e-07
-2.49611e-07
-3.33297e-07
-2.3407e-07
-2.45216e-07
-2.11012e-07
-1.68334e-07
-1.81014e-07
-1.04827e-07
-1.45212e-07
-5.62127e-08
-1.05521e-07
-2.31066e-08
-6.4923e-08
-4.98755e-09
-2.79223e-08
-1.8092e-09
-9.47213e-09
1.25458e-08
-3.81882e-08
5.98102e-08
-8.61069e-08
1.17007e-07
-1.52442e-07
1.76075e-07
-2.35624e-07
2.31879e-07
-3.33415e-07
2.80999e-07
-4.43074e-07
3.21283e-07
-5.61536e-07
3.51527e-07
-6.8556e-07
3.71205e-07
-8.1187e-07
3.80271e-07
-9.37247e-07
3.79019e-07
-1.05862e-06
3.67985e-07
-1.17311e-06
3.47873e-07
-1.2781e-06
3.19509e-07
-1.37123e-06
2.838e-07
-1.45048e-06
2.41719e-07
-1.51412e-06
1.94286e-07
-1.56078e-06
1.42563e-07
-1.58944e-06
8.76508e-08
-1.59944e-06
3.06835e-08
-1.59051e-06
-2.71674e-08
-1.56276e-06
-8.4698e-08
-1.5167e-06
-1.40675e-07
-1.45322e-06
-1.93842e-07
-1.37365e-06
-2.42934e-07
-1.27969e-06
-2.86693e-07
-1.17342e-06
-3.23889e-07
-1.05731e-06
-3.53352e-07
-9.34139e-07
-3.74008e-07
-8.06971e-07
-3.8492e-07
-6.7909e-07
-3.85344e-07
-5.53909e-07
-3.74792e-07
-4.34869e-07
-3.5311e-07
-3.25308e-07
-3.20573e-07
-2.28306e-07
-2.78016e-07
-1.46514e-07
-2.27005e-07
-8.19682e-08
-1.70066e-07
-3.59259e-08
-1.10965e-07
-8.75836e-09
-5.50898e-08
-1.05676e-08
-1.31676e-08
2.57134e-08
-5.10464e-08
9.7689e-08
-1.12134e-07
1.78094e-07
-1.9457e-07
2.58511e-07
-2.9598e-07
3.33289e-07
-4.13497e-07
3.98516e-07
-5.43861e-07
4.51647e-07
-6.83548e-07
4.91214e-07
-8.28897e-07
5.16554e-07
-9.76229e-07
5.27603e-07
-1.12195e-06
5.24737e-07
-1.26262e-06
5.08655e-07
-1.39503e-06
4.80287e-07
-1.51625e-06
4.40731e-07
-1.62366e-06
3.91209e-07
-1.71498e-06
3.33032e-07
-1.78827e-06
2.67583e-07
-1.84202e-06
1.96306e-07
-1.87506e-06
1.20694e-07
-1.88667e-06
4.22928e-08
-1.87653e-06
-3.73046e-08
-1.84477e-06
-1.16462e-07
-1.79194e-06
-1.93504e-07
-1.71905e-06
-2.66729e-07
-1.62756e-06
-3.34422e-07
-1.51937e-06
-3.94881e-07
-1.39682e-06
-4.46447e-07
-1.26263e-06
-4.87542e-07
-1.11991e-06
-5.16723e-07
-9.72095e-07
-5.32736e-07
-8.22849e-07
-5.3459e-07
-6.76002e-07
-5.21639e-07
-5.35432e-07
-4.9368e-07
-4.04932e-07
-4.51072e-07
-2.88072e-07
-3.94876e-07
-1.88039e-07
-3.27039e-07
-1.07494e-07
-2.50611e-07
-4.8468e-08
-1.69991e-07
-1.23401e-08
-9.12176e-08
-2.29077e-08
-1.66171e-08
4.23305e-08
-6.3335e-08
1.44407e-07
-1.37323e-07
2.52082e-07
-2.35635e-07
3.56823e-07
-3.55027e-07
4.52682e-07
-4.91935e-07
5.35423e-07
-6.42524e-07
6.02237e-07
-8.02785e-07
6.51475e-07
-9.68632e-07
6.82401e-07
-1.13601e-06
6.9498e-07
-1.30098e-06
6.89705e-07
-1.45979e-06
6.67466e-07
-1.60895e-06
6.29451e-07
-1.74528e-06
5.7706e-07
-1.86593e-06
5.11857e-07
-1.96842e-06
4.35523e-07
-2.05067e-06
3.49834e-07
-2.11101e-06
2.56644e-07
-2.14819e-06
1.57875e-07
-2.16141e-06
5.55152e-08
-2.15033e-06
-4.83896e-08
-2.11505e-06
-1.51736e-07
-2.05618e-06
-2.52374e-07
-1.9748e-06
-3.48116e-07
-1.87246e-06
-4.36762e-07
-1.75121e-06
-5.16129e-07
-1.61357e-06
-5.84086e-07
-1.4625e-06
-6.38609e-07
-1.30138e-06
-6.77844e-07
-1.13394e-06
-7.0018e-07
-9.6419e-07
-7.04339e-07
-7.96351e-07
-6.89477e-07
-6.34727e-07
-6.55305e-07
-4.83584e-07
-6.02215e-07
-3.4702e-07
-5.31441e-07
-2.28824e-07
-4.45234e-07
-1.32365e-07
-3.4707e-07
-6.05205e-08
-2.41835e-07
-1.56941e-08
-1.36044e-07
-3.86017e-08
-1.98496e-08
6.21801e-08
-7.50577e-08
1.99615e-07
-1.61609e-07
3.38633e-07
-2.75507e-07
4.70721e-07
-4.12616e-07
5.89791e-07
-5.68628e-07
6.91435e-07
-7.39092e-07
7.72701e-07
-9.19481e-07
8.31864e-07
-1.10527e-06
8.68194e-07
-1.29204e-06
8.81745e-07
-1.47551e-06
8.73179e-07
-1.65167e-06
8.43623e-07
-1.81677e-06
7.94555e-07
-1.96743e-06
7.27713e-07
-2.1006e-06
6.45029e-07
-2.21366e-06
5.48583e-07
-2.30439e-06
4.40569e-07
-2.37103e-06
3.23277e-07
-2.41223e-06
1.9908e-07
-2.42715e-06
7.04293e-08
-2.41538e-06
-6.01516e-08
-2.37705e-06
-1.90069e-07
-2.31275e-06
-3.16671e-07
-2.22361e-06
-4.37261e-07
-2.11125e-06
-5.49121e-07
-1.97783e-06
-6.49552e-07
-1.826e-06
-7.35917e-07
-1.6589e-06
-8.05703e-07
-1.48014e-06
-8.56603e-07
-1.29372e-06
-8.86601e-07
-1.10398e-06
-8.9408e-07
-9.15511e-07
-8.77946e-07
-7.33055e-07
-8.37761e-07
-5.61381e-07
-7.73888e-07
-4.05162e-07
-6.8766e-07
-2.68851e-07
-5.81545e-07
-1.56584e-07
-4.59338e-07
-7.21178e-08
-3.26301e-07
-1.8857e-08
-1.89305e-07
-5.74587e-08
-2.29175e-08
8.50976e-08
-8.63201e-08
2.63018e-07
-1.85128e-07
4.37441e-07
-3.14338e-07
5.99932e-07
-4.68924e-07
7.44376e-07
-6.43807e-07
8.66318e-07
-8.33888e-07
9.62782e-07
-1.03409e-06
1.03207e-06
-1.23945e-06
1.07355e-06
-1.44515e-06
1.08745e-06
-1.64662e-06
1.07465e-06
-1.83957e-06
1.03657e-06
-2.02004e-06
9.75027e-07
-2.18446e-06
8.92134e-07
-2.32965e-06
7.90222e-07
-2.45286e-06
6.71795e-07
-2.55178e-06
5.39485e-07
-2.62454e-06
3.96038e-07
-2.66975e-06
2.4429e-07
-2.68649e-06
8.71724e-08
-2.67434e-06
-7.23005e-08
-2.63338e-06
-2.31031e-07
-2.56421e-06
-3.85847e-07
-2.46794e-06
-5.33523e-07
-2.34626e-06
-6.70802e-07
-2.20138e-06
-7.94437e-07
-2.03605e-06
-9.01249e-07
-1.85355e-06
-9.88197e-07
-1.65769e-06
-1.05247e-06
-1.45271e-06
-1.09158e-06
-1.24325e-06
-1.10353e-06
-1.03431e-06
-1.08689e-06
-8.31059e-07
-1.04101e-06
-6.38818e-07
-9.66129e-07
-4.6288e-07
-8.63597e-07
-3.08417e-07
-7.36008e-07
-1.80373e-07
-5.87382e-07
-8.34083e-08
-4.23266e-07
-2.18931e-08
-2.5082e-07
-7.93518e-08
-2.58765e-08
1.10974e-07
-9.72634e-08
3.34405e-07
-2.08098e-07
5.48275e-07
-3.52413e-07
7.44247e-07
-5.24292e-07
9.16255e-07
-7.17874e-07
1.0599e-06
-9.27384e-07
1.17229e-06
-1.14718e-06
1.25187e-06
-1.37183e-06
1.2982e-06
-1.59613e-06
1.31175e-06
-1.8152e-06
1.29372e-06
-2.02451e-06
1.24588e-06
-2.21991e-06
1.17043e-06
-2.39768e-06
1.0699e-06
-2.55451e-06
9.4706e-07
-2.68758e-06
8.04855e-07
-2.79447e-06
6.46378e-07
-2.87327e-06
4.74839e-07
-2.92253e-06
2.93551e-07
-2.94129e-06
1.05928e-07
-2.92907e-06
-8.45201e-08
-2.88591e-06
-2.74184e-07
-2.81239e-06
-4.59368e-07
-2.70962e-06
-6.363e-07
-2.57925e-06
-8.01166e-07
-2.42354e-06
-9.50147e-07
-2.2453e-06
-1.07949e-06
-2.04793e-06
-1.18557e-06
-1.83537e-06
-1.26502e-06
-1.61211e-06
-1.31485e-06
-1.3831e-06
-1.33255e-06
-1.15369e-06
-1.3163e-06
-9.2956e-07
-1.26514e-06
-7.16591e-07
-1.1791e-06
-5.20749e-07
-1.05944e-06
-3.47972e-07
-9.08785e-07
-2.04059e-07
-7.31296e-07
-9.45858e-08
-5.32739e-07
-2.48735e-08
-3.20532e-07
-1.04225e-07
-2.87787e-08
1.39753e-07
-1.08034e-07
4.1366e-07
-2.30767e-07
6.71008e-07
-3.90065e-07
9.03545e-07
-5.79127e-07
1.10532e-06
-7.91293e-07
1.27207e-06
-1.0201e-06
1.40109e-06
-1.25931e-06
1.49108e-06
-1.50301e-06
1.5419e-06
-1.74561e-06
1.55435e-06
-1.98194e-06
1.53005e-06
-2.20724e-06
1.47117e-06
-2.41718e-06
1.38037e-06
-2.60791e-06
1.26064e-06
-2.77606e-06
1.11521e-06
-2.91871e-06
9.47501e-07
-3.03341e-06
7.61082e-07
-3.11821e-06
5.59634e-07
-3.1716e-06
3.46946e-07
-3.19259e-06
1.26912e-07
-3.18064e-06
-9.64636e-08
-3.13576e-06
-3.19066e-07
-3.05845e-06
-5.36673e-07
-2.94979e-06
-7.44967e-07
-2.81139e-06
-9.39559e-07
-2.6455e-06
-1.11604e-06
-2.45495e-06
-1.27004e-06
-2.2432e-06
-1.39732e-06
-2.01434e-06
-1.49389e-06
-1.77304e-06
-1.55615e-06
-1.52455e-06
-1.58103e-06
-1.27463e-06
-1.56622e-06
-1.02945e-06
-1.51032e-06
-7.95482e-07
-1.41306e-06
-5.79428e-07
-1.27549e-06
-3.88037e-07
-1.10018e-06
-2.28004e-07
-8.91328e-07
-1.05856e-07
-6.54886e-07
-2.78677e-08
-3.98521e-07
-1.32093e-07
-3.16703e-08
1.71423e-07
-1.18771e-07
5.00761e-07
-2.53375e-07
8.05612e-07
-4.27632e-07
1.0778e-06
-6.33841e-07
1.31153e-06
-8.64529e-07
1.50275e-06
-1.11251e-06
1.64908e-06
-1.37097e-06
1.74954e-06
-1.63348e-06
1.8044e-06
-1.89408e-06
1.81495e-06
-2.1473e-06
1.78327e-06
-2.38817e-06
1.71204e-06
-2.61222e-06
1.60442e-06
-2.81551e-06
1.46393e-06
-2.99461e-06
1.2943e-06
-3.14655e-06
1.09945e-06
-3.26888e-06
8.83416e-07
-3.35962e-06
6.50368e-07
-3.41723e-06
4.04561e-07
-3.44068e-06
1.50361e-07
-3.4294e-06
-1.07751e-07
-3.38329e-06
-3.65167e-07
-3.30282e-06
-6.17148e-07
-3.18896e-06
-8.58831e-07
-3.04326e-06
-1.08525e-06
-2.86791e-06
-1.29139e-06
-2.66572e-06
-1.47223e-06
-2.44017e-06
-1.62287e-06
-2.19544e-06
-1.73862e-06
-1.9364e-06
-1.81519e-06
-1.66855e-06
-1.84888e-06
-1.39805e-06
-1.83672e-06
-1.13159e-06
-1.77679e-06
-8.76284e-07
-1.66836e-06
-6.39595e-07
-1.51218e-06
-4.29143e-07
-1.31063e-06
-2.52578e-07
-1.06789e-06
-1.17423e-07
-7.90042e-07
-3.09408e-08
-4.85003e-07
-1.63034e-07
-3.45916e-08
2.06015e-07
-1.29599e-07
5.95769e-07
-2.7615e-07
9.52163e-07
-4.65429e-07
1.26708e-06
-6.88817e-07
1.53491e-06
-9.38e-07
1.75194e-06
-1.20506e-06
1.91614e-06
-1.48256e-06
2.02704e-06
-1.76358e-06
2.08543e-06
-2.04179e-06
2.09316e-06
-2.31143e-06
2.05291e-06
-2.56735e-06
1.96795e-06
-2.80498e-06
1.84205e-06
-3.0203e-06
1.67926e-06
-3.20987e-06
1.48387e-06
-3.37074e-06
1.26031e-06
-3.50045e-06
1.01313e-06
-3.59702e-06
7.46937e-07
-3.65892e-06
4.66462e-07
-3.68507e-06
1.76513e-07
-3.67485e-06
-1.17971e-07
-3.62811e-06
-4.11914e-07
-3.54517e-06
-7.00084e-07
-3.42691e-06
-9.77086e-07
-3.27478e-06
-1.23738e-06
-3.09085e-06
-1.47533e-06
-2.87784e-06
-1.68524e-06
-2.63923e-06
-1.86148e-06
-2.37923e-06
-1.99862e-06
-2.10284e-06
-2.09158e-06
-1.81584e-06
-2.13588e-06
-1.52475e-06
-2.12781e-06
-1.23678e-06
-2.06475e-06
-9.59747e-07
-1.9454e-06
-7.01904e-07
-1.77003e-06
-4.71811e-07
-1.54072e-06
-2.78139e-07
-1.26157e-06
-1.29479e-07
-9.38701e-07
-3.41531e-08
-5.80329e-07
-1.97187e-07
-3.75778e-08
2.43592e-07
-1.40632e-07
6.98823e-07
-2.99294e-07
1.11082e-06
-5.03742e-07
1.47153e-06
-7.44395e-07
1.77557e-06
-1.01206e-06
2.01961e-06
-1.29807e-06
2.20214e-06
-1.59434e-06
2.32331e-06
-1.89347e-06
2.38456e-06
-2.18875e-06
2.38844e-06
-2.47417e-06
2.33834e-06
-2.74444e-06
2.23822e-06
-2.99491e-06
2.09252e-06
-3.22157e-06
1.90591e-06
-3.42097e-06
1.68327e-06
-3.59023e-06
1.42957e-06
-3.72693e-06
1.14983e-06
-3.82914e-06
8.49143e-07
-3.89533e-06
5.32653e-07
-3.92441e-06
2.05593e-07
-3.9157e-06
-1.26682e-07
-3.86895e-06
-4.58664e-07
-3.78437e-06
-7.84659e-07
-3.66269e-06
-1.09877e-06
-3.50518e-06
-1.39489e-06
-3.31374e-06
-1.66676e-06
-3.09099e-06
-1.90799e-06
-2.84028e-06
-2.11218e-06
-2.56582e-06
-2.27307e-06
-2.2727e-06
-2.3847e-06
-1.96691e-06
-2.44167e-06
-1.65533e-06
-2.43939e-06
-1.34571e-06
-2.37438e-06
-1.04654e-06
-2.24456e-06
-7.66962e-07
-2.04961e-06
-5.16529e-07
-1.79115e-06
-3.05025e-07
-1.47307e-06
-1.42208e-07
-1.10152e-06
-3.75611e-08
-6.84976e-07
-2.34748e-07
-4.0661e-08
2.84253e-07
-1.51972e-07
8.10134e-07
-3.22994e-07
1.28185e-06
-5.42828e-07
1.69136e-06
-8.00868e-07
2.03361e-06
-1.087e-06
2.30574e-06
-1.39176e-06
2.5069e-06
-1.70641e-06
2.63796e-06
-2.02307e-06
2.70122e-06
-2.33468e-06
2.70005e-06
-2.63502e-06
2.63867e-06
-2.91867e-06
2.52188e-06
-3.18098e-06
2.35483e-06
-3.41799e-06
2.14292e-06
-3.62634e-06
1.89162e-06
-3.80323e-06
1.60646e-06
-3.94636e-06
1.29296e-06
-4.05385e-06
9.5664e-07
-4.12425e-06
6.03046e-07
-4.15644e-06
2.37783e-07
-4.14969e-06
-1.33427e-07
-4.10366e-06
-5.04694e-07
-4.01841e-06
-8.69913e-07
-3.89446e-06
-1.22272e-06
-3.73286e-06
-1.55649e-06
-3.53531e-06
-1.86432e-06
-3.30417e-06
-2.13913e-06
-3.04267e-06
-2.37369e-06
-2.75489e-06
-2.56085e-06
-2.44595e-06
-2.69365e-06
-2.12198e-06
-2.76564e-06
-1.79021e-06
-2.77117e-06
-1.45889e-06
-2.7057e-06
-1.13724e-06
-2.56621e-06
-8.35313e-07
-2.35153e-06
-5.6375e-07
-2.06272e-06
-3.33555e-07
-1.70326e-06
-1.55783e-07
-1.27929e-06
-4.12184e-08
-7.9954e-07
-2.75966e-07
-4.38718e-08
3.28125e-07
-1.63719e-07
9.29981e-07
-3.47428e-07
1.46556e-06
-5.82923e-07
1.92686e-06
-8.58491e-07
2.30918e-06
-1.16303e-06
2.61028e-06
-1.48623e-06
2.8301e-06
-1.81872e-06
2.97045e-06
-2.1521e-06
3.0346e-06
-2.479e-06
3.02695e-06
-2.79305e-06
2.95272e-06
-3.08878e-06
2.81761e-06
-3.36158e-06
2.62764e-06
-3.60761e-06
2.38895e-06
-3.82368e-06
2.10769e-06
-4.00715e-06
1.78993e-06
-4.15588e-06
1.44169e-06
-4.26813e-06
1.06889e-06
-4.3425e-06
6.77416e-07
-4.37792e-06
2.732e-07
-4.37361e-06
-1.37738e-07
-4.3291e-06
-5.49198e-07
-4.24429e-06
-9.54727e-07
-4.11945e-06
-1.34756e-06
-3.95537e-06
-1.72057e-06
-3.75342e-06
-2.06628e-06
-3.51567e-06
-2.37687e-06
-3.24507e-06
-2.64429e-06
-2.94553e-06
-2.86039e-06
-2.62206e-06
-3.01711e-06
-2.28089e-06
-3.10681e-06
-1.92951e-06
-3.12255e-06
-1.57666e-06
-3.05855e-06
-1.2323e-06
-2.91057e-06
-9.07429e-07
-2.6764e-06
-6.13889e-07
-2.35626e-06
-3.64033e-07
-1.95312e-06
-1.70372e-07
-1.47295e-06
-4.51771e-08
-9.24736e-07
-3.21143e-07
-4.72418e-08
3.75367e-07
-1.75975e-07
1.05871e-06
-3.72773e-07
1.66235e-06
-6.24256e-07
2.17834e-06
-9.17492e-07
2.60241e-06
-1.2403e-06
2.93309e-06
-1.5815e-06
3.1713e-06
-1.93101e-06
3.31996e-06
-2.28e-06
3.38358e-06
-2.6208e-06
3.36776e-06
-2.94694e-06
3.27885e-06
-3.25299e-06
3.12365e-06
-3.53448e-06
2.90913e-06
-3.78777e-06
2.64224e-06
-4.00992e-06
2.32984e-06
-4.19855e-06
1.97856e-06
-4.35174e-06
1.59488e-06
-4.46794e-06
1.18509e-06
-4.54589e-06
7.55359e-07
-4.58455e-06
3.11862e-07
-4.58312e-06
-1.39165e-07
-4.54102e-06
-5.91295e-07
-4.45794e-06
-1.03782e-06
-4.33386e-06
-1.47163e-06
-4.16923e-06
-1.8852e-06
-3.96501e-06
-2.27049e-06
-3.72289e-06
-2.61899e-06
-3.44542e-06
-2.92177e-06
-3.13619e-06
-3.16962e-06
-2.80001e-06
-3.35329e-06
-2.44308e-06
-3.46374e-06
-2.07306e-06
-3.49257e-06
-1.69915e-06
-3.43246e-06
-1.33202e-06
-3.27769e-06
-9.83709e-07
-3.02472e-06
-6.67329e-07
-2.67264e-06
-3.96749e-07
-2.2237e-06
-1.86142e-07
-1.68356e-06
-4.94899e-08
-1.06139e-06
-3.70633e-07
-5.08068e-08
4.26174e-07
-1.88852e-07
1.19676e-06
-3.99225e-07
1.87273e-06
-6.67068e-07
2.44618e-06
-9.78086e-07
2.91343e-06
-1.31892e-06
3.27393e-06
-1.67744e-06
3.52981e-06
-2.04289e-06
3.68541e-06
-2.40596e-06
3.74665e-06
-2.75879e-06
3.72059e-06
-3.09488e-06
3.61494e-06
-3.40894e-06
3.43772e-06
-3.69676e-06
3.19695e-06
-3.95501e-06
2.90049e-06
-4.1811e-06
2.55593e-06
-4.373e-06
2.17047e-06
-4.52912e-06
1.751e-06
-4.64816e-06
1.30413e-06
-4.72904e-06
8.36237e-07
-4.77082e-06
3.53646e-07
-4.7727e-06
-1.3729e-07
-4.73396e-06
-6.30032e-07
-4.65406e-06
-1.11771e-06
-4.53268e-06
-1.59302e-06
-4.36981e-06
-2.04807e-06
-4.16596e-06
-2.47435e-06
-3.92226e-06
-2.86268e-06
-3.64075e-06
-3.20328e-06
-3.32455e-06
-3.48582e-06
-2.97812e-06
-3.69972e-06
-2.60746e-06
-3.8344e-06
-2.22031e-06
-3.87972e-06
-1.82622e-06
-3.82654e-06
-1.43658e-06
-3.66734e-06
-1.06447e-06
-3.39683e-06
-7.24419e-07
-3.01269e-06
-4.31991e-07
-2.51613e-06
-2.03263e-07
-1.91229e-06
-5.42122e-08
-1.21044e-06
-4.24846e-07
-5.46103e-08
4.80784e-07
-2.02488e-07
1.34464e-06
-4.27013e-07
2.09725e-06
-7.11632e-07
2.7308e-06
-1.0405e-06
3.2423e-06
-1.39897e-06
3.63239e-06
-1.77386e-06
3.90471e-06
-2.15373e-06
4.06528e-06
-2.52886e-06
4.12179e-06
-2.89127e-06
4.083e-06
-3.23453e-06
3.95821e-06
-3.55364e-06
3.75682e-06
-3.84475e-06
3.48806e-06
-4.10501e-06
3.16075e-06
-4.33229e-06
2.78321e-06
-4.52505e-06
2.36322e-06
-4.68209e-06
1.90804e-06
-4.80246e-06
1.4245e-06
-4.88535e-06
9.19125e-07
-4.92996e-06
3.98251e-07
-4.93548e-06
-1.31768e-07
-4.90111e-06
-6.64406e-07
-4.82604e-06
-1.19278e-06
-4.70958e-06
-1.70948e-06
-4.55123e-06
-2.20641e-06
-4.3509e-06
-2.67468e-06
-4.10907e-06
-3.10451e-06
-3.82708e-06
-3.48527e-06
-3.5074e-06
-3.8055e-06
-3.15395e-06
-4.05317e-06
-2.77236e-06
-4.21598e-06
-2.37026e-06
-4.28182e-06
-1.95745e-06
-4.23936e-06
-1.54595e-06
-4.07884e-06
-1.14994e-06
-3.79284e-06
-7.85485e-07
-3.37715e-06
-4.7005e-07
-2.83156e-06
-2.21915e-07
-2.16042e-06
-5.94049e-08
-1.37295e-06
-4.8425e-07
-5.87087e-08
5.39493e-07
-2.17058e-07
1.50299e-06
-4.56426e-07
2.33662e-06
-7.58285e-07
3.03266e-06
-1.10502e-06
3.58903e-06
-1.48048e-06
4.00786e-06
-1.87043e-06
4.29466e-06
-2.2627e-06
4.45754e-06
-2.64725e-06
4.50633e-06
-3.01605e-06
4.4518e-06
-3.36294e-06
4.3051e-06
-3.68332e-06
4.0772e-06
-3.97391e-06
3.77865e-06
-4.23247e-06
3.4193e-06
-4.4575e-06
3.00824e-06
-4.64805e-06
2.55377e-06
-4.80346e-06
2.06346e-06
-4.92323e-06
1.54428e-06
-5.00687e-06
1.00276e-06
-5.05376e-06
4.45148e-07
-5.06318e-06
-1.22353e-07
-5.0342e-06
-6.93387e-07
-4.96577e-06
-1.26121e-06
-4.85677e-06
-1.81848e-06
-4.70614e-06
-2.35704e-06
-4.51309e-06
-2.86773e-06
-4.27729e-06
-3.34031e-06
-3.99922e-06
-3.76334e-06
-3.68048e-06
-4.12424e-06
-3.32419e-06
-4.40946e-06
-2.9354e-06
-4.60478e-06
-2.52139e-06
-4.69582e-06
-2.09204e-06
-4.66871e-06
-1.65991e-06
-4.51097e-06
-1.24027e-06
-4.21247e-06
-8.50837e-07
-3.76659e-06
-5.11236e-07
-3.17116e-06
-2.42302e-07
-2.42936e-06
-6.5138e-08
-1.55011e-06
-5.49388e-07
-6.31774e-08
6.0267e-07
-2.32792e-07
1.6726e-06
-4.87842e-07
2.59167e-06
-8.0746e-07
3.35228e-06
-1.17195e-06
3.95352e-06
-1.56352e-06
4.39942e-06
-1.96673e-06
4.69787e-06
-2.36874e-06
4.85955e-06
-2.75925e-06
4.89684e-06
-3.13039e-06
4.82295e-06
-3.47641e-06
4.65112e-06
-3.79335e-06
4.39414e-06
-4.07869e-06
4.06399e-06
-4.33097e-06
3.67158e-06
-4.5495e-06
3.22678e-06
-4.73408e-06
2.73834e-06
-4.88471e-06
2.21408e-06
-5.00142e-06
1.661e-06
-5.08414e-06
1.08548e-06
-5.13253e-06
4.93534e-07
-5.14593e-06
-1.08946e-07
-5.12337e-06
-7.1595e-07
-5.06352e-06
-1.32106e-06
-4.96483e-06
-1.91718e-06
-4.8256e-06
-2.49627e-06
-4.64422e-06
-3.04911e-06
-4.41941e-06
-3.56512e-06
-4.15059e-06
-4.03216e-06
-3.83825e-06
-4.43658e-06
-3.48445e-06
-4.76326e-06
-3.09331e-06
-4.99591e-06
-2.67153e-06
-5.1176e-06
-2.22877e-06
-5.11147e-06
-1.77798e-06
-4.96175e-06
-1.3355e-06
-4.65496e-06
-9.20775e-07
-4.18131e-06
-5.55891e-07
-3.53605e-06
-2.6466e-07
-2.72059e-06
-7.14954e-08
-1.74328e-06
-6.20884e-07
-6.812e-08
6.7079e-07
-2.50004e-07
1.85449e-06
-5.21767e-07
2.86343e-06
-8.59723e-07
3.69024e-06
-1.24173e-06
4.33553e-06
-1.64811e-06
4.8058e-06
-2.06217e-06
5.11193e-06
-2.47042e-06
5.26779e-06
-2.86248e-06
5.2889e-06
-3.23083e-06
5.1913e-06
-3.5704e-06
4.99068e-06
-3.87809e-06
4.70184e-06
-4.15238e-06
4.33828e-06
-4.39283e-06
3.91204e-06
-4.59974e-06
3.43369e-06
-4.7738e-06
2.9124e-06
-4.91581e-06
2.35609e-06
-5.02646e-06
1.77165e-06
-5.10616e-06
1.16518e-06
-5.15492e-06
5.42289e-07
-5.17223e-06
-9.16364e-08
-5.15706e-06
-7.31118e-07
-5.10785e-06
-1.37027e-06
-5.02258e-06
-2.00245e-06
-4.89886e-06
-2.61998e-06
-4.7342e-06
-3.21378e-06
-4.5262e-06
-3.77312e-06
-4.273e-06
-4.28536e-06
-3.97372e-06
-4.73586e-06
-3.62903e-06
-5.10794e-06
-3.24179e-06
-5.38315e-06
-2.81768e-06
-5.54171e-06
-2.36585e-06
-5.5633e-06
-1.89938e-06
-5.42822e-06
-1.43553e-06
-5.11881e-06
-9.95601e-07
-4.62124e-06
-6.04414e-07
-3.92723e-06
-2.89276e-07
-3.03573e-06
-7.85823e-08
-1.95397e-06
-6.99466e-07
-7.36798e-08
7.4447e-07
-2.69121e-07
2.04993e-06
-5.58878e-07
3.15319e-06
-9.15819e-07
4.04718e-06
-1.31489e-06
4.73461e-06
-1.73427e-06
5.22518e-06
-2.15594e-06
5.5336e-06
-2.56589e-06
5.67774e-06
-2.95388e-06
5.67689e-06
-3.31302e-06
5.55044e-06
-3.63923e-06
5.31689e-06
-3.93062e-06
4.99322e-06
-4.1869e-06
4.59456e-06
-4.4089e-06
4.13405e-06
-4.59812e-06
3.62291e-06
-4.75629e-06
3.07057e-06
-4.88514e-06
2.48494e-06
-4.98613e-06
1.87263e-06
-5.06025e-06
1.2393e-06
-5.1079e-06
5.8994e-07
-5.1288e-06
-7.0743e-08
-5.1219e-06
-7.38013e-07
-5.08544e-06
-1.40673e-06
-5.01692e-06
-2.07097e-06
-4.91327e-06
-2.72363e-06
-4.77099e-06
-3.35606e-06
-4.58646e-06
-3.95764e-06
-4.35636e-06
-4.51546e-06
-4.07814e-06
-5.01408e-06
-3.7507e-06
-5.43538e-06
-3.3752e-06
-5.75866e-06
-2.95586e-06
-5.96106e-06
-2.50083e-06
-6.01834e-06
-2.02293e-06
-5.90612e-06
-1.54013e-06
-5.6016e-06
-1.07563e-06
-5.08574e-06
-6.57286e-07
-4.34558e-06
-3.16517e-07
-3.37649e-06
-8.6535e-08
-2.18395e-06
-7.86001e-07
-8.0057e-08
8.24527e-07
-2.90729e-07
2.2606e-06
-6.00086e-07
3.46255e-06
-9.76716e-07
4.42381e-06
-1.39208e-06
5.14997e-06
-1.82191e-06
5.65501e-06
-2.24688e-06
5.95858e-06
-2.65265e-06
6.08351e-06
-3.02945e-06
6.05369e-06
-3.37142e-06
5.89242e-06
-3.67588e-06
5.62134e-06
-3.94246e-06
5.2598e-06
-4.17249e-06
4.82458e-06
-4.36831e-06
4.32986e-06
-4.53277e-06
3.78737e-06
-4.66886e-06
3.20666e-06
-4.77934e-06
2.59542e-06
-4.86649e-06
1.95979e-06
-4.93199e-06
1.3048e-06
-4.9767e-06
6.34644e-07
-5.00059e-06
-4.68542e-08
-5.00269e-06
-7.35913e-07
-4.98104e-06
-1.42837e-06
-4.93276e-06
-2.11926e-06
-4.85403e-06
-2.80236e-06
-4.74038e-06
-3.46972e-06
-4.58684e-06
-4.11117e-06
-4.38844e-06
-4.71387e-06
-4.14067e-06
-5.26185e-06
-3.8403e-06
-5.73574e-06
-3.48627e-06
-6.11268e-06
-3.08075e-06
-6.36658e-06
-2.63028e-06
-6.46881e-06
-2.14687e-06
-6.38952e-06
-1.64885e-06
-6.09962e-06
-1.16119e-06
-5.57341e-06
-7.15107e-07
-4.79166e-06
-3.4686e-07
-3.74474e-06
-9.5536e-08
-2.43528e-06
-8.81537e-07
-8.7533e-08
9.1206e-07
-3.15634e-07
2.4887e-06
-6.46604e-07
3.79352e-06
-1.04364e-06
4.82085e-06
-1.47401e-06
5.58034e-06
-1.91073e-06
6.09173e-06
-2.33325e-06
6.38109e-06
-2.72723e-06
6.4775e-06
-3.08387e-06
6.41033e-06
-3.39889e-06
6.20743e-06
-3.67145e-06
5.89391e-06
-3.90321e-06
5.49156e-06
-4.0974e-06
5.01878e-06
-4.25815e-06
4.49061e-06
-4.38988e-06
3.9191e-06
-4.49692e-06
3.3137e-06
-4.58315e-06
2.68165e-06
-4.65179e-06
2.02843e-06
-4.7052e-06
1.3582e-06
-4.74475e-06
6.74196e-07
-4.77075e-06
-2.08521e-08
-4.78235e-06
-7.24314e-07
-4.77749e-06
-1.43323e-06
-4.75292e-06
-2.14383e-06
-4.7042e-06
-2.85108e-06
-4.62583e-06
-3.54808e-06
-4.51152e-06
-4.22549e-06
-4.35447e-06
-4.87092e-06
-4.148e-06
-5.46832e-06
-3.88634e-06
-5.9974e-06
-3.56565e-06
-6.43338e-06
-3.18534e-06
-6.74689e-06
-2.74955e-06
-6.90459e-06
-2.26873e-06
-6.87034e-06
-1.76092e-06
-6.60744e-06
-1.25261e-06
-6.08172e-06
-7.78646e-07
-5.26562e-06
-3.80944e-07
-4.14244e-06
-1.05836e-07
-2.71038e-06
-9.87373e-07
-9.65075e-08
1.00857e-06
-3.44946e-07
2.73714e-06
-7.00038e-07
4.14861e-06
-1.11813e-06
5.23893e-06
-1.56141e-06
6.02362e-06
-1.99999e-06
6.53031e-06
-2.41233e-06
6.79344e-06
-2.78471e-06
6.84987e-06
-3.10997e-06
6.73559e-06
-3.38608e-06
6.48354e-06
-3.61471e-06
6.12254e-06
-3.79998e-06
5.67684e-06
-3.94742e-06
5.16622e-06
-4.06316e-06
4.60635e-06
-4.15336e-06
4.0093e-06
-4.22376e-06
3.3841e-06
-4.2794e-06
2.73729e-06
-4.32443e-06
2.07346e-06
-4.36192e-06
1.3957e-06
-4.39381e-06
7.06079e-07
-4.42074e-06
6.08289e-09
-4.44207e-06
-7.0299e-07
-4.45572e-06
-1.41957e-06
-4.45819e-06
-2.14136e-06
-4.44452e-06
-2.86475e-06
-4.40833e-06
-3.58427e-06
-4.34198e-06
-4.29184e-06
-4.23686e-06
-4.97604e-06
-4.08393e-06
-5.62125e-06
-3.87448e-06
-6.20685e-06
-3.60134e-06
-6.70652e-06
-3.26035e-06
-7.08788e-06
-2.85228e-06
-7.31266e-06
-2.3849e-06
-7.33772e-06
-1.87505e-06
-7.11728e-06
-1.3502e-06
-6.60657e-06
-8.48892e-07
-5.76693e-06
-4.19647e-07
-4.57169e-06
-1.1779e-07
-3.01224e-06
-1.10516e-06
-1.07555e-07
1.11612e-06
-3.80199e-07
3.00978e-06
-7.62487e-07
4.5309e-06
-1.20195e-06
5.67839e-06
-1.65475e-06
6.47643e-06
-2.08802e-06
6.96357e-06
-2.47983e-06
7.18525e-06
-2.81794e-06
7.18799e-06
-3.09784e-06
7.01549e-06
-3.32065e-06
6.70635e-06
-3.49125e-06
6.29314e-06
-3.61676e-06
5.80235e-06
-3.70532e-06
5.25478e-06
-3.76528e-06
4.6663e-06
-3.80457e-06
4.04859e-06
-3.83036e-06
3.4099e-06
-3.84883e-06
2.75577e-06
-3.86499e-06
2.08961e-06
-3.88258e-06
1.41329e-06
-3.90406e-06
7.27557e-07
-3.93048e-06
3.24972e-08
-3.96142e-06
-6.7205e-07
-3.99493e-06
-1.38606e-06
-4.02742e-06
-2.10887e-06
-4.05357e-06
-2.8386e-06
-4.06631e-06
-3.57153e-06
-4.05683e-06
-4.30131e-06
-4.01481e-06
-5.01806e-06
-3.92877e-06
-5.70729e-06
-3.78685e-06
-6.34877e-06
-3.57795e-06
-6.91541e-06
-3.2935e-06
-7.37234e-06
-2.92965e-06
-7.67651e-06
-2.49013e-06
-7.77725e-06
-1.98916e-06
-7.61825e-06
-1.45414e-06
-7.14159e-06
-9.27118e-07
-6.29395e-06
-4.64188e-07
-5.03462e-06
-1.31911e-07
-3.34452e-06
-1.23707e-06
-1.21517e-07
1.23764e-06
-4.23521e-07
3.31179e-06
-8.3665e-07
4.94403e-06
-1.29704e-06
6.13878e-06
-1.75385e-06
6.93324e-06
-2.17152e-06
7.38125e-06
-2.52883e-06
7.54255e-06
-2.8164e-06
7.47556e-06
-3.0337e-06
7.23279e-06
-3.1861e-06
6.85875e-06
-3.28251e-06
6.38955e-06
-3.33354e-06
5.85337e-06
-3.35021e-06
5.27145e-06
-3.34314e-06
4.65923e-06
-3.32202e-06
4.02747e-06
-3.29532e-06
3.3832e-06
-3.27018e-06
2.73063e-06
-3.25234e-06
2.07177e-06
-3.24612e-06
1.40707e-06
-3.25441e-06
7.35849e-07
-3.27864e-06
5.67302e-08
-3.31872e-06
-6.31973e-07
-3.37291e-06
-1.33187e-06
-3.43775e-06
-2.04404e-06
-3.50782e-06
-2.76853e-06
-3.57567e-06
-3.50368e-06
-3.63165e-06
-4.24533e-06
-3.66397e-06
-4.98575e-06
-3.65887e-06
-5.71239e-06
-3.60126e-06
-6.40639e-06
-3.47572e-06
-7.04095e-06
-3.26836e-06
-7.5797e-06
-2.9694e-06
-7.97547e-06
-2.57666e-06
-8.16998e-06
-2.09975e-06
-8.09516e-06
-1.56426e-06
-7.67708e-06
-1.01493e-06
-6.84328e-06
-5.16285e-07
-5.53326e-06
-1.48961e-07
-3.71184e-06
-1.38603e-06
-1.39653e-07
1.37729e-06
-4.77882e-07
3.65002e-06
-9.25894e-07
5.39204e-06
-1.40514e-06
6.61802e-06
-1.857e-06
7.38511e-06
-2.24425e-06
7.76849e-06
-2.54823e-06
7.84654e-06
-2.76449e-06
7.69182e-06
-2.89821e-06
7.3665e-06
-2.9603e-06
6.92085e-06
-2.96452e-06
6.39376e-06
-2.92535e-06
5.81421e-06
-2.85681e-06
5.20291e-06
-2.77167e-06
4.57409e-06
-2.68113e-06
3.93693e-06
-2.5947e-06
3.29677e-06
-2.5202e-06
2.65613e-06
-2.46384e-06
2.01541e-06
-2.43031e-06
1.37354e-06
-2.42282e-06
7.28358e-07
-2.44312e-06
7.70303e-08
-2.49146e-06
-5.83631e-07
-2.56649e-06
-1.25684e-06
-2.66507e-06
-1.94546e-06
-2.78205e-06
-2.65154e-06
-2.91001e-06
-3.37572e-06
-3.03896e-06
-4.11638e-06
-3.15614e-06
-4.86857e-06
-3.24595e-06
-5.62257e-06
-3.29028e-06
-6.36206e-06
-3.26926e-06
-7.06197e-06
-3.16298e-06
-7.68598e-06
-2.95426e-06
-8.18418e-06
-2.63286e-06
-8.49138e-06
-2.20097e-06
-8.52706e-06
-1.67956e-06
-8.19849e-06
-1.11426e-06
-7.40858e-06
-5.78372e-07
-6.06915e-06
-1.70108e-07
-4.12011e-06
-1.55614e-06
-1.63903e-07
1.54119e-06
-5.47431e-07
4.03354e-06
-1.0342e-06
5.87881e-06
-1.527e-06
7.11082e-06
-1.95942e-06
7.81753e-06
-2.29484e-06
8.10392e-06
-2.52027e-06
8.07197e-06
-2.63902e-06
7.81057e-06
-2.66416e-06
7.39164e-06
-2.61351e-06
6.8702e-06
-2.50631e-06
6.28656e-06
-2.36111e-06
5.669e-06
-2.19468e-06
5.03649e-06
-2.02159e-06
4.401e-06
-1.85407e-06
3.76941e-06