/*--------------------------------*- C++ -*----------------------------------*\
  =========                 |
  \\      /  F ield         | OpenFOAM: The Open Source CFD Toolbox
   \\    /   O peration     | Website:  https://openfoam.org
    \\  /    A nd           | Version:  7
     \\/     M anipulation  |
\*---------------------------------------------------------------------------*/
FoamFile
{
    version     2.0;
    format      ascii;
    class       volVectorField;
    location    "0.834";
    object      U;
}
// * * * * * * * * * * * * * * * * * * * * * * * * * * * * * * * * * * * * * //

dimensions      [0 1 -1 0 0 0 0];

internalField   nonuniform List<vector> 
12359
(
(0.981056 0.000601732 -1.16854e-16)
(0.968883 -0.00124318 1.30179e-16)
(0.999965 -1.29172e-05 -1.70412e-17)
(0.938281 4.36342e-05 -1.28926e-17)
(0.976011 -0.00126512 -1.78834e-16)
(0.884669 -0.001354 -3.7945e-17)
(0.845274 0.00129318 1.30038e-16)
(0.865722 -0.000944325 1.50138e-17)
(0.804861 0.0133246 8.33117e-17)
(0.895776 0.00156188 -1.44017e-17)
(0.829955 0.0136906 2.26291e-17)
(0.739278 0.0252049 -6.08817e-17)
(0.335669 0.0503474 -1.8007e-16)
(0.927118 -0.00200777 1.11355e-17)
(0.943461 -8.09334e-05 -1.76365e-17)
(0.532496 0.0257222 8.97936e-17)
(0.455534 0.0436251 -5.67819e-17)
(0.99467 0.000195649 -1.89282e-17)
(0.994997 3.80476e-05 1.59988e-18)
(0.95472 -0.00156633 -1.09066e-16)
(0.912301 -0.0019432 1.21258e-17)
(0.767788 0.0176954 1.35535e-16)
(0.961836 -0.000916404 -3.1915e-17)
(0.949774 -0.000409773 -1.64224e-17)
(0.966212 -0.000930104 1.1276e-16)
(0.959374 -0.000368006 -7.72694e-18)
(0.998488 -9.64325e-05 -6.00434e-17)
(0.99868 -9.68261e-05 -4.88138e-17)
(0.995782 -7.16406e-05 3.83852e-17)
(0.997898 -6.86224e-06 7.23379e-18)
(0.997334 -8.07184e-05 -3.05675e-17)
(0.999486 2.12558e-05 2.93976e-17)
(0.999751 -2.23876e-05 -5.7829e-18)
(0.998188 2.4228e-05 -8.70113e-18)
(0.999909 1.76366e-05 -4.9361e-18)
(0.997128 -9.7076e-05 1.3656e-17)
(0.988898 -0.000325348 5.37001e-17)
(0.982489 -0.000366152 2.26922e-16)
(0.978669 -0.000829859 -1.18295e-16)
(0.985943 -0.000169271 1.05792e-17)
(0.971153 -0.00109077 1.82411e-16)
(0.984416 -0.000373326 -1.03994e-16)
(0.991439 -0.00017587 -1.03769e-16)
(0.992251 -0.000241033 3.64323e-17)
(0.996671 -4.65735e-05 -1.29487e-16)
(0.996329 -6.18213e-05 -3.58315e-17)
(0.996836 -0.000118089 -3.86294e-17)
(0.997486 -6.35915e-05 -1.69601e-17)
(0.995382 2.16835e-05 5.36115e-17)
(0.998358 -4.01946e-05 -5.23214e-17)
(0.998908 -7.14556e-05 -2.20111e-17)
(0.999063 -1.64688e-05 1.52093e-17)
(0.999487 -9.1314e-06 -5.90395e-17)
(0.994314 -9.24019e-05 1.21348e-16)
(0.999583 2.75081e-05 -3.10747e-17)
(0.999751 -5.70621e-06 5.65118e-18)
(0.993119 -0.00012686 5.48036e-17)
(0.99978 3.52606e-06 2.93979e-17)
(0.999789 -2.01304e-05 -6.42487e-18)
(0.999886 3.35371e-05 -9.6021e-18)
(0.99973 -4.93532e-06 2.13709e-17)
(0.999948 1.04158e-05 -2.91229e-17)
(0.99906 -2.4443e-05 -1.13531e-17)
(0.210136 0.0620037 -1.13924e-15)
(0.993678 3.52791e-06 -8.72611e-17)
(0.900886 -0.00015719 1.90257e-17)
(0.989994 0.000116046 1.01181e-17)
(0.999267 -1.21276e-05 3.42941e-17)
(0.987633 -0.000476796 4.98574e-17)
(0.626274 0.02017 1.05694e-16)
(-0.0139733 -0.0177529 7.11589e-15)
(0.973192 -0.00138061 2.1457e-16)
(0.999962 -2.11762e-05 4.04276e-17)
(0.986743 -0.000302872 8.81234e-17)
(0.945529 -0.000873225 -2.02714e-17)
(0.999896 -1.84719e-05 3.78159e-17)
(0.999384 -7.19868e-05 -2.54197e-17)
(0.999932 -1.88642e-05 2.01346e-19)
(0.989573 -0.000432937 7.73874e-18)
(0.673556 -0.0023945 -1.13617e-16)
(0.920661 0.0549932 -8.62669e-17)
(1.00378 0.00264295 -2.74599e-18)
(1.00002 -6.50627e-06 1.23587e-18)
(0.998164 0.0121076 -9.7658e-18)
(1.09742 0.154243 4.92648e-18)
(1.02185 0.000127618 -3.48152e-18)
(1.00379 0.00264043 4.4369e-18)
(1.00149 0.000107567 1.19668e-18)
(1.11022 0.0630195 3.1918e-17)
(1.08947 0.1527 -9.02105e-18)
(0.999971 0.000144982 3.14641e-17)
(0.219019 0.149583 -4.57902e-16)
(1 -7.93228e-07 -2.06266e-17)
(0.999479 0.00628193 9.37241e-18)
(0.999538 0.0106577 5.52756e-18)
(1.03627 -0.00267062 2.79528e-19)
(1.00017 0.0050762 -7.13807e-18)
(0.999414 0.00628963 -1.20131e-17)
(0.9909 0.0293774 1.34051e-17)
(0.994576 0.0188284 3.13913e-17)
(0.939574 0.0742056 1.08108e-17)
(1 2.38728e-05 7.20315e-18)
(1.02165 -0.000441415 2.66331e-18)
(1.24522 0.0856681 -4.2916e-18)
(1.00466 0.0010764 -4.80128e-18)
(1.03341 0.0224068 4.60386e-18)
(1.00024 -5.01527e-06 -2.38365e-19)
(1.09629 0.154581 2.58612e-17)
(1.01796 0.000880785 -8.57411e-18)
(1.03347 0.0209744 3.37831e-18)
(1.00006 0.00489282 6.742e-18)
(1.0036 0.00285872 -8.31656e-19)
(0.936613 0.0450038 6.98004e-17)
(0.956948 0.0734241 -3.46174e-17)
(0.999015 0.0105667 -2.00778e-17)
(1.00306 -0.000740234 -7.0076e-19)
(0.954826 0.0820024 -2.85716e-18)
(1.00456 0.00234952 2.8291e-18)
(1.1351 0.0548428 9.43568e-18)
(1 1.4988e-05 -5.31193e-19)
(1.00005 0.00481696 1.79284e-18)
(0.863071 0.025389 3.44613e-17)
(1.00166 -7.13047e-06 2.11885e-19)
(1.03893 0.00630226 -3.97103e-18)
(1.00495 0.00237539 -1.78049e-17)
(1.00335 0.000451658 -9.16746e-18)
(1.00905 0.0936277 -3.53022e-17)
(0.998254 0.0120422 1.68761e-18)
(0.999991 1.03539e-05 -3.88582e-17)
(1.00477 0.00229879 2.80395e-17)
(1.00258 -0.000257075 -2.50425e-19)
(1.05025 0.0186929 5.82155e-18)
(1.05189 0.0178857 -5.17783e-18)
(1.05075 0.0165354 -5.08243e-18)
(1.00021 5.99096e-05 1.78305e-18)
(1.03787 0.00663447 5.27033e-18)
(1.00272 -0.000233778 1.41277e-17)
(1.03751 0.0067682 7.8626e-18)
(1 8.29021e-05 1.55257e-17)
(1.00835 0.0900164 3.59124e-17)
(1 2.47395e-05 -5.09922e-18)
(0.982035 0.00256395 -2.41112e-17)
(1.03128 0.0129614 -1.18155e-18)
(1.00026 2.38768e-05 1.60019e-18)
(1.03938 0.0398526 -5.89773e-18)
(0.899739 0.0282041 -3.26529e-18)
(1.00002 1.3036e-05 -2.34342e-18)
(1.0899 0.118486 1.79733e-17)
(1.00499 0.00132266 -3.98981e-18)
(0.918782 0.0603321 1.63278e-16)
(1.04193 -0.00107038 -1.43389e-18)
(0.999999 2.75737e-05 -4.71238e-18)
(1.03132 0.0137821 -2.88745e-20)
(1.00174 0.000170519 3.15721e-18)
(1.00001 -1.31642e-06 -2.98173e-19)
(0.56225 1.31276 6.18524e-17)
(0.93508 0.0922174 -2.61929e-17)
(1.04996 0.0186248 3.04962e-18)
(1.00018 0.00542901 -4.23629e-18)
(0.999222 0.000639186 1.296e-17)
(1.0025 0.0457852 5.60398e-18)
(0.999168 0.000733189 -3.55543e-18)
(1.0397 0.00536329 6.33052e-18)
(1.0339 0.0117004 7.11652e-19)
(1.00004 3.8112e-05 2.56859e-18)
(1.00332 -4.40018e-06 -5.87926e-18)
(1.00206 0.0443696 -4.80534e-19)
(0.869763 0.0138026 -2.31815e-16)
(1.03229 0.0113897 2.78844e-18)
(1.12205 0.0571156 3.23752e-17)
(0.999984 1.44404e-05 -4.8274e-17)
(0.999981 5.08234e-05 -7.49772e-17)
(1.0331 0.00906746 5.01083e-18)
(0.972327 0.00296577 -1.18723e-16)
(1.00479 0.00112622 8.80547e-18)
(1.00571 0.0889049 5.64058e-18)
(0.996557 0.000497569 -1.35045e-16)
(0.996536 0.000883974 3.9181e-17)
(0.933965 0.0485159 5.243e-17)
(1.00499 0.0867108 -2.37805e-17)
(0.937392 0.00785591 3.78922e-16)
(1.00002 3.30521e-05 1.0116e-18)
(0.999975 2.05746e-05 -4.88685e-17)
(1.00395 0.00273631 -2.7749e-18)
(0.991418 0.0274533 1.88791e-18)
(0.834329 0.0989382 2.75367e-16)
(1.00433 0.00567129 1.03546e-17)
(1.00028 0.0107085 -1.72278e-18)
(1.03925 0.00200511 -1.77597e-20)
(1.00449 0.00601499 5.82105e-18)
(0.999558 0.01 -6.2363e-18)
(1.03618 -0.00393849 1.31836e-18)
(1.03339 0.00454322 -1.42728e-18)
(1.00187 0.000208229 1.85594e-18)
(1.03462 0.0201879 1.47063e-18)
(1.13541 0.0831565 4.70315e-18)
(1.01482 0.0122855 -9.50185e-18)
(1.00345 0.00578176 8.77917e-18)
(1.03105 0.0153429 -5.56378e-20)
(1.00448 0.00225421 9.0526e-18)
(0.895353 0.0271815 -4.02869e-17)
(1.03797 0.00246023 3.25358e-19)
(0.99341 0.0187028 7.9213e-19)
(1.0336 0.0201642 3.25164e-18)
(1.03563 0.0372635 -8.04798e-18)
(1.00001 3.53023e-05 -2.14532e-18)
(1.03695 0.0367683 -6.64462e-18)
(0.992767 0.0178454 -4.99645e-18)
(1.0414 0.0075478 -1.43772e-19)
(1.0053 0.00370091 -4.15907e-18)
(1.00001 3.40658e-05 1.18394e-18)
(1.04589 0.0142161 1.20591e-18)
(1.04548 0.0153185 1.92153e-18)
(1.05823 0.109222 -1.62321e-18)
(0.839417 0.0821624 -5.87423e-19)
(0.99997 3.67066e-05 -5.21765e-17)
(1.00395 0.00581121 -4.63338e-18)
(0.999113 0.0106143 -1.7184e-17)
(1.00408 0.005714 9.03926e-19)
(0.981307 0.00106589 -1.89886e-16)
(0.94684 0.0634119 1.23212e-17)
(1.00541 0.00364193 1.95449e-18)
(1.03862 0.00623909 -2.58118e-18)
(0.436837 0.360355 -1.77747e-16)
(1.00503 0.0023799 -2.70066e-18)
(1.00002 4.00919e-05 -6.80699e-19)
(0.982062 0.00119074 1.62505e-16)
(1.01819 0.000398017 -5.14157e-18)
(1.00173 0.0869588 1.33723e-18)
(1.00284 0.00633396 8.13065e-18)
(1.00289 0.00618576 1.51086e-17)
(1.00003 -5.88483e-06 -1.10776e-18)
(1.03897 0.0401194 -8.04048e-18)
(0.993498 0.0235832 -7.02907e-18)
(1.00083 0.0102992 7.23719e-18)
(0.99411 0.021001 4.84797e-17)
(1.00001 2.97426e-05 6.10883e-19)
(1.03212 0.015221 1.29494e-19)
(1.00047 0.0103943 -1.06759e-17)
(0.627345 0.260452 -1.10706e-16)
(1.00008 5.04061e-05 3.97774e-19)
(1.02419 -0.00233901 -2.9104e-18)
(1.00014 0.00758756 -7.44963e-18)
(0.984988 0.163762 3.32111e-19)
(1.004 0.0474275 4.99316e-18)
(1.09309 0.117708 1.4413e-17)
(0.999891 4.8032e-05 -6.19342e-17)
(1.0404 0.00647111 -1.03336e-18)
(1.00442 0.0004433 6.2291e-18)
(1.03474 0.000754468 1.97258e-19)
(1.04339 0.0125352 4.66546e-18)
(0.985566 0.000294046 1.84544e-17)
(0.996868 0.000716161 -3.91549e-18)
(1.00249 0.00639868 1.76484e-18)
(0.479589 0.455777 9.93046e-17)
(1.21761 0.133014 4.1475e-17)
(0.99999 1.6186e-05 2.44567e-18)
(1.00565 0.00299201 1.43055e-17)
(0.367222 0.316332 2.57212e-16)
(0.529658 0.00708285 -4.74503e-18)
(0.993471 0.0192168 -8.52447e-19)
(1.00253 0.0474822 6.73934e-20)
(1.00263 0.0795147 1.30837e-17)
(1.03437 0.0180784 6.61473e-18)
(0.974808 0.000420248 4.57852e-16)
(1.34807 0.3537 -9.03567e-18)
(1.11972 0.0566365 4.39472e-18)
(1.00435 0.0495691 -1.65063e-18)
(1.00512 0.0027208 -8.78729e-19)
(1.0371 0.00719307 5.768e-18)
(1.03286 0.0103586 -5.91303e-20)
(0.987902 0.0266634 2.28209e-17)
(1.03178 0.0117863 -1.13847e-18)
(1.00228 0.00670364 -5.9754e-18)
(1.00554 0.00335608 -1.89247e-18)
(1.00005 -6.65541e-06 5.32484e-19)
(1.00544 0.00320301 2.36457e-18)
(1.16023 0.0967097 2.91227e-17)
(1.00426 0.0522718 -6.29851e-18)
(1.00039 0.000160814 1.85097e-18)
(0.999997 5.29466e-05 -6.60536e-18)
(1.03482 0.0184364 9.93906e-18)
(1.00756 0.0011127 6.63339e-18)
(0.990974 0.000669821 -2.29457e-16)
(1.02464 0.000940167 9.06424e-20)
(1.00001 2.68191e-05 -5.0402e-19)
(1.00085 0.0766953 1.56331e-17)
(1.00001 1.3458e-05 -2.18477e-17)
(0.999993 -1.00973e-05 -6.89595e-18)
(0.999498 0.000105941 5.46704e-17)
(1.03938 0.00463248 -2.9654e-19)
(1.00418 0.00221518 -4.47235e-18)
(1.40787 0.440226 -6.13712e-18)
(1.00031 3.583e-05 6.47584e-18)
(1.00028 -7.59118e-05 -7.41092e-18)
(1.0215 0.00158519 9.57505e-19)
(1.0041 -0.000188657 2.58271e-18)
(0.944553 0.0684251 1.32858e-17)
(0.999471 0.00971796 4.73366e-19)
(0.998981 0.000356927 4.47603e-17)
(0.99997 4.09321e-05 -9.9798e-18)
(1.15895 0.0865584 2.66192e-17)
(1.0037 0.0796938 -6.2633e-18)
(0.999975 5.14209e-05 3.0585e-18)
(1.0036 0.00569712 6.25168e-18)
(0.999633 0.00858912 -4.30423e-18)
(1.00459 0.00118318 -4.11084e-18)
(1.00356 0.000244512 -5.35607e-18)
(1.00249 -0.000181091 -4.74347e-18)
(1.00424 0.000737049 9.42717e-18)
(0.995331 0.00130663 3.89552e-17)
(0.823636 0.0691827 7.76219e-17)
(1.00478 0.00060032 -9.5088e-18)
(0.997682 5.58991e-05 8.06279e-17)
(0.985917 0.00093957 3.71127e-16)
(1.02535 0.0269349 2.8962e-18)
(1.10368 0.0431885 -2.71435e-18)
(1.00526 -0.000338362 -5.06532e-18)
(0.989887 0.0252271 1.51511e-17)
(0.587424 0.0587338 -1.45935e-16)
(0.999996 5.34519e-07 -1.57455e-17)
(1.02746 0.0125341 -2.13483e-18)
(1.00044 4.25005e-05 -2.1455e-18)
(1.01466 0.0128269 -3.26704e-18)
(1.00027 6.76892e-06 -1.77229e-18)
(1.00566 0.000737904 2.12784e-18)
(0.801673 0.0417444 2.35057e-16)
(1.02795 0.0141752 -6.92509e-18)
(0.817873 0.0855054 -2.18549e-16)
(0.99125 0.000323034 -1.33027e-16)
(1.00074 0.00805018 -1.32941e-18)
(1.03428 -5.59359e-05 1.63034e-19)
(1.03784 0.0032334 -5.66577e-19)
(1.00059 0.00797784 -7.17573e-18)
(1.03427 -0.00105163 7.59372e-19)
(1.03432 -0.000354042 -1.56652e-18)
(1.00073 0.000132117 1.95869e-18)
(0.999582 0.000557111 -1.17744e-17)
(0.999559 0.000515616 -1.45269e-17)
(0.99955 0.000516813 -5.40987e-17)
(0.999538 0.000454085 -6.26343e-17)
(0.693254 0.277694 -1.12749e-16)
(1.00002 4.7821e-05 -2.17105e-18)
(0.940915 0.0748557 1.2882e-17)
(1.04171 0.00425144 -3.10935e-18)
(0.992972 0.0255196 -2.48206e-18)
(1.0329 0.0135143 -1.05254e-18)
(1.02799 0.0154721 -2.44782e-18)
(1.02068 0.000625075 1.96717e-18)
(1.01375 0.0122402 -1.75316e-18)
(1.02899 0.0136707 -3.53429e-18)
(1.01328 0.0125231 -7.91325e-18)
(0.991315 0.0264531 -2.67649e-17)
(1.0272 0.028164 4.65253e-18)
(1.0263 0.0320936 3.25241e-18)
(0.955695 0.0484052 -1.53158e-17)
(0.981654 0.00213717 -3.74257e-16)
(1.03307 0.0799043 -4.26566e-18)
(0.983282 0.00159888 -1.45448e-16)
(0.983044 0.00144954 -5.57839e-17)
(1.03045 0.0158116 -4.95057e-18)
(0.94077 0.0949703 -2.36109e-17)
(1.00315 0.00271966 -2.75008e-18)
(0.999627 7.82861e-05 -5.18397e-17)
(1.01617 0.0111945 2.82924e-18)
(0.999638 5.75651e-05 6.7726e-18)
(1.00333 0.00302364 -4.06167e-18)
(0.776343 0.0233809 3.47131e-17)
(0.157509 0.12189 -9.74675e-17)
(1.00326 0.00288668 -3.38327e-18)
(0.999976 -1.9998e-06 5.23748e-17)
(1.0002 -2.07278e-05 1.68823e-18)
(0.999993 3.33418e-05 -7.82419e-18)
(1.02883 0.0127921 3.39383e-18)
(1 3.10731e-05 -4.05222e-18)
(0.999995 2.15954e-05 1.05177e-18)
(1.12031 0.0676214 4.46125e-17)
(1.03341 0.0111109 -1.92694e-18)
(1.08368 0.168078 -3.76336e-17)
(1.00143 0.00318551 4.00999e-18)
(1.03541 0.013164 1.42926e-18)
(1.00746 0.000961437 7.20892e-18)
(1.00016 0.0087555 -4.87252e-18)
(1.03175 0.0286732 1.24502e-17)
(1.01647 0.0106571 -7.2403e-19)
(0.933787 0.00273788 3.12527e-16)
(1.01617 0.0100929 -1.42006e-19)
(1.00297 0.00260447 3.88007e-18)
(1.00042 5.57027e-05 -3.66491e-18)
(1.03403 0.0103003 -3.08255e-18)
(1.0358 0.0127657 -4.96909e-19)
(1.00552 0.00127572 1.34649e-17)
(0.706917 0.0247885 1.3454e-16)
(1.03148 0.0275938 3.34399e-18)
(1.03681 -0.000190985 -6.64197e-19)
(0.998439 0.0346259 6.82213e-18)
(1.00156 0.0423261 -3.38829e-17)
(0.999994 0.000120291 -3.71996e-17)
(0.383873 0.590165 -1.9714e-16)
(1.03444 0.0820374 -7.8739e-18)
(1.00132 0.00351161 8.74703e-19)
(0.97297 0.181692 -2.2373e-17)
(0.984557 0.000922841 -2.17333e-16)
(0.999974 6.8289e-05 4.48586e-18)
(1.00001 3.02961e-05 1.25714e-18)
(0.999988 5.88038e-05 -1.24414e-18)
(1.09086 0.163952 -2.5968e-17)
(0.947978 0.0948545 1.62887e-18)
(0.989029 0.028074 5.24277e-18)
(1.02849 0.0100603 -3.17886e-18)
(1.04285 0.00256001 1.89081e-18)
(0.999104 0.011762 1.12417e-18)
(0.936678 0.0078242 -1.25968e-16)
(0.998702 0.0346795 -1.35075e-17)
(1.04704 0.016252 8.82354e-18)
(1.11145 0.0445715 -5.30134e-18)
(0.711022 0.0454947 -9.29563e-17)
(0.99405 0.0252772 1.19583e-17)
(0.955701 0.054175 -1.70821e-18)
(1.01782 -0.000483491 -3.95956e-18)
(1.02563 0.0365838 5.07051e-19)
(1.01183 0.0109034 2.29813e-19)
(1.01652 0.0124475 4.32177e-18)
(0.998197 0.000219269 3.01056e-17)
(1.01224 0.0110883 -6.5067e-18)
(1.03069 0.0117844 -2.94765e-18)
(0.999989 1.59586e-05 8.89032e-18)
(0.701943 0.0012683 1.79076e-18)
(0.990513 0.00118805 2.0646e-16)
(1.05346 0.00764998 3.85874e-18)
(1.03665 0.0110273 -8.20217e-19)
(0.993734 0.00116832 -1.11096e-16)
(0.95037 0.0608863 -2.70328e-17)
(1.17332 0.249083 -6.93714e-19)
(1.02955 0.015265 2.14191e-18)
(1.00858 0.015894 5.1558e-18)
(1.04052 0.00106593 -2.68587e-18)
(1.03721 0.010741 -4.61818e-19)
(1.02854 0.0325957 -9.62072e-18)
(1.00445 0.002675 -3.03339e-19)
(1 1.26641e-05 -4.614e-18)
(0.994945 0.0692322 1.14076e-17)
(1.00028 7.48252e-05 2.9218e-18)
(1.05092 0.0194661 4.01896e-18)
(1.00257 0.000122873 8.69585e-18)
(0.967681 0.00306334 -5.98547e-17)
(0.961988 0.0400071 -2.20574e-17)
(1.01122 0.00151685 -5.79771e-18)
(1.09866 0.118752 -9.05342e-18)
(0.941693 0.0668365 4.15645e-17)
(0.994749 0.0169931 -9.0882e-18)
(1.00102 0.00386023 -4.85866e-18)
(0.585494 0.0967523 -3.90795e-16)
(1.00068 -8.19981e-05 1.49156e-18)
(1.00147 0.00304067 3.16009e-18)
(1.04272 0.0421889 8.02611e-18)
(0.999986 1.59457e-05 -1.3023e-17)
(1.00117 0.00391702 -8.67572e-18)
(1.00156 0.00274539 1.1182e-18)
(0.731759 0.224443 3.68699e-17)
(0.697132 0.45913 1.21195e-17)
(0.998492 0.0119992 6.12486e-18)
(1.00142 -0.000286876 -5.75272e-18)
(0.941246 0.0319007 -9.31752e-17)
(1.00019 0.0422356 -8.3766e-18)
(1.02807 0.0118614 4.81321e-18)
(1.03168 0.0152271 1.72935e-18)
(1.03243 0.0112493 1.49219e-18)
(1.00069 2.22186e-05 4.06685e-19)
(0.999996 4.00121e-05 6.19423e-18)
(1.00056 0.0368241 4.23115e-18)
(0.999986 8.60687e-06 -1.82901e-17)
(0.962958 0.0420438 1.30099e-17)
(1.02728 0.0113618 2.63169e-18)
(1.02602 0.0358476 -3.78426e-18)
(0.996834 0.000699526 2.14245e-17)
(0.996498 0.0674754 -1.48388e-18)
(1.04508 0.0408161 9.18207e-18)
(0.997871 6.83531e-05 -1.33884e-16)
(1.00146 0.0118005 6.36036e-18)
(1.00583 0.0014992 5.49617e-18)
(0.925893 0.0460124 -4.46613e-17)
(1.04355 0.0417049 4.4801e-18)
(0.999981 6.78372e-05 7.71063e-18)
(1.00069 0.0386785 1.81331e-17)
(1.03352 0.00777926 3.91671e-18)
(1.01596 7.28681e-05 -1.40641e-18)
(0.999432 0.0397683 -8.09252e-18)
(1.00319 0.000614601 3.36777e-18)
(0.928579 0.090998 2.02405e-17)
(1.02722 -0.000840634 -2.38615e-18)
(1.03732 0.00835168 1.83026e-20)
(1.02723 0.0328666 2.03044e-18)
(1.0008 -0.000269556 1.217e-18)
(1.00145 0.0123443 -3.3181e-18)
(1.05385 0.0610419 7.94518e-18)
(1.05289 0.0171581 1.75533e-18)
(1 2.20766e-05 1.32176e-17)
(1.01133 0.016229 3.14324e-18)
(0.987695 0.175327 2.78515e-17)
(1.03807 0.00257734 1.5563e-18)
(0.511849 0.482146 -1.06783e-16)
(1 2.87662e-05 -1.49004e-18)
(1.00245 0.000278545 -3.93875e-18)
(1.00061 0.000111243 -2.76798e-18)
(1.03185 0.0146572 -7.78525e-19)
(0.994599 0.0190377 8.28241e-18)
(0.995256 0.0137811 -1.09882e-17)
(1.00324 0.000568642 -2.72605e-18)
(0.999136 0.0369783 -3.93675e-18)
(1.01771 0.012283 -1.80526e-18)
(0.972847 0.00403514 8.92884e-17)
(1.00962 0.00109622 -6.31196e-18)
(1.08194 0.0931022 5.81023e-20)
(1.00037 -3.8208e-06 1.91127e-18)
(1.0868 0.110201 -1.05424e-17)
(1.00146 -4.8781e-05 7.71368e-18)
(0.642978 0.650942 5.72878e-17)
(1.0268 -0.00173561 -3.69815e-18)
(1.05062 0.0642376 2.82961e-18)
(0.999829 3.39169e-05 1.05156e-16)
(0.996982 0.000680279 -4.59427e-17)
(1.0258 0.027996 -8.49944e-19)
(1.00398 0.0022082 1.73641e-20)
(0.999024 0.000166835 -2.14511e-16)
(0.992181 5.40127e-05 8.90356e-17)
(0.994666 0.0204973 4.75089e-19)
(0.994282 0.0198674 -2.28397e-17)
(0.967417 0.156873 2.36739e-17)
(1.03381 0.0326366 3.87053e-18)
(1.03386 0.031913 7.79901e-18)
(1 1.36268e-05 5.4182e-18)
(1.00418 0.00207412 -8.27143e-18)
(1.0277 0.0125439 -5.95276e-19)
(1.0515 0.0170898 -5.57086e-19)
(1 5.11055e-07 2.43403e-19)
(1.00043 0.000107424 -1.29242e-18)
(1.0333 0.00952537 1.11396e-18)
(1.00074 0.00015683 -6.16338e-18)
(0.803156 0.0511727 -1.30787e-16)
(1.16884 0.248343 5.0448e-17)
(1.08531 -0.00803443 -4.73651e-19)
(1.00001 5.10217e-06 2.85686e-18)
(1.00649 0.00946659 1.74975e-18)
(1.0442 0.0123709 1.64246e-18)
(0.995364 0.0147119 1.04983e-17)
(1.0044 0.000887918 3.36586e-20)
(0.336785 0.669877 1.26217e-17)
(1.00034 5.46324e-05 2.55579e-18)
(0.931724 0.0767854 -3.46253e-17)
(0.960032 0.0483708 1.44241e-17)
(1.00715 0.00943426 9.06734e-18)
(1.00462 0.000990078 -6.09162e-18)
(0.998887 0.000187159 -2.043e-16)
(1.01052 -0.000154294 -1.75526e-18)
(1.04163 0.00390739 -2.45902e-18)
(1.01718 0.00911395 -1.26955e-18)
(0.996814 0.0117725 3.95076e-18)
(0.999995 7.06298e-06 9.15023e-19)
(0.999996 2.25354e-05 1.08528e-16)
(0.994534 0.017165 -6.16518e-18)
(0.996483 0.00143667 -8.6305e-17)
(0.992434 0.0606453 1.39055e-17)
(1.03227 0.013845 1.70222e-18)
(0.999365 1.80411e-05 1.24741e-16)
(1.00039 0.000203005 -6.99624e-19)
(1.02732 0.0298687 5.73399e-18)
(0.716076 -0.0113859 3.33579e-17)
(0.99773 0.000219533 -9.8652e-17)
(1.04669 0.015944 5.72975e-18)
(1.00017 -1.10738e-05 1.44537e-18)
(0.99619 0.0115492 -7.2857e-18)
(0.951696 0.0815304 1.5141e-17)
(1.0417 0.00106395 -8.47932e-19)
(1.0422 0.0119848 4.28167e-18)
(0.951764 0.0557662 8.71838e-18)
(1.00239 0.0191068 2.64106e-17)
(1.04154 0.00568746 -2.61762e-18)
(1.00001 4.11672e-05 3.84483e-19)
(0.999913 3.39347e-06 -1.14927e-17)
(1.04213 -0.001083 8.44231e-19)
(1.01058 0.0098335 2.33517e-18)
(1.00289 0.0198053 1.69368e-17)
(1.01081 0.0099454 5.57078e-18)
(1 4.18465e-05 5.85972e-18)
(1.00041 0.000257355 -1.3226e-18)
(1.00379 0.000315969 9.4457e-18)
(0.999173 0.0306941 -5.17508e-18)
(1.04193 0.00720613 -2.36307e-18)
(0.941549 0.0392339 -1.08269e-17)
(0.990177 0.00097533 -1.20454e-16)
(0.927727 0.0382122 2.94688e-17)
(1.03078 0.0144218 1.94044e-18)
(1.00851 0.017505 9.18988e-18)
(0.934717 0.0452459 1.00929e-16)
(0.985638 0.021617 2.24142e-17)
(1.05111 0.00624768 -7.00946e-18)
(1.03313 0.0122762 -2.53233e-18)
(0.984981 0.0211958 -1.82815e-17)
(0.993789 0.0587842 1.45428e-18)
(0.999896 8.14082e-05 -2.61727e-17)
(1.01037 0.0653408 7.61947e-18)
(1.02692 0.0271188 2.0451e-18)
(1.00002 -1.44486e-05 2.15229e-18)
(0.999993 1.75183e-05 9.69199e-18)
(1.00078 0.000182785 4.18383e-18)
(0.999752 0.000325133 -1.22051e-17)
(1.06385 0.0698644 3.4688e-18)
(1.0109 0.0171322 1.28837e-17)
(1.01342 0.000161828 -9.80728e-19)
(0.941721 0.0440286 -4.64318e-17)
(0.992425 0.000293645 -2.06246e-16)
(0.792513 0.0192678 5.60519e-19)
(1.0383 0.00263144 -4.27781e-19)
(1.04151 0.00372464 4.20748e-19)
(1.00398 0.000568528 -4.46787e-18)
(1.04978 0.0414174 2.91428e-18)
(1 4.12513e-05 -6.02894e-19)
(0.998455 0.0300369 7.75857e-18)
(1.0005 0.00378069 -2.72239e-18)
(0.93697 0.113591 -4.87858e-17)
(0.930594 0.0495021 -1.21707e-16)
(1.00212 0.0165603 -3.60768e-18)
(1.01691 0.0120232 -5.59949e-18)
(0.452136 0.633137 1.04317e-16)
(1.03106 0.012943 -9.21772e-20)
(1.04282 0.0634222 -2.58714e-18)
(1.00961 0.0125943 5.32217e-18)
(0.975314 0.145682 -1.75543e-17)
(1.15678 0.206072 3.19307e-17)
(1.00116 0.000147634 -6.01247e-18)
(0.998274 0.00342542 3.52121e-18)
(1 1.44796e-05 9.47582e-19)
(1.05886 0.065522 8.58234e-18)
(0.998439 0.00316304 -4.17323e-18)
(1.01639 0.00922482 4.23349e-18)
(1.09871 0.113918 -5.84419e-18)
(1.00035 0.000100308 -1.4622e-18)
(0.971394 0.00384731 -1.24897e-16)
(0.990532 0.0517624 -2.14186e-18)
(1.00672 0.0153282 -1.06441e-17)
(0.997433 0.000245312 1.26355e-16)
(1.00178 0.0171033 1.06142e-17)
(0.999316 0.000935702 3.14315e-17)
(0.994813 0.0157631 2.05704e-17)
(0.999347 0.00077019 7.55906e-19)
(0.999341 0.001019 4.17037e-18)
(0.995559 0.0133465 1.75148e-17)
(1.03765 0.00674429 -1.6627e-18)
(1.0352 0.0086176 2.25953e-18)
(1.00691 0.0169575 7.50973e-18)
(0.667472 0.0406807 1.33221e-16)
(1.03993 0.00421639 -6.60622e-19)
(0.273547 0.262028 -1.7085e-16)
(1.02979 0.0151052 2.47982e-18)
(1.02297 0.000348802 -4.12787e-18)
(0.994927 0.0148111 -1.22915e-17)
(1.02855 0.0148616 2.73854e-18)
(0.992368 0.026958 1.05206e-18)
(1.03671 0.00238908 7.8232e-19)
(0.542677 0.409602 -1.31187e-16)
(0.947412 0.0353792 -1.20417e-17)
(0.993001 0.0247055 -8.1427e-18)
(1.0047 0.0225497 -1.21017e-17)
(0.994983 0.00104471 5.20001e-17)
(0.996373 0.00107347 -3.41971e-17)
(1.02632 0.0297727 -3.73771e-18)
(0.999997 2.55555e-05 -9.01929e-19)
(1.05074 -0.0118626 -2.53025e-18)
(0.999462 -8.8529e-06 -2.7167e-17)
(0.948789 0.0397509 -1.60886e-17)
(0.99834 0.0753075 2.79064e-17)
(1.06186 0.0638039 6.48388e-18)
(1.0395 0.026712 -1.89613e-18)
(1.03515 0.0152022 2.31053e-18)
(0.991492 0.0505889 -1.4711e-17)
(1.00922 0.0131886 2.72146e-18)
(1.0391 0.0262358 -7.13276e-18)
(0.970924 0.0304997 -3.5778e-18)
(1.0435 0.0630858 -1.26333e-17)
(1.00797 0.021635 4.77235e-18)
(1.0449 0.040823 5.67875e-18)
(1.00518 0.0232308 -7.5908e-18)
(1.00001 2.58276e-05 -3.72759e-19)
(0.998824 0.0262026 -7.03298e-18)
(0.66055 0.0562849 -7.92917e-17)
(0.971147 0.135154 3.43939e-17)
(1.00647 0.0056252 -6.8352e-18)
(1.00005 9.03175e-06 3.63464e-19)
(0.999262 0.000199778 -9.1315e-17)
(0.99464 0.00748481 -1.49412e-17)
(0.966483 0.00326213 -4.45824e-16)
(1.03545 0.00736167 8.06434e-19)
(1.02744 0.00281131 2.89419e-18)
(1.00073 -1.66972e-05 -8.82329e-19)
(1.00496 0.0068974 9.25123e-18)
(0.9936 0.0276208 -3.74235e-18)
(1.00646 0.00554332 3.16842e-19)
(1.00891 0.00058183 7.90934e-18)
(1.04592 0.0352061 2.60847e-18)
(0.993655 0.00138866 1.01578e-19)
(0.991508 0.035124 -2.60527e-18)
(1.03694 0.0154854 -6.78666e-18)
(1.00519 0.00647095 -8.79951e-18)
(1.00818 0.00676374 -2.75879e-19)
(0.940125 0.0638151 2.64894e-17)
(1 -4.71342e-06 -2.16683e-18)
(0.993488 0.00540995 -4.15258e-18)
(1.2902 0.176579 -5.72659e-17)
(0.999878 2.96867e-05 2.23421e-16)
(1.0407 0.0388798 2.85822e-18)
(0.996846 0.0736237 2.61369e-17)
(1.00759 0.00672287 -2.52551e-18)
(0.959542 0.044355 2.00883e-17)
(1.03583 0.0154084 -9.95616e-18)
(0.998015 0.0258948 -8.68905e-18)
(1.02911 0.0345845 3.04175e-18)
(0.999676 0.00312845 -1.12298e-18)
(0.932341 0.0397225 -7.17291e-17)
(1.00546 0.000316373 -1.15353e-18)
(1.03372 -0.000223272 3.07426e-19)
(1.03554 0.0156086 6.10541e-18)
(0.93299 0.0417208 4.05574e-17)
(0.999829 0.00316517 6.42776e-18)
(1.04189 0.00497022 -4.20284e-18)
(1.05371 0.0236147 5.66243e-18)
(0.991871 0.0348277 -8.39778e-18)
(1.0059 0.0136843 3.22125e-18)
(1.00465 0.00303667 -6.27316e-18)
(1.01216 0.0640815 -2.78913e-17)
(0.789958 0.20472 5.32283e-17)
(0.995569 0.00106849 -6.92968e-17)
(0.999976 4.1857e-05 1.97507e-18)
(0.994024 0.0253394 2.97051e-18)
(0.999989 1.0684e-05 -6.46202e-19)
(1.15207 0.205189 5.39462e-17)
(1.00649 0.0226679 -7.87446e-18)
(1.03748 0.08931 -5.27195e-18)
(1.01611 0.0075448 -3.55339e-18)
(1.02921 0.00267624 2.62891e-18)
(0.253558 0.135358 -8.81891e-16)
(1.00641 0.0160785 1.79716e-18)
(1.08326 0.203275 -7.10606e-17)
(1.03467 0.00703753 2.82178e-18)
(1.00343 -0.00981233 1.05589e-17)
(1.02852 0.0124786 2.03901e-18)
(0.997204 0.0118603 8.59872e-18)
(1.00636 0.0143083 1.22189e-17)
(1.01612 0.000245535 -4.31463e-18)
(1.09432 0.0973963 3.56303e-21)
(1.08461 0.0907841 3.52802e-18)
(1.00126 -0.000167967 6.59259e-18)
(1.00161 0.000193262 4.79406e-18)
(0.929869 0.0445511 3.46531e-17)
(1.00196 -0.00033702 -7.93188e-18)
(0.693172 0.390526 -3.50298e-17)
(1.02811 0.032417 1.57205e-18)
(0.968499 0.165817 -1.43394e-17)
(1.00425 0.0030469 3.27863e-18)
(0.0740777 0.299225 -5.30861e-16)
(1.13223 0.232461 -2.6099e-19)
(1.00609 0.0224396 -1.57479e-18)
(0.999995 1.21595e-05 2.51479e-18)
(0.999919 0.00274323 -2.34615e-19)
(0.95407 0.0311037 -4.78044e-17)
(0.994308 0.00802745 -5.01042e-18)
(0.989554 0.000219572 -2.14294e-16)
(0.997203 0.00967115 6.18825e-18)
(1.03131 0.0127414 -7.84663e-18)
(0.970982 0.0301394 3.39669e-19)
(1.08294 -0.0254543 -1.31577e-17)
(0.621168 0.0388227 3.16608e-16)
(1.00077 -5.58088e-06 1.87422e-18)
(0.965662 0.0377601 -8.98621e-18)
(1.03349 0.0301096 8.75614e-18)
(0.928393 0.0583157 4.98593e-17)
(1.00447 0.0129306 -1.93775e-18)
(0.932752 0.0811672 -5.46636e-17)
(1.03747 0.00885023 9.82894e-19)
(0.952766 0.0339481 3.24714e-17)
(0.99733 0.000604857 7.18562e-17)
(1.00004 1.80151e-05 -5.22977e-18)
(1.03756 0.0243969 1.11455e-18)
(1.04061 0.0257817 5.46534e-18)
(1.02877 -0.000186739 -1.26778e-18)
(0.93152 0.038631 2.38666e-18)
(1.035 0.0877746 3.34576e-18)
(1.02357 -9.52059e-05 -1.64491e-18)
(0.997659 0.0249568 -6.74355e-18)
(1.00042 0.00398151 -8.45609e-18)
(1.0098 0.00881976 -3.32196e-18)
(0.783624 0.0328675 -1.17717e-16)
(1.00952 0.00860244 -3.31024e-18)
(1.03467 0.0215029 -1.26981e-18)
(0.982176 0.0410993 -2.43262e-17)
(1.02665 0.0100148 6.56503e-19)
(1.01221 0.000197535 9.15721e-18)
(0.996522 0.0115571 -3.61886e-18)
(1.0521 0.021684 3.80927e-18)
(1.01524 0.00716659 6.31483e-19)
(1.00539 0.0131924 -4.40911e-18)
(1.06226 -0.0258041 -3.84156e-18)
(0.990652 0.0303543 1.01645e-18)
(1.02032 0.00112378 -1.94435e-18)
(0.796386 0.331568 5.89767e-17)
(1 7.90986e-06 1.09885e-19)
(1.01574 0.0081732 -3.12515e-18)
(0.998695 0.0215297 -5.18836e-18)
(0.992322 0.00721612 7.79127e-19)
(1.00313 0.00015349 -5.20522e-18)
(0.998027 0.0241822 8.00451e-18)
(1.00001 3.25406e-06 -2.56114e-19)
(1.04434 0.109786 -2.28904e-17)
(1.00608 0.00121445 6.48261e-18)
(0.971279 0.00455948 1.17921e-16)
(1.03547 0.033716 -8.95538e-19)
(0.952453 0.0508402 -1.52304e-17)
(1.01675 0.00929125 -1.09427e-18)
(1.01623 0.00807302 -9.87343e-18)
(1.03713 0.0241811 4.21015e-18)
(1.09338 0.120752 -1.4244e-17)
(0.999863 6.04721e-05 -1.67026e-17)
(0.992898 0.000686557 -1.18552e-17)
(1.02334 0.00118457 -1.91608e-18)
(1.10332 0.197237 -5.75924e-17)
(1.04054 0.0255491 2.04569e-18)
(0.999888 0.00303394 -7.53251e-18)
(0.248473 0.118292 -8.34923e-16)
(1.00002 2.24731e-05 1.49492e-18)
(1.00496 0.00144618 4.67408e-18)
(0.71548 0.013075 7.82618e-17)
(0.994595 0.00509576 -1.07659e-18)
(0.999523 0.00339385 1.01941e-18)
(0.999485 0.00371777 8.91158e-18)
(0.983319 0.0390473 1.69196e-17)
(0.958223 0.0264675 5.99732e-17)
(0.999856 3.01205e-05 -4.61688e-17)
(0.993579 0.00629976 5.87304e-18)
(0.939537 0.0642612 3.76473e-18)
(0.997862 0.0211599 5.08118e-18)
(0.995433 0.0175772 -1.47788e-17)
(0.996424 0.00974072 -5.42458e-18)
(1.00117 6.54352e-05 2.50141e-18)
(0.957755 0.0324247 1.52098e-17)
(1.06519 0.0592249 -1.00864e-17)
(0.99516 0.0157643 3.18382e-17)
(0.933957 0.0305744 5.65336e-17)
(1.03464 0.00647753 -3.7454e-19)
(1.03694 0.00128396 1.43447e-18)
(1.0394 0.103394 -4.96136e-18)
(1.0327 0.030885 1.58262e-17)
(0.996644 0.0095085 3.40492e-18)
(1.00498 0.00160587 5.53306e-18)
(1.08624 0.103081 -7.87856e-18)
(1.03876 0.006647 4.22642e-18)
(0.976658 0.0249794 -2.82676e-18)
(1.0007 0.00397853 -5.85101e-18)
(0.999724 0.000258518 1.86973e-18)
(0.925438 0.0136085 1.31668e-16)
(1.0496 0.0422537 7.86864e-18)
(1.01437 0.00673056 -1.31259e-17)
(1.0108 0.0504575 7.24364e-19)
(1.01461 0.00744239 -1.10818e-17)
(0.996893 0.0101129 -5.75958e-18)
(1.00534 0.00460102 1.93486e-18)
(0.964757 0.033808 -2.07601e-17)
(0.832698 0.014849 -1.26585e-16)
(0.313669 0.41024 1.19245e-16)
(0.966135 0.0382105 3.56402e-17)
(0.998943 0.0182227 7.72669e-18)
(1.00535 0.00462686 4.27691e-19)
(0.969625 0.0345504 -2.20654e-18)
(0.596824 0.302721 -7.08111e-17)
(0.935105 0.0344779 5.24151e-17)
(0.99987 0.00294983 5.23289e-18)
(1.04811 0.0345054 -1.58812e-17)
(1.06076 0.0741717 -1.62082e-17)
(1.25934 0.291651 -2.1418e-17)