/*--------------------------------*- C++ -*----------------------------------*\
  =========                 |
  \\      /  F ield         | OpenFOAM: The Open Source CFD Toolbox
   \\    /   O peration     | Website:  https://openfoam.org
    \\  /    A nd           | Version:  7
     \\/     M anipulation  |
\*---------------------------------------------------------------------------*/
FoamFile
{
    version     2.0;
    format      ascii;
    class       surfaceScalarField;
    location    "0.794";
    object      phi;
}
// * * * * * * * * * * * * * * * * * * * * * * * * * * * * * * * * * * * * * //

dimensions      [0 3 -1 0 0 0 0];

internalField   nonuniform List<scalar> 
18389
(
-7.97166e-05
7.97166e-05
4.34646e-05
-4.34646e-05
-5.20445e-05
5.20445e-05
4.01623e-05
-4.01623e-05
-5.17949e-05
5.17949e-05
-4.00375e-05
4.00375e-05
-3.45808e-05
3.45808e-05
3.89872e-05
-3.89872e-05
-3.5647e-05
3.5647e-05
4.14184e-05
-4.14184e-05
4.47951e-05
-4.47951e-05
-3.46048e-05
3.46049e-05
-1.33358e-05
1.33358e-05
-4.28637e-05
4.28637e-05
4.34418e-05
-4.34418e-05
2.343e-05
-2.343e-05
1.79432e-05
-1.79432e-05
4.58869e-05
-4.58869e-05
4.59224e-05
-4.59224e-05
4.3339e-05
-4.3339e-05
-4.25156e-05
4.25156e-05
3.55773e-05
-3.55773e-05
4.29955e-05
-4.29954e-05
-5.8488e-05
5.8488e-05
-4.97252e-05
4.97252e-05
-4.17974e-05
4.17974e-05
-4.45379e-05
4.45379e-05
4.5621e-05
-4.5621e-05
4.58489e-05
-4.58489e-05
4.41348e-05
-4.41348e-05
-4.13346e-05
4.13346e-05
-6.30769e-05
6.30769e-05
4.31169e-05
-4.31169e-05
-4.47403e-05
4.47403e-05
4.08596e-05
-4.08596e-05
4.66908e-05
-4.66908e-05
-4.55558e-05
4.55558e-05
5.35787e-05
-5.35787e-05
-5.88863e-05
5.88863e-05
3.78706e-05
-3.78706e-05
4.48504e-05
-4.48504e-05
4.53896e-05
-4.53896e-05
-4.10105e-05
4.10105e-05
4.49064e-05
-4.49064e-05
4.58623e-05
-4.58623e-05
-4.58499e-05
4.58499e-05
-4.58466e-05
4.58466e-05
-4.06577e-05
4.06577e-05
-4.5878e-05
4.5878e-05
4.59342e-05
-4.59342e-05
4.59536e-05
-4.59536e-05
4.4619e-05
-4.46189e-05
3.77329e-05
-3.77329e-05
-4.57672e-05
4.57672e-05
-5.55454e-05
5.55454e-05
-4.38142e-05
4.38142e-05
4.57525e-05
-4.57525e-05
-4.59939e-05
4.59939e-05
4.32271e-05
-4.32271e-05
-5.93186e-05
5.93186e-05
-4.71469e-05
4.7147e-05
4.96058e-05
-4.96057e-05
4.57336e-05
-4.57336e-05
-9.29687e-06
9.29688e-06
4.57754e-05
-4.57754e-05
4.1401e-05
-4.1401e-05
5.12112e-05
-5.12112e-05
-4.5873e-05
4.58731e-05
4.23188e-05
-4.23188e-05
3.13804e-05
-3.13804e-05
8.67798e-07
-8.67798e-07
-4.40741e-05
4.40741e-05
3.28689e-05
-3.28689e-05
-3.65656e-05
3.65656e-05
3.97012e-05
-3.97012e-05
2.66263e-05
-2.66263e-05
2.61994e-05
-2.61994e-05
2.70486e-05
-2.70486e-05
2.4397e-05
-2.4397e-05
1.31577e-05
-1.31577e-05
0.00107624
-0.000883366
-0.000192874
0.00546667
-0.00207502
-0.00339164
-0.00594644
0.00594644
1.78239e-09
0.00335476
-0.00260054
-0.000754222
-0.00155432
0.00176561
-0.000211288
-0.00676109
0.00284149
0.00391961
0.00121462
0.00425206
0.00725527
-0.00587579
-0.00137948
0.00118471
-0.00191777
0.000733065
-0.000874459
-0.000679865
-0.00144218
-0.000314613
0.0017568
0.000138754
5.76313e-06
-0.000144517
0.000778528
-0.00222071
-0.00360319
0.000122421
0.00348076
-0.00320253
0.00289279
0.000309744
-0.00572441
0.0072617
-0.00153729
-0.0037091
0.00289736
0.000811732
-0.000563967
-0.00303923
-0.00174924
0.00238992
-0.000640675
-0.000464164
0.00255884
-0.00209467
-0.00160746
0.00111053
0.000496935
0.000583529
0.00058183
-0.00159551
-0.00516558
0.00126099
-0.00180843
0.000547444
0.0057807
-0.00386184
-0.00191885
-0.000663775
0.00331199
-0.00264822
-0.00583467
0.00583515
0.000471603
0.00129401
-0.00633062
0.000976084
0.00535454
0.00232347
-0.00298725
-0.00378987
0.00311399
0.000675881
0.00214864
-0.00422366
0.00108672
-0.000201984
-0.000884738
0.00150601
-0.00129026
-0.000215752
-0.00280261
-0.000399916
0.00535073
-0.00535064
0.00037165
0.00113436
0.00522844
-0.00133637
-0.00389207
0.00200141
-0.000816696
0.00308569
0.00190869
-0.00499437
-0.000721429
-0.00306845
-8.84017e-05
-0.000155252
0.000243654
0.00393601
0.00331925
0.00116374
-0.00488876
0.00372501
0.0016267
0.00360174
-0.00498266
0.0063214
-0.00133875
-0.00113638
-0.000593943
0.00173032
0.00133843
0.00201632
0.000135293
0.000103625
-0.000238919
0.00502239
-0.00339569
0.00645784
-0.000840244
-0.0056176
0.00321635
-0.00265948
-0.000556871
0.00221808
0.000451416
-0.0026695
0.00295133
-0.000733247
0.00650348
-0.00539838
-0.00110509
0.00050129
-0.00386461
0.00336332
6.87416e-05
0.0063891
0.00480216
-0.00430087
-0.000535788
0.00105939
-0.000523599
-0.00176105
0.000624666
0.00191708
0.00224908
-0.00416615
0.000253447
-0.000333598
8.01513e-05
-0.00126369
-0.00284781
0.00411149
-2.6438e-05
0.00652992
-0.00281627
0.00229662
0.000519659
0.000389341
-1.21115e-05
-0.00037723
-0.00569232
-0.000254121
0.00188001
-0.0014084
0.000828222
0.00495248
0.000892519
0.000183725
0.00265999
-0.0064716
0.00381161
-0.0011202
0.000584418
0.00263988
-0.00390357
0.00619695
-0.00226092
0.0010921
0.00117728
-0.000789808
0.0010284
-0.000238587
-0.0011102
-0.000497265
0.00188814
0.0013282
-0.000595106
0.00142979
-0.0012375
-0.000192288
-0.0026543
0.00198939
0.00066491
0.00116686
0.000262931
0.00113295
-0.00497289
0.00383993
-0.00475824
0.0014168
0.00334143
-0.00455432
0.00611803
-0.00156372
-0.00506306
8.04096e-05
-0.00201929
-0.00063501
-0.000215057
0.000126656
-0.00122385
0.00464807
-0.00342423
-0.00121483
-0.000702946
0.000103307
-0.000192023
8.87166e-05
0.000126286
-2.29794e-05
-0.00125921
0.00463769
-0.00337848
-0.000156172
2.44909e-05
0.000131681
-0.00556835
0.00170652
-0.00119597
-0.000565076
-0.000449439
-1.89016e-05
0.00046834
-0.000543249
9.38084e-05
0.00101068
7.6042e-05
-0.00181173
0.00061576
-0.000150251
1.72562e-05
0.000132995
0.00136799
-0.00234447
0.000976482
0.000271105
-0.000135811
-0.00392647
0.0051411
-0.00245723
0.000707989
-8.62133e-05
-0.000425281
0.000511495
0.00568625
-0.00216954
-0.00351671
7.81737e-05
0.00250658
-0.00258475
0.00445671
-0.00560963
0.00115292
0.00263488
0.00305137
0.00291387
-0.0028357
-0.00613878
0.000414373
-0.00645196
0.00362019
0.00283178
0.00229328
0.00390367
-0.00439037
0.00137769
0.00301267
0.00150635
-0.000245368
-0.00102486
0.00401998
-0.00299512
0.00463886
-0.00162537
-0.00301349
-0.00460482
0.00374928
0.000855547
0.00369407
-0.00503045
5.85802e-05
0.000330761
-0.00138467
0.00584139
-9.24181e-05
0.00214977
-0.00205735
-0.00206689
0.00261031
0.000170579
-0.00278088
-0.00127742
0.0026454
-0.0006468
0.0032571
0.00164158
-0.00173399
0.000905118
0.00397172
-0.00487685
-0.0050418
0.00384341
0.00119839
0.00255188
-0.00359409
0.00104222
-0.0033261
0.00411688
-0.000790773
0.000344366
-0.00367047
-0.000889903
0.000889903
-0.000447721
0.000361508
-0.000126964
-0.000973467
0.00110043
0.00507025
-0.00184245
-0.00322779
-0.00243324
-0.000369374
0.00290071
0.000157893
1.65073e-05
-0.0001744
-0.00147009
0.00112664
0.000343441
-0.000141711
-0.00490009
0.00505347
-0.00388973
0.000225964
-8.72096e-05
0.0044446
0.000577792
0.00406759
-0.0015157
0.000164984
-7.09146e-06
-0.00633261
-0.000987666
-0.000824063
0.00430053
-0.0019038
-0.00239673
0.00275695
0.00154358
0.00107766
-0.00563198
-0.00226176
-0.000554514
-0.00112093
-0.000957932
0.00207886
4.16018e-05
-0.00272344
0.00268183
-0.00235911
0.00123819
-0.00221809
0.00530378
-0.00461913
0.0016013
0.00301783
0.00254818
0.000663564
-0.000329735
-0.000333829
-0.00601516
0.000582869
0.00543229
-0.00419592
0.00583049
-0.00163457
0.00182556
0.00162963
-0.0034552
-0.00167437
0.000897968
0.000776399
-0.00271511
0.00207951
0.000635601
0.00110413
0.000775873
0.000247201
-0.000328942
8.17425e-05
0.00489972
-0.0039946
-0.00638591
0.00557604
0.000809867
-0.00477935
-0.00167261
0.00334648
0.000639598
-0.00398607
0.000153974
-0.000162163
8.18922e-06
0.000590445
-0.000125293
-0.000465152
-0.00451894
0.00261514
0.000372021
-0.000572726
0.000200705
5.34165e-05
-0.000943321
-0.00257575
0.00448444
-0.00530557
-0.000322592
0.00562816
0.000186505
0.000207084
-0.000393588
0.000837159
-0.000837159
0.00168561
-0.000725717
-0.00211213
0.00181285
0.000299283
0.00440095
-0.00302327
-0.000162432
6.26029e-06
-0.00120771
0.00126112
0.000694924
0.00130648
0.00234867
-0.000269157
-0.00401977
-0.00128578
0.00111785
-0.00498247
0.00321252
-0.00447173
0.00083517
-0.00213566
0.00130049
0.00335969
-0.00458355
-0.00271143
-0.00180751
-0.00483709
0.00469537
-0.000676347
-0.0053388
-0.00515968
0.00149707
-0.00147037
-2.67011e-05
0.0022344
0.000114266
-0.00601414
0.00204862
0.00396552
-0.00121933
0.000525999
0.000693327
0.00145265
0.00294831
-0.00462577
-0.00101488
0.00564066
-0.00021283
0.000138531
7.42984e-05
-0.00551788
0.00132196
0.0037531
-0.00493691
0.00118382
-0.00149592
-0.00061621
-0.000536678
-0.000637498
0.00013836
-0.000203836
6.54746e-05
0.00499327
-0.00386032
-0.00130022
0.00512555
-0.00382534
-0.000420679
-0.000787029
-0.0058611
0.000439561
0.00539559
-0.0061652
0.00456968
-0.000921387
-0.00546453
-0.00109324
-0.00037684
-0.00181742
0.00285742
-0.00104
-0.000419163
0.000322034
9.71289e-05
-0.00173205
0.00141743
0.00161006
-0.000112992
0.000825179
-3.67408e-05
-0.00169531
0.0027964
0.00121764
-0.00303507
0.00605185
-0.000475809
0.00528025
7.0477e-05
-0.0052819
0.00439151
0.00114336
-0.00553488
0.000556465
-0.000768762
0.000212298
-3.97843e-05
-0.000407936
-1.44579e-05
0.00606631
-0.000162183
0.000156827
5.35601e-06
0.000133363
2.06109e-05
0.00253932
-0.00335788
0.000818564
-0.00191398
0.000714737
0.00119924
0.00792619
-0.00345545
-0.00447073
0.00117024
0.00126501
-0.00243526
0.000108539
-0.000175143
6.66044e-05
-0.000805883
0.00133188
0.0011612
0.00318266
-0.00434386
-0.00561391
0.000165823
0.00544808
-0.00401968
0.00299483
0.00173493
0.00479499
0.00458719
0.00333898
-2.13702e-05
0.000190885
-0.000169515
-0.0013058
0.00439588
-0.00309007
0.000299883
-0.000339667
-0.000131346
-8.14832e-05
0.00410133
-0.00227578
0.00475602
-0.00501285
0.000256831
-0.00323611
0.00607628
-0.00284017
0.00252748
0.00157385
0.00575426
-0.000998237
-0.00139266
-0.00562103
0.0013726
0.00424843
0.000654817
0.000520568
-0.00117538
0.0012696
-0.000614785
0.000585518
-0.00111029
0.000524772
0.00110609
0.000277926
0.000385638
-0.000678256
0.00443135
0.00151848
-0.000391841
0.00353445
-0.00612531
0.00259087
0.00153431
-0.0025851
0.00105079
-0.00432054
0.00116416
0.00315638
0.00291549
-0.00422129
-0.0049127
-0.0012525
-0.00409972
0.00126747
0.00283225
0.00124753
0.00314834
-0.00326514
-0.000834586
0.0022266
-0.00105637
-0.000680142
-0.00253196
0.0032121
0.00240832
0.000617055
-0.00302537
-0.00158864
0.00120041
0.000388226
0.000269954
0.00149005
-0.00196612
0.000476075
-0.00011089
-0.000222708
-0.00026446
0.00015357
-0.00435402
-0.0002508
-0.000293455
0.00117366
-0.000880208
0.00435177
-0.00464536
0.000293591
-8.84237e-05
0.00011777
-2.93462e-05
0.000972975
0.00338179
-0.00435476
-0.000157005
6.85811e-05
-0.0047521
0.000710568
0.00404154
-0.000747405
0.000131664
0.000615738
8.5653e-05
-7.98898e-05
-0.000400321
0.000864674
-0.000347469
-0.000517206
-0.00603568
0.0006373
-0.00254968
-0.000128173
0.00267784
-0.00316973
0.00441725
0.00218083
-0.00108873
-0.00116719
-0.00117997
-3.48522e-05
-0.00352024
-0.001238
0.00151009
-0.000406422
-0.00110367
0.00191933
0.00183839
-0.00375772
0.00504517
-0.00161336
-0.00343181
0.000793353
-0.00541912
-0.00137392
0.00300355
0.00195892
0.000783104
-0.00274202
-0.00349924
0.00447222
-0.000152952
2.70127e-06
0.000934791
-0.00443403
-0.00449752
-0.000147853
-0.000997753
-0.00461615
0.00462932
0.00148885
0.00355632
0.00416119
0.0011413
-0.00530249
3.60164e-05
5.9286e-05
-9.53024e-05
-0.00140844
0.00336736
0.00370782
0.00355387
-0.001401
0.00237121
-0.0009702
-0.00248207
0.000462782
-0.00087841
0.000751445
-0.000215983
0.000402488
-0.000212057
0.00170211
0.00376383
-0.00184449
-0.00106984
-0.000604533
-0.000107225
-0.000157235
0.00355045
-0.00163336
-0.00240372
0.0046528
0.00067449
-0.00309588
0.0024214
0.000635634
0.000763327
-0.00105678
0.00210018
-0.00131241
-0.00327583
0.00458824
-0.002156
0.00481599
-0.000552197
0.00344498
0.000239377
-0.000222121
-0.00236316
0.000962171
0.00231902
-0.00386778
0.00154877
-0.00121905
5.74634e-05
-2.14471e-05
0.00214742
-0.0027972
0.000649782
-0.00116855
-0.00042009
-0.00352502
0.00450111
0.00119369
0.00167584
-0.00286953
-0.00169096
0.00366471
-0.00197375
0.00424094
-0.000859158
0.000234353
1.41092e-05
-0.000248462
-0.00372319
0.00203223
-0.00142803
0.00471823
-0.0032902
0.000878003
0.00130283
0.000165705
0.000671453
0.000253064
-0.000300752
4.76882e-05
0.00169482
0.00020959
-0.00190441
0.00302025
-0.00459017
0.00156993
-5.28507e-05
0.000374291
-0.00032144
0.00156235
-0.000361944
0.00140388
-0.000602026
-0.000801856
0.00282363
-0.00392613
0.00110249
0.00268011
-0.0037426
0.00106249
-0.0051668
0.00193069
0.00390264
-0.000882389
-0.00063393
-0.00237694
0.00301087
0.00140744
-0.0051178
0.00371036
0.00336053
-0.00145893
-0.00190161
-0.000682955
0.00172589
-0.00104294
0.00477139
-0.00303646
-0.000698589
-0.00196088
-0.00598209
0.00514185
3.93324e-06
0.000121759
-0.000125692
-0.00157789
0.00120014
0.000377754
-0.00491127
0.00631126
-0.0014
-0.00188604
0.000714378
0.00117167
0.000408289
0.00268647
-0.00208814
-0.000598338
0.00343508
0.000489693
-0.00392478
0.000129162
-2.06225e-05
0.00517231
0.000336438
-0.00550874
-0.00194101
0.00379775
-0.00185675
0.00276941
-0.000638582
-0.00213083
0.000462546
0.000402129
-0.000437472
0.00387255
0.00202579
-0.0039668
0.000702743
-0.000266893
-0.000435848
-0.000651985
1.32172e-05
0.000638769
-0.00315274
-0.00576529
0.00576508
-0.000274323
0.00095096
-0.000676638
-0.00228898
-0.000193092
-0.00455309
0.00324067
-0.00086986
0.00112784
0.00360834
-0.00501935
0.00141101
0.000410676
-0.00296034
0.00233166
-0.00244096
0.000109284
-0.00157143
0.00148228
8.91475e-05
-0.00121043
-0.000367468
-0.00339189
0.00342863
-0.00223494
0.00045727
0.000133174
-0.00173549
0.00105254
-0.00279429
0.000743044
0.00205124
0.000242366
-8.01267e-06
-0.00347741
0.00102253
0.00245488
-0.00144418
0.00560536
0.000339134
-0.000955095
0.000615962
0.00212071
0.000648691
-0.00127775
0.000304281
0.00111404
0.00121762
-0.00142574
0.00495597
-0.00353023
-0.00484731
0.0057657
-0.000918396
-0.00117493
0.00228417
0.00410493
0.00107513
3.53999e-05
0.00586349
-0.00551725
-0.000346242
0.00355265
-0.00465901
0.00110637
0.00309218
-0.00068386
0.00542685
-0.00181851
-0.00250362
-0.000973792
-0.00217779
-0.000316527
0.00249432
0.00241327
-0.00196186
-0.00160817
-0.00424195
0.00274809
0.00149386
-0.000329374
0.00122734
0.00121197
0.00365553
-0.00486749
-0.000308349
0.00068037
0.00305956
-0.00238507
-0.0047247
-0.00125739
0.00647082
-0.00129851
0.00424118
0.00206199
0.000496852
0.00285476
-0.00212576
-0.000728998
0.00473646
-0.00245229
-6.97582e-05
-0.00332812
-0.000866912
0.00419503
0.000388159
-8.65438e-05
-0.000301615
-0.00514335
0.00610759
-0.000964232
-0.000730692
0.00190687
-0.00117618
-0.000697161
0.00525255
-0.0045554
0.00118512
-0.00191581
-0.000113317
-0.00576247
-0.000789809
0.00202664
0.00383685
-0.000250661
-0.00192713
0.000251403
-4.20183e-06
0.000362564
-0.000487856
0.00336141
-0.000822097
-0.00522669
-0.000271604
-0.000147559
0.000150199
-0.000133585
-1.66137e-05
-0.00248386
0.000124735
-0.000421865
0.00159071
-0.00101639
-0.000574311
0.00246714
0.00059798
-0.00306513
-0.000718062
0.0031852
-0.00520293
-0.000271504
0.00547443
0.0037507
0.00137485
0.0044096
-0.00122693
-0.000130859
0.00254413
0.00540385
-0.000206667
-0.00519719
-0.00608731
0.00425257
0.00183475
0.00321195
-0.00126803
-0.004353
0.000203067
-0.000224437
0.00058083
0.00082305
0.00111564
0.000142708
-0.00125834
0.00421231
0.00119154
-0.000960869
0.00317213
-0.00221127
0.00473268
-0.0013862
-0.00217919
0.002793
-0.000613802
-0.00117685
-0.000105388
0.000301953
-0.000196564
0.00344635
-0.00414351
0.00134851
-0.000989811
-0.000358697
0.00159694
-0.000396794
-0.0032512
0.00229033
0.0054876
-0.00434424
-3.06342e-05
0.000352669
-0.00535746
0.000446178
0.00544351
-0.00190907
-0.00100096
-0.00361483
0.0046158
-0.000646137
0.0028833
-0.00223716
0.00549726
-0.00286246
-0.00263481
-8.83979e-05
0.000591803
-0.000677115
0.000660547
1.65676e-05
-0.000692569
0.00173185
-0.00103928
-0.00314913
-0.00117141
0.000155565
-1.72041e-05
-0.00122485
-0.00478929
-0.00307649
0.00239634
-0.000596556
-0.000240601
-7.26185e-05
-8.9564e-05
-0.00121243
-0.000805617
-0.00523007
-0.00283828
0.00219214
-0.000817283
0.00118893
0.00113074
0.00437551
-0.00550624
0.00339422
-0.00275463
0.00046911
0.000773531
-0.00288477
0.00211124
0.00498613
-0.00493475
-5.13799e-05
-0.0032095
0.00361558
-0.000406071
0.000207793
-9.56081e-05
-0.000112186
-0.00498866
-0.00148295
-0.00175914
0.00369088
-0.00193173
0.00298204
-0.00220851
-0.00378412
0.00202498
0.00139503
-0.00258175
0.00118671
-0.00363276
0.00568139
0.00649883
-0.00219595
-0.00430288
-0.00240034
0.00237497
2.53813e-05
0.00560966
-0.00163794
0.00118499
-0.000923201
-0.000261787
-9.10786e-06
0.000262172
0.000250161
-0.000774867
0.000524706
-0.00304801
0.00365096
-0.00097085
0.000847142
-0.00104913
0.00236331
-0.000632704
-0.0017306
0.00219899
-0.000504171
0.00452385
0.000630799
0.00173251
-0.00175647
0.00106391
0.000408597
-0.000464694
5.6097e-05
0.00221327
-0.00174373
-0.000469545
0.000829454
-0.00514779
-0.000544534
0.000369492
-0.000588347
0.000218855
-0.00410126
0.00547387
0.000942164
-0.00111664
0.000174478
-0.00152994
0.00216602
-0.000636074
-0.00149
-0.00275195
-0.00537801
-0.000159398
0.00553742
0.000300251
0.000108297
4.1902e-05
0.000127475
-0.000127405
-6.99254e-08
0.00411513
-0.00290317
-0.00380133
-0.00232397
0.00346572
0.00303311
-0.00259384
0.000725924
0.00186791
-0.000844665
0.00223969
-0.00229781
-0.000102539
0.0027293
-0.00377738
0.00104808
0.0013097
-0.000136033
0.000460519
0.00055016
-0.00327835
0.00096428
0.00231407
0.000912819
-0.000600391
-5.1595e-05
-0.00427583
0.00172227
0.000104893
-0.00182716
-0.0039654
0.00146414
0.00250126
0.000520869
0.00147181
-0.000890981
-0.000246315
-0.00466022
0.00490654
0.000784353
-0.00247676
0.00169241
0.00120221
0.00131231
-0.00046668
-0.00171949
0.00218617
0.00258007
-0.00179572
0.00446958
-0.00353479
-0.000781909
-0.00264097
-0.000227259
0.00025175
-0.000702915
0.00176327
-0.00106036
0.00266037
-0.00366678
0.0010064
0.000136433
2.03943e-05
-0.00236367
-0.000914692
0.00142122
-0.00163642
0.000215196
-0.00277476
0.000686632
0.00127626
-0.00141877
0.000142515
0.00161854
-0.00180789
0.000189346
0.000675571
-0.00372653
-0.00116222
0.00134715
-0.00489821
0.00355106
-0.000913865
0.00357423
0.000118434
-7.91934e-05
-3.92408e-05
0.00474929
-0.00361855
-0.000321371
-0.00153039
-0.00402002
-0.00149786
0.0020927
0.000700289
-0.00101064
-0.000922921
-0.00451968
-0.0016191
-0.000365642
0.00124208
-0.000930616
-0.00031146
-0.00149635
-0.00108876
0.00065629
0.00225786
-0.00291415
-0.00011428
0.000670744
-0.000715944
3.88295e-05
-0.00245943
0.00196648
0.00139405
-0.000701665
0.00161717
-0.000915509
-8.68735e-05
-0.000116962
0.000318876
-0.00194613
0.000450215
0.00160948
-0.00231041
0.000700922
-0.00334268
0.00258369
0.000758979
0.00119907
0.00241369
-0.00361275
-0.00175333
0.00105041
-0.00294174
-0.00102366
-0.000790834
-0.00255185
-0.00167728
0.00125315
0.000424131
0.00176635
-4.40812e-05
-0.000762278
-0.00243506
0.00319733
-0.000673571
0.00291426
-0.00225797
-0.000858536
-0.00394759
0.00480614
-0.00234341
0.00233999
3.41917e-06
-0.000747405
-0.0015607
0.000544308
-0.00240633
0.00381995
-0.00141363
0.00323289
0.00288515
0.000194376
3.62333e-05
-0.00023061
0.0023403
-0.000602511
-0.00173779
0.000188045
-0.000184111
-0.00359042
0.00493756
-0.0032869
0.00524108
-0.00195418
-0.0035098
-0.00150955
-0.000914854
0.00323242
-0.00231757
0.00285542
0.00177438
-0.00418072
-0.00499787
-0.000145478
-0.000789429
0.00284841
-0.00205898
-0.000431691
0.00037884
-0.000530776
0.00167586
-0.00114509
-0.00403242
0.0033423
0.000690121
-0.00326954
0.00235468
-0.00386911
0.000674361
0.00319474
0.00141269
-0.00101425
-0.000398434
-0.00589958
0.00069665
0.0018467
-0.00141099
-0.000435699
0.00141614
-0.000414668
-0.00100147
7.83764e-05
0.000129417
0.00293185
-0.000635233
-0.000220238
-0.00348815
-0.000380965
0.000428393
-0.00305431
-0.000978115
-0.00233725
-6.14889e-06
-0.00292542
0.00229149
0.000720435
0.00260199
-0.00332243
0.000585518
-0.000859841
0.00140977
-0.00671831
0.00530854
-0.00577132
0.000991966
-0.00234076
0.00353983
0.000692584
0.000258377
-0.00273313
0.00345356
-9.35496e-05
0.00507968
0.00061408
0.00170598
-0.00232007
-0.00177637
0.00124559
0.00274764
-0.00369578
0.000948136
0.00510151
0.000669127
0.00154414
0.000313592
0.000389149
-0.000364007
-0.000404755
0.00018098
-0.0017464
0.00176686
-0.000888854
0.000863226
0.000608579
-0.000583591
0.00301053
-0.00242694
-0.00150262
0.00184262
-0.000340006
-0.00489535
0.0038035
0.00109185
-0.00479796
0.00151106
-4.04364e-05
4.00204e-05
4.16034e-07
-0.00281109
-0.000855681
0.00108559
-0.00129279
0.000207199
0.00135622
-0.00494664
0.00108918
2.64531e-05
0.00123986
0.000694989
0.00218831
-0.0036675
0.000856412
0.000190108
-0.00503742
0.0018995
0.00121921
0.000687664
-0.00527335
-0.000491945
0.00565177
0.00118628
0.00710734
-0.00218373
-0.00492361
0.000784992
-0.000373117
-0.000411876
0.000715236
-0.0013838
0.000779265
-0.00386135
-0.00125645
0.000301952
-0.000940797
-0.000413401
0.0013542
0.00233067
0.00400853
-0.00486706
0.0027029
0.000834363
-0.00353727
0.00124876
-0.000964613
-0.000284148
0.000745041
0.00159526
-0.000135079
0.000138315
-3.23681e-06
-0.000709322
0.00288371
-0.00217439
0.00362117
0.00109706
-0.00126278
-0.0004145
0.00140396
-0.00155755
0.000153587
4.65221e-05
7.19122e-05
-0.00447727
0.000967467
-0.00165465
0.000444221
-0.00364859
0.00293052
-0.000949294
6.59267e-05
0.000934602
0.00268048
-0.00361508
0.000851246
-0.00126727
0.00418985
-0.00292258
0.000318143
0.00027989
4.65722e-05
-0.000326463
7.83611e-05
-0.00539159
0.00531322
-0.00263369
-0.00077929
0.00341298
-0.00349174
0.00260983
0.00088191
-0.00277132
-0.000262511
-0.00171467
-0.00491204
0.000892016
-0.00145536
-0.000881898
-0.0010632
0.0037925
0.00170953
-0.0037265
0.00201697
0.000105348
2.21269e-05
0.00372652
-0.00201699
0.00286393
0.00095681
-0.00382073
-0.00130328
0.00174204
-0.00043876
0.00357424
0.00109988
-0.00467412
0.00718758
-0.0019734
-0.00521418
-0.00212737
-0.000710907
-0.00173154
0.00234561
0.0037733
-0.00492754
0.00115423
-0.00280279
0.00373739
0.00113914
-1.38669e-05
-0.00112527
0.00148197
0.000907944
-0.00550729
0.000594582
0.000430004
0.000354987
0.00292152
-0.00112205
-0.00252155
0.00248043
4.11228e-05
0.00050472
-0.00184062
0.00133589
-0.00387183
-0.00119124
0.00108978
-0.00254514
-0.00529911
0.000151326
-0.00124994
-0.000526328
0.00177627
0.00563484
-0.00449354
0.000104373
0.000283786
-0.00301793
0.00318851
0.00144124
-0.00107274
-0.000368504
0.00346862
0.0047584
-0.000954903
0.000641933
-0.00327562
0.00111879
-0.000987126
-5.28847e-05
0.000461481
0.000394023
-1.97328e-05
-0.00207054
-0.000454833
0.00154042
-0.000908052
-0.00349763
0.000764515
-2.76796e-05
-1.27569e-05
0.00599847
-0.00492079
0.00522216
-0.00439393
1.0895e-05
-0.000615738
0.000604843
0.00194901
-0.000458395
-0.00149061
0.00335885
-0.000756854
-0.00256817
0.00336102
-0.000792856
-0.00183289
0.000529616
0.00127913
-0.000952985
-0.000326144
-0.000118768
-0.000210174
0.00205924
-0.00054816
-0.00151108
-0.00138165
-0.00239406
-0.000127487
0.00208982
-0.00274536
0.00065554
0.00280636
-0.000750532
-0.00205583
0.00410323
-0.00434954
0.000314517
0.00224031
-0.000630829
-0.00068207
0.000835679
-0.0036758
0.00503201
0.00123457
0.000467947
-0.00171788
-0.00286548
0.00209704
0.00363334
0.00158881
-0.00113994
-0.00383161
-0.00114128
0.00130406
-0.00171773
0.00041367
0.00367565
-0.00318597
-0.000193823
0.00113599
-3.85973e-05
-0.000269503
0.000308101
-0.000695633
-0.00189821
0.00377201
-0.0049084
0.00113639
-0.00186327
0.00235108
-0.00048782
-0.00115553
0.00213273
0.000750978
-0.0022636
0.00375516
-0.00149157
0.00150681
-0.0011427
-0.000364106
-0.00103497
0.000287566
0.000214555
-0.000440513
0.000225958
-0.000427437
-0.00122721
-0.00247939
0.00250485
-2.54608e-05
0.00144749
-0.00371109
0.00162325
-0.000370097
0.000369618
-0.00043515
6.55318e-05
-0.000827114
0.000594908
0.000232206
-0.000794735
-0.00284897
0.000828131
0.00202085
-0.00199662
-0.000848899
-0.000729438
0.00157833
-0.00524264
0.00389503
0.0013476
-0.00126599
0.00127688
-0.000576403
-0.000115912
0.000692315
0.00286857
-0.000735845
-0.000770356
-0.000160203
0.000930559
0.00184144
-0.0013735
0.00169843
-0.000394372
-0.000147202
-0.000637725
-0.00420532
0.00484305
-0.00139563
0.00283108
0.00427626
-0.00239907
-8.0314e-05
0.00312218
-0.00473554
0.000732961
0.00158198
-0.00231495
0.0020112
-0.00280062
0.00199206
-0.000722492
-0.00126957
-0.00179601
0.000455775
0.00134023
0.00432268
0.0028649
-0.00552083
0.00133882
0.004182
-0.00125239
-0.00399024
-0.000460026
-0.00133598
-0.000999552
-0.00056115
-0.00129279
-0.000424941
0.00114357
-0.000533343
0.0015093
-0.000975952
-0.00175715
0.00129712
-0.00094456
-0.000207134
0.00115169
0.00217157
-0.00286729
0.000695732
-1.17725e-05
0.000206148
0.00103585
0.00606891
-0.00140759
-0.00466132
-0.00203601
-0.00187398
0.00133982
0.000534167
0.00127131
-0.000978364
-0.000292941
-0.00229452
-0.00102544
0.00331997
-0.00267123
0.00358363
-0.000912404
-0.000919865
0.00111992
8.13078e-06
-0.00112804
0.00376128
-0.00493745
0.00117616
0.0017476
-0.00135554
-0.000392057
0.00242708
-0.00122486
0.00273712
-0.000635578
-0.000191536
-0.00409317
0.00229573
-0.0018008
-0.000494926
0.000560414
-0.00200912
0.00144871
-0.002515
-0.000842881
0.000859996
-0.000658252
-0.000201744
-0.000179959
-0.00364308
0.000971856
0.000679188
-0.000464632
0.00259297
0.000990654
0.000318322
0.00130663
0.000685432
-0.00160349
0.00233644
-0.00150062
0.000990028
0.000510587
0.00355148
-0.000687539
-0.00380889
0.00610217
-0.00114711
-0.00248689
0.00683396
-0.00434706
-0.00088851
0.00356899
-0.00414181
0.000932321
-0.00210126
0.00424989
-0.000691668
-0.00161874
-0.0024503
0.00171268
0.000737617
-0.00127975
0.000451051
-0.000479499
2.84485e-05
-0.0013762
-0.00077669
-0.000153635
0.000930325
-0.00156805
0.00136332
0.000204728
0.00203876
0.000809648
6.2667e-05
-0.00130017
-0.000552377
-0.000831421
-0.00241995
-0.000479351
-0.00139463
-0.000171327
0.00159255
-0.000180685
0.00341168
-0.000514322
0.00133892
0.00020078
-0.000819694
-0.000988737
-0.00193013
0.00247691
-0.000546783
-0.00104718
-0.0057289
0.00351082
0.00148465
-0.000621426
0.00288895
-0.00121311
0.00096237
-0.00135906
-0.00453018
0.00588924
0.000620268
-0.0025504
0.000741201
-0.00368824
0.00269899
0.000989243
0.000889699
-0.00142304
0.00222705
-0.00311917
0.000892106
0.00119569
-0.00342987
0.00223417
0.000860548
0.00168815
-0.0025487
-0.00017463
0.00179317
0.00274476
0.00107937
0.0036207
-0.000413525
0.000783015
0.00315898
-0.00402589
0.000981164
-0.00327568
0.000435646
0.00412545
0.00147435
-1.09145e-05
-0.00027469
0.000285604
-0.00619245
0.00385669
0.00233576
-0.000829247
-0.00261498
0.00344423
0.0026397
-0.00177915
-0.00369719
0.000894395
-0.00132148
-0.000435673
-0.000152843
0.00131971
0.00372608
0.00122988
0.000224418
0.00130879
-0.000992222
-0.000316569
0.000901716
0.000582938
-0.000313802
0.0037689
-0.00493448
0.00116559
0.00307789
-0.000850847
-0.00139866
0.00190338
0.0012597
-0.00355551
0.00229581
-0.00116856
0.00145618
0.000678535
-0.00213472
0.000193026
-0.000203941
0.00219849
-0.000860064
-0.00126958
0.000330427
0.000928627
-0.000349637
-0.00057899
0.00353324
-0.00227355
-0.000508724
0.00229082
-0.0017821
0.00102116
-0.00296774
0.00208363
0.000884117
0.000106321
-9.72389e-07
0.00467049
0.000534727
-0.00570032
-0.00519748
0.00392885
0.00126863
-0.00107747
-0.00269521
0.00377268
0.00222134
0.0037251
0.00282779
-0.00375457
0.00092678
-0.00146897
0.0011015
-0.000955331
0.00337493
-0.00241961
0.00149691
0.000562327
-0.0037849
-0.00240756
0.00107563
-0.00230222
0.00321415
-0.000911942
0.00343515
-0.000825311
0.000396037
-0.000810223
0.00254344
0.000891704
-0.000635255
0.00431091
-0.00130893
0.00171638
-0.000407452
0.00199544
-0.00128071
-0.000389595
0.00607683
-0.00491637
-0.000461642
0.000858709
-0.0024622
-0.00539164
-0.00172258
0.000413647
-0.000678157
0.000101754
-0.000869386
0.000213012
-0.00146954
0.000666842
0.00157347
-0.000905445
0.000135089
0.000805065
0.00251619
-0.00332127
-0.00109512
0.00187365
-0.00194682
-0.000474264
0.00196115
-0.00148689
-0.000882139
-0.00208559
-0.00195173
0.00147746
-0.00265756
0.00346262
-0.00164149
0.000583478
0.00105801
-0.000979013
0.00357198
0.00602099
-0.00231317
-0.00130333
-0.000419249
-0.00173988
0.001101
0.000638873
0.000905204
-0.00452
0.00361479
-0.00131356
0.000544363
0.000769193
-0.00403608
-0.0011614
0.000191634
-0.00113619
0.00193962
-0.000720415
-0.00134847
-0.00380389
0.00515236
0.00100439
7.07328e-05
0.00329758
-0.00252838
-0.0007692
0.000148744
0.00126739
0.000877474
-0.000670435
-0.000207039
-0.00134727
-0.0010159
-0.00108079
0.00511942
-0.00403862
0.00063535
-0.00249862
0.000122102
0.00128186
0.00377237
-0.00496245
0.00119009
0.00287881
-0.00205068
0.000101992
-0.000168406
6.64143e-05
0.00102771
0.000138089
0.000104276
0.00235779
0.00371112
-0.00058357
-0.000806118
0.00138969
0.000653562
0.00177124
-0.0024248
0.00240265
-0.00170653
-0.000696123
0.00047566
0.00147335
0.000426119
-0.000512022
-0.000801535
0.000600323
-0.00532503
0.000690353
-2.9806e-05
-0.00116211
-0.00131407
-0.00379536
0.00510942
0.00103395
0.00143719
-0.00189558
0.00254686
-0.000394865
-0.00490868
0.00530355
0.000120778
-1.87867e-05
0.000655418
0.00128421
0.00272881
0.000945141
-0.00367394
0.0013752
0.000471497
0.00258668
-0.00364196
0.00454716
0.00277401
0.000843586
-0.0036176
0.00162862
-0.000837389
-0.000791233
0.00132795
-0.00101865
-0.000309304
0.000423599
0.0010585
-0.00470046
0.000219221
-6.61877e-06
0.000199645
0.00604389
-0.00129461
0.00152606
-0.00212857
0.00252789
-0.00182455
-0.000703342
0.000862273
-0.00254616
0.00168389
0.00523455
-0.00281639
-0.000926198
-0.00158802
0.00501179
0.00148637
-0.00178138
0.000295014
0.000499851
-0.000103706
-0.000396144
-0.000994791
-0.00314173
0.00413653
0.00074219
0.00181954
-0.00256173
0.00176752
-0.000281148
0.00224825
0.00140573
-0.000861368