/*--------------------------------*- C++ -*----------------------------------*\
  =========                 |
  \\      /  F ield         | OpenFOAM: The Open Source CFD Toolbox
   \\    /   O peration     | Website:  https://openfoam.org
    \\  /    A nd           | Version:  7
     \\/     M anipulation  |
\*---------------------------------------------------------------------------*/
FoamFile
{
    version     2.0;
    format      ascii;
    class       surfaceScalarField;
    location    "1.05";
    object      phi;
}
// * * * * * * * * * * * * * * * * * * * * * * * * * * * * * * * * * * * * * //

dimensions      [0 3 -1 0 0 0 0];

internalField   nonuniform List<scalar> 
3120
(
2.53482e-09
-2.55085e-09
4.09772e-09
-1.5629e-09
2.25446e-09
1.84326e-09
-3.55406e-09
5.80852e-09
-1.31386e-08
9.58456e-09
-2.59904e-08
1.28518e-08
-4.14697e-08
1.54793e-08
-5.88999e-08
1.74302e-08
-7.7613e-08
1.87131e-08
-9.69722e-08
1.93592e-08
-1.16383e-07
1.94107e-08
-1.35299e-07
1.8916e-08
-1.53225e-07
1.79265e-08
-1.6972e-07
1.64946e-08
-1.84394e-07
1.46738e-08
-1.96912e-07
1.25178e-08
-2.06993e-07
1.0081e-08
-2.14411e-07
7.41825e-09
-2.18997e-07
4.58598e-09
-2.20639e-07
1.64202e-09
-2.19285e-07
-1.35379e-09
-2.14946e-07
-4.33935e-09
-2.07695e-07
-7.25023e-09
-1.97676e-07
-1.00198e-08
-1.85096e-07
-1.25795e-08
-1.70236e-07
-1.486e-08
-1.53445e-07
-1.67916e-08
-1.35139e-07
-1.83058e-08
-1.15802e-07
-1.93372e-08
-9.59768e-08
-1.98246e-08
-7.62629e-08
-1.97139e-08
-5.73026e-08
-1.89603e-08
-3.97707e-08
-1.75319e-08
-2.43551e-08
-1.54156e-08
-1.17281e-08
-1.26271e-08
-2.49563e-09
-9.23242e-09
2.89848e-09
-5.39406e-09
4.35981e-09
-1.46129e-09
2.56215e-09
1.7977e-09
2.56216e-09
1.61533e-09
-4.16618e-09
-1.1734e-09
1.22584e-09
-1.17196e-08
1.23895e-08
-3.10834e-08
2.51723e-08
-5.90632e-08
3.75644e-08
-9.47153e-08
4.85039e-08
-1.3669e-07
5.7454e-08
-1.83447e-07
6.41874e-08
-2.33387e-07
6.86527e-08
-2.84927e-07
7.08994e-08
-3.36553e-07
7.1037e-08
-3.86848e-07
6.92109e-08
-4.3451e-07
6.55882e-08
-4.78365e-07
6.03493e-08
-5.17374e-07
5.36828e-08
-5.50639e-07
4.57832e-08
-5.77408e-07
3.68497e-08
-5.97076e-07
2.70866e-08
-6.09193e-07
1.67033e-08
-6.13467e-07
5.91575e-09
-6.09768e-07
-5.05312e-09
-5.98134e-07
-1.5973e-08
-5.78778e-07
-2.66061e-08
-5.52089e-07
-3.67084e-08
-5.18638e-07
-4.60309e-08
-4.79175e-07
-5.4323e-08
-4.3463e-07
-6.13364e-08
-3.86106e-07
-6.68298e-08
-3.34868e-07
-7.05758e-08
-2.82324e-07
-7.23684e-08
-2.30006e-07
-7.20321e-08
-1.79532e-07
-6.94344e-08
-1.32563e-07
-6.45008e-08
-9.07393e-08
-5.72392e-08
-5.55888e-08
-4.77775e-08
-2.83887e-08
-3.64326e-08
-9.94986e-09
-2.38329e-08
-2.91178e-10
-1.112e-08
1.85512e-09
-3.48577e-10
4.41731e-09
-1.66888e-09
-2.4973e-09
-1.21216e-08
1.16786e-08
-3.41017e-08
3.43697e-08
-6.84723e-08
5.95429e-08
-1.1482e-07
8.39121e-08
-1.71859e-07
1.05543e-07
-2.37755e-07
1.2335e-07
-3.1037e-07
1.36803e-07
-3.87435e-07
1.45718e-07
-4.66665e-07
1.50129e-07
-5.45839e-07
1.50211e-07
-6.22855e-07
1.46226e-07
-6.95764e-07
1.38498e-07
-7.62801e-07
1.27386e-07
-8.22394e-07
1.13276e-07
-8.73182e-07
9.65708e-08
-9.14021e-07
7.76894e-08
-9.43997e-07
5.70626e-08
-9.62428e-07
3.51346e-08
-9.68876e-07
1.23636e-08
-9.63152e-07
-1.07779e-08
-9.45322e-07
-3.38025e-08
-9.15719e-07
-5.6209e-08
-8.74943e-07
-7.7485e-08
-8.23863e-07
-9.71104e-08
-7.63621e-07
-1.14565e-07
-6.95623e-07
-1.29335e-07
-6.21524e-07
-1.40929e-07
-5.43214e-07
-1.48886e-07
-4.62786e-07
-1.52797e-07
-3.82493e-07
-1.52325e-07
-3.04697e-07
-1.47231e-07
-2.31789e-07
-1.37409e-07
-1.66095e-07
-1.22933e-07
-1.09739e-07
-1.04133e-07
-6.44653e-08
-8.17064e-08
-3.13908e-08
-5.69075e-08
-1.06935e-08
-3.18173e-08
-1.23884e-09
-9.8032e-09
3.1785e-09
-5.57103e-09
3.07373e-09
-2.49872e-08
3.10948e-08
-5.97068e-08
6.90892e-08
-1.09906e-07
1.09742e-07
-1.74693e-07
1.487e-07
-2.52362e-07
1.83212e-07
-3.4064e-07
2.11627e-07
-4.36908e-07
2.3307e-07
-5.38375e-07
2.47185e-07
-6.42212e-07
2.53966e-07
-7.45647e-07
2.53646e-07
-8.46039e-07
2.46619e-07
-9.40927e-07
2.33386e-07
-1.02807e-06
2.14526e-07
-1.10546e-06
1.90667e-07
-1.17136e-06
1.62476e-07
-1.22432e-06
1.30648e-07
-1.26316e-06
9.59056e-08
-1.28702e-06
5.89933e-08
-1.29534e-06
2.06806e-08
-1.28788e-06
-1.82393e-08
-1.26473e-06
-5.69495e-08
-1.22633e-06
-9.46119e-08
-1.17344e-06
-1.30372e-07
-1.10719e-06
-1.63366e-07
-1.02902e-06
-1.92733e-07
-9.40725e-07
-2.17628e-07
-8.44408e-07
-2.37246e-07
-7.42453e-07
-2.5084e-07
-6.37494e-07
-2.57756e-07
-5.32352e-07
-2.57467e-07
-4.29967e-07
-2.49616e-07
-3.33302e-07
-2.34074e-07
-2.4522e-07
-2.11015e-07
-1.68336e-07
-1.81017e-07
-1.04828e-07
-1.45214e-07
-5.62135e-08
-1.05522e-07
-2.3107e-08
-6.49239e-08
-4.98766e-09
-2.79225e-08
-1.80913e-09
-9.47227e-09
1.2546e-08
-3.81888e-08
5.98113e-08
-8.61085e-08
1.17009e-07
-1.52445e-07
1.76078e-07
-2.35629e-07
2.31884e-07
-3.33421e-07
2.81004e-07
-4.43082e-07
3.21289e-07
-5.61546e-07
3.51534e-07
-6.85573e-07
3.71212e-07
-8.11885e-07
3.80278e-07
-9.37265e-07
3.79026e-07
-1.05864e-06
3.67992e-07
-1.17313e-06
3.4788e-07
-1.27812e-06
3.19514e-07
-1.37126e-06
2.83805e-07
-1.45051e-06
2.41723e-07
-1.51415e-06
1.94289e-07
-1.56081e-06
1.42566e-07
-1.58947e-06
8.76521e-08
-1.59947e-06
3.06837e-08
-1.59054e-06
-2.71685e-08
-1.56279e-06
-8.47001e-08
-1.51672e-06
-1.40678e-07
-1.45325e-06
-1.93846e-07
-1.37368e-06
-2.42939e-07
-1.27971e-06
-2.86699e-07
-1.17344e-06
-3.23895e-07
-1.05733e-06
-3.53359e-07
-9.34155e-07
-3.74015e-07
-8.06984e-07
-3.84926e-07
-6.79101e-07
-3.8535e-07
-5.53918e-07
-3.74798e-07
-4.34876e-07
-3.53115e-07
-3.25314e-07
-3.20578e-07
-2.2831e-07
-2.78021e-07
-1.46516e-07
-2.27008e-07
-8.19694e-08
-1.70069e-07
-3.59265e-08
-1.10967e-07
-8.75851e-09
-5.50905e-08
-1.05676e-08
-1.31678e-08
2.57138e-08
-5.10473e-08
9.76908e-08
-1.12136e-07
1.78097e-07
-1.94573e-07
2.58516e-07
-2.95985e-07
3.33295e-07
-4.13504e-07
3.98523e-07
-5.43871e-07
4.51656e-07
-6.8356e-07
4.91223e-07
-8.28911e-07
5.16563e-07
-9.76246e-07
5.27613e-07
-1.12197e-06
5.24747e-07
-1.26264e-06
5.08665e-07
-1.39506e-06
4.80296e-07
-1.51628e-06
4.40739e-07
-1.62369e-06
3.91216e-07
-1.71501e-06
3.33038e-07
-1.78831e-06
2.67588e-07
-1.84205e-06
1.96309e-07
-1.87509e-06
1.20695e-07
-1.8867e-06
4.22931e-08
-1.87656e-06
-3.73059e-08
-1.8448e-06
-1.16465e-07
-1.79197e-06
-1.93508e-07
-1.71908e-06
-2.66735e-07
-1.62759e-06
-3.34429e-07
-1.5194e-06
-3.94889e-07
-1.39684e-06
-4.46455e-07
-1.26265e-06
-4.87551e-07
-1.11993e-06
-5.16732e-07
-9.72111e-07
-5.32745e-07
-8.22862e-07
-5.34599e-07
-6.76013e-07
-5.21648e-07
-5.3544e-07
-4.93688e-07
-4.04939e-07
-4.51079e-07
-2.88077e-07
-3.94882e-07
-1.88041e-07
-3.27043e-07
-1.07495e-07
-2.50615e-07
-4.84686e-08
-1.69993e-07
-1.23403e-08
-9.12189e-08
-2.29079e-08
-1.66174e-08
4.23312e-08
-6.33361e-08
1.44409e-07
-1.37325e-07
2.52086e-07
-2.35639e-07
3.5683e-07
-3.55033e-07
4.5269e-07
-4.91943e-07
5.35433e-07
-6.42535e-07
6.02248e-07
-8.02799e-07
6.51487e-07
-9.68649e-07
6.82414e-07
-1.13603e-06
6.94993e-07
-1.301e-06
6.89717e-07
-1.45981e-06
6.67478e-07
-1.60898e-06
6.29462e-07
-1.74531e-06
5.77071e-07
-1.86596e-06
5.11866e-07
-1.96845e-06
4.3553e-07
-2.05071e-06
3.49839e-07
-2.11104e-06
2.56648e-07
-2.14823e-06
1.57877e-07
-2.16145e-06
5.55154e-08
-2.15036e-06
-4.83913e-08
-2.11509e-06
-1.5174e-07
-2.05622e-06
-2.52379e-07
-1.97483e-06
-3.48123e-07
-1.87249e-06
-4.36771e-07
-1.75124e-06
-5.16139e-07
-1.6136e-06
-5.84097e-07
-1.46253e-06
-6.38621e-07
-1.3014e-06
-6.77856e-07
-1.13396e-06
-7.00192e-07
-9.64204e-07
-7.04351e-07
-7.96363e-07
-6.89489e-07
-6.34736e-07
-6.55315e-07
-4.83591e-07
-6.02224e-07
-3.47025e-07
-5.31449e-07
-2.28827e-07
-4.45241e-07
-1.32367e-07
-3.47075e-07
-6.05213e-08
-2.41838e-07
-1.56943e-08
-1.36046e-07
-3.86023e-08
-1.985e-08
6.21812e-08
-7.5059e-08
1.99619e-07
-1.61612e-07
3.38639e-07
-2.75512e-07
4.7073e-07
-4.12623e-07
5.89801e-07
-5.68637e-07
6.91447e-07
-7.39104e-07
7.72714e-07
-9.19496e-07
8.31879e-07
-1.10529e-06
8.6821e-07
-1.29206e-06
8.81761e-07
-1.47554e-06
8.73195e-07
-1.6517e-06
8.43638e-07
-1.8168e-06
7.94569e-07
-1.96746e-06
7.27725e-07
-2.10063e-06
6.4504e-07
-2.21369e-06
5.48592e-07
-2.30443e-06
4.40576e-07
-2.37107e-06
3.23282e-07
-2.41227e-06
1.99083e-07
-2.42718e-06
7.04295e-08
-2.41542e-06
-6.01538e-08
-2.37709e-06
-1.90074e-07
-2.31279e-06
-3.16678e-07
-2.22364e-06
-4.37269e-07
-2.11128e-06
-5.49132e-07
-1.97786e-06
-6.49564e-07
-1.82602e-06
-7.3593e-07
-1.65893e-06
-8.05718e-07
-1.48016e-06
-8.56618e-07
-1.29374e-06
-8.86616e-07
-1.104e-06
-8.94095e-07
-9.15524e-07
-8.77961e-07
-7.33065e-07
-8.37774e-07
-5.61389e-07
-7.73901e-07
-4.05168e-07
-6.8767e-07
-2.68855e-07
-5.81554e-07
-1.56586e-07
-4.59345e-07
-7.21188e-08
-3.26306e-07
-1.88572e-08
-1.89308e-07
-5.74595e-08
-2.29179e-08
8.50991e-08
-8.63215e-08
2.63022e-07
-1.85131e-07
4.37448e-07
-3.14343e-07
5.99942e-07
-4.68931e-07
7.44389e-07
-6.43817e-07
8.66333e-07
-8.33901e-07
9.62798e-07
-1.03411e-06
1.03209e-06
-1.23947e-06
1.07357e-06
-1.44518e-06
1.08746e-06
-1.64665e-06
1.07466e-06
-1.83959e-06
1.03659e-06
-2.02007e-06
9.75044e-07
-2.18449e-06
8.92149e-07
-2.32969e-06
7.90235e-07
-2.4529e-06
6.71806e-07
-2.55182e-06
5.39494e-07
-2.62458e-06
3.96043e-07
-2.66979e-06
2.44293e-07
-2.68653e-06
8.71724e-08
-2.67438e-06
-7.23031e-08
-2.63342e-06
-2.31036e-07
-2.56424e-06
-3.85855e-07
-2.46798e-06
-5.33534e-07
-2.3463e-06
-6.70815e-07
-2.20141e-06
-7.94452e-07
-2.03608e-06
-9.01265e-07
-1.85358e-06
-9.88214e-07
-1.65771e-06
-1.05248e-06
-1.45273e-06
-1.0916e-06
-1.24327e-06
-1.10355e-06
-1.03432e-06
-1.08691e-06
-8.3107e-07
-1.04102e-06
-6.38826e-07
-9.66144e-07
-4.62887e-07
-8.6361e-07
-3.08421e-07
-7.36019e-07
-1.80376e-07
-5.8739e-07
-8.34094e-08
-4.23272e-07
-2.18934e-08
-2.50824e-07
-7.93529e-08
-2.58769e-08
1.10976e-07
-9.72649e-08
3.3441e-07
-2.08101e-07
5.48284e-07
-3.52418e-07
7.44259e-07
-5.24299e-07
9.1627e-07
-7.17884e-07
1.05992e-06
-9.27397e-07
1.17231e-06
-1.1472e-06
1.25189e-06
-1.37185e-06
1.29822e-06
-1.59615e-06
1.31177e-06
-1.81522e-06
1.29374e-06
-2.02454e-06
1.2459e-06
-2.21994e-06
1.17045e-06
-2.39771e-06
1.06992e-06
-2.55455e-06
9.47075e-07
-2.68761e-06
8.04868e-07
-2.79451e-06
6.46388e-07
-2.87331e-06
4.74846e-07
-2.92257e-06
2.93555e-07
-2.94133e-06
1.05928e-07
-2.92911e-06
-8.45233e-08
-2.88595e-06
-2.7419e-07
-2.81243e-06
-4.59377e-07
-2.70965e-06
-6.36312e-07
-2.57929e-06
-8.0118e-07
-2.42357e-06
-9.50164e-07
-2.24533e-06
-1.07951e-06
-2.04796e-06
-1.18559e-06
-1.8354e-06
-1.26505e-06
-1.61213e-06
-1.31487e-06
-1.38311e-06
-1.33257e-06
-1.1537e-06
-1.31632e-06
-9.29571e-07
-1.26516e-06
-7.16599e-07
-1.17912e-06
-5.20755e-07
-1.05945e-06
-3.47977e-07
-9.08798e-07
-2.04061e-07
-7.31306e-07
-9.45871e-08
-5.32746e-07
-2.48739e-08
-3.20537e-07
-1.04227e-07
-2.87791e-08
1.39755e-07
-1.08036e-07
4.13667e-07
-2.3077e-07
6.71018e-07
-3.9007e-07
9.0356e-07
-5.79135e-07
1.10533e-06
-7.91304e-07
1.27209e-06
-1.02011e-06
1.40112e-06
-1.25932e-06
1.49111e-06
-1.50302e-06
1.54192e-06
-1.74563e-06
1.55438e-06
-1.98197e-06
1.53007e-06
-2.20726e-06
1.47119e-06
-2.41721e-06
1.38039e-06
-2.60795e-06
1.26066e-06
-2.7761e-06
1.11523e-06
-2.91875e-06
9.47515e-07
-3.03345e-06
7.61094e-07
-3.11825e-06
5.59642e-07
-3.17164e-06
3.46949e-07
-3.19263e-06
1.26912e-07
-3.18068e-06
-9.64673e-08
-3.1358e-06
-3.19074e-07
-3.05849e-06
-5.36684e-07
-2.94982e-06
-7.44981e-07
-2.81143e-06
-9.39576e-07
-2.64553e-06
-1.11606e-06
-2.45498e-06
-1.27006e-06
-2.24323e-06
-1.39734e-06
-2.01436e-06
-1.49391e-06
-1.77306e-06
-1.55617e-06
-1.52457e-06
-1.58106e-06
-1.27465e-06
-1.56625e-06
-1.02946e-06
-1.51035e-06
-7.95491e-07
-1.41308e-06
-5.79434e-07
-1.27551e-06
-3.88041e-07
-1.10019e-06
-2.28007e-07
-8.9134e-07
-1.05858e-07
-6.54895e-07
-2.78681e-08
-3.98526e-07
-1.32095e-07
-3.16707e-08
1.71426e-07
-1.18772e-07
5.00769e-07
-2.53379e-07
8.05625e-07
-4.27637e-07
1.07782e-06
-6.33849e-07
1.31155e-06
-8.64539e-07
1.50278e-06
-1.11253e-06
1.6491e-06
-1.37098e-06
1.74956e-06
-1.6335e-06
1.80443e-06
-1.8941e-06
1.81498e-06
-2.14732e-06
1.78329e-06
-2.38819e-06
1.71206e-06
-2.61225e-06
1.60445e-06
-2.81555e-06
1.46395e-06
-2.99464e-06
1.29432e-06
-3.14659e-06
1.09946e-06
-3.26892e-06
8.83428e-07
-3.35966e-06
6.50377e-07
-3.41727e-06
4.04566e-07
-3.44072e-06
1.50361e-07
-3.42943e-06
-1.07755e-07
-3.38333e-06
-3.65175e-07
-3.30286e-06
-6.1716e-07
-3.18899e-06
-8.58847e-07
-3.04329e-06
-1.08527e-06
-2.86794e-06
-1.29141e-06
-2.66574e-06
-1.47226e-06
-2.4402e-06
-1.62289e-06
-2.19547e-06
-1.73864e-06
-1.93642e-06
-1.81522e-06
-1.66857e-06
-1.8489e-06
-1.39807e-06
-1.83675e-06
-1.1316e-06
-1.77681e-06
-8.76293e-07
-1.66839e-06
-6.39601e-07
-1.5122e-06
-4.29147e-07
-1.31064e-06
-2.52581e-07
-1.06791e-06
-1.17424e-07
-7.90052e-07
-3.09411e-08
-4.85009e-07
-1.63036e-07
-3.45919e-08
2.06018e-07
-1.29601e-07
5.95777e-07
-2.76153e-07
9.52177e-07
-4.65434e-07
1.2671e-06
-6.88824e-07
1.53494e-06
-9.3801e-07
1.75196e-06
-1.20507e-06
1.91617e-06
-1.48257e-06
2.02706e-06
-1.7636e-06
2.08546e-06
-2.04181e-06
2.09319e-06
-2.31145e-06
2.05294e-06
-2.56738e-06
1.96798e-06
-2.805e-06
1.84208e-06
-3.02033e-06
1.67929e-06
-3.20991e-06
1.48389e-06
-3.37077e-06
1.26033e-06
-3.50049e-06
1.01314e-06
-3.59706e-06
7.46947e-07
-3.65896e-06
4.66466e-07
-3.68511e-06
1.76514e-07
-3.67489e-06
-1.17975e-07
-3.62814e-06
-4.11923e-07
-3.5452e-06
-7.00097e-07
-3.42695e-06
-9.77103e-07
-3.27482e-06
-1.2374e-06
-3.09088e-06
-1.47535e-06
-2.87787e-06
-1.68526e-06
-2.63925e-06
-1.86151e-06
-2.37925e-06
-1.99865e-06
-2.10286e-06
-2.09161e-06
-1.81585e-06
-2.13591e-06
-1.52476e-06
-2.12784e-06
-1.23679e-06
-2.06478e-06
-9.59755e-07
-1.94542e-06
-7.0191e-07
-1.77005e-06
-4.71815e-07
-1.54074e-06
-2.78141e-07
-1.26158e-06
-1.2948e-07
-9.38713e-07
-3.41534e-08
-5.80336e-07
-1.97189e-07
-3.75781e-08
2.43596e-07
-1.40633e-07
6.98832e-07
-2.99296e-07
1.11084e-06
-5.03746e-07
1.47155e-06
-7.44401e-07
1.77559e-06
-1.01207e-06
2.01963e-06
-1.29808e-06
2.20218e-06
-1.59435e-06
2.32334e-06
-1.89348e-06
2.38459e-06
-2.18877e-06
2.38848e-06
-2.4742e-06
2.33837e-06
-2.74447e-06
2.23826e-06
-2.99494e-06
2.09255e-06
-3.2216e-06
1.90594e-06
-3.421e-06
1.6833e-06
-3.59026e-06
1.42959e-06
-3.72696e-06
1.14984e-06
-3.82917e-06
8.49153e-07
-3.89536e-06
5.32658e-07
-3.92444e-06
2.05593e-07
-3.91573e-06
-1.26687e-07
-3.86898e-06
-4.58674e-07
-3.7844e-06
-7.84673e-07
-3.66272e-06
-1.09879e-06
-3.50521e-06
-1.39492e-06
-3.31377e-06
-1.66679e-06
-3.09101e-06
-1.90802e-06
-2.8403e-06
-2.11221e-06
-2.56585e-06
-2.2731e-06
-2.27272e-06
-2.38474e-06
-1.96692e-06
-2.44171e-06
-1.65534e-06
-2.43942e-06
-1.34572e-06
-2.37441e-06
-1.04655e-06
-2.24459e-06
-7.66968e-07
-2.04963e-06
-5.16533e-07
-1.79117e-06
-3.05027e-07
-1.47309e-06
-1.42209e-07
-1.10153e-06
-3.75614e-08
-6.84984e-07
-2.34751e-07
-4.06613e-08
2.84257e-07
-1.51973e-07
8.10144e-07
-3.22997e-07
1.28186e-06
-5.42832e-07
1.69138e-06
-8.00874e-07
2.03363e-06
-1.08701e-06
2.30577e-06
-1.39177e-06
2.50693e-06
-1.70642e-06
2.638e-06
-2.02309e-06
2.70125e-06
-2.3347e-06
2.70008e-06
-2.63503e-06
2.63871e-06
-2.91869e-06
2.52191e-06
-3.18101e-06
2.35487e-06
-3.41801e-06
2.14295e-06
-3.62636e-06
1.89165e-06
-3.80325e-06
1.60648e-06
-3.94638e-06
1.29297e-06
-4.05388e-06
9.5665e-07
-4.12428e-06
6.03051e-07
-4.15647e-06
2.37783e-07
-4.14972e-06
-1.33431e-07
-4.10369e-06
-5.04704e-07
-4.01844e-06
-8.69928e-07
-3.89448e-06
-1.22274e-06
-3.73289e-06
-1.55651e-06
-3.53533e-06
-1.86435e-06
-3.3042e-06
-2.13916e-06
-3.04269e-06
-2.37372e-06
-2.75491e-06
-2.56088e-06
-2.44596e-06
-2.69368e-06
-2.12199e-06
-2.76568e-06
-1.79022e-06
-2.7712e-06
-1.4589e-06
-2.70573e-06
-1.13725e-06
-2.56624e-06
-8.35318e-07
-2.35156e-06
-5.63753e-07
-2.06274e-06
-3.33557e-07
-1.70328e-06
-1.55784e-07
-1.2793e-06
-4.12186e-08
-7.99549e-07
-2.75969e-07
-4.38721e-08
3.28129e-07
-1.6372e-07
9.29992e-07
-3.4743e-07
1.46557e-06
-5.82926e-07
1.92688e-06
-8.58496e-07
2.3092e-06
-1.16304e-06
2.61031e-06
-1.48624e-06
2.83014e-06
-1.81873e-06
2.97048e-06
-2.15211e-06
3.03464e-06
-2.47902e-06
3.02699e-06
-2.79306e-06
2.95275e-06
-3.08879e-06
2.81764e-06
-3.3616e-06
2.62767e-06
-3.60763e-06
2.38898e-06
-3.8237e-06
2.10771e-06
-4.00718e-06
1.78996e-06
-4.15591e-06
1.44171e-06
-4.26816e-06
1.0689e-06
-4.34253e-06
6.77422e-07
-4.37795e-06
2.73201e-07
-4.37363e-06
-1.37743e-07
-4.32913e-06
-5.49209e-07
-4.24431e-06
-9.54743e-07
-4.11948e-06
-1.34758e-06
-3.95539e-06
-1.72059e-06
-3.75344e-06
-2.0663e-06
-3.51569e-06
-2.3769e-06
-3.24509e-06
-2.64433e-06
-2.94554e-06
-2.86043e-06
-2.62208e-06
-3.01715e-06
-2.28091e-06
-3.10684e-06
-1.92952e-06
-3.12259e-06
-1.57667e-06
-3.05858e-06
-1.2323e-06
-2.9106e-06
-9.07434e-07
-2.67643e-06
-6.13893e-07
-2.35628e-06
-3.64035e-07
-1.95314e-06
-1.70373e-07
-1.47297e-06
-4.51773e-08
-9.24745e-07
-3.21147e-07
-4.72421e-08
3.75371e-07
-1.75975e-07
1.05873e-06
-3.72775e-07
1.66237e-06
-6.24259e-07
2.17836e-06
-9.17495e-07
2.60244e-06
-1.24031e-06
2.93312e-06
-1.5815e-06
3.17133e-06
-1.93102e-06
3.32e-06
-2.28001e-06
3.38362e-06
-2.62082e-06
3.3678e-06
-2.94695e-06
3.27889e-06
-3.253e-06
3.12369e-06
-3.53449e-06
2.90916e-06
-3.78779e-06
2.64227e-06
-4.00994e-06
2.32986e-06
-4.19857e-06
1.97859e-06
-4.35176e-06
1.5949e-06
-4.46796e-06
1.1851e-06
-4.54591e-06
7.55365e-07
-4.58457e-06
3.11862e-07
-4.58314e-06
-1.3917e-07
-4.54104e-06
-5.91306e-07
-4.45796e-06
-1.03783e-06
-4.33388e-06
-1.47165e-06
-4.16924e-06
-1.88523e-06
-3.96503e-06
-2.27052e-06
-3.72291e-06
-2.61902e-06
-3.44543e-06
-2.9218e-06
-3.1362e-06
-3.16966e-06
-2.80002e-06
-3.35333e-06
-2.44309e-06
-3.46378e-06
-2.07307e-06
-3.4926e-06
-1.69916e-06
-3.43249e-06
-1.33203e-06
-3.27773e-06
-9.83713e-07
-3.02475e-06
-6.67332e-07
-2.67266e-06
-3.96751e-07
-2.22372e-06
-1.86143e-07
-1.68357e-06
-4.94901e-08
-1.0614e-06
-3.70637e-07
-5.0807e-08
4.26178e-07
-1.88853e-07
1.19677e-06
-3.99226e-07
1.87275e-06
-6.6707e-07
2.44621e-06
-9.78089e-07
2.91346e-06
-1.31893e-06
3.27396e-06
-1.67745e-06
3.52985e-06
-2.04289e-06
3.68545e-06
-2.40597e-06
3.74669e-06
-2.7588e-06
3.72063e-06
-3.09489e-06
3.61498e-06
-3.40895e-06
3.43775e-06
-3.69677e-06
3.19698e-06
-3.95502e-06
2.90053e-06
-4.18111e-06
2.55595e-06
-4.37302e-06
2.17049e-06
-4.52914e-06
1.75102e-06
-4.64817e-06
1.30414e-06
-4.72905e-06
8.36243e-07
-4.77084e-06
3.53646e-07
-4.77271e-06
-1.37296e-07
-4.73397e-06
-6.30043e-07
-4.65408e-06
-1.11773e-06
-4.53269e-06
-1.59304e-06
-4.36982e-06
-2.04809e-06
-4.16597e-06
-2.47438e-06
-3.92227e-06
-2.86272e-06
-3.64076e-06
-3.20331e-06
-3.32456e-06
-3.48586e-06
-2.97812e-06
-3.69976e-06
-2.60747e-06
-3.83443e-06
-2.22032e-06
-3.87975e-06
-1.82623e-06
-3.82658e-06
-1.43659e-06
-3.66737e-06
-1.06447e-06
-3.39686e-06
-7.24421e-07
-3.01271e-06
-4.31993e-07
-2.51615e-06
-2.03263e-07
-1.9123e-06
-5.42124e-08
-1.21045e-06
-4.24849e-07
-5.46104e-08
4.80789e-07
-2.02489e-07
1.34465e-06
-4.27013e-07
2.09727e-06
-7.11633e-07
2.73083e-06
-1.04051e-06
3.24233e-06
-1.39897e-06
3.63242e-06
-1.77386e-06
3.90475e-06
-2.15373e-06
4.06532e-06
-2.52886e-06
4.12183e-06
-2.89127e-06
4.08304e-06
-3.23454e-06
3.95825e-06
-3.55365e-06
3.75686e-06
-3.84476e-06
3.48809e-06
-4.10502e-06
3.16078e-06
-4.3323e-06
2.78324e-06
-4.52505e-06
2.36324e-06
-4.68209e-06
1.90806e-06
-4.80247e-06
1.42452e-06
-4.88536e-06
9.19131e-07
-4.92997e-06
3.98252e-07
-4.93549e-06
-1.31773e-07
-4.90112e-06
-6.64418e-07
-4.82605e-06
-1.1928e-06
-4.70958e-06
-1.7095e-06
-4.55124e-06
-2.20644e-06
-4.35091e-06
-2.67471e-06
-4.10907e-06
-3.10455e-06
-3.82708e-06
-3.4853e-06
-3.50741e-06
-3.80554e-06
-3.15396e-06
-4.05321e-06
-2.77237e-06
-4.21602e-06
-2.37027e-06
-4.28185e-06
-1.95745e-06
-4.23939e-06
-1.54595e-06
-4.07887e-06
-1.14995e-06
-3.79287e-06
-7.85487e-07
-3.37717e-06
-4.70051e-07
-2.83158e-06
-2.21915e-07
-2.16044e-06
-5.9405e-08
-1.37296e-06
-4.84254e-07
-5.87087e-08
5.39497e-07
-2.17058e-07
1.503e-06
-4.56426e-07
2.33664e-06
-7.58285e-07
3.03269e-06
-1.10502e-06
3.58906e-06
-1.48048e-06
4.00789e-06
-1.87044e-06
4.2947e-06
-2.2627e-06
4.45758e-06
-2.64725e-06
4.50637e-06
-3.01605e-06
4.45185e-06
-3.36294e-06
4.30514e-06
-3.68332e-06
4.07724e-06
-3.97391e-06
3.77869e-06
-4.23247e-06
3.41934e-06
-4.4575e-06
3.00827e-06
-4.64805e-06
2.55379e-06
-4.80346e-06
2.06347e-06
-4.92324e-06
1.54429e-06
-5.00687e-06
1.00276e-06
-5.05377e-06
4.45149e-07
-5.06318e-06
-1.22358e-07
-5.0342e-06
-6.93399e-07
-4.96577e-06
-1.26123e-06
-4.85677e-06
-1.8185e-06
-4.70615e-06
-2.35706e-06
-4.51309e-06
-2.86776e-06
-4.27729e-06
-3.34035e-06
-3.99922e-06
-3.76338e-06
-3.68048e-06
-4.12428e-06
-3.32419e-06
-4.4095e-06
-2.9354e-06
-4.60482e-06
-2.5214e-06
-4.69586e-06
-2.09204e-06
-4.66875e-06
-1.65991e-06
-4.511e-06
-1.24028e-06
-4.2125e-06
-8.50838e-07
-3.76661e-06
-5.11236e-07
-3.17119e-06
-2.42302e-07
-2.42937e-06
-6.5138e-08
-1.55012e-06
-5.49392e-07
-6.31773e-08
6.02675e-07
-2.32792e-07
1.67261e-06
-4.87842e-07
2.59169e-06
-8.07459e-07
3.3523e-06
-1.17195e-06
3.95355e-06
-1.56352e-06
4.39946e-06
-1.96673e-06
4.69791e-06
-2.36873e-06
4.85959e-06
-2.75925e-06
4.89688e-06
-3.13039e-06
4.82299e-06
-3.47641e-06
4.65116e-06
-3.79335e-06
4.39418e-06
-4.07869e-06
4.06402e-06
-4.33097e-06
3.67162e-06
-4.5495e-06
3.22681e-06
-4.73408e-06
2.73837e-06
-4.8847e-06
2.2141e-06
-5.00142e-06
1.66101e-06
-5.08414e-06
1.08548e-06
-5.13252e-06
4.93535e-07
-5.14593e-06
-1.08951e-07
-5.12337e-06
-7.15961e-07
-5.06352e-06
-1.32108e-06
-4.96483e-06
-1.9172e-06
-4.8256e-06
-2.49629e-06
-4.64422e-06
-3.04914e-06
-4.41941e-06
-3.56515e-06
-4.15059e-06
-4.0322e-06
-3.83825e-06
-4.43662e-06
-3.48445e-06
-4.7633e-06
-3.09331e-06
-4.99595e-06
-2.67153e-06
-5.11764e-06
-2.22877e-06
-5.11151e-06
-1.77798e-06
-4.96178e-06
-1.3355e-06
-4.65499e-06
-9.20775e-07
-4.18134e-06
-5.55891e-07
-3.53607e-06
-2.6466e-07
-2.7206e-06
-7.14954e-08
-1.74329e-06
-6.20887e-07
-6.81198e-08
6.70795e-07
-2.50003e-07
1.8545e-06
-5.21766e-07
2.86345e-06
-8.59721e-07
3.69026e-06
-1.24173e-06
4.33556e-06
-1.64811e-06
4.80584e-06
-2.06217e-06
5.11197e-06
-2.47041e-06
5.26783e-06
-2.86247e-06
5.28894e-06
-3.23083e-06
5.19134e-06
-3.57039e-06
4.99072e-06
-3.87808e-06
4.70188e-06
-4.15237e-06
4.33831e-06
-4.39282e-06
3.91207e-06
-4.59974e-06
3.43372e-06
-4.77379e-06
2.91243e-06
-4.9158e-06
2.35611e-06
-5.02645e-06
1.77166e-06
-5.10615e-06
1.16518e-06
-5.15491e-06
5.4229e-07
-5.17222e-06
-9.16412e-08
-5.15705e-06
-7.31129e-07
-5.10784e-06
-1.37028e-06
-5.02257e-06
-2.00247e-06
-4.89886e-06
-2.62001e-06
-4.73419e-06
-3.21381e-06
-4.52619e-06
-3.77315e-06
-4.27299e-06
-4.2854e-06
-3.97371e-06
-4.7359e-06
-3.62903e-06
-5.10798e-06
-3.24179e-06
-5.38319e-06
-2.81768e-06
-5.54175e-06
-2.36585e-06
-5.56334e-06
-1.89938e-06
-5.42825e-06
-1.43553e-06
-5.11884e-06
-9.95601e-07
-4.62126e-06
-6.04414e-07
-3.92726e-06
-2.89276e-07
-3.03574e-06
-7.85822e-08
-1.95398e-06
-6.9947e-07
-7.36796e-08
7.44474e-07
-2.6912e-07
2.04994e-06
-5.58877e-07
3.15321e-06
-9.15816e-07
4.0472e-06
-1.31489e-06
4.73464e-06
-1.73426e-06
5.22521e-06
-2.15593e-06
5.53364e-06
-2.56588e-06
5.67778e-06
-2.95387e-06
5.67693e-06
-3.31302e-06
5.55048e-06
-3.63922e-06
5.31693e-06
-3.9306e-06
4.99326e-06
-4.18688e-06
4.59459e-06
-4.40889e-06
4.13408e-06
-4.5981e-06
3.62293e-06
-4.75627e-06
3.0706e-06
-4.88513e-06
2.48496e-06
-4.98612e-06
1.87265e-06
-5.06024e-06
1.2393e-06
-5.10789e-06
5.89941e-07
-5.12878e-06
-7.07475e-08
-5.12189e-06
-7.38023e-07
-5.08543e-06
-1.40675e-06
-5.01691e-06
-2.07099e-06
-4.91325e-06
-2.72366e-06
-4.77098e-06
-3.35609e-06
-4.58646e-06
-3.95767e-06
-4.35635e-06
-4.5155e-06
-4.07813e-06
-5.01412e-06
-3.7507e-06
-5.43542e-06
-3.3752e-06
-5.75869e-06
-2.95585e-06
-5.96109e-06
-2.50082e-06
-6.01837e-06
-2.02292e-06
-5.90615e-06
-1.54013e-06
-5.60164e-06
-1.07563e-06
-5.08577e-06
-6.57285e-07
-4.3456e-06
-3.16517e-07
-3.37651e-06
-8.65349e-08
-2.18396e-06
-7.86005e-07
-8.00567e-08
8.24531e-07
-2.90728e-07
2.26061e-06
-6.00084e-07
3.46256e-06
-9.76712e-07
4.42383e-06
-1.39207e-06
5.15e-06
-1.8219e-06
5.65504e-06
-2.24687e-06
5.95861e-06
-2.65264e-06
6.08355e-06
-3.02944e-06
6.05373e-06
-3.37141e-06
5.89246e-06
-3.67586e-06
5.62138e-06
-3.94244e-06
5.25984e-06
-4.17247e-06
4.82462e-06
-4.36829e-06
4.32989e-06
-4.53275e-06
3.7874e-06
-4.66884e-06
3.20669e-06
-4.77932e-06
2.59544e-06
-4.86647e-06
1.95981e-06
-4.93197e-06
1.3048e-06
-4.97668e-06
6.34645e-07
-5.00057e-06
-4.68585e-08
-5.00267e-06
-7.35923e-07
-4.98103e-06
-1.42838e-06
-4.93274e-06
-2.11928e-06
-4.85402e-06
-2.80238e-06
-4.74036e-06
-3.46974e-06
-4.58683e-06
-4.11121e-06
-4.38842e-06
-4.71391e-06
-4.14066e-06
-5.26189e-06
-3.84029e-06
-5.73578e-06
-3.48626e-06
-6.11272e-06
-3.08074e-06
-6.36662e-06
-2.63027e-06
-6.46884e-06
-2.14687e-06
-6.38955e-06
-1.64885e-06
-6.09965e-06
-1.16119e-06
-5.57343e-06
-7.15106e-07
-4.79168e-06
-3.46859e-07
-3.74476e-06
-9.55359e-08
-2.43529e-06
-8.8154e-07
-8.75328e-08
9.12064e-07
-3.15633e-07
2.48871e-06
-6.46601e-07
3.79353e-06
-1.04364e-06
4.82087e-06
-1.47401e-06
5.58036e-06
-1.91073e-06
6.09176e-06
-2.33324e-06
6.38113e-06
-2.72722e-06
6.47753e-06
-3.08386e-06
6.41037e-06
-3.39887e-06
6.20747e-06
-3.67143e-06
5.89394e-06
-3.90319e-06
5.4916e-06
-4.09738e-06
5.01881e-06
-4.25813e-06
4.49064e-06
-4.38986e-06
3.91913e-06
-4.4969e-06
3.31373e-06
-4.58313e-06
2.68167e-06
-4.65177e-06
2.02844e-06
-4.70517e-06
1.35821e-06
-4.74472e-06
6.74198e-07
-4.77073e-06
-2.0856e-08
-4.78233e-06
-7.24323e-07
-4.77747e-06
-1.43324e-06
-4.7529e-06
-2.14385e-06
-4.70417e-06
-2.8511e-06
-4.62582e-06
-3.5481e-06
-4.5115e-06
-4.22552e-06
-4.35445e-06
-4.87096e-06
-4.14799e-06
-5.46835e-06
-3.88633e-06
-5.99744e-06
-3.56564e-06
-6.43341e-06
-3.18533e-06
-6.74693e-06
-2.74955e-06
-6.90462e-06
-2.26873e-06
-6.87037e-06
-1.76091e-06
-6.60746e-06
-1.25261e-06
-6.08174e-06
-7.78645e-07
-5.26564e-06
-3.80943e-07
-4.14246e-06
-1.05836e-07
-2.71039e-06
-9.87377e-07
-9.65072e-08
1.00857e-06
-3.44945e-07
2.73715e-06
-7.00035e-07
4.14862e-06
-1.11812e-06
5.23895e-06
-1.5614e-06
6.02364e-06
-1.99998e-06
6.53034e-06
-2.41232e-06
6.79347e-06
-2.7847e-06
6.84991e-06
-3.10995e-06
6.73562e-06
-3.38606e-06
6.48358e-06
-3.61469e-06
6.12257e-06
-3.79996e-06
5.67687e-06
-3.9474e-06
5.16625e-06
-4.06314e-06
4.60637e-06
-4.15333e-06
4.00932e-06
-4.22373e-06
3.38412e-06
-4.27937e-06
2.73731e-06
-4.3244e-06
2.07347e-06
-4.36189e-06
1.3957e-06
-4.39378e-06
7.0608e-07
-4.42071e-06
6.07942e-09
-4.44204e-06
-7.02999e-07
-4.45569e-06
-1.41959e-06
-4.45817e-06
-2.14137e-06
-4.4445e-06
-2.86477e-06
-4.40831e-06
-3.58429e-06
-4.34196e-06
-4.29187e-06
-4.23684e-06
-4.97607e-06
-4.08391e-06
-5.62128e-06
-3.87447e-06
-6.20688e-06
-3.60133e-06
-6.70655e-06
-3.26034e-06
-7.08791e-06
-2.85227e-06
-7.3127e-06
-2.38489e-06
-7.33775e-06
-1.87505e-06
-7.11731e-06
-1.3502e-06
-6.60659e-06
-8.4889e-07
-5.76695e-06
-4.19646e-07
-4.5717e-06
-1.1779e-07
-3.01225e-06
-1.10517e-06
-1.07555e-07
1.11613e-06
-3.80197e-07
3.00979e-06
-7.62484e-07
4.53091e-06
-1.20194e-06
5.67841e-06
-1.65475e-06
6.47645e-06
-2.08801e-06
6.9636e-06
-2.47982e-06
7.18528e-06
-2.81793e-06
7.18802e-06
-3.09782e-06
7.01552e-06
-3.32063e-06
6.70638e-06
-3.49123e-06
6.29317e-06
-3.61673e-06
5.80238e-06
-3.7053e-06
5.25481e-06
-3.76525e-06
4.66633e-06
-3.80454e-06
4.04861e-06
-3.83033e-06
3.40992e-06
-3.8488e-06
2.75578e-06
-3.86495e-06
2.08962e-06
-3.88255e-06
1.4133e-06
-3.90403e-06
7.27559e-07
-3.93044e-06
3.24942e-08
-3.96139e-06
-6.72057e-07
-3.9949e-06
-1.38608e-06
-4.02739e-06
-2.10889e-06
-4.05354e-06
-2.83862e-06
-4.06628e-06
-3.57155e-06
-4.05681e-06
-4.30134e-06
-4.01479e-06
-5.01809e-06
-3.92876e-06
-5.70732e-06
-3.78683e-06
-6.3488e-06
-3.57794e-06
-6.91544e-06
-3.29349e-06
-7.37237e-06
-2.92964e-06
-7.67654e-06
-2.49012e-06
-7.77727e-06
-1.98916e-06
-7.61827e-06
-1.45414e-06
-7.14161e-06
-9.27116e-07
-6.29397e-06
-4.64187e-07
-5.03463e-06
-1.3191e-07
-3.34453e-06
-1.23708e-06
-1.21516e-07
1.23764e-06
-4.2352e-07
3.31179e-06
-8.36647e-07
4.94404e-06
-1.29703e-06
6.13879e-06
-1.75384e-06
6.93326e-06
-2.17151e-06
7.38127e-06
-2.52882e-06
7.54258e-06
-2.81639e-06
7.47559e-06
-3.03368e-06
7.23281e-06
-3.18608e-06
6.85878e-06
-3.28249e-06
6.38958e-06
-3.33351e-06
5.8534e-06
-3.35018e-06
5.27148e-06
-3.34311e-06
4.65926e-06
-3.32198e-06
4.02749e-06
-3.29528e-06
3.38322e-06
-3.27014e-06
2.73064e-06
-3.2523e-06
2.07178e-06
-3.24608e-06
1.40708e-06
-3.25437e-06
7.35851e-07
-3.2786e-06
5.67278e-08
-3.31868e-06
-6.31979e-07
-3.37288e-06
-1.33188e-06
-3.43772e-06
-2.04405e-06
-3.50779e-06
-2.76854e-06
-3.57564e-06
-3.5037e-06
-3.63162e-06
-4.24535e-06
-3.66394e-06
-4.98577e-06
-3.65885e-06
-5.71241e-06
-3.60124e-06
-6.40642e-06
-3.4757e-06
-7.04098e-06
-3.26835e-06
-7.57972e-06
-2.96939e-06
-7.9755e-06
-2.57666e-06
-8.17001e-06
-2.09975e-06
-8.09518e-06
-1.56426e-06
-7.6771e-06
-1.01493e-06
-6.8433e-06
-5.16283e-07
-5.53328e-06
-1.48961e-07
-3.71185e-06
-1.38604e-06
-1.39652e-07
1.37729e-06
-4.77881e-07
3.65002e-06
-9.25891e-07
5.39205e-06
-1.40513e-06
6.61803e-06
-1.857e-06
7.38513e-06
-2.24424e-06
7.76851e-06
-2.54822e-06
7.84656e-06
-2.76448e-06
7.69185e-06
-2.89819e-06
7.36652e-06
-2.96028e-06
6.92087e-06
-2.96449e-06
6.39379e-06
-2.92532e-06
5.81423e-06
-2.85677e-06
5.20293e-06
-2.77163e-06
4.57411e-06
-2.68109e-06
3.93695e-06
-2.59466e-06
3.29679e-06
-2.52016e-06
2.65614e-06
-2.4638e-06
2.01542e-06
-2.43027e-06
1.37355e-06
-2.42278e-06
7.2836e-07
-2.44308e-06
7.70283e-08
-2.49143e-06
-5.83636e-07
-2.56646e-06
-1.25685e-06
-2.66503e-06
-1.94547e-06
-2.78202e-06
-2.65156e-06
-2.90998e-06
-3.37574e-06
-3.03893e-06
-4.1164e-06
-3.15611e-06
-4.86859e-06
-3.24593e-06
-5.62259e-06
-3.29026e-06
-6.36209e-06
-3.26924e-06
-7.06199e-06
-3.16296e-06
-7.686e-06
-2.95425e-06
-8.18421e-06
-2.63285e-06
-8.4914e-06
-2.20096e-06
-8.52708e-06
-1.67956e-06
-8.19851e-06
-1.11425e-06
-7.4086e-06
-5.78371e-07
-6.06916e-06
-1.70107e-07
-4.12011e-06
-1.55614e-06
-1.63903e-07
1.5412e-06
-5.47429e-07
4.03355e-06
-1.0342e-06
5.87882e-06
-1.52699e-06
7.11083e-06
-1.95941e-06
7.81754e-06
-2.29483e-06
8.10393e-06
-2.52025e-06
8.07199e-06
-2.639e-06
7.81059e-06
-2.66414e-06
7.39166e-06
-2.61349e-06
6.87023e-06
-2.50629e-06
6.28659e-06
-2.36108e-06
5.66902e-06
-2.19465e-06
5.03651e-06
-2.02156e-06
4.40102e-06