/*--------------------------------*- C++ -*----------------------------------*\
  =========                 |
  \\      /  F ield         | OpenFOAM: The Open Source CFD Toolbox
   \\    /   O peration     | Website:  https://openfoam.org
    \\  /    A nd           | Version:  7
     \\/     M anipulation  |
\*---------------------------------------------------------------------------*/
FoamFile
{
    version     2.0;
    format      ascii;
    class       surfaceScalarField;
    location    "94";
    object      phi;
}
// * * * * * * * * * * * * * * * * * * * * * * * * * * * * * * * * * * * * * //

dimensions      [0 3 -1 0 0 0 0];

internalField   nonuniform List<scalar> 
82640
(
-0.000144811
0.000504532
-0.000359722
-0.000303989
0.00244341
-0.00228423
-0.000423587
0.00494923
-0.00482963
-0.000445289
0.00742585
-0.00740415
-0.000350955
0.00856234
-0.00865667
-9.57606e-05
0.00730426
-0.00755945
0.000325637
0.00372545
-0.00414685
0.000860745
-0.00111135
0.000576247
0.00141227
-0.0056517
0.00510018
0.00188223
-0.00899272
0.00852276
0.00222877
-0.0110174
0.0106708
0.0024327
-0.0119117
0.0117078
0.00239722
-0.0123012
0.0123367
0.0022528
-0.0125038
0.0126483
0.002463
-0.0111416
0.0109314
0.00319528
-0.00659913
0.00586685
0.00415533
-0.000506712
-0.000453338
0.00503955
0.00499962
-0.00588384
0.00577305
0.00884588
-0.00957938
0.00631471
0.0108326
-0.0113742
0.00650951
0.0120186
-0.0122134
0.00638928
0.0134338
-0.0133135
0.00630591
0.0136691
-0.0135857
0.0066627
0.00996268
-0.0103195
0.00266484
-0.00361203
0.00760988
-0.000138365
0.000642897
-0.000288369
0.00259341
-0.000394205
0.00505506
-0.000394004
0.00742565
-0.000271231
0.00843957
7.98573e-06
0.00702504
0.000448443
0.00328499
0.00099207
-0.00165498
0.00153742
-0.00619705
0.00199183
-0.00944714
0.00231547
-0.011341
0.0025085
-0.0121047
0.00248262
-0.0122754
0.00230666
-0.0123279
0.00242093
-0.0112559
0.00306179
-0.00724
0.00398265
-0.00142757
0.00488389
0.00409839
0.0056757
0.00805407
0.00626385
0.0102444
0.00646457
0.0118179
0.00637225
0.0135261
0.00639322
0.0136481
0.00686275
0.00949315
0.00170893
0.00781866
-0.000131017
0.000773914
-0.000270333
0.00273273
-0.00036039
0.00514512
-0.000336433
0.0074017
-0.000184936
0.00828807
0.000120415
0.00671969
0.000578086
0.00282732
0.0011296
-0.0022065
0.00166719
-0.00673464
0.00210527
-0.00988522
0.00240694
-0.0116427
0.00258681
-0.0122846
0.00257448
-0.012263
0.00238386
-0.0121373
0.00241159
-0.0112836
0.00295458
-0.00778298
0.00383019
-0.00230318
0.00475149
0.00317709
0.00559767
0.00720789
0.00622604
0.00961606
0.00643436
0.0116096
0.00638255
0.0135779
0.00653142
0.0134993
0.00713151
0.00889307
0.000746336
0.00809411
-0.000122862
0.000896776
-0.000250111
0.00285998
-0.000322608
0.00521762
-0.000273384
0.00735247
-9.33041e-05
0.00810799
0.00023732
0.00638907
0.000713654
0.00235099
0.00127213
-0.00276498
0.00180048
-0.00726298
0.00222112
-0.0103059
0.00250213
-0.0119237
0.00266707
-0.0124496
0.00266984
-0.0122658
0.00248073
-0.0119482
0.00243497
-0.0112379
0.0028776
-0.00822561
0.00370438
-0.00312996
0.00464694
0.00223454
0.00554004
0.00631479
0.00620106
0.00895504
0.00641965
0.011391
0.00641918
0.0135784
0.00670683
0.0132116
0.00745075
0.00814915
-0.000228668
0.00842575
-0.000114008
0.00101078
-0.000227956
0.00297393
-0.000281352
0.00527101
-0.000205686
0.00727681
1.53653e-06
0.00790077
0.000358726
0.00603188
0.000854117
0.0018556
0.00141834
-0.0033292
0.00193601
-0.00778065
0.002338
-0.0107078
0.00259975
-0.0121854
0.0027488
-0.0125986
0.00276604
-0.012283
0.00259284
-0.011775
0.00248986
-0.0111349
0.00283512
-0.00857087
0.00361218
-0.00390703
0.00457386
0.00127285
0.00550229
0.00538636
0.00618774
0.00826959
0.0064217
0.011157
0.00647966
0.0135204
0.00690416
0.0127871
0.00780204
0.00725127
-0.00122809
0.00880146
-0.000104569
0.00111535
-0.000204138
0.0030735
-0.00023713
0.00530401
-0.000134168
0.00717384
0.000103542
0.00766306
0.000483776
0.00565164
0.000998314
0.00134106
0.00156681
-0.0038977
0.00207243
-0.00828628
0.00245463
-0.01109
0.00269835
-0.0124291
0.00283157
-0.0127318
0.00286087
-0.0123123
0.00271521
-0.0116293
0.00257333
-0.010993
0.00282911
-0.00882664
0.00355795
-0.00463587
0.0045328
0.000297998
0.00548183
0.00443733
0.00618413
0.00756729
0.00644168
0.0108995
0.00656357
0.0133985
0.00711699
0.0122337
0.00817503
0.00619324
-0.00226347
0.00921041
-9.46704e-05
0.00121002
-0.000178941
0.00315777
-0.000190464
0.00531553
-5.97817e-05
0.00704316
0.000206601
0.00739667
0.000611448
0.00524679
0.00114498
0.000807522
0.00171609
-0.0044688
0.00220829
-0.00877847
0.00256981
-0.0114516
0.00279639
-0.0126557
0.0029149
-0.0128504
0.00295272
-0.0123501
0.00284257
-0.0115192
0.00268099
-0.0108314
0.00285828
-0.00900394
0.00354056
-0.00531814
0.00451942
-0.000680867
0.00547408
0.00348268
0.00618714
0.00685422
0.00647937
0.0106073
0.00667624
0.0132016
0.00735504
0.0115549
0.00857081
0.00497746
-0.00333671
0.00964406
-8.44429e-05
0.00129447
-0.000152661
0.00322599
-0.000141883
0.00530475
1.67571e-05
0.00688452
0.000311179
0.00710225
0.000740715
0.00481726
0.0012928
0.000255442
0.00186473
-0.00504074
0.00234214
-0.00925588
0.00268243
-0.0117919
0.00289238
-0.0128657
0.00299817
-0.0129561
0.00304071
-0.0123927
0.0029697
-0.0114481
0.0028077
-0.0106694
0.00291905
-0.00911529
0.0035526
-0.00595169
0.00452441
-0.00165268
0.005473
0.00253409
0.00619182
0.0061354
0.00653114
0.0102679
0.00682727
0.0129055
0.00764063
0.0107415
0.00899584
0.00362226
-0.00443394
0.0100931
-7.40231e-05
0.00136849
-0.000125604
0.00327757
-9.19042e-05
0.00527105
9.49426e-05
0.00669768
0.000416351
0.00678084
0.000870513
0.0043631
0.0014404
-0.000314441
0.00201131
-0.00561166
0.00247257
-0.00971714
0.00279144
-0.0121107
0.00298502
-0.0130593
0.00308057
-0.0130517
0.00312463
-0.0124367
0.00309194
-0.0114155
0.00294799
-0.0105255
0.00300689
-0.00917419
0.0035833
-0.0065281
0.00453452
-0.0026039
0.00547131
0.0015973
0.00619062
0.00541608
0.00658839
0.00987017
0.00702181
0.0124721
0.00799028
0.00977308
0.00945121
0.00216133
-0.00552651
0.0105438
-6.35513e-05
0.00143204
-9.80792e-05
0.00331209
-4.09713e-05
0.00521394
0.000173403
0.0064833
0.000521108
0.00643314
0.000999758
0.00388445
0.00158645
-0.000901135
0.00215443
-0.00617964
0.00259829
-0.010161
0.00289583
-0.0124083
0.00307326
-0.0132367
0.00316105
-0.0131395
0.00320474
-0.0124804
0.00320574
-0.0114165
0.00309584
-0.0104156
0.00311721
-0.00919556
0.00362234
-0.00703324
0.00453667
-0.00351823
0.00546025
0.000673722
0.00617417
0.00470217
0.00663797
0.00940637
0.0072514
0.0118586
0.00839991
0.00862457
0.00992473
0.000636506
-0.00657934
0.0109776
-5.31703e-05
0.00148521
-7.04016e-05
0.00332933
1.0287e-05
0.00513325
0.000251437
0.00624215
0.000624438
0.00606014
0.00112739
0.00338149
0.0017297
-0.00150344
0.00229281
-0.00674275
0.00271814
-0.0105863
0.00299463
-0.0126847
0.00315634
-0.0133984
0.00323842
-0.0132215
0.0032815
-0.0125235
0.00330912
-0.0114441
0.00324451
-0.010351
0.00324525
-0.0091963
0.00366434
-0.00745233
0.00452072
-0.00437461
0.00542925
-0.000234805
0.00613305
0.00399837
0.00666661
0.00887281
0.00749648
0.0110288
0.00884507
0.00727598
0.010394
-0.00091245
-0.00755849
0.0113732
-4.30231e-05
0.00152823
-4.28874e-05
0.00332919
6.09053e-05
0.00502946
0.000328208
0.00597485
0.000725341
0.005663
0.00125242
0.00285442
0.00186896
-0.00211998
0.00242523
-0.00729902
0.00283108
-0.0109922
0.00308696
-0.0129406
0.00323375
-0.0135452
0.00331152
-0.0132993
0.00335523
-0.0125672
0.00340188
-0.0114907
0.003387
-0.0103361
0.00338556
-0.00919485
0.00371
-0.00777677
0.00448214
-0.00514675
0.00536609
-0.00111876
0.00605904
0.00330542
0.00666946
0.00826239
0.00774195
0.00995628
0.00929833
0.0057196
0.0108318
-0.0024459
-0.00843685
0.0117101
-3.32514e-05
0.00156149
-1.58482e-05
0.00331179
0.000111034
0.00490258
0.000402869
0.00568301
0.000822874
0.005243
0.00137398
0.00230331
0.00200319
-0.00274919
0.00255065
-0.00784648
0.00293625
-0.0113778
0.0031721
-0.0131765
0.00330511
-0.0136782
0.00337942
-0.0133736
0.00342586
-0.0126137
0.00348527
-0.0115501
0.00351731
-0.0103681
0.00353181
-0.00920936
0.00376442
-0.00800937
0.00442244
-0.00580478
0.00525974
-0.00195606
0.00594544
0.00261972
0.00665688
0.00755095
0.00799179
0.00862136
0.00973702
0.00397437
0.0112145
-0.00392336
-0.00919356
0.0119712
-2.39925e-05
0.00158548
1.04076e-05
0.00327739
0.000159954
0.00475303
0.000474572
0.0053684
0.000916201
0.00480137
0.00149138
0.00172812
0.00213152
-0.00338932
0.00266816
-0.00838312
0.00303294
-0.0117426
0.00324948
-0.013393
0.00337013
-0.0137989
0.00344157
-0.0134451
0.00349289
-0.012665
0.00356133
-0.0116186
0.0036319
-0.0104387
0.00367702
-0.00925448
0.00383379
-0.00816614
0.00435089
-0.00632187
0.00510553
-0.0027107
0.00579077
0.00193448
0.00665346
0.00668826
0.00826226
0.00701256
0.0101456
0.00209103
0.0115208
-0.00529855
-0.0098168
0.012144
-1.53748e-05
0.00160085
3.55781e-05
0.00322643
0.000207117
0.00458149
0.000542486
0.00503303
0.00100466
0.0043392
0.00160414
0.00112864
0.00225319
-0.00403837
0.00277699
-0.00890692
0.00312058
-0.0120862
0.00331872
-0.0135912
0.00342855
-0.0139087
0.00349779
-0.0135143
0.00355551
-0.0127227
0.003632
-0.0116951
0.00373056
-0.0105373
0.00381428
-0.0093382
0.00392249
-0.00827435
0.00428586
-0.00668524
0.00491646
-0.0033413
0.00561208
0.00123886
0.00669394
0.0056064
0.00856764
0.00513886
0.0105051
0.000153609
0.0117327
-0.00652621
-0.0103068
0.0122227
-7.49639e-06
0.00160835
5.93733e-05
0.00315956
0.00025197
0.0043889
0.000605826
0.00467917
0.00108783
0.0038572
0.001712
0.000504464
0.0023676
-0.00469397
0.00287654
-0.00941586
0.00319878
-0.0124084
0.00337963
-0.013772
0.00348017
-0.0140092
0.00354813
-0.0135822
0.00361299
-0.0127876
0.00369843
-0.0117805
0.00381591
-0.0106547
0.00393831
-0.00946061
0.00403102
-0.00836705
0.00425456
-0.00690879
0.00473791
-0.00382465
0.00546617
0.000510598
0.00682239
0.00425019
0.008906
0.00305524
0.0107927
-0.00173313
0.0118381
-0.0075716
-0.0106778
0.0122092
-2.30792e-07
0.00160858
8.15168e-05
0.00307782
0.00029394
0.00417647
0.000663907
0.0043092
0.0011656
0.0033555
0.00181492
-0.000144852
0.00247428
-0.00535332
0.00296636
-0.00990794
0.00326729
-0.0127093
0.00343215
-0.0139369
0.00352492
-0.014102
0.00359274
-0.0136501
0.00366489
-0.0128597
0.00376076
-0.0118764
0.00389183
-0.0107858
0.00404697
-0.00961575
0.00415526
-0.00847534
0.00428728
-0.00704082
0.0046496
-0.00418697
0.00545157
-0.00029137
0.00708104
0.00262072
0.00925496
0.000881327
0.0109823
-0.00346052
0.011833
-0.00842222
-0.0109576
0.0121128
5.34291e-06
0.00160324
0.000101745
0.00298141
0.000332435
0.00394578
0.00071622
0.00392542
0.00123828
0.00283344
0.00191302
-0.000819593
0.00257283
-0.00601313
0.00304612
-0.0103812
0.00332604
-0.0129892
0.00347633
-0.0140872
0.00356285
-0.0141885
0.00363171
-0.0137189
0.00371117
-0.0129392
0.00381845
-0.0119836
0.00396165
-0.010929
0.00414158
-0.00979568
0.00428721
-0.00862098
0.00440331
-0.00715691
0.00472883
-0.00451249
0.00565579
-0.00121833
0.00746926
0.000807246
0.00956479
-0.00121421
0.0110523
-0.00494798
0.0117235
-0.00909345
-0.0111836
0.0119495
1.01359e-05
0.0015931
0.00011982
0.00287173
0.000366867
0.00369874
0.000762541
0.00352974
0.00130656
0.00228943
0.0020065
-0.00151954
0.00266292
-0.00666955
0.00311565
-0.010834
0.00337508
-0.0132487
0.00351236
-0.0142244
0.00359412
-0.0142703
0.00366514
-0.0137899
0.00375204
-0.0130261
0.00387086
-0.0121025
0.004027
-0.0110851
0.00422582
-0.0099945
0.00441772
-0.00881288
0.00459179
-0.00733098
0.00499327
-0.00491398
0.00605933
-0.00228439
0.00790507
-0.00103849
0.00976928
-0.00307842
0.0109915
-0.00617017
0.0115276
-0.00962953
-0.0113958
0.0117397
1.37819e-05
0.00157932
0.000135519
0.00274999
0.000396704
0.00343755
0.000803053
0.0031234
0.00137156
0.00172092
0.00209556
-0.00224353
0.00274428
-0.00731827
0.00317487
-0.0112646
0.00341462
-0.0134884
0.0035405
-0.0143503
0.00361898
-0.0143488
0.00369312
-0.0138641
0.00378771
-0.0131207
0.00391773
-0.0122325
0.00408788
-0.0112553
0.00430348
-0.0102101
0.00454037
-0.00904977
0.00481303
-0.00760364
0.00535834
-0.00545929
0.00652523
-0.00345127
0.00825228
-0.00276554
0.00981757
-0.00464371
0.0108127
-0.00716534
0.0112737
-0.0100904
-0.0116274
0.0115053
1.62168e-05
0.0015631
0.000148639
0.00261757
0.000421556
0.00316464
0.000838459
0.00270649
0.00143471
0.00112467
0.00218022
-0.00298904
0.00281663
-0.00795468
0.00322386
-0.0116718
0.00344495
-0.0137095
0.0035611
-0.0144665
0.00363773
-0.0144254
0.00371579
-0.0139421
0.00381836
-0.0132233
0.00395913
-0.0123733
0.00414354
-0.0114397
0.0043764
-0.010443
0.00465334
-0.00932671
0.0050231
-0.00797341
0.00569965
-0.00613584
0.00688708
-0.0046387
0.00841476
-0.00429322
0.00971111
-0.00594006
0.0105555
-0.00800969
0.0109946
-0.0105295
-0.0118974
0.0112646
1.74116e-05
0.00154569
0.000159012
0.00247597
0.000441296
0.00288235
0.000870047
0.00227774
0.00149754
0.000497172
0.00226032
-0.00375182
0.00287975
-0.0085741
0.0032628
-0.0120549
0.00346649
-0.0139132
0.0035746
-0.0145746
0.00365067
-0.0145015
0.00373337
-0.0140248
0.00384406
-0.013334
0.00399524
-0.0125244
0.00419336
-0.0116378
0.00444409
-0.0106937
0.00475605
-0.00963867
0.00519586
-0.00841322
0.00594013
-0.0068801
0.00707368
-0.00577225
0.00840073
-0.00562027
0.00950603
-0.00704536
0.0102697
-0.00877334
0.0107171
-0.010977
-0.0122099
0.0110296
1.73677e-05
0.00152832
0.000166516
0.00232682
0.000456193
0.00259267
0.00089965
0.00183428
0.00156144
-0.000164613
0.00233545
-0.00452584
0.00293346
-0.00917211
0.00329197
-0.0124134
0.00347972
-0.014101
0.00358144
-0.0146763
0.00365815
-0.0145782
0.00374607
-0.0141128
0.00386491
-0.0134528
0.00402616
-0.0126857
0.00423709
-0.0118488
0.00450497
-0.0109616
0.00484633
-0.00998003
0.00532626
-0.00889315
0.00607929
-0.00763313
0.00712424
-0.0068172
0.00828895
-0.00678499
0.00927037
-0.00802677
0.00999206
-0.00949503
0.0104553
-0.0114402
-0.0125596
0.0108051
1.61182e-05
0.0015122
0.000171113
0.00217183
0.000467027
0.00229676
0.000929512
0.0013718
0.00162733
-0.000862429
0.00240494
-0.00530345
0.00297766
-0.00974483
0.00331178
-0.0127475
0.0034852
-0.0142744
0.00358211
-0.0147732
0.00366052
-0.0146566
0.00375411
-0.0142064
0.003881
-0.0135797
0.00405189
-0.0128566
0.0042746
-0.0120715
0.00455772
-0.0112447
0.00492185
-0.0103442
0.00542114
-0.00939244
0.00615367
-0.00836566
0.00710917
-0.00777271
0.00814963
-0.00782545
0.00904397
-0.0089211
0.00973675
-0.0101878
0.0102124
-0.0119159
-0.0129387
0.0105915
1.37312e-05
0.00149847
0.000172897
0.00201266
0.000475151
0.00199451
0.000962024
0.000884926
0.00169545
-0.00159585
0.00246803
-0.00607604
0.00301236
-0.0102892
0.00332273
-0.0130578
0.00348353
-0.0144352
0.00357711
-0.0148668
0.00365812
-0.0147376
0.00375769
-0.0143059
0.00389246
-0.0137145
0.00407242
-0.0130365
0.00430574
-0.0123048
0.00460167
-0.0115406
0.0049821
-0.0107246
0.00548903
-0.00989937
0.00619279
-0.00906942
0.00707013
-0.00865005
0.00801222
-0.00876753
0.00883705
-0.00974594
0.00950385
-0.0108546
0.00998679
-0.0123988
-0.0133398
0.0103879
1.03143e-05
0.00148816
0.000172152
0.00185082
0.000482443
0.00168422
0.000999392
0.000367978
0.00176518
-0.00236164
0.00252391
-0.00683476
0.00303769
-0.0108029
0.00332541
-0.0133456
0.00347532
-0.0145851
0.00356693
-0.0149584
0.00365128
-0.014822
0.00375701
-0.0144117
0.00389939
-0.0138568
0.00408776
-0.0132249
0.00433042
-0.0125474
0.00463672
-0.0118469
0.00502795
-0.0111158
0.00553564
-0.0104071
0.00620965
-0.00974342
0.00702023
-0.00946064
0.00788154
-0.00962883
0.00864774
-0.0105121
0.00928978
-0.0114966
0.00977591
-0.012885
-0.0137569
0.010193
6.02938e-06
0.00148213
0.000169412
0.00168744
0.000491144
0.00136248
0.00104329
-0.00018417
0.00183517
-0.00315351
0.00257185
-0.00757145
0.00305394
-0.011285
0.00332046
-0.0136121
0.00346119
-0.0147258
0.00355204
-0.0150492
0.00364031
-0.0149102
0.00375227
-0.0145236
0.00390189
-0.0140065
0.00409794
-0.0134209
0.00434859
-0.0127981
0.00466296
-0.0121613
0.00506059
-0.0115135
0.00556444
-0.0109109
0.00620936
-0.0103883
0.00696256
-0.0102138
0.00775645
-0.0104227
0.00847256
-0.0112282
0.00909114
-0.0121152
0.00957752
-0.0133713
-0.0141855
0.0100061
1.20975e-06
0.00148092
0.000165496
0.00152315
0.000503572
0.00102441
0.00109456
-0.000775161
0.00190352
-0.00396248
0.00261135
-0.00827927
0.00306152
-0.0117352
0.00330855
-0.0138591
0.00344176
-0.014859
0.00353288
-0.0151403
0.00362551
-0.0150029
0.00374364
-0.0146417
0.00390007
-0.0141629
0.00410301
-0.0136239
0.00436033
-0.0130554
0.00468066
-0.0124816
0.00508114
-0.0119139
0.00557803
-0.0114078
0.00619502
-0.0110053
0.00689855
-0.0109174
0.00763567
-0.0111599
0.00830862
-0.0119012
0.00890512
-0.0127117
0.0093895
-0.0138557
-0.0146215
0.00982555
-4.47056e-06
0.00148539
0.000161515
0.00135717
0.000521792
0.00066413
0.00115301
-0.00140638
0.00196821
-0.00477767
0.00264211
-0.00895317
0.00306097
-0.0121541
0.00329039
-0.0140886
0.00341761
-0.0149862
0.00350987
-0.0152326
0.00360714
-0.0151001
0.00373129
-0.0147659
0.00389402
-0.0143256
0.00410303
-0.0138329
0.00436575
-0.0133181
0.00469013
-0.012806
0.00509068
-0.0123145
0.00557853
-0.0118956
0.00616899
-0.0115958
0.0068293
-0.0115777
0.00751811
-0.0118487
0.00815352
-0.0125366
0.00872938
-0.0132876
0.00921007
-0.0143364
-0.0150619
0.00965041
-1.04903e-05
0.00149588
0.000158827
0.00118785
0.00054732
0.000275638
0.00121737
-0.00207643
0.00202734
-0.00558765
0.0026641
-0.00958993
0.00305292
-0.0125429
0.00326666
-0.0143023
0.00338927
-0.0151088
0.00348338
-0.0153267
0.00358544
-0.0152022
0.00371536
-0.0148958
0.00388385
-0.0144941
0.00409811
-0.0140472
0.004365
-0.013585
0.00469174
-0.0131327
0.0050902
-0.012713
0.00556764
-0.0123731
0.00613305
-0.0121612
0.0067556
-0.0122002
0.00740281
-0.0124959
0.0080053
-0.0131391
0.00856201
-0.0138443
0.00903762
-0.014812
-0.015504
0.00947981
-1.63293e-05
0.00151221
0.000158925
0.0010126
0.000580938
-0.000146375
0.00128548
-0.00278097
0.00207946
-0.00638163
0.00267756
-0.010188
0.00303808
-0.0129034
0.00323803
-0.0145022
0.00335725
-0.0152281
0.00345374
-0.0154232
0.00356062
-0.0153091
0.00369601
-0.0150312
0.00386967
-0.0146678
0.00408834
-0.0142658
0.00435827
-0.013855
0.0046859
-0.0134603
0.00508059
-0.0131076
0.00554677
-0.0128393
0.00608864
-0.0127031
0.006678
-0.0127896
0.00728897
-0.0131068
0.00786243
-0.0137126
0.00840138
-0.0143832
0.00887078
-0.0152814
-0.0159462
0.00931289
-2.17179e-05
0.00153393
0.000163265
0.000827613
0.000622653
-0.000605763
0.00135463
-0.00351295
0.00212359
-0.00715058
0.00268289
-0.0107473
0.00301714
-0.0132377
0.00320512
-0.0146902
0.003322
-0.0153449
0.00342125
-0.0155224
0.00353288
-0.0154207
0.00367334
-0.0151717
0.00385159
-0.014846
0.00407386
-0.0144881
0.00434579
-0.0141269
0.00467301
-0.0137876
0.00506266
-0.0134973
0.0055171
-0.0132937
0.00603689
-0.0132228
0.00659693
-0.0133496
0.00717592
-0.0136858
0.0077237
-0.0142603
0.00824611
-0.0149057
0.00870831
-0.0157436
-0.0163867
0.00914887
-2.62812e-05
0.00156021
0.000173072
0.00062826
0.000671761
-0.00110445
0.00142205
-0.00426324
0.00215925
-0.00788778
0.00268066
-0.0112687
0.00299083
-0.0135478
0.0031685
-0.0148679
0.00328392
-0.0154604
0.00338617
-0.0156247
0.00350237
-0.0155369
0.00364749
-0.0153168
0.00382971
-0.0150282
0.00405479
-0.0147132
0.00432777
-0.0143999
0.00465349
-0.0141133
0.00503714
-0.0138809
0.0054796
-0.0137362
0.00597872
-0.013722
0.00651264
-0.0138835
0.00706314
-0.0142363
0.00758813
-0.0147853
0.00809497
-0.0154125
0.00854917
-0.0161978
-0.0168246
0.00898711
-2.96008e-05
0.00158981
0.000189154
0.000409505
0.000726958
-0.00164226
0.00148531
-0.00502159
0.0021864
-0.00858888
0.00267153
-0.0117539
0.00295982
-0.0138361
0.00312869
-0.0150367
0.00324335
-0.015575
0.00334873
-0.0157301
0.00346926
-0.0156574
0.00361857
-0.0154661
0.00380413
-0.0152138
0.00403129
-0.0149403
0.00430446
-0.014673
0.00462773
-0.0144366
0.00500467
-0.0142579
0.00543508
-0.0141666
0.00591488
-0.0142018
0.00642534
-0.014394
0.00695022
-0.0147612
0.00745493
-0.01529
0.00794685
-0.0159044
0.00839252
-0.0166435
-0.0172592
0.00882712
-3.12356e-05
0.00162105
0.000211791
0.000166478
0.000786471
-0.00221694
0.00154259
-0.00577772
0.00220529
-0.00925157
0.00265619
-0.0122048
0.00292475
-0.0141047
0.00308614
-0.0151981
0.0032006
-0.0156895
0.00330912
-0.0158386
0.00343367
-0.015782
0.00358668
-0.0156191
0.00377499
-0.0154021
0.00400351
-0.0151688
0.00427609
-0.0149456
0.00459612
-0.0147566
0.00496583
-0.0146276
0.00538424
-0.014585
0.00584596
-0.0146635
0.00633516
-0.0148832
0.00683687
-0.0152629
0.00732339
-0.0157766
0.00780079
-0.0163818
0.00823769
-0.0170804
-0.0176903
0.00866872
-3.07443e-05
0.00165179
0.000240738
-0.000105004
0.000848207
-0.0028244
0.00159277
-0.00652228
0.00221638
-0.00987519
0.00263534
-0.0126237
0.00288618
-0.0143555
0.00304126
-0.0153532
0.00315592
-0.0158041
0.00326749
-0.0159502
0.00339571
-0.0159102
0.00355193
-0.0157753
0.00374238
-0.0155926
0.00397159
-0.0153981
0.00424289
-0.0152169
0.00455901
-0.0150727
0.00492112
-0.0149897
0.00532766
-0.0149915
0.00577245
-0.0151083
0.0062422
-0.015353
0.00672284
-0.0157435
0.00719291
-0.0162466
0.007656
-0.0168449
0.00808424
-0.0175086
-0.0181177
0.00851171
-2.77176e-05
0.00167951
0.000275338
-0.000408059
0.000909962
-0.00345903
0.0016353
-0.00724761
0.00222028
-0.0104602
0.00260964
-0.0130131
0.00284464
-0.0145905
0.0029944
-0.015503
0.00310953
-0.0159193
0.003224
-0.0160647
0.0033555
-0.0160417
0.0035144
-0.0159342
0.00370643
-0.0157846
0.00393571
-0.0156273
0.0042051
-0.0154863
0.00451674
-0.0153844
0.00487099
-0.015344
0.00526585
-0.0153864
0.00569474
-0.0155372
0.00614655
-0.0158048
0.00660796
-0.0162049
0.00706294
-0.0167016
0.0075119
-0.0172939
0.00793192
-0.0179286
-0.0185421
0.00835627
-2.18209e-05
0.00170133
0.000314685
-0.000744566
0.00096966
-0.004114
0.0016701
-0.00794805
0.00221764
-0.0110077
0.00257973
-0.0133752
0.00280058
-0.0148114
0.00294584
-0.0156482
0.00306162
-0.0160351
0.00317877
-0.0161818
0.00331312
-0.016176
0.0034742
-0.0160953
0.00366725
-0.0159776
0.00389601
-0.0158561
0.00416293
-0.0157532
0.00446964
-0.0156911
0.00481585
-0.0156902
0.00519924
-0.0157698
0.00561318
-0.0159511
0.00604828
-0.0162399
0.00649205
-0.0166487
0.00693296
-0.0171425
0.0073681
-0.017729
0.00778085
-0.0183414
-0.0189626
0.00820131
-1.28191e-05
0.00171415
0.000357779
-0.00111516
0.00102558
-0.0047818
0.00169739
-0.00861986
0.0022091
-0.0115194
0.00254618
-0.0137123
0.00275439
-0.0150196
0.00289584
-0.0157897
0.00301233
-0.0161515
0.00313188
-0.0163014
0.00326865
-0.0163128
0.00343142
-0.0162581
0.00362494
-0.0161712
0.00385265
-0.0160838
0.00411662
-0.0160172
0.00441799
-0.0159924
0.00475604
-0.0160282
0.0051282
-0.0161419
0.00552802
-0.0163509
0.00594745
-0.0166593
0.00637499
-0.0170762
0.00680247
-0.01757
0.00722435
-0.0181509
0.007631
-0.0187481
-0.0193791
0.00804759
-1.75033e-08
0.00171417
0.000403601
-0.00151878
0.00107647
-0.00545467
0.00171757
-0.00926095
0.00219532
-0.0119972
0.00250948
-0.0140264
0.00270642
-0.0152165
0.00284459
-0.0159279
0.0029618
-0.0162688
0.00308344
-0.016423
0.00322219
-0.0164515
0.00338613
-0.016422
0.00357963
-0.0163647
0.00380579
-0.01631
0.00406635
-0.0162777
0.00436207
-0.0162882
0.00469188
-0.016358
0.00505306
-0.0165031
0.00543949
-0.0167374
0.00584413
-0.0170639
0.00625665
-0.0174888
0.00667107
-0.0179844
0.00708044
-0.0185603
0.00748302
-0.0191506
-0.0197848
0.0078887
1.37943e-05
0.00170037
0.000451123
-0.00195611
0.00112161
-0.00612516
0.0017311
-0.00987044
0.00217684
-0.0124429
0.00247004
-0.0143196
0.00265688
-0.0154033
0.0027922
-0.0160632
0.00291003
-0.0163866
0.00303341
-0.0165464
0.00317368
-0.0165918
0.00333831
-0.0165867
0.00353129
-0.0165576
0.00375544
-0.0165341
0.00401219
-0.0165345
0.00430197
-0.0165779
0.00462349
-0.0166795
0.00497392
-0.0168536
0.00534758
-0.017111
0.0057382
-0.0174546
0.00613669
-0.0178873
0.00653837
-0.0183861
0.0069358
-0.0189577
0.00733022
-0.0195451
-0.0201832
0.0077286
3.07309e-05
0.00166964
0.000499316
-0.0024247
0.00116072
-0.00678656
0.00173858
-0.0104483
0.00215431
-0.0128587
0.00242837
-0.0145937
0.00260617
-0.0155811
0.00273897
-0.016196
0.00285729
-0.0165049
0.00298207
-0.0166712
0.00312342
-0.0167332
0.00328829
-0.0167516
0.00348029
-0.0167496
0.00370202
-0.0167559
0.0039546
-0.0167871
0.00423823
-0.0168616
0.00455145
-0.0169928
0.00489139
-0.0171935
0.00525283
-0.0174725
0.00563013
-0.0178319
0.00601539
-0.0182725
0.00640473
-0.0187755
0.0067916
-0.0193445
0.00717685
-0.0199303
-0.0205678
0.00756148
4.95613e-05
0.00162008
0.000547107
-0.00292224
0.00119378
-0.00743323
0.00174053
-0.0109951
0.00212819
-0.0132463
0.00238476
-0.0148503
0.00255442
-0.0157508
0.00268493
-0.0163265
0.00280357
-0.0166235
0.00292937
-0.016797
0.00307136
-0.0168752
0.00323602
-0.0169162
0.00342661
-0.0169402
0.00364552
-0.0169748
0.00389364
-0.0170352
0.00417093
-0.0171389
0.00447583
-0.0172977
0.00480551
-0.0175232
0.00515518
-0.0178221
0.00551977
-0.0181964
0.00589244
-0.0186452
0.0062699
-0.0191529
0.00664595
-0.0197206
0.00702377
-0.0203081
-0.020944
0.00739997
6.96081e-05
0.00155047
0.000593435
-0.00344607
0.00122099
-0.00806078
0.00173746
-0.0115115
0.00209891
-0.0136078
0.00233951
-0.0150909
0.0025018
-0.0159131
0.00263017
-0.0164549
0.00274891
-0.0167423
0.00287535
-0.0169234
0.00301756
-0.0170174
0.00318157
-0.0170802
0.00337037
-0.017129
0.0035861
-0.0171905
0.00382946
-0.0172786
0.00410024
-0.0174096
0.00439683
-0.0175943
0.00471647
-0.0178428
0.00505478
-0.0181604
0.00540718
-0.0185488
0.0057678
-0.0190058
0.0061336
-0.0195187
0.00649973
-0.0200867
0.00686824
-0.0206766
-0.0213107
0.00723488
9.02818e-05
0.00146019
0.000637322
-0.00399311
0.00124262
-0.00866609
0.00172985
-0.0119988
0.0020669
-0.0139448
0.00229287
-0.0153168
0.00244845
-0.0160687
0.00257477
-0.0165812
0.00269337
-0.0168609
0.00282008
-0.0170501
0.00296208
-0.0171594
0.00312504
-0.0172432
0.00331165
-0.0173156
0.00352387
-0.0174027
0.00376222
-0.0175169
0.00402636
-0.0176738
0.00431466
-0.0178825
0.00462444
-0.0181526
0.00495174
-0.0184877
0.0052924
-0.0188895
0.00564137
-0.0193548
0.00599596
-0.0198733
0.00635196
-0.0204427
0.00671106
-0.0210357
-0.0216696
0.00707002
0.00011113
0.00134906
0.000677952
-0.00455993
0.00125903
-0.00924717
0.00171816
-0.0124579
0.00203249
-0.0142591
0.00224507
-0.0155294
0.00239449
-0.0162181
0.00251878
-0.0167055
0.00263699
-0.0169791
0.00276358
-0.0171767
0.00290498
-0.0173008
0.0030665
-0.0174047
0.00325056
-0.0174997
0.00345897
-0.0176111
0.00369208
-0.01775
0.00394946
-0.0179312
0.00422947
-0.0181626
0.00452958
-0.0184527
0.00484617
-0.0188043
0.00517549
-0.0192188
0.00551316
-0.0196925
0.00585677
-0.0202169
0.0062028
-0.0207887
0.00655243
-0.0213854
-0.02202
0.00690285
0.000131884
0.00121717
0.000714734
-0.00514278
0.00127057
-0.009803
0.0017028
-0.0128901
0.00199602
-0.0145523
0.0021963
-0.0157297
0.00234001
-0.0163618
0.00246225
-0.0168277
0.00257979
-0.0170966
0.00270591
-0.0173028
0.00284631
-0.0174412
0.00300602
-0.0175644
0.0031872
-0.0176809
0.00339151
-0.0178154
0.00361917
-0.0179777
0.00386969
-0.0181817
0.00414144
-0.0184343
0.00443202
-0.0187433
0.00473816
-0.0191105
0.00505647
-0.0195371
0.00538314
-0.0200191
0.00571603
-0.0205498
0.00605209
-0.0211248
0.00639214
-0.0217254
-0.0223621
0.00673424
0.000152459
0.00106472
0.000747324
-0.00573765
0.0012776
-0.0103333
0.00168415
-0.0132967
0.00195775
-0.0148259
0.0021467
-0.0159186
0.00228509
-0.0165002
0.00240521
-0.0169478
0.00252181
-0.0172132
0.00264709
-0.0174281
0.00278613
-0.0175802
0.00294368
-0.017722
0.00312166
-0.0178588
0.00332162
-0.0180154
0.00354364
-0.0181997
0.0037872
-0.0184253
0.00405071
-0.0186978
0.0043319
-0.0190245
0.00462782
-0.0194064
0.00493539
-0.0198447
0.00525132
-0.0203351
0.00557366
-0.0208722
0.00589978
-0.0214509
0.00623032
-0.022056
-0.0226955
0.00656367
0.000172932
0.000891784
0.000775601
-0.00634032
0.0012805
-0.0108382
0.00166256
-0.0136787
0.00191793
-0.0150813
0.00209643
-0.0160971
0.00222979
-0.0166335
0.0023477
-0.0170658
0.00246308
-0.0173286
0.00258716
-0.0175522
0.00272449
-0.0177175
0.00287955
-0.017877
0.00305404
-0.0180333
0.0032494
-0.0182107
0.00346561
-0.0184159
0.00370213
-0.0186618
0.00395741
-0.0189531
0.00422934
-0.0192964
0.00451522
-0.0196923
0.0048123
-0.0201418
0.0051177
-0.0206405
0.00542965
-0.0211841
0.00574587
-0.0217671
0.00606683
-0.0223769
-0.02302
0.00639133
0.000193481
0.000698303
0.000799622
-0.00694646
0.00127963
-0.0113182
0.00163835
-0.0140375
0.00187679
-0.0153198
0.00204558
-0.0162659
0.00217416
-0.0167621
0.00228974
-0.0171813
0.00240361
-0.0174425
0.00252616
-0.0176747
0.00266145
-0.0178528
0.0028137
-0.0180293
0.00298442
-0.0182041
0.00317495
-0.0184013
0.0033852
-0.0186261
0.0036146
-0.0188912
0.00386166
-0.0192002
0.00412444
-0.0195592
0.00440046
-0.0199683
0.00468725
-0.0204286
0.00498228
-0.0209355
0.00528397
-0.0214858
0.0055903
-0.0220735
0.0059017
-0.0226883
-0.0233354
0.00621711
0.000214322
0.000483981
0.000819563
-0.0075517
0.00127532
-0.0117739
0.0016118
-0.0143739
0.00183449
-0.0155424
0.00199426
-0.0164257
0.00211823
-0.0168861
0.00223133
-0.0172944
0.00234342
-0.0175546
0.00246413
-0.0177954
0.00259704
-0.0179857
0.00274619
-0.0181784
0.00291289
-0.0183708
0.00309839
-0.0185868
0.00330253
-0.0188303
0.00352474
-0.0191134
0.0037636
-0.019439
0.0040173
-0.0198129
0.0042836
-0.0202346
0.00456027
-0.0207052
0.00484509
-0.0212203
0.00513662
-0.0217773
0.0054331
-0.02237
0.00573488
-0.0229901
-0.0236416
0.00604106
0.000235643
0.000248338
0.000835666
-0.00815172
0.00126789
-0.0122062
0.00158319
-0.0146892
0.00179122
-0.0157505
0.00194254
-0.016577
0.00206203
-0.0170056
0.00217251
-0.0174049
0.00228255
-0.0176646
0.00240109
-0.017914
0.00253133
-0.018116
0.0026771
-0.0183242
0.00283953
-0.0185332
0.00301981
-0.0187671
0.0032177
-0.0190282
0.00343266
-0.0193283
0.00366333
-0.0196697
0.00390803
-0.0200576
0.00416473
-0.0204913
0.00443142
-0.0209719
0.00470615
-0.0214951
0.00498761
-0.0220588
0.00527423
-0.0226566
0.00556635
-0.0232822
-0.0239384
0.00586316
0.000257555
-9.21641e-06
0.000848194
-0.00874236
0.00125763
-0.0126156
0.00155274
-0.0149843
0.00174711
-0.0159449
0.00189048
-0.0167204
0.00200559
-0.0171207
0.00211328
-0.0175126
0.002221
-0.0177723
0.00233709