/*--------------------------------*- C++ -*----------------------------------*\
  =========                 |
  \\      /  F ield         | OpenFOAM: The Open Source CFD Toolbox
   \\    /   O peration     | Website:  https://openfoam.org
    \\  /    A nd           | Version:  7
     \\/     M anipulation  |
\*---------------------------------------------------------------------------*/
FoamFile
{
    version     2.0;
    format      ascii;
    class       volVectorField;
    location    "102";
    object      U;
}
// * * * * * * * * * * * * * * * * * * * * * * * * * * * * * * * * * * * * * //

dimensions      [0 1 -1 0 0 0 0];

internalField   nonuniform List<vector> 
26800
(
(-0.062235 0.518094 9.83204e-20)
(-0.090443 0.360389 1.45647e-19)
(0.0988989 -0.0526499 1.59027e-20)
(0.234252 -0.454707 3.42497e-20)
(0.331273 -0.651825 -1.51191e-19)
(0.346657 -0.725119 3.04315e-20)
(0.27117 -0.740844 6.18691e-20)
(0.255542 -0.570194 5.46612e-20)
(0.422374 -0.180657 4.05845e-20)
(0.600341 0.205746 1.18133e-21)
(0.687474 0.445541 4.95641e-21)
(0.751973 0.544724 -2.08704e-21)
(0.749374 0.600253 -2.75494e-22)
(0.673322 0.638099 1.14465e-20)
(0.622191 0.543486 3.01917e-21)
(0.665058 0.232137 -2.44501e-20)
(0.765073 -0.100731 -2.76912e-20)
(0.854228 -0.302864 3.04816e-21)
(0.871472 -0.426606 1.62043e-21)
(0.835115 -0.539712 3.45726e-21)
(-0.0645241 0.523319 -2.77252e-19)
(-0.0845822 0.350366 -4.56364e-19)
(0.130182 -0.0718803 2.16871e-19)
(0.274494 -0.471079 -2.26175e-19)
(0.370568 -0.659068 1.58108e-19)
(0.382384 -0.719002 -2.60941e-21)
(0.311434 -0.72856 -1.21941e-19)
(0.263964 -0.586392 -9.90052e-20)
(0.395425 -0.222558 -6.3364e-20)
(0.560499 0.169061 1.40755e-20)
(0.655029 0.420068 -1.9734e-20)
(0.727971 0.533424 -3.41409e-21)
(0.727006 0.611291 -4.41528e-21)
(0.65376 0.655999 5.14196e-20)
(0.614811 0.544332 4.79665e-21)
(0.69269 0.208873 4.9038e-20)
(0.792887 -0.132049 -1.92592e-20)
(0.874947 -0.322582 -4.43824e-20)
(0.904469 -0.420187 8.75393e-21)
(0.859168 -0.528423 -8.97272e-21)
(-0.0674838 0.52745 -3.45182e-19)
(-0.0786703 0.339207 1.49687e-19)
(0.16389 -0.0907873 1.44668e-19)
(0.316834 -0.485805 -1.08955e-19)
(0.411844 -0.66419 2.72457e-19)
(0.418557 -0.712009 -1.6151e-19)
(0.354113 -0.71284 1.49083e-19)
(0.280753 -0.595541 1.24638e-19)
(0.376207 -0.261295 1.11698e-20)
(0.526686 0.130175 -2.81769e-21)
(0.627689 0.390605 2.571e-20)
(0.706751 0.519726 3.51302e-20)
(0.704951 0.620612 -3.54628e-20)
(0.63492 0.670543 -1.3745e-19)
(0.614936 0.539046 2.07924e-20)
(0.734452 0.184478 -6.12186e-20)
(0.832707 -0.156362 5.83042e-20)
(0.897905 -0.341138 3.61269e-20)
(0.939394 -0.412484 -6.38194e-20)
(0.882028 -0.511297 -1.06818e-20)
(-0.0710873 0.530488 7.37259e-19)
(-0.0725139 0.326881 -2.2871e-19)
(0.200031 -0.109389 -5.83645e-19)
(0.361029 -0.498814 2.91727e-19)
(0.454645 -0.667077 -1.42071e-19)
(0.455265 -0.704223 3.46417e-19)
(0.397915 -0.694433 1.17827e-19)
(0.304927 -0.597746 5.09577e-20)
(0.366174 -0.296024 -8.99864e-20)
(0.500563 0.0897622 1.55011e-20)
(0.605811 0.357832 6.24553e-20)
(0.688999 0.504266 7.21372e-21)
(0.682426 0.628208 1.10961e-19)
(0.617795 0.680753 1.59932e-19)
(0.622591 0.526173 1.25375e-20)
(0.783033 0.158337 3.76991e-20)
(0.881296 -0.172184 1.18247e-20)
(0.925243 -0.356214 3.13468e-20)
(0.971893 -0.403675 3.05418e-20)
(0.904452 -0.486683 4.36749e-20)
(-0.0753055 0.53243 5.6815e-21)
(-0.0658677 0.313362 1.14531e-18)
(0.238566 -0.127667 5.26658e-19)
(0.406819 -0.510027 -6.21057e-19)
(0.498478 -0.667685 5.86922e-20)
(0.492652 -0.695615 -2.86341e-19)
(0.441529 -0.674116 -3.34983e-19)
(0.335496 -0.593465 -2.82229e-19)
(0.365721 -0.32605 3.38997e-21)
(0.483187 0.048744 -2.72265e-20)
(0.589899 0.322622 -2.83596e-19)
(0.674437 0.487819 3.00856e-20)
(0.658982 0.633853 -4.32397e-20)
(0.603498 0.685585 -1.79196e-19)
(0.637413 0.50556 1.3666e-20)
(0.832466 0.129675 6.99816e-20)
(0.932683 -0.180806 -7.73918e-20)
(0.959677 -0.364988 3.90711e-20)
(0.997582 -0.393951 2.31122e-20)
(0.927429 -0.454102 -2.62073e-20)
(-0.0801064 0.533248 -1.046e-18)
(-0.0584167 0.298636 -1.88214e-18)
(0.279409 -0.145566 -1.45155e-18)
(0.453918 -0.519367 1.5998e-18)
(0.542864 -0.666039 4.07544e-19)
(0.53082 -0.68605 -3.46938e-20)
(0.483756 -0.652691 3.17379e-19)
(0.371619 -0.583321 1.04819e-19)
(0.373728 -0.351012 1.66736e-19)
(0.474762 0.00819669 -1.69536e-19)
(0.580121 0.286084 8.92414e-20)
(0.661777 0.471104 -2.88727e-20)
(0.634984 0.637183 3.98911e-20)
(0.592281 0.684221 2.02531e-19)
(0.660196 0.478595 9.11566e-20)
(0.882141 0.0992235 1.02886e-20)
(0.981514 -0.185018 1.0292e-19)
(1.00224 -0.364989 2.57524e-21)
(1.01402 -0.383057 1.79608e-20)
(0.950993 -0.414776 3.86596e-20)
(-0.0854545 0.532896 9.63736e-19)
(-0.0497636 0.282744 2.09752e-18)
(0.322435 -0.16301 1.44283e-18)
(0.502017 -0.526761 -7.05329e-19)
(0.587373 -0.662221 -5.59516e-19)
(0.569718 -0.675321 3.56798e-19)
(0.523709 -0.630947 -1.40661e-19)
(0.41241 -0.567962 3.69016e-20)
(0.388138 -0.370791 8.39398e-20)
(0.474278 -0.0311951 2.5158e-19)
(0.57567 0.249377 1.39156e-19)
(0.649374 0.454564 -1.973e-19)
(0.611045 0.637907 3.77614e-20)
(0.583983 0.676064 -1.11229e-19)
(0.693385 0.447277 -9.05006e-20)
(0.934956 0.0698026 -9.95827e-20)
(1.02551 -0.187027 1.33377e-19)
(1.05023 -0.355027 -2.69836e-19)
(1.02162 -0.370283 2.14502e-20)
(0.973754 -0.371638 -6.38247e-20)
(-0.0913234 0.531381 1.69624e-18)
(-0.0393951 0.265665 4.64325e-19)
(0.367472 -0.179903 -1.52227e-18)
(0.55078 -0.532152 -4.99154e-19)
(0.63164 -0.656343 7.14004e-19)
(0.609063 -0.663217 -5.80715e-19)
(0.560997 -0.609566 1.63499e-19)
(0.456517 -0.54811 1.26613e-19)
(0.407031 -0.385196 -3.18529e-19)
(0.479187 -0.0692789 -8.45122e-20)
(0.574704 0.213366 -2.55457e-20)
(0.635759 0.438303 1.29533e-19)
(0.586954 0.635681 -1.45333e-19)
(0.579587 0.660315 6.07343e-20)
(0.739049 0.412875 -1.45791e-19)
(0.992091 0.0446534 3.58495e-20)
(1.06547 -0.187261 -2.51863e-19)
(1.09726 -0.335626 1.69458e-19)
(1.0235 -0.354595 -8.04202e-20)
(0.993349 -0.3288 -6.55693e-21)
(-0.0977089 0.528741 -9.6191e-19)
(-0.0267167 0.24747 -2.50344e-18)
(0.414314 -0.196123 1.78333e-18)
(0.599859 -0.535506 1.10871e-18)
(0.675362 -0.648524 -8.14387e-19)
(0.648363 -0.6496 2.87914e-19)
(0.595797 -0.588978 -4.33403e-19)
(0.501885 -0.524731 -2.25928e-19)
(0.429692 -0.393673 1.61308e-19)
(0.485849 -0.106013 -9.34513e-20)
(0.57451 0.178363 1.1709e-19)
(0.619361 0.42212 8.44138e-20)
(0.561585 0.629571 -1.43043e-19)
(0.5819 0.635736 -1.27469e-19)
(0.796405 0.375557 8.75345e-20)
(1.05053 0.0254282 2.14046e-19)
(1.10333 -0.184481 3.73203e-20)
(1.13552 -0.309019 -3.83275e-20)
(1.02494 -0.334701 1.71529e-21)
(1.00719 -0.290113 -9.44033e-21)
(-0.10459 0.524885 -1.21962e-18)
(-0.0110681 0.228378 2.74261e-18)
(0.462704 -0.211526 -1.55887e-18)
(0.648906 -0.536815 3.08903e-19)
(0.71827 -0.638873 -1.02857e-18)
(0.687024 -0.634463 1.9214e-19)
(0.628746 -0.569249 3.0825e-19)
(0.546027 -0.49917 -1.22018e-20)
(0.45667 -0.395225 -2.51592e-20)
(0.49093 -0.141212 2.11341e-19)
(0.571562 0.144193 -5.88351e-20)
(0.597965 0.405399 -1.82701e-19)
(0.534168 0.617709 2.58336e-19)
(0.594876 0.601289 1.86668e-20)
(0.861884 0.335779 2.60369e-19)
(1.10528 0.0119048 -1.28816e-19)
(1.13974 -0.176736 1.80309e-19)
(1.15936 -0.278676 3.62393e-20)
(1.03153 -0.309436 -9.55317e-21)
(1.0138 -0.25759 -1.73334e-20)
(-0.111944 0.519685 5.81356e-19)
(0.00825456 0.208695 -3.8737e-18)
(0.512337 -0.225942 3.21497e-18)
(0.697579 -0.536098 -2.25646e-18)
(0.760113 -0.627486 1.22899e-18)
(0.724494 -0.617938 -1.14995e-19)
(0.66063 -0.550095 -1.25662e-20)
(0.58672 -0.473034 -8.15e-20)
(0.488665 -0.388825 -4.81266e-20)
(0.493038 -0.173647 -1.38047e-19)
(0.562003 0.10979 1.76882e-19)
(0.568777 0.386806 2.01914e-19)
(0.505861 0.597604 3.1652e-20)
(0.623061 0.557426 9.89362e-20)
(0.931231 0.295573 -7.49427e-20)
(1.15269 0.00327699 3.83179e-20)
(1.17213 -0.162863 -9.41794e-21)
(1.16857 -0.247919 2.08049e-20)
(1.04495 -0.278866 1.11449e-19)
(1.01447 -0.230655 -3.66871e-20)
(-0.119753 0.512999 -1.22105e-18)
(0.031942 0.188783 -1.78132e-19)
(0.562863 -0.23918 -2.63327e-18)
(0.745556 -0.533395 1.51802e-18)
(0.800638 -0.614458 -2.12783e-20)
(0.760383 -0.600258 -7.25794e-19)
(0.692009 -0.531046 -2.22829e-19)
(0.622719 -0.447826 1.74836e-19)
(0.525092 -0.374197 4.90791e-20)
(0.493622 -0.200253 6.93103e-20)
(0.542708 0.0745911 -8.14155e-20)
(0.529723 0.364298 -7.88316e-20)
(0.48124 0.566802 -9.05568e-20)
(0.670359 0.506304 -1.26244e-19)
(1.00038 0.257499 -1.7163e-19)
(1.19118 -0.000650547 -1.82905e-19)
(1.19553 -0.143773 -9.12521e-20)
(1.16859 -0.218065 3.0697e-20)
(1.06032 -0.245657 -5.40242e-20)
(1.01344 -0.2064 -2.69462e-20)
(-0.12801 0.504657 1.19416e-18)
(0.0605905 0.16905 8.85014e-19)
(0.61389 -0.251035 3.34682e-18)
(0.792532 -0.528769 9.39484e-19)
(0.839603 -0.5999 -4.36101e-19)
(0.794498 -0.581682 9.08672e-19)
(0.722976 -0.511673 2.65534e-19)
(0.654096 -0.424518 -1.9427e-19)
(0.563652 -0.352512 1.03116e-19)
(0.496996 -0.216435 -5.59674e-21)
(0.513541 0.0405177 -1.16477e-19)
(0.481937 0.33563 4.54648e-20)
(0.470128 0.52395 4.13495e-20)
(0.737426 0.450839 6.66599e-20)
(1.06469 0.223509 1.18379e-19)
(1.21946 0.000448341 1.21754e-19)
(1.20637 -0.122173 8.2701e-20)
(1.16584 -0.18832 -1.02958e-19)
(1.07017 -0.21407 5.37079e-20)
(1.0148 -0.181723 -9.51855e-20)
(-0.136714 0.494464 -1.64453e-19)
(0.094612 0.149909 2.36138e-18)
(0.664992 -0.261298 -2.28743e-18)
(0.838226 -0.522299 -2.87202e-18)
(0.876785 -0.583944 -3.57948e-19)
(0.826794 -0.562432 -8.81273e-19)
(0.75319 -0.491788 -3.39108e-19)
(0.682034 -0.40332 6.65701e-20)
(0.601329 -0.326463 1.18427e-21)
(0.508433 -0.218072 -1.37851e-19)
(0.480954 0.0116249 2.03239e-20)
(0.435024 0.299833 -2.69538e-20)
(0.487835 0.470674 -6.73987e-20)
(0.819788 0.394776 -7.26821e-20)
(1.11906 0.194965 -8.30028e-20)
(1.23537 0.0061434 -1.21095e-19)
(1.20568 -0.100514 1.68486e-19)
(1.16209 -0.158482 9.54979e-20)
(1.07218 -0.186148 -5.29972e-20)
(1.01914 -0.156575 6.86195e-20)
(-0.145872 0.482199 8.32303e-19)
(0.134155 0.131728 -7.40378e-19)
(0.715713 -0.269775 -7.96665e-19)
(0.882377 -0.514084 1.22137e-18)
(0.912007 -0.566749 5.5469e-19)
(0.857284 -0.542672 6.01116e-20)
(0.782135 -0.471488 -3.79542e-20)
(0.708161 -0.383764 1.39707e-19)
(0.635836 -0.299505 1.04069e-19)
(0.531441 -0.204298 -8.55876e-20)
(0.459466 -0.0062193 -3.37851e-20)
(0.411669 0.260232 2.28874e-20)
(0.547992 0.413011 2.47291e-20)
(0.907669 0.342887 3.21892e-20)
(1.15872 0.172692 -1.51994e-20)
(1.23746 0.0146924 -1.18619e-19)
(1.19744 -0.0797427 -7.87573e-20)
(1.15493 -0.130382 3.69333e-20)
(1.07036 -0.160948 -7.08146e-21)
(1.02399 -0.133176 -4.22778e-20)
(-0.155492 0.467638 -1.811e-19)
(0.179053 0.114779 1.21194e-18)
(0.765585 -0.276306 1.29783e-18)
(0.924743 -0.504239 -6.60104e-19)
(0.945137 -0.548486 -1.90256e-19)
(0.885971 -0.522519 -1.16896e-19)
(0.809431 -0.451055 2.92832e-19)
(0.733739 -0.365083 7.30207e-20)
(0.666451 -0.27463 -5.09284e-20)
(0.56587 -0.179074 -2.14308e-20)
(0.466797 -0.00839612 -3.16323e-20)
(0.438988 0.225407 -3.2779e-20)
(0.647927 0.359749 1.59835e-20)
(0.987379 0.298997 2.6981e-21)
(1.18004 0.156359 7.71505e-20)
(1.22703 0.023941 2.2913e-19)
(1.18455 -0.0603614 6.97961e-20)
(1.14358 -0.105794 -9.22899e-20)
(1.06868 -0.13756 4.96592e-20)
(1.0273 -0.112827 1.2154e-20)
(-0.165574 0.450572 -2.20496e-18)
(0.228824 0.0991944 -2.32927e-19)
(0.814145 -0.28078 6.66935e-19)
(0.965114 -0.492898 9.49363e-19)
(0.976093 -0.529328 6.99461e-19)
(0.912829 -0.502083 9.99082e-19)
(0.834985 -0.430774 -5.7902e-19)
(0.759147 -0.346711 -4.61943e-19)
(0.694025 -0.253279 4.65976e-20)
(0.607408 -0.150224 9.79001e-20)
(0.511355 0.00344669 -1.76669e-20)
(0.52336 0.203718 7.69499e-20)
(0.763027 0.316407 3.12877e-20)
(1.04523 0.263699 -2.19722e-20)
(1.18221 0.144104 7.4352e-21)
(1.20776 0.0322522 -2.88181e-19)
(1.1683 -0.0433436 3.3336e-20)
(1.13065 -0.0848913 5.92599e-20)
(1.06713 -0.116245 -2.09531e-20)
(1.02904 -0.0954366 4.2813e-20)
(-0.176089 0.430836 1.63346e-18)
(0.282719 0.0849508 -2.48172e-19)
(0.860956 -0.283155 -3.73651e-18)
(1.00331 -0.480212 7.31834e-19)
(1.00483 -0.509447 1.0757e-18)
(0.93783 -0.481487 -6.56836e-19)
(0.858913 -0.410814 9.38104e-19)
(0.784013 -0.328583 -3.48819e-20)
(0.720195 -0.235133 -2.36203e-20)
(0.649945 -0.125421 -7.97667e-20)
(0.582496 0.0209818 -2.04277e-20)
(0.636292 0.193218 -2.43955e-20)
(0.860287 0.281519 -3.80777e-20)
(1.07395 0.234322 -1.50677e-21)
(1.16881 0.13345 -1.53407e-20)
(1.18382 0.0385572 1.63609e-19)
(1.15052 -0.0293468 2.41171e-20)
(1.1182 -0.0672179 -1.37762e-20)
(1.0646 -0.0973603 1.37855e-21)
(1.02991 -0.0806017 -2.0948e-20)
(-0.186955 0.408335 1.93273e-19)
(0.339822 0.0718761 -1.24296e-18)
(0.905634 -0.283456 4.29126e-18)
(1.03917 -0.466344 -4.8335e-19)
(1.03136 -0.489006 -2.33562e-18)
(0.960978 -0.460861 1.44699e-18)
(0.881362 -0.391234 -7.16948e-19)
(0.807815 -0.311002 1.16329e-19)
(0.746173 -0.219123 -2.73995e-20)
(0.689794 -0.108035 3.07645e-20)
(0.657356 0.0337818 6.81905e-20)
(0.735766 0.182671 -3.59009e-20)
(0.92 0.249104 2.39972e-20)
(1.07687 0.207219 -5.5655e-21)
(1.14677 0.122714 6.01978e-20)
(1.15895 0.0423654 3.27266e-20)
(1.13331 -0.018174 -7.86584e-20)
(1.10643 -0.0525608 4.63279e-20)
(1.06135 -0.0808086 3.29782e-20)
(1.03044 -0.0679646 -2.25457e-21)
(-0.198007 0.383077 -1.02615e-18)
(0.399165 0.0596991 1.53193e-18)
(0.947872 -0.281775 -5.36786e-20)
(1.0726 -0.451468 -1.97117e-19)
(1.05568 -0.468163 -9.39514e-19)
(0.982317 -0.440329 1.33995e-18)
(0.902409 -0.372066 -6.39497e-20)
(0.830337 -0.294239 2.71112e-19)
(0.772013 -0.204628 -4.42023e-20)
(0.726367 -0.0970068 -1.79359e-20)
(0.718619 0.0364887 -4.15869e-20)
(0.800453 0.164262 8.48857e-20)
(0.945525 0.215334 -6.50374e-21)
(1.06539 0.180952 -1.27868e-20)
(1.12304 0.111575 -3.83308e-20)
(1.13589 0.0439451 -9.63483e-20)
(1.1176 -0.00940733 4.2687e-20)
(1.09541 -0.0405646 -6.31547e-20)
(1.05788 -0.066459 -3.87255e-20)
(1.03072 -0.0571119 -3.39986e-21)
(-0.20896 0.355206 2.05089e-20)
(0.45984 0.0481039 -1.81085e-18)
(0.987451 -0.278254 -6.1553e-19)
(1.10353 -0.435759 5.80147e-19)
(1.07786 -0.447063 2.36239e-18)
(1.00191 -0.419995 -9.30787e-19)
(0.922082 -0.353354 7.75405e-19)
(0.851619 -0.278366 -3.15717e-19)
(0.797052 -0.191592 1.74988e-20)
(0.759697 -0.0898542 3.55217e-20)
(0.763324 0.0312503 -3.45624e-20)
(0.83706 0.139792 3.98612e-20)
(0.953227 0.182056 4.56221e-21)
(1.05063 0.156422 4.87221e-21)
(1.10173 0.10052 1.52364e-20)
(1.11575 0.0439211 2.43673e-21)
(1.10354 -0.00269226 -3.43417e-20)
(1.08537 -0.0307181 2.12084e-20)
(1.05425 -0.0542261 2.79733e-20)
(1.03071 -0.0477383 -1.40026e-20)
(-0.219381 0.325023 -7.9896e-19)
(0.521081 0.0367895 5.68957e-19)
(1.02425 -0.273066 -6.11007e-18)
(1.13193 -0.419391 1.23338e-18)
(1.09796 -0.425842 -1.75183e-18)
(1.01984 -0.399949 1.15272e-18)
(0.940417 -0.335145 3.13325e-19)
(0.871727 -0.263341 -2.57034e-19)
(0.820735 -0.179992 4.70596e-20)
(0.789643 -0.0848953 -4.01476e-20)
(0.797118 0.0228743 -4.69011e-20)
(0.860526 0.11516 1.93822e-20)
(0.956065 0.152339 -6.1013e-20)
(1.03791 0.134587 6.89665e-21)
(1.08392 0.0900029 -2.46127e-21)
(1.09854 0.0427849 2.64428e-20)
(1.09114 0.00237894 -2.89648e-20)
(1.07624 -0.0227017 3.72382e-20)
(1.05063 -0.0438698 2.7321e-21)
(1.03043 -0.0396525 2.23996e-20)
(-0.22866 0.29302 3.57171e-18)
(0.582295 0.0255197 1.70962e-18)
(1.05824 -0.266396 4.30974e-18)
(1.15781 -0.40253 -3.44374e-19)
(1.11609 -0.404618 -4.47871e-19)
(1.0362 -0.380268 -1.4045e-18)
(0.957467 -0.31747 -5.33603e-19)
(0.890673 -0.249116 1.42722e-20)
(0.842878 -0.169633 -1.03323e-20)
(0.816418 -0.0812967 1.52326e-20)
(0.825006 0.014341 1.99343e-20)
(0.879111 0.0935157 2.80311e-20)
(0.95864 0.127068 5.90098e-20)
(1.02802 0.115518 4.81041e-21)
(1.06926 0.0801865 -7.56409e-21)
(1.08397 0.0408972 2.64715e-20)
(1.08024 0.00613341 -3.1436e-20)
(1.06796 -0.016238 -3.97573e-20)
(1.04722 -0.0351461 -3.01533e-20)
(1.0299 -0.0326782 -3.45582e-21)
(-0.235994 0.259897 -3.40903e-18)
(0.643056 0.0141546 -3.75112e-19)
(1.08949 -0.258425 -3.46685e-18)
(1.1812 -0.385331 -3.27872e-18)
(1.13235 -0.383496 -1.13441e-18)
(1.05109 -0.361013 2.05505e-18)
(0.973293 -0.300345 -4.17471e-19)
(0.90846 -0.235641 5.59145e-19)
(0.863494 -0.16027 6.49915e-20)
(0.840423 -0.0785611 1.87741e-21)
(0.849006 0.00653754 -1.96362e-21)
(0.895061 0.0751466 -3.61186e-20)
(0.961533 0.105733 -3.34661e-20)
(1.02053 0.0989089 3.25942e-22)
(1.05728 0.0711218 7.05686e-21)
(1.07174 0.0385403 -6.96352e-21)
(1.07066 0.00881732 4.85852e-20)
(1.06058 -0.0110451 2.05745e-20)
(1.04405 -0.0278332 -1.42161e-21)
(1.02912 -0.0266909 -5.98571e-21)
(-0.240381 0.226582 1.62695e-18)
(0.703065 0.00266484 -7.70025e-19)
(1.11812 -0.249311 7.02313e-19)
(1.20219 -0.367931 3.13492e-18)
(1.14686 -0.362562 2.30026e-19)
(1.0646 -0.342231 -9.56704e-19)
(0.987956 -0.283774 -2.59894e-19)
(0.925112 -0.222859 -2.79232e-19)
(0.882636 -0.151697 -1.29045e-19)
(0.862016 -0.0763506 2.67524e-20)
(0.869918 -0.000386714 2.24829e-21)
(0.908992 0.0596047 2.09487e-20)
(0.964698 0.0876838 2.14842e-20)
(1.01496 0.0844631 2.5755e-22)
(1.04755 0.0628356 -5.15419e-21)
(1.06151 0.0359112 3.60716e-20)
(1.06226 0.010665 -3.68235e-21)
(1.05409 -0.00690351 1.05921e-22)
(1.04111 -0.0217178 3.80563e-20)
(1.02814 -0.021583 -3.01348e-21)
(-0.240637 0.194237 1.47057e-18)
(0.762106 -0.00886643 5.19408e-19)
(1.14431 -0.239189 3.0659e-18)
(1.22085 -0.35045 -2.13162e-18)
(1.15972 -0.341891 -4.46487e-20)
(1.07683 -0.32396 -3.56181e-19)
(1.00152 -0.267754 3.9289e-19)
(0.940666 -0.210712 3.45216e-19)
(0.900366 -0.143756 -5.6044e-20)
(0.881497 -0.0744335 -8.665e-20)
(0.888307 -0.00639884 -6.77286e-21)
(0.921326 0.0464829 -6.26786e-21)
(0.968082 0.0724034 1.0957e-21)
(1.01095 0.071925 -6.68008e-21)
(1.03972 0.0553218 -2.747e-21)
(1.053 0.033155 7.4119e-21)
(1.05493 0.011875 -1.64386e-20)
(1.04844 -0.00363374 -8.17097e-21)
(1.03835 -0.0166178 1.08997e-20)
(1.02696 -0.0172126 2.63042e-21)
(-0.235432 0.164249 -4.19614e-18)
(0.819988 -0.020248 -3.71126e-18)
(1.16827 -0.228159 1.82966e-18)
(1.23731 -0.33299 2.07903e-18)
(1.17107 -0.321539 -2.059e-19)
(1.0879 -0.306223 5.3069e-19)
(1.01404 -0.252276 5.99891e-19)
(0.955164 -0.199141 -9.97079e-20)
(0.916762 -0.136318 2.36138e-19)
(0.899116 -0.0726504 1.28166e-19)
(0.904603 -0.011515 3.06412e-20)
(0.932358 0.0354332 -1.00187e-20)
(0.97161 0.0594615 -7.15621e-21)
(1.00818 0.061065 1.42267e-20)
(1.03347 0.0485487 -1.50035e-20)
(1.04594 0.0303862 -3.94678e-20)
(1.04857 0.0126066 2.65171e-20)
(1.0436 -0.00110396 3.19879e-20)
(1.03573 -0.012335 -1.65649e-20)
(1.02563 -0.0134407 -1.41897e-20)
(-0.223357 0.138196 1.43422e-18)
(0.876508 -0.0311916 3.17721e-18)
(1.19023 -0.216297 1.53959e-18)
(1.25168 -0.315632 -3.3338e-18)
(1.18102 -0.301554 3.19228e-19)
(1.09788 -0.289034 1.00362e-19)
(1.02559 -0.237326 -4.5382e-19)
(0.968651 -0.188095 -4.77078e-19)
(0.931902 -0.129279 -1.56373e-20)
(0.915085 -0.0708917 -9.25144e-20)
(0.919134 -0.0157823 -5.58263e-20)
(0.942298 0.0261569 2.51009e-20)
(0.975219 0.048503 -5.40722e-21)
(1.0064 0.05168 -2.85702e-20)
(1.02854 0.0424736 1.85406e-21)
(1.04012 0.027698 1.80808e-20)
(1.04311 0.0129699 -5.54386e-20)
(1.03949 0.000799148 -2.04506e-20)
(1.03321 -0.0086468 9.75915e-21)
(1.02423 -0.0101912 2.33374e-20)
(-0.20303 0.11777 1.58144e-18)
(0.931408 -0.0413315 -1.11822e-18)
(1.21039 -0.203649 -3.56605e-18)
(1.26409 -0.298443 -1.04542e-18)
(1.18968 -0.281968 2.47095e-19)
(1.10688 -0.272399 -2.49365e-19)
(1.03622 -0.222885 5.61332e-19)
(0.981174 -0.177525 3.46965e-20)
(0.945867 -0.122557 -1.1251e-19)
(0.929583 -0.0690835 1.22449e-19)
(0.932158 -0.0192594 4.23821e-21)
(0.951311 0.0184033 -2.21869e-20)
(0.978854 0.0392371 2.32143e-20)
(1.0054 0.0435899 3.71845e-20)
(1.02471 0.0370523 2.98384e-20)
(1.03533 0.02516 -2.56143e-20)
(1.03847 0.0130244 2.60633e-20)
(1.03599 0.00223548 -9.51534e-21)
(1.03077 -0.00538713 8.59809e-21)
(1.02297 -0.00752588 -1.59638e-21)
(-0.173257 0.104638 -1.94484e-18)
(0.98436 -0.050258 3.99364e-18)
(1.22893 -0.190243 6.7935e-19)
(1.27467 -0.281475 1.64135e-18)
(1.19714 -0.262809 8.48819e-19)
(1.11498 -0.256318 -6.11286e-19)
(1.04598 -0.208933 -6.13058e-19)
(0.992783 -0.167389 1.38657e-19)
(0.958731 -0.116085 9.49578e-20)
(0.942765 -0.0671771 -2.82129e-20)
(0.943882 -0.0220101 3.7038e-20)
(0.959524 0.0119616 2.82331e-20)
(0.982473 0.0314229 -2.5395e-20)
(1.00501 0.0366352 2.39168e-21)
(1.02178 0.0322456 -5.568e-22)
(1.03142 0.0228069 -1.96581e-20)
(1.03456 0.0128265 -9.07428e-21)
(1.033 0.00339426 -2.17318e-20)
(1.02849 -0.00255243 1.53347e-20)
(1.02213 -0.00564256 -1.58785e-20)
(-0.133247 0.10022 1.99471e-18)
(1.03495 -0.05756 -4.20102e-18)
(1.24599 -0.176095 -5.14559e-19)
(1.28355 -0.264768 -1.54964e-18)
(1.20352 -0.244094 -8.80098e-19)
(1.12225 -0.240785 -4.3691e-19)
(1.05494 -0.195449 -5.98937e-20)
(1.00352 -0.157648 2.41016e-19)
(0.970569 -0.109812 -9.43631e-20)
(0.954765 -0.0651425 -1.13497e-19)
(0.954473 -0.024098 6.42124e-20)
(0.967036 0.00665403 -3.33336e-20)
(0.986043 0.0248592 1.21405e-20)
(1.00511 0.0306772 1.5665e-20)
(1.0196 0.028015 6.48091e-22)
(1.02825 0.0206472 2.07008e-20)
(1.03131 0.0124588 4.65054e-21)
(1.0304 0.00440285 1.66651e-20)
(1.02647 -0.000308512 -1.2243e-20)
(1.02194 -0.00431413 1.96268e-20)
(-0.0828646 0.105379 -1.6024e-18)
(1.08266 -0.0628726 1.24598e-18)
(1.26163 -0.16123 3.21375e-18)
(1.29086 -0.248357 8.61733e-19)
(1.20888 -0.225838 -1.30139e-19)
(1.12877 -0.225789 1.27283e-18)
(1.06313 -0.182411 1.7205e-19)
(1.01344 -0.148266 -9.00466e-20)
(0.98145 -0.103696 1.38477e-19)
(0.965698 -0.062963 -1.14325e-20)
(0.964069 -0.0255851 -1.8687e-20)
(0.973928 0.00233018 7.25692e-20)
(0.989534 0.0193768 -4.56999e-20)
(1.00558 0.0255964 -7.6027e-20)
(1.01803 0.0243195 -3.23591e-20)
(1.02571 0.0186837 2.78495e-20)
(1.02862 0.0120104 5.07031e-21)
(1.02814 0.00526055 1.13667e-20)
(1.02486 0.0012582 -1.00437e-20)
(1.02142 -0.00240263 -2.04653e-20)
(-0.0228626 0.120067 -1.26562e-18)
(1.12694 -0.0659393 -3.41511e-18)
(1.27589 -0.145699 -5.62175e-18)
(1.29673 -0.232272 3.00613e-18)
(1.21333 -0.20805 1.49127e-18)
(1.13458 -0.211316 -1.2247e-18)
(1.0706 -0.169798 5.07379e-19)
(1.02259 -0.139213 8.34648e-20)
(0.991437 -0.0977062 -2.19915e-19)
(0.975665 -0.0606316 1.42832e-19)
(0.972784 -0.0265295 4.864e-20)
(0.980268 -0.00113748 -1.16568e-19)
(0.992928 0.0148331 6.57758e-20)
(1.00635 0.0212892 8.51638e-20)
(1.01696 0.0211171 -1.20959e-20)
(1.02372 0.01692 2.08618e-20)
(1.02641 0.0115342 2.97141e-20)
(1.02623 0.0059175 5.57625e-21)
(1.02351 0.00258986 -4.19949e-21)
(1.0207 -0.00105957 2.12991e-20)
(0.0449731 0.143022 2.79856e-19)
(1.1672 -0.0666784 -2.42246e-18)
(1.28873 -0.129587 -2.8044e-18)
(1.30128 -0.216543 -3.35604e-18)
(1.21693 -0.190738 -1.41693e-18)
(1.13976 -0.197353 5.37486e-19)
(1.0774 -0.157587 -6.49243e-19)
(1.031 -0.130463 1.20123e-19)
(1.00059 -0.0918173 -1.88506e-20)
(0.984756 -0.0581484 -2.58731e-19)
(0.980713 -0.0269859 -8.12867e-20)
(0.986108 -0.00385841 -2.07389e-20)
(0.996207 0.0111064 -3.12697e-21)
(1.00733 0.0176657 -3.18276e-20)
(1.0163 0.0183679 4.54832e-20)
(1.02217 0.0153552 -5.00687e-20)
(1.02462 0.0110563 -3.29447e-20)
(1.02462 0.00647109 -3.28308e-20)
(1.0223 0.00351042 1.39967e-20)
(1.02016 0.000257994 3.61191e-21)
(0.117898 0.171677 2.25561e-18)
(1.20298 -0.0652243 2.58807e-18)
(1.30012 -0.113023 1.61426e-18)
(1.30465 -0.201197 1.8642e-18)
(1.21976 -0.173908 1.92707e-20)
(1.14435 -0.183881 3.25316e-19)
(1.08357 -0.145759 2.92669e-19)
(1.03872 -0.121993 -3.71325e-19)
(1.00897 -0.0860113 4.31047e-20)
(0.993046 -0.0555184 3.60689e-20)
(0.987936 -0.0270046 3.3804e-20)
(0.991494 -0.00592649 7.13523e-20)
(0.999359 0.00809312 3.75973e-20)
(1.00847 0.0146477 1.30214e-20)
(1.01596 0.0160329 -6.58924e-20)
(1.021 0.0139849 8.28173e-22)
(1.02317 0.0106197 1.21719e-20)
(1.02324 0.00686495 5.79641e-21)
(1.02136 0.00432608 -7.35391e-21)
(1.01942 0.00150009 3.71575e-24)
(0.192572 0.202428 -1.28851e-18)
(1.234 -0.0619182 8.72902e-19)
(1.31001 -0.0961649 -4.54877e-19)
(1.30696 -0.186258 7.69149e-20)
(1.22189 -0.157562 -1.85909e-19)
(1.14839 -0.170883 -1.55378e-19)
(1.08914 -0.134294 -4.53012e-19)
(1.04578 -0.11378 -9.82678e-20)
(1.01662 -0.0802745 -5.5131e-20)
(1.0006 -0.0527497 9.81993e-20)
(0.994522 -0.0266321 -1.08237e-21)
(0.996462 -0.00742293 6.04877e-20)
(1.00237 0.00570407 -4.6472e-20)
(1.00972 0.0121667 5.57407e-20)
(1.01588 0.0140749 -1.46276e-20)
(1.02015 0.0128091 7.02854e-20)
(1.022 0.0102188 -5.15439e-20)
(1.02213 0.0072027 2.1629e-22)
(1.02045 0.00499687 -3.67946e-20)
(1.01887 0.00246032 -2.75663e-21)
(0.265671 0.231309 2.819e-18)
(1.26026 -0.0572391 4.24171e-19)
(1.31837 -0.0791902 2.67072e-18)
(1.30834 -0.171748 -8.06636e-20)
(1.22338 -0.1417 9.84626e-19)
(1.15193 -0.15834 -8.26026e-19)
(1.09414 -0.123174 4.46267e-19)
(1.05223 -0.105809 -2.15801e-19)
(1.0236 -0.0745975 1.19287e-19)
(1.00749 -0.049853 1.8037e-19)
(1.00053 -0.0259108 -1.70779e-20)
(1.00105 -0.00841815 -7.33186e-20)
(1.00525 0.00386249 -8.69228e-20)
(1.01104 0.0101624 1.44834e-20)
(1.01601 0.0124612 -1.36849e-20)
(1.01955 0.0118163 -3.28937e-20)
(1.0211 0.00988555 -1.60834e-20)
(1.02117 0.00747283 2.16467e-20)
(1.01975 0.00555922 6.64491e-21)
(1.01827 0.00346291 3.5512e-21)
(0.334566 0.254911 3.66648e-19)
(1.28207 -0.0516961 1.17211e-18)
(1.32523 -0.0622711 -3.09431e-18)
(1.3089 -0.157679 1.79188e-19)
(1.22429 -0.126319 -1.51642e-18)
(1.15499 -0.146235 1.74499e-19)
(1.09861 -0.112382 5.33568e-19)
(1.05809 -0.0980622 1.88564e-20)
(1.02994 -0.0689739 2.69572e-19)
(1.01376 -0.0468398 -5.02039e-20)
(1.006 -0.0248792 -4.4825e-20)
(1.00527 -0.00897359 5.91323e-20)
(1.00797 0.00250181 -2.74387e-20)
(1.0124 0.00858176 2.6441e-20)
(1.0163 0.0111593 1.50216e-20)
(1.01917 0.0110035 -3.01868e-20)
(1.02038 0.00961611 4.07334e-20)
(1.02041 0.0077126 -4.06456e-20)
(1.01908 0.00609653 2.15756e-20)
(1.01777 0.00421652 -1.69939e-20)
(0.397798 0.271187 -2.48869e-18)
(1.29998 -0.045723 -6.62203e-19)
(1.33063 -0.0455569 4.27611e-19)
(1.30876 -0.144055 -8.7191e-19)
(1.22468 -0.111414 1.35855e-18)
(1.15762 -0.134547 1.03409e-18)
(1.10258 -0.101903 -2.90917e-19)
(1.06341 -0.0905271 2.69359e-19)
(1.03568 -0.0633997 -3.54951e-19)
(1.01946 -0.043723 2.49452e-20)
(1.01098 -0.0235727 1.14518e-19)
(1.00916 -0.00914304 3.49906e-20)
(1.01054 0.00156416 3.08368e-20)
(1.01376 0.00737771 4.71862e-20)
(1.0167 0.0101416 -8.68358e-20)
(1.01896 0.0103592 3.4365e-20)
(1.01985 0.00942229 -2.51728e-20)
(1.01976 0.0079482 4.84168e-20)
(1.01854 0.00654294 -2.8349e-21)
(1.0173 0.00501439 5.45917e-21)
(0.455146 0.279786 -5.82647e-20)
(1.31468 -0.039617 1.84601e-18)
(1.33468 -0.0291619 -1.45624e-18)
(1.30802 -0.130873 -3.54092e-19)
(1.2246 -0.0969742 -2.99344e-19)
(1.15984 -0.123259 -2.32413e-19)
(1.10606 -0.091722 -7.66283e-19)
(1.0682 -0.0831916 -4.66957e-20)
(1.04088 -0.0578731 -3.00379e-20)
(1.02462 -0.0405151 -2.31383e-19)
(1.01552 -0.0220233 -1.10231e-19)
(1.01274 -0.00897373 -5.21477e-20)
(1.01295 0.000998869 1.37805e-20)
(1.01512 0.00650878 -6.03614e-20)
(1.01719 0.00938096 4.73279e-20)
(1.01888 0.00987584 1.62772e-20)
(1.01945 0.00930785 5.48177e-21)
(1.01926 0.00817356 -6.661e-21)
(1.01806 0.00700497 6.90329e-21)
(1.01689 0.0056582 1.48302e-20)
(0.507316 0.281808 7.78868e-19)
(1.32686 -0.0335321 -1.49918e-18)
(1.33748 -0.0131616 4.76744e-20)
(1.30677 -0.11812 1.50029e-19)
(1.2241 -0.0829901 -9.053e-19)
(1.16167 -0.112352 -2.07997e-19)
(1.1091 -0.0818263 1.09745e-19)
(1.07251 -0.0760455 7.16265e-20)
(1.04555 -0.0523939 1.00381e-19)
(1.0293 -0.0372289 -8.69652e-20)
(1.01963 -0.0202602 -9.79417e-20)
(1.01602 -0.00850737 -1.00695e-19)
(1.01521 0.000761523 6.20024e-20)
(1.01645 0.00593784 -3.44178e-20)
(1.01773 0.00885378 4.83496e-20)
(1.01891 0.00954382 2.17625e-20)
(1.01917 0.0092703 -2.9534e-20)
(1.01884 0.00842539 -2.01165e-21)
(1.01767 0.00741332 6.09308e-21)
(1.01653 0.006327 3.75746e-21)
(0.55543 0.279168 -2.03258e-19)
(1.3371 -0.0275114 1.11166e-18)
(1.33915 0.00240367 8.93417e-19)
(1.30508 -0.105779 -8.10211e-19)
(1.22323 -0.0694482 1.6588e-18)
(1.16314 -0.101806 -1.46865e-19)
(1.11171 -0.0722041 6.87923e-19)
(1.07635 -0.0690797 -1.0222e-19)
(1.04973 -0.0469628 3.37767e-20)
(1.03352 -0.0338767 2.22342e-19)
(1.02336 -0.01831 2.25279e-19)
(1.01902 -0.00778083 6.87537e-20)
(1.01731 0.000812905 -6.62169e-20)
(1.01772 0.00563198 4.45086e-20)
(1.01831 0.00853774 1.55841e-20)
(1.01901 0.00935294 -8.88593e-20)
(1.01898 0.00931582 -1.30573e-20)
(1.01852 0.0086854 1.3871e-20)
(1.01732 0.0078474 -2.07927e-20)
(1.01621 0.00691817 -3.07939e-21)
(0.600588 0.273907 1.91335e-18)
(1.34589 -0.02153 1.03999e-19)
(1.33982 0.0175209 -1.26268e-18)
(1.30302 -0.0938276 -4.26817e-19)
(1.22201 -0.0563341 -7.54469e-19)
(1.16427 -0.091605 -4.50702e-19)
(1.1139 -0.0628446 -1.89584e-19)
(1.07974 -0.0622862 3.0329e-20)
(1.05345 -0.0415814 4.98447e-20)
(1.03731 -0.0304704 -4.82654e-20)
(1.02671 -0.0161968 -1.68152e-19)
(1.02175 -0.00682693 -3.65163e-20)
(1.01925 0.00111833 -6.21336e-20)
(1.01895 0.00556166 -1.86281e-20)
(1.01891 0.00841249 -7.22672e-20)
(1.01918 0.00929482 5.56067e-20)
(1.01886 0.00943596 4.34036e-20)
(1.01826 0.00898359 -3.69617e-21)
(1.01704 0.0082623 -4.8382e-21)
(1.01595 0.0075217 2.26932e-20)
(0.643621 0.267735 -4.56471e-18)
(1.35355 -0.0155304 1.21388e-19)
(1.3396 0.0321961 -4.05127e-19)
(1.30065 -0.0822413 5.56125e-19)
(1.22047 -0.0436325 -4.84825e-19)
(1.16508 -0.0817311 1.17431e-18)
(1.11571 -0.0537381 -1.36142e-19)
(1.08273 -0.0556579 5.62309e-19)
(1.05674 -0.0362522 -1.26148e-19)
(1.0407 -0.0270215 -1.25703e-19)
(1.02973 -0.0139428 -5.40459e-20)
(1.02423 -0.00567489 6.36519e-20)
(1.02104 0.00164696 4.1927e-20)
(1.0201 0.00570045 -6.36267e-22)
(1.0195 0.00845954 3.10056e-20)
(1.01938 0.00935837 -1.60604e-20)
(1.0188 0.00963526 -1.26683e-20)
(1.01806 0.00930376 -2.98488e-20)
(1.0168 0.00870409 1.57735e-20)
(1.01571 0.00809359 1.60621e-20)
(0.685032 0.261853 1.18822e-19)
(1.36031 -0.00944469 -1.07658e-18)
(1.33859 0.0464464 9.46571e-19)
(1.298 -0.0709947 4.15029e-19)
(1.21866 -0.0313279 2.11128e-19)
(1.16557 -0.0721676 -4.5511e-19)
(1.11716 -0.0448757 4.03172e-19)
(1.08531 -0.0491883 -1.33291e-19)
(1.05962 -0.0309778 1.16706e-19)
(1.04372 -0.0235406 8.83608e-20)
(1.03243 -0.0115682 1.87092e-19)
(1.02646 -0.00435083 6.43775e-20)