/*--------------------------------*- C++ -*----------------------------------*\
  =========                 |
  \\      /  F ield         | OpenFOAM: The Open Source CFD Toolbox
   \\    /   O peration     | Website:  https://openfoam.org
    \\  /    A nd           | Version:  7
     \\/     M anipulation  |
\*---------------------------------------------------------------------------*/
FoamFile
{
    version     2.0;
    format      ascii;
    class       volVectorField;
    location    "14";
    object      U;
}
// * * * * * * * * * * * * * * * * * * * * * * * * * * * * * * * * * * * * * //

dimensions      [0 1 -1 0 0 0 0];

internalField   nonuniform List<vector> 
2413
(
(1.99997 3.93964e-05 0)
(1.99991 0.000133851 0)
(1.99974 0.000375332 0)
(1.99938 0.000903309 0)
(1.99863 0.00203606 0)
(1.99756 0.00365679 0)
(1.99562 0.006388 0)
(1.99306 0.0101824 0)
(1.99084 0.0136188 0)
(1.98587 0.0210277 0)
(1.98231 0.0252276 0)
(1.98018 0.0271208 0)
(1.97406 0.0342636 0)
(1.96973 0.0379169 0)
(1.96528 0.0408027 0)
(1.96014 0.045153 0)
(1.95561 0.0479276 0)
(1.95184 0.049205 0)
(1.94836 0.0520302 0)
(1.94503 0.0518612 0)
(1.9444 0.050676 0)
(1.94434 0.0487903 0)
(1.94511 0.0459762 0)
(1.94613 0.0438547 0)
(1.9479 0.0405417 0)
(1.94923 0.0380492 0)
(1.95055 0.0379513 0)
(1.95269 0.0357726 0)
(1.95454 0.0330691 0)
(1.95644 0.0329349 0)
(1.95911 0.0314338 0)
(1.96172 0.0281304 0)
(1.964 0.0272665 0)
(1.96661 0.0272017 0)
(1.96972 0.0246462 0)
(1.97215 0.022634 0)
(1.97493 0.0229427 0)
(1.97833 0.0216199 0)
(1.98189 0.0178259 0)
(1.9849 0.016573 0)
(1.98807 0.0163736 0)
(1.9924 0.012863 0)
(1.99561 0.00917252 0)
(1.99872 0.00887413 0)
(2.00229 0.00724237 0)
(2.00637 0.00248189 0)
(2.00915 0.000328504 0)
(2.01183 6.91217e-05 0)
(2.01609 -0.00330778 0)
(2.01954 -0.00817886 0)
(2.02195 -0.00985554 0)
(2.02445 -0.0110022 0)
(2.02787 -0.0145985 0)
(2.03095 -0.0192848 0)
(2.03329 -0.0229975 0)
(2.03561 -0.0248832 0)
(2.03807 -0.0274526 0)
(2.04126 -0.0328311 0)
(2.04312 -0.036476 0)
(2.04518 -0.0385359 0)
(2.0483 -0.0435419 0)
(2.05017 -0.0476978 0)
(2.05204 -0.0502753 0)
(2.05471 -0.0553365 0)
(2.05595 -0.058934 0)
(2 1.15725e-16 0)
(2 -8.11939e-16 0)
(2 -1.87763e-15 0)
(2 -1.75557e-15 0)
(2 -1.46602e-15 0)
(2 1.5388e-15 0)
(2 5.50077e-15 0)
(2 5.15102e-15 0)
(2 4.64388e-15 0)
(2 5.69803e-15 0)
(2 5.34839e-15 0)
(2 5.07507e-15 0)
(2 4.24034e-15 0)
(2 5.38609e-16 0)
(2 -4.3024e-16 0)
(2 -1.33771e-15 0)
(2 8.68036e-15 0)
(2 3.83897e-13 0)
(2 9.25157e-12 0)
(2 1.64238e-10 0)
(2 2.27916e-09 0)
(2 2.39451e-08 0)
(2 1.96262e-07 0)
(2 1.27985e-06 0)
(2 6.84025e-06 0)
(1.99998 2.86334e-05 0)
(1.99993 0.000103988 0)
(1.99978 0.000315992 0)
(1.99946 0.000788897 0)
(1.99872 0.00184421 0)
(1.99755 0.00363732 0)
(1.9957 0.00634455 0)
(1.99275 0.0105553 0)
(1.98981 0.0149739 0)
(1.9862 0.0202393 0)
(1.98021 0.0291785 0)
(1.97631 0.0333293 0)
(1.97359 0.0353281 0)
(1.96616 0.0436881 0)
(1.96137 0.0466508 0)
(1.95603 0.0502374 0)
(1.95044 0.0549043 0)
(1.9468 0.0562966 0)
(1.94296 0.0591496 0)
(1.94191 0.0587341 0)
(1.94163 0.0573436 0)
(1.94237 0.0553353 0)
(1.9438 0.052797 0)
(1.94584 0.0490964 0)
(1.94772 0.0468577 0)
(1.9502 0.0443789 0)
(1.95251 0.040656 0)
(1.95436 0.039838 0)
(1.95661 0.039195 0)
(1.95947 0.0357297 0)
(1.9616 0.0341403 0)
(1.96398 0.0341437 0)
(1.96748 0.0314166 0)
(1.97021 0.0281127 0)
(1.97297 0.0277883 0)
(1.97626 0.0265859 0)
(1.97984 0.0226503 0)
(1.98262 0.0209586 0)
(1.98561 0.0208455 0)
(1.98978 0.0175741 0)
(1.99299 0.0135505 0)
(1.99597 0.0129842 0)
(1.99933 0.0115353 0)
(2.00356 0.00673223 0)
(2.00629 0.00400846 0)
(2.00904 0.00377037 0)
(2.01307 0.000609301 0)
(2.01612 -0.00389488 0)
(2.01831 -0.00474893 0)
(2.02111 -0.00646062 0)
(2.02467 -0.0106941 0)
(2.02672 -0.0128596 0)
(2.02867 -0.0150823 0)
(2.03149 -0.0188009 0)
(2.03365 -0.0208162 0)
(2.03587 -0.0232852 0)
(2.03865 -0.0281538 0)
(2.04033 -0.0305965 0)
(2.04228 -0.0328948 0)
(2.04513 -0.0378078 0)
(2.04686 -0.0408478 0)
(2.04887 -0.0436491 0)
(2.05083 -0.0476244 0)
(2 -1.93384e-15 0)
(2 -2.77945e-15 0)
(2 -3.05397e-15 0)
(2 -3.23498e-15 0)
(2 -3.59798e-15 0)
(2 -3.24178e-15 0)
(2 -3.33623e-15 0)
(2 -3.07348e-15 0)
(2 -2.53931e-15 0)
(2 -7.17878e-16 0)
(2 8.69704e-16 0)
(2 1.96568e-15 0)
(2 2.24728e-15 0)
(2 1.72733e-15 0)
(2 1.19234e-15 0)
(2 -2.38388e-16 0)
(2 -2.08095e-15 0)
(2 -2.07729e-15 0)
(2 3.16615e-15 0)
(2 1.70216e-13 0)
(2 4.43884e-12 0)
(2 8.30104e-11 0)
(2 1.19407e-09 0)
(2 1.37566e-08 0)
(2 1.17212e-07 0)
(2 8.32501e-07 0)
(2 4.64134e-06 0)
(1.99998 2.15075e-05 0)
(1.99994 8.02405e-05 0)
(1.99981 0.000261578 0)
(1.99951 0.000712128 0)
(1.99886 0.00163387 0)
(1.99756 0.00355571 0)
(1.99578 0.00628443 0)
(1.9927 0.0106964 0)
(1.98884 0.0164407 0)
(1.9859 0.020706 0)
(1.97987 0.0293861 0)
(1.97304 0.0397505 0)
(1.97001 0.0410228 0)
(1.96312 0.0475944 0)
(1.95721 0.0524101 0)
(1.95198 0.0562174 0)
(1.94635 0.0610956 0)
(1.94294 0.062798 0)
(1.94007 0.0646591 0)
(1.93991 0.0643678 0)
(1.94023 0.0631268 0)
(1.94162 0.0608649 0)
(1.9438 0.0576515 0)
(1.94599 0.0554956 0)
(1.94887 0.0517006 0)
(1.95136 0.048339 0)
(1.95374 0.047154 0)
(1.95688 0.0438843 0)
(1.95924 0.0410189 0)
(1.96163 0.0407881 0)
(1.9648 0.0387136 0)
(1.96756 0.0351375 0)
(1.9701 0.0344882 0)
(1.97309 0.0336398 0)
(1.9768 0.0296691 0)
(1.97945 0.0272469 0)
(1.98237 0.027103 0)
(1.98628 0.0243125 0)
(1.98953 0.0200011 0)
(1.99238 0.0191345 0)
(1.99548 0.0181238 0)
(1.99969 0.0135291 0)
(2.00242 0.0104045 0)
(2.00501 0.0101483 0)
(2.00879 0.00712953 0)
(2.0121 0.0021529 0)
(2.01441 0.000839073 0)
(2.01685 -0.000492467 0)
(2.02069 -0.00497748 0)
(2.02276 -0.00821518 0)
(2.02451 -0.00896917 0)
(2.02757 -0.0123392 0)
(2.03009 -0.0168331 0)
(2.03189 -0.0179407 0)
(2.03438 -0.0207398 0)
(2.03662 -0.0250031 0)
(2.03808 -0.0264374 0)
(2.04059 -0.0298752 0)
(2.04281 -0.0343079 0)
(2.04426 -0.0358891 0)
(2.04603 -0.0385623 0)
(2 -1.98595e-15 0)
(2 -1.94278e-15 0)
(2 -2.05615e-15 0)
(2 -1.84768e-15 0)
(2 -1.91758e-15 0)
(2 -2.91822e-15 0)
(2 -3.11911e-15 0)
(2 -1.95089e-15 0)
(2 -1.24143e-15 0)
(2 -1.18548e-15 0)
(2 -7.35837e-16 0)
(2 -5.58778e-16 0)
(2 -4.05297e-16 0)
(2 6.94997e-16 0)
(2 2.05423e-16 0)
(2 -1.18792e-15 0)
(2 -4.63593e-15 0)
(2 -6.35331e-15 0)
(2 -6.87433e-15 0)
(2 -6.22278e-15 0)
(2 -2.20195e-15 0)
(2 7.46555e-14 0)
(2 2.13317e-12 0)
(2 4.23537e-11 0)
(2 6.4716e-10 0)
(2 7.70507e-09 0)
(2 7.34571e-08 0)
(2 5.34793e-07 0)
(2 3.23381e-06 0)
(1.99999 1.59251e-05 0)
(1.99995 6.37727e-05 0)
(1.99985 0.000212223 0)
(1.99956 0.000636191 0)
(1.99897 0.00149264 0)
(1.99772 0.00327496 0)
(1.9957 0.00637801 0)
(1.99305 0.0103794 0)
(1.98824 0.0174782 0)
(1.98432 0.022912 0)
(1.98022 0.0290974 0)
(1.97093 0.0422071 0)
(1.9647 0.0495073 0)
(1.95996 0.0522308 0)
(1.95311 0.0582051 0)
(1.94733 0.0630041 0)
(1.9435 0.0654266 0)
(1.94046 0.0683011 0)
(1.93891 0.0699228 0)
(1.93912 0.0693976 0)
(1.94003 0.067915 0)
(1.942 0.0656296 0)
(1.94435 0.0629892 0)
(1.94722 0.0592276 0)
(1.94994 0.0566218 0)
(1.95301 0.0537981 0)
(1.95615 0.0495986 0)
(1.95866 0.0481961 0)
(1.9616 0.0465939 0)
(1.96502 0.0422328 0)
(1.9675 0.0403597 0)
(1.97016 0.0400053 0)
(1.97386 0.0365142 0)
(1.97657 0.0332159 0)
(1.97936 0.0329147 0)
(1.98298 0.030646 0)
(1.98642 0.026067 0)
(1.98909 0.0247398 0)
(1.99225 0.0235998 0)
(1.9965 0.0189852 0)
(1.99905 0.015763 0)
(2.00169 0.015322 0)
(2.00542 0.0123187 0)
(2.00869 0.00721871 0)
(2.01092 0.00549673 0)
(2.01313 0.00484678 0)
(2.0166 0.00101655 0)
(2.01917 -0.00371993 0)
(2.02123 -0.00493744 0)
(2.02286 -0.00594431 0)
(2.02588 -0.0102377 0)
(2.02782 -0.0128427 0)
(2.02962 -0.0142772 0)
(2.03246 -0.0186219 0)
(2.03403 -0.0210534 0)
(2.03573 -0.0226663 0)
(2.03836 -0.026905 0)
(2.03975 -0.0290701 0)
(2.04113 -0.0310206 0)
(2 -3.15719e-15 0)
(2 -1.81351e-15 0)
(2 -1.57778e-15 0)
(2 -1.02687e-15 0)
(2 -9.38707e-16 0)
(2 -2.36025e-15 0)
(2 -2.23773e-15 0)
(2 -1.13321e-15 0)
(2 7.72441e-16 0)
(2 6.46667e-16 0)
(2 4.92222e-18 0)
(2 -2.23397e-15 0)
(2 -4.08515e-15 0)
(2 -5.17495e-15 0)
(2 -5.1341e-15 0)
(2 -3.99666e-15 0)
(2 -3.01265e-15 0)
(2 -3.11188e-15 0)
(2 -3.14773e-15 0)
(2 -3.23962e-15 0)
(2 -2.78723e-15 0)
(2 -2.43531e-15 0)
(2 1.21655e-16 0)
(2 3.75419e-14 0)
(2 1.02139e-12 0)
(2 2.21219e-11 0)
(2 3.53719e-10 0)
(2 4.45599e-09 0)
(2 4.51336e-08 0)
(2 3.55415e-07 0)
(2 2.23521e-06 0)
(1.99999 1.17765e-05 0)
(1.99996 5.01147e-05 0)
(1.99987 0.000175493 0)
(1.99962 0.000534648 0)
(1.99905 0.00139876 0)
(1.99796 0.0029616 0)
(1.99577 0.00617185 0)
(1.99303 0.0104863 0)
(1.98845 0.017155 0)
(1.98237 0.0260771 0)
(1.97839 0.0312068 0)
(1.97091 0.0411085 0)
(1.96068 0.0561642 0)
(1.95426 0.0611229 0)
(1.95066 0.062648 0)
(1.94418 0.0690438 0)
(1.94136 0.0708649 0)
(1.93911 0.0729448 0)
(1.93892 0.0739394 0)
(1.93953 0.073502 0)
(1.94084 0.0719626 0)
(1.94286 0.0697481 0)
(1.9456 0.0668368 0)
(1.94843 0.0642619 0)
(1.95171 0.0605431 0)
(1.95489 0.0569489 0)
(1.95789 0.0550078 0)
(1.96147 0.051092 0)
(1.9642 0.0479633 0)
(1.96691 0.0471161 0)
(1.97062 0.0439151 0)
(1.9735 0.0399537 0)
(1.97615 0.0393222 0)
(1.97924 0.0379141 0)
(1.98292 0.0333456 0)
(1.98555 0.0310467 0)
(1.9883 0.0306458 0)
(1.9922 0.026976 0)
(1.99529 0.0223493 0)
(1.99802 0.0213769 0)
(2.0009 0.0196264 0)
(2.00464 0.0145725 0)
(2.00713 0.0115249 0)
(2.00934 0.0106071 0)
(2.01267 0.00699925 0)
(2.01524 0.00279733 0)
(2.017 0.00168104 0)
(2.01946 -0.000973902 0)
(2.02246 -0.00583112 0)
(2.0242 -0.00799624 0)
(2.0256 -0.00879656 0)
(2.02863 -0.0128285 0)
(2.03054 -0.0165647 0)
(2.03221 -0.0182508 0)
(2.0348 -0.0217935 0)
(2.03627 -0.0240593 0)
(2.03769 -0.0260415 0)
(2 2.9982e-17 0)
(2 2.97216e-15 0)
(2 3.65593e-15 0)
(2 2.47372e-15 0)
(2 -3.2702e-16 0)
(2 -1.49529e-15 0)
(2 -1.20789e-15 0)
(2 -1.63961e-15 0)
(2 -3.74138e-15 0)
(2 -5.1199e-15 0)
(2 -5.04485e-15 0)
(2 -4.14818e-15 0)
(2 -2.7149e-15 0)
(2 -8.36162e-16 0)
(2 -5.28829e-16 0)
(2 -7.13528e-16 0)
(2 3.23668e-16 0)
(2 1.49151e-15 0)
(2 1.59437e-15 0)
(2 1.11782e-15 0)
(2 4.53756e-16 0)
(2 -1.58668e-15 0)
(2 -3.07832e-15 0)
(2 -1.94092e-15 0)
(2 -1.37187e-15 0)
(2 1.34087e-14 0)
(2 4.92628e-13 0)
(2 1.12909e-11 0)
(2 1.96779e-10 0)
(2 2.58135e-09 0)
(2 2.7463e-08 0)
(2 2.32265e-07 0)
(2 1.55604e-06 0)
(1.99999 8.45248e-06 0)
(1.99997 3.86743e-05 0)
(1.9999 0.000143321 0)
(1.99968 0.00044233 0)
(1.99914 0.00124235 0)
(1.99811 0.00280402 0)
(1.9961 0.00560422 0)
(1.99264 0.0108658 0)
(1.98876 0.0167817 0)
(1.98124 0.0274212 0)
(1.9743 0.036923 0)
(1.97032 0.042143 0)
(1.95927 0.0565572 0)
(1.9505 0.0689336 0)
(1.94625 0.0698973 0)
(1.94312 0.0726461 0)
(1.9406 0.0749574 0)
(1.93939 0.0765606 0)
(1.93953 0.0775821 0)
(1.94056 0.0772034 0)
(1.94224 0.0760278 0)
(1.94461 0.0736048 0)
(1.94721 0.0708603 0)
(1.95035 0.0672814 0)
(1.95345 0.0644228 0)
(1.9568 0.0613075 0)
(1.9605 0.0566227 0)
(1.96335 0.0548011 0)
(1.96651 0.0526524 0)
(1.97017 0.0478056 0)
(1.97281 0.0459564 0)
(1.97573 0.044782 0)
(1.97964 0.0403208 0)
(1.98219 0.0374934 0)
(1.98482 0.0369681 0)
(1.98878 0.0333987 0)
(1.99154 0.0292859 0)
(1.99381 0.0286649 0)
(1.99732 0.0259802 0)
(2.00085 0.0206207 0)
(2.00281 0.0190591 0)
(2.005 0.0178752 0)
(2.0092 0.012812 0)
(2.01131 0.00881963 0)
(2.0129 0.00852545 0)
(2.01557 0.005914 0)
(2.01867 0.000610739 0)
(2.0203 -0.00177941 0)
(2.02186 -0.00283161 0)
(2.02474 -0.00669754 0)
(2.02669 -0.0104582 0)
(2.02803 -0.0119916 0)
(2.03044 -0.0151848 0)
(2.03246 -0.0184277 0)
(2.03378 -0.0199711 0)
(2 1.02406e-15 0)
(2 1.63569e-15 0)
(2 1.89469e-15 0)
(2 1.66674e-15 0)
(2 1.78778e-16 0)
(2 -8.61408e-16 0)
(2 -1.25659e-15 0)
(2 -1.56472e-15 0)
(2 -2.30359e-15 0)
(2 -2.5384e-15 0)
(2 -2.14657e-15 0)
(2 -1.28166e-15 0)
(2 -2.70799e-16 0)
(2 6.45218e-16 0)
(2 1.8689e-15 0)
(2 2.33021e-15 0)
(2 2.03779e-15 0)
(2 1.82709e-15 0)
(2 9.61839e-16 0)
(2 6.42423e-16 0)
(2 4.04792e-16 0)
(2 1.066e-15 0)
(2 1.46025e-15 0)
(2 1.02674e-15 0)
(2 -3.81588e-16 0)
(2 -5.86908e-16 0)
(2 4.38899e-15 0)
(2 1.67011e-14 0)
(2 2.56853e-13 0)
(2 5.67787e-12 0)
(2 1.05282e-10 0)
(2 1.47877e-09 0)
(2 1.63172e-08 0)
(2 1.46879e-07 0)
(2 1.04972e-06 0)
(2 6.01512e-06 0)
(1.99998 2.85702e-05 0)
(1.99992 0.000114468 0)
(1.99974 0.000368348 0)
(1.99926 0.00104793 0)
(1.99819 0.0026618 0)
(1.99638 0.00527383 0)
(1.99256 0.0106268 0)
(1.98775 0.0178097 0)
(1.98148 0.026962 0)
(1.97106 0.0420227 0)
(1.96492 0.0486495 0)
(1.96036 0.0556278 0)
(1.95003 0.0693695 0)
(1.94402 0.076273 0)
(1.94134 0.07697 0)
(1.94099 0.0784235 0)
(1.94074 0.0794353 0)
(1.94095 0.0801571 0)
(1.94196 0.0801758 0)
(1.94374 0.0791694 0)
(1.94609 0.0772134 0)
(1.94918 0.0740393 0)
(1.95235 0.0710334 0)
(1.95577 0.0674134 0)
(1.95918 0.0637024 0)
(1.96236 0.061231 0)
(1.96613 0.0568175 0)
(1.96902 0.053729 0)
(1.97177 0.0526127 0)
(1.97571 0.0485589 0)
(1.97856 0.0446286 0)
(1.98116 0.0439667 0)
(1.98459 0.0413003 0)
(1.98796 0.0362616 0)
(1.9904 0.0345922 0)
(1.99298 0.0335619 0)
(1.99668 0.0288741 0)
(1.99903 0.0252841 0)
(2.00123 0.0247435 0)
(2.00438 0.02144 0)
(2.00713 0.0163843 0)
(2.00899 0.0151446 0)
(2.01162 0.0127445 0)
(2.0146 0.00759396 0)
(2.01603 0.00568749 0)
(2.01796 0.00369108 0)
(2.02102 -0.000905276 0)
(2.0227 -0.00377346 0)
(2.02438 -0.00577219 0)
(2.02672 -0.00922985 0)
(2.0286 -0.0123934 0)
(2.03017 -0.0144939 0)
(2 -1.65177e-15 0)
(2 -1.53508e-15 0)
(2 -1.66582e-15 0)
(2 -1.56726e-15 0)
(2 -1.48127e-15 0)
(2 -1.56343e-15 0)
(2 -2.25837e-15 0)
(2 -1.76751e-15 0)
(2 -6.02614e-16 0)
(2 6.99818e-16 0)
(2 1.92901e-15 0)
(2 2.87966e-15 0)
(2 4.75722e-15 0)
(2 5.03495e-15 0)
(2 5.23283e-15 0)
(2 5.15157e-15 0)
(2 5.25079e-15 0)
(2 5.5695e-15 0)
(2 5.81858e-15 0)
(2 6.09874e-15 0)
(2 5.71333e-15 0)
(2 5.06778e-15 0)
(2 5.15066e-15 0)
(2 4.46501e-15 0)
(2 1.26209e-15 0)
(2 8.29711e-16 0)
(2 9.59746e-16 0)
(2 1.15754e-15 0)
(2 9.36101e-16 0)
(2 3.09809e-15 0)
(2 1.14426e-13 0)
(2 2.7645e-12 0)
(2 5.30029e-11 0)
(2 8.10492e-10 0)
(2 9.45686e-09 0)
(2 8.89945e-08 0)
(2 6.83089e-07 0)
(2 4.18223e-06 0)
(1.99998 2.07688e-05 0)
(1.99994 8.80442e-05 0)
(1.99978 0.000310913 0)
(1.99936 0.000890107 0)
(1.99828 0.00242529 0)
(1.99635 0.00531569 0)
(1.99278 0.0101591 0)
(1.9864 0.0192405 0)
(1.98057 0.027771 0)
(1.97053 0.0425008 0)
(1.96034 0.0576493 0)
(1.95631 0.0605298 0)
(1.95263 0.0667698 0)
(1.94572 0.0766293 0)
(1.94265 0.0799866 0)
(1.94164 0.0801563 0)
(1.94202 0.081161 0)
(1.94317 0.0820055 0)
(1.94399 0.0818568 0)
(1.94566 0.0812767 0)
(1.94809 0.0797204 0)
(1.95101 0.0772344 0)
(1.95439 0.0737264 0)
(1.95771 0.0706197 0)
(1.96127 0.0670611 0)
(1.96495 0.0625137 0)
(1.96787 0.060466 0)
(1.97141 0.0572623 0)
(1.97491 0.0523165 0)
(1.9775 0.0508951 0)
(1.98044 0.049058 0)
(1.98412 0.0440824 0)
(1.98654 0.041767 0)
(1.98902 0.0406615 0)
(1.9928 0.0362669 0)
(1.99518 0.0327041 0)
(1.9973 0.0318878 0)
(2.00069 0.0284192 0)
(2.00319 0.0238137 0)
(2.0049 0.0227402 0)
(2.00738 0.020534 0)
(2.01044 0.0152417 0)
(2.01188 0.0129497 0)
(2.01325 0.0119478 0)
(2.01668 0.00711918 0)
(2.01853 0.00294418 0)
(2.0199 0.00208542 0)
(2.02236 -0.00106754 0)
(2.02439 -0.00465003 0)
(2.0263 -0.0075612 0)
(2 1.64826e-15 0)
(2 8.77378e-17 0)
(2 8.07331e-17 0)
(2 3.20188e-16 0)
(2 1.76357e-15 0)
(2 3.15208e-15 0)
(2 2.45914e-15 0)
(2 1.31924e-15 0)
(2 1.13823e-15 0)
(2 9.43239e-16 0)
(2 1.62505e-15 0)
(2 2.65481e-15 0)
(2 3.49425e-15 0)
(2 5.03122e-15 0)
(2 5.09432e-15 0)
(2 4.50388e-15 0)
(2 5.36277e-15 0)
(2 6.47236e-15 0)
(2 7.13667e-15 0)
(2 6.59275e-15 0)
(2 6.02309e-15 0)
(2 5.23976e-15 0)
(2 4.35638e-15 0)
(2 4.05903e-15 0)
(2 3.29317e-15 0)
(2 2.82433e-15 0)
(2 1.77164e-15 0)
(2 1.29747e-15 0)
(2 -3.3417e-16 0)
(2 -1.86685e-15 0)
(2 -3.33641e-15 0)
(2 -3.13872e-15 0)
(2 4.42178e-14 0)
(2 1.28755e-12 0)
(2 2.56011e-11 0)
(2 4.174e-10 0)
(2 5.31011e-09 0)
(2 5.27287e-08 0)
(2 4.31228e-07 0)
(2 2.8577e-06 0)
(1.99999 1.53155e-05 0)
(1.99995 6.76017e-05 0)
(1.99981 0.00026045 0)
(1.99942 0.000810897 0)
(1.99842 0.00216365 0)
(1.99613 0.00544672 0)
(1.99268 0.0104018 0)
(1.98595 0.0195439 0)
(1.97798 0.0309633 0)
(1.97146 0.0410092 0)
(1.95991 0.0597551 0)
(1.95254 0.0703574 0)
(1.95071 0.0704553 0)
(1.94831 0.0746523 0)
(1.94515 0.079543 0)
(1.94445 0.0816705 0)
(1.94474 0.0820245 0)
(1.94548 0.0822961 0)
(1.9467 0.0827367 0)
(1.94827 0.0821718 0)
(1.95034 0.081082 0)
(1.95317 0.0790967 0)
(1.95642 0.0763778 0)
(1.95984 0.0728569 0)
(1.96323 0.069455 0)
(1.96671 0.066315 0)
(1.97048 0.0617026 0)
(1.97332 0.0590346 0)
(1.97647 0.0566323 0)
(1.98032 0.0516179 0)
(1.98269 0.0489866 0)
(1.98508 0.0480707 0)
(1.98885 0.0439784 0)
(1.99131 0.0400014 0)
(1.99339 0.0392811 0)
(1.99629 0.0366772 0)
(1.99932 0.0315894 0)
(2.00115 0.029666 0)
(2.00311 0.0284151 0)
(2.00623 0.0238558 0)
(2.00797 0.0204109 0)
(2.00946 0.0194005 0)
(2.01219 0.0156444 0)
(2.01407 0.0114964 0)
(2.01547 0.0102277 0)
(2.01823 0.00679364 0)
(2.02055 0.00218015 0)
(2.02187 0.000688023 0)
(2 -3.0303e-15 0)
(2 -5.27708e-15 0)
(2 -5.15164e-15 0)
(2 -4.41164e-15 0)
(2 -1.97634e-15 0)
(2 6.12954e-16 0)
(2 1.00448e-15 0)
(2 -3.67493e-16 0)
(2 -8.90967e-16 0)
(2 -1.70485e-15 0)
(2 -1.017e-15 0)
(2 -1.13166e-16 0)
(2 -4.0929e-16 0)
(2 4.65244e-16 0)
(2 3.31274e-16 0)
(2 5.48709e-16 0)
(2 4.86528e-16 0)
(2 5.15249e-16 0)
(2 1.14205e-15 0)
(2 5.1281e-16 0)
(2 1.43531e-16 0)
(2 3.54314e-16 0)
(2 1.00029e-16 0)
(2 1.16251e-16 0)
(2 -2.63675e-17 0)
(2 -9.97056e-16 0)
(2 -1.31909e-15 0)
(2 -3.30683e-15 0)
(2 -4.84471e-15 0)
(2 -6.26855e-15 0)
(2 -8.5981e-15 0)
(2 -9.24577e-15 0)
(2 -7.77165e-15 0)
(2 -4.16438e-15 0)
(2 1.55746e-14 0)
(2 5.64539e-13 0)
(2 1.21926e-11 0)
(2 2.08434e-10 0)
(2 2.92556e-09 0)
(2 3.16786e-08 0)
(2 2.75459e-07 0)
(2 1.98845e-06 0)
(1.99999 1.16039e-05 0)
(1.99996 5.50912e-05 0)
(1.99983 0.000220961 0)
(1.99944 0.000769636 0)
(1.99847 0.00209453 0)
(1.9961 0.00527167 0)
(1.99195 0.0113747 0)
(1.9862 0.0194474 0)
(1.97651 0.0337171 0)
(1.96988 0.0431591 0)
(1.96289 0.0547142 0)
(1.95343 0.0722531 0)
(1.94865 0.0780881 0)
(1.94832 0.0775383 0)
(1.94789 0.0793402 0)
(1.94699 0.0809903 0)
(1.94781 0.082263 0)
(1.94829 0.0827134 0)
(1.94951 0.0828358 0)
(1.95128 0.0825797 0)
(1.95339 0.0815745 0)
(1.95575 0.0800236 0)
(1.95862 0.0777322 0)
(1.96183 0.0749733 0)
(1.96539 0.0713467 0)
(1.96882 0.0675314 0)
(1.97172 0.0653075 0)
(1.97544 0.0611386 0)
(1.97869 0.0566111 0)
(1.98121 0.055313 0)
(1.98455 0.0521546 0)
(1.98768 0.0472238 0)
(1.98983 0.0458539 0)
(1.99239 0.0440216 0)
(1.99546 0.0393883 0)
(1.99722 0.0372959 0)
(1.99919 0.035941 0)
(2.00233 0.0316553 0)
(2.00398 0.0284947 0)
(2.00537 0.0276306 0)
(2.00811 0.024127 0)
(2.01018 0.0194889 0)
(2.01157 0.0182388 0)
(2.0135 0.0162334 0)
(2.01603 0.0118972 0)
(2.01777 0.00871156 0)
(2 -3.84334e-16 0)
(2 -1.87263e-15 0)
(2 -2.759e-15 0)
(2 -2.33175e-15 0)
(2 -1.84839e-15 0)
(2 -3.04103e-15 0)
(2 -2.11301e-15 0)
(2 -1.96089e-15 0)
(2 -1.07545e-15 0)
(2 -2.26361e-15 0)
(2 -1.73749e-15 0)
(2 -1.29649e-15 0)
(2 -2.36843e-15 0)
(2 -2.47858e-15 0)
(2 -1.77413e-15 0)
(2 1.69951e-16 0)
(2 7.33901e-18 0)
(2 -1.7876e-15 0)
(2 -2.79946e-15 0)
(2 -3.34659e-15 0)
(2 -2.28962e-15 0)
(2 -2.5496e-15 0)
(2 -2.85088e-15 0)
(2 -3.9632e-15 0)
(2 -4.07811e-15 0)
(2 -4.71779e-15 0)
(2 -5.42735e-15 0)
(2 -6.05264e-15 0)
(2 -6.31095e-15 0)
(2 -6.80235e-15 0)
(2 -7.00379e-15 0)
(2 -6.52977e-15 0)
(2 -4.75184e-15 0)
(2 -4.67624e-15 0)
(2 -4.17913e-15 0)
(2 -4.72338e-15 0)
(2 -1.19513e-16 0)
(2 2.32066e-13 0)
(2 5.9286e-12 0)
(2 1.09439e-10 0)
(2 1.65562e-09 0)
(2 2.01044e-08 0)
(2 1.89522e-07 0)
(2 1.46209e-06 0)
(1.99999 9.35879e-06 0)
(1.99996 4.7834e-05 0)
(1.99985 0.000201997 0)
(1.99945 0.000722557 0)
(1.99841 0.0021908 0)
(1.99621 0.0051568 0)
(1.99152 0.0117285 0)
(1.98578 0.0204866 0)
(1.97713 0.0330295 0)
(1.96783 0.0480833 0)
(1.96439 0.0538259 0)
(1.95786 0.0650193 0)
(1.95121 0.0782976 0)
(1.94847 0.0817709 0)
(1.94816 0.0811621 0)
(1.94974 0.0813514 0)
(1.95031 0.0820018 0)
(1.95122 0.0823119 0)
(1.95261 0.0824195 0)
(1.95428 0.0823862 0)
(1.95623 0.0816266 0)
(1.95858 0.080195 0)
(1.96122 0.0783021 0)
(1.96418 0.075826 0)
(1.96739 0.0728371 0)
(1.97069 0.0696241 0)
(1.97405 0.0655961 0)
(1.97689 0.0630741 0)
(1.98005 0.0602756 0)
(1.98353 0.0554461 0)
(1.98581 0.0532402 0)
(1.98834 0.0514502 0)
(1.99178 0.0468126 0)
(1.99369 0.0440106 0)
(1.99544 0.0431485 0)
(1.99838 0.0396063 0)
(2.00036 0.0358337 0)
(2.00186 0.0349784 0)
(2.00408 0.0325663 0)
(2.00637 0.0280575 0)
(2.00765 0.0264567 0)
(2.00957 0.0244473 0)
(2.01222 0.0198443 0)
(2.0135 0.0176145 0)
(2 3.31171e-15 0)
(2 2.81786e-15 0)
(2 3.00843e-15 0)
(2 2.73579e-15 0)
(2 9.05295e-16 0)
(2 -2.4308e-15 0)
(2 -5.81799e-15 0)
(2 -7.96461e-15 0)
(2 -7.49381e-15 0)
(2 -5.92565e-15 0)
(2 -4.59346e-15 0)
(2 -3.44914e-15 0)
(2 -2.94006e-15 0)
(2 -2.91411e-15 0)
(2 -2.27835e-15 0)
(2 -1.47606e-15 0)
(2 6.7972e-16 0)
(2 1.8332e-15 0)
(2 7.42587e-16 0)
(2 -4.75859e-16 0)
(2 -8.28625e-16 0)
(2 -1.83441e-15 0)
(2 -2.69718e-15 0)
(2 -3.73548e-15 0)
(2 -4.54512e-15 0)
(2 -3.86629e-15 0)
(2 -4.66756e-15 0)
(2 -5.22058e-15 0)
(2 -5.70168e-15 0)
(2 -4.19688e-15 0)
(2 -2.97445e-15 0)
(2 -1.2443e-15 0)
(2 -1.09787e-15 0)
(2 -1.8225e-15 0)
(2 -2.7847e-15 0)
(2 -4.40835e-15 0)
(2 -5.08025e-15 0)
(2 -4.88324e-15 0)
(2 -2.99456e-15 0)
(2 1.0523e-13 0)
(2 3.11638e-12 0)
(2 6.45691e-11 0)
(2 1.04684e-09 0)
(2 1.38591e-08 0)
(2 1.45156e-07 0)
(2 1.18141e-06 0)
(1.99999 8.05396e-06 0)
(1.99997 4.38805e-05 0)
(1.99985 0.000195207 0)
(1.99947 0.000700435 0)
(1.99838 0.0021819 0)
(1.99614 0.00541066 0)
(1.99187 0.0112925 0)
(1.98515 0.0213676 0)
(1.97873 0.032106 0)
(1.96859 0.048295 0)
(1.96213 0.0587482 0)
(1.96164 0.0620271 0)
(1.95654 0.0703026 0)
(1.95213 0.0798777 0)
(1.95073 0.0823078 0)
(1.95091 0.0820939 0)
(1.95302 0.0823729 0)
(1.95426 0.0817472 0)
(1.95544 0.0815351 0)
(1.95711 0.0813729 0)
(1.95912 0.0809971 0)
(1.96139 0.0798773 0)
(1.9639 0.0782627 0)
(1.96666 0.076247 0)
(1.96963 0.0734308 0)
(1.97263 0.07036 0)
(1.97557 0.0679043 0)
(1.97901 0.0639147 0)
(1.9818 0.0603771 0)
(1.98419 0.0588027 0)
(1.98748 0.0550177 0)
(1.98995 0.0512006 0)
(1.99183 0.0499393 0)
(1.99462 0.0468856 0)
(1.99686 0.0429986 0)
(1.99841 0.0419593 0)
(2.00045 0.0400852 0)
(2.00293 0.0358137 0)
(2.00418 0.0337725 0)
(2.00569 0.032514 0)
(2.00824 0.0286323 0)
(2.00961 0.0259258 0)
(2 -1.42392e-15 0)
(2 -9.6453e-16 0)
(2 -8.48305e-16 0)
(2 -2.10147e-15 0)
(2 -3.14732e-15 0)
(2 -3.07112e-15 0)
(2 -4.24678e-15 0)
(2 -6.96227e-15 0)
(2 -7.27037e-15 0)
(2 -6.76053e-15 0)
(2 -5.56821e-15 0)
(2 -4.18559e-15 0)
(2 -2.33742e-15 0)
(2 -2.50633e-15 0)
(2 -1.90032e-15 0)
(2 -1.66955e-15 0)
(2 -2.63635e-15 0)
(2 -2.2446e-15 0)
(2 -2.30469e-15 0)
(2 -2.71933e-15 0)
(2 -4.27294e-15 0)
(2 -3.85834e-15 0)
(2 -4.27278e-15 0)
(2 -4.57391e-15 0)
(2 -4.67987e-15 0)
(2 -5.14279e-15 0)
(2 -4.79866e-15 0)
(2 -2.99611e-15 0)
(2 -1.91894e-15 0)
(2 -5.10838e-16 0)
(2 -6.45367e-17 0)
(2 8.79407e-16 0)
(2 4.46107e-16 0)
(2 2.26906e-16 0)
(2 -7.69165e-16 0)
(2 -2.3852e-15 0)
(2 -2.84545e-15 0)
(2 -4.51518e-15 0)
(2 -4.20849e-15 0)
(2 -3.9987e-16 0)
(2 -6.43783e-17 0)
(2 5.97995e-14 0)
(2 1.87426e-12 0)
(2 4.39485e-11 0)
(2 7.63478e-10 0)
(2 1.06691e-08 0)
(2 1.19906e-07 0)
(2 1.04516e-06 0)
(1.99999 7.271e-06 0)
(1.99997 4.12904e-05 0)
(1.99985 0.00018862 0)
(1.99948 0.000695836 0)
(1.99844 0.00210242 0)
(1.99611 0.00548879 0)
(1.99231 0.0111025 0)
(1.98586 0.0206017 0)
(1.97894 0.0316928 0)
(1.97241 0.0441409 0)
(1.96343 0.0607627 0)
(1.95965 0.0661376 0)
(1.95985 0.0676465 0)
(1.95785 0.0727717 0)
(1.95568 0.0786835 0)
(1.9546 0.0812499 0)
(1.95524 0.0810895 0)
(1.95702 0.0810182 0)
(1.95864 0.0806778 0)
(1.96019 0.0800355 0)
(1.96206 0.0795729 0)
(1.96414 0.078934 0)
(1.96653 0.0774904 0)
(1.96901 0.0756666 0)
(1.97176 0.0738483 0)
(1.97468 0.0712573 0)
(1.97759 0.0677978 0)
(1.98022 0.06537 0)
(1.98318 0.0624659 0)
(1.98611 0.0584216 0)
(1.9882 0.0565116 0)
(1.99063 0.0541819 0)
(1.99338 0.0500222 0)
(1.99509 0.0482258 0)
(1.9969 0.0469249 0)
(1.99951 0.0431555 0)
(2.0009 0.0405472 0)
(2.00219 0.0396128 0)
(2.00463 0.0363769 0)
(2.00619 0.0331501 0)
(2 -1.45957e-15 0)
(2 -1.27595e-15 0)
(2 -1.6864e-15 0)
(2 -2.266e-15 0)
(2 -2.80321e-15 0)
(2 -3.24281e-15 0)
(2 -4.08816e-15 0)
(2 -4.57027e-15 0)
(2 -6.15101e-15 0)
(2 -7.18896e-15 0)
(2 -6.25194e-15 0)
(2 -4.27015e-15 0)
(2 -2.32553e-15 0)
(2 -3.71106e-16 0)
(2 -1.35975e-17 0)
(2 9.94452e-17 0)
(2 -1.30605e-15 0)
(2 -3.3473e-15 0)
(2 -4.71578e-15 0)
(2 -6.59794e-15 0)
(2 -7.73453e-15 0)
(2 -7.67973e-15 0)
(2 -7.90503e-15 0)
(2 -7.11485e-15 0)
(2 -6.3019e-15 0)
(2 -6.81297e-15 0)
(2 -5.88203e-15 0)
(2 -5.31919e-15 0)
(2 -4.60986e-15 0)
(2 -4.12016e-15 0)
(2 -3.3802e-15 0)
(2 -2.54987e-15 0)
(2 -1.86582e-15 0)
(2 -1.66418e-15 0)
(2 -1.58813e-15 0)
(2 -2.8689e-15 0)
(2 -3.74151e-15 0)
(2 -4.7515e-15 0)
(2 -2.36785e-15 0)
(2 -2.53248e-15 0)
(2 -1.74313e-15 0)
(2 -4.98156e-16 0)
(2 6.67943e-16 0)
(2 4.50613e-14 0)
(2 1.33535e-12 0)
(2 3.29387e-11 0)
(2 6.21009e-10 0)
(2 8.87879e-09 0)
(2 1.03412e-07 0)
(2 9.38427e-07 0)
(1.99999 6.74611e-06 0)
(1.99997 3.85409e-05 0)
(1.99986 0.000178335 0)
(1.99951 0.000665329 0)
(1.99855 0.00201131 0)
(1.9964 0.00507465 0)
(1.99258 0.0110447 0)
(1.98733 0.0192129 0)
(1.98026 0.0305986 0)
(1.97433 0.0409971 0)
(1.96799 0.0538518 0)
(1.96184 0.0683256 0)
(1.95943 0.0711865 0)
(1.95997 0.0707805 0)
(1.96011 0.0735444 0)
(1.95995 0.0770501 0)
(1.9593 0.0790801 0)
(1.95978 0.0791867 0)
(1.96159 0.0788726 0)
(1.96346 0.0782841 0)
(1.96513 0.077652 0)
(1.96702 0.0770115 0)
(1.96904 0.0762564 0)
(1.97141 0.0748353 0)
(1.97399 0.0726931 0)
(1.97652 0.0707895 0)
(1.97922 0.0687555 0)
(1.98217 0.0654112 0)
(1.9846 0.0625804 0)
(1.98687 0.0606295 0)
(1.98968 0.0570297 0)
(1.99172 0.0542356 0)
(1.99352 0.0530515 0)
(1.99605 0.0499601 0)
(1.99779 0.0467989 0)
(1.99911 0.0457118 0)
(2.00117 0.0432732 0)
(2.00296 0.0399925 0)
(2 -7.3696e-16 0)
(2 -5.11755e-16 0)
(2 -9.25047e-16 0)
(2 -9.91473e-16 0)
(2 -2.35344e-15 0)
(2 -3.25033e-15 0)
(2 -2.61575e-15 0)
(2 -1.00659e-15 0)
(2 -7.74081e-16 0)
(2 -8.99835e-16 0)
(2 -1.24117e-15 0)
(2 -1.68701e-15 0)
(2 -8.37985e-16 0)
(2 9.3328e-17 0)
(2 -1.38003e-15 0)
(2 -1.24693e-15 0)
(2 -9.3417e-16 0)
(2 -1.23663e-15 0)
(2 -2.72481e-15 0)
(2 -4.08882e-15 0)
(2 -5.66735e-15 0)
(2 -6.29392e-15 0)
(2 -5.77302e-15 0)
(2 -5.43396e-15 0)
(2 -6.02567e-15 0)
(2 -6.46856e-15 0)
(2 -6.25956e-15 0)
(2 -5.36722e-15 0)
(2 -4.56053e-15 0)
(2 -4.56524e-15 0)
(2 -4.20479e-15 0)
(2 -4.05155e-15 0)
(2 -3.61722e-15 0)
(2 -3.5338e-15 0)
(2 -3.81831e-15 0)
(2 -3.5613e-15 0)
(2 -3.21929e-15 0)
(2 -2.90767e-15 0)
(2 -2.33036e-15 0)
(2 -2.04979e-15 0)
(2 -6.15207e-16 0)
(2 4.8872e-16 0)
(2 1.35811e-15 0)
(2 1.5887e-15 0)
(2 2.48591e-15 0)
(2 3.46899e-14 0)
(2 1.06415e-12 0)
(2 2.55711e-11 0)
(2 5.12937e-10 0)
(2 7.53835e-09 0)
(2 8.89326e-08 0)
(2 8.19746e-07 0)
(2 6.01916e-06 0)
(1.99997 3.45996e-05 0)
(1.99988 0.000160557 0)
(1.99955 0.000610939 0)
(1.99872 0.00181413 0)
(1.99678 0.00469975 0)
(1.99354 0.00963172 0)
(1.98826 0.0184512 0)
(1.98264 0.027884 0)
(1.97627 0.0394334 0)
(1.97218 0.047776 0)
(1.96611 0.0599503 0)
(1.96233 0.0714947 0)
(1.96096 0.0740033 0)
(1.96176 0.0721786 0)
(1.96302 0.0731396 0)
(1.96388 0.0751522 0)
(1.96408 0.0762939 0)
(1.96476 0.0765279 0)
(1.96626 0.0762147 0)
(1.96821 0.0753671 0)
(1.97005 0.0745581 0)
(1.97195 0.0736862 0)
(1.97393 0.0727351 0)
(1.97604 0.0715746 0)
(1.97866 0.0694582 0)
(1.9811 0.0672876 0)
(1.98343 0.0656997 0)
(1.98607 0.0630851 0)
(1.98845 0.059858 0)
(1.99031 0.0583337 0)
(1.99253 0.0560886 0)
(1.99468 0.0527942 0)
(1.99605 0.0513552 0)
(1.99785 0.0493887 0)
(1.99989 0.0461252 0)
(2 -2.24416e-15 0)
(2 -2.71284e-15 0)
(2 -2.92718e-15 0)
(2 -3.16429e-15 0)
(2 -3.73363e-15 0)
(2 -3.23423e-15 0)
(2 -2.15748e-15 0)
(2 -1.19407e-15 0)
(2 -1.0108e-15 0)
(2 -1.68101e-15 0)
(2 -3.88487e-15 0)
(2 -4.61209e-15 0)
(2 -4.14937e-15 0)
(2 -3.87336e-15 0)
(2 -5.0783e-15 0)
(2 -6.67983e-15 0)
(2 -5.73251e-15 0)
(2 -5.3178e-15 0)
(2 -4.27646e-15 0)
(2 -2.3247e-15 0)
(2 -1.60422e-15 0)
(2 -2.11742e-15 0)
(2 -2.61788e-15 0)
(2 -3.19045e-15 0)
(2 -3.88785e-15 0)
(2 -3.61741e-15 0)
(2 -3.53381e-15 0)
(2 -3.23903e-15 0)
(2 -2.4118e-15 0)
(2 -2.70762e-15 0)
(2 -2.56876e-15 0)
(2 -2.35874e-15 0)
(2 -2.20862e-15 0)
(2 -2.03984e-15 0)
(2 -1.75176e-15 0)
(2 -3.72022e-16 0)
(2 1.7838e-16 0)
(2 -2.66009e-17 0)
(2 5.96438e-17 0)
(2 3.92429e-16 0)
(2 1.69593e-15 0)
(2 1.9498e-15 0)
(2 2.57289e-15 0)
(2 3.06361e-15 0)
(2 3.50489e-15 0)
(2 5.149e-15 0)
(2 7.22299e-15 0)
(2 2.99402e-14 0)
(2 8.14962e-13 0)
(2 2.0082e-11 0)
(2 3.93319e-10 0)
(2 6.11843e-09 0)
(2 7.15741e-08 0)
(2 6.84112e-07 0)
(2 4.94692e-06 0)
(1.99998 2.96605e-05 0)
(1.9999 0.000133934 0)
(1.99963 0.000518872 0)
(1.99892 0.00156357 0)
(1.99729 0.00404347 0)
(1.99454 0.00845914 0)
(1.99006 0.015791 0)
(1.98476 0.0253238 0)
(1.97877 0.036211 0)
(1.97446 0.0452805 0)
(1.9722 0.0520088 0)
(1.96669 0.0623066 0)
(1.96413 0.0719073 0)
(1.96358 0.0744847 0)
(1.9642 0.0724921 0)
(1.96668 0.0719872 0)
(1.96768 0.0726259 0)
(1.96858 0.0730925 0)
(1.96963 0.0732031 0)
(1.97114 0.0729992 0)
(1.97293 0.0720681 0)
(1.9748 0.0709109 0)
(1.97675 0.0697569 0)
(1.97873 0.0685935 0)
(1.98055 0.0676735 0)
(1.98281 0.0659729 0)
(1.9852 0.0635465 0)
(1.98717 0.0621231 0)
(1.98937 0.0605319 0)
(1.9918 0.057722 0)
(1.99336 0.0558693 0)
(1.99492 0.0542325 0)
(1.99697 0.0513205 0)
(2 -4.4553e-15 0)
(2 -6.165e-15 0)
(2 -6.29101e-15 0)
(2 -5.39296e-15 0)
(2 -4.68851e-15 0)
(2 -3.40897e-15 0)
(2 -2.41688e-15 0)
(2 -2.36319e-15 0)
(2 -2.6908e-15 0)
(2 -3.96911e-15 0)
(2 -4.72741e-15 0)
(2 -5.04236e-15 0)
(2 -5.70791e-15 0)
(2 -7.25201e-15 0)
(2 -7.72973e-15 0)
(2 -8.10316e-15 0)
(2 -7.23376e-15 0)
(2 -5.69876e-15 0)
(2 -2.76292e-15 0)
(2 -1.173e-15 0)
(2 2.28691e-17 0)
(2 -5.10908e-16 0)
(2 -8.27038e-16 0)
(2 -2.44442e-15 0)
(2 -3.10764e-15 0)
(2 -3.60255e-15 0)
(2 -3.3128e-15 0)
(2 -2.74788e-15 0)
(2 -3.149e-15 0)
(2 -3.56554e-15 0)
(2 -3.78512e-15 0)
(2 -3.45208e-15 0)
(2 -2.59779e-15 0)
(2 -8.07039e-16 0)
(2 2.36566e-16 0)
(2 -4.12699e-17 0)
(2 1.07983e-15 0)
(2 2.57623e-15 0)
(2 3.89635e-15 0)
(2 4.45998e-15 0)
(2 3.0888e-15 0)
(2 2.469e-15 0)
(2 3.14964e-15 0)
(2 3.2177e-15 0)