/*--------------------------------*- C++ -*----------------------------------*\
  =========                 |
  \\      /  F ield         | OpenFOAM: The Open Source CFD Toolbox
   \\    /   O peration     | Website:  https://openfoam.org
    \\  /    A nd           | Version:  7
     \\/     M anipulation  |
\*---------------------------------------------------------------------------*/
FoamFile
{
    version     2.0;
    format      ascii;
    class       volScalarField;
    location    "1.6";
    object      p;
}
// * * * * * * * * * * * * * * * * * * * * * * * * * * * * * * * * * * * * * //

dimensions      [0 2 -2 0 0 0 0];

internalField   nonuniform List<scalar> 
40000
(
9.92969e-08
6.23246e-06
1.08751e-05
1.26201e-05
1.03267e-05
3.542e-06
-7.76179e-06
-2.34103e-05
-4.31268e-05
-6.65824e-05
-9.34294e-05
-0.00012333
-0.00015596
-0.000191022
-0.000228241
-0.000267368
-0.000308177
-0.000350466
-0.000394057
-0.000438795
-0.000484546
-0.000531194
-0.000578643
-0.00062681
-0.000675624
-0.000725025
-0.000774961
-0.000825388
-0.000876269
-0.000927571
-0.000979267
-0.00103133
-0.00108374
-0.00113646
-0.00118948
-0.00124276
-0.00129628
-0.00135
-0.00140389
-0.00145791
-0.00151202
-0.00156616
-0.0016203
-0.00167436
-0.0017283
-0.00178203
-0.00183549
-0.0018886
-0.00194128
-0.00199344
-0.00204499
-0.00209582
-0.00214584
-0.00219495
-0.00224303
-0.00228998
-0.00233566
-0.00237997
-0.00242278
-0.00246397
-0.0025034
-0.00254096
-0.0025765
-0.0026099
-0.00264103
-0.00266975
-0.00269593
-0.00271945
-0.00274018
-0.00275799
-0.00277276
-0.00278437
-0.00279271
-0.00279767
-0.00279914
-0.00279704
-0.00279126
-0.00278174
-0.00276839
-0.00275116
-0.00273
-0.00270486
-0.00267572
-0.00264255
-0.00260537
-0.00256417
-0.00251899
-0.00246987
-0.00241686
-0.00236004
-0.00229949
-0.00223533
-0.00216769
-0.00209669
-0.00202251
-0.00194532
-0.00186532
-0.00178272
-0.00169775
-0.00161065
-0.00152171
-0.00143118
-0.00133937
-0.00124659
-0.00115315
-0.00105941
-0.000965688
-0.000872356
-0.000779774
-0.000688315
-0.000598354
-0.000510273
-0.000424454
-0.000341279
-0.000261131
-0.000184385
-0.000111415
-4.25845e-05
2.17524e-05
8.12524e-05
0.000135586
0.000184438
0.000227511
0.000264529
0.000295234
0.000319391
0.000336791
0.000347247
0.000350601
0.000346722
0.00033551
0.000316891
0.000290822
0.000257293
0.000216323
0.000167961
0.000112287
4.94141e-05
-2.05182e-05
-9.73395e-05
-0.000180852
-0.00027083
-0.000367022
-0.000469154
-0.000576925
-0.000690017
-0.00080809
-0.000930787
-0.00105774
-0.00118855
-0.00132283
-0.00146018
-0.00160017
-0.00174239
-0.00188642
-0.00203183
-0.00217819
-0.0023251
-0.00247214
-0.00261889
-0.00276496
-0.00290995
-0.00305348
-0.00319518
-0.00333469
-0.00347167
-0.00360578
-0.00373671
-0.00386416
-0.00398783
-0.00410744
-0.00422275
-0.0043335
-0.00443946
-0.00454041
-0.00463615
-0.00472647
-0.00481119
-0.00489015
-0.00496317
-0.00503012
-0.00509086
-0.00514526
-0.00519322
-0.00523464
-0.00526947
-0.00529765
-0.0053192
-0.00533416
-0.00534263
-0.00534481
-0.00534099
-0.00533162
-0.00531735
-0.00529911
-0.00527821
-0.00525644
-0.0052362
-0.00522101
-0.00521456
-4.76846e-06
1.10201e-06
4.19748e-06
4.32689e-06
1.06138e-06
-5.98831e-06
-1.69315e-05
-3.16962e-05
-5.01082e-05
-7.19367e-05
-9.69228e-05
-0.000124794
-0.000155283
-0.000188129
-0.000223098
-0.000259971
-0.000298542
-0.000338622
-0.000380046
-0.000422664
-0.000466349
-0.00051099
-0.00055649
-0.000602765
-0.000649744
-0.000697362
-0.000745562
-0.000794298
-0.000843528
-0.000893215
-0.000943328
-0.000993836
-0.00104471
-0.00109592
-0.00114744
-0.00119924
-0.00125129
-0.00130354
-0.00135598
-0.00140855
-0.00146122
-0.00151393
-0.00156663
-0.00161927
-0.00167179
-0.00172412
-0.00177619
-0.00182793
-0.00187925
-0.00193007
-0.00198031
-0.00202987
-0.00207864
-0.00212654
-0.00217346
-0.00221928
-0.00226391
-0.00230721
-0.00234908
-0.00238939
-0.00242803
-0.00246487
-0.00249978
-0.00253264
-0.00256333
-0.00259171
-0.00261767
-0.00264108
-0.00266182
-0.00267977
-0.00269481
-0.00270682
-0.00271571
-0.00272137
-0.00272369
-0.00272259
-0.00271798
-0.00270979
-0.00269794
-0.00268238
-0.00266305
-0.00263993
-0.00261297
-0.00258217
-0.00254753
-0.00250905
-0.00246677
-0.00242072
-0.00237095
-0.00231754
-0.00226057
-0.00220016
-0.0021364
-0.00206946
-0.00199947
-0.00192661
-0.00185107
-0.00177305
-0.00169277
-0.00161048
-0.00152641
-0.00144085
-0.00135408
-0.00126639
-0.00117809
-0.0010895
-0.00100096
-0.000912797
-0.000825374
-0.000739041
-0.00065416
-0.000571096
-0.000490215
-0.000411884
-0.000336467
-0.000264327
-0.000195818
-0.00013129
-7.10818e-05
-1.55214e-05
3.50755e-05
8.04088e-05
0.000120195
0.000154168
0.000182084
0.000203719
0.000218871
0.000227365
0.00022905
0.000223803
0.000211527
0.000192155
0.000165647
0.000131993
9.12136e-05
4.33578e-05
-1.14958e-05
-7.32392e-05
-0.000141736
-0.000216822
-0.000298306
-0.000385972
-0.000479577
-0.000578856
-0.000683522
-0.000793267
-0.000907766
-0.00102668
-0.00114964
-0.00127629
-0.00140624
-0.0015391
-0.00167447
-0.00181196
-0.00195116
-0.00209166
-0.00223305
-0.00237494
-0.00251693
-0.00265862
-0.00279963
-0.00293958
-0.00307811
-0.00321487
-0.0033495
-0.00348168
-0.00361109
-0.00373742
-0.0038604
-0.00397973
-0.00409515
-0.00420643
-0.00431332
-0.0044156
-0.00451306
-0.00460552
-0.00469278
-0.00477468
-0.00485107
-0.00492179
-0.00498672
-0.00504575
-0.00509876
-0.00514569
-0.00518647
-0.00522106
-0.00524947
-0.00527172
-0.00528791
-0.00529819
-0.00530279
-0.00530204
-0.00529642
-0.00528657
-0.00527335
-0.00525788
-0.00524164
-0.00522646
-0.00521456
-0.00520811
-8.23488e-06
-1.16507e-06
1.7526e-06
1.35229e-06
-2.26107e-06
-9.37206e-06
-2.00696e-05
-3.42859e-05
-5.18773e-05
-7.26594e-05
-9.64165e-05
-0.000122921
-0.000151938
-0.000183246
-0.000216627
-0.000251881
-0.000288821
-0.000327274
-0.000367085
-0.000408109
-0.000450227
-0.000493331
-0.000537326
-0.000582131
-0.000627673
-0.000673886
-0.000720713
-0.000768105
-0.000816018
-0.000864414
-0.000913259
-0.00096252
-0.00101216
-0.00106216
-0.00111249
-0.0011631
-0.00121398
-0.00126507
-0.00131636
-0.00136779
-0.00141932
-0.00147091
-0.0015225
-0.00157405
-0.00162548
-0.00167674
-0.00172775
-0.00177845
-0.00182875
-0.00187858
-0.00192785
-0.00197647
-0.00202434
-0.00207137
-0.00211745
-0.00216249
-0.00220637
-0.00224898
-0.00229022
-0.00232996
-0.00236808
-0.00240447
-0.00243901
-0.00247158
-0.00250205
-0.00253031
-0.00255623
-0.0025797
-0.00260059
-0.00261878
-0.00263418
-0.00264666
-0.00265613
-0.00266247
-0.00266561
-0.00266544
-0.00266188
-0.00265486
-0.00264432
-0.00263019
-0.00261242
-0.00259099
-0.00256586
-0.00253702
-0.00250446
-0.00246819
-0.00242825
-0.00238466
-0.00233748
-0.00228679
-0.00223265
-0.00217517
-0.00211448
-0.00205069
-0.00198396
-0.00191445
-0.00184234
-0.00176784
-0.00169116
-0.00161252
-0.00153218
-0.00145038
-0.00136741
-0.00128356
-0.00119911
-0.00111439
-0.00102972
-0.000945418
-0.000861833
-0.000779307
-0.00069819
-0.000618836
-0.000541599
-0.000466837
-0.000394901
-0.000326144
-0.000260908
-0.000199533
-0.000142347
-8.9668e-05
-4.18018e-05
9.60798e-07
3.83453e-05
7.00948e-05
9.59721e-05
0.000115761
0.000129267
0.00013632
0.000136776
0.000130514
0.000117443
9.74978e-05
7.06411e-05
3.68647e-05
-3.81135e-06
-5.13377e-05
-0.000105637
-0.000166603
-0.000234103
-0.000307977
-0.000388037
-0.000474073
-0.000565848
-0.000663105
-0.000765563
-0.000872925
-0.000984873
-0.00110107
-0.00122118
-0.00134483
-0.00147166
-0.00160128
-0.00173332
-0.00186737
-0.00200306
-0.00213997
-0.00227773
-0.00241595
-0.00255423
-0.00269219
-0.00282947
-0.0029657
-0.00310053
-0.0032336
-0.0033646
-0.0034932
-0.00361909
-0.00374198
-0.00386158
-0.00397765
-0.00408991
-0.00419814
-0.0043021
-0.00440159
-0.00449641
-0.00458638
-0.00467133
-0.00475109
-0.00482552
-0.0048945
-0.00495791
-0.00501564
-0.00506761
-0.00511375
-0.00515404
-0.00518843
-0.00521697
-0.00523969
-0.00525671
-0.00526819
-0.00527436
-0.00527557
-0.00527225
-0.00526499
-0.00525454
-0.00524184
-0.00522804
-0.00521457
-0.00520267
-0.00519291
-9.14127e-06
-6.27162e-07
2.6102e-06
2.12045e-06
-1.5987e-06
-8.70418e-06
-1.92194e-05
-3.30513e-05
-5.00624e-05
-7.0082e-05
-9.29196e-05
-0.000118373
-0.000146235
-0.000176307
-0.000208393
-0.00024231
-0.000277882
-0.000314949
-0.000353375
-0.000393012
-0.000433754
-0.000475496
-0.000518149
-0.000561631
-0.000605872
-0.000650805
-0.000696376
-0.000742533
-0.000789233
-0.000836437
-0.000884109
-0.000932214
-0.000980721
-0.0010296
-0.00107882
-0.00112834
-0.00117814
-0.00122817
-0.0012784
-0.00132879
-0.0013793
-0.00142988
-0.00148047
-0.00153103
-0.0015815
-0.00163181
-0.0016819
-0.00173169
-0.00178112
-0.00183009
-0.00187854
-0.00192636
-0.00197348
-0.00201979
-0.0020652
-0.00210961
-0.00215291
-0.00219499
-0.00223575
-0.00227508
-0.00231285
-0.00234895
-0.00238328
-0.0024157
-0.00244611
-0.00247438
-0.0025004
-0.00252405
-0.00254521
-0.00256378
-0.00257964
-0.00259269
-0.00260282
-0.00260994
-0.00261394
-0.00261475
-0.00261229
-0.00260647
-0.00259724
-0.00258454
-0.00256831
-0.00254853
-0.00252516
-0.00249819
-0.00246761
-0.00243344
-0.00239569
-0.00235441
-0.00230963
-0.00226144
-0.0022099
-0.00215511
-0.00209719
-0.00203626
-0.00197247
-0.00190597
-0.00183694
-0.00176557
-0.00169207
-0.00161667
-0.0015396
-0.00146111
-0.00138147
-0.00130095
-0.00121986
-0.00113849
-0.00105716
-0.000976189
-0.000895902
-0.00081664
-0.000738742
-0.000662554
-0.000588421
-0.000516691
-0.000447708
-0.000381814
-0.000319345
-0.000260631
-0.000205992
-0.00015574
-0.000110171
-6.95697e-05
-3.42038e-05
-4.32367e-06
1.98396e-05
3.80749e-05
5.01936e-05
5.60298e-05
5.54426e-05
4.83161e-05
3.45609e-05
1.41144e-05
-1.30589e-05
-4.69664e-05
-8.75874e-05
-0.000134873
-0.000188746
-0.000249103
-0.000315812
-0.000388715
-0.000467631
-0.000552351
-0.000642643
-0.000738256
-0.000838914
-0.000944326
-0.00105418
-0.00116815
-0.0012859
-0.00140708
-0.00153132
-0.00165826
-0.00178751
-0.0019187
-0.00205144
-0.00218536
-0.00232006
-0.00245517
-0.00259031
-0.00272512
-0.00285922
-0.00299227
-0.00312393
-0.00325385
-0.00338172
-0.00350722
-0.00363006
-0.00374997
-0.00386665
-0.00397987
-0.00408937
-0.00419493
-0.00429633
-0.00439338
-0.00448588
-0.00457366
-0.00465656
-0.00473444
-0.00480716
-0.0048746
-0.00493666
-0.00499325
-0.00504429
-0.00508974
-0.00512956
-0.00516376
-0.00519235
-0.0052154
-0.00523302
-0.00524537
-0.00525268
-0.00525524
-0.00525345
-0.00524782
-0.00523895
-0.00522757
-0.0052146
-0.00520113
-0.00518749
-0.00517266
-6.18338e-06
3.23544e-06
6.69032e-06
6.12884e-06
2.30543e-06
-4.8313e-06
-1.524e-05
-2.88018e-05
-4.53736e-05
-6.47938e-05
-8.68847e-05
-0.000111461
-0.00013834
-0.00016734
-0.000198286
-0.000231007
-0.000265343
-0.000301145
-0.000338282
-0.000376627
-0.000416074
-0.000456526
-0.000497898
-0.000540111
-0.000583094
-0.000626786
-0.000671131
-0.000716081
-0.000761592
-0.000807625
-0.000854142
-0.000901111
-0.000948499
-0.000996274
-0.0010444
-0.00109286
-0.0011416
-0.00119059
-0.0012398
-0.00128918
-0.0013387
-0.0013883
-0.00143794
-0.00148757
-0.00153712
-0.00158654
-0.00163577
-0.00168472
-0.00173334
-0.00178153
-0.00182923
-0.00187635
-0.0019228
-0.00196848
-0.00201331
-0.00205719
-0.00210001
-0.00214167
-0.00218206
-0.00222108
-0.00225861
-0.00229455
-0.00232877
-0.00236117
-0.00239163
-0.00242004
-0.00244628
-0.00247023
-0.0024918
-0.00251085
-0.00252729
-0.00254102
-0.00255193
-0.00255992
-0.00256491
-0.0025668
-0.00256552
-0.002561
-0.00255316
-0.00254196
-0.00252734
-0.00250926
-0.0024877
-0.00246264
-0.00243407
-0.00240201
-0.00236647
-0.00232748
-0.0022851
-0.00223937
-0.00219039
-0.00213824
-0.00208302
-0.00202486
-0.00196391
-0.0019003
-0.00183422
-0.00176585
-0.00169539
-0.00162306
-0.00154908
-0.0014737
-0.00139719
-0.00131982
-0.00124186
-0.00116361
-0.00108538
-0.00100749
-0.000930251
-0.000853996
-0.000779057
-0.000705772
-0.000634479
-0.000565518
-0.000499226
-0.000435937
-0.00037598
-0.000319679
-0.000267347
-0.000219288
-0.000175794
-0.000137144
-0.000103598
-7.54036e-05
-5.27856e-05
-3.59511e-05
-2.50851e-05
-2.03493e-05
-2.18819e-05
-2.97955e-05
-4.41775e-05
-6.5089e-05
-9.2564e-05
-0.000126609
-0.000167203
-0.000214297
-0.000267814
-0.000327652
-0.000393682
-0.000465748
-0.00054367
-0.000627243
-0.000716238
-0.000810409
-0.000909485
-0.00101318
-0.00112119
-0.00123319
-0.00134884
-0.00146782
-0.00158975
-0.00171428
-0.00184104
-0.00196966
-0.00209975
-0.00223095
-0.00236289
-0.00249518
-0.00262747
-0.00275939
-0.00289059
-0.00302072
-0.00314946
-0.00327647
-0.00340145
-0.00352408
-0.0036441
-0.00376122
-0.00387518
-0.00398573
-0.00409264
-0.0041957
-0.00429469
-0.00438944
-0.00447975
-0.00456546
-0.00464644
-0.00472253
-0.00479362
-0.00485961
-0.00492038
-0.00497588
-0.00502603
-0.00507079
-0.00511015
-0.0051441
-0.00517268
-0.00519596
-0.00521402
-0.00522703
-0.00523518
-0.00523873
-0.00523802
-0.00523344
-0.00522548
-0.00521466
-0.00520168
-0.00518735
-0.00517124
-0.00515084
1.27615e-06
1.0916e-05
1.42998e-05
1.35418e-05
9.52145e-06
2.25917e-06
-8.1592e-06
-2.1586e-05
-3.78718e-05
-5.68577e-05
-7.83749e-05
-0.000102254
-0.000128327
-0.000156427
-0.000186394
-0.000218071
-0.000251311
-0.00028598
-0.000321951
-0.000359113
-0.000397364
-0.000436616
-0.000476786
-0.0005178
-0.00055959
-0.000602098
-0.000645271
-0.000689061
-0.000733427
-0.000778329
-0.000823732
-0.000869602
-0.000915909
-0.000962619
-0.0010097
-0.00105712
-0.00110485
-0.00115284
-0.00120108
-0.0012495
-0.00129808
-0.00134677
-0.00139552
-0.00144427
-0.00149298
-0.00154159
-0.00159002
-0.00163822
-0.00168611
-0.00173362
-0.00178067
-0.00182717
-0.00187305
-0.00191822
-0.00196258
-0.00200603
-0.00204849
-0.00208984
-0.00212999
-0.00216882
-0.00220624
-0.00224213
-0.00227639
-0.00230889
-0.00233953
-0.0023682
-0.00239479
-0.00241918
-0.00244126
-0.00246092
-0.00247807
-0.00249259
-0.00250438
-0.00251336
-0.00251943
-0.0025225
-0.00252249
-0.00251934
-0.00251297
-0.00250332
-0.00249036
-0.00247403
-0.00245432
-0.00243119
-0.00240464
-0.00237469
-0.00234133
-0.00230461
-0.00226457
-0.00222126
-0.00217476
-0.00212516
-0.00207255
-0.00201705
-0.0019588
-0.00189795
-0.00183466
-0.00176911
-0.0017015
-0.00163203
-0.00156094
-0.00148845
-0.00141483
-0.00134034
-0.00126525
-0.00118986
-0.00111446
-0.00103937
-0.000964886
-0.000891344
-0.000819068
-0.000748387
-0.000679635
-0.000613145
-0.000549247
-0.00048827
-0.000430539
-0.00037637
-0.000326073
-0.000279946
-0.000238277
-0.000201339
-0.000169391
-0.000142672
-0.000121407
-0.000105799
-9.60301e-05
-9.22587e-05
-9.46209e-05
-0.000103228
-0.000118164
-0.000139491
-0.00016724
-0.000201419
-0.000242005
-0.000288949
-0.000342176
-0.000401585
-0.000467046
-0.000538406
-0.000615486
-0.000698084
-0.000785975
-0.000878914
-0.000976634
-0.00107885
-0.00118527
-0.00129556
-0.00140941
-0.00152648
-0.0016464
-0.00176884
-0.00189342
-0.00201977
-0.00214754
-0.00227635
-0.00240583
-0.00253562
-0.00266537
-0.00279471
-0.00292331
-0.00305083
-0.00317693
-0.00330132
-0.00342368
-0.00354371
-0.00366115
-0.00377573
-0.00388719
-0.0039953
-0.00409983
-0.00420058
-0.00429735
-0.00438996
-0.00447824
-0.00456204
-0.00464122
-0.00471565
-0.00478523
-0.00484984
-0.00490941
-0.00496387
-0.00501317
-0.00505726
-0.00509615
-0.00512982
-0.00515832
-0.0051817
-0.00520005
-0.00521351
-0.00522223
-0.00522643
-0.00522638
-0.00522238
-0.00521478
-0.00520395
-0.00519037
-0.00517469
-0.00515578
-0.00512989
1.33987e-05
2.25884e-05
2.55587e-05
2.44071e-05
2.00374e-05
1.25084e-05
1.93931e-06
-1.15038e-05
-2.7662e-05
-4.63767e-05
-6.74896e-05
-9.08434e-05
-0.00011628
-0.000143646
-0.000172791
-0.000203574
-0.00023586
-0.000269524
-0.000304453
-0.000340543
-0.000377703
-0.000415848
-0.000454902
-0.000494795
-0.000535465
-0.000576854
-0.000618915
-0.000661603
-0.000704876
-0.000748698
-0.000793035
-0.000837855
-0.000883126
-0.000928819
-0.0009749
-0.00102134
-0.0010681
-0.00111516
-0.00116247
-0.00121
-0.0012577
-0.00130554
-0.00135346
-0.00140142
-0.00144937
-0.00149724
-0.00154497
-0.0015925
-0.00163976
-0.00168668
-0.00173318
-0.00177918
-0.0018246
-0.00186936
-0.00191337
-0.00195652
-0.00199873
-0.00203991
-0.00207994
-0.00211872
-0.00215616
-0.00219214
-0.00222655
-0.0022593
-0.00229026
-0.00231932
-0.00234639
-0.00237134
-0.00239407
-0.00241447
-0.00243243
-0.00244787
-0.00246066
-0.00247073
-0.00247798
-0.00248232
-0.00248368
-0.00248197
-0.00247714
-0.00246912
-0.00245787
-0.00244333
-0.00242549
-0.00240431
-0.0023798
-0.00235194
-0.00232076
-0.00228627
-0.00224852
-0.00220757
-0.00216348
-0.00211633
-0.00206622
-0.00201326
-0.00195759
-0.00189934
-0.00183867
-0.00177577
-0.00171081
-0.00164401
-0.00157558
-0.00150575
-0.00143478
-0.00136292
-0.00129044
-0.00121763
-0.00114479
-0.0010722
-0.00100019
-0.000929062
-0.000859149
-0.000790771
-0.000724257
-0.000659935
-0.000598133
-0.000539174
-0.000483377
-0.000431057
-0.000382519
-0.000338058
-0.000297958
-0.00026249
-0.000231908
-0.000206451
-0.00018634
-0.000171777
-0.000162941
-0.00015999
-0.000163057
-0.000172253
-0.000187662
-0.000209343
-0.000237329
-0.000271625
-0.00031221
-0.000359035
-0.000412024
-0.000471076
-0.000536065
-0.000606837
-0.000683214
-0.000764997
-0.000851961
-0.000943864
-0.00104044
-0.00114141
-0.00124648
-0.00135533
-0.00146764
-0.00158307
-0.00170128
-0.00182192
-0.00194462
-0.00206903
-0.00219477
-0.0023215
-0.00244885
-0.00257646
-0.00270397
-0.00283105
-0.00295735
-0.00308255
-0.00320632
-0.00332836
-0.00344837
-0.00356607
-0.00368119
-0.00379348
-0.00390268
-0.00400857
-0.00411094
-0.00420958
-0.00430432
-0.00439497
-0.00448139
-0.00456342
-0.00464095
-0.00471384
-0.004782
-0.00484534
-0.00490379
-0.00495727
-0.00500575
-0.0050492
-0.0050876
-0.00512096
-0.00514931
-0.00517269
-0.00519119
-0.0052049
-0.00521396
-0.00521853
-0.00521881
-0.00521502
-0.00520739
-0.00519613
-0.00518161
-0.0051643
-0.00514258
-0.00511159
3.00902e-05
3.82404e-05
4.04543e-05
3.86759e-05
3.37607e-05
2.5796e-05
1.49179e-05
1.30294e-06
-1.48834e-05
-3.34868e-05
-5.43563e-05
-7.73424e-05
-0.000102297
-0.000129078
-0.000157547
-0.000187573
-0.000219033
-0.000251816
-0.000285816
-0.000320942
-0.000357109
-0.000394238
-0.000432259
-0.000471107
-0.000510725
-0.000551063
-0.000592074
-0.000633716
-0.000675952
-0.000718747
-0.000762069
-0.000805889
-0.000850176
-0.000894901
-0.000940034
-0.000985544
-0.0010314
-0.00107757
-0.00112402
-0.00117072
-0.00121761
-0.00126467
-0.00131184
-0.00135909
-0.00140634
-0.00145356
-0.00150068
-0.00154764
-0.00159437
-0.0016408
-0.00168685
-0.00173246
-0.00177754
-0.00182201
-0.00186578
-0.00190876
-0.00195086
-0.00199199
-0.00203203
-0.0020709
-0.00210849
-0.00214469
-0.00217941
-0.00221253
-0.00224395
-0.00227355
-0.00230123
-0.00232688
-0.00235039
-0.00237165
-0.00239057
-0.00240704
-0.00242096
-0.00243223
-0.00244077
-0.00244649
-0.0024493
-0.00244913
-0.00244592
-0.00243959
-0.00243011
-0.00241742
-0.00240148
-0.00238229
-0.00235981
-0.00233406
-0.00230504
-0.00227276
-0.00223728
-0.00219863
-0.00215688
-0.00211211
-0.00206441
-0.00201389
-0.00196066
-0.00190488
-0.0018467
-0.00178627
-0.0017238
-0.00165947
-0.0015935
-0.00152612
-0.00145757
-0.00138811
-0.001318
-0.00124753
-0.00117697
-0.00110662
-0.0010368
-0.000967819
-0.000899987
-0.000833629
-0.000769069
-0.000706633
-0.000646643
-0.000589422
-0.000535285
-0.000484545
-0.000437503
-0.000394453
-0.000355677
-0.000321444
-0.000292006
-0.000267602
-0.000248451
-0.000234753
-0.000226687
-0.00022441
-0.000228054
-0.000237729
-0.000253521
-0.000275487
-0.00030366
-0.000338044
-0.000378619
-0.000425336
-0.000478121
-0.000536872
-0.000601462
-0.00067174
-0.000747528
-0.000828627
-0.000914815
-0.00100585
-0.00110147
-0.00120139
-0.00130533
-0.00141296
-0.00152397
-0.00163802
-0.00175477
-0.00187387
-0.00199497
-0.0021177
-0.00224172
-0.00236665
-0.00249215
-0.00261786
-0.00274343
-0.00286852
-0.00299281
-0.00311596
-0.00323767
-0.00335763
-0.00347555
-0.00359117
-0.00370421
-0.00381443
-0.00392159
-0.00402548
-0.00412588
-0.00422261
-0.00431549
-0.00440436
-0.00448907
-0.00456948
-0.00464548
-0.00471695
-0.00478381
-0.00484596
-0.00490335
-0.00495592
-0.00500362
-0.00504644
-0.00508435
-0.00511737
-0.0051455
-0.0051688
-0.00518732
-0.00520114
-0.00521036
-0.00521508
-0.00521545
-0.0052116
-0.00520368
-0.00519178
-0.00517614
-0.00515716
-0.00513278
-0.00509728
5.11516e-05
5.77612e-05
5.89005e-05
5.62495e-05
5.05784e-05
4.19929e-05
3.06396e-05
1.66967e-05
3.26823e-07
-1.83201e-05
-3.90973e-05
-6.18632e-05
-8.64799e-05
-0.000112814
-0.000140739
-0.000170136
-0.000200892
-0.000232907
-0.000266088
-0.00030035
-0.000335617
-0.000371817
-0.000408886
-0.000446766
-0.000485405
-0.000524757
-0.000564781
-0.000605437
-0.000646694
-0.000688518
-0.000730881
-0.000773756
-0.000817113
-0.000860925
-0.000905166
-0.000949805
-0.000994816
-0.00104016
-0.00108582
-0.00113175
-0.0011779
-0.00122426
-0.00127076
-0.00131737
-0.00136403
-0.00141068
-0.00145729
-0.00150377
-0.00155007
-0.00159612
-0.00164184
-0.00168717
-0.00173203
-0.00177633
-0.00182
-0.00186293
-0.00190505
-0.00194626
-0.00198646
-0.00202555
-0.00206343
-0.00210001
-0.00213517
-0.00216881
-0.00220083
-0.00223111
-0.00225955
-0.00228604
-0.00231047
-0.00233274
-0.00235275
-0.00237038
-0.00238555
-0.00239815
-0.00240809
-0.00241529
-0.00241966
-0.00242113
-0.00241962
-0.00241506
-0.00240742
-0.00239662
-0.00238265
-0.00236547
-0.00234507
-0.00232143
-0.00229457
-0.00226449
-0.00223124
-0.00219486
-0.0021554
-0.00211295
-0.00206757
-0.00201939
-0.00196852
-0.00191508
-0.00185924
-0.00180115
-0.00174099
-0.00167897
-0.00161527
-0.00155015
-0.00148382
-0.00141653
-0.00134856
-0.00128018
-0.00121167
-0.00114332
-0.00107543
-0.00100833
-0.000942311
-0.000877704
-0.000814829
-0.000754008
-0.000695562
-0.000639811
-0.00058707
-0.00053765
-0.000491851
-0.000449966
-0.000412276
-0.000379048
-0.000350536
-0.000326978
-0.000308592
-0.000295579
-0.000288117
-0.000286362
-0.000290449
-0.000300487
-0.000316561
-0.000338729
-0.000367025
-0.000401454
-0.000441993
-0.000488597
-0.000541189
-0.00059967
-0.000663913
-0.000733766
-0.000809052
-0.000889574
-0.000975108
-0.00106541
-0.00116023
-0.00125928
-0.00136226
-0.00146887
-0.00157879
-0.00169168
-0.0018072
-0.001925
-0.00204474
-0.00216605
-0.00228859
-0.00241199
-0.0025359
-0.00265997
-0.00278386
-0.00290723
-0.00302976
-0.00315112
-0.00327101
-0.00338914
-0.00350522
-0.00361898
-0.00373017
-0.00383855
-0.00394388
-0.00404596
-0.00414459
-0.00423959
-0.00433079
-0.00441803
-0.00450118
-0.00458011
-0.00465471
-0.00472487
-0.00479052
-0.00485158
-0.00490798
-0.00495969
-0.00500665
-0.00504885
-0.00508627
-0.00511892
-0.0051468
-0.00516995
-0.00518841
-0.00520221
-0.00521144
-0.00521617
-0.00521646
-0.0052124
-0.00520404
-0.00519139
-0.0051746
-0.00515402
-0.00512726
-0.00508791
7.63298e-05
8.09757e-05
8.07448e-05
7.69882e-05
7.0352e-05
6.09594e-05
4.8964e-05
3.45342e-05
1.7828e-05
-1.00911e-06
-2.18371e-05
-4.45216e-05
-6.89333e-05
-9.49497e-05
-0.000122455
-0.000151341
-0.000181508
-0.000212864
-0.000245329
-0.000278824
-0.000313282
-0.000348638
-0.000384835
-0.000421822
-0.000459553
-0.000497988
-0.000537089
-0.000576823
-0.000617161
-0.000658074
-0.000699538
-0.000741525
-0.000784012
-0.000826972
-0.000870382
-0.000914215
-0.000958443
-0.00100304
-0.00104797
-0.0010932
-0.0011387
-0.00118443
-0.00123035
-0.00127641
-0.00132256
-0.00136876
-0.00141494
-0.00146105
-0.00150703
-0.00155281
-0.00159833
-0.0016435
-0.00168826
-0.00173253
-0.00177622
-0.00181925
-0.00186152
-0.00190296
-0.00194345
-0.00198292
-0.00202125
-0.00205834
-0.0020941
-0.00212842
-0.00216118
-0.0021923
-0.00222165
-0.00224913
-0.00227464
-0.00229806
-0.00231929
-0.00233823
-0.00235478
-0.00236884
-0.00238031
-0.00238911
-0.00239515
-0.00239835
-0.00239863
-0.00239594
-0.0023902
-0.00238138
-0.00236943
-0.00235431
-0.00233601
-0.00231451
-0.00228982
-0.00226194
-0.00223091
-0.00219677
-0.00215956
-0.00211936
-0.00207625
-0.00203032
-0.0019817
-0.00193051
-0.00187688
-0.00182099
-0.00176301
-0.00170312
-0.00164154
-0.00157847
-0.00151417
-0.00144886
-0.00138282
-0.00131631
-0.00124961
-0.00118301
-0.00111682
-0.00105135
-0.000986892
-0.000923781
-0.000862332
-0.000802867
-0.000745705
-0.000691167
-0.000639567
-0.000591215
-0.000546411
-0.000505449
-0.000468609
-0.000436161
-0.000408357
-0.000385437
-0.000367619
-0.000355106
-0.000348075
-0.000346685
-0.000351071
-0.000361343
-0.000377586
-0.000399861
-0.0004282
-0.00046261
-0.00050307
-0.000549532
-0.000601924
-0.000660144
-0.000724066
-0.000793538
-0.000868384
-0.000948406
-0.00103338
-0.00112307
-0.00121721
-0.00131552
-0.00141771
-0.00152346
-0.00163246
-0.00174438
-0.00185887
-0.00197559
-0.00209418
-0.0022143
-0.00233558
-0.00245768
-0.00258024
-0.00270291
-0.00282536
-0.00294725
-0.00306826
-0.00318807
-0.00330638
-0.00342291
-0.00353737
-0.0036495
-0.00375905
-0.00386579
-0.00396949
-0.00406996
-0.004167
-0.00426044
-0.00435012
-0.00443589
-0.00451763
-0.00459521
-0.00466853
-0.0047375
-0.00480203
-0.00486208
-0.00491757
-0.00496846
-0.00501472
-0.00505633
-0.00509327
-0.00512554
-0.00515314
-0.00517609
-0.00519441
-0.00520813
-0.00521729
-0.00522191
-0.00522202
-0.00521766
-0.00520881
-0.0051954
-0.00517752
-0.00515549
-0.00512669
-0.00508414
0.000105344
0.000107662
0.000105798
0.000100717
9.2919e-05
8.25402e-05
6.97355e-05
5.46635e-05
3.74743e-05
1.83069e-05
-2.70609e-06
-2.5438e-05
-4.97698e-05
-7.55892e-05
-0.000102791
-0.000131278
-0.000160963
-0.000191764
-0.000223609
-0.00025643
-0.000290166
-0.00032476
-0.000360164
-0.000396334
-0.000433229
-0.000470816
-0.000509062
-0.000547939
-0.000587423
-0.000627489
-0.000668116
-0.00070928
-0.00075096
-0.000793135
-0.000835781
-0.000878875
-0.000922393
-0.000966307
-0.00101059
-0.00105521
-0.00110014
-0.00114533
-0.00119075
-0.00123636
-0.00128211
-0.00132794
-0.00137382
-0.00141967
-0.00146545
-0.00151109
-0.00155651
-0.00160166
-0.00164646
-0.00169083
-0.00173468
-0.00177795
-0.00182053
-0.00186234
-0.00190329
-0.00194328
-0.00198221
-0.00201999
-0.0020565
-0.00209166
-0.00212534
-0.00215744
-0.00218787
-0.0022165
-0.00224323
-0.00226795
-0.00229057
-0.00231096
-0.00232903
-0.00234469
-0.00235782
-0.00236835
-0.00237617
-0.00238122
-0.00238341
-0.00238267
-0.00237894
-0.00237216
-0.00236229
-0.00234929
-0.00233313
-0.00231381
-0.00229131
-0.00226564
-0.00223683
-0.0022049
-0.00216992
-0.00213193
-0.00209103
-0.00204729
-0.00200084
-0.00195178
-0.00190027
-0.00184646
-0.00179052
-0.00173262
-0.00167299
-0.00161182
-0.00154936
-0.00148584
-0.00142152
-0.00135667
-0.00129157
-0.00122651
-0.00116178
-0.0010977
-0.00103457
-0.000972706
-0.000912436
-0.000854076
-0.000797949
-0.000744373
-0.000693664
-0.000646133
-0.000602081
-0.000561803
-0.00052558
-0.000493684
-0.000466369
-0.000443875
-0.000426425
-0.000414219
-0.00040744
-0.000406247
-0.000410776
-0.000421141
-0.000437426
-0.000459695
-0.00048798
-0.000522289
-0.000562603
-0.000608876
-0.000661033
-0.000718976
-0.000782577
-0.000851686
-0.000926126
-0.0010057
-0.00109018
-0.00117933
-0.00127289
-0.00137057
-0.00147209
-0.00157712
-0.00168536
-0.00179646
-0.00191009
-0.00202591
-0.00214354
-0.00226266
-0.00238289
-0.00250389
-0.00262531
-0.0027468
-0.00286802
-0.00298865
-0.00310836
-0.00322684
-0.00334379
-0.00345892
-0.00357197
-0.00368268
-0.00379079
-0.00389609
-0.00399836
-0.0040974
-0.00419303
-0.00428508
-0.00437339
-0.00445785
-0.0045383
-0.00461466
-0.00468683
-0.00475471
-0.00481823
-0.00487734
-0.00493199
-0.00498214
-0.00502774
-0.00506879
-0.00510526
-0.00513715
-0.00516446
-0.00518718
-0.00520533
-0.00521892
-0.00522794
-0.0052324
-0.0052323
-0.0052276
-0.00521826
-0.00520414
-0.0051853
-0.00516204
-0.00513155
-0.00508644
0.000137891
0.000137576
0.000133844
0.000127238
0.000118095
0.000106561
9.27865e-05
7.69239e-05
5.91119e-05
3.94822e-05
1.81592e-05
-4.74098e-06
-2.91093e-05
-5.48439e-05
-8.18508e-05
-0.000110045
-0.000139349
-0.000169693
-0.000201011
-0.000233245
-0.000266343
-0.000300257
-0.000334945
-0.000370372
-0.000406505
-0.000443314
-0.000480774
-0.000518863
-0.00055756
-0.000596847
-0.000636705
-0.000677114
-0.000718057
-0.000759516
-0.000801472
-0.000843903
-0.000886788
-0.000930103
-0.000973823
-0.00101792
-0.00106236
-0.00110711
-0.00115213
-0.00119739
-0.00124284
-0.00128843
-0.00133412
-0.00137984
-0.00142554
-0.00147115
-0.00151663
-0.00156189
-0.00160686
-0.00165148
-0.00169565
-0.00173931
-0.00178235
-0.0018247
-0.00186626
-0.00190694
-0.00194665
-0.00198527
-0.00202271
-0.00205887
-0.00209364
-0.00212691
-0.00215857
-0.00218852
-0.00221665
-0.00224284
-0.00226699
-0.00228899
-0.00230875
-0.00232614
-0.00234108
-0.00235347
-0.00236322
-0.00237024
-0.00237444
-0.00237576
-0.00237413
-0.00236948
-0.00236177
-0.00235096
-0.00233701
-0.0023199
-0.00229962
-0.00227618
-0.0022496
-0.00221989
-0.00218711
-0.00215131
-0.00211256
-0.00207096
-0.00202661
-0.00197961
-0.00193012
-0.00187828
-0.00182425
-0.00176822
-0.00171039
-0.00165097
-0.00159018
-0.00152828
-0.0014655
-0.00140212
-0.00133841
-0.00127467
-0.00121118
-0.00114827
-0.00108623
-0.00102538
-0.000966051
-0.000908557
-0.00085322
-0.000800362
-0.000750301
-0.000703347
-0.000659806
-0.000619973
-0.000584134
-0.00055256
-0.00052551
-0.000503227
-0.000485934
-0.000473837
-0.000467119
-0.000465943
-0.000470447
-0.000480747
-0.00049693
-0.000519061
-0.000547175
-0.00058128
-0.00062136
-0.000667369
-0.000719235
-0.000776857
-0.000840111
-0.000908844
-0.000982882
-0.00106202
-0.00114605
-0.00123471
-0.00132775
-0.00142488
-0.00152582
-0.00163024
-0.00173783
-0.00184825
-0.00196116
-0.00207622
-0.00219306
-0.00231134
-0.0024307
-0.00255078
-0.00267125
-0.00279174
-0.00291194
-0.0030315
-0.0031501
-0.00326745
-0.00338323
-0.00349718
-0.00360901
-0.00371848
-0.00382535
-0.0039294
-0.00403041
-0.00412819
-0.00422257
-0.00431339
-0.0044005
-0.00448378
-0.0045631
-0.00463837
-0.00470949
-0.00477639
-0.004839
-0.00489727
-0.00495115
-0.0050006
-0.0050456
-0.00508613
-0.00512216
-0.00515369
-0.0051807
-0.0052032
-0.00522116
-0.00523459
-0.00524346
-0.00524775
-0.00524741
-0.00524241
-0.00523262
-0.0052179
-0.00519827
-0.005174
-0.00514219
-0.00509512
0.000173668
0.000170452
0.000164653