/*--------------------------------*- C++ -*----------------------------------*\
  =========                 |
  \\      /  F ield         | OpenFOAM: The Open Source CFD Toolbox
   \\    /   O peration     | Website:  https://openfoam.org
    \\  /    A nd           | Version:  7
     \\/     M anipulation  |
\*---------------------------------------------------------------------------*/
FoamFile
{
    version     2.0;
    format      ascii;
    class       volScalarField;
    location    "3.5";
    object      rho;
}
// * * * * * * * * * * * * * * * * * * * * * * * * * * * * * * * * * * * * * //

dimensions      [1 -3 0 0 0 0 0];

internalField   nonuniform List<scalar> 
2413
(
1.33811
1.33912
1.33932
1.33887
1.33833
1.33768
1.33702
1.33643
1.33593
1.33552
1.3355
1.33776
1.34174
1.34233
1.34191
1.34156
1.34133
1.34113
1.34143
1.34394
1.34644
1.34624
1.34569
1.34532
1.34535
1.40655
1.40845
1.40867
1.40788
1.40702
1.40609
1.40489
1.4036
1.40263
1.40175
1.40094
1.40029
1.39991
1.4002
1.40085
1.40045
1.39971
1.39893
1.39813
1.3973
1.39643
1.39544
1.39413
1.3926
1.39162
1.39081
1.38995
1.38901
1.38788
1.38644
1.38528
1.38446
1.38368
1.38294
1.38242
1.38286
1.38482
1.38503
1.38428
1.38345
1.38246
1.38129
1.38019
1.37934
1.37865
1.37811
1.37792
1.37883
1.37948
1.37891
1.37814
1.37734
1.37647
1.37564
1.37487
1.37419
1.37371
1.37378
1.37451
1.37448
1.37386
1.37307
1.37219
1.37113
1.36978
1.36852
1.36767
1.36692
1.36617
1.36545
1.36481
1.36452
1.36549
1.36649
1.36597
1.36518
1.36427
1.36319
1.3623
1.36158
1.36089
1.36028
1.35992
1.36059
1.36202
1.36187
1.3613
1.36072
1.36008
1.35948
1.3591
1.35968
1.36201
1.36291
1.36243
1.36188
1.36146
1.36143
1.36282
1.36399
1.36364
1.36309
1.36256
1.36204
1.36159
1.3613
1.36159
1.36297
1.36332
1.36279
1.36228
1.36187
1.36161
1.36153
1.36139
1.36115
1.36112
1.36238
1.36552
1.36718
1.36707
1.36679
1.36711
1.369
1.37045
1.37023
1.36956
1.36855
1.36722
1.36647
1.36604
1.36623
1.42143
1.42291
1.42419
1.42361
1.42277
1.42187
1.42073
1.41951
1.41852
1.4176
1.41679
1.41614
1.41571
1.41599
1.41727
1.41725
1.41654
1.41577
1.41496
1.41405
1.41296
1.41186
1.41098
1.41021
1.40948
1.40868
1.40777
1.40675
1.40537
1.40378
1.40279
1.40199
1.40121
1.40047
1.39993
1.40013
1.40151
1.40153
1.4008
1.39994
1.3989
1.39771
1.39677
1.39601
1.39536
1.39488
1.39512
1.39683
1.39719
1.39649
1.39572
1.39491
1.39401
1.39315
1.39234
1.39161
1.39105
1.39105
1.39224
1.39248
1.39177
1.39101
1.3902
1.38923
1.3883
1.38756
1.38686
1.38615
1.38544
1.38477
1.38425
1.38432
1.38604
1.38658
1.38584
1.38501
1.38408
1.38314
1.3824
1.38169
1.38103
1.3805
1.38048
1.38238
1.3839
1.3835
1.38294
1.38235
1.38168
1.38104
1.38056
1.38039
1.38122
1.38363
1.38565
1.38642
1.38691
1.3875
1.38759
1.38721
1.38677
1.38635
1.386
1.3858
1.38625
1.38804
1.38872
1.38828
1.38779
1.38742
1.38709
1.38687
1.38715
1.38846
1.38964
1.38974
1.38952
1.38938
1.38918
1.38886
1.38869
1.38967
1.39209
1.3925
1.39176
1.39075
1.38879
1.38385
1.38012
1.37914
1.37868
1.37927
1.43746
1.43894
1.44023
1.43966
1.43883
1.43794
1.43689
1.43581
1.43484
1.43401
1.43329
1.43269
1.43239
1.43325
1.4343
1.43379
1.433
1.43217
1.43131
1.43049
1.42972
1.42903
1.42848
1.42804
1.42737
1.42649
1.42555
1.42444
1.42293
1.42164
1.4208
1.42003
1.41927
1.41857
1.41807
1.41824
1.41908
1.41878
1.41802
1.41711
1.416
1.41501
1.41425
1.41356
1.41297
1.41267
1.41369
1.41551
1.41535
1.41462
1.41384
1.41301
1.41212
1.4113
1.41058
1.41002
1.40984
1.4109
1.41168
1.41127
1.41064
1.40994
1.40921
1.40851
1.40789
1.40749
1.40728
1.40688
1.40627
1.40564
1.40516
1.40516
1.40634
1.40719
1.40689
1.40637
1.40584
1.40518
1.40446
1.40378
1.40323
1.40291
1.40393
1.40681
1.40735
1.40678
1.40622
1.40569
1.40519
1.40475
1.4044
1.4044
1.40627
1.41056
1.41248
1.41239
1.41216
1.41199
1.41165
1.41121
1.4108
1.41056
1.41128
1.41362
1.41429
1.41361
1.4127
1.41156
1.41082
1.41027
1.40994
1.41045
1.41227
1.41248
1.41179
1.41099
1.40963
1.40659
1.40448
1.40358
1.40315
1.4035
1.40345
1.40256
1.40133
1.39935
1.39418
1.3862
1.38355
1.3828
1.38262
1.38362
1.45436
1.45627
1.45695
1.45623
1.45541
1.45452
1.45349
1.45243
1.45151
1.45075
1.45008
1.44958
1.44971
1.4511
1.45127
1.45051
1.44971
1.4489
1.44812
1.44741
1.44685
1.44665
1.4469
1.44655
1.44574
1.4449
1.444
1.44285
1.44136
1.44031
1.43953
1.43875
1.438
1.43736
1.43704
1.43753
1.43772
1.43702
1.43614
1.43514
1.43426
1.43352
1.43281
1.43217
1.43176
1.43231
1.43447
1.43495
1.43428
1.43353
1.43271
1.43187
1.4311
1.4304
1.42984
1.42962
1.43092
1.43288
1.43263
1.43195
1.43132
1.43068
1.43003
1.4295
1.4293
1.42987
1.43021
1.42972
1.42908
1.42849
1.42803
1.42774
1.42754
1.42752
1.42849
1.43028
1.43039
1.42978
1.42917
1.42861
1.42816
1.42807
1.42964
1.43232
1.43266
1.43214
1.43167
1.43137
1.43116
1.43093
1.43094
1.43261
1.43683
1.43828
1.43775
1.43708
1.43619
1.43479
1.43392
1.43329
1.4328
1.43302
1.4351
1.43585
1.43508
1.43403
1.43205
1.42813
1.42599
1.42514
1.42474
1.42539
1.42526
1.42431
1.42319
1.42148
1.41706
1.41075
1.40864
1.40786
1.40775
1.40844
1.40821
1.40728
1.406
1.40357
1.39652
1.38807
1.38612
1.38538
1.38536
1.38561
1.4725
1.47434
1.47431
1.47353
1.4727
1.47176
1.47063
1.46961
1.46882
1.46811
1.4675
1.46722
1.46816
1.46928
1.46876
1.46795
1.46716
1.46635
1.46557
1.46487
1.46443
1.46475
1.46595
1.4657
1.46494
1.46416
1.46333
1.46222
1.46097
1.46015
1.45939
1.45866
1.45801
1.45767
1.45803
1.45812
1.45737
1.4565
1.45554
1.4547
1.45395
1.45322
1.45259
1.45221
1.45292
1.45539
1.45601
1.45535
1.45461
1.45382
1.45302
1.4523
1.45166
1.45114
1.45101
1.45267
1.45544
1.4556
1.45499
1.45439
1.45378
1.45318
1.45267
1.45247
1.45353
1.45537
1.45546
1.45492
1.45436
1.45381
1.45323
1.45265
1.45212
1.45183
1.45269
1.45538
1.45633
1.45587
1.45537
1.45495
1.45466
1.45506
1.45734
1.45867
1.45816
1.45744
1.45675
1.45616
1.4557
1.4554
1.45585
1.45829
1.45933
1.45864
1.45787
1.45692
1.45465
1.44997
1.44764
1.4467
1.44617
1.44666
1.44708
1.44632
1.44513
1.44325
1.43859
1.43212
1.43012
1.42937
1.4292
1.43011
1.42995
1.42905
1.42788
1.4259
1.42059
1.41318
1.41089
1.41014
1.41023
1.41073
1.41021
1.40921
1.40777
1.40454
1.39627
1.38981
1.38856
1.38773
1.38761
1.38666
1.49172
1.49306
1.49261
1.49181
1.49094
1.48988
1.48877
1.48794
1.48718
1.4865
1.48599
1.48629
1.48804
1.4883
1.48754
1.48673
1.48589
1.48501
1.48422
1.48358
1.4832
1.48385
1.4858
1.48586
1.48514
1.48439
1.48356
1.4826
1.48181
1.48108
1.4804
1.47989
1.47979
1.48034
1.48005
1.47928
1.47848
1.47768
1.47691
1.47617
1.47545
1.47484
1.47459
1.47588
1.47855
1.47891
1.47827
1.47757
1.47683
1.47608
1.47542
1.47486
1.47444
1.47447
1.47655
1.47992
1.48021
1.4796
1.47901
1.47846
1.47796
1.47754
1.47748
1.47895
1.48161
1.48199
1.48137
1.48066
1.47989
1.47923
1.47865
1.47819
1.47808
1.47937
1.48105
1.48081
1.48013
1.47944
1.47875
1.47814
1.47779
1.47839
1.47947
1.47904
1.47819
1.47697
1.47435
1.47151
1.47042
1.46979
1.47
1.4706
1.46993
1.4689
1.46763
1.46536
1.45955
1.45332
1.45156
1.45072
1.45049
1.45149
1.45169
1.45082
1.4496
1.44759
1.44217
1.43473
1.43259
1.43182
1.43165
1.43243
1.43221
1.43132
1.43007
1.42777
1.42169
1.41449
1.41262
1.41198
1.41194
1.41175
1.411
1.40994
1.40826
1.40417
1.39707
1.394
1.39313
1.39229
1.392
1.39038
1.51152
1.5126
1.51207
1.51124
1.51036
1.50934
1.50846
1.50769
1.50695
1.50631
1.506
1.50719
1.50912
1.5089
1.50816
1.50736
1.50647
1.5056
1.50486
1.50425
1.50388
1.5047
1.50701
1.50736
1.50665
1.50589
1.50517
1.50455
1.50402
1.50363
1.50361
1.50423
1.50408
1.50342
1.50277
1.50216
1.50152
1.50089
1.50027
1.49969
1.4992
1.49908
1.50065
1.50348
1.50376
1.50312
1.50252
1.50191
1.50124
1.50061
1.5001
1.4998
1.50026
1.50285
1.50506
1.50481
1.50415
1.50353
1.50298
1.5025
1.50218
1.50255
1.50484
1.50655
1.50618
1.50542
1.50442
1.50272
1.50121
1.50048
1.49996
1.50006
1.50136
1.50139
1.50057
1.49961
1.49763
1.49378
1.49177
1.49087
1.49048
1.49043
1.48977
1.48864
1.48701
1.48369
1.47811
1.4754
1.47451
1.47404
1.47464
1.47512
1.4744
1.47338
1.47198
1.46905
1.46172
1.45562
1.45413
1.45331
1.45334
1.45444
1.45431
1.4534
1.45221
1.45014
1.44449
1.43645
1.43404
1.43323
1.43291
1.43329
1.43308
1.43222
1.43092
1.42847
1.42289
1.4182
1.41703
1.41637
1.41578
1.41497
1.41395
1.41259
1.4101
1.40516
1.40101
1.39976
1.39897
1.39828
1.39776
1.39544
1.53196
1.533
1.53301
1.53233
1.53156
1.53078
1.53001
1.52927
1.5286
1.5281
1.52827
1.53039
1.53173
1.53121
1.53046
1.52964
1.52883
1.52815
1.52756
1.52713
1.52732
1.5293
1.53058
1.5301
1.52942
1.52886
1.5285
1.52853
1.52932
1.53015
1.52989
1.52915
1.52835
1.52771
1.52717
1.52669
1.52633
1.5261
1.52587
1.52565
1.52583
1.52757
1.52961
1.52953
1.52888
1.5282
1.52747
1.52669
1.52603
1.52556
1.52538
1.52632
1.52846
1.52847
1.5276
1.52644
1.52484
1.52386
1.52311
1.52256
1.5227
1.52454
1.52541
1.52472
1.5237
1.52183
1.5176
1.51404
1.51293
1.51229
1.51257
1.51292
1.51213
1.51108
1.50973
1.50705
1.50122
1.49714
1.49603
1.49543
1.49547
1.49532
1.49444
1.49317
1.49116
1.48629
1.47968
1.47758
1.47673
1.4764
1.47717
1.47726
1.47648
1.4754
1.47369
1.46955
1.46145
1.45729
1.45617
1.45553
1.45578
1.45644
1.45595
1.45505
1.4539
1.45205
1.44738
1.43958
1.43649
1.4356
1.43509
1.43532
1.43536
1.43456
1.4333
1.43109
1.4269
1.42394
1.42282
1.42182
1.42072
1.4194
1.41756
1.41454
1.41068
1.40851
1.40753
1.40673
1.40604
1.40524
1.40435
1.40153
1.55467
1.55507
1.55587
1.55561
1.55492
1.55418
1.55346
1.55281
1.5523
1.5522
1.55373
1.55579
1.55563
1.55495
1.55434
1.55385
1.55342
1.55302
1.55275
1.55315
1.55456
1.55502
1.5545
1.55395
1.55357
1.5538
1.55546
1.55657
1.55622
1.5555
1.55468
1.5538
1.55308
1.55251
1.55207
1.55178
1.55155
1.55128
1.55103
1.5513
1.5526
1.5529
1.55216
1.55132
1.55036
1.54879
1.54701
1.54607
1.54551
1.5455
1.54662
1.54684
1.54596
1.54479
1.54226
1.53779
1.53557
1.53456
1.53381
1.53385
1.53459
1.53432
1.53342
1.53213
1.52995
1.52536
1.51989
1.51814
1.51741
1.51738
1.51822
1.5179
1.51696
1.51584
1.51409
1.50949
1.50224
1.49964
1.49879
1.49859
1.49884
1.49825
1.49714
1.49555
1.4921
1.48486
1.48054
1.47945
1.47872
1.47856
1.47886
1.47844
1.47759
1.47634
1.47398
1.46834
1.46253
1.46088
1.46007
1.4597
1.45992
1.45985
1.45915
1.45827
1.45718
1.45557
1.45196
1.44512
1.44117
1.43996
1.4392
1.43904
1.43902
1.43827
1.43713
1.43551
1.43298
1.43049
1.42903
1.42782
1.42636
1.42392
1.42008
1.4173
1.41613
1.41543
1.41505
1.41487
1.41439
1.41353
1.41246
1.40909
1.58011
1.58064
1.58085
1.58039
1.57979
1.57919
1.57862
1.57817
1.57803
1.57901
1.58066
1.58073
1.58016
1.5797
1.57959
1.58023
1.58054
1.58012
1.57962
1.57924
1.57893
1.57852
1.57812
1.57804
1.57918
1.58063
1.58037
1.57957
1.57854
1.57692
1.57582
1.57528
1.57483
1.57386
1.57255
1.57146
1.57064
1.56997
1.56967
1.56974
1.56916
1.56819
1.56698
1.56471
1.56047
1.5577
1.55658
1.55595
1.55601
1.55614
1.55539
1.55424
1.55269
1.54991
1.54456
1.54059
1.53941
1.53859
1.5383
1.53906
1.5394
1.53874
1.53768
1.53598
1.53216
1.52497
1.52142
1.52047
1.52003
1.52101
1.52176
1.52102
1.52001
1.51865
1.51587
1.50901
1.5034
1.50209
1.50149
1.50148
1.50111
1.50009
1.49866
1.49595
1.49006
1.48553
1.48434
1.48352
1.48302
1.48288
1.48241
1.48162
1.48051
1.47864
1.47466
1.46946
1.46736
1.46647
1.46587
1.46569
1.46561
1.46506
1.46426
1.46333
1.4622
1.46049
1.45708
1.45173
1.44828
1.44647
1.44475
1.44343
1.44267
1.44195
1.44104
1.44001
1.43895
1.43791
1.43686
1.43561
1.43348
1.42925
1.42572
1.42455
1.42378
1.42337
1.42395
1.42451
1.42388
1.42291
1.42175
1.41831
1.60665
1.60628
1.60585
1.60543
1.60509
1.60477
1.60436
1.60392
1.60359
1.60343
1.60321
1.60287
1.60271
1.60329
1.60425
1.6039
1.60299
1.60158
1.59962
1.59859
1.59786
1.5974
1.59778
1.59862
1.59817
1.59719
1.59568
1.59267
1.59043
1.58955
1.58907
1.58833
1.58708
1.58516
1.58182
1.57936
1.57828
1.57754
1.57695
1.57602
1.5749
1.57355
1.57157
1.56773
1.56333
1.56167
1.56084
1.56058
1.56089
1.56052
1.55953
1.55822
1.55601
1.55083
1.54509
1.54338
1.54246
1.54195
1.54247
1.54323
1.54274
1.54179
1.54036
1.5375
1.53076
1.52488
1.52345
1.52267
1.52253
1.52375
1.52386
1.52298
1.52191
1.52036
1.51692
1.51068
1.5077
1.5068
1.50628
1.50569
1.50465
1.50318
1.50056
1.49552
1.49161
1.49043
1.48961
1.48906
1.48865
1.48795
1.48705
1.48584
1.48381
1.47995
1.47603
1.47444
1.47371
1.47339
1.47345
1.47315
1.47239
1.47149
1.47043
1.469
1.46677
1.46356
1.46045
1.45866
1.45747
1.45615
1.45414
1.45078
1.4483
1.44738
1.44688
1.44657
1.44595
1.44515
1.44418
1.44269
1.43974
1.43674
1.43558
1.43475
1.43407
1.43387
1.43489
1.43516
1.43435
1.43328
1.43193
1.42984
1.6284
1.62788
1.6276
1.62707
1.62617
1.62517
1.62376
1.6216
1.62029
1.61943
1.61886
1.61899
1.61966
1.61915
1.61797
1.61614
1.61285
1.61021
1.60913
1.60845
1.60832
1.6084
1.60769
1.60657
1.60513
1.60266
1.59854
1.59589
1.59487
1.59428
1.59382
1.59287
1.59145
1.58906
1.58508
1.58287
1.58192
1.58136
1.58081
1.57987
1.57873
1.57721
1.57421
1.56886
1.56593
1.56491
1.5644
1.56452
1.56427
1.56333
1.56201
1.55972
1.55467
1.54943
1.54783
1.54691
1.54623
1.54614
1.54637
1.54593
1.54506
1.54384
1.54186
1.5375
1.53105
1.52837
1.5274
1.52671
1.52661
1.52728
1.52692
1.52599
1.52486
1.52311
1.5193
1.51488
1.51345
1.51268
1.51187
1.51072
1.50904
1.50587
1.50082
1.49808
1.49715
1.49648
1.49615
1.49565
1.49482
1.49389
1.49269
1.49076
1.4871
1.48328
1.48172
1.48102
1.48084
1.48168
1.4818
1.48102
1.48012
1.47906
1.47743
1.47418
1.4704
1.4687
1.46794
1.46745
1.46682
1.46588
1.4644
1.46131
1.4573
1.4559
1.45526
1.45483
1.45413
1.45326
1.45217
1.45075
1.44964
1.4489
1.44815
1.4474
1.44676
1.44642
1.44681
1.44764
1.4475
1.44692
1.44626
1.44524
1.64076
1.64035
1.63945
1.63818
1.63652
1.63367
1.63002
1.62836
1.62739
1.62672
1.62647
1.62591
1.62492
1.62366
1.62182
1.61864
1.61588
1.61476
1.61411
1.61398
1.61381
1.61298
1.61188
1.61046
1.60795
1.60315
1.59989
1.59878
1.59818
1.59807
1.59756
1.59653
1.59496
1.59169
1.58706
1.58525
1.58444
1.58408
1.58349
1.58248
1.58121
1.57921
1.57493
1.57064
1.56922
1.56841
1.56804
1.56761
1.56665
1.56526
1.56285
1.55812
1.55442
1.55325
1.55244
1.55201
1.55174
1.55097
1.55003
1.54895
1.54766
1.54599
1.54346
1.53934
1.53556
1.53402
1.53308
1.53239
1.53209
1.53171
1.53091
1.52989
1.52857
1.5264
1.52301
1.52112
1.52024
1.51936
1.51825
1.51667
1.5137
1.5084
1.50513
1.5042
1.50359
1.50355
1.50352
1.5028
1.5019
1.50083
1.49918
1.49585
1.49193
1.49033
1.48956
1.48915
1.48982
1.49114
1.49077
1.48993
1.48894
1.48739
1.48406
1.48042
1.47913
1.47838
1.4778
1.47736
1.47679
1.47598
1.47474
1.4726
1.46944
1.46721
1.46614
1.46529
1.46452
1.46381
1.46321
1.46304
1.46404
1.46442
1.4638
1.46309
1.46242
1.46194
1.462
1.4637
1.4651
1.46475
1.46413
1.46321
1.64586
1.64494
1.64369
1.64206
1.63943
1.63606
1.63442
1.63346
1.6327
1.63191
1.63091
1.62969
1.62799
1.62505
1.62127
1.61929
1.61833
1.61791
1.6183
1.61834
1.61748
1.61635
1.61482
1.6118
1.60632
1.60314
1.60207
1.60141
1.60137
1.60123
1.60048
1.59934
1.59738
1.59301
1.58882
1.58757
1.58691
1.58668
1.586
1.58493
1.58355
1.58113
1.57689
1.57437
1.57334
1.57255
1.57182
1.57084
1.56947
1.56724
1.56322
1.56012
1.55904
1.55831
1.55803
1.55762
1.55674
1.55567
1.55418
1.55181
1.54903
1.54691
1.54524
1.54394
1.54306
1.54231
1.54145
1.5404
1.53905
1.53702
1.53467
1.53302
1.53168
1.53046
1.52951
1.52873
1.52791
1.52695
1.52573
1.52376
1.51941
1.514
1.51229
1.51151
1.51113
1.51143
1.51123
1.51042
1.50945
1.50811
1.50563
1.50268
1.50136
1.50058
1.49994
1.49973
1.50067
1.50117
1.50048
1.49951
1.49804
1.49558
1.49364
1.49278
1.49207
1.49142
1.49066
1.48985
1.48891
1.48768
1.48618
1.48454
1.48311
1.48212
1.48131
1.48056
1.47984
1.47917
1.47867
1.47868
1.4806
1.48327
1.48351
1.48299
1.48253
1.48237
1.48363
1.48663
1.48726
1.48673
1.4862
1.48513
1.64975
1.64833
1.64606
1.64255
1.64023
1.6392
1.63849
1.63782
1.63686
1.63569
1.63415
1.63155
1.627
1.62344
1.62204
1.62118
1.62082
1.62152
1.62189
1.62109
1.61997
1.61841
1.61529
1.60987
1.60699
1.60598
1.6053
1.60522
1.60536
1.60479
1.60385
1.60253
1.59999
1.5951
1.59213
1.59116
1.59066
1.59054
1.58988
1.58882
1.5875
1.58533
1.58153
1.57907
1.57802
1.57706
1.576
1.57466
1.57268
1.56953
1.56673
1.56561
1.56491
1.56459
1.56415
1.56333
1.56233
1.56104
1.55892
1.55538
1.55262
1.5513
1.55041
1.55001
1.55041
1.55044
1.54961
1.54853
1.54705
1.54424
1.54021
1.53818
1.53717
1.53641
1.5361
1.53595
1.53539
1.53458
1.53346
1.53158
1.5278
1.52373
1.52217
1.5213
1.52055
1.52006
1.51994
1.5194
1.51849
1.51736
1.51617
1.51531
1.51453
1.51384
1.51334
1.51274
1.51192
1.51111
1.51051
1.51012
1.50993
1.50973
1.50937
1.50881
1.50808
1.50726
1.50636
1.50526
1.50405
1.50304
1.50228
1.50182
1.50169
1.50194
1.50195
1.50158
1.50114
1.50078
1.50073
1.50194
1.50498
1.50655
1.50635
1.50594
1.50569
1.50614
1.50851
1.51033
1.50992
1.50907
1.50803
1.50427
1.65249
1.64953
1.64555
1.64373
1.64289
1.64239
1.64181
1.64084
1.63964
1.63806
1.63518
1.63023
1.62713
1.62596
1.6251
1.62466
1.62511
1.62562
1.625
1.62396
1.62254
1.6199
1.61511
1.61211
1.61109
1.61031
1.61003
1.61042
1.61016
1.6093
1.60824
1.60669
1.60349
1.59869
1.59655
1.59564
1.59517
1.59515
1.59467
1.59373
1.59258
1.59109
1.58869
1.58497
1.58206
1.58069
1.57948
1.57794
1.57595
1.57427
1.57339
1.57286
1.57259
1.57206
1.57124
1.57029
1.5691
1.56717
1.56361
1.56041
1.55907
1.55816
1.55746
1.55726
1.55807
1.55838
1.55767
1.55665
1.55522
1.55247
1.54825
1.54629
1.54543
1.5447
1.54433
1.54431
1.54397
1.54328
1.54235
1.541
1.5391
1.53692
1.53504
1.5337
1.53269
1.53183
1.53108
1.53047
1.53018
1.53091
1.53203
1.53164
1.53091
1.53017
1.52938
1.52837
1.52722
1.5264
1.52581
1.52557
1.52688
1.5288
1.52859
1.52792
1.5272
1.52634
1.52553
1.52491
1.52437
1.52411
1.52475
1.52565
1.52552
1.52512
1.52479
1.52454
1.52435
1.52464
1.52622
1.52737
1.52692
1.52612
1.52481
1.52363
1.52304
1.52309
1.52296
1.52201
1.52064
1.51766
1.51298
1.50901
1.65452
1.65044
1.64818
1.64725
1.64663
1.64606
1.64514
1.64397
1.64251
1.64005
1.63559
1.6323
1.63108
1.63016
1.62953
1.6295
1.62997
1.62973
1.6289
1.62768
1.62563
1.6217
1.61825
1.61701
1.61616
1.6156
1.61584
1.61615
1.61544
1.61448
1.61326
1.61132
1.60738
1.60344
1.60203
1.6012
1.60082
1.60076
1.60019
1.59929
1.59826
1.59705
1.59533
1.59202
1.58779
1.58559
1.58431
1.58319
1.5824
1.5821
1.58231
1.58213
1.58135
1.58038
1.57922
1.57756
1.57485
1.57183
1.57011
1.56913
1.56822
1.56734
1.56662
1.56627
1.56673
1.56729
1.56679
1.56585
1.56459
1.56237
1.55951
1.55816
1.55736
1.55659
1.5559
1.55554
1.5555
1.55518
1.55464
1.55392
1.55293
1.55162
1.55038
1.54949
1.54872
1.54798
1.5473
1.54689
1.54798
1.55097
1.55122
1.55047
1.54975
1.549
1.54814
1.54726
1.54661
1.54617
1.54614
1.54796
1.55093
1.55108
1.5504
1.54955
1.5483
1.54737
1.5468
1.54638
1.54636
1.54738
1.54772
1.54689
1.54516
1.54251
1.54123
1.54052
1.54033
1.53989
1.53891
1.53774
1.53543
1.53076
1.52821
1.5274
1.527
1.5265
1.5254
1.52325
1.51803
1.51145
1.51016
1.50768
1.65728
1.6539
1.65255
1.65176
1.65118
1.65036
1.64925
1.64789
1.64583
1.64203
1.63846
1.63706
1.63612
1.63539
1.63513
1.63539
1.63528
1.63463
1.6336
1.63193
1.62882
1.62515
1.62359
1.62271
1.62204
1.62203
1.62266
1.62222
1.62131
1.62027
1.61882
1.61605
1.61193
1.60983
1.60886
1.6082
1.60799
1.60781
1.60713
1.60623
1.60519
1.60382
1.60127
1.59702
1.59432
1.59325
1.59245
1.59187
1.59185
1.59271
1.59271
1.59192
1.59089
1.58949
1.58722
1.58429
1.58256
1.58169
1.58104
1.58088
1.58056
1.57979
1.57903
1.57841
1.5782
1.57862
1.57831
1.57746
1.57634
1.57508
1.57419
1.57345
1.57274
1.57205
1.57152
1.57156
1.57274
1.57291
1.57228
1.57163
1.57099
1.57033
1.5697
1.56916
1.56872
1.5683
1.56808
1.56907
1.57242
1.57384
1.57335
1.57278
1.57211
1.57101
1.56944
1.56861
1.56814
1.56796
1.5692
1.57122
1.5709
1.5699
1.56802
1.56433
1.56223
1.56129
1.56061
1.56038
1.55993
1.5589
1.55701
1.55274
1.54796
1.54642
1.54575
1.54548
1.5449
1.54393
1.54244
1.53887
1.5313
1.52719
1.52636
1.52583
1.52473
1.52274
1.51828
1.50677
1.49501
1.49244
1.49219
1.4875
1.66108
1.65891
1.65794
1.65727
1.65657
1.65557
1.6543
1.65247
1.64913
1.64548
1.64401
1.64312
)
;

boundaryField
{
    inlet
    {
        type            calculated;
        value           nonuniform 0();
    }
    outlet
    {
        type            calculated;
        value           nonuniform List<scalar> 
19
(
1.34521
1.36599
1.37887
1.38325
1.38547
1.3866
1.39036
1.39546
1.40161
1.40933
1.41861
1.42986
1.44516
1.46312
1.48508
1.50451
1.50904
1.50771
1.4877
)
;
    }
    bottom
    {
        type            symmetryPlane;
    }
    top
    {
        type            symmetryPlane;
    }
    obstacle
    {
        type            calculated;
        value           nonuniform 0();
    }
    front
    {
        type            empty;
    }
    back
    {
        type            empty;
    }
    procBoundary31to23
    {
        type            processor;
        value           nonuniform List<scalar> 
133
(
1.31693
1.31745
1.31731
1.31675
1.3161
1.31537
1.31455
1.31381
1.31319
1.31267
1.31246
1.31401
1.31725
1.31768
1.31717
1.31673
1.31637
1.31605
1.31577
1.31586
1.31803
1.32173
1.32193
1.32116
1.32095
1.39373
1.39371
1.39297
1.39215
1.39127
1.39034
1.38937
1.38842
1.38752
1.38665
1.38585
1.38519
1.38476
1.38452
1.38411
1.3834
1.3826
1.38179
1.38096
1.38011
1.37923
1.37829
1.37711
1.37532
1.37355
1.37259
1.37175
1.37086
1.36996
1.36913
1.36839
1.36769
1.36704
1.36646
1.36605
1.36647
1.3686
1.36914
1.36842
1.36761
1.36672
1.36566
1.3645
1.36345
1.3626
1.36192
1.36139
1.3611
1.36106
1.36103
1.36077
1.36034
1.35975
1.35914
1.35866
1.35844
1.35848
1.35832
1.35772
1.35693
1.35604
1.35509
1.35407
1.35291
1.35149
1.35015
1.34924
1.34845
1.34768
1.34692
1.34624
1.34584
1.34647
1.34765
1.34728
1.34654
1.34573
1.34479
1.34375
1.34284
1.34213
1.34153
1.34109
1.34121
1.34205
1.34201
1.34143
1.3408
1.34018
1.33963
1.33938
1.34048
1.34207
1.34173
1.34108
1.34048
1.33995
1.33974
1.34069
1.34201
1.34175
1.34116
1.34051
1.33986
1.33919
1.33855
1.33807
1.33807
)
;
    }
    procBoundary31to30
    {
        type            processor;
        value           nonuniform List<scalar> 
18
(
1.4061
1.4216
1.43762
1.45418
1.47189
1.49081
1.51072
1.53189
1.55499
1.58017
1.60689
1.62911
1.64133
1.64656
1.65075
1.65411
1.65712
1.66058
)
;
    }
    procBoundary31to38
    {
        type            processor;
        value           uniform 1.66452;
    }
    procBoundary31to39
    {
        type            processor;
        value           nonuniform List<scalar> 
133
(
1.64244
1.64228
1.64244
1.642
1.64129
1.64033
1.63885
1.63616
1.63274
1.63115
1.63029
1.62963
1.62955
1.63021
1.62989
1.62902
1.62806
1.62686
1.62481
1.62141
1.61915
1.61814
1.6174
1.61701
1.61681
1.6162
1.61532
1.61431
1.61299
1.61066
1.60736
1.60555
1.60469
1.60389
1.60325
1.60306
1.60446
1.60569
1.60503
1.60405
1.60283
1.6009
1.59859
1.59737
1.59663
1.59615
1.59622
1.59656
1.59602
1.59527
1.59451
1.59387
1.59358
1.59401
1.59479
1.59459
1.59403
1.5935
1.59298
1.59246
1.59204
1.59189
1.59267
1.59425
1.59453
1.59386
1.59324
1.59293
1.59292
1.59295
1.59272
1.5923
1.59186
1.59152
1.59165
1.59294
1.59353
1.59288
1.59205
1.59104
1.58909
1.58427
1.58059
1.5796
1.57933
1.57981
1.57938
1.57827
1.57659
1.57335
1.5688
1.56676
1.56585
1.56533
1.56501
1.56419
1.56295
1.5605
1.55387
1.54544
1.54325
1.54287
1.54277
1.54176
1.54011
1.53683
1.52776
1.51247
1.50649
1.50519
1.50395
1.50189
1.49823
1.48996
1.4711
1.45551
1.45203
1.4502
1.44902
1.44218
1.66653
1.66551
1.66478
1.66409
1.66313
1.66191
1.66016
1.65697
1.65338
1.65196
1.6511
1.64244
1.65047
)
;
    }
}


// ************************************************************************* //
