/*--------------------------------*- C++ -*----------------------------------*\
  =========                 |
  \\      /  F ield         | OpenFOAM: The Open Source CFD Toolbox
   \\    /   O peration     | Website:  https://openfoam.org
    \\  /    A nd           | Version:  7
     \\/     M anipulation  |
\*---------------------------------------------------------------------------*/
FoamFile
{
    version     2.0;
    format      ascii;
    class       volScalarField;
    location    "35";
    object      p;
}
// * * * * * * * * * * * * * * * * * * * * * * * * * * * * * * * * * * * * * //

dimensions      [0 2 -2 0 0 0 0];

internalField   nonuniform List<scalar> 
19600
(
-0.321354
-0.210245
-0.19217
-0.125994
-0.114977
-0.0804006
-0.0710894
-0.0540381
-0.0457391
-0.0374063
-0.0306325
-0.0264555
-0.0211271
-0.0190341
-0.0151393
-0.321574
-0.210307
-0.192246
-0.126051
-0.11504
-0.0804589
-0.0711483
-0.0540973
-0.045795
-0.0374658
-0.0306829
-0.0265199
-0.0211612
-0.0191159
-0.0151223
-0.322014
-0.210431
-0.192398
-0.126164
-0.115166
-0.080575
-0.0712659
-0.054216
-0.0459075
-0.0375846
-0.0307862
-0.0266456
-0.0212351
-0.0192722
-0.0151019
-0.322666
-0.210613
-0.192622
-0.126332
-0.115353
-0.0807482
-0.0714421
-0.0543941
-0.0460771
-0.0377616
-0.0309459
-0.0268274
-0.0213578
-0.0194888
-0.0151018
-0.323524
-0.21085
-0.192916
-0.126551
-0.1156
-0.0809769
-0.0716757
-0.0546308
-0.0463039
-0.0379952
-0.031165
-0.027058
-0.0215389
-0.0197476
-0.0151487
-0.324577
-0.21114
-0.193274
-0.126819
-0.115904
-0.0812587
-0.0719648
-0.0549245
-0.046586
-0.0382823
-0.0314435
-0.0273294
-0.0217841
-0.0200289
-0.0152654
-0.325814
-0.211476
-0.193691
-0.127131
-0.11626
-0.08159
-0.0723058
-0.0552717
-0.0469194
-0.0386182
-0.0317772
-0.0276332
-0.0220927
-0.0203156
-0.015465
-0.327236
-0.211844
-0.194159
-0.127482
-0.116664
-0.0819658
-0.0726931
-0.0556669
-0.0472973
-0.0389959
-0.0321573
-0.0279613
-0.0224566
-0.0205955
-0.0157483
-0.328835
-0.212232
-0.194672
-0.127866
-0.11711
-0.0823795
-0.0731196
-0.056102
-0.0477106
-0.0394061
-0.0325715
-0.0283048
-0.0228613
-0.0208619
-0.0161047
-0.330495
-0.212695
-0.19522
-0.128276
-0.117589
-0.0828228
-0.0735758
-0.0565668
-0.0481481
-0.0398373
-0.0330061
-0.0286551
-0.0232892
-0.0211126
-0.0165142
-0.332297
-0.213163
-0.195795
-0.128703
-0.118093
-0.0832861
-0.074051
-0.0570492
-0.048598
-0.0402766
-0.033447
-0.0290027
-0.0237228
-0.0213479
-0.0169506
-0.334212
-0.213637
-0.196387
-0.129139
-0.118612
-0.0837583
-0.0745332
-0.0575358
-0.0490478
-0.0407106
-0.0338814
-0.029339
-0.0241463
-0.0215692
-0.0173877
-0.336205
-0.214117
-0.196988
-0.129573
-0.119134
-0.0842272
-0.0750099
-0.0580129
-0.0494858
-0.0411267
-0.0342983
-0.029656
-0.0245475
-0.0217768
-0.0178051
-0.338253
-0.214594
-0.197587
-0.129997
-0.11965
-0.0846803
-0.0754687
-0.0584672
-0.0499013
-0.0415141
-0.0346886
-0.0299477
-0.0249171
-0.0219708
-0.0181873
-0.340334
-0.215061
-0.198175
-0.130398
-0.120146
-0.085105
-0.0758977
-0.0588864
-0.0502847
-0.0418638
-0.0350451
-0.0302095
-0.0252486
-0.0221503
-0.0185243
-0.342427
-0.21551
-0.198744
-0.130765
-0.120611
-0.0854889
-0.0762861
-0.0592599
-0.0506282
-0.0421696
-0.0353621
-0.0304384
-0.0255381
-0.0223138
-0.0188107
-0.344512
-0.215934
-0.199285
-0.131087
-0.121035
-0.0858207
-0.0766244
-0.0595792
-0.0509255
-0.0424268
-0.0356358
-0.0306324
-0.0257835
-0.0224594
-0.0190453
-0.346566
-0.216323
-0.19979
-0.131353
-0.121406
-0.0860899
-0.0769047
-0.0598374
-0.0511719
-0.0426328
-0.0358638
-0.0307902
-0.025984
-0.022585
-0.0192291
-0.34857
-0.216672
-0.200251
-0.131552
-0.121714
-0.0862876
-0.0771207
-0.0600297
-0.0513641
-0.042786
-0.0360447
-0.030911
-0.0261401
-0.0226883
-0.0193644
-0.350505
-0.216972
-0.200663
-0.131674
-0.121951
-0.0864064
-0.0772676
-0.0601529
-0.0515002
-0.0428861
-0.0361781
-0.0309942
-0.0262529
-0.0227671
-0.019454
-0.352354
-0.217218
-0.201018
-0.131707
-0.122109
-0.0864403
-0.077342
-0.0602053
-0.051579
-0.042933
-0.0362642
-0.0310392
-0.0263241
-0.0228195
-0.0195007
-0.354103
-0.217401
-0.201311
-0.131644
-0.122182
-0.0863852
-0.077342
-0.0601862
-0.0516001
-0.0429273
-0.0363035
-0.0310455
-0.0263552
-0.0228434
-0.0195065
-0.355739
-0.217515
-0.201535
-0.131475
-0.122164
-0.086238
-0.0772664
-0.0600959
-0.0515637
-0.0428698
-0.0362967
-0.0310129
-0.0263483
-0.022837
-0.0194735
-0.357253
-0.217553
-0.201687
-0.131194
-0.122052
-0.0859973
-0.0771149
-0.0599352
-0.0514703
-0.0427613
-0.0362447
-0.0309411
-0.0263051
-0.0227984
-0.0194038
-0.358639
-0.217506
-0.201759
-0.130795
-0.121841
-0.0856627
-0.076888
-0.0597053
-0.0513204
-0.0426028
-0.0361483
-0.0308298
-0.0262272
-0.0227259
-0.0192993
-0.359894
-0.217366
-0.201747
-0.130272
-0.12153
-0.0852344
-0.0765864
-0.0594078
-0.0511149
-0.0423953
-0.0360082
-0.0306793
-0.0261162
-0.022617
-0.0191597
-0.361021
-0.217125
-0.201645
-0.129622
-0.121118
-0.0847137
-0.0762111
-0.0590442
-0.0508545
-0.0421396
-0.0358252
-0.0304899
-0.0259736
-0.0224678
-0.0189794
-0.362022
-0.216771
-0.201448
-0.128842
-0.120605
-0.0841023
-0.0757634
-0.0586162
-0.05054
-0.0418367
-0.0355996
-0.0302624
-0.0258015
-0.0222729
-0.0187505
-0.362908
-0.216294
-0.201151
-0.127931
-0.11999
-0.083402
-0.0752444
-0.0581254
-0.0501722
-0.0414874
-0.035332
-0.0299981
-0.0256017
-0.0220275
-0.0184869
-0.363689
-0.215682
-0.200747
-0.126889
-0.119275
-0.0826152
-0.0746556
-0.0575731
-0.0497518
-0.0410927
-0.0350227
-0.0296986
-0.0253745
-0.0217369
-0.0182549
-0.36438
-0.214923
-0.200234
-0.125717
-0.11846
-0.081744
-0.0739981
-0.056961
-0.0492795
-0.0406532
-0.0346719
-0.0293657
-0.0251171
-0.0214228
-0.0181333
-0.364999
-0.214004
-0.199606
-0.124414
-0.117547
-0.0807909
-0.073273
-0.0562902
-0.0487561
-0.0401697
-0.0342803
-0.0290005
-0.0248259
-0.0211042
-0.0180232
-0.365563
-0.212912
-0.198859
-0.122985
-0.116537
-0.079758
-0.0724816
-0.0555621
-0.0481823
-0.0396428
-0.0338483
-0.0286035
-0.0245007
-0.0207759
-0.0178503
-0.366092
-0.211635
-0.19799
-0.12143
-0.115431
-0.0786476
-0.0716248
-0.0547779
-0.0475587
-0.039073
-0.0333765
-0.0281749
-0.0241416
-0.0204324
-0.017626
-0.366607
-0.210164
-0.196995
-0.119753
-0.114231
-0.0774618
-0.0707036
-0.0539385
-0.046886
-0.0384609
-0.0328657
-0.0277148
-0.023749
-0.0200707
-0.0173563
-0.367125
-0.208488
-0.195872
-0.117957
-0.112938
-0.0762025
-0.069719
-0.053045
-0.046165
-0.0378071
-0.0323165
-0.0272231
-0.0233239
-0.0196884
-0.0170479
-0.367663
-0.206601
-0.194618
-0.116044
-0.111554
-0.0748716
-0.0686716
-0.0520984
-0.0453963
-0.0371121
-0.0317298
-0.0266998
-0.0228672
-0.0192838
-0.0167055
-0.368237
-0.204498
-0.193232
-0.11402
-0.11008
-0.0734707
-0.0675625
-0.0510996
-0.0445806
-0.0363765
-0.0311061
-0.0261452
-0.0223798
-0.0188561
-0.0163327
-0.368856
-0.202174
-0.19171
-0.111885
-0.108517
-0.0720015
-0.0663922
-0.0500496
-0.0437186
-0.0356008
-0.0304462
-0.0255593
-0.0218627
-0.0184046
-0.0159319
-0.369529
-0.19963
-0.190052
-0.109645
-0.106866
-0.0704654
-0.0651616
-0.0489492
-0.042811
-0.0347856
-0.0297508
-0.0249424
-0.0213167
-0.0179291
-0.0155047
-0.370259
-0.196866
-0.188256
-0.107302
-0.105128
-0.0688639
-0.0638715
-0.0477993
-0.0418585
-0.0339316
-0.0290206
-0.0242947
-0.0207424
-0.0174296
-0.0150525
-0.371043
-0.193886
-0.18632
-0.10486
-0.103304
-0.0671983
-0.0625225
-0.0466008
-0.0408619
-0.0330394
-0.0282563
-0.0236168
-0.0201407
-0.0169062
-0.0145762
-0.371875
-0.190693
-0.184242
-0.10232
-0.101395
-0.0654698
-0.0611154
-0.0453546
-0.039822
-0.0321098
-0.0274587
-0.022909
-0.0195123
-0.0163592
-0.0140768
-0.372743
-0.187293
-0.182022
-0.099687
-0.0994016
-0.0636797
-0.059651
-0.0440616
-0.0387394
-0.0311434
-0.0266283
-0.0221719
-0.0188577
-0.0157888
-0.0135548
-0.373631
-0.183692
-0.179657
-0.0969625
-0.0973246
-0.0618289
-0.05813
-0.0427226
-0.0376151
-0.030141
-0.0257659
-0.021406
-0.0181778
-0.0151955
-0.0130109
-0.374517
-0.179897
-0.177146
-0.0941493
-0.0951646
-0.0599188
-0.0565533
-0.0413386
-0.0364497
-0.0291034
-0.0248723
-0.020612
-0.0174732
-0.0145797
-0.0124458
-0.375375
-0.175914
-0.174488
-0.0912496
-0.0929223
-0.0579503
-0.0549218
-0.0399105
-0.0352442
-0.0280314
-0.0239482
-0.0197904
-0.0167444
-0.0139418
-0.01186
-0.376176
-0.171749
-0.171681
-0.0882655
-0.0905984
-0.0559245
-0.0532363
-0.0384392
-0.0339994
-0.0269258
-0.0229942
-0.018942
-0.0159923
-0.0132823
-0.0112542
-0.376887
-0.167408
-0.168724
-0.0851991
-0.0881937
-0.0538424
-0.0514978
-0.0369257
-0.0327163
-0.0257876
-0.0220112
-0.0180674
-0.0152174
-0.0126018
-0.0106288
-0.377471
-0.162896
-0.165614
-0.0820521
-0.0857088
-0.0517051
-0.0497073
-0.0353711
-0.0313958
-0.0246175
-0.021
-0.0171675
-0.0144206
-0.0119007
-0.00998467
-0.377889
-0.158218
-0.162351
-0.078826
-0.0831445
-0.0495136
-0.0478659
-0.0337762
-0.0300389
-0.0234166
-0.0199614
-0.016243
-0.0136024
-0.0111797
-0.00932228
-0.3781
-0.153376
-0.158932
-0.0755225
-0.0805017
-0.0472689
-0.0459747
-0.0321421
-0.0286466
-0.0221857
-0.0188962
-0.0152947
-0.0127636
-0.0104393
-0.00864235
-0.378063
-0.148373
-0.155356
-0.0721428
-0.0777814
-0.0449721
-0.0440348
-0.0304699
-0.0272201
-0.0209258
-0.0178053
-0.0143234
-0.011905
-0.0096801
-0.00794553
-0.377735
-0.143212
-0.151622
-0.0686882
-0.0749844
-0.0426242
-0.0420477
-0.0287605
-0.0257604
-0.0196379
-0.0166896
-0.01333
-0.0110272
-0.00890279
-0.00723251
-0.377072
-0.137892
-0.147728
-0.0651599
-0.0721121
-0.0402262
-0.0400148
-0.027015
-0.0242689
-0.0183229
-0.0155501
-0.0123153
-0.0101312
-0.00810801
-0.00650397
-0.376033
-0.132415
-0.143673
-0.0615589
-0.0691657
-0.0377789
-0.0379379
-0.025234
-0.022747
-0.0169816
-0.0143878
-0.0112803
-0.00921749
-0.00729644
-0.00576068
-0.374574
-0.126781
-0.139457
-0.0578862
-0.0661468
-0.0352829
-0.0358189
-0.0234186
-0.0211958
-0.0156156
-0.0132033
-0.0102261
-0.00828703
-0.00646878
-0.00500346
-0.372656
-0.120988
-0.135079
-0.0541427
-0.0630577
-0.0327391
-0.0336593
-0.0215704
-0.0196161
-0.0142264
-0.011997
-0.00915379
-0.00734063
-0.00562574
-0.0042332
-0.370238
-0.115036
-0.130537
-0.0503289
-0.0599002
-0.030149
-0.0314592
-0.0196919
-0.0180096
-0.0128145
-0.0107707
-0.00806378
-0.00637943
-0.00476813
-0.00345064
-0.367283
-0.108924
-0.125833
-0.0464454
-0.0566757
-0.0275143
-0.0292212
-0.0177807
-0.0163833
-0.0113746
-0.00953078
-0.0069542
-0.00540499
-0.0038969
-0.00265614
-0.363756
-0.102652
-0.120967
-0.0424941
-0.0533851
-0.0248304
-0.0269625
-0.0158196
-0.0147525
-0.00989562
-0.00828853
-0.00582178
-0.0044187
-0.00301311
-0.00184977
-0.359625
-0.0962169
-0.115941
-0.0384768
-0.0500399
-0.0220736
-0.0247222
-0.0137827
-0.0131257
-0.00838006
-0.00704229
-0.00467091
-0.00341943
-0.00211776
-0.00103267
-0.354861
-0.0896186
-0.110752
-0.0343841
-0.046677
-0.0192137
-0.0225097
-0.0116938
-0.0114644
-0.00687955
-0.00574777
-0.00352466
-0.00240329
-0.0012114
-0.000206583
-0.349435
-0.0828564
-0.105402
-0.0301828
-0.0433332
-0.0162956
-0.020191
-0.00967463
-0.00973455
-0.00538514
-0.0044275
-0.0023709
-0.00137521
-0.000294377
0.000627712
-0.343326
-0.0759335
-0.0999059
-0.0258539
-0.0399236
-0.0134467
-0.0177684
-0.00766732
-0.00796803
-0.00388427
-0.00309052
-0.00120682
-0.000337506
0.000632521
0.00146946
-0.336513
-0.0688551
-0.094314
-0.021514
-0.0363338
-0.010622
-0.0152922
-0.00565383
-0.006177
-0.00237223
-0.00174154
-3.19648e-05
0.000708429
0.00156832
0.0023179
-0.328979
-0.0616047
-0.0886422
-0.0171082
-0.0326432
-0.0077867
-0.0127779
-0.00362778
-0.00436796
-0.00084786
-0.000382902
0.00115279
0.00176161
0.00251198
0.00317221
-0.320712
-0.0541085
-0.082704
-0.0127941
-0.0288875
-0.00493384
-0.0102336
-0.00158706
-0.00254477
0.000688436
0.000983826
0.00234622
0.00282114
0.00346246
0.00403156
-0.311701
-0.04634
-0.0767159
-0.00843314
-0.0250743
-0.00206122
-0.00766476
0.00046854
-0.000710125
0.00223557
0.00235739
0.00354698
0.00388609
0.00441874
0.00489507
-0.301943
-0.0387086
-0.0703921
-0.00402476
-0.0212098
0.000831679
-0.00507564
0.00253819
0.00113383
0.00379211
0.00373661
0.00475367
0.00495553
0.00537975
0.00576185
-0.291437
-0.0308877
-0.0639474
0.000423088
-0.0172996
0.0037442
-0.00246963
0.0046205
0.00298524
0.00535646
0.00512035
0.00596492
0.00602847
0.00634445
0.00663096
-0.280197
-0.0228846
-0.0573828
0.00490843
-0.0133489
0.00667491
0.000150234
0.00671374
0.00484237
0.00692694
0.00650739
0.00717936
0.00710386
0.00731178
0.00750146
-0.268234
-0.0147278
-0.0506904
0.00942937
-0.00936243
0.00962188
0.00278116
0.00881594
0.00670352
0.00850184
0.00789652
0.00839564
0.00818065
0.00828063
0.00837234
-0.255515
-0.00645604
-0.0438765
0.0139831
-0.00534469
0.0125828
0.00542046
0.010925
0.00856703
0.0100794
0.00928645
0.00961242
0.00925774
0.00924991
0.00924256
-0.242056
0.00192487
-0.0369496
0.0185662
-0.00130019
0.0155551
0.0080655
0.0130387
0.0104312
0.011658
0.0106759
0.0108284
0.010334
0.0102185
0.010111
-0.227906
0.010428
-0.0299181
0.0231749
0.00276657
0.0185361
0.0107137
0.0151548
0.0122943
0.0132358
0.0120634
0.0120422
0.0114083
0.0111851
0.0109765
-0.213084
0.0190436
-0.0227906
0.0278053
0.00685104
0.0215227
0.0133623
0.0172711
0.0141545
0.0148112
0.0134477
0.0132524
0.0124795
0.0121486
0.0118378
-0.19761
0.0277605
-0.0155762
0.0324528
0.0109486
0.024512
0.0160087
0.0193851
0.0160101
0.0163823
0.0148273
0.0144579
0.0135465
0.0131077
0.0126933
-0.181509
0.0365689
-0.0082845
0.0371129
0.0150545
0.0275007
0.0186502
0.0214944
0.0178591
0.0179475
0.0162009
0.0156572
0.0146079
0.0140612
0.0135416
-0.164815
0.0454583
-0.000925404
0.0417806
0.0191639
0.0304856
0.021284
0.0235968
0.0196998
0.019505
0.0175669
0.0168491
0.0156628
0.0150077
0.014381
-0.147562
0.0544175
0.00649064
0.0464508
0.0232719
0.0334632
0.0239073
0.0256899
0.0215303
0.0210533
0.0189239
0.0180322
0.0167099
0.0159458
0.0152092
-0.129786
0.0634346
0.0139528
0.0511181
0.0273735
0.0364301
0.0265172
0.0277711
0.0233485
0.0225904
0.0202704
0.0192053
0.0177482
0.0168739
0.016023
-0.111528
0.072497
0.0214497
0.055777
0.0314635
0.0393829
0.0291109
0.0298381
0.0251525
0.0241148
0.0216051
0.020367
0.0187764
0.0177903
0.0168195
-0.0928304
0.0815915
0.0289699
0.0604216
0.0355367
0.042318
0.0316853
0.0318885
0.0269405
0.0256248
0.0229264
0.0215163
0.0197935
0.0186939
0.0175982
-0.0737386
0.0907043
0.0365014
0.0650461
0.0395878
0.0452316
0.0342376
0.0339199
0.0287103
0.0271187
0.0242329
0.0226518
0.0207987
0.0195846
0.018359
-0.0542997
0.0998211
0.0440317
0.0696443
0.0436114
0.0481203
0.0367646
0.0359297
0.0304601
0.0285947
0.0255232
0.0237723
0.0217915
0.0204616
0.0190929
-0.034563
0.108927
0.0515484
0.07421
0.0476021
0.0509804
0.0392635
0.0379157
0.0321877
0.0300513
0.0267958
0.0248769
0.0227715
0.0213208
0.0197773
-0.0145796
0.118007
0.0590385
0.0787369
0.0515543
0.053808
0.041731
0.0398754
0.0338913
0.0314868
0.0280494
0.0259649
0.0237384
0.022155
0.0203974
0.00559782
0.127045
0.0664891
0.0832186
0.0554624
0.0565995
0.0441642
0.0418064
0.0355688
0.0328995
0.0292825
0.0270357
0.0246916
0.022962
0.020982
0.0259153
0.136025
0.0738868
0.0876484
0.059321
0.0593512
0.0465599
0.0437062
0.0372183
0.0342877
0.0304938
0.0280887
0.0256293
0.023748
0.0216022
0.0463175
0.144932
0.0812182
0.0920199
0.0631243
0.0620593
0.0489152
0.0455725
0.0388377
0.0356499
0.0316822
0.0291224
0.0265469
0.0245112
0.0223504
0.0667483
0.153747
0.0884698
0.0963263
0.0668667
0.0647201
0.0512269
0.047403
0.040425
0.0369843
0.0328462
0.0301349
0.0274408
0.0252676
0.023101
0.0871507
0.162456
0.095628
0.100561
0.0705427
0.0673299
0.053492
0.0491953
0.0419785
0.0382894
0.0339846
0.0311249
0.0283116
0.0260171
0.0238279
0.107467
0.171041
0.102679
0.104717
0.0741466
0.069885
0.0557075
0.0509471
0.043496
0.0395637
0.035096
0.0320909
0.0291596
0.0267568
0.0245362
0.127641
0.179485
0.10961
0.108788
0.0776729
0.0723818
0.0578704
0.0526561
0.0449757
0.0408056
0.0361791
0.0330317
0.029985
0.027483
0.0252218
0.147613
0.187771
0.116406
0.112768
0.081116
0.0748166
0.0599778
0.0543201
0.0464158
0.0420136
0.0372326
0.0339463
0.0307871
0.0281933
0.0258853
0.167326
0.195883
0.123055
0.116649
0.0844706
0.0771859
0.0620267
0.0559369
0.0478143
0.0431862
0.0382552
0.0348334
0.0315654
0.0288855
0.0265264
0.186724
0.203805
0.129543
0.120425
0.0877313
0.0794862
0.0640143
0.0575043
0.0491696
0.044322
0.0392456
0.0356922
0.0323192
0.0295578
0.0271449
0.205749
0.211518
0.135857
0.12409
0.0908928
0.0817141
0.0659378
0.0590202
0.0504798
0.0454196
0.0402025
0.0365215
0.0330475
0.0302088
0.0277402
0.224346
0.219009
0.141983
0.127637
0.09395
0.0838661
0.0677944
0.0604826
0.0517432
0.0464775
0.0411248
0.0373204
0.0337494
0.0308372
0.028312
0.24246
0.226259
0.147911
0.13106
0.0968978
0.0859391
0.0695816
0.0618894
0.0529581
0.0474945
0.0420112
0.038088
0.0344242
0.031442
0.0288598
0.260037
0.233255
0.153626
0.134354
0.0997313
0.0879299
0.0712967
0.0632387
0.054123
0.0484692
0.0428607
0.0388233
0.0350709
0.032022
0.0293833
0.277025
0.23998
0.159117
0.137512
0.102446
0.0898353
0.0729372
0.0645287
0.0552362
0.0494003
0.0436722
0.0395255
0.0356887
0.0325765
0.029882
0.293373
0.24642
0.164373
0.140528
0.105037
0.0916523
0.0745007
0.0657576
0.0562964
0.0502868
0.0444446
0.0401937
0.0362768
0.0331047
0.0303555
0.309034
0.252561
0.169382
0.143398
0.107499
0.0933783
0.0759849
0.0669235
0.057302
0.0511273
0.045177
0.040827
0.0368344
0.0336056
0.0308034
0.323958
0.258389
0.174133
0.146115
0.10983
0.0950103
0.0773876
0.068025
0.0582516
0.0519209
0.0458683
0.0414247
0.0373609
0.0340787
0.0312252
0.338103
0.263891
0.178616
0.148675
0.112024
0.0965458
0.0787066
0.0690603
0.0591441
0.0526665
0.0465177
0.041986
0.0378554
0.0345233
0.0316207
0.351424
0.269054
0.182823
0.151073
0.114078
0.0979824
0.0799401
0.0700282
0.0599781
0.0533631
0.0471244
0.0425103
0.0383174
0.0349387
0.0319895
0.363883
0.273868
0.186742
0.153305
0.115989
0.0993177
0.0810862
0.070927
0.0607525
0.0540097
0.0476876
0.0429968
0.0387462
0.0353244
0.0323312
0.375441
0.27832
0.190366
0.155366
0.117752
0.10055
0.082143
0.0717557
0.0614663
0.0546055
0.0482064
0.043445
0.0391413
0.0356798
0.0326456
0.386063
0.282402
0.193687
0.157253
0.119366
0.101676
0.083109
0.0725129
0.0621184
0.0551498
0.0486803
0.0438543
0.0395022
0.0360045
0.0329322
0.395717
0.286102
0.196697
0.158961
0.120826
0.102695
0.0839828
0.0731976
0.0627079
0.0556418
0.0491087
0.0442242
0.0398284
0.036298
0.033191
0.404374
0.289414
0.19939
0.160488
0.122131
0.103605
0.0847629
0.0738087
0.063234
0.0560807
0.0494908
0.0445541
0.0401194
0.0365599
0.0334216
0.412008
0.292328
0.201759
0.161831
0.123277
0.104405
0.0854481
0.0743455
0.063696
0.0564662
0.0498263
0.0448438
0.040375
0.0367899
0.0336237
0.418594
0.294839
0.2038
0.162987
0.124264
0.105093
0.0860375
0.074807
0.0640933
0.0567975
0.0501148
0.0450927
0.0405946
0.0369876
0.0337974
0.424114
0.296941
0.205508
0.163953
0.125089
0.105668
0.08653
0.0751927
0.0644252
0.0570743
0.0503557
0.0453007
0.0407781
0.0371527
0.0339423
0.42855
0.298628
0.206879
0.164729
0.125751
0.106129
0.086925
0.0755019
0.0646912
0.0572962
0.0505488
0.0454674
0.0409251
0.0372851
0.0340584
0.431889
0.299897
0.20791
0.165312
0.126249
0.106476
0.0872217
0.0757342
0.0648911
0.0574629
0.0506939
0.0455926
0.0410356
0.0373846
0.0341455
0.434121
0.300745
0.208599
0.165701
0.126581
0.106707
0.0874199
0.0758893
0.0650246
0.0575742
0.0507908
0.0456762
0.0411094
0.037451
0.0342037
0.435239
0.301169
0.208944
0.165896
0.126747
0.106823
0.087519
0.0759669
0.0650913
0.0576298
0.0508392
0.045718
0.0411463
0.0374842
0.0342327
0.435239
0.301169
0.208944
0.165896
0.126747
0.106823
0.087519
0.0759669
0.0650913
0.0576298
0.0508392
0.045718
0.0411463
0.0374842
0.0342327
0.434121
0.300745
0.208599
0.165701
0.126581
0.106707
0.0874199
0.0758893
0.0650246
0.0575742
0.0507908
0.0456762
0.0411094
0.037451
0.0342037
0.431889
0.299897
0.20791
0.165312
0.126249
0.106476
0.0872217
0.0757342
0.0648911
0.0574629
0.0506939
0.0455926
0.0410356
0.0373846
0.0341455
0.42855
0.298628
0.206879
0.164729
0.125751
0.106129
0.086925
0.0755019
0.0646912
0.0572962
0.0505488
0.0454674
0.0409251
0.0372851
0.0340584
0.424114
0.296941
0.205508
0.163953
0.125089
0.105668
0.08653
0.0751927
0.0644252
0.0570743
0.0503557
0.0453007
0.0407781
0.0371527
0.0339423
0.418594
0.294839
0.2038
0.162987
0.124264
0.105093
0.0860375
0.074807
0.0640933
0.0567975
0.0501148
0.0450927
0.0405946
0.0369876
0.0337974
0.412008
0.292328
0.201759
0.161831
0.123277
0.104405
0.0854481
0.0743455
0.063696
0.0564662
0.0498263
0.0448438
0.0403749
0.0367899
0.0336237
0.404374
0.289414
0.19939
0.160488
0.122131
0.103605
0.0847629
0.0738087
0.063234
0.0560807
0.0494908
0.0445541
0.0401194
0.0365599
0.0334216
0.395717
0.286102
0.196697
0.158961
0.120826
0.102695
0.0839828
0.0731976
0.0627079
0.0556418
0.0491087
0.0442242
0.0398284
0.036298
0.033191
0.386063
0.282402
0.193687
0.157253
0.119366
0.101676
0.083109
0.0725129
0.0621184
0.0551498
0.0486803
0.0438543
0.0395022
0.0360045
0.0329322
0.375441
0.27832
0.190366
0.155366
0.117752
0.10055
0.082143
0.0717557
0.0614663
0.0546055
0.0482064
0.043445
0.0391413
0.0356798
0.0326456
0.363883
0.273868
0.186742
0.153305
0.115989
0.0993177
0.0810862
0.070927
0.0607525
0.0540097
0.0476876
0.0429968
0.0387462
0.0353244
0.0323312
0.351424
0.269054
0.182823
0.151073
0.114078
0.0979824
0.0799401
0.0700282
0.0599781
0.0533631
0.0471244
0.0425103
0.0383174
0.0349387
0.0319895
0.338103
0.263891
0.178616
0.148675
0.112024
0.0965458
0.0787066
0.0690603
0.0591441
0.0526665
0.0465177
0.041986
0.0378554
0.0345233
0.0316207
0.323958
0.258389
0.174133
0.146115
0.10983
0.0950103
0.0773876
0.068025
0.0582516
0.0519209
0.0458683
0.0414247
0.0373609
0.0340787
0.0312252
0.309034
0.252561
0.169382
0.143398
0.107499
0.0933783
0.0759849
0.0669235
0.057302
0.0511273
0.045177
0.040827
0.0368344
0.0336056
0.0308034
0.293373
0.24642
0.164373
0.140528
0.105037
0.0916523
0.0745007
0.0657576
0.0562964
0.0502868
0.0444446
0.0401937
0.0362768
0.0331047
0.0303555
0.277025
0.23998
0.159117
0.137512
0.102446
0.0898353
0.0729372
0.0645287
0.0552362
0.0494003
0.0436722
0.0395255
0.0356887
0.0325765
0.029882
0.260037
0.233255
0.153626
0.134354
0.0997313
0.0879299
0.0712967
0.0632387
0.054123
0.0484692
0.0428607
0.0388233
0.0350709
0.032022
0.0293833
0.24246
0.226259
0.147911
0.13106
0.0968978
0.0859391
0.0695816
0.0618894
0.0529581
0.0474945
0.0420112
0.038088
0.0344242
0.031442
0.0288598
0.224346
0.219009
0.141983
0.127637
0.09395
0.0838661
0.0677944
0.0604826
0.0517432
0.0464775
0.0411248
0.0373204
0.0337494
0.0308372
0.028312
0.205749
0.211518
0.135857
0.12409
0.0908928
0.0817141
0.0659378
0.0590202
0.0504798
0.0454196
0.0402025
0.0365215
0.0330475
0.0302088
0.0277402
0.186724
0.203805
0.129543
0.120425
0.0877313
0.0794862
0.0640143
0.0575043
0.0491696
0.044322
0.0392456
0.0356922
0.0323192
0.0295578
0.0271449
0.167326
0.195883
0.123055
0.116649
0.0844706
0.0771859
0.0620267
0.0559369
0.0478143
0.0431862
0.0382552
0.0348334
0.0315654
0.0288855
0.0265264
0.147613
0.187771
0.116406
0.112768
0.081116
0.0748166
0.0599778
0.0543201
0.0464158
0.0420136
0.0372326
0.0339463
0.0307871
0.0281933
0.0258853
0.127641
0.179485
0.10961
0.108788
0.0776729
0.0723818
0.0578704
0.0526561
0.0449757
0.0408056
0.0361791
0.0330317
0.029985
0.027483
0.0252218
0.107467
0.171041
0.102679
0.104717
0.0741466
0.069885
0.0557075
0.0509471
0.043496
0.0395637
0.035096
0.0320909
0.0291596
0.0267568
0.0245362
0.0871507
0.162456
0.095628
0.100561
0.0705427
0.0673299
0.053492
0.0491953
0.0419785
0.0382894
0.0339846
0.0311249
0.0283116
0.0260171
0.0238279
0.0667483
0.153747
0.0884698
0.0963263
0.0668667
0.0647201
0.0512269
0.047403
0.040425
0.0369843
0.0328462
0.0301349
0.0274408
0.0252676
0.023101
0.0463175
0.144931
0.0812182
0.0920199
0.0631243
0.0620593
0.0489152
0.0455725
0.0388377
0.0356499
0.0316822
0.0291224
0.0265469
0.0245112
0.0223504
0.0259153
0.136025
0.0738868
0.0876484
0.059321
0.0593512
0.0465599
0.0437062
0.0372183
0.0342877
0.0304938
0.0280887
0.0256293
0.023748
0.0216022
0.00559783
0.127045
0.0664891
0.0832186
0.0554624
0.0565995
0.0441642
0.0418064
0.0355688
0.0328995
0.0292825
0.0270357
0.0246916
0.022962
0.020982
-0.0145796
0.118007
0.0590385
0.0787369
0.0515543
0.053808
0.041731
0.0398754
0.0338913
0.0314868
0.0280494
0.0259649
0.0237384
0.022155
0.0203974
-0.034563
0.108927
0.0515484
0.07421
0.0476021
0.0509804
0.0392635
0.0379157
0.0321877
0.0300513
0.0267958
0.0248769
0.0227715
0.0213208
0.0197773
-0.0542997
0.0998211
0.0440317
0.0696443
0.0436114
0.0481203
0.0367646
0.0359297
0.0304601
0.0285947
0.0255232
0.0237723
0.0217915
0.0204616
0.0190929
-0.0737386
0.0907043
0.0365014
0.065046
0.0395878
0.0452316
0.0342376
0.0339198
0.0287103
0.0271187
0.0242329
0.0226518
0.0207987
0.0195846
0.018359
-0.0928304
0.0815915
0.02897
0.0604216
0.0355367
0.042318
0.0316853
0.0318885
0.0269405
0.0256248
0.0229264
0.0215163
0.0197935
0.0186939
0.0175982
-0.111528
0.072497
0.0214498
0.055777
0.0314635
0.0393829
0.0291109
0.0298381
0.0251525
0.0241148
0.0216051
0.020367
0.0187764
0.0177903
0.0168195
-0.129786
0.0634346
0.0139528
0.0511181
0.0273735
0.0364301
0.0265172
0.0277711
0.0233485
0.0225904
0.0202704
0.0192053
0.0177482
0.0168739
0.016023
-0.147562
0.0544175
0.00649065
0.0464508
0.0232719
0.0334632
0.0239073
0.0256898
0.0215303
0.0210533
0.0189239
0.0180322
0.0167099
0.0159458
0.0152092
-0.164815
0.0454583
-0.000925391
0.0417806
0.0191639
0.0304856
0.021284
0.0235968
0.0196998
0.019505
0.0175669
0.0168491
0.0156628
0.0150077
0.014381
-0.181509
0.0365689
-0.00828449
0.0371129
0.0150545
0.0275007
0.0186502
0.0214944
0.0178591
0.0179475
0.0162009
0.0156572
0.0146079
0.0140612
0.0135416
-0.19761
0.0277605
-0.0155762
0.0324528
0.0109486
0.024512
0.0160087
0.0193851
0.0160101
0.0163823
0.0148273
0.0144579
0.0135465
0.0131077
0.0126933
-0.213084
0.0190436
-0.0227906
0.0278053
0.00685104
0.0215227
0.0133623
0.0172711
0.0141545
0.0148112
0.0134477
0.0132524
0.0124795
0.0121486
0.0118378
-0.227906
0.010428
-0.0299181
0.0231749
0.00276658
0.0185361
0.0107137
0.0151548
0.0122943
0.0132358
0.0120634
0.0120422
0.0114083
0.0111851
0.0109765
-0.242056
0.00192486
-0.0369496
0.0185662
-0.00130018
0.0155551
0.00806551
0.0130387
0.0104312
0.011658
0.0106759
0.0108284
0.010334
0.0102185
0.010111
-0.255515
-0.00645605
-0.0438765
0.0139831
-0.00534468
0.0125828
0.00542046
0.010925
0.00856703
0.0100794
0.00928645
0.00961242
0.00925774
0.00924991
0.00924256
-0.268234
-0.0147278
-0.0506904
0.00942936
-0.00936242
0.00962188
0.00278116
0.00881594
0.00670352
0.00850184
0.00789652
0.00839564
0.00818065
0.00828063
0.00837233
-0.280197
-0.0228846
-0.0573828
0.00490843
-0.0133489
0.00667491
0.000150234
0.00671374
0.00484237
0.00692694
0.00650739
0.00717936
0.00710386
0.00731178
0.00750146
-0.291437
-0.0308877
-0.0639474
0.000423085
-0.0172996
0.0037442
-0.00246963
0.0046205
0.00298524
0.00535645
0.00512035
0.00596492
0.00602847
0.00634445
0.00663096
-0.301943
-0.0387086
-0.0703921
-0.00402476
-0.0212098
0.000831678
-0.00507564
0.00253819
0.00113383
0.00379211
0.00373661
0.00475367
0.00495553
0.00537975
0.00576185
-0.311701
-0.04634
-0.0767159
-0.00843314
-0.0250743
-0.00206122
-0.00766476
0.000468539
-0.000710125
0.00223557
0.00235739
0.00354698
0.00388609
0.00441873
0.00489507
-0.320712
-0.0541085
-0.082704
-0.0127941
-0.0288875
-0.00493384
-0.0102336
-0.00158706
-0.00254477
0.000688435
0.000983826
0.00234622
0.00282113
0.00346246
0.00403155
-0.328979
-0.0616047
-0.0886422
-0.0171082
-0.0326432
-0.00778671
-0.0127779
-0.00362778
-0.00436796
-0.000847861
-0.000382903
0.00115279
0.00176161
0.00251198
0.00317221
-0.336513
-0.0688551
-0.094314
-0.021514
-0.0363338
-0.010622
-0.0152922
-0.00565383
-0.006177
-0.00237223
-0.00174154
-3.19654e-05
0.000708428
0.00156832
0.00231789
-0.343326
-0.0759335
-0.0999059
-0.0258539
-0.0399236
-0.0134467
-0.0177684
-0.00766732
-0.00796803
-0.00388427
-0.00309052
-0.00120682
-0.000337507
0.00063252
0.00146946
-0.349435
-0.0828564
-0.105402
-0.0301828
-0.0433332
-0.0162956
-0.020191
-0.00967463
-0.00973455
-0.00538514
-0.0044275
-0.0023709
-0.00137521
-0.000294378
0.000627711
-0.354861
-0.0896186
-0.110752
-0.0343841
-0.046677
-0.0192137
-0.0225097
-0.0116938
-0.0114644
-0.00687955
-0.00574777
-0.00352466
-0.00240329
-0.0012114
-0.000206584
-0.359625
-0.0962169
-0.115941
-0.0384768
-0.0500399
-0.0220736
-0.0247222
-0.0137827
-0.0131257
-0.00838007
-0.00704229
-0.00467091
-0.00341943
-0.00211776
-0.00103267
-0.363756
-0.102652
-0.120967
-0.0424941
-0.0533851
-0.0248304
-0.0269625
-0.0158196
-0.0147525
-0.00989562
-0.00828854
-0.00582178
-0.00441871
-0.00301311
-0.00184977
-0.367283
-0.108924
-0.125833
-0.0464454
-0.0566757
-0.0275143
-0.0292212
-0.0177807
-0.0163833
-0.0113746
-0.00953078
-0.00695421
-0.00540499
-0.0038969
-0.00265614
-0.370238
-0.115036
-0.130537
-0.0503289
-0.0599002
-0.030149
-0.0314592
-0.0196919
-0.0180096
-0.0128145
-0.0107707
-0.00806378
-0.00637943
-0.00476813
-0.00345064
-0.372656
-0.120988
-0.135079
-0.0541427
-0.0630576
-0.0327391
-0.0336593
-0.0215704
-0.0196161
-0.0142264
-0.011997
-0.00915379
-0.00734063
-0.00562574
-0.0042332
-0.374574
-0.126781
-0.139457
-0.0578862
-0.0661468
-0.0352829
-0.0358189
-0.0234186
-0.0211958
-0.0156156
-0.0132033
-0.0102261
-0.00828703
-0.00646878
-0.00500346
-0.376033
-0.132415
-0.143673
-0.0615589
-0.0691657
-0.0377789
-0.0379379
-0.025234
-0.022747
-0.0169816
-0.0143878
-0.0112803
-0.0092175
-0.00729644
-0.00576068
-0.377072
-0.137892
-0.147728
-0.0651599
-0.0721121
-0.0402262
-0.0400148
-0.027015
-0.0242689
-0.0183229
-0.0155501
-0.0123153
-0.0101312
-0.00810801
-0.00650397
-0.377735
-0.143212
-0.151622
-0.0686882
-0.0749844
-0.0426242
-0.0420477
-0.0287605
-0.0257604
-0.0196379
-0.0166896
-0.01333
-0.0110272
-0.00890279
-0.00723251
-0.378063
-0.148373
-0.155356
-0.0721428
-0.0777813
-0.0449721
-0.0440348
-0.0304699
-0.0272201
-0.0209258
-0.0178053
-0.0143234
-0.011905
-0.0096801
-0.00794553
-0.3781
-0.153376
-0.158932
-0.0755225
-0.0805017
-0.047269
-0.0459747
-0.0321421
-0.0286466
-0.0221857
-0.0188962
-0.0152947
-0.0127636
-0.0104393
-0.00864235
-0.377889
-0.158218
-0.162351
-0.078826
-0.0831445
-0.0495136
-0.0478659
-0.0337762
-0.0300389
-0.0234166
-0.0199614
-0.016243
-0.0136024
-0.0111797
-0.00932228
-0.377471
-0.162896
-0.165614
-0.0820521
-0.0857088