2 	-9.15729 	-8.58112e-18 	1.00843 	-0.00691413 	-1.85179e-22
2 	-8.59874 	-9.67648e-18 	1.00917 	-0.0070475 	-2.26598e-22
2 	-8.04674 	-1.36768e-17 	1.01006 	-0.00717618 	3.6842e-22
2 	-7.5012 	-1.28626e-17 	1.0111 	-0.00720179 	8.09692e-23
2 	-6.96205 	-9.68423e-18 	1.01244 	-0.00746624 	1.08779e-21
2 	-6.56146 	-8.16356e-18 	1.01387 	-0.00711726 	-1.69038e-21
2 	-6.29661 	-9.70326e-18 	1.01377 	-0.00742616 	-7.33069e-22
2 	-5.90258 	-8.96976e-18 	1.01555 	-0.00790469 	-7.40579e-22
2 	-5.38211 	-5.10316e-18 	1.01809 	-0.00734598 	6.86695e-22
2 	-5.11668 	-2.99651e-18 	1.02018 	-0.00805536 	-6.45151e-21
2 	-4.96919 	-9.51585e-19 	1.02035 	-0.00752764 	2.0019e-20
2 	-4.82676 	3.7962e-19 	1.02051 	-0.00699816 	-1.55797e-20
2 	-4.69874 	-1.6272e-18 	1.02171 	-0.00749177 	2.87269e-20
2 	-4.55243 	-2.09942e-18 	1.02187 	-0.00702095 	-1.48792e-20
2 	-4.43541 	3.7976e-18 	1.0232 	-0.007544 	-2.31347e-20
2 	-4.29179 	9.70756e-18 	1.02336 	-0.0070931 	-5.41463e-21
2 	-4.18433 	9.5592e-18 	1.02455 	-0.00741947 	2.16989e-20
2 	-4.04319 	7.51033e-18 	1.02466 	-0.0070414 	-1.1137e-20
2 	-3.94409 	6.70799e-18 	1.02565 	-0.00729637 	-1.67531e-21
2 	-3.83348 	7.23776e-18 	1.02567 	-0.00700153 	-4.97436e-20
2 	-3.71316 	7.15483e-18 	1.02571 	-0.00675554 	4.33376e-20
2 	-3.62792 	5.01998e-18 	1.02625 	-0.00663535 	-3.72245e-20
2 	-3.49179 	1.78159e-18 	1.02612 	-0.0065121 	4.80672e-20
2 	-3.41101 	3.40393e-19 	1.02601 	-0.00646931 	-9.20574e-20
2 	-3.3367 	-3.97648e-19 	1.02588 	-0.00577788 	-3.04642e-20
2 	-3.20027 	-4.08786e-18 	1.02548 	-0.00588473 	4.94454e-20
2 	-3.13057 	-8.1333e-18 	1.02493 	-0.00400201 	1.20069e-19
2 	-3.05876 	6.74494e-18 	1.0241 	-0.00421827 	7.82092e-20
2 	-2.9314 	6.3753e-18 	1.02325 	-0.00459284 	-1.2307e-20
2 	-2.86733 	8.25147e-18 	1.02237 	-0.00514173 	-7.11782e-20
2 	-2.80891 	5.84556e-18 	1.02038 	-0.00124936 	6.85697e-20
2 	-2.69742 	6.69072e-18 	1.0188 	-0.00185948 	-4.20745e-20
2 	-2.61725 	9.86032e-18 	1.01716 	-0.00269813 	2.67088e-20
2 	-2.56471 	8.37377e-18 	1.0144 	0.00449178 	4.0772e-20
2 	-2.487 	7.99096e-18 	1.01178 	0.00380394 	3.63001e-20
2 	-2.38935 	1.27274e-17 	1.00899 	0.00284819 	-3.06345e-20
2 	-2.32938 	1.49489e-17 	1.00602 	0.00159553 	-3.91099e-20
2 	-2.28387 	1.36819e-17 	1.00232 	0.0143801 	-3.9049e-20
2 	-2.20713 	1.44279e-17 	0.998033 	0.0137119 	1.17989e-21
2 	-2.12186 	1.62951e-17 	0.993429 	0.0127523 	-2.8825e-20
2 	-2.05769 	1.74798e-17 	0.988477 	0.0114727 	-3.37381e-20
2 	-2.01763 	1.73472e-17 	0.985773 	0.0325763 	8.95806e-20
2 	-1.96148 	1.73472e-17 	0.979346 	0.0326051 	-1.02971e-19
2 	-1.88587 	1.96305e-17 	0.972413 	0.0324069 	-2.3547e-20
2 	-1.81301 	2.0857e-17 	0.964929 	0.0319682 	4.9386e-20
2 	-1.75942 	2.03084e-17 	0.956842 	0.031277 	-3.71754e-20
2 	-1.72488 	2.08167e-17 	0.958332 	0.0650653 	-3.04658e-20
2 	-1.67476 	2.08167e-17 	0.948983 	0.0667474 	1.63983e-19
2 	-1.60902 	2.17157e-17 	0.938929 	0.0683795 	-2.18928e-19
2 	-1.54532 	2.04797e-17 	0.928117 	0.069979 	9.99876e-20
2 	-1.48352 	1.59997e-17 	0.916486 	0.0715704 	-2.26499e-20
2 	-1.43952 	1.09664e-17 	0.903971 	0.0731867 	7.66002e-20
2 	-1.40994 	8.30237e-18 	0.916749 	0.123919 	4.54506e-20
2 	-1.36514 	6.59195e-18 	0.903827 	0.128903 	3.94917e-20
2 	-1.30832 	4.85723e-18 	0.89004 	0.134134 	-1.27676e-19
2 	-1.25294 	2.80321e-18 	0.875338 	0.139659 	1.13176e-19
2 	-1.19891 	1.68863e-19 	0.859669 	0.145533 	-1.76708e-19
2 	-1.14614 	-4.8709e-20 	0.842979 	0.151821 	1.93466e-19
2 	-1.09454 	1.45894e-19 	0.825216 	0.158594 	5.89579e-20
2 	-1.06737 	2.45152e-19 	0.806326 	0.165928 	-1.02691e-19
2 	-1.04239 	-7.84551e-19 	0.839756 	0.236593 	-7.44074e-20
2 	-0.99456 	-3.81639e-18 	0.820977 	0.247181 	2.06402e-20
2 	-0.946041 	-3.81639e-18 	0.80097 	0.258259 	1.98754e-20
2 	-0.898415 	-3.81639e-18 	0.779651 	0.269853 	-1.37902e-19
2 	-0.851623 	-7.95477e-18 	0.756949 	0.281972 	4.59365e-20
2 	-0.805606 	-9.84001e-18 	0.732835 	0.294608 	-6.38505e-21
2 	-0.760312 	-8.50774e-18 	0.707321 	0.307772 	1.91456e-19
2 	-0.715689 	-1.33676e-18 	0.68039 	0.321564 	-4.93997e-20
2 	-0.671689 	4.77792e-18 	0.65188 	0.336238 	-9.91694e-20
2 	-0.628266 	7.83923e-18 	0.62142 	0.352163 	-2.55948e-21
2 	-0.59159 	1.32404e-18 	0.588501 	0.369695 	-8.42162e-21
2 	-0.570272 	-3.81639e-18 	0.643574 	0.449736 	1.46256e-19
2 	-0.542975 	-7.28584e-18 	0.611729 	0.465971 	1.88116e-20
2 	-0.501025 	-7.28584e-18 	0.57855 	0.482778 	-2.06689e-19
2 	-0.459485 	-5.20417e-18 	0.543842 	0.500378 	1.69073e-19
2 	-0.418319 	-7.97973e-18 	0.507392 	0.518902 	2.38745e-20
2 	-0.377489 	-9.36751e-18 	0.469109 	0.538298 	-1.33066e-19
2 	-0.336961 	-1.04083e-17 	0.429142 	0.558274 	-8.7171e-20
2 	-0.296701 	-1.49186e-17 	0.387951 	0.578301 	-7.26436e-20
2 	-0.256674 	-1.66533e-17 	0.346301 	0.597662 	-6.08474e-20
2 	-0.216849 	-1.66533e-17 	0.305213 	0.61553 	1.73185e-19
2 	-0.177193 	-1.83881e-17 	0.265871 	0.63106 	-1.60847e-19
2 	-0.137675 	-1.83881e-17 	0.229528 	0.643479 	1.10979e-19
2 	-0.098263 	-1.83881e-17 	0.197404 	0.652146 	9.53492e-20
2 	-0.0589275 	-1.8735e-17 	0.170596 	0.656592 	-5.95177e-20
2 	-0.0196374 	-1.42247e-17 	0.150005 	0.656525 	-1.90751e-20
2 	0.0196374 	-1.17961e-17 	0.136288 	0.65182 	-1.93207e-20
2 	0.0589275 	-1.07553e-17 	0.129864 	0.642487 	-6.67184e-20
2 	0.098263 	-8.67362e-18 	0.130956 	0.628649 	1.17405e-19
2 	0.137675 	-1.00614e-17 	0.139667 	0.610527 	1.47249e-19
2 	0.177193 	-1.00614e-17 	0.156051 	0.588432 	-2.37601e-19
2 	0.216849 	-1.00614e-17 	0.180146 	0.562757 	2.40493e-19
2 	0.256674 	-8.67362e-18 	0.211964 	0.533969 	-8.14136e-20
2 	0.296701 	-7.28584e-18 	0.251443 	0.502596 	-1.35339e-19
2 	0.336961 	-1.249e-17 	0.298367 	0.469216 	-2.134e-19
2 	0.377489 	-1.59595e-17 	0.352304 	0.434447 	-1.97745e-19
2 	0.418319 	-1.9082e-17 	0.412547 	0.398925 	4.5624e-20
2 	0.459485 	-2.35922e-17 	0.478092 	0.363296 	4.4549e-19
2 	0.501025 	-2.84495e-17 	0.547661 	0.328188 	-4.63661e-19
2 	0.542975 	-2.87964e-17 	0.619768 	0.294198 	-4.79723e-21
2 	0.570272 	-2.44003e-17 	0.692811 	0.261865 	3.29186e-19
2 	0.59159 	-2.44641e-17 	0.982067 	-0.00524829 	2.35803e-19
2 	0.628266 	-2.55768e-17 	1.0398 	-0.0190511 	1.01571e-20
2 	0.671689 	6.1657e-18 	1.0921 	-0.0295348 	-6.92946e-20
2 	0.715689 	7.6838e-18 	1.1384 	-0.036938 	-2.81286e-19
2 	0.760312 	5.71699e-18 	1.17832 	-0.0415631 	8.0412e-19
2 	0.805606 	-6.4598e-19 	1.21171 	-0.0437574 	-8.76143e-21
2 	0.851623 	-6.39352e-18 	1.2386 	-0.0438972 	1.48255e-19
2 	0.898415 	-1.04083e-17 	1.25922 	-0.042374 	-5.27462e-19
2 	0.946041 	-1.21431e-17 	1.27394 	-0.0395804 	7.43695e-20
2 	0.99456 	-1.21431e-17 	1.28332 	-0.0358929 	1.25412e-19
2 	1.04239 	-1.10116e-17 	1.28803 	-0.0316525 	-2.23524e-19
2 	1.06737 	-1.13696e-17 	1.28722 	-0.116382 	-5.70901e-19
2 	1.09454 	-1.06094e-17 	1.28221 	-0.105097 	2.62076e-19
2 	1.14614 	-1.27122e-17 	1.27566 	-0.0944552 	7.94346e-19
2 	1.19891 	-1.83927e-17 	1.26804 	-0.0845094 	-7.43265e-19
2 	1.25294 	-2.00951e-17 	1.25976 	-0.0752739 	4.3353e-19
2 	1.30832 	-1.8735e-17 	1.25111 	-0.0667351 	-3.5964e-19
2 	1.36514 	-1.8735e-17 	1.24235 	-0.0588604 	1.02816e-19
2 	1.40994 	-1.76699e-17 	1.23365 	-0.0516061 	9.86882e-20
2 	1.43952 	-1.53528e-17 	1.20241 	-0.0867846 	2.61897e-19
2 	1.48352 	-1.85213e-17 	1.19582 	-0.0780186 	-8.34516e-20
2 	1.54532 	-2.08067e-17 	1.18944 	-0.0698883 	1.70362e-19
2 	1.60902 	-1.83564e-17 	1.1833 	-0.0623398 	-6.23439e-19
2 	1.67476 	-1.66533e-17 	1.17743 	-0.0553222 	3.85401e-19
2 	1.72488 	-1.59758e-17 	1.17181 	-0.0487877 	-6.23424e-20
2 	1.75942 	-1.6484e-17 	1.14569 	-0.0667457 	-1.19053e-19
2 	1.81301 	-1.28834e-17 	1.14201 	-0.0598365 	1.58805e-19
2 	1.88587 	-1.06404e-17 	1.13846 	-0.0533605 	-1.08575e-19
2 	1.96148 	-1.31839e-17 	1.13504 	-0.047283 	-1.69932e-19
2 	2.01763 	-1.70766e-17 	1.13174 	-0.0415717 	1.92635e-19
2 	2.05769 	-1.90258e-17 	1.11076 	-0.0511412 	-8.68381e-20
2 	2.12186 	-2.03943e-17 	1.10879 	-0.0455022 	-3.11347e-20
2 	2.20713 	-2.19146e-17 	1.10684 	-0.0401793 	-5.22559e-20
2 	2.28387 	-2.09677e-17 	1.10492 	-0.0351493 	-3.65486e-20
2 	2.32938 	-1.83129e-17 	1.08771 	-0.0401971 	-9.02056e-20
2 	2.38935 	-1.71098e-17 	1.08673 	-0.0354651 	-5.24139e-20
2 	2.487 	-2.14993e-17 	1.08571 	-0.0309772 	3.93602e-20
2 	2.56471 	-2.79978e-17 	1.08465 	-0.0267167 	5.44842e-20
2 	2.61725 	-2.92868e-17 	1.07089 	-0.0291199 	3.544e-20
2 	2.69742 	-3.00854e-17 	1.07047 	-0.0252439 	-2.89518e-20
2 	2.80891 	-3.49889e-17 	1.06998 	-0.02155 	7.524e-20
2 	2.86733 	-3.70933e-17 	1.05867 	-0.0223752 	-1.48313e-21
2 	2.9314 	-3.53665e-17 	1.05862 	-0.0191089 	-5.27472e-21
2 	3.05876 	-3.63846e-17 	1.05849 	-0.0159825 	1.81231e-20
2 	3.13057 	-3.75983e-17 	1.05827 	-0.0129878 	1.21502e-19
2 	3.20027 	2.6747e-18 	1.04948 	-0.0131883 	4.51029e-20
2 	3.3367 	7.48744e-19 	1.04953 	-0.0105826 	-3.31334e-20
2 	3.41101 	1.05154e-18 	1.04223 	-0.0101541 	2.64279e-20
2 	3.49179 	-7.06946e-19 	1.04245 	-0.00792823 	4.38736e-20
2 	3.62792 	2.36239e-18 	1.04258 	-0.00577441 	-4.44146e-20
2 	3.71316 	9.01913e-18 	1.03676 	-0.00522826 	-1.46581e-20
2 	3.83348 	9.43229e-18 	1.03697 	-0.00340152 	-4.16553e-20
2 	3.94409 	1.03342e-17 	1.0371 	-0.0016243 	7.88263e-21
2 	4.04319 	1.03342e-17 	1.03247 	-0.00124765 	-1.70429e-20
2 	4.18433 	9.30394e-18 	1.03263 	0.000256123 	5.7649e-21
2 	4.29179 	8.68347e-18 	1.0288 	0.000738875 	1.84952e-20
2 	4.43541 	9.66904e-18 	1.02894 	0.00201888 	-1.79264e-20
2 	4.55243 	1.32242e-17 	1.02572 	0.00238941 	-2.34757e-21
2 	4.69874 	1.26664e-17 	1.02584 	0.00345245 	1.72813e-20
2 	4.82676 	1.07572e-17 	1.02308 	0.0036026 	-6.87076e-21
2 	4.96919 	1.10868e-17 	1.02317 	0.0045552 	1.14889e-20
2 	5.11668 	1.10351e-17 	1.02321 	0.00550248 	-4.78331e-21
2 	5.38211 	8.25954e-18 	1.02016 	0.00606766 	2.81524e-22
2 	5.90258 	8.32667e-18 	1.0171 	0.00764652 	-7.36179e-23
2 	6.29661 	1.21422e-17 	1.01502 	0.00739038 	-3.03719e-22
2 	6.56146 	1.62926e-17 	1.01507 	0.00701971 	-6.44073e-22
2 	6.96205 	1.79892e-17 	1.01337 	0.00778681 	5.73511e-23
2 	7.5012 	1.96714e-17 	1.01196 	0.00757402 	7.85825e-25
2 	8.04674 	2.23938e-17 	1.01078 	0.00766363 	-1.09761e-22
2 	8.59874 	1.88705e-17 	1.00981 	0.0075201 	-1.73723e-22
2 	9.15729 	1.77752e-17 	1.00899 	0.00739739 	1.99309e-22
