/*--------------------------------*- C++ -*----------------------------------*\
  =========                 |
  \\      /  F ield         | OpenFOAM: The Open Source CFD Toolbox
   \\    /   O peration     | Website:  https://openfoam.org
    \\  /    A nd           | Version:  7
     \\/     M anipulation  |
\*---------------------------------------------------------------------------*/
FoamFile
{
    version     2.0;
    format      ascii;
    class       volScalarField;
    location    "1.9";
    object      rho;
}
// * * * * * * * * * * * * * * * * * * * * * * * * * * * * * * * * * * * * * //

dimensions      [1 -3 0 0 0 0 0];

internalField   nonuniform List<scalar> 
1008
(
2.23151
4.31643
4.53417
4.36306
4.19024
4.01363
1.40001
1.40001
1.40001
1.40001
1.40001
1.40001
1.40001
1.40001
1.40001
1.40001
1.40001
1.40001
1.40001
1.40001
1.40001
1.40001
1.40001
1.40001
1.49202
3.21185
4.5059
4.41955
4.25312
4.07926
1.40001
1.40001
1.40001
1.40001
1.40001
1.40001
1.40001
1.40001
1.40001
1.40001
1.40001
1.40001
1.40001
1.40001
1.40001
1.40001
1.40001
1.40001
1.40136
1.88299
3.91419
4.48349
4.31912
4.14286
1.40001
1.40001
1.40001
1.40001
1.40001
1.40001
1.40001
1.40001
1.40001
1.40001
1.40001
1.40001
1.40001
1.40001
1.40001
1.40001
1.40001
1.40001
1.40001
1.42953
2.52766
4.2107
4.36399
4.20004
1.40001
1.40001
1.40001
1.40001
1.40001
1.40001
1.40001
1.40001
1.40001
1.40001
1.40001
1.40001
1.40001
1.40001
1.40001
1.40001
1.40001
1.40001
1.40001
1.40032
1.56991
3.206
4.30297
4.2649
1.40001
1.40001
1.40001
1.40001
1.40001
1.40001
1.40001
1.40001
1.40001
1.40001
1.40001
1.40001
1.40001
1.40001
1.40001
1.40001
1.40001
1.40001
1.40001
1.40001
1.40452
1.88805
3.67842
4.28741
1.40001
1.40001
1.40001
1.40001
1.40001
1.40001
1.40001
1.40001
1.40001
1.40001
1.40001
1.40001
1.40001
1.40001
1.40001
1.40001
1.40001
1.40001
1.40001
1.40001
1.40003
1.43109
2.29839
3.94105
1.40001
1.40001
1.40001
1.40001
1.40001
1.40001
1.40001
1.40001
1.40001
1.40001
1.40001
1.40001
1.40001
1.40001
1.40001
1.40001
1.40001
1.40001
1.40001
1.40001
1.40001
1.4004
1.50511
2.71544
1.40001
1.40001
1.40001
1.40001
1.40001
1.40001
1.40001
1.40001
1.40001
1.40001
1.40001
1.40001
1.40001
1.40001
1.40001
1.40001
1.40001
1.40001
1.40001
1.40001
1.40001
1.40001
1.40231
1.63738
1.40001
1.40001
1.40001
1.40001
1.40001
1.40001
1.40001
1.40001
1.40001
1.40001
1.40001
1.40001
1.40001
1.40001
1.40001
1.40001
1.40001
1.40001
1.40001
1.40001
1.40001
1.40001
1.40002
1.40882
1.40001
1.40001
1.40001
1.40001
1.40001
1.40001
1.40001
1.40001
1.40001
1.40001
1.40001
1.40001
1.40001
1.40001
1.40001
1.40001
1.40001
1.40001
1.40001
1.40001
1.40001
1.40001
1.40001
1.40008
1.40001
1.40001
1.40001
1.40001
1.40001
1.40001
1.40001
1.40001
1.40001
1.40001
1.40001
1.40001
1.40001
1.40001
1.40001
1.40001
1.40001
1.40001
1.40001
1.40001
1.40001
1.40001
1.40001
1.40001
1.40001
1.40001
1.40001
1.40001
1.40001
1.40001
1.40001
1.40001
1.40001
1.40001
1.40001
1.40001
1.40001
1.40001
1.40001
1.40001
1.40001
1.40001
1.40001
1.40001
1.40001
1.40001
1.40001
1.40001
1.40001
1.40001
1.40001
1.40001
1.40001
1.40001
1.40001
1.40001
1.40001
1.40001
1.40001
1.40001
1.40001
1.40001
1.40001
1.40001
1.40001
1.40001
1.40001
1.40001
1.40001
1.40001
1.40001
1.40001
1.40001
1.40001
1.40001
1.40001
1.40001
1.40001
1.40001
1.40001
1.40001
1.40001
1.40001
1.40001
1.40001
1.40001
1.40001
1.40001
1.40001
1.40001
1.40001
1.40001
1.40001
1.40001
1.40001
1.40001
1.40001
1.40001
1.40001
1.40001
1.40001
1.40001
1.40001
1.40001
1.40001
1.40001
1.40001
1.40001
1.40001
1.40001
1.40001
1.40001
1.40001
1.40001
1.40001
1.40001
1.40001
1.40001
1.40001
1.40001
1.40001
1.40001
1.40001
1.40001
1.40001
1.40001
1.40001
1.40001
1.40001
1.40001
1.40001
1.40001
1.40001
1.40001
1.40001
1.40001
1.40001
1.40001
1.40001
1.40001
1.40001
1.40001
1.40001
1.40001
1.40001
1.40001
1.40001
1.40001
1.40001
1.40001
1.40001
1.40001
1.40001
1.40001
1.40001
1.40001
1.40001
1.40001
1.40001
1.40001
1.40001
1.40001
1.40001
1.40001
1.40001
1.40001
1.40001
1.40001
3.83397
3.65148
3.4647
3.28715
3.12265
2.95182
2.78554
2.64717
2.51699
2.3775
2.25139
2.15391
2.05123
1.95497
1.85659
1.7936
1.72131
1.65139
1.58277
1.5249
1.48036
1.42643
1.37943
1.33241
1.28523
1.26055
1.32619
1.65286
2.12602
2.30637
2.26882
2.20936
2.14846
3.90147
3.72108
3.54088
3.36855
3.204
3.03844
2.88217
2.74272
2.61015
2.46691
2.35177
2.25148
2.1528
2.04059
1.95075
1.88572
1.80878
1.73717
1.65979
1.61142
1.55687
1.5012
1.44427
1.39291
1.36414
1.45166
1.81556
2.31647
2.4942
2.45819
2.35748
2.28057
2.23163
3.96514
3.78626
3.61176
3.44585
3.28349
3.12295
2.97475
2.83702
2.70082
2.56311
2.45086
2.34882
2.2463
2.13122
2.04735
1.97449
1.89776
1.81562
1.74209
1.69116
1.632
1.57188
1.51349
1.48356
1.59384
2.01401
2.48757
2.66883
2.63522
2.54889
2.4496
2.36516
2.31186
4.02407
3.85136
3.68576
3.52506
3.36121
3.20379
3.06648
2.93151
2.79081
2.65672
2.54954
2.44406
2.33549
2.22162
2.14061
2.06051
1.98073
1.8924
1.82498
1.76804
1.69992
1.63936
1.61389
1.7594
2.25023
2.70638
2.84861
2.80115
2.70972
2.62267
2.55067
2.47468
2.40126
4.10568
3.93464
3.77283
3.61345
3.45067
3.29787
3.16047
3.02391
2.87951
2.75452
2.64765
2.53935
2.42176
2.31272
2.23298
2.14651
2.06207
1.97061
1.90925
1.83912
1.77308
1.76726
1.96575
2.51328
2.98366
3.02423
2.95207
2.85471
2.77299
2.71857
2.66551
2.59529
2.50736
4.19902
4.02385
3.85879
3.69672
3.53344
3.38539
3.24729
3.10977
2.96768
2.84717
2.73473
2.62433
2.50669
2.40659
2.32009
2.23309
2.13664
2.05274
1.98601
1.9054
1.93752
2.22653
2.85275
3.21577
3.2367
3.15638
3.0437
2.95323
2.89587
2.84094
2.77601
2.69515
2.60216
4.23812
4.11845
3.9463
3.77811
3.61852
3.47442
3.33396
3.19152
3.05655
2.94232
2.82462
2.70913
2.59055
2.50082
2.40924
2.31791
2.21769
2.13604
2.05688
2.11758
2.56283
3.21666
3.56493
3.49069
3.34014
3.23481
3.1483
3.07432
3.00996
2.94061
2.86034
2.77104
2.68112
4.06323
4.18384
4.0509
3.86973
3.71321
3.57026
3.4277
3.27806
3.15262
3.03622
2.91753
2.7905
2.6806
2.59391
2.49611
2.398
2.29979
2.21929
2.33108
2.87464
3.59978
3.89521
3.80416
3.60915
3.44885
3.32898
3.24512
3.1737
3.09883
3.01956
2.93529
2.84838
2.76334
3.09224
4.08579
4.11561
3.97612
3.80855
3.66205
3.51577
3.37506
3.25009
3.12764
3.00576
2.87481
2.77733
2.68346
2.5761
2.4767
2.40227
2.5761
3.29488
3.92031
4.11626
4.0314
3.87256
3.72054
3.57431
3.4502
3.35327
3.2657
3.18325
3.10231
3.0214
2.93918
2.85328
1.82553
3.35899
4.07886
4.06109
3.91903
3.75983
3.60847
3.46553
3.34385
3.22328
3.09954
2.96844
2.87351
2.76221
2.66636
2.61136
2.88526
3.71455
4.3366
4.46488
4.35135
4.15307
3.97991
3.84835
3.71586
3.57874
3.4655
3.37107
3.28328
3.19817
3.11439
3.02878
2.93849
1.42527
2.0326
3.54062
4.0426
4.01191
3.86856
3.69889
3.56746
3.43972
3.31877
3.17693
3.07106
2.96351
2.84216
2.85545
3.26767
4.25911
4.72388
4.67844
4.57783
4.41993
4.26048
4.11392
3.97615
3.83622
3.70166
3.58265
3.47811
3.3817
3.28808
3.19485
3.10107
3.00801
1.40032
1.45422
2.23316
3.6394
4.00825
3.97405
3.81751
3.65926
3.53115
3.40759
3.27957
3.16798
3.02927
3.09446
3.73875
4.7437
5.24616
5.18088
4.90712
4.65973
4.49527
4.3673
4.23887
4.09867
3.95405
3.81812
3.6936
3.57855
3.47028
3.36608
3.26459
3.16694
3.07521
1.40001
1.40095
1.49465
2.39891
3.69856
3.97416
3.93403
3.77957
3.63106
3.4904
3.37303
3.25048
3.38334
4.24047
5.35092
5.542
5.41113
5.25759
5.05059
4.82873
4.63727
4.48566
4.34608
4.20552
4.06747
3.93449
3.80481
3.67758
3.5535
3.43575
3.32849
3.23246
3.14407
1.40001
1.40001
1.40219
1.53965
2.53034
3.73239
3.92591
3.88579
3.7475
3.5912
3.45497
3.70585
4.84022
5.84922
6.11673
5.91982
5.5557
5.31457
5.14305
4.9724
4.79061
4.61034
4.4424
4.29026
4.15254
4.02346
3.89742
3.76992
3.63933
3.51103
3.39542
3.29589
3.20671
1.40001
1.40001
1.40002
1.40402
1.58441
2.64665
3.69821
3.89945
3.84477
3.70482
4.03047
5.5446
6.41264
6.32812
6.22171
6.0117
5.70878
5.43679
5.2403
5.07099
4.89433
4.70973
4.53109
4.36827
4.22176
4.08767
3.96124
3.83689
3.71098
3.58476
3.46402
3.35426
3.25555
1.40001
1.40001
1.40001
1.40003
1.40666
1.62504
2.67314
3.75847
3.79485
4.32452
6.00962
7.026
7.01593
6.60842
6.27615
6.05278
5.81855
5.56507
5.33832
5.14471
4.96176
4.7757
4.59224
4.42249
4.2689
4.12817
3.9966
3.87185
3.75172
3.63334
3.51476
3.39802
3.28808
1.40001
1.40001
1.40001
1.40001
1.40006
1.40837
1.65828
2.71029
3.66993
6.50802
7.35819
7.12825
7.02673
6.73074
6.30885
6.05396
5.84084
5.63092
5.41751
5.21142
5.01536
4.82293
4.6359
4.4631
4.30772
4.16591
4.03333
3.90738
3.78523
3.66375
3.54219
3.42211
3.30745
1.40001
1.40001
1.40001
1.40001
1.40001
1.40008
1.41108
1.69892
4.43614
8.23496
8.18076
7.46806
7.20932
6.88268
6.38177
6.05055
5.82219
5.62505
5.43751
5.24468
5.04944
4.85532
4.66481
4.48435
4.32279
4.18082
4.05222
3.93009
3.80827
3.68131
3.5465
3.41067
3.29204
)
;

boundaryField
{
    inlet
    {
        type            calculated;
        value           uniform 1.40001;
    }
    outlet
    {
        type            calculated;
        value           nonuniform 0();
    }
    bottom
    {
        type            symmetryPlane;
    }
    top
    {
        type            symmetryPlane;
    }
    obstacle
    {
        type            calculated;
        value           nonuniform 0();
    }
    defaultFaces
    {
        type            empty;
    }
    procBoundary2to0
    {
        type            processor;
        value           nonuniform List<scalar> 
58
(
3.71105
4.67803
4.5193
4.34224
4.15469
3.96349
1.40001
1.40001
1.40001
1.40001
1.40001
1.40001
1.40001
1.40001
1.40001
1.40001
1.40001
1.40001
1.40001
1.40001
1.40001
1.40001
1.40001
1.4029
1.4029
3.76916
3.57854
3.38315
3.19757
3.02895
2.85935
2.68493
2.54631
2.41339
2.28281
2.14755
2.05044
1.9517
1.85947
1.76643
1.69531
1.63204
1.56266
1.50035
1.44109
1.40085
1.35302
1.30744
1.26421
1.2236
1.19056
1.16381
1.20868
1.47303
1.89283
2.10971
2.126
2.07567
)
;
    }
    procBoundary2to1
    {
        type            processor;
        value           nonuniform List<scalar> 2(2.09766 2.18702);
    }
    procBoundary2to3
    {
        type            processor;
        value           nonuniform List<scalar> 
16
(
2.26726
2.34437
2.42771
2.51717
2.60101
2.68422
2.76704
2.84709
2.91885
2.98965
3.059
3.12104
3.164
3.18606
3.20388
3.20009
)
;
    }
}


// ************************************************************************* //
