/*--------------------------------*- C++ -*----------------------------------*\
  =========                 |
  \\      /  F ield         | OpenFOAM: The Open Source CFD Toolbox
   \\    /   O peration     | Website:  https://openfoam.org
    \\  /    A nd           | Version:  7
     \\/     M anipulation  |
\*---------------------------------------------------------------------------*/
FoamFile
{
    version     2.0;
    format      ascii;
    class       surfaceScalarField;
    location    "0.277";
    object      phi;
}
// * * * * * * * * * * * * * * * * * * * * * * * * * * * * * * * * * * * * * //

dimensions      [0 3 -1 0 0 0 0];

internalField   nonuniform List<scalar> 
79600
(
1.07589e-12
-1.1419e-12
1.28167e-11
-1.17418e-11
3.278e-11
-1.99639e-11
5.71236e-11
-2.43436e-11
8.27807e-11
-2.56575e-11
1.07439e-10
-2.46597e-11
1.29383e-10
-2.19455e-11
1.47359e-10
-1.79756e-11
1.60455e-10
-1.30945e-11
1.68014e-10
-7.55656e-12
1.69564e-10
-1.55094e-12
1.64783e-10
4.78012e-12
1.53455e-10
1.13261e-11
1.35455e-10
1.79997e-11
1.10725e-10
2.47314e-11
7.92591e-11
3.14664e-11
4.10977e-11
3.81613e-11
-3.68374e-12
4.4781e-11
-5.49805e-11
5.12967e-11
-1.12664e-10
5.76844e-11
-1.76588e-10
6.39246e-11
-2.46589e-10
7.00013e-11
-3.22491e-10
7.5902e-11
-4.04107e-10
8.16162e-11
-4.91242e-10
8.71352e-11
-5.83693e-10
9.24521e-11
-6.81255e-10
9.75614e-11
-7.83713e-10
1.02459e-10
-8.90854e-10
1.07141e-10
-1.00246e-09
1.11606e-10
-1.11831e-09
1.15851e-10
-1.23818e-09
1.19876e-10
-1.36186e-09
1.2368e-10
-1.48913e-09
1.27262e-10
-1.61975e-09
1.30625e-10
-1.75352e-09
1.33767e-10
-1.89021e-09
1.36691e-10
-2.0296e-09
1.39398e-10
-2.17149e-09
1.41888e-10
-2.31566e-09
1.44165e-10
-2.46189e-09
1.4623e-10
-2.60997e-09
1.48084e-10
-2.7597e-09
1.49732e-10
-2.91088e-09
1.51174e-10
-3.06329e-09
1.52415e-10
-3.21674e-09
1.53455e-10
-3.37104e-09
1.54299e-10
-3.52599e-09
1.54949e-10
-3.6814e-09
1.55407e-10
-3.83707e-09
1.55678e-10
-3.99284e-09
1.55763e-10
-4.1485e-09
1.55667e-10
-4.3039e-09
1.55392e-10
-4.45884e-09
1.54941e-10
-4.61315e-09
1.54318e-10
-4.76668e-09
1.53527e-10
-4.91925e-09
1.52569e-10
-5.0707e-09
1.51449e-10
-5.22087e-09
1.5017e-10
-5.3696e-09
1.48735e-10
-5.51675e-09
1.47148e-10
-5.66216e-09
1.45411e-10
-5.80569e-09
1.43529e-10
-5.94719e-09
1.41505e-10
-6.08653e-09
1.39342e-10
-6.22358e-09
1.37043e-10
-6.35819e-09
1.34613e-10
-6.49024e-09
1.32053e-10
-6.61961e-09
1.29369e-10
-6.74617e-09
1.26563e-10
-6.86981e-09
1.23639e-10
-6.99041e-09
1.206e-10
-7.10786e-09
1.1745e-10
-7.22205e-09
1.14192e-10
-7.33288e-09
1.10829e-10
-7.44025e-09
1.07365e-10
-7.54405e-09
1.03804e-10
-7.6442e-09
1.0015e-10
-7.74061e-09
9.64044e-11
-7.83318e-09
9.25723e-11
-7.92183e-09
8.86568e-11
-8.0065e-09
8.46615e-11
-8.08709e-09
8.059e-11
-8.16353e-09
7.64459e-11
-8.23577e-09
7.22328e-11
-8.30372e-09
6.79544e-11
-8.36733e-09
6.36142e-11
-8.42655e-09
5.92159e-11
-8.48131e-09
5.47632e-11
-8.53157e-09
5.02597e-11
-8.57728e-09
4.57092e-11
-8.6184e-09
4.11154e-11
-8.65488e-09
3.64821e-11
-8.68669e-09
3.18132e-11
-8.7138e-09
2.71123e-11
-8.73619e-09
2.23835e-11
-8.75382e-09
1.76306e-11
-8.76667e-09
1.28574e-11
-8.77474e-09
8.06785e-12
-8.77801e-09
3.26597e-12
-8.77646e-09
-1.54427e-12
-8.7701e-09
-6.35885e-12
-8.75893e-09
-1.11737e-11
-8.74295e-09
-1.59847e-11
-8.72216e-09
-2.07878e-11
-8.69658e-09
-2.55788e-11
-8.66622e-09
-3.03535e-11
-8.63112e-09
-3.51078e-11
-8.59128e-09
-3.98375e-11
-8.54674e-09
-4.45383e-11
-8.49753e-09
-4.92059e-11
-8.4437e-09
-5.3836e-11
-8.38527e-09
-5.84242e-11
-8.32231e-09
-6.29663e-11
-8.25485e-09
-6.74578e-11
-8.18296e-09
-7.18943e-11
-8.10668e-09
-7.62715e-11
-8.0261e-09
-8.05849e-11
-7.94127e-09
-8.48301e-11
-7.85227e-09
-8.90026e-11
-7.75917e-09
-9.3098e-11
-7.66206e-09
-9.71118e-11
-7.56102e-09
-1.0104e-10
-7.45614e-09
-1.04877e-10
-7.34752e-09
-1.08619e-10
-7.23526e-09
-1.12262e-10
-7.11946e-09
-1.158e-10
-7.00023e-09
-1.19231e-10
-6.87768e-09
-1.22548e-10
-6.75194e-09
-1.25748e-10
-6.62311e-09
-1.28827e-10
-6.49133e-09
-1.3178e-10
-6.35673e-09
-1.34602e-10
-6.21944e-09
-1.3729e-10
-6.0796e-09
-1.39839e-10
-5.93736e-09
-1.42244e-10
-5.79285e-09
-1.44503e-10
-5.64624e-09
-1.46609e-10
-5.49768e-09
-1.48561e-10
-5.34733e-09
-1.50353e-10
-5.19535e-09
-1.51981e-10
-5.04191e-09
-1.53443e-10
-4.88717e-09
-1.54733e-10
-4.73133e-09
-1.55848e-10
-4.57454e-09
-1.56785e-10
-4.417e-09
-1.57541e-10
-4.25889e-09
-1.5811e-10
-4.1004e-09
-1.58492e-10
-3.94172e-09
-1.58681e-10
-3.78304e-09
-1.58675e-10
-3.62457e-09
-1.58472e-10
-3.4665e-09
-1.58068e-10
-3.30904e-09
-1.5746e-10
-3.1524e-09
-1.56646e-10
-2.99677e-09
-1.55624e-10
-2.84238e-09
-1.54392e-10
-2.68944e-09
-1.52947e-10
-2.53815e-09
-1.51287e-10
-2.38874e-09
-1.49411e-10
-2.24142e-09
-1.47318e-10
-2.09642e-09
-1.45005e-10
-1.95394e-09
-1.42473e-10
-1.81422e-09
-1.39721e-10
-1.67747e-09
-1.36747e-10
-1.54392e-09
-1.33552e-10
-1.41379e-09
-1.30137e-10
-1.28729e-09
-1.265e-10
-1.16464e-09
-1.22645e-10
-1.04607e-09
-1.18571e-10
-9.31791e-10
-1.1428e-10
-8.22015e-10
-1.09776e-10
-7.16954e-10
-1.05061e-10
-6.16816e-10
-1.00138e-10
-5.21803e-10
-9.5013e-11
-4.32113e-10
-8.96903e-11
-3.47937e-10
-8.41765e-11
-2.69458e-10
-7.8479e-11
-1.9685e-10
-7.2607e-11
-1.30279e-10
-6.65713e-11
-6.98939e-11
-6.03847e-11
-1.58319e-11
-5.40623e-11
3.17892e-11
-4.76218e-11
7.2873e-11
-4.10842e-11
1.07348e-10
-3.44751e-11
1.35175e-10
-2.78259e-11
1.56349e-10
-2.11741e-11
1.70914e-10
-1.45656e-11
1.7897e-10
-8.05598e-12
1.80685e-10
-1.71513e-12
1.76316e-10
4.3689e-12
1.66232e-10
1.0084e-11
1.50944e-10
1.5287e-11
1.31152e-10
1.97909e-11
1.07807e-10
2.33464e-11
8.2192e-11
2.56179e-11
5.60368e-11
2.61591e-11
3.16383e-11
2.43997e-11
1.19945e-11
1.96364e-11
7.73946e-13
1.12015e-11
7.54463e-13
1.17027e-11
-1.28454e-11
4.33879e-11
-4.34307e-11
8.94246e-11
-6.60093e-11
1.43363e-10
-7.8289e-11
1.99211e-10
-8.15044e-11
2.51906e-10
-7.73497e-11
2.97366e-10
-6.7401e-11
3.32384e-10
-5.29933e-11
3.54488e-10
-3.52008e-11
3.61802e-10
-1.48713e-11
3.52925e-10
7.32725e-12
3.26837e-10
3.08691e-11
2.82824e-10
5.53375e-11
2.20422e-10
8.03993e-11
1.39367e-10
1.05786e-10
3.95556e-11
1.31278e-10
-7.89803e-11
1.56699e-10
-2.161e-10
1.81903e-10
-3.71573e-10
2.0677e-10
-5.45092e-10
2.31203e-10
-7.36287e-10
2.55121e-10
-9.44739e-10
2.78455e-10
-1.16998e-09
3.01149e-10
-1.41153e-09
3.23159e-10
-1.66884e-09
3.44445e-10
-1.94136e-09
3.64978e-10
-2.22853e-09
3.84732e-10
-2.52976e-09
4.03688e-10
-2.84445e-09
4.21828e-10
-3.17198e-09
4.3914e-10
-3.51174e-09
4.55617e-10
-3.86312e-09
4.7125e-10
-4.22547e-09
4.86037e-10
-4.59818e-09
4.99974e-10
-4.98062e-09
5.13062e-10
-5.37215e-09
5.25303e-10
-5.77216e-09
5.36698e-10
-6.18001e-09
5.47252e-10
-6.59509e-09
5.5697e-10
-7.01679e-09
5.65858e-10
-7.44448e-09
5.73923e-10
-7.87757e-09
5.81173e-10
-8.31545e-09
5.87615e-10
-8.75753e-09
5.9326e-10
-9.20323e-09
5.98115e-10
-9.65197e-09
6.02191e-10
-1.01032e-08
6.05499e-10
-1.05563e-08
6.08049e-10
-1.10107e-08
6.09852e-10
-1.14659e-08
6.10919e-10
-1.19214e-08
6.11263e-10
-1.23767e-08
6.10894e-10
-1.28311e-08
6.09825e-10
-1.32842e-08
6.08069e-10
-1.37356e-08
6.05637e-10
-1.41846e-08
6.02541e-10
-1.46308e-08
5.98796e-10
-1.50738e-08
5.94413e-10
-1.5513e-08
5.89405e-10
-1.5948e-08
5.83785e-10
-1.63785e-08
5.77567e-10
-1.68038e-08
5.70763e-10
-1.72237e-08
5.63387e-10
-1.76376e-08
5.55451e-10
-1.80452e-08
5.46969e-10
-1.84461e-08
5.37955e-10
-1.884e-08
5.28422e-10
-1.92263e-08
5.18383e-10
-1.96048e-08
5.07851e-10
-1.9975e-08
4.96841e-10
-2.03368e-08
4.85365e-10
-2.06896e-08
4.73438e-10
-2.10332e-08
4.61072e-10
-2.13673e-08
4.48282e-10
-2.16916e-08
4.3508e-10
-2.20057e-08
4.21482e-10
-2.23094e-08
4.07501e-10
-2.26024e-08
3.93149e-10
-2.28844e-08
3.78442e-10
-2.31552e-08
3.63393e-10
-2.34146e-08
3.48016e-10
-2.36623e-08
3.32325e-10
-2.3898e-08
3.16335e-10
-2.41216e-08
3.00059e-10
-2.43329e-08
2.83511e-10
-2.45316e-08
2.66706e-10
-2.47177e-08
2.49659e-10
-2.48909e-08
2.32383e-10
-2.5051e-08
2.14893e-10
-2.51979e-08
1.97204e-10
-2.53316e-08
1.79331e-10
-2.54517e-08
1.61287e-10
-2.55583e-08
1.43089e-10
-2.56513e-08
1.24751e-10
-2.57304e-08
1.06288e-10
-2.57958e-08
8.77158e-11
-2.58472e-08
6.9049e-11
-2.58846e-08
5.03033e-11
-2.59081e-08
3.14943e-11
-2.59174e-08
1.26374e-11
-2.59127e-08
-6.25139e-12
-2.58939e-08
-2.51564e-11
-2.5861e-08
-4.40615e-11
-2.58141e-08
-6.29506e-11
-2.57531e-08
-8.18077e-11
-2.5678e-08
-1.00616e-10
-2.5589e-08
-1.1936e-10
-2.54861e-08
-1.38023e-10
-2.53693e-08
-1.56587e-10
-2.52388e-08
-1.75037e-10
-2.50947e-08
-1.93355e-10
-2.4937e-08
-2.11525e-10
-2.47659e-08
-2.29529e-10
-2.45815e-08
-2.47351e-10
-2.4384e-08
-2.64973e-10
-2.41735e-08
-2.82377e-10
-2.39502e-08
-2.99548e-10
-2.37144e-08
-3.16467e-10
-2.34661e-08
-3.33117e-10
-2.32056e-08
-3.4948e-10
-2.29332e-08
-3.65539e-10
-2.2649e-08
-3.81277e-10
-2.23534e-08
-3.96676e-10
-2.20465e-08
-4.11718e-10
-2.17288e-08
-4.26386e-10
-2.14004e-08
-4.40662e-10
-2.10616e-08
-4.5453e-10
-2.07129e-08
-4.67971e-10
-2.03545e-08
-4.80969e-10
-1.99867e-08
-4.93506e-10
-1.961e-08
-5.05564e-10
-1.92246e-08
-5.17128e-10
-1.8831e-08
-5.2818e-10
-1.84296e-08
-5.38703e-10
-1.80208e-08
-5.4868e-10
-1.76049e-08
-5.58096e-10
-1.71825e-08
-5.66934e-10
-1.67539e-08
-5.75178e-10
-1.63197e-08
-5.82812e-10
-1.58802e-08
-5.89821e-10
-1.5436e-08
-5.9619e-10
-1.49876e-08
-6.01903e-10
-1.45353e-08
-6.06946e-10
-1.40799e-08
-6.11305e-10
-1.36217e-08
-6.14965e-10
-1.31613e-08
-6.17914e-10
-1.26993e-08
-6.20137e-10
-1.22362e-08
-6.21623e-10
-1.17725e-08
-6.22359e-10
-1.13088e-08
-6.22334e-10
-1.08458e-08
-6.21535e-10
-1.03839e-08
-6.19952e-10
-9.92379e-09
-6.17576e-10
-9.46604e-09
-6.14396e-10
-9.01126e-09
-6.10405e-10
-8.56006e-09
-6.05593e-10
-8.11305e-09
-5.99953e-10
-7.67086e-09
-5.93479e-10
-7.23411e-09
-5.86164e-10
-6.80342e-09
-5.78004e-10
-6.37943e-09
-5.68995e-10
-5.96277e-09
-5.59133e-10
-5.55408e-09
-5.48417e-10
-5.15398e-09
-5.36846e-10
-4.76311e-09
-5.2442e-10
-4.3821e-09
-5.11142e-10
-4.01159e-09
-4.97013e-10
-3.6522e-09
-4.82041e-10
-3.30454e-09
-4.6623e-10
-2.96923e-09
-4.49591e-10
-2.64687e-09
-4.32135e-10
-2.33806e-09
-4.13874e-10
-2.04337e-09
-3.94827e-10
-1.76337e-09
-3.75012e-10
-1.4986e-09
-3.54453e-10
-1.2496e-09
-3.3318e-10
-1.01686e-09
-3.11223e-10
-8.00841e-10
-2.88623e-10
-6.01988e-10
-2.65425e-10
-4.20691e-10
-2.41682e-10
-2.57294e-10
-2.1746e-10
-1.12086e-10
-1.92831e-10
1.47153e-11
-1.67885e-10
1.22968e-10
-1.42728e-10
2.12627e-10
-1.17486e-10
2.83763e-10
-9.23101e-11
3.36582e-10
-6.73846e-11
3.71458e-10
-4.29314e-11
3.88965e-10
-1.92222e-11
3.89926e-10
3.40758e-12
3.75471e-10
2.45408e-11
3.47102e-10
4.36555e-11
3.06794e-10
6.00966e-11
2.57098e-10
7.30379e-11
2.01275e-10
8.14393e-11
1.43412e-10
8.40236e-11
8.85104e-11
7.93113e-11
4.24046e-11
6.57651e-11
1.12294e-11
4.24062e-11
1.19703e-11
1.99435e-11
-3.27896e-11
6.59863e-11
-8.94743e-11
1.28591e-10
-1.28617e-10
1.9931e-10
-1.49013e-10
2.70471e-10
-1.52668e-10
3.3541e-10
-1.42287e-10
3.8854e-10
-1.20526e-10
4.25293e-10
-8.97437e-11
4.42018e-10
-5.19265e-11
4.35849e-10
-8.7048e-12
4.04581e-10
3.85932e-11
3.4656e-10
8.88903e-11
2.60586e-10
1.41312e-10
1.45839e-10
1.95147e-10
1.81028e-12
2.49813e-10
-1.71745e-10
3.04833e-10
-3.74859e-10
3.59813e-10
-6.07382e-10
4.14427e-10
-8.69014e-10
4.68403e-10
-1.15933e-09
5.21519e-10
-1.47779e-09
5.73586e-10
-1.82379e-09
6.24448e-10
-2.19661e-09
6.73976e-10
-2.59551e-09
7.2206e-10
-3.01968e-09
7.68612e-10
-3.46826e-09
8.13556e-10
-3.94035e-09
8.56832e-10
-4.43506e-09
8.98391e-10
-4.95142e-09
9.38191e-10
-5.48848e-09
9.76203e-10
-6.04526e-09
1.0124e-09
-6.62078e-09
1.04677e-09
-7.21403e-09
1.07929e-09
-7.82402e-09
1.10996e-09
-8.44973e-09
1.13878e-09
-9.09017e-09
1.16574e-09
-9.74432e-09
1.19085e-09
-1.04112e-08
1.21412e-09
-1.10898e-08
1.23555e-09
-1.17791e-08
1.25516e-09
-1.24781e-08
1.27296e-09
-1.31859e-08
1.28897e-09
-1.39015e-08
1.30319e-09
-1.46239e-08
1.31566e-09
-1.53521e-08
1.32639e-09
-1.60854e-08
1.3354e-09
-1.68226e-08
1.34272e-09
-1.75629e-08
1.34836e-09
-1.83054e-08
1.35235e-09
-1.90492e-08
1.35471e-09
-1.97934e-08
1.35548e-09
-2.05372e-08
1.35466e-09
-2.12796e-08
1.3523e-09
-2.202e-08
1.34841e-09
-2.27574e-08
1.34303e-09
-2.3491e-08
1.33618e-09
-2.42201e-08
1.32789e-09
-2.49439e-08
1.31818e-09
-2.56616e-08
1.30709e-09
-2.63724e-08
1.29464e-09
-2.70757e-08
1.28087e-09
-2.77707e-08
1.26579e-09
-2.84568e-08
1.24945e-09
-2.91332e-08
1.23186e-09
-2.97993e-08
1.21306e-09
-3.04544e-08
1.19308e-09
-3.1098e-08
1.17195e-09
-3.17293e-08
1.14969e-09
-3.23478e-08
1.12634e-09
-3.29528e-08
1.10192e-09
-3.35439e-08
1.07648e-09
-3.41205e-08
1.05002e-09
-3.46821e-08
1.0226e-09
-3.5228e-08
9.94231e-10
-3.57579e-08
9.6495e-10
-3.62712e-08
9.34787e-10
-3.67675e-08
9.03772e-10
-3.72462e-08
8.71936e-10
-3.77071e-08
8.39309e-10
-3.81496e-08
8.05923e-10
-3.85734e-08
7.71808e-10
-3.89781e-08
7.36997e-10
-3.93633e-08
7.01519e-10
-3.97286e-08
6.65408e-10
-4.00738e-08
6.28693e-10
-4.03985e-08
5.91408e-10
-4.07024e-08
5.53584e-10
-4.09853e-08
5.15253e-10
-4.12469e-08
4.76448e-10
-4.14869e-08
4.372e-10
-4.17051e-08
3.97543e-10
-4.19013e-08
3.5751e-10
-4.20753e-08
3.17134e-10
-4.2227e-08
2.76448e-10
-4.23562e-08
2.35486e-10
-4.24628e-08
1.94282e-10
-4.25466e-08
1.52869e-10
-4.26076e-08
1.11282e-10
-4.26457e-08
6.95552e-11
-4.26608e-08
2.7724e-11
-4.26528e-08
-1.41769e-11
-4.26219e-08
-5.61123e-11
-4.25679e-08
-9.80465e-11
-4.24909e-08
-1.39944e-10
-4.23909e-08
-1.81768e-10
-4.22681e-08
-2.23484e-10
-4.21224e-08
-2.65053e-10
-4.19539e-08
-3.06441e-10
-4.17629e-08
-3.47609e-10
-4.15494e-08
-3.88521e-10
-4.13137e-08
-4.2914e-10
-4.10558e-08
-4.69426e-10
-4.07759e-08
-5.09344e-10
-4.04744e-08
-5.48855e-10
-4.01515e-08
-5.87921e-10
-3.98074e-08
-6.26503e-10
-3.94423e-08
-6.64564e-10
-3.90567e-08
-7.02064e-10
-3.86509e-08
-7.38966e-10
-3.82252e-08
-7.7523e-10
-3.77799e-08
-8.10818e-10
-3.73155e-08
-8.45691e-10
-3.68323e-08
-8.79811e-10
-3.63309e-08
-9.13138e-10
-3.58117e-08
-9.45634e-10
-3.52751e-08
-9.77261e-10
-3.47216e-08
-1.00798e-09
-3.41518e-08
-1.03775e-09
-3.35663e-08
-1.06654e-09
-3.29655e-08
-1.0943e-09
-3.235e-08
-1.121e-09
-3.17206e-08
-1.14661e-09
-3.10777e-08
-1.17108e-09
-3.0422e-08
-1.19437e-09
-2.97542e-08
-1.21646e-09
-2.9075e-08
-1.2373e-09
-2.83851e-08
-1.25686e-09
-2.76851e-08
-1.27511e-09
-2.6976e-08
-1.292e-09
-2.62583e-08
-1.30751e-09
-2.55329e-08
-1.3216e-09
-2.48005e-08
-1.33424e-09
-2.40621e-08
-1.34539e-09
-2.33184e-08
-1.35503e-09
-2.25702e-08
-1.36313e-09
-2.18185e-08
-1.36965e-09
-2.1064e-08
-1.37457e-09
-2.03078e-08
-1.37786e-09
-1.95507e-08
-1.37949e-09
-1.87936e-08
-1.37944e-09
-1.80374e-08
-1.37768e-09
-1.72832e-08
-1.37419e-09
-1.65318e-08
-1.36895e-09
-1.57843e-08
-1.36193e-09
-1.50415e-08
-1.35313e-09
-1.43046e-08
-1.34252e-09
-1.35745e-08
-1.33008e-09
-1.28522e-08
-1.31581e-09
-1.21386e-08
-1.29969e-09
-1.14349e-08
-1.2817e-09
-1.07421e-08
-1.26185e-09
-1.00611e-08
-1.24013e-09
-9.39295e-09
-1.21654e-09
-8.73873e-09
-1.19107e-09
-8.09943e-09
-1.16372e-09
-7.47606e-09
-1.13451e-09
-6.86962e-09
-1.10345e-09
-6.28113e-09
-1.07054e-09
-5.71155e-09
-1.0358e-09
-5.16188e-09
-9.99266e-10
-4.63306e-09
-9.60953e-10
-4.12604e-09
-9.20898e-10
-3.64172e-09
-8.79142e-10
-3.181e-09
-8.35732e-10
-2.74473e-09
-7.90724e-10
-2.33372e-09
-7.44187e-10
-1.94875e-09
-6.96196e-10
-1.59053e-09
-6.46845e-10
-1.25971e-09
-5.96238e-10
-9.56895e-10
-5.44502e-10
-6.82573e-10
-4.91782e-10
-4.37153e-10
-4.38251e-10
-2.20928e-10
-3.8411e-10
-3.40556e-11
-3.296e-10
1.23462e-10
-2.75004e-10
2.51811e-10
-2.2066e-10
3.51398e-10
-1.66972e-10
4.22894e-10
-1.14427e-10
4.67283e-10
-6.36105e-11
4.85925e-10
-1.52349e-11
4.80634e-10
2.98315e-11
4.53765e-10
7.05257e-11
4.08315e-10
1.05547e-10
3.48042e-10
1.3331e-10
2.77574e-10
1.51905e-10
2.025e-10
1.5909e-10
1.29398e-10
1.52398e-10
6.57445e-11
1.29408e-10
1.9643e-11
8.85225e-11
3.16103e-11
2.43464e-11
-5.71404e-11
7.83438e-11
-1.43474e-10
1.49137e-10
-1.99409e-10
2.26431e-10
-2.26304e-10
3.01299e-10
-2.27535e-10
3.66026e-10
-2.07014e-10
4.14056e-10
-1.68554e-10
4.39912e-10
-1.15598e-10
4.39107e-10
-5.11202e-11
4.08031e-10
2.237e-11
3.43841e-10
1.02781e-10
2.44351e-10
1.88378e-10
1.07937e-10
2.77726e-10
-6.6552e-11
3.69636e-10
-2.79863e-10
4.63125e-10
-5.32405e-10
5.57375e-10
-8.24295e-10
6.51704e-10
-1.15541e-09
7.45542e-10
-1.52542e-09
8.38414e-10
-1.93382e-09
9.29919e-10
-2.37996e-09
1.01972e-09
-2.86305e-09
1.10754e-09
-3.38222e-09
1.19315e-09
-3.9365e-09
1.27633e-09
-4.52482e-09
1.35694e-09
-5.14608e-09
1.43482e-09
-5.79911e-09
1.50986e-09
-6.4827e-09
1.58198e-09
-7.1956e-09
1.65109e-09
-7.93653e-09
1.71713e-09
-8.70419e-09
1.78006e-09
-9.49725e-09
1.83983e-09
-1.03144e-08
1.89643e-09
-1.11543e-08
1.94982e-09
-1.20155e-08
2.00001e-09
-1.28967e-08
2.04699e-09
-1.37966e-08
2.09076e-09
-1.47139e-08
2.13133e-09
-1.5647e-08
2.16871e-09
-1.65948e-08
2.20292e-09
-1.75558e-08
2.23399e-09
-1.85288e-08
2.26193e-09
-1.95123e-08
2.28677e-09
-2.05052e-08
2.30854e-09
-2.15061e-08
2.32728e-09
-2.25137e-08
2.34303e-09
-2.35268e-08
2.3558e-09
-2.45441e-08
2.36565e-09
-2.55644e-08
2.37262e-09
-2.65864e-08
2.37674e-09
-2.7609e-08
2.37807e-09
-2.8631e-08
2.37663e-09
-2.96512e-08
2.37248e-09
-3.06684e-08
2.36566e-09
-3.16816e-08
2.35623e-09
-3.26896e-08
2.34421e-09
-3.36914e-08
2.32968e-09
-3.46859e-08
2.31266e-09
-3.5672e-08
2.29321e-09
-3.66488e-08
2.27139e-09
-3.76151e-08
2.24723e-09
-3.85701e-08
2.2208e-09
-3.95128e-08
2.19213e-09
-4.04422e-08
2.16129e-09
-4.13575e-08
2.12832e-09
-4.22577e-08
2.09327e-09
-4.31419e-08
2.0562e-09
-4.40094e-08
2.01716e-09
-4.48593e-08
1.9762e-09
-4.56907e-08
1.93336e-09
-4.6503e-08
1.88872e-09
-4.72952e-08
1.8423e-09
-4.80668e-08
1.79418e-09
-4.8817e-08
1.74441e-09
-4.95451e-08
1.69303e-09
-5.02504e-08
1.64009e-09
-5.09323e-08
1.58567e-09
-5.15901e-08
1.5298e-09
-5.22234e-08
1.47254e-09
-5.28314e-08
1.41395e-09
-5.34137e-08
1.35407e-09
-5.39696e-08
1.29298e-09
-5.44988e-08
1.23071e-09
-5.50007e-08
1.16733e-09
-5.54749e-08
1.10289e-09
-5.5921e-08
1.03745e-09
-5.63385e-08
9.71066e-10
-5.6727e-08
9.0379e-10
-5.70862e-08
8.35681e-10
-5.74158e-08
7.66797e-10
-5.77155e-08
6.97195e-10
-5.79849e-08
6.26933e-10
-5.82238e-08
5.56069e-10
-5.84321e-08
4.84663e-10
-5.86093e-08
4.12773e-10
-5.87555e-08
3.40459e-10
-5.88704e-08
2.67781e-10
-5.8954e-08
1.94799e-10
-5.9006e-08
1.21574e-10
-5.90264e-08
4.81672e-11
-5.90152e-08
-2.53601e-11
-5.89724e-08
-9.89457e-11
-5.88979e-08
-1.72527e-10
-5.87918e-08
-2.46041e-10
-5.86542e-08
-3.19425e-10
-5.8485e-08
-3.92615e-10
-5.82845e-08
-4.65547e-10
-5.80528e-08
-5.38156e-10
-5.77901e-08
-6.10378e-10
-5.74964e-08
-6.82147e-10
-5.71722e-08
-7.53397e-10
-5.68175e-08
-8.24063e-10
-5.64328e-08
-8.94079e-10
-5.60183e-08
-9.63377e-10
-5.55743e-08
-1.03189e-09
-5.51013e-08
-1.09955e-09
-5.45995e-08
-1.1663e-09
-5.40695e-08
-1.23206e-09
-5.35117e-08
-1.29677e-09
-5.29266e-08
-1.36035e-09
-5.23147e-08
-1.42275e-09
-5.16765e-08
-1.48388e-09
-5.10126e-08
-1.5437e-09
-5.03236e-08
-1.60212e-09
-4.96102e-08
-1.65908e-09
-4.88729e-08
-1.71452e-09
-4.81125e-08
-1.76835e-09
-4.73298e-08
-1.82053e-09
-4.65253e-08
-1.87098e-09
-4.57e-08
-1.91963e-09
-4.48546e-08
-1.96642e-09
-4.39899e-08
-2.01128e-09
-4.31068e-08
-2.05415e-09
-4.22062e-08
-2.09496e-09
-4.1289e-08
-2.13366e-09
-4.03562e-08
-2.17017e-09
-3.94086e-08
-2.20443e-09
-3.84473e-08
-2.23638e-09
-3.74734e-08
-2.26597e-09
-3.64877e-08
-2.29314e-09
-3.54915e-08
-2.31781e-09
-3.44858e-08
-2.33995e-09
-3.34717e-08
-2.35949e-09
-3.24504e-08
-2.37638e-09
-3.14229e-08
-2.39056e-09
-3.03906e-08
-2.40199e-09
-2.93545e-08
-2.41062e-09
-2.8316e-08
-2.41639e-09
-2.72762e-08
-2.41926e-09
-2.62365e-08
-2.4192e-09
-2.5198e-08
-2.41615e-09
-2.41621e-08
-2.41008e-09
-2.31301e-08
-2.40095e-09
-2.21033e-08
-2.38872e-09
-2.10831e-08
-2.37337e-09
-2.00707e-08
-2.35487e-09
-1.90676e-08
-2.33319e-09
-1.80751e-08
-2.30831e-09
-1.70946e-08
-2.2802e-09
-1.61275e-08
-2.24886e-09
-1.5175e-08
-2.21427e-09
-1.42388e-08
-2.17643e-09
-1.332e-08
-2.13533e-09
-1.24201e-08
-2.09097e-09
-1.15404e-08
-2.04337e-09
-1.06824e-08
-1.99254e-09
-9.84735e-09
-1.93849e-09
-9.03663e-09
-1.88125e-09
-8.25157e-09
-1.82087e-09
-7.49347e-09
-1.75737e-09
-6.7636e-09
-1.69082e-09
-6.06322e-09
-1.62128e-09
-5.39354e-09
-1.54882e-09
-4.75573e-09
-1.47354e-09
-4.15092e-09
-1.39554e-09
-3.58017e-09
-1.31493e-09
-3.04449e-09
-1.23187e-09
-2.54481e-09
-1.14653e-09
-2.08197e-09
-1.05908e-09
-1.6567e-09
-9.69772e-10
-1.26963e-09
-8.78855e-10
-9.21238e-10
-7.8664e-10
-6.1186e-10
-6.93487e-10
-3.41639e-10
-5.9982e-10
-1.10507e-10
-5.06136e-10
8.18564e-11
-4.13024e-10
2.36063e-10
-3.21179e-10
3.5307e-10
-2.31432e-10
4.34232e-10
-1.44772e-10
4.8138e-10
-6.23833e-11
4.96894e-10
1.43146e-11
4.838e-10
8.36164e-11
4.45867e-10
1.43479e-10
3.87708e-10
1.91474e-10
3.14874e-10
2.24747e-10
2.33932e-10
2.40041e-10
1.52512e-10
2.33819e-10
7.93412e-11
2.02566e-10
2.44003e-11
1.43467e-10
5.60126e-11
2.57045e-11
-8.28482e-11
8.17205e-11
-1.99493e-10
1.53114e-10
-2.70801e-10
2.28165e-10
-3.01351e-10
2.9699e-10
-2.96356e-10
3.51135e-10
-2.61158e-10
3.83394e-10
-2.00815e-10
3.8769e-10
-1.19893e-10
3.5896e-10
-2.23894e-11
2.93063e-10
8.82668e-11
1.86677e-10
2.09165e-10
3.72007e-11
3.37852e-10
-1.5734e-10
4.72265e-10
-3.98378e-10
6.10673e-10
-6.86874e-10
7.51623e-10
-1.02339e-09
8.93892e-10
-1.40814e-09
1.03646e-09
-1.84104e-09
1.17845e-09
-2.32176e-09
1.31913e-09
-2.84974e-09
1.4579e-09
-3.42423e-09
1.59422e-09
-4.04435e-09
1.72766e-09
-4.70904e-09
1.85784e-09
-5.41715e-09
1.98445e-09
-6.16743e-09
2.10722e-09
-6.95854e-09
2.22593e-09
-7.78908e-09
2.3404e-09
-8.65756e-09
2.45046e-09
-9.56247e-09
2.556e-09
-1.05022e-08
2.65691e-09
-1.14753e-08
2.7531e-09
-1.248e-08
2.84452e-09
-1.35147e-08
2.93112e-09
-1.45777e-08
3.01285e-09
-1.56674e-08
3.0897e-09
-1.67821e-08
3.16166e-09
-1.792e-08
3.22873e-09
-1.90796e-08
3.29092e-09
-2.02591e-08
3.34823e-09
-2.14569e-08
3.4007e-09
-2.26713e-08
3.44835e-09
-2.39005e-08
3.49121e-09
-2.51431e-08
3.52933e-09
-2.63973e-08
3.56274e-09
-2.76615e-08
3.5915e-09
-2.89341e-08
3.61565e-09
-3.02136e-08
3.63526e-09
-3.14983e-08
3.65037e-09
-3.27867e-08
3.66104e-09
-3.40773e-08
3.66734e-09
-3.53686e-08
3.66933e-09
-3.6659e-08
3.66708e-09
-3.79472e-08
3.66065e-09
-3.92316e-08
3.65011e-09
-4.05109e-08
3.63553e-09
-4.17837e-08
3.61699e-09
-4.30486e-08
3.59456e-09
-4.43042e-08
3.56831e-09
-4.55493e-08
3.53831e-09
-4.67826e-08
3.50464e-09
-4.80027e-08
3.46737e-09
-4.92085e-08
3.4266e-09
-5.03988e-08
3.38238e-09
-5.15723e-08
3.33479e-09
-5.27279e-08
3.28393e-09
-5.38645e-08
3.22986e-09
-5.49809e-08
3.17267e-09
-5.60762e-08
3.11243e-09
-5.71492e-08
3.04922e-09
-5.8199e-08
2.98313e-09
-5.92245e-08
2.91424e-09
-6.02248e-08
2.84262e-09
-6.1199e-08
2.76837e-09
-6.21462e-08
2.69155e-09
-6.30654e-08
2.61226e-09
-6.39559e-08
2.53057e-09
-6.48168e-08
2.44657e-09
-6.56473e-08
2.36035e-09
-6.64468e-08
2.27198e-09
-6.72144e-08
2.18155e-09
-6.79494e-08
2.08914e-09
-6.86513e-08
1.99484e-09
-6.93193e-08
1.89874e-09
-6.99529e-08
1.80092e-09
-7.05515e-08
1.70146e-09
-7.11145e-08
1.60046e-09
-7.16414e-08
1.49799e-09
-7.21318e-08
1.39415e-09
-7.25851e-08
1.28903e-09
-7.30011e-08
1.18271e-09
-7.33791e-08
1.07529e-09
-7.37191e-08
9.66846e-10
-7.40205e-08
8.57476e-10
-7.42831e-08
7.4727e-10
-7.45066e-08
6.36319e-10
-7.46909e-08
5.24715e-10
-7.48356e-08
4.12552e-10
-7.49408e-08
2.99922e-10
-7.50061e-08
1.86919e-10
-7.50316e-08
7.36384e-11
-7.50171e-08
-3.9825e-11
-7.49627e-08
-1.53375e-10
-7.48683e-08
-2.66916e-10
-7.4734e-08
-3.80349e-10
-7.45598e-08
-4.93578e-10
-7.43459e-08
-6.06504e-10
-7.40925e-08
-7.19028e-10
-7.37996e-08
-8.3105e-10
-7.34675e-08
-9.42471e-10
-7.30964e-08
-1.05319e-09
-7.26867e-08
-1.1631e-09
-7.22387e-08
-1.27211e-09
-7.17527e-08
-1.38011e-09
-7.1229e-08
-1.487e-09
-7.06682e-08
-1.59267e-09
-7.00708e-08
-1.69703e-09
-6.94371e-08
-1.79997e-09
-6.87678e-08
-1.90138e-09
-6.80634e-08
-2.00116e-09
-6.73245e-08
-2.09921e-09
-6.65518e-08
-2.19543e-09
-6.5746e-08
-2.28969e-09
-6.49078e-08
-2.38192e-09
-6.40379e-08
-2.47199e-09
-6.31372e-08
-2.5598e-09
-6.22065e-08
-2.64526e-09
-6.12466e-08
-2.72825e-09
-6.02584e-08
-2.80868e-09
-5.9243e-08
-2.88644e-09
-5.82012e-08
-2.96142e-09
-5.71341e-08
-3.03353e-09
-5.60427e-08
-3.10267e-09
-5.49281e-08
-3.16874e-09
-5.37914e-08
-3.23164e-09
-5.26338e-08
-3.29126e-09
-5.14565e-08
-3.34752e-09
-5.02606e-08
-3.40032e-09
-4.90474e-08
-3.44956e-09
-4.78182e-08
-3.49515e-09
-4.65744e-08
-3.53701e-09
-4.53171e-08
-3.57503e-09
-4.40479e-08
-3.60915e-09
-4.27682e-08
-3.63926e-09
-4.14792e-08
-3.6653e-09
-4.01826e-08
-3.68717e-09
-3.88798e-08
-3.70481e-09
-3.75723e-08
-3.71813e-09
-3.62616e-08
-3.72706e-09
-3.49493e-08
-3.73154e-09
-3.3637e-08
-3.7315e-09
-3.23263e-08
-3.72688e-09
-3.10188e-08
-3.71761e-09
-2.97161e-08
-3.70364e-09
-2.84199e-08
-3.68493e-09
-2.71318e-08
-3.66142e-09
-2.58536e-08
-3.63307e-09
-2.4587e-08
-3.59985e-09
-2.33336e-08
-3.56172e-09
-2.20951e-08
-3.51866e-09
-2.08733e-08
-3.47064e-09
-1.96699e-08
-3.41765e-09
-1.84867e-08
-3.35969e-09
-1.73253e-08
-3.29675e-09
-1.61874e-08
-3.22884e-09
-1.50748e-08
-3.15597e-09
-1.39891e-08
-3.07818e-09
-1.29321e-08
-2.99549e-09
-1.19054e-08
-2.90796e-09
-1.09107e-08
-2.81564e-09
-9.94942e-09
-2.7186e-09
-9.0233e-09
-2.61694e-09
-8.13382e-09
-2.51076e-09
-7.28248e-09
-2.40017e-09
-6.47068e-09
-2.28533e-09
-5.69981e-09
-2.16641e-09
-4.97115e-09
-2.0436e-09
-4.28589e-09
-1.91713e-09
-3.64516e-09
-1.78726e-09
-3.04993e-09
-1.65431e-09
-2.50107e-09
-1.51863e-09
-1.9993e-09
-1.38063e-09
-1.54515e-09
-1.24079e-09
-1.13897e-09
-1.09967e-09
-7.80872e-10
-9.57919e-10
-4.70707e-10
-8.16302e-10
-2.08024e-10
-6.75708e-10
7.98002e-12
-5.37184e-10
1.78514e-10
-4.01966e-10
3.05252e-10
-2.71509e-10
3.90406e-10
-1.47536e-10
4.36804e-10
-3.20844e-11
4.47975e-10
7.2441e-11
4.28243e-10
1.63206e-10
3.82815e-10
2.36899e-10
3.17864e-10
2.89698e-10
2.40626e-10
3.17286e-10
1.59497e-10
3.14956e-10
8.41957e-11
2.77864e-10
2.61867e-11
2.01475e-10
8.22017e-11
2.47783e-11
-1.07626e-10
7.78215e-11
-2.52536e-10
1.43245e-10
-3.36224e-10
2.08453e-10
-3.66556e-10
2.62916e-10
-3.50815e-10
2.97684e-10
-2.95923e-10
3.05127e-10
-2.08258e-10
2.78772e-10
-9.35404e-11
2.13182e-10
4.31994e-11
1.03854e-10
1.97594e-10
-5.28728e-11
3.65892e-10
-2.59908e-10
5.44886e-10
-5.19493e-10
7.31849e-10
-8.33283e-10
9.24463e-10
-1.20242e-09
1.12076e-09
-1.6276e-09
1.31907e-09
-2.10911e-09
1.51797e-09
-2.64693e-09
1.71626e-09
-3.24072e-09
1.91292e-09
-3.88988e-09
2.10706e-09
-4.59362e-09
2.29795e-09
-5.35092e-09
2.48496e-09
-6.16063e-09
2.66754e-09
-7.02143e-09
2.84525e-09
-7.93189e-09
3.01768e-09
-8.89049e-09
3.18453e-09
-9.89559e-09
3.3455e-09
-1.09455e-08
3.50037e-09
-1.20384e-08
3.64895e-09
-1.31726e-08
3.79108e-09
-1.43461e-08
3.92664e-09
-1.55571e-08
4.05551e-09
-1.68037e-08
4.17764e-09
-1.80838e-08
4.29295e-09
-1.93955e-08
4.40142e-09
-2.07368e-08
4.50301e-09
-2.21058e-08
4.59773e-09
-2.35005e-08
4.68557e-09
-2.49188e-08
4.76654e-09
-2.63588e-08
4.84069e-09
-2.78185e-08
4.90803e-09
-2.92959e-08
4.96862e-09
-3.07891e-08
5.0225e-09
-3.2296e-08
5.06974e-09
-3.38149e-08
5.11039e-09
-3.53438e-08
5.14453e-09
-3.68808e-08
5.17222e-09
-3.8424e-08
5.19354e-09
-3.99715e-08
5.20859e-09
-4.15216e-08
5.21743e-09
-4.30724e-08
5.22016e-09
-4.46222e-08
5.21687e-09
-4.61692e-08
5.20766e-09
-4.77117e-08
5.19262e-09
-4.9248e-08
5.17184e-09
-5.07765e-08
5.14543e-09
-5.22954e-08
5.11349e-09
-5.38032e-08
5.07612e-09
-5.52984e-08
5.03343e-09
-5.67792e-08
4.98553e-09
-5.82444e-08
4.93251e-09
-5.96923e-08
4.8745e-09
-6.11215e-08
4.81159e-09
-6.25306e-08
4.7439e-09
-6.39182e-08
4.67154e-09
-6.5283e-08
4.59462e-09
-6.66236e-08
4.51326e-09
-6.79387e-08
4.42756e-09
-6.92271e-08
4.33764e-09
-7.04876e-08
4.24362e-09
-7.1719e-08
4.1456e-09
-7.29201e-08
4.04371e-09
-7.40898e-08
3.93806e-09
-7.5227e-08
3.82877e-09
-7.63307e-08
3.71595e-09
-7.73999e-08
3.59973e-09
-7.84335e-08
3.48021e-09
-7.94307e-08
3.35752e-09
-8.03905e-08
3.23178e-09
-8.1312e-08
3.10311e-09
-8.21945e-08
2.97162e-09
-8.30371e-08
2.83744e-09
-8.38391e-08
2.7007e-09
-8.45997e-08
2.5615e-09
-8.53182e-08
2.41998e-09
-8.5994e-08
2.27626e-09
-8.66264e-08
2.13045e-09
-8.7215e-08
1.9827e-09
-8.77591e-08
1.83312e-09
-8.82582e-08
1.68184e-09
-8.87119e-08
1.52898e-09
-8.91197e-08
1.37468e-09
-8.94813e-08
1.21906e-09
-8.97963e-08
1.06225e-09
-9.00644e-08
9.0439e-10
-9.02852e-08
7.456e-10
-9.04587e-08
5.86016e-10
-9.05846e-08
4.25772e-10
-9.06626e-08
2.65001e-10
-9.06928e-08
1.03838e-10
-9.06751e-08
-5.75808e-11
-9.06093e-08
-2.19119e-10
-9.04956e-08
-3.8064e-10
-9.0334e-08
-5.42003e-10
-9.01245e-08
-7.03071e-10
-8.98673e-08
-8.63703e-10
-8.95625e-08
-1.02376e-09
-8.92105e-08
-1.18309e-09
-8.88114e-08
-1.34157e-09
-8.83655e-08
-1.49904e-09
-8.78733e-08
-1.65536e-09
-8.7335e-08
-1.81039e-09
-8.67511e-08
-1.96397e-09
-8.61222e-08
-2.11598e-09
-8.54486e-08
-2.26625e-09
-8.4731e-08
-2.41464e-09
-8.39699e-08
-2.561e-09
-8.31661e-08
-2.7052e-09
-8.23202e-08
-2.84707e-09
-8.1433e-08
-2.98647e-09
-8.05052e-08
-3.12325e-09
-7.95376e-08
-3.25726e-09
-7.85311e-08
-3.38836e-09
-7.74867e-08
-3.51639e-09
-7.64053e-08
-3.64122e-09
-7.52879e-08
-3.76268e-09
-7.41355e-08
-3.88064e-09
-7.29492e-08
-3.99495e-09
-7.17302e-08
-4.10546e-09
-7.04796e-08
-4.21203e-09
-6.91986e-08
-4.31451e-09
-6.78886e-08
-4.41276e-09
-6.65507e-08
-4.50665e-09
-6.51863e-08
-4.59602e-09
-6.37968e-08
-4.68075e-09
-6.23836e-08
-4.76069e-09
-6.09482e-08
-4.83572e-09
-5.94921e-08
-4.90569e-09
-5.80167e-08
-4.97048e-09
-5.65238e-08
-5.02997e-09
-5.50148e-08
-5.08402e-09
-5.34914e-08
-5.13251e-09
-5.19554e-08
-5.17533e-09
-5.04083e-08
-5.21236e-09
-4.8852e-08
-5.24349e-09
-4.72882e-08
-5.2686e-09
-4.57187e-08
-5.28759e-09
-4.41454e-08
-5.30037e-09
-4.25701e-08
-5.30683e-09
-4.09947e-08
-5.30689e-09
-3.94212e-08
-5.30045e-09
-3.78513e-08
-5.28744e-09
-3.62872e-08
-5.26778e-09
-3.47307e-08
-5.24139e-09
-3.31839e-08
-5.20823e-09
-3.16488e-08
-5.16822e-09
-3.01273e-08
-5.12132e-09
-2.86216e-08
-5.06749e-09
-2.71335e-08
-5.00669e-09
-2.56653e-08
-4.93889e-09
-2.42188e-08
-4.86409e-09
-2.27963e-08
-4.78226e-09
-2.13996e-08
-4.69343e-09
-2.00308e-08
-4.5976e-09
-1.8692e-08
-4.49479e-09
-1.73851e-08
-4.38506e-09
-1.61122e-08
-4.26846e-09
-1.48751e-08
-4.14506e-09
-1.36758e-08