/*--------------------------------*- C++ -*----------------------------------*\
  =========                 |
  \\      /  F ield         | OpenFOAM: The Open Source CFD Toolbox
   \\    /   O peration     | Website:  https://openfoam.org
    \\  /    A nd           | Version:  7
     \\/     M anipulation  |
\*---------------------------------------------------------------------------*/
FoamFile
{
    version     2.0;
    format      ascii;
    class       volScalarField;
    location    "139";
    object      p;
}
// * * * * * * * * * * * * * * * * * * * * * * * * * * * * * * * * * * * * * //

dimensions      [0 2 -2 0 0 0 0];

internalField   nonuniform List<scalar> 
15200
(
-0.693217
-0.606116
-0.424994
-0.39218
-0.319826
-0.354246
-0.285847
-0.236181
-0.201472
-0.18347
-0.197466
-0.211539
-0.193558
-0.156994
-0.150573
-0.7121
-0.625653
-0.419755
-0.381376
-0.293282
-0.328854
-0.27376
-0.234129
-0.203488
-0.193401
-0.209364
-0.213209
-0.186952
-0.152005
-0.154622
-0.730253
-0.644784
-0.413586
-0.369001
-0.267955
-0.300255
-0.259717
-0.228505
-0.203146
-0.201905
-0.222852
-0.212518
-0.175789
-0.139114
-0.14658
-0.747542
-0.663642
-0.406858
-0.355743
-0.245485
-0.271151
-0.244597
-0.219206
-0.197241
-0.203939
-0.227495
-0.20697
-0.160375
-0.120691
-0.127134
-0.763841
-0.682364
-0.399837
-0.341688
-0.226598
-0.243787
-0.228937
-0.205978
-0.183196
-0.198636
-0.223257
-0.195959
-0.142124
-0.100144
-0.0997127
-0.779035
-0.70106
-0.392714
-0.326683
-0.21088
-0.218659
-0.212631
-0.188454
-0.161677
-0.189256
-0.212282
-0.180472
-0.123402
-0.0810999
-0.0702374
-0.792999
-0.71978
-0.38568
-0.310833
-0.196933
-0.19566
-0.194594
-0.166469
-0.135642
-0.178303
-0.196664
-0.161607
-0.106089
-0.0659053
-0.0458929
-0.805591
-0.738463
-0.378981
-0.294658
-0.182671
-0.173752
-0.17233
-0.139639
-0.10716
-0.16463
-0.177184
-0.140659
-0.090564
-0.0538483
-0.0307159
-0.81663
-0.75686
-0.372906
-0.278907
-0.166292
-0.150113
-0.141943
-0.106746
-0.0787689
-0.146329
-0.154892
-0.119618
-0.0769911
-0.0436826
-0.0223502
-0.825884
-0.774441
-0.367765
-0.264369
-0.147811
-0.121454
-0.101465
-0.0672178
-0.0551837
-0.124617
-0.13152
-0.100109
-0.0657227
-0.0357795
-0.0174849
-0.833065
-0.790308
-0.363852
-0.251687
-0.129367
-0.0878768
-0.0523613
-0.0256028
-0.0390235
-0.102019
-0.10887
-0.0830153
-0.0561692
-0.0305038
-0.0143453
-0.837845
-0.803139
-0.361403
-0.241071
-0.114148
-0.0560629
-0.0121816
0.0077252
-0.0281017
-0.0809649
-0.0884814
-0.0688621
-0.0481196
-0.0271113
-0.0127109
-0.839906
-0.811264
-0.360532
-0.232274
-0.104249
-0.0343215
0.0134619
0.0259073
-0.0196697
-0.0629495
-0.0714185
-0.057655
-0.0417254
-0.0248794
-0.0120025
-0.839044
-0.812915
-0.361188
-0.224992
-0.099541
-0.0241792
0.024097
0.0309996
-0.0131821
-0.048794
-0.0580968
-0.049041
-0.0367748
-0.0234509
-0.0118792
-0.835308
-0.806665
-0.363177
-0.219107
-0.0989541
-0.0224034
0.0241684
0.0284989
-0.00917488
-0.0387648
-0.0482398
-0.0425702
-0.0329822
-0.0224753
-0.0121603
-0.829148
-0.791922
-0.366221
-0.214565
-0.101318
-0.0251115
0.0185792
0.022355
-0.00786203
-0.0323418
-0.041188
-0.0378001
-0.0301207
-0.021772
-0.0126279
-0.821452
-0.769245
-0.369998
-0.211242
-0.105688
-0.0303148
0.0101149
0.0145801
-0.00875441
-0.0286011
-0.0363163
-0.0343572
-0.0279543
-0.0213009
-0.013028
-0.813438
-0.740293
-0.374162
-0.208946
-0.111345
-0.0369909
0.000252006
0.00617985
-0.0111378
-0.0267627
-0.0331393
-0.0319194
-0.0263937
-0.0209888
-0.0130293
-0.806391
-0.707398
-0.378334
-0.207554
-0.117734
-0.0444647
-0.0100814
-0.00231872
-0.0144642
-0.0262772
-0.0312611
-0.0302387
-0.0254464
-0.0207189
-0.0126922
-0.801391
-0.672979
-0.382128
-0.206993
-0.124472
-0.0522628
-0.0203102
-0.0106079
-0.0183403
-0.0267485
-0.0303454
-0.0291768
-0.0250191
-0.0204003
-0.0129161
-0.799163
-0.639061
-0.385259
-0.207135
-0.131293
-0.0600625
-0.0301084
-0.0185082
-0.0224886
-0.0278886
-0.0301257
-0.0286459
-0.0248979
-0.0202374
-0.0145062
-0.800046
-0.60707
-0.387669
-0.207713
-0.138001
-0.0676332
-0.0393007
-0.025914
-0.0267151
-0.0294788
-0.0304093
-0.0285323
-0.0249665
-0.0205334
-0.0161157
-0.804067
-0.577784
-0.3894
-0.208495
-0.144453
-0.0748119
-0.0478033
-0.0327666
-0.0308839
-0.0313514
-0.0310486
-0.0287269
-0.0252218
-0.0210249
-0.0171547
-0.811053
-0.551366
-0.390618
-0.209314
-0.15054
-0.0814864
-0.0555829
-0.0390381
-0.0349001
-0.0333766
-0.0319289
-0.0291479
-0.0255843
-0.0215891
-0.0180306
-0.820705
-0.527741
-0.391449
-0.210053
-0.156183
-0.0875847
-0.0626363
-0.0447182
-0.0386988
-0.0354529
-0.0329638
-0.0297079
-0.0260336
-0.0221703
-0.0186755
-0.832642
-0.506741
-0.391963
-0.210629
-0.161324
-0.0930652
-0.0689783
-0.0498076
-0.0422355
-0.0375033
-0.0340774
-0.0303542
-0.0265247
-0.0227112
-0.019261
-0.846431
-0.48815
-0.392188
-0.210981
-0.165923
-0.0979063
-0.0746301
-0.0543165
-0.0454803
-0.0394677
-0.0352122
-0.0310322
-0.0270327
-0.023218
-0.0197531
-0.861609
-0.47172
-0.392129
-0.21106
-0.169953
-0.102101
-0.0796152
-0.0582608
-0.0484141
-0.0413016
-0.0363168
-0.0317076
-0.0275287
-0.0236742
-0.0201863
-0.8777
-0.457187
-0.391773
-0.210825
-0.173399
-0.10565
-0.0839577
-0.0616592
-0.0510255
-0.0429707
-0.0373532
-0.0323463
-0.0279946
-0.0240721
-0.020552
-0.894226
-0.444277
-0.391095
-0.21024
-0.176253
-0.108563
-0.0876818
-0.0645319
-0.053309
-0.0444499
-0.038289
-0.032925
-0.0284077
-0.0244104
-0.0208478
-0.91072
-0.432716
-0.390067
-0.209267
-0.178517
-0.110849
-0.0908117
-0.0668985
-0.0552628
-0.0457198
-0.0391004
-0.033422
-0.0287576
-0.0246723
-0.0210735
-0.926729
-0.422229
-0.388659
-0.207866
-0.180203
-0.112516
-0.0933745
-0.0687772
-0.0568874
-0.0467663
-0.0397682
-0.033822
-0.0290267
-0.0248603
-0.0212199
-0.941828
-0.412544
-0.386844
-0.205995
-0.181333
-0.113568
-0.0954
-0.0701848
-0.058185
-0.0475799
-0.0402786
-0.034111
-0.0292086
-0.0249593
-0.0212907
-0.955617
-0.403397
-0.384602
-0.203617
-0.18192
-0.114019
-0.0969127
-0.0711391
-0.0591584
-0.0481545
-0.0406219
-0.0342789
-0.0292895
-0.0249733
-0.0212824
-0.967729
-0.39454
-0.381904
-0.200712
-0.181959
-0.113893
-0.0979198
-0.0716622
-0.0598108
-0.0484853
-0.0407906
-0.0343159
-0.0292632
-0.0248933
-0.0212007
-0.977834
-0.385748
-0.378706
-0.197267
-0.181437
-0.113228
-0.098425
-0.0717788
-0.0601479
-0.0485699
-0.0407806
-0.0342144
-0.0291191
-0.0247208
-0.0210424
-0.985638
-0.376823
-0.374955
-0.193238
-0.180392
-0.112018
-0.0984778
-0.0714914
-0.060183
-0.0484073
-0.0405911
-0.0339668
-0.0288535
-0.0244486
-0.0208061
-0.990889
-0.367542
-0.370654
-0.188472
-0.179013
-0.110132
-0.0982237
-0.0707413
-0.0599552
-0.0479893
-0.0402264
-0.0335653
-0.028467
-0.0240727
-0.0204778
-0.993375
-0.357584
-0.365966
-0.182673
-0.177639
-0.107318
-0.0978838
-0.0694097
-0.0595433
-0.0472909
-0.039694
-0.0330031
-0.027969
-0.0235829
-0.0200406
-0.992915
-0.346498
-0.361267
-0.175545
-0.17653
-0.103411
-0.0975888
-0.067437
-0.0590074
-0.0462962
-0.0389966
-0.0322804
-0.0273657
-0.0229708
-0.0194848
-0.989354
-0.333875
-0.356925
-0.167173
-0.175433
-0.0987164
-0.0970836
-0.0650392
-0.0582272
-0.0450825
-0.0381016
-0.03142
-0.0266397
-0.0222389
-0.0188306
-0.982567
-0.319816
-0.352715
-0.158354
-0.173354
-0.0941467
-0.0956188
-0.0627695
-0.0568363
-0.0438611
-0.0369233
-0.0304717
-0.0257409
-0.021417
-0.0180915
-0.972511
-0.305248
-0.34731
-0.149783
-0.169751
-0.0900368
-0.0931214
-0.0606806
-0.0548914
-0.0425703
-0.0355387
-0.0293883
-0.0246982
-0.0204932
-0.0172775
-0.959303
-0.290526
-0.339582
-0.141935
-0.164713
-0.0862809
-0.0897339
-0.058659
-0.0525324
-0.0411141
-0.0340101
-0.0281469
-0.0235284
-0.0194645
-0.0163762
-0.943216
-0.275347
-0.329685
-0.134589
-0.158447
-0.0827012
-0.0856449
-0.0565643
-0.0498958
-0.0394234
-0.0323637
-0.0267489
-0.0222407
-0.0183315
-0.0153802
-0.924425
-0.25948
-0.317888
-0.127511
-0.151162
-0.0791273
-0.0810238
-0.054283
-0.0470793
-0.0374741
-0.0305957
-0.0252088
-0.0208438
-0.0170999
-0.0142918
-0.902468
-0.243176
-0.304446
-0.120496
-0.143047
-0.0754206
-0.0760136
-0.0517356
-0.0441396
-0.0352766
-0.0286934
-0.0235413
-0.019347
-0.0157825
-0.0131241
-0.876191
-0.227141
-0.289574
-0.113393
-0.134264
-0.0714769
-0.0707242
-0.0488775
-0.0410958
-0.0328626
-0.026649
-0.0217564
-0.017758
-0.0143885
-0.0118904
-0.845744
-0.211224
-0.273453
-0.106077
-0.124949
-0.0672222
-0.065237
-0.0456937
-0.0379455
-0.0302684
-0.0244653
-0.0198609
-0.0160796
-0.0129174
-0.0105925
-0.81152
-0.195166
-0.256253
-0.0984564
-0.115221
-0.0626106
-0.0596084
-0.0421922
-0.0346782
-0.0275252
-0.0221525
-0.0178612
-0.0143127
-0.0113615
-0.00922184
-0.773889
-0.178764
-0.238127
-0.0904642
-0.105174
-0.0576197
-0.0538744
-0.0383972
-0.0312853
-0.0246549
-0.0197243
-0.0157657
-0.0124634
-0.00972299
-0.00777131
-0.733185
-0.161889
-0.219222
-0.0820555
-0.0948903
-0.0522465
-0.0480564
-0.0343429
-0.0277638
-0.021672
-0.0171932
-0.0135843
-0.0105465
-0.00802352
-0.00625213
-0.68973
-0.14446
-0.199672
-0.0732057
-0.0844345
-0.0465039
-0.0421657
-0.0300667
-0.0241169
-0.0185866
-0.0145698
-0.0113265
-0.00857847
-0.00629426
-0.00470129
-0.643844
-0.126438
-0.179604
-0.0639084
-0.073861
-0.0404166
-0.0362081
-0.0256061
-0.020353
-0.0154075
-0.0118639
-0.00900089
-0.00656684
-0.00455253
-0.00317186
-0.595845
-0.107809
-0.159137
-0.0541726
-0.0632145
-0.034018
-0.0301883
-0.0209955
-0.0164843
-0.0121447
-0.00908709
-0.00661712
-0.00451237
-0.00279582
-0.00170418
-0.546056
-0.0885878
-0.138384
-0.0440214
-0.0525327
-0.0273476
-0.0241116
-0.0162656
-0.0125249
-0.0088094
-0.00625246
-0.00418705
-0.00242213
-0.00103015
-0.000303576
-0.4948
-0.0688071
-0.117451
-0.0334894
-0.0418481
-0.0204482
-0.0179862
-0.0114431
-0.0084908
-0.00541423
-0.0033711
-0.00171917
-0.00031171
0.000706257
0.00103615
-0.442403
-0.0485186
-0.0964385
-0.022621
-0.0311897
-0.0133646
-0.0118231
-0.00655243
-0.00439877
-0.00197284
-0.000451685
0.000784672
0.00181112
0.00238727
0.00234948
-0.38919
-0.0277895
-0.075441
-0.0114683
-0.0205848
-0.00614195
-0.00563656
-0.00161552
-0.000266549
0.00149997
0.0024961
0.00331978
0.00394998
0.00407077
0.00378576
-0.335484
-0.00670022
-0.0545495
-8.97047e-05
-0.0100595
0.00117534
0.000556561
0.00334667
0.00388809
0.00498951
0.00545959
0.00586818
0.0060961
0.00584983
0.00563866
-0.281606
0.0146579
-0.0338507
0.0114523
0.000359531
0.00854416
0.0067373
0.00831389
0.00804773
0.00848234
0.00842667
0.00840938
0.00822915
0.00772129
0.0080595
-0.227872
0.036184
-0.0134273
0.023092
0.0106453
0.0159232
0.0128851
0.0132662
0.0121952
0.0119653
0.011387
0.0109386
0.0103673
0.00970411
0.010383
-0.174592
0.0577693
0.00664096
0.034762
0.0207697
0.0232728
0.0189782
0.0181838
0.0163137
0.0154242
0.0143283
0.013458
0.0125501
0.0117825
0.0124433
-0.122066
0.0792991
0.0262778
0.046394
0.0307037
0.0305556
0.0249944
0.0230473
0.0203873
0.018846
0.0172385
0.0159563
0.014747
0.0138651
0.014357
-0.0705888
0.100654
0.0454096
0.0579202
0.0404172
0.0377359
0.030911
0.0278375
0.0244005
0.0222195
0.0201129
0.018438
0.016948
0.0159034
0.0161425
-0.02044
0.121713
0.0639657
0.0692739
0.0498797
0.0447799
0.0367056
0.0325356
0.0283377
0.0255312
0.0229401
0.0208914
0.0191336
0.0178968
0.0178604
0.028111
0.142351
0.0818785
0.0803902
0.0590602
0.0516558
0.0423561
0.0371238
0.0321848
0.0287702
0.0257107
0.0233033
0.02128
0.0198297
0.0195134
0.0748091
0.162446
0.099083
0.0912068
0.0679276
0.0583331
0.0478412
0.0415844
0.035928
0.031926
0.0284169
0.0256655
0.0233792
0.0217058
0.0211109
0.119415
0.181875
0.115517
0.101664
0.0764515
0.0647835
0.0531402
0.0459007
0.0395537
0.034987
0.0310475
0.0279659
0.0254201
0.0235202
0.0226493
0.161704
0.200519
0.131123
0.111705
0.0846019
0.0709799
0.0582335
0.0500569
0.0430493
0.0379429
0.033593
0.030194
0.0273944
0.0252704
0.0241277
0.201471
0.218264
0.145845
0.121279
0.0923504
0.0768973
0.0631025
0.0540382
0.046403
0.0407841
0.0360446
0.032342
0.0292961
0.026952
0.0255422
0.238527
0.235
0.159631
0.130335
0.0996697
0.0825125
0.0677299
0.0578303
0.0496032
0.0435004
0.0383928
0.0344009
0.031118
0.0285607
0.026891
0.272703
0.250622
0.172435
0.13883
0.106534
0.0878038
0.0720996
0.0614205
0.0526397
0.0460833
0.0406301
0.0363639
0.0328547
0.0300924
0.0281713
0.303853
0.265036
0.184213
0.146724
0.112921
0.0927517
0.0761969
0.0647966
0.0555025
0.0485243
0.0427485
0.038224
0.0345003
0.0315433
0.0293819
0.331851
0.27815
0.194927
0.15398
0.118809
0.0973387
0.0800085
0.0679481
0.0581829
0.050816
0.0447414
0.0399753
0.0360498
0.0329098
0.0305215
0.356594
0.289885
0.204543
0.160568
0.12418
0.101549
0.0835227
0.0708653
0.0606729
0.0529514
0.0466027
0.0416122
0.0374983
0.034189
0.0315894
0.377993
0.300175
0.213034
0.16646
0.129017
0.10537
0.0867291
0.0735397
0.0629654
0.0549245
0.0483267
0.0431296
0.0388419
0.0353784
0.0325854
0.395977
0.308964
0.220378
0.171636
0.133306
0.108789
0.0896192
0.0759642
0.0650543
0.0567299
0.0499089
0.0445237
0.0400771
0.0364756
0.0335079
0.410497
0.316212
0.22656
0.176079
0.137039
0.111798
0.0921857
0.0781326
0.0669343
0.0583632
0.0513451
0.0457904
0.0412003
0.0374779
0.0343577
0.421522
0.321892
0.23157
0.179776
0.140207
0.11439
0.0944231
0.0800403
0.0686014
0.0598207
0.0526319
0.046927
0.0422085
0.0383836
0.0351368
0.429042
0.325986
0.235403
0.182719
0.142805
0.116559
0.0963274
0.0816837
0.0700525
0.0610997
0.0537674
0.0479318
0.0431012
0.0391924
0.0358424
0.433071
0.328489
0.238062
0.184908
0.144831
0.118305
0.0978964
0.0830606
0.0712852
0.0621983
0.0547496
0.0488036
0.0438777
0.0399045
0.0364749
0.433644
0.329414
0.239556
0.186342
0.146287
0.119627
0.0991291
0.0841697
0.0722984
0.0631152
0.0555775
0.0495409
0.0445363
0.0405183
0.0370334
0.430817
0.328779
0.239898
0.18703
0.147177
0.120525
0.100026
0.0850112
0.0730917
0.0638499
0.0562506
0.050144
0.0450767
0.0410326
0.0375174
0.424668
0.32662
0.23911
0.186981
0.147507
0.121005
0.100591
0.0855864
0.0736659
0.0644028
0.0567695
0.0506136
0.0454998
0.0414466
0.0379245
0.415296
0.322982
0.237215
0.18621
0.147287
0.121072
0.100826
0.0858978
0.0740226
0.0647753
0.0571354
0.0509514
0.0458069
0.0417605
0.0382532
0.402823
0.317923
0.234245
0.184739
0.14653
0.120734
0.100737
0.0859491
0.0741642
0.0649691
0.0573501
0.0511593
0.0459996
0.0419744
0.0385022
0.387387
0.311511
0.230238
0.182589
0.145248
0.12
0.100331
0.0857448
0.0740942
0.0649869
0.0574158
0.0512398
0.0460797
0.0420892
0.0386706
0.369148
0.303826
0.225235
0.179789
0.143461
0.118883
0.0996156
0.0852908
0.0738167
0.0648322
0.0573357
0.0511956
0.0460492
0.0421055
0.0387576
0.348282
0.294955
0.219281
0.176369
0.141187
0.117395
0.0986006
0.0845937
0.0733365
0.0645085
0.0571129
0.0510299
0.0459107
0.0420247
0.0387628
0.32498
0.284997
0.212428
0.172364
0.138447
0.115552
0.0972962
0.0836612
0.0726593
0.0640211
0.0567527
0.0507474
0.0456673
0.0418481
0.038686
0.299448
0.274058
0.204731
0.167813
0.135265
0.113369
0.095714
0.0825019
0.0717912
0.0633741
0.0562583
0.0503509
0.0453214
0.0415786
0.0385283
0.271906
0.262253
0.196248
0.162755
0.131666
0.110865
0.0938663
0.081125
0.0707386
0.0625729
0.0556362
0.0498481
0.0448793
0.0412185
0.0382893
0.242592
0.249697
0.187041
0.157235
0.127675
0.108057
0.0917666
0.0795408
0.0695095
0.0616238
0.0548917
0.049243
0.0443416
0.0407695
0.0379727
0.211761
0.23651
0.177173
0.151299
0.12332
0.104967
0.0894289
0.0777602
0.0681111
0.0605305
0.0540282
0.0485426
0.0437174
0.0402371
0.0375768
0.179679
0.222809
0.16671
0.144995
0.118629
0.101614
0.0868678
0.0757944
0.0665523
0.0592998
0.0530535
0.0477582
0.0430153
0.0396244
0.0371094
0.146627
0.208716
0.155718
0.138373
0.113631
0.0980204
0.0840984
0.0736555
0.0648426
0.0579373
0.051969
0.0468923
0.0422397
0.0389291
0.0365596
0.112891
0.194348
0.144267
0.131483
0.108354
0.0942082
0.0811361
0.0713554
0.0629916
0.0564488
0.050777
0.0459537
0.0414133
0.0381736
0.0359578
0.0787696
0.179821
0.132425
0.124378
0.102825
0.0902003
0.0779963
0.0689061
0.0610101
0.0548426
0.0494805
0.0449476
0.0405491
0.0373538
0.0352642
0.0445631
0.165248
0.120262
0.11711
0.0970715
0.0860203
0.0746948
0.0663196
0.0589084
0.0531278
0.0480795
0.0438669
0.0396525
0.0364891
0.0345202
0.0105775
0.150733
0.107848
0.109731
0.0911202
0.0816921
0.071247
0.0636079
0.0566971
0.051315
0.0465776
0.0427078
0.0387448
0.0356418
0.0336599
-0.0228806
0.136372
0.0952542
0.102291
0.0849951
0.0772405
0.0676679
0.0607826
0.0543855
0.0494156
0.0449824
0.041461
0.0378086
0.0347798
0.0325144
-0.0555055
0.122255
0.0825523
0.094839
0.0787191
0.0726908
0.0639718
0.057856
0.0519824
0.0474405
0.0433047
0.0401155
0.0368064
0.0339603
0.0314826
-0.0869951
0.108457
0.0698143
0.0874206
0.0723131
0.0680689
0.0601719
0.0548405
0.0494958
0.0453983
0.0415587
0.0386774
0.0357155
0.033175
0.0307846
-0.117053
0.0950388
0.0571142
0.0800766
0.0657963
0.0634012
0.0562791
0.0517493
0.0469333
0.0432957
0.0397596
0.0371692
0.0345337
0.0323387
0.0302039
-0.145392
0.0820458
0.0445279
0.0728421
0.0591868
0.0587145
0.0523023
0.0485968
0.0443026
0.0411377
0.0379185
0.0356132
0.0332689
0.0313791
0.0294772
-0.171734
0.0695021
0.0321345
0.0657442
0.0525026
0.0540354
0.0482475
0.0453989
0.0416111
0.0389291
0.0360402
0.0340209
0.031935
0.0302936
0.0285525
-0.195813
0.0574052
0.0200176
0.0588001
0.0457626
0.049389
0.0441175
0.0421729
0.0388647
0.0366756
0.0341263
0.0323959
0.0305508
0.02913
0.0275235
-0.21737
0.0457207
0.00826676
0.0520144
0.0389886
0.0447978
0.0399131
0.0389382
0.0360668
0.0343856
0.0321796
0.0307404
0.0291344
0.0279333
0.0264818
-0.236147
0.0343598
-0.00301969
0.0453764
0.0322077
0.0402785
0.0356335
0.0357161
0.0332171
0.032071
0.0302058
0.0290583
0.0276961
0.0267178
0.0254479
-0.251878
0.0231826
-0.0137306
0.0388564
0.0254559
0.0358395
0.03128
0.0325277
0.0303115
0.0297477
0.0282113
0.0273541
0.0262394
0.0254781
0.0244007
-0.264221
0.0119384
-0.0237407
0.0324011
0.0187805
0.0314757
0.0268585
0.0293921
0.0273434
0.0274343
0.0261994
0.0256325
0.0247678
0.0242136
0.0233292
-0.27397
0.00119048
-0.0328944
0.0259304
0.0122455
0.0271649
0.0223856
0.0263204
0.0243078
0.0251511
0.0241673
0.0239008
0.0232904
0.0229353
0.0222461
-0.281315
-0.00896286
-0.0410168
0.0193288
0.00593467
0.0228616
0.0178939
0.0233099
0.0212067
0.0229156
0.0221071
0.022172
0.0218196
0.0216578
0.0211683
-0.28611
-0.0187167
-0.0479681
0.0124476
-4.61109e-05
0.0184935
0.0134373
0.0203368
0.0180572
0.0207359
0.0200097
0.020465
0.0203635
0.0203879
0.0201027
-0.288255
-0.0278096
-0.0540143
0.00514591
-0.00557187
0.0139594
0.00909578
0.0173498
0.0148997
0.0186026
0.017876
0.0188003
0.0189216
0.0191251
0.0190482
-0.287806
-0.0359496
-0.0599047
-0.00233643
-0.0105345
0.00913794
0.00497343
0.0142699
0.0118027
0.0164803
0.0157289
0.0171883
0.0174872
0.0178697
0.0180064
-0.28493
-0.0432585
-0.0659292
-0.0096676
-0.0149856
0.00393058
0.00118049
0.0109941
0.00886359
0.014305
0.0136206
0.0156184
0.0160589
0.0166299
0.016983
-0.279851
-0.0500256
-0.0719529
-0.0164953
-0.0194159
-0.00152162
-0.00222417
0.00743422
0.00619126
0.0119966
0.011624
0.0140549
0.0146531
0.0154199
0.0159834
-0.272845
-0.0565144
-0.0777742
-0.0228104
-0.0240974
-0.00685195
-0.00554049
0.00363316
0.00386048
0.00950506
0.00979971
0.0124564
0.0132979
0.0142573
0.0150029
-0.264241
-0.0629384
-0.083293
-0.0287603
-0.0290302
-0.011937
-0.00897661
-9.57852e-05
0.00155861
0.00698713
0.00808825
0.0108456
0.0120051
0.0131526
0.0140271
-0.254433
-0.0695037
-0.0884968
-0.0344827
-0.0341129
-0.0168296
-0.0125656
-0.0036486
-0.000833274
0.00455618
0.00641721
0.00927569
0.0107665
0.0120981
0.013107
-0.243881
-0.0764403
-0.0933967
-0.0400604
-0.0392653
-0.0216226
-0.01627
-0.0070379
-0.00329954
0.00224775
0.00475844
0.00777875
0.00957909
0.0110947
0.0122506
-0.233108
-0.0840085
-0.0979889
-0.0455362
-0.0444709
-0.0263867
-0.0200521
-0.0103135
-0.00579348
5.81679e-05
0.00311731
0.0063671
0.00844894
0.0101461
0.0114491
-0.222701
-0.0924944
-0.102246
-0.0509365
-0.0497611
-0.0311673
-0.0238818
-0.0135254
-0.00828287
-0.00202726
0.00151491
0.00503983
0.0073853
0.00925811
0.010696
-0.213308
-0.102205
-0.106114
-0.0562911
-0.0551838
-0.0359978
-0.0277372
-0.0167013
-0.0107488
-0.00402219
-2.48585e-05
0.00379391
0.00639518
0.00843404
0.00999592
-0.205633
-0.113466
-0.109515
-0.0616431
-0.0607893
-0.0409055
-0.0316144
-0.0198483
-0.0131759
-0.00593539
-0.00148094
0.00263445
0.00548092
0.00768305
0.00935216
-0.200432
-0.126612
-0.112328
-0.0670508
-0.0666328
-0.045915
-0.0355273
-0.0229698
-0.0155511
-0.0077681
-0.00283945
0.00157275
0.00465282
0.00700583
0.00877166
-0.198512
-0.141945
-0.114386
-0.0725902
-0.0727782
-0.0510508
-0.0394939
-0.0260735
-0.0178658
-0.0095136
-0.00409165
0.00062063
0.00391881
0.00641518
0.00825679
-0.200698
-0.159602
-0.115458
-0.0783639
-0.0792972
-0.0563415
-0.0435284
-0.0291676
-0.020116
-0.0111603
-0.00522813
-0.000213225
0.0032932
0.0059108
0.00781918
-0.207699
-0.179226
-0.115248
-0.0845168
-0.0862657
-0.0618195
-0.0476436
-0.0322588
-0.0222999
-0.0126967
-0.00623556
-0.000916569
0.00278057
0.0055095
0.00746128
-0.219745
-0.199411
-0.113465
-0.0912493
-0.09376
-0.0675199
-0.0518571
-0.035354
-0.0244145
-0.0141131
-0.00709747
-0.00147744
0.00239787
0.00520752
0.00719198
-0.236121
-0.217319
-0.109876
-0.0988033
-0.101851
-0.0734811
-0.0561928
-0.0384635
-0.0264548
-0.0153988
-0.00779896
-0.00187845
0.00215278
0.00502026
0.00700822
-0.255013
-0.229228
-0.104433
-0.107349
-0.110604
-0.0797473
-0.0606799
-0.0416011
-0.0284153
-0.016542
-0.00832349
-0.00210395
0.0020667
0.00494296
0.00690812
-0.274086
-0.232132
-0.097338
-0.116995
-0.120077
-0.0863709
-0.0653526
-0.0447833
-0.0302926
-0.0175283
-0.00865589
-0.00212911
0.00215009
0.00498147
0.00688869
-0.291438
-0.225496
-0.0890514
-0.127872
-0.130331
-0.0934152
-0.0702515
-0.0480289
-0.0320851
-0.0183458
-0.00877483
-0.00193296
0.00242679
0.00513959
0.00690385
-0.305947
-0.211792
-0.0802134
-0.140204
-0.141427
-0.100958
-0.0754263
-0.0513607
-0.0337944
-0.0189821
-0.00866227
-0.00147821
0.00290856
0.00541252
0.00695124
-0.318284
-0.195448
-0.0714547
-0.154333
-0.153417
-0.109094
-0.0809384
-0.0548065
-0.0354256
-0.019429
-0.00829474
-0.000737513
0.00362821
0.00583306
0.00684736
-0.32865
-0.180923
-0.0631823
-0.170646
-0.166375
-0.117941
-0.0868623
-0.0584013
-0.036991
-0.0196812
-0.00765188
0.000340953
0.00459576
0.006435
0.00662424
-0.337371
-0.171253
-0.0554867
-0.189479
-0.180386
-0.127635
-0.0932869
-0.0621878
-0.0385134
-0.0197389
-0.0067131
0.0017818
0.00588763
0.00727909
0.00593485
-0.344492
-0.167627
-0.0482887
-0.211033
-0.195503
-0.138331
-0.100316
-0.0662186
-0.0400273
-0.0196167
-0.00545639
0.00361697
0.00753288
0.00856748
0.00538586
-0.349998
-0.169835
-0.0419212
-0.235271
-0.211717
-0.150196
-0.108066
-0.0705592
-0.0415811
-0.0193455
-0.00386912
0.00584564
0.00967938
0.0100294
0.00602133
-0.354869
-0.176752
-0.0381716
-0.261831
-0.228969
-0.163412
-0.116661
-0.0752892
-0.043239
-0.0189924
-0.0019499
0.00840482
0.0125331
0.0114781
0.00703596
-0.361106
-0.187563
-0.0409749
-0.289825
-0.247187
-0.178163
-0.126224
-0.0805027
-0.0450946
-0.0186628
0.000275417
0.011256
0.0161185
0.012962
0.00755869
-0.37079
-0.20202
-0.0550495
-0.317239
-0.266318
-0.194615
-0.13686
-0.0863109
-0.0472802
-0.018495
0.0026524
0.0143599
0.020332
0.0144089
0.0073512
-0.384911
-0.22027
-0.0839621
-0.340348
-0.286311
-0.212867
-0.148649
-0.0928282
-0.0499892
-0.0186749
0.00490961
0.0176864
0.0251499
0.0155761
0.00649377
-0.402906
-0.242587
-0.124929
-0.354876
-0.30713
-0.232877
-0.161611
-0.100175
-0.0534879
-0.0194427
0.00668359
0.0210055
0.0303935
0.0161037
0.00485375
-0.423296
-0.268954
-0.172774
-0.359495
-0.328832
-0.254412
-0.175681
-0.108494
-0.0580534
-0.0212092
0.0072806
0.0236908
0.0355063
0.0155871
0.00205222
-0.444693
-0.298549
-0.222388
-0.357792
-0.351429
-0.277011
-0.190752
-0.117833
-0.0640611
-0.0245712
0.00570557
0.0251225
0.039552
0.0132994
-0.00254652
-0.466257
-0.329869
-0.269904
-0.355589
-0.374422
-0.300008
-0.20659
-0.12825
-0.0718496
-0.030166
0.000578798
0.0235533
0.03957
0.00868939
-0.00983704
-0.487658
-0.361301
-0.312542
-0.353868
-0.396424
-0.322603
-0.222766
-0.139972
-0.0811927
-0.0394186
-0.0127846
0.00959751
0.0273358
0.00186996
-0.0200959
-0.50884
-0.391704
-0.34856
-0.360495
-0.41547
-0.343864
-0.238891
-0.152846
-0.0920051
-0.0544194
-0.0391325
-0.025805
-0.00533643
-0.00808593
-0.0331415
-0.529851
-0.420557
-0.37711
-0.370355
-0.429344
-0.362781
-0.254706
-0.166109
-0.10534
-0.0764621
-0.0770085
-0.0786538
-0.0527873
-0.0242129
-0.0490443
-0.550747
-0.447776
-0.398341
-0.381412
-0.436165
-0.378455
-0.269751
-0.17907
-0.121573
-0.101031
-0.113519
-0.128105
-0.0998807
-0.0484617
-0.0668328
-0.571569
-0.473502
-0.413168
-0.391723
-0.434964
-0.390186
-0.283109
-0.191407
-0.139268
-0.122817
-0.141259
-0.162218
-0.135117
-0.0761068
-0.0834151
-0.592326
-0.497946
-0.422834
-0.399784
-0.42613
-0.397386
-0.29362
-0.202977
-0.15652
-0.13912
-0.159897
-0.182923
-0.158047
-0.0987942
-0.094701
-0.612993
-0.521301
-0.428496
-0.404846
-0.411177
-0.399608
-0.300311
-0.2136
-0.17179
-0.151177
-0.172427
-0.191643
-0.173521
-0.116062
-0.101546
-0.633511
-0.543705
-0.431022
-0.406723
-0.39199
-0.396697
-0.30271
-0.222879
-0.183967
-0.160852
-0.180863
-0.201441
-0.185621
-0.131006
-0.10983
-0.653796
-0.565251
-0.431009
-0.405267
-0.370025
-0.388419
-0.300863
-0.230165
-0.192635
-0.168664
-0.185649
-0.207029
-0.193229
-0.144232
-0.122489
-0.673739
-0.586022
-0.428877
-0.400382
-0.345794
-0.374347
-0.295093
-0.234771
-0.198163
-0.175483
-0.189769
-0.20969
-0.195756
-0.153782
-0.137777
-0.184048
-0.177668
-0.141235
-0.140174
-0.169948
-0.147416
-0.116885
-0.148747
-0.164854
-0.143112
-0.120239
-0.0980656
-0.0553891
-0.042738
-0.0268747
-0.0199188
-0.0153263
-0.0124687
-0.0102429
-0.00896442
-0.00755229
-0.0061134
-0.00573319
-0.00469818
-0.0035895
-0.00382048
-0.00306057
-0.00183272
-0.00340252
-0.00163877
-0.0012115
-0.00196763
-0.00174345
0.000273957
0.000720392
-0.00360282
0.00135542
0.00354714
0.00131224
-0.000919935
-0.188286
-0.178561
-0.135326
-0.127539
-0.15471
-0.137838
-0.111815
-0.148507
-0.164589
-0.136398
-0.112449
-0.0916663
-0.0526314
-0.0417549
-0.0274926
-0.0201801
-0.0150474
-0.0124216
-0.0101925
-0.00910917
-0.00763967
-0.00591822
-0.0059339
-0.00477722
-0.00334839
-0.00408093
-0.00320091
-0.00144637
-0.00358349
-0.00200918
-0.000795631
-0.00177602
-0.00220126
0.000228149
0.00141728
-0.0034635
0.000832404
0.00366373
0.0017915
-0.000718459
-0.177094
-0.168748
-0.122239
-0.110249
-0.135109
-0.124197
-0.100922
-0.139834
-0.153904
-0.122682
-0.10082
-0.0823857
-0.0483615
-0.0399986
-0.0278475
-0.020369
-0.0147016
-0.0123479
-0.0101237
-0.00923876
-0.00771676
-0.00571518
-0.00612787
-0.00484558
-0.00309661
-0.00433054
-0.00331865
-0.00104189
-0.0037445
-0.00234343
-0.000378384
-0.00158245
-0.00263581
0.000229068
0.00209885
-0.00334452
0.000328944
0.00382844
0.00224945
-0.000529656
-0.150821
-0.148732
-0.104325
-0.0912345
-0.114635
-0.108472
-0.0860889
-0.123552
-0.134368
-0.103982
-0.0866563
-0.0710239
-0.042744
-0.0374539
-0.0279317
-0.020474
-0.0142887
-0.0122499
-0.0100386
-0.00934876
-0.00778655
-0.00550714
-0.00630812
-0.00490866
-0.00284168
-0.00456078
-0.00341919
-0.000652905
-0.00388283
-0.00263992
2.5671e-05
-0.00139349
-0.00303636
0.000271883
0.00274198
-0.00325376
-0.000151142
0.00403418
0.00267135
-0.000360829
-0.114047
-0.121584
-0.083963
-0.0727915
-0.0959211
-0.0923372
-0.0696266
-0.102044
-0.109304
-0.0827979
-0.0715399
-0.0587704
-0.0361167
-0.0341554
-0.0277606
-0.0204716
-0.0138144
-0.0121341
-0.00994172
-0.00943451
-0.00785152
-0.00529928
-0.00646821
-0.00497133
-0.00259104
-0.00476506
-0.00350852
-0.000286975
-0.00399688
-0.00289955
0.000404453
-0.00121483
-0.00339543
0.000347777
0.00332746
-0.00319672
-0.000605102
0.004271
0.0030448
-0.000217697
-0.0729182
-0.0894209
-0.0629063
-0.0566039
-0.0803471
-0.0771948
-0.0535657
-0.0785135
-0.0825005
-0.0616187
-0.0570361
-0.0467126
-0.0289086
-0.0302018
-0.0273311
-0.0203431
-0.0132882
-0.0120042
-0.00983727
-0.00949101
-0.00791363
-0.00509749
-0.0066019
-0.00503744
-0.00235361
-0.00493832
-0.00359254
4.69273e-05
-0.00408563
-0.00312413
0.00074731
-0.00105164
-0.00370855
0.000444758
0.00384428
-0.00317423
-0.00103549
0.00452561
0.00355755
-0.000103818
-0.0353595
-0.0535656
-0.0425988
-0.0433663
-0.0678966
-0.063745
-0.0390823
-0.0559982
-0.0575224
-0.0418107
-0.0440999
-0.0356603
-0.0215842
-0.025805
-0.0266334
-0.0200809
-0.0127195
-0.0118635
-0.00972944
-0.00951405
-0.00797404
-0.00490803
-0.00670385
-0.0051099
-0.00213836
-0.00507638
-0.00367633
0.000340665
-0.00414852
-0.00331649
0.00104539
-0.000908237
-0.0039731
0.00055016
0.00429702
-0.00318291
-0.00145842
0.00478151
0.00381514
-2.21363e-05
-0.00880141
-0.021199
-0.025372
-0.0329751
-0.0575005
-0.0517887
-0.026531
-0.0362636
-0.0361722
-0.0241724
-0.0331496
-0.0261435
-0.0146328
-0.0213263
-0.0256608
-0.0196859
-0.0121197
-0.0117129
-0.00962139
-0.00950065
-0.00803219
-0.00473788
-0.00677053
-0.00519041
-0.00195312
-0.00517615
-0.0037633
0.000587723
-0.00418518
-0.00347974
0.00129193
-0.000787437
-0.00418738
0.000653082
0.00466215
-0.00321829
-0.00184985
0.00502534
0.00400584
2.74331e-05
0.00363814
-0.000161677
-0.0127093
-0.0246477
-0.0476992
-0.0410564
-0.0165503
-0.0201873
-0.0185363
-0.00922088
-0.0243323
-0.018437
-0.0084862
-0.0169416
-0.0244293
-0.0191728
-0.0114886
-0.0115515
-0.009515
-0.00944956
-0.00808569
-0.00459416
-0.00680059
-0.005279
-0.00180403
-0.00523572
-0.00385511
0.000783223
-0.00419529
-0.00361659
0.00148221
-0.000689741
-0.0043505
0.000743693
0.00493588
-0.00327358
-0.0022078
0.00524509
0.00412903
4.68815e-05
0.00605412
0.00887391
-0.00429282
-0.0171213
-0.0375944
-0.0313462
-0.00941598
-0.0083063
-0.00423899
0.00271068
-0.0175736
-0.0125284
-0.00340179
-0.0128305
-0.0229959
-0.0185614
-0.0108085
-0.0113782
-0.00941109
-0.0093613
-0.0081305
-0.00448296
-0.00679464
-0.00537353
-0.00169541
-0.00525454
-0.00395141
0.000924026
-0.00417855
-0.00372883
0.00161371
-0.000613315
-0.00446179
0.000813639
0.00512083
-0.00333886
-0.00253108
0.0054303
0.00418735
4.00133e-05
0.00431038
0.0111415
0.00126857
-0.0101344
-0.027635
-0.022807
-0.00476853
-0.000724648
0.0061425
0.0114782
-0.0123848
-0.00803032
0.000562644
-0.00918425
-0.0214405
-0.0178714
-0.01017
-0.0112016
-0.00930986