/*--------------------------------*- C++ -*----------------------------------*\
  =========                 |
  \\      /  F ield         | OpenFOAM: The Open Source CFD Toolbox
   \\    /   O peration     | Website:  https://openfoam.org
    \\  /    A nd           | Version:  7
     \\/     M anipulation  |
\*---------------------------------------------------------------------------*/
FoamFile
{
    version     2.0;
    format      ascii;
    class       volScalarField;
    location    "20";
    object      p;
}
// * * * * * * * * * * * * * * * * * * * * * * * * * * * * * * * * * * * * * //

dimensions      [0 2 -2 0 0 0 0];

internalField   nonuniform List<scalar> 
607
(
0.000221053
0.000203628
0.000186924
0.000170963
0.000155747
0.000141295
0.000127594
0.00011466
0.000102462
9.10138e-05
8.02627e-05
7.02199e-05
6.08092e-05
5.20386e-05
4.38056e-05
3.6115e-05
2.88366e-05
2.19753e-05
1.53771e-05
9.06557e-06
2.89148e-06
0.000216419
0.000199199
0.000182705
0.000166961
0.000151965
0.000137737
0.000124263
0.000111558
9.95904e-05
8.83733e-05
7.78532e-05
6.80415e-05
5.88608e-05
5.03199e-05
4.23153e-05
3.48527e-05
2.78016e-05
2.11682e-05
1.4798e-05
8.71679e-06
2.77393e-06
0.00020747
0.000190648
0.000174564
0.000159239
0.000144671
0.000130878
0.000117843
0.000105581
9.4059e-05
8.32887e-05
7.32152e-05
6.38494e-05
5.51128e-05
4.70144e-05
3.94499e-05
3.24263e-05
2.58125e-05
1.96169e-05
1.36851e-05
8.04559e-06
2.54804e-06
0.000194486
0.000178251
0.000162768
0.000148058
0.000134116
0.000120958
0.000108565
9.69499e-05
8.60761e-05
7.59552e-05
6.65299e-05
5.78104e-05
4.97167e-05
4.22579e-05
3.53288e-05
2.89379e-05
2.29538e-05
1.73879e-05
1.20862e-05
7.08142e-06
2.22388e-06
0.000177749
0.000162282
0.000147588
0.000133682
0.000120556
0.000108225
9.66655e-05
8.58887e-05
7.58545e-05
6.65726e-05
5.79833e-05
5.00959e-05
4.28283e-05
3.61901e-05
3.0075e-05
2.44931e-05
1.93134e-05
1.45505e-05
1.00517e-05
5.8549e-06
1.81172e-06
0.000157512
0.000142996
0.000129273
0.000116355
0.000104232
9.29129e-05
8.23714e-05
7.26158e-05
6.3602e-05
5.53377e-05
4.77599e-05
4.08769e-05
3.46044e-05
2.89523e-05
2.38133e-05
1.91997e-05
1.49808e-05
1.11756e-05
7.63301e-06
4.39735e-06
1.32212e-06
0.00013403
0.000120646
0.000108075
9.63276e-05
8.53872e-05
7.52597e-05
6.59134e-05
5.73531e-05
4.95306e-05
4.2451e-05
3.60477e-05
3.03279e-05
2.52046e-05
2.06885e-05
1.66711e-05
1.31674e-05
1.00475e-05
7.33548e-06
4.88257e-06
2.74072e-06
7.65869e-07
0.000107547
9.54754e-05
8.42387e-05
7.38417e-05
6.42616e-05
5.54999e-05
4.75194e-05
4.03208e-05
3.38513e-05
2.81129e-05
2.30352e-05
1.86239e-05
1.47896e-05
1.15437e-05
8.77674e-06
6.50713e-06
4.60579e-06
3.10322e-06
1.85348e-06
9.17327e-07
1.53922e-07
7.83068e-05
6.77319e-05
5.80111e-05
4.91426e-05
4.10971e-05
3.38708e-05
2.74205e-05
2.17423e-05
1.6778e-05
1.25264e-05
8.91314e-06
5.94231e-06
3.5221e-06
1.66468e-06
2.60185e-07
-6.69236e-07
-1.25094e-06
-1.44741e-06
-1.40075e-06
-1.04024e-06
-5.02687e-07
4.65547e-05
3.76633e-05
2.96404e-05
2.24773e-05
1.61379e-05
1.0612e-05
5.84996e-06
1.84268e-06
-1.4735e-06
-4.10356e-06
-6.12601e-06
-7.53818e-06
-8.43427e-06
-8.8009e-06
-8.74803e-06
-8.24912e-06
-7.42906e-06
-6.2424e-06
-4.82642e-06
-3.09932e-06
-1.1929e-06
1.25412e-05
5.52174e-06
-6.20806e-07
-5.90265e-06
-1.03677e-05
-1.4033e-05
-1.69552e-05
-1.91492e-05
-2.06845e-05
-2.15698e-05
-2.18878e-05
-2.16374e-05
-2.09146e-05
-1.97047e-05
-1.81169e-05
-1.61198e-05
-1.38349e-05
-1.12078e-05
-8.36998e-06
-5.22733e-06
-1.90569e-06
-2.34768e-05
-2.84337e-05
-3.25131e-05
-3.57395e-05
-3.81655e-05
-3.98155e-05
-4.07538e-05
-4.10012e-05
-4.06332e-05
-3.96627e-05
-3.81763e-05
-3.6174e-05
-3.37536e-05
-3.0898e-05
-2.77156e-05
-2.4169e-05
-2.03752e-05
-1.62703e-05
-1.19783e-05
-7.39202e-06
-2.63015e-06
-6.12333e-05
-6.39353e-05
-6.57691e-05
-6.67686e-05
-6.69951e-05
-6.64815e-05
-6.52998e-05
-6.34773e-05
-6.10954e-05
-5.8171e-05
-5.47943e-05
-5.09663e-05
-4.67858e-05
-4.2233e-05
-3.74141e-05
-3.22852e-05
-2.69578e-05
-2.13572e-05
-1.5599e-05
-9.56162e-06
-3.35553e-06
-0.000100451
-0.000100705
-0.000100113
-9.87167e-05
-9.65891e-05
-9.37711e-05
-9.03429e-05
-8.63382e-05
-8.18443e-05
-7.68819e-05
-7.15443e-05
-6.58329e-05
-5.98467e-05
-5.35628e-05
-4.70838e-05
-4.03587e-05
-3.34922e-05
-2.63976e-05
-1.91808e-05
-1.17051e-05
-4.07137e-06
-0.000140842
-0.000138455
-0.000135257
-0.000131303
-0.000126673
-0.000121419
-0.000115628
-0.000109342
-0.000102652
-9.5582e-05
-8.82289e-05
-8.05935e-05
-7.27737e-05
-6.47428e-05
-5.65987e-05
-4.82823e-05
-3.98899e-05
-3.13224e-05
-2.26742e-05
-1.37925e-05
-4.76754e-06
-0.000182101
-0.000176883
-0.000170906
-0.000164236
-0.000156966
-0.000149154
-0.000140898
-0.000132244
-0.000123288
-0.000114059
-0.000104652
-9.50699e-05
-8.54068e-05
-7.56315e-05
-6.58359e-05
-5.59518e-05
-4.60657e-05
-3.6065e-05
-2.60313e-05
-1.57951e-05
-5.43434e-06
-0.000223913
-0.000215675
-0.000206751
-0.000197219
-0.00018718
-0.000176703
-0.000165892
-0.000154799
-0.000143526
-0.000132101
-0.000120622
-0.000109088
-9.75902e-05
-8.60918e-05
-7.46769e-05
-6.32672e-05
-5.19379e-05
-4.05621e-05
-2.92069e-05
-1.76854e-05
-6.06258e-06
-0.000265945
-0.000254507
-0.000242478
-0.000229945
-0.000217022
-0.000203786
-0.000190347
-0.000176763
-0.000163137
-0.000149501
-0.000135949
-0.000122477
-0.000109173
-9.59921e-05
-8.30086e-05
-7.01337e-05
-5.74294e-05
-4.47539e-05
-3.21583e-05
-1.94381e-05
-6.64369e-06
-0.000307851
-0.000293042
-0.000277759
-0.000262103
-0.000246197
-0.000230125
-0.000214003
-0.000197893
-0.000181901
-0.000166055
-0.00015045
-0.000135076
-0.000120012
-0.000105207
-9.07243e-05
-7.64622e-05
-6.24682e-05
-4.85851e-05
-3.48463e-05
-2.10297e-05
-7.16978e-06
-0.000349273
-0.000330933
-0.000312263
-0.000293377
-0.000274404
-0.000255439
-0.0002366
-0.000217952
-0.000199599
-0.000181569
-0.000163949
-0.000146727
-0.000129971
-0.00011362
-9.77248e-05
-8.21705e-05
-6.69884e-05
-5.20051e-05
-3.72353e-05
-2.24389e-05
-7.63374e-06
-0.00038984
-0.000367823
-0.00034565
-0.000323446
-0.000301347
-0.000279453
-0.000257884
-0.000236706
-0.000216021
-0.000195853
-0.000176281
-0.000157286
-0.000138924
-0.000121123
-0.000103919
-8.71841e-05
-7.09305e-05
-5.49688e-05
-3.92934e-05
-2.36469e-05
-8.02927e-06
-0.00042917
-0.000403349
-0.000377579
-0.00035199
-0.000326727
-0.000301892
-0.000277606
-0.000253932
-0.000230967
-0.00020873
-0.00018729
-0.000166617
-0.000146755
-0.000127618
-0.000109226
-9.14368e-05
-7.42422e-05
-5.74367e-05
-4.09933e-05
-2.46376e-05
-8.351e-06
-0.000466871
-0.000437144
-0.000407704
-0.000378692
-0.000350254
-0.000322493
-0.000295527
-0.000269417
-0.000244249
-0.000220035
-0.000196832
-0.000174598
-0.000153359
-0.000133019
-0.000113575
-9.48716e-05
-7.68792e-05
-5.93758e-05
-4.2312e-05
-2.53976e-05
-8.5945e-06
-0.000502549
-0.000468836
-0.000435685
-0.000403237
-0.000371641
-0.000340998
-0.000311419
-0.000282958
-0.000255691
-0.000229617
-0.000204778
-0.000181119
-0.000158647
-0.00013725
-0.000116906
-9.74411e-05
-7.8805e-05
-6.07594e-05
-4.32316e-05
-2.59165e-05
-8.75632e-06
-0.000535803
-0.000498058
-0.000461183
-0.000425321
-0.000390616
-0.000357165
-0.000325069
-0.000294371
-0.000265133
-0.00023734
-0.000211015
-0.000186087
-0.000162542
-0.000140251
-0.000119169
-9.9108e-05
-7.99918e-05
-6.15676e-05
-4.37386e-05
-2.61867e-05
-8.83402e-06
-0.000566233
-0.000524444
-0.000483868
-0.000444647
-0.000406917
-0.000370764
-0.000336278
-0.000303488
-0.000272434
-0.000243087
-0.000215446
-0.000189424
-0.000164982
-0.000141974
-0.00012033
-9.98456e-05
-8.04204e-05
-6.17872e-05
-4.38247e-05
-2.62038e-05
-8.82616e-06
-0.000593443
-0.000547636
-0.000503422
-0.000460935
-0.000420299
-0.000381587
-0.00034487
-0.000310158
-0.00027747
-0.000246757
-0.000217993
-0.000191069
-0.000165921
-0.000142385
-0.000120364
-9.96375e-05
-8.00803e-05
-6.14118e-05
-4.34866e-05
-2.59663e-05
-8.73229e-06
-0.000617045
-0.000567291
-0.000519542
-0.000473923
-0.000430538
-0.000389444
-0.000350686
-0.000314255
-0.000280141
-0.000248273
-0.000218595
-0.000190978
-0.000165329
-0.000141464
-0.000119259
-9.84781e-05
-7.89697e-05
-6.04421e-05
-4.27255e-05
-2.54754e-05
-8.55296e-06
-0.000636664
-0.000583078
-0.000531944
-0.000483368
-0.000437432
-0.000394169
-0.000353595
-0.000315675
-0.000280368
-0.000247577
-0.000217214
-0.000189127
-0.000163192
-0.000139206
-0.000117016
-9.63719e-05
-7.70951e-05
-5.88848e-05
-4.15477e-05
)
;

boundaryField
{
    inlet
    {
        type            zeroGradient;
    }
    outlet
    {
        type            fixedValue;
        value           uniform 0;
    }
    cylinder
    {
        type            zeroGradient;
    }
    top
    {
        type            symmetryPlane;
    }
    bottom
    {
        type            symmetryPlane;
    }
    defaultFaces
    {
        type            empty;
    }
    procBoundary7to6
    {
        type            processor;
        value           nonuniform List<scalar> 
28
(
0.000239187
0.000234355
0.000225019
0.000211466
0.000193982
0.00017282
0.000148234
0.000120464
8.97517e-05
5.63382e-05
2.04694e-05
-1.76016e-05
-5.76124e-05
-9.92892e-05
-0.000142345
-0.000186476
-0.000231366
-0.000276678
-0.000322061
-0.000367147
-0.000411552
-0.000454879
-0.000496717
-0.000536645
-0.000574234
-0.000609052
-0.000640664
-0.000668638
)
;
    }
    procBoundary7to14
    {
        type            processor;
        value           uniform -0.000692552;
    }
    procBoundary7to15
    {
        type            processor;
        value           nonuniform List<scalar> 
22
(
-2.47354e-05
-8.28966e-06
-0.000651941
-0.000594689
-0.000540367
-0.000489055
-0.000440804
-0.000395621
-0.000353487
-0.000314336
-0.000278093
-0.000244631
-0.000213829
-0.000185508
-0.000159513
-0.000135621
-0.000113649
-9.33339e-05
-7.44714e-05
-5.67535e-05
-2.47354e-05
-3.99635e-05
)
;
    }
}


// ************************************************************************* //
