/*--------------------------------*- C++ -*----------------------------------*\
  =========                 |
  \\      /  F ield         | OpenFOAM: The Open Source CFD Toolbox
   \\    /   O peration     | Website:  https://openfoam.org
    \\  /    A nd           | Version:  7
     \\/     M anipulation  |
\*---------------------------------------------------------------------------*/
FoamFile
{
    version     2.0;
    format      ascii;
    class       volScalarField;
    location    "10.5";
    object      p;
}
// * * * * * * * * * * * * * * * * * * * * * * * * * * * * * * * * * * * * * //

dimensions      [1 -1 -2 0 0 0 0];

internalField   nonuniform List<scalar> 
2413
(
0.956227
0.952371
0.949391
0.944956
0.940374
0.937469
0.93408
0.929178
0.967707
0.963177
0.960009
0.956529
0.951693
0.948058
0.945118
0.940961
0.977206
0.973179
0.969409
0.96638
0.962275
0.957865
0.954849
0.95147
0.98491
0.981865
0.978089
0.974971
0.97171
0.967344
0.96381
0.960872
0.991166
0.988838
0.985889
0.982717
0.979913
0.976332
0.972401
0.969502
0.995812
0.994117
0.992123
0.989551
0.986999
0.984276
0.98069
0.97758
0.998542
0.997615
0.996424
0.994831
0.992834
0.990764
0.988115
0.985076
0.999672
0.999351
0.99883
0.99807
0.996951
0.99555
0.993862
0.991564
0.99996
0.999898
0.999767
0.999523
0.999106
0.998442
0.997541
0.996255
0.999998
0.999992
0.999976
0.999935
0.999844
0.999659
0.999333
0.99881
1
1
0.999999
0.999996
0.999986
0.99996
0.999897
0.999765
1
1
1
1
1
0.999998
0.999992
0.999976
1
1
1
1
1
1
1
0.999999
1
1
1
1
1
1
1
1
1
1
1
1
1
1
1
1
1
1
1
1
1
1
1
1
1
1
1
1
1
1
1
1
1
1
1
1
1
1
1
1
1
1
1
1
1
1
1
1
0.826432
0.866493
0.958011
1.09056
1.21541
1.29485
1.32294
1.32361
1.32066
1.31419
1.30372
1.29341
1.28485
1.27619
1.26896
1.26251
1.25627
1.25116
1.2468
1.24345
1.24213
1.24241
1.244
1.24577
1.24814
1.25177
1.25659
1.26127
1.26503
1.26718
1.26766
1.2676
1.26733
1.26667
1.26562
1.26412
1.26207
1.25968
1.25715
1.25434
1.25116
1.24763
1.24338
1.23795
1.23174
1.22532
1.21832
1.21183
1.20781
1.20539
1.20407
1.20423
1.20447
1.20673
1.2159
1.23668
1.27231
1.32233
1.37072
1.42303
1.45374
1.47485
1.49156
1.5005
1.50294
1.50169
1.50002
1.49704
1.4937
1.48915
1.48221
1.47348
1.46338
1.45267
1.4414
1.43089
0.925261
0.92332
0.920855
0.916453
0.913211
0.911125
0.907808
0.904612
0.901672
0.898224
0.895893
0.893369
0.889632
0.887019
0.884448
0.880977
0.878366
0.875652
0.872473
0.87009
0.867533
0.864279
0.861781
0.859264
0.855968
0.853478
0.850923
0.847836
0.845321
0.842492
0.839227
0.836177
0.83284
0.82948
0.825678
0.822335
0.819265
0.815668
0.812664
0.810572
0.808245
0.806755
0.807017
0.808258
0.810632
0.816769
0.839341
0.900494
1.02041
1.16639
1.26155
1.30015
1.31106
1.31342
1.31081
1.30434
1.29676
1.28983
1.28207
1.27363
1.26669
1.26116
1.25625
1.25194
1.2492
1.24861
1.2487
1.24868
1.24969
1.25241
1.25657
1.26171
1.26667
1.27027
1.27177
1.27208
1.27209
1.27185
1.27103
1.26973
1.26804
1.26596
1.26364
1.2612
1.25866
1.2559
1.25272
1.24889
1.24433
1.23921
1.23288
1.22632
1.22022
1.21362
1.20909
1.20738
1.20611
1.206
1.20572
1.207
1.2128
1.22961
1.2582
1.30211
1.35006
1.39597
1.43872
1.45916
1.47599
1.48825
1.49437
1.4959
1.49511
1.49257
1.4888
1.48524
1.48016
1.47269
1.46356
1.45346
0.936191
0.933734
0.931673
0.927909
0.923996
0.921761
0.918663
0.915392
0.912521
0.908803
0.90614
0.903796
0.900157
0.897324
0.894854
0.891312
0.888571
0.885907
0.882582
0.880134
0.877588
0.874398
0.871856
0.869381
0.866186
0.86358
0.861215
0.858182
0.855704
0.853414
0.850385
0.847639
0.844962
0.841872
0.838755
0.835362
0.832255
0.828948
0.825158
0.821987
0.818675
0.815336
0.812874
0.812325
0.812835
0.814816
0.818987
0.829555
0.866336
0.960537
1.0975
1.23237
1.28615
1.30416
1.30539
1.3018
1.29836
1.29704
1.29361
1.28687
1.27966
1.27225
1.26436
1.25955
1.25672
1.25501
1.25418
1.25394
1.25401
1.25572
1.2589
1.26285
1.26717
1.27105
1.27409
1.27541
1.27586
1.27604
1.27591
1.27522
1.27405
1.27251
1.27059
1.26817
1.26505
1.2616
1.2584
1.25551
1.25275
1.24976
1.24587
1.24075
1.23497
1.22849
1.22166
1.2154
1.2101
1.20805
1.20731
1.20713
1.20649
1.20709
1.21093
1.2226
1.24663
1.28121
1.32706
1.37031
1.41471
1.44513
1.46064
1.47432
1.48373
1.48813
1.48873
1.48779
1.48449
1.48056
1.4764
1.47062
0.946818
0.943367
0.941412
0.938372
0.93414
0.931644
0.92872
0.925346
0.922594
0.918936
0.91579
0.913486
0.910028
0.906926
0.904546
0.901082
0.898129
0.895582
0.892058
0.889483
0.88702
0.883709
0.881228
0.878712
0.87554
0.872889
0.870467
0.867561
0.86486
0.862645
0.859985
0.857301
0.855006
0.85215
0.849456
0.846809
0.843868
0.841047
0.837687
0.834531
0.831273
0.827293
0.823679
0.820332
0.818514
0.818301
0.819841
0.823768
0.831968
0.856145
0.917757
1.03994
1.1656
1.24926
1.28784
1.29508
1.29891
1.30012
1.29923
1.2965
1.29262
1.28659
1.27877
1.27178
1.26529
1.25944
1.25761
1.25828
1.25899
1.26039
1.26289
1.26602
1.26987
1.27433
1.27742
1.27877
1.27901
1.27875
1.27855
1.27849
1.27835
1.27783
1.27665
1.27472
1.2721
1.2691
1.26599
1.26252
1.2589
1.25567
1.25303
1.2503
1.24676
1.24225
1.23639
1.22951
1.22324
1.2172
1.21136
1.20925
1.20808
1.20771
1.20728
1.20729
1.20913
1.21628
1.23403
1.26263
1.30212
1.34505
1.38522
1.42609
1.44581
1.45939
1.4707
1.47842
1.48131
1.4815
1.47962
1.47506
0.957023
0.952796
0.950542
0.948033
0.943882
0.941064
0.938328
0.93482
0.932112
0.928761
0.925184
0.922796
0.919588
0.916223
0.913839
0.910567
0.907376
0.904913
0.90145
0.898529
0.896203
0.892801
0.890155
0.887826
0.884532
0.881953
0.879382
0.876386
0.873911
0.871389
0.868737
0.866187
0.863873
0.861366
0.858593
0.856365
0.85382
0.85122
0.848618
0.845736
0.843151
0.83991
0.836195
0.832667
0.829454
0.828027
0.827737
0.828751
0.832427
0.840467
0.85737
0.905178
0.993363
1.10653
1.19187
1.23895
1.26954
1.28694
1.295
1.29761
1.29747
1.29605
1.29204
1.28658
1.27971
1.2726
1.26741
1.26447
1.26284
1.26287
1.26488
1.26864
1.27287
1.2773
1.28061
1.28259
1.28353
1.28368
1.28367
1.28349
1.28251
1.28088
1.27936
1.27805
1.27683
1.27529
1.27317
1.27042
1.2672
1.26376
1.25997
1.25593
1.25281
1.25026
1.24716
1.24273
1.23764
1.23155
1.22437
1.21887
1.21404
1.20992
1.20894
1.20834
1.2082
1.20714
1.20753
1.21156
1.22286
1.24559
1.27721
1.3181
1.35673
1.39586
1.4295
1.44297
1.45583
1.46572
1.47207
1.47367
0.966466
0.962273
0.959433
0.957166
0.953367
0.950249
0.947667
0.944094
0.941329
0.938374
0.934542
0.931985
0.929045
0.925429
0.922995
0.919967
0.916577
0.914102
0.910849
0.907623
0.905254
0.902011
0.899048
0.896794
0.893509
0.890759
0.88848
0.885119
0.882591
0.880286
0.877301
0.874902
0.872474
0.869957
0.867439
0.864938
0.862648
0.860156
0.857999
0.855482
0.852813
0.850534
0.847526
0.844569
0.841512
0.839311
0.838588
0.838148
0.838916
0.842783
0.853701
0.874241
0.907807
0.966775
1.04571
1.12066
1.19077
1.22932
1.25863
1.27781
1.2887
1.29384
1.2947
1.29412
1.29193
1.28692
1.28151
1.27674
1.27319
1.27181
1.27227
1.27311
1.27468
1.27722
1.28033
1.28376
1.28672
1.28814
1.28876
1.28887
1.28818
1.28679
1.28513
1.28301
1.28055
1.27853
1.27712
1.27578
1.27388
1.27126
1.26801
1.26418
1.25999
1.25606
1.25299
1.25046
1.24773
1.24405
1.23889
1.23264
1.22676
1.22062
1.21446
1.21134
1.20964
1.20829
1.20786
1.20645
1.20572
1.20756
1.21416
1.22955
1.25518
1.28873
1.32817
1.36401
1.40278
1.42715
1.43867
1.4511
0.975055
0.971551
0.968232
0.965987
0.962641
0.959301
0.956818
0.953343
0.950385
0.947767
0.943967
0.941138
0.938482
0.934726
0.932116
0.929364
0.925802
0.923295
0.920296
0.916849
0.914424
0.911331
0.908114
0.905818
0.902745
0.899674
0.897427
0.894297
0.891388
0.889212
0.886095
0.883533
0.881353
0.878387
0.876078
0.87381
0.871068
0.86871
0.866488
0.86435
0.861785
0.859525
0.857249
0.854322
0.852177
0.850235
0.849456
0.849565
0.849499
0.850941
0.857917
0.873879
0.898685
0.926346
0.958828
0.998269
1.05337
1.11385
1.17537
1.23191
1.25641
1.27347
1.28324
1.28761
1.29115
1.29184
1.29097
1.28879
1.28596
1.28365
1.28219
1.28171
1.28188
1.28334
1.28569
1.28781
1.28913
1.28977
1.2905
1.29145
1.29214
1.29222
1.29147
1.28989
1.28777
1.28521
1.28213
1.2791
1.27711
1.27566
1.27391
1.27142
1.26816
1.26447
1.26046
1.25625
1.25343
1.25121
1.24842
1.24455
1.23996
1.23449
1.22731
1.22153
1.2167
1.2115
1.20984
1.20838
1.20705
1.20594
1.20439
1.20468
1.20798
1.21703
1.23548
1.26298
1.29676
1.33456
1.36876
1.40367
0.982782
0.98014
0.976817
0.974486
0.971633
0.968216
0.965761
0.962575
0.959367
0.956928
0.953427
0.950302
0.947826
0.944182
0.941277
0.938757
0.935134
0.932465
0.929781
0.926176
0.923656
0.920813
0.917354
0.914978
0.912086
0.908842
0.906522
0.903573
0.900463
0.898226
0.895249
0.892336
0.890255
0.887359
0.884602
0.882548
0.87984
0.877355
0.875128
0.872745
0.870427
0.867967
0.865763
0.863336
0.8611
0.859857
0.85903
0.859287
0.859672
0.860928
0.866308
0.879434
0.900178
0.924448
0.944476
0.957906
0.975399
1.00468
1.04903
1.10951
1.16617
1.21899
1.25954
1.27194
1.28117
1.28677
1.28762
1.29032
1.29246
1.29225
1.29185
1.2914
1.29174
1.29272
1.29402
1.29523
1.29617
1.29661
1.29655
1.29572
1.29461
1.29418
1.29457
1.29503
1.29434
1.29256
1.28981
1.2864
1.28271
1.27928
1.27718
1.27576
1.27403
1.2717
1.26867
1.26476
1.26051
1.25694
1.25373
1.25105
1.2486
1.24532
1.2405
1.23477
1.22921
1.22253
1.21683
1.21296
1.20927
1.20754
1.20632
1.2053
1.20402
1.20289
1.20379
1.20863
1.21941
1.24004
1.26738
1.30077
0.989483
0.987539
0.984777
0.982421
0.980056
0.976847
0.974371
0.971602
0.968259
0.965849
0.96277
0.959414
0.957016
0.953691
0.950473
0.948077
0.944607
0.941647
0.939195
0.935624
0.932884
0.93032
0.926761
0.924222
0.921543
0.91812
0.915739
0.912973
0.909679
0.90739
0.904612
0.901462
0.899248
0.896494
0.893615
0.891448
0.888707
0.886078
0.88392
0.881328
0.879019
0.876789
0.874173
0.871679
0.869388
0.868097
0.867698
0.867957
0.868522
0.870098
0.875269
0.887299
0.906566
0.92938
0.946279
0.955603
0.962228
0.968336
0.980356
1.00702
1.04745
1.10333
1.16001
1.2057
1.245
1.27242
1.28124
1.28797
1.29163
1.29289
1.29547
1.29808
1.30014
1.30147
1.30231
1.30307
1.30417
1.30513
1.30529
1.30457
1.30318
1.30135
1.29906
1.29729
1.29688
1.29697
1.29599
1.29396
1.29105
1.28739
1.28339
1.27979
1.2775
1.2761
1.2745
1.27198
1.2686
1.26496
1.26119
1.25685
1.25336
1.25103
1.24837
1.24498
1.24101
1.23586
1.22915
1.22367
1.21863
1.21284
1.20919
1.20734
1.20556
1.20433
1.20357
1.20197
1.20082
1.2024
1.2082
1.21996
0.994746
0.993342
0.991451
0.989358
0.987444
0.98481
0.982374
0.980053
0.976899
0.974421
0.971792
0.96839
0.965951
0.963053
0.959626
0.957239
0.954104
0.950835
0.948478
0.945139
0.942105
0.939717
0.936243
0.933468
0.931018
0.927518
0.924955
0.92242
0.919008
0.91659
0.913982
0.910718
0.908425
0.905792
0.902665
0.900499
0.897841
0.894957
0.892892
0.890301
0.887563
0.885444
0.882916
0.880287
0.877929
0.875989
0.875347
0.875828
0.876429
0.877996
0.882674
0.894198
0.913876
0.93738
0.954205
0.959971
0.962799
0.966092
0.970092
0.975681
0.986078
1.00839
1.04636
1.09419
1.14977
1.1964
1.23266
1.26227
1.28065
1.28809
1.29598
1.30068
1.30381
1.3078
1.31148
1.3128
1.3127
1.31236
1.31268
1.31349
1.31338
1.31198
1.30929
1.30586
1.30231
1.29975
1.29892
1.29878
1.29771
1.29559
1.29243
1.28837
1.28387
1.27993
1.27786
1.27639
1.27442
1.27196
1.26893
1.26501
1.26074
1.2571
1.25336
1.25014
1.2479
1.24499
1.24064
1.23585
1.23107
1.22498
1.21912
1.21486
1.21029
1.20619
1.20516
1.20355
1.20184
1.20037
1.19876
1.19784
0.998078
0.997237
0.996175
0.994739
0.993293
0.99147
0.989345
0.987437
0.984869
0.982394
0.980162
0.977052
0.974507
0.972012
0.968623
0.966139
0.963401
0.959963
0.957571
0.954591
0.95127
0.948947
0.945748
0.942645
0.940335
0.93699
0.934149
0.931794
0.928384
0.925779
0.923359
0.919997
0.917572
0.915103
0.911869
0.909567
0.907108
0.904005
0.901787
0.899325
0.896582
0.894399
0.891789
0.888849
0.886388
0.884134
0.883414
0.883768
0.884111
0.88529
0.889068
0.899195
0.91863
0.944647
0.964938
0.968533
0.969072
0.97068
0.972137
0.974413
0.977835
0.982684
0.991536
1.00889
1.04113
1.0856
1.13784
1.18568
1.22249
1.25121
1.27622
1.29157
1.29975
1.30926
1.31577
1.3203
1.32356
1.32411
1.3229
1.32114
1.32069
1.32098
1.32004
1.31763
1.31395
1.30947
1.30512
1.30233
1.3014
1.30099
1.29953
1.29705
1.29345
1.28874
1.28409
1.2806
1.27774
1.27589
1.27432
1.27185
1.26844
1.26487
1.26099
1.25655
1.25328
1.25047
1.24705
1.24398
1.24104
1.23696
1.23175
1.22681
1.22151
1.21551
1.21107
1.20738
1.20328
1.20163
1.20022
1.19854
0.999547
0.999222
0.998768
0.998088
0.997221
0.996174
0.994739
0.993274
0.991499
0.989352
0.987462
0.984979
0.982446
0.980279
0.97725
0.974641
0.972252
0.968914
0.966385
0.963785
0.960349
0.957936
0.955117
0.951764
0.949449
0.946411
0.943253
0.940995
0.937781
0.934876
0.932613
0.92931
0.926653
0.92435
0.921086
0.918614
0.916244
0.913139
0.910832
0.908443
0.905431
0.903244
0.900813
0.897851
0.895245
0.892654
0.89118
0.89154
0.891857
0.892591
0.895463
0.903741
0.92204
0.948427
0.973244
0.979419
0.979449
0.979469
0.979063
0.978716
0.979551
0.981736
0.984802
0.988412
0.995015
1.00923
1.03571
1.07563
1.12382
1.17498
1.21349
1.24436
1.26896
1.29181
1.30735
1.31761
1.32798
1.33405
1.33591
1.33518
1.3324
1.32915
1.32781
1.32739
1.32567
1.32258
1.31819
1.31274
1.3077
1.30486
1.30367
1.30295
1.30121
1.29808
1.29391
1.28967
1.28539
1.28075
1.27774
1.27559
1.27327
1.27119
1.26847
1.26458
1.26083
1.2578
1.25432
1.25019
1.24698
1.24381
1.24041
1.2372
1.23328
1.22799
1.22226
1.21743
1.21214
1.20716
1.20339
1.19995
0.999941
0.999874
0.999754
0.999551
0.99922
0.998762
0.998086
0.997205
0.996167
0.994737
0.993255
0.991535
0.989371
0.987485
0.985098
0.982518
0.980393
0.977467
0.974798
0.972492
0.969231
0.966649
0.964165
0.960763
0.958322
0.95565
0.952275
0.949965
0.947097
0.943876
0.941658
0.938613
0.935637
0.933438
0.930279
0.927589
0.925361
0.922192
0.919724
0.917471
0.914469
0.912139
0.90983
0.906755
0.904074
0.901327
0.899449
0.899614
0.899832
0.900067
0.902018
0.908509
0.9245
0.949901
0.977616
0.989661
0.990431
0.99013
0.989385
0.987471
0.986154
0.986356
0.986799
0.98775
0.989912
0.993058
0.99816
1.00957
1.03106
1.0652
1.10854
1.15948
1.20609
1.23829
1.26648
1.29086
1.31369
1.32914
1.33993
1.34583
1.34651
1.34447
1.34015
1.33701
1.33508
1.33348
1.33096
1.32691
1.3214
1.31568
1.31058
1.30702
1.30554
1.30424
1.30199
1.29912
1.29532
1.29037
1.28586
1.28232
1.27809
1.27468
1.27288
1.27044
1.26772
1.26515
1.26199
1.25817
1.25488
1.2516
1.24717
1.24354
1.24067
1.23699
1.2327
1.22857
1.22392
1.21829
1.21299
1.20795
0.999996
0.99999
0.999975
0.999942
0.999875
0.999753
0.999548
0.999213
0.998749
0.998076
0.997182
0.996152
0.994734
0.99323
0.991561
0.989396
0.9875
0.98521
0.982598
0.980498
0.977683
0.974963
0.972722
0.969552
0.966915
0.964535
0.961187
0.958703
0.956176
0.952804
0.950476
0.947782
0.944526
0.942327
0.939452
0.936425
0.934282
0.931278
0.928564
0.926407
0.923395
0.92092
0.918713
0.915764
0.913041
0.910235
0.907612
0.907448
0.907775
0.907749
0.909021
0.914042
0.92741
0.951268
0.979453
0.997492
0.999988
0.999977
0.999547
0.998257
0.996607
0.995241
0.993633
0.99183
0.991776
0.99289
0.995093
0.997779
1.00165
1.01003
1.02697
1.05567
1.09451
1.14166
1.19582
1.23591
1.26598
1.29352
1.32059
1.33992
1.35055
1.3554
1.35522
1.35181
1.34783
1.34448
1.34162
1.33881
1.33499
1.33022
1.32452
1.31847
1.31373
1.31011
1.3064
1.30428
1.3026
1.29965
1.29581
1.29195
1.28747
1.28281
1.27945
1.27598
1.27174
1.26929
1.26739
1.26493
1.26237
1.25946
1.25549
1.25144
1.24827
1.24466
1.24021
1.23645
1.23293
1.22839
1.22349
1.2183
1
1
0.999999
0.999997
0.99999
0.999975
0.999942
0.999873
0.999748
0.999542
0.999202
0.998731
0.998062
0.997155
0.996129
0.994729
0.9932
0.991576
0.989425
0.987509
0.985313
0.982684
0.980593
0.977896
0.975131
0.972936
0.969873
0.967183
0.96489
0.961622
0.959084
0.956692
0.953354
0.950985
0.948467
0.945208
0.943
0.940316
0.937257
0.93515
0.932336
0.929624
0.927519
0.92458
0.921879
0.91925
0.916044
0.915384
0.915578
0.915413
0.916162
0.919987
0.930951
0.952695
0.98074
1.00349
1.00838
1.00876
1.00861
1.0078
1.00703
1.00586
1.00394
1.00106
0.998554
0.997412
0.997499
0.998206
1.00002
1.00241
1.00533
1.01117
1.02371
1.0473
1.08222
1.12714
1.18393
1.23035
1.26647
1.29846
1.32974
1.3503
1.35919
1.36299
1.36258
1.35912
1.35556
1.35164
1.34652
1.34204
1.33789
1.33279
1.32724
1.32241
1.31733
1.31197
1.30857
1.30515
1.30171
1.29955
1.29677
1.29272
1.28879
1.2851
1.28079
1.2768
1.27355
1.26958
1.26615
1.26434
1.26203
1.25893
1.25596
1.25284
1.24913
1.24544
1.24151
1.23635
1.23073
1.22668
1
1
1
1
1
0.999999
0.999997
0.99999
0.999974
0.99994
0.999871
0.999743
0.999533
0.99919
0.99871
0.998045
0.997127
0.9961
0.994726
0.993173
0.991584
0.989463
0.987519
0.985409
0.98278
0.980686
0.978106
0.975304
0.973145
0.970204
0.967457
0.965239
0.962077
0.95948
0.957202
0.953945
0.951515
0.949149
0.945969
0.943711
0.941181
0.938201
0.936113
0.93345
0.930557
0.928128
0.924955
0.92334
0.923201
0.922912
0.923309
0.92616
0.93499
0.954451
0.981656
1.00792
1.01631
1.01702
1.01703
1.01647
1.01635
1.01577
1.01421
1.01147
1.00859
1.00666
1.00476
1.00313
1.00309
1.00343
1.00431
1.00593
1.00817
1.01233
1.02142
1.03984
1.07167
1.11486
1.1726
1.22356
1.26619
1.30438
1.33855
1.35744
1.36674
1.37009
1.37004
1.36798
1.36317
1.35644
1.3499
1.34404
1.33903
1.33509
1.3306
1.32488
1.3201
1.31584
1.31056
1.30601
1.30269
1.29882
1.29596
1.2938
1.29057
1.28638
1.28248
1.2784
1.27394
1.27057
1.26752
1.26376
1.2608
1.25881
1.25629
1.25315
1.24931
1.24481
1.24069
1.2403
1
1
1
1
1
1
1
1
0.999999
0.999997
0.99999
0.999974
0.999939
0.999867
0.999736
0.999524
0.999178
0.998689
0.998029
0.997106
0.996072
0.994728
0.993155
0.991591
0.989513
0.987537
0.985504
0.982895
0.980784
0.978322
0.975495
0.973361
0.970558
0.967745
0.96559
0.962578
0.959916
0.957714
0.954584
0.952122
0.949865
0.946793
0.9445
0.942126
0.939219
0.936842
0.933905
0.931444
0.930782
0.930355
0.930488
0.932557
0.93944
0.956327
0.98232
1.01094
1.02393
1.02526
1.02527
1.02487
1.02495
1.02469
1.02338
1.02113
1.01884
1.01688
1.01497
1.01248
1.01064
1.0094
1.00763
1.00769
1.00852
1.00984
1.01151
1.01391
1.02047
1.03531
1.06404
1.10534
1.16103
1.21882
1.26624
1.30765
1.34448
1.36274
1.37233
1.37832
1.37746
1.37396
1.36787
1.36069
1.35336
1.34593
1.34063
1.33588
1.33197
1.32814
1.32304
1.31779
1.31365
1.30917
1.30391
1.30017
1.29668
1.29277
1.29
1.28731
1.28351
1.27962
1.27626
1.27266
1.26886
1.26542
1.26148
1.25677
1.25387
1.2525
1.25449
1.26577
1
1
1
1
1
1
1
1
1
1
1
0.999999
0.999996
0.99999
0.999973
0.999937
0.999865
0.999731
0.999515
0.999168
0.998672
0.998016
0.997093
0.996051
0.994738
0.993155
0.991604
0.98958
0.987575
0.985611
0.983035
0.980893
0.978555
0.975729
0.973594
0.970933
0.968077
0.965975
0.963129
0.960391
0.95825
0.955333
0.95284
0.950623
0.947694
0.945286
0.942745
0.939871
0.938499
0.937773
0.937598
0.938991
0.944203
0.958143
0.982632
1.01219
1.03109
1.03377
1.0338
1.03342
1.03349
1.0332
1.03184
1.02955
1.02796
1.02648
1.02488
1.02303
1.02086
1.01889
1.01653
1.01435
1.01279
1.01168
1.0118
1.01237
1.01389
1.01604
1.02127
1.03288
1.05682
1.09662
1.14965
1.21513
1.26755
1.31073
1.34553
1.36783
1.37746
1.38373
1.38306
1.37921
1.37334
1.36513
1.35729
1.34949
1.34203
1.33683
1.33247
1.32849
1.32515
1.3212
1.31595
1.31113
1.30698
1.30221
1.29737
1.29373
1.2899
1.28641
1.28432
1.28183
1.27822
1.27405
1.26943
1.26482
1.26303
1.26499
1.28154
1.3379
1
1
1
1
1
1
1
1
1
1
1
1
1
1
0.999999
0.999996
0.99999
0.999972
0.999935
0.999862
0.999727
0.999509
0.999163
0.998662
0.998009
0.997093
0.996042
0.994762
0.993175
0.991631
0.989672
0.987646
0.98573
0.983204
0.981037
0.978824
0.976005
0.973844
0.971355
0.968499
0.966398
0.96372
0.960982
0.958886
0.956158
0.953592
0.95124
0.948308
0.946375
0.945319
0.94475
0.945599
0.949358
0.960161
0.982623
1.01174
1.03679
1.04242
1.04262
1.04227
1.04235
1.04199
1.04023
1.03784
1.03626
1.03481
1.0336
1.03242
1.03086
1.02933
1.02732
1.02465
1.02149
1.01845
1.0165
1.01521
1.0148
1.01528
1.01632
1.01827
1.02225
1.03176
1.05159
1.09051
1.1438
1.21126
1.27152
1.31307
1.34655
1.37042
1.38053
1.38726
1.38746
1.38422
1.37801
1.36962
1.36056
1.35257
1.34547
1.33853
1.33236
1.32875
1.32547
1.32181
1.31812
1.31362
1.30855
1.30435
1.30047
1.29579
1.2918
1.28839
1.28408
1.28004
1.27722
1.27662
1.2804
1.29947
1.37026
1.50264
1
1
1
1
1
1
1
1
1
1
1
1
1
1
1
1
1
0.999999
0.999996
0.999989
0.999972
0.999935
0.999861
0.999725
0.999506
)
;

boundaryField
{
    inlet
    {
        type            fixedValue;
        value           nonuniform 0();
    }
    outlet
    {
        type            zeroGradient;
    }
    bottom
    {
        type            symmetryPlane;
    }
    top
    {
        type            symmetryPlane;
    }
    obstacle
    {
        type            zeroGradient;
    }
    front
    {
        type            empty;
    }
    back
    {
        type            empty;
    }
    procBoundary37to29
    {
        type            processor;
        value           nonuniform List<scalar> 
129
(
0.943464
0.940502
0.936952
0.931853
0.928399
0.925552
0.921353
0.916481
0.927194
1.03243
1.15676
1.25623
1.31419
1.32549
1.32512
1.32048
1.30952
1.29641
1.28226
1.27353
1.26828
1.26253
1.25727
1.25206
1.24684
1.24307
1.24023
1.2387
1.23855
1.23977
1.24099
1.24255
1.24521
1.24938
1.25438
1.25879
1.26181
1.26283
1.26277
1.26258
1.26207
1.26109
1.25957
1.25753
1.255
1.25213
1.24887
1.24535
1.24132
1.23665
1.2309
1.22421
1.21788
1.21099
1.20556
1.20279
1.20137
1.20161
1.20261
1.20637
1.21919
1.24436
1.28925
1.34026
1.39626
1.44246
1.46972
1.49243
1.50653
1.50999
1.50962
1.5082
1.50484
1.50158
1.49783
1.49156
1.48351
1.47365
1.46305
1.45178
1.44099
1.43076
1.42
1.41107
0.913686
0.911666
0.908541
0.903933
0.901478
0.899333
0.89578
0.892698
0.88974
0.886699
0.884509
0.881698
0.878059
0.875622
0.872968
0.869652
0.8671
0.864378
0.861392
0.859025
0.856292
0.852982
0.850511
0.847774
0.844521
0.841815
0.838916
0.835931
0.833018
0.829422
0.825988
0.822825
0.819364
0.81585
0.812625
0.810275
0.80805
0.806126
0.805516
0.805448
0.80543
0.80572
0.807033
0.811216
0.811216
)
;
    }
    procBoundary37to30
    {
        type            processor;
        value           nonuniform List<scalar> 3(1.42068 1.4427 1.46304);
    }
    procBoundary37to36
    {
        type            processor;
        value           uniform 0.961009;
    }
    procBoundary37to38
    {
        type            processor;
        value           nonuniform List<scalar> 
16
(
1.47114
1.4732
1.46016
1.4211
1.33644
1.2407
1.19977
1.19682
1.19751
1.20239
1.21273
1.22616
1.24712
1.31003
1.45764
1.63163
)
;
    }
    procBoundary37to44
    {
        type            processor;
        value           nonuniform List<scalar> 
18
(
0.971474
0.980206
0.987619
0.993443
0.99723
0.999163
0.999848
0.999986
0.999999
1
1
1
1
1
1
1
1
1
)
;
    }
    procBoundary37to45
    {
        type            processor;
        value           nonuniform List<scalar> 
129
(
1
1
1
1
1
1
1
1
0.999162
0.998659
0.99801
0.997107
0.99605
0.994799
0.99322
0.991682
0.989795
0.987745
0.985869
0.983429
0.981231
0.979117
0.976335
0.974153
0.971837
0.969015
0.96689
0.964394
0.961701
0.959499
0.956738
0.954329
0.952915
0.951943
0.952295
0.954833
0.962737
0.982084
1.01042
1.03976
1.051
1.05176
1.05147
1.05155
1.05114
1.04904
1.04642
1.04452
1.04274
1.0416
1.04067
1.03939
1.03865
1.03753
1.03527
1.03211
1.0287
1.02556
1.02281
1.01974
1.01853
1.01839
1.01869
1.01978
1.0212
1.02354
1.03189
1.05076
1.08735
1.14178
1.20496
1.27607
1.31864
1.34852
1.36874
1.38044
1.38858
1.38918
1.38671
1.38038
1.37238
1.36331
1.35519
1.3478
1.34142
1.33596
1.33018
1.32513
1.32125
1.31747
1.31444
1.31154
1.30744
1.3027
1.29809
1.29298
1.28881
1.28787
1.29221
1.31956
1.39539
1.54743
1.67373
1
1
1
1
1
1
1
1
1
1
1
1
1
1
1
1
1
1
1
1
0.999999
0.999997
0.99999
0.999973
0.999162
0.999935
)
;
    }
}


// ************************************************************************* //
