/*--------------------------------*- C++ -*----------------------------------*\
  =========                 |
  \\      /  F ield         | OpenFOAM: The Open Source CFD Toolbox
   \\    /   O peration     | Website:  https://openfoam.org
    \\  /    A nd           | Version:  7
     \\/     M anipulation  |
\*---------------------------------------------------------------------------*/
FoamFile
{
    version     2.0;
    format      ascii;
    class       volScalarField;
    location    "20";
    object      p;
}
// * * * * * * * * * * * * * * * * * * * * * * * * * * * * * * * * * * * * * //

dimensions      [0 2 -2 0 0 0 0];

internalField   nonuniform List<scalar> 
608
(
0.00555413
0.00555676
0.00555963
0.00556144
0.00556067
0.00555526
0.00554369
0.00552301
0.00549213
0.00544697
0.00538662
0.00530807
0.00520673
0.00508781
0.00493567
0.00476954
0.00456437
0.00434248
0.00408914
0.00381023
0.0055143
0.00551459
0.00551467
0.00551392
0.00551113
0.00550482
0.00549304
0.0054743
0.00544584
0.00540666
0.00535291
0.00528405
0.00519698
0.00508836
0.00496231
0.00480549
0.00463567
0.004429
0.00420911
0.00395797
0.00368636
0.00547515
0.0054741
0.00547165
0.00546733
0.00546001
0.0054483
0.00543033
0.0054047
0.00536882
0.00532185
0.00526012
0.00518356
0.00508883
0.00497411
0.00484193
0.00468203
0.00450953
0.00430338
0.00408665
0.00383975
0.00357687
0.00543511
0.00543274
0.0054278
0.00541996
0.00540822
0.00539125
0.00536731
0.00533508
0.00529218
0.00523794
0.00516885
0.0050854
0.00498386
0.00486418
0.00472678
0.0045654
0.00439094
0.00418742
0.00397462
0.00373412
0.00348229
0.00539427
0.0053906
0.00538321
0.00537193
0.00535588
0.00533383
0.00530415
0.00526566
0.00521615
0.00515518
0.00507935
0.0049898
0.00488228
0.00475869
0.00461697
0.00445551
0.00427979
0.00408079
0.00387221
0.00364107
0.00340058
0.00535272
0.00534777
0.005338
0.00532337
0.00530314
0.0052762
0.00524104
0.00519663
0.00514094
0.00507377
0.00499186
0.00489696
0.00478427
0.00465775
0.00451255
0.00435223
0.00417589
0.0039828
0.0037794
0.00355742
0.00333358
0.00531057
0.00530438
0.00529229
0.00527442
0.00525015
0.00521852
0.00517816
0.00512819
0.00506677
0.00499394
0.00490657
0.00480705
0.00468999
0.00456139
0.00441353
0.00425537
0.00407889
0.00389331
0.00369422
0.00348475
0.0032737
0.00526793
0.00526055
0.00524621
0.00522521
0.00519708
0.00516098
0.00511571
0.00506054
0.00499385
0.0049159
0.00482369
0.00472022
0.00459956
0.00446959
0.00431992
0.00416454
0.0039888
0.00381089
0.00361716
0.00341946
0.00322263
0.00522495
0.0052164
0.00519991
0.00517591
0.00514409
0.00510376
0.00505388
0.00499389
0.00492237
0.00483982
0.00474338
0.00463659
0.00451304
0.00438232
0.00423164
0.00407945
0.00390516
0.00373514
0.00354667
0.00336162
0.00317525
0.00518175
0.00517209
0.00515354
0.00512667
0.00509135
0.00504704
0.00499286
0.00492844
0.00485253
0.00476589
0.00466581
0.00455626
0.00443051
0.00429952
0.00414858
0.00399971
0.00382773
0.00366487
0.00348258
0.00330747
0.00313169
0.0051385
0.00512778
0.00510726
0.00507768
0.00503906
0.00499101
0.00493285
0.00486437
0.00478453
0.00469429
0.0045911
0.00447932
0.00435197
0.00422111
0.00407056
0.00392503
0.00375591
0.00359956
0.00342343
0.00325657
0.00308968
0.00509535
0.00508362
0.00506125
0.00502911
0.00498739
0.00493588
0.00487406
0.00480188
0.00471853
0.00462515
0.00451936
0.00440582
0.00427741
0.00414702
0.00399736
0.00385511
0.00368922
0.00353863
0.00336851
0.00320825
0.00304924
0.00505249
0.00503981
0.00501569
0.00498115
0.00493655
0.00488183
0.00481666
0.00474116
0.00465471
0.00455863
0.00445071
0.00433583
0.00420683
0.00407715
0.00392878
0.0037897
0.0036272
0.00348173
0.00331725
0.00316255
0.00301035
0.0050101
0.00499653
0.00497078
0.00493401
0.00488674
0.00482908
0.00476087
0.0046824
0.00459323
0.00449486
0.00438522
0.00426937
0.00414017
0.00401141
0.00386461
0.00372857
0.0035695
0.00342862
0.00326934
0.00311952
0.00297334
0.00496838
0.00495399
0.00492672
0.00488788
0.00483816
0.00477782
0.00470687
0.00462577
0.00453427
0.00443396
0.00432298
0.00420648
0.0040774
0.00394971
0.00380469
0.00367153
0.00351584
0.00337915
0.00322466
0.0030793
0.00293853
0.00492755
0.00491239
0.00488373
0.004843
0.00479103
0.00472826
0.00465487
0.00457146
0.00447795
0.00437606
0.00426407
0.0041472
0.0040185
0.00389199
0.00374885
0.00361846
0.00346605
0.00333322
0.00318317
0.00304198
0.00290614
0.00488782
0.00487197
0.00484202
0.00479957
0.00474557
0.00468062
0.00460507
0.00451966
0.00442445
0.00432126
0.00420856
0.00409154
0.00396343
0.00383817
0.003697
0.00356922
0.00342
0.00329075
0.00314482
0.00300761
0.00287632
0.00484944
0.00483295
0.00480185
0.00475783
0.004702
0.00463512
0.00455767
0.00447053
0.00437392
0.0042697
0.00415653
0.00403956
0.00391219
0.00378822
0.00364904
0.00352374
0.00337759
0.00325168
0.00310961
0.00297619
0.00284913
0.00481264
0.00479558
0.00476344
0.00471801
0.00466056
0.00459197
0.00451287
0.00442426
0.00432649
0.00422149
0.00410805
0.00399128
0.00386477
0.00374211
0.00360492
0.00348196
0.00333874
0.00321596
0.00307749
0.00294769
0.00282454
0.00477769
0.00476012
0.00472704
0.00468038
0.00462149
0.0045514
0.00447089
0.00438104
0.00428234
0.00417676
0.00406322
0.00394677
0.00382118
0.00369982
0.00356459
0.00344382
0.0033034
0.00318352
0.00304841
0.00292202
0.00280249
0.00474486
0.00472683
0.00469293
0.00464518
0.00458503
0.00451365
0.00443193
0.00434106
0.00424162
0.00413563
0.00402212
0.00390607
0.00378146
0.00366136
0.00352802
0.00340929
0.00327152
0.00315431
0.0030223
0.00289911
0.00278287
0.00471442
0.00469598
0.00466138
0.00461267
0.00455145
0.00447896
0.00439623
0.00430452
0.00420451
0.00409824
0.00398488
0.00386928
0.00374565
0.00362675
0.00349522
0.00337835
0.00324305
0.00312828
0.00299912
0.00287887
0.00276558
0.00468665
0.00466788
0.00463266
0.00458314
0.00452099
0.00444758
0.00436401
0.00427163
0.00417119
0.00406476
0.0039516
0.00383649
0.00371381
0.00359603
0.00346619
0.003351
0.00321797
0.00310538
0.00297878
0.00286122
0.00275053
0.00466188
0.00464281
0.00460707
0.00455687
0.00449395
0.00441977
0.00433552
0.0042426
0.00414186
0.00403535
0.00392244
0.0038078
0.00368603
0.00356926
0.00344097
0.00332725
0.00319628
0.00308559
0.00296127
0.00284608
0.00273764
0.00464039
0.00462108
0.00458492
0.00453415
0.00447061
0.00439581
0.00431102
0.00421769
0.00411673
0.0040102
0.00389756
0.00378336
0.00366242
0.00354652
0.00341962
0.00330713
0.00317799
0.0030689
0.00294654
0.00283341
0.00272683
0.00462252
0.00460302
0.00456652
0.00451531
0.00445127
0.00437598
0.00429078
0.00419715
0.00409604
0.00398953
0.00387714
0.00376332
0.0036431
0.00352793
0.00340223
0.00329073
0.00316314
0.00305534
0.00293461
0.0028232
0.00271809
0.00460859
0.00458896
0.0045522
0.00450065
0.00443624
0.0043606
0.00427509
0.00418125
0.00408005
0.00397357
0.0038614
0.0037479
0.00362826
0.00351364
0.00338891
0.00327814
0.00315181
0.00304497
0.00292552
0.00281547
0.00271141
0.00459896
0.00457922
0.0045423
0.00449053
0.00442587
0.00434998
0.00426428
0.0041703
0.00406906
0.0039626
0.0038506
0.00373731
0.0036181
0.00350384
0.00337981
0.00326951
0.00314409
0.0030379
0.00291932
0.00281026
0.00270685
0.00459396
0.00457418
0.00453716
0.00448528
0.0044205
0.00434449
0.00425869
0.00416464
0.00406337
0.00395693
0.00384502
0.00373185
0.00361287
0.00349878
0.00337515
0.00326505
0.00314016
0.00303425
0.00291614
0.00280763
0.00270451
)
;

boundaryField
{
    inlet
    {
        type            zeroGradient;
    }
    outlet
    {
        type            fixedValue;
        value           nonuniform 0();
    }
    cylinder
    {
        type            zeroGradient;
    }
    top
    {
        type            symmetryPlane;
    }
    bottom
    {
        type            symmetryPlane;
    }
    defaultFaces
    {
        type            empty;
    }
    procBoundary48to40
    {
        type            processor;
        value           nonuniform List<scalar> 
22
(
0.00559265
0.00559784
0.00560436
0.00561083
0.0056157
0.00561683
0.00561268
0.00560012
0.00557802
0.00554203
0.00549099
0.00542181
0.00532898
0.00521823
0.00507247
0.00491114
0.00470954
0.00448693
0.00423328
0.00394872
0.00555249
0.00555249
)
;
    }
    procBoundary48to41
    {
        type            processor;
        value           nonuniform List<scalar> 3(0.00351416 0.00339769 0.00329733);
    }
    procBoundary48to49
    {
        type            processor;
        value           nonuniform List<scalar> 
26
(
0.00321211
0.00314571
0.00309019
0.00304545
0.00301064
0.00298078
0.00294786
0.00291366
0.0028789
0.00284474
0.00281211
0.00278157
0.00275341
0.00272776
0.00270464
0.00268399
0.00266568
0.00264959
0.00263556
0.00262349
0.00261327
0.00260479
0.00259802
0.00259296
0.00258962
0.00258799
)
;
    }
}


// ************************************************************************* //
