/*--------------------------------*- C++ -*----------------------------------*\
  =========                 |
  \\      /  F ield         | OpenFOAM: The Open Source CFD Toolbox
   \\    /   O peration     | Website:  https://openfoam.org
    \\  /    A nd           | Version:  7
     \\/     M anipulation  |
\*---------------------------------------------------------------------------*/
FoamFile
{
    version     2.0;
    format      ascii;
    class       volVectorField;
    location    "20";
    object      U;
}
// * * * * * * * * * * * * * * * * * * * * * * * * * * * * * * * * * * * * * //

dimensions      [0 1 -1 0 0 0 0];

internalField   nonuniform List<vector> 
608
(
(0.999998 0.00021163 0)
(0.999996 0.000331962 0)
(0.999993 0.000465721 0)
(0.999992 0.000624039 0)
(0.999993 0.000795611 0)
(0.999996 0.000963894 0)
(1.00001 0.00112084 0)
(1.00002 0.0012657 0)
(1.00006 0.00140569 0)
(1.00009 0.00154221 0)
(1.00016 0.00168658 0)
(1.00022 0.00182658 0)
(1.00032 0.00198726 0)
(1.00044 0.00212016 0)
(1.00053 0.0023048 0)
(1.0008 0.00240316 0)
(1.00078 0.00261221 0)
(1.00129 0.00265962 0)
(1.00111 0.00286986 0)
(1.00186 0.00286791 0)
(1 7.61263e-05 0)
(1 0.000212164 0)
(1 0.000332479 0)
(1 0.000465955 0)
(1 0.000623695 0)
(1.00001 0.000794184 0)
(1.00002 0.000960674 0)
(1.00004 0.00111479 0)
(1.00006 0.00125582 0)
(1.0001 0.00139035 0)
(1.00014 0.00152068 0)
(1.00021 0.00165584 0)
(1.00028 0.001788 0)
(1.00039 0.00193304 0)
(1.00051 0.00205986 0)
(1.00062 0.0022175 0)
(1.00086 0.00231644 0)
(1.00087 0.00248587 0)
(1.00135 0.00253713 0)
(1.00118 0.00270536 0)
(1.00192 0.00270071 0)
(1 7.61755e-05 0)
(1 0.000212184 0)
(1 0.000332183 0)
(1.00001 0.000465037 0)
(1.00001 0.000621798 0)
(1.00003 0.000790779 0)
(1.00004 0.000955055 0)
(1.00007 0.00110597 0)
(1.0001 0.00124284 0)
(1.00014 0.00137171 0)
(1.00019 0.00149556 0)
(1.00027 0.00162162 0)
(1.00034 0.00174559 0)
(1.00046 0.00187577 0)
(1.00057 0.00199612 0)
(1.0007 0.00212808 0)
(1.00092 0.00222865 0)
(1.00096 0.00235749 0)
(1.00139 0.00241915 0)
(1.00125 0.00253877 0)
(1.00195 0.00254197 0)
(1 7.60335e-05 0)
(1 0.000211669 0)
(1.00001 0.000331042 0)
(1.00001 0.000462932 0)
(1.00003 0.000618311 0)
(1.00004 0.000785354 0)
(1.00006 0.000947006 0)
(1.00009 0.00109439 0)
(1.00013 0.00122677 0)
(1.00018 0.00134982 0)
(1.00024 0.00146697 0)
(1.00032 0.0015841 0)
(1.0004 0.00169963 0)
(1.00052 0.00181588 0)
(1.00063 0.00192926 0)
(1.00077 0.00203752 0)
(1.00096 0.00213971 0)
(1.00104 0.00222889 0)
(1.00141 0.00230569 0)
(1.00132 0.00237099 0)
(1.00195 0.00239713 0)
(1 7.56931e-05 0)
(1 0.0002106 0)
(1.00001 0.000329031 0)
(1.00002 0.000459607 0)
(1.00004 0.000613198 0)
(1.00006 0.000777879 0)
(1.00008 0.000936506 0)
(1.00012 0.00108002 0)
(1.00016 0.00120767 0)
(1.00022 0.00132476 0)
(1.00028 0.00143507 0)
(1.00037 0.00154348 0)
(1.00045 0.00165042 0)
(1.00058 0.00175375 0)
(1.00068 0.00185975 0)
(1.00084 0.00194623 0)
(1.00099 0.0020507 0)
(1.00113 0.00209953 0)
(1.0014 0.00219999 0)
(1.0014 0.00220033 0)
(1.00192 0.00226737 0)
(1 7.51474e-05 0)
(1.00001 0.00020896 0)
(1.00001 0.000326126 0)
(1.00003 0.000455037 0)
(1.00005 0.000606433 0)
(1.00007 0.000768329 0)
(1.00011 0.000923546 0)
(1.00015 0.00106289 0)
(1.0002 0.00118557 0)
(1.00026 0.00129662 0)
(1.00033 0.00140001 0)
(1.00042 0.0015 0)
(1.0005 0.00159818 0)
(1.00064 0.00168997 0)
(1.00072 0.00178741 0)
(1.00091 0.00185616 0)
(1.001 0.00195941 0)
(1.00122 0.00197401 0)
(1.00135 0.00209972 0)
(1.00154 0.00202246 0)
(1.00179 0.00218001 0)
(1 7.43906e-05 0)
(1.00001 0.000206733 0)
(1.00002 0.000322308 0)
(1.00003 0.0004492 0)
(1.00006 0.000597994 0)
(1.00009 0.000756691 0)
(1.00012 0.000908125 0)
(1.00017 0.00104303 0)
(1.00023 0.00116054 0)
(1.0003 0.00126551 0)
(1.00037 0.00136194 0)
(1.00047 0.00145388 0)
(1.00054 0.00154317 0)
(1.00069 0.00162507 0)
(1.00076 0.00171198 0)
(1.00098 0.00176981 0)
(1.001 0.00186081 0)
(1.00132 0.00186623 0)
(1.00127 0.00197662 0)
(1.00171 0.00189331 0)
(1.00154 0.00204079 0)
(1 7.34172e-05 0)
(1.00001 0.000203905 0)
(1.00002 0.00031756 0)
(1.00004 0.00044208 0)
(1.00007 0.000587869 0)
(1.0001 0.000742958 0)
(1.00014 0.000890254 0)
(1.0002 0.00102046 0)
(1.00026 0.00113265 0)
(1.00033 0.00123154 0)
(1.0004 0.00132105 0)
(1.00051 0.00140529 0)
(1.00058 0.00148581 0)
(1.00074 0.00155901 0)
(1.00079 0.00163476 0)
(1.00103 0.00168552 0)
(1.00101 0.00175959 0)
(1.00138 0.00176892 0)
(1.00123 0.00184276 0)
(1.0018 0.00179982 0)
(1.00143 0.00185799 0)
(1 7.2223e-05 0)
(1.00001 0.000200467 0)
(1.00002 0.00031187 0)
(1.00005 0.000433665 0)
(1.00008 0.000576052 0)
(1.00011 0.000727134 0)
(1.00016 0.000869953 0)
(1.00022 0.000995227 0)
(1.00028 0.00110198 0)
(1.00036 0.00119481 0)
(1.00044 0.00127753 0)
(1.00054 0.00135442 0)
(1.00062 0.00142645 0)
(1.00078 0.00149185 0)
(1.00082 0.00155671 0)
(1.00107 0.00160202 0)
(1.00102 0.0016601 0)
(1.00143 0.00167284 0)
(1.0012 0.00171995 0)
(1.00185 0.00169739 0)
(1.00136 0.00171733 0)
(1 7.08042e-05 0)
(1.00001 0.000196409 0)
(1.00003 0.000305229 0)
(1.00005 0.00042395 0)
(1.00009 0.000562542 0)
(1.00013 0.000709229 0)
(1.00018 0.000847252 0)
(1.00024 0.000967389 0)
(1.00031 0.00106863 0)
(1.00039 0.00115545 0)
(1.00047 0.00123155 0)
(1.00058 0.00130145 0)
(1.00066 0.00136544 0)
(1.00081 0.00142368 0)
(1.00085 0.00147847 0)
(1.00111 0.00151906 0)
(1.00103 0.00156308 0)
(1.00147 0.0015787 0)
(1.00118 0.00160441 0)
(1.00187 0.0015983 0)
(1.00132 0.00159018 0)
(1 6.91581e-05 0)
(1.00001 0.000191727 0)
(1.00003 0.000297633 0)
(1.00006 0.000412936 0)
(1.00009 0.000547348 0)
(1.00014 0.000689264 0)
(1.00019 0.000822188 0)
(1.00026 0.000937004 0)
(1.00033 0.00103268 0)
(1.00042 0.00111359 0)
(1.0005 0.00118329 0)
(1.00061 0.00124654 0)
(1.00069 0.00130303 0)
(1.00085 0.00135464 0)
(1.00088 0.00140046 0)
(1.00114 0.00143652 0)
(1.00105 0.00146931 0)
(1.00149 0.00148539 0)
(1.00117 0.00149799 0)
(1.00189 0.00149821 0)
(1.00129 0.00148047 0)
(1 6.72831e-05 0)
(1.00001 0.000186416 0)
(1.00003 0.00028908 0)
(1.00006 0.000400627 0)
(1.0001 0.000530483 0)
(1.00015 0.000667263 0)
(1.00021 0.000794804 0)
(1.00028 0.000904141 0)
(1.00035 0.000994231 0)
(1.00044 0.00106934 0)
(1.00053 0.00113292 0)
(1.00064 0.00118988 0)
(1.00071 0.00123944 0)
(1.00087 0.00128492 0)
(1.0009 0.00132288 0)
(1.00116 0.00135457 0)
(1.00106 0.0013785 0)
(1.00151 0.00139375 0)
(1.00117 0.00139798 0)
(1.00189 0.00140045 0)
(1.00127 0.0013793 0)
(1 6.51783e-05 0)
(1.00001 0.000180476 0)
(1.00004 0.000279574 0)
(1.00007 0.000387032 0)
(1.00011 0.000511967 0)
(1.00016 0.000643261 0)
(1.00022 0.000765152 0)
(1.0003 0.000868873 0)
(1.00037 0.000953381 0)
(1.00046 0.00102283 0)
(1.00055 0.00108057 0)
(1.00066 0.00113162 0)
(1.00074 0.00117486 0)
(1.0009 0.00121467 0)
(1.00092 0.00124583 0)
(1.00118 0.00127337 0)
(1.00106 0.00129039 0)
(1.00152 0.00130396 0)
(1.00116 0.00130301 0)
(1.00189 0.00130528 0)
(1.00125 0.00128392 0)
(1 6.28437e-05 0)
(1.00001 0.000173909 0)
(1.00004 0.000269122 0)
(1.00007 0.000372168 0)
(1.00012 0.000491824 0)
(1.00017 0.000617296 0)
(1.00024 0.000733286 0)
(1.00031 0.000831275 0)
(1.00039 0.000910226 0)
(1.00048 0.000974189 0)
(1.00057 0.0010264 0)
(1.00068 0.00107191 0)
(1.00076 0.0011094 0)
(1.00092 0.00114403 0)
(1.00094 0.00116933 0)
(1.00119 0.00119301 0)
(1.00107 0.00120458 0)
(1.00153 0.00121617 0)
(1.00115 0.00121183 0)
(1.00189 0.00121298 0)
(1.00123 0.00119233 0)
(1 6.02803e-05 0)
(1.00002 0.000166719 0)
(1.00004 0.000257734 0)
(1.00008 0.000356052 0)
(1.00012 0.000470085 0)
(1.00018 0.00058941 0)
(1.00025 0.000699266 0)
(1.00033 0.00079142 0)
(1.00041 0.000864864 0)
(1.0005 0.000923515 0)
(1.00059 0.000970508 0)
(1.0007 0.00101087 0)
(1.00078 0.00104318 0)
(1.00093 0.00107309 0)
(1.00095 0.00109337 0)
(1.00121 0.00111352 0)
(1.00108 0.00112075 0)
(1.00153 0.00113034 0)
(1.00115 0.00112365 0)
(1.00188 0.00112341 0)
(1.00122 0.00110361 0)
(1 5.749e-05 0)
(1.00002 0.000158912 0)
(1.00004 0.000245423 0)
(1.00008 0.000338708 0)
(1.00013 0.000446785 0)
(1.00019 0.000559652 0)
(1.00026 0.000663154 0)
(1.00034 0.000749387 0)
(1.00042 0.000817384 0)
(1.00052 0.000870914 0)
(1.00061 0.000913011 0)
(1.00072 0.000948615 0)
(1.0008 0.000976275 0)
(1.00095 0.00100191 0)
(1.00096 0.00101792 0)
(1.00121 0.00103488 0)
(1.00108 0.00103864 0)
(1.00153 0.00104635 0)
(1.00115 0.00103794 0)
(1.00187 0.00103638 0)
(1.00121 0.00101734 0)
(1 5.44756e-05 0)
(1.00002 0.000150497 0)
(1.00005 0.000232206 0)
(1.00008 0.000320161 0)
(1.00013 0.000421959 0)
(1.0002 0.00052807 0)
(1.00027 0.000625014 0)
(1.00035 0.000705251 0)
(1.00044 0.000767873 0)
(1.00053 0.00081648 0)
(1.00062 0.000853993 0)
(1.00074 0.000885218 0)
(1.00081 0.000908723 0)
(1.00096 0.000930542 0)
(1.00098 0.0009429 0)
(1.00122 0.000957042 0)
(1.00109 0.000958001 0)
(1.00153 0.000964037 0)
(1.00114 0.000954355 0)
(1.00186 0.00095168 0)
(1.00119 0.000933307 0)
(1 5.12403e-05 0)
(1.00002 0.000141484 0)
(1.00005 0.000218101 0)
(1.00009 0.00030044 0)
(1.00014 0.000395649 0)
(1.0002 0.000494717 0)
(1.00028 0.000584907 0)
(1.00036 0.000659087 0)
(1.00045 0.000716409 0)
(1.00055 0.000760292 0)
(1.00064 0.000793529 0)
(1.00075 0.000820743 0)
(1.00082 0.000840554 0)
(1.00097 0.000858979 0)
(1.00098 0.00086825 0)
(1.00122 0.000879926 0)
(1.00109 0.000878645 0)
(1.00153 0.000883257 0)
(1.00114 0.000872638 0)
(1.00185 0.000869129 0)
(1.00118 0.000851389 0)
(1 4.77885e-05 0)
(1.00002 0.000131887 0)
(1.00005 0.000203129 0)
(1.00009 0.000279575 0)
(1.00014 0.000367895 0)
(1.00021 0.000459644 0)
(1.00029 0.000542896 0)
(1.00037 0.000610963 0)
(1.00046 0.000663065 0)
(1.00056 0.000702419 0)
(1.00065 0.000731675 0)
(1.00076 0.000755233 0)
(1.00083 0.000771777 0)
(1.00098 0.000787206 0)
(1.00099 0.000793887 0)
(1.00123 0.000803438 0)
(1.00109 0.000800395 0)
(1.00152 0.000803847 0)
(1.00113 0.000792589 0)
(1.00183 0.00078855 0)
(1.00117 0.000771472 0)
(1 4.41249e-05 0)
(1.00002 0.000121718 0)
(1.00005 0.000187314 0)
(1.00009 0.0002576 0)
(1.00015 0.000338741 0)
(1.00021 0.000422906 0)
(1.00029 0.00049904 0)
(1.00038 0.000560944 0)
(1.00047 0.000607903 0)
(1.00057 0.000642919 0)
(1.00066 0.000668473 0)
(1.00077 0.000688709 0)
(1.00084 0.000702378 0)
(1.00098 0.000715189 0)
(1.001 0.000719718 0)
(1.00123 0.000727474 0)
(1.0011 0.000723085 0)
(1.00151 0.000725647 0)
(1.00113 0.000714023 0)
(1.00182 0.000709759 0)
(1.00116 0.000693424 0)
(1 4.02549e-05 0)
(1.00002 0.000110993 0)
(1.00005 0.000170678 0)
(1.00009 0.000234548 0)
(1.00015 0.00030823 0)
(1.00022 0.000384553 0)
(1.0003 0.000453397 0)
(1.00039 0.000509088 0)
(1.00048 0.000550979 0)
(1.00058 0.000581835 0)
(1.00067 0.000603948 0)
(1.00078 0.000621176 0)
(1.00085 0.000632329 0)
(1.00099 0.000642873 0)
(1.001 0.000645642 0)
(1.00123 0.000651917 0)
(1.0011 0.000646548 0)
(1.00151 0.000648488 0)
(1.00113 0.000636756 0)
(1.0018 0.00063256 0)
(1.00116 0.000617075 0)
(1 3.61844e-05 0)
(1.00002 9.97289e-05 0)
(1.00005 0.000153248 0)
(1.0001 0.000210452 0)
(1.00015 0.000276403 0)
(1.00022 0.000344635 0)
(1.0003 0.000406021 0)
(1.00039 0.000455447 0)
(1.00049 0.000492336 0)
(1.00058 0.0005192 0)
(1.00068 0.000538112 0)
(1.00078 0.000552623 0)
(1.00086 0.000561584 0)
(1.00099 0.000570187 0)
(1.00101 0.000571542 0)
(1.00122 0.000576635 0)
(1.0011 0.00057061 0)
(1.0015 0.000572189 0)
(1.00113 0.000560584 0)
(1.00179 0.000556732 0)
(1.00115 0.000542217 0)
(1 3.19196e-05 0)
(1.00002 8.79419e-05 0)
(1.00005 0.00013505 0)
(1.0001 0.000185346 0)
(1.00016 0.000243304 0)
(1.00023 0.000303201 0)
(1.00031 0.000356962 0)
(1.0004 0.000400067 0)
(1.00049 0.00043201 0)
(1.00059 0.000455031 0)
(1.00068 0.000470962 0)
(1.00079 0.000483019 0)
(1.00086 0.00049008 0)
(1.00099 0.000497039 0)
(1.00101 0.000497289 0)
(1.00122 0.000501477 0)
(1.0011 0.00049508 0)
(1.00149 0.000496546 0)
(1.00112 0.000485284 0)
(1.00177 0.00048203 0)
(1.00114 0.000468609 0)
(1 2.74674e-05 0)
(1.00002 7.56505e-05 0)
(1.00005 0.000116108 0)
(1.0001 0.000159265 0)
(1.00016 0.000208972 0)
(1.00023 0.000260295 0)
(1.00031 0.000306265 0)
(1.0004 0.000342988 0)
(1.0005 0.000370027 0)
(1.00059 0.000389336 0)
(1.00069 0.000402477 0)
(1.00079 0.000412318 0)
(1.00087 0.000417736 0)
(1.00099 0.000423321 0)
(1.00101 0.000422733 0)
(1.00122 0.000426273 0)
(1.0011 0.00041975 0)
(1.00148 0.000421334 0)
(1.00112 0.000410605 0)
(1.00175 0.000408179 0)
(1.00114 0.000395967 0)
(1 2.28349e-05 0)
(1.00002 6.2874e-05 0)
(1.00005 9.6452e-05 0)
(1.0001 0.000132241 0)
(1.00016 0.000173448 0)
(1.00023 0.00021596 0)
(1.00031 0.000253971 0)
(1.00041 0.000284241 0)
(1.0005 0.000306403 0)
(1.0006 0.000322107 0)
(1.00069 0.000332626 0)
(1.00079 0.000340452 0)
(1.00087 0.000344456 0)
(1.00099 0.000348895 0)
(1.00101 0.000347712 0)
(1.00121 0.000350821 0)
(1.0011 0.000344394 0)
(1.00147 0.0003463 0)
(1.00112 0.000336271 0)
(1.00174 0.000334877 0)
(1.00114 0.000323971 0)
(1 1.803e-05 0)
(1.00002 4.96324e-05 0)
(1.00006 7.61082e-05 0)
(1.0001 0.00010431 0)
(1.00016 0.00013677 0)
(1.00023 0.000170237 0)
(1.00032 0.000200118 0)
(1.00041 0.000223851 0)
(1.0005 0.000241145 0)
(1.0006 0.000253325 0)
(1.00069 0.000261359 0)
(1.0008 0.000267337 0)
(1.00087 0.000270123 0)
(1.00099 0.000273606 0)
(1.00101 0.000272037 0)
(1.00121 0.000274898 0)
(1.0011 0.000268762 0)
(1.00146 0.00027116 0)
(1.00112 0.000261974 0)
(1.00173 0.000261789 0)
(1.00114 0.000252266 0)
(1 1.30609e-05 0)
(1.00002 3.59471e-05 0)
(1.00006 5.51061e-05 0)
(1.0001 7.5504e-05 0)
(1.00016 9.89771e-05 0)
(1.00023 0.000123166 0)
(1.00032 0.000144739 0)
(1.00041 0.000161839 0)
(1.00051 0.000174252 0)
(1.0006 0.000182958 0)
(1.0007 0.000188616 0)
(1.0008 0.000192861 0)
(1.00087 0.000194614 0)
(1.00099 0.000197238 0)
(1.00101 0.000195546 0)
(1.00121 0.000198178 0)
(1.0011 0.000192655 0)
(1.00145 0.000195521 0)
(1.00113 0.00018744 0)
(1.00171 0.000188533 0)
(1.00114 0.000180466 0)
(1 7.93696e-06 0)
(1.00002 2.18413e-05 0)
(1.00006 3.34758e-05 0)
(1.0001 4.58593e-05 0)
(1.00016 6.01074e-05 0)
(1.00024 7.47851e-05 0)
(1.00032 8.78649e-05 0)
(1.00041 9.82204e-05 0)
(1.00051 0.000105714 0)
(1.00061 0.000110962 0)
(1.0007 0.000114318 0)
(1.0008 0.0001169 0)
(1.00087 0.000117772 0)
(1.00099 0.000119576 0)
(1.00102 0.000118011 0)
(1.0012 0.000120344 0)
(1.0011 0.000115803 0)
(1.00144 0.00011897 0)
(1.00113 0.000112367 0)
(1.0017 0.000114639 0)
(1.00114 0.000108251 0)
(1 2.66875e-06 0)
(1.00002 7.34311e-06 0)
(1.00006 1.12537e-05 0)
(1.0001 1.54157e-05 0)
(1.00016 2.02041e-05 0)
(1.00024 2.5136e-05 0)
(1.00032 2.95292e-05 0)
(1.00041 3.30054e-05 0)
(1.00051 3.55159e-05 0)
(1.00061 3.72761e-05 0)
(1.0007 3.83838e-05 0)
(1.0008 3.92679e-05 0)
(1.00087 3.94943e-05 0)
(1.00099 4.02035e-05 0)
(1.00102 3.94649e-05 0)
(1.0012 4.05701e-05 0)
(1.00111 3.85532e-05 0)
(1.00144 4.0239e-05 0)
(1.00113 3.72847e-05 0)
(1.00169 3.87889e-05 0)
(1.00115 3.59372e-05 0)
)
;

boundaryField
{
    inlet
    {
        type            uniformFixedValue;
        uniformValue    constant (1 0 0);
        value           uniform (1 0 0);
    }
    outlet
    {
        type            pressureInletOutletVelocity;
        value           nonuniform 0();
    }
    cylinder
    {
        type            fixedValue;
        value           nonuniform 0();
    }
    top
    {
        type            symmetryPlane;
    }
    bottom
    {
        type            symmetryPlane;
    }
    defaultFaces
    {
        type            empty;
    }
    procBoundary48to40
    {
        type            processor;
        value           nonuniform List<vector> 
22
(
(0.999997 0.000210603 0)
(0.999992 0.000330661 0)
(0.999986 0.000464375 0)
(0.99998 0.000622879 0)
(0.999976 0.000795108 0)
(0.999973 0.000964758 0)
(0.999977 0.00112415 0)
(0.999985 0.00127246 0)
(1.00001 0.00141766 0)
(1.00004 0.00156001 0)
(1.00009 0.00171367 0)
(1.00015 0.00186103 0)
(1.00024 0.00203812 0)
(1.00037 0.00217642 0)
(1.00044 0.00238972 0)
(1.00073 0.00248735 0)
(1.00069 0.00273722 0)
(1.00122 0.00278275 0)
(1.00103 0.00303547 0)
(1.00179 0.0030374 0)
(1 7.58938e-05 0)
(1 7.58938e-05 0)
)
;
    }
    procBoundary48to41
    {
        type            processor;
        value           nonuniform List<vector> 3((1.00155 0.00305656 0) (1.00159 0.00285197 0) (1.00161 0.00265049 0));
    }
    procBoundary48to49
    {
        type            processor;
        value           nonuniform List<vector> 
26
(
(1.00164 0.0024429 0)
(1.00167 0.00224443 0)
(1.00179 0.0019939 0)
(1.00212 0.00183306 0)
(1.00222 0.00177239 0)
(1.00225 0.00166928 0)
(1.00225 0.00157337 0)
(1.00224 0.00147245 0)
(1.00222 0.00137388 0)
(1.00221 0.00127805 0)
(1.00219 0.00118514 0)
(1.00217 0.00109508 0)
(1.00215 0.00100771 0)
(1.00213 0.000922909 0)
(1.0021 0.000840581 0)
(1.00208 0.000760614 0)
(1.00206 0.000682856 0)
(1.00204 0.000607109 0)
(1.00201 0.000533136 0)
(1.00199 0.00046066 0)
(1.00197 0.000389373 0)
(1.00195 0.000318924 0)
(1.00193 0.000248925 0)
(1.00192 0.00017899 0)
(1.0019 0.000108604 0)
(1.00189 3.66831e-05 0)
)
;
    }
}


// ************************************************************************* //
