/*--------------------------------*- C++ -*----------------------------------*\
  =========                 |
  \\      /  F ield         | OpenFOAM: The Open Source CFD Toolbox
   \\    /   O peration     | Website:  https://openfoam.org
    \\  /    A nd           | Version:  7
     \\/     M anipulation  |
\*---------------------------------------------------------------------------*/
FoamFile
{
    version     2.0;
    format      ascii;
    class       volScalarField;
    location    "18";
    object      rho;
}
// * * * * * * * * * * * * * * * * * * * * * * * * * * * * * * * * * * * * * //

dimensions      [1 -3 0 0 0 0 0];

internalField   nonuniform List<scalar> 
2413
(
1.51603
1.50674
1.50059
1.4956
1.48858
1.48547
1.48472
1.48509
1.52943
1.52244
1.5142
1.50913
1.50292
1.49499
1.49152
1.48955
1.54096
1.53579
1.52826
1.52217
1.51721
1.50999
1.5027
1.49908
1.55186
1.54776
1.54152
1.53515
1.53057
1.52506
1.5178
1.51214
1.56258
1.55887
1.55416
1.54773
1.54312
1.53885
1.53275
1.5266
1.57411
1.56914
1.56535
1.55936
1.55346
1.5494
1.54428
1.5379
1.5828
1.57578
1.5715
1.56632
1.55936
1.55417
1.54952
1.54345
1.58661
1.57922
1.57334
1.56868
1.56243
1.55618
1.55148
1.5459
1.58825
1.58159
1.57464
1.5695
1.56412
1.5579
1.55247
1.54698
1.58786
1.58165
1.57509
1.56941
1.56404
1.55801
1.55206
1.54636
1.58633
1.58014
1.57435
1.56849
1.56251
1.55607
1.54966
1.54387
1.58532
1.57882
1.5728
1.56659
1.5598
1.5528
1.54652
1.54124
1.58672
1.57953
1.57162
1.56435
1.55748
1.55077
1.54488
1.54013
1.5876
1.58037
1.57174
1.56423
1.55804
1.55194
1.54574
1.54056
1.58819
1.58186
1.57472
1.5675
1.56129
1.5555
1.54906
1.54246
1.58744
1.5835
1.57912
1.57307
1.56629
1.56045
1.55415
1.54683
1.58324
1.58256
1.58159
1.5787
1.57344
1.56684
1.56051
1.55365
1.57934
1.58198
1.58152
1.5804
1.57793
1.57417
1.56934
1.56342
1.55671
1.57011
1.57722
1.57816
1.57811
1.57776
1.57659
1.57364
1.55854
1.55613
1.55258
1.54905
1.54541
1.54184
1.53902
1.53758
1.53829
1.54119
1.54795
1.56048
1.57769
1.59359
1.60372
1.60552
1.60505
1.60394
1.60149
1.59669
1.59133
1.58572
1.5788
1.57229
1.56762
1.56291
1.55684
1.55178
1.54779
1.54301
1.53637
1.53146
1.52752
1.52249
1.51623
1.51212
1.50819
1.50285
1.497
1.49332
1.48953
1.48427
1.47994
1.47739
1.47388
1.46933
1.46593
1.46266
1.45809
1.45431
1.45214
1.44934
1.44532
1.44238
1.43996
1.43662
1.43203
1.42818
1.42522
1.42153
1.41633
1.41315
1.41085
1.40768
1.40331
1.4006
1.39838
1.39559
1.39228
1.38908
1.38713
1.38493
1.38234
1.37974
1.37823
1.37678
1.48612
1.48801
1.49183
1.50069
1.51486
1.53658
1.56271
1.58666
1.60979
1.62742
1.64092
1.64698
1.64837
1.65151
1.65505
1.65658
1.65724
1.65731
1.65722
1.65622
1.65375
1.64987
1.64511
1.64037
1.63541
1.63049
1.62565
1.6205
1.61577
1.61225
1.60922
1.60619
1.60329
1.60021
1.59707
1.59438
1.5921
1.5896
1.58692
1.58472
1.58253
1.57983
1.57761
1.57531
1.57193
1.56916
1.56602
1.56226
1.55937
1.55564
1.5519
1.54918
1.54834
1.54946
1.55334
1.56178
1.57596
1.59248
1.60792
1.61545
1.61644
1.61613
1.61491
1.6116
1.60724
1.60212
1.59542
1.58912
1.58406
1.57902
1.57288
1.56784
1.56388
1.55916
1.55262
1.54745
1.54322
1.53776
1.53079
1.52629
1.52218
1.51646
1.5104
1.50614
1.5017
1.49541
1.49015
1.48643
1.48204
1.47628
1.47265
1.46941
1.46465
1.45969
1.45632
1.45275
1.44764
1.4439
1.44133
1.43789
1.43302
1.42936
1.42622
1.4221
1.41646
1.4117
1.40799
1.40372
1.39779
1.39359
1.39025
1.38623
1.3819
1.37769
1.37428
1.37103
1.36717
1.36328
1.36049
1.3576
1.48815
1.48834
1.48924
1.49075
1.49329
1.49963
1.51261
1.53192
1.55587
1.57964
1.60381
1.62146
1.63344
1.64227
1.64879
1.65426
1.65534
1.65703
1.6591
1.65885
1.65801
1.65837
1.6594
1.6585
1.65603
1.65215
1.64776
1.64342
1.63893
1.63464
1.6307
1.62658
1.62217
1.61839
1.61547
1.61245
1.60958
1.60673
1.60309
1.59976
1.59758
1.59523
1.59262
1.59004
1.58686
1.58354
1.58072
1.57715
1.57381
1.57028
1.56588
1.56265
1.56049
1.56
1.5615
1.56617
1.57599
1.59043
1.60666
1.62114
1.62694
1.6275
1.62715
1.62519
1.62202
1.6176
1.61105
1.60507
1.59951
1.59394
1.58787
1.58248
1.57812
1.57353
1.56733
1.56232
1.55839
1.55327
1.54629
1.54146
1.53724
1.53123
1.52487
1.52055
1.51593
1.5094
1.50375
1.49929
1.4941
1.48747
1.48294
1.47889
1.47361
1.46823
1.46467
1.46069
1.45493
1.4496
1.44587
1.44175
1.43584
1.43139
1.42811
1.42404
1.41849
1.41378
1.40997
1.40557
1.39947
1.39459
1.39086
1.38652
1.38132
1.37691
1.37347
1.37009
1.366
1.36176
1.35884
1.35581
1.4958
1.49221
1.49137
1.49178
1.49258
1.49334
1.49519
1.50013
1.51045
1.52663
1.54861
1.57112
1.593
1.61387
1.62462
1.6346
1.64446
1.65177
1.65704
1.65771
1.65731
1.65932
1.66125
1.66127
1.66023
1.65942
1.65898
1.658
1.65647
1.65406
1.65052
1.64648
1.6423
1.63825
1.63506
1.63202
1.62818
1.62456
1.62136
1.61799
1.61528
1.6126
1.60927
1.60566
1.60251
1.59968
1.59693
1.59365
1.59007
1.5863
1.58193
1.5781
1.57512
1.5728
1.57256
1.57426
1.57947
1.58988
1.60448
1.62215
1.6351
1.63845
1.63863
1.63744
1.6353
1.63176
1.62542
1.61963
1.61391
1.60737
1.60165
1.59624
1.59089
1.58632
1.58059
1.575
1.57096
1.56615
1.55932
1.55449
1.55059
1.54493
1.53854
1.53426
1.5297
1.52313
1.51755
1.513
1.50762
1.50082
1.49561
1.49082
1.48464
1.47804
1.47366
1.46925
1.46362
1.45847
1.45423
1.4493
1.4425
1.43661
1.43236
1.42768
1.42148
1.41677
1.41294
1.4085
1.40259
1.39742
1.39348
1.38908
1.38362
1.37924
1.37564
1.37198
1.36789
1.36336
1.36075
1.35798
1.50823
1.50343
1.49884
1.49762
1.49627
1.49482
1.49519
1.49523
1.49565
1.49835
1.50647
1.52074
1.53784
1.55785
1.57981
1.59927
1.61425
1.62585
1.63674
1.64442
1.65066
1.65593
1.65939
1.66021
1.65862
1.6583
1.65836
1.65792
1.65772
1.65652
1.65514
1.65382
1.65208
1.64967
1.64716
1.64421
1.64101
1.63748
1.63487
1.63294
1.63057
1.6276
1.62446
1.62095
1.61782
1.61529
1.61242
1.60868
1.60519
1.60208
1.59826
1.59442
1.5906
1.58659
1.58436
1.58453
1.58671
1.59248
1.60341
1.61805
1.63419
1.64543
1.64759
1.64753
1.64635
1.64403
1.63871
1.63301
1.6274
1.61961
1.61348
1.60831
1.60183
1.59661
1.592
1.58622
1.58162
1.57735
1.57107
1.56552
1.56146
1.55597
1.54915
1.54481
1.54044
1.53392
1.52845
1.52424
1.51901
1.51254
1.50746
1.50255
1.49634
1.4897
1.48458
1.47933
1.47225
1.46595
1.46148
1.45667
1.4505
1.44484
1.43991
1.43448
1.42756
1.42199
1.41757
1.41271
1.40662
1.40186
1.39815
1.39393
1.38835
1.38415
1.38052
1.37648
1.37222
1.3679
1.36513
1.36251
1.52249
1.51817
1.51205
1.50816
1.50551
1.50144
1.49823
1.49762
1.49646
1.49379
1.49351
1.49502
1.49971
1.50909
1.52303
1.53902
1.55766
1.57684
1.59284
1.60763
1.62175
1.63164
1.63795
1.64363
1.6502
1.65489
1.65695
1.65659
1.65375
1.65222
1.65186
1.6519
1.6519
1.65021
1.64789
1.646
1.64406
1.64151
1.63904
1.63734
1.63482
1.63152
1.6292
1.6278
1.62586
1.62332
1.62051
1.61695
1.61344
1.61104
1.60806
1.60434
1.60088
1.59675
1.59346
1.59256
1.59238
1.59408
1.59951
1.61029
1.62639
1.64053
1.65105
1.65411
1.65456
1.65379
1.65021
1.64493
1.63965
1.63183
1.62487
1.61957
1.61283
1.60571
1.60107
1.59504
1.58902
1.58536
1.58028
1.57454
1.57045
1.5655
1.5586
1.55365
1.54933
1.54312
1.53723
1.53281
1.52735
1.52028
1.51529
1.51088
1.50526
1.49948
1.49463
1.48926
1.48213
1.47541
1.47016
1.46457
1.45754
1.45194
1.44743
1.44239
1.43607
1.43062
1.42591
1.4208
1.41458
1.40962
1.40568
1.40147
1.39594
1.39186
1.38871
1.3849
1.38055
1.37658
1.37359
1.37075
1.53372
1.53013
1.52442
1.5192
1.51604
1.51144
1.50503
1.5026
1.50014
1.49558
1.49252
1.49045
1.48693
1.48686
1.48884
1.49328
1.50138
1.51326
1.52715
1.54244
1.55826
1.57406
1.58991
1.60249
1.61302
1.62151
1.63042
1.63604
1.63915
1.64335
1.647
1.64716
1.64518
1.64269
1.6419
1.64195
1.64258
1.64131
1.63949
1.63771
1.63489
1.63085
1.62895
1.62885
1.62735
1.6239
1.62099
1.61888
1.61601
1.61314
1.61035
1.60621
1.6023
1.59935
1.59551
1.59347
1.5927
1.59304
1.59582
1.60245
1.61424
1.63027
1.64389
1.65356
1.65829
1.65871
1.65771
1.65439
1.65022
1.64337
1.6356
1.62987
1.62298
1.6153
1.61025
1.60458
1.59723
1.59237
1.58752
1.58071
1.57599
1.57179
1.56538
1.56011
1.55615
1.55045
1.54441
1.53993
1.53477
1.528
1.52281
1.51825
1.51189
1.50496
1.50035
1.49578
1.48981
1.4841
1.47912
1.47357
1.46651
1.4607
1.45599
1.45076
1.44448
1.43969
1.43552
1.43079
1.42509
1.42066
1.41681
1.41267
1.40734
1.40329
1.40027
1.39652
1.39194
1.38833
1.3852
1.38214
1.53807
1.53446
1.52972
1.52354
1.51981
1.51627
1.51014
1.50505
1.50246
1.49807
1.49307
1.49024
1.48592
1.48118
1.47888
1.47595
1.47419
1.47549
1.47784
1.48231
1.49021
1.49978
1.51125
1.52484
1.53989
1.55419
1.56731
1.58082
1.5918
1.6015
1.60982
1.61512
1.62146
1.62752
1.6293
1.63057
1.62965
1.62959
1.63029
1.63074
1.63096
1.63018
1.62959
1.62817
1.6244
1.62016
1.61891
1.61886
1.61696
1.61361
1.6105
1.60697
1.60274
1.60024
1.59729
1.59337
1.59131
1.59122
1.59196
1.59492
1.60237
1.61467
1.6309
1.64561
1.65527
1.6589
1.65964
1.65924
1.65743
1.65333
1.64618
1.63966
1.63215
1.62321
1.61776
1.61241
1.60495
1.59952
1.59479
1.588
1.58206
1.57776
1.57189
1.5656
1.56115
1.55571
1.54868
1.54423
1.54012
1.53433
1.52937
1.52492
1.51882
1.51175
1.50679
1.50202
1.49544
1.4898
1.4857
1.48103
1.47494
1.46981
1.46537
1.46035
1.45432
1.44979
1.44589
1.44134
1.43597
1.43223
1.42875
1.42475
1.41994
1.41606
1.41298
1.40939
1.40449
1.40108
1.39791
1.39437
1.53991
1.53591
1.53185
1.52578
1.52111
1.51795
1.51287
1.50672
1.50364
1.49974
1.49364
1.48969
1.48563
1.47963
1.47579
1.4721
1.46675
1.46319
1.4604
1.45649
1.45512
1.4552
1.45642
1.46039
1.46675
1.47459
1.48454
1.49662
1.50958
1.5224
1.53648
1.54882
1.55986
1.57124
1.58058
1.58926
1.59568
1.60127
1.60784
1.61039
1.61124
1.61267
1.61424
1.616
1.61734
1.61706
1.61602
1.61339
1.61009
1.60789
1.60692
1.60622
1.60364
1.60041
1.59674
1.59194
1.58918
1.58797
1.58717
1.58801
1.59159
1.59967
1.61291
1.62871
1.64299
1.65393
1.65869
1.65987
1.65995
1.65898
1.65504
1.64923
1.64248
1.63339
1.62632
1.62024
1.61177
1.60539
1.60076
1.59428
1.58767
1.58345
1.57815
1.57147
1.56673
1.56187
1.55516
1.54982
1.54544
1.53912
1.53274
1.52886
1.52422
1.51816
1.51344
1.50897
1.50277
1.49683
1.49263
1.48803
1.48191
1.47733
1.47365
1.4692
1.46389
1.46002
1.45643
1.45209
1.44701
1.44356
1.44026
1.4361
1.43162
1.42811
1.42483
1.42139
1.41668
1.41312
1.41015
1.40624
1.54071
1.53593
1.53229
1.5271
1.52134
1.51804
1.51398
1.5075
1.50316
1.49941
1.4933
1.48822
1.48432
1.47853
1.47356
1.46999
1.46482
1.45993
1.45669
1.45219
1.44779
1.44518
1.44198
1.43898
1.4383
1.43747
1.43815
1.44037
1.44386
1.44898
1.45641
1.46567
1.47585
1.48747
1.49942
1.51107
1.52331
1.53402
1.54468
1.55371
1.5627
1.57206
1.57739
1.58248
1.58715
1.59159
1.59485
1.59631
1.59881
1.59931
1.59878
1.59708
1.59457
1.59267
1.59192
1.59022
1.58745
1.58481
1.58209
1.58052
1.58106
1.58471
1.5934
1.60753
1.62498
1.63963
1.64928
1.65548
1.65781
1.65809
1.65758
1.6553
1.65123
1.64436
1.63649
1.62988
1.62126
1.61326
1.60773
1.601
1.59347
1.58869
1.58355
1.57652
1.57153
1.56743
1.56162
1.55597
1.55158
1.54583
1.53897
1.53437
1.52979
1.52333
1.51857
1.51498
1.50994
1.50441
1.50039
1.49611
1.49021
1.48556
1.48208
1.4778
1.47266
1.46928
1.46609
1.46193
1.45733
1.45415
1.45096
1.44665
1.44225
1.43911
1.43553
1.43191
1.42768
1.42381
1.42087
1.4171
1.54023
1.53482
1.53111
1.52667
1.52053
1.51641
1.5128
1.50669
1.50095
1.49732
1.49205
1.48645
1.48275
1.47783
1.47221
1.46851
1.46409
1.45891
1.45563
1.45201
1.44752
1.44451
1.44153
1.43733
1.43471
1.43237
1.42915
1.42704
1.4256
1.4236
1.42286
1.42342
1.42473
1.42758
1.43211
1.43764
1.44464
1.45301
1.46225
1.47271
1.48315
1.49451
1.50546
1.51624
1.52704
1.53625
1.54571
1.55311
1.56026
1.56608
1.56977
1.57513
1.5789
1.57912
1.57845
1.57742
1.57615
1.57572
1.57481
1.57364
1.57343
1.57406
1.57725
1.58488
1.5981
1.61467
1.63288
1.64756
1.65265
1.6552
1.65598
1.65532
1.65437
1.65176
1.64605
1.63951
1.63173
1.62271
1.61627
1.60932
1.60111
1.59568
1.59051
1.58364
1.57805
1.57352
1.56743
1.56091
1.55676
1.55221
1.54618
1.54149
1.5372
1.53118
1.5257
1.52191
1.51717
1.51143
1.50768
1.50399
1.49871
1.4943
1.49104
1.487
1.48191
1.47857
1.47547
1.4712
1.46682
1.46375
1.46059
1.45628
1.45195
1.44904
1.44553
1.44136
1.43771
1.43371
1.43031
1.42687
1.53819
1.53251
1.52875
1.52513
1.51938
1.51386
1.51029
1.5053
1.49889
1.49497
1.49078
1.4854
1.48181
1.47791
1.47256
1.46865
1.46484
1.45965
1.45611
1.4531
1.44877
1.44555
1.44271
1.43867
1.43528
1.43266
1.42918
1.42616
1.42416
1.42148
1.41896
1.41724
1.41502
1.41288
1.41189
1.4111
1.41076
1.41163
1.41345
1.41636
1.42067
1.42613
1.43298
1.44078
1.45002
1.46003
1.47069
1.48231
1.49346
1.50554
1.51539
1.52504
1.53421
1.54112
1.54917
1.55344
1.55577
1.55686
1.55718
1.55749
1.5583
1.56009
1.56248
1.56651
1.57431
1.58662
1.60427
1.62153
1.63617
1.64719
1.65314
1.65516
1.65498
1.65396
1.652
1.64838
1.64289
1.63449
1.62663
1.61936
1.6102
1.60365
1.59815
1.59104
1.58551
1.58099
1.57525
1.5687
1.56398
1.55915
1.55267
1.54791
1.54418
1.5392
1.53407
1.53035
1.52599
1.52023
1.51613
1.51251
1.50743
1.50295
1.4999
1.49612
1.49117
1.48788
1.48483
1.48048
1.4761
1.47303
1.4697
1.46526
1.46104
1.45803
1.45472
1.45006
1.44665
1.44323
1.43917
1.43582
1.53632
1.53073
1.52601
1.52274
1.51819
1.5122
1.50835
1.50448
1.49876
1.49459
1.49107
1.486
1.48229
1.47921
1.47453
1.47048
1.46713
1.46229
1.45798
1.45504
1.45091
1.44703
1.44454
1.44103
1.43714
1.43448
1.43115
1.42747
1.42513
1.42246
1.41926
1.41719
1.41507
1.41241
1.41071
1.40921
1.40738
1.40609
1.40501
1.40376
1.40294
1.4029
1.40342
1.40464
1.40681
1.41017
1.41472
1.42073
1.42805
1.43664
1.44694
1.45771
1.46982
1.48108
1.49233
1.50327
1.51189
1.52073
1.52677
1.53133
1.53481
1.53689
1.53931
1.54319
1.54863
1.55805
1.57192
1.58865
1.60792
1.62528
1.63677
1.64552
1.65037
1.65215
1.65205
1.65136
1.64958
1.64565
1.63921
1.6322
1.62317
1.61488
1.60841
1.60031
1.5932
1.58831
1.58239
1.57639
1.57218
1.56762
1.56145
1.55649
1.55246
1.54728
1.54194
1.53837
1.53443
1.52919
1.52525
1.52181
1.51701
1.51236
1.50918
1.50541
1.50031
1.49685
1.49383
1.48946
1.48499
1.48202
1.47866
1.47404
1.46998
1.46677
1.46335
1.45859
1.45486
1.45194
1.44772
1.4439
1.53584
1.53073
1.52512
1.52157
1.5178
1.51223
1.50834
1.50535
1.50078
1.49641
1.49318
1.4886
1.48392
1.48106
1.47705
1.47266
1.46968
1.46562
1.46093
1.4578
1.45411
1.44958
1.44669
1.44349
1.43934
1.43666
1.43383
1.42992
1.42714
1.42457
1.42119
1.41875
1.41669
1.4138
1.41171
1.41012
1.40806
1.40659
1.40544
1.40402
1.40277
1.40191
1.40099
1.40032
1.40005
1.3999
1.4
1.40044
1.40145
1.40328
1.40635
1.41073
1.41649
1.42396
1.43261
1.44292
1.45352
1.46442
1.47526
1.48439
1.49371
1.50097
1.50678
1.51248
1.51708
1.52422
1.53494
1.54817
1.56749
1.58712
1.60653
1.62583
1.63839
1.64275
1.64628
1.64824
1.64799
1.64758
1.64584
1.64203
1.63626
1.62868
1.62151
1.61322
1.60476
1.59871
1.59226
1.58491
1.58017
1.57546
1.56933
1.56501
1.5613
1.55632
1.55111
1.54733
1.54323
1.53783
1.53389
1.53058
1.52611
1.52155
1.51841
1.51474
1.50959
1.5058
1.50265
1.49828
1.49345
1.49038
1.48711
1.48235
1.4784
1.47528
1.47172
1.46706
1.46306
1.46003
1.45616
1.45151
1.53646
1.53206
1.52667
1.52276
1.5193
1.51443
1.50957
1.50698
1.5034
1.49887
1.49579
1.49194
1.48697
1.48369
1.48008
1.47512
1.47193
1.46875
1.46417
1.46107
1.45802
1.45352
1.45009
1.44709
1.44289
1.43955
1.43687
1.43313
1.43022
1.42808
1.42493
1.42215
1.42004
1.41706
1.41429
1.41242
1.41009
1.40798
1.40687
1.40539
1.40401
1.40334
1.40229
1.40137
1.4009
1.40032
1.39979
1.39956
1.39937
1.39923
1.39924
1.39931
1.39976
1.40083
1.40284
1.40611
1.41082
1.41687
1.42445
1.43286
1.44206
1.45155
1.4601
1.46893
1.47637
1.48389
1.49312
1.50264
1.51761
1.53655
1.55744
1.58309
1.60169
1.61812
1.63345
1.64293
1.64557
1.64569
1.64521
1.64381
1.64191
1.63852
1.63327
1.62659
1.6185
1.61138
1.60458
1.59669
1.59078
1.58555
1.57875
1.57371
1.56973
1.56442
1.55938
1.55587
1.55184
1.54675
1.54289
1.53936
1.53495
1.53017
1.52674
1.52316
1.51812
1.51412
1.51096
1.50674
1.50177
1.49839
1.49517
1.49046
1.48617
1.48316
1.47952
1.47488
1.47093
1.46767
1.46405
1.45918
1.53798
1.53431
1.52938
1.52496
1.52183
1.51766
1.51256
1.50945
1.5062
1.50138
1.49823
1.49542
1.49083
1.4871
1.48391
1.47928
1.47558
1.47266
1.46828
1.46439
1.46164
1.45767
1.45425
1.45177
1.44813
1.4445
1.44188
1.43839
1.43501
1.43281
1.42999
1.42702
1.42502
1.4225
1.41955
1.41775
1.41562
1.41303
1.41166
1.41009
1.40805
1.40689
1.40568
1.40393
1.40308
1.4023
1.40118
1.40083
1.40056
1.40007
1.39984
1.39958
1.39922
1.39886
1.39878
1.39872
1.39895
1.39963
1.40109
1.40359
1.40724
1.41221
1.41814
1.425
1.43227
1.43939
1.44744
1.4554
1.4658
1.47978
1.49568
1.51932
1.54392
1.56962
1.59609
1.61147
1.62502
1.63524
1.64134
1.64314
1.64281
1.64095
1.63801
1.6351
1.6306
1.62457
1.61789
1.61004
1.60284
1.59694
1.58992
1.58407
1.57944
1.57356
1.56799
1.56417
1.55978
1.55459
1.55096
1.54724
1.54284
1.53856
1.53466
1.53102
1.52627
1.52177
1.51834
1.51423
1.50938
1.50571
1.50243
1.49811
1.49353
1.4904
1.4869
1.48216
1.47829
1.47485
1.47115
1.46661
1.54113
1.53743
1.53271
1.5274
1.52445
1.52142
1.51679
1.51318
1.51021
1.50578
1.5018
1.49894
1.49471
1.4905
1.488
1.48435
1.48046
1.47786
1.47413
1.46983
1.46691
1.46327
1.45917
1.45673
1.45377
1.45038
1.44816
1.44542
1.44194
1.43957
1.4369
1.43357
1.43163
1.42959
1.42691
1.42521
1.42347
1.42093
1.41913
1.41751
1.41501
1.41322
1.41183
1.40958
1.40808
1.40712
1.40552
1.40435
1.40366
1.40248
1.40124
1.40082
1.40006
1.39958
1.39946
1.39908
1.39868
1.39847
1.39834
1.39825
1.39841
1.39895
1.40008
1.40206
1.40498
1.40861
1.41293
1.41776
1.42337
1.43099
1.44016
1.45449
1.47337
1.4958
1.52564
1.55293
1.58142
1.60396
1.61589
1.62738
1.6341
1.63735
1.63757
1.63694
1.63466
1.63081
1.62701
1.62188
1.61566
1.60956
1.60242
1.59518
1.58968
1.58339
1.57738
1.57311
1.56817
1.5624
1.55861
1.55465
1.5496
1.54585
1.54179
1.53758
1.53347
1.52891
1.52517
1.52121
1.51647
1.51261
1.50898
1.50491
1.50034
1.4968
1.49348
1.48882
1.48489
1.48162
1.47768
1.47343
1.54702
1.54272
1.53852
1.53295
1.52877
1.52569
1.52088
1.51687
1.5146
1.5112
1.50718
1.5044
1.50088
1.49627
1.49334
1.49017
1.48588
1.48323
1.48038
1.47633
1.47358
1.47065
1.46648
1.46374
1.46104
1.45732
1.45504
1.45275
1.44951
1.44723
1.44498
1.4418
1.43957
1.43765
1.43471
1.43266
1.43107
1.42853
1.42669
1.42537
1.42325
1.42126
1.4198
1.4177
1.41532
1.41383
1.41191
1.40941
1.40833
1.40702
1.40518
1.40431
1.40334
1.40192
1.40108
1.40031
1.3993
1.39914
1.39896
1.39855
1.39837
1.3983
1.39836
1.39857
1.39896
1.3996
1.40053
1.4018
1.40345
1.40573
1.40881
1.41359
1.42136
1.4323
1.45071
1.47349
1.50152
1.53362
1.56165
1.59145
1.60931
1.61743
1.62594
1.62979
1.63088
1.6304
1.62864
1.62588
1.6219
1.6178
1.6126
1.60606
1.60036
1.59436
1.58747
1.5822
1.57678
1.57033
1.56605
1.56198
1.55632
1.55237
1.54869
1.54364
1.53964
1.53544
1.53103
1.52728
1.52279
1.51885
1.51518
1.51094
1.50677
1.50285
1.4994
1.49517
1.49075
1.4876
1.48375
1.4793
1.55677
1.55076
1.54669
1.54151
1.5365
1.53307
1.52866
1.52347
1.52035
1.51696
1.51242
1.51007
1.50765
1.50383
1.50089
1.49819
1.4939
1.49064
1.48806
1.48412
1.48118
1.47881
1.4751
1.47218
1.46977
1.46609
1.46322
1.46091
1.45734
1.45458
1.45255
1.44944
1.44712
1.44548
1.44293
1.4406
1.43898
1.43658
1.43402
1.43246
1.43024
1.42765
1.42637
1.42473
1.42242
1.42088
1.41927
1.41669
1.41474
1.41323
1.4108
1.40885
1.40781
1.40598
1.40449
1.40375
1.40247
1.40127
1.40054
1.39961
1.39889
1.39892
1.39902
1.39902
1.3991
1.39922
1.39945
1.39978
1.40021
1.40069
1.40131
1.40213
1.40349
1.40584
1.41052
1.41874
1.43175
1.45385
1.47951
1.51193
1.54331
1.57002
1.59863
1.6126
1.61705
1.62194
1.62259
1.62258
1.62168
1.61889
1.61513
1.61103
1.60716
1.60278
1.59676
1.59091
1.58553
1.57917
1.57388
1.56933
1.56339
1.55844
1.55463
1.54945
1.5451
1.54164
1.53702
1.53297
1.52887
1.52423
1.52061
1.51652
1.51236
1.50862
1.50481
1.50094
1.49645
1.49293
1.4896
1.48504
1.56943
1.56419
1.55895
1.55356
1.54672
1.5419
1.53787
1.5325
1.52917
1.52612
1.5216
1.5183
1.51577
1.51177
1.50863
1.50644
1.50303
1.4997
1.4973
1.49375
1.4901
1.48765
1.48405
1.48053
1.47835
)
;

boundaryField
{
    inlet
    {
        type            calculated;
        value           nonuniform 0();
    }
    outlet
    {
        type            calculated;
        value           nonuniform 0();
    }
    bottom
    {
        type            symmetryPlane;
    }
    top
    {
        type            symmetryPlane;
    }
    obstacle
    {
        type            calculated;
        value           nonuniform 0();
    }
    front
    {
        type            empty;
    }
    back
    {
        type            empty;
    }
    procBoundary37to29
    {
        type            processor;
        value           nonuniform List<scalar> 
129
(
1.4998
1.49216
1.4878
1.48265
1.47993
1.48062
1.48238
1.48494
1.54554
1.54265
1.53929
1.53552
1.53184
1.52901
1.52699
1.52702
1.52893
1.53423
1.54468
1.5611
1.57842
1.59087
1.59404
1.59375
1.59227
1.59001
1.58628
1.58016
1.57418
1.56843
1.56162
1.55518
1.55084
1.54646
1.54058
1.53567
1.53203
1.52769
1.5217
1.51758
1.51417
1.50979
1.50425
1.50072
1.49731
1.49294
1.48787
1.48527
1.4826
1.47881
1.4756
1.47299
1.46949
1.46532
1.46252
1.45977
1.456
1.45311
1.45113
1.44856
1.4451
1.44255
1.44065
1.4382
1.43488
1.43365
1.43312
1.43183
1.43069
1.43136
1.43218
1.43149
1.43017
1.42992
1.42955
1.42838
1.4266
1.42496
1.42418
1.42277
1.42071
1.41844
1.41658
1.41466
1.48999
1.50001
1.51696
1.54145
1.56617
1.59406
1.61664
1.63285
1.64153
1.64535
1.64902
1.65173
1.65397
1.65601
1.65723
1.65642
1.65394
1.65017
1.64539
1.64029
1.63501
1.62961
1.62393
1.61769
1.61259
1.60897
1.60556
1.60248
1.59919
1.59542
1.59195
1.58923
1.58679
1.58385
1.58184
1.57999
1.57777
1.57578
1.57369
1.57155
1.56868
1.56577
1.56395
1.56127
1.56127
)
;
    }
    procBoundary37to30
    {
        type            processor;
        value           nonuniform List<scalar> 3(1.3753 1.35495 1.35258);
    }
    procBoundary37to36
    {
        type            processor;
        value           uniform 1.52183;
    }
    procBoundary37to38
    {
        type            processor;
        value           nonuniform List<scalar> 
16
(
1.3544
1.35858
1.36692
1.37838
1.39067
1.4024
1.41291
1.42242
1.43166
1.44053
1.44854
1.45591
1.46287
1.46956
1.47572
1.4813
)
;
    }
    procBoundary37to44
    {
        type            processor;
        value           nonuniform List<scalar> 
18
(
1.53374
1.54516
1.55689
1.56916
1.58126
1.5893
1.5918
1.59336
1.59437
1.59384
1.59235
1.59275
1.59333
1.59473
1.59138
1.58362
1.57144
1.53908
)
;
    }
    procBoundary37to45
    {
        type            processor;
        value           nonuniform List<scalar> 
129
(
1.51611
1.54387
1.56057
1.56598
1.57188
1.57537
1.57645
1.57657
1.47507
1.47186
1.46971
1.46652
1.46321
1.46102
1.45799
1.45458
1.4526
1.44993
1.44679
1.44532
1.44342
1.44081
1.43917
1.43738
1.43468
1.43285
1.43123
1.42851
1.42629
1.42487
1.42263
1.42049
1.4193
1.41754
1.41527
1.41385
1.41224
1.40988
1.40847
1.40714
1.40494
1.40388
1.40303
1.4017
1.40108
1.40073
1.40017
1.39988
1.39995
1.40001
1.40011
1.40031
1.40057
1.40088
1.40132
1.40178
1.4021
1.40253
1.40351
1.40568
1.41099
1.4205
1.43659
1.46224
1.49032
1.52575
1.55417
1.57758
1.60112
1.61303
1.61557
1.61558
1.61428
1.6124
1.61116
1.60851
1.60424
1.59965
1.59588
1.59212
1.58745
1.58195
1.57662
1.57058
1.56504
1.56061
1.55558
1.55066
1.54702
1.54243
1.53774
1.53436
1.52998
1.52579
1.5222
1.51772
1.51387
1.51009
1.50612
1.50205
1.49796
1.49468
1.49069
1.57605
1.57412
1.57061
1.56648
1.56113
1.55542
1.55085
1.54518
1.53997
1.53652
1.53186
1.52793
1.52537
1.52167
1.51779
1.5154
1.5121
1.50841
1.50633
1.50349
1.49997
1.49755
1.49448
1.49041
1.47507
1.48774
)
;
    }
}


// ************************************************************************* //
