/*--------------------------------*- C++ -*----------------------------------*\
  =========                 |
  \\      /  F ield         | OpenFOAM: The Open Source CFD Toolbox
   \\    /   O peration     | Website:  https://openfoam.org
    \\  /    A nd           | Version:  7
     \\/     M anipulation  |
\*---------------------------------------------------------------------------*/
FoamFile
{
    version     2.0;
    format      ascii;
    class       volScalarField;
    location    "0.321";
    object      T;
}
// * * * * * * * * * * * * * * * * * * * * * * * * * * * * * * * * * * * * * //

dimensions      [0 2 -2 0 0 0 0];

internalField   nonuniform List<scalar> 
12359
(
-5.26945e-84
-5.69078e-68
4.60097e-233
-1.93143e-44
-1.0169e-76
-3.9736e-30
1.11103e-25
1.25438e-27
2.95997e-19
3.76084e-33
-3.44935e-22
-4.6223e-14
0.0553954
2.52107e-41
-4.18465e-47
-8.9675e-07
2.61431e-05
1.47148e-126
-1.20644e-129
-3.91787e-56
-2.04019e-38
1.02733e-16
-1.47347e-61
-4.10722e-53
1.29396e-64
9.16748e-59
-3.60524e-168
2.09829e-171
-2.68239e-136
-4.05123e-159
-4.0225e-152
2.4956e-188
-5.1431e-208
-3.72416e-162
-9.61108e-223
7.43437e-149
-2.74448e-102
1.07688e-87
-6.31688e-80
-5.24808e-93
-8.9694e-71
2.42166e-90
1.21008e-110
-6.60303e-114
1.19575e-142
-1.61644e-140
-1.12459e-145
1.91931e-155
7.25058e-133
4.86152e-165
-8.99536e-175
2.81524e-183
-1.1684e-191
-1.31048e-123
-5.17276e-199
8.32855e-205
1.55974e-117
2.59736e-211
-1.06091e-214
3.95335e-218
-8.72351e-202
5.51008e-227
2.53826e-178
4.25394
5.77072e-121
6.21633e-36
3.59792e-105
-5.38291e-185
-3.00787e-99
1.44506e-09
88.4487
1.94002e-73
1.49448e-236
7.77475e-96
1.24134e-49
-3.50491e-224
6.63602e-195
-7.18527e-230
-6.4446e-108
1.08555e-11
-8.73541e-33
9.52486e-151
-1.64224e-318
-8.93687e-93
0.000371714
-7.96582e-103
1.81639e-148
-2.53279e-208
0.1374
0.000101174
5.18077e-264
1.96585
4.86806e-266
-9.11865e-122
-8.96203e-98
1.77686e-79
2.51861e-127
-7.38938e-122
-7.84216e-62
-6.49381e-77
2.39798e-27
1.32131e-256
-5.1742e-103
15.0552
-1.0872e-160
1.8293e-40
-2.31693e-271
0.000457695
4.01851e-111
5.81351e-42
3.61755e-130
1.62933e-149
-7.67733e-38
6.16906e-32
-2.71128e-98
6.5448e-187
-5.78107e-31
-3.53133e-150
0.59443
-8.69339e-315
5.24841e-131
-2.96544e-28
-8.82221e-207
2.3321e-58
-1.28878e-149
-2.72033e-176
1.54799e-20
-3.96195e-92
1.56346e-231
-3.69286e-150
-8.71702e-186
8.60937e-13
3.08056e-10
1.00256e-10
-1.67306e-274
4.11614e-58
-1.78119e-185
-1.09289e-60
-3.9265e-250
1.02581e-21
1.64968e-303
6.48363e-83
7.78708e-55
3.45653e-272
1.14473e-24
-1.23915e-33
6.9016e-320
0.000115408
-1.42938e-159
4.18144e-31
2.58716e-78
-2.30002e-252
1.08954e-53
1.62288e-204
5.96587e-273
109.336
1.78053e-28
4.28205e-13
1.00792e-127
-7.61787e-197
-3.27468e-43
-2.54463e-195
7.58866e-59
2.3529e-55
-1.49874e-301
-4.3905e-178
-2.80135e-45
-3.54087e-28
4.05534e-57
0.147885
-7.62553e-228
-1.08108e-225
1.76813e-59
1.1433e-66
-1.11079e-162
3.80697e-22
2.76957e-142
3.40877e-144
1.39295e-37
2.23606e-23
-7.05241e-44
3.14852e-271
2.91614e-231
8.29153e-150
-1.7792e-63
-9.34581e-19
-1.40074e-124
-1.89097e-102
3.87531e-76
-1.72769e-123
-1.13205e-100
3.0247e-81
7.65465e-82
-1.28013e-202
8.02386e-42
19.4756
1.17427e-82
-3.32782e-125
-2.2484e-53
-2.30965e-149
-4.27412e-32
4.49294e-77
-5.42788e-76
1.66299e-42
9.02281e-29
1.50494e-272
3.18545e-27
-1.71494e-74
2.63189e-52
9.53594e-135
1.72737e-293
5.51793e-28
2.73456e-27
145.158
-3.75024e-18
2.28044e-248
-1.22192e-124
-6.86653e-100
-1.66382e-123
6.21513e-81
2.67004e-32
4.78142e-136
8.02958e-60
2.08637
1.13075e-149
3.17995e-293
2.50678e-79
3.21785e-113
6.56368e-24
5.24363e-121
5.57126e-120
-6.43097e-305
1.05258e-24
5.66114e-71
-7.38502e-105
1.75974e-72
-6.07065e-314
9.31072e-51
-4.99299e-102
1.32319e-05
1.26896e-290
1.99581e-98
-5.65472e-111
6.22912e-12
-2.5255e-41
0.000161804
1.36857e-216
1.25633e-53
2.13779e-170
6.62714e-82
1.79945e-36
-1.84242e-91
-3.78848e-148
6.76689e-120
0.769744
115.512
7.7803e-313
8.45284e-142
0.795585
140.698
-1.49468e-75
4.69813e-42
2.01318e-26
7.50209e-43
1.98221e-68
51.2465
0.479972
4.64069e-39
1.60088e-143
1.32708e-57
2.71397e-58
2.59252e-64
8.22609e-56
-1.19998e-124
7.00501e-138
4.73491e-293
5.10732e-140
4.1779
6.6751e-39
9.83835e-253
-8.15897e-254
5.03756e-43
-1.52004e-145
-1.68019e-106
2.39189e-100
-4.00299e-307
1.63611e-26
-1.18337e-253
-4.02856e-255
2.5689e-190
3.0766e-60
3.88843e-153
43.5527
-1.47792e-273
-8.64462e-270
-1.64148e-101
-6.0337e-174
2.7088e-33
-3.00621e-103
2.5787e-179
-3.05384e-264
3.39958
3.51721e-25
3.02412e-264
-7.05278e-125
-5.39882e-105
4.94159e-168
-2.50501e-185
7.49481e-187
-7.13394e-166
-8.356e-134
-1.02245e-18
-3.59636e-169
2.78748e-153
6.66134e-89
2.16544e-46
0.124138
-6.69906e-165
-9.0076e-65
1.47886e-07
-6.07599e-255
1.09258e-63
-8.63367e-250
5.52583e-81
-6.11254e-270
-4.99563e-165
5.88759e-20
3.53901e-59
-6.01965e-20
-4.32497e-108
-1.08527e-111
1.30041e-82
5.18148e-79
-1.81956e-110
2.20573e-83
7.74644e-83
-1.89288e-229
3.83663e-204
1.1321e-204
6.29871e-203
1.04269e-202
8.31625e-05
9.56456e-306
7.55609e-31
1.10593e-62
-1.90551e-66
7.5415e-53
4.23556e-58
-2.11061e-101
-2.78772e-85
6.43654e-59
-1.1848e-84
-1.40746e-65
1.34642e-42
2.18769e-41
2.49006e-37
2.26761e-81
1.60314e-18
2.32323e-84
4.13302e-84
2.26779e-53
3.7534e-24
-2.14725e-150
4.46468e-197
8.51237e-82
3.10069e-199
4.65196e-149
149.66
13.9984
3.47159e-149
-1.09409e-245
6.85875e-276
-3.98387e-279
3.79727e-60
9.36018e-271
1.70394e-272
0.25049
1.4779e-55
7.73323e-05
-1.23997e-149
1.01578e-47
-3.73742e-147
-2.05293e-109
5.61947e-39
5.77975e-83
4.29463e-46
8.96932e-85
2.42912e-152
-1.34623e-251
1.23026e-56
3.37254e-48
-4.71195e-153
1.02204e-13
-3.50298e-40
8.11302e-80
-3.23229e-55
-4.88198e-46
7.26739e-247
6.97251
2.08152e-17
-5.57497e-148
1.40387e-12
9.33517e-86
1.40518e-301
1.78539e-301
-5.1447e-284
0.000166237
2.57921e-25
-2.32691e-63
1.23744e-65
2.16482e-79
-8.09225e-96
3.11079e-45
-1.41478e-56
3.65363e-21
0.15915
1.71859e-12
-2.16092e-65
1.58114e-38
3.29403e-109
4.7506e-38
2.92818e-89
5.71931e-80
-1.99088e-162
4.22934e-90
9.39364e-58
1.66346e-269
130.795
-2.70086e-105
0.00273744
7.84707e-51
-1.19853e-117
6.34601e-36
0.599037
3.96773e-56
-1.15105e-79
9.81574e-81
3.4264e-49
1.7084e-37
5.126e-146
-7.28352e-292
2.90256e-30
-9.64493e-268
1.98907e-13
-5.00425e-184
1.9396e-60
1.1983e-42
4.03637e-130
0.00168144
6.56486e-30
-1.35247e-78
1.13331e-140
1.81676e-06
-9.18359e-236
-2.19808e-154
9.3191e-21
-4.52426e-244
2.79455e-141
-7.47397e-156
7.19227e-09
13.6911
-1.4311e-94
-1.19568e-214
-7.35047e-40
-8.74544e-48
1.82293e-64
3.70591e-51
2.50117e-57
-7.32069e-228
-5.43037e-281
-6.7418e-53
7.58635e-261
6.01204e-44
7.48142e-65
5.65179e-39
-2.60014e-146
7.86114e-32
1.81254e-19
1.34457e-161
-1.07214e-96
-3.55023e-151
-3.64632e-35
8.81581e-21
7.02842e-250
-5.01106e-51
1.7034e-60
9.56883e-112
-2.89777e-49
-4.07395e-183
9.22689e-26
-1.25201e-92
6.10071e-55
7.0772e-40
-6.60054e-226
2.14431e-97
5.9313e-13
2.8943e-09
1.30848e-262
-4.93832e-76
3.4343e-12
2.62354e-72
0.423877
-2.51115e-285
-1.10831e-185
-1.16989e-233
4.24644e-52
-7.53543e-77
-3.8217e-87
-2.41958e-181
3.59486e-54
2.72684e-77
-5.13158e-70
-7.58754e-139
2.15035e-05
2.41863e-262
6.70504e-05
-2.7116e-210
141.667
-2.406e-91
5.9792e-14
1.20859e-214
1.77324e-147
8.1439e-45
1.00327e-151
6.40392e-181
1.1726e-110
2.85133e-74
-4.2766e-75
1.46189e-14
5.00397e-33
1.30703e-33
1.03724e-319
1.71154e-152
5.50915e-62
5.33706e-09
6.15102e-319
1.3424e-258
2.72304e-59
-3.80849e-231
-2.4081e-21
0.740332
44.0607
3.44674e-317
-8.02203e-103
3.50728e-35
-3.48975e-84
-4.04779e-164
82.4706
6.51553e-262
1.0094e-28
2.9916e-41
1.09524e-103
-4.08811e-167
2.64902e-177
5.89766e-132
9.8919e-64
3.48929e-86
-1.03757e-92
-5.32544e-315
-6.71774e-230
-1.69963e-78
-3.00249e-143
2.01191e-35
9.06054e-53
1.35504e-188
-4.75347e-255
1.25537e-41
127.698
-9.04519e-156
7.44252e-22
5.01962e-278
-9.26384e-92
3.2868e-29
2.82222e-74
1.06499e-37
8.87282e-35
-8.53732e-77
3.16496e-57
-1.47965e-297
3.26242e-221
6.89048e-78
-3.58334e-94
-9.08909e-78
-3.65095e-98
5.94742e-276
-2.99888e-254
-1.35462e-176
-1.77074e-61
8.78363e-51
-1.77167e-40
-5.71023e-104
-5.00192e-38
-3.23568e-54
1.06411e-78
-8.92295e-37
2.44961e-65
0.0039902
4.18687e-54
-5.64102e-64
2.10155e-37
-1.64964e-224
4.39421e-30
3.33857e-44
-1.1403e-320
5.83869e-244
-6.34332e-230
-9.21447e-221
3.89033e-09
-1.18703e-77
5.07973e-120
-1.40949e-39
6.2674e-110
5.0748e-19
1.88212e-73
1.01889e-62
-2.5309e-175
3.62078e-16
9.3433e-277
-8.25528e-61
-1.96038e-141
7.01344e-23
-6.0268e-37
-1.13971e-82
4.1244e-79
6.14763
1.54494e-56
1.08719e-17
3.62956e-88
7.50819e-14
0.316343
5.67688e-219
-5.08952e-149
1.18728e-277
5.93579e-11
6.03579e-149
5.82801e-86
0.00158787
7.12501e-260
-1.88062e-68
2.28887e-41
1.49371e-82
1.14129e-151
3.37679e-84
-1.38991e-202
-1.89276e-80
-3.9338e-201
-5.60253e-204
-7.69467e-86
2.9765e-58
2.74796e-59
8.69729e-81
-7.91297e-11
1.29817e-75
13.5905
1.82284e-54
1.95235e-101
-3.89258e-83
2.03825e-56
-6.74132e-65
9.6907e-81
0.282276
-2.64164e-43
-1.23448e-67
3.38976e-70
-3.48805e-132
8.85e-145
2.25194e-42
-2.16857e-290
1.40791
3.15586e-192
-4.54024e-42
4.20923e-28
8.04483e-10
1.28867e-29
3.00597e-46
1.525e-43
5.387e-90
1.929e-29
4.97389e-51
9.5442e-18
-4.05315e-69
2.09108e-19
2.77706e-69
-6.0343e-309
3.57915e-65
158.172
7.33822e-16
-5.1354e-120
-1.84654e-299
2.34983e-186
9.14022e-105
7.60926e-62
1.56694e-60
3.16405e-88
-3.65173e-229
7.12011e-117
-7.83886e-64
7.20145e-122
3.96996e-138
3.76499e-19
-2.94867e-119
1.3767e-54
1.2812e-42
-5.83311e-118
1.62605e-111
7.16584e-34
9.23903e-322
-5.35508e-111
42.6911
-1.57468e-219
3.56805e-23
5.75231e-29
-6.03227e-113
5.96342e-40
3.02855e-42
-5.91457e-66
1.59344e-36
-8.87669e-151
-2.95311e-40
1.19971e-163
1.07913e-83
1.10332e-44
-3.1748e-38
-1.17722e-150
3.98876e-56
5.49886e-13
4.19668e-56
4.75118e-88
-9.17172e-148
3.6469e-29
6.57065e-08
-1.81919e-135
-2.9576e-249
-8.44817e-67
1.72393e-267
0.368821
2.583e-69
1.45498e-15
1.08353e-90
4.92676e-91
6.99814
7.73789e-84
0.000391945
3.26271e-62
39.4329
1.06354e-61
-1.79755e-91
1.27728e-85
1.34083e-113
0.000563391
2.36694e-05
-1.78957e-215
-4.491e-212
-2.06292e-35
-1.45145e-199
0.00103585
4.33759e-39
4.23503e-12
1.68222e-147
120.912
0.041293
-4.69348e-69
-6.53261e-308
-3.39921e-156
-4.20604e-46
-8.67776e-104
-4.70062e-102
-4.90441e-100
7.49166e-58
1.62975e-52
10.7844
-3.9679e-10
-2.91098e-231
2.28394e-45
2.59858e-35
4.31491e-34
4.52665e-91
1.30807e-27
5.97957e-53
-8.9852e-45
5.87717e-151
6.72505e-304
5.64552e-32
2.16503e-28
-1.66933e-89
-6.79649e-37
1.15137e-16
1.34767e-103
-1.45634e-67
-4.57489e-140
-2.4564e-101
5.51878e-18
4.08989e-100
6.8249e-39
-8.49816e-52
1.74057e-69
4.91088e-130
-2.57703e-93
7.71096e-14
2.5031e-93
2.35749e-92
11.2163
1.61344e-62
-2.11745e-103
0.00306081
-2.30979e-313
1.97003e-91
-3.05292e-74
-8.63189e-106
-1.53114e-178
3.35168e-69
-7.90505e-323
5.90011e-12
-1.71788e-154
-2.5303e-68
5.11354e-30
2.53543e-39
5.0212e-85
7.74276e-89
1.78079e-33
72.0265
-9.75929e-223
-7.50089e-116
-5.84826e-104
0.00239291
3.88872e-28
-1.13942e-152
1.36463
2.00971e-304
-1.59756e-157
151.747
-5.50453e-117
-8.26506e-149
-3.01921e-145
4.53792e-52
-5.38314e-49
3.44339e-218
4.11895e-110
4.2014e-30
-9.75272e-76
-1.31713e-80
-2.37043e-101
3.01605e-217
-1.60492e-47
8.32148e-09
-1.91405e-81
-3.34472e-38
2.02349e-63
1.21234e-82
4.57232e-13
4.69776e-37
-1.28121e-99
-2.44958e-156
5.49454e-05
1.77044e-58
7.12353e-57
-8.59548e-140
1.47875e-219
-5.38234e-44
4.70848e-16
2.03769e-96
2.28245e-38
1.52152e-94
-2.62071e-98
6.10683e-129
7.32139e-48
132.366
14.3976
8.65503e-47
3.98829e-80
-1.1562e-130
1.32383e-49
0.00401522
-5.17087e-41
-2.8833e-154
2.96304e-18
3.32706e-10
6.64446
3.6402e-118
61.8264
-3.29385e-221
-1.1066e-96
-5.92133e-217
1.0079e-13
1.88281e-55
59.9406
-1.48297e-163
0.00709267
-8.30215e-199
-3.25831e-80
1.20719e-46
1.37801e-104
2.89408e-18
0.0031121
-5.30908e-114
2.2046e-129
9.0337e-96
5.18572e-119
-7.07086e-116
1.18476e-16
2.01511e-58
5.15805e-88
7.48934e-19
-1.43115e-116
-6.66474e-213
-1.08805e-83
7.45163e-185
1.28139e-32
5.17336e-96
5.24239e-12
7.50084e-14
-6.76719e-52
9.40297e-46
1.40263e-52
3.21644e-86
0.00397615
6.11668e-100
-8.02142e-122
1.82877e-275
4.93763e-17
-1.3611e-42
-3.22922e-166
3.01029e-34
1.11238e-103
1.49591e-46
-1.82762e-45
-1.01218e-39
3.19895e-54
80.4518
5.43909e-52
-1.98626e-50
0.00233105
2.07003e-105
8.09138e-09
3.08269e-37
-1.82171e-203
2.83682e-98
3.86707e-139
2.86567e-89
-3.82436e-299
1.9484e-147
8.76598e-10
1.39763e-15
8.95693e-151
149.491
3.06057e-35
5.26857e-194
2.13309e-14
2.71749e-19
-1.72262e-198
8.52462e-13
1.91518e-31
3.81807e-14
-1.1647e-200
1.2154e-145
7.01386e-125
-2.72108e-199
-4.78954e-43
16.5796
4.48901e-160
1.81959e-14
1.04759e-315
1.68452
1.47791e-36
1.88219e-54
-9.13395e-263
-4.64722e-162
-6.45872e-95
3.87891e-56
2.21475e-18
3.04356e-46
-2.54319e-117
1.60065e-109
-4.90202e-202
6.86401e-39
2.23352e-46
-1.43074e-137
-2.04714e-243
4.44857e-76
2.15775e-47
6.08055e-54
-1.72184e-175
4.16956e-09
-5.88993e-35
-9.5244e-199
4.17508e-62
1.229e-110
3.64572e-94
171.468
-1.92125e-118
-1.23654e-193
7.24277e-61
-6.91557e-44
-6.78024e-55
1.69962
-6.44878e-73
-9.51498e-103
1.24896e-44
-1.1703e-106
-4.65235e-107
-1.42876e-100
-7.46127e-105
-5.34077e-34
-1.04924e-92
11.4897
-2.40639e-53
1.53592e-11
1.19901e-105
1.42887e-07
6.12216e-38
8.47495e-18
1.03277e-16
1.03156e-55
-3.72794e-105
4.64668e-109
-1.54163e-77
1.43421e-316
-1.17319e-96
1.69798e-43
9.77797e-25
7.61197e-108
-3.51294e-200
3.92925e-60
9.18587e-52
5.87417e-27
3.60761e-48
4.66275e-18
3.07034e-27
-7.65376e-137
1.83746e-61
0.0391991
6.033e-45
3.02919e-302
2.08353e-120
5.56101e-107
4.45195e-306
5.76228e-63
-5.12174e-223
-7.16899e-95
1.87343e-18
1.06805e-40
6.88431e-09
-7.3533e-219
-1.93516e-164
5.78814e-266
-1.79164e-108
-8.46268e-129
2.03186e-17
-4.52945e-128
-9.9355e-164
1.82488e-08
2.42127e-50
8.03399e-78
1.46614e-64
1.81398e-21
4.6737e-121
2.10398e-14
2.61296e-110
-9.31642e-215
0.000177252
2.40914e-66
1.84522e-24
-4.00639e-122
45.1243
-2.20537e-48
-2.1874e-58
2.97695e-59
8.13915e-40
9.00519
4.69699e-105
3.8619e-19
1.60436e-53
5.23833e-60
3.39265e-160
2.10524e-94
6.32598e-09
-5.46483e-96
2.22597e-12
-2.91482e-115
-4.80318e-120
2.88865e-15
-1.75221e-187
-1.81223e-142
4.13208e-103
5.17716e-65
2.3661e-13
-3.27232e-116
3.65575e-108
8.78915e-282
3.38955e-52
0.000162185
4.53981e-58
-2.77283e-109
-1.28519e-78
1.32332e-122
1.74429e-158
10.4327
-6.57576e-58
1.21475e-251
6.54006e-60
2.95041e-124
-8.48218e-47
8.35657e-33
2.22153e-76
3.07916e-105
5.14992e-20
5.40958e-15
1.65488e-268
1.31358e-80
1.11752e-15
-6.04786e-167
2.90167e-229
-4.54896e-75
8.67899e-70
-7.25791e-99
1.85395e-227
-7.23388e-68
7.4343e-15
7.08332e-196
2.73836e-30
-1.922e-220
3.47503e-137
8.79113e-68
6.8203e-06
-6.63982e-282
1.27766
-2.36249e-56
8.36811e-29
17.3962
-2.29862e-51
1.28074e-78
0.013058
-1.10292e-107
1.90983e-06
1.05816e-22
-9.13658e-80
3.24838e-98
5.61108e-100
-3.774e-120
-4.33998e-127
3.42762e-36
0.00984012
153.247
4.36634e-41
-8.70536e-33
8.97168e-07
7.84025e-44
1.1494
1.0104e-179
-8.73231e-118
1.86236e-23
6.74844e-60
1.13981e-145
1.93659e-41
1.07635e-107
7.93529
-2.51796e-302
1.8657e-149
-1.58467e-173
168.145
-8.6894e-42
7.99527e-54
-1.67016e-95
6.09067e-23
-1.58504e-102
1.36499e-165
1.00896e-08
9.1641e-106
1.07451e-08
7.34077e-36
1.19384e-97
7.64752e-20
7.9447e-65
-1.72791e-116
-6.12769e-161
1.47528e-156
0.111033
2.16893e-16
-4.92917e-141
4.08476e-22
5.93941e-79
6.23462e-34
-2.27125e-278
1.03352e-67
5.47122e-09
6.66678e-21
-8.86851e-50
-1.02947e-81
-2.38241e-162
6.79619e-26
-5.92208e-103
-8.43763e-166
1.12728e-12
3.67616e-24
-2.38418e-133
-2.71049e-36
1.11408e-72
-2.46662e-269
-4.38083e-147
-1.54742e-239
4.58866e-48
56.2035
8.9279e-14
4.39132e-28
-2.78651e-139
-5.11081e-101
3.91912e-65
-1.44036e-256
1.3907e-10
5.01292e-66
43.423
-1.06744e-31
4.65834e-99
-2.5559e-134
1.99982e-177
2.39095e-107
-4.45873e-106
-3.20683e-143
9.91318
1.09802e-22
-1.57824e-46
6.53957e-21
6.02422e-51
4.39127e-165
1.05935e-315
-1.80005e-143
3.03822e-33
0.222115
-6.03296e-26
5.19332e-61
-2.2096e-59
1.48586e-82
1.36297e-23
0.012143
0.00877362
2.29506e-103
-2.90815e-84
-1.26027e-41
-1.13648e-125
-4.20635e-232
-1.8643e-145
2.22328e-20
-6.81825e-130
3.53507e-81
-1.89591e-114
2.68657e-49
6.69228e-11
-2.61559e-121
-1.21399e-144
2.4879e-14
3.03374e-25
-3.87634e-105
-4.14215e-158
-5.44563e-61
5.088e-10
2.66449e-33
5.87075e-31
-4.05184e-64
2.23572e-87
0.00043699
-3.14284e-100
-4.8815e-26
-1.34367e-158
7.6417e-15
1.44342e-15
-1.69707e-210
-2.88571e-174
80.6739
-4.17125e-147
-1.71925e-89
8.95624e-37
9.07073e-128
4.64944e-127
-4.83022e-113
-5.56164e-149
7.27295e-266
1.50366e-34
6.22946e-07
8.3025e-177
0.00568813
2.07866e-111
-3.68608e-150
4.51608e-15
1.0841e-10
5.1172e-34
1.13761e-105
-2.0735e-142
-2.02878e-54
135.127
-6.93217e-130
4.73575e-178
5.09343e-185
2.05013e-128
-1.30672e-72
1.06506e-41
-1.90194e-133
4.416e-87
-1.94597e-144
4.49321
6.43662e-11
1.63713e-65
9.75448e-47
1.32294e-109
-9.31992e-150
3.41262e-26
0.721974
-9.51895e-89
5.02444e-183
-1.08822e-151
1.04039e-16
1.04042e-128
-4.6e-160
8.265e-16
7.0848e-107
9.04015e-148
106.804
1.36284e-13
0.461538
2.94229e-26
5.26811e-130
9.62018e-24
2.37485e-12
0.0681857
-8.82225e-118
6.40979e-45
-2.56795e-260
0.0539462
-3.62402e-307
-1.17858e-119
2.10256e-112
6.66916e-183
2.09949e-56
-1.60024e-103
4.0206e-128
-1.4231e-119
1.94001
4.82755e-17
3.98781e-59
-9.18578e-144
1.1877e-38
1.91213
2.01426e-12
2.85791e-52
-1.66169e-62
-3.02091e-120
-7.12399e-105
-3.76371e-180
-1.27608e-134
7.22874e-175
-1.89064e-146
-8.48261e-53
5.80926e-18
4.44952e-24
0.154941
1.67991e-05
1.19564e-10
1.07399e-31
0.0547805
-4.21351e-162
2.14231e-06
-1.03991e-152
0.000399209
2.84509e-13
2.21146e-48
7.20572e-132
7.02316e-47
1.42761e-34
8.85838e-88
38.8151
6.26145e-15
0.17263
-2.72087e-148
4.56965e-12
1.69924e-08
1.40128e-13
7.71826e-09
1.7646e-13
2.22219e-149
-3.91607e-111
8.96506e-64
-1.33798e-137
9.83878e-38
-1.38694e-123
-1.74131e-49
2.31215e-212
-1.07994e-112
9.05232e-35
2.78542e-54
-1.31167e-167
-1.53768e-57
0.269363
79.4736
-4.38367e-185
5.16833e-60
-3.15201e-107
2.30473e-12
2.38466e-39
3.51912
4.96738e-06
-1.14886e-120
1.71966e-54
1.25518e-08
1.25665e-27
5.54014e-07
4.04455e-66
4.58391e-14
-1.03519e-171
0.0734581
1.15623e-14
-1.74569e-156
5.07871e-09
0.00153477
2.7064e-55
1.14241
-5.18438e-114
2.00655e-10
-9.69464e-98
-1.49212e-190
-1.36859e-90
-1.07595e-100
0.0265654
1.30996e-10
0.00913386
-1.79069e-167
1.62094
1.64889e-48
9.05894e-17
-3.27367e-38
3.71345e-57
1.24378e-68
0.00293562
-5.08385e-112
1.46714e-128
3.8714e-34
7.4413e-11
1.165e-37
1.93918e-26
-1.35823e-70
0.0203492
7.64807e-37
3.22466e-38
4.20754e-11
3.44307e-195
4.18508e-09
8.22238e-22
1.80732e-09
-7.21365e-93
4.54024e-05
7.98485e-178
3.93182e-39
4.47279e-67
3.22003e-13
-5.22389e-87
3.90646e-35
4.31532e-10
70.565
-4.59025e-121
3.44516e-60
6.0624e-57
4.44903e-19
1.93168e-29
-1.62546e-118
5.94864e-51
2.94975e-179
10.1853
1.43418e-273
3.98911e-179
-1.46131e-237
1.35056e-09
4.94763e-146
-4.11267e-48
0.166224
1.47012e-71
-6.05828e-71
9.57453e-139
5.18174e-225
1.91993e-11
2.04788e-183
1.42912e-49
2.63292e-15
-6.52759e-56
2.29755e-07
8.60319e-118
4.94639e-50
3.02723e-09
1.47388e-26
-2.79215e-89
78.1121
-2.20036e-278
2.45361e-219
-2.20351e-107
168.867
-1.04989e-94
9.64747e-98
3.25861e-09
-1.54322e-132
8.57015e-116
2.9485e-21
1.86384e-07
1.47761e-41
0.000790869
3.13463e-132
9.86902e-109
4.53011e-63
2.91425e-67
1.93203e-13
-1.21735e-154
7.80753e-96
-2.59735e-67
-1.15676e-19
1.06651e-80
-1.13172e-169
-3.44356e-51
-4.55054e-22
-1.90158e-234
-5.18261e-231
4.61509e-06
6.72269e-41
1.09047e-05
3.4801e-115
-1.04656e-301
-1.02963e-20
1.02999e-09
-2.68021e-164
-2.83367e-128
4.95552e-180
6.14634
-8.70701e-235
4.2427e-43
1.69524e-06
3.84416e-228
5.11836e-223
2.25069e-27
-3.55747e-194
-1.68929e-230
3.39358e-61
3.97954e-16
-5.13493e-172
3.82051e-28
-1.63101e-187
1.60389e-09
-3.06076e-304
5.20022e-09
2.43867e-15
6.36874e-32
7.52834e-228
9.0196e-22
3.67045
1.22552e-125
2.20805e-58
-1.27529e-197
1.35289e-16
2.16321e-187
1.42025e-08
3.5539e-13
8.03088e-104
5.37447e-233
6.42053e-16
2.22321e-17
4.29883e-69
4.20717e-68
1.96719e-19
-2.8296e-192
1.14669e-22
5.87e-235
5.71404e-08
1.26378e-10
2.14399e-14
6.87065e-31
-2.07676e-27
2.58715
3.02669e-35
1.15628e-66
6.67328e-18
4.3325e-124
2.31001e-19
3.3864e-19
1.81639e-52
6.24677e-106
0.0274205
-2.42703e-256
0.00898374
96.3777
-1.55914e-135
3.34361e-12
38.9332
6.32145e-43
3.10414e-64
3.33935e-23
-1.18565e-65
2.13716e-177
7.39532e-10
0.00370034
0.454441
-1.60644e-123
1.88851e-27
9.72749e-06
1.24933e-16
7.15082e-145
2.36225e-214
3.94241e-52
0.00267284
1.52801e-10
8.29276e-20
-2.69384e-285
-1.21578e-188
1.28557e-17
-1.47391e-131
8.3872e-59
-1.39131e-126
2.77156e-228
5.71066e-09
4.16298e-115
1.76016e-06
7.15736e-68
2.50189e-205
4.54685e-215
9.6193e-18
-1.13558e-124
6.23097e-43
1.44437e-19
0.0290631
-9.76848e-61
-9.03594e-170
1.20993e-07
-1.44464e-106
4.80049e-181
1.04282e-91
5.53697e-17
-2.57905e-124
1.37125e-16
1.38317e-61
171.512
3.45804e-18
1.44812e-159
1.50162e-06
-1.57947e-236
3.05843e-11
2.59041e-49
5.33942e-07
0.000559862
6.84743e-54
6.81909e-06
2.02071e-203
1.17687e-11
-1.74968e-140
1.65581e-61
3.36848e-07
2.3658e-37
1.93191e-07
0.00429689
-2.49294e-23
1.60584e-10
1.7857e-07
-6.74984e-166
8.59572e-184
-9.96e-235
6.6676e-06
-1.08757e-28
-7.10352e-164
2.84352e-09
4.26831e-08
8.19825e-56
2.37181e-20
9.87974e-73
-3.49004e-43
1.71907e-05
-2.30126e-86
4.46414e-44
8.80403e-45
4.7817e-261
-2.85729e-258
-8.50149e-166
-5.62422e-123
2.41662e-69
2.89065e-207
-2.30258e-103
3.18868e-119
-1.34205e-73
3.79901e-34
1.94226e-144
1.73051e-08
-3.78074e-306
1.74464e-14
2.78344e-07
-2.30997e-158
6.95778e-06
3.8048e-18
4.09073e-08
-4.3176e-79
3.29816e-20
3.23521e-133
2.16876e-50
3.09372e-64
4.27849e-217
-5.72847e-140
2.18256e-110
-1.88358e-156
5.34682e-241
2.60857e-66
5.26792e-243
-5.03021e-37
3.7608e-33
0.0263977
2.06715e-209
3.85336e-74
2.82352e-205
6.23419e-130
3.57349e-26
2.83179e-77
-3.27731e-161
113.96
5.96166e-17
9.98502e-41
1.10883e-72
8.28196e-19
4.19116e-28
-3.93103e-92
1.2453e-25
2.3719e-16
-2.58291e-119
4.88959e-237
-1.41194e-100
1.355e-10
-4.90126e-185
-5.38153e-167
2.72767e-16
-1.19775e-135
-1.5774e-131
8.47245e-103
-7.90772e-170
3.87498e-05
2.19421e-207
-6.14956e-169
4.07607e-32
1.11784e-25
0.811882
9.41788e-16
-3.46689e-71
-3.88454e-160
5.49475e-25
-4.51236e-162
2.85979e-35
5.4271e-78
-1.03168e-119
3.70513e-07
-1.198e-224
5.4359e-28
1.1071e-64
3.16571e-18
1.66495e-50
1.40257e-246
3.02448e-121
1.17573e-303
2.8516e-32
-5.49718e-187
1.73626e-23
1.23993e-59
-2.65414e-111
-6.82901e-69
4.93441e-52
2.08627e-239
2.88431e-27
6.02569e-31
-1.41831e-125
1.07846e-30
1.12358e-09
5.26634e-227
6.40418e-52
1.5168e-13
3.5022e-20
-3.30663e-91
-1.39448e-53
-6.18308e-52
1.06266e-62
-1.18464e-87
1.6213e-17
-4.93724e-88
-3.74091e-158
-6.10267e-160
4.17955e-05
2.35111e-10
2.73782e-07
1.15071e-07
-1.32041e-42
1.40374e-25
3.87113e-59
3.2648e-26
-1.94541e-161
0.242548
-1.09082e-130
2.46217e-07
3.49521e-17
-7.08725e-164
-2.50527e-30
5.36464e-11
8.38548e-09
2.11777e-57
1.36382e-34
-5.12113e-164
1.1563e-266
3.02365e-18
2.30039e-237
2.00842e-210
1.5375e-20
1.0777e-130
-2.48724e-81
-9.2642e-168
4.51374e-115
1.6267e-18
7.87791
-7.68162e-131
8.09917e-137
1.2116e-11
-3.33022e-46
4.04099e-13
3.52634e-32
2.94285e-31
3.4269e-133
-9.7275e-49
1.60338e-27
1.00835e-20
-2.02267e-36
4.32711e-177
4.8772e-15
3.72626e-40
3.66137e-24
-1.22149e-101
-8.30691e-166
2.31838e-20
-1.48703e-127
5.72962e-229
2.58539e-29
5.69606e-10
-2.09003e-208
1.32088e-30
1.59464e-62
1.04935e-142
-6.54522e-93
-4.91385e-143
2.05832e-29
-5.99675e-158
-6.49797e-168
5.11196e-66
5.01798e-30
-1.19439e-48
-2.84515e-34
7.20149
-2.96759e-123
2.3692e-74
0.00604218
5.11494e-44
-1.0865e-144
1.12524e-41
1.84604e-08
2.37925e-217
-4.09348e-135
5.80873e-231
9.24421e-34
1.09392e-17
-1.36673e-67
4.97711e-245
-2.23715e-97
-1.02653e-88
2.98941e-110
4.59085e-11
-1.8692e-129
1.3432e-245
5.54159e-239
5.79357e-37
1.64506e-58
1.61464e-06
-5.01247e-102
-4.40886e-59
7.24069e-51
1.8876e-23
7.06292e-182
8.12504e-30
2.55191e-221
3.16691e-211
5.07724e-237
2.09617e-12
2.10988e-129
1.99122e-31
1.15051e-37
3.34503e-36
1.27054e-24
4.17041e-36
2.17972e-16
7.99675e-31
-1.55265e-126
5.25825e-44
1.81632e-56
1.56453e-46
1.90019e-25
-2.70612e-134
26.3136
4.58895e-20
8.02543e-23
2.26947e-208
0.729306
1.09386e-23
6.43138e-26
-1.80163e-36
9.46458e-16
9.25455e-76
8.72049e-120
6.85859e-117
3.56321e-124
1.83833e-117
3.16994e-22
6.332e-27
1.64543e-136
3.25199e-36
4.24741e-112
3.62259e-116
4.26328e-73
1.89886e-55
1.003e-93
6.23073e-68
-8.29638e-55
3.01249e-42
5.40202e-32
2.61757e-65
3.05403e-213
5.66026e-101
-2.78471e-124
4.08196e-13
2.23945e-185
6.72858e-133
9.24743e-35
0.059342
9.21215e-158
3.83922e-06
-3.27993e-163
-6.32643e-129
2.5174e-65
1.68356e-38
1.37355e-45
2.0705e-181
1.07954e-30
1.38506e-31
9.45429e-14
3.1643e-209
6.85388e-40
9.96248e-56
1.44907e-83
1.94387e-236
-1.00716e-283
-6.76249e-34
6.2737e-58
1.6057e-82
21.3629
3.19588e-30
1.38878e-42
-7.63218e-30
3.10237e-67
3.74091e-13
-1.88133e-121
-8.86312e-69
-6.80775e-100
-1.81061e-109
2.52118e-05
8.60405e-39
1.33013e-28
3.94636e-48
-1.76702e-175
1.44825e-29
1.54333e-28
1.0098e-11
-3.34999e-111
3.67731e-43
-2.75805e-06
8.58727e-06
-2.97395e-165
2.76948e-09
1.31812e-73
7.63325
2.68257e-226
2.14302e-32
4.32274e-49
3.88818e-253
6.2786e-25
1.90055e-90
-3.03337e-96
8.67971e-20
1.52815e-06
1.33438e-12
-8.54697e-95
8.07476e-36
-1.52191e-224
-1.59508e-126
2.34366e-07
-1.84277e-39
3.59262e-108
1.15658e-29
-1.0504e-25
2.4645e-37
2.64737e-57
1.50667e-52
2.49561e-37
1.13475e-05
1.04819e-173
2.54365e-55
5.71279e-71
1.6497e-34
9.67496e-09
3.69405e-34
1.52006e-43
-8.11718e-96
2.71867e-230
8.51308e-33
8.97931e-42
2.07769e-33
7.07684e-179
-3.87935e-77
7.84821e-42
9.41846e-36
-7.53532e-29
7.83778e-30
1.05766e-99
2.22272e-39
3.49805e-131
2.06779e-22
2.02985e-73
4.18716e-32
4.27303e-77
-3.92825e-93
6.95994e-36
-2.46843e-77
1.59993e-86
-7.53643e-106
7.02597e-176
1.91086e-50
1.52136e-62
1.29023e-74
1.27462
0.000670726
4.59731e-140
3.95389e-110
-6.98544e-56
7.34768e-57
1.8681e-244
1.52887e-36
-3.57685e-44
7.31897e-39
-1.30044e-226
2.33274e-16
6.13383e-31
1.5871e-19
3.22087e-37
-4.79362e-210
-4.26546e-116
2.63955e-84
3.48232e-39
1.23717e-10
5.41812
-3.61725e-170
-2.12382e-81
-1.97099e-92
1.89515e-10
7.70622e-06
2.39121e-12
-1.78439e-64
1.8476e-34
-1.64479e-224
4.16511e-52
-1.93866e-64
-4.91687e-168
-3.78253e-26
-1.01985e-58
3.35035e-47
3.64935e-33
-2.07962e-85
3.87346e-58
3.12247e-42
1.0189e-211
1.3944e-318
1.99369e-56
-4.26458e-82
7.79737e-10
3.22132e-72
-3.16562e-27
3.71176e-16
-2.82983e-50
-3.12233e-169
-6.25555e-73
5.48741e-32
-2.16078e-175
0.000442171
2.52761e-05
-4.29729e-141
5.21862e-221
3.15689e-135
4.64637e-175
1.95851e-256
1.28371e-74
-1.945e-90
7.50249e-38
1.10923e-59
4.45278e-41
1.44423e-58
1.98739e-10
9.27549e-34
9.59707e-40
2.18943e-62
6.57664e-72
-2.10536e-44
-1.03983e-210
-6.4267e-92
1.37886e-93
-1.37777e-38
-3.08351e-31
4.43611e-11
2.41922e-259
-1.7267e-32
1.03141e-50
4.8158e-67
6.57477e-28
9.14755e-48
1.48114e-30
5.28668e-06
1.33329e-53
1.24442e-22
1.22107e-71
-4.20559e-113
-2.03474e-54
3.96956e-42
-5.19057e-176
6.45296e-63
9.85627e-05
-1.6347e-96
1.29864e-06
-1.45971e-166
2.2111e-42
1.14071e-112
5.50561e-101
2.5268e-36
-1.10754e-24
6.29097e-29
-3.98156e-91
2.64377e-66
2.09861e-67
4.26667e-22
3.97936e-26
-1.97422e-56
4.98418e-17
2.841e-254
1.99596e-56
4.41063
1.64003e-17
1.91888e-95
0.00863731
7.19215e-29
2.46177e-88
3.95536e-195
1.05388e-12
3.89356e-42
3.60234e-69
-1.41781e-46
1.21594e-173
1.28288e-36
1.78376e-101
2.40922e-21
4.84271e-45
1.3086e-42
-4.28906e-35
-5.76173e-311
-5.68011e-131
1.58017e-79
-1.93412e-115
4.03738e-118
2.16159e-69
-2.72373e-92
1.55135e-86
1.62045e-28
1.34131e-33
-1.7493e-241
9.0815e-25
-9.26415e-128
-8.84161e-210
-2.75944e-33
-3.5361e-159
1.03827e-70
4.09722e-71
-8.17391e-179
-1.82873e-173
-4.36093e-103
2.08763e-41
-1.20274e-74
3.68747e-39
7.69226e-49
-3.53313e-32
7.41759e-34
2.75665e-70
-8.54418e-59
8.23987e-48
3.01634e-276
-4.95527e-76
-1.5983e-101
2.96363e-72
0.000282649
8.00401e-44
-1.05591e-85
-2.38294e-55
-2.00568e-77
8.09879e-92
-3.28474e-94
-2.60673e-76
6.56244e-98
-1.2768e-39
1.07703e-51
-4.11359e-212
1.29387e-42
4.02432e-60
2.92075e-40
2.30825e-195
-5.10068e-34
2.73072e-07
2.88835e-123
-2.61545e-49
6.56823e-31
3.44335e-140
5.30722e-33
1.86606e-20
3.91208e-45
1.19607e-45
1.15886e-23
-2.10628e-56
-2.32287e-62
1.21945e-50
9.39508e-37
6.35544e-157
1.9293e-100
1.22761e-264
3.54974e-125
-5.68894e-196
3.8758e-64
3.07333e-57
4.50382e-36
3.15406e-51
1.40416
-1.68234e-24
4.75659
7.86786e-50
4.06483e-12
0.456628
3.83472e-20
6.583
1.70376e-97
3.02206e-60
-1.23317e-70
6.53129e-74
4.01372e-57
3.45144e-132
6.62578e-65
7.96599e-113
2.51189e-197
-4.8976e-64
0.0753771
3.84483e-67
3.73424e-39
-5.18937e-70
-7.293e-105
1.72288e-52
-5.59105e-57
-7.90802e-124
1.80528e-62
-1.22274e-108
2.08659e-29
3.75028e-48
8.46037e-51
-2.18865e-52
0.000183359
7.53839e-18
9.67443e-38
1.06548e-72
30.3469
4.92416e-69
1.16052e-67
2.24266e-37
-1.67134e-35
-2.65411e-73
5.42692e-26
-1.12861e-171
-1.35378e-45
-1.26842e-33
1.82766e-53
2.2259e-54
-7.24334e-92
-7.11224e-60
-1.41764e-41
6.04366e-96
3.08603e-38
2.80661e-66
5.01453e-86
-1.07422e-168
4.36564e-75
9.1015e-54
-2.4577e-100
2.04478e-72
2.35445e-85
-1.06049e-129
-4.02248e-41
2.93473e-103
4.63088e-20
7.37852e-57
-5.93633e-79
9.72604e-179
-8.41581e-125
6.19413e-29
6.12716e-61
-4.48193e-230
1.37072e-56
0.404663
2.71646e-40
-4.42068e-94
3.62022e-73
6.16895e-05
0.0119338
7.97304
4.37418e-120
3.17561e-122
1.04305e-120
1.63559e-84
4.25084e-40
5.06969e-09
6.41057e-07
1.58791e-17
3.26867e-38
-1.07414e-104
1.78209e-191
1.5056e-188
-3.0637e-33
-1.04219e-94
1.4026e-33
5.51846e-120
4.09216e-14
5.65653e-110
3.66356e-60
2.66667e-14
-1.05207e-51
2.32848e-31
4.28459e-127
3.58487e-64
1.92843e-208
2.40775e-27
4.9641e-39
7.38029e-95
-7.30503e-198
-4.25472e-83
5.77397e-30
-2.69088e-134
-1.69348e-55
3.76787e-05
2.38109e-220
-7.50168e-91
-3.94636e-47
-8.03723e-48
1.11801e-59
-2.42945e-145
-8.25775e-133
4.1172e-131
3.20376e-242
-1.73869e-188
1.64321e-83
3.02043e-47
-1.22298e-208
-1.5195e-90
1.06899e-134
138.025
-1.11124e-34
-5.97342e-128
1.74106e-261
2.051e-37
1.27026e-67