/*--------------------------------*- C++ -*----------------------------------*\
  =========                 |
  \\      /  F ield         | OpenFOAM: The Open Source CFD Toolbox
   \\    /   O peration     | Website:  https://openfoam.org
    \\  /    A nd           | Version:  7
     \\/     M anipulation  |
\*---------------------------------------------------------------------------*/
FoamFile
{
    version     2.0;
    format      ascii;
    class       volScalarField;
    location    "0.875";
    object      p;
}
// * * * * * * * * * * * * * * * * * * * * * * * * * * * * * * * * * * * * * //

dimensions      [0 2 -2 0 0 0 0];

internalField   nonuniform List<scalar> 
6400
(
9.47799e-06
2.8653e-05
-0.000477165
-0.00151066
-0.00295409
-0.00469713
-0.00663937
-0.0086912
-0.0107753
-0.0128263
-0.0147891
-0.0166173
-0.0182725
-0.0197231
-0.0209431
-0.0219118
-0.0226132
-0.0230349
-0.0231684
-0.0230085
-0.0225525
-0.0218007
-0.0207553
-0.019421
-0.0178043
-0.0159134
-0.0137581
-0.0113498
-0.00870099
-0.00582568
-0.00273884
0.000543485
0.00400429
0.00762569
0.011389
0.0152749
0.0192633
0.0233336
0.0274647
0.0316352
0.0358231
0.0400063
0.0441627
0.04827
0.0523058
0.0562482
0.0600752
0.0637654
0.0672979
0.0706525
0.0738098
0.0767511
0.0794593
0.081918
0.0841128
0.0860306
0.0876602
0.0889924
0.0900203
0.0907391
0.091147
0.091245
0.0910369
0.0905303
0.0897361
0.0886695
0.0873497
0.0858009
0.0840526
0.0821399
0.0801048
0.0779963
0.075872
0.0737989
0.0718547
0.070128
0.0687157
0.0677221
0.067254
0.0672917
4.37223e-06
1.85351e-05
-0.000435215
-0.00131915
-0.0025339
-0.00400022
-0.00564217
-0.00738732
-0.00917038
-0.010934
-0.0126286
-0.0142115
-0.0156467
-0.0169038
-0.0179578
-0.0187882
-0.0193787
-0.019717
-0.0197938
-0.0196033
-0.0191419
-0.018409
-0.0174061
-0.0161365
-0.0146059
-0.0128213
-0.0107913
-0.00852627
-0.00603756
-0.00333789
-0.00044105
0.00263811
0.00588382
0.00927944
0.0128076
0.0164501
0.0201883
0.0240029
0.0278741
0.0317818
0.0357056
0.0396246
0.0435182
0.0473655
0.0511457
0.0548381
0.0584225
0.061879
0.0651881
0.068331
0.07129
0.0740479
0.0765889
0.0788984
0.080963
0.0827713
0.0843131
0.0855807
0.0865682
0.087272
0.0876911
0.0878272
0.087685
0.0872724
0.0866006
0.0856847
0.0845435
0.0832006
0.0816841
0.0800272
0.0782687
0.0764538
0.0746339
0.0728676
0.0712201
0.0697629
0.0685693
0.0677139
0.0672904
0.0673292
0.000512132
0.000474127
1.99763e-05
-0.000796508
-0.00188802
-0.00319122
-0.00464491
-0.00618894
-0.00776766
-0.00933099
-0.0108346
-0.0122398
-0.0135133
-0.0146265
-0.0155558
-0.0162815
-0.0167877
-0.0170621
-0.0170954
-0.0168814
-0.0164162
-0.0156987
-0.0147295
-0.0135115
-0.0120494
-0.0103494
-0.00841953
-0.00626893
-0.00390819
-0.00134908
0.00139559
0.00431194
0.00738521
0.0105998
0.0139393
0.0173866
0.0209242
0.0245338
0.0281967
0.0318939
0.0356061
0.0393138
0.0429972
0.0466368
0.0502129
0.0537061
0.0570972
0.0603676
0.0634991
0.066474
0.0692758
0.0718884
0.0742973
0.0764888
0.0784508
0.0801726
0.0816454
0.082862
0.0838175
0.084509
0.0849361
0.085101
0.0850087
0.084667
0.0840873
0.083284
0.0822757
0.0810845
0.079737
0.0782642
0.0767019
0.075091
0.0734774
0.0719122
0.0704512
0.0691539
0.0680794
0.0672881
0.0668654
0.066863
0.0015458
0.00136072
0.000836692
1.68891e-05
-0.00103198
-0.0022563
-0.00360429
-0.00502521
-0.00647139
-0.00789923
-0.0092695
-0.0105475
-0.0117028
-0.0127093
-0.0135449
-0.0141911
-0.0146329
-0.0148582
-0.0148583
-0.0146267
-0.0141596
-0.0134554
-0.0125145
-0.0113394
-0.00993406
-0.00830427
-0.00645721
-0.00440145
-0.00214683
0.000295683
0.00291402
0.00569517
0.00862519
0.0116893
0.0148721
0.0181573
0.0215282
0.0249675
0.0284575
0.0319801
0.035517
0.0390496
0.0425591
0.0460269
0.0494345
0.0527633
0.0559952
0.0591125
0.062098
0.0649351
0.067608
0.0701017
0.0724025
0.0744977
0.076376
0.0780274
0.0794437
0.0806185
0.0815474
0.082228
0.0826602
0.0828463
0.0827914
0.0825034
0.0819929
0.0812741
0.0803643
0.0792844
0.0780591
0.076717
0.0752908
0.0738171
0.0723369
0.0708948
0.069539
0.0683198
0.0672878
0.0664945
0.0660082
0.0658726
0.00299563
0.00258394
0.00193198
0.00105922
2.9139e-06
-0.00119208
-0.00248184
-0.00382406
-0.00517843
-0.00650745
-0.0077769
-0.00895605
-0.0100178
-0.0109384
-0.0116976
-0.0122785
-0.012667
-0.0128519
-0.0128247
-0.0125794
-0.0121121
-0.0114212
-0.0105068
-0.00937106
-0.00801765
-0.0064518
-0.00468016
-0.00271069
-0.000552585
0.00178385
0.00428727
0.0069454
0.00974507
0.0126723
0.0157125
0.0188502
0.0220695
0.0253541
0.028687
0.0320511
0.0354288
0.0388026
0.0421545
0.0454669
0.048722
0.0519023
0.0549905
0.0579697
0.0608238
0.0635368
0.0660939
0.0684809
0.0706847
0.0726935
0.0744966
0.0760848
0.0774503
0.0785872
0.0794915
0.0801611
0.0805961
0.0807989
0.0807744
0.08053
0.0800761
0.0794258
0.0785953
0.077604
0.0764746
0.0752331
0.073909
0.0725348
0.0711466
0.0697831
0.0684853
0.0672958
0.0662576
0.0654147
0.0648081
0.0644603
0.00475944
0.00407073
0.00324767
0.00228166
0.0011765
-3.07123e-05
-0.0013027
-0.00260475
-0.00390326
-0.00516638
-0.00636465
-0.00747129
-0.00846235
-0.00931678
-0.0100164
-0.0105457
-0.010892
-0.0110449
-0.0109967
-0.0107416
-0.0102761
-0.00959847
-0.00870892
-0.00760932
-0.00630307
-0.00479504
-0.00309145
-0.00119975
0.000871425
0.00311236
0.00551234
0.00805975
0.0107421
0.0135462
0.0164581
0.0194631
0.0225462
0.0256917
0.0288836
0.0321053
0.0353404
0.0385718
0.0417827
0.0449561
0.048075
0.0511227
0.0540828
0.0569391
0.0596762
0.062279
0.0647333
0.0670257
0.0691436
0.0710759
0.0728124
0.0743443
0.0756645
0.0767674
0.077649
0.0783075
0.0787431
0.078958
0.0789569
0.0787466
0.0783369
0.0777399
0.0769705
0.0760465
0.0749885
0.0738198
0.0725668
0.0712582
0.0699253
0.0686015
0.0673214
0.0661204
0.0650354
0.0641032
0.0633336
0.0627225
0.00674646
0.00575249
0.0047285
0.00363761
0.00244967
0.00119523
-9.38664e-05
-0.0013896
-0.00266438
-0.00389149
-0.00504588
-0.00610452
-0.00704662
-0.00785372
-0.00850972
-0.0090009
-0.00931581
-0.00944523
-0.00938205
-0.00912115
-0.00865932
-0.0079951
-0.00712871
-0.00606193
-0.00479802
-0.00334158
-0.0016985
0.000124169
0.00211826
0.00427457
0.00658294
0.00903232
0.0116109
0.014306
0.0171044
0.0199921
0.0229548
0.0259775
0.0290449
0.0321411
0.0352505
0.0383567
0.0414435
0.0444948
0.0474942
0.0504258
0.0532738
0.0560228
0.0586578
0.0611646
0.0635294
0.0657395
0.0677828
0.0696487
0.0713273
0.0728103
0.0740908
0.0751634
0.0760245
0.076672
0.077106
0.0773287
0.0773441
0.0771588
0.0767814
0.0762231
0.0754974
0.0746205
0.0736108
0.0724891
0.0712787
0.0700048
0.0686944
0.0673759
0.0660783
0.0648308
0.0636652
0.0626123
0.0616496
0.0607459
0.00887737
0.00756466
0.00632065
0.0050817
0.00378489
0.00245551
0.00112101
-0.000196394
-0.00147443
-0.00269099
-0.00382506
-0.00485713
-0.0057694
-0.00654594
-0.00717277
-0.0076379
-0.0079313
-0.00804486
-0.00797235
-0.00770932
-0.007253
-0.00660225
-0.00575745
-0.00472041
-0.00349431
-0.0020836
-0.000493919
0.00126799
0.00319432
0.00527632
0.00750429
0.0098677
0.0123552
0.0149548
0.0176538
0.0204389
0.0232963
0.0262117
0.0291703
0.0321571
0.0351569
0.0381541
0.0411331
0.0440784
0.0469743
0.0498054
0.0525565
0.0552129
0.0577601
0.0601843
0.0624724
0.0646119
0.0665914
0.0684003
0.0700294
0.0714704
0.0727166
0.0737629
0.0746053
0.0752421
0.0756729
0.0758994
0.0759255
0.0757567
0.075401
0.0748684
0.074171
0.0733233
0.0723416
0.0712443
0.0700519
0.0687862
0.0674704
0.0661286
0.0647848
0.0634627
0.0621902
0.0609931
0.0598176
0.0586068
0.0110851
0.0094497
0.00797457
0.00657136
0.00514624
0.00372042
0.00231796
0.000956093
-0.000347558
-0.00157497
-0.00270878
-0.00373271
-0.00463177
-0.00539246
-0.00600285
-0.00645268
-0.00673335
-0.00683794
-0.00676113
-0.00649921
-0.00604997
-0.00541266
-0.00458789
-0.00357761
-0.002385
-0.00101443
0.000528613
0.00223762
0.00410508
0.00612258
0.00828084
0.0105698
0.0129785
0.0154955
0.0181085
0.0208049
0.0235714
0.0263941
0.0292591
0.0321518
0.0350574
0.0379611
0.0408478
0.0437024
0.0465099
0.0492555
0.0519243
0.0545022
0.0569751
0.0593296
0.061553
0.0636332
0.0655591
0.0673203
0.0689078
0.0703136
0.0715309
0.0725545
0.0733806
0.074007
0.0744332
0.0746605
0.074692
0.0745326
0.0741892
0.0736709
0.0729883
0.0721541
0.0711828
0.0700906
0.0688951
0.0676153
0.0662709
0.0648822
0.0634689
0.0620501
0.0606506
0.0592926
0.0578925
0.0563696
0.0133137
0.0113575
0.00964577
0.00806747
0.00649986
0.00496117
0.00347294
0.00204818
0.000700512
-0.000555633
-0.00170616
-0.0027377
-0.00363789
-0.00439549
-0.00500055
-0.00544451
-0.00572018
-0.00582183
-0.00574511
-0.00548709
-0.00504616
-0.00442203
-0.00361565
-0.00262914
-0.00146578
-0.000129928
0.00137303
0.00303673
0.00485389
0.00681637
0.00891521
0.0111407
0.0134824
0.0159291
0.0184692
0.0210903
0.0237797
0.0265241
0.0293099
0.0321231
0.0349495
0.0377746
0.0405838
0.0433627
0.0460965
0.0487708
0.0513714
0.0538843
0.056296
0.0585933
0.0607637
0.0627955
0.0646778
0.0664004
0.0679542
0.0693313
0.070525
0.07153
0.0723422
0.0729591
0.07338
0.0736054
0.0736379
0.0734817
0.0731428
0.0726288
0.0719492
0.0711151
0.0701391
0.0690353
0.0678189
0.0665061
0.0651137
0.0636588
0.0621574
0.0606246
0.0590833
0.0575527
0.0559217
0.0540876
0.0155162
0.0132445
0.0112946
0.00953437
0.00781424
0.00615035
0.00456248
0.00306012
0.00165346
0.000353813
-0.0008276
-0.00188007
-0.00279358
-0.00355903
-0.00416832
-0.00461451
-0.00489183
-0.00499569
-0.00492275
-0.00467087
-0.0042391
-0.00362764
-0.00283782
-0.00187202
-0.000733668
0.000572831
0.00204212
0.00366792
0.00544311
0.00735976
0.00940917
0.0115819
0.0138679
0.0162564
0.018736
0.0212949
0.0239206
0.0266004
0.0293211
0.0320691
0.0348306
0.0375915
0.0403378
0.0430551
0.0457294
0.0483465
0.0508925
0.0533536
0.0557167
0.0579689
0.0600978
0.0620919
0.0639404
0.0656331
0.067161
0.0685162
0.0696918
0.0706823
0.0714833
0.0720921
0.0725074
0.0727292
0.0727594
0.0726013
0.07226
0.071742
0.0710554
0.0702099
0.0692163
0.0680867
0.0668344
0.0654729
0.0640167
0.0624799
0.0608755
0.0592156
0.0575214
0.0558106
0.0539461
0.0518051
0.0176534
0.0150731
0.0128858
0.0109397
0.00906023
0.00726209
0.00556395
0.0039724
0.00249472
0.00113954
-8.44606e-05
-0.00116892
-0.00210598
-0.00288849
-0.00351008
-0.00396535
-0.00424986
-0.0043602
-0.004294
-0.00404993
-0.00362771
-0.00302807
-0.00225275
-0.00130445
-0.0001868
0.00109569
0.00253763
0.0041328
0.00587418
0.00775397
0.00976369
0.0118941
0.0141355
0.0164774
0.0189087
0.021418
0.0239931
0.0266216
0.0292908
0.0319873
0.0346979
0.0374087
0.040106
0.0427758
0.0454044
0.0479777
0.0504823
0.0529046
0.0552316
0.0574505
0.0595491
0.061516
0.0633403
0.065012
0.066522
0.067862
0.0690252
0.0700056
0.0707987
0.0714011
0.0718112
0.0720284
0.0720538
0.0718899
0.0715407
0.0710117
0.0703098
0.0694432
0.0684212
0.0672542
0.0659533
0.0645303
0.0629972
0.0613659
0.0596469
0.0578496
0.0559947
0.0540987
0.0520007
0.0495586
0.0196917
0.0168104
0.014388
0.0122543
0.0102109
0.00827205
0.00645565
0.00476591
0.00320768
0.00178727
0.000511184
-0.000614334
-0.00158337
-0.00239054
-0.00303109
-0.00350106
-0.00379729
-0.00391748
-0.00386022
-0.00362501
-0.00321224
-0.0026232
-0.00186006
-0.000925864
0.000175514
0.0014394
0.00286032
0.00443205
0.00614764
0.00799939
0.00997895
0.0120773
0.0142849
0.0165915
0.0189864
0.0214583
0.0239955
0.0265858
0.0292167
0.0318753
0.0345485
0.0372228
0.0398848
0.0425208
0.0451171
0.04766
0.0501362
0.0525322
0.0548352
0.0570326
0.0591121
0.0610622
0.0628721
0.0645316
0.0660315
0.0673634
0.0685201
0.0694952
0.070284
0.0708825
0.0712885
0.0715008
0.0715198
0.0713472
0.0709859
0.0704404
0.0697165
0.0688209
0.0677616
0.0665473
0.0651877
0.0636925
0.062072
0.0603361
0.0584933
0.0565511
0.0545298
0.0524458
0.0501153
0.0473787
0.0216025
0.0184277
0.0157733
0.0134515
0.0112415
0.00915737
0.00721679
0.00542201
0.00377578
0.0022825
0.000946713
-0.000227163
-0.00123497
-0.00207293
-0.0027378
-0.00322693
-0.00353838
-0.00367092
-0.00362407
-0.00339815
-0.00299422
-0.00241414
-0.00166054
-0.000736813
0.000352876
0.00160365
0.00300992
0.00456541
0.00626317
0.00809558
0.0100544
0.0121307
0.0143151
0.0165976
0.0189676
0.0214142
0.0239259
0.0264907
0.0290963
0.0317302
0.0343793
0.0370306
0.0396707
0.0422861
0.0448633
0.0473889
0.0498495
0.0522318
0.0545229
0.0567102
0.0587817
0.0607255
0.0625307
0.064187
0.065685
0.067016
0.0681724
0.0691476
0.0699361
0.0705338
0.0709375
0.0711456
0.0711575
0.0709743
0.0705978
0.0700317
0.0692803
0.0683494
0.0672456
0.0659763
0.0645495
0.0629736
0.0612573
0.0594089
0.0574352
0.0553423
0.0531507
0.0508768
0.0483158
0.045291
0.0233606
0.0198995
0.0170165
0.014507
0.012129
0.00989652
0.00782751
0.00592254
0.00418265
0.00261053
0.0012091
-1.88711e-05
-0.00107078
-0.00194434
-0.00263765
-0.00314932
-0.00347854
-0.00362509
-0.0035894
-0.00337256
-0.00297633
-0.00240313
-0.00165606
-0.000738914
0.00034387
0.00158718
0.00298525
0.00453173
0.00621962
0.00804132
0.00998865
0.0120528
0.0142245
0.0164938
0.0188505
0.0212836
0.0237819
0.0263337
0.0289269
0.0315489
0.0341871
0.0368285
0.0394598
0.0420678
0.0446391
0.0471602
0.0496178
0.0519987
0.05429
0.056479
0.0585533
0.0605014
0.0623118
0.0639742
0.0654786
0.0668163
0.0679791
0.06896
0.069753
0.0703534
0.0707575
0.0709627
0.0709679
0.0707732
0.0703797
0.0697899
0.0690072
0.0680362
0.0668822
0.0655516
0.0640511
0.0623877
0.0605688
0.0586015
0.0564915
0.0542435
0.0518787
0.0494141
0.0466245
0.0433172
0.024944
0.021203
0.0180948
0.0153985
0.0128518
0.0104691
0.00826873
0.00624985
0.00441205
0.00275662
0.00128501
-1.4262e-06
-0.00110149
-0.00201422
-0.00273899
-0.00327557
-0.00362418
-0.00378559
-0.00376108
-0.00355251
-0.00316229
-0.00259345
-0.00184955
-0.000934767
0.000146127
0.00138778
0.00278424
0.00432901
0.00601502
0.00783466
0.00977976
0.0118416
0.0140109
0.016278
0.0186325
0.0210639
0.0235609
0.026112
0.0287052
0.0313282
0.0339684
0.0366128
0.0392485
0.0418621
0.0444404
0.0469698
0.0494371
0.051829
0.0541324
0.0563346
0.0584231
0.060386
0.0622118
0.0638896
0.0654093
0.0667615
0.0679378
0.0689306
0.0697334
0.0703409
0.0707485
0.0709532
0.070953
0.070747
0.0703356
0.0697203
0.0689036
0.0678889
0.0666807
0.065284
0.0637045
0.0619482
0.0600215
0.0579305
0.0556798
0.0532734
0.0507333
0.0480775
0.0450611
0.041476
0.0263327
0.0223175
0.0189872
0.0161053
0.0133899
0.0108559
0.00852211
0.00638669
0.00444794
0.00270593
0.00116085
-0.000187227
-0.00133835
-0.00229275
-0.00305097
-0.00361386
-0.00398265
-0.00415899
-0.004145
-0.00394326
-0.00355685
-0.00298936
-0.00224485
-0.0013279
-0.000243615
0.00100239
0.00240397
0.00395445
0.00564666
0.00747292
0.00942504
0.0114943
0.0136716
0.0159472
0.0183108
0.0207519
0.0232595
0.0258221
0.0284278
0.0310644
0.0337194
0.0363799
0.0390329
0.041665
0.0442631
0.0468137
0.0493033
0.0517185
0.0540462
0.0562734
0.0583874
0.060376
0.0622274
0.0639303
0.0654743
0.0668495
0.0680469
0.0690584
0.069877
0.0704965
0.0709118
0.0711191
0.0711156
0.0708995
0.0704705
0.069829
0.0689767
0.0679161
0.0666506
0.0651843
0.063522
0.0616688
0.0596302
0.0574116
0.0550169
0.0524494
0.0497324
0.0468849
0.0436431
0.0397837
0.0275086
0.0232237
0.0196741
0.016608
0.0137242
0.0110383
0.00856986
0.00631616
0.0042744
0.00244358
0.000822782
-0.000589056
-0.00179311
-0.00279071
-0.00358345
-0.00417319
-0.0045621
-0.0047527
-0.00474789
-0.00455096
-0.00416563
-0.00359602
-0.00284672
-0.00192272
-0.000829467
0.000427146
0.00184075
0.00340449
0.00511107
0.0069527
0.00892115
0.0110077
0.0132032
0.015498
0.0178819
0.0203443
0.0228743
0.0254605
0.0280911
0.0307539
0.0334364
0.0361257
0.0388089
0.0414726
0.0441034
0.0466879
0.0492124
0.0516635
0.0540277
0.0562918
0.0584428
0.0604682
0.0623559
0.0640941
0.0656719
0.0670789
0.0683056
0.0693432
0.0701841
0.0708213
0.0712492
0.071463
0.0714592
0.0712353
0.0707899
0.0701226
0.0692343
0.0681266
0.066802
0.0652638
0.0635159
0.0615628
0.0594092
0.05706
0.0545186
0.0517879
0.0488925
0.0458527
0.0423863
0.038255
0.0284547
0.0239039
0.0201373
0.0168881
0.0138363
0.0109984
0.00839467
0.00602165
0.00387561
0.00195461
0.000256747
-0.00122006
-0.00247801
-0.00351945
-0.00434693
-0.00496326
-0.00537149
-0.00557497
-0.00557736
-0.00538263
-0.0049951
-0.00441946
-0.00366077
-0.00272446
-0.00161634
-0.000342602
0.00109015
0.00267488
0.00440413
0.00626999
0.00826414
0.0103778
0.0126018
0.0149265
0.0173418
0.019837
0.0224013
0.0250232
0.027691
0.0303925
0.0331152
0.0358462
0.0385725
0.0412807
0.0439572
0.0465884
0.0491607
0.0516602
0.0540733
0.0563864
0.0585864
0.0606601
0.062595
0.0643791
0.0660006
0.0674488
0.0687135
0.0697853
0.0706557
0.0713171
0.0717632
0.0719884
0.0719883
0.0717596
0.0713
0.0706085
0.0696848
0.0685298
0.0671454
0.0655339
0.0636988
0.0616436
0.0593727
0.0568906
0.0542002
0.0513046
0.0482294
0.0449965
0.0413055
0.0369032
0.0291549
0.0243409
0.0203591
0.0169278
0.0137086
0.0107188
0.00797953
0.00548671
0.00323576
0.00122393
-0.000551565
-0.00209375
-0.00340575
-0.00449086
-0.00535253
-0.00599443
-0.00642047
-0.00663479
-0.00664176
-0.00644602
-0.00605251
-0.00546645
-0.00469337
-0.00373913
-0.00260991
-0.00131223
0.000147041
0.00176068
0.00352104
0.00542011
0.00744943
0.00960017
0.0118631
0.0142284
0.0166862
0.0192257
0.0218361
0.0245058
0.0272232
0.0299759
0.0327515
0.0355371
0.0383195
0.0410852
0.0438204
0.0465115
0.0491443
0.0517051
0.0541797
0.0565544
0.0588153
0.0609492
0.0629428
0.0647836
0.0664595
0.0679588
0.0692708
0.0703854
0.0712934
0.0719864
0.0724572
0.0726995
0.0727079
0.0724785
0.072008
0.0712945
0.070337
0.0691357
0.0676916
0.0660065
0.0640831
0.0619245
0.0595348
0.056918
0.0540769
0.0510144
0.047758
0.0443309
0.0404145
0.035741
0.0295936
0.0245182
0.0203225
0.0167099
0.0133238
0.0101823
0.00730762
0.00469495
0.002339
0.00023631
-0.00161673
-0.00322399
-0.00458948
-0.00571736
-0.00661194
-0.00727772
-0.00771939
-0.00794184
-0.00795017
-0.00774967
-0.00734586
-0.0067445
-0.0059516
-0.00497342
-0.00381655
-0.00248782
-0.00099438
0.000656309
0.00245644
0.00439783
0.00647192
0.00866976
0.010982
0.0133989
0.0159103
0.0185057
0.0211739
0.0239036
0.0266829
0.0294995
0.0323409
0.0351939
0.0380454
0.0408817
0.0436889
0.046453
0.0491596
0.0517947
0.0543438
0.0567926
0.0591271
0.0613333
0.0633976
0.0653067
0.0670479
0.068609
0.0699783
0.0711452
0.0720995
0.0728322
0.073335
0.0736009
0.0736237
0.0733985
0.0729212
0.0721891
0.0712005
0.0699547
0.068452
0.0666937
0.0646818
0.0624192
0.0599095
0.0571567
0.0541633
0.0509324
0.047493
0.0438701
0.0397268
0.0347805
0.0297555
0.0244197
0.0200108
0.0162175
0.0126649
0.00937201
0.00636216
0.00362993
0.00116936
-0.00102371
-0.00295362
-0.00462504
-0.00604279
-0.00721187
-0.00813741
-0.0088247
-0.00927919
-0.00950648
-0.00951237
-0.00930279
-0.00888385
-0.00826184
-0.00744323
-0.00643474
-0.00524329
-0.00387608
-0.00234055
-0.000644396
0.00120436
0.00319738
0.00532598
0.00758108
0.00995324
0.0124326
0.015009
0.0176718
0.0204098
0.0232116
0.0260653
0.0289585
0.0318784
0.034812
0.0377458
0.0406659
0.0435584
0.0464089
0.0492027
0.0519254
0.0545622
0.0570984
0.0595194
0.0618106
0.063958
0.0659475
0.0677657
0.0693997
0.0708372
0.0720665
0.0730767
0.0738579
0.0744011
0.0746981
0.074742
0.0745268
0.0740479
0.0733016
0.0722853
0.0709977
0.0694383
0.067608
0.0655083
0.0631416
0.0605114
0.0576215
0.0544745
0.0510734
0.0474491
0.0436283
0.0392558
0.0340339
0.0296253
0.0240293
0.0194074
0.0154336
0.0117147
0.0082709
0.00512633
0.00227512
-0.000289351
-0.00257187
-0.00457746
-0.00631155
-0.00777976
-0.00898786
-0.00994177
-0.0106476
-0.0111114
-0.0113397
-0.0113388
-0.0111152
-0.0106758
-0.0100273
-0.00917668
-0.00813107
-0.00689778
-0.00548433
-0.00389847
-0.00214818
-0.000241698
0.00181247
0.00400548
0.00632815
0.00877091
0.0113238
0.0139766
0.0167184
0.0195383
0.0224245
0.0253651
0.0283476
0.0313591
0.0343864
0.0374158
0.0404333
0.0434246
0.0463751
0.0492698
0.0520939
0.054832
0.057469
0.0599898
0.0623794
0.0646227
0.0667053
0.0686129
0.0703318
0.0718489
0.0731516
0.0742282
0.0750678
0.0756603
0.0759969
0.0760695
0.0758714
0.0753969
0.0746416
0.073602
0.0722762
0.070663
0.0687627
0.0665763
0.0641061
0.0613552
0.0583275
0.0550254
0.0514524
0.047641
0.0436197
0.0390147
0.0335131
0.0291878
0.0233309
0.0184956
0.0143413
0.0104563
0.00686184
0.00358309
0.000613685
-0.00205362
-0.00442423
-0.00650385
-0.00829862
-0.00981491
-0.0110593
-0.0120384
-0.0127591
-0.0132283
-0.013453
-0.0134404
-0.0131975
-0.0127317
-0.0120504
-0.011161
-0.010071
-0.00878819
-0.00732041
-0.0056757
-0.00386232
-0.00188873
0.000236331
0.00250388
0.00490458
0.00742878
0.0100664
0.012807
0.0156398
0.0185536
0.0215366
0.0245767
0.0276614
0.0307777
0.033912
0.0370506
0.0401791
0.043283
0.0463474
0.049357
0.0522964
0.0551499
0.0579018
0.0605363
0.0630379
0.0653908
0.0675798
0.0695899
0.0714064
0.0730154
0.0744033
0.0755576
0.0764662
0.0771183
0.0775038
0.0776139
0.0774407
0.0769777
0.0762195
0.075162
0.0738024
0.0721389
0.0701713
0.0679002
0.0653274
0.0624561
0.05929
0.0558318
0.0520849
0.0480839
0.043859
0.0390176
0.033231
0.0284273
0.0223081
0.0172587
0.0129234
0.0088723
0.00512743
0.00171513
-0.00137149
-0.0041403
-0.0065973
-0.00874886
-0.0106018
-0.0121633
-0.0134406
-0.0144412
-0.0151726
-0.0156425
-0.0158587
-0.0158287
-0.0155606
-0.0150621
-0.0143411
-0.0134056
-0.0122636
-0.0109232
-0.00939267
-0.00768025
-0.00579452
-0.0037442
-0.00153824
0.000814189
0.00330361
0.00592024
0.00865391
0.0114941
0.0144298
0.0174497
0.020542
0.0236945
0.0268944
0.0301287
0.0333836
0.036645
0.0398985
0.0431291
0.0463217
0.0494604
0.0525295
0.0555128
0.058394
0.0611568
0.0637846
0.0662614
0.0685709
0.0706972
0.0726249
0.0743389
0.0758248
0.0770689
0.0780583
0.078781
0.0792259
0.0793831
0.0792437
0.0788002
0.0780464
0.0769772
0.0755892
0.0738799
0.0718483
0.0694949
0.0668212
0.06383
0.0605253
0.0569097
0.052987
0.0487935
0.0443615
0.0392787
0.0332007
0.0273277
0.0209441
0.0156792
0.0111624
0.00694491
0.00304991
-0.000495263
-0.00369797
-0.0065667
-0.00910804
-0.011329
-0.0132373
-0.0148405
-0.0161469
-0.0171647
-0.017902
-0.0183674
-0.0185693
-0.0185161
-0.0182162
-0.017678
-0.01691
-0.0159207
-0.0147186
-0.0133121
-0.0117099
-0.00992056
-0.00795292
-0.00581595
-0.00351882
-0.00107092
0.00151812
0.00423838
0.00707959
0.0100311
0.0130818
0.0162203
0.0194346
0.0227123
0.0260407
0.0294064
0.0327956
0.0361939
0.0395865
0.0429582
0.0462933
0.0495759
0.0527896
0.0559176
0.0589431
0.061849
0.0646182
0.0672337
0.0696784
0.0719356
0.0739887
0.0758218
0.0774195
0.0787667
0.0798496
0.080655
0.0811707
0.0813857
0.0812901
0.0808752
0.080134
0.0790604
0.0776502
0.0759002
0.073809
0.0713765
0.0686038
0.0654938
0.0620504
0.0582762
0.0541754
0.0497864
0.0451431
0.0398133
0.0334363
0.0258724
0.0192216
0.0137396
0.00904014
0.00465596
0.000610984
-0.00306633
-0.00638384
-0.00935066
-0.011974
-0.0142615
-0.0162216
-0.0178627
-0.0191938
-0.0202238
-0.0209618
-0.0214169
-0.0215983
-0.021515
-0.0211762
-0.020591
-0.0197682
-0.0187169
-0.017446
-0.0159645
-0.0142813
-0.0124054
-0.010346
-0.00811214
-0.00571332
-0.00315911
-0.000459306
0.002376
0.00533643
0.00841122
0.0115892
0.0148588
0.0182079
0.0216241
0.0250943
0.0286051
0.0321424
0.0356917
0.0392378
0.0427652
0.0462579
0.0496994
0.0530729
0.056361
0.0595463
0.062611
0.0655372
0.068307
0.0709025
0.0733059
0.0754998
0.0774671
0.079191
0.0806557
0.0818459
0.0827472
0.0833463
0.083631
0.0835902
0.0832142
0.0824948
0.0814251
0.0799999
0.0782153
0.0760694
0.0735614
0.0706924
0.0674649
0.063883
0.0599492
0.0556681
0.0510799
0.0462208
0.0406377
0.033953
0.0240441
0.0171228
0.0114213
0.0065381
0.00198661
-0.00220823
-0.0060169
-0.00944779
-0.0125106
-0.0152133
-0.0175641
-0.0195721
-0.0212467
-0.0225975
-0.0236344
-0.024367
-0.0248054
-0.0249594
-0.0248388
-0.0244535
-0.023813
-0.022927
-0.0218049
-0.0204562
-0.0188902
-0.0171163
-0.015144
-0.0129824
-0.0106412
-0.00812987
-0.00545825
-0.00263631
0.000325693
0.00341725
0.00662749
0.00994516
0.0133586
0.0168555
0.0204234
0.024049
0.0277187
0.0314183
0.0351329
0.0388472
0.0425454
0.0462108
0.0498267
0.0533756
0.0568398
0.0602009
0.0634407
0.0665402
0.0694807
0.0722434
0.0748094
0.0771602
0.0792776
0.0811436
0.082741
0.0840534
0.0850651
0.0857614
0.0861288
0.0861551
0.0858293
0.0851421
0.0840856
0.0826536
0.0808415
0.0786466
0.0760677
0.0731055
0.0697623
0.0660421
0.0619478
0.0574839
0.052693
0.0476129
0.0417693
0.0347672
0.0218248
0.014629
0.00870539
0.00363683
-0.0010827
-0.00542736
-0.00936656
-0.0129092
-0.0160658
-0.0188447
-0.0212551
-0.0233067
-0.0250098
-0.0263749
-0.0274124
-0.0281332
-0.0285478
-0.0286669
-0.0285011
-0.0280609
-0.0273566
-0.0263983
-0.0251961
-0.0237599
-0.0220996
-0.0202249
-0.0181456
-0.0158713
-0.0134117
-0.0107768
-0.00797636
-0.00502068
-0.00192011
0.00131469
0.00467274
0.00814269
0.0117128
0.0153707
0.0191037
0.0228984
0.0267411
0.0306173
0.0345119
0.0384094
0.0422935
0.0461473
0.0499535
0.053694
0.0573506
0.0609043
0.0643359
0.0676258
0.0707542
0.0737013
0.0764472
0.0789721
0.0812566
0.0832815
0.0850282
0.086479
0.0876166
0.0884251
0.0888896
0.0889965
0.0887335
0.0880901
0.0870572
0.0856277
0.0837961
0.0815588
0.0789142
0.0758625
0.0724058
0.0685482
0.0642924
0.0596432
0.0546454
0.0493389
0.0432271
0.0358967
0.0191956
0.0117205
0.00557179
0.000316111
-0.00457237
-0.00906686
-0.0131357
-0.0167884
-0.0200361
-0.0228879
-0.0253537
-0.0274442
-0.0291703
-0.0305434
-0.0315749
-0.0322765
-0.0326596
-0.0327356
-0.032516
-0.032012
-0.0312344
-0.0301942
-0.028902
-0.0273682
-0.0256031
-0.0236169
-0.0214197
-0.0190216
-0.0164324
-0.0136624
-0.0107215
-0.00762025
-0.00436902
-0.000978652
0.00253977
0.00617479
0.00991456
0.0137467
0.0176584
0.0216362
0.0256661
0.0297334
0.033823
0.0379188
0.0420044
0.0460625
0.0500752
0.0540241
0.0578901
0.0616535
0.0652945
0.0687925
0.0721268
0.0752765
0.0782205
0.0809377
0.0834075
0.0856093
0.0875231
0.0891295
0.0904101
0.0913472
0.0919244
0.0921267
0.0919405
0.0913537
0.0903562
0.0889396
0.0870975
0.0848254
0.0821211
0.0789843
0.0754169
0.0714228
0.0670048
0.0621678
0.0569589
0.05142
0.0450313
0.0373608
0.0161366
0.00837704
0.00199962
-0.00344525
-0.00850374
-0.0131481
-0.0173456
-0.0211064
-0.0244423
-0.0273633
-0.02988
-0.0320038
-0.0337468
-0.0351212
-0.0361393
-0.0368137
-0.0371568
-0.0371809
-0.0368981
-0.0363204
-0.0354597
-0.0343272
-0.0329344
-0.0312922
-0.0294113
-0.0273025
-0.0249761
-0.0224425
-0.0197121
-0.0167951
-0.0137019
-0.0104428
-0.00702859
-0.00347012
0.00022142
0.0040345
0.00795718
0.0119771
0.0160812
0.0202561
0.0244875
0.0287608
0.0330603
0.03737
0.041673
0.0459516
0.0501876
0.0543618
0.0584547
0.0624458
0.0663144
0.0700391
0.0735981
0.0769693
0.0801306
0.0830595
0.0857339
0.0881318
0.0902317
0.0920127
0.0934545
0.094538
0.0952451
0.0955591
0.0954649
0.0949491
0.0939999
0.0926079
0.0907654
0.0884672
0.0857102
0.0824934
0.0788186
0.0746894
0.0701086
0.0650813
0.0596568
0.0538791
0.0472043
0.0391808
0.0126267
0.00457689
-0.00203314
-0.00766951
-0.0128992
-0.0176936
-0.0220187
-0.0258854
-0.0293064
-0.0322923
-0.0348547
-0.037006
-0.0387591
-0.0401272
-0.0411238
-0.0417622
-0.042056
-0.0420183
-0.0416622
-0.0410005
-0.0400456
-0.0388099
-0.0373052
-0.0355431
-0.0335349
-0.0312916
-0.0288242
-0.0261432
-0.0232594
-0.0201832
-0.0169252
-0.013496
-0.0099062
-0.0061669
-0.00228931
0.00171496
0.00583393
0.0100551
0.0143656
0.0187518
0.0231993
0.0276934
0.0322183
0.0367575
0.041294
0.0458098
0.0502861
0.0547032
0.059041
0.0632783
0.0673934
0.071364
0.0751674
0.0787802
0.082179
0.0853401
0.0882397
0.0908543
0.0931607
0.0951363
0.0967592
0.0980083
0.0988639
0.0993076
0.0993223
0.0988931
0.0980068
0.0966524
0.0948211
0.0925065
0.0897046
0.0864139
0.0826355
0.0783731
0.0736292
0.0684091
0.0627643
0.0567411
0.0497702
0.0413798
0.00864411
0.000297362
-0.00654967
-0.0123802
-0.0177825
-0.0227269
-0.0271785
-0.0311487
-0.0346512
-0.0376973
-0.0402997
-0.0424718
-0.0442274
-0.045581
-0.046547
-0.0471399
-0.0473742
-0.0472641
-0.0468236
-0.0460664
-0.0450059
-0.043655
-0.0420263
-0.0401321
-0.0379843
-0.0355942
-0.0329733
-0.0301325
-0.0270827
-0.0238348
-0.0203993
-0.0167871
-0.013009
-0.00907588
-0.00499915
-0.000790399
0.00353837
0.00797466
0.0125055
0.0171172
0.0217956
0.0265255
0.0312912
0.036076
0.0408625
0.0456323
0.0503663
0.0550443
0.0596455
0.064148
0.0685292
0.0727659
0.0768342
0.0807096
0.0843672
0.087782
0.0909286
0.0937818
0.0963166
0.0985086
0.100334
0.10177
0.102794
0.103387
0.103529
0.103204
0.102397
0.101094
0.0992869
0.0969669
0.0941292
0.0907715
0.0868944
0.0825011
0.0775942
0.0721788
0.0663089
0.0600331
0.0527554
0.0439832
0.0041653
-0.0044856
-0.0115745
-0.017602
-0.0231784
-0.028273
-0.0328497
-0.0369208
-0.0405007
-0.0436019
-0.046238
-0.0484234
-0.0501732
-0.051503
-0.0524285
-0.0529652
-0.0531288
-0.0529346
-0.0523977
-0.0515328
-0.050354
-0.0488752
-0.0471097
-0.0450705
-0.0427699
-0.04022
-0.0374326
-0.0344189
-0.0311902
-0.0277574
-0.0241315
-0.0203232
-0.0163436
-0.0122035
-0.00791441
-0.00348775
0.00106443
0.00572966
0.010495
0.0153467
0.0202706
0.0252516
0.0302737
0.0353201
0.0403732
0.0454143
0.0504238
0.0553811
0.0602647
0.065052
0.0697196
0.0742433
0.0785979
0.0827579
0.0866968
0.0903881
0.0938048
0.0969199
0.0997066
0.102138
0.104189
0.105834
0.10705
0.107813
0.108103
0.107901
0.10719
0.105956
0.104187
0.101874
0.099011
0.0955943
0.091624
0.0871029
0.0820332
0.0764203
0.0703205
0.0637845
0.0561889
0.0470187
-0.000834393
-0.00979746
-0.0171337
-0.0233614
-0.0291135
-0.0343583
-0.0390586
-0.0432275
-0.0468804
-0.0500309
-0.0526934
-0.0548838
-0.0566186
-0.0579144
-0.0587883
-0.0592571
-0.0593377
-0.0590467
-0.0584003
-0.0574142
-0.0561035
-0.0544831
-0.052567
-0.0503689
-0.0479018
-0.0451783
-0.0422107
-0.0390105
-0.0355893
-0.0319583
-0.0281284
-0.0241108
-0.0199162
-0.0155558
-0.0110408
-0.00638272
-0.00159343
0.00331466
0.00832862
0.0134349
0.0186192
0.0238664
0.0291606
0.034485
0.0398215
0.0451513
0.0504544
0.0557098
0.0608952
0.0659876
0.0709625
0.0757947
0.0804581
0.0849255
0.0891693
0.0931612
0.0968725
0.100274
0.103338
0.106034
0.108336
0.110215
0.111645
0.112602
0.113062
0.113004
0.11241
0.111262
0.109548
0.107256
0.104379
0.100912
0.0968553
0.0922101
0.0869787
0.0811662
0.0748314
0.0680275
0.0601019
0.0505168
-0.00638117
-0.0156653
-0.0232548
-0.0296863
-0.0356159
-0.0410109
-0.0458331
-0.0500964