/*--------------------------------*- C++ -*----------------------------------*\
  =========                 |
  \\      /  F ield         | OpenFOAM: The Open Source CFD Toolbox
   \\    /   O peration     | Website:  https://openfoam.org
    \\  /    A nd           | Version:  7
     \\/     M anipulation  |
\*---------------------------------------------------------------------------*/
FoamFile
{
    version     2.0;
    format      ascii;
    class       surfaceScalarField;
    location    "5";
    object      phi;
}
// * * * * * * * * * * * * * * * * * * * * * * * * * * * * * * * * * * * * * //

dimensions      [0 3 -1 0 0 0 0];

internalField   nonuniform List<scalar> 
1150
(
-0.0277519
0.00248035
-0.0279144
-0.0287401
0.00235367
-0.0280667
0.00251582
-0.0289022
-0.0297911
0.00222598
-0.0282089
0.00237752
-0.0290538
-0.0299519
0.00209734
-0.0283407
0.00223816
-0.0291946
0.002388
-0.0301018
-0.0310509
0.00196782
-0.0284622
0.00209784
-0.0293246
0.00223651
-0.0302405
0.00238285
-0.0311972
-0.0322063
0.0018375
-0.0285733
0.00195663
-0.0294437
0.00208403
-0.0303679
0.00221891
-0.0313321
0.0023607
-0.0323481
-0.0334265
0.00170644
-0.0286739
0.00181464
-0.0295519
0.00193066
-0.0304839
0.00205402
-0.0314554
0.00218397
-0.0324781
0.00232101
-0.0335635
-0.034702
0.00246516
0.00157473
-0.0287641
0.00167193
-0.0296491
0.00177651
-0.0305885
0.00188828
-0.0315672
0.00200637
-0.0325962
0.00213108
-0.0336882
-0.0348333
0.00226238
0.00144243
-0.0288438
0.00152862
-0.0297353
0.00162168
-0.0306815
0.00172182
-0.0316674
0.00182803
-0.0327024
0.00194035
-0.0338006
-0.0349516
0.00205871
0.0013096
-0.028913
0.00138479
-0.0298105
0.00146628
-0.030763
0.00155473
-0.0317558
0.00164902
-0.0327967
0.00174893
-0.0339005
-0.0350569
0.00185419
0.00117631
-0.0289718
0.00124051
-0.0298747
0.00131041
-0.0308329
0.00138712
-0.0318325
0.00146946
-0.032879
0.00155687
-0.0339879
-0.0351489
0.00164888
0.00104262
-0.0290202
0.00109585
-0.0299279
0.00115418
-0.0308912
0.00121909
-0.0318974
0.00128941
-0.0329493
0.00136424
-0.0340627
-0.0352275
0.00144284
0.000908561
-0.0290582
0.000950881
-0.0299703
0.000997643
-0.030938
0.00105071
-0.0319505
0.00110894
-0.0330076
0.00117109
-0.0341249
-0.0352925
0.00123612
0.000774193
-0.0290857
0.000805648
-0.0300017
0.000840877
-0.0309732
0.000882056
-0.0319917
0.000928087
-0.0330536
0.000977482
-0.0341742
-0.0353439
0.0010288
0.000639553
-0.0291029
0.000660193
-0.0300224
0.000683926
-0.030997
0.000713182
-0.0320209
0.000746899
-0.0330873
0.000783444
-0.0342108
-0.0353814
0.000820984
0.000504688
-0.0291096
0.000514541
-0.0300322
0.000526831
-0.0310092
0.000544124
-0.0320382
0.000565421
-0.0331086
0.000589007
-0.0342344
-0.0354052
0.000612792
0.000373297
-0.0282205
0.000369651
-0.029106
0.000368713
-0.0300313
0.000369623
-0.0310102
0.000374901
-0.0320435
0.000383715
-0.0331174
0.000394191
-0.0342449
-0.0354153
0.000404333
0.000248479
-0.0282046
0.000234475
-0.029092
0.000222748
-0.0300195
0.000212305
-0.0309997
0.000205528
-0.0320367
0.000201801
-0.0331137
0.00019914
-0.0342422
-0.0354118
0.000195594
0.00012342
9.88083e-05
-0.0290673
7.65815e-05
-0.0299973
5.44097e-05
-0.0309775
3.5818e-05
-0.0320181
1.89679e-05
-0.0330968
4.46922e-06
-0.0342277
-0.0353929
-1.43654e-05
-3.67306e-05
-0.0290309
-6.95568e-05
-0.0299645
-0.000102799
-0.0309443
-0.000133649
-0.0319873
-0.000162721
-0.0330678
-0.000191763
-0.0341987
-0.0353623
-0.000222385
-0.000171374
-0.0289861
-0.000215887
-0.02992
-0.000260055
-0.0309001
-0.000303014
-0.0319443
-0.000344876
-0.0330259
-0.00038717
-0.0341564
-0.0353186
-0.000430918
-0.000306458
-0.0289312
-0.000361949
-0.0298645
-0.000417406
-0.0308447
-0.000472317
-0.0318894
-0.000527061
-0.0329712
-0.000582361
-0.0341011
-0.0352615
-0.000639398
-0.000441582
-0.0288659
-0.000507864
-0.0297982
-0.000574684
-0.0307779
-0.00064152
-0.0318226
-0.000709101
-0.0329036
-0.000777366
-0.000847675
-0.00057659
-0.0287901
-0.000653626
-0.0297212
-0.000731803
-0.0306997
-0.000810555
-0.00071139
-0.0287037
-0.000799193
0.0349307
0.000180123
-0.0349152
0.0349474
0.000387571
0.0349653
0.000594927
0.0349842
0.000802122
0.0350039
0.00100906
0.0350244
0.00121563
0.0350455
0.00142171
0.0350672
0.00162718
0.0350895
0.00183193
0.0351123
0.00203587
0.0351358
0.00223893
0.00244104
0.0356844
0.000168874
-0.0356731
0.0356969
0.000375093
0.0357107
0.000581131
0.0357258
0.000786934
0.0357425
0.000992452
0.0357605
0.00119763
0.0357798
0.00140239
0.0358003
0.00160665
0.0358219
0.00181032
0.0358445
0.0020133
0.0358679
0.0022155
0.00241681
0.0364793
0.000158855
-0.0364693
0.0364904
0.000364012
0.0365026
0.000568967
0.0365158
0.000773705
0.0365301
0.00097811
0.0365457
0.0011821
0.0365624
0.00138561
0.0365805
0.00158857
0.0365999
0.00179092
0.0366206
0.0019926
0.0366426
0.00219354
0.00239365
0.0372753
0.000149774
-0.0372662
0.0372859
0.000353415
0.0372979
0.000556977
0.0373112
0.000760373
0.0373258
0.000963515
0.0373416
0.00116631
0.0373586
0.00136865
0.0373767
0.00157046
0.037396
0.00177164
0.0374164
0.00197212
0.0374382
0.00217183
0.00237069
0.0381109
0.000142803
-0.038104
0.0381194
0.00034498
0.0381294
0.000546991
0.0381409
0.000748823
0.038154
0.000950387
0.0381687
0.0011516
0.038185
0.0013524
0.0382027
0.0015527
0.038222
0.00175241
0.0382426
0.00195147
0.0382647
0.00214978
0.00234727
0.0389673
0.000136405
-0.0389609
0.0389753
0.000337036
0.0389847
0.000537555
0.0389957
0.00073788
0.0390081
0.000937929
0.0390221
0.00113762
0.0390376
0.00133687
0.0390547
0.00153561
0.0390734
0.00173377
0.0390936
0.00193125
0.0391154
0.002128
0.00232394
0.0398454
0.000130877
-0.0398399
0.0398527
0.000329778
0.0398617
0.000528586
0.0398723
0.000727218
0.0398847
0.000925591
0.0398986
0.00112362
0.0399143
0.00132124
0.0399315
0.00151835
0.0399504
0.00171489
0.0399709
0.00191078
0.039993
0.00210594
0.00230029
0.0407526
0.000126063
-0.0407478
0.0407591
0.00032326
0.0407673
0.000520346
0.0407773
0.000717246
0.040789
0.000913879
0.0408025
0.00111017
0.0408177
0.00130604
0.0408346
0.00150141
0.0408533
0.00169622
0.0408737
0.00189038
0.0408958
0.00208382
0.00227647
0.0416813
0.000121753
-0.041677
0.0416875
0.000317105
0.0416955
0.000512356
0.0417053
0.000707427
0.0417169
0.00090224
0.0417304
0.00109672
0.0417456
0.00129078
0.0417627
0.00148436
0.0417815
0.00167737
0.0418022
0.00186974
0.0418246
0.00206141
0.00225228
0.0426371
0.000117907
-0.0426332
0.0426428
0.000311372
0.0426504
0.000504733
0.0426599
0.000697913
0.0426714
0.000890835
0.0426846
0.00108342
0.0426998
0.0012756
0.0427169
0.0014673
0.0427358
0.00165843
0.0427566
0.00184894
0.0427793
0.00203874
0.00222777
0.0436174
0.000114428
-0.043614
0.0436229
0.000305926
0.0436303
0.000497321
0.0436397
0.000688536
0.043651
0.000879497
0.0436643
0.00107013
0.0436795
0.00126035
0.0436967
0.0014501
0.0437159
0.0016393
0.0437369
0.00182787
0.0437599
0.00201575
0.00220286
0.0446239
0.000111253
-0.0446207
0.0446291
0.000300723
0.0446363
0.000490089
0.0446456
0.000679275
0.0446569
0.00086821
0.0446702
0.00105682
0.0446855
0.00124503
0.0447029
0.00143276
0.0447222
0.00161995
0.0447436
0.00180653
0.0447669
0.00199241
0.00217754
0.0456564
0.000108338
-0.0456535
0.0456615
0.00029571
0.0456686
0.000482982
0.0456778
0.000670076
0.0456891
0.00085692
0.0457024
0.00104344
0.0457179
0.00122957
0.0457354
0.00141522
0.045755
0.00160035
0.0457767
0.00178485
0.0458004
0.00196868
0.00215176
0.0467156
0.000105632
-0.0467129
0.0467205
0.000290848
0.0467275
0.000475962
0.0467367
0.0006609
0.046748
0.000845591
0.0467615
0.00102996
0.0467771
0.00121394
0.0467949
0.00139746
0.0468148
0.00158045
0.0468368
0.00176283
0.0468609
0.00194454
0.00212551
0.0478018
0.000103105
-0.0477993
0.0478065
0.0002861
0.0478135
0.000468995
0.0478227
0.000651715
0.0478341
0.000834191
0.0478477
0.00101635
0.0478635
0.00119812
0.0478815
0.00137944
0.0479018
0.00156023
0.0479242
0.00174043
0.0479487
0.00191996
0.00209876
0.0489155
0.000100725
-0.0489131
0.0489201
0.000281438
0.0489271
0.000462051
0.0489363
0.000642492
0.0489478
0.000822691
0.0489616
0.00100258
0.0489776
0.00118208
0.0489959
0.00136114
0.0490165
0.00153967
0.0490393
0.00171762
0.0490643
0.00189491
0.00207148
0.0500572
9.84672e-05
-0.0500549
0.0500618
0.000276838
0.0500687
0.000455107
0.050078
0.000633207
0.0500896
0.000811068
0.0501036
0.00098862
0.0501199
0.0011658
0.0501385
0.00134253
0.0501594
0.00151875
0.0501827
0.00169438
0.0502082
0.00186937
0.00204365
0.0512274
9.63124e-05
-0.0512253
0.051232
0.000272276
0.051239
0.000448141
0.0512483
0.000623838
0.0512601
0.000799298
0.0512743
0.000974456
0.0512908
0.00114924
0.0513098
0.00132359
0.0513311
0.00149743
0.0513548
0.00167069
0.0513808
0.00184332
0.00201525
0.0524268
9.42413e-05
-0.0524247
0.0524314
0.000267737
0.0524384
0.000441133
0.0524478
0.000614366
0.0524598
0.000787364
0.0524742
0.000960063
0.052491
0.00113239
0.0525103
0.00130429
0.052532
0.0014757
0.0525562
0.00164653
0.0525828
0.00181674
0.00198625
0.0536559
9.22381e-05
-0.0536539
0.0536604
0.000263203
0.0536675
0.000434069
0.0536771
0.000604773
0.0536892
0.000775247
0.0537038
0.000945425
0.053721
0.00111524
0.0537406
0.00128463
0.0537628
0.00145353
0.0537875
0.00162187
0.0538146
0.00178959
0.00195663
0.0549153
9.02903e-05
-0.0549133
0.0549198
0.000258659
0.0549269
0.000426932
0.0549367
0.000595044
0.054949
0.000762929
0.0549639
0.000930524
0.0549814
0.00109776
0.0550014
0.00126458
0.055024
0.00143091
0.0550492
0.0015967
0.0550769
0.00176188
0.00192638
0.0562056
8.83847e-05
-0.0562037
0.0562101
0.000254095
0.0562174
0.00041971
0.0562272
0.000585165
0.0562398
0.000750398
0.0562549
0.000915343
0.0562728
0.00107994
0.0562932
0.00124412
0.0563163
0.00140783
0.056342
0.00157099
0.0563703
0.00173356
0.00189546
0.0575275
8.65131e-05
-0.0575256
0.0575321
0.000249498
0.0575394
0.000412388
0.0575494
0.000575123
0.0575622
0.000737636
0.0575777
0.000899871
0.0575958
0.00106176
0.0576167
0.00122324
0.0576403
0.00138425
0.0576666
0.00154474
0.0576955
0.00170462
0.00186386
0.0588816
8.46671e-05
-0.0588798
0.0588863
0.000244857
0.0588937
0.000404958
0.0589039
0.000564904
0.0589169
0.000724633
0.0589327
0.000884087
0.0589513
0.0010432
0.0589726
0.00120192
0.0589967
0.00136017
0.0590235
0.0015179
0.0590531
0.00167505
0.00183156
0.0602688
8.28356e-05
-0.060267
0.0602735
0.000240167
0.060281
0.000397407
0.0602914
0.000554498
0.0603047
0.000711376
0.0603208
0.000867981
0.0603397
0.00102425
0.0603615
0.00118013
0.0603861
0.00133556
0.0604136
0.00149048
0.0604438
0.00164482
0.00179854
0.0616896
-0.0616878
0.0616944
0.0617021
0.0617127
0.0617262
0.0617426
0.000851539
0.061762
0.0010049
0.0617842
0.00115788
0.0618094
0.00131041
0.0618374
0.00146244
0.0618683
0.00161391
0.0619021
0.00176476
0.00191494
0.063199
0.0632188
0.0632415
0.0632672
0.0632959
0.0633275
0.063362
0.0348665
-0.000856628
0.0348769
-0.000649728
0.0348885
-0.000442609
0.0349015
-0.000235346
-2.80621e-05
0.0356396
-0.000862421
0.0356465
-0.000656594
0.0356544
-0.000450511
0.0356633
-0.000244266
-3.78649e-05
0.0364407
-0.000866352
0.0364459
-0.00066182
0.0364524
-0.000457004
0.0364602
-0.000251996
-4.6986e-05
0.0372459
-0.000867561
0.0372486
-0.000664589
0.037253
-0.000461355
0.0372589
-0.00025794
-5.42884e-05
0.0380903
-0.000867452
0.0380916
-0.000665891
0.0380942
-0.000464047
0.0380983
-0.00026201
-5.99323e-05
0.0389513
-0.000865914
0.0389513
-0.000665952
0.038953
-0.000465704
0.0389562
-0.000265246
-6.46496e-05
0.0398349
-0.000862905
0.0398336
-0.000664632
0.039834
-0.000466081
0.0398361
-0.000267329
-6.84705e-05
0.0407458
-0.000859135
0.0407437
-0.000662578
0.0407434
-0.000465737
0.0407447
-0.000268691
-7.15148e-05
0.0416782
-0.000854241
0.0416752
-0.000659513
0.0416739
-0.000464511
0.0416745
-0.000269308
-7.39822e-05
0.0426367
-0.000848672
0.042633
-0.000655822
0.0426312
-0.0004627
0.0426313
-0.000269378
-7.59324e-05
0.0436197
-0.000842335
0.0436153
-0.00065144
0.0436129
-0.000460277
0.0436124
-0.000268918
-7.74388e-05
0.0446283
-0.000835385
0.0446234
-0.000646509
0.0446205
-0.000457367
0.0446196
-0.000268033
-7.85792e-05
0.0456628
-0.000827852
0.0456574
-0.000641057
0.045654
-0.000454002
0.0456527
-0.000266757
-7.93986e-05
0.0467236
-0.000819791
0.0467177
-0.000635142
0.046714
-0.000450237
0.0467124
-0.000265146
-7.99416e-05
0.0478113
-0.000811238
0.047805
-0.000628799
0.0478009
-0.000446106
0.047799
-0.000263231
-8.02455e-05
0.0489264
-0.000802228
0.0489197
-0.000622058
0.0489152
-0.000441641
0.048913
-0.000261044
-8.03396e-05
0.0500693
-0.000792783
0.0500622
-0.000614947
0.0500575
-0.000436866
0.050055
-0.000258611
-8.02473e-05
0.0512407
-0.000782924
0.0512333
-0.000607484
0.0512282
-0.000431804
0.0512255
-0.00025595
-7.99923e-05
0.0524412
-0.000772669
0.0524334
-0.000599688
0.052428
-0.000426469
0.0524252
-0.000253081
-7.95907e-05
0.0536712
-0.00076203
0.0536631
-0.000591569
0.0536575
-0.000420877
0.0536544
-0.000250018
-7.90573e-05
0.0549315
-0.000751015
0.054923
-0.00058314
0.0549172
-0.000415038
0.054914
-0.000246771
-7.84053e-05
0.0562226
-0.000739633
0.0562139
-0.000574409
0.0562078
-0.000408961
0.0562044
-0.000243352
-7.76443e-05
0.0575454
-0.000727888
0.0575363
-0.000565382
0.05753
-0.000402654
0.0575265
-0.000239768
-7.6785e-05
0.0589003
-0.000715786
0.058891
-0.000556063
0.0588845
-0.000396122
0.0588807
-0.000236025
-7.58363e-05
0.0602882
-0.000703329
0.0602786
-0.000546456
0.0602719
-0.000389369
0.060268
-0.000232131
-7.48015e-05
0.0617098
-0.000690514
0.0616999
0.061693
0.0616889
)
;

boundaryField
{
    inlet
    {
        type            calculated;
        value           nonuniform 0();
    }
    outlet
    {
        type            calculated;
        value           nonuniform 0();
    }
    cylinder
    {
        type            calculated;
        value           nonuniform 0();
    }
    top
    {
        type            symmetryPlane;
        value           nonuniform 0();
    }
    bottom
    {
        type            symmetryPlane;
        value           nonuniform 0();
    }
    defaultFaces
    {
        type            empty;
        value           nonuniform 0();
    }
    procBoundary43to34
    {
        type            processor;
        value           nonuniform List<scalar> 10(-0.0340328 -0.0351912 -0.0317438 -0.000890893 -0.0328233 -0.0296334 -0.000888695 -0.0306102 -0.000845919 -0.0286068);
    }
    procBoundary43to35
    {
        type            processor;
        value           nonuniform List<scalar> 
29
(
-0.0024334
-0.00231785
-0.00220131
-0.00208384
-0.0019655
-0.00184634
-0.00172643
-0.00160581
-0.00148456
-0.00136272
-0.00124036
-0.00111751
-0.00099424
-0.000870598
-0.000746636
-0.000622406
-0.00049795
0.0282264
-0.000379212
-0.000264442
-0.000149328
-0.0281787
2.79014e-07
0.000126587
0.000251593
0.000376283
0.00050075
0.000625005
0.000749023
)
;
    }
    procBoundary43to36
    {
        type            processor;
        value           nonuniform List<scalar> 
23
(
0.0275793
0.00260595
0.0285674
0.002653
0.0296192
0.00268766
0.00253841
0.0308931
0.00254574
0.0320527
0.00253646
0.0332771
0.00251007
0.0345578
0.0351599
0.0358922
0.0366657
0.0374611
0.0382881
0.0391387
0.0400166
0.0409196
0.0418488
)
;
    }
    procBoundary43to42
    {
        type            processor;
        value           nonuniform List<scalar> 
27
(
-0.0348576
-0.0356339
-0.0364368
-0.0372447
-0.0380904
-0.0389528
-0.0398379
-0.0407495
-0.0416831
-0.0426423
-0.043626
-0.0446353
-0.0456703
-0.0467317
-0.0478199
-0.0489354
-0.0500788
-0.0512506
-0.0524514
-0.0536818
-0.0549425
-0.056234
-0.0575571
-0.0589124
-0.0603007
-0.0617226
-0.063179
)
;
    }
    procBoundary43to44
    {
        type            processor;
        value           nonuniform List<scalar> 
19
(
0.0428038
0.0437848
0.0447922
0.0458262
0.0468872
0.0479755
0.0490916
0.050236
0.0514092
0.0526118
0.0538442
0.0551072
0.0564013
0.0577271
0.0590854
0.0604768
-0.00195156
0.0619387
0.0633995
)
;
    }
    procBoundary43to51
    {
        type            processor;
        value           nonuniform List<scalar> 
20
(
8.10124e-05
0.000235416
0.000389728
0.000543894
0.00069785
-0.0631822
0.000834748
0.000985132
0.00113514
0.0012847
0.00143378
0.00158231
0.00173023
0.00187748
-0.000536562
-0.000382399
-0.00022809
-7.36873e-05
0.0631659
-0.000677344
)
;
    }
}


// ************************************************************************* //
