/*--------------------------------*- C++ -*----------------------------------*\
  =========                 |
  \\      /  F ield         | OpenFOAM: The Open Source CFD Toolbox
   \\    /   O peration     | Website:  https://openfoam.org
    \\  /    A nd           | Version:  7
     \\/     M anipulation  |
\*---------------------------------------------------------------------------*/
FoamFile
{
    version     2.0;
    format      ascii;
    class       volVectorField;
    location    "5";
    object      U;
}
// * * * * * * * * * * * * * * * * * * * * * * * * * * * * * * * * * * * * * //

dimensions      [0 1 -1 0 0 0 0];

internalField   nonuniform List<vector> 
607
(
(1.06215 -0.0080859 2.69145e-20)
(1.0618 -0.00598747 7.7238e-20)
(1.05373 -0.00654283 -1.55781e-21)
(1.06138 -0.00392839 -8.32524e-20)
(1.05346 -0.0046845 2.65652e-20)
(1.04652 -0.00572093 -1.19765e-20)
(1.0609 -0.00190829 5.21687e-20)
(1.05313 -0.00285922 -5.83863e-20)
(1.0463 -0.0041512 5.16977e-20)
(1.06035 7.34122e-05 -1.2557e-19)
(1.05275 -0.00106554 7.37793e-20)
(1.04604 -0.00261765 1.83991e-20)
(1.04013 -0.00320105 1.46899e-20)
(1.05975 0.00201733 1.76191e-19)
(1.0523 0.000698428 4.04899e-21)
(1.04572 -0.00111826 -7.42069e-20)
(1.0399 -0.00184288 -1.33905e-20)
(1.03486 -0.00248085 -7.11808e-21)
(1.05908 0.00392411 -8.85132e-20)
(1.0518 0.00243484 5.80728e-20)
(1.04535 0.00035005 6.05749e-20)
(1.03963 -0.000515185 7.92266e-21)
(1.03466 -0.00128938 -3.69432e-20)
(1.03062 -0.00201361 -8.43058e-21)
(1.05836 0.00579429 -6.67925e-20)
(1.05125 0.00414587 -1.12407e-19)
(1.04494 0.00179118 -6.49645e-20)
(1.03932 0.000785178 -1.14501e-20)
(1.03442 -0.000121107 -2.39034e-20)
(1.03046 -0.000948096 5.16774e-21)
(1.02714 -0.00126955 -7.0561e-21)
(1.05759 0.00762827 6.8798e-20)
(1.05064 0.00583342 1.7637e-20)
(1.04448 0.00320955 -8.49092e-21)
(1.03898 0.00206239 2.05775e-20)
(1.03416 0.00102734 3.60075e-20)
(1.03028 0.000109915 -1.32722e-20)
(1.02703 -0.000256417 6.31281e-21)
(1.05677 0.00942624 4.13784e-20)
(1.04998 0.00749893 3.17563e-20)
(1.04397 0.00460964 2.36826e-20)
(1.03861 0.00332135 -5.6527e-21)
(1.03387 0.00215972 1.7569e-20)
(1.03008 0.00116308 4.00628e-20)
(1.02689 0.000749274 -9.75818e-21)
(1.0559 0.0111881 2.21602e-20)
(1.04928 0.00914306 1.76637e-20)
(1.04342 0.00599551 1.5952e-20)
(1.0382 0.00456713 1.51442e-20)
(1.03356 0.00327964 -2.68705e-20)
(1.02986 0.00221332 -2.43978e-20)
(1.02673 0.00174661 1.49855e-20)
(1.05499 0.0129136 -1.47932e-20)
(1.04852 0.0107656 -3.85632e-20)
(1.04283 0.00737023 -5.15555e-21)
(1.03777 0.00580445 -1.44582e-20)
(1.03323 0.00439011 1.97383e-20)
(1.02961 0.00326133 9.07902e-21)
(1.02654 0.00273328 -2.091e-20)
(1.05403 0.0146021 -2.07093e-20)
(1.04773 0.0123655 6.86981e-21)
(1.04219 0.00873551 -2.31828e-20)
(1.0373 0.00703708 3.63114e-21)
(1.03287 0.00549304 5.52622e-21)
(1.02934 0.00430618 -1.02697e-20)
(1.02631 0.00370585 -3.48849e-21)
(1.05304 0.0162529 -1.99164e-20)
(1.04689 0.0139407 1.0359e-20)
(1.04152 0.0100913 1.023e-20)
(1.0368 0.00826728 -1.62365e-21)
(1.0325 0.00658889 -1.07738e-20)
(1.02905 0.00534529 -6.69237e-21)
(1.02605 0.00466018 8.99906e-21)
(1.05201 0.0178652 7.30805e-21)
(1.04601 0.0154885 2.83165e-21)
(1.0408 0.011436 -5.88719e-21)
(1.03627 0.00949542 7.66193e-21)
(1.0321 0.00767668 1.77571e-22)
(1.02872 0.00637463 8.54171e-21)
(1.02575 0.00559221 2.06596e-22)
(1.05095 0.0194379 4.6592e-21)
(1.0451 0.0170055 -1.39873e-20)
(1.04005 0.012766 7.94058e-21)
(1.03571 0.01072 -1.88028e-21)
(1.03167 0.00875424 -3.62899e-21)
(1.02837 0.00738908 -2.64564e-21)
(1.02541 0.00649864 -1.55843e-21)
(1.04986 0.0209699 -8.48903e-21)
(1.04416 0.0184886 9.8226e-21)
(1.03927 0.0140769 2.85317e-21)
(1.03511 0.0119376 2.54395e-21)
(1.03122 0.00981826 -1.3323e-21)
(1.02798 0.00838302 1.23913e-21)
(1.02503 0.00737761 2.43701e-21)
(1.05487 0.0301245 5.01796e-21)
(1.04874 0.0224602 3.19652e-21)
(1.04319 0.0199343 -5.41747e-21)
(1.03845 0.0153638 -4.65641e-21)
(1.03448 0.0131435 -3.42815e-21)
(1.03073 0.0108645 6.24032e-21)
(1.02757 0.00935165 7.61977e-22)
(1.0246 0.00822893 1.69894e-21)
(1.05349 0.0317426 -2.53131e-21)
(1.04759 0.0239083 -5.6844e-22)
(1.0422 0.0213399 2.35618e-21)
(1.03759 0.0166216 1.03017e-22)
(1.03381 0.0143317 1.55843e-21)
(1.0302 0.0118883 2.93195e-22)
(1.02713 0.0102926 -2.25186e-21)
(1.02413 0.00905355 -1.25828e-21)
(1.05209 0.0333051 -2.17979e-21)
(1.04639 0.0253138 -7.81686e-22)
(1.04118 0.0227023 2.13943e-21)
(1.03671 0.0178461 4.34442e-22)
(1.03311 0.0154956 1.04993e-21)
(1.02964 0.0128851 5.60601e-22)
(1.02666 0.0112056 -2.22259e-21)
(1.02363 0.00985255 -1.03155e-21)
(1.04517 0.0266779 3.09409e-21)
(1.04014 0.0240179 -5.44705e-21)
(1.0358 0.0190338 -3.58904e-21)
(1.03237 0.0166295 -2.69989e-21)
(1.02905 0.0138531 4.78607e-21)
(1.02614 0.0120897 6.96039e-22)
(1.0231 0.0106261 1.66306e-21)
(1.04394 0.0280023 -6.63443e-21)
(1.03906 0.0252836 8.74015e-21)
(1.03487 0.0201816 2.74137e-21)
(1.03159 0.0177287 1.30415e-21)
(1.02842 0.0147923 -1.52953e-21)
(1.02558 0.0129418 1.66166e-21)
(1.02257 0.0113729 1.25681e-21)
(1.04271 0.0292828 4.27348e-21)
(1.03794 0.026504 -1.06543e-20)
(1.03393 0.0212858 4.18364e-21)
(1.03078 0.0187906 1.21285e-22)
(1.02775 0.0157006 -2.7901e-21)
(1.025 0.0137636 -2.99747e-21)
(1.02202 0.012093 -1.23336e-21)
(1.04147 0.0305168 5.61364e-21)
(1.0368 0.0276783 1.70903e-21)
(1.03296 0.0223453 -3.77533e-21)
(1.02995 0.0198129 5.92406e-21)
(1.02704 0.0165777 -1.15184e-21)
(1.02438 0.0145557 6.72809e-21)
(1.02145 0.012785 -1.07692e-22)
(1.0402 0.0317025 -1.15899e-20)
(1.03564 0.028807 5.24771e-21)
(1.03197 0.0233597 7.93076e-21)
(1.02908 0.0207943 -3.27721e-21)
(1.0263 0.0174223 -5.35383e-21)
(1.03891 0.0328389 -7.35745e-21)
(1.03447 0.0298889 7.19324e-22)
(1.03096 0.0243296 -1.11489e-20)
(1.03759 0.0339255 -5.61342e-21)
(1.02164 0.00687134 -8.38346e-24)
(1.022 0.0062288 -8.82925e-24)
(1.02236 0.00557577 -2.11424e-22)
(1.02269 0.00490996 -5.78432e-22)
(1.023 0.0042265 2.70952e-22)
(1.02328 0.00352029 -1.96088e-21)
(1.02353 0.00278778 1.00298e-21)
(1.02375 0.00202774 -1.3146e-23)
(1.02393 0.00124126 -6.20035e-22)
(1.02408 0.000431137 1.51563e-21)
(1.0242 -0.00039901 -5.1486e-23)
(1.02429 -0.00124554 2.14964e-21)
(1.01951 0.0065372 -6.27594e-24)
(1.01975 0.0059072 -1.34763e-23)
(1.01998 0.00527235 4.02292e-22)
(1.0202 0.00463613 5.24859e-22)
(1.0204 0.00400004 5.58108e-22)
(1.0206 0.00336294 8.28202e-22)
(1.02078 0.00272139 6.26896e-22)
(1.02095 0.00207074 1.58961e-21)
(1.02111 0.00140632 9.87996e-22)
(1.02124 0.000724523 -1.11083e-21)
(1.02135 2.32888e-05 9.06601e-22)
(1.02144 -0.000697756 -2.4037e-22)
(1.01804 0.0051145 4.42971e-23)
(1.01825 0.0046145 1.25784e-22)
(1.01843 0.00409251 -3.65669e-22)
(1.0186 0.00354873 -1.26949e-22)
(1.01874 0.00298624 1.04716e-22)
(1.01887 0.00240997 -1.31679e-22)
(1.01898 0.00182533 -1.05919e-21)
(1.01908 0.00123675 -6.39209e-22)
(1.01916 0.000647012 -3.87513e-22)
(1.01924 5.70094e-05 5.1998e-22)
(1.0193 -0.000533852 1.32915e-21)
(1.01935 -0.00112712 -2.04816e-21)
(1.01612 0.00471972 -6.16376e-23)
(1.0163 0.00427708 -7.76319e-23)
(1.01648 0.003834 3.10934e-22)
(1.01664 0.00338788 -7.95228e-23)
(1.01679 0.00293498 -5.95713e-23)
(1.01692 0.00247161 -5.45861e-22)
(1.01704 0.0019952 8.14319e-23)
(1.01714 0.00150473 -1.08899e-22)
(1.01722 0.00100077 -3.30826e-22)
(1.01728 0.000484982 -2.29018e-22)
(1.01733 -4.04129e-05 -5.553e-22)
(1.01737 -0.000573276 7.16759e-22)
(1.0148 0.00378715 4.46487e-23)
(1.01493 0.00338436 2.64006e-23)
(1.01505 0.00297707 -1.82303e-22)
(1.01516 0.00256708 1.43838e-22)
(1.01526 0.00215607 1.80149e-22)
(1.01535 0.00174498 2.24687e-22)
(1.01544 0.00133389 1.24327e-22)
(1.01552 0.000922107 1.70952e-22)
(1.0156 0.000508497 -3.52799e-22)
(1.01566 9.1783e-05 6.25752e-22)
(1.01571 -0.000329037 -8.9605e-22)
(1.01575 -0.000754783 3.18822e-22)
(1.01352 0.00348391 1.09711e-23)
(1.01363 0.00315611 -4.63575e-23)
(1.01374 0.00282204 5.66444e-23)
(1.01383 0.00248076 -1.25961e-22)
(1.01391 0.00213172 -1.4332e-22)
(1.01399 0.00177493 5.65725e-22)
(1.01405 0.00141095 -2.68784e-22)
(1.01411 0.00104067 4.47439e-22)
(1.01416 0.000665147 -3.43314e-22)
(1.0142 0.00028527 -1.20708e-21)
(1.01424 -9.81751e-05 1.32704e-21)
(1.01427 -0.0004848 1.70628e-22)
(1.01231 0.00290853 -1.20709e-23)
(1.0124 0.00260356 -2.93931e-23)
(1.01248 0.0022983 1.28841e-22)
(1.01257 0.00199275 8.22527e-23)
(1.01264 0.00168662 1.28351e-22)
(1.01271 0.00137938 1.19097e-22)
(1.01277 0.00107045 4.8349e-22)
(1.01283 0.000759231 -6.28586e-22)
(1.01288 0.000445281 5.57575e-22)
(1.01292 0.000128266 3.50046e-22)
(1.01296 -0.000191909 -1.09512e-22)
(1.01298 -0.000515346 -1.70273e-22)
(1.01132 0.00258923 -2.08485e-23)
(1.01139 0.00233437 1.31223e-23)
(1.01146 0.0020762 6.53516e-24)
(1.01152 0.00181448 -1.32618e-22)
(1.01158 0.00154915 6.91369e-24)
(1.01163 0.00128029 -2.31904e-22)
(1.01168 0.00100808 -1.62339e-22)
(1.01172 0.000732753 2.60138e-22)
(1.01175 0.000454576 -3.60942e-22)
(1.01178 0.000173749 7.51982e-23)
(1.01181 -0.000109481 1.69425e-22)
(1.01183 -0.000395015 -8.00003e-22)
(1.01036 0.00225216 1.00759e-23)
(1.01042 0.00202155 3.21836e-23)
(1.01048 0.00179003 -1.4372e-23)
(1.01053 0.00155743 1.268e-24)
(1.01058 0.00132353 -1.07889e-22)
(1.01063 0.00108811 -2.68844e-22)
(1.01067 0.000850999 1.86256e-23)
(1.0107 0.000612071 -7.65803e-23)
(1.01074 0.00037129 4.86145e-24)
(1.01077 0.000128631 1.1934e-22)
(1.01079 -0.000115832 -1.63726e-22)
(1.01081 -0.0003621 -2.16705e-22)
(1.00953 0.00197837 -1.03771e-23)
(1.00958 0.00177915 -2.19741e-23)
(1.00963 0.00157861 -5.76909e-23)
(1.00967 0.00137656 3.6424e-23)
(1.00971 0.00117286 1.94434e-23)
(1.00975 0.00096739 2.91721e-22)
(1.00978 0.000760116 2.42302e-22)
(1.00981 0.000551033 1.58514e-22)
(1.00984 0.000340203 2.60969e-23)
(1.00986 0.000127676 8.0344e-23)
(1.00988 -8.64386e-05 3.25693e-22)
(1.0099 -0.000302107 4.55801e-22)
(1.00877 0.00174534 6.57009e-24)
(1.00881 0.0015683 3.03077e-23)
(1.00885 0.00139046 -6.70477e-23)
(1.00888 0.00121168 5.6634e-23)
(1.00892 0.0010318 -3.81521e-23)
(1.00895 0.000850705 -1.7716e-22)
(1.00898 0.00066833 -2.3121e-22)
(1.009 0.000484632 -1.98692e-22)
(1.00903 0.000299631 -1.86081e-22)
(1.00905 0.000113344 1.8264e-24)
(1.00907 -7.4159e-05 -5.7247e-22)
(1.00908 -0.000262864 -7.8249e-23)
(1.00808 0.00153963 -9.88631e-25)
(1.00812 0.00138403 -2.47714e-23)
(1.00815 0.00122776 -1.63964e-23)
(1.00818 0.00107067 8.69378e-24)
(1.00821 0.000912623 4.87934e-23)
(1.00824 0.000753518 7.25595e-23)
(1.00826 0.000593293 4.80385e-23)
(1.00828 0.000431924 1.52962e-22)
(1.0083 0.000269438 6.25323e-23)
(1.00832 0.000105862 1.18643e-23)
(1.00833 -5.8735e-05 1.623e-22)
(1.00835 -0.000224329 2.6028e-22)
(1.00746 0.00136457 5.212e-25)
(1.00749 0.00122683 2.26571e-23)
(1.00752 0.00108857 6.00443e-23)
(1.00754 0.000949676 -2.03694e-23)
(1.00757 0.000810024 -7.61755e-23)
(1.00759 0.000669524 1.00095e-22)
(1.00761 0.000528128 -1.44749e-23)
(1.00763 0.000385816 -8.69436e-23)
(1.00765 0.00024261 -3.71481e-23)
(1.00766 9.85335e-05 -9.4446e-23)
(1.00767 -4.6358e-05 6.83455e-23)
(1.00769 -0.000192045 9.2362e-23)
(1.0069 0.0012111 4.03323e-24)
(1.00692 0.0010892 1.08285e-23)
(1.00694 0.000966908 -2.43549e-23)
(1.00697 0.000844096 -1.40694e-23)
(1.00699 0.000720662 1.57309e-23)
(1.00701 0.000596526 -9.24835e-23)
(1.00702 0.000471645 -1.45054e-23)
(1.00704 0.000346001 6.71017e-23)
(1.00705 0.000219615 4.68049e-23)
(1.00707 9.25082e-05 7.06391e-23)
(1.00708 -3.52717e-05 -3.58826e-22)
(1.00709 -0.000163707 -2.93724e-22)
(1.00638 0.00107798 -3.14304e-24)
(1.0064 0.000969871 -1.11695e-23)
(1.00642 0.00086144 -1.41246e-24)
(1.00644 0.000752589 -1.02011e-23)
(1.00646 0.000643226 -2.46598e-23)
(1.00648 0.000533282 7.25857e-23)
(1.00649 0.000422722 -5.0102e-23)
(1.00651 0.000311534 4.79967e-23)
(1.00652 0.000199734 -9.40995e-23)
(1.00653 8.73433e-05 8.57593e-23)
(1.00654 -2.55954e-05 3.04453e-22)
(1.00655 -0.000139065 1.83762e-22)
(1.00592 0.000961567 -3.30594e-24)
(1.00594 0.000865545 1.50058e-23)
(1.00595 0.000769269 2.81623e-24)
(1.00597 0.000672649 1.09654e-25)
(1.00598 0.000575607 1.46571e-23)
(1.006 0.000478083 2.02777e-23)
(1.00601 0.000380046 -1.8587e-23)
(1.00602 0.000281488 -6.932e-23)
(1.00603 0.000182426 7.64225e-23)
(1.00604 8.28779e-05 -4.81553e-23)
(1.00605 -1.71185e-05 -7.76825e-23)
(1.00606 -0.000117547 -1.81341e-22)
(1.00549 0.000859738 1.45308e-24)
(1.00551 0.00077432 -6.1515e-24)
(1.00552 0.000688698 4.42563e-24)
(1.00554 0.000602794 1.44944e-23)
(1.00555 0.00051654 3.00836e-24)
(1.00556 0.000429884 4.64115e-24)
(1.00557 0.000342801 4.62841e-23)
(1.00558 0.000255286 -5.78855e-24)
(1.00559 0.000167354 3.25588e-23)
(1.0056 7.90226e-05 -1.78835e-24)
(1.00561 -9.67563e-06 1.32382e-23)
(1.00561 -9.87257e-05 6.33425e-23)
(1.00511 0.000770422 -1.28223e-25)
(1.00512 0.000694326 -2.96139e-25)
(1.00513 0.000618065 1.88264e-24)
(1.00514 0.000541572 -1.75902e-24)
(1.00515 0.000464787 -6.92814e-24)
(1.00516 0.000387667 5.19922e-24)
(1.00517 0.000310192 -4.35953e-23)
(1.00518 0.000232357 -6.41343e-24)
(1.00519 0.000154177 2.06654e-23)
(1.0052 7.56683e-05 -4.18928e-24)
(1.0052 -3.14017e-06 -4.90684e-23)
(1.00521 -8.22347e-05 5.35037e-23)
(1.00475 0.000691949 7.48806e-26)
(1.00476 0.000624061 -1.13057e-24)
(1.00477 0.000556038 5.05024e-25)
(1.00478 0.000487824 -1.27564e-24)
(1.00479 0.000419366 3.05604e-24)
(1.0048 0.000350629 9.12533e-24)
(1.00481 0.000281594 1.00631e-23)
(1.00482 0.000212261 1.32866e-23)
(1.00482 0.000142642 -7.96792e-24)
(1.00483 7.2754e-05 2.90215e-23)
(1.00484 2.6208e-06 -3.11043e-23)
(1.00484 -6.77443e-05 -4.13069e-23)
(1.00443 0.000622879 9.8118e-25)
(1.00444 0.000562229 -5.58694e-25)
(1.00445 0.000501469 1.83113e-24)
(1.00445 0.000440551 4.37595e-25)
(1.00446 0.000379429 1.25486e-24)
(1.00447 0.000318074 -5.68427e-24)
(1.00448 0.000256471 -3.40626e-24)
(1.00448 0.00019462 1.09824e-24)
(1.00449 0.000132532 -5.48307e-25)
(1.0045 7.02234e-05 2.38341e-24)
(1.0045 7.7153e-06 -1.10004e-23)
(1.00451 -5.49802e-05 4.41569e-23)
(1.00413 0.000561987 -1.54648e-24)
(1.00414 0.000507729 -3.11608e-26)
(1.00415 0.000453384 -4.55573e-24)
(1.00415 0.000398906 -6.67367e-24)
(1.00416 0.000344259 3.7591e-24)
(1.00417 0.000289417 4.88849e-24)
(1.00417 0.000234367 3.38777e-24)
(1.00418 0.000179111 -4.24644e-25)
(1.00418 0.000123661 7.52995e-24)
(1.00419 6.80294e-05 3.93722e-26)
(1.00419 1.2236e-05 4.86273e-24)
(1.0042 -4.37082e-05 -1.24136e-24)
(1.00386 0.000508217 5.41181e-25)
(1.00387 0.000459615 7.67654e-24)
(1.00387 0.000410942 7.48464e-24)
(1.00388 0.00036216 5.69391e-24)
(1.00388 0.000313237 2.01028e-25)
(1.00389 0.00026415 -8.12717e-24)
(1.0039 0.00021489 1.13996e-24)
(1.0039 0.00016546 -4.76216e-24)
(1.00391 0.000115869 -4.11332e-24)
(1.00391 6.61301e-05 6.65113e-24)
(1.00391 1.62607e-05 -7.36538e-24)
(1.00392 -3.37296e-05 2.49355e-23)
(1.00361 0.000460659 -1.10316e-24)
(1.00361 0.000417069 4.80266e-24)
(1.00362 0.000373422 -1.57829e-23)
(1.00363 0.000329684 5.70849e-24)
(1.00363 0.000285828 -1.11689e-23)
(1.00364 0.000241836 -5.25602e-25)
(1.00364 0.000197701 7.2051e-25)
(1.00365 0.000153424 -1.50523e-23)
(1.00365 0.000109015 -8.26892e-24)
(1.00365 6.44861e-05 -1.00785e-23)
(1.00366 1.98521e-05 1.20794e-23)
(1.00366 -2.48778e-05 -4.43183e-23)
(1.00338 0.000418524 1.01204e-24)
(1.00338 0.000379381 -7.52125e-24)
(1.00339 0.000340193 -7.64737e-24)
(1.00339 0.00030093 2.10802e-23)
(1.0034 0.00026157 -9.52709e-24)
(1.0034 0.000222096 6.93061e-24)
(1.00341 0.000182502 -8.72923e-24)
(1.00341 0.000142792 2.11759e-23)
(1.00341 0.000102974 2.13721e-23)
(1.00342 6.30584e-05 4.32407e-23)
(1.00342 2.30595e-05 -1.68707e-23)
(1.00342 -1.7015e-05 -6.50863e-24)
(1.00317 0.000381121 -3.11196e-24)
(1.00317 0.000345932 1.22045e-24)
(1.00318 0.000310707 8.00821e-24)
(1.00318 0.000275421 -2.27152e-23)
(1.00318 0.000240054 -2.25243e-24)
(1.00319 0.000204592 2.16678e-24)
(1.00319 0.000169032 -1.1044e-23)
(1.00319 0.000133375 1.87423e-23)
(1.0032 9.76306e-05 5.9091e-24)
(1.0032 6.18083e-05 -2.75871e-23)
(1.0032 2.59198e-05 -1.46324e-23)
(1.00321 -1.00273e-05 1.52158e-23)
(1.00297 0.000347849 4.56751e-25)
(1.00298 0.00031618 -5.50722e-24)
(1.00298 0.000284483 7.66795e-24)
(1.00298 0.000252736 9.61501e-24)
(1.00299 0.000220922 2.14336e-23)
(1.00299 0.000189031 -3.44521e-23)
(1.00299 0.000157057 9.04701e-23)
(1.003 0.000125005 -6.1149e-23)
(1.003 9.28816e-05 -5.28533e-24)
(1.003 6.06963e-05 -6.51532e-24)
(1.003 2.84594e-05 -1.09291e-24)
(1.00301 -3.82232e-06 -7.28535e-23)
(1.00301 -3.61413e-05 -6.30835e-25)
(1.00281 0.000175149 2.80084e-23)
(1.00281 0.000146372 -6.07664e-23)
(1.00281 0.00011753 5.26668e-23)
(1.00282 8.86308e-05 2.00484e-23)
(1.00282 5.96829e-05 2.80336e-23)
(1.00282 3.06954e-05 -2.12164e-23)
(1.00282 1.67451e-06 4.59313e-24)
(1.00282 -2.73733e-05 6.07508e-23)
(1.01956 0.00990141 4.91617e-22)
(1.02 0.00932345 3.68723e-22)
(1.02044 0.00872953 2.03898e-22)
(1.02086 0.00812105 6.71769e-23)
(1.02126 0.00750239 -7.34804e-24)
(1.018 0.00947057 -3.63872e-22)
(1.01835 0.00892164 -3.0553e-22)
(1.01867 0.00835304 -3.8093e-22)
(1.01897 0.00776494 1.84853e-23)
(1.01925 0.00715799 -6.96065e-24)
(1.01672 0.00740095 -1.48737e-22)
(1.01701 0.00696187 1.85665e-22)
(1.0173 0.00651538 2.74606e-22)
(1.01756 0.00606073 6.27406e-23)
(1.01781 0.00559512 -7.44457e-23)
(1.01507 0.00689107 7.02687e-23)
(1.0153 0.00647009 4.67531e-24)
(1.01551 0.00604031 -2.16903e-22)
(1.01572 0.00560345 -7.50292e-23)
(1.01592 0.00516238 6.22227e-23)
(1.01398 0.00570598 -1.38981e-22)
(1.01417 0.00533509 -7.7396e-23)
(1.01435 0.00495789 1.56425e-22)
(1.01451 0.00457437 -6.21213e-23)
(1.01466 0.00418405 -2.54361e-23)
(1.01283 0.00506022 9.3083e-23)
(1.01298 0.00475145 8.90869e-23)
(1.01313 0.00443972 -3.76199e-23)
(1.01327 0.00412479 3.92358e-23)
(1.0134 0.00380646 -1.15206e-23)
(1.01176 0.00441083 -3.67133e-23)
(1.01188 0.00411598 -7.7236e-23)
(1.012 0.00381752 -1.25848e-22)
(1.0121 0.00351626 2.29919e-23)
(1.01221 0.00321297 1.49138e-24)
(1.01086 0.00382727 -2.4546e-23)
(1.01096 0.00358321 1.26102e-22)
(1.01106 0.00333771 -1.31171e-23)
(1.01116 0.00309047 -3.596e-24)
(1.01124 0.00284112 1.16843e-23)
(1.00998 0.00338985 2.71795e-23)
(1.01007 0.00316516 3.13489e-23)
(1.01014 0.00293872 1.77417e-23)
(1.01022 0.0027109 -1.353e-23)
(1.01029 0.00248196 -1.88509e-23)
(1.00922 0.00295993 2.9962e-24)
(1.00929 0.00276524 -7.1691e-23)
(1.00935 0.00256979 6.69343e-23)
(1.00942 0.00237355 2.31658e-23)
(1.00948 0.00217645 1.60327e-23)
(1.00851 0.00262069 6.47012e-24)
(1.00856 0.00244701 2.71231e-23)
(1.00862 0.00227257 4.30947e-23)
(1.00867 0.00209744 -1.719e-23)
(1.00872 0.0019217 -1.26814e-24)
(1.00786 0.00231092 -6.56608e-24)
(1.00791 0.00215746 -7.3429e-23)
(1.00796 0.00200358 -1.43431e-24)
(1.008 0.00184933 3.03652e-23)
(1.00804 0.00169469 -2.99539e-24)
(1.00728 0.00204826 -6.07756e-25)
(1.00732 0.00191212 5.2706e-23)
(1.00736 0.00177567 -4.65003e-23)
(1.00739 0.00163893 -1.04905e-23)
(1.00743 0.00150191 -6.74918e-25)
(1.00674 0.00181716 2.20712e-23)
(1.00678 0.00169631 -2.736e-23)
(1.00681 0.00157528 1.46713e-23)
(1.00684 0.00145407 -7.07606e-24)
(1.00687 0.00133269 -1.82447e-24)
(1.00625 0.00161609 6.5638e-24)
(1.00628 0.00150871 3.04104e-24)
(1.00631 0.00140121 -1.67639e-24)
(1.00634 0.00129359 1.15414e-23)
(1.00636 0.00118587 2.10864e-24)
(1.00581 0.00143998 -6.27263e-24)
(1.00583 0.00134444 1.01391e-25)
(1.00586 0.00124883 -2.46022e-24)
(1.00588 0.00115316 -9.38331e-24)
(1.0059 0.00105742 1.14825e-24)
(1.0054 0.00128564 -2.89368e-24)
(1.00542 0.00120054 -3.34071e-24)
(1.00544 0.0011154 -5.70603e-25)
(1.00546 0.00103024 4.05779e-24)
(1.00548 0.000945023 -1.87708e-24)
(1.00503 0.00115009 -3.13878e-24)
(1.00504 0.0010742 3.09138e-24)
(1.00506 0.000998284 -2.36333e-24)
(1.00508 0.000922361 8.73636e-25)
(1.00509 0.000846416 4.36947e-25)
(1.00469 0.00103084 -1.48719e-24)
(1.0047 0.000963077 -6.97296e-24)
(1.00471 0.000895307 6.43053e-25)
(1.00473 0.000827537 1.50252e-24)
(1.00474 0.00075976 -2.23067e-25)
(1.00437 0.000925777 8.17468e-24)
(1.00438 0.000865192 -1.52724e-25)
(1.0044 0.000804611 -6.46146e-24)
(1.00441 0.00074404 -5.53252e-24)
(1.00442 0.00068347 4.82283e-25)
(1.00408 0.000833059 -4.0706e-24)
(1.00409 0.000778827 9.66324e-24)
(1.0041 0.000724606 4.85615e-24)
(1.00411 0.000670399 1.05165e-23)
(1.00412 0.000616199 -4.89289e-25)
(1.00382 0.000751115 -8.45718e-24)
(1.00383 0.000702511 -8.47658e-24)
(1.00384 0.00065392 -1.03416e-23)
(1.00384 0.000605347 -3.91304e-24)
(1.00385 0.000556784 1.44174e-25)
(1.00357 0.00067858 -2.30873e-24)
(1.00358 0.000634967 1.09015e-23)
(1.00359 0.000591369 1.26946e-23)
(1.0036 0.000547789 3.48531e-24)
(1.0036 0.000504224 7.57169e-25)
(1.00335 0.000614269 -2.1174e-24)
(1.00336 0.000575087 7.35213e-24)
(1.00336 0.000535923 -7.65912e-24)
(1.00337 0.000496777 -7.93344e-24)
(1.00337 0.000457648 -5.17439e-26)
(1.00314 0.000557148 -6.97954e-24)
(1.00315 0.000521908 -1.12996e-23)
(1.00315 0.000486686 1.19403e-23)
(1.00316 0.000451483 1.05115e-23)
(1.00316 0.000416299 1.16796e-24)
(1.00295 0.000506315 7.47037e-25)
(1.00296 0.000474586 1.91787e-23)
(1.00296 0.000442874 -4.41743e-24)
(1.00296 0.000411183 1.97715e-24)
(1.00297 0.000379511 1.47182e-24)
(1.00277 0.000460977 1.5183e-23)
)
;

boundaryField
{
    inlet
    {
        type            uniformFixedValue;
        uniformValue    constant (1 0 0);
        value           nonuniform 0();
    }
    outlet
    {
        type            pressureInletOutletVelocity;
        value           nonuniform 0();
    }
    cylinder
    {
        type            fixedValue;
        value           nonuniform 0();
    }
    top
    {
        type            symmetryPlane;
    }
    bottom
    {
        type            symmetryPlane;
    }
    defaultFaces
    {
        type            empty;
    }
    procBoundary43to34
    {
        type            processor;
        value           nonuniform List<vector> 10((1.02374 0.0153204 4.70156e-21) (1.02087 0.0134491 4.40164e-21) (1.02819 0.021734 5.8772e-21) (1.02374 0.0153204 4.70156e-21) (1.02552 0.0182339 -8.15506e-21) (1.03327 0.0309233 -8.85327e-21) (1.02819 0.021734 5.8772e-21) (1.02993 0.0252554 -1.3518e-20) (1.03327 0.0309233 -8.85327e-21) (1.03625 0.0349623 -3.42675e-20));
    }
    procBoundary43to35
    {
        type            processor;
        value           nonuniform List<vector> 
29
(
(1.07174 -0.00533102 -1.40329e-19)
(1.0712 -0.00285772 -5.16935e-20)
(1.0706 -0.000429808 4.60237e-20)
(1.06994 0.00195208 8.27356e-20)
(1.06921 0.00428736 -1.52651e-19)
(1.06842 0.00657544 1.56443e-19)
(1.06756 0.00881572 -7.06161e-20)
(1.06665 0.0110076 1.80325e-20)
(1.06569 0.0131505 -3.36982e-20)
(1.06467 0.0152437 2.51891e-20)
(1.0636 0.0172866 -6.49841e-20)
(1.06248 0.0192785 3.39842e-21)
(1.06131 0.0212187 2.59964e-20)
(1.0601 0.0231065 2.54254e-20)
(1.05885 0.0249416 -2.13528e-21)
(1.05756 0.0267233 -2.04617e-21)
(1.05623 0.0284512 -9.13299e-21)
(1.05623 0.0284512 -9.13299e-21)
(1.06307 0.0330829 1.32943e-20)
(1.0615 0.0348055 -2.98897e-21)
(1.05987 0.0364712 -2.66446e-21)
(1.05068 0.0348122 -4.33732e-21)
(1.05068 0.0348122 -4.33732e-21)
(1.04921 0.0362616 -6.01535e-21)
(1.04769 0.0376497 -2.97694e-21)
(1.04613 0.0389811 -4.59038e-23)
(1.04455 0.0402568 1.66854e-20)
(1.04295 0.0414786 1.44351e-20)
(1.04134 0.0426466 -7.37871e-22)
)
;
    }
    procBoundary43to36
    {
        type            processor;
        value           nonuniform List<vector> 
23
(
(1.06244 -0.0102239 1.36684e-19)
(1.05394 -0.00843512 3.95883e-20)
(1.05394 -0.00843512 3.95883e-20)
(1.04668 -0.00732781 -2.75851e-20)
(1.04668 -0.00732781 -2.75851e-20)
(1.04047 -0.00601507 1.07244e-20)
(1.04032 -0.00459157 1.03596e-21)
(1.04032 -0.00459157 1.03596e-21)
(1.03504 -0.0036982 1.00845e-20)
(1.03504 -0.0036982 1.00845e-20)
(1.03075 -0.00308945 -1.13398e-20)
(1.03075 -0.00308945 -1.13398e-20)
(1.02722 -0.0022904 -4.82713e-21)
(1.02722 -0.0022904 -4.82713e-21)
(1.02435 -0.00210547 4.96168e-23)
(1.0215 -0.00143768 -1.9261e-22)
(1.01938 -0.0017246 9.96283e-22)
(1.0174 -0.00111166 6.85662e-22)
(1.01578 -0.00118571 -9.64261e-22)
(1.01429 -0.000874225 -1.16738e-22)
(1.013 -0.000841886 6.54561e-22)
(1.01185 -0.000682627 -7.28541e-22)
(1.01083 -0.000610048 -9.71221e-24)
)
;
    }
    procBoundary43to42
    {
        type            processor;
        value           nonuniform List<vector> 
27
(
(1.0191 0.0104602 -2.64521e-22)
(1.01763 0.010001 -5.38498e-22)
(1.0164 0.00783201 2.61897e-23)
(1.01484 0.00730286 3.34657e-22)
(1.01378 0.00607012 -6.65651e-23)
(1.01266 0.00536624 -3.03247e-22)
(1.01163 0.00470138 1.09389e-23)
(1.01075 0.00407009 8.10239e-23)
(1.0099 0.00361248 2.00524e-22)
(1.00914 0.00315385 -1.89275e-22)
(1.00845 0.00279349 9.36323e-23)
(1.00781 0.00246394 -8.24876e-24)
(1.00723 0.00218405 -3.47152e-23)
(1.00671 0.00193779 4.76169e-23)
(1.00622 0.00172333 -1.04488e-23)
(1.00578 0.00153544 -3.40075e-24)
(1.00538 0.00137069 -2.49156e-24)
(1.00501 0.00122596 -9.36154e-24)
(1.00467 0.0010986 2.91893e-23)
(1.00436 0.000986361 -1.16004e-23)
(1.00407 0.000887295 -4.44465e-23)
(1.00381 0.000799727 2.07317e-23)
(1.00357 0.000722203 7.52388e-24)
(1.00334 0.000653462 1.75513e-23)
(1.00314 0.000592401 -3.50896e-23)
(1.00295 0.000538058 3.16969e-24)
(1.00277 0.000489588 -1.78865e-23)
)
;
    }
    procBoundary43to44
    {
        type            processor;
        value           nonuniform List<vector> 
19
(
(1.00991 -0.00051921 1.76888e-22)
(1.00909 -0.000452686 -4.63382e-22)
(1.00836 -0.000390841 2.69428e-23)
(1.00769 -0.000338467 3.49825e-22)
(1.0071 -0.000292745 -8.87548e-23)
(1.00656 -0.000253023 -2.07279e-22)
(1.00607 -0.000218372 2.02692e-22)
(1.00562 -0.000188097 -8.00305e-23)
(1.00522 -0.000161589 -3.98076e-23)
(1.00485 -0.000138319 3.69589e-23)
(1.00451 -0.000117845 1.02062e-23)
(1.0042 -9.97875e-05 8.15878e-24)
(1.00392 -8.38269e-05 7.69784e-24)
(1.00366 -6.9692e-05 9.49403e-24)
(1.00343 -5.71548e-05 -4.96425e-23)
(1.00321 -4.60243e-05 -1.92695e-23)
(1.00321 -4.60243e-05 -1.92695e-23)
(1.00301 -6.84968e-05 2.35374e-23)
(1.00283 -5.64472e-05 1.3286e-23)
)
;
    }
    procBoundary43to51
    {
        type            processor;
        value           nonuniform List<vector> 
20
(
(1.00279 0.000318178 1.74085e-24)
(1.0028 0.000289648 -8.80912e-24)
(1.0028 0.000261097 -1.74754e-23)
(1.0028 0.000232506 -1.16301e-23)
(1.00281 0.00020386 1.60755e-23)
(1.00281 0.00020386 1.60755e-23)
(1.00264 0.000162716 -2.78004e-23)
(1.00264 0.00013679 8.43488e-24)
(1.00264 0.000110813 -1.35383e-23)
(1.00265 8.47897e-05 4.83893e-23)
(1.00265 5.87286e-05 2.24366e-23)
(1.00265 3.26378e-05 -5.93174e-23)
(1.00265 6.52284e-06 -2.04593e-23)
(1.00265 -1.96106e-05 9.46656e-23)
(1.00278 0.00043238 3.94992e-23)
(1.00278 0.000403801 2.48437e-24)
(1.00279 0.000375243 -3.63861e-25)
(1.00279 0.000346704 3.39603e-24)
(1.00278 0.00043238 3.94992e-23)
(1.00261 0.00042044 -3.13741e-23)
)
;
    }
}


// ************************************************************************* //
