/*--------------------------------*- C++ -*----------------------------------*\
  =========                 |
  \\      /  F ield         | OpenFOAM: The Open Source CFD Toolbox
   \\    /   O peration     | Website:  https://openfoam.org
    \\  /    A nd           | Version:  7
     \\/     M anipulation  |
\*---------------------------------------------------------------------------*/
FoamFile
{
    version     2.0;
    format      ascii;
    class       surfaceScalarField;
    location    "125";
    object      phi;
}
// * * * * * * * * * * * * * * * * * * * * * * * * * * * * * * * * * * * * * //

dimensions      [0 3 -1 0 0 0 0];

internalField   nonuniform List<scalar> 
67470
(
-0.000217541
-0.00246531
0.00268285
-0.000296682
-0.0082413
0.00832044
-0.000279407
-0.0138827
0.0138654
7.20092e-05
-0.0104907
0.0101393
0.000755855
-0.00292412
0.00224027
0.00145047
0.00521375
-0.00590837
0.00199947
0.0108999
-0.0114489
0.00239789
0.0138243
-0.0142227
0.00251723
0.015341
-0.0154603
0.00245276
0.0167365
-0.016672
0.00284526
0.0137517
-0.0141442
0.00378425
0.00509119
-0.00603018
0.00479498
-0.0049653
0.00395458
0.00569349
-0.011482
0.0105835
0.00627048
-0.0143038
0.0137268
0.00636903
-0.0167801
0.0166815
0.0064618
-0.0181792
0.0180865
0.00702452
-0.0151156
0.0145529
0.00806723
-0.0070316
0.00598888
0.00238938
-0.00350187
0.00917972
-0.000222139
-0.00224317
-0.000307103
-0.00815634
-0.000313898
-0.0138759
2.21582e-06
-0.0108068
0.000674181
-0.00359609
0.00137079
0.00451714
0.00194111
0.0103296
0.0023594
0.013406
0.00247755
0.0152228
0.00245027
0.0167637
0.00294358
0.0132584
0.00395302
0.00408175
0.0049407
-0.00595298
0.00577827
-0.0123195
0.00634156
-0.0148671
0.00642384
-0.0168623
0.00650076
-0.0182562
0.00708835
-0.0157032
0.0080671
-0.00801035
0.00137579
0.00908069
-0.000225161
-0.00201801
-0.000313647
-0.00806785
-0.000342509
-0.013847
-5.89938e-05
-0.0110903
0.000596991
-0.00425207
0.00129422
0.00381991
0.00188597
0.00973785
0.0023226
0.0129694
0.00244073
0.0151047
0.00245937
0.0167451
0.00305397
0.0126638
0.00412981
0.00300592
0.00510009
-0.00692326
0.00586795
-0.0130874
0.00641463
-0.0154138
0.00648434
-0.016932
0.0065297
-0.0183015
0.00713629
-0.0163098
0.00805907
-0.00893313
0.000455362
0.0089795
-0.000226574
-0.00179144
-0.000316206
-0.00797822
-0.000364687
-0.0137985
-0.000113809
-0.0113412
0.000524358
-0.00489024
0.00122148
0.00312279
0.00183456
0.00912477
0.00228731
0.0125166
0.00240754
0.0149845
0.00248126
0.0166714
0.00317506
0.01197
0.00430872
0.00187226
0.00526822
-0.00788276
0.00596231
-0.0137815
0.00648582
-0.0159373
0.00654901
-0.0169952
0.00654868
-0.0183012
0.00716186
-0.016923
0.0080383
-0.00980957
-0.00038442
0.00887808
-0.000226364
-0.00156507
-0.000314711
-0.00788987
-0.000379899
-0.0137334
-0.000161483
-0.0115596
0.000456435
-0.00550816
0.00115333
0.0024259
0.00178732
0.00849078
0.00225335
0.0120506
0.00237866
0.0148592
0.00251781
0.0165322
0.00330973
0.0111781
0.00448936
0.000692628
0.00544041
-0.00883381
0.00606151
-0.0144026
0.00655183
-0.0164276
0.0066162
-0.0170596
0.00656191
-0.0182469
0.00716281
-0.0175238
0.00800277
-0.0106495
-0.00116036
0.0087787
-0.000224533
-0.00134054
-0.000309135
-0.00780527
-0.000387712
-0.0136548
-0.000201253
-0.0117461
0.00039344
-0.00610285
0.00109053
0.00172881
0.00174456
0.00783675
0.00222061
0.0115745
0.00235456
0.0147252
0.00257128
0.0163155
0.0034634
0.010286
0.00467526
-0.000519233
0.00561282
-0.00977137
0.00616545
-0.0149552
0.00661049
-0.0168726
0.00668358
-0.0171327
0.00657534
-0.0181387
0.00713621
-0.0180847
0.00794576
-0.0114591
-0.00189473
0.00868012
-0.000221101
-0.00111944
-0.000299506
-0.00772686
-0.00038784
-0.0135664
-0.000232668
-0.0119012
0.00033565
-0.00667117
0.00103376
0.0010307
0.00170633
0.00716418
0.00218906
0.0110918
0.00233548
0.0145788
0.00264346
0.0160075
0.00364016
0.00928927
0.00487016
-0.00174923
0.00578243
-0.0106836
0.00627321
-0.015446
0.00666109
-0.0172605
0.00674767
-0.0172193
0.00659442
-0.0179854
0.00707756
-0.0185679
0.00785198
-0.0122335
-0.00261509
0.00857234
-0.000216104
-0.000903335
-0.000285907
-0.00765706
-0.000380172
-0.0134722
-0.000255441
-0.012026
0.000283381
-0.00720999
0.000983472
0.000330609
0.00167239
0.00647526
0.00215862
0.0106056
0.00232178
0.0144156
0.00273511
0.0155942
0.00383989
0.00818449
0.00507478
-0.00298412
0.00594676
-0.0115556
0.00638269
-0.0158819
0.00670419
-0.017582
0.00680405
-0.0173191
0.00662254
-0.0178039
0.0069842
-0.0189295
0.00769869
-0.012948
-0.00335362
0.00843722
-0.000209597
-0.000693738
-0.000268475
-0.00759818
-0.000364792
-0.0133759
-0.000269382
-0.0121214
0.000236967
-0.00771634
0.000939773
-0.000372197
0.00164219
0.00577284
0.00212908
0.0101187
0.00231427
0.0142304
0.00284619
0.0150623
0.00405818
0.0069725
0.0052862
-0.00421213
0.00610367
-0.0123731
0.00649068
-0.016269
0.00674112
-0.0178325
0.00684837
-0.0174264
0.00665998
-0.0176155
0.00685974
-0.0191293
0.00746899
-0.0135572
-0.00413506
0.00825043
-0.000201647
-0.000492091
-0.000247396
-0.00755243
-0.000341972
-0.0132813
-0.000274301
-0.012189
0.000196769
-0.00818741
0.00090232
-0.00107775
0.00161491
0.00506025
0.00209999
0.00963361
0.0023144
0.014016
0.00297678
0.0143999
0.00428894
0.00566034
0.0054992
-0.00542239
0.00625124
-0.0131251
0.00659329
-0.016611
0.00677345
-0.0180126
0.00687781
-0.0175307
0.00670414
-0.0174418
0.00671565
-0.0191408
0.0071601
-0.0140017
-0.00497026
0.0079953
-0.000192338
-0.000299753
-0.000222898
-0.00752187
-0.000312145
-0.013192
-0.000269916
-0.0122313
0.00016321
-0.00862053
0.000870285
-0.00178482
0.0015895
0.00434104
0.00207063
0.00915248
0.00232412
0.0137625
0.00312764
0.0135964
0.00452704
0.00426095
0.00570809
-0.00660344
0.00638775
-0.0138048
0.00668653
-0.0169098
0.00680276
-0.0181288
0.00689248
-0.0176204
0.00675069
-0.0173
0.00656922
-0.0189593
0.00679075
-0.0142232
-0.00585221
0.00767269
-0.000181764
-0.000117989
-0.000195238
-0.0075084
-0.000275877
-0.0131114
-0.000255822
-0.0122513
0.000136814
-0.00901317
0.000842379
-0.00249039
0.00156469
0.00361872
0.00204009
0.00867708
0.00234567
0.013457
0.00329985
0.0126422
0.0047688
0.00279199
0.00590773
-0.00774237
0.00651164
-0.0144087
0.00676702
-0.0171652
0.00683046
-0.0181923
0.00689588
-0.0176859
0.00679478
-0.0171989
0.0064409
-0.0186054
0.00640245
-0.0141848
-0.00675319
0.00730343
-0.000170031
5.20422e-05
-0.000164691
-0.00751374
-0.000233828
-0.0130423
-0.000231531
-0.0122536
0.000118212
-0.00936291
0.000816974
-0.00318915
0.00153899
0.00289671
0.00200741
0.00820866
0.00238139
0.013083
0.00349372
0.0115299
0.00501083
0.00127489
0.00609367
-0.00882521
0.00662131
-0.0149363
0.00683254
-0.0173764
0.00685707
-0.0182168
0.00689401
-0.0177228
0.00683254
-0.0171375
0.00635175
-0.0181247
0.00605829
-0.0138913
-0.00763167
0.00693677
-0.000157251
0.000209293
-0.000131536
-0.00753946
-0.000186727
-0.0129871
-0.000196616
-0.0122437
0.000108113
-0.00966764
0.000792322
-0.00387336
0.00151058
0.00217844
0.00197177
0.00774747
0.00243379
0.012621
0.00370802
0.0102556
0.00524873
-0.000265819
0.00626193
-0.00983842
0.00671502
-0.0153894
0.00688225
-0.0175436
0.00688199
-0.0182166
0.00689352
-0.0177343
0.00686201
-0.017106
0.0063216
-0.0175842
0.00584282
-0.0134125
-0.00844186
0.00665301
-0.000143544
0.000352837
-9.60383e-05
-0.00758696
-0.000135352
-0.0129478
-0.000150917
-0.0122282
0.000107296
-0.00992586
0.000766881
-0.00453294
0.00147732
0.00146801
0.00193297
0.00729182
0.00250561
0.0120483
0.00393966
0.00882157
0.00547701
-0.00180317
0.00640902
-0.0107704
0.00679091
-0.0157713
0.00691664
-0.0176694
0.00690345
-0.0182034
0.00689961
-0.0177305
0.00688385
-0.0170902
0.00636336
-0.0170638
0.00584158
-0.0128907
-0.00915462
0.00655434
-0.000129035
0.000481872
-5.83991e-05
-0.0076576
-8.04951e-05
-0.0129257
-9.47327e-05
-0.0122139
0.000116671
-0.0101373
0.000739748
-0.00515602
0.00143677
0.000770986
0.00189206
0.00683653
0.00259986
0.0113405
0.00418375
0.00723769
0.00568967
-0.00330909
0.00653198
-0.0116127
0.00684733
-0.0160867
0.00693701
-0.017759
0.00691909
-0.0181854
0.006914
-0.0177254
0.00690166
-0.0170779
0.00647463
-0.0166367
0.00609205
-0.0125081
-0.0097829
0.00672033
-0.000113851
0.000595723
-1.84283e-05
-0.00775302
-2.29128e-05
-0.0129212
-2.88772e-05
-0.012208
0.000137376
-0.0103035
0.000711159
-0.0057298
0.00138663
9.55146e-05
0.00185224
0.00637092
0.00272009
0.0104727
0.00443378
0.00552399
0.00588092
-0.00475623
0.00662854
-0.0123604
0.00688327
-0.0163414
0.00694476
-0.0178205
0.00692721
-0.0181679
0.00693414
-0.0177323
0.00692153
-0.0170653
0.0066352
-0.0163504
0.0065333
-0.0124062
-0.0103875
0.00713789
-9.81284e-05
0.000693851
2.25643e-05
-0.00787371
3.6616e-05
-0.0129352
4.54306e-05
-0.0122168
0.000170786
-0.0104289
0.000682959
-0.00624198
0.00132578
-0.000547306
0.00181981
0.00587689
0.00287022
0.00942227
0.00468184
0.00371237
0.00604551
-0.0061199
0.00669717
-0.013012
0.00689872
-0.016543
0.00694081
-0.0178626
0.00692773
-0.0181548
0.00695437
-0.017759
0.00694914
-0.01706
0.00681794
-0.0162192
0.0070198
-0.0126081
-0.0110404
0.00767269
-8.20019e-05
0.000775853
6.28501e-05
-0.00801856
9.69784e-05
-0.0129694
0.000125609
-0.0122454
0.000218326
-0.0105216
0.00065895
-0.0066826
0.00125617
-0.00114452
0.0018048
0.00532827
0.00305387
0.0081732
0.00491921
0.00184704
0.00617901
-0.0073797
0.00673722
-0.0135702
0.00689459
-0.0167003
0.0069256
-0.0178936
0.00692177
-0.018151
0.00696946
-0.0178067
0.00698894
-0.0170795
0.00699925
-0.0162295
0.0074157
-0.0130246
-0.0117677
0.00814306
-6.55987e-05
0.000841452
0.0001047
-0.00818886
0.00015808
-0.0130227
0.000210539
-0.0122979
0.000281073
-0.0105921
0.000645013
-0.00704654
0.00118548
-0.00168499
0.00182082
0.00469293
0.00327224
0.00672177
0.00513703
-1.77566e-05
0.00627802
-0.00852069
0.00674905
-0.0140413
0.00687243
-0.0168237
0.0068997
-0.0179209
0.00691026
-0.0181615
0.00697769
-0.0178741
0.00703975
-0.0171416
0.00715926
-0.016349
0.00767638
-0.0135417
-0.0125443
0.00845296
-4.90457e-05
0.000890497
0.000147317
-0.00838523
0.000219229
-0.0130946
0.00029807
-0.0123767
0.000359199
-0.0106532
0.00064888
-0.00733622
0.00112925
-0.00216535
0.00188361
0.00393856
0.00352107
0.00508432
0.00532692
-0.00182361
0.00634047
-0.00953424
0.00673407
-0.0144348
0.00683407
-0.0169237
0.00686414
-0.017951
0.00689319
-0.0181906
0.0069805
-0.0179614
0.00709266
-0.0172537
0.00728588
-0.0165422
0.00784092
-0.0140967
-0.0133326
0.00862921
-3.24738e-05
0.000922971
0.000190303
-0.008608
0.000279958
-0.0131843
0.000386333
-0.0124831
0.000451541
-0.0107185
0.000679071
-0.00756375
0.00111052
-0.0025968
0.00200752
0.00304157
0.0037881
0.00330373
0.00548129
-0.00351681
0.0063659
-0.0104188
0.00669464
-0.0147636
0.00678159
-0.0170107
0.00682018
-0.0179896
0.00687028
-0.0182407
0.00697923
-0.0180704
0.00713818
-0.0174127
0.00738156
-0.0167856
0.00796041
-0.0146756
-0.0141102
0.00873799
-1.60565e-05
0.000939028
0.000233341
-0.0088574
0.000339889
-0.0132908
0.000473722
-0.0126169
0.00055544
-0.0108002
0.000742955
-0.00775127
0.00115389
-0.00300774
0.00219953
0.00199593
0.0040535
0.00144977
0.00559384
-0.00505715
0.00635562
-0.0111806
0.00663389
-0.0150419
0.00671722
-0.017094
0.00676903
-0.0180414
0.00684162
-0.0183133
0.00697349
-0.0182022
0.00717202
-0.0176112
0.00745456
-0.0170682
0.00805212
-0.0152731
-0.0148708
0.00881271
-7.44954e-07
0.000939773
0.000276141
-0.00913429
0.000398705
-0.0134134
0.00055894
-0.0127772
0.000666955
-0.0109082
0.000843902
-0.00792822
0.00127472
-0.00343855
0.00245222
0.000818424
0.00429406
-0.000392071
0.00566045
-0.00642354
0.00631271
-0.0118329
0.00655544
-0.0152846
0.00664321
-0.0171818
0.00671169
-0.0181099
0.00680748
-0.0184091
0.00696225
-0.018357
0.00719384
-0.0178428
0.00750973
-0.017384
0.00811584
-0.0158792
-0.0156138
0.00885891
1.66881e-05
0.000923084
0.000318437
-0.00943603
0.000456112
-0.0135511
0.000641028
-0.0129621
0.00078143
-0.0110486
0.000978844
-0.00812563
0.00146891
-0.00392861
0.00274026
-0.000452932
0.0044893
-0.00214111
0.00568034
-0.00761458
0.0062418
-0.0123943
0.00646314
-0.0155059
0.00656167
-0.0172803
0.0066491
-0.0181973
0.00676808
-0.018528
0.00694481
-0.0185337
0.0072042
-0.0181022
0.0075481
-0.0177279
0.00815421
-0.0164853
-0.0163391
0.00887943
3.31315e-05
0.000889953
0.00035998
-0.00976288
0.000511834
-0.0137029
0.000719332
-0.0131696
0.000894319
-0.0112236
0.00113777
-0.00836908
0.00171115
-0.004502
0.00302599
-0.00176777
0.00462596
-0.00374108
0.00565664
-0.00864527
0.0061486
-0.0128863
0.00636072
-0.015718
0.00647443
-0.017394
0.00658203
-0.0183049
0.00672354
-0.0186695
0.00692086
-0.0187311
0.0072037
-0.018385
0.00757041
-0.0180947
0.00817184
-0.0170868
-0.0170456
0.00887842
4.92261e-05
0.000840727
0.000400547
-0.0101142
0.000565609
-0.013868
0.00079343
-0.0133974
0.00100197
-0.0114321
0.00130593
-0.00867303
0.00196427
-0.00516034
0.00327202
-0.00307552
0.00470006
-0.00516912
0.00559599
-0.0095412
0.00603919
-0.0133295
0.00625152
-0.0159304
0.00638302
-0.0175255
0.0065111
-0.018433
0.00667399
-0.0188324
0.00689031
-0.0189474
0.00719298
-0.0186877
0.00757782
-0.0184795
0.00817171
-0.0176807
-0.0177328
0.00885885
6.51337e-05
0.000775593
0.000439933
-0.010489
0.000617199
-0.0140453
0.000863037
-0.0136432
0.00110202
-0.0116711
0.00146807
-0.00903908
0.00219381
-0.00588609
0.00345444
-0.00433615
0.00471674
-0.00643142
0.00550727
-0.0103317
0.0059193
-0.0137415
0.00613824
-0.0161493
0.00628862
-0.0176759
0.00643678
-0.0185811
0.00661956
-0.0190152
0.00685323
-0.0191811
0.00717265
-0.0190071
0.00757138
-0.0188782
0.00815595
-0.0182652
-0.0184002
0.00882332
8.0962e-05
0.000694631
0.000477955
-0.010886
0.000666393
-0.0142337
0.000927943
-0.0139048
0.00119328
-0.0119364
0.00161264
-0.00945845
0.00237878
-0.00665223
0.00356827
-0.00552564
0.00468757
-0.00755072
0.00539981
-0.011044
0.00579371
-0.0141354
0.00602291
-0.0163785
0.00619209
-0.0178451
0.00635943
-0.0187485
0.00656041
-0.0192162
0.00680981
-0.0194305
0.00714323
-0.0193406
0.00755206
-0.0192871
0.00812645
-0.0188396
-0.0190483
0.00877459
9.68359e-05
0.000597795
0.000514455
-0.0113036
0.000713014
-0.0144323
0.00098798
-0.0141798
0.00127528
-0.0122237
0.00173398
-0.00991715
0.00251398
-0.00743223
0.00362318
-0.00663484
0.00462647
-0.008554
0.00528173
-0.0116992
0.00566596
-0.0145197
0.00590693
-0.0166195
0.00609402
-0.0180322
0.00627929
-0.0189338
0.00649672
-0.0194336
0.00676027
-0.019694
0.00710518
-0.0196855
0.00752085
-0.0197027
0.0080848
-0.0194036
-0.0196777
0.00871417
0.000112909
0.000484886
0.000549305
-0.01174
0.000756923
-0.0146399
0.00104302
-0.0144658
0.00134795
-0.0125287
0.00183166
-0.0104009
0.00260528
-0.00820585
0.00363495
-0.0076645
0.00454592
-0.00946497
0.00515902
-0.0123123
0.00553834
-0.014899
0.00579116
-0.0168723
0.00599483
-0.0182358
0.00619656
-0.0191355
0.00642867
-0.0196657
0.00670485
-0.0199702
0.00705888
-0.0200395
0.00747875
-0.0201226
0.00803243
-0.0199572
-0.020289
0.00864372
0.000129364
0.000355523
0.0005824
-0.012193
0.000798014
-0.0148555
0.001093
-0.0147608
0.00141144
-0.0128471
0.00190829
-0.0108977
0.00266275
-0.0089603
0.00361838
-0.00862013
0.00445501
-0.0103016
0.00503549
-0.0128928
0.00541221
-0.0152757
0.00567611
-0.0171362
0.00589477
-0.0184545
0.00611139
-0.0193521
0.00635647
-0.0199108
0.0066438
-0.0202575
0.00700473
-0.0204004
0.00742679
-0.0205447
0.00797052
-0.020501
-0.0208829
0.0085645
0.000146408
0.000209115
0.000613661
-0.0126603
0.000836212
-0.0150781
0.00113789
-0.0150625
0.00146607
-0.0131753
0.00196735
-0.011399
0.00269579
-0.00968874
0.00358424
-0.00950858
0.00435944
-0.0110768
0.00491329
-0.0134467
0.00528827
-0.0156507
0.00556204
-0.01741
0.00579399
-0.0186864
0.0060239
-0.019582
0.00628031
-0.0201672
0.00657731
-0.0205545
0.00694315
-0.0207663
0.00736598
-0.0209675
0.00790003
-0.021035
-0.0214602
0.0084773
0.000164262
4.48527e-05
0.000643032
-0.0131391
0.000871473
-0.0153065
0.00117774
-0.0153688
0.00151233
-0.0135099
0.00201198
-0.0118987
0.00271133
-0.0103881
0.00353933
-0.0103366
0.00426239
-0.0117999
0.00479348
-0.0139778
0.00516679
-0.016024
0.00544905
-0.0176922
0.0056926
-0.01893
0.00593418
-0.0198236
0.00620039
-0.0204334
0.00650561
-0.0208597
0.00687458
-0.0211352
0.0072972
-0.0213901
0.00782165
-0.0215595
-0.0220212
0.00838262
0.000183154
-0.000138302
0.000670477
-0.0136264
0.000903773
-0.0155398
0.00121266
-0.0156777
0.00155079
-0.013848
0.00204464
-0.0123925
0.00271396
-0.0110574
0.00348765
-0.0111103
0.00416555
-0.0124778
0.00467651
-0.0144887
0.00504785
-0.0163953
0.00533714
-0.0179815
0.00559063
-0.0191835
0.00584233
-0.0200753
0.00611687
-0.020708
0.0064289
-0.0211718
0.00679949
-0.0215058
0.00722124
-0.0218119
0.00773587
-0.0220741
-0.0225661
0.00828073
0.000203296
-0.000341598
0.000695973
-0.0141191
0.00093311
-0.0157769
0.00124277
-0.0159873
0.00158202
-0.0141873
0.00206723
-0.0128777
0.00270673
-0.0116969
0.00343155
-0.0118351
0.00406975
-0.0131159
0.00456248
-0.0149815
0.00493135
-0.0167642
0.00522626
-0.0182764
0.00548811
-0.0194453
0.00574843
-0.0203356
0.00602992
-0.0209895
0.0063474
-0.0214893
0.00671835
-0.0218768
0.00713871
-0.0222322
0.00764297
-0.0225783
-0.0230948
0.00817174
0.000224868
-0.000566466
0.000719511
-0.0146137
0.000959498
-0.0160169
0.00126825
-0.0162961
0.0016066
-0.0145256
0.00208121
-0.0133523
0.0026917
-0.0123074
0.00337249
-0.0125159
0.00397538
-0.0137188
0.00445132
-0.0154574
0.00481713
-0.01713
0.0051163
-0.0185756
0.00538504
-0.0197141
0.00565254
-0.0206031
0.00593971
-0.0212766
0.00626134
-0.0218109
0.00663159
-0.022247
0.00705013
-0.0226508
0.00754307
-0.0230713
-0.0236077
0.0080559
0.000247992
-0.000814458
0.000741088
-0.0151068
0.000982962
-0.0162588
0.00128929
-0.0166024
0.00162508
-0.0148614
0.00208778
-0.013815
0.00267038
-0.01289
0.00331137
-0.0131569
0.00388259
-0.0142901
0.00434282
-0.0159176
0.00470499
-0.0174922
0.00500717
-0.0188778
0.00528139
-0.0199883
0.00555472
-0.0208764
0.00584638
-0.0215683
0.00617092
-0.0221354
0.00653967
-0.0226158
0.0069559
-0.023067
0.00743613
-0.0235515
-0.0241058
0.00793422
0.000272707
-0.00108717
0.000760702
-0.0155948
0.00100353
-0.0165016
0.00130609
-0.016905
0.00163795
-0.0151933
0.00208789
-0.014265
0.00264388
-0.013446
0.0032488
-0.0137618
0.00379136
-0.0148326
0.00423676
-0.016363
0.00459473
-0.0178501
0.00489873
-0.0191818
0.00517714
-0.0202667
0.00545504
-0.0211543
0.00575008
-0.0218633
0.00607634
-0.0224617
0.00644297
-0.0229824
0.00685627
-0.0234803
0.00732272
-0.024018
-0.0245885
0.00780548
0.000298944
-0.00138611
0.000778351
-0.0160742
0.00102126
-0.0167445
0.00131887
-0.0172026
0.00164571
-0.0155201
0.00208236
-0.0147016
0.00261308
-0.0139767
0.00318518
-0.0143339
0.0037016
-0.015349
0.00413289
-0.0167943
0.00448611
-0.0182034
0.00479088
-0.0194866
0.00507228
-0.0205481
0.00535354
-0.0214356
0.00565092
-0.0221607
0.00597781
-0.0227886
0.00634188
-0.0233465
0.00675121
-0.0238896
0.00720338
-0.0244701
-0.0250618
0.00767665
0.000326494
-0.0017126
0.000794003
-0.0165417
0.00103613
-0.0169867
0.00132779
-0.0174942
0.00164872
-0.015841
0.00207183
-0.0151247
0.00257857
-0.0144834
0.00312068
-0.014876
0.00361309
-0.0158414
0.00403083
-0.0172121
0.00437881
-0.0185513
0.00468333
-0.0197911
0.0049666
-0.0208314
0.00525012
-0.0217191
0.00554884
-0.0224594
0.00587534
-0.0231151
0.00623646
-0.0237076
0.00664035
-0.0242935
0.00707841
-0.0249082
-0.025551
0.00756765
0.000355027
-0.00206763
0.00080769
-0.0169944
0.00104828
-0.0172272
0.00133315
-0.0177791
0.00164749
-0.0161554
0.00205697
-0.0155342
0.00254102
-0.0149675
0.00305563
-0.0153906
0.00352586
-0.0163117
0.00393056
-0.0176168
0.00427286
-0.0188936
0.00457627
-0.0200945
0.00486039
-0.0211155
0.00514517
-0.0220039
0.00544432
-0.0227586
0.00576958
-0.0234403
0.00612726
-0.0240653
0.0065245
-0.0246908
0.00695581
-0.0253395
-0.0260291
0.00743388
0.000384049
-0.00245168
0.000819368
-0.0174297
0.00105772
-0.0174656
0.00133512
-0.0180565
0.00164235
-0.0164626
0.00203823
-0.0159301
0.0025008
-0.0154301
0.00299004
-0.0158799
0.00343966
-0.0167613
0.00383173
-0.0180088
0.00416796
-0.0192299
0.00446944
-0.020396
0.00475348
-0.0213995
0.00503857
-0.022289
0.00533728
-0.0230573
0.0056605
-0.0237635
0.00601415
-0.0244189
0.0064047
-0.0250813
0.00682737
-0.0257622
-0.026492
0.00729026
0.00041295
-0.00286463
0.000829012
-0.0178458
0.00106449
-0.0177011
0.00133391
-0.0183259
0.00163361
-0.0167623
0.00201603
-0.0163125
0.00245823
-0.0158723
0.002924
-0.0163456
0.00335435
-0.0171916
0.00373413
-0.0183886
0.00406392
-0.0195597
0.00436274
-0.0206948
0.00464583
-0.0216826
0.00493036
-0.0225735
0.00522781
-0.0233547
0.00554828
-0.024084
0.00589743
-0.0247681
0.00628066
-0.0254645
0.00669439
-0.0261759
-0.0269446
0.00714697
0.000441034
-0.00330566
0.000836595
-0.0182413
0.00106865
-0.0179331
0.0013297
-0.018587
0.00162158
-0.0170542
0.00199073
-0.0166816
0.00241361
-0.0162951
0.00285752
-0.0167896
0.00326976
-0.0176039
0.00363756
-0.0187564
0.0039606
-0.0198827
0.00425608
-0.0209903
0.00453743
-0.021964
0.0048206
-0.0228567
0.00511602
-0.0236502
0.00543309
-0.0244011
0.00577717
-0.0251121
0.0061528
-0.0258402
0.00655793
-0.026581
-0.0273835
0.0069969
0.000467578
-0.00377324
0.000842097
-0.0186158
0.00107028
-0.0181613
0.00132269
-0.0188394
0.00160653
-0.017338
0.00196263
-0.0170377
0.00236716
-0.0166997
0.00279064
-0.017213
0.00318576
-0.017999
0.00354186
-0.0191125
0.00385784
-0.0201987
0.00414938
-0.0212818
0.00442826
-0.0222428
0.00470931
-0.0231377
0.005002
-0.0239429
0.00531508
-0.0247142
0.00565358
-0.0254506
0.00602141
-0.026208
0.00641704
-0.0269767
-0.0278108
0.00684433
0.000491897
-0.00426514
0.000845512
-0.0189695
0.00106943
-0.0183852
0.00131305
-0.019083
0.00158872
-0.0176137
0.00193201
-0.017381
0.00231906
-0.0170867
0.00272335
-0.0176173
0.00310224
-0.0183779
0.00344685
-0.0194571
0.00375552
-0.0205074
0.00404257
-0.0215689
0.0043183
-0.0225186
0.00459654
-0.023416
0.00488585
-0.0242322
0.00519437
-0.0250227
0.00552684
-0.0257831
0.0058865
-0.0265677
0.00627288
-0.027363
-0.0282255
0.0066876
0.000513411
-0.00477855
0.00084685
-0.0193029
0.00106619
-0.0186046
0.00130095
-0.0193177
0.00156835
-0.0178811
0.0018991
-0.0177118
0.00226947
-0.0174571
0.00265566
-0.0180035
0.00301907
-0.0187413
0.00335239
-0.0197904
0.00365352
-0.0208085
0.00393557
-0.0218509
0.00420754
-0.0227906
0.00448234
-0.0236908
0.00476764
-0.0245175
0.00507109
-0.0253261
0.00539707
-0.0261091
0.00574843
-0.026919
0.00612496
-0.0277396
-0.0286283
0.00652769
0.000531699
-0.00531025
0.000846141
-0.0196173
0.00106066
-0.0188191
0.00128655
-0.0195436
0.00154564
-0.0181402
0.0018641
-0.0180302
0.00221852
-0.0178115
0.00258755
-0.0183726
0.00293616
-0.0190899
0.00325837
-0.0201126
0.00355174
-0.0211019
0.00382833
-0.0221275
0.00409598
-0.0230582
0.00436673
-0.0239615
0.00464746
-0.0247982
0.00494536
-0.025624
0.00526446
-0.0264282
0.00560718
-0.0272618
0.00597386
-0.0281063
-0.0290189
0.00636452
0.000546529
-0.00585678
0.000843439
-0.0199143
0.00105293
-0.0190286
0.00127002
-0.0197607
0.00152077
-0.0183909
0.00182718
-0.0183367
0.00216632
-0.0181507
0.00251903
-0.0187253
0.00285341
-0.0194243
0.00316467
-0.0204239
0.00345009
-0.0213873
0.0037208
-0.0223982
0.0039836
-0.023321
0.00424977
-0.0242277
0.0045254
-0.0250738
0.0048173
-0.0259159
0.0051291
-0.02674
0.00546303
-0.0275957
0.00581954
-0.0284628
-0.0293976
0.00619824
0.000557861
-0.00641464
0.000838819
-0.0201952
0.00104311
-0.0192329
0.00125149
-0.0199691
0.0014939
-0.0186334
0.00178852
-0.0186313
0.00211296
-0.0184751
0.00245008
-0.0190624
0.00277076
-0.019745
0.00307119
-0.0207243
0.00334849
-0.0216646
0.00361293
-0.0226626
0.00387042
-0.0235785
0.00413148
-0.0244888
0.00440153
-0.0253439
0.00468701
-0.0262014
0.00499118
-0.0270442
0.00531603
-0.0279205
0.00566225
-0.028809
-0.0297644
0.00602907
0.000565821
-0.00698046
0.00083237
-0.0204618
0.00103131
-0.0194318
0.00123109
-0.0201689
0.0014652
-0.0188675
0.00174823
-0.0189143
0.00205853
-0.0187854
0.0023807
-0.0193846
0.00268812
-0.0200524
0.00297785
-0.0210141
0.00324686
-0.0219336
0.00350469
-0.0229205
0.00375642
-0.0238302
0.00401191
-0.0247443
0.00427593
-0.0256079
0.00455458
-0.0264801
0.00485078
-0.0273404
0.00516637
-0.0282361
0.00550211
-0.0291447
-0.0301194
0.00585703
0.000570661
-0.00755112
0.000824196
-0.0207153
0.00101765
-0.0196253
0.00120896
-0.0203602
0.0014348
-0.0190933
0.00170645
-0.0191859
0.00200309
-0.0190821
0.00231089
-0.0196923
0.00260545
-0.0203469
0.00288458
-0.0212932
0.00314516
-0.0221941
0.00339604
-0.0231713
0.00364161
-0.0240758
0.00389109
-0.0249937
0.00414866
-0.0258655
0.00442013
-0.0267515
0.00470804
-0.0276283
0.00501414
-0.0285422
0.00533926
-0.0294698
-0.0304625
0.00568235
0.000572708
-0.00812383
0.000814403
-0.020957
0.00100224
-0.0198131
0.0011852
-0.0205431
0.00140282
-0.0193109
0.00166329
-0.0194464
0.00194671
-0.0193655
0.00224063
-0.0199863
0.0025227
-0.020629
0.00279131
-0.0215618
0.00304332
-0.0224462
0.00328697
-0.023415
0.00352601
-0.0243148
0.00376907
-0.0252368
0.0040198
-0.0261162
0.00428373
-0.0270155
0.00456307
-0.0279076
0.00485948
-0.0288386
0.00517385
-0.0297842
-0.0307937
0.00550508
0.000572316
-0.00869614
0.000803103
-0.0211878
0.000985195
-0.0199952
0.00115993
-0.0207179
0.00136939
-0.0195204
0.00161884
-0.0196959
0.00188944
-0.0196361
0.00216994
-0.0202668
0.00243981
-0.0208989
0.00269798
-0.02182
0.00294131
-0.0226895
0.00317745
-0.0236511
0.00340961
-0.024547
0.00364588
-0.0254731
0.00388941
-0.0263597
0.00414548
-0.0272715
0.00441597
-0.0281781
0.00470252
-0.0291252
0.00500599
-0.0300877
-0.0311131
0.00532538
0.000569829
-0.00926597
0.000790401
-0.0214083
0.000966629
-0.0201714
0.00113327
-0.0208845
0.00133459
-0.0197217
0.00157319
-0.0199345
0.00183134
-0.0198942
0.0020988
-0.0205342
0.00235677
-0.0211568
0.00260456
-0.0220678
0.00283909
-0.022924
0.00306747
-0.0238795
0.00329244
-0.024772
0.00352156
-0.0257022
0.00375756
-0.0265957
0.00400547
-0.0275194
0.00426686
-0.0284395
0.00454336
-0.0294017
0.00483583
-0.0303801
-0.0314206
0.00514334
0.000565558
-0.00983153
0.000776404
-0.0216192
0.000946649
-0.0203417
0.00110529
-0.0210432
0.00129854
-0.019915
0.00152644
-0.0201624
0.00177245
-0.0201402
0.00202723
-0.020789
0.00227353
-0.0214031
0.00251099
-0.0223052
0.00273662
-0.0231497
0.00295702
-0.0240999
0.00317451
-0.0249895
0.00339616
-0.0259238
0.00362432
-0.0268239
0.00386379
-0.0277589
0.00411584
-0.0286915
0.00438213
-0.029668
0.00466347
-0.0306615
-0.0317162
0.00495907
0.000559772
-0.0103913
0.000761211
-0.0218206
0.000925361
-0.0205058
0.00107611
-0.0211939
0.00126132
-0.0201002
0.00147864
-0.0203797
0.00171281
-0.0203744
0.00195522
-0.0210314
0.00219007
-0.021638
0.00241727
-0.0225324
0.0026339
-0.0233663
0.00284609
-0.0243121
0.00305583
-0.0251992
0.00326971
-0.0261377
0.00348975
-0.0270439
0.0037205
-0.0279897
0.003963
-0.028934
0.00421892
-0.0299239
0.00448903
-0.0309316
-0.0319998
0.00477267
0.00055269
-0.010944
0.000744916
-0.0220129
0.000902875
-0.0206638
0.0010458
-0.0213368
0.001223
-0.0202774
0.00142987
-0.0205865
0.00165247
-0.020597
0.00188279
-0.0212617
0.00210638
-0.0218616
0.00232334
-0.0227494
0.00253089
-0.0235738
0.00273469
-0.0245159
0.00293642
-0.0254009
0.00314226
-0.0263435
0.00335391
-0.0272556
0.0035757
-0.0282115
0.00380845
-0.0291668
0.00405384
-0.0301693
0.00431262
-0.0311904
-0.0322715
0.00458425
0.000544491
-0.0114885
0.000727608
-0.022196
0.000879285
-0.0208155
0.00101445
-0.021472
0.00118367
-0.0204466
0.00138019
-0.0207831
0.00159147
-0.0208083
0.00180993
-0.0214802
0.00202245
-0.0220741
0.00222921
-0.0229561
0.00242758
-0.0237722
0.00262281
-0.0247111
0.00281632
-0.0255944
0.00301385
-0.0265411
0.00321685
-0.0274586
0.00342947
-0.0284241
0.00365226
-0.0293896
0.00388701
-0.030404
0.00413434
-0.0314377
-0.032531
0.00439389
0.000535317
-0.0120238
0.000709372
-0.02237
0.000854676
-0.0209608
0.000982125
-0.0215995
0.0011434
-0.0206079
0.00132967
-0.0209693
0.00152984
-0.0210085
0.00173667
-0.021687
0.00193826
-0.0222757
0.00213485
-0.0231527
0.00232397
-0.0239613
0.00251045
-0.0248976
0.00269552
-0.0257795
0.00288452
-0.0267301
0.00307866
-0.0276527
0.00328187
-0.0286273
0.00349455
-0.0296023
0.00371851
-0.030628
0.0039543
-0.0316735
-0.0327784
0.0042017
0.000525287
-0.0125491
0.000690276
-0.022535
0.00082913
-0.0210996
0.000948904
-0.0217192
0.00110224
-0.0207612
0.00127836
-0.0211454
0.00146761
-0.0211977
0.00166301
-0.0218824
0.00185381
-0.0224665
0.00204025
-0.0233392
0.00222005
-0.0241411
0.00239764
-0.0250752
0.00257408
-0.0259559
0.00275431
-0.0269103
0.00293937
-0.0278378
0.00313298
-0.0288209
0.00333539
-0.0298047
0.00354843
-0.030841
0.00377259
-0.0318977
-0.0330136
0.00400777
0.000514497
-0.0130636
0.000670386
-0.0226909
0.000802724
-0.0212319
0.00091485
-0.0218314
0.00106026
-0.0209066
0.0012263
-0.0213115
0.00140483
-0.0213763
0.00158897
-0.0220666
0.0017691
-0.0226466
0.00194541
-0.0235155
0.00211582
-0.0243115
0.00228438
-0.0252438
0.002452
-0.0261236
0.00262327
-0.0270816
0.00279906
-0.0280136
0.00298288
-0.0290047
0.00317487
-0.0299966
0.00337688
-0.0310431
0.00358931
-0.0321101
-0.0332365
0.00381219
0.000503029
-0.0135666
0.000649772
-0.0228377
0.000775528
-0.0213577
0.000880026
-0.0219359
0.00101752
-0.0210441
0.00117355
-0.0214675
0.00134152
-0.0215442
0.00151456
-0.0222396
0.00168413
-0.0228162
0.00185033
-0.0236817
0.00201129
-0.0244725
0.00217068
-0.0254032
0.00232932
-0.0262822
0.00249143
-0.0272437
0.00265777
-0.0281799
0.00283165
-0.0291786
0.00301307
-0.0301781
0.00320394
-0.0312339
0.00340455
-0.0323107
-0.033447
0.00361504
0.000490954
-0.0140576
0.0006285
-0.0229752
0.000747611
-0.0214768
0.000844489
-0.0220327
0.000974069
-0.0211737
0.00112016
-0.0216136
0.00127772
-0.0217018
0.00143979
-0.0224017
0.00159891
-0.0229753
0.001755
-0.0238378
0.00190646
-0.0246239
0.00205656
-0.0255533
0.00220607
-0.0264317
0.00235886
-0.0273965
0.00251558
-0.0283366
0.00267934
-0.0293424
0.00285007
-0.0303488
0.0030297
-0.0314136
0.00321839
-0.0324994
-0.033645
0.00341642
0.000478335
-0.0145359
0.000606631
-0.0231035
0.000719033
-0.0215892
0.000808293
-0.022122
0.000929958
-0.0212954
0.00106617
-0.0217498
0.00121345
-0.0218491
0.00136468
-0.0225529
0.00151344
-0.0231241
0.00165944
-0.0239838
0.00180134
-0.0247658
0.00194204
-0.025694
0.00208228