/*--------------------------------*- C++ -*----------------------------------*\
  =========                 |
  \\      /  F ield         | OpenFOAM: The Open Source CFD Toolbox
   \\    /   O peration     | Website:  https://openfoam.org
    \\  /    A nd           | Version:  7
     \\/     M anipulation  |
\*---------------------------------------------------------------------------*/
FoamFile
{
    version     2.0;
    format      ascii;
    class       volVectorField;
    location    "8.5";
    object      U;
}
// * * * * * * * * * * * * * * * * * * * * * * * * * * * * * * * * * * * * * //

dimensions      [0 1 -1 0 0 0 0];

internalField   nonuniform List<vector> 
2413
(
(2 6.14759e-16 0)
(2 5.70799e-16 0)
(2 5.3142e-16 0)
(2 4.85261e-16 0)
(2 5.70577e-16 0)
(2 7.94444e-16 0)
(2 8.96184e-16 0)
(2 1.19088e-15 0)
(2 1.256e-15 0)
(2 1.07288e-15 0)
(2 8.71054e-16 0)
(2 8.82637e-16 0)
(2 1.18024e-15 0)
(2 1.32618e-15 0)
(2 1.26332e-15 0)
(2 8.72563e-16 0)
(2 4.11351e-16 0)
(2 2.27664e-17 0)
(2 -1.44813e-16 0)
(2 -4.11567e-16 0)
(2 -6.20427e-16 0)
(2 -6.59253e-16 0)
(2 -7.23864e-16 0)
(2 -8.07841e-16 0)
(2 -8.56222e-16 0)
(2 -1.06816e-15 0)
(2 -1.20584e-15 0)
(2 -1.25414e-15 0)
(2 -1.20456e-15 0)
(2 -1.24661e-15 0)
(2 -1.23758e-15 0)
(2 -1.00182e-15 0)
(2 -8.71516e-16 0)
(2 -8.61706e-16 0)
(2 -7.98725e-16 0)
(2 -6.63087e-16 0)
(2 -6.96176e-16 0)
(2 -8.33316e-16 0)
(2 -1.02445e-15 0)
(2 -1.29765e-15 0)
(2 -1.78286e-15 0)
(2 -1.97106e-15 0)
(2 -2.1344e-15 0)
(2 -2.07495e-15 0)
(2 -1.8837e-15 0)
(2 -1.79225e-15 0)
(2 -1.78771e-15 0)
(2 -1.61413e-15 0)
(2 -1.55924e-15 0)
(2 -1.57518e-15 0)
(2 -1.52656e-15 0)
(2 -1.06944e-15 0)
(2 -7.14382e-16 0)
(2 9.22485e-17 0)
(2 6.55984e-16 0)
(2 6.84345e-16 0)
(2 6.48914e-16 0)
(2 7.36389e-16 0)
(2 8.72779e-16 0)
(2 1.0322e-15 0)
(2 1.0821e-15 0)
(2 1.01435e-15 0)
(2 9.47732e-16 0)
(2 9.36545e-16 0)
(2 8.9581e-16 0)
(2 8.39643e-16 0)
(2 7.98547e-16 0)
(2 7.119e-16 0)
(2 5.56158e-16 0)
(2 3.23811e-16 0)
(2 1.85602e-16 0)
(2 3.36275e-17 0)
(2 1.38932e-16 0)
(2 2.50673e-16 0)
(2 3.97251e-16 0)
(2 8.43227e-18 0)
(2 8.36539e-19 0)
(2 -4.51278e-17 0)
(2 -4.71474e-17 0)
(2 -3.79562e-17 0)
(2 -2.75494e-17 0)
(2 2.31777e-17 0)
(2 -3.09242e-17 0)
(2 -1.48084e-16 0)
(2 -7.68246e-17 0)
(2 -3.19589e-16 0)
(2 -4.33111e-16 0)
(2 -5.60672e-16 0)
(2 -6.20757e-16 0)
(2 -5.3987e-16 0)
(2 -5.96591e-16 0)
(2 -8.18343e-16 0)
(2 -3.83693e-16 0)
(2 3.91597e-17 0)
(2 1.35084e-16 0)
(2 2.57707e-16 0)
(2 1.04895e-16 0)
(2 -1.37892e-17 0)
(2 1.03291e-16 0)
(2 1.13396e-16 0)
(2 1.689e-16 0)
(2 -1.53825e-17 0)
(2 -3.37743e-16 0)
(2 4.51066e-16 0)
(2 8.37193e-16 0)
(2 1.07387e-15 0)
(2 1.17935e-15 0)
(2 1.2912e-15 0)
(2 1.09963e-15 0)
(2 6.66338e-16 0)
(2 2.82825e-16 0)
(2 -5.13743e-16 0)
(2 -5.63911e-16 0)
(2 3.63038e-17 0)
(2 2.6865e-16 0)
(2 6.89534e-16 0)
(2 3.07627e-17 0)
(2 -5.1206e-16 0)
(2 -8.86092e-16 0)
(2 -9.33422e-16 0)
(2 -1.30707e-15 0)
(2 -1.65643e-15 0)
(2 -1.21619e-15 0)
(2 -9.26169e-16 0)
(2 -7.71139e-16 0)
(2 -6.51233e-16 0)
(2 -5.51524e-16 0)
(2 -5.41275e-16 0)
(2 -4.26849e-16 0)
(2 -2.50882e-16 0)
(2 -2.76614e-16 0)
(2 -3.35069e-16 0)
(2 -1.49209e-17 0)
(2 -6.57436e-17 0)
(2 -1.8101e-16 0)
(2 -6.93829e-17 0)
(2 -3.6442e-17 0)
(2 9.91211e-17 0)
(2 3.64808e-16 0)
(2 6.38462e-16 0)
(2 5.66823e-16 0)
(2 -2.82372e-16 0)
(2 -4.71169e-16 0)
(2 -5.17814e-16 0)
(2 -4.07054e-16 0)
(2 -4.42334e-16 0)
(2 -7.99569e-16 0)
(2 -9.09833e-16 0)
(2 -9.92182e-16 0)
(2 -1.04699e-15 0)
(2 -1.05565e-15 0)
(2 -8.73256e-16 0)
(2 -2.3581e-16 0)
(2 -1.95683e-16 0)
(2 -2.03278e-16 0)
(2 -2.08608e-16 0)
(2 -1.54769e-16 0)
(2 -9.21022e-17 0)
(2 -7.48069e-18 0)
(2 9.81637e-17 0)
(2 1.86087e-16 0)
(2 2.77625e-16 0)
(2 3.56454e-16 0)
(2 4.26674e-16 0)
(2 4.46419e-16 0)
(2 5.28658e-16 0)
(2 5.56684e-16 0)
(2 5.13624e-16 0)
(2 4.26997e-16 0)
(2 4.16303e-16 0)
(2 4.53519e-16 0)
(2 1.7464e-16 0)
(2 -2.5255e-16 0)
(2 -2.05215e-16 0)
(2 -6.24545e-17 0)
(2 1.44365e-16 0)
(2 1.66464e-16 0)
(2 3.01802e-16 0)
(2 4.55343e-16 0)
(2 6.43916e-16 0)
(2 1.13577e-15 0)
(2 1.27453e-15 0)
(2 1.14773e-15 0)
(2 1.57982e-15 0)
(2 2.2956e-15 0)
(2 2.53764e-15 0)
(2 2.25709e-15 0)
(2 1.96044e-15 0)
(2 1.94762e-15 0)
(2 1.87966e-15 0)
(2 1.86732e-15 0)
(2 1.9223e-15 0)
(2 1.16777e-15 0)
(2 7.32001e-16 0)
(2 2.95158e-16 0)
(2 -5.05933e-17 0)
(2 -7.20417e-17 0)
(2 3.4477e-17 0)
(2 5.95294e-17 0)
(2 -1.7353e-16 0)
(2 -6.10862e-16 0)
(2 -7.09689e-16 0)
(2 -1.12374e-15 0)
(2 -1.43155e-15 0)
(2 -1.55661e-15 0)
(2 -1.28e-15 0)
(2 -9.31365e-16 0)
(2 -2.06173e-17 0)
(2 -3.3664e-17 0)
(2 -2.71239e-17 0)
(2 -5.71292e-17 0)
(2 -3.0392e-17 0)
(2 -1.20431e-17 0)
(2 -6.04996e-17 0)
(2 -8.24717e-17 0)
(2 2.79444e-18 0)
(2 7.69352e-17 0)
(2 -6.87621e-18 0)
(2 -2.66978e-16 0)
(2 -3.65436e-16 0)
(2 -3.02394e-16 0)
(2 -8.88048e-17 0)
(2 1.89552e-16 0)
(2 3.67717e-16 0)
(2 2.01578e-16 0)
(2 1.63585e-16 0)
(2 1.43336e-16 0)
(2 2.68986e-16 0)
(2 4.48296e-16 0)
(2 5.98808e-16 0)
(2 6.72193e-16 0)
(2 7.33664e-16 0)
(2 5.15449e-16 0)
(2 4.09016e-16 0)
(2 4.48563e-16 0)
(2 6.18548e-16 0)
(2 7.50824e-16 0)
(2 7.04432e-16 0)
(2 1.19184e-15 0)
(2 1.44405e-15 0)
(2 1.7989e-15 0)
(2 1.96443e-15 0)
(2 2.10037e-15 0)
(2 2.22156e-15 0)
(2 1.1174e-15 0)
(2 2.20962e-16 0)
(2 2.12545e-17 0)
(2 -5.11452e-16 0)
(2 -8.3112e-16 0)
(2 -9.63032e-16 0)
(2 -1.48624e-15 0)
(2 -2.18959e-15 0)
(2 -2.50705e-15 0)
(2 -2.33196e-15 0)
(2 -2.29986e-15 0)
(2 -2.32667e-15 0)
(2 -1.85408e-15 0)
(2 -1.62821e-15 0)
(2 -1.44692e-15 0)
(2 -1.14453e-15 0)
(2 -9.07786e-16 0)
(2 -4.81381e-16 0)
(2 -4.39687e-16 0)
(2 -8.13439e-16 0)
(2 -8.76888e-16 0)
(2 -1.00175e-15 0)
(2 -1.10372e-15 0)
(2 -1.24187e-15 0)
(2 -1.31923e-15 0)
(2 -1.40261e-15 0)
(2 -1.26667e-15 0)
(2 -1.16812e-15 0)
(2 -9.87768e-16 0)
(2 -8.87881e-16 0)
(2 -8.24753e-16 0)
(2 -9.52439e-16 0)
(2 -1.14431e-15 0)
(2 -1.42917e-15 0)
(2 -1.56246e-15 0)
(2 -1.68426e-15 0)
(2 -1.42865e-15 0)
(2 -1.00578e-15 0)
(2 -5.52853e-16 0)
(2 1.85386e-17 0)
(2 9.85101e-17 0)
(2 2.56999e-17 0)
(2 -4.604e-17 0)
(2 -5.72777e-17 0)
(2 -7.18362e-17 0)
(2 -6.62494e-17 0)
(2 4.24299e-17 0)
(2 1.49288e-16 0)
(2 1.56418e-16 0)
(2 2.01904e-16 0)
(2 2.61309e-16 0)
(2 3.7975e-16 0)
(2 3.99651e-16 0)
(2 6.07e-16 0)
(2 6.16788e-16 0)
(2 6.09798e-16 0)
(2 5.61445e-16 0)
(2 5.10198e-16 0)
(2 5.36422e-16 0)
(2 4.1556e-16 0)
(2 4.04312e-16 0)
(2 5.46428e-16 0)
(2 5.66874e-16 0)
(2 2.70362e-16 0)
(2 1.03528e-17 0)
(2 -1.40997e-16 0)
(2 1.67295e-16 0)
(2 7.95632e-16 0)
(2 1.09602e-15 0)
(2 1.96027e-15 0)
(2 2.55507e-15 0)
(2 2.42721e-15 0)
(2 2.12103e-15 0)
(2 1.38147e-15 0)
(2 8.58937e-16 0)
(2 1.43398e-17 0)
(2 -3.95153e-16 0)
(2 -8.50288e-16 0)
(2 -8.89773e-16 0)
(2 -9.64076e-16 0)
(2 -1.09294e-15 0)
(2 -9.99402e-16 0)
(2 -8.67635e-16 0)
(2 -5.75546e-16 0)
(2 -3.03518e-16 0)
(2 -5.39402e-16 0)
(2 -6.04963e-16 0)
(2 -8.20701e-16 0)
(2 -1.24221e-15 0)
(2 -1.43121e-15 0)
(2 -1.24031e-15 0)
(2 -1.15906e-15 0)
(2 -1.0292e-15 0)
(2 -1.23174e-15 0)
(2 -1.4043e-15 0)
(2 -9.94021e-18 0)
(2 3.55556e-17 0)
(2 5.91302e-17 0)
(2 -6.08208e-17 0)
(2 -9.29451e-17 0)
(2 -6.67006e-17 0)
(2 -1.35557e-16 0)
(2 4.86172e-17 0)
(2 1.49841e-16 0)
(2 1.46025e-16 0)
(2 1.35399e-16 0)
(2 1.84003e-16 0)
(2 3.769e-16 0)
(2 4.53201e-16 0)
(2 2.74076e-16 0)
(2 1.69023e-16 0)
(2 -2.61856e-17 0)
(2 -1.55743e-16 0)
(2 -2.48453e-16 0)
(2 -3.67902e-16 0)
(2 -4.25677e-16 0)
(2 -3.6485e-16 0)
(2 -4.12689e-16 0)
(2 -5.19957e-16 0)
(2 -4.04513e-16 0)
(2 -1.38346e-16 0)
(2 1.77171e-16 0)
(2 2.64783e-16 0)
(2 2.55994e-16 0)
(2 5.25953e-16 0)
(2 5.64881e-16 0)
(2 1.1325e-15 0)
(2 1.37441e-15 0)
(2 1.4996e-15 0)
(2 1.70963e-15 0)
(2 1.89974e-15 0)
(2 1.9782e-15 0)
(2 1.84248e-15 0)
(2 1.48805e-15 0)
(2 1.35682e-15 0)
(2 1.01114e-15 0)
(2 9.48929e-16 0)
(2 9.06685e-16 0)
(2 5.46191e-16 0)
(2 4.74725e-16 0)
(2 1.3609e-16 0)
(2 -1.46789e-16 0)
(2 -3.84268e-16 0)
(2 -5.44346e-16 0)
(2 -5.53461e-16 0)
(2 -3.68048e-16 0)
(2 -1.90146e-16 0)
(2 9.48668e-17 0)
(2 1.46044e-16 0)
(2 2.7474e-17 0)
(2 1.48101e-16 0)
(2 -8.04586e-17 0)
(2 2.35337e-16 0)
(2 5.1458e-16 0)
(2 8.96599e-16 0)
(2 1.02927e-15 0)
(2 1.08665e-15 0)
(2 9.37862e-16 0)
(2 1.01378e-15 0)
(2 1.06382e-15 0)
(2 1.22267e-15 0)
(2 1.31958e-15 0)
(2 1.34966e-15 0)
(2 8.02337e-16 0)
(2 5.39857e-16 0)
(2 3.241e-18 0)
(2 -2.49469e-16 0)
(2 -5.28163e-16 0)
(2 -5.084e-16 0)
(2 -5.00999e-16 0)
(2 1.40388e-16 0)
(2 5.14595e-16 0)
(2 4.436e-16 0)
(2 9.98079e-16 0)
(2 1.17498e-15 0)
(2 1.33441e-15 0)
(2 1.44482e-15 0)
(2 9.41941e-16 0)
(2 8.04083e-16 0)
(2 7.62374e-16 0)
(2 6.42911e-16 0)
(2 5.01512e-16 0)
(2 4.21786e-16 0)
(2 4.26414e-16 0)
(2 4.29335e-16 0)
(2 3.53917e-16 0)
(2 2.59298e-16 0)
(2 2.4734e-16 0)
(2 2.86201e-16 0)
(2 3.37076e-16 0)
(2 3.40012e-16 0)
(2 4.57441e-16 0)
(2 9.21644e-16 0)
(2 1.06572e-15 0)
(2 7.34003e-16 0)
(2 3.22004e-16 0)
(2 1.12667e-16 0)
(2 7.27568e-17 0)
(2 6.58889e-17 0)
(2 -1.98858e-16 0)
(2 -3.53297e-16 0)
(2 -2.41189e-16 0)
(2 5.8502e-17 0)
(2 -5.01793e-16 0)
(2 -6.95165e-16 0)
(2 -6.48461e-16 0)
(2 -1.90305e-16 0)
(2 2.46373e-16 0)
(2 3.68194e-16 0)
(2 2.84049e-16 0)
(2 8.47814e-17 0)
(2 -2.69178e-16 0)
(2 -4.01697e-16 0)
(2 -4.44389e-16 0)
(2 -3.72443e-16 0)
(2 1.34113e-16 0)
(2 2.45779e-16 0)
(2 1.34629e-16 0)
(2 3.37182e-16 0)
(2 4.23642e-18 0)
(2 -3.41403e-16 0)
(2 -5.90388e-16 0)
(2 -6.08961e-16 0)
(2 -4.27369e-16 0)
(2 -4.02515e-16 0)
(2 -6.42187e-16 0)
(2 -7.92746e-16 0)
(2 -7.43849e-18 0)
(2 -5.56128e-19 0)
(2 1.50952e-17 0)
(2 5.47282e-17 0)
(2 8.7162e-17 0)
(2 9.27965e-17 0)
(2 1.41235e-16 0)
(2 9.79425e-17 0)
(2 7.04545e-17 0)
(2 1.41459e-16 0)
(2 2.64281e-16 0)
(2 2.98977e-16 0)
(2 3.50312e-16 0)
(2 2.22533e-16 0)
(2 8.60979e-17 0)
(2 -3.62991e-17 0)
(2 -2.49981e-16 0)
(2 -5.65502e-16 0)
(2 -7.79738e-16 0)
(2 -8.14464e-16 0)
(2 -9.10687e-16 0)
(2 -8.38548e-16 0)
(2 -5.48211e-16 0)
(2 -4.97905e-16 0)
(2 -2.9848e-16 0)
(2 1.37486e-16 0)
(2 2.59939e-16 0)
(2 2.99476e-16 0)
(2 -6.43701e-17 0)
(2 -2.45162e-16 0)
(2 -2.37188e-16 0)
(2 -1.76407e-16 0)
(2 -1.16123e-16 0)
(2 4.28921e-17 0)
(2 1.22621e-16 0)
(2 1.39971e-16 0)
(2 5.99674e-16 0)
(2 9.0098e-16 0)
(2 9.33313e-16 0)
(2 6.75713e-16 0)
(2 3.80104e-16 0)
(2 2.07619e-16 0)
(2 -3.42901e-17 0)
(2 -8.12463e-17 0)
(2 3.48513e-17 0)
(2 6.70317e-17 0)
(2 2.73968e-16 0)
(2 7.62246e-16 0)
(2 7.68035e-16 0)
(2 7.01043e-16 0)
(2 5.3266e-16 0)
(2 5.48104e-16 0)
(2 8.99969e-16 0)
(2 1.03435e-15 0)
(2 9.00331e-16 0)
(2 1.25256e-15 0)
(2 1.48967e-15 0)
(2 1.39701e-15 0)
(2 2.15638e-15 0)
(2 2.51719e-15 0)
(2 3.09108e-15 0)
(2 3.20963e-15 0)
(2 3.24917e-15 0)
(2 3.16153e-15 0)
(2 3.20449e-15 0)
(2 2.69074e-15 0)
(2 2.15809e-15 0)
(2 1.89482e-15 0)
(2 1.23177e-15 0)
(2 1.01546e-15 0)
(2 1.52215e-15 0)
(2 1.95361e-15 0)
(2 1.93644e-15 0)
(2 2.03611e-15 0)
(2 1.22855e-15 0)
(2 7.68079e-16 0)
(2 1.04506e-15 0)
(2 1.41586e-15 0)
(2 1.70448e-15 0)
(2 1.35343e-15 0)
(2 1.13402e-15 0)
(2 1.11336e-15 0)
(2 1.19413e-15 0)
(2 8.58877e-16 0)
(2 2.98947e-16 0)
(2 1.94455e-16 0)
(2 6.46014e-17 0)
(2 -3.61571e-19 0)
(2 -7.53026e-17 0)
(2 -1.31402e-16 0)
(2 -7.55566e-17 0)
(2 2.64847e-16 0)
(2 2.54327e-16 0)
(2 4.81167e-16 0)
(2 5.12394e-16 0)
(2 2.66588e-16 0)
(2 9.00117e-16 0)
(2 1.27709e-15 0)
(2 1.56152e-15 0)
(2 1.91902e-15 0)
(2 2.06926e-15 0)
(2 1.92715e-15 0)
(2 1.67886e-15 0)
(2 1.23774e-15 0)
(2 1.14916e-15 0)
(2 1.07399e-15 0)
(2 1.15996e-15 0)
(2 1.21787e-15 0)
(2 1.35734e-15 0)
(2 1.58808e-15 0)
(2 1.78622e-15 0)
(2 1.9534e-15 0)
(2 2.1396e-15 0)
(2 2.29519e-15 0)
(2 1.98975e-15 0)
(2 1.57673e-15 0)
(2 1.37787e-15 0)
(2 1.33146e-15 0)
(2 1.07093e-15 0)
(2 1.08731e-15 0)
(2 1.27473e-15 0)
(2 1.15737e-15 0)
(2 9.71809e-16 0)
(2 7.47248e-16 0)
(2 5.6234e-16 0)
(2 6.66354e-16 0)
(2 8.2835e-16 0)
(2 7.40752e-16 0)
(2 6.84685e-16 0)
(2 5.7022e-16 0)
(2 4.59903e-16 0)
(2 4.16754e-16 0)
(2 -9.95525e-18 0)
(2 -9.78549e-19 0)
(2 4.82946e-17 0)
(2 1.43208e-16 0)
(2 1.14337e-16 0)
(2 3.47131e-18 0)
(2 -9.09966e-17 0)
(2 -2.27124e-16 0)
(2 -2.01401e-16 0)
(2 -8.4358e-17 0)
(2 -7.4755e-17 0)
(2 -1.70281e-16 0)
(2 -2.4629e-16 0)
(2 -2.91077e-16 0)
(2 1.41966e-17 0)
(2 9.22041e-17 0)
(2 1.14416e-16 0)
(2 9.39126e-17 0)
(2 1.14061e-16 0)
(2 3.23229e-16 0)
(2 5.21498e-16 0)
(2 6.46872e-16 0)
(2 7.2411e-16 0)
(2 7.28638e-16 0)
(2 5.28207e-16 0)
(2 3.06438e-16 0)
(2 1.046e-16 0)
(2 4.0013e-16 0)
(2 4.93703e-16 0)
(2 5.73692e-16 0)
(2 4.89901e-16 0)
(2 4.5086e-17 0)
(2 -1.88621e-18 0)
(2 -8.91366e-17 0)
(2 -2.24676e-16 0)
(2 -1.85539e-16 0)
(2 -1.02101e-16 0)
(2 3.42153e-17 0)
(2 3.03527e-16 0)
(2 -3.57008e-17 0)
(2 -1.02314e-16 0)
(2 -1.88696e-17 0)
(2 1.08784e-16 0)
(2 6.81466e-17 0)
(2 1.32642e-16 0)
(2 1.98716e-16 0)
(2 7.23101e-17 0)
(2 4.68998e-16 0)
(2 8.13417e-16 0)
(2 1.08711e-15 0)
(2 1.22688e-15 0)
(2 1.36373e-15 0)
(2 1.47531e-15 0)
(2 1.51945e-15 0)
(2 1.68355e-15 0)
(2 1.74976e-15 0)
(2 1.77899e-15 0)
(2 1.62899e-15 0)
(2 1.61306e-15 0)
(2 1.57793e-15 0)
(2 1.53117e-15 0)
(2 1.47919e-15 0)
(2 1.41117e-15 0)
(2 1.39627e-15 0)
(2 1.36399e-15 0)
(2 1.36022e-15 0)
(2 1.23392e-15 0)
(2 1.17218e-15 0)
(2 8.27709e-16 0)
(2 1.53629e-15 0)
(2 3.57281e-15 0)
(2 3.79969e-15 0)
(2 3.82871e-15 0)
(2 3.58031e-15 0)
(2 3.17305e-15 0)
(2 2.96295e-15 0)
(2 3.31851e-15 0)
(2 3.03865e-15 0)
(2 2.59529e-15 0)
(2 2.34381e-15 0)
(2 1.98739e-15 0)
(2 1.40288e-15 0)
(2 6.62025e-16 0)
(2 3.96437e-16 0)
(2 2.48995e-16 0)
(2 9.87059e-17 0)
(2 2.70214e-16 0)
(2 3.40945e-16 0)
(2 4.23469e-16 0)
(2 4.71076e-16 0)
(2 4.71025e-16 0)
(2 3.70203e-16 0)
(2 6.60084e-16 0)
(2 1.11228e-15 0)
(2 1.12221e-15 0)
(2 1.37138e-15 0)
(2 1.21509e-15 0)
(2 9.638e-16 0)
(2 1.10036e-15 0)
(2 1.42301e-15 0)
(2 1.73876e-15 0)
(2 2.44388e-15 0)
(2 2.59413e-15 0)
(2 2.82832e-15 0)
(2 3.71042e-15 0)
(2 3.92548e-15 0)
(2 3.84872e-15 0)
(2 3.75145e-15 0)
(2 3.72669e-15 0)
(2 3.10413e-15 0)
(2 2.78916e-15 0)
(2 2.54326e-15 0)
(2 2.36071e-15 0)
(2 2.27391e-15 0)
(2 2.1666e-15 0)
(2 2.13897e-15 0)
(2 2.00202e-15 0)
(2 1.96245e-15 0)
(2 1.97921e-15 0)
(2 1.82724e-15 0)
(2 1.73736e-15 0)
(2 1.78511e-15 0)
(2 1.76496e-15 0)
(2 1.65666e-15 0)
(2 1.63558e-15 0)
(2 1.80483e-15 0)
(2 2.47581e-15 0)
(2 2.51232e-15 0)
(2 2.38035e-15 0)
(2 2.23508e-15 0)
(2 2.30561e-15 0)
(2 2.28655e-15 0)
(2 3.36657e-17 0)
(2 1.29181e-17 0)
(2 -5.47836e-17 0)
(2 -6.23557e-17 0)
(2 -1.02227e-16 0)
(2 -1.18547e-16 0)
(2 -1.36749e-16 0)
(2 -5.00212e-17 0)
(2 3.09291e-17 0)
(2 4.21414e-17 0)
(2 2.3858e-17 0)
(2 -1.37406e-17 0)
(2 1.54265e-16 0)
(2 3.29913e-16 0)
(2 3.57394e-16 0)
(2 4.72118e-16 0)
(2 8.38501e-16 0)
(2 7.38648e-16 0)
(2 7.26443e-16 0)
(2 1.48796e-15 0)
(2 1.6134e-15 0)
(2 1.61526e-15 0)
(2 1.60483e-15 0)
(2 1.59794e-15 0)
(2 1.43471e-15 0)
(2 9.44425e-16 0)
(2 8.77991e-16 0)
(2 8.38484e-16 0)
(2 1.18326e-15 0)
(2 1.57387e-15 0)
(2 1.88489e-15 0)
(2 1.75664e-15 0)
(2 1.65047e-15 0)
(2 1.60478e-15 0)
(2 1.26919e-15 0)
(2 7.02002e-16 0)
(2 5.51528e-16 0)
(2 4.06844e-16 0)
(2 2.28343e-16 0)
(2 1.72166e-16 0)
(2 2.3859e-16 0)
(2 6.36201e-16 0)
(2 9.62486e-16 0)
(2 1.16164e-15 0)
(2 1.07905e-15 0)
(2 8.96393e-16 0)
(2 7.79847e-16 0)
(2 8.81891e-16 0)
(2 9.13672e-16 0)
(2 8.74733e-16 0)
(2 1.03712e-15 0)
(2 1.40292e-15 0)
(2 1.50002e-15 0)
(2 1.42046e-15 0)
(2 1.36546e-15 0)
(2 1.29915e-15 0)
(2 1.26925e-15 0)
(2 1.24583e-15 0)
(2 1.20193e-15 0)
(2 1.2091e-15 0)
(2 1.24076e-15 0)
(2 1.28038e-15 0)
(2 1.33968e-15 0)
(2 1.1378e-15 0)
(2 1.13761e-15 0)
(2 1.51065e-15 0)
(2 2.16336e-15 0)
(2 2.25967e-15 0)
(2 2.58675e-15 0)
(2 3.32278e-15 0)
(2 3.58205e-15 0)
(2 3.52172e-15 0)
(2 3.29115e-15 0)
(2 2.96711e-15 0)
(2 2.91694e-15 0)
(2 2.80598e-15 0)
(2 2.72693e-15 0)
(2 2.75998e-15 0)
(2 3.04445e-15 0)
(2 3.27216e-15 0)
(2 3.3431e-15 0)
(2 2.20373e-15 0)
(2 1.86215e-15 0)
(2 1.79982e-15 0)
(2 1.82758e-15 0)
(2 1.9675e-15 0)
(2 2.09254e-15 0)
(2 2.20044e-15 0)
(2 2.40913e-15 0)
(2 2.42453e-15 0)
(2 2.26985e-15 0)
(2 2.08106e-15 0)
(2 2.07481e-15 0)
(2 2.11072e-15 0)
(2 2.52208e-15 0)
(2 2.82359e-15 0)
(2 2.42374e-15 0)
(2 2.05209e-15 0)
(2 2.0004e-15 0)
(2 1.6643e-15 0)
(2 1.71194e-15 0)
(2 2.07607e-15 0)
(2 2.72964e-15 0)
(2 2.97998e-15 0)
(2 3.18769e-15 0)
(2 3.28012e-15 0)
(2 3.34179e-15 0)
(2 3.36637e-15 0)
(2 3.41075e-15 0)
(2 3.61625e-15 0)
(2 3.63783e-15 0)
(2 3.57332e-15 0)
(2 3.60714e-15 0)
(2 3.69448e-15 0)
(2 3.7233e-15 0)
(2 3.91544e-15 0)
(2 4.18779e-15 0)
(2 4.83956e-15 0)
(2 5.12934e-15 0)
(2 5.07733e-15 0)
(2 5.00107e-15 0)
(2 4.70327e-15 0)
(2 4.40085e-15 0)
(2 4.26222e-15 0)
(2 4.31147e-15 0)
(2 4.4007e-15 0)
(2 4.40374e-15 0)
(2 4.51841e-15 0)
(2 4.67496e-15 0)
(2 4.49975e-15 0)
(2 4.37938e-15 0)
(2 4.17988e-15 0)
(2 -1.56278e-18 0)
(2 -2.84057e-17 0)
(2 -5.36375e-17 0)
(2 -1.26933e-16 0)
(2 -1.17644e-16 0)
(2 6.3566e-17 0)
(2 1.11644e-16 0)
(2 3.58905e-16 0)
(2 4.6907e-16 0)
(2 5.68725e-16 0)
(2 6.83654e-16 0)
(2 9.62382e-16 0)
(2 1.08627e-15 0)
(2 1.03779e-15 0)
(2 9.67171e-16 0)
(2 9.64242e-16 0)
(2 9.91402e-16 0)
(2 1.07231e-15 0)
(2 1.13228e-15 0)
(2 1.15959e-15 0)
(2 1.18671e-15 0)
(2 1.28961e-15 0)
(2 1.33465e-15 0)
(2 1.40776e-15 0)
(2 1.47369e-15 0)
(2 1.61041e-15 0)
(2 1.57508e-15 0)
(2 1.5768e-15 0)
(2 1.66885e-15 0)
(2 1.7366e-15 0)
(2 1.86629e-15 0)
(2 2.07073e-15 0)
(2 2.10263e-15 0)
(2 2.02975e-15 0)
(2 2.28843e-15 0)
(2 2.28448e-15 0)
(2 2.33202e-15 0)
(2 1.96547e-15 0)
(2 1.56747e-15 0)
(2 1.22496e-15 0)
(2 1.05793e-15 0)
(2 1.05855e-15 0)
(2 1.01695e-15 0)
(2 9.60407e-16 0)
(2 1.07065e-15 0)
(2 1.17043e-15 0)
(2 1.16876e-15 0)
(2 9.9531e-16 0)
(2 3.71558e-16 0)
(2 1.1655e-16 0)
(2 -3.44188e-17 0)
(2 -1.98939e-16 0)
(2 -4.27847e-16 0)
(2 -4.77838e-16 0)
(2 -5.03078e-16 0)
(2 -4.50347e-16 0)
(2 -3.91368e-16 0)
(2 7.6178e-17 0)
(2 2.21613e-16 0)
(2 2.78145e-16 0)
(2 8.389e-16 0)
(2 1.51085e-15 0)
(2 1.57027e-15 0)
(2 1.67737e-15 0)
(2 1.80801e-15 0)
(2 1.94637e-15 0)
(2 2.5691e-15 0)
(2 2.5744e-15 0)
(2 2.60865e-15 0)
(2 2.66098e-15 0)
(2 2.7238e-15 0)
(2 2.72679e-15 0)
(2 2.5758e-15 0)
(2 2.46948e-15 0)
(2 2.15117e-15 0)
(2 1.7839e-15 0)
(2 1.51841e-15 0)
(2 1.25027e-15 0)
(2 1.11061e-15 0)
(2 1.10011e-15 0)
(2 1.29555e-15 0)
(2 1.5731e-15 0)
(2 1.57391e-15 0)
(2 1.43166e-15 0)
(2 1.5125e-15 0)
(2 1.59621e-15 0)
(2 1.76245e-15 0)
(2 2.10997e-15 0)
(2 2.44843e-15 0)
(2 2.4755e-15 0)
(2 2.33714e-15 0)
(2 2.21251e-15 0)
(2 2.25771e-15 0)
(2 2.1015e-15 0)
(2 1.73799e-15 0)
(2 1.75421e-15 0)
(2 3.07957e-15 0)
(2 4.04981e-15 0)
(2 3.8167e-15 0)
(2 3.3717e-15 0)
(2 2.55332e-15 0)
(2 2.03654e-15 0)
(2 1.82698e-15 0)
(2 1.32463e-15 0)
(2 6.29403e-16 0)
(2 5.07255e-16 0)
(2 1.07606e-15 0)
(2 1.57687e-15 0)
(2 1.93358e-15 0)
(2 2.00692e-15 0)
(2 1.91117e-15 0)
(2 1.82702e-15 0)
(2 1.43644e-15 0)
(2 1.24289e-15 0)
(2 1.33787e-15 0)
(2 1.35918e-15 0)
(2 1.61539e-15 0)
(2 1.74972e-15 0)
(2 1.82475e-15 0)
(2 2.13631e-15 0)
(2 2.31489e-15 0)
(2 2.40535e-15 0)
(2 2.35023e-15 0)
(2 2.40773e-15 0)
(2 2.44332e-15 0)
(2 2.36661e-15 0)
(2 2.17845e-15 0)
(2 1.9296e-15 0)
(2 2.0641e-15 0)
(2 1.81721e-15 0)
(2 1.18909e-15 0)
(2 2.10135e-15 0)
(2 -1.87132e-17 0)
(2 1.43717e-17 0)
(2 1.88977e-17 0)
(2 7.74966e-17 0)
(2 1.09398e-16 0)
(2 -6.70676e-18 0)
(2 -8.49088e-17 0)
(2 -1.79703e-16 0)
(2 -2.30229e-16 0)
(2 -2.61888e-16 0)
(2 -2.61138e-16 0)
(2 -6.97748e-17 0)
(2 -4.48564e-17 0)
(2 -3.36312e-17 0)
(2 3.61972e-18 0)
(2 3.59497e-17 0)
(2 1.29604e-16 0)
(2 1.71685e-16 0)
(2 1.58626e-16 0)
(2 1.32694e-16 0)
(2 1.78602e-16 0)
(2 1.91681e-16 0)
(2 1.75144e-16 0)
(2 1.83469e-16 0)
(2 1.85318e-16 0)
(2 2.25436e-16 0)
(2 2.46177e-16 0)
(2 2.89112e-16 0)
(2 3.47035e-16 0)
(2 4.28253e-16 0)
(2 4.74296e-16 0)
(2 7.78465e-16 0)
(2 9.72041e-16 0)
(2 1.19424e-15 0)
(2 1.47774e-15 0)
(2 1.65107e-15 0)
(2 1.71729e-15 0)
(2 1.74356e-15 0)
(2 1.71863e-15 0)
(2 2.16599e-15 0)
(2 1.34904e-15 0)
(2 1.04714e-15 0)
(2 6.38043e-16 0)
(2 2.23142e-16 0)
(2 1.43196e-16 0)
(2 1.22882e-16 0)
(2 9.07108e-17 0)
(2 6.17187e-17 0)
(2 -7.66786e-17 0)
(2 -2.6858e-16 0)
(2 -5.47417e-16 0)
(2 -1.0484e-15 0)
(2 -1.32259e-15 0)
(2 -1.38811e-15 0)
(2 -1.55486e-15 0)
(2 -1.56489e-15 0)
(2 -1.67578e-15 0)
(2 -1.84636e-15 0)
(2 -1.93539e-15 0)
(2 -1.70427e-15 0)
(2 -9.11746e-16 0)
(2 -4.52803e-16 0)
(2 -4.10454e-16 0)
(2 2.89597e-16 0)
(2 9.45778e-16 0)
(2 1.02032e-15 0)
(2 9.69776e-16 0)
(2 8.87825e-16 0)
(2 8.27036e-16 0)
(2 6.04898e-16 0)
(2 4.50395e-16 0)
(2 5.03642e-16 0)
(2 7.64505e-16 0)
(2 1.01623e-15 0)
(2 1.22412e-15 0)
(2 1.3191e-15 0)
(2 1.27746e-15 0)
(2 1.03855e-15 0)
(2 2.91928e-16 0)
(2 -2.7692e-17 0)
(2 -2.587e-16 0)
(2 4.20826e-17 0)
(2 1.55143e-15 0)
(2 2.0298e-15 0)
(2 2.25677e-15 0)
(2 2.03666e-15 0)
(2 1.81317e-15 0)
(2 1.38631e-15 0)
(2 1.12931e-15 0)
(2 1.09142e-15 0)
(2 1.03501e-15 0)
(2 1.25428e-15 0)
(2 1.47094e-15 0)
(2 1.61992e-15 0)
(2 1.56573e-15 0)
(2 1.6038e-15 0)
(2 1.80206e-15 0)
(2 1.85402e-15 0)
(2 1.72494e-15 0)
(2 2.19891e-15 0)
(2 2.21314e-15 0)
(2 2.06139e-15 0)
(2 1.985e-15 0)
(2 1.55497e-15 0)
(2 1.32126e-15 0)
(2 1.11589e-15 0)
(2 8.96711e-16 0)
(2 8.08647e-16 0)
(2 5.65292e-16 0)
(2 2.66414e-16 0)
(2 2.05783e-16 0)
(2 1.93749e-16 0)
(2 7.21337e-17 0)
(2 5.01664e-16 0)
(2 5.377e-16 0)
(2 5.29658e-16 0)
(2 4.5767e-16 0)
(2 3.12432e-16 0)
(2 1.80662e-16 0)
(2 1.7529e-16 0)
(2 2.21676e-16 0)
(2 4.64011e-16 0)
(2 1.11544e-15 0)
(2 1.63013e-15 0)
(2 1.59276e-15 0)
(2 1.43286e-15 0)
(2 1.96648e-15 0)
(2 2.2267e-15 0)
(2 2.2754e-15 0)
(2 2.26299e-15 0)
(2 2.31485e-15 0)
(2 2.37692e-15 0)
(2 1.54686e-17 0)
(2 -1.20264e-17 0)
(2 -5.30782e-17 0)
(2 -2.0618e-17 0)
(2 1.37171e-18 0)
(2 -7.04438e-17 0)
(2 -1.43185e-16 0)
(2 -3.88307e-16 0)
(2 -5.14752e-16 0)
(2 -6.10543e-16 0)
(2 -5.92978e-16 0)
(2 -4.61104e-16 0)
(2 -1.79036e-16 0)
(2 -2.56224e-16 0)
(2 2.78346e-16 0)
(2 3.79359e-16 0)
(2 5.47913e-16 0)
(2 5.92595e-16 0)
(2 4.53437e-16 0)
(2 3.76267e-16 0)
(2 4.26098e-16 0)
(2 4.29118e-16 0)
(2 5.02613e-16 0)
(2 5.03212e-16 0)
(2 4.30031e-16 0)
(2 3.24711e-16 0)
(2 3.18354e-16 0)
(2 2.90849e-16 0)
(2 2.15129e-16 0)
(2 9.66888e-17 0)
(2 2.75177e-17 0)
(2 2.52008e-17 0)
(2 1.08284e-16 0)
(2 1.99297e-16 0)
(2 4.1007e-16 0)
(2 4.48551e-16 0)
(2 4.55538e-16 0)
(2 5.18687e-16 0)
(2 5.64017e-16 0)
(2 9.82451e-16 0)
(2 1.06776e-15 0)
(2 8.25926e-16 0)
(2 7.15378e-16 0)
(2 4.83942e-16 0)
(2 2.83468e-16 0)
(2 1.84189e-16 0)
(2 8.93532e-17 0)
(2 1.05762e-16 0)
(2 2.02689e-16 0)
(2 2.68631e-16 0)
(2 1.94109e-16 0)
(2 1.99837e-16 0)
(2 3.59857e-16 0)
(2 5.17493e-16 0)
(2 2.79471e-16 0)
(2 2.03331e-16 0)
(2 1.7544e-17 0)
(2 -6.06362e-16 0)
(2 -8.89775e-16 0)
(2 -9.06875e-16 0)
(2 -8.03917e-16 0)
(2 -6.97333e-16 0)
(2 -7.36785e-16 0)
(2 -7.97177e-16 0)
(2 -8.36121e-16 0)
(2 -5.83982e-16 0)
(2 -4.94621e-16 0)
(2 -4.96999e-16 0)
(2 -6.66615e-16 0)
(2 -5.17194e-16 0)
(2 -2.51433e-16 0)
(2 -2.79914e-16 0)
(2 -4.81877e-16 0)
(2 -3.01825e-16 0)
(2 2.99093e-16 0)
(2 4.38466e-16 0)
(2 4.65909e-16 0)
(2 5.77714e-16 0)
(2 7.41296e-16 0)
(2 7.68679e-16 0)
(2 1.06378e-15 0)
(2 1.65373e-15 0)
(2 1.54944e-15 0)
(2 1.60318e-15 0)
(2 1.39005e-15 0)
(2 1.16835e-15 0)
(2 1.15252e-15 0)
(2 1.27585e-15 0)
(2 1.1425e-15 0)
(2 1.02537e-15 0)
(2 1.11872e-15 0)
(2 1.17606e-15 0)
(2 1.32298e-15 0)
(2 1.36695e-15 0)
(2 1.08083e-15 0)
(2 8.53956e-16 0)
(2 4.69061e-16 0)
(2 -6.36378e-17 0)
(2 -4.08646e-16 0)
(2 6.35679e-16 0)
(2 1.56871e-15 0)
(2 2.25636e-15 0)
(2 2.38871e-15 0)
(2 2.38495e-15 0)
(2 2.44709e-15 0)
(2 2.49427e-15 0)
(2 2.38303e-15 0)
(2 2.12898e-15 0)
(2 2.00852e-15 0)
(2 1.23579e-15 0)
(2 7.66722e-16 0)
(2 8.10975e-16 0)
(2 8.93433e-16 0)
(2 7.76915e-16 0)
(2 7.33153e-16 0)
(2 5.75608e-16 0)
(2 8.12872e-16 0)
(2 8.98576e-16 0)
(2 8.62504e-16 0)
(2 8.18177e-16 0)
(2 4.46713e-16 0)
(2 2.26846e-16 0)
(2 2.87379e-16 0)
(2 3.57397e-16 0)
(2 7.33656e-16 0)
(2 1.2924e-15 0)
(2 1.45301e-15 0)
(2 1.86941e-15 0)
(2 2.512e-15 0)
(2 2.84539e-15 0)
(2 3.15638e-15 0)
(2 3.35274e-15 0)
(2 -2.08188e-17 0)
(2 8.60393e-18 0)
(2 9.60101e-17 0)
(2 1.24979e-16 0)
(2 1.21685e-16 0)
(2 2.25466e-16 0)
(2 3.24756e-16 0)
(2 3.77493e-16 0)
(2 4.78656e-16 0)
(2 5.25791e-16 0)
(2 5.4329e-16 0)
(2 5.51365e-16 0)
(2 5.32098e-16 0)
(2 4.78834e-16 0)
(2 4.96556e-16 0)
(2 5.11436e-16 0)
(2 4.35878e-16 0)
(2 4.02409e-16 0)
(2 4.35981e-17 0)
(2 -1.06836e-16 0)
(2 -3.87216e-16 0)
(2 -5.75808e-16 0)
(2 -6.15338e-16 0)
(2 -5.38418e-16 0)
(2 -4.49716e-16 0)
(2 -3.93665e-16 0)
(2 -3.7163e-16 0)
(2 -3.80192e-16 0)
(2 -4.1957e-16 0)
(2 -4.47165e-16 0)
(2 -4.49058e-16 0)
(2 -4.88577e-16 0)
(2 -5.46688e-16 0)
(2 -5.60765e-16 0)
(2 -4.97133e-16 0)
(2 -3.15242e-16 0)
(2 -1.78434e-16 0)
(2 9.19863e-17 0)
(2 4.81507e-16 0)
(2 9.49506e-16 0)
(2 1.56237e-15 0)
(2 2.13131e-15 0)
(2 2.46598e-15 0)
(2 2.42746e-15 0)
(2 2.36834e-15 0)
(2 2.39817e-15 0)
(2 2.0995e-15 0)
(2 1.53592e-15 0)
(2 1.25763e-15 0)
(2 1.07052e-15 0)
(2 8.40924e-16 0)
(2 9.59117e-16 0)
(2 9.44412e-16 0)
(2 8.61515e-16 0)
(2 5.46212e-16 0)
(2 3.76415e-16 0)
(2 9.52908e-17 0)
(2 -9.03881e-17 0)
(2 -3.96051e-16 0)
(2 -5.26725e-16 0)
(2 -7.3299e-16 0)
(2 -8.90475e-16 0)
(2 -1.1213e-15 0)
(2 -1.02266e-15 0)
(2 -8.94194e-16 0)
(2 -1.09412e-15 0)
(2 -1.34977e-15 0)
(2 -1.42438e-15 0)
(2 -1.40186e-15 0)
(2 -1.04648e-15 0)
(2 -7.8227e-16 0)
(2 -8.01669e-16 0)
(2 -9.24716e-16 0)
(2 -6.26168e-16 0)
(2 -4.03547e-16 0)
(2 -1.20304e-16 0)
(2 4.34222e-16 0)
(2 1.05751e-15 0)
(2 1.84876e-15 0)
(2 1.8778e-15 0)
(2 2.15322e-15 0)
(2 2.40196e-15 0)
(2 1.68333e-15 0)
(2 1.26135e-15 0)
(2 1.06858e-15 0)
(2 7.76322e-16 0)
(2 8.88576e-16 0)
(2 1.64257e-15 0)
(2 2.43783e-15 0)
(2 2.64805e-15 0)
(2 3.00074e-15 0)
(2 2.98064e-15 0)
(2 2.50592e-15 0)
(2 1.56185e-15 0)
(2 6.44507e-16 0)
(2 3.61222e-16 0)
(2 3.05992e-16 0)
(2 2.88576e-16 0)
(2 5.01694e-16 0)
(2 8.66116e-16 0)
(2 1.1425e-15 0)
(2 1.19113e-15 0)
(2 1.61918e-15 0)
(2 1.67523e-15 0)
(2 1.4964e-15 0)
(2 1.40521e-15 0)
(2 1.8232e-15 0)
(2 2.24172e-15 0)
(2 2.02018e-15 0)
(2 1.87521e-15 0)
(2 1.80101e-15 0)
(2 2.13088e-15 0)
(2 2.26979e-15 0)
(2 2.21643e-15 0)
(2 2.16293e-15 0)
(2 1.61046e-15 0)
(2 9.7896e-16 0)
(2 6.10101e-16 0)
(2 4.99885e-16 0)
(2 7.95449e-16 0)
(2 9.87661e-16 0)
(2 1.24891e-15 0)
(2 1.44174e-15 0)
(2 1.68577e-15 0)
(2 1.83835e-15 0)
(2 1.93808e-15 0)
(2 1.87982e-15 0)
(2 1.82747e-15 0)
(2 1.80615e-15 0)
(2 1.77418e-15 0)
(2 1.96443e-15 0)
(2 2.05352e-15 0)
(2 -4.59268e-18 0)
(2 -1.71521e-18 0)
(2 2.90542e-17 0)
(2 4.83814e-17 0)
(2 7.89962e-17 0)
(2 5.49809e-17 0)
(2 1.6017e-16 0)
(2 4.69264e-16 0)
(2 8.21116e-16 0)
(2 9.96945e-16 0)
(2 9.8302e-16 0)
(2 7.55838e-16 0)
(2 4.25476e-16 0)
(2 7.43332e-18 0)
(2 -5.47891e-16 0)
(2 -7.44571e-16 0)
(2 -9.54751e-16 0)
(2 -1.00492e-15 0)
(2 -1.01972e-15 0)
(2 -1.15669e-15 0)
(2 -1.33674e-15 0)
(2 -1.46898e-15 0)
(2 -1.72985e-15 0)
(2 -1.68603e-15 0)
(2 -1.55068e-15 0)
(2 -1.7687e-15 0)
(2 -1.92715e-15 0)
(2 -1.85499e-15 0)
(2 -1.72182e-15 0)
(2 -1.5782e-15 0)
(2 -1.34976e-15 0)
(2 -1.27826e-15 0)
(2 -1.2876e-15 0)
(2 -1.2312e-15 0)
(2 -1.02049e-15 0)
(2 -8.28612e-16 0)
(2 -5.95386e-16 0)
(2 -2.19751e-16 0)
(2 -1.06028e-16 0)
(2 -4.30592e-17 0)
(2 -3.14568e-17 0)
(2 4.4611e-17 0)
(2 2.08131e-16 0)
(2 4.35846e-16 0)
(2 4.72008e-16 0)
(2 4.42903e-16 0)
(2 3.95315e-16 0)
(2 3.65729e-16 0)
(2 1.74415e-16 0)
(2 -4.39347e-17 0)
(2 -1.06486e-16 0)
(2 -3.02984e-16 0)
(2 -5.11736e-16 0)
(2 -5.73814e-16 0)
(2 -5.29655e-16 0)
(2 -6.32152e-16 0)
(2 -6.47666e-16 0)
(2 -6.501e-16 0)
(2 -7.80786e-16 0)
(2 -9.82772e-16 0)
(2 -1.09008e-15 0)
(2 -1.13776e-15 0)
(2 -1.00866e-15 0)
(2 -6.74288e-16 0)
(2 -6.46443e-16 0)
(2 -7.59612e-16 0)
(2 -8.90888e-16 0)
(2 -7.15062e-16 0)
(2 -4.25582e-16 0)
(2 -3.29098e-16 0)
(2 -5.09116e-16 0)
(2 -7.11237e-16 0)
(2 -6.15271e-16 0)
(2 -5.27774e-16 0)
(2 -5.96181e-16 0)
(2 -3.21978e-16 0)
(2 2.62265e-16 0)
(2 7.52558e-16 0)
(2 8.78745e-16 0)
(2 8.86756e-16 0)
(2 6.6841e-16 0)
(2 6.86212e-16 0)
(2 1.00702e-15 0)
(2 1.26854e-15 0)
(2 1.34271e-15 0)
(2 1.2904e-15 0)
(2 1.08245e-15 0)
(2 8.12613e-16 0)
(2 4.84626e-16 0)
(2 3.11e-16 0)
(2 1.91727e-16 0)
(2 4.37023e-17 0)
(2 -5.66715e-17 0)
(2 -8.25861e-17 0)
(2 -8.68261e-18 0)
(2 5.47983e-17 0)
(2 -3.33529e-17 0)
(2 -3.32056e-17 0)
(2 -1.60553e-17 0)
(2 -4.18417e-16 0)
(2 -7.75479e-16 0)
(2 -8.66593e-16 0)
(2 -7.53498e-16 0)
(2 -4.35347e-16 0)
(2 -4.01031e-16 0)
(2 -6.48495e-16 0)
(2 -6.03532e-16 0)
(2 -7.93368e-17 0)
(2 2.39809e-16 0)
(2 1.95241e-16 0)
(2 1.4367e-16 0)
(2 3.9255e-16 0)
(2 5.30347e-16 0)
(2 5.25152e-16 0)
(2 1.1062e-15 0)
(2 1.41724e-15 0)
(2 1.16983e-15 0)
(2 8.68466e-16 0)
(2 6.40273e-16 0)
(2 5.32074e-16 0)
(2 7.05223e-16 0)
(2 9.25504e-16 0)
(2 1.44469e-15 0)
(2 1.76551e-15 0)
(2 2.13858e-15 0)
(2 2.58179e-15 0)
(2 2.5116e-15 0)
(2 2.19208e-15 0)
(2 2.01398e-15 0)
(2 1.4982e-15 0)
(2 1.21288e-15 0)
(2 6.65947e-16 0)
(2 1.52933e-17 0)
(2 -6.0146e-19 0)
(2 -9.29292e-17 0)
(2 -1.04406e-16 0)
(2 -2.94277e-16 0)
(2 -3.45743e-16 0)
(2 -3.46726e-16 0)
(2 -2.97453e-16 0)
(2 -2.21816e-16 0)
(2 -6.71472e-16 0)
(2 -6.35936e-16 0)
(2 -6.01548e-16 0)
(2 -5.0704e-16 0)
(2 -4.7269e-16 0)
(2 -2.76791e-16 0)
(2 -2.32094e-16 0)
(2 -2.08077e-16 0)
(2 -3.57744e-16 0)
(2 -4.19368e-16 0)
(2 -3.13971e-16 0)
(2 -2.25274e-16 0)
(2 -3.91733e-16 0)
(2 -7.54634e-16 0)
(2 -9.21658e-16 0)
(2 -9.30291e-16 0)
(2 -8.7159e-16 0)
(2 -7.9228e-16 0)
(2 -6.84276e-16 0)
(2 -6.20878e-16 0)
(2 -1.20525e-15 0)
(2 -1.82808e-15 0)
(2 -2.02406e-15 0)
(2 -2.06934e-15 0)
(2 -2.00157e-15 0)
(2 -1.68382e-15 0)
(2 -1.44731e-15 0)
(2 -1.30549e-15 0)
(2 -1.28346e-15 0)
(2 -1.40834e-15 0)
(2 -1.56548e-15 0)
(2 -1.94434e-15 0)
(2 -2.24754e-15 0)
(2 -2.48287e-15 0)
(2 -2.33975e-15 0)
(2 -2.16393e-15 0)
(2 -2.20629e-15 0)
(2 -1.99314e-15 0)
(2 -1.78027e-15 0)
(2 -1.4589e-15 0)
(2 -1.19848e-15 0)
(2 -1.18455e-15 0)
(2 -1.35417e-15 0)
(2 -1.5894e-15 0)
(2 -1.53907e-15 0)
(2 -1.51371e-15 0)
(2 -1.29938e-15 0)
(2 -1.28679e-15 0)
(2 -1.14641e-15 0)
(2 -8.56209e-16 0)
(2 -6.61124e-16 0)
(2 -5.48471e-16 0)
(2 -6.21801e-16 0)
(2 -1.14735e-15 0)
(2 -1.56872e-15 0)
(2 -1.57383e-15 0)
(2 -1.39069e-15 0)
(2 -9.5582e-16 0)
(2 -1.61432e-16 0)
(2 -1.51753e-16 0)
(2 -8.09908e-17 0)
(2 2.1478e-16 0)
(2 4.81627e-16 0)
(2 9.09923e-16 0)
(2 1.06011e-15 0)
(2 1.0639e-15 0)
(2 1.00814e-15 0)
(2 9.45554e-16 0)
(2 1.00522e-15 0)
(2 1.11489e-15 0)
(2 1.13224e-15 0)
(2 9.31553e-16 0)
(2 6.3144e-16 0)