/*--------------------------------*- C++ -*----------------------------------*\
  =========                 |
  \\      /  F ield         | OpenFOAM: The Open Source CFD Toolbox
   \\    /   O peration     | Website:  https://openfoam.org
    \\  /    A nd           | Version:  7
     \\/     M anipulation  |
\*---------------------------------------------------------------------------*/
FoamFile
{
    version     2.0;
    format      ascii;
    class       volScalarField;
    location    "0.737";
    object      T;
}
// * * * * * * * * * * * * * * * * * * * * * * * * * * * * * * * * * * * * * //

dimensions      [0 2 -2 0 0 0 0];

internalField   nonuniform List<scalar> 
12359
(
-3.94203e-76
-2.89247e-62
-4.65971e-209
1.1295e-40
6.2081e-71
-7.17094e-28
6.31816e-23
-6.35038e-26
-2.96047e-18
3.19059e-31
7.57877e-21
1.76409e-13
0.250492
-2.92473e-38
1.2529e-43
7.42951e-06
0.00224482
-6.153e-114
-2.98712e-118
1.96325e-51
-7.38167e-36
8.28906e-16
-2.65826e-57
-3.36418e-49
2.4031e-59
-3.94455e-54
-7.41434e-151
1.38978e-154
-2.61375e-122
1.0155e-142
-1.19284e-136
3.82319e-169
2.4956e-186
-5.06571e-145
3.00911e-198
9.65939e-134
-3.98885e-92
-5.33381e-79
-2.94314e-73
4.65633e-85
-7.87184e-65
-2.13769e-82
-8.95591e-100
8.67985e-103
3.82073e-129
2.34356e-125
-5.07793e-131
9.50269e-140
1.39312e-119
8.24738e-148
9.53788e-157
2.12321e-162
1.52042e-171
5.21771e-111
5.16582e-177
2.27737e-183
1.16825e-107
-8.46041e-189
1.25398e-191
-8.74808e-195
-3.76375e-180
-1.51373e-203
-1.93086e-159
9.66626
-2.10365e-108
4.63966e-33
-5.36512e-96
-1.72706e-165
1.79452e-89
-1.53695e-08
120.007
1.86724e-67
-5.72918e-213
-3.9675e-87
-7.78304e-46
5.33687e-201
-5.24832e-174
3.74216e-206
1.96931e-97
-9.1392e-11
-2.33245e-27
-6.09715e-124
-1.87941e-266
-2.35018e-77
0.00158048
9.91149e-76
-7.79302e-122
1.91288e-172
0.894402
0.000499809
6.25264e-231
3.16116
2.06183e-232
-2.82751e-101
-2.6496e-81
2.19449e-53
-3.15347e-107
-7.85706e-102
5.56485e-51
-3.73569e-64
6.70193e-23
-1.15207e-225
2.11986e-76
28.4602
-4.57532e-132
1.38471e-28
7.60297e-227
0.00206125
1.01489e-84
9.70445e-30
3.35838e-109
-1.13585e-123
-8.99236e-32
1.33118e-26
-6.17431e-82
-7.36035e-156
1.14334e-25
-4.38406e-123
3.11287
-1.44674e-263
-4.56662e-110
2.51955e-23
5.49333e-171
1.2892e-37
-3.23121e-122
8.25108e-146
1.0712e-16
-1.24881e-76
2.47466e-209
-2.54208e-123
1.98692e-154
1.78779e-06
8.23134e-05
4.81395e-05
-1.08913e-228
5.43605e-38
5.79451e-154
2.01625e-39
-7.33199e-221
1.33256e-17
-3.81718e-255
2.78863e-75
2.09549e-38
-5.87763e-227
3.93815e-18
1.2272e-28
-3.54349e-266
0.000641294
-1.36882e-131
5.91217e-27
3.53153e-51
-1.96256e-222
1.17735e-37
3.52169e-169
4.82073e-238
118.768
1.10789e-23
1.48482e-06
-1.32904e-107
-6.09385e-172
1.58483e-34
-2.34882e-170
1.44266e-37
7.13366e-38
-4.1692e-253
4.94615e-148
3.03081e-35
3.24327e-24
1.53308e-39
0.80765
-4.06151e-205
2.02518e-202
7.60019e-41
1.00045e-60
-9.37838e-134
5.43043e-18
8.37721e-126
2.17756e-127
-1.39364e-31
5.88644e-19
-1.36376e-38
-4.02472e-236
-1.69951e-207
-6.15441e-123
2.57225e-52
3.38526e-16
-8.09802e-103
-3.64689e-85
4.40658e-50
-5.10471e-102
-1.02532e-83
8.7397e-55
3.6269e-56
6.75621e-168
3.22786e-29
38.2876
5.98319e-63
-4.67645e-102
1.11822e-37
-5.85475e-122
2.70055e-27
1.26705e-50
-8.15509e-65
6.24384e-30
2.86885e-21
-3.47939e-236
3.53331e-20
-2.70138e-63
1.59323e-32
-4.31914e-111
1.99596e-247
1.28351e-15
2.81752e-15
153.006
1.01829e-15
-4.06611e-218
-1.76367e-102
-3.18874e-83
-7.73954e-102
1.69028e-73
6.75693e-27
-1.53841e-112
1.32083e-38
3.45238
-2.16838e-123
5.46065e-247
3.45864e-72
2.87968e-86
1.95828e-19
-2.16483e-99
-1.54128e-98
-2.64411e-254
2.02312e-18
-5.97533e-59
-1.20372e-85
-3.59305e-60
1.29585e-261
1.67703e-35
-2.72288e-84
8.32395e-05
-1.32348e-243
1.81916e-72
-9.11504e-93
3.68324e-10
1.35584e-32
0.000950406
3.54583e-193
1.6947e-33
1.45692e-139
2.45043e-56
1.53907e-21
2.32943e-82
1.60769e-130
-1.22153e-98
1.25568
124.29
3.17742e-261
2.42745e-116
1.45389
179.962
-3.30716e-63
5.20953e-33
2.2923e-21
7.39907e-30
2.74986e-62
56.8674
3.12455
4.8387e-31
5.95685e-118
5.24546e-38
4.98856e-40
5.03877e-52
1.13061e-38
-2.07359e-100
-2.04442e-114
-3.29662e-245
-5.12279e-116
8.78109
8.00014e-31
4.77036e-210
-2.34615e-223
1.1323e-29
7.0555e-117
-3.90116e-97
6.28972e-74
-7.69351e-258
1.68397e-21
-9.38191e-224
1.20201e-224
-3.44172e-170
1.53416e-38
-8.83258e-126
50.7978
1.16852e-228
-3.07792e-227
2.82916e-75
-4.57743e-140
8.61817e-28
-3.08642e-86
7.32624e-160
1.62951e-230
7.86004
1.80148e-20
9.44814e-232
-1.79145e-101
-1.13348e-87
-1.73306e-138
7.94673e-154
-7.34416e-156
-1.79816e-135
-5.57764e-118
-3.55206e-16
1.29404e-139
2.13552e-137
1.31853e-80
7.18346e-35
1.45074
3.49494e-136
-3.55868e-54
3.34071e-06
5.16759e-224
2.61786e-46
-1.09282e-208
5.81676e-62
-4.11806e-225
9.60344e-135
1.97769e-16
8.39915e-43
8.12917e-17
-7.41727e-98
-4.8049e-93
2.15254e-56
2.00372e-52
-6.69986e-92
7.70855e-57
8.84339e-57
4.91946e-191
-4.62814e-180
-3.71384e-180
1.16856e-178
-5.57501e-179
0.000347622
1.52349e-256
1.00168e-25
1.04385e-39
1.04108e-54
1.7433e-36
4.41477e-42
1.15213e-75
2.69029e-64
2.43212e-42
1.93153e-65
-9.22466e-55
5.6147e-32
3.35543e-31
3.80221e-31
5.24207e-74
6.7236e-15
2.0025e-76
3.06169e-76
4.76756e-38
2.12068e-20
-8.43948e-126
-9.3936e-176
1.62254e-62
-2.12229e-177
1.20642e-124
169.524
17.6175
4.67784e-124
-7.41326e-219
-4.22596e-230
-4.64618e-240
4.26182e-43
2.11861e-236
-2.87119e-237
1.14229
4.54442e-38
0.000378514
1.92824e-126
2.71818e-32
1.52785e-118
-1.85979e-91
4.02241e-28
2.28677e-63
-3.21805e-40
7.80426e-65
1.88349e-126
1.55983e-209
1.07078e-38
2.46041e-32
1.91125e-125
4.79881e-12
1.81944e-28
2.29036e-53
9.66232e-44
1.22815e-36
1.18e-217
10.2539
4.53249e-14
4.11104e-125
1.16098e-10
1.22016e-77
-4.27377e-253
2.60632e-253
-1.36921e-242
0.000721661
2.54869e-21
-2.6409e-53
1.80184e-47
7.02685e-52
-9.12857e-80
-1.32305e-38
3.00117e-45
2.32789e-11
1.44738
-8.74198e-12
1.89867e-54
3.52515e-32
3.74792e-83
4.65783e-29
-3.9289e-69
4.90978e-61
-1.01486e-145
-1.69945e-70
1.30355e-40
3.13668e-235
169.355
2.08872e-94
0.474224
1.08663e-33
-4.2062e-105
5.37249e-30
0.96953
2.97055e-40
-5.93637e-63
8.66183e-54
1.66238e-32
3.1483e-28
-3.00839e-119
-3.45104e-247
1.89866e-24
-1.19708e-223
7.20416e-07
5.20657e-153
-7.60227e-56
1.23767e-35
-1.315e-100
0.00847074
6.49924e-25
-8.12964e-67
-8.24193e-119
2.91385e-05
1.69304e-196
2.2553e-130
2.60604e-15
-1.27753e-217
-4.43278e-119
3.80247e-131
9.30563e-08
18.6351
-8.29223e-79
1.50594e-177
-2.34797e-33
1.51199e-37
1.07639e-46
4.80627e-36
2.00603e-39
9.94414e-190
-1.27472e-241
1.25151e-41
-2.92019e-228
9.70649e-37
4.12077e-47
1.26754e-29
4.48822e-129
1.34241e-25
7.6315e-14
6.52358e-145
-1.30141e-80
8.34154e-124
-1.2398e-29
4.47275e-15
-3.46148e-220
3.58103e-40
2.17134e-41
1.14688e-85
7.85127e-39
4.69307e-152
1.39964e-21
5.4472e-67
4.79549e-36
4.8061e-30
4.45311e-188
-2.58074e-81
4.25382e-10
0.000314829
-2.85328e-230
2.72487e-60
2.71693e-10
2.14821e-47
0.733229
-1.07404e-242
2.54758e-154
1.00066e-194
2.95693e-36
-1.29907e-63
-3.12329e-73
1.76997e-150
1.43409e-42
5.61844e-59
6.26115e-63
-7.27927e-109
0.000240242
2.13295e-218
0.000565565
4.59977e-174
150.94
8.98907e-66
7.44632e-11
5.05591e-192
2.83335e-130
1.14174e-33
-1.15937e-124
3.27722e-161
-1.18749e-99
-1.47902e-61
-3.50497e-62
2.74642e-12
1.89142e-24
1.34656e-24
-9.86042e-267
-1.66718e-124
6.18447e-45
0.000402197
-2.61551e-266
-2.49967e-214
1.44923e-40
2.16683e-192
5.70939e-17
1.1706
94.0544
-9.13454e-265
1.30138e-83
1.37152e-20
-8.04852e-71
-7.90267e-134
94.0773
-4.37071e-217
3.4198e-24
1.83414e-34
-3.91448e-84
-1.43259e-136
2.25059e-158
-3.01693e-102
2.57878e-40
6.68415e-66
-8.33818e-78
-2.34723e-263
-3.50841e-206
-1.4645e-65
1.33606e-126
2.06249e-28
1.26269e-36
-1.60606e-168
2.42538e-212
2.50879e-31
164.823
-2.38888e-139
9.75454e-12
-6.92206e-232
-3.78797e-77
2.22428e-24
1.02679e-47
2.14412e-22
5.38274e-29
-5.85219e-63
6.36994e-36
-2.13806e-249
-3.28502e-198
4.16683e-51
-7.08955e-74
-8.72547e-64
-4.80047e-76
-1.68975e-238
1.10796e-210
-5.99263e-145
-2.57725e-51
2.29112e-31
-6.24096e-34
4.26904e-93
-4.60297e-32
7.8057e-39
-7.34198e-62
-4.67646e-31
-3.41397e-56
0.58806
2.54643e-37
1.06501e-54
1.12575e-29
3.86755e-200
6.60131e-24
3.27846e-33
2.43655e-267
-2.46989e-217
1.55991e-191
8.5708e-194
3.54754e-07
-3.5378e-61
1.62416e-92
-4.11339e-33
-4.07624e-99
2.10144e-16
3.26503e-48
9.98204e-40
-7.36085e-144
3.31892e-11
-3.86192e-239
4.62244e-50
2.52941e-119
2.39686e-19
-2.41694e-30
5.5042e-69
1.95021e-60
9.07881
7.99552e-40
5.18833e-14
-1.81433e-69
9.95794e-12
0.547697
-2.63505e-182
-3.98849e-128
-5.42019e-240
1.42563e-08
7.90159e-127
1.04437e-65
0.00705896
-2.79114e-215
1.23413e-61
9.11187e-33
-4.42962e-66
6.85795e-136
-9.16882e-70
-3.44186e-175
-4.36381e-68
1.75866e-175
-1.28841e-174
-3.07931e-72
1.33589e-37
6.06452e-40
-9.29303e-65
9.06777e-09
1.11088e-48
17.6393
5.2601e-39
2.36429e-74
-4.95873e-70
9.57226e-41
2.26193e-53
1.16223e-54
0.555947
-3.14274e-36
4.25951e-56
1.39252e-54
-2.01203e-116
6.80179e-128
7.07351e-32
-1.62263e-245
12.4997
-2.61644e-172
-3.31053e-35
9.00295e-23
2.3725e-07
4.05191e-20
1.30955e-31
4.50365e-34
-2.50611e-70
2.93249e-20
1.04618e-42
6.54784e-14
2.05513e-54
4.92332e-14
5.64118e-56
-2.12364e-258
-4.52529e-54
176.051
2.20063e-13
-1.41209e-97
1.72633e-250
-1.31311e-167
4.78205e-89
-2.83042e-57
8.41204e-41
2.8713e-62
7.50373e-191
1.11604e-96
5.39263e-53
2.04688e-99
-4.76974e-109
2.94685e-13
1.29124e-107
7.80976e-45
2.97833e-28
-6.84584e-98
1.31172e-89
1.53758e-28
-1.77394e-268
-3.48963e-92
49.88
8.86305e-197
4.92436e-17
1.98857e-23
-9.14956e-91
2.32858e-33
3.04657e-28
-3.88434e-55
1.35619e-27
1.006e-126
-2.10944e-33
-1.89599e-134
8.38981e-58
2.07335e-30
-4.31479e-32
-1.34518e-126
2.93589e-35
6.16683e-07
-1.01786e-46
-4.24238e-71
-2.47318e-120
2.8512e-23
5.73601e-07
-1.10834e-119
2.63897e-219
3.14475e-55
3.69525e-234
0.659449
5.20097e-55
1.20082e-12
1.7063e-69
1.20911e-63
12.142
-3.16746e-67
0.00148039
3.9413e-42
89.3934
1.72063e-44
-9.20682e-77
-1.24598e-68
3.59799e-87
0.00358753
0.00031921
2.06034e-178
1.33487e-175
-7.34758e-30
5.67642e-166
0.00350563
1.82151e-29
2.57528e-10
-4.69947e-120
130.366
0.0868455
4.96044e-54
-9.40226e-258
-1.621e-131
-1.4711e-38
5.26367e-87
5.2242e-92
-7.20722e-84
2.41409e-40
6.14054e-44
35.4839
9.26248e-08
1.53984e-192
6.21989e-38
6.29379e-26
-1.41614e-28
-7.7807e-75
3.67481e-23
8.64837e-35
-1.83296e-37
7.88668e-135
1.19289e-255
4.5997e-22
6.0209e-19
3.05915e-64
-6.77734e-31
1.76775e-13
9.14819e-76
-6.01513e-57
3.94732e-118
3.3144e-81
2.64994e-15
-2.90009e-79
4.11993e-27
3.50775e-41
1.11654e-50
5.20986e-101
-2.34279e-78
1.81394e-07
1.21492e-71
-4.97118e-75
37.6593
4.97189e-50
2.47468e-77
0.00961841
-6.67948e-262
4.08032e-70
7.82571e-63
-8.16797e-88
6.28137e-148
7.89642e-58
2.61682e-269
7.2038e-10
1.48272e-126
1.59057e-61
3.17537e-22
3.94123e-33
4.69766e-65
5.34894e-68
3.43064e-23
92.3881
8.24985e-199
-8.24314e-104
2.1518e-76
0.00714575
5.07053e-19
-2.62311e-128
2.9161
-8.2681e-256
-1.44969e-129
183.105
-6.06522e-97
3.49161e-125
-6.64236e-123
1.80024e-42
-5.83318e-41
1.60814e-194
-3.71021e-90
2.57831e-25
3.22147e-63
-4.35103e-66
-5.96878e-85
-5.57096e-181
-9.04212e-40
1.54409e-06
-1.36466e-68
-5.06304e-32
5.59232e-43
3.62255e-56
9.88804e-11
6.7169e-27
-1.86649e-83
-1.30077e-127
0.000407227
1.99132e-37
1.22319e-47
-2.62922e-117
3.79298e-192
-1.83655e-37
2.42029e-11
6.61654e-74
5.16634e-30
2.31333e-72
-1.53872e-82
-3.56735e-106
2.60396e-40
149.341
18.1079
4.07761e-39
3.09487e-67
-2.91473e-108
1.71899e-41
0.0125711
-1.58064e-34
-7.21456e-130
4.15234e-12
4.87755e-08
8.70914
-3.33067e-92
87.2182
1.02724e-194
-4.1894e-81
5.79047e-191
3.16136e-11
2.04657e-46
82.4629
-1.93471e-134
0.018349
1.05197e-164
-2.81791e-67
1.36895e-31
-5.7501e-89
1.07025e-12
0.10569
-5.56778e-95
8.51157e-100
1.6632e-70
-1.18359e-92
-1.61887e-96
5.35545e-14
6.39905e-49
2.19881e-67
8.84338e-16
-1.08662e-96
7.02117e-188
-4.19589e-70
-3.4742e-165
1.82962e-27
1.90829e-70
2.12436e-09
2.94708e-11
-2.14044e-43
7.38053e-35
2.41321e-39
-1.1546e-69
0.0119065
2.43977e-76
-4.01874e-101
-2.67833e-238
9.26987e-12
-8.39867e-36
-8.36521e-136
4.87758e-27
-8.35341e-86
3.44022e-35
-3.20873e-38
-2.25867e-33
1.29938e-40
87.2328
7.02585e-39
-3.37939e-42
0.109469
-1.65288e-90
1.75562e-07
7.31233e-26
1.79758e-168
8.94941e-75
-9.62207e-108
-2.57498e-73
-5.61704e-251
-8.95815e-122
1.75069e-07
1.30221e-11
-7.4533e-123
200.821
1.09843e-29
-9.42592e-171
4.69503e-12
3.96595e-13
-1.33253e-173
7.19095e-11
3.17905e-23
1.64998e-11
2.02622e-173
1.02207e-128
-3.30615e-105
1.93434e-174
-3.29234e-37
29.2488
-4.27317e-136
3.59597e-12
-1.50709e-263
2.59342
6.23383e-28
5.74808e-38
-1.14499e-218
-9.11912e-138
-9.07259e-80
2.79035e-42
1.77366e-15
1.08524e-35
-7.14232e-99
-1.32526e-92
-4.75622e-173
2.17359e-29
4.60363e-39
-3.49031e-107
-2.10119e-217
4.10063e-58
4.10138e-36
3.65281e-45
-3.24727e-144
5.1403e-07
3.90949e-30
1.55403e-164
1.37654e-47
-3.73309e-93
-1.45596e-76
194.37
-3.21103e-98
-8.46013e-169
2.37567e-41
-6.09283e-37
-6.73361e-46
2.81321
6.12475e-63
3.87328e-79
1.9384e-34
-3.64066e-88
1.63368e-86
1.51564e-77
1.26213e-87
-1.98417e-29
-5.68475e-77
14.747
-1.21757e-44
4.48495e-10
-9.17933e-85
0.00270079
5.75065e-32
3.50219e-10
3.60014e-14
1.96979e-36
4.8405e-78
8.53429e-84
-2.20069e-61
4.07445e-264
-1.50946e-79
1.20133e-36
3.47405e-14
-9.63531e-89
8.55063e-166
4.53703e-39
3.45094e-37
6.77718e-18
2.69229e-40
3.41536e-12
7.56212e-18
7.51589e-116
1.74925e-51
0.667613
7.32492e-38
1.51789e-254
9.10231e-93
-1.44629e-90
1.8555e-257
9.10753e-53
2.03285e-196
-5.78508e-78
3.08353e-15
2.7224e-34
1.93545e-06
1.3147e-192
1.41185e-136
-1.29125e-232
-1.07361e-89
-3.24108e-107
4.06953e-10
-6.64653e-107
7.79482e-137
4.02582e-07
1.33369e-37
8.97613e-52
4.342e-54
1.1424e-17
4.98825e-98
2.82414e-12
1.04737e-84
1.24633e-189
0.00178524
3.48419e-45
9.96086e-21
-3.73556e-102
54.47
-1.12632e-40
8.43204e-47
1.36471e-37
3.54657e-31
33.104
-2.79373e-82
1.15907e-12
-5.31226e-49
-2.55884e-49
-8.24444e-144
2.53522e-69
1.21222e-07
1.64921e-80
3.32435e-09
-1.75692e-95
-1.19289e-99
5.78813e-13
5.69393e-156
1.0786e-125
-7.81479e-81
6.81625e-44
2.67772e-11
-1.30676e-96
-1.11058e-91
-3.43921e-235
-7.33733e-48
0.00205017
5.32397e-44
-9.49592e-91
-1.18225e-64
3.07588e-99
-3.2477e-133
13.5533
-1.99825e-48
-2.72802e-221
3.41312e-50
1.07615e-100
-2.19339e-39
-4.82769e-28
3.94488e-49
4.00955e-89
4.73854e-15
1.88063e-11
-1.60138e-223
-6.37246e-64
7.00272e-12
-1.60224e-136
-3.96039e-199
1.25065e-66
5.77432e-53
7.24032e-83
-1.26739e-197
1.4065e-53
1.43181e-12
-1.76117e-172
7.17829e-24
2.81514e-197
-8.05736e-107
8.93977e-57
4.29237e-05
-6.69808e-242
1.911
-3.70455e-47
2.70632e-22
37.688
-3.55505e-43
4.3177e-60
0.0309612
-2.47249e-89
1.42976e-05
2.23337e-19
-2.01321e-66
-4.18208e-81
-7.57899e-83
1.15139e-100
-9.59548e-106
2.45717e-23
0.0279777
192.939
3.95814e-27
-1.85691e-29
0.008295
1.7318e-29
11.5712
2.03245e-149
3.63756e-99
3.43843e-19
5.09927e-45
-3.92887e-122
3.9959e-27
-4.10209e-84
31.5923
-9.98941e-253
3.31003e-133
1.43477e-143
203.321
-3.52389e-37
2.52548e-45
-2.99395e-79
2.14864e-19
-5.17755e-86
-1.11003e-139
2.64547e-07
-1.49545e-82
2.55417e-07
2.46396e-23
6.64306e-72
1.03582e-14
2.53378e-45
-1.96879e-99
-3.10166e-135
-1.57321e-131
0.209176
1.29754e-13
-5.66526e-111
3.47329e-18
3.1646e-52
1.05565e-25
-5.37858e-240
2.7154e-49
1.5889e-07
2.80887e-11
-7.02504e-42
-9.77014e-69
6.3551e-135
7.54568e-17
8.11064e-86
1.77094e-138
2.442e-10
2.04943e-17
-2.00512e-111
2.59926e-32
2.18895e-46
2.39255e-234
-1.70897e-124
-6.93652e-200
-5.81641e-41
84.087
1.39981e-11
3.04417e-20
-2.94749e-116
-1.48757e-85
2.51989e-44
8.85438e-225
2.77811e-09
3.76292e-46
82.9046
-3.46489e-28
9.9818e-76
8.19044e-113
2.21377e-148
2.00182e-82
-2.87581e-87
5.12037e-121
13.9933
7.9053e-16
2.78165e-37
2.04167e-17
-1.64325e-43
-2.1715e-135
-1.85078e-263
-1.42359e-120
9.05084e-27
0.851795
-3.42757e-22
7.78839e-47
-1.07413e-49
6.94635e-75
2.10665e-16
0.035661
0.0228485
2.1608e-87
-8.69995e-71
7.747e-30
6.14677e-102
2.20618e-193
-2.81967e-121
1.99686e-14
-1.9535e-108
3.4608e-62
-4.16509e-95
1.6356e-41
2.23586e-08
1.42152e-100
-7.04575e-121
1.25376e-10
7.08099e-16
-3.44578e-95
-1.49283e-141
-5.28612e-51
0.000123509
2.13571e-26
2.76488e-23
-1.27414e-53
1.24628e-61
0.0479708
-5.00612e-84
-2.91587e-22
-1.9024e-133
1.06736e-12
5.63234e-12
-9.19845e-177
1.0496e-144
87.6849
1.18236e-122
1.73609e-75
1.38056e-28
2.9522e-111
6.89166e-110
-2.06192e-96
3.16936e-124
-2.58819e-232
9.26613e-20
1.34769e-05
2.89324e-147
0.0171191
-7.50967e-87
-1.34783e-125
8.16366e-13
3.28236e-09
2.60362e-27
-4.7715e-88
-7.25177e-121
-1.00152e-45
151.223
-5.08494e-108
6.37394e-148
7.21145e-155
8.83081e-108
5.52186e-61
6.88909e-30
-3.89864e-111
2.69364e-79
1.73286e-127
7.23818
5.36074e-09
1.05837e-43
-1.14024e-39
-2.7422e-85
-1.67675e-125
7.99287e-17
1.34917
-1.22702e-74
2.43023e-153
-3.92033e-127
7.47977e-14
2.13436e-111
1.24213e-134
5.22942e-09
-8.20419e-89
-4.25078e-122
114.628
8.48644e-07
7.24661
1.55085e-16
-2.2157e-111
1.5216e-13
1.44479e-10
0.165422
6.31023e-98
2.94653e-30
3.42376e-228
0.119619
-1.51449e-257
-5.31253e-100
4.77359e-86
3.78459e-153
1.09841e-42
8.41602e-94
-1.08627e-109
1.54744e-99
6.46391
2.3208e-14
5.33824e-40
-8.55434e-120
3.53886e-30
15.8727
4.78297e-09
5.20665e-44
-2.64741e-52
-1.16677e-100
3.98609e-87
2.26867e-149
2.47944e-113
1.34358e-145
-2.00644e-122
-2.10408e-44
4.25617e-15
4.00096e-17
0.314519
9.3377e-05
9.29272e-09
6.31244e-25
0.114388
2.52541e-136
3.33678e-05
-1.34255e-127
0.001425
2.09843e-09
9.26933e-37
-2.97793e-110
3.50432e-36
6.04494e-24
3.45925e-67
78.4359
1.03689e-12
0.368255
-5.17548e-124
6.7099e-10
2.58568e-07
3.85366e-10
1.26362e-07
5.186e-11
-9.74242e-122
2.28861e-98
5.10084e-43
-8.62747e-115
1.46314e-29
-1.6314e-103
2.13369e-39
4.38749e-178
-1.2213e-93
2.79214e-22
8.33137e-34
6.16928e-140
-2.52838e-48
0.897428
93.1738
9.79836e-156
1.57658e-50
1.99125e-79
8.78834e-11
1.44203e-30
4.69789
3.78969e-05
2.39791e-100
5.46681e-41
1.97934e-07
-1.75848e-24
4.94672e-06
2.08841e-55
6.01883e-12
6.44632e-142
0.190461
4.73377e-09
-3.63388e-140
1.09506e-07
0.123311
1.50339e-46
3.8857
-1.35715e-89
6.01398e-09
3.98318e-81
-6.41542e-161
5.85603e-76
-1.00393e-84
0.0810742
5.50656e-05
0.0376996
-1.44486e-141
6.406
1.90671e-37
3.78443e-13
-3.47693e-32
5.741e-43
3.63395e-52
0.0177687
-5.40457e-88
3.15619e-100
2.40534e-21
2.98712e-09
3.64309e-29
8.37221e-19
-5.18332e-59
0.0479599
3.15045e-30
8.71395e-30
1.70148e-09
-2.07141e-174
6.90198e-08
5.76197e-12
3.78591e-08
-6.30198e-78
0.000812984
1.00907e-147
2.13101e-30
6.06929e-45
1.82452e-06
1.13126e-73
2.57962e-22
1.23672e-08
76.7213
-4.99299e-108
1.04191e-38
-1.18325e-48
4.72142e-10
1.26634e-19
-5.70005e-99
3.18747e-39
4.52448e-150
14.2067
-1.37488e-236
1.57784e-149
-3.41436e-198
6.54432e-07
-5.2071e-121
1.36483e-38
3.94715
2.23653e-54
1.07165e-59
-6.40607e-115
5.27198e-188
7.97938e-10
1.09803e-152
-3.45508e-42
2.06544e-12
-5.41488e-47
2.46693e-06
4.62668e-95
4.97065e-38
1.06878e-07
4.14804e-19
-3.2768e-72
86.0978
-2.33324e-240
9.77734e-183
3.18303e-90
220.698
-2.79941e-79
8.53827e-75
6.67913e-08
-3.12063e-110
2.2451e-93
3.75375e-14
7.23516e-06
3.42467e-32
0.00796335
-2.55739e-110
-2.40107e-90
9.92048e-44
7.24469e-49
1.53703e-06
-3.12184e-129
6.55918e-71
-2.76152e-56
-1.73239e-17
-1.12113e-63
1.50204e-141
9.46118e-41
-4.35822e-19
5.66029e-207
-2.18705e-203
3.80624e-05
9.31825e-32
7.3708e-05
-8.91252e-93
-2.31669e-252
-6.74416e-18
7.97047e-07
-7.51628e-135
-1.87207e-106
1.39037e-149
14.3642
7.38666e-207
2.17828e-33
6.04924e-05
2.46547e-199
2.51635e-186
2.12995e-19
-1.5904e-163
3.14009e-203
3.45965e-42
1.99394e-13
9.17676e-144
3.56891e-22
1.05393e-155
7.32276e-08
-1.8481e-254
1.02248e-07
3.51585e-13
2.19446e-21
2.30862e-199
1.75806e-15
5.0925
9.87553e-102
3.8535e-49
1.77056e-164
9.2091e-14
7.68586e-157
6.67255e-07
1.56032e-09
-1.51903e-86
7.46906e-195
9.84538e-14
3.28804e-14
2.01969e-48
1.47094e-46
1.30707e-16
1.6945e-162
4.82842e-16
1.41444e-196
1.06319e-05
8.30813e-09
4.51507e-09
1.02695e-20
-2.11919e-23
10.6833
4.33226e-22
3.41093e-45
8.39958e-15
4.61603e-103
1.34742e-12
1.68677e-16
-1.01135e-44
1.92119e-81
0.0923315
-8.21601e-214
0.0424268
109.385
2.21524e-114
1.42629e-08
74.6159
1.7625e-35
8.63247e-43
8.64097e-17
-6.21451e-55
6.23503e-148
4.92438e-08
0.0127318
0.814709
-1.34932e-102
2.56526e-16
0.000346258
2.20773e-14
-1.31242e-122
9.41979e-180
1.36931e-33
0.0196677
5.7731e-09
1.516e-16
-4.65013e-244
7.85771e-159
1.0581e-14
-1.66682e-109
2.78217e-44
-5.60281e-105
1.04441e-191
1.86692e-07
4.34062e-89
0.000141117
1.41692e-47
6.83121e-171
1.55433e-179
2.78065e-15
-5.61762e-104
8.98593e-35
2.71488e-16
0.662107
-5.69392e-51
7.77268e-143
1.97757e-06
1.1127e-95
1.29287e-151
2.06624e-69
4.83587e-14
-4.43863e-101
4.4593e-14
2.3047e-46
214.899
5.73522e-15
-6.08793e-134
7.34613e-05
-4.09579e-197
3.46925e-09
5.9825e-38
6.01788e-06
0.00422411
-4.61582e-46
0.000127963
3.52987e-169
6.64238e-09
-1.90264e-124
9.11696e-52
2.58685e-05
2.99326e-28
9.92495e-06
0.0159144
-4.98345e-20
8.04328e-08
1.99281e-06
1.53401e-139
5.91601e-154
-1.47714e-195
0.000161274
-1.49109e-24
7.4731e-138
1.29735e-07
1.23096e-05
6.8641e-39
1.40331e-13
3.45288e-55
-1.03015e-34
0.00206966
-1.25778e-72
2.52894e-30
3.0268e-34
-1.75697e-228
2.01242e-226
-6.97688e-139
-1.67108e-102
1.94286e-47
1.88963e-172
-1.14714e-86
9.58547e-108
4.15686e-65
1.28207e-19
-2.40103e-121
1.01975e-06
-3.72231e-256
1.03309e-11
3.27336e-06
-1.9019e-132
4.54807e-05
7.67368e-13
4.62441e-06
3.74651e-62
6.60107e-17
-4.91319e-112
1.84991e-38
3.61752e-49
3.18795e-181
9.64802e-124
-1.39903e-93
-7.98564e-131
7.11993e-202
7.3689e-56
1.31391e-203
-3.02601e-31
8.35049e-24
0.0639288
2.85589e-174
-1.75342e-63
9.42458e-171
-9.78628e-109
5.65973e-22
9.7674e-66
5.38755e-136
119.199
1.43071e-14
8.59575e-32
7.50793e-61
2.12452e-15
5.84273e-24
5.27043e-67
1.58591e-18
1.15357e-13
-2.09764e-106
2.54526e-198
-6.09883e-84
1.05789e-07
2.55493e-154
-2.52431e-139
5.84904e-14
5.16024e-115
-6.91787e-110
1.76842e-77
3.79731e-142
0.000918736
1.50672e-172
-5.53332e-141
2.75209e-21
8.1125e-19
5.48907
1.95621e-13
-2.56684e-59
-5.10437e-134
1.83124e-17
-1.16175e-135
2.00763e-27
1.0102e-51
6.68083e-107
4.68549e-06
3.21565e-201
3.14392e-22
1.95426e-54
4.08132e-15
-7.4454e-44
1.70332e-207
6.25764e-108
3.59791e-255
1.8688e-25
-2.41781e-158
2.62205e-19
1.25502e-44
-2.38663e-92
-1.25203e-57
9.63855e-40
5.0553e-200
9.71052e-22
2.03026e-22
-2.1276e-103
7.80145e-21
8.45442e-08
9.74308e-190
6.88461e-40
1.358e-11
1.09153e-13
6.91562e-77
1.03085e-42
2.35937e-41
4.03438e-47
5.70234e-74
3.79498e-15
-7.23613e-74
2.1322e-132
8.86357e-134
0.0313675
1.39795e-08
5.55865e-05
1.39667e-06
-7.51941e-36
6.85158e-21
9.86453e-45
1.63816e-19
4.64436e-133
2.81971
-1.10188e-108
2.41358e-06
5.86997e-09
-3.02312e-137
-8.2158e-26
6.09396e-09
4.21582e-06
7.45141e-43
3.68497e-27
1.06785e-134
-6.81037e-222
3.34922e-15
2.88974e-198
2.17751e-176
1.63859e-17
2.39231e-109
-1.33369e-67
3.80812e-141
-4.31882e-91
3.16118e-15
10.2139
7.69006e-106
-2.27e-113
1.02053e-08
-1.04902e-38
3.48952e-11
2.57392e-25
2.45326e-26
-1.25123e-111
8.46817e-39
1.78765e-17
3.09212e-17
-9.10175e-31
-5.2003e-158
1.5914e-07
1.21972e-31
9.66555e-20
-2.73524e-85
3.42631e-139
6.62041e-17
1.0506e-103
-1.48323e-192
2.55297e-23
1.50412e-08
-5.37709e-175
5.16728e-22
8.20799e-48
-4.45957e-120
-6.76521e-77
-8.14267e-119
2.44943e-23
-1.90822e-133
8.25822e-141
6.23693e-46
8.63891e-24
-7.80277e-41
-1.00888e-30
9.21153
-5.07507e-109
3.06593e-62
0.295463
5.18341e-34
-2.78184e-120
7.43845e-33
0.000920626
4.81035e-181
-5.903e-113
3.8587e-193
1.31347e-26
8.00085e-15
4.08519e-49
2.20933e-205
-9.75574e-81
9.83586e-68
1.31159e-93
1.43574e-09
-2.59924e-106
-2.80889e-204
4.1817e-200
6.7379e-29
1.36268e-43
1.47953e-05
-3.38103e-84
-1.27717e-49
2.18955e-32
1.05427e-15
2.0632e-152
1.47905e-24
1.90112e-184
3.19093e-176
-2.21662e-204
4.26155e-10
8.15126e-113
8.11607e-25
3.99015e-24
2.12629e-27
7.81604e-17
2.50015e-28
9.68136e-14
2.98911e-26
1.09493e-104
4.26018e-30
-3.29372e-49
7.14614e-36
1.06371e-21
-9.06674e-112
40.7863
3.0824e-17
1.84269e-19
-3.00691e-174
1.45163
3.0931e-16
4.67792e-18
-5.61633e-32
5.86423e-08
-9.68848e-65
1.08427e-105
-1.04867e-92
6.7133e-96
2.55061e-90
1.46211e-18
3.2718e-22
2.60207e-120
4.0004e-26
2.95542e-95
-1.02264e-90
2.3349e-54
-2.74763e-47
-3.80294e-73
3.60697e-57
-6.36189e-46
1.24426e-26
1.84891e-26
6.46756e-50
2.69219e-190
1.04142e-90
-1.06753e-103
4.62283e-11
3.66307e-155
4.70248e-116
2.6164e-26
1.30716
-1.97522e-132
2.44648e-05
5.08559e-137
3.54098e-104
6.26308e-44
4.38213e-30
3.12512e-35
5.28261e-151
3.21874e-20
1.26121e-22
1.09352e-11
1.69271e-174
2.78058e-26
4.10893e-43
6.56003e-58
-8.00772e-203
-2.23132e-243
1.12387e-28
2.67189e-43
4.00976e-63
50.2364
7.10702e-24
1.88201e-33
-2.3215e-25
8.89943e-47
2.42714e-11
-6.90353e-108
7.06187e-50
-2.5737e-79
-8.01985e-91
0.00653241
6.88084e-25
2.06404e-22
4.08789e-37
-8.10954e-148
3.8329e-19
1.79588e-18
1.50333e-05
1.67265e-89
1.30724e-33
0.000129974
6.82414e-05
1.00183e-138
3.29218e-05
9.93199e-54
20.6389
5.69639e-190
1.91523e-25
9.04238e-38
6.78875e-213
6.9996e-16
1.62055e-68
-1.14543e-80
1.81942e-10
0.0008341
4.0302e-06
7.67482e-80
1.13652e-27
-6.47512e-190
-1.60005e-104
3.5654e-06
1.68246e-31
8.4895e-82
1.50673e-19
-3.6174e-23
8.17946e-29
9.16004e-42
4.69337e-39
4.08956e-24
0.0021444
5.66669e-145
4.62062e-41
7.24406e-50
1.54675e-28
1.76773e-07
1.9225e-24
8.46707e-34
5.2041e-70
2.14119e-193
3.9438e-27
2.32332e-32
1.62019e-22
5.05721e-150
1.53414e-59
1.51071e-26
1.1988e-25
-1.34851e-24
3.87605e-21
4.9271e-76
1.13754e-30
2.2667e-114
1.12514e-14
1.72732e-55
2.2683e-26
9.11448e-65
1.89378e-78
1.43802e-24
1.40607e-60
-7.52171e-69
4.93597e-84
2.94629e-146
2.81627e-32
-5.18212e-53
6.50757e-57
12.4102
0.00866572
-6.47722e-116
2.21427e-83
2.5884e-40
1.43996e-42
1.12148e-205
8.50433e-31
-4.28924e-37
3.80828e-31
-5.31661e-191
7.02462e-14
3.65106e-20
3.53253e-16
9.4076e-31
-3.50963e-175
-8.27895e-98
1.31568e-64
2.39278e-30
4.76896e-09
14.01
-1.21792e-141
3.26891e-69
-3.68725e-74
2.65092e-07
0.000387
6.41396e-06
1.85495e-53
3.33434e-23
-3.18855e-189
4.80269e-40
-7.79654e-54
-5.43175e-140
-2.29208e-23
1.43392e-42
2.55063e-36
5.63278e-22
-6.68488e-74
3.91825e-43
5.47685e-33
-5.50035e-178
-7.22502e-266
1.0409e-44
-7.02583e-68
1.70169e-08
9.87921e-51
-2.68083e-23
1.14518e-13
-3.98451e-42
-2.52718e-141
-1.05837e-60
7.4442e-21
3.2801e-145
0.151245
0.0289633
-8.17947e-118
1.3754e-184
8.42089e-109
6.86594e-145
-2.02349e-214
8.02449e-63
2.92254e-69
-2.99129e-33
4.19721e-42
5.62376e-32
-6.55056e-50
9.02429e-06
2.68222e-21
6.37059e-33
5.17588e-43
1.50748e-53
3.16642e-36
-3.1603e-176
-2.45954e-76
6.25988e-71
-1.63435e-32
-1.54874e-26
1.19473e-09
-2.3988e-217
-1.73949e-27
4.9205e-39
2.72821e-51
3.05374e-23
-2.74948e-41
2.64219e-25
0.0024656
9.80039e-40
1.03626e-18
1.77962e-52
6.84575e-91
5.10597e-42
1.73366e-35
2.48791e-148
2.16028e-44
0.0187189
-2.37789e-80
0.000156269
1.45868e-139
3.84586e-35
-1.49459e-94
2.74208e-77
6.72637e-31
-3.3917e-21
1.05598e-22
-1.07048e-73
1.08738e-46
1.23987e-51
2.28097e-18
1.65944e-14
-3.14333e-47
1.3582e-09
-1.31761e-213
8.55334e-42
7.46789
8.13935e-15
-1.43448e-74
0.302056
1.58781e-20
-2.83251e-70
-8.3778e-164
6.56596e-11
9.19356e-36
4.97026e-53
1.49765e-37
-3.24788e-155
4.17333e-23
-5.10825e-83
8.27292e-15
2.18007e-37
3.57869e-33
-1.00833e-30
-4.07427e-260
-5.72382e-107
1.91646e-52
-2.35221e-90
-2.59136e-93
4.02467e-58
5.34045e-78
4.3157e-66
-1.40348e-25
1.38121e-28
-1.71956e-201
1.06624e-16
-1.63035e-105
-8.07635e-176
-3.04515e-28
3.50987e-134
4.50306e-52
3.48832e-53
-7.74532e-151
-3.94186e-146
-2.09303e-86
8.95841e-27
1.15147e-63
2.80314e-33
1.36849e-37
-3.14708e-27
1.48873e-26
8.4476e-54
4.17048e-45
1.02576e-39
-2.73157e-231
4.28104e-62
2.94986e-80
1.11279e-54
0.139163
4.06687e-29
-2.72537e-73
7.71817e-44
-3.38469e-66
2.4879e-70
-1.1398e-75
5.21946e-65
5.22296e-72
-2.12248e-33
1.04927e-39
-1.71405e-177
6.26084e-28
-2.70421e-51
5.41946e-26
8.80461e-164
-8.31108e-29
3.06337e-05
-4.33018e-101
-3.00719e-41
8.17545e-20
-3.59598e-122
2.63223e-27
3.0087e-14
2.6909e-38
-1.0394e-38
1.28587e-15
1.72076e-44
-2.58217e-52
4.3874e-42
2.60436e-26
1.52374e-130
5.67592e-77
-2.76409e-221
-9.28062e-105
-3.67614e-165
2.28751e-44
6.06569e-41
1.43953e-27
8.91918e-44
11.9501
-5.45281e-21
27.1358
2.99338e-38
3.0176e-10
7.97745
1.37321e-16
20.5431
9.74155e-75
6.13848e-45
2.38461e-51
2.44494e-56
2.16849e-47
8.15269e-107
1.0635e-49
-1.52523e-96
1.7246e-165
-1.1095e-53
2.87407
1.35218e-46
6.33661e-25
5.23596e-49
-6.79423e-88
3.24635e-40
4.66248e-41
3.51553e-111
9.97579e-47
2.89671e-85
4.48943e-25
6.48327e-41
8.77023e-43
-8.51705e-44
0.114226
2.42773e-09
7.2599e-24
6.69578e-54
67.1039
3.48796e-48
-1.75017e-56
1.01349e-29
-4.92244e-30
-2.43933e-61
7.17332e-18
4.6986e-143
-2.55682e-38
-2.37228e-28
1.61766e-44
-1.49424e-46
7.99545e-78
3.14614e-43
-5.87347e-35
5.38086e-73
2.04949e-29
7.2096e-51
2.21349e-65
2.67308e-141
3.74953e-57
2.41212e-41
2.38261e-84
6.77246e-53
2.99865e-65
-3.96199e-107
-1.36534e-34
-1.03718e-84
2.26821e-16
6.96664e-48
-2.11799e-66
-7.49145e-151
1.63712e-103
4.11377e-17
6.48487e-43
2.29313e-206
5.56272e-47
6.17694
1.06553e-25
1.69092e-79
2.65362e-53
0.0554488
0.559186
32.6362
1.92776e-92
2.97115e-94
9.89822e-109
1.85267e-64
5.93911e-31
0.000422574
0.00641479
1.9805e-13
1.51408e-22
7.23109e-80
-7.64803e-161
2.47252e-157
-3.52567e-28
-2.33724e-78
2.19812e-26
-6.24548e-95
6.05192e-07
-3.23868e-91
8.45689e-46
2.01732e-12
-2.31178e-43
2.72873e-22
4.0019e-114
3.30692e-45
-1.31296e-173
3.83068e-19
4.79473e-23
7.75196e-72
-2.22547e-166
1.36309e-70
-8.53147e-26
4.66795e-109
-2.24035e-46
0.0499708
6.71816e-185
1.06828e-70
-1.48769e-39
-5.14797e-40
1.52116e-49
2.64224e-121
-1.4212e-108
3.66622e-107
2.49105e-208
1.87036e-157
-2.67995e-66
1.67191e-30
-1.37646e-174
1.41439e-76
1.0295e-117
147.089
-4.26611e-29
1.29744e-105
-4.23203e-219
1.02973e-25
1.62168e-47
6.09686e-22
-1.60237e-48
1.21646e-47
-2.67574e-168
-5.11171e-106
3.79981e-18
-3.7771e-231
7.22741e-49
1.82042e-29
3.68216e-53
5.02259e-152
9.00483e-43
-7.11053e-205
-1.92633e-63
-3.4e-65
2.04273e-107
4.64235e-09
1.67944e-57
5.10109e-70
7.13237e-67
-5.53795e-40
-1.21819e-51