/*--------------------------------*- C++ -*----------------------------------*\
  =========                 |
  \\      /  F ield         | OpenFOAM: The Open Source CFD Toolbox
   \\    /   O peration     | Website:  https://openfoam.org
    \\  /    A nd           | Version:  7
     \\/     M anipulation  |
\*---------------------------------------------------------------------------*/
FoamFile
{
    version     2.0;
    format      ascii;
    class       volVectorField;
    location    "3.5";
    object      U;
}
// * * * * * * * * * * * * * * * * * * * * * * * * * * * * * * * * * * * * * //

dimensions      [0 1 -1 0 0 0 0];

internalField   nonuniform List<vector> 
135168
(
(2 -4.7828e-18 0)
(2 -8.24028e-18 0)
(2 -5.99961e-18 0)
(2 -3.25252e-17 0)
(2 -2.37968e-17 0)
(2 9.81902e-18 0)
(2 1.7362e-17 0)
(2 2.98616e-17 0)
(2 2.86436e-17 0)
(2 2.27255e-17 0)
(2 3.05569e-17 0)
(2 5.65741e-17 0)
(2 8.0856e-17 0)
(2 7.86232e-17 0)
(2 7.27719e-17 0)
(2 5.21928e-17 0)
(2 1.40446e-16 0)
(2 1.85166e-16 0)
(2 1.96447e-16 0)
(2 2.30772e-16 0)
(2 2.54694e-16 0)
(2 2.703e-16 0)
(2 3.43009e-16 0)
(2 3.77261e-16 0)
(2 4.61625e-16 0)
(2 4.69288e-16 0)
(2 4.51174e-16 0)
(2 3.95557e-16 0)
(2 2.87036e-16 0)
(2 2.49011e-16 0)
(2 2.13215e-16 0)
(2 1.86464e-16 0)
(2 1.70541e-16 0)
(2 1.48242e-16 0)
(2 1.24426e-16 0)
(2 9.3044e-17 0)
(2 6.0582e-17 0)
(2 -3.91584e-18 0)
(2 -6.71091e-17 0)
(2 -1.17949e-16 0)
(2 -1.13546e-16 0)
(2 -1.13936e-16 0)
(2 -9.87161e-17 0)
(2 -9.70494e-17 0)
(2 -1.11079e-16 0)
(2 -1.15098e-16 0)
(2 -1.26398e-16 0)
(2 -1.36201e-16 0)
(2 -1.34117e-16 0)
(2 -1.38489e-16 0)
(2 -1.54377e-16 0)
(2 -1.52812e-16 0)
(2 -1.40171e-16 0)
(2 -1.35157e-16 0)
(2 -1.19609e-16 0)
(2 -7.58909e-17 0)
(2 -5.88717e-17 0)
(2 -5.27147e-17 0)
(2 -3.78534e-17 0)
(2 -2.50047e-17 0)
(2 -3.87172e-17 0)
(2 -7.25802e-17 0)
(2 -8.07557e-17 0)
(2 -8.19344e-17 0)
(2 -9.25893e-17 0)
(2 -1.06964e-16 0)
(2 -1.05753e-16 0)
(2 -9.67877e-17 0)
(2 -1.16895e-16 0)
(2 -1.34286e-16 0)
(2 -1.80746e-16 0)
(2 -1.81915e-16 0)
(2 -1.59454e-16 0)
(2 -1.45663e-16 0)
(2 -1.34481e-16 0)
(2 -1.34709e-16 0)
(2 -1.48025e-16 0)
(2 -1.68764e-16 0)
(2 -1.59536e-16 0)
(2 -1.83829e-16 0)
(2 -2.06467e-16 0)
(2 -1.73251e-16 0)
(2 -5.42043e-16 0)
(2 -8.27516e-16 0)
(2 -1.05439e-15 0)
(2 -1.25197e-15 0)
(2 -1.48964e-15 0)
(2 -1.53938e-15 0)
(2 -1.49684e-15 0)
(2 -1.47356e-15 0)
(2 -1.44357e-15 0)
(2 -1.191e-15 0)
(2 -1.03246e-15 0)
(2 -1.04309e-15 0)
(2 -1.0472e-15 0)
(2 -9.28473e-16 0)
(2 -6.84972e-16 0)
(2 -5.46631e-16 0)
(2 -5.55665e-16 0)
(2 -5.30032e-16 0)
(2 -6.54201e-16 0)
(2 -3.3936e-16 0)
(2 -1.87144e-16 0)
(2 -7.91797e-17 0)
(2 1.61957e-18 0)
(2 -2.08512e-16 0)
(2 1.62827e-17 0)
(2 1.12222e-16 0)
(2 -3.99298e-16 0)
(2 -5.58123e-16 0)
(2 -9.99832e-16 0)
(2 -1.103e-15 0)
(2 -9.72263e-16 0)
(2 -6.80447e-16 0)
(2 -2.44606e-16 0)
(2 -2.36572e-16 0)
(2 -1.81874e-16 0)
(2 -8.21113e-18 0)
(2 2.47984e-16 0)
(2 4.63986e-16 0)
(2 4.94969e-16 0)
(2 4.69881e-16 0)
(2 4.26035e-16 0)
(2 3.96839e-16 0)
(2 2.11275e-16 0)
(2 -3.20315e-18 0)
(2 -3.22245e-16 0)
(2 -5.53607e-16 0)
(2 -7.65173e-16 0)
(2 -8.15875e-16 0)
(2 -8.72864e-16 0)
(2 -8.66196e-16 0)
(2 -8.24286e-16 0)
(2 -6.93243e-16 0)
(2 -6.47848e-16 0)
(2 -6.23423e-16 0)
(2 -8.61268e-16 0)
(2 -1.10861e-15 0)
(2 -1.25988e-15 0)
(2 -1.69704e-15 0)
(2 -1.78502e-15 0)
(2 -2.18754e-15 0)
(2 -2.28202e-15 0)
(2 -2.10634e-15 0)
(2 -1.4665e-15 0)
(2 -7.45918e-16 0)
(2 -6.07795e-16 0)
(2 -3.60641e-16 0)
(2 -2.89862e-16 0)
(2 -2.23153e-16 0)
(2 2.96245e-16 0)
(2 3.81787e-16 0)
(2 9.21053e-16 0)
(2 1.16829e-15 0)
(2 1.34361e-15 0)
(2 1.12015e-15 0)
(2 1.01515e-15 0)
(2 8.67009e-16 0)
(2 9.11493e-16 0)
(2 9.96323e-16 0)
(2 9.63451e-16 0)
(2 1.00451e-15 0)
(2 9.90852e-16 0)
(2 8.88618e-16 0)
(2 8.09045e-16 0)
(2 6.60367e-16 0)
(2 5.73124e-16 0)
(2 4.59475e-16 0)
(2 3.10639e-16 0)
(2 6.13544e-17 0)
(2 -5.78569e-17 0)
(2 -3.75637e-17 0)
(2 7.0647e-17 0)
(2 -4.65799e-17 0)
(2 -2.13697e-16 0)
(2 -2.5738e-16 0)
(2 -5.57107e-16 0)
(2 -8.36186e-16 0)
(2 -8.98218e-16 0)
(2 -7.9124e-16 0)
(2 -4.68329e-16 0)
(2 -3.71178e-16 0)
(2 -2.45614e-16 0)
(2 9.95987e-17 0)
(2 5.87685e-17 0)
(2 -1.63184e-17 0)
(2 -5.22499e-16 0)
(2 -6.2985e-16 0)
(2 -3.89914e-16 0)
(2 -4.26755e-19 0)
(2 1.02653e-16 0)
(2 1.51978e-16 0)
(2 2.05357e-16 0)
(2 -5.697e-17 0)
(2 -4.45432e-16 0)
(2 -6.15082e-16 0)
(2 -1.03834e-15 0)
(2 -1.17117e-15 0)
(2 -1.34844e-15 0)
(2 -1.4013e-15 0)
(2 -1.41801e-15 0)
(2 -1.53145e-15 0)
(2 -1.63928e-15 0)
(2 -1.65005e-15 0)
(2 -1.70794e-15 0)
(2 -1.71711e-15 0)
(2 -1.65459e-15 0)
(2 -1.68044e-15 0)
(2 -1.69964e-15 0)
(2 -1.87374e-15 0)
(2 -1.93749e-15 0)
(2 -2.16774e-15 0)
(2 -2.33861e-15 0)
(2 -2.49993e-15 0)
(2 -2.28762e-15 0)
(2 -2.16391e-15 0)
(2 -2.0625e-15 0)
(2 -1.9202e-15 0)
(2 -1.978e-15 0)
(2 -1.55682e-15 0)
(2 -1.20659e-15 0)
(2 -1.05244e-15 0)
(2 -8.10948e-16 0)
(2 -5.77036e-16 0)
(2 -3.62413e-16 0)
(2 -3.12518e-16 0)
(2 -4.29957e-16 0)
(2 -4.27079e-16 0)
(2 -5.89858e-16 0)
(2 -7.03332e-16 0)
(2 -8.7408e-16 0)
(2 -1.1653e-15 0)
(2 -1.28919e-15 0)
(2 -1.47161e-15 0)
(2 -1.53763e-15 0)
(2 -1.56126e-15 0)
(2 -1.81919e-15 0)
(2 -1.89976e-15 0)
(2 -1.81468e-15 0)
(2 -1.77756e-15 0)
(2 -1.70533e-15 0)
(2 -1.12788e-15 0)
(2 -7.87892e-16 0)
(2 -2.67612e-16 0)
(2 -2.2876e-16 0)
(2 -3.71388e-16 0)
(2 -3.52306e-16 0)
(2 -3.87894e-16 0)
(2 -4.69632e-16 0)
(2 -3.07559e-16 0)
(2 -1.49503e-16 0)
(2 -2.66982e-16 0)
(2 -7.37757e-18 0)
(2 6.90034e-16 0)
(2 8.38008e-16 0)
(2 1.04062e-15 0)
(2 1.09689e-15 0)
(2 1.11159e-15 0)
(2 1.16111e-15 0)
(2 9.45727e-16 0)
(2 7.18058e-16 0)
(2 4.7147e-16 0)
(2 2.66033e-16 0)
(2 2.97043e-16 0)
(2 3.33313e-16 0)
(2 1.2875e-16 0)
(2 -4.9864e-17 0)
(2 -5.23709e-17 0)
(2 -9.78373e-17 0)
(2 -1.11678e-16 0)
(2 1.57953e-16 0)
(2 2.2248e-16 0)
(2 1.092e-16 0)
(2 -7.46092e-16 0)
(2 -1.3542e-15 0)
(2 -1.80865e-15 0)
(2 -2.30296e-15 0)
(2 -2.82887e-15 0)
(2 -2.93206e-15 0)
(2 -3.09907e-15 0)
(2 -3.16784e-15 0)
(2 -3.15927e-15 0)
(2 -3.03021e-15 0)
(2 -2.86349e-15 0)
(2 -3.07611e-15 0)
(2 -2.72855e-15 0)
(2 -2.12218e-15 0)
(2 -1.86877e-15 0)
(2 -1.84674e-15 0)
(2 -1.67098e-15 0)
(2 -1.56843e-15 0)
(2 -1.46812e-15 0)
(2 -1.14467e-15 0)
(2 -1.09159e-15 0)
(2 -9.88353e-16 0)
(2 -9.0104e-16 0)
(2 -1.0504e-15 0)
(2 -1.33407e-15 0)
(2 -1.3475e-15 0)
(2 -1.30078e-15 0)
(2 -1.18582e-15 0)
(2 -6.45053e-16 0)
(2 -3.52511e-16 0)
(2 -3.29373e-16 0)
(2 -3.01593e-16 0)
(2 -2.65164e-16 0)
(2 -1.64511e-16 0)
(2 -2.99549e-16 0)
(2 -7.74506e-16 0)
(2 -7.56176e-16 0)
(2 -5.04271e-16 0)
(2 -2.85906e-16 0)
(2 -2.54627e-16 0)
(2 -1.0402e-15 0)
(2 -1.40079e-15 0)
(2 -1.57949e-15 0)
(2 -1.52935e-15 0)
(2 -1.95677e-15 0)
(2 -2.09544e-15 0)
(2 -2.11345e-15 0)
(2 -1.9581e-15 0)
(2 -1.27861e-15 0)
(2 -7.47149e-16 0)
(2 -6.38283e-16 0)
(2 -6.83102e-16 0)
(2 -7.8768e-16 0)
(2 -8.05561e-16 0)
(2 -5.32681e-16 0)
(2 -3.72227e-16 0)
(2 -4.68574e-16 0)
(2 -5.30651e-16 0)
(2 -7.93873e-16 0)
(2 -1.21923e-15 0)
(2 -1.46861e-15 0)
(2 -1.42848e-15 0)
(2 -1.37718e-15 0)
(2 -7.23868e-16 0)
(2 -3.65308e-18 0)
(2 1.68045e-16 0)
(2 4.35985e-16 0)
(2 5.05099e-16 0)
(2 5.48202e-16 0)
(2 3.7573e-16 0)
(2 7.0975e-17 0)
(2 -2.54118e-16 0)
(2 -3.59699e-16 0)
(2 -4.45824e-16 0)
(2 -5.24213e-16 0)
(2 -5.76996e-16 0)
(2 -5.76712e-16 0)
(2 -5.47919e-16 0)
(2 -4.21055e-16 0)
(2 -1.1381e-16 0)
(2 -2.36986e-17 0)
(2 9.37059e-17 0)
(2 1.7632e-16 0)
(2 1.86245e-16 0)
(2 3.36812e-16 0)
(2 4.12887e-16 0)
(2 2.66812e-16 0)
(2 2.37323e-16 0)
(2 3.87326e-16 0)
(2 7.65185e-16 0)
(2 9.06583e-16 0)
(2 8.28205e-16 0)
(2 6.90031e-16 0)
(2 1.96184e-15 0)
(2 2.25247e-15 0)
(2 2.85373e-15 0)
(2 3.10119e-15 0)
(2 2.38519e-15 0)
(2 1.50654e-15 0)
(2 9.33977e-16 0)
(2 7.63707e-16 0)
(2 5.36377e-16 0)
(2 1.29079e-16 0)
(2 5.64388e-17 0)
(2 1.59014e-16 0)
(2 4.50082e-16 0)
(2 5.42585e-16 0)
(2 5.35998e-16 0)
(2 3.53843e-16 0)
(2 7.84295e-16 0)
(2 -7.49661e-16 0)
(2 2.35532e-18 0)
(2 9.22362e-18 0)
(2 1.37187e-17 0)
(2 7.21467e-18 0)
(2 1.72087e-17 0)
(2 2.36268e-17 0)
(2 6.75624e-17 0)
(2 9.70059e-17 0)
(2 1.18214e-16 0)
(2 8.60829e-17 0)
(2 4.25438e-17 0)
(2 1.22534e-17 0)
(2 1.41734e-17 0)
(2 2.23004e-17 0)
(2 4.1457e-17 0)
(2 7.22641e-17 0)
(2 1.5902e-16 0)
(2 1.78331e-16 0)
(2 1.34089e-16 0)
(2 5.84668e-17 0)
(2 1.63777e-17 0)
(2 2.43874e-17 0)
(2 7.30768e-17 0)
(2 9.39847e-17 0)
(2 1.65761e-16 0)
(2 1.69987e-16 0)
(2 1.65251e-16 0)
(2 1.23422e-16 0)
(2 5.09597e-17 0)
(2 1.81446e-17 0)
(2 -4.6913e-19 0)
(2 1.80679e-18 0)
(2 1.74456e-17 0)
(2 2.18885e-17 0)
(2 2.19554e-17 0)
(2 -1.06786e-17 0)
(2 -8.40842e-17 0)
(2 -9.86934e-17 0)
(2 -1.08776e-16 0)
(2 -1.29267e-16 0)
(2 -1.32103e-16 0)
(2 -1.30937e-16 0)
(2 -1.3095e-16 0)
(2 -1.27795e-16 0)
(2 -1.22764e-16 0)
(2 -8.43826e-17 0)
(2 -7.60907e-17 0)
(2 -8.94448e-17 0)
(2 -7.95107e-17 0)
(2 -9.36748e-17 0)
(2 -1.15367e-16 0)
(2 -1.185e-16 0)
(2 -1.11595e-16 0)
(2 -1.22342e-16 0)
(2 -1.1016e-16 0)
(2 -8.90371e-17 0)
(2 -9.52419e-17 0)
(2 -6.07785e-17 0)
(2 -4.93479e-17 0)
(2 -2.46111e-17 0)
(2 -7.6201e-18 0)
(2 2.10185e-18 0)
(2 8.94335e-18 0)
(2 1.69781e-17 0)
(2 2.06617e-17 0)
(2 2.81109e-17 0)
(2 1.18297e-17 0)
(2 1.30652e-17 0)
(2 6.88744e-18 0)
(2 -1.46404e-17 0)
(2 -2.80917e-17 0)
(2 -3.0531e-17 0)
(2 -1.8099e-17 0)
(2 -2.07646e-17 0)
(2 -9.93814e-18 0)
(2 3.8276e-18 0)
(2 2.59192e-17 0)
(2 1.81309e-17 0)
(2 2.56403e-17 0)
(2 -4.45558e-17 0)
(2 -6.42429e-17 0)
(2 -1.28684e-16 0)
(2 -4.46771e-16 0)
(2 -7.59672e-16 0)
(2 -1.10602e-15 0)
(2 -1.23437e-15 0)
(2 -1.54638e-15 0)
(2 -1.59989e-15 0)
(2 -1.4807e-15 0)
(2 -1.353e-15 0)
(2 -1.20232e-15 0)
(2 -1.06512e-15 0)
(2 -8.80315e-16 0)
(2 -8.42019e-16 0)
(2 -8.44905e-16 0)
(2 -8.4121e-16 0)
(2 -7.36231e-16 0)
(2 -5.73049e-16 0)
(2 -5.88153e-16 0)
(2 -3.98403e-16 0)
(2 -2.56517e-16 0)
(2 -3.68315e-16 0)
(2 -8.32554e-16 0)
(2 -8.78481e-16 0)
(2 -8.72963e-16 0)
(2 -7.75926e-16 0)
(2 -5.4829e-16 0)
(2 -9.74364e-16 0)
(2 -1.12318e-15 0)
(2 -1.1371e-15 0)
(2 -1.10608e-15 0)
(2 -8.28629e-16 0)
(2 -7.4998e-16 0)
(2 -8.57778e-16 0)
(2 -1.34981e-15 0)
(2 -1.61905e-15 0)
(2 -1.47208e-15 0)
(2 -1.14629e-15 0)
(2 -8.01214e-16 0)
(2 -6.74216e-16 0)
(2 -6.46262e-16 0)
(2 -5.13205e-16 0)
(2 -3.8431e-16 0)
(2 -3.63964e-16 0)
(2 -4.22249e-16 0)
(2 -5.17632e-16 0)
(2 -5.85182e-16 0)
(2 -5.18334e-16 0)
(2 -5.28869e-16 0)
(2 -5.75109e-16 0)
(2 -6.78227e-16 0)
(2 -2.96432e-16 0)
(2 -1.939e-16 0)
(2 -1.36025e-16 0)
(2 3.71715e-17 0)
(2 -3.3353e-16 0)
(2 -7.5444e-16 0)
(2 -9.35344e-16 0)
(2 -1.14418e-15 0)
(2 -1.42078e-15 0)
(2 -1.4784e-15 0)
(2 -1.54518e-15 0)
(2 -1.59338e-15 0)
(2 -1.19346e-15 0)
(2 -6.24388e-16 0)
(2 -3.25816e-16 0)
(2 9.02964e-17 0)
(2 2.52946e-16 0)
(2 2.62858e-16 0)
(2 3.25681e-16 0)
(2 3.89856e-16 0)
(2 5.00658e-16 0)
(2 4.41602e-16 0)
(2 7.16375e-16 0)
(2 8.31642e-16 0)
(2 7.50567e-16 0)
(2 6.57706e-16 0)
(2 6.12848e-16 0)
(2 5.28475e-16 0)
(2 4.63223e-16 0)
(2 4.51921e-16 0)
(2 1.29561e-16 0)
(2 -3.22907e-17 0)
(2 1.33404e-16 0)
(2 1.37988e-16 0)
(2 2.06727e-16 0)
(2 3.23539e-16 0)
(2 2.9716e-16 0)
(2 7.80558e-17 0)
(2 -4.25582e-17 0)
(2 1.46885e-16 0)
(2 2.68401e-16 0)
(2 3.02675e-16 0)
(2 1.35705e-16 0)
(2 -3.61252e-17 0)
(2 -4.45006e-16 0)
(2 -6.75451e-16 0)
(2 -6.72067e-16 0)
(2 -6.59338e-16 0)
(2 -5.42615e-16 0)
(2 -4.39064e-16 0)
(2 -3.33646e-16 0)
(2 -2.97004e-16 0)
(2 -3.34734e-16 0)
(2 -3.22974e-16 0)
(2 -3.38167e-16 0)
(2 -7.96835e-16 0)
(2 -1.37384e-15 0)
(2 -1.84353e-15 0)
(2 -2.14983e-15 0)
(2 -2.1386e-15 0)
(2 -1.86258e-15 0)
(2 -1.65718e-15 0)
(2 -1.35543e-15 0)
(2 -1.35074e-15 0)
(2 -1.70943e-15 0)
(2 -1.85622e-15 0)
(2 -1.89054e-15 0)
(2 -2.01281e-15 0)
(2 -2.06755e-15 0)
(2 -2.06118e-15 0)
(2 -2.07716e-15 0)
(2 -2.08505e-15 0)
(2 -2.11413e-15 0)
(2 -2.29462e-15 0)
(2 -2.66056e-15 0)
(2 -2.57739e-15 0)
(2 -2.88949e-15 0)
(2 -2.98519e-15 0)
(2 -2.96398e-15 0)
(2 -2.73821e-15 0)
(2 -2.61447e-15 0)
(2 -2.3904e-15 0)
(2 -2.00924e-15 0)
(2 -2.05377e-15 0)
(2 -2.00071e-15 0)
(2 -2.14447e-15 0)
(2 -2.0696e-15 0)
(2 -1.20328e-15 0)
(2 -9.44449e-16 0)
(2 -8.64369e-16 0)
(2 -8.49271e-16 0)
(2 -8.76839e-16 0)
(2 -8.67414e-16 0)
(2 -8.13808e-16 0)
(2 -6.7112e-16 0)
(2 -1.004e-16 0)
(2 7.32156e-17 0)
(2 1.36794e-16 0)
(2 -3.57155e-16 0)
(2 -5.35923e-16 0)
(2 -1.00952e-15 0)
(2 -1.07091e-15 0)
(2 -1.23162e-15 0)
(2 -1.35372e-15 0)
(2 -1.45212e-15 0)
(2 -1.67708e-15 0)
(2 -1.67561e-15 0)
(2 -1.50575e-15 0)
(2 -1.38618e-15 0)
(2 -1.38279e-15 0)
(2 -1.15998e-15 0)
(2 -5.57521e-16 0)
(2 1.5718e-17 0)
(2 4.56522e-16 0)
(2 5.60543e-16 0)
(2 4.41886e-16 0)
(2 4.78107e-16 0)
(2 6.1267e-16 0)
(2 1.07177e-15 0)
(2 1.28419e-15 0)
(2 9.03043e-16 0)
(2 8.59062e-16 0)
(2 1.21811e-15 0)
(2 1.50525e-15 0)
(2 1.73752e-15 0)
(2 1.73137e-15 0)
(2 1.54631e-15 0)
(2 1.37651e-15 0)
(2 1.07776e-15 0)
(2 1.10263e-15 0)
(2 6.60539e-16 0)
(2 5.55997e-16 0)
(2 4.81633e-16 0)
(2 4.55953e-16 0)
(2 2.13198e-16 0)
(2 1.5051e-16 0)
(2 3.44465e-16 0)
(2 1.67972e-16 0)
(2 7.64203e-18 0)
(2 -4.51442e-16 0)
(2 -5.43814e-16 0)
(2 -4.38591e-16 0)
(2 -9.37194e-16 0)
(2 -1.19225e-15 0)
(2 -2.28389e-15 0)
(2 -3.25055e-15 0)
(2 -3.67686e-15 0)
(2 -3.95094e-15 0)
(2 -4.73079e-15 0)
(2 -4.91581e-15 0)
(2 -4.93948e-15 0)
(2 -4.65833e-15 0)
(2 -4.36135e-15 0)
(2 -4.46915e-15 0)
(2 -3.52637e-15 0)
(2 -3.04377e-15 0)
(2 -2.2407e-15 0)
(2 -2.04958e-15 0)
(2 -1.74895e-15 0)
(2 -1.63945e-15 0)
(2 -1.47798e-15 0)
(2 -1.52039e-15 0)
(2 -1.55058e-15 0)
(2 -1.42556e-15 0)
(2 -1.26997e-15 0)
(2 -1.28458e-15 0)
(2 -1.25191e-15 0)
(2 -1.32602e-15 0)
(2 -1.47933e-15 0)
(2 -1.40856e-15 0)
(2 -9.52301e-16 0)
(2 -2.5796e-16 0)
(2 -2.72906e-16 0)
(2 -4.04642e-16 0)
(2 -8.66132e-17 0)
(2 1.67736e-16 0)
(2 -4.50646e-16 0)
(2 -9.4324e-16 0)
(2 -7.18444e-16 0)
(2 -2.83357e-16 0)
(2 -1.70978e-16 0)
(2 -4.94673e-16 0)
(2 -9.50059e-16 0)
(2 -2.0616e-15 0)
(2 -3.19162e-15 0)
(2 -3.43091e-15 0)
(2 -3.37084e-15 0)
(2 -3.09173e-15 0)
(2 -2.68955e-15 0)
(2 -2.36561e-15 0)
(2 -2.27663e-15 0)
(2 -1.98187e-15 0)
(2 -1.58478e-15 0)
(2 -1.68312e-15 0)
(2 -2.1092e-15 0)
(2 -2.74165e-15 0)
(2 -2.29678e-15 0)
(2 -2.10437e-15 0)
(2 -2.13288e-15 0)
(2 -2.17732e-15 0)
(2 -2.46385e-15 0)
(2 -2.76665e-15 0)
(2 -2.72989e-15 0)
(2 -2.6793e-15 0)
(2 -2.081e-15 0)
(2 -1.21505e-15 0)
(2 -2.29004e-16 0)
(2 -5.29718e-17 0)
(2 2.37019e-16 0)
(2 7.56863e-16 0)
(2 7.68235e-16 0)
(2 6.7396e-16 0)
(2 7.21484e-16 0)
(2 8.84533e-16 0)
(2 1.02751e-15 0)
(2 8.43631e-16 0)
(2 -4.31242e-16 0)
(2 -6.15078e-16 0)
(2 -6.73814e-16 0)
(2 -6.85564e-16 0)
(2 -2.78104e-16 0)
(2 3.06928e-16 0)
(2 5.05141e-16 0)
(2 5.779e-16 0)
(2 6.78445e-16 0)
(2 7.57603e-16 0)
(2 1.02657e-15 0)
(2 9.7393e-16 0)
(2 8.58063e-16 0)
(2 1.29659e-15 0)
(2 1.49461e-15 0)
(2 1.92084e-15 0)
(2 2.4244e-15 0)
(2 2.59495e-15 0)
(2 3.12414e-15 0)
(2 3.25503e-15 0)
(2 3.34017e-15 0)
(2 3.58979e-15 0)
(2 3.79961e-15 0)
(2 3.9822e-15 0)
(2 4.11647e-15 0)
(2 4.3577e-15 0)
(2 3.8141e-15 0)
(2 2.56623e-15 0)
(2 1.48115e-15 0)
(2 1.17478e-15 0)
(2 6.20705e-16 0)
(2 7.92917e-16 0)
(2 1.19763e-15 0)
(2 1.12372e-15 0)
(2 7.82397e-16 0)
(2 1.40979e-15 0)
(2 1.1674e-15 0)
(2 7.61452e-17 0)
(2 -4.22299e-17 0)
(2 -7.21981e-17 0)
(2 -1.18477e-16 0)
(2 -1.4258e-16 0)
(2 -1.39099e-16 0)
(2 -1.02888e-16 0)
(2 -7.57659e-17 0)
(2 -6.29537e-17 0)
(2 -5.68454e-17 0)
(2 -4.5489e-17 0)
(2 -4.62643e-17 0)
(2 -1.03335e-16 0)
(2 -1.15189e-16 0)
(2 -9.64777e-17 0)
(2 -8.8442e-17 0)
(2 -9.85886e-17 0)
(2 -1.12976e-16 0)
(2 -1.00947e-16 0)
(2 -1.39541e-16 0)
(2 -1.42944e-16 0)
(2 -1.18562e-16 0)
(2 -1.26845e-16 0)
(2 -1.39132e-16 0)
(2 -1.41563e-16 0)
(2 -1.56458e-16 0)
(2 -1.63607e-16 0)
(2 -1.69631e-16 0)
(2 -1.71498e-16 0)
(2 -1.69984e-16 0)
(2 -1.63235e-16 0)
(2 -1.49389e-16 0)
(2 -1.55251e-16 0)
(2 -1.37814e-16 0)
(2 -1.28771e-16 0)
(2 -1.07169e-16 0)
(2 -1.05666e-16 0)
(2 -5.9658e-17 0)
(2 -3.70325e-17 0)
(2 3.06449e-17 0)
(2 1.09386e-17 0)
(2 -5.81023e-20 0)
(2 -1.99017e-17 0)
(2 -4.75999e-18 0)
(2 2.1289e-17 0)
(2 1.01299e-17 0)
(2 9.34102e-18 0)
(2 4.4779e-17 0)
(2 5.49983e-17 0)
(2 3.23504e-17 0)
(2 2.70829e-17 0)
(2 1.30389e-17 0)
(2 1.22008e-17 0)
(2 1.90665e-17 0)
(2 -3.64576e-18 0)
(2 -2.46222e-17 0)
(2 -3.82404e-17 0)
(2 -2.4821e-17 0)
(2 -2.70924e-17 0)
(2 -1.88772e-17 0)
(2 4.62222e-18 0)
(2 3.71614e-17 0)
(2 5.27512e-17 0)
(2 4.53555e-17 0)
(2 3.37434e-17 0)
(2 5.54161e-17 0)
(2 5.9097e-17 0)
(2 2.25247e-17 0)
(2 3.98065e-17 0)
(2 4.16663e-17 0)
(2 1.19323e-16 0)
(2 1.15615e-16 0)
(2 9.61751e-17 0)
(2 9.89971e-17 0)
(2 1.08698e-16 0)
(2 1.14116e-16 0)
(2 1.69679e-16 0)
(2 1.86105e-16 0)
(2 1.65959e-16 0)
(2 1.93549e-16 0)
(2 1.78669e-16 0)
(2 1.505e-16 0)
(2 1.0924e-16 0)
(2 1.10247e-16 0)
(2 5.18187e-17 0)
(2 -7.43282e-17 0)
(2 -1.58487e-16 0)
(2 -2.02619e-16 0)
(2 -2.44331e-16 0)
(2 -2.54737e-16 0)
(2 -3.06079e-16 0)
(2 -3.27492e-16 0)
(2 -3.02903e-16 0)
(2 -3.18269e-16 0)
(2 -3.60304e-16 0)
(2 -3.43114e-16 0)
(2 -3.53369e-16 0)
(2 -3.79026e-16 0)
(2 -3.97534e-16 0)
(2 -8.37013e-16 0)
(2 -1.15581e-15 0)
(2 -1.92472e-15 0)
(2 -2.38562e-15 0)
(2 -2.76634e-15 0)
(2 -3.112e-15 0)
(2 -3.14667e-15 0)
(2 -3.3023e-15 0)
(2 -3.573e-15 0)
(2 -3.61575e-15 0)
(2 -3.59225e-15 0)
(2 -3.18211e-15 0)
(2 -2.95775e-15 0)
(2 -2.93169e-15 0)
(2 -3.10459e-15 0)
(2 -3.44036e-15 0)
(2 -3.91329e-15 0)
(2 -3.8533e-15 0)
(2 -2.94728e-15 0)
(2 -2.64819e-15 0)
(2 -2.54723e-15 0)
(2 -2.35204e-15 0)
(2 -2.28756e-15 0)
(2 -2.07792e-15 0)
(2 -1.94444e-15 0)
(2 -1.86689e-15 0)
(2 -1.46219e-15 0)
(2 -1.01777e-15 0)
(2 -1.15788e-15 0)
(2 -1.29072e-15 0)
(2 -1.81689e-15 0)
(2 -1.75765e-15 0)
(2 -1.76341e-15 0)
(2 -1.86202e-15 0)
(2 -1.95751e-15 0)
(2 -2.1563e-15 0)
(2 -2.31775e-15 0)
(2 -2.41917e-15 0)
(2 -2.36799e-15 0)
(2 -2.44346e-15 0)
(2 -2.40528e-15 0)
(2 -1.23698e-15 0)
(2 -9.3732e-16 0)
(2 -4.19168e-16 0)
(2 -1.06453e-16 0)
(2 6.24914e-17 0)
(2 4.08569e-16 0)
(2 5.21204e-16 0)
(2 7.58068e-16 0)
(2 7.21896e-16 0)
(2 6.39216e-16 0)
(2 5.80503e-16 0)
(2 3.58809e-16 0)
(2 -1.04403e-17 0)
(2 -2.28318e-16 0)
(2 -2.26945e-16 0)
(2 -3.38922e-16 0)
(2 -5.8073e-16 0)
(2 -7.94332e-16 0)
(2 -8.9854e-16 0)
(2 -9.07622e-16 0)
(2 -9.75309e-16 0)
(2 -9.71121e-16 0)
(2 -1.03581e-15 0)
(2 -7.67803e-16 0)
(2 -5.26514e-16 0)
(2 -1.809e-16 0)
(2 9.2493e-17 0)
(2 2.43777e-16 0)
(2 4.47283e-16 0)
(2 7.01949e-16 0)
(2 7.54436e-16 0)
(2 7.02071e-16 0)
(2 5.35342e-16 0)
(2 4.09217e-16 0)
(2 -1.07278e-16 0)
(2 -1.35755e-16 0)
(2 -1.11661e-18 0)
(2 3.1933e-16 0)
(2 2.07093e-16 0)
(2 -3.56344e-16 0)
(2 -6.52491e-16 0)
(2 -7.62319e-16 0)
(2 -1.01296e-15 0)
(2 -1.32736e-15 0)
(2 -1.46635e-15 0)
(2 -1.49937e-15 0)
(2 -1.34656e-15 0)
(2 -1.5161e-15 0)
(2 -1.60251e-15 0)
(2 -1.88739e-15 0)
(2 -2.02866e-15 0)
(2 -2.16571e-15 0)
(2 -2.09287e-15 0)
(2 -1.92755e-15 0)
(2 -1.78947e-15 0)
(2 -1.79987e-15 0)
(2 -1.42968e-15 0)
(2 -1.27591e-15 0)
(2 -1.10513e-15 0)
(2 -1.22926e-15 0)
(2 -1.41385e-15 0)
(2 -1.63756e-15 0)
(2 -1.84755e-15 0)
(2 -2.02637e-15 0)
(2 -2.09997e-15 0)
(2 -2.21712e-15 0)
(2 -2.27901e-15 0)
(2 -2.96764e-15 0)
(2 -3.38671e-15 0)
(2 -2.52703e-15 0)
(2 -1.90183e-15 0)
(2 -1.57529e-15 0)
(2 -1.16271e-15 0)
(2 -9.90927e-16 0)
(2 -9.99025e-16 0)
(2 -1.0409e-15 0)
(2 -1.22036e-15 0)
(2 -8.93252e-16 0)
(2 -8.83075e-17 0)
(2 5.38073e-16 0)
(2 1.01976e-16 0)
(2 7.8184e-18 0)
(2 -3.22161e-17 0)
(2 -4.93893e-17 0)
(2 -4.83182e-17 0)
(2 -4.86918e-17 0)
(2 -9.55248e-17 0)
(2 -1.24874e-16 0)
(2 -1.98188e-16 0)
(2 -2.56356e-16 0)
(2 -2.18331e-16 0)
(2 -1.01801e-16 0)
(2 -2.05573e-16 0)
(2 -3.02626e-16 0)
(2 -6.19101e-16 0)
(2 -7.18359e-16 0)
(2 -6.62123e-16 0)
(2 -5.47966e-16 0)
(2 -5.12367e-16 0)
(2 -3.41453e-16 0)
(2 -1.89997e-16 0)
(2 -3.1606e-16 0)
(2 -2.05457e-16 0)
(2 1.31051e-15 0)
(2 2.24081e-15 0)
(2 2.64359e-15 0)
(2 3.19792e-15 0)
(2 3.73459e-15 0)
(2 4.39593e-15 0)
(2 3.5257e-15 0)
(2 3.13377e-15 0)
(2 3.07182e-15 0)
(2 2.44016e-15 0)
(2 2.27178e-15 0)
(2 1.87801e-15 0)
(2 1.444e-15 0)
(2 7.8273e-16 0)
(2 3.66933e-16 0)
(2 -6.03396e-17 0)
(2 -1.29437e-16 0)
(2 6.69434e-18 0)
(2 1.98509e-16 0)
(2 3.91339e-16 0)
(2 3.54671e-16 0)
(2 4.52064e-16 0)
(2 6.96146e-16 0)
(2 8.25761e-16 0)
(2 8.47007e-16 0)
(2 8.56429e-16 0)
(2 6.55344e-16 0)
(2 3.84061e-17 0)
(2 -4.61818e-16 0)
(2 -4.86624e-16 0)
(2 -1.21469e-16 0)
(2 -1.1555e-16 0)
(2 -2.53238e-16 0)
(2 -3.63883e-16 0)
(2 -7.04293e-16 0)
(2 -8.98124e-16 0)
(2 -1.35358e-15 0)
(2 -1.70627e-15 0)
(2 -1.71266e-15 0)
(2 -1.23645e-15 0)
(2 -1.15167e-15 0)
(2 -9.67588e-16 0)
(2 -6.84684e-16 0)
(2 -4.70599e-16 0)
(2 -8.23854e-16 0)
(2 -9.67559e-16 0)
(2 -1.00456e-15 0)
(2 -9.50826e-16 0)
(2 -8.48854e-16 0)
(2 -7.57732e-16 0)
(2 -7.52227e-16 0)
(2 -8.07619e-16 0)
(2 -9.24682e-16 0)
(2 -6.38324e-16 0)
(2 -4.4919e-16 0)
(2 -2.03689e-16 0)
(2 -6.30769e-16 0)
(2 -9.21569e-16 0)
(2 -1.08112e-15 0)
(2 -1.46711e-15 0)
(2 -1.34913e-15 0)
(2 -8.24566e-16 0)
(2 -2.05369e-16 0)
(2 -1.81307e-16 0)
(2 -4.29759e-16 0)
(2 -5.5691e-16 0)
(2 -4.61359e-16 0)
(2 -3.13289e-16 0)
(2 -3.53164e-16 0)
(2 -6.60239e-16 0)
(2 -1.13244e-15 0)
(2 -1.31502e-15 0)
(2 -1.69949e-15 0)
(2 -1.69321e-15 0)
(2 -2.18108e-15 0)
(2 -2.27566e-15 0)
(2 -2.27537e-15 0)
(2 -2.30911e-15 0)
(2 -2.17355e-15 0)
(2 -2.17758e-15 0)
(2 -2.21757e-15 0)
(2 -2.30426e-15 0)
(2 -2.82419e-15 0)
(2 -2.75856e-15 0)
(2 -2.53813e-15 0)
(2 -2.15711e-15 0)
(2 -1.95332e-15 0)
(2 -1.87162e-15 0)
(2 -1.86154e-15 0)
(2 -1.6935e-15 0)
(2 -1.38977e-15 0)
(2 -9.07459e-16 0)
(2 5.06806e-16 0)
(2 8.37726e-16 0)
(2 9.15648e-16 0)
(2 8.81513e-16 0)
(2 1.05327e-15 0)
(2 1.15242e-15 0)
(2 6.8014e-16 0)
(2 6.07695e-16 0)
(2 7.32167e-16 0)
(2 1.29935e-15 0)
(2 1.63245e-15 0)
(2 1.29405e-15 0)
(2 4.94004e-16 0)
(2 5.5924e-16 0)
(2 7.71492e-16 0)
(2 8.22357e-16 0)
(2 8.15236e-16 0)
(2 9.17367e-16 0)
(2 1.15729e-15 0)
(2 1.45094e-15 0)
(2 1.55712e-15 0)
(2 1.79796e-15 0)
(2 1.8429e-15 0)
(2 1.95264e-15 0)
(2 2.0654e-15 0)
(2 2.38411e-15 0)
(2 3.07065e-15 0)
(2 3.11448e-15 0)
(2 3.13612e-15 0)
(2 3.38588e-15 0)
(2 3.57287e-15 0)
(2 3.81936e-15 0)
(2 3.79037e-15 0)
(2 3.66213e-15 0)
(2 3.67462e-15 0)
(2 3.88349e-15 0)
(2 4.01045e-15 0)
(2 4.23404e-15 0)
(2 4.09357e-15 0)
(2 3.79799e-15 0)
(2 3.40062e-15 0)
(2 2.64445e-15 0)
(2 1.46012e-15 0)
(2 6.63032e-16 0)
(2 1.41529e-15 0)
(2 2.2532e-15 0)
(2 2.17524e-15 0)
(2 2.61007e-15 0)
(2 2.15685e-15 0)
(2 -3.57661e-17 0)
(2 -3.4542e-17 0)
(2 -5.96121e-17 0)
(2 -4.65188e-17 0)
(2 -5.46197e-17 0)
(2 -6.6084e-17 0)
(2 -1.67601e-16 0)
(2 -2.37065e-16 0)
(2 -2.68881e-16 0)
(2 -2.68867e-16 0)
(2 -2.49652e-16 0)
(2 -2.09159e-16 0)
(2 -1.6281e-16 0)
(2 -1.70146e-16 0)
(2 -2.07184e-16 0)
(2 -3.0399e-16 0)
(2 -3.71445e-16 0)
(2 -4.1335e-16 0)
(2 -4.55494e-16 0)
(2 -3.44634e-16 0)
(2 -2.82964e-16 0)
(2 -2.88945e-16 0)
(2 -9.92174e-17 0)
(2 -8.99467e-18 0)
(2 1.07026e-17 0)
(2 7.34996e-17 0)
(2 8.05826e-17 0)
(2 4.92561e-17 0)
(2 -8.17696e-18 0)
(2 -1.30124e-17 0)
(2 -1.56067e-17 0)
(2 -4.14004e-17 0)
(2 -1.08199e-16 0)
(2 -1.45533e-16 0)
(2 -1.39587e-16 0)
(2 -1.38458e-16 0)
(2 -1.13391e-16 0)
(2 -1.17207e-16 0)
(2 -1.2199e-16 0)
(2 -1.18542e-16 0)
(2 -1.18461e-16 0)
(2 -1.2497e-16 0)
(2 -8.71298e-17 0)
(2 -7.8177e-17 0)
(2 -1.13931e-16 0)
(2 -1.18008e-16 0)
(2 -1.35383e-16 0)
(2 -1.68139e-16 0)
(2 -1.79204e-16 0)
(2 -1.60677e-16 0)
(2 -1.46778e-16 0)
(2 -1.43022e-16 0)
(2 -1.52834e-16 0)
(2 -1.4988e-16 0)
(2 -1.48556e-16 0)
(2 -1.69023e-16 0)
(2 -1.57407e-16 0)
(2 -1.64499e-16 0)
(2 -1.4545e-16 0)
(2 -1.49321e-16 0)
(2 -1.30247e-16 0)
(2 -1.05712e-16 0)
(2 -1.02014e-16 0)
(2 -8.93085e-17 0)
(2 -6.57499e-17 0)
(2 -7.25138e-17 0)
(2 -3.41877e-17 0)
(2 -2.17328e-17 0)
(2 -2.51284e-17 0)
(2 -5.68774e-18 0)
(2 3.28767e-18 0)
(2 1.32824e-18 0)
(2 -6.37606e-19 0)
(2 3.02569e-17 0)
(2 6.10134e-17 0)
(2 6.92301e-17 0)
(2 6.3989e-17 0)
(2 7.03067e-17 0)
(2 6.76603e-17 0)
(2 1.26011e-16 0)
(2 1.31283e-16 0)
(2 1.39545e-16 0)
(2 8.11726e-17 0)
(2 6.63831e-17 0)
(2 5.51404e-17 0)
(2 2.84225e-17 0)
(2 3.22903e-17 0)
(2 2.80658e-17 0)
(2 -9.22526e-18 0)
(2 -3.90311e-17 0)
(2 -5.55463e-17 0)
(2 -4.95318e-17 0)
(2 -3.67395e-17 0)
(2 -2.06884e-17 0)
(2 4.49e-17 0)
(2 2.76465e-17 0)
(2 -2.49213e-17 0)
(2 -1.9998e-16 0)
(2 -3.10026e-16 0)
(2 -9.25927e-16 0)
(2 -1.2305e-15 0)
(2 -1.20048e-15 0)
(2 -1.15648e-15 0)
(2 -1.6278e-15 0)
(2 -2.70148e-15 0)
(2 -2.96308e-15 0)
(2 -3.38184e-15 0)
(2 -3.70217e-15 0)
(2 -3.77086e-15 0)
(2 -3.70981e-15 0)
(2 -3.65196e-15 0)
(2 -3.73343e-15 0)
(2 -3.91943e-15 0)
(2 -3.60416e-15 0)
(2 -2.72824e-15 0)
(2 -2.36568e-15 0)
(2 -2.23005e-15 0)
(2 -2.19485e-15 0)
(2 -2.14335e-15 0)
(2 -2.12729e-15 0)
(2 -1.80607e-15 0)
(2 -1.70757e-15 0)
(2 -1.65682e-15 0)
(2 -1.33333e-15 0)
(2 -1.40105e-15 0)
(2 -1.54754e-15 0)
(2 -2.06137e-15 0)
(2 -2.42897e-15 0)
(2 -2.72062e-15 0)
(2 -3.0146e-15 0)
(2 -3.11443e-15 0)
(2 -3.16958e-15 0)
(2 -3.30775e-15 0)
(2 -3.295e-15 0)
(2 -3.20241e-15 0)
(2 -2.92491e-15 0)
(2 -2.75913e-15 0)
(2 -2.54241e-15 0)
(2 -2.30942e-15 0)
(2 -2.1269e-15 0)
(2 -2.03327e-15 0)
(2 -1.94104e-15 0)
(2 -1.73696e-15 0)
(2 -1.67959e-15 0)
(2 -1.46705e-15 0)
(2 -1.40766e-15 0)
(2 -1.34058e-15 0)
(2 -1.41195e-15 0)
(2 -1.28385e-15 0)
(2 -9.64941e-16 0)
(2 -7.82261e-16 0)
(2 -5.7972e-16 0)
(2 -4.45404e-16 0)
(2 -4.6572e-16 0)
(2 -6.13095e-16 0)
(2 -6.33259e-16 0)
(2 -6.66021e-16 0)
(2 -1.02176e-15 0)
(2 -1.02012e-15 0)
(2 -1.16885e-15 0)
(2 -7.69737e-16 0)
(2 -6.0862e-16 0)
(2 -4.462e-16 0)
(2 -3.05242e-16 0)
(2 -1.5643e-16 0)
(2 -1.62765e-16 0)
(2 -1.62697e-16 0)
(2 -2.28292e-16 0)
(2 -1.26665e-16 0)
(2 2.11061e-16 0)
(2 2.43053e-16 0)
(2 2.53783e-17 0)
(2 -2.87095e-16 0)
(2 -2.27822e-16 0)
(2 -6.51444e-16 0)
(2 -8.92876e-16 0)
(2 -9.0842e-16 0)
(2 -8.65097e-16 0)
(2 -9.31669e-16 0)
(2 -4.92372e-16 0)
(2 -1.02887e-16 0)
(2 1.15587e-16 0)
(2 2.17294e-16 0)
(2 1.24937e-16 0)
(2 2.64638e-17 0)
(2 -1.92472e-16 0)
(2 -2.52545e-16 0)
(2 -2.28577e-16 0)
(2 -2.31949e-16 0)
(2 -9.24579e-17 0)
(2 -5.49493e-17 0)
(2 -5.94614e-17 0)
(2 -1.34362e-16 0)
(2 -3.28346e-16 0)
(2 -2.87257e-16 0)
(2 -2.28756e-16 0)
(2 -2.87427e-16 0)
(2 -2.41337e-16 0)
(2 -4.51106e-16 0)
(2 -6.18751e-16 0)
(2 -6.88566e-16 0)
(2 -7.12202e-16 0)
(2 -6.9624e-16 0)
(2 -5.92619e-16 0)
(2 -5.46819e-16 0)
(2 -5.95272e-16 0)
(2 -7.9267e-16 0)
(2 -8.75673e-16 0)
(2 -8.64684e-16 0)
(2 -8.66275e-16 0)
(2 -8.63201e-16 0)
(2 -8.62302e-16 0)
(2 -9.25177e-16 0)
(2 -1.0954e-15 0)
(2 -1.22476e-15 0)
(2 -1.20468e-15 0)
(2 -1.21686e-15 0)
(2 -1.26928e-15 0)
(2 -1.19107e-15 0)
(2 -9.85217e-16 0)
(2 -1.1287e-15 0)
(2 -1.85844e-16 0)
(2 5.71687e-16 0)
(2 5.10799e-16 0)
(2 2.41743e-16 0)
(2 -3.07475e-17 0)
(2 -7.58425e-16 0)
(2 -1.45955e-15 0)
(2 -1.36149e-15 0)
(2 -1.15479e-15 0)
(2 -9.70971e-16 0)
(2 -8.11693e-16 0)
(2 -6.45053e-16 0)
(2 -5.21402e-16 0)
(2 -4.24034e-16 0)
(2 -2.89299e-16 0)
(2 -2.41488e-16 0)
(2 -5.77119e-17 0)
(2 9.05688e-17 0)
(2 1.50529e-16 0)
(2 2.71323e-16 0)
(2 3.97967e-16 0)
(2 6.14519e-16 0)
(2 3.56929e-16 0)
(2 3.67664e-16 0)
(2 6.03535e-16 0)
(2 1.3369e-15 0)
(2 2.13109e-15 0)
(2 2.21741e-15 0)
(2 2.4919e-15 0)
(2 2.78955e-15 0)
(2 2.71399e-15 0)
(2 2.51787e-15 0)
(2 2.53512e-15 0)
(2 2.49386e-15 0)
(2 2.52066e-15 0)
(2 2.45703e-15 0)
(2 1.48974e-15 0)
(2 9.51001e-16 0)
(2 6.07972e-16 0)
(2 2.03805e-16 0)
(2 1.41177e-16 0)
(2 1.59355e-16 0)
(2 2.21636e-16 0)
(2 2.22206e-16 0)
(2 1.67863e-16 0)
(2 3.09779e-17 0)
(2 1.13329e-16 0)
(2 2.4856e-16 0)
(2 5.92469e-16 0)
(2 8.19915e-16 0)
(2 8.43311e-16 0)
(2 3.99216e-16 0)
(2 1.70905e-16 0)
(2 -1.92639e-16 0)
(2 -3.07312e-16 0)
(2 -4.36623e-16 0)
(2 -4.14897e-16 0)
(2 -3.81948e-16 0)
(2 -5.34612e-16 0)
(2 -3.09172e-16 0)
(2 -2.67725e-16 0)
(2 -3.43825e-16 0)
(2 -4.64863e-16 0)
(2 -5.56796e-16 0)
(2 -5.62886e-16 0)
(2 -5.27374e-16 0)
(2 -7.36351e-16 0)
(2 -1.00894e-15 0)
(2 -9.73063e-16 0)
(2 -7.30403e-16 0)
(2 -4.84041e-16 0)
(2 -3.19524e-16 0)
(2 -2.58537e-16 0)
(2 -2.50936e-16 0)
(2 -2.61124e-16 0)
(2 -2.494e-16 0)
(2 -3.65435e-16 0)
(2 -9.19979e-16 0)
(2 -9.53196e-16 0)
(2 -7.82963e-16 0)
(2 -5.73582e-16 0)
(2 -4.10187e-16 0)
(2 -2.05493e-16 0)
(2 -1.07596e-16 0)
(2 -2.42254e-16 0)
(2 -4.95615e-16 0)
(2 -5.31458e-16 0)
(2 -1.10757e-15 0)
(2 -1.58173e-15 0)
(2 -7.05144e-16 0)
(2 -6.85298e-16 0)
(2 -8.34085e-16 0)
(2 -8.01459e-16 0)
(2 -7.08869e-16 0)
(2 -1.68711e-16 0)
(2 -2.84946e-17 0)
(2 -8.29873e-16 0)
(2 -1.22628e-15 0)
(2 -1.88029e-15 0)
(2 -1.96671e-15 0)
(2 -1.89519e-15 0)
(2 -1.8899e-15 0)
(2 -1.87786e-15 0)
(2 -1.80051e-15 0)
(2 -1.72423e-15 0)
(2 -1.98567e-15 0)
(2 -1.87026e-15 0)
(2 -1.55621e-15 0)
(2 -1.29698e-15 0)
(2 -1.11188e-15 0)
(2 -6.10731e-16 0)
(2 -5.96588e-16 0)
(2 -2.01263e-16 0)
(2 3.48021e-16 0)
(2 4.13039e-16 0)
(2 9.41331e-16 0)
(2 1.36838e-15 0)
(2 9.97948e-16 0)
(2 5.85631e-16 0)
(2 5.47049e-16 0)
(2 7.95732e-16 0)
(2 1.01778e-15 0)
(2 6.26095e-16 0)
(2 3.65267e-16 0)
(2 3.18696e-17 0)
(2 -4.77753e-17 0)
(2 -1.70931e-18 0)
(2 1.82195e-16 0)
(2 2.72489e-16 0)
(2 3.1723e-16 0)
(2 2.84315e-16 0)
(2 1.73901e-16 0)
(2 2.02759e-16 0)
(2 2.79913e-16 0)
(2 4.55975e-16 0)
(2 5.46504e-16 0)
(2 6.51987e-16 0)
(2 9.08368e-16 0)
(2 1.00575e-15 0)
(2 1.4702e-15 0)
(2 1.87116e-15 0)
(2 2.84028e-15 0)
(2 2.93407e-15 0)
(2 2.93033e-15 0)
(2 2.85746e-15 0)
(2 2.7889e-15 0)
(2 3.09323e-15 0)
(2 3.1724e-15 0)
(2 3.2671e-15 0)
(2 3.2387e-15 0)
(2 3.23805e-15 0)
(2 3.14039e-15 0)
(2 3.07481e-15 0)
(2 3.10437e-15 0)
(2 3.04332e-15 0)
(2 3.16623e-15 0)
(2 2.89769e-15 0)
(2 3.11296e-15 0)
(2 3.23938e-15 0)
(2 3.17613e-15 0)
(2 2.30447e-15 0)
(2 1.69401e-15 0)
(2 1.34605e-15 0)
(2 -4.3737e-18 0)
(2 2.6286e-17 0)
(2 1.06158e-16 0)
(2 1.24138e-16 0)
(2 1.05234e-16 0)
(2 8.49301e-17 0)
(2 1.02394e-16 0)
(2 1.08859e-16 0)
(2 1.23053e-16 0)
(2 1.3489e-16 0)
(2 1.71156e-16 0)
(2 1.81601e-16 0)
(2 2.34582e-16 0)
(2 2.65719e-16 0)
(2 2.78222e-16 0)
(2 2.82075e-16 0)
(2 3.0273e-16 0)
(2 3.18558e-16 0)
(2 3.45368e-16 0)
(2 3.95008e-16 0)
(2 4.19979e-16 0)
(2 4.44701e-16 0)
(2 6.0042e-16 0)
(2 6.8588e-16 0)
(2 6.92157e-16 0)
(2 6.47935e-16 0)
(2 5.82207e-16 0)
(2 4.95771e-16 0)
(2 3.343e-16 0)
(2 2.02772e-16 0)
(2 1.62133e-16 0)
(2 1.33068e-16 0)
(2 1.10911e-16 0)
(2 8.65543e-17 0)
(2 7.53185e-17 0)
(2 6.7129e-17 0)
(2 6.34973e-17 0)
(2 7.07178e-17 0)
(2 6.42517e-17 0)
(2 7.6472e-17 0)
(2 6.93002e-17 0)
(2 5.32075e-17 0)
(2 -1.86957e-17 0)
(2 -6.0745e-17 0)
(2 -8.1088e-17 0)
(2 -7.29869e-17 0)