/*--------------------------------*- C++ -*----------------------------------*\
  =========                 |
  \\      /  F ield         | OpenFOAM: The Open Source CFD Toolbox
   \\    /   O peration     | Website:  https://openfoam.org
    \\  /    A nd           | Version:  7
     \\/     M anipulation  |
\*---------------------------------------------------------------------------*/
FoamFile
{
    version     2.0;
    format      ascii;
    class       volScalarField;
    location    "6";
    object      T;
}
// * * * * * * * * * * * * * * * * * * * * * * * * * * * * * * * * * * * * * //

dimensions      [0 0 0 1 0 0 0];

internalField   nonuniform List<scalar> 
2413
(
1.16562
1.1662
1.16694
1.16809
1.16979
1.17034
1.17073
1.17102
1.17107
1.17078
1.16967
1.16814
1.16755
1.16789
1.16923
1.17067
1.1726
1.17476
1.17558
1.17625
1.1768
1.17694
1.17668
1.17649
1.17674
1.17745
1.17801
1.17814
1.17821
1.17834
1.17879
1.1794
1.17963
1.17974
1.17994
1.17988
1.17883
1.17694
1.17451
1.1718
1.16934
1.16768
1.16695
1.16669
1.16688
1.1684
1.1704
1.17139
1.17187
1.17189
1.1714
1.16965
1.16798
1.16778
1.16854
1.17013
1.17247
1.1758
1.17927
1.18176
1.18337
1.18413
1.18418
1.18289
1.17954
1.17842
1.17858
1.17877
1.1794
1.18139
1.18443
1.18544
1.18507
1.18361
1.18117
1.17715
1.17369
1.17218
1.17094
1.17021
1.17015
1.17188
1.17509
1.17575
1.17597
1.17624
1.17575
1.17392
1.17326
1.17419
1.17556
1.177
1.17898
1.18225
1.18544
1.18691
1.18796
1.18872
1.18878
1.07636
1.07664
1.07672
1.07641
1.07567
1.07538
1.07548
1.07623
1.07758
1.07902
1.0804
1.08169
1.08287
1.08383
1.08446
1.08464
1.08459
1.08483
1.08621
1.0881
1.08993
1.09178
1.09347
1.09475
1.09558
1.09586
1.09565
1.09436
1.09307
1.09272
1.09271
1.09309
1.09397
1.09526
1.0963
1.09694
1.09736
1.09753
1.09752
1.0971
1.0963
1.09595
1.0961
1.09715
1.09887
1.10063
1.10237
1.10408
1.10534
1.10622
1.10675
1.1068
1.1061
1.10541
1.1055
1.10635
1.10789
1.10932
1.11022
1.11092
1.1115
1.11162
1.11149
1.11108
1.11014
1.10846
1.1074
1.10686
1.10605
1.10477
1.10345
1.10241
1.10166
1.10144
1.10151
1.10188
1.10208
1.10243
1.10309
1.10379
1.10433
1.10455
1.1045
1.10437
1.10456
1.1054
1.10679
1.10848
1.11014
1.11191
1.11356
1.11452
1.11472
1.11414
1.11328
1.11329
1.11334
1.11325
1.11322
1.11373
1.11485
1.11542
1.11543
1.11504
1.11379
1.11239
1.11135
1.11008
1.10878
1.10772
1.10718
1.10715
1.10755
1.10791
1.10809
1.10828
1.10853
1.10876
1.10871
1.10873
1.10958
1.11052
1.1113
1.11221
1.11369
1.11537
1.1163
1.11697
1.11756
1.11765
1.11719
1.11742
1.03918
1.03823
1.03732
1.03713
1.03714
1.03744
1.03803
1.03865
1.03919
1.03966
1.03993
1.03993
1.03942
1.03877
1.03875
1.0393
1.0403
1.04138
1.04246
1.04335
1.04394
1.04422
1.04422
1.04358
1.04215
1.04134
1.04111
1.04105
1.04118
1.04176
1.04221
1.04239
1.04255
1.0426
1.04236
1.04165
1.04133
1.04135
1.04154
1.042
1.04288
1.04402
1.04527
1.04654
1.04769
1.04862
1.04917
1.04928
1.04902
1.0484
1.04833
1.04879
1.04956
1.05021
1.05077
1.05144
1.05229
1.05275
1.05283
1.05283
1.0526
1.05175
1.05038
1.0486
1.04683
1.04603
1.04576
1.04573
1.04606
1.04612
1.04598
1.04574
1.04544
1.0453
1.04533
1.04553
1.04599
1.04666
1.04744
1.04824
1.04889
1.04925
1.04952
1.05007
1.05086
1.05173
1.05262
1.05354
1.05438
1.0548
1.05476
1.05432
1.05422
1.05445
1.05482
1.05537
1.05591
1.05597
1.05586
1.05532
1.0543
1.05376
1.05374
1.05367
1.05366
1.05379
1.05432
1.05464
1.0544
1.05378
1.05301
1.05184
1.05127
1.05134
1.05151
1.05211
1.05331
1.05493
1.05594
1.05649
1.05691
1.057
1.05655
1.05635
1.0567
1.05728
1.05822
1.05908
1.05971
1.06038
1.06107
1.06154
1.01802
1.01744
1.01675
1.01625
1.01594
1.01573
1.01557
1.01543
1.01532
1.01524
1.01516
1.01487
1.01404
1.01345
1.01341
1.01351
1.01385
1.01411
1.01418
1.01417
1.01398
1.01342
1.01214
1.01065
1.01011
1.0099
1.00987
1.01011
1.0105
1.01054
1.0105
1.01027
1.00961
1.00835
1.00753
1.00748
1.00784
1.00863
1.00953
1.01048
1.01143
1.01212
1.01256
1.01268
1.01235
1.01111
1.01059
1.01071
1.01107
1.01149
1.01202
1.01255
1.0128
1.0128
1.01247
1.01197
1.01185
1.01175
1.0115
1.01084
1.0097
1.00818
1.00702
1.00672
1.00668
1.00672
1.0069
1.00716
1.00732
1.00735
1.00728
1.0069
1.00666
1.00678
1.00727
1.00797
1.00867
1.00931
1.00983
1.01014
1.01017
1.00975
1.00949
1.00975
1.01041
1.01134
1.01194
1.01227
1.01244
1.01232
1.01181
1.01164
1.01172
1.01207
1.0124
1.01245
1.01228
1.01187
1.01114
1.01035
1.01021
1.01041
1.01083
1.01154
1.01268
1.01343
1.01358
1.01358
1.0131
1.01168
1.01043
1.01038
1.01048
1.0108
1.01171
1.01353
1.01508
1.0156
1.01584
1.01578
1.01497
1.01367
1.01352
1.01379
1.01423
1.01512
1.0167
1.01787
1.01839
1.01878
1.01886
1.01841
1.00761
1.00705
1.00608
1.0051
1.00474
1.00446
1.00424
1.00402
1.00373
1.00343
1.00306
1.00253
1.0016
1.0008
1.00051
1.00037
1.00033
1.00031
1.00006
0.999525
0.998814
0.997773
0.996356
0.995661
0.995415
0.995309
0.99534
0.995454
0.99541
0.995154
0.994689
0.993917
0.992543
0.99174
0.99169
0.991763
0.992133
0.992755
0.99335
0.99365
0.993755
0.993718
0.993234
0.991723
0.990557
0.990414
0.990394
0.990501
0.990958
0.991256
0.991296
0.991228
0.990665
0.989485
0.988885
0.988633
0.98835
0.987907
0.987196
0.986207
0.985312
0.984959
0.984931
0.984971
0.985051
0.985151
0.985182
0.985059
0.984549
0.984143
0.984119
0.984259
0.984647
0.985232
0.985737
0.986036
0.986186
0.986185
0.985814
0.984781
0.984325
0.984356
0.984526
0.984928
0.985755
0.98623
0.986241
0.98626
0.985991
0.985066
0.984596
0.984566
0.984732
0.984869
0.984837
0.984774
0.984603
0.984154
0.983774
0.983787
0.984058
0.984585
0.985343
0.986033
0.986295
0.986325
0.986244
0.98567
0.984612
0.984295
0.984434
0.984724
0.985291
0.986485
0.987607
0.987974
0.988132
0.988061
0.987362
0.986049
0.985681
0.985886
0.986283
0.986917
0.988137
0.989414
0.989947
0.990265
0.990378
0.990051
0.988855
0.988407
1.00351
1.00227
1.00153
1.00116
1.00086
1.0007
1.00052
1.00009
0.999546
0.998876
0.99784
0.99655
0.995867
0.995528
0.995355
0.995346
0.995195
0.994658
0.993932
0.99296
0.991533
0.990395
0.989921
0.989673
0.989624
0.989637
0.989514
0.989201
0.988734
0.988024
0.986839
0.98568
0.985312
0.985182
0.98517
0.985299
0.985458
0.985481
0.98542
0.985156
0.984575
0.983405
0.982053
0.981512
0.981246
0.981126
0.981189
0.981346
0.981309
0.981134
0.980645
0.979527
0.978378
0.978046
0.977899
0.977745
0.977313
0.976681
0.975952
0.975371
0.975181
0.975176
0.975216
0.97529
0.975307
0.975228
0.974791
0.973978
0.97368
0.973653
0.973699
0.973979
0.974394
0.974569
0.974621
0.974563
0.974158
0.973026
0.971939
0.971709
0.971655
0.97166
0.972081
0.972762
0.972868
0.972811
0.972651
0.972105
0.970925
0.970308
0.970251
0.97032
0.970646
0.970687
0.970654
0.970571
0.970253
0.969944
0.969951
0.970055
0.970357
0.970653
0.970702
0.970726
0.970688
0.970382
0.96979
0.969536
0.969606
0.969899
0.970351
0.971002
0.971467
0.971624
0.971678
0.971553
0.970988
0.97002
0.969721
0.969903
0.970287
0.970834
0.971743
0.972622
0.972975
0.973174
0.973246
0.973052
0.972222
0.971547
0.971621
0.97204
1.00278
1.00216
1.00171
1.00137
1.00124
1.00112
1.00071
1.00015
0.999446
0.998368
0.996891
0.996015
0.995576
0.995318
0.995294
0.99521
0.99472
0.994022
0.993103
0.991652
0.990231
0.989627
0.989285
0.989196
0.989249
0.989094
0.988723
0.988212
0.987429
0.986029
0.984642
0.984118
0.983841
0.983766
0.98388
0.983961
0.983886
0.983577
0.982984
0.981925
0.980303
0.97925
0.978785
0.97848
0.978402
0.978562
0.978502
0.978277
0.977911
0.977241
0.975952
0.974962
0.974649
0.974464
0.974437
0.974264
0.973764
0.973152
0.972386
0.971928
0.971891
0.971907
0.971971
0.971961
0.971791
0.971217
0.970272
0.96978
0.969597
0.969562
0.96964
0.969666
0.969665
0.969606
0.969387
0.968717
0.967626
0.967108
0.966896
0.966739
0.96673
0.966937
0.966946
0.966805
0.966693
0.966447
0.965671
0.964858
0.964685
0.964633
0.964672
0.964778
0.964735
0.964626
0.96436
0.963855
0.963646
0.963644
0.9637
0.963747
0.963737
0.963651
0.963413
0.962953
0.962568
0.962517
0.962583
0.962819
0.963222
0.963597
0.963766
0.963804
0.963755
0.963504
0.962834
0.962058
0.961934
0.962158
0.962623
0.963256
0.964022
0.964505
0.964689
0.964779
0.964751
0.96445
0.963766
0.963324
0.96339
0.963731
0.964158
0.964883
1.00543
1.00489
1.0045
1.00436
1.00418
1.00364
1.00298
1.00221
1.00106
0.999604
0.998694
0.998153
0.997794
0.997708
0.997615
0.997135
0.996467
0.995602
0.994274
0.992849
0.992104
0.991631
0.99141
0.991434
0.991273
0.990852
0.990319
0.989557
0.988241
0.986792
0.986087
0.985655
0.985441
0.98548
0.985463
0.985216
0.984828
0.984259
0.983225
0.981507
0.980378
0.979864
0.979506
0.979424
0.979614
0.979474
0.979181
0.97879
0.978075
0.976627
0.975544
0.975188
0.974953
0.974915
0.974865
0.974417
0.973817
0.97308
0.972335
0.972104
0.972053
0.97204
0.971995
0.971783
0.971196
0.970202
0.969582
0.969269
0.969133
0.96903
0.968905
0.968785
0.968586
0.968085
0.967068
0.966434
0.966223
0.966083
0.966117
0.966371
0.966317
0.965987
0.96565
0.965155
0.964138
0.963346
0.963222
0.963202
0.963447
0.963813
0.963785
0.96363
0.963286
0.962523
0.961823
0.961702
0.961705
0.961794
0.961815
0.961801
0.961677
0.96128
0.960501
0.96011
0.960103
0.960179
0.960559
0.961077
0.961246
0.961242
0.961215
0.96104
0.960428
0.959386
0.95892
0.958937
0.959288
0.960098
0.961124
0.961596
0.961697
0.961692
0.961527
0.960994
0.960468
0.960315
0.960346
0.960565
0.960883
0.961293
0.961881
0.962617
1.01036
1.00986
1.00956
1.00932
1.00877
1.0081
1.00733
1.00624
1.00471
1.00368
1.0031
1.00265
1.00245
1.00238
1.00193
1.00126
1.00042
0.999166
0.997692
0.996877
0.996325
0.995955
0.995897
0.995769
0.995279
0.994686
0.993916
0.992651
0.99118
0.990376
0.989811
0.989414
0.989342
0.989319
0.98892
0.988433
0.987838
0.986833
0.98519
0.984031
0.98345
0.983027
0.982939
0.983174
0.982892
0.982444
0.982022
0.981356
0.979983
0.978808
0.978384
0.978102
0.97802
0.977854
0.977265
0.97658
0.975801
0.974942
0.974573
0.974455
0.974406
0.974325
0.974065
0.973453
0.972445
0.971709
0.971204
0.970874
0.970685
0.970507
0.970353
0.970116
0.969578
0.968535
0.967941
0.96773
0.96755
0.967512
0.9677
0.967672
0.967353
0.966986
0.96645
0.965346
0.964398
0.964266
0.964244
0.964482
0.964893
0.964887
0.96478
0.964489
0.963782
0.962695
0.962306
0.962235
0.962273
0.962298
0.962281
0.962181
0.961875
0.961122
0.960541
0.960502
0.960519
0.960713
0.961075
0.961188
0.96121
0.961182
0.960973
0.960274
0.959214
0.958874
0.958885
0.95917
0.959967
0.96091
0.961258
0.961311
0.961287
0.960882
0.95999
0.95967
0.959763
0.960142
0.960565
0.960765
0.961037
0.961383
0.961628
0.961802
1.0157
1.01536
1.0151
1.01457
1.0139
1.01314
1.01214
1.01077
1.00967
1.00903
1.00855
1.00826
1.00812
1.00768
1.00703
1.00625
1.00515
1.0038
1.00291
1.00232
1.00185
1.00159
1.00135
1.00085
1.00027
0.999555
0.998496
0.997183
0.996338
0.995708
0.995171
0.994866
0.994685
0.994233
0.993727
0.99315
0.99228
0.990981
0.990041
0.989466
0.988978
0.988692
0.988526
0.988047
0.987588
0.987138
0.98644
0.985171
0.984241
0.983856
0.983579
0.983465
0.983086
0.982378
0.981567
0.98052
0.979542
0.979176
0.979048
0.979037
0.978946
0.978664
0.978142
0.97714
0.975993
0.97529
0.974733
0.974433
0.974214
0.973979
0.973766
0.973421
0.972596
0.971617
0.971267
0.970981
0.970736
0.970751
0.970776
0.970424
0.970067
0.969635
0.968716
0.967667
0.967448
0.967389
0.967428
0.967665
0.967648
0.967493
0.96714
0.966394
0.965267
0.964783
0.964655
0.964708
0.964719
0.964573
0.96437
0.963989
0.963226
0.962752
0.962693
0.962688
0.962842
0.963007
0.963028
0.963017
0.962896
0.962465
0.961497
0.96079
0.960671
0.960668
0.960911
0.961608
0.9622
0.962365
0.962434
0.962405
0.96196
0.960993
0.960638
0.960669
0.960961
0.961689
0.962242
0.962426
0.962446
0.962297
0.9623
0.962442
1.02078
1.02047
1.01988
1.0192
1.01841
1.01738
1.01609
1.01516
1.0146
1.01418
1.01396
1.01369
1.01316
1.01247
1.01155
1.0103
1.00927
1.00865
1.00819
1.00787
1.00751
1.00699
1.00638
1.00564
1.00462
1.00357
1.00281
1.00218
1.00165
1.0013
1.00098
1.0004
0.999787
0.999119
0.998229
0.997246
0.996552
0.996021
0.995604
0.995367
0.995126
0.994514
0.993856
0.993228
0.992468
0.991376
0.990517
0.990091
0.989809
0.989653
0.989534
0.989059
0.988348
0.987512
0.986333
0.985054
0.984555
0.984383
0.984395
0.984403
0.984188
0.983779
0.983129
0.981979
0.980665
0.97996
0.979513
0.979345
0.979203
0.978976
0.978755
0.978428
0.977705
0.976558
0.975938
0.975548
0.975243
0.975205
0.975135
0.974835
0.974567
0.9742
0.973389
0.972455
0.972149
0.971998
0.971979
0.972041
0.971941
0.971708
0.971302
0.97047
0.969591
0.969305
0.969202
0.969222
0.969049
0.968761
0.968397
0.967737
0.967223
0.967132
0.967092
0.96714
0.96721
0.967177
0.967056
0.966783
0.966211
0.965258
0.964812
0.964767
0.964753
0.964906
0.965358
0.965536
0.965591
0.96558
0.96526
0.964291
0.963521
0.963426
0.963447
0.963666
0.964312
0.965138
0.96551
0.965626
0.965665
0.965514
0.964726
0.964053
1.02528
1.02478
1.02415
1.02333
1.02219
1.02085
1.02003
1.0195
1.01913
1.01901
1.01881
1.01831
1.01766
1.01678
1.01545
1.01423
1.01358
1.0131
1.01283
1.01262
1.01222
1.01166
1.01091
1.00971
1.00836
1.00762
1.00706
1.00663
1.00651
1.00633
1.00575
1.00512
1.0044
1.0033
1.00205
1.00139
1.00093
1.0006
1.00058
1.00053
0.999969
0.999316
0.998662
0.997772
0.996428
0.995557
0.995193
0.99492
0.994811
0.994836
0.994536
0.993935
0.99322
0.992258
0.990815
0.989881
0.989548
0.989389
0.98944
0.989426
0.989151
0.988678
0.988003
0.986854
0.985355
0.984635
0.984306
0.984186
0.9843
0.984212
0.983988
0.983669
0.983161
0.982133
0.980704
0.980022
0.97968
0.979483
0.979556
0.979586
0.979399
0.979143
0.978741
0.977949
0.976801
0.976254
0.976025
0.975936
0.97602
0.976019
0.975884
0.97561
0.975159
0.974311
0.973219
0.972733
0.972552
0.972509
0.972548
0.972576
0.972578
0.972517
0.972348
0.971979
0.971179
0.970391
0.970099
0.969969
0.96993
0.969963
0.970089
0.970157
0.97018
0.970174
0.970118
0.96995
0.969524
0.968741
0.968061
0.967887
0.96788
0.967892
0.968025
0.968306
0.96853
0.968674
0.968794
0.968854
0.968825
0.968456
0.967876
0.96782
1.02942
1.02903
1.02841
1.02749
1.0261
1.02493
1.02434
1.02388
1.02361
1.02359
1.02334
1.02276
1.02205
1.02109
1.01965
1.01849
1.01783
1.01729
1.01695
1.01683
1.01653
1.01598
1.01522
1.01401
1.01249
1.01166
1.01109
1.0107
1.01068
1.01058
1.01007
1.0095
1.00877
1.00746
1.00602
1.00536
1.00491
1.00464
1.0047
1.00453
1.00398
1.00338
1.0027
1.00157
1.00023
0.999601
0.999198
0.998941
0.998944
0.998903
0.998488
0.997916
0.997221
0.99612
0.994795
0.994207
0.993896
0.993738
0.993833
0.99381
0.993475
0.992995
0.992351
0.991201
0.989639
0.988958
0.988666
0.988506
0.988584
0.988712
0.988525
0.988187
0.987698
0.986838
0.985275
0.98421
0.983865
0.983657
0.983663
0.98395
0.983862
0.983613
0.983274
0.982708
0.981579
0.980522
0.980193
0.980023
0.979986
0.980236
0.980286
0.980148
0.979866
0.979311
0.978194
0.977226
0.976974
0.97686
0.976884
0.977255
0.977342
0.977268
0.977094
0.976669
0.975649
0.97459
0.974338
0.97426
0.974335
0.974831
0.974995
0.974978
0.974954
0.974784
0.974235
0.973177
0.972582
0.972499
0.972503
0.972641
0.972839
0.972845
0.972829
0.972743
0.972585
0.97254
0.972545
0.97253
0.972369
0.972062
0.972023
0.972189
1.0334
1.03334
1.03282
1.03207
1.03092
1.02959
1.02886
1.02836
1.02796
1.02784
1.02781
1.02729
1.02656
1.02569
1.02444
1.02302
1.02216
1.02153
1.02108
1.02095
1.02078
1.02027
1.01961
1.01873
1.01734
1.01597
1.01528
1.01482
1.01465
1.01466
1.01433
1.01381
1.01318
1.0122
1.01062
1.00946
1.0089
1.00851
1.00839
1.0083
1.00788
1.00732
1.00663
1.0055
1.00412
1.00343
1.00298
1.00271
1.00271
1.00257
1.00211
1.0016
1.00094
0.999827
0.998611
0.998112
0.9978
0.997623
0.99767
0.997622
0.997303
0.996866
0.996275
0.995178
0.993549
0.992783
0.992469
0.992256
0.992243
0.992475
0.992376
0.992068
0.991636
0.990948
0.989547
0.988044
0.987555
0.987313
0.987237
0.987604
0.987747
0.987524
0.987241
0.986846
0.986036
0.984738
0.984146
0.98395
0.983856
0.98399
0.984147
0.984063
0.983906
0.98359
0.982862
0.981768
0.981334
0.981187
0.981126
0.981294
0.981476
0.981408
0.981271
0.980941
0.980131
0.979096
0.978829
0.978763
0.978814
0.979086
0.979135
0.979147
0.979086
0.978823
0.978034
0.976949
0.976699
0.976669
0.976722
0.977075
0.977224
0.977209
0.97718
0.977041
0.976623
0.975937
0.975731
0.975736
0.975846
0.97608
0.976227
0.976269
1.0377
1.03791
1.03756
1.037
1.03623
1.035
1.03357
1.03276
1.03221
1.03187
1.03185
1.03164
1.03102
1.03027
1.0293
1.02784
1.02656
1.02586
1.02533
1.02504
1.02494
1.02456
1.02399
1.02332
1.02239
1.0209
1.01963
1.01903
1.01863
1.01847
1.01841
1.01804
1.01748
1.01678
1.0157
1.01406
1.01295
1.01241
1.01204
1.01192
1.01178
1.01134
1.01075
1.00992
1.0086
1.00742
1.00687
1.0065
1.00639
1.00633
1.00596
1.00549
1.00493
1.00403
1.00271
1.00196
1.00158
1.00131
1.00126
1.00128
1.00104
1.00063
1.0001
0.999223
0.997657
0.996536
0.996135
0.995857
0.995758
0.996023
0.996073
0.995843
0.995519
0.995028
0.994032
0.992307
0.991375
0.991094
0.990931
0.991066
0.991411
0.991275
0.991062
0.990775
0.99025
0.989111
0.988136
0.987877
0.987745
0.987743
0.987827
0.987806
0.987715
0.987487
0.986971
0.985979
0.985351
0.985148
0.985036
0.985041
0.985151
0.98512
0.985014
0.984761
0.984195
0.983188
0.982702
0.982617
0.9826
0.982694
0.982787
0.982786
0.982712
0.982488
0.981956
0.981028
0.980605
0.980512
0.980472
0.980563
0.980678
0.980655
0.980601
0.980449
0.98003
0.979239
0.978903
0.978861
0.978889
0.979136
0.979264
0.979188
1.04302
1.04299
1.04289
1.04238
1.04165
1.0406
1.03895
1.03736
1.03655
1.036
1.03575
1.03582
1.03546
1.0348
1.03402
1.03283
1.03111
1.03007
1.02951
1.0291
1.02901
1.02897
1.0285
1.0279
1.02716
1.02592
1.02431
1.02348
1.02299
1.02268
1.02265
1.02248
1.02196
1.02131
1.02044
1.01896
1.01738
1.01667
1.01623
1.01603
1.01606
1.0158
1.01528
1.01461
1.01352
1.01203
1.01125
1.01084
1.01066
1.01067
1.01044
1.00999
1.00948
1.00872
1.0074
1.00626
1.00578
1.00544
1.0053
1.00534
1.00515
1.00476
1.00427
1.00355
1.00217
1.00063
1.00004
0.999728
0.999555
0.999682
0.999894
0.999757
0.999532
0.99917
0.998479
0.996963
0.995551
0.995154
0.99494
0.994888
0.995138
0.99513
0.994943
0.994677
0.994248
0.99332
0.992162
0.991782
0.991621
0.991582
0.991638
0.991617
0.9915
0.991249
0.990746
0.989793
0.989108
0.988866
0.988714
0.988688
0.988733
0.988685
0.988546
0.988299
0.987821
0.986888
0.986263
0.986125
0.986058
0.986073
0.986234
0.986242
0.986167
0.985975
0.985605
0.984843
0.984042
0.983792
0.98367
0.983663
0.983699
0.983676
0.983629
0.983489
0.983053
0.982269
0.98187
0.981704
0.981662
0.981733
0.981667
0.98145
1.04967
1.04907
1.04896
1.04856
1.04769
1.04659
1.04493
1.04265
1.04127
1.04053
1.04007
1.04007
1.03991
1.03929
1.03855
1.03749
1.0357
1.03436
1.03376
1.03335
1.03326
1.03335
1.03299
1.03241
1.03167
1.03041
1.02864
1.02771
1.02717
1.0268
1.02676
1.0267
1.02623
1.02563
1.02485
1.0235
1.0218
1.02101
1.02058
1.02036
1.0204
1.0202
1.01973
1.01915
1.01821
1.01671
1.01576
1.01533
1.01509
1.0151
1.01498
1.01457
1.01405
1.0133
1.01196
1.01071
1.0102
1.00985
1.0097
1.00973
1.00958
1.00921
1.00875
1.00808
1.00675
1.00512
1.0045
1.00419
1.00402
1.00409
1.00418
1.00406
1.00381
1.00342
1.00264
1.00101
0.999753
0.999398
0.999176
0.999119
0.999322
0.999269
0.999015
0.998678
0.998164
0.997112
0.995979
0.995631
0.995451
0.995392
0.995439
0.995386
0.995192
0.99486
0.994257
0.993319
0.992796
0.992543
0.992392
0.992388
0.992327
0.992137
0.991882
0.991481
0.990685
0.989837
0.989565
0.989428
0.989375
0.989548
0.989695
0.989599
0.989415
0.989086
0.988444
0.987331
0.986645
0.986401
0.986297
0.986445
0.986479
0.986483
0.986485
0.986349
0.985745
0.984882
0.984432
0.984143
0.984049
0.98386
0.983646
0.983399
1.05728
1.05631
1.05576
1.055
1.05395
1.05274
1.05108
1.04864
1.04681
1.04589
1.04529
1.04517
1.045
1.04436
1.0436
1.04253
1.0406
1.03882
1.03809
1.03761
1.03748
1.0376
1.03725
1.03661
1.03575
1.03425
1.03239
1.03151
1.03097
1.03066
1.03075
1.03064
1.03014
1.02956
1.02873
1.02715
1.02562
1.02503
1.02466
1.02454
1.02466
1.02445
1.02403
1.02346
1.02251
1.02089
1.01986
1.01942
1.01916
1.01915
1.01905
1.01863
1.01808
1.01728
1.01587
1.01463
1.01415
1.01383
1.0137
1.01374
1.01356
1.01317
1.01267
1.01189
1.01047
1.00922
1.00878
1.00849
1.00838
1.0085
1.0085
1.00831
1.00799
1.00749
1.00643
1.00465
1.00373
1.0034
1.00315
1.00311
1.00335
1.00325
1.00291
1.0025
1.00188
1.00068
0.999659
0.999334
0.999119
0.999055
0.999045
0.998843
0.998511
0.998001
0.997151
0.99653
0.996216
0.996001
0.995939
0.995833
0.995597
0.995304
0.994884
0.994096
0.993088
0.992677
0.992484
0.992382
0.992523
0.992772
0.992671
0.992474
0.992159
0.991596
0.990451
0.989256
0.988801
0.988566
0.98857
0.988842
0.988831
0.988894
0.988907
0.988669
0.987794
0.987016
0.986564
0.986222
0.985909
0.985522
0.985257
0.984889
1.06066
1.06019
1.06013
1.05967
1.05878
1.05773
1.05635
1.05435
1.05251
1.05142
1.05058
1.05017
1.05011
1.04961
1.0488
1.04774
1.04598
1.04406
1.04314
1.04253
1.04226
1.04225
1.04181
1.04103
1.04
1.0383
1.0364
1.03552
1.03497
1.0347
1.03478
1.03451
1.03395
1.03333
1.03241
1.03066
1.02921
1.02867
1.02833
1.0283
1.02848
1.02821
1.02778
1.0272
1.02613
1.02445
1.02351
1.02307
1.02278
1.02275
1.02262
1.02216
1.0216
1.02076
1.01931
1.01818
1.01776
1.01747
1.0174
1.01741
1.01714
1.01671
1.01617
1.01527
1.01368
1.01255
1.01212
1.01182
1.01171
1.01183
)
;

boundaryField
{
    inlet
    {
        type            fixedValue;
        value           nonuniform 0();
    }
    outlet
    {
        type            inletOutlet;
        inletValue      uniform 1;
        value           nonuniform List<scalar> 
18
(
1.18838
1.11756
1.06161
1.01816
0.988439
0.972162
0.965113
0.962751
0.961848
0.962486
0.964035
0.967871
0.972267
0.976318
0.979236
0.981476
0.983398
0.984859
)
;
    }
    bottom
    {
        type            symmetryPlane;
    }
    top
    {
        type            symmetryPlane;
    }
    obstacle
    {
        type            zeroGradient;
    }
    front
    {
        type            empty;
    }
    back
    {
        type            empty;
    }
    procBoundary15to7
    {
        type            processor;
        value           nonuniform List<scalar> 
133
(
1.24792
1.24406
1.24235
1.24207
1.24203
1.24209
1.24308
1.24548
1.24682
1.24681
1.24696
1.2469
1.2463
1.24406
1.24051
1.2393
1.23926
1.23952
1.24047
1.24287
1.24469
1.245
1.24555
1.24621
1.24679
1.24698
1.24666
1.24536
1.24363
1.24257
1.24241
1.24253
1.24292
1.24392
1.24533
1.24612
1.24636
1.24643
1.24619
1.24504
1.24275
1.2393
1.23485
1.23232
1.23167
1.23146
1.23169
1.23322
1.23611
1.23776
1.23796
1.23773
1.23662
1.23402
1.23113
1.23075
1.23165
1.23326
1.23557
1.2392
1.24444
1.24821
1.24983
1.25074
1.25082
1.24896
1.24339
1.24098
1.24123
1.24152
1.24252
1.24584
1.25071
1.25185
1.25119
1.24954
1.24722
1.24235
1.23669
1.2349
1.23388
1.2335
1.23458
1.23935
1.24239
1.24282
1.24328
1.24368
1.24292
1.24032
1.2393
1.24068
1.24284
1.24509
1.24826
1.25329
1.25715
1.25835
1.2599
1.13348
1.13511
1.13691
1.13845
1.13953
1.14004
1.13996
1.13887
1.13827
1.13895
1.14095
1.14343
1.14623
1.14864
1.15098
1.15321
1.155
1.15585
1.1557
1.15487
1.15513
1.15728
1.16004
1.16261
1.16527
1.16762
1.16908
1.16989
1.17012
1.16984
1.16817
1.16613
1.16556
1.16556
)
;
    }
    procBoundary15to14
    {
        type            processor;
        value           nonuniform List<scalar> 
17
(
1.07596
1.03972
1.01851
1.00812
1.00441
1.00398
1.00619
1.01093
1.01618
1.02101
1.02552
1.02956
1.03315
1.03767
1.0435
1.05083
1.05832
)
;
    }
    procBoundary15to22
    {
        type            processor;
        value           uniform 1.06097;
    }
    procBoundary15to23
    {
        type            processor;
        value           nonuniform List<scalar> 
133
(
1.01174
1.01146
1.01104
1.01038
1.00911
1.00762
1.00703
1.00668
1.00644
1.00649
1.00662
1.00636
1.00597
1.00547
1.00457
1.00333
1.00277
1.00247
1.0023
1.00221
1.00197
1.00163
1.00111
1.00026
0.999603
0.999262
0.999003
0.99891
0.998802
0.998529
0.998209
0.997797
0.997084
0.995941
0.995286
0.995036
0.994881
0.99492
0.99518
0.995113
0.994914
0.994613
0.994098
0.993022
0.991656
0.991014
0.990694
0.99058
0.990802
0.990792
0.990805
0.990843
0.990744
0.990105
0.989272
0.988851
0.988483
0.988048
0.98749
0.98695
0.986334
0.986077
1.06064
1.06173
1.06156
1.06157
1.06098
1.06011
1.05923
1.0579
1.05613
1.05506
1.05438
1.05391
1.05376
1.05352
1.05295
1.05211
1.05087
1.04928
1.04823
1.04749
1.04693
1.0467
1.04624
1.04539
1.04433
1.04283
1.04104
1.03998
1.03933
1.03894
1.03879
1.03836
1.03773
1.03706
1.03613
1.03455
1.03309
1.03247
1.03207
1.03189
1.0317
1.03128
1.03076
1.03011
1.02902
1.02735
1.0263
1.02578
1.02536
1.02514
1.02495
1.02451
1.02396
1.02325
1.02207
1.02067
1.02006
1.01968
1.01945
1.01945
1.01938
1.01901
1.01849
1.01771
1.01638
1.01522
1.01474
1.01439
1.01423
1.01174
1.01428
)
;
    }
}


// ************************************************************************* //
