/*--------------------------------*- C++ -*----------------------------------*\
  =========                 |
  \\      /  F ield         | OpenFOAM: The Open Source CFD Toolbox
   \\    /   O peration     | Website:  https://openfoam.org
    \\  /    A nd           | Version:  7
     \\/     M anipulation  |
\*---------------------------------------------------------------------------*/
FoamFile
{
    version     2.0;
    format      ascii;
    class       volScalarField;
    location    "0.453";
    object      p;
}
// * * * * * * * * * * * * * * * * * * * * * * * * * * * * * * * * * * * * * //

dimensions      [0 2 -2 0 0 0 0];

internalField   nonuniform List<scalar> 
40000
(
8.98802e-06
0.000108123
0.000169217
0.000153861
4.78089e-05
-0.000153382
-0.000447562
-0.000828916
-0.00129
-0.00182279
-0.00241914
-0.00307112
-0.0037711
-0.00451184
-0.00528653
-0.00608875
-0.00691253
-0.00775224
-0.00860265
-0.00945888
-0.0103164
-0.0111709
-0.0120184
-0.0128554
-0.0136782
-0.0144838
-0.0152692
-0.0160316
-0.0167685
-0.0174774
-0.0181563
-0.0188029
-0.0194156
-0.0199926
-0.0205322
-0.0210331
-0.0214939
-0.0219134
-0.0222905
-0.0226244
-0.022914
-0.0231587
-0.0233577
-0.0235105
-0.0236166
-0.0236756
-0.0236871
-0.0236509
-0.0235667
-0.0234346
-0.0232544
-0.0230262
-0.02275
-0.0224259
-0.0220543
-0.0216352
-0.0211691
-0.0206563
-0.0200971
-0.0194921
-0.0188417
-0.0181465
-0.0174071
-0.016624
-0.0157979
-0.0149296
-0.0140197
-0.0130691
-0.0120785
-0.0110488
-0.00998088
-0.0088756
-0.00773391
-0.00655677
-0.00534516
-0.0041001
-0.00282264
-0.00151383
-0.000174768
0.00119343
0.00258964
0.00401269
0.00546141
0.00693459
0.00843103
0.00994947
0.0114887
0.0130474
0.0146242
0.016218
0.0178273
0.0194509
0.0210874
0.0227354
0.0243936
0.0260605
0.0277348
0.0294151
0.0311
0.0327881
0.0344778
0.0361679
0.0378569
0.0395433
0.0412257
0.0429026
0.0445727
0.0462344
0.0478863
0.0495271
0.0511552
0.0527692
0.0543677
0.0559493
0.0575125
0.0590561
0.0605785
0.0620784
0.0635545
0.0650054
0.0664297
0.0678263
0.0691937
0.0705307
0.071836
0.0731085
0.0743469
0.0755501
0.0767169
0.0778462
0.0789369
0.079988
0.0809985
0.0819675
0.0828938
0.0837768
0.0846155
0.0854092
0.0861571
0.0868584
0.0875126
0.088119
0.0886771
0.0891864
0.0896465
0.090057
0.0904176
0.0907281
0.0909882
0.091198
0.0913574
0.0914664
0.0915251
0.0915338
0.0914928
0.0914024
0.0912631
0.0910755
0.0908402
0.090558
0.0902297
0.0898563
0.0894388
0.0889785
0.0884766
0.0879345
0.0873538
0.0867362
0.0860835
0.0853976
0.0846807
0.0839349
0.0831628
0.0823669
0.08155
0.0807151
0.0798652
0.0790039
0.0781347
0.0772615
0.0763882
0.0755194
0.0746596
0.0738137
0.072987
0.0721852
0.071414
0.0706798
0.0699893
0.0693495
0.0687675
0.0682511
0.0678078
0.0674449
0.0671693
0.0669856
0.0668948
0.0668911
0.0669577
0.0670515
-7.68903e-05
1.66048e-05
5.28611e-05
1.61803e-05
-9.70523e-05
-0.000291018
-0.000565538
-0.000917008
-0.0013401
-0.00182863
-0.00237598
-0.00297545
-0.00362042
-0.00430446
-0.00502143
-0.00576545
-0.00653098
-0.00731276
-0.00810588
-0.00890568
-0.00970784
-0.0105083
-0.0113031
-0.0120889
-0.0128622
-0.01362
-0.0143593
-0.0150774
-0.0157719
-0.0164403
-0.0170806
-0.0176906
-0.0182687
-0.0188129
-0.0193218
-0.019794
-0.020228
-0.0206227
-0.020977
-0.0212899
-0.0215606
-0.0217881
-0.021972
-0.0221115
-0.0222061
-0.0222554
-0.0222591
-0.0222169
-0.0221285
-0.0219938
-0.0218127
-0.0215853
-0.0213116
-0.0209917
-0.0206257
-0.0202139
-0.0197566
-0.0192541
-0.0187067
-0.0181149
-0.0174792
-0.0168
-0.0160779
-0.0153135
-0.0145074
-0.0136603
-0.012773
-0.011846
-0.0108803
-0.00987656
-0.0088357
-0.00775857
-0.00664606
-0.0054991
-0.00431865
-0.00310568
-0.00186122
-0.000586289
0.000718054
0.00205073
0.00341063
0.00479664
0.0062076
0.00764236
0.00909972
0.0105785
0.0120774
0.0135953
0.0151309
0.0166829
0.01825
0.019831
0.0214245
0.0230292
0.0246438
0.0262669
0.0278971
0.0295332
0.0311737
0.0328172
0.0344624
0.0361079
0.0377522
0.039394
0.0410319
0.0426645
0.0442903
0.045908
0.0475161
0.0491133
0.0506982
0.0522693
0.0538254
0.0553649
0.0568866
0.0583891
0.0598711
0.0613311
0.062768
0.0641803
0.0655668
0.0669262
0.0682573
0.0695589
0.0708297
0.0720686
0.0732743
0.0744458
0.075582
0.0766818
0.0777442
0.0787681
0.0797526
0.0806968
0.0815997
0.0824605
0.0832785
0.0840528
0.0847827
0.0854676
0.0861068
0.0866998
0.0872461
0.0877452
0.0881967
0.0886003
0.0889558
0.0892628
0.0895213
0.0897312
0.0898925
0.0900052
0.0900696
0.0900858
0.0900542
0.0899752
0.0898492
0.0896768
0.0894587
0.0891957
0.0888886
0.0885383
0.088146
0.0877129
0.0872401
0.0867292
0.0861816
0.0855991
0.0849833
0.0843364
0.0836602
0.0829571
0.0822295
0.0814798
0.0807107
0.0799253
0.0791266
0.0783177
0.0775023
0.076684
0.0758668
0.0750548
0.0742524
0.0734643
0.0726954
0.071951
0.0712365
0.0705576
0.0699203
0.0693309
0.0687956
0.0683207
0.0679124
0.0675763
0.067317
0.0671374
0.0670366
0.0670096
0.0670514
0.0671452
-0.000135332
-1.89009e-05
1.71638e-05
-2.55428e-05
-0.000139616
-0.000326987
-0.000587388
-0.00091778
-0.00131377
-0.00177019
-0.00228142
-0.0028416
-0.00344488
-0.00408548
-0.00475777
-0.00545636
-0.00617608
-0.00691201
-0.0076595
-0.00841415
-0.0091718
-0.00992855
-0.0106807
-0.0114249
-0.0121578
-0.0128764
-0.0135779
-0.0142596
-0.0149191
-0.0155541
-0.0161625
-0.0167422
-0.0172914
-0.0178085
-0.0182918
-0.01874
-0.0191516
-0.0195256
-0.0198608
-0.0201561
-0.0204109
-0.0206241
-0.0207952
-0.0209235
-0.0210084
-0.0210496
-0.0210467
-0.0209993
-0.0209073
-0.0207704
-0.0205886
-0.0203619
-0.0200903
-0.0197738
-0.0194126
-0.019007
-0.0185571
-0.0180633
-0.0175259
-0.0169453
-0.0163219
-0.0156563
-0.0149489
-0.0142003
-0.0134112
-0.0125821
-0.0117138
-0.010807
-0.00986232
-0.00888065
-0.00786277
-0.00680954
-0.00572182
-0.0046005
-0.00344653
-0.00226084
-0.00104443
0.000201704
0.00147653
0.00277899
0.00410803
0.00546253
0.00684139
0.00824346
0.00966759
0.0111126
0.0125773
0.0140605
0.015561
0.0170774
0.0186087
0.0201534
0.0217104
0.0232782
0.0248557
0.0264415
0.0280343
0.0296327
0.0312355
0.0328412
0.0344484
0.036056
0.0376624
0.0392663
0.0408664
0.0424612
0.0440495
0.0456298
0.0472007
0.0487609
0.0503091
0.0518439
0.0533639
0.0548678
0.0563542
0.0578219
0.0592695
0.0606957
0.0620993
0.0634789
0.0648333
0.0661613
0.0674617
0.0687333
0.0699748
0.0711852
0.0723633
0.073508
0.0746183
0.0756932
0.0767315
0.0777324
0.078695
0.0796182
0.0805013
0.0813435
0.0821439
0.0829018
0.0836166
0.0842877
0.0849143
0.085496
0.0860323
0.0865228
0.0869672
0.087365
0.087716
0.0880202
0.0882772
0.0884872
0.0886501
0.0887661
0.0888352
0.0888577
0.088834
0.0887645
0.0886496
0.08849
0.0882863
0.0880393
0.0877499
0.0874189
0.0870476
0.086637
0.0861885
0.0857034
0.0851833
0.0846298
0.0840447
0.0834299
0.0827874
0.0821194
0.0814283
0.0807165
0.0799867
0.0792417
0.0784845
0.0777183
0.0769464
0.0761725
0.0754003
0.0746337
0.073877
0.0731346
0.0724112
0.0717116
0.0710409
0.0704044
0.0698076
0.0692559
0.068755
0.0683104
0.0679272
0.0676101
0.067363
0.0671881
0.0670851
0.0670513
0.0670932
0.0672118
-0.000119765
1.81086e-05
6.02833e-05
1.76148e-05
-9.49523e-05
-0.00027701
-0.000527433
-0.000842975
-0.00121951
-0.00165238
-0.00213654
-0.00266676
-0.00323771
-0.00384414
-0.00448088
-0.00514292
-0.00582545
-0.00652385
-0.00723373
-0.0079509
-0.00867141
-0.00939152
-0.0101077
-0.0108166
-0.0115152
-0.0122004
-0.0128696
-0.0135201
-0.0141495
-0.0147557
-0.0153365
-0.0158899
-0.0164141
-0.0169076
-0.0173686
-0.0177958
-0.018188
-0.0185438
-0.0188622
-0.0191422
-0.0193829
-0.0195835
-0.0197433
-0.0198617
-0.0199381
-0.0199722
-0.0199634
-0.0199115
-0.0198162
-0.0196774
-0.019495
-0.0192689
-0.0189991
-0.0186857
-0.0183287
-0.0179285
-0.0174853
-0.0169992
-0.0164706
-0.0159
-0.0152876
-0.0146341
-0.0139399
-0.0132054
-0.0124314
-0.0116184
-0.0107671
-0.00987822
-0.0089524
-0.00799042
-0.00699309
-0.00596122
-0.00489565
-0.00379727
-0.00266697
-0.00150568
-0.000314357
0.000906013
0.00215443
0.00342987
0.00473127
0.00605758
0.0074077
0.00878052
0.0101749
0.0115897
0.0130238
0.0144759
0.0159449
0.0174296
0.0189287
0.020441
0.0219652
0.0235002
0.0250445
0.0265969
0.0281561
0.0297209
0.0312899
0.0328617
0.0344351
0.0360087
0.0375812
0.0391512
0.0407175
0.0422786
0.0438333
0.0453801
0.0469178
0.048445
0.0499605
0.0514627
0.0529505
0.0544226
0.0558775
0.0573141
0.0587311
0.0601271
0.061501
0.0628515
0.0641773
0.0654773
0.0667503
0.0679951
0.0692106
0.0703956
0.0715491
0.07267
0.0737573
0.07481
0.075827
0.0768074
0.0777504
0.0786551
0.0795206
0.0803462
0.081131
0.0818745
0.0825758
0.0832346
0.08385
0.0844217
0.0849492
0.0854321
0.08587
0.0862627
0.0866099
0.0869115
0.0871673
0.0873774
0.0875417
0.0876604
0.0877336
0.0877617
0.0877449
0.0876837
0.0875786
0.0874302
0.0872391
0.0870061
0.0867321
0.086418
0.0860649
0.085674
0.0852466
0.084784
0.0842877
0.0837593
0.0832007
0.0826136
0.0820001
0.0813623
0.0807025
0.0800232
0.0793268
0.0786162
0.0778943
0.077164
0.0764288
0.075692
0.0749573
0.0742284
0.0735094
0.0728044
0.0721179
0.0714544
0.0708186
0.0702155
0.0696501
0.0691273
0.0686523
0.0682299
0.0678649
0.0675615
0.0673232
0.0671529
0.067051
0.0670173
0.0670662
0.0672084
-1.39255e-05
0.000131512
0.000174719
0.000130644
1.81075e-05
-0.000160829
-0.000404247
-0.000708618
-0.00106991
-0.00148377
-0.0019456
-0.00245062
-0.00299399
-0.00357087
-0.00417653
-0.00480632
-0.00545576
-0.00612051
-0.00679645
-0.00747961
-0.00816625
-0.00885278
-0.00953584
-0.0102122
-0.0108789
-0.0115331
-0.0121721
-0.0127935
-0.0133948
-0.0139738
-0.0145286
-0.0150573
-0.0155579
-0.016029
-0.0164689
-0.0168763
-0.0172498
-0.0175883
-0.0178908
-0.0181561
-0.0183834
-0.018572
-0.0187211
-0.01883
-0.0188983
-0.0189254
-0.0189111
-0.0188548
-0.0187565
-0.0186159
-0.0184328
-0.0182073
-0.0179393
-0.0176288
-0.0172761
-0.0168811
-0.0164442
-0.0159657
-0.0154457
-0.0148847
-0.0142831
-0.0136413
-0.0129597
-0.012239
-0.0114797
-0.0106823
-0.00984753
-0.00897602
-0.00806848
-0.00712564
-0.00614826
-0.00513714
-0.00409311
-0.003017
-0.00190971
-0.000772141
0.000394785
0.00159011
0.00281285
0.004062
0.00533654
0.00663543
0.0079576
0.00930197
0.0106674
0.0120529
0.0134571
0.014879
0.0163175
0.0177712
0.0192391
0.0207198
0.0222123
0.0237151
0.0252272
0.0267471
0.0282738
0.0298058
0.0313419
0.0328808
0.0344213
0.0359619
0.0375014
0.0390386
0.040572
0.0421004
0.0436224
0.0451368
0.0466422
0.0481374
0.049621
0.0510917
0.0525483
0.0539894
0.0554138
0.0568203
0.0582075
0.0595743
0.0609194
0.0622416
0.0635397
0.0648126
0.066059
0.0672779
0.0684682
0.0696287
0.0707583
0.0718562
0.0729212
0.0739523
0.0749487
0.0759094
0.0768335
0.0777202
0.0785687
0.0793782
0.080148
0.0808775
0.0815659
0.0822127
0.0828174
0.0833794
0.0838984
0.0843739
0.0848057
0.0851934
0.0855369
0.0858359
0.0860905
0.0863006
0.0864662
0.0865876
0.0866647
0.0866981
0.0866879
0.0866346
0.0865388
0.086401
0.0862218
0.0860021
0.0857428
0.0854447
0.085109
0.0847367
0.0843292
0.0838878
0.083414
0.0829094
0.0823756
0.0818146
0.0812283
0.0806188
0.0799883
0.0793392
0.078674
0.0779953
0.0773059
0.0766089
0.0759074
0.0752046
0.0745041
0.0738093
0.0731243
0.0724529
0.0717992
0.0711676
0.0705624
0.0699882
0.0694496
0.0689512
0.0684976
0.0680934
0.0677427
0.0674497
0.0672179
0.0670504
0.0669486
0.0669141
0.0669657
0.0671182
0.000186733
0.000325522
0.000362446
0.000313188
0.000197551
1.85708e-05
-0.000221272
-0.000518252
-0.0008684
-0.00126761
-0.0017116
-0.00219597
-0.00271629
-0.00326811
-0.00384704
-0.00444879
-0.00506918
-0.00570416
-0.00634985
-0.00700252
-0.0076586
-0.0083147
-0.00896761
-0.00961425
-0.0102518
-0.0108774
-0.0114885
-0.0120828
-0.012658
-0.0132118
-0.0137424
-0.0142479
-0.0147264
-0.0151765
-0.0155966
-0.0159853
-0.0163413
-0.0166636
-0.0169509
-0.0172024
-0.0174171
-0.0175942
-0.0177331
-0.0178331
-0.0178937
-0.0179143
-0.0178946
-0.0178343
-0.017733
-0.0175907
-0.0174071
-0.0171822
-0.0169159
-0.0166083
-0.0162596
-0.0158697
-0.015439
-0.0149677
-0.014456
-0.0139043
-0.013313
-0.0126825
-0.0120133
-0.0113058
-0.0105606
-0.0097783
-0.00895948
-0.00810479
-0.0072149
-0.00629054
-0.00533244
-0.00434137
-0.00331813
-0.00226356
-0.0011785
-6.3851e-05
0.0010795
0.00225061
0.00344852
0.00467227
0.00592084
0.00719322
0.00848837
0.00980522
0.0111427
0.0124997
0.0138752
0.0152679
0.0166767
0.0181006
0.0195382
0.0209885
0.0224501
0.023922
0.0254029
0.0268915
0.0283866
0.029887
0.0313914
0.0328985
0.0344071
0.0359159
0.0374236
0.0389289
0.0404306
0.0419273
0.0434179
0.0449009
0.0463752
0.0478394
0.0492922
0.0507325
0.052159
0.0535703
0.0549653
0.0563427
0.0577012
0.0590398
0.0603572
0.0616521
0.0629236
0.0641703
0.0653911
0.0665851
0.067751
0.0688879
0.0699947
0.0710703
0.0721138
0.0731243
0.0741009
0.0750425
0.0759485
0.0768179
0.0776501
0.0784442
0.0791996
0.0799155
0.0805915
0.0812269
0.0818212
0.082374
0.0828848
0.0833532
0.083779
0.084162
0.0845018
0.0847984
0.0850518
0.0852618
0.0854287
0.0855525
0.0856333
0.0856716
0.0856677
0.0856219
0.0855348
0.0854069
0.0852391
0.0850319
0.0847864
0.0845033
0.0841839
0.0838291
0.0834403
0.0830188
0.082566
0.0820835
0.0815731
0.0810364
0.0804753
0.0798921
0.0792887
0.0786675
0.0780309
0.0773816
0.0767221
0.0760554
0.0753845
0.0747125
0.0740428
0.0733787
0.0727239
0.0720822
0.0714573
0.0708534
0.0702746
0.069725
0.0692088
0.0687305
0.0682941
0.067904
0.067564
0.0672779
0.0670495
0.0668821
0.0667778
0.0667392
0.0667864
0.0669355
0.000480231
0.00060012
0.000623336
0.000564247
0.000441575
0.000258819
1.87909e-05
-0.000274724
-0.000617853
-0.00100669
-0.00143724
-0.00190543
-0.00240715
-0.0029383
-0.00349483
-0.00407275
-0.00466816
-0.0052773
-0.00589651
-0.00652227
-0.00715124
-0.00778017
-0.00840601
-0.00902585
-0.0096369
-0.0102366
-0.0108223
-0.0113919
-0.0119431
-0.0124737
-0.012982
-0.0134661
-0.0139242
-0.0143548
-0.0147564
-0.0151278
-0.0154675
-0.0157746
-0.0160478
-0.0162863
-0.0164892
-0.0166557
-0.016785
-0.0168766
-0.0169299
-0.0169445
-0.0169198
-0.0168557
-0.0167517
-0.0166078
-0.0164237
-0.0161994
-0.0159349
-0.0156301
-0.0152852
-0.0149002
-0.0144755
-0.0140111
-0.0135073
-0.0129646
-0.0123832
-0.0117635
-0.0111061
-0.0104113
-0.00967965
-0.00891178
-0.00810825
-0.00726968
-0.00639673
-0.00549008
-0.00455047
-0.00357863
-0.00257535
-0.00154143
-0.000477711
0.000614952
0.00173567
0.00288355
0.00405764
0.005257
0.00648065
0.00772758
0.00899679
0.0102872
0.0115979
0.0129276
0.0142754
0.0156401
0.0170205
0.0184157
0.0198243
0.0212453
0.0226775
0.0241196
0.0255705
0.0270291
0.0284939
0.029964
0.0314379
0.0329145
0.0343926
0.0358708
0.0373479
0.0388228
0.040294
0.0417605
0.0432208
0.0446738
0.0461182
0.0475528
0.0489762
0.0503874
0.0517849
0.0531677
0.0545345
0.0558841
0.0572152
0.0585268
0.0598176
0.0610865
0.0623324
0.0635541
0.0647506
0.0659207
0.0670634
0.0681777
0.0692625
0.070317
0.07134
0.0723308
0.0732884
0.0742119
0.0751005
0.0759535
0.0767701
0.0775495
0.078291
0.0789942
0.0796583
0.0802828
0.0808672
0.0814111
0.0819141
0.0823758
0.0827959
0.0831742
0.0835106
0.0838049
0.084057
0.084267
0.0844349
0.0845609
0.0846452
0.0846881
0.0846899
0.0846511
0.0845721
0.0844536
0.0842962
0.0841008
0.0838681
0.083599
0.0832947
0.0829562
0.0825847
0.0821816
0.0817483
0.0812863
0.0807972
0.0802829
0.0797451
0.0791859
0.0786073
0.0780116
0.0774011
0.0767783
0.0761458
0.0755064
0.0748629
0.0742184
0.073576
0.0729389
0.0723106
0.0716947
0.0710947
0.0705144
0.0699576
0.0694283
0.0689304
0.0684678
0.0680445
0.0676644
0.0673312
0.0670486
0.0668202
0.0666495
0.066539
0.0664919
0.0665276
0.0666611
0.000861024
0.000951943
0.000954565
0.000880767
0.000746828
0.000556362
0.00031233
1.84387e-05
-0.000321594
-0.000704072
-0.00112525
-0.00158136
-0.00206858
-0.00258313
-0.00312125
-0.00367924
-0.00425348
-0.00484044
-0.0054367
-0.00603895
-0.00664403
-0.00724889
-0.00785062
-0.00844643
-0.00903369
-0.00960989
-0.0101726
-0.0107197
-0.011249
-0.0117584
-0.0122462
-0.0127106
-0.0131498
-0.0135625
-0.0139471
-0.0143023
-0.014627
-0.0149199
-0.0151801
-0.0154065
-0.0155983
-0.0157548
-0.0158753
-0.0159591
-0.0160056
-0.0160145
-0.0159852
-0.0159175
-0.0158111
-0.0156657
-0.0154813
-0.0152576
-0.0149948
-0.0146927
-0.0143515
-0.0139713
-0.0135522
-0.0130945
-0.0125984
-0.0120642
-0.0114923
-0.010883
-0.0102369
-0.00955421
-0.0088356
-0.00808158
-0.00729271
-0.00646959
-0.00561287
-0.00472322
-0.00380133
-0.00284794
-0.0018638
-0.00084969
0.000193567
0.00126514
0.00236415
0.00348974
0.00464097
0.00581693
0.00701666
0.00823919
0.00948351
0.0107486
0.0120335
0.0133371
0.0146583
0.0159961
0.0173493
0.0187169
0.0200977
0.0214906
0.0228945
0.0243081
0.0257303
0.02716
0.0285958
0.0300367
0.0314815
0.0329288
0.0343776
0.0358266
0.0372744
0.0387201
0.0401622
0.0415995
0.043031
0.0444552
0.045871
0.0472771
0.0486724
0.0500557
0.0514256
0.0527811
0.0541209
0.0554438
0.0567487
0.0580345
0.0592999
0.0605439
0.0617654
0.0629632
0.0641363
0.0652837
0.0664042
0.0674969
0.0685609
0.0695951
0.0705986
0.0715705
0.07251
0.0734162
0.0742883
0.0751256
0.0759273
0.0766926
0.0774211
0.078112
0.0787647
0.0793789
0.0799538
0.0804893
0.0809848
0.08144
0.0818547
0.0822286
0.0825616
0.0828536
0.0831045
0.0833143
0.0834832
0.0836112
0.0836987
0.0837458
0.0837529
0.0837206
0.0836492
0.0835393
0.0833917
0.0832071
0.0829862
0.0827302
0.0824398
0.0821163
0.0817609
0.0813748
0.0809594
0.0805162
0.0800468
0.079553
0.0790365
0.0784992
0.0779432
0.0773706
0.0767837
0.0761848
0.0755766
0.0749616
0.0743425
0.0737223
0.0731039
0.0724904
0.0718851
0.0712913
0.0707123
0.0701518
0.0696132
0.0691003
0.0686166
0.0681659
0.0677518
0.0673779
0.0670479
0.0667651
0.0665331
0.0663555
0.0662348
0.0661745
0.0661919
0.0662998
0.00132201
0.00137597
0.00135201
0.00125887
0.00110951
0.000907453
0.00065569
0.000357736
1.70953e-05
-0.000362763
-0.000778352
-0.00122616
-0.00170267
-0.00220436
-0.00272777
-0.00326945
-0.00382603
-0.00439423
-0.00497084
-0.00555276
-0.00613701
-0.00672071
-0.0073011
-0.00787554
-0.00844152
-0.00899664
-0.00953863
-0.0100653
-0.0105747
-0.0110648
-0.0115339
-0.0119802
-0.0124022
-0.0127983
-0.0131672
-0.0135076
-0.0138183
-0.0140981
-0.0143461
-0.0145614
-0.014743
-0.0148902
-0.0150024
-0.0150789
-0.0151192
-0.0151228
-0.0150892
-0.0150183
-0.0149096
-0.0147629
-0.0145782
-0.0143553
-0.0140941
-0.0137947
-0.0134571
-0.0130815
-0.0126679
-0.0122166
-0.0117278
-0.0112019
-0.010639
-0.0100398
-0.00940439
-0.0087334
-0.00802727
-0.00728652
-0.00651171
-0.00570341
-0.00486225
-0.00398889
-0.003084
-0.00214829
-0.0011825
-0.000187392
0.000836239
0.00188758
0.00296578
0.00406998
0.0051993
0.00635281
0.0075296
0.00872871
0.00994916
0.01119
0.0124501
0.0137286
0.0150243
0.0163363
0.0176634
0.0190046
0.0203587
0.0217247
0.0231014
0.0244877
0.0258824
0.0272843
0.0286924
0.0301054
0.0315222
0.0329415
0.0343622
0.0357831
0.0372029
0.0386205
0.0400347
0.0414443
0.042848
0.0442446
0.0456331
0.047012
0.0483804
0.0497369
0.0510804
0.0524097
0.0537237
0.0550212
0.0563011
0.0575621
0.0588033
0.0600235
0.0612217
0.0623967
0.0635475
0.064673
0.0657724
0.0668445
0.0678885
0.0689034
0.0698883
0.0708422
0.0717645
0.0726542
0.0735105
0.0743328
0.0751203
0.0758723
0.0765882
0.0772674
0.0779094
0.0785136
0.0790796
0.0796069
0.0800953
0.0805443
0.0809538
0.0813235
0.0816532
0.081943
0.0821926
0.0824022
0.0825719
0.0827018
0.082792
0.082843
0.0828551
0.0828287
0.0827642
0.0826624
0.0825238
0.0823492
0.0821393
0.0818952
0.0816178
0.0813082
0.0809675
0.080597
0.080198
0.0797721
0.0793207
0.0788455
0.0783483
0.077831
0.0772954
0.0767437
0.076178
0.0756006
0.075014
0.0744207
0.0738232
0.0732243
0.0726268
0.0720337
0.071448
0.0708729
0.0703115
0.0697671
0.0692432
0.0687429
0.0682698
0.0678273
0.0674188
0.0670477
0.0667172
0.0664308
0.0661917
0.0660034
0.0658686
0.0657907
0.0657838
0.065858
0.00185554
0.00186636
0.00181083
0.0016942
0.00152555
0.00130825
0.00104522
0.000739724
0.000394998
1.42677e-05
-0.000399233
-0.000842256
-0.00131155
-0.00180387
-0.00231598
-0.00284472
-0.00338693
-0.00393957
-0.00449963
-0.00506422
-0.00563052
-0.00619582
-0.00675752
-0.00731312
-0.00786023
-0.00839656
-0.00891995
-0.00942834
-0.00991977
-0.0103924
-0.0108445
-0.0112744
-0.0116805
-0.0120615
-0.012416
-0.0127428
-0.0130406
-0.0133084
-0.0135452
-0.0137501
-0.0139223
-0.014061
-0.0141655
-0.0142353
-0.0142698
-0.0142685
-0.014231
-0.0141571
-0.0140464
-0.0138986
-0.0137137
-0.0134916
-0.0132321
-0.0129353
-0.0126012
-0.0122299
-0.0118217
-0.0113765
-0.0108948
-0.0103768
-0.00982268
-0.00923295
-0.00860796
-0.00794815
-0.00725397
-0.00652594
-0.00576459
-0.0049705
-0.00414425
-0.0032865
-0.00239789
-0.00147912
-0.000530919
0.000445981
0.00145081
0.00248276
0.00354101
0.00462473
0.00573303
0.00686503
0.00801983
0.00919649
0.0103941
0.0116116
0.012848
0.0141025
0.0153738
0.0166611
0.0179631
0.019279
0.0206076
0.0219477
0.0232984
0.0246585
0.0260268
0.0274022
0.0287837
0.03017
0.0315599
0.0329524
0.0343462
0.0357402
0.0371332
0.0385241
0.0399115
0.0412945
0.0426717
0.044042
0.0454042
0.0467572
0.0480998
0.0494307
0.050749
0.0520533
0.0533426
0.0546158
0.0558717
0.0571092
0.0583273
0.0595247
0.0607006
0.0618538
0.0629833
0.0640882
0.0651673
0.0662198
0.0672448
0.0682412
0.0692083
0.0701452
0.071051
0.071925
0.0727663
0.0735743
0.0743483
0.0750875
0.0757915
0.0764596
0.0770913
0.077686
0.0782434
0.0787631
0.0792446
0.0796877
0.0800922
0.0804578
0.0807844
0.0810719
0.0813203
0.0815296
0.0816999
0.0818314
0.0819242
0.0819788
0.0819953
0.0819743
0.0819163
0.0818218
0.0816915
0.0815261
0.0813264
0.0810932
0.0808277
0.0805307
0.0802035
0.0798473
0.0794633
0.0790531
0.0786181
0.0781599
0.0776802
0.0771808
0.0766636
0.0761305
0.0755838
0.0750255
0.074458
0.0738837
0.073305
0.0727246
0.0721452
0.0715695
0.0710003
0.0704407
0.0698936
0.0693621
0.0688493
0.0683584
0.0678925
0.0674548
0.0670485
0.0666767
0.0663426
0.0660492
0.0657996
0.0655972
0.0654444
0.0653447
0.0653086
0.0653428
0.00245398
0.00241693
0.00232578
0.00218206
0.00199068
0.00175479
0.00147723
0.00116094
0.000808904
0.000424066
9.40625e-06
-0.000432083
-0.000897402
-0.00138356
-0.00188757
-0.00240649
-0.00293741
-0.00347748
-0.00402391
-0.00457397
-0.00512504
-0.00567457
-0.0062201
-0.00675926
-0.00728979
-0.00780952
-0.00831639
-0.00880843
-0.00928377
-0.00974065
-0.0101774
-0.0105924
-0.0109842
-0.0113515
-0.0116929
-0.0120071
-0.0122931
-0.0125499
-0.0127765
-0.0129719
-0.0131354
-0.0132662
-0.0133637
-0.0134274
-0.0134565
-0.0134508
-0.0134098
-0.0133332
-0.0132206
-0.013072
-0.012887
-0.0126657
-0.0124079
-0.0121136
-0.011783
-0.011416
-0.0110128
-0.0105736
-0.0100987
-0.0095882
-0.00904251
-0.00846196
-0.00784691
-0.0071978
-0.00651507
-0.00579922
-0.00505077
-0.00427027
-0.0034583
-0.00261549
-0.00174247
-0.000839927
9.14432e-05
0.00105091
0.00203773
0.00305112
0.00409027
0.00515437
0.00624256
0.00735397
0.00848772
0.00964288
0.0108186
0.0120138
0.0132276
0.0144589
0.0157069
0.0169705
0.0182486
0.0195402
0.0208443
0.0221598
0.0234856
0.0248205
0.0261636
0.0275137
0.0288697
0.0302304
0.0315947
0.0329615
0.0343296
0.035698
0.0370653
0.0384305
0.0397924
0.0411499
0.0425018
0.0438469
0.0451841
0.0465123
0.0478302
0.0491368
0.0504309
0.0517115
0.0529772
0.0542272
0.0554602
0.0566753
0.0578712
0.059047
0.0602017
0.0613341
0.0624434
0.0635284
0.0645883
0.0656222
0.066629
0.0676079
0.0685581
0.0694786
0.0703688
0.0712278
0.0720548
0.0728492
0.0736103
0.0743375
0.0750301
0.0756876
0.0763095
0.0768952
0.0774444
0.0779567
0.0784317
0.0788692
0.0792688
0.0796305
0.079954
0.0802393
0.0804864
0.0806954
0.0808662
0.080999
0.0810942
0.0811519
0.0811726
0.0811566
0.0811044
0.0810166
0.0808939
0.0807369
0.0805464
0.0803233
0.0800685
0.0797831
0.0794682
0.0791249
0.0787546
0.0783586
0.0779384
0.0774954
0.0770314
0.0765481
0.0760473
0.0755309
0.0750009
0.0744595
0.0739087
0.073351
0.0727886
0.072224
0.0716598
0.0710986
0.070543
0.0699959
0.0694601
0.0689383
0.0684336
0.0679489
0.067487
0.067051
0.0666437
0.0662681
0.0659272
0.0656236
0.0653605
0.0651406
0.0649665
0.0648414
0.064772
0.0647614
0.0031099
0.00302145
0.00289143
0.0027176
0.00250048
0.002243
0.00194794
0.00161792
0.0012556
0.000863678
0.00044487
1.9185e-06
-0.000462422
-0.000945395
-0.00144425
-0.00195627
-0.00247875
-0.00300905
-0.00354456
-0.00408275
-0.00462116
-0.00515738
-0.0056891
-0.00621411
-0.00673024
-0.00723546
-0.00772779
-0.00820538
-0.00866642
-0.00910925
-0.00953225
-0.00993391
-0.0103128
-0.0106676
-0.0109971
-0.0113
-0.0115754
-0.0118221
-0.0120392
-0.012226
-0.0123816
-0.0125052
-0.0125964
-0.0126543
-0.0126787
-0.0126689
-0.0126247
-0.0125457
-0.0124315
-0.0122821
-0.0120972
-0.0118768
-0.0116207
-0.011329
-0.0110017
-0.0106388
-0.0102406
-0.00980715
-0.0093387
-0.0088355
-0.00829785
-0.00772608
-0.00712057
-0.0064817
-0.00580994
-0.00510574
-0.00436963
-0.00360214
-0.00280383
-0.00197531
-0.00111721
-0.000230186
0.000685082
0.00162788
0.00259747
0.0035931
0.00461399
0.00565932
0.00672827
0.00781998
0.00893359
0.0100682
0.0112229
0.0123968
0.0135889
0.0147983
0.0160239
0.0172648
0.01852
0.0197885
0.0210692
0.022361
0.023663
0.024974
0.0262929
0.0276188
0.0289504
0.0302867
0.0316265
0.0329688
0.0343123
0.0356561
0.0369989
0.0383397
0.0396772
0.0410104
0.0423381
0.0436592
0.0449725
0.046277
0.0475715
0.0488548
0.050126
0.0513837
0.0526271
0.0538549
0.0550662
0.0562598
0.0574347
0.0585899
0.0597243
0.060837
0.0619269
0.0629932
0.0640348
0.0650508
0.0660404
0.0670026
0.0679367
0.0688418
0.0697171
0.0705618
0.0713753
0.0721568
0.0729057
0.0736213
0.0743031
0.0749505
0.0755631
0.0761403
0.0766817
0.0771869
0.0776557
0.0780877
0.0784828
0.0788406
0.0791612
0.0794444
0.0796902
0.0798986
0.0800698
0.0802038
0.080301
0.0803616
0.0803859
0.0803744
0.0803275
0.0802459
0.08013
0.0799806
0.0797985
0.0795845
0.0793396
0.0790646
0.0787608
0.0784293
0.0780712
0.077688
0.077281
0.0768517
0.0764018
0.0759327
0.0754464
0.0749447
0.0744294
0.0739025
0.0733662
0.0728227
0.0722741
0.0717228
0.0711713
0.0706219
0.0700772
0.0695398
0.0690124
0.0684975
0.067998
0.0675164
0.0670557
0.0666184
0.0662072
0.065825
0.0654743
0.0651578
0.0648781
0.0646378
0.0644395
0.064286
0.0641799
0.0641207
0.00381626
0.00367381
0.00350241
0.00329595
0.00305049
0.00276881
0.00245362
0.00210719
0.0017319
0.00133016
0.000904464
0.000457298
-8.81779e-06
-0.000491356
-0.000987788
-0.0014956
-0.0020123
-0.00253543
-0.00306258
-0.00359138
-0.00411952
-0.00464476
-0.00516493
-0.00567794
-0.00618175
-0.00667444
-0.00715413
-0.00761906
-0.00806752
-0.00849792
-0.00890871
-0.00929846
-0.00966579
-0.0100094
-0.0103282
-0.0106209
-0.0108866
-0.0111242
-0.0113329
-0.0115118
-0.0116602
-0.0117773
-0.0118626
-0.0119155
-0.0119355
-0.0119221
-0.011875
-0.0117939
-0.0116784
-0.0115284
-0.0113437
-0.0111242
-0.0108699
-0.0105807
-0.0102566
-0.00989778
-0.00950432
-0.0090764
-0.0086142
-0.00811799
-0.00758806
-0.00702471
-0.00642831
-0.00579926
-0.00513798
-0.00444493
-0.00372062
-0.00296556
-0.00218031
-0.00136546
-0.000521616
0.000350581
0.00125046
0.00217733
0.00313047
0.00410913
0.00511255
0.00613995
0.00719052
0.00826341
0.00935778
0.0104728
0.0116074
0.0127609
0.0139323
0.0151206
0.0163249
0.0175442
0.0187775
0.0200239
0.0212822
0.0225515
0.0238307
0.0251188
0.0264148
0.0277174
0.0290258
0.0303388
0.0316552
0.0329741
0.0342943
0.0356146
0.0369341
0.0382515
0.0395658
0.0408758
0.0421804
0.0434786
0.0447692
0.0460511
0.0473232
0.0485844
0.0498336
0.0510698
0.0522918
0.0534986
0.0546891
0.0558623
0.0570172
0.0581528
0.059268
0.0603619
0.0614335
0.0624818
0.063506
0.0645052
0.0654784
0.0664248
0.0673436
0.0682339
0.0690951
0.0699263
0.0707269
0.0714962
0.0722335
0.0729382
0.0736097
0.0742476
0.0748512
0.0754203
0.0759543
0.0764528
0.0769157
0.0773425
0.0777331
0.0780873
0.078405
0.078686
0.0789305
0.0791384
0.0793097
0.0794448
0.0795437
0.0796068
0.0796344
0.079627
0.0795849
0.0795087
0.079399
0.0792565
0.079082
0.0788762
0.0786401
0.0783746
0.0780807
0.0777597
0.0774126
0.0770408
0.0766456
0.0762284
0.0757908
0.0753344
0.0748607
0.0743717
0.0738691
0.0733548
0.0728309
0.0722993
0.0717622
0.0712219
0.0706805
0.0701404
0.0696041
0.0690738
0.068552
0.0680414
0.0675443
0.0670632
0.0666008
0.0661595
0.0657419
0.0653503
0.0649873
0.0646551
0.0643563
0.064093
0.0638678
0.0636834
0.063538
0.0634277
0.00456646
0.00436815
0.00415341
0.00391229
0.00363633
0.00332818
0.00299051
0.0026253
0.0022346
0.00182059
0.00138551
0.000931609
0.000461188
-2.34438e-05
-0.000519969
-0.00102607
-0.00153946
-0.00205785
-0.00257901
-0.00310073
-0.00362086
-0.00413732
-0.00464805
-0.0051511
-0.00564456
-0.0061266
-0.00659545
-0.00704944
-0.00748696
-0.00790648
-0.00830654
-0.00868576
-0.00904285
-0.00937656
-0.00968576
-0.00996937
-0.0102264
-0.0104558
-0.0106569
-0.0108287
-0.0109706
-0.0110819
-0.011162
-0.0112103
-0.0112264
-0.0112098
-0.0111602
-0.0110772
-0.0109606
-0.0108102
-0.0106258
-0.0104073
-0.0101547
-0.00986799
-0.00954712
-0.0091922
-0.00880336
-0.00838076
-0.00792458
-0.00743508
-0.00691253
-0.00635725
-0.00576958
-0.00514991
-0.00449865
-0.00381626
-0.00310322
-0.00236003
-0.00158725
-0.000785448
4.47866e-05
0.000902825
0.00178801
0.00269968
0.00363711
0.00459958
0.00558634
0.00659662
0.00762964
0.00868457
0.00976058
0.0108568
0.0119724
0.0131064
0.014258
0.0154263
0.0166102
0.0178089
0.0190213
0.0202465
0.0214835
0.0227313
0.0239889
0.0252551
0.0265291
0.0278097
0.0290959
0.0303867
0.0316808
0.0329774
0.0342752
0.0355733
0.0368705
0.0381657
0.0394578
0.0407458
0.0420285
0.0433049
0.0445738
0.0458343
0.0470851
0.0483252
0.0495536
0.0507692
0.0519709
0.0531577
0.0543285
0.0554824
0.0566183
0.0577352
0.0588322
0.0599082
0.0609624
0.0619938
0.0630015
0.0639846
0.0649423
0.0658737
0.066778
0.0676544
0.0685022
0.0693206
0.070109
0.0708666
0.0715929
0.0722872
0.0729491
0.0735778
0.0741731
0.0747344
0.0752613
0.0757536
0.0762107
0.0766326
0.077019
0.0773696
0.0776845
0.0779635
0.0782065
0.0784137
0.0785852
0.078721
0.0788215
0.0788868
0.0789173
0.0789134
0.0788755
0.0788042
0.0787001
0.0785638
0.0783961
0.0781976
0.0779694
0.0777123
0.0774273
0.0771156
0.0767783
0.0764165
0.0760317
0.0756251
0.0751983
0.0747528
0.0742901
0.073812
0.0733202
0.0728166
0.0723029
0.0717812
0.0712534
0.0707218
0.0701883
0.0696552
0.0691247
0.0685991
0.0680806
0.0675716
0.0670744
0.0665914
0.0661249