/*--------------------------------*- C++ -*----------------------------------*\
  =========                 |
  \\      /  F ield         | OpenFOAM: The Open Source CFD Toolbox
   \\    /   O peration     | Website:  https://openfoam.org
    \\  /    A nd           | Version:  7
     \\/     M anipulation  |
\*---------------------------------------------------------------------------*/
FoamFile
{
    version     2.0;
    format      ascii;
    class       volVectorField;
    location    "16.5";
    object      U;
}
// * * * * * * * * * * * * * * * * * * * * * * * * * * * * * * * * * * * * * //

dimensions      [0 1 -1 0 0 0 0];

internalField   nonuniform List<vector> 
2413
(
(0.126456 0.0862596 0)
(0.144306 0.0978054 0)
(0.170133 0.105635 0)
(0.19932 0.112854 0)
(0.222377 0.116707 0)
(0.233631 0.110588 0)
(0.186323 0.0656067 0)
(0.0621104 -0.0180644 0)
(-0.0249138 -0.062097 0)
(-0.0628946 -0.0560374 0)
(-0.0756632 -0.0366006 0)
(-0.0746763 -0.00878301 0)
(-0.0749159 0.0228373 0)
(-0.0774896 0.0604917 0)
(-0.115398 0.089531 0)
(-0.171349 0.152037 0)
(-0.259126 0.206362 0)
(-0.298684 0.226641 0)
(-0.303498 0.21442 0)
(-0.300699 0.191525 0)
(-0.298429 0.167548 0)
(-0.298601 0.144243 0)
(-0.29928 0.121932 0)
(-0.300127 0.100637 0)
(-0.299847 0.0798363 0)
(-0.299409 0.0586683 0)
(-0.297458 0.0363455 0)
(-0.296741 0.0122985 0)
(-0.294205 -0.0125753 0)
(-0.292993 -0.039118 0)
(-0.287723 -0.068847 0)
(-0.281777 -0.100976 0)
(-0.272611 -0.13644 0)
(-0.263049 -0.174585 0)
(-0.253755 -0.214465 0)
(-0.244974 -0.255187 0)
(-0.236058 -0.295562 0)
(-0.227099 -0.334144 0)
(-0.216724 -0.369278 0)
(-0.205462 -0.40056 0)
(-0.191544 -0.427364 0)
(-0.177111 -0.451494 0)
(-0.161096 -0.47399 0)
(-0.145617 -0.496655 0)
(-0.129704 -0.51822 0)
(-0.114919 -0.539988 0)
(-0.0998698 -0.561165 0)
(-0.0869117 -0.583563 0)
(-0.0731404 -0.605523 0)
(-0.0628899 -0.630301 0)
(-0.0500789 -0.655229 0)
(-0.0853953 -0.0411647 0)
(-0.0770503 -0.0390234 0)
(-0.06776 -0.03737 0)
(-0.0576843 -0.0361777 0)
(-0.0466054 -0.0357479 0)
(-0.0351765 -0.0359313 0)
(-0.0239304 -0.0368804 0)
(-0.0133019 -0.0379137 0)
(-0.00249132 -0.0386133 0)
(0.00774972 -0.0389316 0)
(0.0171074 -0.0392063 0)
(0.0253371 -0.0394966 0)
(0.0324023 -0.0394139 0)
(0.0375021 -0.0386445 0)
(0.0393474 -0.0360343 0)
(0.040871 -0.0329397 0)
(0.0416736 -0.029505 0)
(0.0419435 -0.026231 0)
(0.0422052 -0.0233797 0)
(0.0428084 -0.0210972 0)
(0.043898 -0.019417 0)
(0.0448656 -0.0178996 0)
(0.0464 -0.0168433 0)
(0.0480283 -0.0157486 0)
(0.0505497 -0.0147659 0)
(0.0543016 -0.0137224 0)
(0.0595803 -0.0125145 0)
(0.0664623 -0.0110751 0)
(0.0746925 -0.00911043 0)
(0.0839511 -0.00661973 0)
(0.0937599 -0.00337003 0)
(0.10348 0.000938646 0)
(0.111945 0.00718315 0)
(0.118056 0.0163729 0)
(0.121705 0.0285863 0)
(0.124222 0.0423357 0)
(0.12728 0.0580489 0)
(0.133799 0.0739448 0)
(0.147608 0.088234 0)
(0.16984 0.100137 0)
(0.192259 0.107294 0)
(0.205867 0.105524 0)
(0.175715 0.0727064 0)
(0.0689742 -0.00630139 0)
(-0.0194867 -0.0635363 0)
(-0.0495331 -0.0797559 0)
(-0.0618546 -0.0700375 0)
(-0.0617057 -0.0560135 0)
(-0.0586066 -0.042946 0)
(-0.0578579 -0.0257656 0)
(-0.06356 -0.00244395 0)
(-0.0810225 0.0209711 0)
(-0.103104 0.0731067 0)
(-0.199406 0.13239 0)
(-0.297442 0.179485 0)
(-0.330051 0.184723 0)
(-0.334107 0.16361 0)
(-0.334526 0.138197 0)
(-0.336132 0.113898 0)
(-0.337807 0.0903589 0)
(-0.339233 0.066594 0)
(-0.339483 0.041908 0)
(-0.338723 0.0160395 0)
(-0.337123 -0.0111182 0)
(-0.338475 -0.0382055 0)
(-0.336389 -0.0646058 0)
(-0.332262 -0.0909869 0)
(-0.325842 -0.120504 0)
(-0.316674 -0.154324 0)
(-0.307515 -0.190058 0)
(-0.298957 -0.225609 0)
(-0.290034 -0.259939 0)
(-0.280297 -0.292451 0)
(-0.269062 -0.322567 0)
(-0.256618 -0.3503 0)
(-0.242195 -0.375821 0)
(-0.227457 -0.400033 0)
(-0.211314 -0.422574 0)
(-0.195579 -0.445249 0)
(-0.178933 -0.466427 0)
(-0.163621 -0.488134 0)
(-0.147619 -0.508918 0)
(-0.132962 -0.530227 0)
(-0.117829 -0.550893 0)
(-0.105009 -0.573119 0)
(-0.0906708 -0.594354 0)
(-0.0797666 -0.618644 0)
(-0.0659857 -0.642597 0)
(-0.0849389 -0.0402942 0)
(-0.0774295 -0.0375392 0)
(-0.0689848 -0.0351228 0)
(-0.0597099 -0.0330506 0)
(-0.049585 -0.0316257 0)
(-0.0386515 -0.030964 0)
(-0.027894 -0.0309341 0)
(-0.0172819 -0.0311733 0)
(-0.00680461 -0.0316667 0)
(0.00357433 -0.0318814 0)
(0.0133458 -0.0324261 0)
(0.0223121 -0.0332337 0)
(0.0302851 -0.0341912 0)
(0.0370775 -0.0349321 0)
(0.0414423 -0.0346821 0)
(0.0438046 -0.0331577 0)
(0.0454799 -0.0309242 0)
(0.0455451 -0.0281518 0)
(0.0448797 -0.0252441 0)
(0.044138 -0.022654 0)
(0.043758 -0.0208028 0)
(0.0437269 -0.0195783 0)
(0.0443496 -0.0187598 0)
(0.0454304 -0.017907 0)
(0.0475308 -0.017138 0)
(0.0510542 -0.0162193 0)
(0.0562987 -0.0150712 0)
(0.063319 -0.0136278 0)
(0.0719144 -0.0117272 0)
(0.0817007 -0.00928845 0)
(0.0922777 -0.00620578 0)
(0.103204 -0.00239707 0)
(0.113661 0.00262204 0)
(0.122517 0.00948751 0)
(0.128773 0.0190269 0)
(0.133048 0.0312526 0)
(0.137135 0.0450294 0)
(0.143597 0.0610425 0)
(0.155211 0.0777974 0)
(0.170727 0.0912133 0)
(0.181953 0.0966361 0)
(0.162917 0.0780774 0)
(0.0683211 0.0110796 0)
(-0.0256445 -0.0523921 0)
(-0.0630552 -0.0746609 0)
(-0.0692295 -0.0750192 0)
(-0.0688638 -0.0671491 0)
(-0.064885 -0.0571934 0)
(-0.0610076 -0.0505232 0)
(-0.0602952 -0.0439478 0)
(-0.0622519 -0.0330352 0)
(-0.0642045 -0.0185177 0)
(-0.0655312 0.0131966 0)
(-0.135587 0.0500576 0)
(-0.260626 0.120278 0)
(-0.352969 0.147415 0)
(-0.375889 0.136537 0)
(-0.376972 0.114433 0)
(-0.377561 0.090079 0)
(-0.378417 0.0656909 0)
(-0.379275 0.0409342 0)
(-0.380164 0.0150557 0)
(-0.377681 -0.0104051 0)
(-0.379279 -0.0332607 0)
(-0.376383 -0.0556631 0)
(-0.370869 -0.0822506 0)
(-0.36311 -0.114593 0)
(-0.354818 -0.148025 0)
(-0.346481 -0.180518 0)
(-0.337424 -0.211748 0)
(-0.327719 -0.241405 0)
(-0.316686 -0.269316 0)
(-0.304534 -0.295692 0)
(-0.290981 -0.320837 0)
(-0.276778 -0.345366 0)
(-0.261371 -0.369052 0)
(-0.246206 -0.392255 0)
(-0.230111 -0.414601 0)
(-0.214551 -0.43704 0)
(-0.198746 -0.458997 0)
(-0.183284 -0.480498 0)
(-0.167418 -0.501167 0)
(-0.152973 -0.522549 0)
(-0.137608 -0.542695 0)
(-0.124476 -0.564307 0)
(-0.109545 -0.584836 0)
(-0.0974778 -0.608418 0)
(-0.0828152 -0.631557 0)
(-0.0831271 -0.0396625 0)
(-0.0763902 -0.036232 0)
(-0.068645 -0.0332181 0)
(-0.060127 -0.0304991 0)
(-0.0508908 -0.0282527 0)
(-0.0406724 -0.0267236 0)
(-0.0304859 -0.0257705 0)
(-0.0203345 -0.0251825 0)
(-0.0102855 -0.025058 0)
(-0.00011774 -0.0249548 0)
(0.00965185 -0.0253973 0)
(0.0188157 -0.0262727 0)
(0.027194 -0.0275579 0)
(0.0346928 -0.0290133 0)
(0.0409882 -0.0303388 0)
(0.0451161 -0.0309719 0)
(0.0478321 -0.0305142 0)
(0.0487345 -0.0290063 0)
(0.0478926 -0.0269046 0)
(0.0460949 -0.0244461 0)
(0.0439861 -0.0223465 0)
(0.0425898 -0.0210472 0)
(0.0422465 -0.0203675 0)
(0.0429046 -0.0197912 0)
(0.0446217 -0.0191153 0)
(0.0479944 -0.0182852 0)
(0.0532457 -0.017136 0)
(0.0603945 -0.0156604 0)
(0.0692696 -0.013764 0)
(0.0795289 -0.0114685 0)
(0.0906708 -0.00860408 0)
(0.10236 -0.0052265 0)
(0.11399 -0.00107528 0)
(0.124632 0.00425583 0)
(0.133238 0.0115083 0)
(0.139708 0.0213291 0)
(0.145661 0.0339639 0)
(0.153401 0.0482518 0)
(0.162501 0.0641677 0)
(0.169886 0.0764993 0)
(0.159374 0.0738548 0)
(0.0768112 0.0262122 0)
(-0.0307537 -0.0370833 0)
(-0.0797051 -0.0662484 0)
(-0.0905818 -0.0696978 0)
(-0.0878532 -0.0643865 0)
(-0.0817877 -0.0565975 0)
(-0.0763548 -0.0502817 0)
(-0.0741559 -0.0490145 0)
(-0.0749395 -0.0457223 0)
(-0.0721927 -0.0373004 0)
(-0.0592343 -0.026268 0)
(-0.0564275 -0.0128881 0)
(-0.097348 -0.00136861 0)
(-0.194001 0.0560954 0)
(-0.347179 0.119779 0)
(-0.409365 0.126671 0)
(-0.417899 0.107104 0)
(-0.416142 0.0835174 0)
(-0.415843 0.0601267 0)
(-0.414915 0.0364364 0)
(-0.413226 0.0150495 0)
(-0.413513 -0.0068249 0)
(-0.410314 -0.0321949 0)
(-0.404566 -0.061335 0)
(-0.397415 -0.0919988 0)
(-0.389328 -0.122616 0)
(-0.380245 -0.15275 0)
(-0.371105 -0.18169 0)
(-0.360679 -0.209265 0)
(-0.349491 -0.235832 0)
(-0.33707 -0.261573 0)
(-0.32397 -0.286771 0)
(-0.310026 -0.311544 0)
(-0.295702 -0.336167 0)
(-0.281118 -0.360383 0)
(-0.266274 -0.384407 0)
(-0.25089 -0.407484 0)
(-0.235886 -0.43016 0)
(-0.220214 -0.451819 0)
(-0.204978 -0.473377 0)
(-0.189437 -0.494189 0)
(-0.174652 -0.514859 0)
(-0.159042 -0.534525 0)
(-0.145286 -0.555814 0)
(-0.129391 -0.57581 0)
(-0.115815 -0.598845 0)
(-0.100125 -0.621658 0)
(-0.0798635 -0.0394373 0)
(-0.0739204 -0.0354627 0)
(-0.0669187 -0.0318079 0)
(-0.0590514 -0.0284743 0)
(-0.050479 -0.025559 0)
(-0.0412395 -0.023284 0)
(-0.0316432 -0.0215397 0)
(-0.0221922 -0.0201494 0)
(-0.0126997 -0.0192727 0)
(-0.00304833 -0.0187176 0)
(0.00641405 -0.0188107 0)
(0.015462 -0.0194898 0)
(0.0239162 -0.0207735 0)
(0.0317059 -0.0224709 0)
(0.0386712 -0.0244773 0)
(0.0443659 -0.0264649 0)
(0.0480421 -0.0278525 0)
(0.050544 -0.0282361 0)
(0.0504027 -0.0274761 0)
(0.0484457 -0.0257514 0)
(0.0452973 -0.0236958 0)
(0.0422785 -0.0221401 0)
(0.0406245 -0.0214755 0)
(0.0406505 -0.0208933 0)
(0.0419124 -0.0201706 0)
(0.0450299 -0.0193198 0)
(0.0503055 -0.0182367 0)
(0.0576048 -0.0167401 0)
(0.0667484 -0.0149687 0)
(0.0773137 -0.0127921 0)
(0.0888567 -0.0102781 0)
(0.100952 -0.00738887 0)
(0.113111 -0.00407174 0)
(0.124726 -2.57036e-06 0)
(0.135147 0.00557823 0)
(0.144307 0.0135744 0)
(0.153146 0.0245779 0)
(0.16202 0.0380584 0)
(0.167161 0.0511682 0)
(0.164571 0.057677 0)
(0.10338 0.0333568 0)
(-0.0170646 -0.0236518 0)
(-0.0905945 -0.0576623 0)
(-0.111651 -0.0637581 0)
(-0.112575 -0.0615932 0)
(-0.107644 -0.0559967 0)
(-0.10091 -0.0486669 0)
(-0.0965764 -0.0439456 0)
(-0.0946335 -0.0406682 0)
(-0.0928498 -0.0349253 0)
(-0.0828577 -0.026064 0)
(-0.0713894 -0.022168 0)
(-0.0691124 -0.0207189 0)
(-0.084342 -0.0175205 0)
(-0.137478 0.018862 0)
(-0.296475 0.0802223 0)
(-0.425655 0.123686 0)
(-0.454401 0.11149 0)
(-0.450827 0.0906898 0)
(-0.448323 0.0680064 0)
(-0.445899 0.0471432 0)
(-0.44536 0.0229308 0)
(-0.442379 -0.00237801 0)
(-0.43567 -0.0297811 0)
(-0.428546 -0.0591603 0)
(-0.419752 -0.0888223 0)
(-0.411196 -0.117792 0)
(-0.401651 -0.145958 0)
(-0.391875 -0.173254 0)
(-0.380989 -0.199887 0)
(-0.369445 -0.226049 0)
(-0.356984 -0.251816 0)
(-0.344044 -0.277403 0)
(-0.330472 -0.30282 0)
(-0.316864 -0.327872 0)
(-0.302843 -0.3522 0)
(-0.2882 -0.375664 0)
(-0.27376 -0.399213 0)
(-0.259192 -0.422428 0)
(-0.244001 -0.444742 0)
(-0.229412 -0.467012 0)
(-0.21396 -0.487814 0)
(-0.199366 -0.508746 0)
(-0.183285 -0.528172 0)
(-0.168399 -0.548964 0)
(-0.151162 -0.568517 0)
(-0.135641 -0.590909 0)
(-0.117957 -0.613046 0)
(-0.0758088 -0.0387633 0)
(-0.0703904 -0.0348677 0)
(-0.0639725 -0.0309609 0)
(-0.0568123 -0.0271544 0)
(-0.0489371 -0.0237254 0)
(-0.0405439 -0.0207644 0)
(-0.0315352 -0.0183042 0)
(-0.0227537 -0.016184 0)
(-0.0138883 -0.0146149 0)
(-0.00494397 -0.0135227 0)
(0.00392693 -0.0131337 0)
(0.0125706 -0.0134762 0)
(0.0208663 -0.0145644 0)
(0.0286658 -0.0163207 0)
(0.0358786 -0.0186897 0)
(0.042273 -0.0213382 0)
(0.0469759 -0.0238551 0)
(0.0504384 -0.0257053 0)
(0.0517525 -0.0263918 0)
(0.0503328 -0.0259928 0)
(0.0469883 -0.0243232 0)
(0.0428032 -0.0224075 0)
(0.0395533 -0.0211986 0)
(0.0387363 -0.0204064 0)
(0.0394292 -0.0196715 0)
(0.0420976 -0.0187196 0)
(0.0472402 -0.0176779 0)
(0.0547039 -0.0163834 0)
(0.0640707 -0.0148755 0)
(0.0749064 -0.0130004 0)
(0.086837 -0.010994 0)
(0.0992558 -0.00861088 0)
(0.111702 -0.0059961 0)
(0.123924 -0.00290259 0)
(0.135845 0.0014362 0)
(0.147614 0.00784901 0)
(0.158937 0.0168104 0)
(0.166964 0.0271762 0)
(0.167297 0.0355647 0)
(0.138554 0.0298825 0)
(0.0261412 -0.0132479 0)
(-0.0804909 -0.0522348 0)
(-0.121991 -0.0636485 0)
(-0.132336 -0.0611978 0)
(-0.131196 -0.0548494 0)
(-0.12612 -0.045987 0)
(-0.121066 -0.0385312 0)
(-0.119194 -0.0338258 0)
(-0.115984 -0.0291041 0)
(-0.110029 -0.0206519 0)
(-0.100889 -0.0142713 0)
(-0.0933152 -0.0139821 0)
(-0.0898454 -0.0162117 0)
(-0.0873904 -0.0151989 0)
(-0.110896 0.00321794 0)
(-0.227269 0.044209 0)
(-0.410516 0.110723 0)
(-0.481376 0.12209 0)
(-0.482203 0.103398 0)
(-0.478988 0.0819766 0)
(-0.476715 0.0575138 0)
(-0.471047 0.0327253 0)
(-0.464864 0.00526001 0)
(-0.457029 -0.0240655 0)
(-0.448777 -0.0533597 0)
(-0.44003 -0.082331 0)
(-0.431339 -0.110478 0)
(-0.422 -0.13788 0)
(-0.412157 -0.164668 0)
(-0.401509 -0.19105 0)
(-0.390201 -0.217148 0)
(-0.378295 -0.243103 0)
(-0.366035 -0.269007 0)
(-0.353206 -0.294568 0)
(-0.340756 -0.319673 0)
(-0.327248 -0.344377 0)
(-0.313663 -0.369149 0)
(-0.299844 -0.393317 0)
(-0.285775 -0.416738 0)
(-0.271474 -0.439396 0)
(-0.257285 -0.461281 0)
(-0.242134 -0.48192 0)
(-0.227343 -0.502666 0)
(-0.210559 -0.522083 0)
(-0.194224 -0.542918 0)
(-0.175289 -0.562617 0)
(-0.157529 -0.584784 0)
(-0.137196 -0.606016 0)
(-0.0710329 -0.0370529 0)
(-0.0660755 -0.0338404 0)
(-0.060227 -0.0301385 0)
(-0.053568 -0.0263598 0)
(-0.0463052 -0.0226543 0)
(-0.038655 -0.0191921 0)
(-0.030658 -0.0161212 0)
(-0.0222902 -0.0134382 0)
(-0.0140337 -0.0113001 0)
(-0.00581763 -0.00969153 0)
(0.00235631 -0.00876313 0)
(0.0104212 -0.00864285 0)
(0.0183049 -0.00944915 0)
(0.0259095 -0.0110839 0)
(0.03315 -0.013459 0)
(0.0398034 -0.0164702 0)
(0.0452151 -0.0196699 0)
(0.0492761 -0.0221783 0)
(0.0517492 -0.0238926 0)
(0.0514483 -0.0243488 0)
(0.048837 -0.0235284 0)
(0.0441491 -0.0216258 0)
(0.0394366 -0.0197426 0)
(0.0373618 -0.0183335 0)
(0.0374421 -0.0173133 0)
(0.0395389 -0.0162387 0)
(0.0442825 -0.0151228 0)
(0.0517055 -0.0139991 0)
(0.0611435 -0.012792 0)
(0.0721248 -0.0114757 0)
(0.0843108 -0.0102172 0)
(0.0971009 -0.00865049 0)
(0.109946 -0.00671898 0)
(0.122773 -0.0043131 0)
(0.136222 -0.000945058 0)
(0.150389 0.004123 0)
(0.16298 0.0108363 0)
(0.168419 0.0170449 0)
(0.160564 0.0199609 0)
(0.0882081 -0.00396141 0)
(-0.0390643 -0.0453989 0)
(-0.113722 -0.0640439 0)
(-0.137974 -0.0644366 0)
(-0.146345 -0.0570223 0)
(-0.145915 -0.0467615 0)
(-0.143432 -0.0374468 0)
(-0.14151 -0.0296823 0)
(-0.13965 -0.0217762 0)
(-0.133773 -0.0127811 0)
(-0.126462 -0.00497423 0)
(-0.122267 -0.00230686 0)
(-0.118152 -0.00336702 0)
(-0.111698 -0.00600626 0)
(-0.102226 -0.00783983 0)
(-0.106962 0.00164398 0)
(-0.175614 0.0182722 0)
(-0.34845 0.0817963 0)
(-0.492391 0.13018 0)
(-0.50856 0.117662 0)
(-0.509096 0.0935974 0)
(-0.50052 0.0680437 0)
(-0.492275 0.0403865 0)
(-0.483939 0.0116024 0)
(-0.475857 -0.0173534 0)
(-0.467628 -0.0461588 0)
(-0.459541 -0.0743844 0)
(-0.451112 -0.101935 0)
(-0.442324 -0.128958 0)
(-0.432906 -0.155571 0)
(-0.423016 -0.181989 0)
(-0.412577 -0.208311 0)
(-0.40177 -0.23454 0)
(-0.390514 -0.260502 0)
(-0.379046 -0.286024 0)
(-0.36753 -0.31171 0)
(-0.354828 -0.336705 0)
(-0.342121 -0.361223 0)
(-0.328938 -0.385112 0)
(-0.315882 -0.408621 0)
(-0.302303 -0.431264 0)
(-0.288908 -0.453845 0)
(-0.273954 -0.475199 0)
(-0.258766 -0.496751 0)
(-0.241132 -0.51724 0)
(-0.222967 -0.538635 0)
(-0.202115 -0.558869 0)
(-0.181578 -0.580641 0)
(-0.158818 -0.601026 0)
(-0.0661637 -0.033788 0)
(-0.0616014 -0.0312663 0)
(-0.0559797 -0.0286232 0)
(-0.0496621 -0.0254991 0)
(-0.0428454 -0.0220314 0)
(-0.0357313 -0.0184835 0)
(-0.0284453 -0.015003 0)
(-0.0209748 -0.0118312 0)
(-0.013243 -0.00931474 0)
(-0.00568139 -0.00727937 0)
(0.00183821 -0.00590982 0)
(0.00929141 -0.00529417 0)
(0.0166472 -0.00562781 0)
(0.0238207 -0.00694641 0)
(0.0307766 -0.00921097 0)
(0.0374029 -0.0122629 0)
(0.0432762 -0.0155324 0)
(0.0477516 -0.0184243 0)
(0.0510707 -0.020573 0)
(0.0519297 -0.0216073 0)
(0.0503262 -0.0215177 0)
(0.046153 -0.0200165 0)
(0.0405078 -0.0176559 0)
(0.0367325 -0.0155349 0)
(0.0360492 -0.0139597 0)
(0.0375643 -0.0126059 0)
(0.0417105 -0.0112563 0)
(0.048801 -0.0101346 0)
(0.0581822 -0.00914564 0)
(0.0692159 -0.00823226 0)
(0.0814936 -0.00754055 0)
(0.094579 -0.00693605 0)
(0.10789 -0.00595182 0)
(0.121822 -0.00438438 0)
(0.136809 -0.00205803 0)
(0.152439 0.00159874 0)
(0.164257 0.00569757 0)
(0.166731 0.008818 0)
(0.139822 0.00203385 0)
(0.0297655 -0.0316485 0)
(-0.0798702 -0.060656 0)
(-0.128913 -0.0666786 0)
(-0.146756 -0.0615905 0)
(-0.155554 -0.0519481 0)
(-0.158857 -0.0421189 0)
(-0.159795 -0.031584 0)
(-0.158951 -0.0201459 0)
(-0.156378 -0.00839371 0)
(-0.150281 0.00184865 0)
(-0.145869 0.00779701 0)
(-0.143797 0.00968798 0)
(-0.140084 0.0100085 0)
(-0.132211 0.00873059 0)
(-0.122341 0.00517903 0)
(-0.117504 0.00581687 0)
(-0.154104 0.00589174 0)
(-0.266435 0.0487615 0)
(-0.46527 0.115709 0)
(-0.530296 0.127977 0)
(-0.531618 0.103778 0)
(-0.521009 0.0747409 0)
(-0.510302 0.0452702 0)
(-0.501511 0.0162779 0)
(-0.494111 -0.0122193 0)
(-0.486759 -0.0401694 0)
(-0.479491 -0.067453 0)
(-0.471728 -0.0941945 0)
(-0.463678 -0.120587 0)
(-0.455198 -0.146816 0)
(-0.44647 -0.173007 0)
(-0.437335 -0.199058 0)
(-0.427789 -0.224966 0)
(-0.418029 -0.251072 0)
(-0.408371 -0.277307 0)
(-0.397497 -0.302623 0)
(-0.386205 -0.327723 0)
(-0.374885 -0.352759 0)
(-0.362997 -0.377217 0)
(-0.351132 -0.401244 0)
(-0.338084 -0.424232 0)
(-0.324593 -0.447094 0)
(-0.309036 -0.46894 0)
(-0.292581 -0.491183 0)
(-0.273452 -0.512809 0)
(-0.253229 -0.535124 0)
(-0.230599 -0.556326 0)
(-0.207264 -0.577819 0)
(-0.182884 -0.597949 0)
(-0.0616738 -0.0289904 0)
(-0.0572658 -0.0275855 0)
(-0.0518722 -0.0258432 0)
(-0.0457116 -0.0237312 0)
(-0.0390675 -0.0212299 0)
(-0.0322284 -0.0182392 0)
(-0.0253412 -0.0148943 0)
(-0.0184672 -0.0115514 0)
(-0.0116067 -0.00852659 0)
(-0.00465973 -0.00613374 0)
(0.00225456 -0.00439705 0)
(0.00912253 -0.00341372 0)
(0.0159108 -0.00326584 0)
(0.022585 -0.00407994 0)
(0.029143 -0.00589277 0)
(0.0355671 -0.00856415 0)
(0.0415611 -0.0117314 0)
(0.0464997 -0.0147636 0)
(0.0504411 -0.0170644 0)
(0.0525016 -0.018484 0)
(0.0517769 -0.018772 0)
(0.0485777 -0.0176502 0)
(0.042895 -0.0151255 0)
(0.0374493 -0.0122317 0)
(0.0355663 -0.0100807 0)
(0.0364136 -0.00836621 0)
(0.0398484 -0.00671857 0)
(0.0463554 -0.00546856 0)
(0.0555165 -0.00459137 0)
(0.0665632 -0.00398679 0)
(0.0788435 -0.00365224 0)
(0.0920708 -0.00356561 0)
(0.106098 -0.00330996 0)
(0.120979 -0.00262064 0)
(0.137668 -0.00136075 0)
(0.153579 0.000635965 0)
(0.16344 0.00243137 0)
(0.161641 0.00226449 0)
(0.104469 -0.0147908 0)
(-0.0185126 -0.0477009 0)
(-0.101344 -0.064922 0)
(-0.135104 -0.0648307 0)
(-0.151742 -0.0565148 0)
(-0.160597 -0.0455837 0)
(-0.166199 -0.033415 0)
(-0.171792 -0.0233219 0)
(-0.172471 -0.0114905 0)
(-0.170609 0.00211988 0)
(-0.167367 0.0127729 0)
(-0.16532 0.0187077 0)
(-0.163935 0.0215584 0)
(-0.159489 0.0223154 0)
(-0.15174 0.0217828 0)
(-0.141871 0.018687 0)
(-0.135782 0.0142708 0)
(-0.152157 0.00627056 0)
(-0.206106 0.0265258 0)
(-0.391328 0.0816564 0)
(-0.53153 0.128796 0)
(-0.548419 0.108366 0)
(-0.539138 0.0794108 0)
(-0.527067 0.0502895 0)
(-0.518658 0.0223579 0)
(-0.512124 -0.00485489 0)
(-0.505969 -0.0316754 0)
(-0.499565 -0.0581513 0)
(-0.492935 -0.084371 0)
(-0.486112 -0.110422 0)
(-0.479248 -0.136333 0)
(-0.471994 -0.162077 0)
(-0.464714 -0.188189 0)
(-0.457155 -0.215033 0)
(-0.449775 -0.241261 0)
(-0.44114 -0.266666 0)
(-0.431996 -0.292093 0)
(-0.422357 -0.317588 0)
(-0.412306 -0.342853 0)
(-0.401217 -0.367349 0)
(-0.389862 -0.39207 0)
(-0.37663 -0.416267 0)
(-0.362154 -0.440448 0)
(-0.345301 -0.463715 0)
(-0.327045 -0.48726 0)
(-0.306044 -0.5101 0)
(-0.283852 -0.533088 0)
(-0.259727 -0.555093 0)
(-0.234408 -0.576596 0)
(-0.208715 -0.596783 0)
(-0.0575113 -0.0230543 0)
(-0.0535117 -0.0225163 0)
(-0.0482745 -0.0218015 0)
(-0.0421385 -0.0208503 0)
(-0.0355265 -0.0193993 0)
(-0.0286945 -0.0173957 0)
(-0.0219012 -0.0149062 0)
(-0.015305 -0.0120378 0)
(-0.0089359 -0.00904307 0)
(-0.00269007 -0.00623594 0)
(0.00358113 -0.00396694 0)
(0.0098719 -0.00248243 0)
(0.0160887 -0.00190343 0)
(0.0222582 -0.00222726 0)
(0.0283664 -0.00354482 0)
(0.034412 -0.00577706 0)
(0.0403373 -0.00852712 0)
(0.0457522 -0.0113151 0)
(0.0500252 -0.0135961 0)
(0.0529915 -0.0151343 0)
(0.0532813 -0.0155059 0)
(0.0511454 -0.0146944 0)
(0.0461779 -0.0122634 0)
(0.0398171 -0.00890819 0)
(0.0362263 -0.0060293 0)
(0.0362678 -0.00400027 0)
(0.0390224 -0.00214029 0)
(0.0448141 -0.000658976 0)
(0.0535825 0.000209593 0)
(0.0645685 0.000606331 0)
(0.0768695 0.000728723 0)
(0.0902245 0.000612869 0)
(0.104921 0.000494804 0)
(0.12057 0.000560471 0)
(0.138182 0.000895551 0)
(0.153572 0.00131533 0)
(0.161676 0.00120671 0)
(0.149546 -0.00302144 0)
(0.0635105 -0.0260716 0)
(-0.0513364 -0.0524372 0)
(-0.112081 -0.0620528 0)
(-0.138277 -0.0598185 0)
(-0.154284 -0.0517458 0)
(-0.164228 -0.0407904 0)
(-0.172243 -0.0277654 0)
(-0.177832 -0.0138608 0)
(-0.178964 0.000922879 0)
(-0.180416 0.0140543 0)
(-0.181164 0.0246951 0)
(-0.180773 0.0319326 0)
(-0.179318 0.0365886 0)
(-0.174332 0.0390312 0)
(-0.168362 0.035925 0)
(-0.163029 0.0281652 0)
(-0.155381 0.0197802 0)
(-0.159688 0.0108745 0)
(-0.177681 0.0164153 0)
(-0.301008 0.0453721 0)
(-0.496543 0.106394 0)
(-0.557602 0.110091 0)
(-0.556117 0.0824231 0)
(-0.544451 0.0540732 0)
(-0.536673 0.0271303 0)
(-0.531191 0.00116675 0)
(-0.526453 -0.0242567 0)
(-0.5212 -0.0494637 0)
(-0.516073 -0.0745654 0)
(-0.510782 -0.0995618 0)
(-0.505782 -0.124805 0)
(-0.500626 -0.151008 0)
(-0.495772 -0.177197 0)
(-0.490638 -0.202545 0)
(-0.484959 -0.228206 0)
(-0.478194 -0.254076 0)
(-0.470904 -0.280428 0)
(-0.462478 -0.306814 0)
(-0.453235 -0.33339 0)
(-0.441907 -0.359504 0)
(-0.429624 -0.385627 0)
(-0.415075 -0.410864 0)
(-0.398525 -0.435496 0)
(-0.379648 -0.459698 0)
(-0.359335 -0.484378 0)
(-0.336679 -0.508178 0)
(-0.313202 -0.532159 0)
(-0.287857 -0.555174 0)
(-0.261819 -0.57739 0)
(-0.234784 -0.59782 0)
(-0.0532288 -0.0168375 0)
(-0.0497515 -0.0168694 0)
(-0.0449125 -0.0168072 0)
(-0.0391183 -0.0166393 0)
(-0.032481 -0.0164174 0)
(-0.0254367 -0.0156995 0)
(-0.0185454 -0.0141922 0)
(-0.0118407 -0.0120612 0)
(-0.00553452 -0.00953245 0)
(0.000391101 -0.00681862 0)
(0.00606469 -0.00431092 0)
(0.011656 -0.00239253 0)
(0.0173955 -0.00121521 0)
(0.0230031 -0.000918292 0)
(0.0286164 -0.00166773 0)
(0.0342274 -0.00335062 0)
(0.0399316 -0.00557502 0)
(0.0455772 -0.00797628 0)
(0.0503418 -0.0101842 0)
(0.0537911 -0.0117901 0)
(0.0553449 -0.0122971 0)
(0.0541316 -0.0117102 0)
(0.0503036 -0.0094721 0)
(0.0439706 -0.00594262 0)
(0.0385376 -0.00242133 0)
(0.0374353 0.0001242 0)
(0.0394805 0.00199329 0)
(0.0445001 0.00365893 0)
(0.0526975 0.00460293 0)
(0.0634412 0.00492043 0)
(0.0757918 0.00496804 0)
(0.0892677 0.00482379 0)
(0.104433 0.00461499 0)
(0.120953 0.00436461 0)
(0.138624 0.00413138 0)
(0.153374 0.00383003 0)
(0.158193 0.00238875 0)
(0.13117 -0.00633101 0)
(0.0263321 -0.0300576 0)
(-0.0722417 -0.0490843 0)
(-0.117542 -0.0544712 0)
(-0.139398 -0.0512971 0)
(-0.154286 -0.0434083 0)
(-0.165304 -0.0329303 0)
(-0.175454 -0.0212492 0)
(-0.182565 -0.00739006 0)
(-0.184866 0.00897551 0)
(-0.1877 0.0248836 0)
(-0.191426 0.0371754 0)
(-0.193187 0.0452164 0)
(-0.192901 0.0491875 0)
(-0.189267 0.0504028 0)
(-0.18449 0.0492193 0)
(-0.182747 0.0421976 0)
(-0.173677 0.0332434 0)
(-0.166855 0.0226008 0)
(-0.173889 0.0122482 0)
(-0.237764 0.0220574 0)
(-0.420472 0.0719171 0)
(-0.555134 0.107813 0)
(-0.569801 0.086782 0)
(-0.561838 0.0615365 0)
(-0.5546 0.0361482 0)
(-0.549999 0.0113202 0)
(-0.546871 -0.0131147 0)
(-0.54347 -0.0374361 0)
(-0.54034 -0.0616201 0)
(-0.537371 -0.0863133 0)
(-0.53482 -0.11196 0)
(-0.532363 -0.136849 0)
(-0.530364 -0.162067 0)
(-0.527441 -0.187796 0)
(-0.523349 -0.213909 0)
(-0.517802 -0.240896 0)
(-0.511304 -0.268711 0)
(-0.502327 -0.296495 0)
(-0.49192 -0.324626 0)
(-0.479193 -0.352196 0)
(-0.464722 -0.37919 0)
(-0.44795 -0.405714 0)
(-0.429375 -0.432136 0)
(-0.408746 -0.457831 0)
(-0.386746 -0.483163 0)
(-0.363192 -0.507862 0)
(-0.338699 -0.532545 0)
(-0.312853 -0.556416 0)
(-0.286277 -0.579379 0)
(-0.258517 -0.600643 0)
(-0.0492536 -0.00944289 0)
(-0.0459714 -0.0104169 0)
(-0.0413827 -0.011334 0)
(-0.0360191 -0.0119814 0)
(-0.0297645 -0.0122923 0)
(-0.0227674 -0.0124412 0)
(-0.0154656 -0.0123043 0)
(-0.00846729 -0.0113653 0)
(-0.0020352 -0.00965518 0)
(0.00395904 -0.00741523 0)
(0.00941777 -0.00494965 0)
(0.0145386 -0.00263252 0)
(0.0195964 -0.000909892 0)
(0.0247798 -8.2589e-06 0)
(0.029887 -8.55765e-05 0)
(0.0350592 -0.00109452 0)
(0.0404287 -0.00273701 0)
(0.0460046 -0.00476739 0)
(0.0512278 -0.00679806 0)
(0.0550823 -0.00833826 0)
(0.0577031 -0.00909084 0)
(0.0576094 -0.00865596 0)
(0.0550842 -0.00687604 0)
(0.0496216 -0.00357155 0)
(0.0430325 0.000373814 0)
(0.0402808 0.00346525 0)
(0.0414645 0.00549197 0)
(0.0456409 0.00714587 0)
(0.0530937 0.00815722 0)
(0.0633564 0.00851146 0)
(0.0756355 0.0086119 0)
(0.0892345 0.00856334 0)
(0.10471 0.00845473 0)
(0.121835 0.0081198 0)
(0.139476 0.00774115 0)
(0.153116 0.00722786 0)
(0.153454 0.00518846 0)
(0.109057 -0.00607945 0)
(-0.00308133 -0.0270933 0)
(-0.0850704 -0.0398422 0)
(-0.119621 -0.042611 0)
(-0.13787 -0.0389987 0)
(-0.152008 -0.0322955 0)
(-0.162798 -0.0226899 0)
(-0.17181 -0.0107608 0)
(-0.179185 0.0030046 0)
(-0.183738 0.0187218 0)
(-0.189557 0.0339803 0)
(-0.194819 0.0474424 0)
(-0.197899 0.0578189 0)
(-0.199225 0.0633575 0)
(-0.197898 0.0643619 0)
(-0.196459 0.0627701 0)
(-0.196289 0.0565369 0)
(-0.190899 0.0464079 0)
(-0.180041 0.0327039 0)
(-0.1738 0.0179972 0)
(-0.208383 0.0125756 0)
(-0.334712 0.0413994 0)
(-0.526857 0.0921625 0)
(-0.58088 0.0902324 0)
(-0.580347 0.0668571 0)
(-0.574511 0.0432624 0)
(-0.570944 0.0200838 0)
(-0.569458 -0.00241544 0)
(-0.568049 -0.024993 0)
(-0.567244 -0.0485826 0)
(-0.566916 -0.0725331 0)
(-0.566876 -0.0959535 0)
(-0.567534 -0.120401 0)
(-0.566972 -0.145572 0)
(-0.564829 -0.171975 0)
(-0.56134 -0.200113 0)
(-0.555165 -0.229404 0)
(-0.546829 -0.25947 0)
(-0.536176 -0.289631 0)
(-0.52324 -0.319354 0)
(-0.508456 -0.348489 0)
(-0.491711 -0.376877 0)
(-0.472688 -0.403898 0)
(-0.452235 -0.430407 0)
(-0.430142 -0.456478 0)
(-0.406997 -0.482516 0)
(-0.382782 -0.50822 0)
(-0.357606 -0.533569 0)
(-0.33158 -0.558234 0)
(-0.304822 -0.582062 0)
(-0.276805 -0.604217 0)
(-0.0451643 -0.0020427 0)
(-0.0422546 -0.00322011 0)
(-0.0380746 -0.00451893 0)
(-0.0329867 -0.00583833 0)
(-0.0269117 -0.00710912 0)
(-0.0201033 -0.0080746 0)
(-0.0128411 -0.00856132 0)
(-0.00548228 -0.00870519 0)
(0.00146279 -0.00809381 0)
(0.00763226 -0.00669706 0)
(0.0131925 -0.0047671 0)
(0.0182097 -0.00259918 0)
(0.0229044 -0.000620247 0)
(0.0276172 0.000739643 0)
(0.0323943 0.00126918 0)
(0.0371217 0.00097772 0)
(0.0420353 2.43132e-05 0)
(0.0472536 -0.00146533 0)
(0.0526628 -0.00322859 0)
(0.0572579 -0.00480336 0)
(0.0604268 -0.0058286 0)
(0.0617854 -0.00574021 0)
(0.060509 -0.00464513 0)
(0.0564827 -0.00193012 0)
(0.0499361 0.00195612 0)
(0.0452483 0.00560739 0)
(0.0452445 0.00794037 0)
(0.0484303 0.00968428 0)
(0.0548464 0.0106998 0)
(0.0643954 0.0111811 0)
(0.0763556 0.0114302 0)
(0.0900598 0.0115196 0)
(0.105697 0.0115368 0)
(0.123095 0.0113277 0)
(0.14074 0.0112879 0)
(0.152453 0.0108688 0)
(0.147759 0.0085554 0)
(0.0875472 -0.00297217 0)
(-0.0237778 -0.0193462 0)
(-0.0922191 -0.0272269 0)
(-0.120139 -0.0281099 0)
(-0.135551 -0.0245053 0)
(-0.149781 -0.0190472 0)
(-0.16015 -0.0109872 0)
(-0.168178 -5.40568e-05 0)
(-0.175058 0.0128518 0)
(-0.179892 0.028204 0)
(-0.18793 0.0434507 0)
(-0.195133 0.0571411 0)
(-0.202079 0.0669417 0)
(-0.204658 0.0732274 0)
(-0.205627 0.0751673 0)
(-0.206527 0.0737965 0)
(-0.207224 0.0684849 0)
(-0.203608 0.0576598 0)
(-0.192058 0.0429016 0)
(-0.18152 0.0288698 0)
(-0.198189 0.0148459 0)
(-0.272987 0.026434 0)
(-0.467536 0.0722411 0)
(-0.585713 0.0970808 0)
(-0.595677 0.0771308 0)
(-0.593316 0.0557883 0)
(-0.591507 0.0340938 0)
(-0.592401 0.0125585 0)
(-0.59381 -0.00985975 0)
(-0.595889 -0.0318939 0)
(-0.598272 -0.0543243 0)
(-0.601126 -0.0780013 0)
(-0.60236 -0.103012 0)
(-0.601582 -0.129937 0)
(-0.598418 -0.158758 0)
(-0.592068 -0.188988 0)
(-0.58317 -0.220753 0)
(-0.571712 -0.25295 0)
(-0.55882 -0.285047 0)
(-0.544247 -0.315716 0)
(-0.527456 -0.344844 0)
(-0.508883 -0.372814 0)
(-0.488686 -0.400251 0)
(-0.467242 -0.427761 0)
(-0.444306 -0.454983 0)
(-0.420233 -0.481923 0)
(-0.395224 -0.508473 0)
(-0.369649 -0.534839 0)
(-0.343173 -0.56032 0)
(-0.316227 -0.585048 0)
(-0.288081 -0.608021 0)
(-0.0410623 0.00535063 0)
(-0.0383788 0.0040787 0)
(-0.0344095 0.0025937 0)
(-0.0297118 0.00100046 0)
(-0.0239689 -0.0006584 0)
(-0.0172783 -0.00224098 0)
(-0.010002 -0.00352367 0)
(-0.00256628 -0.00420787 0)
(0.00465527 -0.00440893 0)
(0.0112784 -0.00386173 0)
(0.0171072 -0.00256063 0)
(0.0221789 -0.000813487 0)
(0.0268118 0.001018 0)
(0.0312106 0.00253049 0)
(0.0356585 0.00342153 0)
(0.040038 0.00361375 0)
(0.0445637 0.00316353 0)
(0.0494216 0.00212178 0)
(0.0548192 0.000632281 0)
(0.0599805 -0.00101509 0)
(0.0638622 -0.00231658 0)
(0.0664242 -0.0028946 0)
(0.0664911 -0.00243507 0)
(0.06409 -0.000748937 0)
(0.0587201 0.00246237 0)
(0.0526904 0.00640058 0)
(0.0509695 0.00920336 0)
(0.053026 0.0109156 0)
(0.0581295 0.0122985 0)
(0.0665783 0.0129493 0)
(0.0779519 0.0133972 0)
(0.0915763 0.0135946 0)
(0.107267 0.0137189 0)
(0.124729 0.013773 0)
(0.142211 0.0142573 0)
(0.152025 0.0141071 0)
(0.141983 0.0119065 0)
(0.069646 0.00180918 0)
(-0.0362474 -0.00945258 0)
(-0.094704 -0.0132333 0)
(-0.118699 -0.0123301 0)
(-0.132896 -0.00879017 0)
(-0.145305 -0.00326871 0)
(-0.156244 0.00300955 0)
(-0.163663 0.0126808 0)
(-0.170047 0.0244205 0)
(-0.174907 0.039097 0)
(-0.18346 0.0542296 0)
(-0.191174 0.0682954 0)
(-0.200141 0.077842 0)
(-0.204021 0.0850661 0)
(-0.208805 0.0866168 0)
(-0.213031 0.0855984 0)
(-0.21436 0.0798335 0)
(-0.21146 0.069611 0)
(-0.203511 0.0556898 0)
(-0.194128 0.0408331 0)
(-0.197411 0.0251197 0)
(-0.241837 0.0235491 0)
(-0.396897 0.0536644 0)
(-0.576268 0.0950308 0)
(-0.612478 0.0854682 0)
(-0.614328 0.0669916 0)
(-0.614892 0.047951 0)
(-0.617718 0.0277434 0)
(-0.621698 0.00776421 0)
(-0.626496 -0.0134183 0)
(-0.630631 -0.0361054 0)
(-0.632935 -0.0607297 0)
(-0.632618 -0.0878185 0)
(-0.628697 -0.1177 0)
(-0.621649 -0.150092 0)
(-0.612212 -0.183284 0)
(-0.600648 -0.215434 0)
(-0.586896 -0.246769 0)
(-0.571338 -0.277839 0)
(-0.554466 -0.309433 0)
(-0.53628 -0.340557 0)
(-0.516814 -0.370923 0)
(-0.495782 -0.400298 0)
(-0.473531 -0.428983 0)
(-0.450167 -0.457061 0)
(-0.425926 -0.484495 0)
(-0.400756 -0.510937 0)
(-0.375453 -0.537388 0)
(-0.348918 -0.562582 0)
(-0.322071 -0.587634 0)