/*--------------------------------*- C++ -*----------------------------------*\
  =========                 |
  \\      /  F ield         | OpenFOAM: The Open Source CFD Toolbox
   \\    /   O peration     | Website:  https://openfoam.org
    \\  /    A nd           | Version:  7
     \\/     M anipulation  |
\*---------------------------------------------------------------------------*/
FoamFile
{
    version     2.0;
    format      ascii;
    class       surfaceScalarField;
    location    "141";
    object      phi;
}
// * * * * * * * * * * * * * * * * * * * * * * * * * * * * * * * * * * * * * //

dimensions      [0 3 -1 0 0 0 0];

internalField   nonuniform List<scalar> 
30080
(
-0.000336318
0.00729428
-0.00695796
-1.62564e-06
0.0179544
-0.0182891
0.000940579
0.0158658
-0.0168081
0.00284639
-0.0035914
0.00168559
0.00437954
-0.0140888
0.0125556
0.00539884
-0.0195149
0.0184956
0.00552508
-0.0219934
0.0218671
0.0058247
-0.0226109
0.0223113
0.00774036
-0.0144695
0.0125539
0.010455
0.00112101
-0.00383566
0.0123347
0.0115218
-0.0134015
0.0129879
0.0218808
-0.0225341
0.0143522
0.0253909
-0.0267552
0.0174158
0.0151043
-0.0181679
0.000632762
-0.00313195
0.019915
-0.000341029
0.00763531
6.49654e-05
0.0175485
0.00124613
0.0146847
0.00316012
-0.00550539
0.00459535
-0.015524
0.00552735
-0.0204469
0.00565584
-0.0221219
0.00582755
-0.0227826
0.00768737
-0.0163293
0.0101903
-0.00138196
0.0119434
0.00976875
0.0127489
0.0210753
0.0140599
0.02408
0.0174131
0.0117511
-0.00221433
0.0202602
-0.000349647
0.00798496
0.000143698
0.0170551
0.0015695
0.0132589
0.003468
-0.00740388
0.00479976
-0.0168558
0.00565136
-0.0212985
0.00579522
-0.0222657
0.00587078
-0.0228582
0.00761733
-0.0180759
0.00986535
-0.00362998
0.0115744
0.00805972
0.0125965
0.0200531
0.0139195
0.022757
0.0174152
0.00825541
-0.00533177
0.0205326
-0.000363447
0.0083484
0.000229618
0.016462
0.0019099
0.0115786
0.00376502
-0.009259
0.00499698
-0.0180877
0.00576603
-0.0220675
0.00594242
-0.0224421
0.0059156
-0.0228314
0.00741829
-0.0195786
0.00951687
-0.00572856
0.0111878
0.00638883
0.0124466
0.0187942
0.0141866
0.021017
0.017772
0.00467008
-0.00846178
0.020902
-0.000382366
0.00873077
0.000322218
0.0157575
0.0022616
0.00963921
0.00404818
-0.0110456
0.00519081
-0.0192304
0.00586263
-0.0227393
0.00608218
-0.0226617
0.00593404
-0.0226832
0.00703192
-0.0206765
0.00910408
-0.00780073
0.0106391
0.00485384
0.0121874
0.0172459
0.0149144
0.01829
0.0186253
0.000959169
-0.0112438
0.0214073
-0.000404524
0.00913529
0.000423303
0.0149296
0.00261433
0.00744818
0.00431497
-0.0127462
0.00537563
-0.020291
0.00593671
-0.0233004
0.00619092
-0.0229159
0.00592829
-0.0224206
0.00647276
-0.0212209
0.00847011
-0.00979808
0.00984568
0.00347827
0.0118035
0.0152882
0.0157842
0.0143092
0.0197077
-0.00296427
-0.0135009
0.0219648
-0.000425862
0.00956115
0.000537654
0.0139661
0.00295516
0.00503068
0.00456257
-0.0143536
0.00553857
-0.021267
0.00599613
-0.023758
0.00625703
-0.0231768
0.0059421
-0.0221057
0.00588161
-0.0211604
0.00751892
-0.0114354
0.00887202
0.00212517
0.0114966
0.0126636
0.0165121
0.00929369
0.0205952
-0.00704728
-0.0153363
0.0224305
-0.00043961
0.0100008
0.000672229
0.0128543
0.00327055
0.00243235
0.00478688
-0.01587
0.00567023
-0.0221504
0.00605581
-0.0241436
0.00629351
-0.0234145
0.00602528
-0.0218374
0.00544795
-0.0205831
0.00633961
-0.012327
0.00789271
0.000572071
0.0116498
0.00890655
0.0172493
0.0036941
0.0211562
-0.0109541
-0.0168626
0.0226825
-0.000435937
0.0104367
0.00082783
0.0115905
0.00354883
-0.000288647
0.00498292
-0.0173041
0.00576955
-0.022937
0.00612204
-0.0244961
0.00632258
-0.023615
0.00618666
-0.0217015
0.00532565
-0.0197221
0.00541958
-0.012421
0.00741509
-0.00142344
0.0124822
0.0038394
0.0181522
-0.00197591
0.0214097
-0.0142116
-0.0181084
0.0226555
-0.000402698
0.0108394
0.0010134
0.0101744
0.00378583
-0.00306108
0.00514651
-0.0186647
0.00584138
-0.0236319
0.00618452
-0.0248392
0.00636028
-0.0237908
0.00638689
-0.0217281
0.00565985
-0.0189951
0.00557825
-0.0123394
0.00821206
-0.00405724
0.0138487
-0.00179726
0.018876
-0.00700314
0.0212977
-0.0166334
-0.019143
0.0223324
-0.00032775
0.0111671
0.00124443
0.00860223
0.00398876
-0.0058054
0.00527546
-0.0199514
0.00589018
-0.0242466
0.00622613
-0.0251752
0.006409
-0.0239736
0.00657324
-0.0218924
0.00638744
-0.0188093
0.00698357
-0.0129355
0.0100892
-0.00716289
0.0151752
-0.00688323
0.0190417
-0.0108696
0.0207815
-0.0183732
-0.020136
0.0217744
-0.000203308
0.0113705
0.0015306
0.00686832
0.00416377
-0.00843857
0.00536908
-0.0211567
0.00591558
-0.0247931
0.00624029
-0.0254999
0.00646309
-0.0241964
0.00672168
-0.0221509
0.00709062
-0.0191782
0.00853183
-0.0143767
0.0117034
-0.0103344
0.0156986
-0.0108784
0.0185735
-0.0137446
0.0199759
-0.0197756
-0.0212536
0.0210936
-2.48348e-05
0.0113953
0.0018664
0.00497709
0.00431007
-0.0108822
0.00542697
-0.0222737
0.00591468
-0.0252808
0.00623329
-0.0258185
0.00650661
-0.0244698
0.00687242
-0.0225168
0.00753518
-0.019841
0.00930275
-0.0161443
0.0121859
-0.0132176
0.0152976
-0.01399
0.0177285
-0.0161755
0.0191117
-0.0211588
-0.0225356
0.0203938
0.00014582
0.0112495
0.00222655
0.00289636
0.00442603
-0.0130817
0.00544904
-0.0232967
0.00588762
-0.0257194
0.00621083
-0.0261417
0.00652664
-0.0247856
0.00700181
-0.0229919
0.00779715
-0.0206363
0.00947612
-0.0178233
0.0120023
-0.0157438
0.0146361
-0.0166239
0.0169036
-0.018443
0.0183485
-0.0226036
-0.0239211
0.0197339
0.000323177
0.0109263
0.00257257
0.000646962
0.00450901
-0.0150182
0.00543663
-0.0242243
0.00583737
-0.0261201
0.00616981
-0.0264741
0.0065236
-0.0251394
0.00708006
-0.0235484
0.00796865
-0.0215249
0.00955048
-0.0194051
0.0118058
-0.0179991
0.0141117
-0.0189298
0.0162215
-0.0205528
0.0176673
-0.0240494
-0.0253508
0.019097
0.000479623
0.0104467
0.00286931
-0.00174273
0.00455693
-0.0167058
0.00539279
-0.0250601
0.00576541
-0.0264928
0.00610782
-0.0268165
0.00649749
-0.025529
0.00711265
-0.0241635
0.00805965
-0.0224719
0.00957224
-0.0209177
0.0116044
-0.0200312
0.013639
-0.0209644
0.0155951
-0.0225089
0.0170119
-0.0254662
-0.0268054
0.0184664
0.000602507
0.00984416
0.00309748
-0.00423769
0.00457023
-0.0181785
0.00532142
-0.0258113
0.00567294
-0.0268443
0.00602653
-0.0271701
0.00644621
-0.0259487
0.00710382
-0.0248212
0.00807331
-0.0234414
0.0094992
-0.0223436
0.0113375
-0.0218695
0.0131748
-0.0228018
0.0149964
-0.0243305
0.0163771
-0.0268469
-0.0282805
0.0178523
0.000692003
0.00915216
0.00325543
-0.00680112
0.00455192
-0.019475
0.0052266
-0.026486
0.00556217
-0.0271798
0.00592677
-0.0275347
0.00636961
-0.0263915
0.00705498
-0.0255065
0.00802658
-0.024413
0.0093753
-0.0236923
0.0110478
-0.023542
0.012733
-0.024487
0.0144242
-0.0260217
0.0157659
-0.0281886
-0.0297624
0.0172478
0.000756678
0.00839548
0.00335107
-0.00939551
0.00450643
-0.0206304
0.00511234
-0.0270919
0.00543511
-0.0275026
0.00580874
-0.0279084
0.0062689
-0.0268517
0.00696981
-0.0262074
0.00792762
-0.0253708
0.00920265
-0.0249673
0.0107304
-0.0250697
0.0122937
-0.0260503
0.013856
-0.027584
0.0151773
-0.0295099
-0.0312401
0.016655
0.00081002
0.00758546
0.00339406
-0.0119796
0.0044385
-0.0216748
0.00498202
-0.0276354
0.00529339
-0.027814
0.00567348
-0.0282885
0.00614513
-0.0273233
0.00685109
-0.0269134
0.00778422
-0.0263039
0.00898649
-0.0261696
0.01039
-0.0264732
0.0118488
-0.0275091
0.0132899
-0.0290252
0.0146075
-0.0308275
-0.0326726
0.0160399
0.000869985
0.00671548
0.00339291
-0.0145025
0.00435205
-0.022634
0.00483787
-0.0281213
0.00513841
-0.0281145
0.00552178
-0.0286718
0.00599941
-0.027801
0.0067014
-0.0276154
0.00760282
-0.0272054
0.00873565
-0.0273024
0.0100316
-0.0277692
0.0113916
-0.0288691
0.0127284
-0.0303619
0.0140289
-0.032128
-0.0339581
0.0153144
0.000956039
0.00575944
0.00336201
-0.0169084
0.0042497
-0.0235216
0.00468203
-0.0285536
0.00497186
-0.0284044
0.00535495
-0.0290549
0.00583355
-0.0282796
0.00652389
-0.0283057
0.0073882
-0.0280697
0.00845335
-0.0283676
0.00965485
-0.0289707
0.0109211
-0.0301354
0.0121779
-0.0316187
0.0134086
-0.0333587
-0.0351823
0.0146327
0.00108851
0.00467093
0.00331581
-0.0191358
0.00413155
-0.0243374
0.00451558
-0.0289376
0.0047946
-0.0286834
0.00517375
-0.0294341
0.00564857
-0.0287544
0.00632077
-0.0289779
0.00714438
-0.0288933
0.00814471
-0.0293679
0.00926057
-0.0300865
0.0104408
-0.0313156
0.0116171
-0.032795
0.0128028
-0.0345445
-0.0363468
0.0139674
0.00128646
0.00338447
0.00325854
-0.0211078
0.00399788
-0.0250767
0.00433937
-0.0292791
0.00460757
-0.0289516
0.00497912
-0.0298056
0.00544579
-0.0292211
0.00609425
-0.0296264
0.00687466
-0.0296737
0.00781226
-0.0303055
0.00884947
-0.0311237
0.00994642
-0.0324125
0.0110546
-0.0339032
0.0121745
-0.0356644
-0.0374619
0.0132896
0.00154687
0.0018376
0.0031914
-0.0227524
0.00384882
-0.0257341
0.00415406
-0.0295843
0.00441158
-0.0292091
0.00477195
-0.030166
0.0052264
-0.0296755
0.00584642
-0.0302464
0.0065819
-0.0304092
0.00745878
-0.0311824
0.00842143
-0.0320864
0.00944133
-0.0334324
0.0104803
-0.0349421
0.0115361
-0.0367203
-0.0385225
0.0125968
0.00182897
8.62437e-06
0.00311153
-0.0240349
0.00368355
-0.0263062
0.00396039
-0.0298612
0.00420734
-0.0294561
0.0045531
-0.0305117
0.00499162
-0.030114
0.0055792
-0.030834
0.00626878
-0.0310987
0.00708619
-0.0319998
0.00797779
-0.032978
0.00892445
-0.0343791
0.00989407
-0.0359117
0.010885
-0.0377112
-0.0395322
0.0118947
0.00206162
-0.002053
0.00301367
-0.024987
0.00350678
-0.0267993
0.00375937
-0.0301138
0.00399549
-0.0296922
0.00432342
-0.0308397
0.0047426
-0.0305332
0.00529443
-0.0313858
0.00593756
-0.0317419
0.00669614
-0.0327584
0.00751951
-0.0338014
0.00839473
-0.0352543
0.00929808
-0.0368151
0.0102242
-0.0386373
-0.0404785
0.0111705
0.00218299
-0.00423599
0.00289547
-0.0256994
0.00332263
-0.0272264
0.00355214
-0.0303433
0.00377661
-0.0299166
0.0040837
-0.0311468
0.00448044
-0.03093
0.0049938
-0.0318992
0.0055902
-0.0323383
0.00629033
-0.0334585
0.00704703
-0.0345581
0.0078546
-0.0360619
0.00868901
-0.0376495
0.00954993
-0.0394982
-0.0413667
0.0104381
0.00218379
-0.00641978
0.00276056
-0.0262762
0.00313377
-0.0275996
0.00333979
-0.0305493
0.00355125
-0.0301281
0.00383472
-0.0314302
0.00420623
-0.0313015
0.00467886
-0.0323718
0.00522832
-0.0328877
0.00586992
-0.0341001
0.0065622
-0.0352503
0.00730167
-0.0368013
0.00807038
-0.0384182
0.00886637
-0.0402942
-0.0421869
0.00968658
0.00210228
-0.00852206
0.00261554
-0.0267895
0.00294199
-0.0279261
0.00312323
-0.0307306
0.00331993
-0.0303248
0.00357725
-0.0316875
0.003921
-0.0316452
0.00435107
-0.0328019
0.00485326
-0.0333899
0.00543648
-0.0346833
0.00606493
-0.0358788
0.00673914
-0.0374755
0.00744011
-0.0391192
0.00816907
-0.0410232
-0.0429432
0.00892541
0.00198531
-0.0105074
0.00246567
-0.0272698
0.0027483
-0.0282087
0.0029032
-0.0308855
0.00308321
-0.0305048
0.00331203
-0.0319164
0.00362574
-0.0319589
0.00401177
-0.0331879
0.00446632
-0.0338445
0.00499092
-0.0352079
0.00555724
-0.0364451
0.00616531
-0.0380836
0.00680021
-0.0397541
0.00746256
-0.0416855
-0.0436296
0.00814893
0.00186079
-0.0123682
0.00230942
-0.0277185
0.00255323
-0.0284525
0.00268035
-0.0310126
0.00284163
-0.0306661
0.00303981
-0.0321146
0.00332144
-0.0322406
0.00366218
-0.0335286
0.00406859
-0.0342509
0.00453472
-0.035674
0.00503913
-0.0369495
0.00558264
-0.0386271
0.00615038
-0.0403218
0.00674413
-0.0422793
-0.044248
0.00736249
0.00173783
-0.014106
0.00214796
-0.0281286
0.00235719
-0.0286617
0.00245521
-0.0311106
0.00259575
-0.0308066
0.00276125
-0.0322801
0.00300909
-0.0324884
0.00330336
-0.0338229
0.00366128
-0.0346088
0.00406874
-0.0360815
0.00451235
-0.0373931
0.00499059
-0.0391054
0.00549169
-0.0408229
0.00601703
-0.0428046
-0.0447952
0.0065643
0.00161813
-0.0157241
0.0019835
-0.028494
0.00216057
-0.0288388
0.00222824
-0.0311783
0.00234612
-0.0309245
0.00247704
-0.032411
0.00268962
-0.032701
0.0029363
-0.0340696
0.00324552
-0.034918
0.00359424
-0.0364302
0.00397723
-0.0377761
0.00439081
-0.039519
0.00482488
-0.041257
0.00528072
-0.0432605
-0.0452719
0.00575738
0.00150134
-0.0172255
0.00181751
-0.0288101
0.00196377
-0.0289851
0.00199985
-0.0312143
0.00209327
-0.0310179
0.0021878
-0.0325055
0.00236392
-0.0328771
0.00256197
-0.0342676
0.00282249
-0.0351785
0.00311197
-0.0367197
0.00343515
-0.0380993
0.00378368
-0.0398675
0.00415085
-0.0416242
0.00453701
-0.0436466
-0.0456767
0.00494184
0.00138679
-0.0186123
0.00165106
-0.0290744
0.00176716
-0.0291012
0.00177037
-0.0312176
0.00183771
-0.0310853
0.00189421
-0.032562
0.00203276
-0.0330157
0.00218146
-0.0344163
0.00239301
-0.0353901
0.00262304
-0.0369497
0.0028869
-0.0383631
0.0031703
-0.0401509
0.00347058
-0.0419244
0.00378673
-0.0439628
-0.0460095
0.00411956
0.00127418
-0.0198864
0.00148493
-0.0292852
0.00157109
-0.0291873
0.00154009
-0.0311866
0.00157993
-0.0311251
0.00159692
-0.032579
0.00169686
-0.0331156
0.00179591
-0.0345154
0.0019577
-0.0355519
0.00212872
-0.0371207
0.00233333
-0.0385678
0.00255165
-0.0403692
0.00278496
-0.0421577
0.00303075
-0.0442086
-0.0462702
0.00329143
0.00116342
-0.0210499
0.00131973
-0.0294415
0.00137588
-0.0292435
0.00130931
-0.03112
0.00132047
-0.0311363
0.00129656
-0.0325551
0.00135697
-0.033176
0.00140628
-0.0345647
0.00151722
-0.0356628
0.00163043
-0.037234
0.00177481
-0.0387121
0.00192888
-0.0405233
0.00209484
-0.0423237
0.00227051
-0.0443842
-0.0464583
0.0024586
0.00105452
-0.0221044
0.00115588
-0.0295428
0.00118183
-0.0292694
0.00107829
-0.0310165
0.00105978
-0.0311178
0.000993708
-0.032489
0.00101404
-0.0331964
0.001013
-0.0345636
0.00107307
-0.0357229
0.00112875
-0.0372896
0.00121233
-0.0387957
0.0013033
-0.0406142
0.00140116
-0.0424216
0.00150665
-0.0444897
-0.0465736
0.00162199
0.000947539
-0.0230519
0.000993706
-0.029589
0.000989209
-0.0292649
0.000847288
-0.0308745
0.000798337
-0.0310688
0.000688716
-0.0323794
0.000669408
-0.0331771
0.000615735
-0.03451
0.000627708
-0.0357349
0.000622893
-0.0372848
0.000648619
-0.0388214
0.000674943
-0.0406406
0.000705688
-0.0424523
0.00074111
-0.0445252
-0.0466146
0.000782029
0.000842514
-0.0238944
0.000833315
-0.0295798
0.000798164
-0.0292298
0.000616198
-0.0306926
0.000536878
-0.0309895
0.000380542
-0.0322231
0.000325333
-0.0331218
0.000212004
-0.0343966
0.000184753
-0.0357076
0.000109265
-0.0372093
8.75285e-05
-0.0387997
4.1061e-05
-0.0405941
1.11696e-05
-0.0424224
-2.57516e-05
-0.0444882
-0.0465785
-6.18108e-05
0.000739631
-0.0246341
0.000675043
-0.0295152
0.000609297
-0.029164
0.000384821
-0.0304681
0.00027793
-0.0308826
6.46035e-05
-0.0320097
-9.51813e-06
-0.0330477
-0.000184965
-0.0342212
-0.000269001
-0.0356236
-0.000390347
-0.037088
-0.000484966
-0.0387051
-0.000583189
-0.0404959
-0.000686117
-0.0423195
-0.0007913
-0.0443831
-0.0464717
-0.00089815
0.000638913
-0.025273
0.000518793
-0.0293951
0.000423103
-0.0290683
0.000150439
-0.0301954
2.80317e-05
-0.0307602
-0.000230081
-0.0317516
-0.000377531
-0.0329003
-0.000572212
-0.0340265
-0.000728257
-0.0354675
-0.000890763
-0.0369255
-0.00105422
-0.0385416
-0.00121074
-0.0403394
-0.00137982
-0.0421504
-0.00155513
-0.0442078
-0.0462926
-0.00173419
0.000540441
-0.0258134
0.000364212
-0.0292189
0.000240942
-0.0289451
-7.78745e-05
-0.0298766
-0.000249761
-0.0305883
-0.000524185
-0.0314772
-0.000734475
-0.03269
-0.000963176
-0.0337978
-0.00118276
-0.035248
-0.00139356
-0.0367147
-0.00161904
-0.0383161
-0.00183851
-0.0401199
-0.00207106
-0.0419179
-0.00231554
-0.0439633
-0.0460408
-0.00256731
0.000444347
-0.0262578
0.000209995
-0.0289845
6.65699e-05
-0.0288016
-0.00028711
-0.0295229
-0.000519789
-0.0303556
-0.000820072
-0.0311769
-0.00108718
-0.0324229
-0.00135557
-0.0335294
-0.00163321
-0.0349703
-0.00189669
-0.0364512
-0.00217946
-0.0380334
-0.0024635
-0.0398358
-0.00275924
-0.0416221
-0.00307171
-0.0436508
-0.045717
-0.00339556
0.000350881
-0.0266086
5.03389e-05
-0.028684
-0.000123355
-0.0286279
-0.000498946
-0.0291473
-0.000784949
-0.0300696
-0.00111633
-0.0308455
-0.00143592
-0.0321033
-0.00174798
-0.0332174
-0.00207963
-0.0346387
-0.00239856
-0.0361323
-0.0027364
-0.0376955
-0.00308405
-0.0394882
-0.0034432
-0.041263
-0.00382248
-0.0432715
-0.0453218
-0.00421765
0.000260411
-0.026869
-8.41943e-05
-0.0283394
-0.000315398
-0.0283967
-0.00071015
-0.0287526
-0.00104581
-0.0297339
-0.00141192
-0.0304794
-0.00178068
-0.0317345
-0.00213913
-0.0328589
-0.00252183
-0.034256
-0.00289756
-0.0357565
-0.00329043
-0.0373027
-0.00369947
-0.0390792
-0.00412174
-0.0408407
-0.00456683
-0.0428264
-0.0448565
-0.00503212
0.000173471
-0.0270425
-0.000208942
-0.027957
-0.000499785
-0.0281059
-0.000920007
-0.0283324
-0.00130255
-0.0293514
-0.00170595
-0.030076
-0.00212131
-0.0313192
-0.00252787
-0.0324523
-0.00295961
-0.0338242
-0.00339229
-0.0353239
-0.00384051
-0.0368544
-0.00430928
-0.0386104
-0.00479393
-0.0403561
-0.00530371
-0.0423166
-0.0443224
-0.00583787
9.09915e-05
-0.0271335
-0.000334504
-0.0275315
-0.000678811
-0.0277616
-0.00112779
-0.0278834
-0.00155508
-0.0289241
-0.00199764
-0.0296335
-0.00245759
-0.0308592
-0.00291309
-0.0319968
-0.00339262
-0.0333447
-0.00388142
-0.0348351
-0.00438521
-0.0363507
-0.0049127
-0.0380829
-0.00545885
-0.0398099
-0.0060322
-0.0417433
-0.0437209
-0.00663367
1.65994e-05
-0.0271501
-0.000458701
-0.0270562
-0.000853241
-0.0273671
-0.00133312
-0.0274035
-0.00180332
-0.0284539
-0.00228621
-0.0291506
-0.00278929
-0.0303561
-0.0032938
-0.0314923
-0.00382044
-0.0328181
-0.004364
-0.0342915
-0.00492318
-0.0357915
-0.00550874
-0.0374973
-0.00611559
-0.0392031
-0.0067515
-0.0411074
-0.0430541
-0.00741825
-8.04091e-05
-0.0270697
-0.000581008
-0.0265556
-0.00102325
-0.0269248
-0.00153548
-0.0268913
-0.0020471
-0.0279423
-0.00257096
-0.0286267
-0.00311607
-0.029811
-0.00366912
-0.0309393
-0.00424252
-0.0322447
-0.00483927
-0.0336948
-0.00545332
-0.0351774
-0.00609632
-0.0368543
-0.00676312
-0.0385363
-0.00746062
-0.0404099
-0.0423242
-0.00819057
-0.000170869
-0.0268988
-0.000700563
-0.0260259
-0.00118886
-0.0264365
-0.0017345
-0.0263456
-0.00228624
-0.0273906
-0.00285126
-0.0280617
-0.00343758
-0.0292247
-0.00403829
-0.0303386
-0.00465818
-0.0316248
-0.00530662
-0.0330463
-0.00597468
-0.0345094
-0.00667441
-0.0361546
-0.00740036
-0.0378103
-0.00815832
-0.0396519
-0.0415327
-0.00894984
-0.000255321
-0.0266435
-0.000817374
-0.0254638
-0.00135008
-0.0259038
-0.00192977
-0.0257659
-0.00252055
-0.0267998
-0.00312649
-0.0274558
-0.00375339
-0.0285978
-0.00440062
-0.0296913
-0.00506667
-0.0309587
-0.00576537
-0.0323476
-0.00648637
-0.0337883
-0.00724196
-0.035399
-0.00802621
-0.0370261
-0.00884326
-0.0388349
-0.0406799
-0.009696
-0.000335553
-0.026308
-0.000931196
-0.0248682
-0.00150688
-0.0253281
-0.00212095
-0.0251519
-0.00274978
-0.026171
-0.00339613
-0.0268094
-0.00406304
-0.0279309
-0.00475552
-0.0289989
-0.00546721
-0.030247
-0.00621483
-0.0316
-0.00698754
-0.0330156
-0.0077979
-0.0345887
-0.00863956
-0.0361844
-0.00951471
-0.0379597
-0.0397652
-0.0104295
-0.000412205
-0.0258958
-0.00104192
-0.0242385
-0.0016592
-0.0247108
-0.00230768
-0.0245034
-0.00297367
-0.025505
-0.00365967
-0.0261234
-0.00436605
-0.0272245
-0.00510243
-0.0282625
-0.00585906
-0.0294904
-0.00665431
-0.0308047
-0.0074774
-0.0321925
-0.00834117
-0.0337249
-0.00923929
-0.0352863
-0.0101728
-0.0370262
-0.0387869
-0.0111511
-0.000485561
-0.0254102
-0.0011494
-0.0235746
-0.00180699
-0.0240532
-0.00248967
-0.0238207
-0.00319197
-0.0248027
-0.00391666
-0.0253987
-0.00466191
-0.0264792
-0.00544083
-0.0274836
-0.00624151
-0.0286897
-0.00708317
-0.0299631
-0.00795534
-0.0313204
-0.00887095
-0.0328093
-0.00982421
-0.034333
-0.0108173
-0.0360331
-0.0377478
-0.0118564
-0.000555785
-0.0248544
-0.00125355
-0.0228768
-0.00195015
-0.0233567
-0.00266661
-0.0231043
-0.00340438
-0.0240649
-0.00416668
-0.0246364
-0.00495013
-0.0256958
-0.00577019
-0.0266635
-0.00661391
-0.027846
-0.00750072
-0.0290763
-0.00842076
-0.0304003
-0.00938668
-0.0318434
-0.0103931
-0.0333266
-0.0114439
-0.0349824
-0.0366568
-0.0125348
-0.000622974
-0.0242314
-0.00135426
-0.0221456
-0.0020886
-0.0226223
-0.00283823
-0.0223546
-0.00361062
-0.0232925
-0.00440935
-0.0238377
-0.0052302
-0.0248749
-0.00609002
-0.0258037
-0.00697561
-0.0269604
-0.00790631
-0.0281456
-0.00887292
-0.0294337
-0.00988757
-0.0308287
-0.0109447
-0.0322694
-0.0120466
-0.0338806
-0.0355173
-0.0131862
-0.000687191
-0.0235442
-0.00145143
-0.0213813
-0.00222223
-0.0218515
-0.00300427
-0.0215726
-0.00381038
-0.0224864
-0.0046443
-0.0230038
-0.00550165
-0.0240176
-0.00639982
-0.0249055
-0.00732604
-0.0260342
-0.00829926
-0.0271724
-0.00931089
-0.0284221
-0.0103722
-0.0297674
-0.0114777
-0.0311639
-0.01263
-0.0327283
-0.0343231
-0.0138242
-0.000748476
-0.0227958
-0.00154498
-0.0205848
-0.00235094
-0.0210455
-0.00316448
-0.0207591
-0.00400337
-0.0216475
-0.00487117
-0.022136
-0.005764
-0.0231248
-0.0066991
-0.0239704
-0.00766467
-0.0250686
-0.00867897
-0.0261581
-0.00973382
-0.0273672
-0.0108393
-0.0286619
-0.0119916
-0.0300116
-0.0132083
-0.0315116
-0.0330534
-0.014478
-0.000806885
-0.0219889
-0.00163487
-0.0197568
-0.0024747
-0.0202057
-0.00331876
-0.019915
-0.00418944
-0.0207768
-0.0050898
-0.0212356
-0.00601701
-0.0221976
-0.00698764
-0.0229998
-0.00799121
-0.0240651
-0.00904509
-0.0251042
-0.0101414
-0.0262709
-0.0112894
-0.0275139
-0.0124862
-0.0288148
-0.0137409
-0.0302569
-0.0316959
-0.0150985
-0.000862371
-0.0211265
-0.00172091
-0.0188983
-0.00259322
-0.0193334
-0.00346666
-0.0190416
-0.00436802
-0.0198755
-0.00529952
-0.0203041
-0.00625985
-0.0212372
-0.00726452
-0.0219951
-0.0083046
-0.023025
-0.00939634
-0.0240124
-0.0105324
-0.0251348
-0.0117218
-0.0263245
-0.0129638
-0.0275728
-0.0142719
-0.0289489
-0.0303066
-0.0156611
-0.000914975
-0.0202115
-0.00180308
-0.0180102
-0.00270647
-0.01843
-0.00360809
-0.0181399
-0.00453898
-0.0189446
-0.0055002
-0.0193429
-0.00649234
-0.0202451
-0.00752954
-0.0209579
-0.00860459
-0.0219499
-0.00973243
-0.0228846
-0.0109064
-0.0239608
-0.0121362
-0.0250947
-0.0134245
-0.0262845
-0.0147843
-0.0275892
-0.0288868
-0.0162042
-0.000964704
-0.0192468
-0.00188129
-0.0170936
-0.00281433
-0.017497
-0.00374286
-0.0172114
-0.00470204
-0.0179854
-0.00569154
-0.0183534
-0.00671409
-0.0192225
-0.00778227
-0.0198897
-0.00889069
-0.0208415
-0.0100528
-0.0217224
-0.0112631
-0.0227505
-0.012531
-0.0238268
-0.0138599
-0.0249556
-0.0152598
-0.0261893
-0.0274235
-0.0167231
-0.00101156
-0.0182353
-0.00195548
-0.0161497
-0.00291669
-0.0165358
-0.00387079
-0.0162573
-0.00485697
-0.0169992
-0.00587326
-0.0173371
-0.00692475
-0.018171
-0.00802232
-0.0187921
-0.00916239
-0.0197014
-0.0103571
-0.0205278
-0.0116023
-0.0215053
-0.0129082
-0.0225209
-0.014278
-0.0235858
-0.0157158
-0.0247515
-0.0259214
-0.0172179
-0.00105554
-0.0171797
-0.00202557
-0.0151797
-0.00301343
-0.0155479
-0.00399172
-0.015279
-0.00500351
-0.0159874
-0.00604508
-0.0162955
-0.00712399
-0.0170921
-0.00824931
-0.0176668
-0.00941928
-0.0185315
-0.0106445
-0.0193025
-0.0119222
-0.0202277
-0.013262
-0.0211811
-0.0146672
-0.0221805
-0.0161419
-0.0232769
-0.0243781
-0.0176852
-0.00109665
-0.0160831
-0.00209148
-0.0141848
-0.00310444
-0.0145349
-0.00410547
-0.014278
-0.00514145
-0.0149514
-0.00620674
-0.0152302
-0.00731148
-0.0159874
-0.00846287
-0.0165154
-0.00966103
-0.0173333
-0.0109153
-0.0180482
-0.0122246
-0.0189184
-0.0135976
-0.0198081
-0.0150367
-0.0207413
-0.0165449
-0.0217687
-0.022798
-0.018125
-0.00113489
-0.0149482
-0.00215316
-0.0131666
-0.00318962
-0.0134985
-0.00421189
-0.0132557
-0.00527056
-0.0138928
-0.006358
-0.0141428
-0.00748693
-0.0148585
-0.00866262
-0.0153398
-0.00988701
-0.0161089
-0.0111681
-0.0167671
-0.012506
-0.0175805
-0.0139089
-0.0184051
-0.0153796
-0.0192707
-0.0169209
-0.0202274
-0.0211827
-0.0185362
-0.00117026
-0.0137779
-0.00221052
-0.0121263
-0.00326885
-0.0124402
-0.00431085
-0.0122137
-0.00539065
-0.012813
-0.00649864
-0.0130348
-0.00765007
-0.013707
-0.00884835
-0.0141415
-0.0100973
-0.01486
-0.0114036
-0.0154608
-0.0127686
-0.0162155
-0.0141995
-0.0169743
-0.015699
-0.0177712
-0.0172704
-0.018656
-0.0195351
-0.018918
-0.00120276
-0.0125752
-0.00226352
-0.0110655
-0.00334204
-0.0113616
-0.00440222
-0.0111535
-0.00550154
-0.0117137
-0.00662844
-0.0119079
-0.00780061
-0.0125349
-0.00901963
-0.0129225
-0.010291
-0.0135886
-0.0116204
-0.0141315
-0.0130102
-0.0148257
-0.0144667
-0.0155178
-0.0159931
-0.0162447
-0.0175927
-0.0170565
-0.0178577
-0.0192701
-0.00123241
-0.0113428
-0.00231208
-0.00998587
-0.00340911
-0.0102646
-0.00448587
-0.0100768
-0.00560306
-0.0105965
-0.00674721
-0.0107638
-0.00793836
-0.0113437
-0.00917633
-0.0116845
-0.0104684
-0.0122965
-0.0118188
-0.0127811
-0.0132312
-0.0134132
-0.014711
-0.014038
-0.0162619
-0.0146938
-0.0178871
-0.0154313
-0.0161531
-0.0195917
-0.00125933
-0.0100834
-0.00235617
-0.00888903
-0.00346996
-0.00915082
-0.00456168
-0.00898505
-0.00569506
-0.00946309
-0.00685476
-0.00960406
-0.00806306
-0.0101354
-0.00931811
-0.0104294
-0.0106288
-0.0109859
-0.0119982
-0.0114117
-0.0134311
-0.0119804
-0.0149319
-0.0125372
-0.0165049
-0.0131208
-0.0181533
-0.0137829
-0.014424
-0.0198824
-0.00128362
-0.00879981
-0.00239573
-0.00777692
-0.00352453
-0.00802202
-0.00462956
-0.00788001
-0.0057774
-0.00831525
-0.00695094
-0.00843052
-0.00817455
-0.00891182
-0.00944479
-0.00915918
-0.0107721
-0.00965855
-0.0121584
-0.0100254
-0.0136095
-0.0105293
-0.015129
-0.0110177
-0.0167218
-0.011528
-0.0183908
-0.0121139
-0.012673
-0.0201418
-0.00130523
-0.00749459
-0.00243071
-0.00665143
-0.00357273
-0.00688
-0.00468942
-0.00676332
-0.00584996
-0.00715471
-0.0070356
-0.00724488
-0.00827263
-0.00767479
-0.00955617
-0.00787564
-0.0108981
-0.00831665
-0.0122992
-0.00862424
-0.0137663
-0.00906222
-0.0153022
-0.00948174
-0.0169123
-0.00991788
-0.0185994
-0.0104268
-0.0109029
-0.0203695
-0.00132409
-0.0061705
-0.00246109
-0.00551444
-0.00361452
-0.00572656
-0.00474118
-0.00563667
-0.00591263
-0.00598326
-0.00710861
-0.0060489
-0.00835717
-0.00642624
-0.00965208
-0.00658072
-0.0110065
-0.00696223
-0.0124203
-0.00721043
-0.0139011
-0.00758145
-0.0154511
-0.00793174
-0.017076
-0.00829294
-0.0187787
-0.00872417
-0.00911639
-0.0205652
-0.00134018
-0.00483032
-0.00248681
-0.0043678
-0.00364985
-0.00456352
-0.00478477
-0.00450174
-0.00596532
-0.00480272
-0.00716987
-0.00484434
-0.00842802
-0.00516809
-0.00973236
-0.00527638
-0.0110972
-0.00559737
-0.0125216
-0.00578608
-0.0140138
-0.00608925
-0.0155755
-0.00637001
-0.0172128
-0.00665562
-0.0189283
-0.00700863
-0.00731616
-0.0207286
-0.00135346
-0.00347686
-0.00250785
-0.00321341
-0.00367865
-0.00339272
-0.00482014
-0.00336026
-0.00600795
-0.0036149
-0.00721929
-0.00363301
-0.00848509
-0.00390229
-0.0097969
-0.00396457
-0.0111701
-0.00422417
-0.0126028
-0.00435337
-0.0141042
-0.0045879
-0.0156752
-0.00479894
-0.0173224
-0.00500843
-0.0190483
-0.0052828
-0.00550502
-0.0208594
-0.00136392
-0.00211294
-0.0025242
-0.00205314
-0.00370091
-0.002216
-0.00484724
-0.00221394
-0.00604047
-0.00242166
-0.00725678
-0.00241671
-0.00852828
-0.00263079
-0.00984558
-0.00264727
-0.011225
-0.00284475
-0.0126639
-0.00291446
-0.0141721
-0.00307972
-0.0157502
-0.00322087
-0.0174047
-0.00335386
-0.0191383
-0.00354928
-0.0036857
-0.0209576
-0.00137155
-0.000741389
-0.00253583
-0.000888863
-0.00371661
-0.00103522
-0.00486604
-0.00106451
-0.00606283
-0.00122486
-0.0072823
-0.00119724
-0.00855753
-0.00135556
-0.00987835
-0.00132645
-0.0112619
-0.00146125
-0.0127048
-0.00147152
-0.0142175
-0.00156702
-0.0158002
-0.0016382
-0.0174596
-0.0016944
-0.0191983
-0.00181065
-0.00186107
-0.0210229
-0.00137635
0.000634966
-0.00254274
0.000277519
-0.00372572
0.000147768
-0.00487652
8.62844e-05
-0.00607501
-2.63723e-05
-0.00729581
2.35618e-05
-0.00857279
-7.8577e-05
-0.00989515
-4.09251e-06
-0.0112806
-7.57839e-05
-0.0127254
-2.67492e-05
-0.0142403
-5.21117e-05
-0.0158252
-5.32989e-05
-0.017487
-3.25497e-05
-0.0192282
-6.94936e-05
-3.38092e-05
-0.0210555
-0.00137833
0.0020133
-0.00254493
0.00144412
-0.00372826
0.0013311
-0.00487867
0.0012367
-0.00607698
0.00117194
-0.0072973
0.00124388
-0.00857405
0.00119817
-0.00989595
0.00131781
-0.0112812
0.00130949
-0.0127257
0.00141768
-0.0142404
0.00146266
-0.0158252
0.00153143
-0.0174869
0.00162917
-0.019228
0.00167163
0.00179314
-0.0210549
-0.0013775
0.00339079
-0.00254241
0.00260903
-0.00372422
0.0025129
-0.00487251
0.00238499
-0.00606876
0.00236819
-0.00728677
0.0024619
-0.00856129
0.00247269
-0.00988075
0.00263727
-0.0112637
0.00269242
-0.0127056
0.00285958
-0.0142179
0.00297497
-0.0158001
0.00311359
-0.0174591
0.00328825
-0.0191977
0.00341018
0.00361688
-0.0210214
-0.00137388
0.00476467
-0.00253521
0.00377036
-0.00371364
0.00369133
-0.00485805
0.0035294
-0.00605036
0.0035605
-0.00726425
0.00367579
-0.00853456
0.003743
-0.00984959
0.0039523
-0.011228
0.00407086
-0.0126652
0.00429677
-0.0141727
0.00448248
-0.01575
0.00469083
-0.0174039
0.00494219
-0.0191373
0.00514359
0.00543555
-0.020956
-0.0013675
0.00613218
-0.00252335
0.0049262
-0.00369654
0.00486453
-0.00483533
0.00466819
-0.00602183
0.004747
-0.00722978
0.00488374
-0.00849389
0.00500711
-0.00980251
0.00526093
-0.0111743
0.00544269
-0.0126046
0.00572707
-0.014105
0.00598288
-0.015675
0.00626078
-0.0173213
0.00658854
-0.019047
0.00686923
0.00724594
-0.0208574
-0.00135842
0.00749059
-0.00250686
0.00607465
-0.00367298
0.00603064
-0.00480438
0.0057996
-0.00598321
0.00592582
-0.0071834
0.00608393
-0.00843934
0.00626305
-0.00973959
0.00656117
-0.0111027
0.00680577
-0.0125239
0.00714832
-0.0140149
0.00747385
-0.0155752
0.00782106
-0.0172114
0.00822473
-0.0189267
0.00858457
0.00904533
-0.0207261
-0.00134667
0.00883727
-0.0024858
0.00721378
-0.003643
0.00718783
-0.00476528
0.00692188
-0.00593458
0.00709512
-0.00712521
0.00727457
-0.00837102
0.00750886
-0.00966093
0.00785108
-0.0110131
0.00815799
-0.0124232
0.00855835
-0.0139024
0.00895308
-0.0154507
0.00936931
-0.0170743
0.00984832
-0.0187767
0.010287
0.0108309
-0.0205622
-0.00133234
0.0101696
-0.00246022
0.00834166
-0.00360667
0.00833428
-0.00471808
0.00803329
-0.00587601
0.00825305
-0.00705528
0.00845384
-0.00828901
0.00874259
-0.00956663
0.0091287
-0.0109059
0.00949723
-0.0123026
0.00995504
-0.0137678
0.0104183
-0.0153016
0.0109032
-0.0169101
0.0114568
-0.0185971
0.011974
0.0125999
-0.0203661
-0.0013155
0.0114851
-0.00243018
0.00945634
-0.00356407
0.00946818
-0.00466287
0.00913209