/*--------------------------------*- C++ -*----------------------------------*\
  =========                 |
  \\      /  F ield         | OpenFOAM: The Open Source CFD Toolbox
   \\    /   O peration     | Website:  https://openfoam.org
    \\  /    A nd           | Version:  7
     \\/     M anipulation  |
\*---------------------------------------------------------------------------*/
FoamFile
{
    version     2.0;
    format      ascii;
    class       volVectorField;
    location    "78";
    object      U;
}
// * * * * * * * * * * * * * * * * * * * * * * * * * * * * * * * * * * * * * //

dimensions      [0 1 -1 0 0 0 0];

internalField   nonuniform List<vector> 
41600
(
(-0.0405843 -0.109874 -2.35342e-20)
(-0.10021 -0.105642 -3.27027e-20)
(-0.158253 -0.0772157 1.69468e-23)
(-0.198016 -0.0219564 -2.69867e-20)
(-0.222863 0.0656331 3.56899e-20)
(-0.22979 0.18284 -7.22695e-20)
(-0.217787 0.304824 -9.1304e-21)
(-0.196731 0.403576 6.34282e-20)
(-0.164536 0.451569 -1.29795e-20)
(-0.112705 0.422241 -2.07335e-20)
(-0.0298812 0.301746 -8.60135e-21)
(0.0767198 0.110765 2.6272e-20)
(0.191953 -0.0996839 -1.45273e-20)
(0.293399 -0.28265 -1.36176e-20)
(0.366598 -0.412327 -1.15947e-20)
(0.404976 -0.48762 2.37689e-21)
(0.40246 -0.52631 4.49532e-22)
(0.339984 -0.558368 -1.14125e-20)
(0.284887 -0.514545 2.24294e-21)
(0.313713 -0.351914 3.2245e-21)
(0.406021 -0.106919 -1.55505e-20)
(0.501067 0.13442 1.36872e-20)
(0.577657 0.313782 -4.08438e-21)
(0.629555 0.409893 1.07044e-21)
(0.645875 0.459981 4.10186e-21)
(-0.0397875 -0.104277 -1.08299e-19)
(-0.100385 -0.0999002 1.652e-19)
(-0.159153 -0.0717235 -3.33593e-20)
(-0.199099 -0.0179867 1.51277e-20)
(-0.224241 0.0677233 -1.02882e-19)
(-0.231393 0.18202 1.10584e-19)
(-0.218232 0.301375 -1.47794e-20)
(-0.192728 0.397603 -8.23993e-20)
(-0.151939 0.441953 1.98338e-20)
(-0.0888365 0.40701 -7.10782e-20)
(0.00424091 0.280287 1.22246e-20)
(0.118289 0.085116 4.66442e-20)
(0.238548 -0.125647 4.22279e-20)
(0.341401 -0.304219 8.01911e-20)
(0.411753 -0.426132 2.18286e-20)
(0.445303 -0.491767 2.16768e-20)
(0.444194 -0.515978 2.67543e-21)
(0.384473 -0.537229 3.54062e-20)
(0.308894 -0.507248 2.72351e-21)
(0.31084 -0.369016 -1.03111e-20)
(0.384155 -0.13782 -1.02265e-20)
(0.470842 0.102582 -2.53232e-20)
(0.550764 0.287471 -1.01373e-20)
(0.610731 0.395555 -1.03117e-21)
(0.61819 0.470874 -8.85781e-21)
(-0.0391038 -0.0985609 2.40706e-20)
(-0.100322 -0.0941218 -5.60222e-20)
(-0.159298 -0.0662951 -7.36584e-20)
(-0.198704 -0.0141724 4.67774e-20)
(-0.223177 0.0695629 9.46265e-20)
(-0.229354 0.180771 -1.23168e-19)
(-0.213766 0.297133 6.23974e-20)
(-0.182741 0.390348 4.65996e-21)
(-0.132828 0.430797 8.54432e-20)
(-0.0587745 0.390686 1.25172e-19)
(0.0436847 0.258446 9.64146e-20)
(0.165119 0.0600678 9.6363e-21)
(0.290109 -0.150259 1.71424e-21)
(0.393425 -0.323686 -7.56014e-20)
(0.460416 -0.437241 -7.1691e-20)
(0.487975 -0.494186 -2.88475e-20)
(0.485477 -0.505536 4.11426e-21)
(0.43207 -0.513289 -3.63373e-20)
(0.343414 -0.492007 7.96467e-21)
(0.317273 -0.379379 -1.05374e-20)
(0.371986 -0.16594 1.56885e-20)
(0.451285 0.0697262 3.89853e-20)
(0.533069 0.258256 2.87908e-20)
(0.594979 0.381346 -8.54101e-21)
(0.593098 0.481536 -8.1072e-21)
(-0.0385437 -0.0927503 -1.81217e-19)
(-0.100042 -0.0883397 2.48825e-20)
(-0.158723 -0.0609675 2.4963e-19)
(-0.196894 -0.0105584 -1.4455e-19)
(-0.219779 0.0711022 8.20059e-20)
(-0.223853 0.179053 3.1643e-19)
(-0.204673 0.292104 -1.55896e-19)
(-0.167208 0.381914 2.36199e-19)
(-0.107794 0.41837 1.20935e-19)
(-0.0232311 0.373536 1.54981e-19)
(0.0879487 0.236634 4.89976e-20)
(0.216954 0.0358132 -1.93262e-19)
(0.346229 -0.173203 -1.07839e-19)
(0.448844 -0.340789 6.09542e-20)
(0.511649 -0.4455 6.4365e-20)
(0.533024 -0.494276 4.17035e-21)
(0.526014 -0.495118 -2.29645e-20)
(0.480211 -0.488301 2.43959e-20)
(0.386674 -0.469553 -5.60986e-20)
(0.3335 -0.382245 -3.04377e-20)
(0.369183 -0.191085 2.63126e-20)
(0.44167 0.0365603 -1.23696e-20)
(0.522445 0.227856 7.08784e-21)
(0.581428 0.368003 1.76295e-20)
(0.571277 0.491112 9.45487e-21)
(-0.0381162 -0.0868732 2.47174e-20)
(-0.0995673 -0.0825872 -3.59047e-19)
(-0.157469 -0.0557774 2.82457e-19)
(-0.193743 -0.0071883 -3.06082e-20)
(-0.214176 0.0722944 -3.17221e-19)
(-0.215105 0.176832 -2.63821e-19)
(-0.191288 0.2863 7.38601e-20)
(-0.146604 0.37241 -2.09666e-19)
(-0.0774795 0.404969 -1.41055e-19)
(0.0171376 0.355697 -2.49902e-19)
(0.136618 0.215137 -1.94237e-20)
(0.27338 0.0125501 7.60439e-20)
(0.406309 -0.194165 1.74381e-19)
(0.506981 -0.355231 -9.73603e-20)
(0.56441 -0.45089 1.12581e-19)
(0.579947 -0.491621 -7.56868e-20)
(0.566031 -0.484444 -5.50435e-20)
(0.526776 -0.463836 -2.12789e-20)
(0.435967 -0.441396 -7.46107e-21)
(0.360075 -0.376804 4.07939e-20)
(0.374374 -0.212368 -3.73607e-20)
(0.438528 0.00404795 1.34942e-20)
(0.515821 0.197563 -2.81697e-20)
(0.569046 0.355552 -2.12452e-20)
(0.553344 0.498456 -3.03945e-21)
(-0.0378308 -0.0809549 8.78618e-20)
(-0.098921 -0.0768963 3.27863e-19)
(-0.155582 -0.0507601 -7.45517e-19)
(-0.189337 -0.00410377 3.88943e-19)
(-0.206512 0.073095 1.92328e-19)
(-0.203349 0.174078 -4.48706e-20)
(-0.173976 0.279736 1.93657e-19)
(-0.121427 0.361941 -2.45642e-20)
(-0.0425402 0.390734 6.43139e-20)
(0.0616135 0.337537 2.50607e-19)
(0.189267 0.194074 1.79434e-19)
(0.333845 -0.00949665 -1.12844e-20)
(0.469554 -0.212874 -9.92763e-20)
(0.567053 -0.366722 3.41164e-19)
(0.617788 -0.453417 -5.44315e-20)
(0.627728 -0.486102 1.15907e-19)
(0.605976 -0.472962 3.10581e-20)
(0.570404 -0.440998 6.54949e-20)
(0.487925 -0.409798 1.29636e-20)
(0.397072 -0.362586 -2.88872e-20)
(0.386901 -0.227865 2.3623e-20)
(0.438019 -0.026756 -3.00139e-20)
(0.510558 0.167928 -6.18115e-21)
(0.55708 0.343352 -2.82387e-20)
(0.539959 0.502253 -7.95294e-21)
(-0.0376965 -0.0750204 -1.61824e-19)
(-0.0981283 -0.0712979 -4.47167e-19)
(-0.153111 -0.0459492 2.81533e-19)
(-0.183771 -0.00134466 -6.19695e-19)
(-0.19695 0.073463 -2.04926e-19)
(-0.188848 0.170762 6.18968e-20)
(-0.153128 0.272428 -3.00349e-19)
(-0.092221 0.350638 1.81166e-19)
(-0.00357602 0.375708 -1.46803e-19)
(0.109525 0.319356 -8.5091e-20)
(0.245395 0.173532 -1.35257e-19)
(0.397673 -0.0301579 2.89024e-19)
(0.535035 -0.229108 -2.99524e-19)
(0.628115 -0.375048 -1.49829e-19)
(0.671053 -0.453057 -5.36322e-20)
(0.675117 -0.477883 -9.49202e-20)
(0.646123 -0.460092 5.67904e-20)
(0.610654 -0.42023 -2.12433e-20)
(0.539109 -0.377417 8.47397e-21)
(0.443224 -0.340175 2.91648e-20)
(0.407812 -0.23506 1.40978e-20)
(0.438622 -0.0545362 -2.25986e-20)
(0.505921 0.138993 3.71469e-20)
(0.545552 0.330429 5.30595e-20)
(0.531761 0.501378 -6.0774e-21)
(-0.0377219 -0.0690934 7.20347e-19)
(-0.0972151 -0.0658218 4.6224e-19)
(-0.150109 -0.0413765 1.42278e-19)
(-0.177142 0.00105167 6.56991e-19)
(-0.185659 0.0733599 2.95936e-19)
(-0.171879 0.166862 4.84855e-19)
(-0.129144 0.264389 -2.25332e-19)
(-0.0595384 0.338551 5.22581e-20)
(0.0387363 0.360127 1.86532e-20)
(0.160206 0.30123 -1.40242e-19)
(0.304449 0.153578 -5.93747e-20)
(0.464081 -0.0492829 -2.99921e-19)
(0.601761 -0.242689 3.58785e-19)
(0.689109 -0.380108 3.96548e-20)
(0.72354 -0.449763 -1.74406e-19)
(0.720985 -0.467299 -1.85154e-20)
(0.686249 -0.445466 -6.48272e-20)
(0.647936 -0.401285 -1.98527e-20)
(0.586674 -0.346738 4.45203e-20)
(0.495555 -0.311597 1.96604e-20)
(0.438851 -0.231832 -2.66529e-21)
(0.442303 -0.0773784 3.31703e-20)
(0.503736 0.110922 -1.91471e-21)
(0.535254 0.315947 -3.23014e-21)
(0.529543 0.495134 2.16593e-20)
(-0.0379153 -0.0631961 -6.26876e-19)
(-0.0962073 -0.0604963 3.39742e-19)
(-0.146628 -0.0370716 -2.79219e-20)
(-0.169556 0.00305074 1.18524e-19)
(-0.172819 0.0727509 1.34459e-19)
(-0.152731 0.162353 -6.9662e-19)
(-0.102444 0.255626 3.72862e-19)
(-0.023904 0.325713 -4.62503e-19)
(0.0837041 0.3442 -1.38273e-19)
(0.212962 0.283188 -2.20557e-19)
(0.365836 0.134247 -4.16014e-19)
(0.532216 -0.0667318 9.29411e-21)
(0.668708 -0.253477 -6.50996e-20)
(0.748976 -0.38191 -2.34608e-19)
(0.774526 -0.443532 3.33079e-19)
(0.764578 -0.454696 1.89826e-19)
(0.725587 -0.429094 -5.71984e-20)
(0.683138 -0.383407 -2.87977e-20)
(0.628919 -0.319512 -2.00625e-20)
(0.549911 -0.280066 -3.47384e-20)
(0.480436 -0.217628 -1.54102e-20)
(0.453547 -0.0927925 -3.38761e-22)
(0.507591 0.0845684 -2.87512e-20)
(0.527242 0.299513 -1.04616e-20)
(0.534724 0.483147 -4.77885e-20)
(-0.0382842 -0.0573491 7.20412e-19)
(-0.0951301 -0.0553482 -9.62263e-19)
(-0.142721 -0.0330616 -6.05493e-19)
(-0.161115 0.00462157 -7.2335e-19)
(-0.15861 0.0716049 1.53551e-19)
(-0.131696 0.157218 1.13582e-19)
(-0.0734522 0.246157 1.70751e-19)
(0.0141387 0.312215 4.3991e-20)
(0.130597 0.327997 8.40601e-20)
(0.267115 0.265225 -2.04322e-19)
(0.428951 0.11555 4.18219e-19)
(0.60118 -0.0823904 -7.63196e-20)
(0.734844 -0.261384 3.9412e-19)
(0.806755 -0.380541 -8.61004e-20)
(0.823212 -0.434478 1.01447e-19)
(0.805515 -0.440332 -3.33754e-19)
(0.763116 -0.411339 -4.84868e-20)
(0.717038 -0.365705 -8.65686e-20)
(0.665614 -0.296367 -2.32027e-20)
(0.602034 -0.24921 -8.74957e-21)
(0.530352 -0.194226 5.78884e-21)
(0.476998 -0.0986723 -1.95081e-21)
(0.520797 0.0625856 1.19968e-20)
(0.522491 0.281328 -2.51748e-22)
(0.549136 0.464973 1.81065e-20)
(-0.0388358 -0.0515715 7.76644e-20)
(-0.0940075 -0.0504025 1.05128e-18)
(-0.138439 -0.0293709 -6.96558e-20)
(-0.151921 0.00573749 3.22992e-19)
(-0.143212 0.0698959 -9.39704e-19)
(-0.109064 0.151437 -3.75047e-20)
(-0.0425926 0.236002 -2.80587e-19)
(0.0540308 0.298122 2.59657e-19)
(0.178643 0.311555 3.69967e-19)
(0.322042 0.247295 4.61785e-20)
(0.493217 0.0974929 1.05991e-19)
(0.670076 -0.0961658 -1.0869e-19)
(0.799152 -0.266388 -2.46474e-19)
(0.861607 -0.376138 -3.71688e-19)
(0.86883 -0.422841 -5.95391e-20)
(0.843601 -0.424386 9.36591e-20)
(0.798 -0.392726 2.23573e-19)
(0.74979 -0.347584 4.61638e-21)
(0.697868 -0.276793 2.56622e-20)
(0.648701 -0.222058 1.45823e-20)
(0.583938 -0.165588 -1.91357e-21)
(0.515082 -0.0942506 3.17676e-21)
(0.544884 0.0481458 -1.15451e-21)
(0.522181 0.262222 -4.91631e-21)
(0.574104 0.439944 5.8528e-21)
(-0.0395762 -0.0458808 -1.66869e-18)
(-0.0928616 -0.0456823 -8.80491e-19)
(-0.133826 -0.0260201 7.28943e-19)
(-0.142067 0.00637724 -3.5668e-19)
(-0.126794 0.067604 1.23324e-18)
(-0.0851113 0.144985 -2.6528e-19)
(-0.0102787 0.225179 5.3991e-19)
(0.0951976 0.283494 1.12439e-19)
(0.227052 0.294872 -3.47176e-19)
(0.377262 0.229308 4.62248e-19)
(0.55813 0.0800788 2.36537e-19)
(0.738028 -0.107978 -4.5736e-21)
(0.860668 -0.26853 -3.96332e-19)
(0.912804 -0.368895 2.258e-19)
(0.910777 -0.408952 -3.07481e-19)
(0.878645 -0.407041 1.36524e-19)
(0.829872 -0.373706 -1.04793e-19)
(0.780871 -0.32899 1.23675e-20)
(0.727411 -0.259566 -1.22281e-20)
(0.688578 -0.200127 -2.25796e-21)
(0.635563 -0.136763 2.31926e-22)
(0.565888 -0.0808428 -1.48576e-22)
(0.57892 0.043355 -9.65552e-22)
(0.529431 0.243744 1.22975e-20)
(0.610845 0.407827 7.33516e-21)
(-0.0405106 -0.0402927 1.52604e-18)
(-0.0917111 -0.0412087 3.5842e-19)
(-0.128924 -0.0230261 -1.66931e-19)
(-0.131633 0.00652625 3.15403e-19)
(-0.10951 0.0647178 -1.02922e-18)
(-0.0600965 0.137882 6.2964e-19)
(0.0231144 0.213689 -2.03312e-19)
(0.137049 0.268391 -2.37603e-19)
(0.275091 0.277902 -1.00913e-19)
(0.432522 0.211155 -4.85943e-19)
(0.623283 0.0633329 -3.76581e-19)
(0.804194 -0.117753 3.46548e-19)
(0.918529 -0.26791 6.03119e-19)
(0.959732 -0.359063 8.05454e-19)
(0.948665 -0.393177 -2.34691e-19)
(0.910423 -0.388553 9.60443e-20)
(0.858769 -0.354535 1.05325e-19)
(0.80955 -0.310299 1.08346e-19)
(0.755563 -0.243498 2.37897e-20)
(0.722381 -0.183084 1.16993e-20)
(0.680655 -0.112179 -3.76374e-21)
(0.623423 -0.0620325 -2.65553e-20)
(0.619757 0.0485643 4.76828e-20)
(0.55011 0.227688 -3.8022e-20)
(0.661719 0.370045 3.7799e-21)
(-0.0416435 -0.0348212 -2.55051e-19)
(-0.0905711 -0.0370005 -5.89781e-19)
(-0.123762 -0.0204016 -5.86206e-19)
(-0.120682 0.00617818 2.9133e-19)
(-0.0914824 0.0612357 8.93491e-19)
(-0.0342503 0.130154 -1.53358e-19)
(0.0572434 0.201542 -1.78051e-19)
(0.179006 0.252864 -2.53788e-19)
(0.322224 0.26055 -2.03619e-19)
(0.487903 0.192755 -1.02869e-20)
(0.688338 0.047351 -1.02936e-19)
(0.867761 -0.125418 -9.41258e-19)
(0.971987 -0.264677 -5.49633e-19)
(1.00192 -0.346957 8.57446e-20)
(0.982298 -0.375887 1.80154e-19)
(0.938775 -0.369243 -2.34414e-19)
(0.88486 -0.335344 -1.81998e-19)
(0.83545 -0.291963 -6.82793e-20)
(0.782617 -0.228021 6.56785e-21)
(0.75198 -0.169314 -9.10877e-21)
(0.717558 -0.0941122 1.15177e-20)
(0.679691 -0.0425911 5.73389e-20)
(0.663184 0.0606018 -1.74446e-20)
(0.591273 0.214975 1.58634e-20)
(0.728358 0.330065 -1.50823e-20)
(-0.042978 -0.0294787 7.4807e-19)
(-0.089452 -0.0330742 5.38905e-19)
(-0.118358 -0.0181549 7.13834e-19)
(-0.10925 0.00533655 -4.62831e-19)
(-0.07279 0.0571696 -1.07925e-18)
(-0.00772811 0.121832 -5.82802e-19)
(0.091833 0.188816 1.68289e-19)
(0.220554 0.23696 3.15741e-20)
(0.368314 0.242716 7.64978e-19)
(0.543834 0.174137 3.46912e-19)
(0.75295 0.0323124 2.50179e-19)
(0.927933 -0.130909 9.74941e-19)
(1.02043 -0.259025 -2.78825e-19)
(1.03905 -0.332934 -3.69746e-19)
(1.01162 -0.357454 1.866e-19)
(0.963694 -0.349445 1.57015e-19)
(0.908263 -0.316261 7.45992e-20)
(0.858707 -0.274232 3.87626e-20)
(0.80812 -0.213191 -1.2985e-20)
(0.778939 -0.157151 3.00413e-21)
(0.747829 -0.0820887 -1.00099e-20)
(0.72809 -0.0265825 -7.15796e-20)
(0.70505 0.073491 6.2015e-20)
(0.65529 0.20514 -2.21604e-20)
(0.80551 0.291883 1.29632e-20)
(-0.0445158 -0.0242761 -1.10605e-18)
(-0.0883581 -0.0294442 6.97317e-19)
(-0.112717 -0.0162892 7.73391e-19)
(-0.0973403 0.00401689 3.3857e-20)
(-0.0534563 0.0525601 3.42492e-19)
(0.0194134 0.112974 2.18471e-19)
(0.126723 0.175628 -5.3379e-19)
(0.261382 0.220722 3.4021e-19)
(0.413826 0.224363 -6.67607e-19)
(0.601 0.155457 -2.75379e-19)
(0.816662 0.0184791 1.37753e-20)
(0.983933 -0.134185 5.57254e-19)
(1.06339 -0.251202 7.89919e-19)
(1.07102 -0.31738 -1.4142e-19)
(1.03671 -0.338251 2.46357e-19)
(0.985314 -0.329456 9.44845e-20)
(0.929063 -0.297459 6.36756e-20)
(0.879684 -0.257155 1.7935e-20)
(0.831603 -0.199241 -1.61312e-20)
(0.803798 -0.145797 -8.81504e-21)
(0.774353 -0.0739374 1.78757e-20)
(0.766311 -0.0156112 -1.42087e-20)
(0.74327 0.0811938 -9.0308e-20)
(0.73356 0.194834 -4.73208e-20)
(0.87824 0.256548 2.17299e-20)
(-0.0462575 -0.0192229 5.89242e-19)
(-0.0872872 -0.0261224 -6.44015e-19)
(-0.106824 -0.0148023 -1.23574e-18)
(-0.0849132 0.00224883 7.7691e-20)
(-0.0334351 0.0474821 3.26968e-19)
(0.0472408 0.103675 -1.29419e-19)
(0.161924 0.162148 8.82025e-20)
(0.301578 0.204222 2.17704e-19)
(0.459918 0.205605 -1.95712e-19)
(0.660077 0.137024 1.29885e-18)
(0.878798 0.00617245 -7.96959e-20)
(1.03503 -0.13525 -3.56453e-19)
(1.10059 -0.2415 -5.1267e-19)
(1.09786 -0.300687 -1.5241e-20)
(1.05775 -0.318631 -3.19042e-19)
(1.00386 -0.309538 -1.64988e-19)
(0.947409 -0.279113 -6.89212e-20)
(0.898675 -0.240737 -6.42003e-21)
(0.852978 -0.186244 -2.50841e-20)
(0.82653 -0.135212 1.61741e-20)
(0.799014 -0.0676914 2.31673e-20)
(0.796378 -0.00899844 -2.02071e-20)
(0.778361 0.081061 3.68883e-20)
(0.808262 0.180373 -6.30874e-21)
(0.930909 0.222109 -4.20614e-20)
(-0.0482018 -0.0143275 -7.99949e-19)
(-0.0862292 -0.0231185 3.00419e-19)
(-0.100643 -0.0136874 5.2587e-19)
(-0.0718768 7.79011e-05 -1.11304e-19)
(-0.012584 0.0420303 3.00046e-19)
(0.0759736 0.0940962 5.2291e-19)
(0.197677 0.14861 6.5032e-20)
(0.341826 0.187613 -4.30305e-19)
(0.508273 0.186783 5.85175e-19)
(0.721347 0.119331 -1.07803e-18)
(0.938416 -0.0042803 -3.23989e-19)
(1.08056 -0.134178 -3.95454e-19)
(1.1319 -0.230252 8.29184e-20)
(1.1198 -0.283248 5.41155e-20)
(1.07505 -0.298919 7.36552e-20)
(1.01959 -0.28992 4.17848e-20)
(0.963526 -0.261354 -2.82443e-21)
(0.915846 -0.225014 1.00262e-20)
(0.872414 -0.174116 8.52431e-20)
(0.847213 -0.125512 1.397e-20)
(0.822139 -0.0624922 -2.36906e-21)
(0.821889 -0.00539461 2.41529e-20)
(0.811497 0.0748045 1.82812e-20)
(0.864445 0.161292 4.00171e-20)
(0.959087 0.18793 2.75212e-20)
(-0.0503457 -0.00959691 5.17124e-19)
(-0.0851654 -0.02044 6.36009e-19)
(-0.0941143 -0.0129322 -2.95325e-19)
(-0.0580806 -0.00243495 3.84116e-20)
(0.00935385 0.0363234 4.4295e-19)
(0.106008 0.0844714 2.61838e-19)
(0.234521 0.135307 7.35046e-19)
(0.383481 0.171193 3.32037e-19)
(0.560627 0.168459 -6.96606e-20)
(0.784376 0.102944 3.74958e-19)
(0.994361 -0.0126245 9.15023e-19)
(1.12003 -0.131132 1.02024e-19)
(1.15743 -0.217819 8.22491e-20)
(1.13716 -0.265429 1.77388e-19)
(1.08896 -0.279394 -2.14253e-19)
(1.0328 -0.270795 1.41353e-20)
(0.977664 -0.244267 -7.97009e-20)
(0.931331 -0.210032 -1.34715e-19)
(0.890122 -0.162759 -3.2446e-20)
(0.866115 -0.116675 7.61841e-21)
(0.843541 -0.0581847 -7.28631e-21)
(0.845029 -0.00378429 -4.27345e-20)
(0.841656 0.06563 4.4284e-20)
(0.899875 0.139754 -8.99493e-21)
(0.970851 0.156099 -7.42305e-21)
(-0.0526845 -0.00503772 -8.15618e-20)
(-0.0840672 -0.0180927 -1.41037e-18)
(-0.0871488 -0.0125198 3.30728e-19)
(-0.0433082 -0.00521448 2.9255e-19)
(0.0327495 0.0305244 -1.02431e-18)
(0.137919 0.0750874 2.33927e-19)
(0.273317 0.122588 -9.03378e-20)
(0.42837 0.155438 5.94648e-19)
(0.618078 0.151316 -3.87921e-19)
(0.847899 0.0883826 -1.27699e-18)
(1.04543 -0.0187407 -1.59926e-21)
(1.15315 -0.12636 -2.98677e-19)
(1.17746 -0.20457 -3.97832e-19)
(1.1504 -0.247564 -2.43252e-19)
(1.0999 -0.260289 3.56251e-20)
(1.04382 -0.252315 -5.62686e-20)
(0.990063 -0.227911 3.07427e-20)
(0.945284 -0.195817 7.56904e-20)
(0.906282 -0.152111 2.04672e-20)
(0.88348 -0.108612 -3.65012e-20)
(0.863183 -0.0546836 2.04551e-21)
(0.866142 -0.00358916 3.87311e-20)
(0.867355 0.0558736 -2.16936e-20)
(0.921499 0.118786 -7.49744e-21)
(0.976282 0.128676 2.17969e-20)
(-0.0552114 -0.000655808 -8.70334e-19)
(-0.082896 -0.0160803 4.84661e-19)
(-0.0796288 -0.0124286 1.27705e-19)
(-0.0272798 -0.00815743 -2.88687e-19)
(0.0580893 0.0248236 8.99072e-19)
(0.172427 0.0662716 -5.9947e-19)
(0.315187 0.110844 -6.76564e-19)
(0.47828 0.140966 -4.38353e-19)
(0.680493 0.135987 4.72838e-19)
(0.910006 0.0760086 1.07234e-18)
(1.09055 -0.0226743 1.86876e-19)
(1.17992 -0.12018 8.18777e-19)
(1.19243 -0.190861 6.08928e-19)
(1.16002 -0.229933 8.39639e-20)
(1.10829 -0.241785 3.90495e-20)
(1.05295 -0.234589 3.08652e-19)
(1.00094 -0.212322 2.20679e-19)
(0.957863 -0.182374 1.37442e-19)
(0.921049 -0.142123 4.73066e-20)
(0.899447 -0.101245 2.67625e-20)
(0.88115 -0.0518137 1.76086e-21)
(0.885035 -0.00435738 -2.54664e-20)
(0.888675 0.0465758 -3.01361e-20)
(0.936393 0.100028 9.01538e-21)
(0.980305 0.106043 -1.96658e-20)
(-0.0579172 0.00354318 5.86634e-19)
(-0.0816018 -0.0144056 1.40996e-19)
(-0.071403 -0.0126321 9.31209e-20)
(-0.00965332 -0.0111458 -8.04293e-19)
(0.0859453 0.0194402 -1.6309e-18)
(0.210327 0.0583702 -3.00477e-21)
(0.361326 0.100493 9.7164e-19)
(0.534286 0.128401 -3.49103e-19)
(0.746323 0.122888 7.99491e-19)
(0.968543 0.0659598 7.7176e-20)
(1.129 -0.0246244 -6.41368e-19)
(1.2006 -0.112942 -1.13856e-18)
(1.20293 -0.177012 -5.63921e-19)
(1.16658 -0.212766 8.70003e-20)
(1.11454 -0.224018 2.9808e-19)
(1.06048 -0.21769 -3.07623e-21)
(1.01049 -0.197513 4.53802e-20)
(0.969215 -0.169693 -7.63231e-20)
(0.934556 -0.13275 -6.96526e-20)
(0.914099 -0.0945047 5.02805e-22)
(0.897537 -0.0493936 -4.84668e-21)
(0.901792 -0.00569731 -4.48339e-21)
(0.906557 0.0380993 3.74784e-20)
(0.947996 0.0838224 3.87107e-20)
(0.983946 0.0875401 1.59649e-23)
(-0.0607907 0.00755359 -6.38767e-19)
(-0.0801226 -0.0130698 9.39197e-19)
(-0.0622866 -0.0130996 2.29739e-19)
(0.00997482 -0.0140557 4.62945e-19)
(0.116932 0.0146253 7.77855e-19)
(0.252373 0.0517161 -3.26813e-19)
(0.412667 0.0919374 -5.99432e-19)
(0.59618 0.118186 5.18668e-19)
(0.812957 0.112137 -8.89085e-19)
(1.02159 0.0581492 -5.68379e-19)
(1.16051 -0.024897 9.21144e-20)
(1.21569 -0.104997 8.35546e-19)
(1.2096 -0.163294 6.50741e-19)
(1.1706 -0.196232 -2.64374e-19)
(1.11903 -0.207076 2.96997e-20)
(1.06668 -0.201657 -2.23836e-19)
(1.01889 -0.183487 2.57165e-19)
(0.979472 -0.157754 1.38079e-20)
(0.946917 -0.123946 -7.09232e-20)
(0.927513 -0.0883168 2.38573e-20)
(0.912449 -0.0472839 7.65809e-21)
(0.916663 -0.00730368 -4.99248e-21)
(0.921785 0.0305625 -2.10102e-20)
(0.957516 0.0699683 -3.307e-20)
(0.98727 0.0723461 8.93743e-21)
(-0.0638182 0.0113695 1.47759e-18)
(-0.0783844 -0.0120736 5.31436e-19)
(-0.0520593 -0.013799 8.88413e-20)
(0.0320448 -0.0167424 1.5863e-18)
(0.151646 0.0106338 3.00611e-19)
(0.299141 0.0465973 -4.37545e-19)
(0.46952 0.0854914 -9.31702e-19)
(0.662337 0.110441 -1.09838e-18)
(0.877428 0.103578 -3.44902e-19)
(1.0678 0.0523235 -3.47224e-19)
(1.18524 -0.0238446 1.63126e-19)
(1.22587 -0.0966575 4.17823e-19)
(1.2131 -0.149918 -2.20626e-19)
(1.17259 -0.180448 9.75584e-19)
(1.1221 -0.191011 -8.13738e-19)
(1.07177 -0.186502 2.15409e-20)
(1.02628 -0.17023 -2.05532e-19)
(0.988748 -0.146526 8.91094e-20)
(0.958224 -0.115668 8.51214e-20)
(0.939765 -0.0826082 -5.5332e-20)
(0.925998 -0.045382 -1.94152e-20)
(0.929884 -0.00896215 6.10591e-21)
(0.934876 0.0239705 3.40309e-21)
(0.965512 0.0581588 1.4163e-20)
(0.990329 0.0598022 -2.62569e-21)
(-0.0669833 0.0149843 -6.16402e-19)
(-0.0763003 -0.0114172 -2.30962e-18)
(-0.0404657 -0.0146944 -1.01504e-18)
(0.0570115 -0.0190449 -1.86508e-18)
(0.190585 0.00770898 1.47062e-19)
(0.350866 0.0432273 -1.15366e-19)
(0.531293 0.0812921 -1.18141e-19)
(0.730102 0.104947 9.21942e-19)
(0.937118 0.0968874 6.30167e-20)
(1.10656 0.0481463 -3.36882e-19)
(1.20372 -0.0218116 -2.96865e-19)
(1.23191 -0.0881855 -7.73514e-19)
(1.21406 -0.137036 -8.36608e-19)
(1.17299 -0.165484 -4.75635e-19)
(1.12406 -0.175843 -6.0567e-20)
(1.07595 -0.172218 8.08258e-20)
(1.0328 -0.157721 1.79653e-19)
(0.997146 -0.135976 9.81256e-20)
(0.968558 -0.107876 -5.84481e-20)
(0.950932 -0.0773115 4.68245e-20)
(0.938296 -0.0436123 2.31746e-20)
(0.941657 -0.0105314 -5.08988e-22)
(0.946208 0.0182748 2.58516e-21)
(0.972357 0.0481119 -5.1673e-22)
(0.993172 0.0494051 -7.7803e-21)
(-0.0702675 0.0183907 -1.39948e-19)
(-0.0737703 -0.0111002 -1.40096e-18)
(-0.0272255 -0.0157235 1.20133e-19)
(0.0853267 -0.0208107 1.15442e-18)
(0.234062 0.006063 -4.71297e-19)
(0.407308 0.0417162 1.06856e-18)
(0.596474 0.0792373 -7.52497e-19)
(0.796492 0.101252 -3.51825e-19)
(0.990219 0.0916844 7.88221e-19)
(1.13789 0.0452727 1.04071e-18)
(1.21671 -0.0190986 7.57516e-20)
(1.23458 -0.0797799 3.53332e-19)
(1.21307 -0.124748 2.38771e-19)
(1.17218 -0.15137 -5.22356e-19)
(1.12514 -0.161568 -8.40899e-19)
(1.07937 -0.158783 -7.31887e-20)
(1.03856 -0.145933 -2.67911e-20)
(1.00475 -0.126064 -6.88717e-20)
(0.977984 -0.10053 7.61443e-20)
(0.961091 -0.0723682 -2.02733e-20)
(0.949455 -0.041918 -2.28258e-20)
(0.952148 -0.0119226 5.9363e-21)
(0.956075 0.0134057 5.54472e-22)
(0.978315 0.0395823 -2.27571e-21)
(0.99583 0.0407648 3.18149e-21)
(-0.0736494 0.02158 2.33198e-18)
(-0.0706795 -0.0111212 3.32112e-18)
(-0.0120382 -0.0168117 8.74252e-19)
(0.117378 -0.0218851 3.63943e-19)
(0.28212 0.00585679 1.20898e-18)
(0.467676 0.0420433 -4.84062e-20)
(0.662893 0.0789929 4.2608e-19)
(0.858892 0.0988355 -7.09787e-20)
(1.03585 0.0876163 -7.81397e-19)
(1.16234 0.0433974 -2.99051e-19)
(1.22509 -0.0159463 -2.78511e-19)
(1.23461 -0.0715816 1.11541e-18)
(1.21062 -0.11311 4.43999e-19)
(1.17048 -0.138111 2.26048e-19)
(1.12554 -0.148165 1.31791e-19)
(1.08217 -0.146164 8.13985e-20)
(1.04364 -0.134833 -3.94946e-21)
(1.01165 -0.11675 -1.14151e-19)
(0.986564 -0.0935958 -4.80144e-20)
(0.970321 -0.0677288 1.59616e-20)
(0.959579 -0.040256 5.46197e-20)
(0.961497 -0.013085 6.28047e-21)
(0.964717 0.00928644 4.90111e-21)
(0.98358 0.0323592 -1.45143e-21)
(0.998325 0.0335759 7.74295e-22)
(-0.0771052 0.0245422 -2.52776e-18)
(-0.0668981 -0.0114775 -2.78541e-18)
(0.00543008 -0.0178838 -2.12093e-18)
(0.153447 -0.0220992 -2.86214e-19)
(0.334467 0.00717683 -1.90198e-18)
(0.530669 0.0440437 -9.62608e-20)
(0.728189 0.0800793 -4.57416e-19)
(0.915473 0.0972373 2.45625e-20)
(1.0739 0.0844003 8.12592e-19)
(1.18071 0.0422749 4.27175e-20)
(1.22972 -0.0125356 4.51813e-19)
(1.23263 -0.0636821 -1.04783e-18)
(1.20713 -0.102143 -4.02037e-19)
(1.16816 -0.125685 -1.34533e-19)
(1.12544 -0.135599 4.2564e-19)
(1.08446 -0.134322 -1.389e-19)
(1.04813 -0.124385 -1.98731e-20)
(1.01789 -0.107994 2.77033e-19)
(0.994351 -0.0870386 -6.72996e-20)
(0.978705 -0.0633513 3.63396e-20)
(0.968759 -0.0385942 -3.55469e-20)
(0.96982 -0.0139964 -2.92533e-20)
(0.972339 0.0058413 -1.54348e-20)
(0.988289 0.0262626 4.57472e-21)
(1.00067 0.0275966 -1.3532e-20)
(-0.0806083 0.0272653 1.5793e-18)
(-0.0622803 -0.0121645 1.78619e-18)
(0.0255241 -0.0188386 9.76656e-20)
(0.193663 -0.0213012 -2.36823e-19)
(0.390454 0.0100159 9.71832e-19)
(0.594639 0.0474204 7.59606e-19)
(0.790266 0.0819937 8.84721e-19)
(0.965281 0.0961199 2.79687e-19)
(1.10485 0.0818307 -3.6263e-19)
(1.19392 0.0417194 4.56358e-19)
(1.2314 -0.00899487 -8.89908e-20)
(1.22919 -0.0561339 6.27605e-19)
(1.20292 -0.0918418 -3.55663e-19)
(1.1654 -0.114061 7.66667e-20)
(1.12494 -0.123828 1.68983e-20)
(1.08631 -0.123215 7.76416e-20)
(1.05208 -0.114553 -2.82448e-19)
(1.02353 -0.0997566 -2.40637e-19)
(1.0014 -0.0808286 2.93003e-20)
(0.986319 -0.0592005 -1.0813e-19)
(0.977071 -0.0369099 -2.46644e-20)
(0.977225 -0.0146534 -3.63965e-21)
(0.979116 0.00299977 -2.85101e-21)
(0.992535 0.0211381 9.17966e-21)
(1.00287 0.0226331 2.47324e-20)
(-0.0841297 0.0297352 6.56307e-19)
(-0.0566639 -0.0131717 -1.56351e-18)
(0.0485841 -0.0195449 9.26957e-19)
(0.237957 -0.0193731 -3.79612e-19)
(0.449097 0.0142635 5.02748e-19)
(0.657838 0.0517931 -1.02171e-19)
(0.84759 0.0843119 -6.81678e-19)
(1.00809 0.0952707 3.94288e-20)
(1.12942 0.0797664 -8.81166e-20)
(1.20291 0.0415949 -1.35707e-20)
(1.23083 -0.0054118 3.90061e-19)
(1.22472 -0.0489611 -5.22682e-19)
(1.19825 -0.0821876 3.81531e-19)
(1.16236 -0.103195 4.91213e-20)
(1.12416 -0.112809 2.72734e-19)
(1.08779 -0.112798 1.5181e-19)
(1.05557 -0.105301 1.52169e-19)
(1.02862 -0.0920009 -3.3279e-20)
(1.00777 -0.0749378 1.23183e-19)
(0.993236 -0.0552468 5.59104e-20)
(0.984576 -0.0351887 2.44323e-20)
(0.983817 -0.0150643 1.68443e-20)
(0.985193 0.00069808 1.76577e-20)
(0.996377 0.0168526 -4.44831e-21)
(1.00494 0.0185282 -2.25769e-20)
(-0.0876375 0.0319351 -9.79137e-19)
(-0.0498679 -0.0144799 3.56503e-19)
(0.0749255 -0.0198434 1.89218e-18)
(0.286026 -0.0162474 1.53249e-18)
(0.509178 0.0197124 -7.80307e-19)
(0.718682 0.0567675 -6.41349e-19)
(0.899267 0.0867342 -5.9858e-20)
(1.04418 0.0945745 -1.95671e-19)
(1.14851 0.0781131 5.89842e-19)
(1.20849 0.0418033 5.59862e-20)
(1.22858 -0.00184341 2.35462e-19)
(1.21958 -0.0421681 1.52088e-19)
(1.19334 -0.0731486 1.12709e-19)
(1.15916 -0.0930416 -5.74023e-19)
(1.12317 -0.102493 -3.7619e-19)
(1.08895 -0.103028 -4.55942e-19)
(1.05863 -0.0965906 -1.21523e-19)
(1.0332 -0.0846921 2.30478e-20)
(1.01351 -0.0693408 -1.77901e-19)
(0.999517 -0.0514657 -3.21992e-20)
(0.991331 -0.0334233 -1.62397e-20)
(0.989701 -0.0152437 -3.10864e-20)
(0.990681 -0.00112135 5.58168e-21)
(0.999847 0.0132902 -5.55048e-21)
(1.00687 0.0151534 -2.99087e-21)
(-0.091097 0.0338449 -1.19785e-18)
(-0.0416858 -0.0160657 8.37412e-19)
(0.104801 -0.0195426 -4.12265e-20)
(0.337322 -0.0119242 -8.05362e-19)
(0.569378 0.0260863 6.03058e-19)
(0.775928 0.0619989 4.54667e-19)
(0.944965 0.0890826 -1.73664e-19)
(1.07412 0.0939791 -4.72658e-19)
(1.16298 0.0768068 -1.97816e-19)
(1.2114 0.0422739 -1.09638e-18)
(1.22512 0.00167502 -9.00832e-19)
(1.21403 -0.0357462 1.49437e-19)
(1.18831 -0.0646874 3.94329e-19)
(1.15589 -0.0835516 3.43242e-19)
(1.12201 -0.0928336 -3.36334e-19)
(1.08985 -0.0938597 2.50167e-19)
(1.06131 -0.0883884 7.7536e-20)
(1.03731 -0.0777974 1.75615e-21)
(1.01867 -0.0640148 1.24518e-19)
(1.00522 -0.0478364 -2.47291e-20)
(0.99739 -0.0316118 -8.82078e-21)
(0.994979 -0.0152081 3.21745e-20)
(0.995655 -0.00251132 -8.80172e-21)
(1.00297 0.0103504 3.64364e-20)
(1.00868 0.0124046 -2.99922e-20)
(-0.0944707 0.0354403 4.67609e-19)
(-0.0318841 -0.0178866 -1.96515e-18)
(0.138371 -0.0184393 -1.81531e-18)
(0.391071 -0.00648292 -1.02502e-18)
(0.628431 0.0330818 9.12365e-19)
(0.828752 0.0672284 -5.58059e-19)
(0.984759 0.0912723 8.06931e-19)
(1.09862 0.0934682 5.54442e-19)
(1.17363 0.0758026 -1.60674e-19)
(1.21224 0.0429555 1.82422e-19)
(1.22083 0.00512318 5.48548e-19)
(1.20827 -0.0296786 -1.03318e-19)
(1.18328 -0.0567645 -1.24602e-19)
(1.1526 -0.0746763 -6.72401e-20)
(1.12074 -0.0837844 1.38546e-19)
(1.09051 -0.0852524 -3.18389e-19)
(1.06364 -0.0806603 -1.63494e-19)
(1.04098 -0.0712859 1.59892e-19)
(1.0233 -0.0589394 -4.3546e-20)
(1.01038 -0.044342 -1.48691e-20)
(1.00281 -0.0297563 5.5458e-20)
(0.999741 -0.0149742 -2.06449e-20)
(1.00016 -0.00352162 -5.06481e-20)
(1.00576 0.00794748 -3.28516e-20)
(1.01039 0.0101961 5.12625e-20)
(-0.0977171 0.0366922 5.72386e-20)
(-0.0202126 -0.0198641 5.61288e-19)
(0.175663 -0.016351 5.78584e-19)
(0.446343 -7.60664e-05 1.705e-18)
(0.685259 0.0404127 -1.46082e-18)
(0.876726 0.0722887 4.36912e-19)
(1.01898 0.0932787 -5.00442e-19)
(1.11839 0.0930424 1.5315e-19)
(1.18117 0.0750672 -3.79251e-19)
(1.21151 0.0438103 -2.85683e-19)
(1.21599 0.00849085 -4.59435e-19)
(1.20245 -0.023944 -2.15195e-19)
(1.17832 -0.0493394 2.62598e-19)
(1.14933 -0.0663691 -2.72125e-19)
(1.11938 -0.0753013 -2.22265e-19)
(1.09096 -0.0771656 5.29019e-19)
(1.06565 -0.0733748 4.09591e-19)
(1.04425 -0.065129 -4.13135e-20)
(1.02745 -0.0540968 1.59834e-20)
(1.01504 -0.0409685 3.44795e-20)
(1.00765 -0.027861 -4.41392e-20)
(1.00406 -0.0145585 4.11871e-20)
(1.00423 -0.00420008 3.28431e-20)
(1.00825 0.00601124 -4.54707e-20)
(1.012 0.00844979 -5.27857e-20)
(-0.10079 0.037566 5.57273e-19)
(-0.00639929 -0.0218839 1.1619e-18)
(0.216526 -0.0131391 -1.76584e-18)
(0.502134 0.00709192 -9.77481e-19)
(0.739038 0.0478428 7.16728e-19)
(0.919734 0.0770882 5.94888e-19)
(1.04811 0.0951106 7.54295e-19)
(1.13413 0.0927087 -4.93487e-19)
(1.1862 0.0745743 2.9751e-19)
(1.20962 0.0448101 2.00635e-19)
(1.21082 0.0117743 -6.42062e-20)
(1.19668 -0.0185192 -6.11773e-19)
(1.17349 -0.0423726 -9.58543e-19)
(1.14611 -0.0585855 -3.69788e-19)
(1.11796 -0.0673426 5.83535e-19)
(1.09124 -0.0695617 -9.01868e-20)
(1.06738 -0.066502 -7.17926e-21)
(1.04714 -0.0592999 8.16142e-20)
(1.03117 -0.0494709 -2.01372e-21)
(1.01925 -0.0377044 4.895e-20)
(1.01197 -0.0259312 -5.40917e-20)
(1.008 -0.0139783 3.05543e-20)
(1.00787 -0.00459158 8.68714e-20)
(1.01049 0.00448434 4.61333e-20)
(1.01354 0.007117 -1.2151e-21)