/*--------------------------------*- C++ -*----------------------------------*\
  =========                 |
  \\      /  F ield         | OpenFOAM: The Open Source CFD Toolbox
   \\    /   O peration     | Website:  https://openfoam.org
    \\  /    A nd           | Version:  7
     \\/     M anipulation  |
\*---------------------------------------------------------------------------*/
FoamFile
{
    version     2.0;
    format      ascii;
    class       volScalarField;
    location    "5.5";
    object      p;
}
// * * * * * * * * * * * * * * * * * * * * * * * * * * * * * * * * * * * * * //

dimensions      [1 -1 -2 0 0 0 0];

internalField   nonuniform List<scalar> 
2413
(
0.923356
0.924933
0.92818
0.93332
0.939278
0.942403
0.942223
0.93964
0.935321
0.930128
0.926826
0.925985
0.926495
0.928982
0.930642
0.930599
0.929705
0.92754
0.922536
0.91407
0.910306
0.909656
0.910375
0.914269
0.916156
0.915071
0.912188
0.906608
0.903871
0.903434
0.903169
0.902207
0.900874
0.899303
0.897539
0.895779
0.894691
0.894954
0.896318
0.896493
0.894871
0.891655
0.88699
0.884234
0.883487
0.883994
0.886683
0.89121
0.892176
0.891018
0.887501
0.879771
0.874705
0.874039
0.874119
0.876074
0.8825
0.887937
0.888512
0.888024
0.884874
0.875824
0.868362
0.867753
0.868433
0.870621
0.877041
0.885754
0.88786
0.888018
0.887225
0.882399
0.871829
0.867463
0.867773
0.868762
0.871355
0.87865
0.885704
0.887021
0.8875
0.886442
0.879063
0.869158
0.868038
0.868807
0.870196
0.873957
0.881779
0.885911
0.886602
0.886923
0.885984
0.88062
0.873722
0.729566
0.727975
0.725994
0.722783
0.719566
0.718533
0.718384
0.718201
0.718101
0.718347
0.718644
0.718739
0.718511
0.717795
0.717207
0.717367
0.718345
0.720452
0.723541
0.727438
0.73285
0.740332
0.748257
0.756104
0.764804
0.775849
0.787639
0.805299
0.836072
0.889947
0.920948
0.925417
0.931384
0.938043
0.94493
0.95818
0.969549
0.975132
0.978956
0.984793
0.9912
0.993074
0.992789
0.99106
0.987517
0.981578
0.975182
0.972864
0.972555
0.973724
0.975425
0.974835
0.973532
0.971222
0.966464
0.957267
0.952202
0.95092
0.951494
0.953939
0.953006
0.950757
0.947074
0.943307
0.941252
0.939377
0.936429
0.932631
0.929976
0.928616
0.927957
0.92804
0.928073
0.927308
0.925904
0.923169
0.917789
0.912485
0.910449
0.909675
0.909955
0.912539
0.915921
0.916231
0.914992
0.911893
0.904358
0.896735
0.895167
0.895037
0.896009
0.900511
0.906266
0.907464
0.907274
0.905557
0.89936
0.889275
0.886082
0.886222
0.88734
0.89065
0.897641
0.901729
0.902041
0.901382
0.898048
0.889614
0.883661
0.883242
0.883968
0.885415
0.889372
0.89467
0.896418
0.896954
0.896544
0.892038
0.883429
0.880917
0.881331
0.882416
0.885086
0.890596
0.89444
0.895009
0.894913
0.893831
0.889319
0.883686
0.882707
0.883133
0.750474
0.748587
0.746711
0.744773
0.742311
0.739544
0.737353
0.735892
0.734601
0.733206
0.732125
0.731297
0.730354
0.729051
0.727364
0.725191
0.722288
0.721487
0.722647
0.724225
0.72671
0.730527
0.734295
0.737828
0.742513
0.74927
0.758484
0.76981
0.793541
0.860373
0.983746
1.03029
1.03153
1.02835
1.02269
1.01978
1.02303
1.02665
1.02781
1.02968
1.0332
1.03383
1.03225
1.03009
1.02607
1.0194
1.01495
1.01371
1.01367
1.01515
1.01625
1.01505
1.01266
1.00838
0.999895
0.992215
0.989238
0.98799
0.989169
0.990255
0.988844
0.986682
0.983535
0.978323
0.969996
0.963945
0.961492
0.960222
0.95999
0.960502
0.960229
0.959301
0.957829
0.955057
0.948554
0.940096
0.937244
0.936322
0.936186
0.938475
0.941666
0.941664
0.94037
0.937711
0.931166
0.921646
0.918127
0.917745
0.918174
0.920748
0.92555
0.926921
0.926899
0.925706
0.921112
0.911426
0.906215
0.905792
0.906321
0.908621
0.913824
0.917045
0.917196
0.916289
0.913024
0.905688
0.900303
0.899546
0.90005
0.901752
0.905085
0.907479
0.908274
0.908391
0.906739
0.901089
0.896455
0.895835
0.895955
0.896941
0.899905
0.903801
0.905137
0.904633
0.903296
0.900158
0.896745
0.89526
0.895009
0.895021
0.895388
0.896881
0.747455
0.74766
0.747372
0.746913
0.746275
0.745174
0.743716
0.742905
0.742691
0.742764
0.742981
0.74334
0.743178
0.742668
0.741854
0.740464
0.738709
0.73757
0.73702
0.73712
0.737994
0.739094
0.740418
0.742352
0.745362
0.749691
0.755414
0.76267
0.773231
0.807522
0.949486
1.12784
1.15885
1.1562
1.13898
1.12285
1.11355
1.104
1.0917
1.08472
1.08194
1.0788
1.07421
1.06952
1.06431
1.05613
1.04844
1.04597
1.04536
1.0469
1.04822
1.0468
1.04435
1.03983
1.03021
1.02163
1.0188
1.01769
1.01946
1.02047
1.01893
1.0168
1.01343
1.00598
0.99484
0.990766
0.989372
0.989091
0.990613
0.990874
0.989889
0.9881
0.984354
0.975311
0.966097
0.963839
0.963049
0.964159
0.967283
0.967182
0.965979
0.964101
0.959778
0.9502
0.942958
0.941606
0.941641
0.942669
0.945478
0.946351
0.94623
0.945389
0.941972
0.93357
0.927569
0.9266
0.926568
0.928184
0.931865
0.933345
0.932922
0.931495
0.927679
0.92092
0.91751
0.917064
0.917136
0.918622
0.920945
0.921728
0.921789
0.920787
0.916922
0.912046
0.910463
0.910026
0.910149
0.911754
0.914849
0.916656
0.91608
0.914553
0.911709
0.9084
0.90658
0.905821
0.905516
0.906243
0.908153
0.909159
0.909217
0.90915
0.725785
0.726911
0.729279
0.729454
0.729032
0.728366
0.727461
0.727234
0.727176
0.727341
0.727952
0.729697
0.731125
0.730955
0.730576
0.730383
0.730728
0.731401
0.732488
0.734229
0.736559
0.739284
0.742158
0.745696
0.75034
0.756413
0.763297
0.770072
0.776274
0.788649
0.85096
1.05444
1.20015
1.22943
1.23649
1.23065
1.2196
1.20508
1.18403
1.16796
1.15608
1.14454
1.1356
1.1286
1.12099
1.10998
1.09252
1.08188
1.07872
1.0781
1.08052
1.08033
1.07795
1.07371
1.06386
1.05243
1.04893
1.04744
1.04796
1.04857
1.04708
1.04449
1.04002
1.03004
1.02061
1.0181
1.01701
1.01751
1.01845
1.01745
1.01571
1.01262
1.00507
0.994309
0.991043
0.989919
0.990189
0.991734
0.990967
0.989679
0.987745
0.983302
0.97388
0.968419
0.967527
0.96743
0.968242
0.968811
0.968358
0.96736
0.964641
0.957735
0.951676
0.950158
0.949659
0.950637
0.953089
0.953409
0.952235
0.94999
0.944886
0.939191
0.937504
0.936894
0.936856
0.938848
0.939605
0.93903
0.937914
0.934724
0.930481
0.928309
0.927261
0.927049
0.928368
0.930374
0.930206
0.928368
0.92557
0.923523
0.922631
0.922561
0.922719
0.921954
0.920667
0.919347
0.918465
0.918109
0.919023
0.92084
0.921335
0.920416
0.689711
0.691405
0.694398
0.696848
0.697603
0.698297
0.698565
0.698847
0.699541
0.700624
0.702456
0.706051
0.709142
0.710862
0.712859
0.714945
0.717015
0.719644
0.72302
0.727117
0.732393
0.737786
0.742564
0.747547
0.753465
0.760197
0.768142
0.776464
0.78265
0.788084
0.803035
0.868985
1.01476
1.15669
1.22717
1.24863
1.2521
1.24785
1.23266
1.21935
1.21536
1.21389
1.21281
1.20696
1.19832
1.18329
1.16141
1.14181
1.13388
1.13059
1.12959
1.12873
1.12525
1.1198
1.11008
1.09505
1.08777
1.08488
1.08359
1.08265
1.08003
1.0767
1.07185
1.06191
1.05144
1.04815
1.04631
1.046
1.04576
1.04392
1.04137
1.03731
1.02826
1.01928
1.01684
1.0157
1.01594
1.01544
1.01401
1.01212
1.00858
1.00054
0.995034
0.993703
0.993063
0.99329
0.992536
0.991181
0.989049
0.984328
0.977511
0.974504
0.973329
0.973586
0.975702
0.975753
0.974041
0.971507
0.966516
0.960511
0.958231
0.957314
0.957655
0.960319
0.960973
0.959658
0.957318
0.952605
0.94849
0.946812
0.946082
0.947208
0.949823
0.950227
0.948409
0.945216
0.941214
0.938821
0.937472
0.937123
0.938749
0.9404
0.939675
0.937668
0.935233
0.933957
0.93309
0.932917
0.934331
0.935344
0.934374
0.932028
0.638999
0.642352
0.645304
0.647728
0.650474
0.652523
0.654404
0.657088
0.660644
0.664226
0.668918
0.674248
0.679145
0.683616
0.68824
0.692708
0.697602
0.703781
0.710338
0.717326
0.725326
0.731953
0.737748
0.743492
0.749116
0.754844
0.761478
0.768552
0.775352
0.77948
0.781622
0.787945
0.813477
0.878887
0.981026
1.08251
1.15344
1.1816
1.18886
1.19359
1.20558
1.22491
1.24097
1.24502
1.24215
1.23716
1.23005
1.21908
1.21081
1.20409
1.19635
1.18851
1.18178
1.17503
1.16646
1.15299
1.13866
1.13228
1.12865
1.12696
1.12513
1.12127
1.1162
1.10803
1.0948
1.08695
1.08366
1.08197
1.08179
1.07995
1.07664
1.07194
1.06309
1.05188
1.04754
1.04544
1.04493
1.04471
1.04279
1.04005
1.03533
1.02693
1.02211
1.02015
1.01947
1.01939
1.01757
1.0146
1.00947
1.00276
0.9996
0.997987
0.998225
0.999691
0.99817
0.995505
0.991638
0.985212
0.980585
0.978772
0.978002
0.979787
0.981662
0.980346
0.977799
0.973384
0.968501
0.966196
0.965008
0.965445
0.968077
0.96868
0.966755
0.963557
0.959339
0.956735
0.955252
0.954369
0.955359
0.957077
0.956326
0.954173
0.951803
0.950556
0.949812
0.950019
0.951383
0.951452
0.950029
0.947611
0.944259
0.942307
0.600342
0.601582
0.603566
0.605425
0.607183
0.610264
0.614276
0.618536
0.623663
0.629894
0.636653
0.642627
0.648437
0.654806
0.661188
0.667245
0.674198
0.681951
0.688141
0.69321
0.697686
0.701275
0.705003
0.709012
0.713956
0.720184
0.72524
0.727846
0.730167
0.731416
0.730322
0.727756
0.728031
0.733905
0.75022
0.785042
0.832148
0.89045
0.956507
1.00384
1.05183
1.10846
1.14709
1.17344
1.20005
1.23179
1.25026
1.25484
1.25007
1.24063
1.23399
1.22952
1.2261
1.22003
1.21236
1.20148
1.1862
1.17724
1.17263
1.1703
1.16976
1.16613
1.16035
1.15197
1.13833
1.12802
1.12324
1.12006
1.11935
1.11815
1.1141
1.10891
1.10069
1.0891
1.08313
1.08004
1.07838
1.07839
1.07648
1.07287
1.06771
1.05964
1.05402
1.05123
1.04991
1.04909
1.04627
1.04205
1.03574
1.03094
1.0284
1.02696
1.027
1.0255
1.02269
1.01905
1.01323
1.00824
1.00593
1.00467
1.0055
1.00585
1.0035
1.00018
0.995572
0.99223
0.990546
0.98982
0.991121
0.99138
0.989247
0.985974
0.982094
0.979938
0.978584
0.977849
0.978235
0.977853
0.976415
0.974144
0.97112
0.969464
0.968733
0.968948
0.970289
0.970486
0.96926
0.967209
0.963404
0.959667
0.958418
0.957891
0.615658
0.618782
0.62202
0.62463
0.628652
0.633374
0.636427
0.64017
0.64608
0.64941
0.652021
0.655877
0.658888
0.661641
0.665243
0.670041
0.673007
0.674089
0.67492
0.67566
0.676342
0.677325
0.679247
0.680824
0.681281
0.681467
0.681569
0.681983
0.682469
0.683089
0.684124
0.684156
0.68297
0.68066
0.678808
0.679372
0.682349
0.69026
0.707111
0.729492
0.758432
0.802123
0.841696
0.887837
0.950696
1.01197
1.08263
1.15597
1.19591
1.22186
1.23594
1.23952
1.2416
1.23758
1.22898
1.21942
1.20656
1.19595
1.18952
1.18437
1.18184
1.17875
1.17273
1.16538
1.15517
1.14484
1.13943
1.13555
1.13359
1.13377
1.131
1.12662
1.12119
1.11278
1.10569
1.10197
1.09929
1.09852
1.09777
1.09438
1.08987
1.08371
1.07875
1.0756
1.07359
1.07268
1.07024
1.06651
1.06132
1.0557
1.05231
1.04997
1.04893
1.04812
1.04559
1.04231
1.03759
1.03288
1.03043
1.0292
1.02879
1.02671
1.02369
1.0196
1.0161
1.01428
1.01336
1.01307
1.01153
1.00905
1.00528
1.00123
0.999181
0.997899
0.997189
0.996472
0.995185
0.993303
0.990139
0.986362
0.984605
0.983787
0.983673
0.983895
0.983309
0.982002
0.979786
0.975714
0.972311
0.971223
0.970666
0.971123
0.650392
0.655146
0.659108
0.660958
0.66404
0.668132
0.670053
0.672614
0.67559
0.676247
0.676447
0.677143
0.677851
0.678923
0.679351
0.678897
0.677192
0.676019
0.675699
0.67566
0.675695
0.675106
0.674289
0.673145
0.671212
0.669833
0.669211
0.668667
0.668342
0.667931
0.667278
0.66649
0.665172
0.663254
0.662116
0.661397
0.660977
0.660722
0.661198
0.66215
0.663586
0.666865
0.672608
0.681717
0.698188
0.722237
0.754317
0.805926
0.869346
0.943077
1.04658
1.13019
1.17277
1.18586
1.19024
1.19277
1.18865
1.18239
1.17612
1.17175
1.16776
1.1669
1.16747
1.16309
1.15789
1.1516
1.14479
1.13987
1.13616
1.13449
1.13517
1.13209
1.12757
1.12206
1.11507
1.1102
1.10673
1.10483
1.10431
1.10119
1.09689
1.09144
1.08657
1.08315
1.08074
1.07981
1.07824
1.07513
1.07109
1.06538
1.06039
1.05753
1.05553
1.05463
1.05301
1.05035
1.04683
1.04187
1.03849
1.03663
1.03531
1.0333
1.0307
1.02719
1.02319
1.02098
1.0197
1.01873
1.01681
1.01414
1.01033
1.00685
1.00497
1.0035
1.00246
1.00152
1.00005
0.997765
0.99405
0.990998
0.989678
0.988789
0.988277
0.987572
0.986434
0.984603
0.9812
0.978408
0.977395
0.976575
0.9756
0.974593
0.692491
0.695776
0.697076
0.697182
0.697753
0.698471
0.699452
0.699956
0.699147
0.698079
0.697919
0.697542
0.696672
0.695674
0.694212
0.691544
0.689152
0.687845
0.686621
0.685588
0.684622
0.683555
0.682353
0.680452
0.677333
0.675691
0.674977
0.674474
0.674114
0.673562
0.672847
0.671908
0.670175
0.668262
0.667604
0.66737
0.667798
0.668378
0.66779
0.66682
0.66569
0.664056
0.663069
0.663035
0.663409
0.664881
0.667605
0.672191
0.680342
0.69537
0.72814
0.792176
0.888607
0.97712
1.02555
1.04452
1.05809
1.06961
1.07605
1.08309
1.09002
1.09619
1.10472
1.11629
1.12027
1.11935
1.1159
1.1133
1.11146
1.11051
1.11383
1.11705
1.11476
1.11126
1.10624
1.10205
1.09914
1.09718
1.09776
1.09665
1.09342
1.08913
1.08392
1.08063
1.0783
1.07717
1.07695
1.07475
1.07183
1.06793
1.06266
1.05926
1.05707
1.05565
1.0547
1.05271
1.05006
1.04618
1.0421
1.03988
1.03806
1.03614
1.03403
1.03162
1.02833
1.02496
1.02309
1.02165
1.01978
1.01744
1.01454
1.01092
1.0083
1.00669
1.00534
1.00406
1.00231
0.999789
0.996874
0.994592
0.992942
0.991546
0.990247
0.988784
0.986641
0.983454
0.981439
0.98071
0.980062
0.979029
0.977872
0.976539
0.7227
0.723282
0.72316
0.722358
0.720825
0.718577
0.716776
0.71582
0.714999
0.713992
0.712979
0.711926
0.710715
0.709189
0.706748
0.703166
0.701395
0.700529
0.69974
0.698947
0.698107
0.697206
0.69611
0.694249
0.691204
0.689588
0.688943
0.68865
0.688646
0.688217
0.687443
0.686433
0.684649
0.68234
0.681507
0.681291
0.681714
0.681963
0.681354
0.680291
0.67858
0.675758
0.673514
0.67288
0.672592
0.672592
0.673193
0.67429
0.675289
0.677825
0.686568
0.708755
0.751223
0.803306
0.840135
0.859755
0.87394
0.888826
0.900156
0.912629
0.928607
0.942718
0.958108
0.978801
0.996591
1.00641
1.01446
1.02003
1.02624
1.03488
1.04691
1.05601
1.05847
1.05899
1.05895
1.05945
1.06086
1.06548
1.07039
1.07031
1.06884
1.06522
1.06153
1.05989
1.05872
1.05951
1.06207
1.06108
1.059
1.05535
1.05073
1.04846
1.0468
1.04618
1.04648
1.0451
1.04288
1.03929
1.03502
1.03278
1.03122
1.03046
1.02945
1.02765
1.02528
1.02165
1.01886
1.01754
1.01654
1.01487
1.01296
1.01082
1.00779
1.00419
1.00233
1.00142
1.00027
0.998523
0.996795
0.995008
0.992791
0.99001
0.987576
0.985555
0.983502
0.981732
0.980361
0.979119
0.977973
0.976926
0.975856
0.974584
0.740833
0.74055
0.73942
0.738093
0.736193
0.732692
0.729428
0.728192
0.727275
0.726581
0.725955
0.725129
0.724099
0.722731
0.72027
0.716623
0.71506
0.714468
0.714257
0.714161
0.713605
0.712961
0.712191
0.710831
0.708182
0.706423
0.705876
0.705702
0.706036
0.705733
0.704943
0.703967
0.702401
0.699973
0.698838
0.698561
0.698634
0.69832
0.697673
0.696658
0.695143
0.692721
0.690361
0.689765
0.689262
0.688751
0.68936
0.69041
0.693419
0.705408
0.731422
0.763225
0.789225
0.801717
0.806777
0.80922
0.810533
0.811936
0.813404
0.815818
0.820026
0.826021
0.833959
0.845012
0.854805
0.862671
0.872677
0.881649
0.890814
0.903163
0.915761
0.927853
0.939628
0.947045
0.954062
0.961951
0.970503
0.981616
0.992347
0.996943
0.999776
1.00179
1.00359
1.00623
1.01045
1.01823
1.02287
1.02342
1.02273
1.02078
1.02009
1.01989
1.02091
1.02503
1.02678
1.02594
1.02387
1.01976
1.01713
1.01597
1.01519
1.01585
1.01549
1.014
1.01188
1.00819
1.00579
1.0045
1.00373
1.00317
1.00188
1.00045
0.99837
0.994801
0.992371
0.991224
0.990657
0.989878
0.988535
0.986926
0.984508
0.981062
0.979083
0.978021
0.97715
0.976022
0.974592
0.972763
0.971005
0.969844
0.969093
0.968467
0.754329
0.753706
0.752618
0.751325
0.749425
0.745809
0.742874
0.741864
0.741119
0.740685
0.740362
0.739797
0.738977
0.737711
0.735108
0.732041
0.731035
0.730608
0.730649
0.730948
0.730401
0.729727
0.728933
0.727436
0.724776
0.723346
0.722906
0.722865
0.723239
0.722705
0.721822
0.720803
0.71919
0.71681
0.715844
0.715623
0.715605
0.715045
0.714256
0.71323
0.71179
0.709474
0.707727
0.707161
0.706924
0.708
0.710151
0.715839
0.733645
0.770237
0.803065
0.814922
0.817003
0.816085
0.813716
0.811862
0.811254
0.810896
0.809891
0.809039
0.809945
0.811304
0.813368
0.81564
0.816968
0.818334
0.819871
0.821608
0.823864
0.827282
0.831795
0.837026
0.842703
0.847132
0.852143
0.858782
0.865815
0.87366
0.883018
0.88966
0.896007
0.903223
0.908444
0.914364
0.922334
0.930764
0.939082
0.946156
0.949762
0.952654
0.956041
0.95967
0.964773
0.972429
0.976517
0.977599
0.978109
0.97833
0.978641
0.979371
0.981012
0.984469
0.986063
0.985759
0.984496
0.982999
0.982369
0.981906
0.982255
0.984148
0.984233
0.983359
0.981732
0.979377
0.97823
0.977561
0.977363
0.9775
0.976546
0.975364
0.973752
0.970995
0.96886
0.967914
0.967431
0.967354
0.966546
0.965567
0.96448
0.962691
0.960589
0.959571
0.768467
0.767805
0.766826
0.765538
0.763234
0.75993
0.758489
0.757836
0.757463
0.757254
0.756816
0.75615
0.75519
0.753361
0.7503
0.748651
0.748088
0.747843
0.748068
0.747831
0.747058
0.746108
0.744727
0.742233
0.740287
0.739762
0.739577
0.739836
0.739437
0.738609
0.737645
0.736324
0.734055
0.732261
0.731815
0.731721
0.731687
0.731109
0.730288
0.729201
0.727488
0.725017
0.723811
0.723712
0.724869
0.727763
0.735681
0.758365
0.799026
0.830515
0.837582
0.8374
0.836722
0.834715
0.832177
0.830084
0.827845
0.82551
0.82254
0.820046
0.81932
0.818988
0.819284
0.819367
0.818739
0.817791
0.817809
0.818323
0.819235
0.82059
0.822044
0.822908
0.82361
0.824537
0.825518
0.826808
0.828656
0.831123
0.833149
0.834735
0.83667
0.839074
0.841572
0.844744
0.848944
0.853916
0.859395
0.865432
0.869896
0.873846
0.878836
0.883492
0.888147
0.894063
0.901511
0.906029
0.910047
0.914289
0.916998
0.919982
0.923758
0.927817
0.932669
0.936554
0.938316
0.939823
0.941182
0.942506
0.944324
0.947428
0.950178
0.950861
0.950898
0.95055
0.950661
0.950893
0.951245
0.952583
0.953906
0.953685
0.952701
0.951191
0.950298
0.949879
0.949634
0.950394
0.951672
0.951303
0.950632
0.949561
0.947793
0.946482
0.783753
0.782981
0.7819
0.780035
0.777203
0.775705
0.775092
0.774778
0.774528
0.773962
0.773188
0.772138
0.770278
0.767436
0.765962
0.765336
0.764937
0.764795
0.764441
0.763722
0.762683
0.760982
0.758215
0.756532
0.756121
0.755992
0.756203
0.755806
0.755034
0.754061
0.752639
0.75026
0.748365
0.747771
0.747469
0.747471
0.747382
0.746832
0.745816
0.744214
0.741638
0.74008
0.739989
0.741123
0.744107
0.75306
0.778244
0.820147
0.848496
0.853455
0.853329
0.853113
0.852273
0.851486
0.850834
0.849343
0.846884
0.844141
0.842003
0.840172
0.838659
0.837422
0.835925
0.833673
0.830493
0.827763
0.826835
0.826396
0.826253
0.826295
0.826258
0.825785
0.824543
0.824159
0.824498
0.825271
0.826759
0.82798
0.82878
0.829414
0.829701
0.829219
0.829497
0.830402
0.831545
0.833397
0.835079
0.83603
0.836896
0.837931
0.839148
0.840585
0.842517
0.845641
0.849354
0.85238
0.855235
0.857496
0.859919
0.862958
0.865877
0.868995
0.873297
0.878116
0.881453
0.884754
0.887754
0.890013
0.892528
0.895658
0.899542
0.903761
0.906632
0.908311
0.909767
0.911264
0.912771
0.914526
0.917012
0.920107
0.921795
0.922373
0.922774
0.923261
0.923983
0.925203
0.927474
0.929368
0.929647
0.929493
0.928835
0.92824
0.798467
0.79738
0.795436
0.793026
0.791942
0.791385
0.791052
0.790701
0.790082
0.789207
0.787858
0.785401
0.783073
0.782205
0.781694
0.781299
0.78089
0.780354
0.779564
0.778267
0.775757
0.772993
0.772049
0.771746
0.771785
0.77205
0.771638
0.770834
0.769551
0.767256
0.764978
0.764134
0.763734
0.76348
0.763148
0.762727
0.762118
0.760712
0.75896
0.757131
0.755813
0.755752
0.756971
0.759532
0.768208
0.793457
0.835547
0.861582
0.866595
0.867321
0.867527
0.866632
0.866105
0.865721
0.864471
0.862161
0.861058
0.860517
0.859849
0.85918
0.858324
0.856997
0.854981
0.851676
0.84798
0.845988
0.844787
0.843759
0.842773
0.841617
0.840046
0.837227
0.834193
0.833283
0.832919
0.833151
0.833306
0.833052
0.832954
0.832547
0.83104
0.829982
0.830161
0.830817
0.832118
0.83315
0.833551
0.833902
0.834058
0.833503
0.833722
0.834176
0.834846
0.836424
0.838381
0.839219
0.839801
0.840197
0.839995
0.840319
0.841179
0.842235
0.844079
0.846484
0.848001
0.849245
0.850556
0.851873
0.853316
0.855096
0.857449
0.860607
0.863621
0.865482
0.867052
0.868832
0.870705
0.872637
0.874874
0.87757
0.880841
0.883941
0.885737
0.887011
0.888346
0.889921
0.891818
0.89422
0.897316
0.899286
0.900027
0.900658
0.811758
0.809456
0.807402
0.806542
0.806031
0.805755
0.80537
0.80472
0.803816
0.802321
0.799619
0.797599
0.796828
0.796349
0.796118
0.795776
0.795177
0.794384
0.793112
0.790555
0.787825
0.786713
0.786295
0.786309
0.786543
0.786229
0.785579
0.784419
0.781928
0.77938
0.778647
0.778489
0.778326
0.777784
0.777286
0.776646
0.775352
0.773028
0.771849
0.770643
0.770332
0.771288
0.77372
0.781297
0.803967
0.846296
0.874166
0.878769
0.879593
0.880646
0.8802
0.879446
0.878916
0.878009
0.875607
0.873407
0.872952
0.872985
0.873843
0.873759
0.873118
0.872195
0.870123
0.866688
0.86511
0.864188
0.863234
0.862248
0.861178
0.859873
0.857893
0.854252
0.851128
0.849978
0.849292
0.848681
0.847714
0.84666
0.845487
0.843408
0.840113
0.83887
0.83861
0.838771
0.838914
0.838756
0.838531
0.838182
0.837008
0.83509
0.83468
0.834849
0.835597
0.83708
0.837919
0.838255
0.838532
0.838264
0.837363
0.83734
0.837847
0.838661
0.840255
0.841611
0.842047
0.842353
0.842452
0.842479
0.842791
0.843219
0.843934
0.84532
0.846405
0.8469
0.84732
0.847609
0.848126
0.848673
0.849493
0.850881
0.852814
0.85472
0.856107
0.856994
0.857789
0.858731
0.859924
0.86138
0.863261
0.865759
0.867795
0.868935
0.824173
0.82171
0.8207
0.820112
0.819814
0.819442
0.818804
0.817949
0.816622
0.814088
0.8118
0.810975
0.81047
0.810248
0.809985
0.809458
0.808722
0.807603
0.805309
0.802746
0.801628
0.800944
0.800734
0.800792
0.800487
0.799862
0.798854
0.796682
0.793827
0.792824
0.792549
0.792566
0.792044
0.791464
0.790821
0.789685
0.787303
0.785892
0.784897
0.784382
0.784988
0.786979
0.792667
0.810896
0.850271
0.885153
0.891968
0.892484
0.893553
0.893541
0.892748
0.892132
0.891294
0.889288
0.886583
0.885549
0.885393
0.886122
0.886906
0.886655
0.886177
0.885067
0.882279
0.880492
0.880137
0.879696
0.879016
0.878356
0.877618
0.876561
0.874467
0.870954
0.869044
0.868209
)
;

boundaryField
{
    inlet
    {
        type            fixedValue;
        value           nonuniform 0();
    }
    outlet
    {
        type            zeroGradient;
    }
    bottom
    {
        type            symmetryPlane;
    }
    top
    {
        type            symmetryPlane;
    }
    obstacle
    {
        type            zeroGradient;
    }
    front
    {
        type            empty;
    }
    back
    {
        type            empty;
    }
    procBoundary14to6
    {
        type            processor;
        value           nonuniform List<scalar> 
133
(
0.867706
0.868308
0.870743
0.875319
0.881421
0.885008
0.886221
0.886452
0.886031
0.885725
0.885296
0.884217
0.883409
0.883618
0.885194
0.888297
0.890132
0.88971
0.887929
0.883196
0.87681
0.874869
0.874713
0.876604
0.882246
0.885
0.884369
0.88173
0.875214
0.871015
0.870247
0.87012
0.872633
0.875428
0.875101
0.872667
0.867609
0.864135
0.863613
0.865274
0.869262
0.871113
0.870381
0.867211
0.860814
0.858074
0.857921
0.859432
0.864707
0.869763
0.870135
0.868829
0.863725
0.856017
0.85392
0.853815
0.855512
0.862146
0.869661
0.871261
0.870851
0.867771
0.858374
0.851447
0.85116
0.851991
0.855288
0.864868
0.872949
0.874198
0.874572
0.874144
0.868565
0.857375
0.854017
0.854424
0.855573
0.858698
0.867257
0.875593
0.877174
0.877738
0.877461
0.872533
0.861339
0.857786
0.85849
0.859506
0.862228
0.870099
0.877963
0.879881
0.880849
0.88107
0.877645
0.721009
0.720835
0.720463
0.719061
0.715266
0.712705
0.713176
0.714311
0.716091
0.717963
0.719417
0.720957
0.722524
0.723124
0.722402
0.724118
0.727892
0.733068
0.738459
0.744519
0.751231
0.759285
0.767836
0.776818
0.786405
0.796998
0.809206
0.823789
0.842883
0.853807
0.855415
0.858785
0.868255
0.879922
0.895872
0.910806
0.919843
0.919843
)
;
    }
    procBoundary14to7
    {
        type            processor;
        value           uniform 0.873144;
    }
    procBoundary14to13
    {
        type            processor;
        value           nonuniform List<scalar> 
14
(
0.731314
0.752089
0.747294
0.725508
0.688834
0.63697
0.599221
0.613706
0.647949
0.690319
0.72162
0.740447
0.754691
0.768786
)
;
    }
    procBoundary14to15
    {
        type            processor;
        value           nonuniform List<scalar> 
17
(
0.883969
0.89901
0.908689
0.918525
0.928887
0.941503
0.958369
0.971588
0.973606
0.97456
0.972826
0.967377
0.958759
0.945742
0.928106
0.9014
0.869887
)
;
    }
    procBoundary14to21
    {
        type            processor;
        value           nonuniform List<scalar> 4(0.784171 0.799212 0.81309 0.826473);
    }
    procBoundary14to22
    {
        type            processor;
        value           nonuniform List<scalar> 
133
(
0.867486
0.866425
0.865226
0.863907
0.862155
0.859074
0.856006
0.8549
0.85427
0.853786
0.853057
0.852089
0.850928
0.849075
0.845923
0.844065
0.84354
0.843446
0.843978
0.843995
0.843743
0.843447
0.842593
0.840846
0.840129
0.840101
0.840399
0.841422
0.842508
0.842759
0.842861
0.842866
0.842185
0.841543
0.841683
0.842012
0.842691
0.843798
0.844493
0.844707
0.844596
0.844152
0.844216
0.844521
0.84511
0.846562
0.847762
0.848019
0.848211
0.848267
0.847873
0.847647
0.848028
0.848521
0.849363
0.850564
0.851611
0.85163
0.837542
0.835886
0.835123
0.834641
0.834315
0.833764
0.832997
0.831947
0.830056
0.827286
0.825975
0.825354
0.825011
0.824811
0.824356
0.823684
0.822745
0.820983
0.818315
0.817098
0.816443
0.816031
0.815903
0.815608
0.815012
0.81414
0.812495
0.809597
0.807991
0.80751
0.807366
0.80704
0.806535
0.805975
0.805145
0.803372
0.800909
0.799681
0.798839
0.798926
0.800487
0.804253
0.816572
0.848862
0.891904
0.905486
0.906254
0.906888
0.907554
0.906823
0.906115
0.905446
0.904252
0.901852
0.899858
0.899174
0.899049
0.899804
0.90027
0.89994
0.899349
0.897754
0.895062
0.894169
0.893922
0.893775
0.893505
0.893126
0.892621
0.891762
0.889876
0.886981
0.885664
0.867486
0.885086
)
;
    }
}


// ************************************************************************* //
