/*--------------------------------*- C++ -*----------------------------------*\
  =========                 |
  \\      /  F ield         | OpenFOAM: The Open Source CFD Toolbox
   \\    /   O peration     | Website:  https://openfoam.org
    \\  /    A nd           | Version:  7
     \\/     M anipulation  |
\*---------------------------------------------------------------------------*/
FoamFile
{
    version     2.0;
    format      ascii;
    class       volScalarField;
    location    "0.342";
    object      p;
}
// * * * * * * * * * * * * * * * * * * * * * * * * * * * * * * * * * * * * * //

dimensions      [0 2 -2 0 0 0 0];

internalField   nonuniform List<scalar> 
40000
(
3.37387e-06
9.848e-05
0.000159337
0.000144365
3.88441e-05
-0.000161589
-0.00045503
-0.00083564
-0.00129586
-0.00182765
-0.00242293
-0.0030738
-0.00377264
-0.00451213
-0.00528543
-0.00608619
-0.00690847
-0.00774671
-0.00859568
-0.00945049
-0.0103066
-0.0111597
-0.0120059
-0.0128415
-0.013663
-0.0144674
-0.0152515
-0.0160126
-0.0167482
-0.017456
-0.0181336
-0.0187791
-0.0193907
-0.0199665
-0.0205051
-0.0210049
-0.0214647
-0.0218833
-0.0222596
-0.0225926
-0.0228814
-0.0231254
-0.0233237
-0.0234759
-0.0235814
-0.0236399
-0.0236509
-0.0236143
-0.0235298
-0.0233974
-0.0232171
-0.0229887
-0.0227125
-0.0223886
-0.0220171
-0.0215983
-0.0211325
-0.0206201
-0.0200614
-0.0194569
-0.018807
-0.0181124
-0.0173736
-0.0165912
-0.0157659
-0.0148984
-0.0139894
-0.0130396
-0.01205
-0.0110213
-0.00995433
-0.00885011
-0.00770952
-0.00653351
-0.00532307
-0.00407922
-0.002803
-0.00149547
-0.000157746
0.00120907
0.00260386
0.00402545
0.00547267
0.00694434
0.00843924
0.00995613
0.0114938
0.0130509
0.0146261
0.0162183
0.017826
0.0194479
0.0210827
0.0227291
0.0243856
0.0260509
0.0277236
0.0294024
0.0310857
0.0327721
0.0344604
0.0361489
0.0378363
0.0395212
0.0412021
0.0428775
0.0445461
0.0462063
0.0478568
0.0494961
0.0511227
0.0527353
0.0543324
0.0559125
0.0574743
0.0590165
0.0605375
0.0620361
0.0635108
0.0649604
0.0663835
0.0677788
0.069145
0.0704808
0.0717851
0.0730565
0.0742939
0.075496
0.0766619
0.0777903
0.0788802
0.0799305
0.0809402
0.0819084
0.0828341
0.0837164
0.0845545
0.0853476
0.086095
0.0867959
0.0874496
0.0880557
0.0886135
0.0891225
0.0895824
0.0899928
0.0903533
0.0906637
0.0909239
0.0911338
0.0912934
0.0914026
0.0914617
0.0914708
0.0914302
0.0913403
0.0912016
0.0910147
0.0907801
0.0904986
0.0901712
0.0897987
0.0893822
0.0889228
0.088422
0.087881
0.0873014
0.086685
0.0860334
0.0853488
0.0846331
0.0838886
0.0831178
0.0823232
0.0815076
0.080674
0.0798255
0.0789655
0.0780976
0.0772257
0.0763537
0.0754861
0.0746276
0.0737829
0.0729574
0.0721567
0.0713866
0.0706535
0.0699639
0.069325
0.0687438
0.0682281
0.0677854
0.0674231
0.0671477
0.0669643
0.0668736
0.0668699
0.0669364
0.0670298
-8.63777e-05
7.06517e-06
4.35666e-05
7.15217e-06
-0.000105609
-0.000298902
-0.000572712
-0.000923454
-0.00134574
-0.00183336
-0.00237976
-0.00297823
-0.00362211
-0.00430496
-0.00502061
-0.00576325
-0.00652738
-0.00730779
-0.00809956
-0.00889803
-0.00969887
-0.010498
-0.0112916
-0.0120761
-0.0128481
-0.0136047
-0.0143428
-0.0150598
-0.015753
-0.0164203
-0.0170595
-0.0176684
-0.0182454
-0.0187886
-0.0192965
-0.0197676
-0.0202007
-0.0205945
-0.0209479
-0.02126
-0.0215299
-0.0217568
-0.02194
-0.0220789
-0.022173
-0.0222218
-0.022225
-0.0221823
-0.0220936
-0.0219587
-0.0217775
-0.02155
-0.0212762
-0.0209564
-0.0205906
-0.0201791
-0.0197221
-0.0192199
-0.018673
-0.0180817
-0.0174464
-0.0167678
-0.0160464
-0.0152827
-0.0144773
-0.013631
-0.0127444
-0.0118183
-0.0108535
-0.00985067
-0.00881078
-0.00773466
-0.0066232
-0.00547733
-0.00429799
-0.00308618
-0.00184291
-0.000569216
0.000733846
0.00206519
0.00342372
0.00480833
0.00621786
0.00765116
0.00910704
0.0105843
0.0120818
0.0135981
0.0151322
0.0166826
0.0182482
0.0198276
0.0214195
0.0230226
0.0246356
0.0262571
0.0278858
0.0295204
0.0311594
0.0328014
0.0344451
0.0360891
0.0377319
0.0393723
0.0410087
0.0426399
0.0442643
0.0458805
0.0474873
0.0490831
0.0506666
0.0522363
0.053791
0.0553292
0.0568495
0.0583507
0.0598313
0.06129
0.0627255
0.0641366
0.0655219
0.0668802
0.0682101
0.0695106
0.0707803
0.0720181
0.0732229
0.0743935
0.0755288
0.0766277
0.0776892
0.0787124
0.0796961
0.0806396
0.0815418
0.082402
0.0832194
0.0839932
0.0847226
0.085407
0.0860459
0.0866386
0.0871845
0.0876834
0.0881347
0.0885382
0.0888935
0.0892005
0.089459
0.089669
0.0898305
0.0899435
0.0900081
0.0900247
0.0899936
0.089915
0.0897896
0.0896178
0.0894004
0.0891381
0.0888318
0.0884824
0.088091
0.0876588
0.0871871
0.0866771
0.0861306
0.0855492
0.0849346
0.0842888
0.0836139
0.082912
0.0821856
0.0814371
0.0806694
0.0798852
0.0790877
0.0782801
0.0774659
0.0766489
0.0758328
0.075022
0.0742208
0.0734338
0.0726661
0.0719227
0.0712092
0.0705312
0.0698949
0.0693063
0.0687717
0.0682975
0.0678898
0.0675542
0.0672952
0.0671158
0.0670153
0.0669884
0.0670302
0.0671236
-0.000144751
-2.81686e-05
8.19592e-06
-3.41322e-05
-0.000147815
-0.000334705
-0.000594481
-0.000924123
-0.00131931
-0.00177492
-0.00228531
-0.00284458
-0.00344681
-0.00408623
-0.00475726
-0.00545454
-0.00617295
-0.00690758
-0.00765379
-0.00840718
-0.00916357
-0.00991908
-0.01067
-0.011413
-0.0121447
-0.0128622
-0.0135625
-0.0142431
-0.0149015
-0.0155354
-0.0161427
-0.0167214
-0.0172696
-0.0177856
-0.0182679
-0.0187151
-0.0191259
-0.019499
-0.0198333
-0.0201279
-0.0203819
-0.0205945
-0.0207649
-0.0208926
-0.020977
-0.0210177
-0.0210143
-0.0209666
-0.0208742
-0.0207371
-0.0205552
-0.0203283
-0.0200567
-0.0197403
-0.0193793
-0.0189739
-0.0185243
-0.0180308
-0.0174938
-0.0169137
-0.0162908
-0.0156258
-0.014919
-0.0141711
-0.0133827
-0.0125544
-0.0116868
-0.0107808
-0.00983696
-0.00885618
-0.00783924
-0.00678699
-0.00570027
-0.00458
-0.0034271
-0.00224253
-0.00102726
0.000217678
0.00149127
0.00279245
0.00412016
0.00547331
0.00685078
0.00825145
0.00967416
0.0111177
0.012581
0.0140627
0.0155617
0.0170766
0.0186064
0.0201496
0.021705
0.0232713
0.0248473
0.0264316
0.0280229
0.0296199
0.0312212
0.0328254
0.0344313
0.0360374
0.0376424
0.0392449
0.0408436
0.0424371
0.0440239
0.0456029
0.0471725
0.0487314
0.0502782
0.0518116
0.0533303
0.0548328
0.056318
0.0577843
0.0592307
0.0606556
0.0620579
0.0634363
0.0647896
0.0661165
0.0674158
0.0686862
0.0699267
0.0711361
0.0723133
0.0734571
0.0745665
0.0756405
0.0766781
0.0776783
0.0786401
0.0795626
0.0804451
0.0812866
0.0820865
0.0828439
0.0835582
0.0842288
0.0848551
0.0854365
0.0859725
0.0864628
0.0869069
0.0873045
0.0876555
0.0879596
0.0882167
0.0884268
0.0885899
0.088706
0.0887754
0.0887983
0.088775
0.088706
0.0885916
0.0884326
0.0882296
0.0879833
0.0876946
0.0873645
0.086994
0.0865844
0.0861368
0.0856527
0.0851336
0.0845812
0.0839972
0.0833835
0.0827422
0.0820753
0.0813854
0.0806748
0.0799462
0.0792024
0.0784464
0.0776814
0.0769107
0.0761379
0.0753668
0.0746014
0.0738458
0.0731045
0.0723821
0.0716835
0.0710138
0.0703782
0.0697822
0.0692313
0.0687312
0.0682872
0.0679045
0.0675879
0.0673411
0.0671664
0.0670636
0.0670299
0.0670718
0.0671902
-0.000128682
9.05539e-06
5.14841e-05
9.22954e-06
-0.000102975
-0.000284626
-0.000534497
-0.00084935
-0.00122514
-0.00165725
-0.00214064
-0.00266997
-0.00323991
-0.00384518
-0.00448071
-0.00514151
-0.00582279
-0.00651996
-0.00722862
-0.00794459
-0.00866391
-0.00938284
-0.0100979
-0.0108056
-0.0115031
-0.0121872
-0.0128553
-0.0135047
-0.0141331
-0.0147382
-0.0153179
-0.0158703
-0.0163936
-0.016886
-0.0173461
-0.0177724
-0.0181636
-0.0185186
-0.0188362
-0.0191154
-0.0193554
-0.0195554
-0.0197146
-0.0198324
-0.0199084
-0.0199419
-0.0199326
-0.0198804
-0.0197848
-0.0196457
-0.0194631
-0.0192369
-0.0189671
-0.0186538
-0.018297
-0.017897
-0.017454
-0.0169683
-0.0164401
-0.0158699
-0.0152581
-0.0146051
-0.0139115
-0.0131777
-0.0124043
-0.0115921
-0.0107415
-0.00985336
-0.00892835
-0.00796724
-0.00697081
-0.00593988
-0.00487529
-0.00377791
-0.00264865
-0.00148843
-0.000298218
0.000921001
0.00216822
0.00344242
0.00474255
0.00606754
0.00741633
0.00878779
0.0101808
0.0115942
0.0130269
0.0144776
0.0159451
0.0174284
0.018926
0.0204368
0.0219596
0.023493
0.0250359
0.0265869
0.0281447
0.029708
0.0312756
0.032846
0.034418
0.0359903
0.0375614
0.0391301
0.040695
0.0422548
0.0438082
0.0453537
0.0468901
0.048416
0.0499301
0.0514311
0.0529176
0.0543884
0.0558421
0.0572774
0.0586932
0.060088
0.0614607
0.06281
0.0641347
0.0654336
0.0667055
0.0679493
0.0691637
0.0703478
0.0715004
0.0726204
0.0737069
0.0747587
0.0757749
0.0767547
0.077697
0.078601
0.0794658
0.0802908
0.0810751
0.081818
0.082519
0.0831773
0.0837924
0.0843638
0.084891
0.0853736
0.0858113
0.0862039
0.086551
0.0868525
0.0871084
0.0873185
0.087483
0.0876019
0.0876754
0.0877038
0.0876875
0.0876267
0.0875221
0.0873742
0.0871837
0.0869514
0.0866782
0.0863649
0.0860127
0.0856227
0.0851961
0.0847345
0.0842392
0.0837118
0.0831543
0.0825683
0.0819559
0.0813192
0.0806606
0.0799823
0.0792871
0.0785777
0.0778569
0.0771278
0.0763937
0.0756581
0.0749244
0.0741966
0.0734786
0.0727747
0.0720891
0.0714266
0.0707918
0.0701895
0.0696249
0.0691028
0.0686285
0.0682068
0.0678423
0.0675394
0.0673015
0.0671313
0.0670294
0.0669958
0.0670447
0.0671867
-2.25617e-05
0.000122732
0.000166015
0.000122235
1.00728e-05
-0.000168435
-0.000411327
-0.00071509
-0.00107573
-0.00148891
-0.00194998
-0.00245413
-0.00299649
-0.00357226
-0.00417675
-0.00480536
-0.00545361
-0.00611719
-0.00679197
-0.00747399
-0.00815948
-0.00884489
-0.00952684
-0.0102021
-0.0108678
-0.0115209
-0.0121589
-0.0127792
-0.0133794
-0.0139575
-0.0145113
-0.0150389
-0.0155386
-0.0160087
-0.0164477
-0.0168542
-0.0172269
-0.0175646
-0.0178662
-0.0181309
-0.0183575
-0.0185455
-0.0186939
-0.0188023
-0.0188701
-0.0188967
-0.0188819
-0.0188253
-0.0187266
-0.0185858
-0.0184025
-0.0181769
-0.0179089
-0.0175985
-0.0172459
-0.0168511
-0.0164145
-0.0159363
-0.0154167
-0.0148561
-0.014255
-0.0136137
-0.0129328
-0.0122127
-0.011454
-0.0106573
-0.00982323
-0.00895247
-0.00804572
-0.00710371
-0.00612721
-0.005117
-0.0040739
-0.00299877
-0.00189248
-0.000755931
0.000409925
0.00160413
0.00282571
0.00407367
0.00534698
0.0066446
0.00796548
0.00930854
0.0106727
0.0120567
0.0134596
0.0148802
0.0163172
0.0177696
0.019236
0.0207153
0.0222063
0.0237078
0.0252184
0.026737
0.0282623
0.0297929
0.0313277
0.0328653
0.0344044
0.0359437
0.0374819
0.0390177
0.0405498
0.0420769
0.0435977
0.0451108
0.046615
0.0481089
0.0495912
0.0510607
0.052516
0.0539559
0.0553792
0.0567844
0.0581704
0.0595361
0.06088
0.0622011
0.0634981
0.0647699
0.0660153
0.0672332
0.0684225
0.0695821
0.0707108
0.0718078
0.072872
0.0739024
0.074898
0.075858
0.0767814
0.0776675
0.0785153
0.0793243
0.0800936
0.0808225
0.0815105
0.0821569
0.0827613
0.083323
0.0838417
0.084317
0.0847486
0.0851361
0.0854795
0.0857785
0.0860332
0.0862433
0.0864091
0.0865306
0.0866081
0.0866417
0.0866319
0.0865791
0.0864837
0.0863464
0.0861679
0.0859489
0.0856902
0.0853929
0.085058
0.0846866
0.08428
0.0838395
0.0833666
0.082863
0.0823303
0.0817703
0.0811851
0.0805767
0.0799473
0.0792993
0.0786351
0.0779575
0.0772693
0.0765734
0.0758729
0.0751712
0.0744717
0.0737781
0.073094
0.0724236
0.0717708
0.0711401
0.0705358
0.0699625
0.0694246
0.0689269
0.068474
0.0680704
0.0677203
0.0674277
0.0671961
0.0670288
0.0669272
0.0668927
0.0669443
0.0670966
0.000178178
0.000316867
0.000353752
0.000304654
0.000189366
1.08292e-05
-0.000228508
-0.000524954
-0.000874536
-0.00127309
-0.00171632
-0.00219981
-0.00271913
-0.00326988
-0.0038477
-0.00444833
-0.00506759
-0.00570145
-0.00634604
-0.00699761
-0.0076526
-0.00830763
-0.00895947
-0.00960508
-0.0102416
-0.0108662
-0.0114763
-0.0120696
-0.0126438
-0.0131966
-0.0137263
-0.0142308
-0.0147084
-0.0151575
-0.0155767
-0.0159646
-0.0163198
-0.0166412
-0.0169278
-0.0171786
-0.0173927
-0.0175692
-0.0177075
-0.0178069
-0.0178669
-0.0178871
-0.017867
-0.0178063
-0.0177047
-0.0175621
-0.0173784
-0.0171533
-0.0168871
-0.0165796
-0.0162309
-0.0158413
-0.0154108
-0.0149398
-0.0144285
-0.0138772
-0.0132864
-0.0126564
-0.0119877
-0.0112808
-0.0105363
-0.00975462
-0.00893649
-0.00808251
-0.00719339
-0.00626983
-0.00531257
-0.00432238
-0.00330005
-0.00224641
-0.00116231
-4.86502e-05
0.00109367
0.0022637
0.0034605
0.00468308
0.00593046
0.00720162
0.00849552
0.00981111
0.0111473
0.012503
0.0138771
0.0152685
0.016676
0.0180985
0.0195348
0.0209837
0.022444
0.0239145
0.025394
0.0268813
0.0283751
0.0298741
0.0313772
0.032883
0.0343903
0.0358978
0.0374043
0.0389083
0.0404088
0.0419043
0.0433936
0.0448754
0.0463485
0.0478115
0.0492631
0.0507022
0.0521274
0.0535376
0.0549314
0.0563076
0.057665
0.0590025
0.0603187
0.0616126
0.062883
0.0641286
0.0653485
0.0665415
0.0677065
0.0688425
0.0699484
0.0710232
0.0720659
0.0730757
0.0740515
0.0749925
0.0758978
0.0767666
0.0775981
0.0783917
0.0791465
0.079862
0.0805376
0.0811726
0.0817666
0.082319
0.0828296
0.0832978
0.0837234
0.0841062
0.084446
0.0847426
0.084996
0.0852061
0.0853731
0.085497
0.0855782
0.0856167
0.0856131
0.0855677
0.0854811
0.0853538
0.0851865
0.08498
0.0847352
0.0844529
0.0841342
0.0837802
0.0833923
0.0829717
0.0825198
0.0820383
0.0815288
0.0809931
0.0804331
0.0798509
0.0792486
0.0786284
0.0779929
0.0773446
0.0766862
0.0760206
0.0753507
0.0746798
0.074011
0.073348
0.0726942
0.0720534
0.0714294
0.0708264
0.0702484
0.0696996
0.0691842
0.0687065
0.0682708
0.0678812
0.0675418
0.0672562
0.0670281
0.0668608
0.0667567
0.0667181
0.0667652
0.066914
0.000471472
0.000591271
0.000614483
0.000555537
0.000433179
0.000250824
1.12436e-05
-0.000281795
-0.00062439
-0.00101258
-0.00144235
-0.00190964
-0.00241038
-0.0029405
-0.00349597
-0.00407282
-0.00466716
-0.00527523
-0.00589339
-0.0065181
-0.00714602
-0.00777393
-0.00839876
-0.0090176
-0.00962766
-0.0102263
-0.0108111
-0.0113798
-0.01193
-0.0124597
-0.012967
-0.0134502
-0.0139074
-0.0143371
-0.0147379
-0.0151084
-0.0154473
-0.0157536
-0.0160262
-0.016264
-0.0164662
-0.0166321
-0.0167609
-0.0168519
-0.0169047
-0.0169188
-0.0168937
-0.0168292
-0.0167249
-0.0165807
-0.0163965
-0.0161721
-0.0159075
-0.0156028
-0.015258
-0.0148733
-0.0144487
-0.0139846
-0.0134813
-0.0129389
-0.012358
-0.0117388
-0.0110819
-0.0103876
-0.00965663
-0.00888939
-0.00808652
-0.00724864
-0.00637643
-0.00547056
-0.00453176
-0.00356076
-0.00255835
-0.00152533
-0.00046253
0.00062918
0.00174891
0.00289574
0.00406875
0.00526699
0.00648948
0.00773524
0.00900325
0.0102925
0.0116019
0.0129304
0.0142768
0.0156402
0.0170194
0.0184132
0.0198206
0.0212402
0.022671
0.0241119
0.0255615
0.0270187
0.0284823
0.0299511
0.0314238
0.0328991
0.0343759
0.0358529
0.0373289
0.0388025
0.0402725
0.0417378
0.0431969
0.0446488
0.046092
0.0475254
0.0489477
0.0503576
0.051754
0.0531357
0.0545013
0.0558498
0.0571798
0.0584903
0.0597801
0.0610479
0.0622928
0.0635135
0.064709
0.0658782
0.06702
0.0681334
0.0692174
0.070271
0.0712933
0.0722834
0.0732403
0.0741631
0.0750511
0.0759035
0.0767194
0.0774983
0.0782394
0.0789421
0.0796058
0.0802299
0.080814
0.0813576
0.0818603
0.0823218
0.0827418
0.08312
0.0834563
0.0837505
0.0840027
0.0842127
0.0843808
0.0845069
0.0845915
0.0846346
0.0846368
0.0845984
0.0845198
0.0844018
0.084245
0.0840502
0.0838182
0.0835498
0.0832462
0.0829085
0.0825379
0.0821356
0.0817032
0.0812421
0.080754
0.0802407
0.0797039
0.0791457
0.0785681
0.0779734
0.0773639
0.0767422
0.0761108
0.0754724
0.0748299
0.0741863
0.0735449
0.0729088
0.0722815
0.0716664
0.0710673
0.0704878
0.0699318
0.0694033
0.0689061
0.0684442
0.0680215
0.067642
0.0673093
0.0670272
0.0667991
0.0666286
0.0665183
0.0664712
0.0665068
0.06664
0.000851868
0.000942694
0.000945396
0.000871764
0.000738098
0.000547966
0.000304325
1.08952e-05
-0.000328588
-0.000710392
-0.00113078
-0.00158599
-0.00207226
-0.00258581
-0.00312292
-0.00367989
-0.00425311
-0.00483905
-0.00543429
-0.00603554
-0.00663962
-0.0072435
-0.00784426
-0.00843911
-0.00902541
-0.00960066
-0.0101625
-0.0107086
-0.011237
-0.0117455
-0.0122324
-0.0126959
-0.0131343
-0.0135461
-0.0139298
-0.0142842
-0.0146081
-0.0149003
-0.0151597
-0.0153855
-0.0155768
-0.0157327
-0.0158526
-0.0159358
-0.0159818
-0.0159902
-0.0159605
-0.0158924
-0.0157857
-0.0156401
-0.0154555
-0.0152318
-0.0149689
-0.0146669
-0.0143258
-0.0139457
-0.0135269
-0.0130695
-0.0125737
-0.0120399
-0.0114684
-0.0108597
-0.010214
-0.00953189
-0.00881386
-0.00806044
-0.0072722
-0.00644976
-0.00559375
-0.00470485
-0.00378374
-0.00283116
-0.00184785
-0.000834597
0.000207775
0.00127842
0.00237648
0.00350106
0.00465125
0.00582613
0.00702474
0.00824613
0.00948929
0.0107532
0.0120369
0.0133393
0.0146592
0.0159958
0.0173478
0.0187141
0.0200936
0.0214853
0.0228878
0.0243002
0.0257211
0.0271495
0.0285842
0.0300239
0.0314674
0.0329136
0.0343611
0.0358089
0.0372556
0.0387
0.040141
0.0415772
0.0430075
0.0444306
0.0458452
0.0472503
0.0486444
0.0500265
0.0513954
0.0527497
0.0540884
0.0554103
0.0567141
0.0579988
0.0592633
0.0605063
0.0617267
0.0629236
0.0640958
0.0652422
0.0663619
0.0674537
0.0685169
0.0695503
0.0705531
0.0715243
0.0724631
0.0733687
0.0742402
0.0750768
0.0758779
0.0766428
0.0773708
0.0780613
0.0787136
0.0793274
0.0799021
0.0804372
0.0809325
0.0813875
0.081802
0.0821758
0.0825087
0.0828007
0.0830516
0.0832615
0.0834305
0.0835587
0.0836464
0.0836937
0.0837012
0.0836692
0.0835982
0.0834889
0.0833418
0.0831578
0.0829376
0.0826822
0.0823926
0.0820699
0.0817152
0.08133
0.0809154
0.0804732
0.0800047
0.0795118
0.0789962
0.0784599
0.0779049
0.0773333
0.0767474
0.0761496
0.0755423
0.0749283
0.0743102
0.0736909
0.0730735
0.072461
0.0718565
0.0712636
0.0706855
0.0701257
0.069588
0.0690757
0.0685927
0.0681427
0.0677291
0.0673558
0.0670263
0.066744
0.0665124
0.066335
0.0662145
0.0661543
0.0661716
0.0662792
0.00131234
0.00136622
0.00134237
0.00124941
0.00110028
0.000898519
0.000647128
0.000349654
9.60359e-06
-0.000369548
-0.00078433
-0.00123125
-0.00170683
-0.00220758
-0.00273002
-0.00327073
-0.00382633
-0.00439354
-0.00496918
-0.00555013
-0.00613342
-0.00671618
-0.00729563
-0.00786915
-0.0084342
-0.00898841
-0.00952949
-0.0100553
-0.0105638
-0.0110531
-0.0115213
-0.0119667
-0.0123878
-0.0127831
-0.0131512
-0.0134908
-0.0138007
-0.0140798
-0.0143271
-0.0145417
-0.0147228
-0.0148694
-0.0149811
-0.015057
-0.0150968
-0.0150999
-0.015066
-0.0149946
-0.0148856
-0.0147388
-0.0145539
-0.0143308
-0.0140697
-0.0137703
-0.0134328
-0.0130573
-0.0126439
-0.0121929
-0.0117045
-0.0111789
-0.0106165
-0.0100177
-0.0093828
-0.00871234
-0.00800676
-0.00726658
-0.00649238
-0.00568474
-0.00484427
-0.00397163
-0.00306749
-0.00213256
-0.00116756
-0.000173273
0.00084951
0.00189996
0.00297724
0.00408047
0.00520877
0.00636124
0.00753695
0.00873495
0.00995428
0.0111939
0.0124529
0.0137303
0.0150248
0.0163356
0.0176615
0.0190015
0.0203544
0.0217191
0.0230945
0.0244796
0.0258731
0.0272738
0.0286807
0.0300926
0.0315082
0.0329263
0.0343459
0.0357656
0.0371843
0.0386008
0.0400138
0.0414223
0.0428249
0.0442205
0.0456078
0.0469857
0.0483529
0.0497083
0.0510508
0.052379
0.053692
0.0549884
0.0562672
0.0575273
0.0587675
0.0599867
0.0611839
0.062358
0.0635079
0.0646326
0.0657311
0.0668024
0.0678456
0.0688597
0.0698439
0.0707972
0.0717188
0.0726078
0.0734636
0.0742853
0.0750722
0.0758238
0.0765392
0.077218
0.0778596
0.0784635
0.0790292
0.0795563
0.0800444
0.0804932
0.0809025
0.0812721
0.0816018
0.0818914
0.0821411
0.0823508
0.0825206
0.0826506
0.0827411
0.0827924
0.0828047
0.0827787
0.0827147
0.0826133
0.0824752
0.0823012
0.082092
0.0818485
0.0815718
0.0812629
0.080923
0.0805533
0.0801552
0.0797301
0.0792796
0.0788054
0.0783091
0.0777927
0.0772581
0.0767073
0.0761426
0.0755662
0.0749806
0.0743882
0.0737916
0.0731936
0.072597
0.0720049
0.0714201
0.0708458
0.0702852
0.0697417
0.0692185
0.0687189
0.0682465
0.0678047
0.0673968
0.067026
0.0666961
0.0664102
0.0661715
0.0659834
0.0658488
0.0657709
0.065764
0.065838
0.00184524
0.00185601
0.00180056
0.0016841
0.00151568
0.00129869
0.00103606
0.000731082
0.000386989
6.98405e-06
-0.000405715
-0.000847873
-0.00131627
-0.00180767
-0.00231887
-0.00284667
-0.00338794
-0.00393963
-0.00449876
-0.00506241
-0.00562779
-0.00619217
-0.00675297
-0.00730767
-0.00785388
-0.00838933
-0.00891185
-0.00941937
-0.00990995
-0.0103817
-0.0108329
-0.011262
-0.0116673
-0.0120475
-0.0124012
-0.0127272
-0.0130242
-0.0132913
-0.0135275
-0.0137318
-0.0139034
-0.0140415
-0.0141455
-0.0142147
-0.0142487
-0.014247
-0.0142091
-0.0141348
-0.0140238
-0.0138758
-0.0136908
-0.0134685
-0.013209
-0.0129122
-0.0125782
-0.0122071
-0.0117991
-0.0113542
-0.0108728
-0.0103551
-0.00980141
-0.00921213
-0.00858761
-0.0079283
-0.00723465
-0.00650717
-0.00574641
-0.00495295
-0.00412737
-0.00327032
-0.00238243
-0.00146441
-0.000516958
0.000459161
0.00146317
0.00249427
0.00355163
0.0046344
0.00574173
0.00687272
0.00802648
0.00920208
0.0103986
0.011615
0.0128503
0.0141036
0.0153738
0.0166599
0.0179608
0.0192755
0.0206029
0.0219418
0.0232913
0.0246502
0.0260174
0.0273917
0.028772
0.0301571
0.031546
0.0329373
0.03433
0.0357229
0.0371148
0.0385045
0.0398909
0.0412728
0.0426489
0.0440182
0.0453794
0.0467313
0.0480728
0.0494027
0.0507199
0.0520233
0.0533116
0.0545837
0.0558386
0.0570752
0.0582922
0.0594888
0.0606637
0.0618161
0.0629447
0.0640487
0.065127
0.0661787
0.0672029
0.0681987
0.0691651
0.0701013
0.0710064
0.0718798
0.0727205
0.073528
0.0743014
0.0750403
0.0757438
0.0764115
0.0770428
0.0776372
0.0781943
0.0787137
0.079195
0.0796379
0.0800422
0.0804077
0.0807343
0.0810217
0.0812701
0.0814795
0.0816499
0.0817816
0.0818746
0.0819294
0.0819463
0.0819257
0.081868
0.081774
0.0816442
0.0814793
0.0812802
0.0810477
0.0807828
0.0804866
0.0801601
0.0798047
0.0794216
0.0790122
0.078578
0.0781207
0.0776419
0.0771434
0.0766272
0.0760951
0.0755493
0.0749919
0.0744254
0.073852
0.0732742
0.0726947
0.0721162
0.0715413
0.070973
0.0704143
0.069868
0.0693373
0.0688252
0.068335
0.0678698
0.0674328
0.067027
0.0666557
0.066322
0.066029
0.0657799
0.0655777
0.0654252
0.0653255
0.0652894
0.0653235
0.00244287
0.00240581
0.00231472
0.00217118
0.00198007
0.00174454
0.00146744
0.00115173
0.000800348
0.000416241
2.37143e-06
-0.000438279
-0.000902737
-0.00138801
-0.00189113
-0.00240915
-0.00293916
-0.00347832
-0.00402385
-0.00457301
-0.00512319
-0.00567182
-0.00621646
-0.00675475
-0.00728441
-0.00780328
-0.00830931
-0.00880051
-0.00927503
-0.00973107
-0.010167
-0.0105812
-0.0109722
-0.0113386
-0.0116792
-0.0119927
-0.0122781
-0.0125341
-0.0127601
-0.0129549
-0.0131178
-0.0132481
-0.013345
-0.0134081
-0.0134368
-0.0134306
-0.0133892
-0.0133122
-0.0131994
-0.0130505
-0.0128654
-0.0126439
-0.0123861
-0.0120919
-0.0117613
-0.0113945
-0.0109915
-0.0105526
-0.0100779
-0.00956779
-0.00902248
-0.00844235
-0.00782776
-0.00717912
-0.0064969
-0.00578158
-0.0050337
-0.00425381
-0.00344249
-0.00260035
-0.00172802
-0.000826187
0.00010446
0.00106318
0.00204922
0.00306178
0.00410007
0.00516326
0.0062505
0.00736094
0.00849368
0.00964782
0.0108224
0.0120166
0.0132293
0.0144596
0.0157065
0.0169689
0.0182459
0.0195364
0.0208394
0.0221537
0.0234783
0.0248121
0.0261541
0.0275031
0.028858
0.0302176
0.0315808
0.0329465
0.0343136
0.0356808
0.0370471
0.0384112
0.0397721
0.0411286
0.0424794
0.0438235
0.0451597
0.0464869
0.0478038
0.0491094
0.0504025
0.051682
0.0529468
0.0541958
0.0554279
0.056642
0.057837
0.0590119
0.0601657
0.0612973
0.0624057
0.0634899
0.064549
0.0655821
0.0665882
0.0675664
0.0685159
0.0694358
0.0703253
0.0711837
0.0720102
0.0728041
0.0735647
0.0742914
0.0749836
0.0756407
0.0762623
0.0768477
0.0773966
0.0779087
0.0783834
0.0788207
0.0792202
0.0795818
0.0799052
0.0801905
0.0804377
0.0806466
0.0808175
0.0809506
0.0810459
0.0811039
0.0811249
0.0811092
0.0810574
0.08097
0.0808478
0.0806913
0.0805014
0.080279
0.0800249
0.0797402
0.079426
0.0790835
0.0787139
0.0783187
0.0778993
0.0774573
0.0769942
0.0765118
0.0760118
0.0754963
0.0749673
0.0744268
0.0738769
0.0733201
0.0727585
0.0721949
0.0716315
0.0710711
0.0705164
0.0699702
0.0694351
0.0689142
0.0684102
0.0679261
0.0674649
0.0670295
0.0666228
0.0662478
0.0659072
0.0656041
0.0653414
0.0651218
0.0649479
0.064823
0.0647535
0.0647428
0.0030978
0.00300942
0.00287951
0.00270589
0.00248909
0.00223205
0.00193751
0.0016081
0.00124646
0.000855265
0.00043723
-4.91393e-06
-0.000468425
-0.000950548
-0.00144854
-0.00195968
-0.00248128
-0.0030107
-0.00354534
-0.00408266
-0.00462019
-0.00515554
-0.00568641
-0.00621055
-0.00672585
-0.00723023
-0.00772174
-0.00819851
-0.00865874
-0.00910075
-0.00952293
-0.00992378
-0.0103019
-0.0106559
-0.0109846
-0.0112868
-0.0115615
-0.0118075
-0.0120241
-0.0122103
-0.0123652
-0.0124884
-0.0125789
-0.0126364
-0.0126603
-0.0126501
-0.0126054
-0.012526
-0.0124116
-0.012262
-0.0120769
-0.0118564
-0.0116003
-0.0113086
-0.0109813
-0.0106186
-0.0102205
-0.00978733
-0.00931917
-0.00881631
-0.00827903
-0.00770767
-0.00710258
-0.00646417
-0.00579288
-0.00508921
-0.00435365
-0.00358674
-0.00278906
-0.00196118
-0.00110374
-0.000217391
0.000697185
0.00163927
0.00260811
0.00360295
0.00462299
0.00566745
0.00673548
0.00782625
0.0089389
0.0100725
0.0112262
0.0123991
0.0135901
0.0147985
0.016023
0.0172629
0.018517
0.0197844
0.0210639
0.0223547
0.0236555
0.0249654
0.0262833
0.0276081
0.0289387
0.0302739
0.0316127
0.0329539
0.0342964
0.0356391
0.0369809
0.0383207
0.0396572
0.0409894
0.0423161
0.0436362
0.0449486
0.0462521
0.0475456
0.0488279
0.0500981
0.0513549
0.0525973
0.0538242
0.0550346
0.0562273
0.0574013
0.0585556
0.0596892
0.060801
0.0618901
0.0629556
0.0639964
0.0650117
0.0660006
0.0669621
0.0678956
0.0688
0.0696747
0.0705189
0.0713318
0.0721128
0.0728612
0.0735764
0.0742578
0.0749049
0.0755171
0.076094
0.0766351
0.0771401
0.0776087
0.0780406
0.0784355
0.0787932
0.0791137
0.0793969
0.0796427
0.0798512
0.0800225
0.0801567
0.080254
0.0803149
0.0803395
0.0803283
0.0802818
0.0802005
0.0800851
0.0799363
0.0797547
0.0795414
0.0792971
0.0790228
0.0787197
0.0783889
0.0780316
0.0776492
0.077243
0.0768146
0.0763655
0.0758973
0.0754119
0.074911
0.0743966
0.0738707
0.0733353
0.0727926
0.0722449
0.0716945
0.0711438
0.0705952
0.0700514
0.0695148
0.0689881
0.068474
0.0679752
0.0674944
0.0670342
0.0665975
0.066187
0.0658053
0.0654551
0.065139
0.0648597
0.0646197
0.0644216
0.0642683
0.0641623
0.0641031
0.00380306
0.00366077
0.00348957
0.00328341
0.00303834
0.00275715
0.00244251
0.00209671
0.0017221
0.00132109
0.000896148
0.000449766
-1.55422e-05
-0.000497255
-0.000992844
-0.0014998
-0.00201565
-0.00253793
-0.00306423
-0.00359217
-0.00411946
-0.00464386
-0.00516318
-0.00567535
-0.00617834
-0.00667021
-0.0071491
-0.00761323
-0.00806089
-0.00849048
-0.00890047
-0.00928941
-0.00965596
-0.00999885
-0.0103169
-0.0106089
-0.0108739
-0.0111109
-0.011319
-0.0114973
-0.0116451
-0.0117617
-0.0118465
-0.0118988
-0.0119183
-0.0119045
-0.011857
-0.0117755
-0.0116598
-0.0115095
-0.0113247
-0.0111051
-0.0108507
-0.0105615
-0.0102375
-0.00987879
-0.0094855
-0.0090578
-0.00859588
-0.00809999
-0.00757041
-0.00700744
-0.00641145
-0.00578283
-0.00512201
-0.00442947
-0.00370569
-0.0029512
-0.00216655
-0.00135231
-0.00050909
0.000362465
0.00126168
0.00218786
0.00314027
0.00411817
0.00512079
0.00614734
0.00719703
0.00826901
0.00936245
0.0104765
0.0116102
0.0127627
0.0139331
0.0151204
0.0163237
0.0175419
0.0187742
0.0200195
0.0212767
0.0225449
0.0238231
0.0251102
0.0264051
0.0277067
0.0290141
0.030326
0.0316415
0.0329593
0.0342785
0.0355978
0.0369163
0.0382327
0.039546
0.0408551
0.0421588
0.043456
0.0447457
0.0460266
0.0472978
0.0485581
0.0498063
0.0510416
0.0522626
0.0534685
0.0546582
0.0558305
0.0569846
0.0581193
0.0592337
0.0603267
0.0613975
0.0624451
0.0634686
0.064467
0.0654395
0.0663853
0.0673035
0.0681932
0.0690538
0.0698845
0.0706845
0.0714533
0.0721901
0.0728944
0.0735656
0.0742031
0.0748064
0.0753752
0.0759089
0.0764073
0.0768699
0.0772966
0.0776871
0.0780412
0.0783588
0.0786398
0.0788843
0.0790922
0.0792637
0.0793989
0.079498
0.0795613
0.0795892
0.0795821
0.0795403
0.0794645
0.0793553
0.0792134
0.0790394
0.0788342
0.0785987
0.0783339
0.0780407
0.0777204
0.077374
0.077003
0.0766086
0.0761922
0.0757555
0.0752999
0.0748271
0.074339
0.0738372
0.0733238
0.0728008
0.07227
0.0717338
0.0711943
0.0706538
0.0701145
0.0695789
0.0690494
0.0685285
0.0680186
0.0675222
0.0670418
0.0665801
0.0661394
0.0657224
0.0653313
0.0649688
0.0646371
0.0643387
0.0640757
0.0638508
0.0636665
0.0635213
0.063411
0.00455213
0.00435407
0.00413964
0.0038989
0.00362339
0.00331576
0.00297868
0.0026141
0.00222408
0.00181079
0.00137645
0.00092332
0.00045369
-3.0137e-05
-0.000525837
-0.00103111
-0.00154365
-0.00206121
-0.00258154
-0.00310243
-0.00362173
-0.00413736
-0.00464726
-0.00514949
-0.00564214
-0.00612338
-0.00659145
-0.00704465
-0.00748137
-0.00790009
-0.00829935
-0.00867779
-0.0090341
-0.00936707
-0.00967556
-0.00995849
-0.0102148
-0.0104437
-0.0106441
-0.0108154
-0.0109567
-0.0110675
-0.011147
-0.0111948
-0.0112104
-0.0111934
-0.0111434
-0.01106
-0.0109432
-0.0107925
-0.010608
-0.0103894
-0.0101368
-0.00985004
-0.00952923
-0.00917442
-0.00878574
-0.00836334
-0.00790743
-0.00741823
-0.00689602
-0.0063411
-0.00575381
-0.00513455
-0.00448374
-0.00380183
-0.00308931
-0.00234668
-0.00157446
-0.000773242
5.63974e-05
0.000913824
0.00179838
0.00270937
0.0036461
0.00460784
0.00559383
0.0066033
0.00763547
0.00868952
0.00976463
0.0108599
0.0119746
0.0131077
0.0142583
0.0154256
0.0166086
0.0178062
0.0190176
0.0202418
0.0214778
0.0227246
0.0239811
0.0252464
0.0265193
0.027799
0.0290842
0.0303739
0.0316671
0.0329627
0.0342596
0.0355567
0.0368529
0.0381472
0.0394384
0.0407254
0.0420072
0.0432827
0.0445507
0.0458102
0.0470601
0.0482994
0.0495269
0.0507416
0.0519424
0.0531283
0.0542983
0.0554513
0.0565864
0.0577025
0.0587986
0.0598739
0.0609273
0.061958
0.0629649
0.0639474
0.0649044
0.0658352
0.0667388
0.0676147
0.0684619
0.0692798
0.0700676
0.0708248
0.0715507
0.0722446
0.0729061
0.0735345
0.0741295
0.0746905
0.0752172
0.0757092
0.0761662
0.0765879
0.0769742
0.0773247
0.0776395
0.0779185
0.0781616
0.0783689
0.0785404
0.0786764
0.078777
0.0788425
0.0788733
0.0788697
0.0788322
0.0787613
0.0786576
0.0785218
0.0783546
0.0781568
0.0779291
0.0776727
0.0773884
0.0770774
0.0767407
0.0763797
0.0759957
0.07559
0.075164
0.0747193
0.0742574
0.0737802
0.0732893
0.0727865
0.0722737
0.0717528
0.0712259
0.0706951
0.0701624
0.0696301
0.0691004
0.0685755
0.0680577
0.0675495
0.0670531