/*--------------------------------*- C++ -*----------------------------------*\
  =========                 |
  \\      /  F ield         | OpenFOAM: The Open Source CFD Toolbox
   \\    /   O peration     | Website:  https://openfoam.org
    \\  /    A nd           | Version:  7
     \\/     M anipulation  |
\*---------------------------------------------------------------------------*/
FoamFile
{
    version     2.0;
    format      ascii;
    class       volVectorField;
    location    "0.47";
    object      U;
}
// * * * * * * * * * * * * * * * * * * * * * * * * * * * * * * * * * * * * * //

dimensions      [0 1 -1 0 0 0 0];

internalField   nonuniform List<vector> 
40000
(
(-1.30509e-07 4.09642e-08 0)
(9.69024e-07 -7.88504e-07 0)
(4.29359e-06 -1.47397e-06 0)
(8.89982e-06 -1.84359e-06 0)
(1.40385e-05 -1.96567e-06 0)
(1.9181e-05 -1.91326e-06 0)
(2.39303e-05 -1.74011e-06 0)
(2.79924e-05 -1.48453e-06 0)
(3.11536e-05 -1.1729e-06 0)
(3.32594e-05 -8.23302e-07 0)
(3.41989e-05 -4.48393e-07 0)
(3.3894e-05 -5.72698e-08 0)
(3.22919e-05 3.43389e-07 0)
(2.93592e-05 7.48563e-07 0)
(2.5078e-05 1.15442e-06 0)
(1.94426e-05 1.55801e-06 0)
(1.2457e-05 1.95699e-06 0)
(4.13326e-06 2.34954e-06 0)
(-5.51036e-06 2.73421e-06 0)
(-1.64503e-05 3.10984e-06 0)
(-2.86586e-05 3.47551e-06 0)
(-4.21041e-05 3.83048e-06 0)
(-5.67526e-05 4.17416e-06 0)
(-7.25674e-05 4.50609e-06 0)
(-8.95104e-05 4.82589e-06 0)
(-0.000107541 5.13329e-06 0)
(-0.000126619 5.42808e-06 0)
(-0.000146702 5.7101e-06 0)
(-0.000167746 5.97925e-06 0)
(-0.000189709 6.23546e-06 0)
(-0.000212546 6.47869e-06 0)
(-0.000236214 6.70896e-06 0)
(-0.000260667 6.92629e-06 0)
(-0.000285862 7.13073e-06 0)
(-0.000311755 7.32235e-06 0)
(-0.0003383 7.50123e-06 0)
(-0.000365454 7.66747e-06 0)
(-0.000393173 7.82118e-06 0)
(-0.000421414 7.96249e-06 0)
(-0.000450134 8.09152e-06 0)
(-0.000479289 8.20843e-06 0)
(-0.000508837 8.31335e-06 0)
(-0.000538737 8.40645e-06 0)
(-0.000568948 8.48787e-06 0)
(-0.000599427 8.55779e-06 0)
(-0.000630135 8.61638e-06 0)
(-0.000661033 8.6638e-06 0)
(-0.00069208 8.70024e-06 0)
(-0.000723238 8.72588e-06 0)
(-0.000754469 8.7409e-06 0)
(-0.000785736 8.74547e-06 0)
(-0.000817002 8.73979e-06 0)
(-0.00084823 8.72403e-06 0)
(-0.000879385 8.6984e-06 0)
(-0.000910433 8.66308e-06 0)
(-0.000941338 8.61827e-06 0)
(-0.000972067 8.56414e-06 0)
(-0.00100259 8.50089e-06 0)
(-0.00103287 8.42872e-06 0)
(-0.00106287 8.34781e-06 0)
(-0.00109258 8.25836e-06 0)
(-0.00112195 8.16057e-06 0)
(-0.00115095 8.05463e-06 0)
(-0.00117957 7.94072e-06 0)
(-0.00120776 7.81904e-06 0)
(-0.00123551 7.68979e-06 0)
(-0.00126278 7.55315e-06 0)
(-0.00128955 7.40934e-06 0)
(-0.00131579 7.25853e-06 0)
(-0.00134148 7.10092e-06 0)
(-0.0013666 6.9367e-06 0)
(-0.00139111 6.76607e-06 0)
(-0.00141501 6.58921e-06 0)
(-0.00143826 6.40633e-06 0)
(-0.00146085 6.21763e-06 0)
(-0.00148275 6.0233e-06 0)
(-0.00150395 5.82352e-06 0)
(-0.00152442 5.6185e-06 0)
(-0.00154415 5.40842e-06 0)
(-0.00156312 5.19349e-06 0)
(-0.00158131 4.97391e-06 0)
(-0.0015987 4.74988e-06 0)
(-0.00161529 4.52159e-06 0)
(-0.00163105 4.28924e-06 0)
(-0.00164597 4.05302e-06 0)
(-0.00166004 3.81314e-06 0)
(-0.00167324 3.56981e-06 0)
(-0.00168557 3.32322e-06 0)
(-0.001697 3.0736e-06 0)
(-0.00170754 2.82114e-06 0)
(-0.00171717 2.56603e-06 0)
(-0.00172588 2.30849e-06 0)
(-0.00173367 2.04873e-06 0)
(-0.00174052 1.78696e-06 0)
(-0.00174643 1.5234e-06 0)
(-0.00175139 1.25827e-06 0)
(-0.0017554 9.91775e-07 0)
(-0.00175845 7.24126e-07 0)
(-0.00176055 4.5554e-07 0)
(-0.00176168 1.86242e-07 0)
(-0.00176184 -8.35379e-08 0)
(-0.00176104 -3.53571e-07 0)
(-0.00175928 -6.23633e-07 0)
(-0.00175654 -8.93503e-07 0)
(-0.00175285 -1.16296e-06 0)
(-0.00174818 -1.43177e-06 0)
(-0.00174256 -1.69971e-06 0)
(-0.00173598 -1.96651e-06 0)
(-0.00172845 -2.23195e-06 0)
(-0.00171997 -2.49579e-06 0)
(-0.00171056 -2.7578e-06 0)
(-0.00170021 -3.01775e-06 0)
(-0.00168893 -3.27538e-06 0)
(-0.00167673 -3.53046e-06 0)
(-0.00166363 -3.78272e-06 0)
(-0.00164964 -4.03192e-06 0)
(-0.00163476 -4.27782e-06 0)
(-0.001619 -4.52017e-06 0)
(-0.00160239 -4.75873e-06 0)
(-0.00158493 -4.99325e-06 0)
(-0.00156665 -5.22348e-06 0)
(-0.00154755 -5.44914e-06 0)
(-0.00152765 -5.66999e-06 0)
(-0.00150697 -5.88578e-06 0)
(-0.00148553 -6.09627e-06 0)
(-0.00146335 -6.3012e-06 0)
(-0.00144045 -6.50034e-06 0)
(-0.00141685 -6.6934e-06 0)
(-0.00139258 -6.88015e-06 0)
(-0.00136765 -7.06032e-06 0)
(-0.00134209 -7.23367e-06 0)
(-0.00131592 -7.39997e-06 0)
(-0.00128917 -7.55897e-06 0)
(-0.00126188 -7.71042e-06 0)
(-0.00123405 -7.85408e-06 0)
(-0.00120573 -7.98969e-06 0)
(-0.00117694 -8.11701e-06 0)
(-0.00114772 -8.23583e-06 0)
(-0.00111809 -8.34591e-06 0)
(-0.00108808 -8.44703e-06 0)
(-0.00105773 -8.53896e-06 0)
(-0.00102706 -8.62146e-06 0)
(-0.000996127 -8.69432e-06 0)
(-0.000964948 -8.75731e-06 0)
(-0.000933564 -8.81024e-06 0)
(-0.000902011 -8.85292e-06 0)
(-0.000870325 -8.88513e-06 0)
(-0.000838543 -8.9067e-06 0)
(-0.000806705 -8.9174e-06 0)
(-0.000774849 -8.91707e-06 0)
(-0.000743014 -8.90552e-06 0)
(-0.000711241 -8.8826e-06 0)
(-0.000679569 -8.84814e-06 0)
(-0.000648041 -8.80201e-06 0)
(-0.000616697 -8.74403e-06 0)
(-0.000585579 -8.67407e-06 0)
(-0.000554731 -8.59199e-06 0)
(-0.000524195 -8.49767e-06 0)
(-0.000494014 -8.39102e-06 0)
(-0.000464232 -8.27194e-06 0)
(-0.000434892 -8.14033e-06 0)
(-0.000406039 -7.99611e-06 0)
(-0.000377717 -7.83922e-06 0)
(-0.00034997 -7.66959e-06 0)
(-0.000322842 -7.48719e-06 0)
(-0.000296378 -7.29202e-06 0)
(-0.000270622 -7.08406e-06 0)
(-0.000245618 -6.86334e-06 0)
(-0.000221411 -6.62988e-06 0)
(-0.000198043 -6.38373e-06 0)
(-0.000175558 -6.12498e-06 0)
(-0.000153999 -5.85375e-06 0)
(-0.000133407 -5.57019e-06 0)
(-0.000113824 -5.27449e-06 0)
(-9.52905e-05 -4.96688e-06 0)
(-7.78445e-05 -4.64763e-06 0)
(-6.15242e-05 -4.31708e-06 0)
(-4.63654e-05 -3.97564e-06 0)
(-3.24021e-05 -3.62381e-06 0)
(-1.9666e-05 -3.2622e-06 0)
(-8.18595e-06 -2.89152e-06 0)
(2.01238e-06 -2.51266e-06 0)
(1.09073e-05 -2.12667e-06 0)
(1.84817e-05 -1.73483e-06 0)
(2.47243e-05 -1.33874e-06 0)
(2.96304e-05 -9.40362e-07 0)
(3.32036e-05 -5.42156e-07 0)
(3.54577e-05 -1.4722e-07 0)
(3.6419e-05 2.40486e-07 0)
(3.61293e-05 6.15818e-07 0)
(3.46502e-05 9.71991e-07 0)
(3.20686e-05 1.29982e-06 0)
(2.85041e-05 1.58659e-06 0)
(2.41194e-05 1.81425e-06 0)
(1.91352e-05 1.95662e-06 0)
(1.38511e-05 1.97593e-06 0)
(8.66646e-06 1.81978e-06 0)
(4.11024e-06 1.41769e-06 0)
(9.11005e-07 7.05758e-07 0)
(-1.21311e-07 -1.21214e-07 0)
(7.36284e-07 -1.103e-06 0)
(4.70005e-06 -4.79621e-06 0)
(1.27452e-05 -7.64708e-06 0)
(2.31321e-05 -9.22087e-06 0)
(3.44303e-05 -9.69359e-06 0)
(4.55507e-05 -9.30198e-06 0)
(5.55881e-05 -8.25264e-06 0)
(6.38149e-05 -6.71233e-06 0)
(6.96668e-05 -4.80945e-06 0)
(7.27131e-05 -2.64138e-06 0)
(7.26294e-05 -2.82351e-07 0)
(6.91767e-05 2.21055e-06 0)
(6.21842e-05 4.79291e-06 0)
(5.15361e-05 7.4298e-06 0)
(3.71609e-05 1.00935e-05 0)
(1.90233e-05 1.27619e-05 0)
(-2.88254e-06 1.5417e-05 0)
(-2.85383e-05 1.80444e-05 0)
(-5.79059e-05 2.06322e-05 0)
(-9.09305e-05 2.31708e-05 0)
(-0.000127544 2.56523e-05 0)
(-0.000167666 2.80701e-05 0)
(-0.000211209 3.04189e-05 0)
(-0.000258074 3.26943e-05 0)
(-0.00030816 3.48929e-05 0)
(-0.000361357 3.70117e-05 0)
(-0.000417553 3.90484e-05 0)
(-0.00047663 4.10011e-05 0)
(-0.000538471 4.28686e-05 0)
(-0.000602952 4.46498e-05 0)
(-0.000669952 4.63438e-05 0)
(-0.000739345 4.79502e-05 0)
(-0.000811006 4.94687e-05 0)
(-0.000884809 5.08993e-05 0)
(-0.000960628 5.22421e-05 0)
(-0.00103834 5.34973e-05 0)
(-0.00111781 5.46653e-05 0)
(-0.00119892 5.57467e-05 0)
(-0.00128154 5.6742e-05 0)
(-0.00136556 5.7652e-05 0)
(-0.00145083 5.84773e-05 0)
(-0.00153726 5.9219e-05 0)
(-0.0016247 5.98778e-05 0)
(-0.00171305 6.04548e-05 0)
(-0.00180218 6.0951e-05 0)
(-0.00189198 6.13674e-05 0)
(-0.00198233 6.17051e-05 0)
(-0.00207312 6.19653e-05 0)
(-0.00216424 6.21492e-05 0)
(-0.00225557 6.22578e-05 0)
(-0.002347 6.22925e-05 0)
(-0.00243843 6.22545e-05 0)
(-0.00252976 6.2145e-05 0)
(-0.00262087 6.19652e-05 0)
(-0.00271167 6.17166e-05 0)
(-0.00280206 6.14003e-05 0)
(-0.00289194 6.10178e-05 0)
(-0.00298121 6.05702e-05 0)
(-0.00306977 6.00589e-05 0)
(-0.00315754 5.94854e-05 0)
(-0.00324443 5.88508e-05 0)
(-0.00333034 5.81566e-05 0)
(-0.00341519 5.74041e-05 0)
(-0.00349889 5.65946e-05 0)
(-0.00358137 5.57296e-05 0)
(-0.00366254 5.48103e-05 0)
(-0.00374232 5.38382e-05 0)
(-0.00382063 5.28146e-05 0)
(-0.00389741 5.1741e-05 0)
(-0.00397258 5.06186e-05 0)
(-0.00404606 4.94488e-05 0)
(-0.00411779 4.82331e-05 0)
(-0.0041877 4.69728e-05 0)
(-0.00425573 4.56693e-05 0)
(-0.00432181 4.4324e-05 0)
(-0.00438589 4.29383e-05 0)
(-0.00444791 4.15137e-05 0)
(-0.0045078 4.00514e-05 0)
(-0.00456552 3.85529e-05 0)
(-0.00462101 3.70196e-05 0)
(-0.00467423 3.5453e-05 0)
(-0.00472512 3.38545e-05 0)
(-0.00477363 3.22254e-05 0)
(-0.00481974 3.05673e-05 0)
(-0.00486338 2.88816e-05 0)
(-0.00490453 2.71697e-05 0)
(-0.00494315 2.5433e-05 0)
(-0.0049792 2.36732e-05 0)
(-0.00501264 2.18915e-05 0)
(-0.00504345 2.00896e-05 0)
(-0.0050716 1.82689e-05 0)
(-0.00509707 1.64309e-05 0)
(-0.00511982 1.4577e-05 0)
(-0.00513983 1.2709e-05 0)
(-0.00515709 1.08282e-05 0)
(-0.00517158 8.93619e-06 0)
(-0.00518328 7.0346e-06 0)
(-0.00519219 5.12494e-06 0)
(-0.00519828 3.20877e-06 0)
(-0.00520155 1.2877e-06 0)
(-0.005202 -6.36671e-07 0)
(-0.00519962 -2.56271e-06 0)
(-0.00519441 -4.4888e-06 0)
(-0.00518637 -6.4133e-06 0)
(-0.00517551 -8.3346e-06 0)
(-0.00516183 -1.0251e-05 0)
(-0.00514534 -1.21609e-05 0)
(-0.00512606 -1.40626e-05 0)
(-0.00510398 -1.59543e-05 0)
(-0.00507914 -1.78344e-05 0)
(-0.00505155 -1.97011e-05 0)
(-0.00502122 -2.15527e-05 0)
(-0.0049882 -2.33876e-05 0)
(-0.00495249 -2.5204e-05 0)
(-0.00491413 -2.70001e-05 0)
(-0.00487315 -2.87741e-05 0)
(-0.00482958 -3.05242e-05 0)
(-0.00478347 -3.22488e-05 0)
(-0.00473484 -3.3946e-05 0)
(-0.00468375 -3.56142e-05 0)
(-0.00463023 -3.72514e-05 0)
(-0.00457433 -3.88558e-05 0)
(-0.00451611 -4.04258e-05 0)
(-0.00445561 -4.19595e-05 0)
(-0.00439289 -4.34551e-05 0)
(-0.004328 -4.49108e-05 0)
(-0.00426102 -4.6325e-05 0)
(-0.00419199 -4.76957e-05 0)
(-0.00412098 -4.90213e-05 0)
(-0.00404807 -5.02998e-05 0)
(-0.00397332 -5.15297e-05 0)
(-0.0038968 -5.27091e-05 0)
(-0.00381859 -5.38364e-05 0)
(-0.00373877 -5.49097e-05 0)
(-0.00365742 -5.59275e-05 0)
(-0.00357462 -5.68881e-05 0)
(-0.00349046 -5.77896e-05 0)
(-0.00340503 -5.86306e-05 0)
(-0.0033184 -5.94094e-05 0)
(-0.00323069 -6.01244e-05 0)
(-0.00314197 -6.0774e-05 0)
(-0.00305236 -6.13568e-05 0)
(-0.00296194 -6.18711e-05 0)
(-0.00287082 -6.23155e-05 0)
(-0.0027791 -6.26887e-05 0)
(-0.00268689 -6.29891e-05 0)
(-0.00259429 -6.32154e-05 0)
(-0.00250142 -6.33664e-05 0)
(-0.00240839 -6.34407e-05 0)
(-0.0023153 -6.34371e-05 0)
(-0.00222227 -6.33545e-05 0)
(-0.00212943 -6.31916e-05 0)
(-0.00203688 -6.29476e-05 0)
(-0.00194475 -6.26213e-05 0)
(-0.00185315 -6.22118e-05 0)
(-0.00176221 -6.17183e-05 0)
(-0.00167206 -6.11399e-05 0)
(-0.00158281 -6.04759e-05 0)
(-0.00149459 -5.97257e-05 0)
(-0.00140752 -5.88887e-05 0)
(-0.00132174 -5.79645e-05 0)
(-0.00123736 -5.69526e-05 0)
(-0.00115452 -5.58529e-05 0)
(-0.00107335 -5.46651e-05 0)
(-0.000993965 -5.33892e-05 0)
(-0.000916498 -5.20253e-05 0)
(-0.000841074 -5.05738e-05 0)
(-0.000767821 -4.90349e-05 0)
(-0.000696862 -4.74093e-05 0)
(-0.000628321 -4.56977e-05 0)
(-0.00056232 -4.39012e-05 0)
(-0.00049898 -4.2021e-05 0)
(-0.000438418 -4.00587e-05 0)
(-0.000380749 -3.80161e-05 0)
(-0.000326084 -3.58954e-05 0)
(-0.000274532 -3.36992e-05 0)
(-0.000226194 -3.14308e-05 0)
(-0.000181168 -2.90938e-05 0)
(-0.000139545 -2.66926e-05 0)
(-0.000101409 -2.42325e-05 0)
(-6.68326e-05 -2.17195e-05 0)
(-3.58807e-05 -1.91611e-05 0)
(-8.60448e-06 -1.65659e-05 0)
(1.49594e-05 -1.39444e-05 0)
(3.47918e-05 -1.13092e-05 0)
(5.08942e-05 -8.67546e-06 0)
(6.32932e-05 -6.0618e-06 0)
(7.20458e-05 -3.49097e-06 0)
(7.72452e-05 -9.91178e-07 0)
(7.90297e-05 1.40235e-06 0)
(7.7592e-05 3.64511e-06 0)
(7.31929e-05 5.68025e-06 0)
(6.61771e-05 7.43435e-06 0)
(5.69934e-05 8.81168e-06 0)
(4.622e-05 9.68694e-06 0)
(3.45917e-05 9.89905e-06 0)
(2.30107e-05 9.25164e-06 0)
(1.2547e-05 7.52574e-06 0)
(4.57432e-06 4.57558e-06 0)
(7.04972e-07 9.10555e-07 0)
(1.45084e-06 -4.35641e-06 0)
(7.59568e-06 -1.28202e-05 0)
(1.88454e-05 -1.8899e-05 0)
(3.27055e-05 -2.2185e-05 0)
(4.73193e-05 -2.29723e-05 0)
(6.12904e-05 -2.16893e-05 0)
(7.34054e-05 -1.87524e-05 0)
(8.26463e-05 -1.45248e-05 0)
(8.81929e-05 -9.30567e-06 0)
(8.93971e-05 -3.33569e-06 0)
(8.57554e-05 3.19305e-06 0)
(7.68849e-05 1.01272e-05 0)
(6.25031e-05 1.73438e-05 0)
(4.24108e-05 2.47442e-05 0)
(1.64774e-05 3.22481e-05 0)
(-1.53706e-05 3.97904e-05 0)
(-5.31594e-05 4.73178e-05 0)
(-9.68753e-05 5.47866e-05 0)
(-0.000146472 6.21606e-05 0)
(-0.000201876 6.941e-05 0)
(-0.000262989 7.651e-05 0)
(-0.000329695 8.34402e-05 0)
(-0.000401862 9.01835e-05 0)
(-0.000479343 9.67258e-05 0)
(-0.00056198 0.000103056 0)
(-0.000649605 0.000109163 0)
(-0.000742044 0.000115041 0)
(-0.000839115 0.000120683 0)
(-0.00094063 0.000126083 0)
(-0.0010464 0.000131239 0)
(-0.00115623 0.000136146 0)
(-0.00126991 0.000140803 0)
(-0.00138726 0.000145209 0)
(-0.00150807 0.000149363 0)
(-0.00163214 0.000153265 0)
(-0.00175927 0.000156914 0)
(-0.00188925 0.000160312 0)
(-0.00202188 0.000163459 0)
(-0.00215696 0.000166358 0)
(-0.0022943 0.000169009 0)
(-0.00243369 0.000171416 0)
(-0.00257494 0.000173579 0)
(-0.00271785 0.000175502 0)
(-0.00286222 0.000177186 0)
(-0.00300787 0.000178636 0)
(-0.0031546 0.000179853 0)
(-0.00330223 0.000180841 0)
(-0.00345057 0.000181603 0)
(-0.00359944 0.000182141 0)
(-0.00374866 0.000182461 0)
(-0.00389805 0.000182564 0)
(-0.00404744 0.000182454 0)
(-0.00419665 0.000182136 0)
(-0.00434552 0.000181612 0)
(-0.00449388 0.000180886 0)
(-0.00464157 0.000179963 0)
(-0.00478842 0.000178845 0)
(-0.00493427 0.000177536 0)
(-0.00507899 0.000176041 0)
(-0.0052224 0.000174363 0)
(-0.00536437 0.000172506 0)
(-0.00550475 0.000170474 0)
(-0.0056434 0.000168271 0)
(-0.00578018 0.000165901 0)
(-0.00591496 0.000163368 0)
(-0.00604759 0.000160676 0)
(-0.00617796 0.000157828 0)
(-0.00630594 0.000154829 0)
(-0.0064314 0.000151683 0)
(-0.00655423 0.000148394 0)
(-0.00667431 0.000144965 0)
(-0.00679153 0.000141402 0)
(-0.00690578 0.000137708 0)
(-0.00701695 0.000133886 0)
(-0.00712494 0.000129942 0)
(-0.00722965 0.000125879 0)
(-0.00733099 0.000121702 0)
(-0.00742887 0.000117414 0)
(-0.00752319 0.000113019 0)
(-0.00761386 0.000108523 0)
(-0.00770082 0.000103928 0)
(-0.00778397 9.92396e-05 0)
(-0.00786325 9.44616e-05 0)
(-0.00793857 8.95982e-05 0)
(-0.00800989 8.46537e-05 0)
(-0.00807711 7.96324e-05 0)
(-0.0081402 7.45385e-05 0)
(-0.00819909 6.93764e-05 0)
(-0.00825372 6.41504e-05 0)
(-0.00830404 5.88649e-05 0)
(-0.00835002 5.35244e-05 0)
(-0.0083916 4.81331e-05 0)
(-0.00842874 4.26957e-05 0)
(-0.00846142 3.72164e-05 0)
(-0.00848959 3.17e-05 0)
(-0.00851323 2.61509e-05 0)
(-0.00853231 2.05738e-05 0)
(-0.00854681 1.49731e-05 0)
(-0.00855672 9.35367e-06 0)
(-0.00856203 3.72004e-06 0)
(-0.00856271 -1.92304e-06 0)
(-0.00855878 -7.57081e-06 0)
(-0.00855022 -1.32185e-05 0)
(-0.00853704 -1.88612e-05 0)
(-0.00851924 -2.44942e-05 0)
(-0.00849683 -3.01126e-05 0)
(-0.00846984 -3.57115e-05 0)
(-0.00843827 -4.12859e-05 0)
(-0.00840215 -4.68309e-05 0)
(-0.0083615 -5.23414e-05 0)
(-0.00831637 -5.78124e-05 0)
(-0.00826677 -6.32389e-05 0)
(-0.00821275 -6.86157e-05 0)
(-0.00815436 -7.39379e-05 0)
(-0.00809164 -7.92001e-05 0)
(-0.00802464 -8.43974e-05 0)
(-0.00795341 -8.95244e-05 0)
(-0.00787802 -9.45761e-05 0)
(-0.00779854 -9.95471e-05 0)
(-0.00771502 -0.000104432 0)
(-0.00762755 -0.000109227 0)
(-0.00753619 -0.000113925 0)
(-0.00744104 -0.000118521 0)
(-0.00734217 -0.000123011 0)
(-0.00723967 -0.000127389 0)
(-0.00713365 -0.00013165 0)
(-0.0070242 -0.000135789 0)
(-0.00691141 -0.0001398 0)
(-0.0067954 -0.000143678 0)
(-0.00667628 -0.000147419 0)
(-0.00655416 -0.000151016 0)
(-0.00642916 -0.000154466 0)
(-0.00630141 -0.000157763 0)
(-0.00617103 -0.000160901 0)
(-0.00603815 -0.000163877 0)
(-0.00590292 -0.000166685 0)
(-0.00576546 -0.00016932 0)
(-0.00562592 -0.000171778 0)
(-0.00548445 -0.000174053 0)
(-0.0053412 -0.000176142 0)
(-0.00519632 -0.00017804 0)
(-0.00504997 -0.000179742 0)
(-0.00490232 -0.000181243 0)
(-0.00475353 -0.000182541 0)
(-0.00460376 -0.00018363 0)
(-0.00445318 -0.000184506 0)
(-0.00430198 -0.000185167 0)
(-0.00415034 -0.000185607 0)
(-0.00399842 -0.000185823 0)
(-0.00384641 -0.000185812 0)
(-0.00369451 -0.000185571 0)
(-0.0035429 -0.000185096 0)
(-0.00339177 -0.000184384 0)
(-0.00324131 -0.000183433 0)
(-0.00309172 -0.000182239 0)
(-0.0029432 -0.000180802 0)
(-0.00279594 -0.000179117 0)
(-0.00265015 -0.000177184 0)
(-0.00250603 -0.000175001 0)
(-0.00236379 -0.000172566 0)
(-0.00222361 -0.000169878 0)
(-0.00208572 -0.000166936 0)
(-0.00195031 -0.000163741 0)
(-0.00181759 -0.000160291 0)
(-0.00168777 -0.000156587 0)
(-0.00156104 -0.000152629 0)
(-0.00143762 -0.000148419 0)
(-0.00131769 -0.000143958 0)
(-0.00120147 -0.000139249 0)
(-0.00108914 -0.000134294 0)
(-0.000980909 -0.000129097 0)
(-0.000876958 -0.000123662 0)
(-0.000777475 -0.000117994 0)
(-0.000682642 -0.000112099 0)
(-0.000592632 -0.000105985 0)
(-0.000507614 -9.966e-05 0)
(-0.000427746 -9.31342e-05 0)
(-0.000353178 -8.64195e-05 0)
(-0.000284049 -7.95299e-05 0)
(-0.000220483 -7.24818e-05 0)
(-0.000162591 -6.52944e-05 0)
(-0.000110463 -5.79906e-05 0)
(-6.41703e-05 -5.05971e-05 0)
(-2.37595e-05 -4.31459e-05 0)
(1.07528e-05 -3.56751e-05 0)
(3.93836e-05 -2.82302e-05 0)
(6.21909e-05 -2.08661e-05 0)
(7.92806e-05 -1.36491e-05 0)
(9.08163e-05 -6.66029e-06 0)
(9.70305e-05 1.23626e-09 0)
(9.82379e-05 6.21315e-06 0)
(9.48525e-05 1.18238e-05 0)
(8.74064e-05 1.66446e-05 0)
(7.65717e-05 2.04409e-05 0)
(6.31861e-05 2.29237e-05 0)
(4.8275e-05 2.37468e-05 0)
(3.30447e-05 2.25212e-05 0)
(1.88626e-05 1.88627e-05 0)
(7.52332e-06 1.25473e-05 0)
(1.41603e-06 4.10775e-06 0)
(1.83326e-06 -8.9287e-06 0)
(9.19939e-06 -2.3191e-05 0)
(2.21693e-05 -3.2758e-05 0)
(3.76059e-05 -3.76119e-05 0)
(5.33144e-05 -3.82687e-05 0)
(6.76909e-05 -3.53803e-05 0)
(7.93257e-05 -2.95904e-05 0)
(8.70105e-05 -2.14779e-05 0)
(8.97488e-05 -1.15378e-05 0)
(8.67334e-05 -1.82248e-07 0)
(7.73221e-05 1.22494e-05 0)
(6.10145e-05 2.54792e-05 0)
(3.74324e-05 3.92797e-05 0)
(6.30083e-06 5.34642e-05 0)
(-3.25675e-05 6.78793e-05 0)
(-7.92857e-05 8.23986e-05 0)
(-0.000133904 9.69173e-05 0)
(-0.000196421 0.000111348 0)
(-0.000266789 0.00012562 0)
(-0.000344923 0.000139671 0)
(-0.000430705 0.000153451 0)
(-0.000523991 0.000166919 0)
(-0.000624614 0.000180038 0)
(-0.000732385 0.00019278 0)
(-0.000847102 0.00020512 0)
(-0.000968546 0.000217038 0)
(-0.00109649 0.000228517 0)
(-0.00123069 0.000239543 0)
(-0.0013709 0.000250105 0)
(-0.00151687 0.000260196 0)
(-0.00166834 0.000269806 0)
(-0.00182505 0.000278933 0)
(-0.00198672 0.000287571 0)
(-0.00215309 0.000295719 0)
(-0.00232388 0.000303376 0)
(-0.00249883 0.000310541 0)
(-0.00267767 0.000317215 0)
(-0.00286011 0.0003234 0)
(-0.00304589 0.000329099 0)
(-0.00323474 0.000334313 0)
(-0.00342639 0.000339046 0)
(-0.00362056 0.000343303 0)
(-0.003817 0.000347088 0)
(-0.00401544 0.000350405 0)
(-0.00421562 0.000353259 0)
(-0.00441727 0.000355657 0)
(-0.00462015 0.000357603 0)
(-0.004824 0.000359105 0)
(-0.00502856 0.000360166 0)
(-0.00523361 0.000360796 0)
(-0.00543888 0.000360999 0)
(-0.00564415 0.000360782 0)
(-0.00584918 0.000360153 0)
(-0.00605373 0.000359119 0)
(-0.00625758 0.000357686 0)
(-0.0064605 0.000355862 0)
(-0.00666228 0.000353654 0)
(-0.00686269 0.00035107 0)
(-0.00706153 0.000348116 0)
(-0.00725859 0.000344802 0)
(-0.00745367 0.000341133 0)
(-0.00764656 0.000337118 0)
(-0.00783707 0.000332764 0)
(-0.00802502 0.00032808 0)
(-0.00821021 0.000323073 0)
(-0.00839246 0.000317751 0)
(-0.0085716 0.000312122 0)
(-0.00874745 0.000306193 0)
(-0.00891985 0.000299972 0)
(-0.00908863 0.000293469 0)
(-0.00925363 0.000286689 0)
(-0.0094147 0.000279642 0)
(-0.00957169 0.000272336 0)
(-0.00972445 0.000264778 0)
(-0.00987284 0.000256977 0)
(-0.0100167 0.000248941 0)
(-0.010156 0.000240678 0)
(-0.0102905 0.000232196 0)
(-0.01042 0.000223503 0)
(-0.0105446 0.000214608 0)
(-0.0106641 0.000205518 0)
(-0.0107784 0.000196243 0)
(-0.0108873 0.000186791 0)
(-0.0109908 0.000177169 0)
(-0.0110887 0.000167387 0)
(-0.0111811 0.000157453 0)
(-0.0112677 0.000147375 0)
(-0.0113486 0.000137162 0)
(-0.0114237 0.000126823 0)
(-0.0114928 0.000116366 0)
(-0.0115559 0.000105801 0)
(-0.011613 9.51348e-05 0)
(-0.011664 8.43775e-05 0)
(-0.0117089 7.35379e-05 0)
(-0.0117475 6.26248e-05 0)
(-0.01178 5.16473e-05 0)
(-0.0118061 4.06145e-05 0)
(-0.011826 2.95355e-05 0)
(-0.0118396 1.84196e-05 0)
(-0.0118468 7.27596e-06 0)
(-0.0118477 -3.88599e-06 0)
(-0.0118422 -1.50569e-05 0)
(-0.0118304 -2.62272e-05 0)
(-0.0118122 -3.73874e-05 0)
(-0.0117877 -4.85279e-05 0)
(-0.0117569 -5.9639e-05 0)
(-0.0117197 -7.07111e-05 0)
(-0.0116763 -8.17342e-05 0)
(-0.0116266 -9.26987e-05 0)
(-0.0115707 -0.000103595 0)
(-0.0115086 -0.000114412 0)
(-0.0114404 -0.00012514 0)
(-0.0113661 -0.00013577 0)
(-0.0112858 -0.000146291 0)
(-0.0111996 -0.000156693 0)
(-0.0111075 -0.000166967 0)
(-0.0110096 -0.0001771 0)
(-0.0109059 -0.000187085 0)
(-0.0107967 -0.000196909 0)
(-0.0106819 -0.000206563 0)
(-0.0105617 -0.000216037 0)
(-0.0104362 -0.00022532 0)
(-0.0103054 -0.000234401 0)
(-0.0101695 -0.000243272 0)
(-0.0100287 -0.000251921 0)
(-0.00988304 -0.000260337 0)
(-0.00973265 -0.000268512 0)
(-0.0095777 -0.000276434 0)
(-0.00941832 -0.000284094 0)
(-0.00925468 -0.000291481 0)
(-0.00908692 -0.000298585 0)
(-0.00891522 -0.000305396 0)
(-0.00873973 -0.000311905 0)
(-0.00856065 -0.000318101 0)
(-0.00837814 -0.000323975 0)
(-0.00819239 -0.000329517 0)
(-0.00800359 -0.000334718 0)
(-0.00781195 -0.000339569 0)
(-0.00761765 -0.000344059 0)
(-0.00742092 -0.000348181 0)
(-0.00722195 -0.000351926 0)
(-0.00702097 -0.000355284 0)
(-0.0068182 -0.000358247 0)
(-0.00661386 -0.000360807 0)
(-0.00640818 -0.000362955 0)
(-0.0062014 -0.000364685 0)
(-0.00599376 -0.000365988 0)
(-0.00578551 -0.000366858 0)
(-0.00557688 -0.000367287 0)
(-0.00536812 -0.000367268 0)
(-0.00515951 -0.000366795 0)
(-0.00495128 -0.000365862 0)
(-0.0047437 -0.000364463 0)
(-0.00453704 -0.000362594 0)
(-0.00433157 -0.000360248 0)
(-0.00412754 -0.000357422 0)
(-0.00392524 -0.000354112 0)
(-0.00372493 -0.000350313 0)
(-0.00352689 -0.000346024 0)
(-0.0033314 -0.000341241 0)
(-0.00313873 -0.000335962 0)
(-0.00294916 -0.000330187 0)
(-0.00276297 -0.000323915 0)
(-0.00258043 -0.000317145 0)
(-0.00240182 -0.000309879 0)
(-0.00222742 -0.000302119 0)
(-0.0020575 -0.000293867 0)
(-0.00189233 -0.000285127 0)
(-0.00173218 -0.000275905 0)
(-0.00157731 -0.000266205 0)
(-0.00142798 -0.000256037 0)
(-0.00128445 -0.000245409 0)
(-0.00114696 -0.000234332 0)
(-0.00101576 -0.00022282 0)
(-0.000891064 -0.000210887 0)
(-0.000773105 -0.000198552 0)
(-0.000662088 -0.000185836 0)
(-0.000558207 -0.000172764 0)
(-0.000461639 -0.000159365 0)
(-0.000372544 -0.000145672 0)
(-0.000291059 -0.000131725 0)
(-0.000217295 -0.000117571 0)
(-0.000151335 -0.000103263 0)
(-9.32285e-05 -8.88651e-05 0)
(-4.29837e-05 -7.44542e-05 0)
(-5.63364e-07 -6.01198e-05 0)
(3.4124e-05 -4.59691e-05 0)
(6.12332e-05 -3.21306e-05 0)
(8.09935e-05 -1.87587e-05 0)
(9.37215e-05 -6.03971e-06 0)
(9.98361e-05 5.80074e-06 0)
(9.98754e-05 1.6489e-05 0)
(9.45163e-05 2.56934e-05 0)
(8.45947e-05 3.30143e-05 0)
(7.11274e-05 3.79765e-05 0)
(5.53315e-05 4.00316e-05 0)
(3.86095e-05 3.85826e-05 0)
(2.25366e-05 3.30473e-05 0)
(9.25328e-06 2.30134e-05 0)
(1.81802e-06 8.66171e-06 0)
(1.96318e-06 -1.40602e-05 0)
(9.70101e-06 -3.44962e-05 0)
(2.30144e-05 -4.73904e-05 0)
(3.83534e-05 -5.33309e-05 0)
(5.32753e-05 -5.31669e-05 0)
(6.60203e-05 -4.78186e-05 0)
(7.50456e-05 -3.81721e-05 0)
(7.90175e-05 -2.50292e-05 0)
(7.68211e-05 -9.08812e-06 0)
(6.75376e-05 9.05636e-06 0)
(5.04228e-05 2.89039e-05 0)
(2.48864e-05 5.00363e-05 0)
(-9.52681e-06 7.2105e-05 0)
(-5.31552e-05 9.48199e-05 0)
(-0.000106236 0.000117939 0)
(-0.000168918 0.00014126 0)
(-0.000241279 0.000164614 0)
(-0.000323328 0.00018786 0)
(-0.000415021 0.000210878 0)
(-0.000516268 0.000233568 0)
(-0.000626937 0.000255847 0)
(-0.000746863 0.000277642 0)
(-0.000875848 0.000298896 0)
(-0.00101367 0.000319556 0)
(-0.00116009 0.000339581 0)
(-0.00131485 0.000358937 0)
(-0.00147767 0.000377593 0)
(-0.00164825 0.000395525 0)
(-0.00182631 0.000412715 0)
(-0.00201152 0.000429145 0)
(-0.00220358 0.000444803 0)
(-0.00240215 0.000459679 0)
(-0.00260691 0.000473767 0)
(-0.00281753 0.000487061 0)
(-0.00303367 0.000499559 0)
(-0.003255 0.000511259 0)
(-0.00348117 0.000522161 0)
(-0.00371186 0.000532268 0)
(-0.00394671 0.000541581 0)
(-0.0041854 0.000550107 0)
(-0.00442758 0.000557848 0)
(-0.00467293 0.000564811 0)
(-0.0049211 0.000571003 0)
(-0.00517178 0.000576431 0)
(-0.00542463 0.000581102 0)
(-0.00567933 0.000585026 0)
(-0.00593556 0.000588211 0)
(-0.006193 0.000590667 0)
(-0.00645134 0.000592403 0)
(-0.00671027 0.00059343 0)
(-0.00696949 0.000593758 0)
(-0.00722869 0.000593399 0)
(-0.00748757 0.000592362 0)
(-0.00774586 0.000590659 0)
(-0.00800325 0.000588302 0)
(-0.00825947 0.000585302 0)
(-0.00851424 0.000581672 0)
(-0.00876729 0.000577423 0)
(-0.00901835 0.000572568 0)
(-0.00926716 0.000567118 0)
(-0.00951347 0.000561087 0)
(-0.00975701 0.000554486 0)
(-0.00999756 0.000547328 0)
(-0.0102349 0.000539626 0)
(-0.0104687 0.000531392 0)
(-0.0106988 0.00052264 0)
(-0.010925 0.000513383 0)
(-0.011147 0.000503632 0)
(-0.0113647 0.000493402 0)
(-0.0115778 0.000482704 0)
(-0.0117861 0.000471554 0)
(-0.0119895 0.000459962 0)
(-0.0121877 0.000447944 0)
(-0.0123806 0.000435511 0)
(-0.0125679 0.000422678 0)
(-0.0127496 0.000409458 0)
(-0.0129254 0.000395863 0)
(-0.0130952 0.000381908 0)
(-0.0132588 0.000367607 0)
(-0.0134161 0.000352972 0)
(-0.0135669 0.000338017 0)
(-0.0137111 0.000322756 0)
(-0.0138486 0.000307204 0)
(-0.0139793 0.000291373 0)
(-0.0141029 0.000275278 0)
(-0.0142195 0.000258932 0)
(-0.0143289 0.00024235 0)
(-0.014431 0.000225546 0)
(-0.0145257 0.000208535 0)
(-0.0146129 0.000191329 0)
(-0.0146926 0.000173945 0)
(-0.0147646 0.000156396 0)
(-0.0148289 0.000138696 0)
(-0.0148855 0.000120862 0)
(-0.0149343 0.000102907 0)
(-0.0149752 8.48464e-05 0)
(-0.0150081 6.66951e-05 0)
(-0.0150332 4.84682e-05 0)
(-0.0150502 3.0181e-05 0)
(-0.0150593 1.18487e-05 0)
(-0.0150603 -6.51321e-06 0)
(-0.0150534 -2.48893e-05 0)
(-0.0150384 -4.32639e-05 0)
(-0.0150153 -6.16213e-05 0)
(-0.0149843 -7.99457e-05 0)
(-0.0149453 -9.82211e-05 0)
(-0.0148983 -0.000116432 0)
(-0.0148434 -0.000134561 0)
(-0.0147806 -0.000152593 0)
(-0.0147099 -0.000170511 0)
(-0.0146315 -0.0001883 0)
(-0.0145453 -0.000205942 0)
(-0.0144515 -0.00022342 0)
(-0.0143501 -0.00024072 0)
(-0.0142412 -0.000257822 0)
(-0.0141248 -0.000274712 0)
(-0.0140012 -0.000291372 0)
(-0.0138703 -0.000307785 0)
(-0.0137323 -0.000323935 0)
(-0.0135874 -0.000339804 0)
(-0.0134356 -0.000355375 0)
(-0.013277 -0.000370632 0)
(-0.013112 -0.000385558 0)
(-0.0129404 -0.000400135 0)
(-0.0127626 -0.000414348 0)
(-0.0125787 -0.000428178 0)
(-0.0123889 -0.00044161 0)
(-0.0121932 -0.000454626 0)
(-0.0119921 -0.00046721 0)
(-0.0117855 -0.000479346 0)
(-0.0115737 -0.000491016 0)
(-0.011357 -0.000502204 0)
(-0.0111355 -0.000512895 0)
(-0.0109095 -0.000523072 0)
(-0.0106791 -0.00053272 0)
(-0.0104447 -0.000541822 0)
(-0.0102064 -0.000550364 0)
(-0.00996454 -0.000558329 0)
(-0.00971934 -0.000565704 0)
(-0.00947105 -0.000572473 0)
(-0.00921995 -0.000578621 0)
(-0.00896632 -0.000584136 0)
(-0.00871042 -0.000589002 0)
(-0.00845254 -0.000593207 0)
(-0.00819298 -0.000596738 0)
(-0.00793202 -0.000599581 0)
(-0.00766998 -0.000601725 0)
(-0.00740715 -0.000603157 0)
(-0.00714384 -0.000603868 0)
(-0.00688037 -0.000603844 0)
(-0.00661706 -0.000603078 0)
(-0.00635424 -0.000601558 0)
(-0.00609222 -0.000599276 0)
(-0.00583134 -0.000596223 0)
(-0.00557194 -0.000592392 0)
(-0.00531434 -0.000587775 0)
(-0.0050589 -0.000582367 0)
(-0.00480595 -0.000576162 0)
(-0.00455583 -0.000569155 0)
(-0.00430889 -0.000561343 0)
(-0.00406547 -0.000552723 0)
(-0.00382592 -0.000543293 0)
(-0.00359059 -0.000533054 0)
(-0.00335981 -0.000522006 0)
(-0.00313394 -0.000510152 0)
(-0.00291331 -0.000497494 0)
(-0.00269827 -0.000484039 0)
(-0.00248914 -0.000469793 0)
(-0.00228627 -0.000454767 0)
(-0.00208996 -0.000438969 0)
(-0.00190055 -0.000422416 0)
(-0.00171835 -0.000405122 0)
(-0.00154365 -0.000387108 0)
(-0.00137676 -0.000368395 0)
(-0.00121794 -0.000349012 0)
(-0.00106747 -0.000328988 0)
(-0.000925604 -0.000308361 0)
(-0.000792563 -0.000287173 0)
(-0.000668562 -0.000265472 0)
(-0.000553788 -0.000243316 0)
(-0.0004484 -0.000220771 0)
(-0.000352524 -0.000197914 0)
(-0.000266251 -0.000174836 0)
(-0.000189626 -0.000151642 0)
(-0.00012265 -0.000128457 0)
(-6.52617e-05 -0.000105427 0)
(-1.73391e-05 -8.27237e-05 0)
(2.13177e-05 -6.05521e-05 0)
(5.09949e-05 -3.91548e-05 0)
(7.20794e-05 -1.88209e-05 0)
(8.50734e-05 1.0512e-07 0)
(9.06111e-05 1.72128e-05 0)
(8.94761e-05 3.20147e-05 0)
(8.26198e-05 4.39361e-05 0)
(7.11815e-05 5.23091e-05 0)
(5.65066e-05 5.63764e-05 0)
(4.01348e-05 5.53164e-05 0)
(2.38024e-05 4.8301e-05 0)
(9.91408e-06 3.461e-05 0)
(1.97568e-06 1.38477e-05 0)
(1.91788e-06 -1.92128e-05 0)
(9.34364e-06 -4.56567e-05 0)
(2.18124e-05 -6.14215e-05 0)
(3.56026e-05 -6.77641e-05 0)
(4.81256e-05 -6.59361e-05 0)
(5.75098e-05 -5.71646e-05 0)
(6.21226e-05 -4.25954e-05 0)
(6.055e-05 -2.32598e-05 0)
(5.15996e-05 -6.32008e-08 0)
(3.42783e-05 2.62122e-05 0)
(7.77111e-06 5.48982e-05 0)
(-2.85774e-05 8.54277e-05 0)
(-7.52806e-05 0.000117321 0)
(-0.000132726 0.000150174 0)
(-0.000201192 0.000183644 0)
(-0.000280858 0.000217444 0)
(-0.000371823 0.000251329 0)
(-0.000474111 0.000285094 0)
(-0.000587681 0.000318564 0)
(-0.00071244 0.000351591 0)
(-0.000848246 0.000384049 0)
(-0.000994917 0.000415833 0)
(-0.00115223 0.000446853 0)
(-0.00131994 0.000477031 0)
(-0.00149778 0.000506304 0)
(-0.00168543 0.000534617 0)
(-0.00188259 0.000561924 0)
(-0.00208891 0.000588189 0)
(-0.00230406 0.000613379 0)
(-0.00252767 0.00063747 0)
(-0.00275938 0.00066044 0)
(-0.00299879 0.000682273 0)
(-0.00324554 0.000702958 0)