/*--------------------------------*- C++ -*----------------------------------*\
  =========                 |
  \\      /  F ield         | OpenFOAM: The Open Source CFD Toolbox
   \\    /   O peration     | Website:  https://openfoam.org
    \\  /    A nd           | Version:  7
     \\/     M anipulation  |
\*---------------------------------------------------------------------------*/
FoamFile
{
    version     2.0;
    format      ascii;
    class       volVectorField;
    location    "0.375";
    object      U;
}
// * * * * * * * * * * * * * * * * * * * * * * * * * * * * * * * * * * * * * //

dimensions      [0 1 -1 0 0 0 0];

internalField   nonuniform List<vector> 
12359
(
(0.981518 0.000160629 -5.36378e-17)
(0.971852 0.000647438 -1.31996e-16)
(0.999977 3.1617e-06 6.40618e-17)
(0.929968 -0.00114625 -4.18384e-17)
(0.976278 -0.00150149 -1.78348e-16)
(0.875283 -0.00081656 -4.69294e-17)
(0.850541 0.00779353 -7.7353e-17)
(0.858323 0.000870058 4.33187e-19)
(0.771829 0.00667594 5.27696e-17)
(0.886546 -0.00426987 -1.02388e-16)
(0.817237 0.0010804 1.10642e-16)
(0.722138 0.0249727 -2.03194e-16)
(0.211738 0.0540282 -1.52852e-16)
(0.921425 0.0018375 -4.30846e-17)
(0.937076 -0.00113003 3.00854e-17)
(0.546898 0.00418773 3.35805e-16)
(0.43044 0.0142365 2.21116e-16)
(0.994638 -9.47753e-05 2.4231e-17)
(0.99514 0.000121086 1.06957e-17)
(0.955037 -0.000485771 -4.05936e-17)
(0.913133 0.00236284 -3.53144e-17)
(0.741946 0.0237316 1.41261e-16)
(0.962083 -0.00174873 -5.22741e-17)
(0.951827 -0.00256064 9.23062e-18)
(0.966428 -0.000318294 -8.73639e-17)
(0.957011 -0.000409191 9.93342e-18)
(0.998245 -0.00013556 5.25074e-19)
(0.998448 -6.04411e-05 2.57692e-18)
(0.995835 4.26642e-06 -1.04372e-17)
(0.997705 -6.46362e-05 -4.89907e-18)
(0.997227 -0.000103938 5.99398e-18)
(0.999097 8.88097e-05 -1.60728e-17)
(0.999656 -8.8368e-07 -4.95727e-17)
(0.997962 5.40387e-05 -2.14116e-18)
(0.999933 -9.55416e-07 -1.13157e-16)
(0.997039 2.28683e-05 -7.29751e-18)
(0.988864 -0.00027323 1.23307e-16)
(0.983547 -0.000251489 1.24791e-16)
(0.980331 0.000337539 3.69456e-18)
(0.986197 -4.01885e-05 1.57712e-16)
(0.973989 0.000272335 6.1444e-17)
(0.985811 0.000178119 -2.87126e-17)
(0.991743 -0.000259818 -2.55497e-17)
(0.992424 0.000107085 -2.74339e-16)
(0.996481 -4.57634e-05 -3.8572e-17)
(0.996193 -3.47152e-05 -5.86935e-17)
(0.996767 -0.000237866 -1.92678e-17)
(0.997435 0.000100611 -4.42919e-18)
(0.995521 0.000104672 6.17208e-17)
(0.998186 -2.03351e-05 -1.67668e-18)
(0.99868 -4.30507e-05 1.4842e-18)
(0.998761 -3.60696e-05 -1.67954e-17)
(0.999287 3.15204e-05 -2.10119e-17)
(0.993964 -0.000210841 1.03268e-16)
(0.999297 7.47443e-05 -2.83476e-17)
(0.999633 3.47105e-05 -5.98749e-17)
(0.993321 0.000113007 -7.97934e-17)
(0.999732 -5.20804e-05 4.20289e-17)
(0.999847 -1.8796e-05 1.34295e-17)
(0.999927 4.61319e-05 6.48679e-17)
(0.999573 6.14341e-06 -5.20671e-18)
(0.999943 3.42488e-05 -7.49038e-17)
(0.99878 -2.97395e-05 -4.98716e-18)
(0.204216 0.125624 -6.43269e-16)
(0.993562 -4.12964e-05 -1.85956e-17)
(0.899608 -0.00168548 -7.47853e-17)
(0.989717 0.000113011 -2.46175e-16)
(0.998929 -7.61688e-05 -2.27552e-17)
(0.988079 0.000117682 4.03607e-16)
(0.620241 0.0285956 1.99322e-16)
(-0.064555 -0.112076 1.36454e-15)
(0.9743 -0.00222159 -2.88391e-17)
(0.999958 -1.71605e-05 1.49441e-16)
(0.987051 -0.000237997 2.57449e-16)
(0.941578 -0.00298542 -3.13997e-17)
(0.999914 -4.73888e-05 -3.79484e-17)
(0.999238 -6.04932e-06 8.74633e-18)
(0.999943 -2.87313e-05 -6.77222e-17)
(0.989842 -0.000381868 -6.86317e-18)
(0.606021 0.00425131 -4.18313e-17)
(0.925878 0.0630795 -3.26853e-17)
(1.0034 0.0022276 1.2689e-17)
(1.00001 -2.13163e-05 1.7057e-18)
(0.998443 0.0121479 -2.99338e-17)
(1.10308 0.133889 3.31337e-18)
(1.02091 0.000760477 4.58801e-18)
(1.00356 0.00261468 4.22604e-18)
(1.00134 0.000122096 1.25949e-18)
(1.1155 0.0473821 -4.33167e-18)
(1.0961 0.146423 6.58633e-18)
(1 0.000127159 2.396e-18)
(0.338245 0.223227 -4.2017e-16)
(0.999993 2.87352e-05 -2.73547e-17)
(0.999698 0.005966 -1.40514e-17)
(0.999374 0.0104225 1.31038e-17)
(1.03432 0.000147419 -2.71529e-18)
(1.00026 0.00519688 1.54784e-17)
(0.999603 0.00625516 4.24852e-18)
(0.991754 0.0279956 -1.74291e-17)
(0.994347 0.0184592 3.92045e-17)
(0.937934 0.079752 6.00622e-17)
(1 1.66722e-05 -2.03434e-17)
(1.02025 0.00135257 -1.117e-18)
(1.20832 0.0588084 -1.58234e-17)
(1.00415 0.000609069 -6.96183e-18)
(1.03234 0.0204024 -6.45822e-18)
(1.00031 -4.2305e-05 7.91536e-18)
(1.10386 0.135959 3.14331e-18)
(1.02153 0.00207437 -7.12485e-18)
(1.03144 0.0186753 -1.28042e-17)
(1.00007 0.00459411 -2.13387e-18)
(1.00322 0.00257876 9.70312e-18)
(0.938332 0.0496641 7.07354e-17)
(0.953175 0.0691054 -9.21903e-18)
(0.999145 0.00982638 -2.31963e-17)
(1.00304 -4.93131e-05 -1.36712e-18)
(0.960863 0.0746518 -1.07828e-16)
(1.0044 0.00205463 6.05496e-19)
(1.1145 0.0305341 -3.11567e-18)
(1 1.29673e-05 -4.97702e-20)
(1.00001 0.0048985 1.86494e-17)
(0.87554 0.0257286 -1.32124e-16)
(1.00153 0.000103862 -5.19182e-18)
(1.03586 0.00437018 6.9337e-20)
(1.00487 0.00209475 -7.35635e-18)
(1.00313 0.000613012 -3.19477e-18)
(1.00845 0.0916715 -4.6172e-17)
(0.998393 0.0116718 -3.28168e-18)
(0.999991 -4.35742e-06 1.16709e-16)
(1.00442 0.00264793 2.6446e-17)
(1.00285 -8.64283e-05 1.28522e-17)
(1.05304 0.0143314 -2.60118e-18)
(1.05463 0.0155873 -4.43528e-18)
(1.05401 0.0131056 -7.09595e-18)
(1.00026 5.07571e-05 4.90119e-19)
(1.0358 0.00595883 9.07082e-18)
(1.0029 0.000479285 -1.91176e-17)
(1.03576 0.00492881 1.26256e-18)
(1.00001 7.3336e-05 -5.34197e-17)
(1.00844 0.0886155 -4.54798e-17)
(1 3.10781e-05 -7.0432e-18)
(0.982592 0.00242722 1.17827e-17)
(1.02975 0.012089 -1.05353e-18)
(1.00033 2.31138e-05 -4.27794e-18)
(1.0397 0.0348182 -5.09129e-18)
(0.900471 0.0264336 -9.38732e-17)
(1.00002 9.07377e-06 -4.09852e-18)
(1.09417 0.107578 -4.56027e-18)
(1.00475 0.00100109 4.68265e-18)
(0.923127 0.0699419 7.58175e-17)
(1.037 -4.25806e-06 2.18048e-19)
(0.999983 4.71932e-05 2.56178e-17)
(1.03072 0.0118576 -6.09869e-18)
(1.00154 1.48506e-05 -9.23108e-18)
(1 -9.43549e-06 2.01118e-18)
(0.576253 1.3114 -1.73267e-16)
(0.943398 0.083081 -1.70843e-18)
(1.0507 0.0164175 3.23116e-18)
(0.999977 0.00510918 -7.19709e-18)
(0.998987 0.000533386 -1.27229e-17)
(1.00489 0.0417188 -3.17555e-18)
(0.998985 0.000588862 -3.51951e-17)
(1.03671 0.00426622 2.80924e-18)
(1.03144 0.0090346 -3.78978e-18)
(1.00005 2.171e-05 -3.66514e-19)
(1.00315 0.000263219 4.92172e-18)
(1.00101 0.0434461 3.91452e-18)
(0.869249 0.0143221 1.91798e-16)
(1.03028 0.00998572 -5.51836e-18)
(1.11737 0.0473928 6.71845e-18)
(0.999983 5.29904e-06 2.75003e-16)
(0.999974 4.52614e-05 4.55222e-17)
(1.03177 0.00809856 6.17975e-18)
(0.971979 0.00321886 6.83436e-16)
(1.00451 0.000977852 -5.20532e-18)
(1.00692 0.0850477 7.40403e-17)
(0.9964 0.0005822 -8.50646e-17)
(0.996493 0.000707587 7.70758e-17)
(0.934723 0.047863 2.19625e-18)
(1.00974 0.0849467 1.40435e-17)
(0.934886 0.00620241 7.09629e-18)
(1.00001 4.04459e-05 1.43639e-17)
(0.999972 5.68517e-06 -2.78392e-17)
(1.00383 0.00250308 1.00078e-17)
(0.992194 0.0267624 -2.0997e-18)
(0.817591 0.10465 1.35206e-16)
(1.00432 0.00565724 -1.25774e-17)
(1.00028 0.00993834 1.17797e-17)
(1.0373 -0.000108946 2.32329e-19)
(1.00445 0.00521475 -3.14504e-17)
(0.999559 0.00996755 -8.88124e-18)
(1.03425 0.00110278 -3.05073e-18)
(1.03196 0.00125982 -3.31302e-18)
(1.00156 0.00021573 4.3303e-18)
(1.03353 0.0178163 2.31472e-18)
(1.19045 0.014783 8.41655e-18)
(1.01478 0.0119615 -2.78873e-18)
(1.00352 0.00556209 6.32336e-18)
(1.0299 0.0128841 4.01063e-18)
(1.00411 0.00239421 4.443e-18)
(0.89539 0.029989 2.64735e-16)
(1.03601 0.000676151 -1.59999e-19)
(0.993152 0.017878 -8.59125e-18)
(1.0332 0.0180245 -5.16614e-18)
(1.03565 0.0340825 -1.73519e-17)
(1.00001 4.03345e-05 7.79439e-18)
(1.03652 0.0343817 -2.84463e-18)
(0.992867 0.0176792 -2.1428e-17)
(1.03919 0.0052993 -2.35031e-19)
(1.00517 0.00323301 8.89945e-18)
(1 3.69558e-05 3.44061e-18)
(1.04575 0.00919703 -2.24453e-18)
(1.04554 0.0103769 -3.30321e-19)
(1.12203 0.094021 -3.63001e-18)
(0.839471 0.0976012 -4.54167e-16)
(0.999977 4.46235e-05 1.4314e-17)
(1.00385 0.0053353 -2.10939e-17)
(0.999243 0.0103723 -8.59319e-18)
(1.00413 0.00530446 -5.62559e-18)
(0.98325 0.00130981 1.65299e-16)
(0.943376 0.065499 5.97626e-17)
(1.00508 0.00341561 -5.29849e-18)
(1.03507 0.00513938 1.69782e-20)
(0.355411 0.27505 2.47961e-16)
(1.0044 0.00223552 -1.39068e-17)
(1.00001 4.3817e-05 -7.16179e-18)
(0.981742 0.00214172 -4.41498e-16)
(1.01688 -0.00119776 -1.66973e-18)
(1.00258 0.0854375 -5.69016e-17)
(1.00307 0.00635165 1.34703e-18)
(1.00276 0.00631957 -9.62144e-18)
(1.00003 2.44847e-06 -3.54762e-19)
(1.03857 0.0360654 -3.95383e-18)
(0.993124 0.0225553 -3.07792e-17)
(1.0008 0.00981342 1.21922e-18)
(0.994209 0.0191553 3.55431e-17)
(1.00001 2.85436e-05 -2.73333e-19)
(1.03195 0.0135533 -2.43112e-18)
(1.00081 0.0102618 -8.76173e-18)
(0.683243 0.270097 -7.29263e-17)
(1.00011 7.26527e-05 -2.29113e-18)
(1.02131 -0.000235673 1.01979e-18)
(1.00015 0.00735448 -9.81087e-18)
(0.987304 0.158198 6.07936e-18)
(1.00513 0.0454586 6.75232e-18)
(1.09413 0.109926 4.66438e-19)
(0.999876 8.89701e-05 -1.93349e-17)
(1.03681 0.00437443 -2.6841e-18)
(1.00427 0.000395679 1.86755e-18)
(1.03238 -0.00104049 1.27955e-18)
(1.04145 0.00880152 -1.72865e-18)
(0.986262 0.000343925 -2.75383e-17)
(0.996895 0.000624959 -5.49994e-18)
(1.00239 0.00631188 -1.24503e-18)
(0.550552 0.472772 -7.61177e-17)
(1.25388 0.136785 4.05796e-17)
(0.999991 2.50951e-05 7.98681e-19)
(1.00555 0.00259877 -1.27034e-17)
(0.411515 0.373281 9.02945e-18)
(0.863079 -0.00967725 -8.41455e-17)
(0.994021 0.0185243 1.36915e-18)
(1.00235 0.0468113 -1.1261e-17)
(1.00262 0.0784767 1.8595e-17)
(1.03273 0.0160152 -7.00993e-18)
(0.97462 0.00169574 3.13583e-16)
(1.36468 0.326866 -4.34412e-17)
(1.10792 0.0318632 2.32513e-17)
(1.00615 0.0456614 -5.65861e-18)
(1.00495 0.00249658 -1.63818e-17)
(1.03411 0.00575853 -1.65969e-18)
(1.0313 0.00808762 -1.67079e-18)
(0.988469 0.025275 -1.36519e-18)
(1.03074 0.0104173 -3.59645e-18)
(1.00237 0.00644481 2.73852e-18)
(1.00561 0.00319786 -2.47377e-18)
(1.00009 5.16927e-05 -1.54152e-18)
(1.00505 0.00293948 2.35788e-18)
(1.17119 0.0757534 4.08705e-18)
(1.00698 0.0508654 8.27003e-18)
(1.00047 0.000150365 -1.77716e-18)
(1 4.04938e-05 5.72095e-18)
(1.03466 0.0164617 -9.96756e-18)
(1.00774 0.00113571 -1.59721e-17)
(0.991389 0.000779644 -5.5032e-16)
(1.02151 -0.000308143 1.43398e-18)
(1.00001 1.42127e-05 4.38205e-18)
(1.00048 0.0759189 -1.49096e-17)
(1 1.41998e-05 2.63331e-17)
(0.999995 9.10666e-06 1.55351e-17)
(0.999236 0.000100668 -4.08362e-17)
(1.03595 0.00427099 5.48532e-19)
(1.00392 0.00224745 8.88863e-18)
(1.4146 0.437053 -4.63728e-17)
(1.00027 3.56645e-05 -1.25432e-17)
(1.00036 4.80071e-05 9.13241e-18)
(1.02046 0.00169861 -1.88152e-18)
(1.00382 0.000710782 3.54404e-18)
(0.953311 0.0653743 -4.07514e-17)
(1.00023 0.00921637 2.10031e-17)
(0.998743 0.000196068 2.25009e-16)
(0.999987 2.8525e-05 2.86302e-17)
(1.16049 0.063053 -1.33448e-17)
(1.00574 0.0718648 -9.61157e-18)
(0.999997 2.54954e-05 -1.12287e-17)
(1.00369 0.00575926 1.18689e-17)
(0.999818 0.00818089 2.05557e-17)
(1.00385 0.000720306 1.63849e-17)
(1.00279 -0.000629773 -1.2099e-18)
(1.00315 7.70857e-06 -1.72144e-18)
(1.00381 0.000903147 7.24262e-18)
(0.995626 0.00107102 -8.55745e-18)
(0.84124 0.0599738 3.96785e-16)
(1.00474 0.0019827 -1.04064e-17)
(0.997523 0.000176354 5.28154e-17)
(0.98608 0.00108296 2.44626e-16)
(1.02474 0.0253006 4.80194e-18)
(1.09509 0.0311661 -6.01617e-18)
(1.00449 -0.000110804 -5.23516e-18)
(0.99153 0.023583 -1.4737e-17)
(0.594048 0.106197 3.40649e-16)
(0.999989 2.11648e-05 3.6827e-17)
(1.02585 0.0112894 1.95472e-18)
(1.00052 3.90158e-05 1.93669e-19)
(1.0143 0.0122643 -6.08068e-18)
(1.00034 0.000105488 1.56084e-19)
(1.00432 0.000163317 8.72725e-18)
(0.818871 0.0406265 -9.05484e-17)
(1.02676 0.0127764 -1.63681e-18)
(0.83016 0.0983754 -2.17942e-16)
(0.992001 0.000212739 -5.56792e-16)
(1.00053 0.00772122 -1.99531e-17)
(1.03271 0.00184845 -1.65825e-19)
(1.03265 -0.00020718 -4.1085e-19)
(1.00048 0.00745799 -6.38443e-18)
(1.03241 0.00110181 -6.63752e-19)
(1.03244 0.00168273 -3.22405e-18)
(1.00074 0.00015871 -4.11354e-18)
(0.999372 0.000551499 5.21061e-17)
(0.999352 0.000535643 3.89681e-17)
(0.999316 0.000518523 -6.31356e-18)
(0.999311 0.000462335 -1.48408e-17)
(0.691876 0.276328 -2.5568e-16)
(1.00001 5.09349e-05 4.7724e-18)
(0.948279 0.0704096 1.38726e-18)
(1.03808 0.00217591 -4.85576e-19)
(0.992973 0.0241758 -8.21502e-18)
(1.03138 0.0102512 8.06493e-18)
(1.02761 0.0138819 1.85214e-18)
(1.02019 0.00139102 -6.97973e-18)
(1.01316 0.0112942 1.92484e-18)
(1.02864 0.0127604 -4.67347e-18)
(1.01314 0.0117286 1.13608e-17)
(0.990951 0.0263581 -3.00431e-17)
(1.02749 0.026794 -5.86974e-18)
(1.02538 0.0301916 8.00557e-19)
(0.954289 0.055033 1.17158e-16)
(0.982551 0.00189351 -2.08536e-16)
(1.03564 0.0763696 6.21272e-18)
(0.983669 0.00150889 4.37111e-16)
(0.983872 0.00157624 3.00062e-17)
(1.02922 0.0148679 6.29264e-18)
(0.938972 0.0927217 -1.03192e-17)
(1.00294 0.00258016 -1.01645e-17)
(0.999367 2.93485e-05 -1.0935e-16)
(1.01575 0.0105679 2.59527e-18)
(0.999447 0.000125483 -1.59449e-16)
(1.00315 0.00295025 -8.13738e-18)
(0.859185 0.00190621 2.10848e-16)
(0.244312 0.253433 -2.06332e-16)
(1.00315 0.00272741 -1.09403e-17)
(0.999981 1.23511e-05 2.39644e-17)
(1.00027 9.17634e-05 -3.88136e-18)
(0.999984 3.75895e-05 1.7996e-18)
(1.02822 0.0117405 4.87531e-18)
(1.00001 2.60717e-05 -6.60412e-18)
(0.999991 9.46038e-06 -1.34682e-17)
(1.1229 0.0472116 -6.64735e-18)
(1.0316 0.0103494 1.29175e-18)
(1.0907 0.17112 -1.07899e-17)
(1.00148 0.00300813 -2.73804e-18)
(1.03389 0.0108763 7.65581e-18)
(1.00806 0.000921708 7.90808e-18)
(0.999803 0.00816583 -2.48927e-18)
(1.03013 0.026161 1.31658e-17)
(1.01617 0.0103735 -5.73634e-18)
(0.939296 0.00281509 6.35559e-17)
(1.01572 0.0094106 -6.42957e-18)
(1.00279 0.00239635 -2.84273e-19)
(1.00053 0.000131874 5.16165e-18)
(1.0316 0.00882585 8.13284e-19)
(1.03524 0.0103625 -1.38197e-18)
(1.00548 0.00130701 2.75866e-18)
(0.726807 0.0324799 -6.33214e-16)
(1.03227 0.0248623 3.92397e-18)
(1.03472 7.67918e-06 -1.18994e-18)
(0.998641 0.0338565 -8.18197e-18)
(1.00125 0.0420574 -2.94705e-17)
(0.999991 8.80635e-05 2.24957e-17)
(0.386726 0.507322 5.41781e-16)
(1.0368 0.079977 -5.46003e-18)
(1.00122 0.0033889 -6.44832e-18)
(0.979703 0.177144 1.47755e-17)
(0.985039 0.000956905 -5.38545e-17)
(0.99998 7.29701e-05 7.3472e-18)
(1.00001 3.59521e-05 1.13652e-18)
(0.999982 6.01653e-05 -4.36722e-18)
(1.09995 0.166895 -1.72057e-17)
(0.949967 0.0971409 -6.33364e-17)
(0.989323 0.0276457 -1.85226e-17)
(1.02685 0.00894662 -8.1804e-18)
(1.0338 -0.00511333 -5.69619e-20)
(0.999711 0.0114726 -7.66797e-18)
(0.929829 0.00820022 -1.19777e-16)
(0.999583 0.0330405 -4.16456e-17)
(1.04761 0.0111598 -1.5749e-18)
(1.10043 0.0327041 1.04886e-17)
(0.707509 0.0456232 -5.54762e-16)
(0.994713 0.0234503 -9.35416e-18)
(0.960292 0.0476534 2.74585e-17)
(1.01804 0.00136996 -1.10745e-18)
(1.02573 0.0323446 4.73413e-18)
(1.01158 0.0103847 1.71339e-17)
(1.01646 0.0115097 4.90224e-18)
(0.99798 0.000207856 -5.76592e-17)
(1.01218 0.0106181 3.34522e-18)
(1.02884 0.0107388 -9.24684e-19)
(0.999996 2.79857e-05 -2.80296e-18)
(1.04436 -0.012168 -8.5809e-17)
(0.990588 0.000830694 -1.66593e-16)
(1.05944 0.0114136 -2.91224e-18)
(1.03453 0.0091766 3.66686e-18)
(0.993902 0.000996824 2.24642e-16)
(0.95529 0.0531893 6.28938e-17)
(1.18397 0.266989 -1.4712e-17)
(1.02864 0.0139036 -8.1248e-18)
(1.00834 0.0152761 -1.54118e-17)
(1.03713 0.00100143 3.13678e-19)
(1.0346 0.00765791 3.02945e-18)
(1.02862 0.0304648 -2.14586e-17)
(1.00427 0.00264825 6.02917e-18)
(1 7.24826e-06 1.06413e-17)
(0.997728 0.068935 3.6211e-17)
(1.00034 8.27488e-05 7.43474e-19)
(1.05089 0.014615 -6.08271e-19)
(1.00265 9.79097e-06 6.41866e-18)
(0.967555 0.00243979 2.72571e-16)
(0.964355 0.039112 -2.86171e-17)
(1.0105 0.000383462 3.21812e-18)
(1.10264 0.106554 2.84126e-18)
(0.939947 0.0719729 -3.36135e-17)
(0.99512 0.0161788 -5.68064e-18)
(1.0011 0.00371493 5.03678e-18)
(0.562828 0.0751124 -3.331e-16)
(1.00064 7.07716e-07 -5.76354e-19)
(1.00118 0.00273874 4.15666e-19)
(1.0432 0.0382811 2.9228e-18)
(0.999982 4.58957e-05 1.07169e-17)
(1.00116 0.00378746 -5.3597e-18)
(1.00148 0.00243991 3.19299e-18)
(0.757561 0.212459 -8.7905e-17)
(0.690606 0.470727 -4.49557e-18)
(0.998851 0.0117889 2.29834e-17)
(1.00149 -0.00033372 -6.73756e-18)
(0.942879 0.0349432 -1.66581e-16)
(1.00066 0.0410832 -3.56521e-17)
(1.02682 0.0103336 -5.40188e-18)
(1.02969 0.0133981 -5.9449e-18)
(1.03101 0.00930384 -4.37099e-18)
(1.00073 -7.87098e-05 -6.48386e-18)
(0.999989 3.37897e-05 9.12885e-18)
(1.00085 0.0353537 3.55612e-18)
(0.999993 5.63804e-06 -9.59636e-19)
(0.963882 0.0414799 6.17473e-17)
(1.0263 0.0104716 8.75349e-19)
(1.02544 0.0335946 1.00984e-17)
(0.996712 0.000529346 -3.23297e-17)
(0.997495 0.0650878 1.6323e-17)
(1.04527 0.0365927 5.13404e-18)
(0.997879 7.26503e-05 -7.62371e-17)
(1.00177 0.0115465 -7.98006e-19)
(1.0059 0.0014758 2.70353e-17)
(0.927802 0.0451847 3.96707e-17)
(1.04294 0.037523 6.27934e-18)
(0.999995 4.2494e-05 -5.06235e-17)
(1.00161 0.0372092 -3.60907e-17)
(1.03121 0.00710878 6.41604e-19)
(1.01649 0.000144433 -5.00969e-18)
(1.00086 0.0375161 -4.28794e-17)
(1.00273 -0.000155107 6.46091e-18)
(0.935735 0.0933405 -2.56835e-17)
(1.02612 -0.00112861 -9.31375e-18)
(1.03514 0.0073437 5.00904e-18)
(1.02645 0.0307513 3.46983e-18)
(1.00086 -5.21379e-05 -6.81984e-18)
(1.00128 0.0114898 -5.10416e-18)
(1.05402 0.0567439 6.79422e-18)
(1.05588 0.0133941 -6.05018e-18)
(1 2.70433e-05 6.99742e-19)
(1.01104 0.0154568 -1.51764e-17)
(0.988761 0.176127 3.76298e-17)
(1.03619 0.0023652 1.57627e-19)
(0.51057 0.464496 2.36932e-17)
(1 4.06584e-05 2.51569e-18)
(1.0024 0.000307934 4.99253e-18)
(1.00072 0.000132198 -5.49482e-18)
(1.03076 0.0136409 3.64329e-18)
(0.995529 0.0181378 -1.20117e-18)
(0.996187 0.0130723 9.74251e-18)
(1.00328 0.000205902 3.2214e-18)
(1.00099 0.035916 -1.64326e-17)
(1.01709 0.0116573 -5.73721e-19)
(0.974526 0.00331885 4.82568e-17)
(1.00876 0.00187436 2.52499e-18)
(1.08368 0.0802746 7.5833e-18)
(1.0004 4.42129e-05 -5.75067e-18)
(1.08875 0.0959137 3.63415e-18)
(1.0014 0.000177933 -9.43692e-18)
(0.619807 0.644351 -2.53464e-16)
(1.02633 0.000622237 2.43e-18)
(1.05137 0.0593717 -4.84253e-18)
(0.999734 7.20291e-05 2.24689e-16)
(0.99686 0.000621469 -5.35295e-18)
(1.02575 0.0260032 2.66308e-18)
(1.00365 0.00209891 1.55275e-17)
(0.998813 0.00024065 -1.55828e-16)
(0.9922 0.000376653 3.89188e-16)
(0.994035 0.0213612 -1.02692e-17)
(0.99457 0.0196971 4.74116e-18)
(0.972985 0.157111 9.89902e-18)
(1.03324 0.028055 -8.04559e-18)
(1.03283 0.0297977 -8.3677e-19)
(1.00001 1.18048e-05 2.14588e-18)
(1.00405 0.00198893 -1.47355e-17)
(1.02688 0.0115451 1.7306e-18)
(1.05456 0.0130792 2.3762e-18)
(1 6.58605e-07 1.09205e-17)
(1.00046 0.000100992 -1.80629e-18)
(1.03189 0.00742927 -2.92165e-18)
(1.00074 0.000142832 3.58762e-18)
(0.815065 0.0483853 -6.42735e-16)
(1.19632 0.26126 -1.14259e-17)
(1.12013 -0.0489427 -1.40629e-17)
(1.00001 5.85074e-06 -7.28019e-18)
(1.00631 0.00905243 -5.11569e-18)
(1.04094 0.00834533 -1.65898e-18)
(0.996291 0.014028 1.58856e-17)
(1.00401 0.00102764 -5.93418e-18)
(0.307232 0.601911 9.12614e-17)
(1.00042 6.59757e-05 5.94175e-19)
(0.936079 0.0731081 -1.89369e-17)
(0.962691 0.0464887 1.15493e-16)
(1.00682 0.0087159 -6.75222e-18)
(1.00392 0.000933316 -3.66234e-18)
(0.99866 0.000227718 -3.44966e-16)
(1.00967 0.000583979 -3.08936e-18)
(1.03808 0.00227172 1.31564e-19)
(1.01672 0.00831294 -4.88708e-18)
(0.997329 0.0117201 2.67375e-17)
(0.999993 -3.13705e-06 -4.35485e-19)
(0.999999 3.85381e-05 -1.73745e-16)
(0.995333 0.0166252 -7.73076e-18)
(0.996399 0.00121631 -3.15666e-17)
(0.995472 0.0585437 3.88461e-18)
(1.0312 0.0128721 -1.29815e-18)
(0.999057 1.17612e-05 -1.81188e-17)
(1.00045 0.000150983 -1.22619e-18)
(1.02671 0.026974 -2.78268e-18)
(1.02252 -0.018424 -4.68956e-17)
(0.997921 0.000280088 3.06464e-17)
(1.04737 0.010078 -1.52103e-18)
(1.00024 2.91642e-06 -2.67214e-18)
(0.996507 0.0105316 -2.46013e-17)
(0.951684 0.081341 7.11699e-17)
(1.03511 0.00138453 1.40304e-19)
(1.04087 0.00699863 -4.98221e-18)
(0.948873 0.0572758 -1.94413e-17)
(1.00255 0.0181533 -1.7024e-17)
(1.03849 0.00266904 -3.98014e-19)
(1.00001 5.32315e-05 4.9545e-18)
(0.999931 3.4783e-05 2.46096e-16)
(1.03068 0.0023643 7.36785e-19)
(1.01061 0.00955962 -3.86414e-18)
(1.00343 0.0185822 -4.03292e-18)
(1.01141 0.00964135 -9.22781e-18)
(0.999995 3.83707e-05 1.66068e-17)
(1.00051 0.000191519 -6.04414e-19)
(1.00372 0.00047685 -6.33637e-18)
(1.00016 0.0291889 1.74222e-17)
(1.03822 0.0048754 -3.72723e-18)
(0.942131 0.0374249 1.92729e-17)
(0.990211 0.00103484 3.73355e-16)
(0.929698 0.037533 -1.08888e-16)
(1.02921 0.013396 -3.7949e-19)
(1.00874 0.0167879 4.05363e-17)
(0.933966 0.0430154 1.05081e-16)
(0.985185 0.020878 -3.8608e-17)
(1.0572 0.00924147 -1.2167e-18)
(1.03179 0.0119926 5.84354e-18)
(0.986731 0.0211552 1.24074e-17)
(0.994963 0.055204 1.52805e-17)
(0.999914 0.000108123 -6.57209e-17)
(1.01033 0.0629743 -1.16695e-17)
(1.02596 0.0249978 1.43219e-17)
(1.00001 -1.29205e-05 5.73885e-18)
(1 1.09915e-05 7.39488e-17)
(1.0007 4.96109e-05 -8.00774e-18)
(0.999639 0.000441335 -1.26788e-17)
(1.06472 0.0638891 1.0576e-17)
(1.01082 0.0160278 1.17662e-18)
(1.0138 -0.00125723 -7.37911e-18)
(0.946763 0.0424567 -1.25006e-16)
(0.992542 0.000243815 4.89559e-16)
(0.79884 0.0212069 3.52948e-16)
(1.03391 0.00151394 -2.94542e-19)
(1.03711 0.0024498 2.24655e-20)
(1.00378 0.000160616 1.63587e-17)
(1.05025 0.0372128 1.21978e-17)
(0.999996 6.54316e-05 -2.39856e-17)
(0.998444 0.0291349 -2.08931e-17)
(1.00043 0.00342976 1.13965e-17)
(0.936421 0.109402 -2.45164e-17)
(0.934076 0.047357 1.02494e-16)
(1.00219 0.015941 1.63246e-17)
(1.01661 0.0108893 -7.505e-20)
(0.422988 0.678419 1.90852e-16)
(1.0299 0.0114862 1.89798e-18)
(1.04293 0.0574432 -1.63319e-18)
(1.0094 0.0113535 2.31663e-18)
(0.977115 0.144002 -3.46079e-17)
(1.17543 0.197962 2.25042e-18)
(1.00097 -0.000219937 6.02644e-18)
(0.998313 0.00325152 1.91871e-17)
(1 1.30163e-05 -6.25707e-18)
(1.05863 0.0608018 6.32236e-18)
(0.998485 0.00304806 -1.88199e-17)
(1.01601 0.00880382 1.04362e-18)
(1.10299 0.101407 2.17374e-18)
(1.00048 0.000103814 1.83046e-18)
(0.969216 0.00276089 1.69729e-16)
(0.992731 0.0496041 6.86677e-18)
(1.00671 0.0146182 1.93842e-17)
(0.997494 0.000192989 -9.38354e-17)
(1.00204 0.0166734 2.04674e-17)
(0.999167 0.000779693 -2.925e-18)
(0.995164 0.0158424 2.08756e-17)
(0.999148 0.000652429 6.70479e-19)
(0.999203 0.00086805 6.93147e-18)
(0.995639 0.0130584 1.24593e-17)
(1.03498 0.0056168 -1.29808e-19)
(1.03297 0.00740316 -8.58157e-18)
(1.00702 0.0161281 4.08126e-18)
(0.657559 0.0214279 -1.39979e-16)
(1.03683 0.000347022 3.7477e-19)
(0.268702 0.318626 -3.43365e-16)
(1.02799 0.0122238 -1.84027e-18)
(1.02111 0.000367553 -4.54874e-19)
(0.995183 0.0144511 -1.38975e-17)
(1.02697 0.0132772 3.59417e-19)
(0.992848 0.0256033 1.20624e-17)
(1.03512 0.0023835 -1.95256e-18)
(0.564824 0.381534 -3.77273e-16)
(0.952869 0.0361402 5.43449e-17)
(0.993894 0.0243102 -1.14502e-17)
(1.00472 0.0219721 3.59608e-18)
(0.99497 0.0012968 2.90586e-16)
(0.996273 0.000782263 -3.10376e-17)
(1.02647 0.0280526 -1.08654e-17)
(0.999993 1.61501e-05 8.15375e-18)
(1.05976 0.0053869 5.66027e-18)
(0.999285 5.76384e-05 -1.01257e-16)
(0.949501 0.039387 -1.17828e-18)
(1.00174 0.0703379 -9.86484e-18)
(1.06215 0.0569741 5.78041e-18)
(1.03831 0.023994 -9.29456e-18)
(1.03315 0.0126756 4.04921e-19)
(0.992695 0.0486765 -8.0917e-18)
(1.00893 0.0127847 1.78899e-18)
(1.03876 0.0239845 3.16291e-18)
(0.97152 0.0287192 -8.2299e-18)
(1.04238 0.0585692 -3.67525e-19)
(1.00822 0.0211869 2.11226e-17)
(1.04456 0.0368898 -3.7119e-18)
(1.00568 0.0221398 -1.40257e-17)
(1.00001 3.03245e-05 -1.35572e-18)
(0.999305 0.0244282 6.55283e-18)
(0.7109 0.0473089 1.82907e-16)
(0.97332 0.134467 7.56931e-18)
(1.00646 0.00520628 -8.9569e-18)
(1.00004 3.01328e-05 -1.62672e-18)
(0.999048 0.000211051 4.74479e-17)
(0.994791 0.00718996 3.47137e-18)
(0.966681 0.00304546 -3.08356e-16)
(1.03263 0.00621244 -2.86286e-19)
(1.02561 5.24458e-05 7.40532e-18)
(1.0008 4.46156e-05 8.03051e-18)
(1.00479 0.0065869 -2.16071e-18)
(0.993695 0.0260947 -1.22447e-17)
(1.00614 0.00503868 -6.70634e-18)
(1.00861 0.000700153 2.79733e-18)
(1.04533 0.032336 -2.14199e-18)
(0.993798 0.0011379 -1.90002e-16)
(0.991227 0.0344519 3.64503e-17)
(1.03582 0.0129407 5.19312e-18)
(1.00524 0.00605065 3.57184e-18)
(1.00807 0.00660673 3.96105e-18)
(0.945921 0.0588717 -1.51335e-17)
(1 -8.85209e-06 -1.80536e-18)
(0.993607 0.00541231 3.06056e-18)
(1.31896 0.164476 -1.79892e-17)
(0.999918 4.2237e-05 4.69141e-17)
(1.04062 0.0354296 -7.98315e-18)
(0.999115 0.0702818 -4.39011e-18)
(1.00681 0.00601261 1.74952e-18)
(0.958645 0.0451244 -8.6553e-18)
(1.03484 0.0134131 3.30074e-18)
(0.998171 0.0252962 2.88146e-17)
(1.02886 0.0304505 2.14059e-18)
(0.99963 0.00309729 3.13299e-18)
(0.935413 0.0378637 2.17895e-17)
(1.0045 0.000662083 2.44458e-17)
(1.03195 -0.000104206 5.54915e-18)
(1.03379 0.0136187 8.81874e-18)
(0.933252 0.0403498 -2.65874e-17)
(0.99985 0.00296961 -5.89933e-18)
(1.03748 0.00328775 1.03981e-18)
(1.05179 0.0201435 1.0998e-17)
(0.99277 0.034215 -5.92812e-18)
(1.00582 0.0128153 -1.4947e-17)
(1.00442 0.00251248 -1.10869e-17)
(1.01376 0.0587893 4.47133e-18)
(0.780614 0.213953 -1.61043e-16)
(0.995676 0.000986992 -4.62277e-17)
(0.999968 3.64816e-05 7.25581e-18)
(0.994694 0.0249067 -1.96324e-17)
(0.999999 4.44958e-05 4.2603e-19)
(1.17384 0.189295 3.70319e-17)
(1.00685 0.021732 -1.82025e-18)
(1.03845 0.0855555 6.4362e-18)
(1.01545 0.0068908 -4.8872e-18)
(1.02771 0.00174262 3.90288e-18)
(0.218171 0.0748709 -3.05317e-16)
(1.00653 0.0150534 1.1393e-17)
(1.0954 0.192639 2.64998e-17)
(1.03285 0.00605018 -5.28643e-18)
(1.09927 -0.0322859 -1.27674e-17)
(1.02662 0.0114339 -6.00257e-18)
(0.996952 0.0115812 -3.37908e-17)
(1.00618 0.0138203 7.36156e-18)
(1.01723 -0.00103346 -2.5071e-18)
(1.09526 0.0854347 1.11386e-17)
(1.08317 0.0820834 1.21133e-17)
(1.00106 0.000171864 4.23012e-20)
(1.00162 -2.01125e-05 6.55865e-19)
(0.932344 0.0466031 -1.02939e-17)
(1.00196 -0.000194318 -2.02486e-18)
(0.699098 0.400102 7.49699e-17)
(1.02862 0.0300484 -1.08286e-17)
(0.971824 0.170747 6.80432e-17)
(1.00441 0.00296026 1.10576e-17)
(0.122028 0.251849 -3.70431e-16)
(1.1376 0.223867 2.35271e-17)
(1.0059 0.0218571 7.88372e-18)
(0.999995 2.0181e-05 2.16786e-18)
(0.999896 0.00270762 4.04045e-19)
(0.958225 0.0313003 5.76235e-17)
(0.994533 0.00792066 -3.91277e-18)
(0.990392 0.000433649 6.27464e-16)
(0.997392 0.00902615 -2.14534e-17)
(1.0306 0.0112357 -2.06486e-18)
(0.973853 0.0313126 3.49402e-17)
(1.06384 0.00625979 2.18677e-17)
(0.628611 0.0564077 3.63987e-16)
(1.00073 8.58459e-05 -7.90212e-18)
(0.968 0.034768 -2.99468e-17)
(1.03378 0.0278182 2.21821e-17)
(0.926522 0.0533348 1.1786e-16)
(1.00451 0.012483 4.95623e-18)
(0.926899 0.0790759 -8.27729e-17)
(1.03541 0.00716969 2.08316e-18)
(0.951414 0.033711 -8.2493e-17)
(0.997233 0.000589671 -2.72431e-17)
(1.00008 6.94219e-06 -3.97562e-19)
(1.03696 0.0218658 -7.1497e-18)
(1.03932 0.0226278 -1.09428e-17)
(1.02844 -4.41926e-05 6.78012e-19)
(0.935907 0.0388758 3.2746e-18)
(1.03622 0.083708 2.5115e-19)
(1.02141 0.00056437 2.01869e-18)
(0.998367 0.0241487 3.78246e-17)
(1.00042 0.00393681 -1.35311e-17)
(1.00997 0.00834771 -3.10937e-18)
(0.783439 0.0356276 -6.89764e-16)
(1.00951 0.008482 -7.47001e-18)
(1.03315 0.0188591 -1.78709e-18)
(0.983677 0.039286 2.13663e-17)
(1.02574 0.00857657 -4.10319e-18)
(1.01052 0.00023981 -2.61495e-17)
(0.99667 0.0112851 1.99736e-17)
(1.05171 0.0198784 3.59967e-18)
(1.01469 0.00646354 -1.5997e-17)
(1.00531 0.0126387 3.06001e-19)
(1.0638 0.00543288 1.12174e-17)
(0.991737 0.0283196 1.87313e-17)
(1.01939 0.000290929 5.9108e-18)
(0.817669 0.331748 -1.85815e-16)
(0.999996 2.04944e-06 1.53071e-19)
(1.01527 0.00750515 -8.21874e-18)
(0.999546 0.0194642 2.28338e-17)
(0.99268 0.00685335 1.43254e-17)
(1.00292 0.000604796 -7.31979e-18)
(0.998052 0.0236873 4.54188e-17)
(1.00001 1.88416e-06 -9.15783e-19)
(1.04619 0.106557 -2.80887e-17)
(1.0057 0.00053985 4.41092e-18)
(0.972964 0.00486284 5.78422e-16)
(1.03628 0.031348 -1.04529e-17)
(0.954801 0.0476524 2.40515e-17)
(1.01614 0.00871878 4.56498e-18)
(1.01596 0.00785506 -2.0321e-19)
(1.03684 0.0214659 -3.44217e-18)
(1.17983 0.0773568 1.56968e-16)
(0.999861 0.000115271 1.24964e-16)
(0.992862 0.000656425 -1.62216e-16)
(1.02138 -0.000150193 2.2654e-18)
(1.10791 0.195558 3.72502e-17)
(1.03886 0.0235166 2.77121e-18)
(0.999846 0.00293691 5.81118e-19)
(0.274172 0.146887 -5.23577e-16)
(1.00004 2.67911e-05 7.0237e-19)
(1.00527 0.00144311 -1.0742e-17)
(0.82938 -0.00249463 4.24741e-17)
(0.994745 0.00504424 1.83225e-18)
(0.999624 0.00316991 -9.21642e-18)
(0.999558 0.00349333 -7.22932e-18)
(0.983267 0.0377926 -9.25846e-18)
(0.960917 0.0261206 6.45472e-17)
(0.999827 6.25576e-05 4.48535e-17)
(0.993722 0.006347 1.02154e-17)
(0.935455 0.0685879 -7.8163e-18)
(0.997827 0.0201885 -1.38872e-17)
(0.996601 0.0154457 -3.44104e-17)
(0.996918 0.00913087 -2.27565e-20)
(1.00104 4.73371e-05 -4.41958e-18)
(0.956383 0.0332251 -6.07003e-17)
(1.0645 0.0532141 -1.50948e-18)
(0.995618 0.0151468 5.68359e-18)
(0.93293 0.030722 -7.6291e-17)
(1.03233 0.00537112 -4.79351e-18)
(1.03347 -0.00311021 -5.74674e-19)
(1.04249 0.102808 2.45739e-18)
(1.03227 0.0288393 -3.15881e-18)
(0.996639 0.00944704 7.78258e-18)
(1.00489 0.00142822 -1.14116e-17)
(1.08745 0.0958818 -1.21438e-17)
(1.03549 0.00421758 -6.1211e-19)
(0.976307 0.0239143 5.57293e-17)
(1.00075 0.00364202 -4.11719e-19)
(0.999609 0.000403881 -2.04193e-17)
(0.935491 0.0137096 -1.80804e-16)
(1.04886 0.0377584 5.33719e-18)
(1.01395 0.00613467 9.79269e-18)
(1.01101 0.0462532 -1.43218e-17)
(1.01449 0.0070813 -2.05825e-18)
(0.997069 0.00954794 2.03083e-17)
(1.0053 0.00461588 8.79295e-18)
(0.967975 0.032853 -1.68962e-17)
(0.889167 0.013263 1.40807e-16)
(0.3466 0.439472 2.22468e-16)
(0.967621 0.0388544 2.71435e-17)
(0.999319 0.0172131 -1.10092e-17)
(1.00571 0.00421477 8.81885e-18)
(0.971159 0.0351444 -1.24611e-17)
(0.519274 0.343454 -2.48718e-16)
(0.937199 0.0323807 2.29145e-16)
(0.999935 0.00272158 -2.03502e-18)
(1.0471 0.0303115 5.52619e-18)
(1.06173 0.067511 -3.16996e-18)