/*--------------------------------*- C++ -*----------------------------------*\
  =========                 |
  \\      /  F ield         | OpenFOAM: The Open Source CFD Toolbox
   \\    /   O peration     | Website:  https://openfoam.org
    \\  /    A nd           | Version:  7
     \\/     M anipulation  |
\*---------------------------------------------------------------------------*/
FoamFile
{
    version     2.0;
    format      ascii;
    class       volScalarField;
    location    "14.5";
    object      p;
}
// * * * * * * * * * * * * * * * * * * * * * * * * * * * * * * * * * * * * * //

dimensions      [1 -1 -2 0 0 0 0];

internalField   nonuniform List<scalar> 
2413
(
1.73222
1.72485
1.70793
1.68535
1.66211
1.63749
1.61052
1.58156
1.69496
1.72763
1.72452
1.7069
1.68573
1.66128
1.63607
1.61002
1.51139
1.6775
1.73212
1.73058
1.71142
1.68707
1.66243
1.63766
1.2234
1.45786
1.6645
1.71108
1.715
1.70691
1.68759
1.6605
1.0798
1.19012
1.42695
1.61255
1.69541
1.71807
1.7068
1.68557
1.06562
1.08748
1.17769
1.37551
1.55816
1.68189
1.70675
1.70194
1.0785
1.08334
1.10058
1.16859
1.31095
1.5232
1.64425
1.67819
1.10683
1.09951
1.10233
1.11431
1.15366
1.27202
1.47428
1.59478
1.13677
1.12776
1.11615
1.11583
1.12427
1.15036
1.24527
1.40175
1.16506
1.15949
1.14813
1.13567
1.13217
1.13787
1.15542
1.21591
1.19011
1.18536
1.17838
1.16736
1.15677
1.14891
1.15163
1.16191
1.22701
1.22225
1.21453
1.2019
1.1874
1.17582
1.16579
1.16398
1.27547
1.26788
1.25696
1.2434
1.22582
1.20807
1.19153
1.18189
1.31197
1.30632
1.29933
1.28812
1.27167
1.25413
1.23407
1.21025
1.2956
1.3133
1.32864
1.32978
1.32277
1.30803
1.28829
1.26282
1.26905
1.30271
1.32343
1.3356
1.34056
1.33867
1.33169
1.31436
1.13708
1.20689
1.26218
1.28796
1.3103
1.32114
1.326
1.32866
0.947881
1.0081
1.08724
1.16545
1.23742
1.28397
1.30001
1.31361
0.861972
0.879679
0.913803
0.96901
1.03735
1.11905
1.19679
1.24432
1.02514
1.02478
1.02531
1.02448
1.0233
1.02341
1.02284
1.02106
1.02023
1.01979
1.01864
1.01805
1.01774
1.01611
1.01506
1.01511
1.01395
1.01155
1.01118
1.55533
1.53341
1.5132
1.49285
1.47216
1.44995
1.42705
1.40379
1.38128
1.36359
1.35098
1.3421
1.33942
1.34436
1.36004
1.38765
1.41191
1.42956
1.43984
1.43823
1.43288
1.42938
1.43217
1.44705
1.49147
1.53898
1.54333
1.53649
1.51346
1.48288
1.44916
1.40778
1.37363
1.34539
1.31203
1.28765
1.26944
1.24449
1.22229
1.20527
1.18345
1.16437
1.14931
1.13005
1.11168
1.09961
1.08619
1.06795
1.0561
1.04746
1.0356
1.02223
1.01561
1.00945
1.00068
0.993733
0.990356
0.986446
0.980756
0.977014
0.9747
0.971535
0.967949
0.964993
0.962649
0.96014
0.95769
0.955634
0.954356
0.953799
0.955316
0.957012
0.959704
0.964829
0.969409
0.978073
0.985835
0.993262
1.00264
1.00811
1.01038
1.01144
1.0131
1.01515
1.01565
1.01636
1.01929
1.02111
1.0218
1.02375
1.02561
1.0256
1.02613
1.02764
1.02769
1.02679
1.02731
1.02719
1.026
1.02572
1.02508
1.02399
1.02393
1.02374
1.02233
1.02174
1.022
1.02099
1.01911
1.01864
1.018
1.01626
1.01574
1.01593
1.01433
1.01277
1.01322
1.01265
1.01005
1.00929
1.58556
1.56378
1.54295
1.52243
1.50206
1.48186
1.45979
1.43618
1.41152
1.38815
1.36812
1.35242
1.34068
1.33305
1.32664
1.32413
1.32744
1.33659
1.35055
1.36687
1.38122
1.39704
1.41361
1.44262
1.5014
1.55702
1.56347
1.5591
1.54399
1.52159
1.4922
1.45453
1.41677
1.38682
1.35504
1.32383
1.30301
1.27948
1.25179
1.23306
1.21322
1.18951
1.17239
1.1552
1.13394
1.11916
1.10582
1.08732
1.07203
1.06208
1.05025
1.03486
1.02593
1.01916
1.00991
1.00055
0.996318
0.99203
0.985453
0.979804
0.977297
0.974247
0.97026
0.966843
0.964017
0.960647
0.956633
0.953241
0.950871
0.949211
0.948967
0.949125
0.949336
0.952579
0.95604
0.961353
0.969228
0.977208
0.989699
0.999598
1.00276
1.00637
1.00991
1.01144
1.01169
1.01371
1.01716
1.01839
1.01965
1.0223
1.02361
1.02356
1.02451
1.02622
1.02618
1.02557
1.02626
1.02593
1.02535
1.0253
1.02442
1.02334
1.02319
1.02247
1.0207
1.02029
1.02036
1.01895
1.01721
1.017
1.01618
1.01425
1.0138
1.01394
1.01223
1.01047
1.01086
1.0103
1.00774
1.0069
1.61423
1.59349
1.57324
1.55278
1.53153
1.50978
1.48816
1.46594
1.44412
1.42146
1.40023
1.37916
1.36148
1.3465
1.33359
1.32489
1.31586
1.30651
1.29755
1.30126
1.3124
1.33237
1.36143
1.40569
1.48033
1.55462
1.56714
1.56298
1.55136
1.53274
1.50775
1.47664
1.44522
1.41777
1.38972
1.35922
1.33544
1.31259
1.28375
1.26055
1.24194
1.21774
1.19598
1.18032
1.15971
1.14036
1.12659
1.10942
1.09031
1.07874
1.06712
1.05042
1.03879
1.03105
1.02119
1.00966
1.00357
0.998213
0.990898
0.983061
0.978711
0.974649
0.969766
0.964627
0.961259
0.958349
0.954809
0.951428
0.948841
0.9467
0.945222
0.943938
0.942907
0.94439
0.946552
0.948189
0.953667
0.960565
0.972011
0.985609
0.991921
0.99802
1.00415
1.00656
1.00769
1.01069
1.01447
1.01564
1.01714
1.0203
1.02156
1.02165
1.02298
1.02475
1.02465
1.02422
1.02499
1.02495
1.02463
1.02474
1.02405
1.02287
1.02251
1.02161
1.01972
1.01916
1.01897
1.01724
1.0158
1.0156
1.01448
1.01245
1.01215
1.0119
1.00987
1.00819
1.00848
1.00764
1.00512
1.00434
1.63704
1.61738
1.59905
1.58033
1.55994
1.53831
1.51611
1.49505
1.4749
1.45528
1.43537
1.41504
1.39397
1.37459
1.35567
1.3391
1.32547
1.31194
1.29829
1.29119
1.29141
1.29651
1.31343
1.35237
1.42798
1.52031
1.5506
1.55058
1.54574
1.53343
1.51159
1.48326
1.45503
1.43138
1.40753
1.38155
1.3587
1.33637
1.30951
1.2843
1.26549
1.24326
1.21863
1.20224
1.18397
1.16144
1.14595
1.1309
1.1105
1.09565
1.08387
1.06737
1.0522
1.04269
1.03219
1.01886
1.01035
1.00411
0.996261
0.986694
0.980529
0.975915
0.970567
0.964098
0.959247
0.956307
0.95266
0.949149
0.946625
0.94437
0.942268
0.94008
0.938643
0.939282
0.9403
0.940102
0.942604
0.947216
0.955108
0.967963
0.977477
0.98637
0.99644
1.00123
1.00312
1.00691
1.01144
1.0128
1.01385
1.01714
1.01951
1.01986
1.02114
1.02307
1.02323
1.02297
1.02376
1.02419
1.02365
1.02381
1.02353
1.02235
1.02196
1.02117
1.01929
1.0186
1.01787
1.01583
1.01487
1.01453
1.01293
1.01096
1.01077
1.01006
1.00773
1.00633
1.00646
1.00527
1.00272
1.00207
1.66532
1.64521
1.62564
1.60657
1.58605
1.56482
1.54385
1.52372
1.50469
1.48629
1.46757
1.44862
1.42897
1.40839
1.38841
1.36757
1.34969
1.33258
1.31515
1.2993
1.29698
1.29986
1.30981
1.33611
1.39536
1.47708
1.51824
1.52552
1.52612
1.52015
1.50369
1.48027
1.45781
1.43711
1.41503
1.39113
1.37035
1.34925
1.32489
1.30165
1.28272
1.26183
1.23804
1.22028
1.203
1.1804
1.16221
1.14802
1.12884
1.11099
1.09869
1.08349
1.06575
1.05374
1.04295
1.02847
1.01503
1.00819
1.00091
0.990864
0.982638
0.977256
0.971182
0.963862
0.957452
0.953633
0.949391
0.94536
0.942499
0.94039
0.938314
0.935974
0.934541
0.934428
0.934128
0.933267
0.934691
0.937118
0.940949
0.950569
0.960567
0.970407
0.984424
0.992434
0.995958
1.00102
1.00703
1.0091
1.01022
1.01348
1.01717
1.01806
1.01907
1.02122
1.02197
1.02176
1.02254
1.02322
1.0227
1.02283
1.02289
1.02182
1.02131
1.02053
1.01919
1.01836
1.01684
1.0151
1.01469
1.01392
1.0117
1.01004
1.00968
1.00841
1.00583
1.0048
1.00479
1.00323
1.00072
1.00027
1.68699
1.67297
1.6546
1.63316
1.61131
1.59055
1.57165
1.55181
1.53368
1.51553
1.49728
1.47884
1.46003
1.44072
1.4212
1.40182
1.38215
1.36442
1.34462
1.32504
1.31392
1.3142
1.32012
1.34254
1.39651
1.47057
1.50653
1.51241
1.51242
1.50654
1.49227
1.47223
1.45412
1.43695
1.41698
1.39583
1.37707
1.35731
1.33404
1.31361
1.29518
1.27463
1.25232
1.23498
1.21807
1.19634
1.17668
1.16205
1.14411
1.12414
1.11055
1.09653
1.07826
1.06308
1.05229
1.03885
1.02231
1.01205
1.00426
0.994218
0.984349
0.978528
0.972253
0.964667
0.957015
0.951832
0.946874
0.941761
0.937238
0.934378
0.932074
0.929589
0.928188
0.92731
0.926007
0.925262
0.926203
0.928075
0.92927
0.934749
0.943882
0.952345
0.965972
0.978936
0.9851
0.991847
1.00035
1.00415
1.00633
1.01006
1.01439
1.016
1.01706
1.01936
1.02112
1.02107
1.0215
1.0224
1.02215
1.02212
1.02228
1.02141
1.0201
1.01967
1.01926
1.01791
1.01591
1.0152
1.0149
1.01357
1.01099
1.00977
1.009
1.0071
1.00438
1.00361
1.00333
1.00143
0.999066
0.998735
1.68338
1.68448
1.67292
1.6561
1.63817
1.61981
1.60116
1.58098
1.56215
1.54353
1.52473
1.50726
1.48948
1.47101
1.45275
1.43429
1.41593
1.39807
1.37962
1.35953
1.34457
1.33909
1.34184
1.35909
1.40821
1.47754
1.51212
1.51663
1.51563
1.50892
1.49405
1.47479
1.45719
1.44045
1.4216
1.40184
1.38427
1.36547
1.34305
1.32398
1.30648
1.28627
1.26428
1.24699
1.22972
1.20929
1.19031
1.17507
1.15769
1.13786
1.12259
1.10862
1.09138
1.07322
1.06073
1.04825
1.03206
1.01863
1.00937
0.998836
0.986955
0.979693
0.973753
0.966403
0.957797
0.951438
0.94603
0.939862
0.933114
0.927999
0.924833
0.921603
0.919017
0.917367
0.916265
0.915625
0.915552
0.916975
0.917721
0.919853
0.927111
0.934025
0.944642
0.961066
0.969808
0.978541
0.991249
0.997377
1.00128
1.00621
1.01138
1.01333
1.01478
1.01766
1.0202
1.02055
1.02094
1.02189
1.02176
1.02149
1.02168
1.02096
1.01942
1.01918
1.0187
1.0169
1.01531
1.01505
1.01464
1.01291
1.01065
1.00985
1.00876
1.00638
1.00358
1.00289
1.00222
0.999915
0.997704
0.997415
1.65526
1.6755
1.68082
1.67666
1.66261
1.64476
1.62713
1.60828
1.58939
1.57076
1.55121
1.53369
1.5163
1.499
1.48249
1.46499
1.44812
1.43177
1.41452
1.39494
1.37815
1.36996
1.37048
1.38557
1.43279
1.50178
1.52761
1.52895
1.52799
1.51999
1.50248
1.48285
1.46472
1.44665
1.42764
1.40945
1.39319
1.37569
1.35518
1.33598
1.31878
1.29851
1.27734
1.26035
1.24323
1.22169
1.20328
1.18802
1.17106
1.15147
1.13555
1.12122
1.1049
1.08655
1.07236
1.05928
1.04313
1.0282
1.0178
1.00681
0.993388
0.983486
0.976949
0.969321
0.960033
0.952202
0.946394
0.939896
0.93258
0.925654
0.921014
0.91658
0.912158
0.90846
0.906276
0.904925
0.903706
0.903279
0.903827
0.904309
0.908152
0.914152
0.921363
0.935974
0.949421
0.960747
0.976711
0.987335
0.992773
0.999487
1.00742
1.00997
1.01231
1.01616
1.0187
1.01966
1.02102
1.02227
1.02209
1.02187
1.02207
1.02119
1.01943
1.01895
1.01797
1.01577
1.01467
1.01464
1.01391
1.01195
1.01027
1.00971
1.00849
1.00592
1.00316
1.00243
1.0013
0.998649
0.996652
0.996312
1.52613
1.62009
1.66597
1.66692
1.66295
1.65715
1.64504
1.62993
1.61437
1.59852
1.58018
1.56259
1.54495
1.52685
1.51041
1.49329
1.47698
1.46201
1.44565
1.42822
1.41159
1.40213
1.4018
1.4163
1.4629
1.53416
1.55599
1.55699
1.55306
1.54091
1.52077
1.49847
1.47944
1.46098
1.44172
1.42507
1.40788
1.38909
1.36895
1.35056
1.33299
1.31439
1.29323
1.27517
1.25858
1.23856
1.21969
1.20409
1.18688
1.16662
1.15088
1.13671
1.11972
1.10153
1.08765
1.07399
1.05801
1.0414
1.02933
1.01759
1.00354
0.990469
0.982356
0.974139
0.964135
0.954578
0.94913
0.943126
0.935744
0.927642
0.922141
0.916691
0.910987
0.904819
0.90067
0.897381
0.893356
0.8898
0.8893
0.888975
0.88962
0.893104
0.89751
0.906884
0.920136
0.93193
0.95011
0.96544
0.975889
0.988124
0.999211
1.00391
1.0092
1.01512
1.0173
1.01858
1.02138
1.02267
1.02262
1.02297
1.02292
1.02155
1.02035
1.01972
1.01826
1.01574
1.01475
1.01439
1.01325
1.01104
1.00951
1.00885
1.00754
1.00499
1.00269
1.00191
1.00037
0.997515
0.995826
0.995326
1.31633
1.46038
1.564
1.61716
1.64643
1.64835
1.64407
1.6364
1.62943
1.61781
1.60397
1.59
1.57453
1.55716
1.54063
1.52343
1.50608
1.49091
1.4745
1.4581
1.44216
1.43238
1.43202
1.446
1.49166
1.56656
1.59291
1.59355
1.58821
1.57284
1.55038
1.52612
1.50419
1.48415
1.46483
1.44657
1.42836
1.4092
1.39058
1.3722
1.35335
1.33284
1.31368
1.2956
1.27808
1.25886
1.23927
1.22342
1.20673
1.18672
1.16956
1.15553
1.13906
1.1206
1.10586
1.09208
1.07611
1.05927
1.04638
1.03409
1.01998
1.00474
0.993818
0.983883
0.972531
0.960149
0.953706
0.947761
0.940043
0.930761
0.924582
0.918548
0.91205
0.90466
0.8993
0.894608
0.888889
0.883406
0.879557
0.876601
0.874041
0.873495
0.874295
0.877992
0.887237
0.897068
0.911961
0.93094
0.946676
0.96626
0.982783
0.992009
1.0015
1.01118
1.01578
1.01827
1.02166
1.02315
1.02365
1.02388
1.02337
1.02229
1.02174
1.02085
1.01933
1.01718
1.0162
1.01536
1.01359
1.011
1.00928
1.00817
1.00664
1.00414
1.00225
1.00116
0.99911
0.996429
0.995129
0.994357
1.1871
1.25736
1.36678
1.4823
1.58196
1.61284
1.62535
1.62671
1.6242
1.61907
1.61222
1.60354
1.59324
1.58134
1.56837
1.55376
1.5375
1.52204
1.50481
1.4876
1.47166
1.4609
1.46044
1.47195
1.51514
1.59173
1.63259
1.63347
1.62812
1.6126
1.58871
1.56322
1.53979
1.51727
1.49571
1.47656
1.45757
1.4377
1.41773
1.39761
1.37824
1.35902
1.33967
1.32101
1.30252
1.28302
1.26458
1.24808
1.23106
1.21096
1.19386
1.17866
1.16196
1.14363
1.12852
1.1141
1.09819
1.08105
1.06683
1.05348
1.03849
1.02254
1.01096
1.00049
0.987884
0.97247
0.963099
0.955614
0.946733
0.936633
0.929717
0.923386
0.915988
0.906921
0.90034
0.895271
0.889336
0.882622
0.876853
0.873759
0.869237
0.864376
0.859995
0.859439
0.861181
0.864339
0.870884
0.885639
0.90136
0.921996
0.944907
0.96189
0.979864
0.999133
1.00577
1.01219
1.01987
1.02378
1.02468
1.02506
1.02484
1.02479
1.024
1.02217
1.02029
1.01836
1.01724
1.01596
1.01392
1.01177
1.0102
1.00877
1.00692
1.00425
1.00232
1.0005
0.997821
0.995695
0.994692
0.99345
1.16754
1.17937
1.21345
1.28857
1.39611
1.49056
1.57337
1.60585
1.6118
1.61426
1.60919
1.60173
1.59688
1.59081
1.58311
1.57383
1.5627
1.55037
1.53577
1.51924
1.50284
1.48907
1.48709
1.49446
1.53109
1.60552
1.66879
1.67495
1.67049
1.65558
1.63228
1.60684
1.58166
1.55761
1.53528
1.51417
1.49322
1.47138
1.4507
1.43056
1.41026
1.39059
1.37026
1.35031
1.33199
1.31333
1.29379
1.27586
1.25873
1.23965
1.22194
1.20639
1.1893
1.17043
1.15481
1.1406
1.12466
1.10637
1.09164
1.07798
1.06294
1.04465
1.03093
1.01969
1.00702
0.992112
0.98101
0.971702
0.960868
0.947031
0.938843
0.93309
0.925144
0.915463
0.907102
0.901182
0.894589
0.886007
0.87915
0.875016
0.869795
0.864098
0.857718
0.854291
0.850921
0.846192
0.845314
0.84877
0.856841
0.86884
0.889593
0.910017
0.934445
0.961895
0.97958
0.995857
1.01111
1.01887
1.02354
1.02719
1.0282
1.02841
1.02748
1.02562
1.0233
1.02076
1.01862
1.01663
1.01446
1.01253
1.0109
1.00916
1.00699
1.00454
1.00229
0.99966
0.996858
0.9952
0.994144
0.992356
1.17789
1.17849
1.182
1.19552
1.23606
1.30828
1.41307
1.49218
1.55347
1.59077
1.59823
1.59999
1.5983
1.5906
1.58325
1.57817
1.57187
1.56466
1.55581
1.5449
1.53229
1.51911
1.5132
1.51685
1.54168
1.60828
1.69043
1.71417
1.71168
1.70022
1.67896
1.65342
1.62749
1.60283
1.57964
1.55663
1.53346
1.51143
1.49005
1.46868
1.44617
1.42485
1.4054
1.38573
1.36649
1.34652
1.32645
1.30794
1.29041
1.27174
1.25315
1.2367
1.21978
1.20161
1.18444
1.16909
1.15313
1.13564
1.12013
1.10653
1.09089
1.07189
1.057
1.04501
1.0314
1.01378
1.00186
0.992504
0.981332
0.966986
0.956071
0.947533
0.937598
0.924414
0.915529
0.910246
0.902992
0.894188
0.885499
0.879971
0.874305
0.867462
0.859352
0.85482
0.85035
0.844321
0.838565
0.834054
0.833272
0.834697
0.839957
0.851322
0.868545
0.897727
0.924543
0.951494
0.978724
0.994338
1.00915
1.01956
1.02567
1.02791
1.02843
1.0283
1.02676
1.02461
1.02248
1.0202
1.01754
1.01456
1.0117
1.00908
1.00661
1.00431
1.00177
0.998768
0.996411
0.994901
0.9936
0.991394
1.19735
1.19023
1.18832
1.19068
1.19534
1.21049
1.25382
1.32341
1.41359
1.48784
1.53469
1.57007
1.5825
1.58482
1.58511
1.58167
1.57329
1.56635
1.56134
1.55587
1.54895
1.54124
1.53615
1.53754
1.55269
1.60595
1.69802
1.74582
1.74816
1.742
1.72621
1.70277
1.67555
1.64956
1.62565
1.60204
1.5784
1.5552
1.53246
1.50952
1.48637
1.46491
1.44469
1.42265
1.40177
1.38347
1.36429
1.34442
1.32477
1.30523
1.28659
1.26996
1.25335
1.23455
1.21669
1.20057
1.18431
1.16587
1.14985
1.136
1.12109
1.10429
1.08771
1.07457
1.06041
1.04326
1.02866
1.01746
1.00496
0.989034
0.977249
0.968953
0.959072
0.945587
0.933791
0.925953
0.917512
0.906348
0.895646
0.890991
0.885243
0.877143
0.867809
0.861239
0.855341
0.848411
0.840959
0.834442
0.831453
0.827861
0.823017
0.823042
0.826491
0.836951
0.85508
0.876884
0.910829
0.941574
0.971075
0.997096
1.0068
1.0163
1.0221
1.02441
1.02592
1.02618
1.02533
1.02317
1.01984
1.01595
1.01237
1.00924
1.00645
1.00392
1.00122
0.998308
0.99611
0.994534
0.992853
0.990806
1.24043
1.2191
1.20232
1.19796
1.198
1.20069
1.20649
1.22282
1.26335
1.33026
1.40403
1.47841
1.51577
1.54463
1.56527
1.56929
1.56889
1.56852
1.56492
1.55821
1.5526
1.54819
1.54682
1.54857
1.55956
1.6005
1.6839
1.76146
1.78112
1.77871
1.768
1.74822
1.72357
1.69728
1.67173
1.64784
1.6247
1.60078
1.57642
1.5537
1.53129
1.50748
1.48472
1.46347
1.44232
1.42184
1.40173
1.38174
1.36218
1.34304
1.32314
1.30322
1.28552
1.26866
1.25213
1.23604
1.21877
1.19924
1.18183
1.16786
1.15275
1.13419
1.11928
1.10618
1.0921
1.07438
1.05956
1.04786
1.03462
1.01867
1.00396
0.99358
0.982341
0.968616
0.956194
0.948024
0.938913
0.92717
0.914362
0.906314
0.898452
0.888787
0.876794
0.870112
0.865342
0.85864
0.849957
0.841329
0.837184
0.832042
0.82592
0.820283
0.816346
0.81385
0.815465
0.820584
0.835869
0.862221
0.891169
0.930854
0.962571
0.988433
1.01167
1.01722
1.02018
1.02238
1.02242
1.02102
1.01863
1.01543
1.01249
1.00963
1.00653
1.00352
1.00068
0.99774
0.995434
0.993587
0.991715
0.99004
1.29433
1.27289
1.25014
1.23144
1.21291
1.20363
1.20445
1.20834
1.21442
1.23045
1.26425
1.32369
1.38851
1.45595
1.50221
1.52226
1.54043
1.55256
1.55606
1.55638
1.55437
1.55025
1.54812
1.54879
1.5559
1.5844
1.65289
1.74896
1.8008
1.80627
1.80086
1.78689
1.76634
1.74219
1.71728
1.69293
1.66971
1.6471
1.62326
1.59846
1.57447
1.55132
1.52867
1.50639
1.48372
1.46141
1.44014
1.4201
1.40108
1.38152
1.36161
1.34234
1.32361
1.30366
1.28495
1.26864
1.25283
1.23658
1.21768
1.20099
1.18584
1.16919
1.15231
1.13824
1.12379
1.10577
1.0902
1.07844
1.06585
1.04913
1.03471
1.02383
1.01209
0.997048
0.982449
0.973041
0.962966
0.950691
0.93701
0.928235
0.919848
0.909508
0.896605
0.887524
0.880791
0.872601
0.86234
0.851826
0.845483
0.83871
0.831005
0.822781
0.817157
0.814508
0.810692
0.806482
0.807284
0.813324
0.824409
0.846141
0.879127
0.911658
0.953329
0.981497
1.00034
1.01553
1.01838
1.01818
1.01607
1.01398
1.01291
1.01033
1.00646
1.00271
0.999297
0.996223
0.994132
0.992212
0.990359
0.988704
1.32586
1.31804
1.30299
1.28345
1.26104
1.24007
1.22557
1.21383
1.21234
1.21327
1.21792
1.23111
1.26008
1.30765
1.36676
1.42182
1.47785
1.50303
1.52017
1.5347
1.54272
1.54613
1.54711
1.54567
1.54878
1.56476
1.6164
1.71032
1.80286
1.82657
1.82695
1.81959
1.80291
1.78116
1.7581
1.73475
1.71181
1.68986
1.6671
1.64311
1.619
1.59515
1.57152
1.5484
1.52607
1.50491
1.48375
1.46027
1.43789
1.4185
1.40019
1.38136
1.36207
1.34228
1.3232
1.30563
1.28726
1.26889
1.25182
1.23575
1.22028
1.20219
1.18556
1.17165
1.15696
1.14041
1.12309
1.10989
1.09666
1.08081
1.06543
1.05418
1.04252
1.02754
1.01223
1.00152
0.991002
0.977998
0.963007
0.952892
0.943763
0.9331
0.919543
0.90918
0.901974
0.893189
0.882302
0.870824
0.863089
0.85495
0.845953
0.835398
0.827059
0.822944
0.817283
0.810799
0.806136
0.802993
0.80118
0.802786
0.811555
0.829497
0.860727
0.902693
0.936488
0.973566
0.995993
1.00464
1.0104
1.0115
1.01021
1.0074
1.00396
1.00054
0.997181
0.99447
0.992348
0.99037
0.988455
0.986498
1.3193
1.31764
1.31483
1.31067
1.30137
1.28704
1.26941
1.25024
1.23562
1.22446
1.21877
1.21959
1.22202
1.22926
1.2501
1.28511
1.33789
1.38984
1.44116
1.48143
1.50015
1.5168
1.53061
1.53596
1.54041
1.54927
1.57738
1.65271
1.7582
1.83556
1.84841
1.8474
1.83791
1.81906
1.79424
1.76969
1.74781
1.72722
1.70696
1.68591
1.66279
1.63762
1.61323
1.59018
1.56742
1.54494
1.52366
1.50253
1.48153
1.45947
1.437
1.41723
1.39883
1.38065
1.36085
1.34125
1.32336
1.30601
1.28848
1.26975
1.25328
1.23609
1.21865
1.20389
1.1897
1.17221
1.15577
1.14255
1.12938
1.11284
1.09631
1.08485
1.07289
1.05835
1.04268
1.03131
1.02014
1.00691
0.991635
0.980362
0.970846
0.959786
0.946019
0.934542
0.926291
0.917074
0.905193
0.892781
0.884558
0.875817
0.865657
0.853864
0.843517
0.836009
0.828028
0.819195
0.809684
0.805036
0.801944
0.797796
0.796465
0.798128
0.805144
0.823657
0.850372
0.883495
0.93086
0.959756
0.979606
0.997848
0.999909
0.999851
0.999646
0.998151
0.995881
0.993148
0.990344
0.988124
0.985915
0.983541
1.28321
1.28859
1.29297
1.29632
1.29469
1.29296
1.28879
1.28105
1.27125
1.25804
1.24352
1.23403
1.22724
1.22592
1.22496
1.22759
1.2401
1.26708
1.30647
1.35632
1.40162
1.44877
1.4765
1.49503
1.51217
1.52592
1.5443
1.59493
1.68877
1.78943
1.85982
1.86683
1.86543
1.85269
1.83091
1.80687
1.78448
1.76301
1.74144
1.71988
1.69815
1.67544
1.65305
1.63146
1.60839
1.58531
1.56352
1.541
1.51855
1.4976
1.47669
1.45646
1.43598
1.41573
1.39686
1.37864
1.36018
1.33995
1.32155
1.30445
1.28778
1.27141
1.25316
1.23586
1.22084
1.20499
1.18833
1.17386
1.16054
1.14467
1.12798
1.11531
1.10337
1.08835
1.0722
1.06068
1.04978
1.03663
1.02061
1.0088
0.998727
0.98737
)
;

boundaryField
{
    inlet
    {
        type            fixedValue;
        value           nonuniform 0();
    }
    outlet
    {
        type            zeroGradient;
    }
    bottom
    {
        type            symmetryPlane;
    }
    top
    {
        type            symmetryPlane;
    }
    obstacle
    {
        type            zeroGradient;
    }
    front
    {
        type            empty;
    }
    back
    {
        type            empty;
    }
    procBoundary13to5
    {
        type            processor;
        value           nonuniform List<scalar> 
129
(
1.72477
1.70326
1.6838
1.66173
1.63723
1.61047
1.58063
1.54949
1.02676
1.02579
1.02628
1.0262
1.02469
1.02405
1.02412
1.02296
1.02168
1.02132
1.02108
1.02036
1.01918
1.01758
1.01715
1.01655
1.01467
1.01295
1.01327
1.52308
1.502
1.4812
1.45895
1.43743
1.41597
1.39629
1.38059
1.36993
1.35753
1.35626
1.37099
1.40432
1.44557
1.48116
1.50874
1.50654
1.4975
1.48363
1.46547
1.4445
1.42887
1.42685
1.43288
1.45739
1.4827
1.48463
1.47694
1.45204
1.42632
1.39504
1.35945
1.33303
1.30615
1.27554
1.25716
1.23822
1.21458
1.19694
1.17812
1.15707
1.14196
1.12682
1.1069
1.0922
1.08157
1.06829
1.05193
1.04217
1.03403
1.02244
1.01222
1.00731
1.00172
0.994058
0.989268
0.986396
0.982686
0.977706
0.974379
0.972527
0.970115
0.967412
0.964885
0.962753
0.961186
0.960122
0.960029
0.960271
0.961651
0.965096
0.967937
0.973411
0.97863
0.983921
0.992611
0.998888
1.00564
1.01029
1.01234
1.01415
1.01552
1.01525
1.01686
1.01926
1.01971
1.02148
1.02403
1.02454
1.02563
1.02746
1.02759
1.02808
1.02914
1.02876
1.02786
1.02817
1.02794
1.02658
1.02624
1.0262
1.0262
)
;
    }
    procBoundary13to6
    {
        type            processor;
        value           nonuniform List<scalar> 5(1.01078 1.00915 1.00716 1.00471 1.00236);
    }
    procBoundary13to14
    {
        type            processor;
        value           nonuniform List<scalar> 
14
(
1.00042
0.998656
0.996934
0.995325
0.993824
0.992314
0.990853
0.989676
0.989259
0.989104
0.988224
0.986602
0.984144
0.981056
)
;
    }
    procBoundary13to20
    {
        type            processor;
        value           nonuniform List<scalar> 3(1.71629 1.58174 1.26719);
    }
    procBoundary13to21
    {
        type            processor;
        value           nonuniform List<scalar> 
129
(
0.856565
0.86178
0.868054
0.877736
0.898061
0.935331
0.997578
1.06572
0.973591
0.961285
0.952524
0.942722
0.930754
0.917779
0.908657
0.899713
0.889115
0.876763
0.866087
0.857161
0.84779
0.837746
0.825085
0.817749
0.812756
0.805984
0.800211
0.797955
0.796145
0.796535
0.800525
0.811719
0.83757
0.877702
0.912389
0.949555
0.976211
0.986805
0.993774
0.995532
0.994065
0.990385
0.98708
0.984566
0.982033
0.979435
1.13121
1.19228
1.23245
1.2682
1.27767
1.27675
1.27879
1.27665
1.274
1.2714
1.26459
1.25543
1.24699
1.23949
1.23338
1.22977
1.22581
1.22643
1.23208
1.24916
1.27749
1.31861
1.36432
1.40642
1.4453
1.46572
1.48831
1.5271
1.59657
1.71524
1.82005
1.87176
1.88771
1.88215
1.86556
1.84146
1.81779
1.79561
1.77492
1.75478
1.73475
1.71362
1.68934
1.66598
1.64391
1.6209
1.59808
1.57687
1.55637
1.53627
1.51471
1.49177
1.47116
1.45205
1.43316
1.41301
1.39373
1.37513
1.35669
1.33842
1.32022
1.3028
1.28558
1.26933
1.25428
1.23702
1.219
1.20443
1.19082
1.17595
1.15918
1.14543
1.13279
1.11835
1.10232
1.08951
1.07829
1.06512
1.04971
1.03723
1.0268
0.973591
1.01528
)
;
    }
    procBoundary13to28
    {
        type            processor;
        value           nonuniform List<scalar> 
16
(
1.0732
1.04572
1.05777
1.08359
1.11289
1.14045
1.16714
1.19376
1.23126
1.27797
1.30144
1.27842
1.23311
1.06801
0.901384
0.852677
)
;
    }
}


// ************************************************************************* //
