/*--------------------------------*- C++ -*----------------------------------*\
  =========                 |
  \\      /  F ield         | OpenFOAM: The Open Source CFD Toolbox
   \\    /   O peration     | Website:  https://openfoam.org
    \\  /    A nd           | Version:  7
     \\/     M anipulation  |
\*---------------------------------------------------------------------------*/
FoamFile
{
    version     2.0;
    format      ascii;
    class       volScalarField;
    location    "132";
    object      p;
}
// * * * * * * * * * * * * * * * * * * * * * * * * * * * * * * * * * * * * * //

dimensions      [0 2 -2 0 0 0 0];

internalField   nonuniform List<scalar> 
15200
(
-0.714937
-0.55574
-0.533615
-0.417701
-0.329028
-0.286332
-0.261247
-0.280285
-0.267268
-0.226493
-0.187
-0.157845
-0.172282
-0.193142
-0.184914
-0.700658
-0.545121
-0.494439
-0.403265
-0.325951
-0.290252
-0.275033
-0.301824
-0.276782
-0.223845
-0.18246
-0.156686
-0.174
-0.199432
-0.185757
-0.687268
-0.534017
-0.451844
-0.387076
-0.319171
-0.289514
-0.284055
-0.315494
-0.280374
-0.218064
-0.173869
-0.153235
-0.170228
-0.19806
-0.176907
-0.675563
-0.522642
-0.407693
-0.369648
-0.308303
-0.283063
-0.288972
-0.322382
-0.277726
-0.209076
-0.161152
-0.144853
-0.159489
-0.187339
-0.157652
-0.666238
-0.511517
-0.363467
-0.351637
-0.293224
-0.270926
-0.291812
-0.323309
-0.26955
-0.197138
-0.144824
-0.128865
-0.139945
-0.164631
-0.128447
-0.659738
-0.501222
-0.32114
-0.333256
-0.273977
-0.253621
-0.293393
-0.318392
-0.256701
-0.182798
-0.126679
-0.10571
-0.10993
-0.128641
-0.0903688
-0.656173
-0.492081
-0.282524
-0.313975
-0.250717
-0.231325
-0.292463
-0.307397
-0.24016
-0.166824
-0.109081
-0.0797975
-0.0714743
-0.0819548
-0.0457971
-0.655312
-0.484013
-0.248625
-0.292598
-0.223442
-0.204728
-0.286899
-0.290799
-0.221207
-0.150127
-0.0939738
-0.0568881
-0.0339533
-0.0352372
-0.00522768
-0.656672
-0.476445
-0.219166
-0.267233
-0.191749
-0.176522
-0.275298
-0.269672
-0.201058
-0.133799
-0.0812864
-0.041842
-0.0108361
-0.00447639
0.0147963
-0.659651
-0.468483
-0.192405
-0.235751
-0.154997
-0.151073
-0.257091
-0.245358
-0.18062
-0.118946
-0.0701829
-0.0329255
-0.00194599
0.00805111
0.0182595
-0.66367
-0.459325
-0.165416
-0.197186
-0.113079
-0.132401
-0.233801
-0.219421
-0.160765
-0.105841
-0.0612333
-0.0277371
-0.000750275
0.0106177
0.0151852
-0.668246
-0.448808
-0.135989
-0.153177
-0.0678139
-0.121366
-0.208554
-0.193487
-0.142344
-0.0942775
-0.0546978
-0.0247947
-0.00177311
0.0103167
0.0114105
-0.672983
-0.437781
-0.104792
-0.108579
-0.0242051
-0.113656
-0.183869
-0.169009
-0.125821
-0.0843261
-0.0498931
-0.0233953
-0.00392292
0.00829592
0.00803918
-0.677523
-0.427608
-0.0758116
-0.0682141
0.0103142
-0.104476
-0.160761
-0.147032
-0.111372
-0.0759595
-0.0462803
-0.0228051
-0.00635697
0.00542917
0.00501809
-0.681508
-0.418592
-0.055277
-0.0408928
0.0301815
-0.0921024
-0.139845
-0.128093
-0.0990317
-0.0689726
-0.0435208
-0.0226887
-0.0086444
0.00243104
0.00243404
-0.684599
-0.412402
-0.0440772
-0.0254447
0.0356952
-0.0785847
-0.121604
-0.112274
-0.088668
-0.0631874
-0.0413217
-0.0228558
-0.0107424
-0.000460678
0.000168973
-0.686364
-0.409529
-0.0410537
-0.0204641
0.0312599
-0.0664315
-0.106242
-0.0993297
-0.0800606
-0.0584138
-0.0394924
-0.0231818
-0.0125416
-0.00305762
-0.00199438
-0.686358
-0.409393
-0.044094
-0.0228414
0.0212394
-0.0570943
-0.093668
-0.0888447
-0.0729681
-0.0544586
-0.0379257
-0.0236006
-0.0139462
-0.00531516
-0.00401711
-0.684351
-0.410457
-0.0515654
-0.029516
0.00858265
-0.0509325
-0.0836141
-0.0803824
-0.0671486
-0.0511574
-0.036586
-0.0240032
-0.0149802
-0.00737909
-0.00562766
-0.680087
-0.410689
-0.0622942
-0.0383194
-0.00493643
-0.0475904
-0.0757703
-0.0735617
-0.0623757
-0.0483802
-0.0354497
-0.0242878
-0.0157928
-0.0091924
-0.00655206
-0.673599
-0.408408
-0.0753273
-0.0478629
-0.0182582
-0.046474
-0.0698228
-0.0680713
-0.0584521
-0.0460274
-0.0344695
-0.0244383
-0.016524
-0.0105603
-0.00718235
-0.665362
-0.402697
-0.0898248
-0.0572959
-0.03076
-0.0469942
-0.0654538
-0.0636634
-0.0552106
-0.0440186
-0.033603
-0.0244796
-0.017129
-0.0115529
-0.00775383
-0.656249
-0.393576
-0.105044
-0.0661636
-0.0421013
-0.0486316
-0.0623605
-0.060136
-0.0525135
-0.0422866
-0.0328181
-0.0244254
-0.0175847
-0.0122813
-0.00835579
-0.647313
-0.381821
-0.12036
-0.0742807
-0.0521392
-0.0509439
-0.0602668
-0.0573206
-0.0502491
-0.0407749
-0.0320857
-0.0242911
-0.0179032
-0.0128065
-0.00888858
-0.639515
-0.368547
-0.135276
-0.0815925
-0.0608906
-0.0535667
-0.0589279
-0.0550737
-0.0483265
-0.0394352
-0.0313857
-0.0240898
-0.0180743
-0.0131741
-0.00939831
-0.633508
-0.354814
-0.149406
-0.0880978
-0.0684439
-0.0562344
-0.0581335
-0.05327
-0.0466724
-0.0382264
-0.0307023
-0.02382
-0.018125
-0.0134308
-0.00975303
-0.629599
-0.341437
-0.162442
-0.0938206
-0.0748993
-0.0587692
-0.0577073
-0.0518015
-0.0452245
-0.0371138
-0.0300197
-0.023488
-0.0180649
-0.0135613
-0.0100223
-0.627811
-0.328906
-0.174151
-0.0988012
-0.0803545
-0.0610543
-0.0575057
-0.0505757
-0.04393
-0.0360666
-0.0293268
-0.0230895
-0.0179072
-0.0135964
-0.0101512
-0.627984
-0.317365
-0.184417
-0.103098
-0.0849052
-0.063015
-0.0574132
-0.0495131
-0.0427424
-0.0350583
-0.028611
-0.0226269
-0.0176617
-0.0135217
-0.0101828
-0.629852
-0.306791
-0.193176
-0.106749
-0.0886421
-0.064606
-0.0573382
-0.0485454
-0.0416206
-0.0340649
-0.0278647
-0.0220968
-0.0173331
-0.0133551
-0.0101011
-0.633085
-0.297094
-0.200481
-0.109716
-0.0916404
-0.0658009
-0.0572085
-0.0476138
-0.0405284
-0.0330665
-0.0270776
-0.0214997
-0.0169242
-0.0130931
-0.00992685
-0.637317
-0.288156
-0.206413
-0.111961
-0.0939547
-0.0665859
-0.0569684
-0.0466686
-0.0394355
-0.0320453
-0.0262423
-0.0208317
-0.0164385
-0.0127435
-0.00966033
-0.642159
-0.279841
-0.211051
-0.113463
-0.0956263
-0.066954
-0.0565763
-0.0456691
-0.0383173
-0.0309865
-0.02535
-0.020094
-0.015877
-0.0123102
-0.00931118
-0.647216
-0.272001
-0.214463
-0.114219
-0.0966901
-0.0669029
-0.0560018
-0.0445835
-0.0371507
-0.0298759
-0.0243943
-0.0192847
-0.0152438
-0.0117951
-0.00888421
-0.652098
-0.264475
-0.216712
-0.114228
-0.0971773
-0.0664343
-0.0552224
-0.0433871
-0.0359129
-0.0287001
-0.0233691
-0.0184046
-0.0145359
-0.0112038
-0.0083879
-0.656426
-0.2571
-0.21786
-0.113492
-0.0971126
-0.0655558
-0.054219
-0.0420579
-0.034585
-0.0274466
-0.0222714
-0.0174503
-0.0137539
-0.0105366
-0.00783138
-0.659844
-0.249709
-0.217966
-0.112024
-0.0965074
-0.0642793
-0.0529766
-0.0405751
-0.0331586
-0.0261045
-0.0211012
-0.0164182
-0.012894
-0.00979854
-0.00721607
-0.662022
-0.242147
-0.21707
-0.109849
-0.0953651
-0.0626109
-0.0514943
-0.0389157
-0.0316391
-0.0246582
-0.0198642
-0.0153002
-0.0119594
-0.00898655
-0.00653508
-0.662661
-0.234277
-0.215188
-0.106986
-0.0937157
-0.0605255
-0.0498056
-0.0370457
-0.0300441
-0.0230834
-0.018569
-0.0140872
-0.0109556
-0.00810069
-0.0057751
-0.661501
-0.225964
-0.212343
-0.103391
-0.0916746
-0.0579399
-0.0479847
-0.0349123
-0.028397
-0.0213625
-0.017219
-0.0127765
-0.00989106
-0.00713632
-0.00493159
-0.658315
-0.21702
-0.208677
-0.0988913
-0.0894651
-0.0547374
-0.0460943
-0.0324807
-0.0266963
-0.0195206
-0.015789
-0.0113884
-0.00875885
-0.0060939
-0.00401438
-0.652909
-0.207144
-0.20452
-0.0932675
-0.0872691
-0.0509182
-0.044054
-0.0298447
-0.0248476
-0.0176401
-0.0142165
-0.00997076
-0.0075305
-0.00498198
-0.00305023
-0.645108
-0.196017
-0.200219
-0.086595
-0.0848347
-0.0468211
-0.0415572
-0.0273109
-0.0226411
-0.0157745
-0.0124792
-0.00853017
-0.00620874
-0.00380706
-0.00204472
-0.634793
-0.183696
-0.195516
-0.0796437
-0.0812242
-0.0429586
-0.0385155
-0.0248179
-0.0201758
-0.0138795
-0.0106175
-0.00703807
-0.00481447
-0.00257413
-0.000996699
-0.621966
-0.170983
-0.189081
-0.0729306
-0.0765838
-0.0392121
-0.0350138
-0.022276
-0.0175372
-0.0119015
-0.00867439
-0.00546907
-0.00336202
-0.00128845
0.00010012
-0.606789
-0.157791
-0.180879
-0.0663965
-0.0710732
-0.035455
-0.0311676
-0.0196051
-0.0147912
-0.00980579
-0.00667607
-0.00381421
-0.00185651
4.70922e-05
0.0012508
-0.589399
-0.143943
-0.171078
-0.0598965
-0.0648676
-0.0315749
-0.0270751
-0.0167548
-0.0119745
-0.00758205
-0.00463119
-0.0020788
-0.000299863
0.00142881
0.00245576
-0.56943
-0.129648
-0.159903
-0.0532935
-0.058109
-0.0274937
-0.0228089
-0.0137037
-0.00910136
-0.00523844
-0.00253779
-0.000275431
0.00130409
0.00284775
0.00370274
-0.545963
-0.115477
-0.147548
-0.0464832
-0.0509179
-0.0231617
-0.0184158
-0.0104548
-0.00617082
-0.00279212
-0.000392016
0.00158371
0.00294902
0.00429236
0.00497234
-0.519292
-0.101179
-0.134181
-0.0393901
-0.0433897
-0.018556
-0.013923
-0.00702641
-0.00317745
-0.000261872
0.00180677
0.00348961
0.00463001
0.00575779
0.00625748
-0.489701
-0.086579
-0.119953
-0.0319649
-0.0356015
-0.0136734
-0.00934431
-0.00344472
-0.000117428
0.00233575
0.00405444
0.00543547
0.00634465
0.00725156
0.00757304
-0.457459
-0.0715502
-0.105003
-0.0241807
-0.0276141
-0.00852676
-0.00468685
0.000262509
0.00300806
0.00498739
0.00634397
0.00741465
0.00808893
0.0087805
0.00893903
-0.42282
-0.0560248
-0.0894557
-0.0160292
-0.0194766
-0.00313972
4.43496e-05
0.00406924
0.00619278
0.00768265
0.00866822
0.00942048
0.00985148
0.0103304
0.0103445
-0.386041
-0.0399698
-0.0734297
-0.00751842
-0.011229
0.00245693
0.00484296
0.00795229
0.00942692
0.0104133
0.0110218
0.0114471
0.0116151
0.0118641
0.0117313
-0.347389
-0.0233822
-0.0570338
0.00133056
-0.00290528
0.00822828
0.00969979
0.0118911
0.0126987
0.0131723
0.0133999
0.0134887
0.0133658
0.0133483
0.0130201
-0.307135
-0.00628167
-0.0403704
0.0104854
0.00546454
0.0141375
0.0146023
0.0158672
0.0159956
0.0159521
0.0157946
0.0155353
0.0150968
0.0147815
0.0141868
-0.26556
0.0112924
-0.0235364
0.0199048
0.0138523
0.0201474
0.0195348
0.0198634
0.0193054
0.0187438
0.0181933
0.01757
0.0168015
0.0161868
0.0153186
-0.222953
0.0292841
-0.00662377
0.0295405
0.0222304
0.0262213
0.0244794
0.0238632
0.0226162
0.021537
0.0205806
0.019574
0.0184698
0.0175876
0.0165902
-0.179604
0.0476229
0.0102795
0.0393386
0.0305709
0.0323235
0.0294162
0.0278509
0.0259156
0.0243196
0.0229426
0.0215397
0.0201071
0.0190103
0.0180586
-0.13581
0.0662261
0.0270889
0.0492415
0.0388449
0.0384196
0.0343243
0.0318104
0.0291907
0.0270776
0.025268
0.0234713
0.0217422
0.0204871
0.0196634
-0.0918651
0.0850007
0.0437227
0.059189
0.0470223
0.0444762
0.0391823
0.0357259
0.0324274
0.0297965
0.0275466
0.0253717
0.0233884
0.0219878
0.0212806
-0.0480647
0.103845
0.0601019
0.0691191
0.0550716
0.0504615
0.0439685
0.039581
0.0356114
0.0324627
0.0297719
0.0272377
0.0250275
0.0234993
0.0227595
-0.00470045
0.12265
0.0761497
0.0789696
0.0629605
0.0563445
0.0486616
0.0433592
0.0387279
0.0350648
0.0319412
0.0290721
0.0266532
0.0249804
0.0240977
0.0379413
0.141302
0.0917913
0.0886783
0.0706558
0.0620956
0.05324
0.0470438
0.0417622
0.0375917
0.0340489
0.0308708
0.0282589
0.0264296
0.0253529
0.0795808
0.159682
0.106954
0.0981842
0.0781239
0.067686
0.0576831
0.0506181
0.0447007
0.040034
0.036088
0.0326192
0.0298169
0.0278209
0.0265369
0.119947
0.177669
0.121567
0.107428
0.0853311
0.0730881
0.0619701
0.0540657
0.0475304
0.0423836
0.0380545
0.0343128
0.03132
0.0291474
0.0276496
0.15878
0.195143
0.135562
0.116351
0.0922442
0.0782753
0.0660812
0.0573706
0.0502388
0.044631
0.0399392
0.0359414
0.0327623
0.0304125
0.0286999
0.19583
0.211982
0.148872
0.124899
0.0988306
0.0832222
0.0699972
0.0605176
0.0528143
0.0467678
0.0417332
0.0374928
0.0341297
0.0316033
0.0296809
0.230862
0.228067
0.161435
0.13302
0.105059
0.0879045
0.0736997
0.0634924
0.0552463
0.0487863
0.0434303
0.0389624
0.0354208
0.0327213
0.0305946
0.263656
0.243282
0.173189
0.140665
0.110899
0.0922991
0.0771714
0.0662814
0.0575238
0.050677
0.0450212
0.0403411
0.0366274
0.0337593
0.0314373
0.294007
0.257515
0.184077
0.147787
0.116321
0.0963846
0.080396
0.0688722
0.0596376
0.0524324
0.0464988
0.0416225
0.0377453
0.0347159
0.032209
0.321734
0.270656
0.194045
0.154345
0.121301
0.100141
0.0833584
0.071253
0.0615783
0.0540452
0.0478568
0.0428006
0.0387688
0.0355866
0.0329081
0.346669
0.282606
0.203045
0.160299
0.125812
0.10355
0.0860448
0.0734131
0.0633375
0.0555077
0.0490885
0.0438699
0.0396943
0.0363693
0.0335345
0.368658
0.293272
0.211031
0.165616
0.129833
0.106594
0.0884428
0.0753431
0.0649077
0.0568141
0.0501884
0.0448251
0.0405173
0.0370615
0.0340876
0.387564
0.302576
0.217963
0.170266
0.133344
0.10926
0.090541
0.0770342
0.0662819
0.0579584
0.0511515
0.045662
0.0412345
0.0376612
0.0345681
0.403266
0.31045
0.223808
0.174222
0.136328
0.111535
0.09233
0.0784791
0.0674542
0.0589359
0.0519736
0.0463765
0.0418425
0.0381668
0.0349759
0.415665
0.316835
0.228537
0.177462
0.138771
0.113408
0.0938013
0.0796712
0.0684195
0.0597423
0.0526508
0.0469651
0.0423387
0.0385769
0.0353105
0.424681
0.321688
0.232125
0.17997
0.14066
0.11487
0.0949484
0.0806056
0.0691738
0.0603742
0.05318
0.0474247
0.0427205
0.0388906
0.0355715
0.430253
0.324975
0.234557
0.181733
0.141987
0.115915
0.0957662
0.0812782
0.0697138
0.060829
0.0535587
0.047753
0.0429866
0.0391061
0.0357563
0.432338
0.326676
0.235821
0.182743
0.142746
0.116539
0.0962512
0.0816864
0.0700374
0.0611048
0.0537853
0.0479489
0.0431357
0.039222
0.0358635
0.43093
0.326782
0.235911
0.182996
0.142934
0.116739
0.0964014
0.0818287
0.0701434
0.0612008
0.0538592
0.0480119
0.0431683
0.0392409
0.0358997
0.42603
0.325298
0.234828
0.182493
0.142551
0.116515
0.0962167
0.0817048
0.0700317
0.0611169
0.0537803
0.047942
0.0430845
0.0391637
0.0358663
0.417665
0.322242
0.232578
0.181241
0.1416
0.115869
0.0956984
0.0813159
0.069703
0.0608535
0.0535488
0.0477394
0.0428843
0.0389895
0.0357603
0.405887
0.317642
0.229175
0.17925
0.140087
0.114807
0.0948492
0.0806639
0.0691589
0.0604119
0.0531661
0.0474053
0.0425688
0.0387179
0.0355786
0.390765
0.311542
0.224637
0.176534
0.138019
0.113333
0.0936737
0.0797525
0.0684021
0.0597946
0.0526343
0.0469423
0.0421403
0.0383493
0.0353193
0.372393
0.303995
0.218988
0.173112
0.135409
0.111458
0.0921777
0.0785862
0.0674363
0.0590046
0.0519563
0.0463531
0.041602
0.0378853
0.0349815
0.350882
0.295066
0.212259
0.16901
0.13227
0.109191
0.0903688
0.0771709
0.066266
0.0580457
0.0511355
0.0456409
0.0409566
0.0373277
0.0345647
0.326363
0.284835
0.204485
0.164255
0.128618
0.106546
0.0882558
0.0755136
0.0648965
0.0569225
0.0501759
0.0448095
0.040207
0.0366781
0.034069
0.29898
0.273389
0.195707
0.158879
0.124472
0.103536
0.0858489
0.0736223
0.0633341
0.0556402
0.0490823
0.0438632
0.039357
0.0359384
0.0334943
0.2689
0.260829
0.185972
0.152919
0.119853
0.100179
0.0831596
0.0715062
0.0615857
0.0542048
0.0478605
0.0428072
0.0384105
0.0351109
0.0328413
0.236312
0.247257
0.17533
0.146415
0.114784
0.0964911
0.0802006
0.0691752
0.0596592
0.052623
0.0465166
0.0416475
0.0373722
0.0341986
0.0321107
0.201426
0.232785
0.163834
0.139411
0.109289
0.0924934
0.0769855
0.0666403
0.0575627
0.0509014
0.0450568
0.0403898
0.036246
0.0332038
0.0313044
0.16447
0.217527
0.151542
0.131954
0.103393
0.0882067
0.0735292
0.0639134
0.0553056
0.0490479
0.0434896
0.0390434
0.0350398
0.0321303
0.0304234
0.125692
0.201601
0.138515
0.124093
0.0971234
0.0836536
0.0698473
0.0610072
0.0528975
0.0470695
0.041821
0.0376141
0.0337561
0.0309767
0.029469
0.0853524
0.18513
0.124815
0.115882
0.0905071
0.0788581
0.0659559
0.0579347
0.0503483
0.0449735
0.0400584
0.0361149
0.0324107
0.0297518
0.0284421
0.0437312
0.168235
0.110508
0.107376
0.0835718
0.0738455
0.0618718
0.0547102
0.0476699
0.0427696
0.0382105
0.0345559
0.0310095
0.0284441
0.0273321
0.00112037
0.151038
0.0956622
0.0986297
0.0763448
0.0686425
0.0576121
0.051348
0.0448734
0.0404643
0.0362777
0.0329414
0.0295735
0.0270753
0.0261417
-0.0421749
0.133659
0.0803471
0.0897021
0.0688531
0.063277
0.0531939
0.0478627
0.041971
0.0380681
0.0342684
0.0312862
0.0281325
0.025653
0.0248313
-0.0858386
0.116215
0.0646341
0.0806508
0.0611226
0.0577781
0.0486342
0.0442697
0.0389754
0.0355924
0.0321852
0.0295816
0.0266918
0.0242146
0.0233863
-0.129545
0.0988168
0.0485961
0.0715337
0.0531783
0.0521764
0.0439493
0.0405842
0.0358991
0.0330485
0.0300333
0.0278236
0.0252736
0.0228551
0.021771
-0.172961
0.0815692
0.032308
0.0624071
0.0450437
0.0465035
0.0391547
0.0368222
0.032754
0.0304489
0.0278241
0.0260066
0.023857
0.0216015
0.0200587
-0.215749
0.0645676
0.0158461
0.0533251
0.0367413
0.0407924
0.0342645
0.0330005
0.0295522
0.0278057
0.0255718
0.024126
0.0224006
0.0204336
0.0186646
-0.257565
0.0478969
-0.000711408
0.0443382
0.028292
0.0350769
0.029291
0.0291368
0.0263054
0.0251287
0.023291
0.0221927
0.0208877
0.019358
0.017704
-0.298066
0.0316291
-0.0172841
0.0354922
0.0197163
0.0293915
0.0242439
0.0252502
0.0230253
0.022426
0.020996
0.0202336
0.0193213
0.0182816
0.0169702
-0.336906
0.0158207
-0.0337892
0.0268261
0.0110342
0.0237708
0.0191304
0.0213613
0.0197235
0.0197054
0.0186971
0.0182723
0.0177107
0.0170976
0.0161658
-0.373745
0.000509983
-0.0501406
0.0183706
0.00226695
0.0182487
0.013955
0.0174931
0.0164108
0.0169751
0.0163991
0.0163174
0.0160691
0.0157921
0.0151834
-0.408241
-0.0142875
-0.0662489
0.0101463
-0.0065622
0.0128565
0.00872004
0.0136703
0.013096
0.0142438
0.0141052
0.0143688
0.0144153
0.0144211
0.0140759
-0.440059
-0.0285828
-0.08202
0.00216118
-0.015426
0.00762176
0.0034268
0.00992011
0.00978426
0.0115217
0.0118219
0.0124291
0.0127653
0.0130324
0.0129106
-0.468863
-0.0424232
-0.0973545
-0.00559143
-0.0242914
0.00256533
-0.00192296
0.00627122
0.00647637
0.00882133
0.00956088
0.0105052
0.0111256
0.0116367
0.0117157
-0.494315
-0.0559007
-0.112146
-0.0131356
-0.033117
-0.00230136
-0.00732421
0.00275225
0.00316817
0.00615903
0.00733532
0.00860439
0.00949623
0.0102313
0.0105048
-0.516053
-0.069177
-0.126279
-0.0205151
-0.0418504
-0.00697944
-0.0127654
-0.000610898
-0.000148906
0.00355567
0.00515642
0.00673249
0.00788149
0.00882597
0.0092985
-0.533699
-0.0824744
-0.139629
-0.0277972
-0.0504258
-0.0114868
-0.0182241
-0.00379912
-0.0034852
0.00103829
0.00303132
0.0048949
0.00629395
0.00744364
0.00811884
-0.546973
-0.0960155
-0.152053
-0.035075
-0.0587605
-0.0158612
-0.0236629
-0.00680536
-0.00684702
-0.00136077
0.000961859
0.00309697
0.00474808
0.00610434
0.00697703
-0.556943
-0.109042
-0.163379
-0.0424742
-0.0667534
-0.020165
-0.0290236
-0.00964108
-0.0102278
-0.00360862
-0.00105749
0.00134501
0.00325359
0.00481463
0.00587325
-0.563873
-0.12143
-0.173387
-0.0501638
-0.0742776
-0.024488
-0.0342233
-0.0123423
-0.0135999
-0.00568219
-0.00303927
-0.000350097
0.00181536
0.00357235
0.00480477
-0.567541
-0.133465
-0.181852
-0.0583518
-0.0811873
-0.0289502
-0.0391506
-0.0149767
-0.0169047
-0.00758268
-0.00499827
-0.00196619
0.000438172
0.00237618
0.00377414
-0.56771
-0.145461
-0.188608
-0.0672799
-0.087305
-0.0337052
-0.0436647
-0.017645
-0.0200498
-0.00934666
-0.00694259
-0.00346636
-0.000873086
0.00123288
0.0027904
-0.564316
-0.156558
-0.194714
-0.0768929
-0.0924638
-0.0389202
-0.0476011
-0.0204809
-0.0229049
-0.0110528
-0.00884487
-0.00482216
-0.0021156
0.000154695
0.00186489
-0.557444
-0.166464
-0.201186
-0.0867506
-0.0965931
-0.0447287
-0.0508011
-0.0236274
-0.0253188
-0.0128118
-0.010622
-0.00604599
-0.0032849
-0.00084725
0.00100313
-0.547263
-0.175425
-0.208317
-0.0962192
-0.100225
-0.0509828
-0.0532017
-0.0271701
-0.027168
-0.014736
-0.0121455
-0.00720097
-0.00436276
-0.00176566
0.000200928
-0.533992
-0.18386
-0.215938
-0.104995
-0.104011
-0.0571241
-0.0552306
-0.0308708
-0.0285245
-0.016815
-0.0133399
-0.00835779
-0.00530652
-0.00260598
-0.000544356
-0.517905
-0.192161
-0.223803
-0.113126
-0.10828
-0.0627203
-0.0572959
-0.0343115
-0.0297249
-0.0187577
-0.014374
-0.00942066
-0.00614223
-0.00336568
-0.00121983
-0.499339
-0.200676
-0.2318
-0.120793
-0.112992
-0.0676789
-0.0595491
-0.0372646
-0.0309758
-0.0203821
-0.015344
-0.0103371
-0.00688307
-0.0040385
-0.00181456
-0.478704
-0.209744
-0.239962
-0.128202
-0.117906
-0.0721253
-0.0619508
-0.0397175
-0.0322771
-0.0216807
-0.0162232
-0.0111062
-0.00753137
-0.00461662
-0.00232537
-0.456491
-0.219729
-0.248383
-0.135509
-0.12283
-0.0762176
-0.0643691
-0.0417771
-0.0335064
-0.0227219
-0.0169544
-0.0117355
-0.00807709
-0.00510323
-0.00275571
-0.433271
-0.231048
-0.257162
-0.1428
-0.127711
-0.0800597
-0.0666668
-0.0435496
-0.0345457
-0.023551
-0.0175099
-0.0122216
-0.00851046
-0.00549967
-0.00311717
-0.409704
-0.244178
-0.266376
-0.150116
-0.132561
-0.083701
-0.0687556
-0.04508
-0.0353367
-0.0241692
-0.0178821
-0.0125587
-0.00882316
-0.00581005
-0.00341548
-0.386539
-0.259661
-0.27609
-0.157494
-0.137395
-0.0871558
-0.0706023
-0.0463614
-0.0358644
-0.0245565
-0.0180642
-0.0127408
-0.00901553
-0.00603102
-0.00365
-0.364619
-0.278122
-0.286353
-0.164978
-0.142223
-0.0904196
-0.0722024
-0.0473686
-0.0361211
-0.0246924
-0.0180441
-0.012765
-0.00908609
-0.00616352
-0.00381718
-0.344892
-0.300276
-0.297188
-0.172616
-0.147052
-0.0934852
-0.0735518
-0.0480795
-0.0360901
-0.0245588
-0.0178106
-0.0126258
-0.00903667
-0.00620774
-0.00391428
-0.328412
-0.326964
-0.308568
-0.180453
-0.151894
-0.0963505
-0.0746366
-0.0484777
-0.0357476
-0.0241381
-0.0173517
-0.0123207
-0.0088678
-0.00616402
-0.00394689
-0.31635
-0.359175
-0.320391
-0.188538
-0.156762
-0.0990184
-0.0754376
-0.0485493
-0.0350696
-0.0234099
-0.0166568
-0.0118447
-0.00858197
-0.00604282
-0.00391337
-0.310013
-0.398012
-0.332449
-0.196928
-0.161666
-0.101492
-0.0759381
-0.0482796
-0.0340327
-0.0223535
-0.0157121
-0.0111973
-0.00818632
-0.00584114
-0.0038349
-0.310887
-0.444476
-0.344456
-0.205698
-0.166617
-0.103774
-0.0761266
-0.0476524
-0.032613
-0.0209464
-0.0145063
-0.0103761
-0.00768785
-0.00558526
-0.0037011
-0.320523
-0.498806
-0.356214
-0.214945
-0.171624
-0.105865
-0.075998
-0.0466522
-0.0307859
-0.0191656
-0.013025
-0.00938663
-0.00710457
-0.00526343
-0.0035634
-0.340063
-0.55948
-0.367545
-0.224796
-0.176695
-0.107768
-0.0755544
-0.0452671
-0.028529
-0.016984
-0.0112574
-0.00823202
-0.00645764
-0.00491998
-0.00338604
-0.36929
-0.621963
-0.378219
-0.235408
-0.181823
-0.109494
-0.0748078
-0.0434909
-0.0258236
-0.01437
-0.0091907
-0.00692965
-0.00577649
-0.00454873
-0.00326304
-0.405857
-0.678384
-0.387972
-0.246956
-0.186991
-0.11106
-0.073782
-0.0413265
-0.0226534
-0.0112896
-0.00681764
-0.00549715
-0.0051048
-0.00422535
-0.00310231
-0.445442
-0.719754
-0.396754
-0.259491
-0.192164
-0.1125
-0.0725167
-0.0387902
-0.0190072
-0.00770865
-0.00413264
-0.00397736
-0.00447249
-0.00402296
-0.00296749
-0.484096
-0.740157
-0.405079
-0.2728
-0.19731
-0.113864
-0.0710717
-0.0359174
-0.0148843
-0.00359536
-0.00113363
-0.00243283
-0.00392004
-0.00406101
-0.00272456
-0.519662
-0.739628
-0.413893
-0.286614
-0.20242
-0.115225
-0.0695328
-0.0327723
-0.0103067
0.00107775
0.00216341
-0.000946781
-0.00347988
-0.00444006
-0.00241675
-0.551909
-0.723458
-0.42427
-0.300745
-0.207524
-0.116683
-0.0680213
-0.0294553
-0.00533082
0.0063304
0.00572229
0.000356278
-0.00318665
-0.0052366
-0.00251777
-0.581624
-0.699138
-0.437081
-0.315113
-0.21269
-0.118369
-0.066702
-0.0261204
-7.93937e-05
0.0121572
0.00943695
0.00137558
-0.00330045
-0.0063696
-0.00344245
-0.609653
-0.673179
-0.452787
-0.329712
-0.218009
-0.120448
-0.0657963
-0.0229948
0.0052302
0.0185124
0.0131062
0.00201293
-0.00416068
-0.00791698
-0.00492646
-0.636481
-0.64967
-0.471402
-0.344549
-0.223573
-0.123119
-0.065587
-0.0204021
0.0102495
0.0252206
0.0164307
0.00205365
-0.00603138
-0.0101666
-0.00667491
-0.662174
-0.630455
-0.492597
-0.359559
-0.229479
-0.126612
-0.0664408
-0.0188379
0.0143688
0.031793
0.0190313
0.00111624
-0.00922906
-0.0134109
-0.00880732
-0.686484
-0.615933
-0.515824
-0.374525
-0.235845
-0.131166
-0.0688277
-0.0190296
0.0167392
0.0372919
0.020409
-0.00137856
-0.0142955
-0.0179722
-0.0117033
-0.708998
-0.605743
-0.54042
-0.389099
-0.242747
-0.137048
-0.0732002
-0.0220641
0.0160676
0.0397504
0.0197653
-0.00628112
-0.0221964
-0.0243211
-0.0157237
-0.729252
-0.599202
-0.565637
-0.402854
-0.250209
-0.144489
-0.079879
-0.0302757
0.00838465
0.0344426
0.0162157
-0.0142292
-0.0341048
-0.0330587
-0.0211987
-0.746731
-0.595601
-0.590361
-0.415421
-0.258318
-0.153397
-0.0894972
-0.0470735
-0.0141817
0.0128077
0.00798408
-0.0251849
-0.0505116
-0.0447656
-0.0286672
-0.760919
-0.59418
-0.613138
-0.426504
-0.267159
-0.163503
-0.103241
-0.073664
-0.0540479
-0.0288775
-0.00818549
-0.0391667
-0.0709334
-0.0596045
-0.038661
-0.771377
-0.594084
-0.632444
-0.435874
-0.27658
-0.174883
-0.121158
-0.104557
-0.102301
-0.0785822
-0.0344775
-0.055846
-0.0939908
-0.0771258
-0.0513705
-0.777825
-0.594436
-0.646896
-0.443365
-0.286116
-0.187778
-0.14074
-0.131238
-0.143523
-0.122639
-0.0665696
-0.0745666
-0.117264
-0.0965646
-0.0667069
-0.780288
-0.594394
-0.655413
-0.448838
-0.295213
-0.202048
-0.159037
-0.150613
-0.172273
-0.156123
-0.0982308
-0.0961804
-0.138183
-0.116864
-0.084109
-0.779128
-0.593301
-0.657306
-0.452131
-0.303488
-0.217105
-0.174309
-0.164699
-0.190423
-0.179566
-0.125323
-0.119997
-0.154814
-0.136312
-0.102878
-0.774631
-0.590846
-0.652304
-0.45305
-0.310808
-0.232132
-0.187141
-0.178073
-0.20295
-0.19582
-0.145894
-0.140447
-0.164661
-0.152763
-0.122016
-0.766541
-0.586974
-0.640507
-0.451392
-0.317167
-0.246295
-0.199383
-0.193542
-0.21425
-0.207837
-0.161152
-0.152298
-0.165962
-0.164473
-0.139729
-0.755804
-0.581243
-0.622287
-0.447
-0.322515
-0.258998
-0.212668
-0.211829
-0.226453
-0.216944
-0.17311
-0.1564
-0.164056
-0.172064
-0.15465
-0.743182
-0.573968
-0.598097
-0.439834
-0.326618
-0.269999
-0.227813
-0.232922
-0.239864
-0.2231
-0.182254
-0.157416
-0.164257
-0.178192
-0.167064
-0.729343
-0.565414
-0.568381
-0.429994
-0.32901
-0.27923
-0.244575
-0.256374
-0.254044
-0.22623
-0.187106
-0.157866
-0.167777
-0.185226
-0.177565
-0.1471
-0.146581
-0.173316
-0.16492
-0.134468
-0.142754
-0.155572
-0.136693
-0.140786
-0.152791
-0.120035
-0.0812909
-0.0619345
-0.0344298
-0.026348
-0.0190188
-0.0151499
-0.0128593
-0.0106401
-0.00889434
-0.00806497
-0.00673437
-0.00582445
-0.00570133
-0.00448977
-0.00386062
-0.00436616
-0.00338586
-0.00224719
-0.00406506
-0.00317719
-0.000916249
-0.0024089
-0.00298266
-0.00118506
0.00208455
-0.0020094
-0.00834438
-0.00179113
0.00108559
-0.138341
-0.131432
-0.15651
-0.151225
-0.126444
-0.137602
-0.151621
-0.131357
-0.126511
-0.135795
-0.111557
-0.0779139
-0.0608448
-0.0351053
-0.026576
-0.018403
-0.0147624
-0.0131658
-0.0106847
-0.0086717
-0.00829667
-0.00665583
-0.00559544
-0.00606736
-0.00440581
-0.00346071
-0.00474657
-0.00354692
-0.0016651
-0.00414219
-0.00380176
-0.000534023
-0.00177134
-0.00316945
-0.00175437
0.00235239
-0.00100521
-0.00811857
-0.00223783
0.000848897
-0.122797
-0.112557
-0.137441
-0.134807
-0.112394
-0.124289
-0.13948
-0.118301
-0.107941
-0.114919
-0.0984208
-0.0715891
-0.05827
-0.0352887
-0.0265612
-0.0176685
-0.0143167
-0.0134429
-0.0107199
-0.00843115
-0.00851657
-0.00657306
-0.00534519
-0.00641524
-0.00430508
-0.00304581
-0.00509879
-0.00366226
-0.00108747
-0.00419158
-0.00438523
-0.000102885
-0.00114953
-0.00334386
-0.0022793
0.00268632
-3.66115e-05
-0.00794856
-0.00269505
0.000635118
-0.102922
-0.0944861
-0.119541
-0.117792
-0.094617
-0.104121
-0.120713
-0.0997525
-0.0879015
-0.0932003
-0.0824518
-0.0625774
-0.0542215
-0.0350078
-0.0263187
-0.0168308
-0.0138106
-0.0136834
-0.0107496
-0.00817236
-0.00871853
-0.00649495
-0.00507853
-0.00673362
-0.00419844
-0.00262579
-0.00541237
-0.00374073
-0.000535794
-0.00421419
-0.0049144
0.000356774
-0.000564071
-0.00351057
-0.00275285
0.0030721
0.000862656
-0.00784744
-0.00316133
0.000447537
-0.0815349
-0.0802597
-0.104165
-0.100958
-0.0755567
-0.0798809
-0.0982565
-0.078637
-0.0684319
-0.0732163
-0.0655285
-0.0514944
-0.0488933
-0.0343099
-0.0258545
-0.0159105
-0.0132494
-0.0138803
-0.0107761
-0.00789906
-0.0088971
-0.00642902
-0.00480159
-0.00701336
-0.00409687
-0.00221417
-0.00568024
-0.00379399
-2.81011e-05
-0.00421263
-0.00537963
0.000823342
-3.20717e-05
-0.00367482
-0.00317149
0.00349142
0.00170212
-0.00782186
-0.00363454
0.000287374
-0.0594111
-0.0693339
-0.0904217
-0.0849674
-0.0570839
-0.0555152
-0.0751075
-0.0578577
-0.0507653
-0.056017
-0.0490394
-0.0392124
-0.0427771
-0.0332168
-0.0251697
-0.0149341
-0.0126437
-0.0140234
-0.0108004
-0.00761737
-0.00904579
-0.00638075
-0.00452247
-0.00724716
-0.00401026
-0.00182609
-0.00589763
-0.00383366
0.00042237
-0.00419073
-0.00577633
0.00127353
0.00043308
-0.00383946
-0.0035343
0.00392476
0.00239824
-0.00787355
-0.00411133
0.000153958
-0.0365842
-0.0587717
-0.0769549
-0.0700736
-0.0402592
-0.0340506
-0.0537992
-0.0397608
-0.0355981
-0.0424129
-0.0339519
-0.0268597
-0.0361578
-0.0317139
-0.0242634
-0.0139371
-0.0120138
-0.0141005
-0.0108223
-0.00733399
-0.00915746
-0.00635411
-0.0042513
-0.00742918
-0.00394715
-0.00147544
-0.00606104
-0.00386987
0.000817999
-0.00415223
-0.00610464
0.00168609
0.000822697
-0.00400386
-0.0038426
0.00435252
0.00295326
-0.00799801
-0.00458649
4.49635e-05
-0.0147244
-0.0469636
-0.0635255
-0.0564311
-0.0264273
-0.016624
-0.0355045
-0.0250908
-0.023094
-0.0319033
-0.0209891
-0.0154366
-0.0293529
-0.0297993
-0.0231521
-0.0129567
-0.0113862
-0.0140992
-0.0108395
-0.00705663
-0.00922542
-0.00635128
-0.00399878
-0.00755477
-0.00391375
-0.00117334
-0.00616821
-0.00391035
0.00116679
-0.00410034
-0.00636723
0.0020439
0.00113322
-0.00416399
-0.00409953
0.00475395
0.00336382
-0.0081842
-0.00505282
-4.2932e-05
0.000172864
-0.0344145
-0.0496228
-0.0440961
-0.0161916
-0.00349702
-0.0198943
-0.0134144
-0.0131276
-0.0239088
-0.0106335
-0.00570289
-0.0228487
-0.0275267
-0.0218745
-0.0120241
-0.0107662
-0.014009
-0.0108478
-0.00679502
-0.00924473
-0.0063728
-0.00377412
-0.00762082
-0.00391361
-0.000927162
-0.00621804
-0.00395976
0.00142826
-0.00403756
-0.00656669
0.00233415
0.00136553
-0.00431291
-0.00430884
0.00510997
0.00363362
-0.00841518
-0.00550322
-0.000113831
0.00695102
-0.0216019
-0.0358163
-0.033193
-0.0093957
0.00536656
-0.00774334
-0.00454254
-0.00559537
-0.0178576
-0.00290441
0.0019868
-0.016737
-0.0250059
-0.0204764
-0.0111633
-0.0101652
-0.0138238
-0.0108394
-0.00655885
-0.00921296
-0.00641674
-0.00358411
-0.00762609
-0.00394727
-0.000740437
-0.0062107
-0.00401912
0.00160814
-0.00396387
-0.00670468
0.00254851
0.00152448
-0.00444144
-0.00447354
0.00540477
0.00377341
-0.0086689
-0.00604733
-0.000172499
0.00885552