/*--------------------------------*- C++ -*----------------------------------*\
  =========                 |
  \\      /  F ield         | OpenFOAM: The Open Source CFD Toolbox
   \\    /   O peration     | Website:  https://openfoam.org
    \\  /    A nd           | Version:  7
     \\/     M anipulation  |
\*---------------------------------------------------------------------------*/
FoamFile
{
    version     2.0;
    format      ascii;
    class       volVectorField;
    location    "5";
    object      U;
}
// * * * * * * * * * * * * * * * * * * * * * * * * * * * * * * * * * * * * * //

dimensions      [0 1 -1 0 0 0 0];

internalField   nonuniform List<vector> 
607
(
(0.998288 -9.43969e-06 -1.04318e-24)
(0.998399 -8.54478e-06 -3.14619e-24)
(0.998502 -7.73493e-06 3.28157e-25)
(0.998598 -7.0009e-06 1.63796e-25)
(0.998687 -6.33454e-06 -3.51625e-24)
(0.998769 -5.72864e-06 -1.01549e-24)
(0.998846 -5.17686e-06 -4.65076e-25)
(0.998917 -4.67364e-06 -1.85746e-24)
(0.998982 -4.21398e-06 1.4937e-24)
(0.999042 -3.79345e-06 -4.06606e-25)
(0.999098 -3.40803e-06 1.02909e-24)
(0.99915 -3.05408e-06 9.9095e-25)
(0.999197 -2.72842e-06 -8.09722e-26)
(0.99924 -2.4275e-06 1.65658e-25)
(0.999279 -2.15086e-06 -3.10121e-26)
(0.999315 -1.88839e-06 6.70753e-25)
(0.999347 -1.65991e-06 3.61745e-25)
(0.999376 -1.40778e-06 2.92886e-25)
(0.9994 -1.25041e-06 1.97925e-25)
(0.999425 -9.63941e-07 -1.55019e-25)
(0.999439 -8.95498e-07 -3.68225e-26)
(0.999463 -5.73159e-07 4.24315e-26)
(0.998288 -2.83229e-05 -1.76274e-24)
(0.998399 -2.56378e-05 2.39137e-24)
(0.998502 -2.3208e-05 6.53856e-24)
(0.998598 -2.10056e-05 -3.11111e-24)
(0.998687 -1.90063e-05 -7.20071e-24)
(0.99877 -1.71884e-05 5.7037e-24)
(0.998846 -1.55329e-05 -3.13649e-24)
(0.998917 -1.4023e-05 2.2444e-24)
(0.998982 -1.26439e-05 -1.26043e-24)
(0.999043 -1.13821e-05 -4.59426e-24)
(0.999098 -1.02257e-05 -4.97128e-24)
(0.99915 -9.16373e-06 3.53908e-24)
(0.999197 -8.18663e-06 2.47853e-24)
(0.99924 -7.28373e-06 -1.1513e-24)
(0.999279 -6.4537e-06 -4.27072e-24)
(0.999315 -5.66616e-06 -1.67963e-24)
(0.999347 -4.98059e-06 -1.87927e-24)
(0.999377 -4.2241e-06 -6.90323e-25)
(0.9994 -3.75185e-06 1.37327e-25)
(0.999426 -2.89232e-06 6.73885e-25)
(0.999439 -2.6869e-06 -2.24096e-25)
(0.999463 -1.71964e-06 -1.50131e-25)
(0.998288 -4.7205e-05 -1.56447e-23)
(0.998399 -4.27297e-05 -1.81168e-24)
(0.998503 -3.86799e-05 -6.97973e-24)
(0.998598 -3.50092e-05 1.26969e-23)
(0.998687 -3.1677e-05 -2.4542e-25)
(0.99877 -2.86471e-05 8.25186e-24)
(0.998846 -2.58879e-05 6.88912e-24)
(0.998917 -2.33714e-05 -7.11615e-25)
(0.998982 -2.10729e-05 3.69381e-25)
(0.999043 -1.89699e-05 7.48217e-24)
(0.999098 -1.70426e-05 -6.16055e-24)
(0.99915 -1.52726e-05 -4.69347e-24)
(0.999197 -1.36441e-05 8.10587e-25)
(0.99924 -1.21393e-05 4.89237e-24)
(0.99928 -1.0756e-05 1.29707e-24)
(0.999315 -9.44344e-06 1.81631e-24)
(0.999347 -8.3008e-06 1.16354e-24)
(0.999377 -7.04006e-06 2.90607e-24)
(0.9994 -6.25287e-06 3.86256e-25)
(0.999426 -4.82039e-06 -7.17143e-26)
(0.999439 -4.47799e-06 5.12453e-25)
(0.999463 -2.86575e-06 6.90559e-25)
(0.998288 -6.60855e-05 5.71007e-24)
(0.9984 -5.982e-05 1.7249e-23)
(0.998503 -5.41501e-05 1.28026e-23)
(0.998599 -4.90111e-05 -9.62762e-24)
(0.998687 -4.43459e-05 9.99481e-24)
(0.99877 -4.01041e-05 -1.07052e-23)
(0.998846 -3.62412e-05 -6.35901e-24)
(0.998917 -3.27183e-05 -1.38055e-23)
(0.998982 -2.95004e-05 -4.62485e-24)
(0.999043 -2.65564e-05 -1.17739e-23)
(0.999099 -2.38582e-05 9.3858e-24)
(0.99915 -2.13804e-05 7.28323e-24)
(0.999197 -1.91006e-05 -7.05498e-24)
(0.99924 -1.6994e-05 2.9732e-25)
(0.99928 -1.50574e-05 1.7874e-24)
(0.999315 -1.322e-05 -1.47339e-24)
(0.999347 -1.16203e-05 -4.05714e-24)
(0.999377 -9.85549e-06 -2.54344e-24)
(0.999401 -8.75326e-06 -4.82141e-24)
(0.999426 -6.74801e-06 1.92683e-24)
(0.999439 -6.26857e-06 1.19185e-24)
(0.999463 -4.01127e-06 -6.47645e-25)
(0.998289 -8.49638e-05 -2.4727e-23)
(0.9984 -7.69078e-05 2.24817e-23)
(0.998503 -6.96178e-05 -9.53888e-25)
(0.998599 -6.30105e-05 -7.651e-24)
(0.998688 -5.70124e-05 4.76377e-24)
(0.99877 -5.15587e-05 -6.08329e-24)
(0.998846 -4.65923e-05 2.90448e-24)
(0.998917 -4.20629e-05 7.36634e-24)
(0.998983 -3.79258e-05 9.8956e-24)
(0.999043 -3.41409e-05 1.5635e-23)
(0.999099 -3.0672e-05 6.58021e-24)
(0.99915 -2.74865e-05 3.20661e-24)
(0.999197 -2.45556e-05 6.5898e-24)
(0.99924 -2.18473e-05 -7.15516e-24)
(0.99928 -1.93576e-05 5.3227e-24)
(0.999316 -1.69955e-05 1.25304e-24)
(0.999347 -1.49388e-05 5.93197e-24)
(0.999377 -1.26702e-05 -2.26627e-24)
(0.999401 -1.12528e-05 6.99265e-24)
(0.999426 -8.67498e-06 -1.79079e-24)
(0.999439 -8.05843e-06 -3.07584e-24)
(0.999463 -5.15595e-06 2.63467e-25)
(0.998289 -0.000103839 1.24175e-23)
(0.9984 -9.39925e-05 -2.81195e-23)
(0.998504 -8.50823e-05 -1.23396e-23)
(0.998599 -7.70067e-05 -7.80199e-25)
(0.998688 -6.96758e-05 -1.85829e-23)
(0.99877 -6.30103e-05 2.69808e-23)
(0.998847 -5.69404e-05 -9.34946e-24)
(0.998917 -5.14048e-05 -1.26506e-23)
(0.998983 -4.63486e-05 -2.27239e-25)
(0.999043 -4.17229e-05 -6.48509e-24)
(0.999099 -3.74836e-05 3.38946e-24)
(0.99915 -3.35905e-05 -2.04896e-23)
(0.999197 -3.00087e-05 1.01185e-24)
(0.999241 -2.6699e-05 4.75416e-24)
(0.99928 -2.36563e-05 -1.02892e-23)
(0.999316 -2.07696e-05 -3.96801e-24)
(0.999348 -1.8256e-05 -5.0069e-24)
(0.999377 -1.54839e-05 2.93517e-24)
(0.999401 -1.37511e-05 -2.93741e-24)
(0.999426 -1.06011e-05 1.88855e-24)
(0.999439 -9.84738e-06 1.59204e-24)
(0.999464 -6.29954e-06 -7.81712e-25)
(0.99829 -0.000122711 4.4451e-24)
(0.998401 -0.000111073 2.39906e-23)
(0.998504 -0.000100543 7.04009e-24)
(0.9986 -9.09991e-05 4.51211e-24)
(0.998688 -8.23354e-05 -1.04217e-23)
(0.998771 -7.44582e-05 1.03824e-23)
(0.998847 -6.7285e-05 6.95447e-25)
(0.998918 -6.07432e-05 1.85485e-23)
(0.998983 -5.47682e-05 1.78933e-23)
(0.999043 -4.93019e-05 -6.69221e-24)
(0.999099 -4.42923e-05 -2.69391e-23)
(0.999151 -3.96919e-05 9.27452e-24)
(0.999198 -3.54594e-05 1.13127e-24)
(0.999241 -3.15484e-05 1.07918e-23)
(0.99928 -2.79531e-05 3.52338e-24)
(0.999316 -2.45421e-05 5.3255e-24)
(0.999348 -2.15717e-05 2.75127e-24)
(0.999377 -1.82964e-05 -3.5995e-24)
(0.999401 -1.6248e-05 -1.82641e-24)
(0.999426 -1.25262e-05 -1.42724e-24)
(0.99944 -1.16352e-05 2.67186e-24)
(0.999464 -7.44182e-06 3.11276e-25)
(0.99829 -0.000141578 1.65794e-23)
(0.998401 -0.00012815 -1.14274e-23)
(0.998505 -0.000115999 1.88453e-23)
(0.9986 -0.000104987 -8.93743e-24)
(0.998689 -9.49904e-05 -5.43085e-24)
(0.998771 -8.59016e-05 -5.09204e-23)
(0.998847 -7.76252e-05 3.03321e-23)
(0.998918 -7.00775e-05 -1.64159e-23)
(0.998983 -6.31839e-05 -4.03311e-25)
(0.999044 -5.68773e-05 -1.20458e-23)
(0.9991 -5.10977e-05 2.47983e-23)
(0.999151 -4.57902e-05 1.19761e-23)
(0.999198 -4.09074e-05 -3.09503e-24)
(0.999241 -3.63954e-05 -2.23892e-23)
(0.99928 -3.22477e-05 -1.81324e-24)
(0.999316 -2.83127e-05 -7.66156e-24)
(0.999348 -2.48855e-05 -6.4463e-24)
(0.999377 -2.11075e-05 4.85722e-24)
(0.999401 -1.87433e-05 2.55097e-24)
(0.999426 -1.44501e-05 2.66196e-24)
(0.99944 -1.34217e-05 -3.74287e-24)
(0.999464 -8.58254e-06 7.95745e-27)
(0.998291 -0.000160441 -7.00515e-23)
(0.998402 -0.000145221 3.09186e-23)
(0.998505 -0.00013145 -4.99441e-23)
(0.998601 -0.000118969 4.40026e-23)
(0.998689 -0.00010764 -9.11799e-24)
(0.998772 -9.73399e-05 2.25301e-23)
(0.998848 -8.79605e-05 -1.95927e-23)
(0.998918 -7.94071e-05 4.48861e-24)
(0.998984 -7.15951e-05 -1.21465e-23)
(0.999044 -6.44486e-05 2.19656e-23)
(0.9991 -5.78993e-05 -8.84396e-24)
(0.999151 -5.18851e-05 -4.01187e-24)
(0.999198 -4.63522e-05 7.53467e-24)
(0.999242 -4.12396e-05 1.65301e-23)
(0.999281 -3.65396e-05 7.14479e-24)
(0.999317 -3.20809e-05 2.34894e-24)
(0.999348 -2.81971e-05 7.85475e-24)
(0.999378 -2.3917e-05 4.70205e-24)
(0.999402 -2.12366e-05 -5.52955e-24)
(0.999427 -1.63726e-05 -1.83553e-24)
(0.99944 -1.52066e-05 2.00667e-24)
(0.999464 -9.72146e-06 1.05462e-24)
(0.998292 -0.000179298 9.01252e-23)
(0.998403 -0.000162286 -3.1637e-25)
(0.998506 -0.000146894 -2.3052e-23)
(0.998601 -0.000132945 -4.21212e-24)
(0.99869 -0.000120284 3.12633e-23)
(0.998772 -0.000108772 -4.5612e-24)
(0.998848 -9.82902e-05 -8.23684e-24)
(0.998919 -8.87314e-05 9.42162e-24)
(0.998984 -8.00013e-05 -5.32596e-24)
(0.999045 -7.20151e-05 4.99428e-24)
(0.9991 -6.46964e-05 -3.189e-24)
(0.999152 -5.79759e-05 -2.19838e-23)
(0.999199 -5.17933e-05 -1.61318e-23)
(0.999242 -4.60804e-05 1.29631e-23)
(0.999281 -4.08286e-05 -1.56555e-23)
(0.999317 -3.58467e-05 1.87034e-24)
(0.999349 -3.15063e-05 -2.16327e-25)
(0.999378 -2.67246e-05 6.23912e-25)
(0.999402 -2.37277e-05 4.47181e-24)
(0.999427 -1.82936e-05 -1.02561e-24)
(0.99944 -1.69899e-05 9.82923e-25)
(0.999464 -1.08584e-05 2.74717e-25)
(0.998293 -0.000198148 1.66752e-23)
(0.998404 -0.000179344 -3.86361e-24)
(0.998507 -0.000162332 -5.69144e-25)
(0.998602 -0.000146914 5.08974e-23)
(0.998691 -0.000132921 -1.13531e-23)
(0.998773 -0.000120198 -5.95982e-24)
(0.998849 -0.000108614 -8.17067e-24)
(0.998919 -9.80496e-05 8.29225e-24)
(0.998985 -8.84017e-05 4.87617e-24)
(0.999045 -7.95762e-05 3.63182e-24)
(0.999101 -7.14887e-05 1.5481e-23)
(0.999152 -6.40622e-05 -1.26702e-23)
(0.999199 -5.72304e-05 7.45775e-24)
(0.999242 -5.09176e-05 8.09686e-24)
(0.999282 -4.51144e-05 1.4642e-23)
(0.999317 -3.96095e-05 -1.19365e-24)
(0.999349 -3.48128e-05 -1.23046e-23)
(0.999378 -2.95302e-05 -9.16174e-25)
(0.999402 -2.62164e-05 -1.42248e-24)
(0.999427 -2.02127e-05 -1.4357e-25)
(0.999441 -1.87711e-05 -5.92647e-24)
(0.999465 -1.1993e-05 -1.27063e-24)
(0.998294 -0.000216991 -3.4205e-23)
(0.998405 -0.000196395 4.63278e-24)
(0.998507 -0.000177761 -3.73899e-23)
(0.998603 -0.000160876 1.12232e-23)
(0.998691 -0.00014555 -3.6342e-23)
(0.998773 -0.000131617 -1.88985e-23)
(0.998849 -0.00011893 5.66061e-23)
(0.99892 -0.000107361 -2.2208e-23)
(0.998985 -9.67959e-05 -2.12099e-24)
(0.999046 -8.71315e-05 -2.50801e-23)
(0.999101 -7.82755e-05 -1.48913e-23)
(0.999153 -7.01436e-05 -1.367e-24)
(0.9992 -6.26629e-05 2.78502e-23)
(0.999243 -5.57506e-05 -2.01642e-23)
(0.999282 -4.93965e-05 -4.06556e-24)
(0.999318 -4.33692e-05 -4.64454e-26)
(0.99935 -3.81162e-05 2.1209e-23)
(0.999379 -3.23334e-05 -1.54316e-23)
(0.999403 -2.87024e-05 -8.49917e-25)
(0.999428 -2.213e-05 5.59885e-24)
(0.999441 -2.05503e-05 1.32138e-24)
(0.999465 -1.31251e-05 -8.71878e-25)
(0.998295 -0.000235826 -1.50331e-23)
(0.998406 -0.000213437 -7.88595e-24)
(0.998508 -0.000193183 2.10365e-23)
(0.998604 -0.000174829 -1.4916e-23)
(0.998692 -0.000158171 2.80838e-23)
(0.998774 -0.000143027 -3.49355e-23)
(0.99885 -0.000129238 2.06041e-25)
(0.998921 -0.000116665 2.20394e-23)
(0.998986 -0.000105183 4.99783e-23)
(0.999046 -9.46803e-05 -1.43301e-23)
(0.999102 -8.50564e-05 1.02835e-23)
(0.999153 -7.62194e-05 1.56087e-23)
(0.9992 -6.80905e-05 -2.67887e-23)
(0.999243 -6.05793e-05 -6.81051e-24)
(0.999282 -5.36746e-05 -2.08078e-23)
(0.999318 -4.71254e-05 1.17884e-23)
(0.99935 -4.14164e-05 -1.07605e-23)
(0.999379 -3.51342e-05 1.20389e-23)
(0.999403 -3.11855e-05 6.52589e-24)
(0.999428 -2.40451e-05 -3.34705e-24)
(0.999441 -2.23271e-05 -1.03591e-24)
(0.999465 -1.42545e-05 -1.18412e-24)
(0.998775 -0.000154429 3.63916e-23)
(0.998851 -0.000139538 -2.89985e-23)
(0.998921 -0.000125961 -2.99698e-23)
(0.998987 -0.000113563 -6.57129e-23)
(0.999047 -0.000102222 7.45371e-23)
(0.999102 -9.18307e-05 -8.67902e-24)
(0.999154 -8.22893e-05 -2.86424e-23)
(0.999201 -7.35127e-05 1.45019e-23)
(0.999244 -6.5403e-05 -5.32312e-24)
(0.999283 -5.79483e-05 9.69059e-24)
(0.999319 -5.08778e-05 -1.46913e-23)
(0.99935 -4.47129e-05 -5.28357e-24)
(0.99938 -3.79322e-05 -6.33266e-24)
(0.999404 -3.36653e-05 -7.7212e-24)
(0.999428 -2.5958e-05 -6.88408e-25)
(0.999442 -2.41013e-05 5.63259e-24)
(0.999466 -1.53809e-05 3.6572e-24)
(0.998693 0.000170787 -1.09656e-23)
(0.998775 0.000154432 -3.229e-23)
(0.998851 0.000139541 1.28908e-23)
(0.998921 0.000125964 -1.35272e-24)
(0.998987 0.000113565 -5.79594e-24)
(0.999047 0.000102224 -1.10233e-23)
(0.999102 9.18328e-05 -4.11056e-24)
(0.999154 8.22913e-05 1.20651e-24)
(0.999201 7.35145e-05 1.04417e-23)
(0.999244 6.54046e-05 4.61608e-24)
(0.999283 5.79498e-05 2.98264e-23)
(0.999319 5.0879e-05 -2.73613e-24)
(0.99935 4.47141e-05 3.70528e-24)
(0.99938 3.79332e-05 6.61932e-24)
(0.999404 3.36661e-05 -1.72304e-24)
(0.999428 2.59586e-05 -3.99834e-24)
(0.999442 2.41018e-05 8.49199e-25)
(0.999466 1.53812e-05 6.78824e-25)
(0.998295 0.000235831 8.0956e-23)
(0.998406 0.000213441 -5.97618e-24)
(0.998508 0.000193187 4.11146e-23)
(0.998604 0.000174833 -4.55718e-23)
(0.998692 0.000158175 7.9675e-24)
(0.998774 0.00014303 -1.5244e-23)
(0.99885 0.000129241 -1.30664e-23)
(0.998921 0.000116668 2.93972e-23)
(0.998986 0.000105186 5.51237e-23)
(0.999046 9.46827e-05 -1.8025e-23)
(0.999102 8.50585e-05 7.86327e-24)
(0.999153 7.62214e-05 2.46979e-23)
(0.9992 6.80923e-05 -3.25054e-23)
(0.999243 6.05809e-05 -1.07707e-23)
(0.999282 5.3676e-05 -1.80685e-23)
(0.999318 4.71267e-05 8.25216e-24)
(0.99935 4.14175e-05 -5.86726e-24)
(0.999379 3.51352e-05 7.4469e-24)
(0.999403 3.11863e-05 7.53069e-24)
(0.999428 2.40458e-05 -3.37395e-24)
(0.999441 2.23276e-05 -7.72799e-25)
(0.999465 1.42548e-05 -1.17684e-24)
(0.998294 0.000216996 3.68852e-23)
(0.998405 0.000196399 -6.31574e-23)
(0.998507 0.000177765 -5.82986e-23)
(0.998603 0.00016088 1.27375e-24)
(0.998691 0.000145554 6.91148e-24)
(0.998773 0.00013162 2.31333e-23)
(0.998849 0.000118933 8.98863e-24)
(0.99892 0.000107364 -2.28392e-23)
(0.998985 9.67985e-05 -1.29365e-23)
(0.999046 8.71339e-05 -2.60951e-23)
(0.999101 7.82777e-05 2.18849e-24)
(0.999153 7.01456e-05 -2.42724e-25)
(0.9992 6.26647e-05 1.80491e-23)
(0.999243 5.57523e-05 -7.54151e-24)
(0.999282 4.93979e-05 -1.24277e-23)
(0.999318 4.33705e-05 3.20672e-24)
(0.99935 3.81174e-05 1.81609e-23)
(0.999379 3.23344e-05 -1.24976e-23)
(0.999403 2.87032e-05 -2.41195e-24)
(0.999428 2.21306e-05 5.22111e-24)
(0.999441 2.05508e-05 1.53319e-24)
(0.999465 1.31254e-05 -8.21751e-25)
(0.998293 0.000198153 -4.48837e-23)
(0.998404 0.000179348 4.20114e-23)
(0.998507 0.000162336 2.98778e-23)
(0.998602 0.000146918 2.38883e-24)
(0.998691 0.000132924 -1.26455e-23)
(0.998773 0.000120201 2.18301e-24)
(0.998849 0.000108617 -1.13957e-23)
(0.998919 9.80524e-05 2.2497e-23)
(0.998985 8.84043e-05 -1.2429e-23)
(0.999045 7.95786e-05 3.75733e-24)
(0.999101 7.14909e-05 1.54748e-23)
(0.999152 6.40642e-05 -1.44307e-24)
(0.999199 5.72322e-05 1.67984e-23)
(0.999242 5.09192e-05 -7.84054e-24)
(0.999282 4.51158e-05 2.19057e-23)
(0.999317 3.96108e-05 -9.27578e-27)
(0.999349 3.48139e-05 -1.0864e-23)
(0.999378 2.95311e-05 -4.24231e-24)
(0.999402 2.62172e-05 -1.30875e-24)
(0.999427 2.02134e-05 1.05828e-26)
(0.999441 1.87717e-05 -5.54661e-24)
(0.999465 1.19933e-05 -1.14988e-24)
(0.998292 0.000179302 -4.86237e-23)
(0.998403 0.00016229 6.12068e-23)
(0.998506 0.000146898 -1.69392e-23)
(0.998601 0.000132949 -1.48773e-23)
(0.99869 0.000120287 2.58986e-24)
(0.998772 0.000108776 2.04271e-23)
(0.998848 9.82932e-05 4.60952e-24)
(0.998919 8.87342e-05 -1.13041e-23)
(0.998984 8.00039e-05 1.83956e-23)
(0.999045 7.20174e-05 -1.22165e-23)
(0.9991 6.46986e-05 -6.94781e-24)
(0.999152 5.79779e-05 -1.42582e-23)
(0.999199 5.17951e-05 -2.10165e-23)
(0.999242 4.6082e-05 1.28493e-23)
(0.999281 4.08301e-05 -1.61741e-23)
(0.999317 3.5848e-05 6.07162e-24)
(0.999349 3.15074e-05 1.13493e-25)
(0.999378 2.67256e-05 -1.82175e-25)
(0.999402 2.37285e-05 6.06843e-24)
(0.999427 1.82942e-05 -1.63675e-24)
(0.99944 1.69904e-05 9.18218e-25)
(0.999464 1.08587e-05 2.12945e-25)
(0.998291 0.000160446 -1.15284e-23)
(0.998402 0.000145225 5.12505e-24)
(0.998505 0.000131454 1.27732e-23)
(0.998601 0.000118973 8.48835e-24)
(0.998689 0.000107644 -2.87208e-24)
(0.998772 9.73432e-05 2.87373e-23)
(0.998848 8.79636e-05 -3.03213e-23)
(0.998918 7.94099e-05 2.24384e-23)
(0.998984 7.15977e-05 -2.26132e-23)
(0.999044 6.4451e-05 3.26383e-24)
(0.9991 5.79014e-05 -5.67454e-24)
(0.999151 5.18871e-05 1.87129e-23)
(0.999198 4.6354e-05 8.73199e-25)
(0.999242 4.12412e-05 1.53559e-23)
(0.999281 3.65411e-05 9.4726e-24)
(0.999317 3.20822e-05 -4.14619e-24)
(0.999348 2.81982e-05 1.25361e-23)
(0.999378 2.39179e-05 3.64558e-24)
(0.999402 2.12374e-05 -5.02653e-24)
(0.999427 1.63733e-05 -2.50702e-24)
(0.99944 1.52072e-05 2.13511e-24)
(0.999464 9.72176e-06 1.09335e-24)
(0.99829 0.000141583 4.75141e-24)
(0.998401 0.000128154 -1.79915e-23)
(0.998505 0.000116003 -7.13186e-24)
(0.9986 0.000104991 -2.80136e-24)
(0.998689 9.4994e-05 1.75026e-23)
(0.998771 8.59049e-05 -4.4433e-23)
(0.998847 7.76283e-05 4.32406e-24)
(0.998918 7.00803e-05 1.14723e-23)
(0.998983 6.31865e-05 -2.18108e-23)
(0.999044 5.68797e-05 1.33269e-23)
(0.9991 5.10999e-05 1.61028e-23)
(0.999151 4.57922e-05 4.86042e-24)
(0.999198 4.09092e-05 -3.73755e-24)
(0.999241 3.63971e-05 -2.02556e-23)
(0.99928 3.22491e-05 2.28256e-26)
(0.999316 2.8314e-05 -6.91769e-24)
(0.999348 2.48866e-05 -8.61864e-24)
(0.999377 2.11085e-05 4.84648e-24)
(0.999401 1.87441e-05 1.62794e-24)
(0.999426 1.44508e-05 3.55054e-24)
(0.99944 1.34222e-05 -4.00207e-24)
(0.999464 8.58284e-06 5.14738e-26)
(0.99829 0.000122716 2.61889e-23)
(0.998401 0.000111078 -1.90634e-23)
(0.998504 0.000100547 3.71786e-23)
(0.9986 9.10029e-05 -1.80671e-25)
(0.998688 8.2339e-05 -6.10811e-24)
(0.998771 7.44615e-05 1.13669e-23)
(0.998847 6.7288e-05 6.76602e-24)
(0.998918 6.0746e-05 1.17211e-23)
(0.998983 5.47708e-05 1.74667e-23)
(0.999043 4.93043e-05 -1.16555e-23)
(0.999099 4.42945e-05 -2.48206e-23)
(0.999151 3.96939e-05 1.37553e-23)
(0.999198 3.54612e-05 -4.34226e-24)
(0.999241 3.15501e-05 1.14337e-23)
(0.99928 2.79546e-05 7.94536e-24)
(0.999316 2.45434e-05 1.99807e-24)
(0.999348 2.15728e-05 1.51809e-24)
(0.999377 1.82974e-05 -2.21506e-24)
(0.999401 1.62488e-05 -1.97475e-24)
(0.999426 1.25269e-05 -1.61409e-24)
(0.99944 1.16358e-05 2.91401e-24)
(0.999464 7.44212e-06 2.62289e-25)
(0.998289 0.000103844 4.38548e-25)
(0.9984 9.39969e-05 1.13091e-23)
(0.998504 8.50865e-05 -3.47292e-23)
(0.998599 7.70106e-05 -6.98258e-24)
(0.998688 6.96794e-05 -2.05325e-24)
(0.99877 6.30136e-05 1.41304e-23)
(0.998847 5.69435e-05 -3.2107e-24)
(0.998917 5.14076e-05 -2.95064e-23)
(0.998983 4.63512e-05 5.97447e-24)
(0.999043 4.17253e-05 -3.93612e-24)
(0.999099 3.74858e-05 -7.95996e-25)
(0.99915 3.35925e-05 -2.29837e-23)
(0.999197 3.00105e-05 5.4673e-24)
(0.999241 2.67006e-05 3.69555e-24)
(0.99928 2.36578e-05 -1.07701e-23)
(0.999316 2.07709e-05 -2.91948e-24)
(0.999348 1.82572e-05 -6.25565e-24)
(0.999377 1.54848e-05 2.95821e-24)
(0.999401 1.37519e-05 -2.50432e-24)
(0.999426 1.06018e-05 1.66957e-24)
(0.999439 9.84793e-06 1.66106e-24)
(0.999464 6.29984e-06 -7.94886e-25)
(0.998289 8.49686e-05 -1.59329e-23)
(0.9984 7.69122e-05 -1.89894e-23)
(0.998503 6.96219e-05 9.04748e-24)
(0.998599 6.30144e-05 2.60349e-24)
(0.998688 5.7016e-05 4.40282e-25)
(0.99877 5.1562e-05 5.34707e-24)
(0.998846 4.65954e-05 -1.38733e-23)
(0.998917 4.20657e-05 1.73138e-23)
(0.998983 3.79284e-05 5.43351e-25)
(0.999043 3.41433e-05 1.73008e-23)
(0.999099 3.06742e-05 4.55756e-24)
(0.99915 2.74885e-05 3.76734e-24)
(0.999197 2.45574e-05 1.03076e-23)
(0.99924 2.1849e-05 -6.94207e-24)
(0.99928 1.93591e-05 3.26816e-24)
(0.999316 1.69968e-05 3.2194e-24)
(0.999347 1.494e-05 5.60726e-24)
(0.999377 1.26711e-05 -2.73535e-24)
(0.999401 1.12536e-05 7.48237e-24)
(0.999426 8.67562e-06 -1.72948e-24)
(0.999439 8.05899e-06 -3.1224e-24)
(0.999463 5.15625e-06 2.89928e-25)
(0.998288 6.60903e-05 1.2332e-23)
(0.9984 5.98244e-05 7.12558e-24)
(0.998503 5.41542e-05 9.16596e-24)
(0.998599 4.90149e-05 4.1327e-24)
(0.998687 4.43495e-05 5.76407e-24)
(0.99877 4.01074e-05 -1.61711e-23)
(0.998846 3.62443e-05 -9.32285e-24)
(0.998917 3.27211e-05 -1.84443e-24)
(0.998982 2.9503e-05 -8.23382e-24)
(0.999043 2.65588e-05 -8.28827e-24)
(0.999099 2.38604e-05 9.97653e-24)
(0.99915 2.13823e-05 6.65809e-24)
(0.999197 1.91024e-05 -9.60062e-24)
(0.99924 1.69956e-05 5.8123e-25)
(0.99928 1.50589e-05 1.09466e-24)
(0.999315 1.32213e-05 -1.65046e-24)
(0.999347 1.16214e-05 -2.94842e-24)
(0.999377 9.85646e-06 -3.31963e-24)
(0.999401 8.75409e-06 -4.47673e-24)
(0.999426 6.74866e-06 1.83886e-24)
(0.999439 6.26912e-06 1.32302e-24)
(0.999463 4.01157e-06 -6.47994e-25)
(0.998288 4.72098e-05 1.20076e-23)
(0.998399 4.27342e-05 -1.96047e-23)
(0.998503 3.8684e-05 5.60182e-24)
(0.998598 3.50131e-05 1.6659e-24)
(0.998687 3.16805e-05 1.0664e-23)
(0.99877 2.86504e-05 3.77778e-24)
(0.998846 2.58909e-05 7.40001e-24)
(0.998917 2.33742e-05 -2.909e-24)
(0.998982 2.10755e-05 1.73549e-24)
(0.999043 1.89723e-05 9.70486e-24)
(0.999098 1.70448e-05 -4.97254e-24)
(0.99915 1.52746e-05 -6.32053e-24)
(0.999197 1.36459e-05 3.53688e-25)
(0.99924 1.2141e-05 4.39134e-24)
(0.99928 1.07574e-05 9.68617e-25)
(0.999315 9.44474e-06 1.88713e-24)
(0.999347 8.30194e-06 1.36656e-24)
(0.999377 7.04103e-06 3.4599e-24)
(0.9994 6.2537e-06 1.2679e-25)
(0.999426 4.82104e-06 -2.75533e-25)
(0.999439 4.47854e-06 5.3895e-25)
(0.999463 2.86605e-06 7.24881e-25)
(0.998288 2.83277e-05 7.87482e-24)
(0.998399 2.56423e-05 1.15975e-23)
(0.998502 2.32121e-05 -1.27809e-24)
(0.998598 2.10095e-05 -7.17241e-24)
(0.998687 1.90099e-05 -1.94396e-24)
(0.99877 1.71917e-05 4.09141e-25)
(0.998846 1.5536e-05 -1.42459e-24)
(0.998917 1.40259e-05 3.60672e-24)
(0.998982 1.26465e-05 -2.48841e-24)
(0.999043 1.13845e-05 -3.10536e-24)
(0.999098 1.02279e-05 -3.21888e-24)
(0.99915 9.16573e-06 7.6187e-25)
(0.999197 8.18844e-06 2.71646e-24)
(0.99924 7.28537e-06 -1.6159e-24)
(0.999279 6.45516e-06 -3.57292e-24)
(0.999315 5.66746e-06 -1.48611e-24)
(0.999347 4.98172e-06 -1.88441e-24)
(0.999377 4.22506e-06 -7.48673e-25)
(0.9994 3.75267e-06 2.99214e-25)
(0.999426 2.89296e-06 7.33575e-25)
(0.999439 2.68745e-06 -2.72493e-25)
(0.999463 1.71993e-06 -1.641e-25)
(0.998288 9.44448e-06 -6.87325e-25)
(0.998399 8.54923e-06 -1.00259e-24)
(0.998502 7.73906e-06 2.30491e-26)
(0.998598 7.00473e-06 -8.22754e-26)
(0.998687 6.3381e-06 -1.5075e-24)
(0.998769 5.73194e-06 -3.73593e-24)
(0.998846 5.17993e-06 -7.53572e-25)
(0.998917 4.67646e-06 -1.74329e-24)
(0.998982 4.21659e-06 2.31749e-24)
(0.999042 3.79585e-06 -1.9627e-25)
(0.999098 3.41022e-06 9.51363e-25)
(0.99915 3.05607e-06 8.35771e-25)
(0.999197 2.73023e-06 2.09734e-25)
(0.99924 2.42913e-06 4.93187e-26)
(0.999279 2.15233e-06 5.25019e-26)
(0.999315 1.88969e-06 8.72588e-25)
(0.999347 1.66104e-06 1.14342e-25)
(0.999376 1.40875e-06 3.88585e-25)
(0.9994 1.25124e-06 1.35973e-25)
(0.999425 9.64586e-07 -1.43627e-25)
(0.999439 8.96047e-07 -3.21363e-26)
(0.999463 5.73453e-07 4.25916e-26)
)
;

boundaryField
{
    inlet
    {
        type            uniformFixedValue;
        uniformValue    constant (1 0 0);
        value           nonuniform 0();
    }
    outlet
    {
        type            pressureInletOutletVelocity;
        value           nonuniform List<vector> 
28
(
(0.999463 -5.73159e-07 4.24315e-26)
(0.999463 -1.71964e-06 -1.50131e-25)
(0.999463 -2.86575e-06 6.90559e-25)
(0.999463 -4.01127e-06 -6.47645e-25)
(0.999463 -5.15595e-06 2.63467e-25)
(0.999464 -6.29954e-06 -7.81712e-25)
(0.999464 -7.44182e-06 3.11276e-25)
(0.999464 -8.58254e-06 7.95745e-27)
(0.999464 -9.72146e-06 1.05462e-24)
(0.999464 -1.08584e-05 2.74717e-25)
(0.999465 -1.1993e-05 -1.27063e-24)
(0.999465 -1.31251e-05 -8.71878e-25)
(0.999465 -1.42545e-05 -1.18412e-24)
(0.999466 -1.53809e-05 3.6572e-24)
(0.999466 1.53812e-05 6.78824e-25)
(0.999465 1.42548e-05 -1.17684e-24)
(0.999465 1.31254e-05 -8.21751e-25)
(0.999465 1.19933e-05 -1.14988e-24)
(0.999464 1.08587e-05 2.12945e-25)
(0.999464 9.72176e-06 1.09335e-24)
(0.999464 8.58284e-06 5.14738e-26)
(0.999464 7.44212e-06 2.62289e-25)
(0.999464 6.29984e-06 -7.94886e-25)
(0.999463 5.15625e-06 2.89928e-25)
(0.999463 4.01157e-06 -6.47994e-25)
(0.999463 2.86605e-06 7.24881e-25)
(0.999463 1.71993e-06 -1.641e-25)
(0.999463 5.73453e-07 4.25916e-26)
)
;
    }
    cylinder
    {
        type            fixedValue;
        value           nonuniform 0();
    }
    top
    {
        type            symmetryPlane;
    }
    bottom
    {
        type            symmetryPlane;
    }
    defaultFaces
    {
        type            empty;
    }
    procBoundary31to23
    {
        type            processor;
        value           nonuniform List<vector> 
23
(
(0.998694 0.000183389 8.60472e-24)
(0.998776 0.000165824 6.13498e-24)
(0.998852 0.000149832 6.75404e-23)
(0.998922 0.000135251 -1.09192e-23)
(0.998987 0.000121937 5.88085e-23)
(0.999047 0.000109758 -8.87867e-23)
(0.999103 9.86e-05 7.57893e-24)
(0.999154 8.83547e-05 1.98047e-23)
(0.999201 7.89308e-05 -9.21888e-24)
(0.999244 7.02231e-05 -4.97708e-24)
(0.999283 6.22188e-05 2.11776e-23)
(0.999319 5.46273e-05 1.11028e-23)
(0.999351 4.80067e-05 -3.20757e-24)
(0.99938 4.07283e-05 8.92581e-24)
(0.999404 3.61424e-05 -9.93431e-24)
(0.999429 2.7869e-05 8.28029e-24)
(0.999442 2.58733e-05 -4.10106e-24)
(0.999466 1.65044e-05 -2.0141e-24)
(0.998296 0.000254657 6.74318e-23)
(0.998407 0.000230474 -3.17176e-23)
(0.998509 0.000208598 4.40603e-23)
(0.998605 0.000188777 5.60049e-24)
(0.998605 0.000188777 5.60049e-24)
)
;
    }
    procBoundary31to30
    {
        type            processor;
        value           nonuniform List<vector> 
26
(
(0.998168 -1.043e-05 -2.30186e-25)
(0.998168 -3.12941e-05 -5.6735e-24)
(0.998168 -5.21573e-05 -9.06955e-24)
(0.998168 -7.3019e-05 1.54361e-23)
(0.998169 -9.38788e-05 -3.46412e-23)
(0.998169 -0.000114736 2.26887e-23)
(0.99817 -0.00013559 -6.80871e-24)
(0.998171 -0.00015644 6.12394e-24)
(0.998172 -0.000177286 -2.25122e-23)
(0.998172 -0.000198126 7.79325e-23)
(0.998174 -0.000218961 -2.33482e-23)
(0.998175 -0.000239789 -6.88404e-23)
(0.998176 -0.00026061 4.57058e-23)
(0.998176 0.000260615 3.43353e-23)
(0.998175 0.000239794 -4.17631e-23)
(0.998174 0.000218966 4.33704e-23)
(0.998172 0.000198131 1.8419e-23)
(0.998172 0.000177291 -2.81376e-23)
(0.998171 0.000156445 -1.10204e-24)
(0.99817 0.000135595 -1.25806e-23)
(0.998169 0.000114741 -1.71857e-24)
(0.998169 9.38839e-05 -1.33563e-23)
(0.998168 7.30242e-05 2.8064e-23)
(0.998168 5.21624e-05 -3.40751e-24)
(0.998168 3.12993e-05 1.22921e-23)
(0.998168 1.04351e-05 -4.18913e-25)
)
;
    }
    procBoundary31to39
    {
        type            processor;
        value           nonuniform List<vector> 
23
(
(0.998296 -0.000254652 -6.40802e-23)
(0.998407 -0.00023047 5.15589e-23)
(0.998509 -0.000208594 -4.15044e-23)
(0.998605 -0.000188773 5.45188e-23)
(0.998693 -0.000170783 3.60215e-23)
(0.998693 -0.000170783 3.60215e-23)
(0.998776 -0.000165821 -1.05226e-23)
(0.998852 -0.000149829 1.55141e-23)
(0.998922 -0.000135248 4.82287e-24)
(0.998987 -0.000121934 -4.69445e-24)
(0.999047 -0.000109756 2.34668e-23)
(0.999103 -9.85978e-05 -3.01461e-23)
(0.999154 -8.83527e-05 -1.56546e-23)
(0.999201 -7.8929e-05 2.03112e-23)
(0.999244 -7.02215e-05 -2.25453e-23)
(0.999283 -6.22173e-05 2.51319e-24)
(0.999319 -5.4626e-05 -1.70448e-23)
(0.999351 -4.80056e-05 -3.87379e-24)
(0.99938 -4.07273e-05 -4.25023e-24)
(0.999404 -3.61416e-05 -1.23533e-23)
(0.999429 -2.78683e-05 9.84667e-24)
(0.999442 -2.58727e-05 6.82895e-25)
(0.999466 -1.65041e-05 8.21893e-25)
)
;
    }
}


// ************************************************************************* //
