/*--------------------------------*- C++ -*----------------------------------*\
  =========                 |
  \\      /  F ield         | OpenFOAM: The Open Source CFD Toolbox
   \\    /   O peration     | Website:  https://openfoam.org
    \\  /    A nd           | Version:  7
     \\/     M anipulation  |
\*---------------------------------------------------------------------------*/
FoamFile
{
    version     2.0;
    format      ascii;
    class       volVectorField;
    location    "0.447";
    object      U;
}
// * * * * * * * * * * * * * * * * * * * * * * * * * * * * * * * * * * * * * //

dimensions      [0 1 -1 0 0 0 0];

internalField   nonuniform List<vector> 
40000
(
(-1.26849e-07 4.46528e-08 0)
(9.74392e-07 -7.8623e-07 0)
(4.29564e-06 -1.47283e-06 0)
(8.89975e-06 -1.84288e-06 0)
(1.40371e-05 -1.96515e-06 0)
(1.91784e-05 -1.91285e-06 0)
(2.39268e-05 -1.73977e-06 0)
(2.7988e-05 -1.48424e-06 0)
(3.11486e-05 -1.17266e-06 0)
(3.32539e-05 -8.23119e-07 0)
(3.4193e-05 -4.48266e-07 0)
(3.3888e-05 -5.72009e-08 0)
(3.22859e-05 3.43399e-07 0)
(2.93534e-05 7.48513e-07 0)
(2.50727e-05 1.15431e-06 0)
(1.94379e-05 1.55783e-06 0)
(1.24532e-05 1.95675e-06 0)
(4.13047e-06 2.34925e-06 0)
(-5.5119e-06 2.73386e-06 0)
(-1.64504e-05 3.10944e-06 0)
(-2.86571e-05 3.47505e-06 0)
(-4.21008e-05 3.82997e-06 0)
(-5.67472e-05 4.1736e-06 0)
(-7.25599e-05 4.50547e-06 0)
(-8.95005e-05 4.82523e-06 0)
(-0.000107529 5.13258e-06 0)
(-0.000126604 5.42733e-06 0)
(-0.000146684 5.7093e-06 0)
(-0.000167726 5.97841e-06 0)
(-0.000189685 6.23457e-06 0)
(-0.000212519 6.47777e-06 0)
(-0.000236183 6.70801e-06 0)
(-0.000260633 6.92531e-06 0)
(-0.000285825 7.12972e-06 0)
(-0.000311713 7.32131e-06 0)
(-0.000338255 7.50016e-06 0)
(-0.000365405 7.66637e-06 0)
(-0.00039312 7.82006e-06 0)
(-0.000421357 7.96135e-06 0)
(-0.000450072 8.09036e-06 0)
(-0.000479223 8.20725e-06 0)
(-0.000508768 8.31216e-06 0)
(-0.000538663 8.40523e-06 0)
(-0.000568869 8.48664e-06 0)
(-0.000599344 8.55656e-06 0)
(-0.000630048 8.61514e-06 0)
(-0.000660941 8.66256e-06 0)
(-0.000691983 8.69899e-06 0)
(-0.000723137 8.72463e-06 0)
(-0.000754364 8.73963e-06 0)
(-0.000785626 8.7442e-06 0)
(-0.000816887 8.73852e-06 0)
(-0.000848111 8.72278e-06 0)
(-0.000879262 8.69715e-06 0)
(-0.000910305 8.66184e-06 0)
(-0.000941206 8.61702e-06 0)
(-0.000971931 8.5629e-06 0)
(-0.00100245 8.49966e-06 0)
(-0.00103272 8.4275e-06 0)
(-0.00106272 8.34661e-06 0)
(-0.00109242 8.25718e-06 0)
(-0.00112179 8.1594e-06 0)
(-0.00115079 8.05347e-06 0)
(-0.0011794 7.93958e-06 0)
(-0.00120759 7.81792e-06 0)
(-0.00123533 7.68869e-06 0)
(-0.0012626 7.55209e-06 0)
(-0.00128936 7.40829e-06 0)
(-0.0013156 7.2575e-06 0)
(-0.00134129 7.09991e-06 0)
(-0.0013664 6.93571e-06 0)
(-0.00139092 6.76511e-06 0)
(-0.00141481 6.58829e-06 0)
(-0.00143806 6.40545e-06 0)
(-0.00146064 6.21677e-06 0)
(-0.00148254 6.02246e-06 0)
(-0.00150373 5.82271e-06 0)
(-0.0015242 5.61772e-06 0)
(-0.00154393 5.40768e-06 0)
(-0.00156289 5.19279e-06 0)
(-0.00158108 4.97325e-06 0)
(-0.00159848 4.74924e-06 0)
(-0.00161506 4.52098e-06 0)
(-0.00163082 4.28866e-06 0)
(-0.00164574 4.05248e-06 0)
(-0.0016598 3.81265e-06 0)
(-0.00167301 3.56936e-06 0)
(-0.00168533 3.32282e-06 0)
(-0.00169677 3.07322e-06 0)
(-0.0017073 2.82078e-06 0)
(-0.00171693 2.56571e-06 0)
(-0.00172564 2.30822e-06 0)
(-0.00173342 2.04851e-06 0)
(-0.00174027 1.78679e-06 0)
(-0.00174618 1.52327e-06 0)
(-0.00175114 1.25817e-06 0)
(-0.00175515 9.91697e-07 0)
(-0.00175821 7.24085e-07 0)
(-0.0017603 4.5555e-07 0)
(-0.00176143 1.86308e-07 0)
(-0.0017616 -8.34233e-08 0)
(-0.0017608 -3.53422e-07 0)
(-0.00175903 -6.2346e-07 0)
(-0.0017563 -8.93304e-07 0)
(-0.0017526 -1.16272e-06 0)
(-0.00174794 -1.43148e-06 0)
(-0.00174232 -1.69936e-06 0)
(-0.00173574 -1.96612e-06 0)
(-0.00172821 -2.23153e-06 0)
(-0.00171974 -2.49535e-06 0)
(-0.00171032 -2.75733e-06 0)
(-0.00169997 -3.01724e-06 0)
(-0.0016887 -3.27482e-06 0)
(-0.00167651 -3.52985e-06 0)
(-0.00166341 -3.78207e-06 0)
(-0.00164941 -4.03125e-06 0)
(-0.00163454 -4.27713e-06 0)
(-0.00161879 -4.51946e-06 0)
(-0.00160218 -4.75798e-06 0)
(-0.00158472 -4.99245e-06 0)
(-0.00156644 -5.22263e-06 0)
(-0.00154734 -5.44826e-06 0)
(-0.00152744 -5.6691e-06 0)
(-0.00150677 -5.88488e-06 0)
(-0.00148533 -6.09535e-06 0)
(-0.00146316 -6.30025e-06 0)
(-0.00144026 -6.49934e-06 0)
(-0.00141667 -6.69237e-06 0)
(-0.00139239 -6.87909e-06 0)
(-0.00136747 -7.05926e-06 0)
(-0.00134191 -7.23261e-06 0)
(-0.00131575 -7.39889e-06 0)
(-0.00128901 -7.55786e-06 0)
(-0.00126171 -7.70927e-06 0)
(-0.00123389 -7.8529e-06 0)
(-0.00120558 -7.98851e-06 0)
(-0.00117679 -8.11584e-06 0)
(-0.00114757 -8.23466e-06 0)
(-0.00111794 -8.34473e-06 0)
(-0.00108794 -8.44582e-06 0)
(-0.00105759 -8.53773e-06 0)
(-0.00102693 -8.62022e-06 0)
(-0.000996002 -8.69308e-06 0)
(-0.000964828 -8.75609e-06 0)
(-0.000933448 -8.80903e-06 0)
(-0.000901899 -8.8517e-06 0)
(-0.000870217 -8.88391e-06 0)
(-0.00083844 -8.90545e-06 0)
(-0.000806607 -8.91616e-06 0)
(-0.000774755 -8.91584e-06 0)
(-0.000742924 -8.90432e-06 0)
(-0.000711155 -8.88142e-06 0)
(-0.000679488 -8.84697e-06 0)
(-0.000647964 -8.80083e-06 0)
(-0.000616624 -8.74285e-06 0)
(-0.000585511 -8.6729e-06 0)
(-0.000554667 -8.59085e-06 0)
(-0.000524135 -8.49657e-06 0)
(-0.000493958 -8.38994e-06 0)
(-0.00046418 -8.27087e-06 0)
(-0.000434844 -8.13928e-06 0)
(-0.000405994 -7.99507e-06 0)
(-0.000377676 -7.83821e-06 0)
(-0.000349932 -7.66862e-06 0)
(-0.000322808 -7.48627e-06 0)
(-0.000296347 -7.29112e-06 0)
(-0.000270594 -7.08319e-06 0)
(-0.000245594 -6.86249e-06 0)
(-0.000221389 -6.62906e-06 0)
(-0.000198024 -6.38295e-06 0)
(-0.000175542 -6.12425e-06 0)
(-0.000153985 -5.85307e-06 0)
(-0.000133396 -5.56956e-06 0)
(-0.000113816 -5.27389e-06 0)
(-9.5284e-05 -4.96631e-06 0)
(-7.784e-05 -4.6471e-06 0)
(-6.15215e-05 -4.3166e-06 0)
(-4.63644e-05 -3.97522e-06 0)
(-3.24026e-05 -3.62344e-06 0)
(-1.96678e-05 -3.26188e-06 0)
(-8.18897e-06 -2.89125e-06 0)
(2.00834e-06 -2.51243e-06 0)
(1.09024e-05 -2.12648e-06 0)
(1.84762e-05 -1.7347e-06 0)
(2.47183e-05 -1.33867e-06 0)
(2.96241e-05 -9.40345e-07 0)
(3.31971e-05 -5.42189e-07 0)
(3.54512e-05 -1.47296e-07 0)
(3.64127e-05 2.40369e-07 0)
(3.61233e-05 6.1566e-07 0)
(3.46447e-05 9.7179e-07 0)
(3.20638e-05 1.29958e-06 0)
(2.84999e-05 1.58631e-06 0)
(2.41159e-05 1.81396e-06 0)
(1.91326e-05 1.95632e-06 0)
(1.38492e-05 1.97565e-06 0)
(8.66535e-06 1.81953e-06 0)
(4.10976e-06 1.41751e-06 0)
(9.10935e-07 7.05686e-07 0)
(-1.21278e-07 -1.21182e-07 0)
(7.38236e-07 -1.09734e-06 0)
(4.70318e-06 -4.79153e-06 0)
(1.27463e-05 -7.64376e-06 0)
(2.31307e-05 -9.21822e-06 0)
(3.44263e-05 -9.69133e-06 0)
(4.55444e-05 -9.30001e-06 0)
(5.55798e-05 -8.25095e-06 0)
(6.38048e-05 -6.71092e-06 0)
(6.96553e-05 -4.80834e-06 0)
(7.27005e-05 -2.6406e-06 0)
(7.26163e-05 -2.81924e-07 0)
(6.91636e-05 2.21061e-06 0)
(6.21716e-05 4.79258e-06 0)
(5.15245e-05 7.42909e-06 0)
(3.71509e-05 1.00924e-05 0)
(1.90155e-05 1.27604e-05 0)
(-2.8876e-06 1.54151e-05 0)
(-2.85401e-05 1.80421e-05 0)
(-5.79038e-05 2.06295e-05 0)
(-9.0924e-05 2.31678e-05 0)
(-0.000127532 2.56488e-05 0)
(-0.000167649 2.80662e-05 0)
(-0.000211186 3.04147e-05 0)
(-0.000258045 3.26898e-05 0)
(-0.000308124 3.4888e-05 0)
(-0.000361313 3.70065e-05 0)
(-0.000417501 3.90429e-05 0)
(-0.00047657 4.09954e-05 0)
(-0.000538402 4.28626e-05 0)
(-0.000602874 4.46434e-05 0)
(-0.000669864 4.63372e-05 0)
(-0.000739247 4.79433e-05 0)
(-0.000810898 4.94616e-05 0)
(-0.00088469 5.0892e-05 0)
(-0.000960498 5.22346e-05 0)
(-0.0010382 5.34896e-05 0)
(-0.00111766 5.46574e-05 0)
(-0.00119876 5.57386e-05 0)
(-0.00128137 5.67338e-05 0)
(-0.00136537 5.76436e-05 0)
(-0.00145063 5.84689e-05 0)
(-0.00153704 5.92104e-05 0)
(-0.00162448 5.98692e-05 0)
(-0.00171281 6.04461e-05 0)
(-0.00180193 6.09422e-05 0)
(-0.00189172 6.13585e-05 0)
(-0.00198206 6.16962e-05 0)
(-0.00207283 6.19564e-05 0)
(-0.00216393 6.21402e-05 0)
(-0.00225525 6.22488e-05 0)
(-0.00234667 6.22835e-05 0)
(-0.00243809 6.22455e-05 0)
(-0.0025294 6.2136e-05 0)
(-0.0026205 6.19563e-05 0)
(-0.00271129 6.17077e-05 0)
(-0.00280166 6.13915e-05 0)
(-0.00289153 6.10089e-05 0)
(-0.00298078 6.05614e-05 0)
(-0.00306934 6.00503e-05 0)
(-0.00315709 5.94768e-05 0)
(-0.00324397 5.88423e-05 0)
(-0.00332987 5.81482e-05 0)
(-0.0034147 5.73958e-05 0)
(-0.0034984 5.65865e-05 0)
(-0.00358086 5.57216e-05 0)
(-0.00366202 5.48025e-05 0)
(-0.00374179 5.38305e-05 0)
(-0.00382009 5.28071e-05 0)
(-0.00389686 5.17336e-05 0)
(-0.00397201 5.06114e-05 0)
(-0.00404548 4.94418e-05 0)
(-0.0041172 4.82263e-05 0)
(-0.0041871 4.69662e-05 0)
(-0.00425512 4.56629e-05 0)
(-0.0043212 4.43178e-05 0)
(-0.00438527 4.29324e-05 0)
(-0.00444727 4.15079e-05 0)
(-0.00450716 4.00458e-05 0)
(-0.00456487 3.85476e-05 0)
(-0.00462036 3.70146e-05 0)
(-0.00467356 3.54482e-05 0)
(-0.00472445 3.38499e-05 0)
(-0.00477296 3.22211e-05 0)
(-0.00481905 3.05633e-05 0)
(-0.00486269 2.88778e-05 0)
(-0.00490384 2.71661e-05 0)
(-0.00494245 2.54298e-05 0)
(-0.00497849 2.36702e-05 0)
(-0.00501193 2.18888e-05 0)
(-0.00504274 2.00872e-05 0)
(-0.00507089 1.82667e-05 0)
(-0.00509635 1.6429e-05 0)
(-0.0051191 1.45754e-05 0)
(-0.00513911 1.27077e-05 0)
(-0.00515637 1.08272e-05 0)
(-0.00517086 8.93546e-06 0)
(-0.00518256 7.03413e-06 0)
(-0.00519146 5.12474e-06 0)
(-0.00519755 3.20887e-06 0)
(-0.00520082 1.28812e-06 0)
(-0.00520127 -6.35939e-07 0)
(-0.0051989 -2.56169e-06 0)
(-0.00519369 -4.48752e-06 0)
(-0.00518565 -6.41177e-06 0)
(-0.00517479 -8.3328e-06 0)
(-0.00516112 -1.02489e-05 0)
(-0.00514463 -1.21585e-05 0)
(-0.00512535 -1.40599e-05 0)
(-0.00510328 -1.59513e-05 0)
(-0.00507844 -1.78311e-05 0)
(-0.00505085 -1.96976e-05 0)
(-0.00502053 -2.1549e-05 0)
(-0.00498751 -2.33836e-05 0)
(-0.00495181 -2.51997e-05 0)
(-0.00491346 -2.69955e-05 0)
(-0.00487248 -2.87693e-05 0)
(-0.00482893 -3.05192e-05 0)
(-0.00478282 -3.22436e-05 0)
(-0.0047342 -3.39406e-05 0)
(-0.00468312 -3.56085e-05 0)
(-0.00462961 -3.72454e-05 0)
(-0.00457372 -3.88497e-05 0)
(-0.0045155 -4.04194e-05 0)
(-0.00445501 -4.1953e-05 0)
(-0.0043923 -4.34484e-05 0)
(-0.00432743 -4.4904e-05 0)
(-0.00426045 -4.63179e-05 0)
(-0.00419143 -4.76884e-05 0)
(-0.00412044 -4.90138e-05 0)
(-0.00404753 -5.02922e-05 0)
(-0.00397279 -5.1522e-05 0)
(-0.00389629 -5.27013e-05 0)
(-0.00381809 -5.38284e-05 0)
(-0.00373829 -5.49016e-05 0)
(-0.00365695 -5.59193e-05 0)
(-0.00357416 -5.68797e-05 0)
(-0.00349001 -5.77812e-05 0)
(-0.00340459 -5.86221e-05 0)
(-0.00331798 -5.94008e-05 0)
(-0.00323027 -6.01157e-05 0)
(-0.00314157 -6.07653e-05 0)
(-0.00305197 -6.1348e-05 0)
(-0.00296156 -6.18623e-05 0)
(-0.00287046 -6.23067e-05 0)
(-0.00277875 -6.26799e-05 0)
(-0.00268655 -6.29803e-05 0)
(-0.00259397 -6.32066e-05 0)
(-0.00250111 -6.33576e-05 0)
(-0.00240809 -6.34319e-05 0)
(-0.00231502 -6.34284e-05 0)
(-0.002222 -6.33458e-05 0)
(-0.00212917 -6.31831e-05 0)
(-0.00203663 -6.29391e-05 0)
(-0.00194451 -6.26128e-05 0)
(-0.00185293 -6.22034e-05 0)
(-0.001762 -6.171e-05 0)
(-0.00167186 -6.11317e-05 0)
(-0.00158262 -6.04679e-05 0)
(-0.00149441 -5.97179e-05 0)
(-0.00140736 -5.8881e-05 0)
(-0.00132159 -5.7957e-05 0)
(-0.00123722 -5.69453e-05 0)
(-0.0011544 -5.58457e-05 0)
(-0.00107323 -5.46581e-05 0)
(-0.000993857 -5.33825e-05 0)
(-0.000916399 -5.20188e-05 0)
(-0.000840986 -5.05675e-05 0)
(-0.000767741 -4.90288e-05 0)
(-0.000696791 -4.74034e-05 0)
(-0.000628259 -4.56921e-05 0)
(-0.000562266 -4.38959e-05 0)
(-0.000498934 -4.2016e-05 0)
(-0.000438379 -4.0054e-05 0)
(-0.000380717 -3.80116e-05 0)
(-0.000326058 -3.58912e-05 0)
(-0.000274512 -3.36954e-05 0)
(-0.000226179 -3.14273e-05 0)
(-0.000181159 -2.90906e-05 0)
(-0.00013954 -2.66898e-05 0)
(-0.000101408 -2.423e-05 0)
(-6.68354e-05 -2.17173e-05 0)
(-3.58867e-05 -1.91592e-05 0)
(-8.61309e-06 -1.65644e-05 0)
(1.49487e-05 -1.39432e-05 0)
(3.47793e-05 -1.13083e-05 0)
(5.08805e-05 -8.67497e-06 0)
(6.32789e-05 -6.06164e-06 0)
(7.20311e-05 -3.49113e-06 0)
(7.72307e-05 -9.9162e-07 0)
(7.90156e-05 1.40164e-06 0)
(7.75789e-05 3.64414e-06 0)
(7.3181e-05 5.67905e-06 0)
(6.61668e-05 7.43297e-06 0)
(5.69848e-05 8.81018e-06 0)
(4.62132e-05 9.6854e-06 0)
(3.45867e-05 9.89757e-06 0)
(2.30076e-05 9.25033e-06 0)
(1.25453e-05 7.52474e-06 0)
(4.57375e-06 4.57502e-06 0)
(7.04897e-07 9.10482e-07 0)
(1.4515e-06 -4.35316e-06 0)
(7.59656e-06 -1.28152e-05 0)
(1.88447e-05 -1.88937e-05 0)
(3.27024e-05 -2.21797e-05 0)
(4.73133e-05 -2.29673e-05 0)
(6.12816e-05 -2.16847e-05 0)
(7.3394e-05 -1.87485e-05 0)
(8.26327e-05 -1.45215e-05 0)
(8.81777e-05 -9.30322e-06 0)
(8.9381e-05 -3.33413e-06 0)
(8.5739e-05 3.19363e-06 0)
(7.6869e-05 1.01267e-05 0)
(6.24886e-05 1.73423e-05 0)
(4.23984e-05 2.47416e-05 0)
(1.6468e-05 3.22443e-05 0)
(-1.53761e-05 3.97855e-05 0)
(-5.316e-05 4.73119e-05 0)
(-9.68703e-05 5.47795e-05 0)
(-0.00014646 6.21524e-05 0)
(-0.000201857 6.94007e-05 0)
(-0.000262961 7.64996e-05 0)
(-0.000329659 8.34288e-05 0)
(-0.000401816 9.0171e-05 0)
(-0.000479285 9.67124e-05 0)
(-0.000561911 0.000103041 0)
(-0.000649524 0.000109148 0)
(-0.00074195 0.000115025 0)
(-0.000839007 0.000120666 0)
(-0.000940508 0.000126065 0)
(-0.00104626 0.00013122 0)
(-0.00115607 0.000136127 0)
(-0.00126974 0.000140783 0)
(-0.00138708 0.000145189 0)
(-0.00150787 0.000149342 0)
(-0.00163192 0.000153243 0)
(-0.00175902 0.000156891 0)
(-0.00188899 0.000160289 0)
(-0.0020216 0.000163436 0)
(-0.00215667 0.000166334 0)
(-0.00229398 0.000168985 0)
(-0.00243335 0.000171391 0)
(-0.00257458 0.000173554 0)
(-0.00271747 0.000175476 0)
(-0.00286182 0.000177161 0)
(-0.00300744 0.00017861 0)
(-0.00315416 0.000179827 0)
(-0.00330176 0.000180815 0)
(-0.00345008 0.000181576 0)
(-0.00359893 0.000182115 0)
(-0.00374813 0.000182434 0)
(-0.0038975 0.000182537 0)
(-0.00404687 0.000182428 0)
(-0.00419606 0.000182109 0)
(-0.00434491 0.000181586 0)
(-0.00449324 0.00018086 0)
(-0.00464091 0.000179936 0)
(-0.00478773 0.000178819 0)
(-0.00493357 0.00017751 0)
(-0.00507826 0.000176015 0)
(-0.00522166 0.000174338 0)
(-0.00536361 0.000172481 0)
(-0.00550397 0.00017045 0)
(-0.0056426 0.000168247 0)
(-0.00577936 0.000165877 0)
(-0.00591411 0.000163345 0)
(-0.00604673 0.000160652 0)
(-0.00617708 0.000157805 0)
(-0.00630504 0.000154807 0)
(-0.00643048 0.000151661 0)
(-0.0065533 0.000148373 0)
(-0.00667336 0.000144945 0)
(-0.00679056 0.000141382 0)
(-0.00690479 0.000137688 0)
(-0.00701595 0.000133867 0)
(-0.00712392 0.000129924 0)
(-0.00722862 0.000125862 0)
(-0.00732995 0.000121685 0)
(-0.00742781 0.000117397 0)
(-0.00752211 0.000113004 0)
(-0.00761278 0.000108508 0)
(-0.00769972 0.000103914 0)
(-0.00778286 9.92262e-05 0)
(-0.00786213 9.44489e-05 0)
(-0.00793745 8.95863e-05 0)
(-0.00800875 8.46426e-05 0)
(-0.00807597 7.9622e-05 0)
(-0.00813904 7.45289e-05 0)
(-0.00819792 6.93676e-05 0)
(-0.00825255 6.41425e-05 0)
(-0.00830287 5.88578e-05 0)
(-0.00834884 5.3518e-05 0)
(-0.00839041 4.81276e-05 0)
(-0.00842755 4.26909e-05 0)
(-0.00846022 3.72126e-05 0)
(-0.00848839 3.1697e-05 0)
(-0.00851203 2.61488e-05 0)
(-0.00853111 2.05724e-05 0)
(-0.00854561 1.49726e-05 0)
(-0.00855552 9.35401e-06 0)
(-0.00856083 3.72124e-06 0)
(-0.00856152 -1.92097e-06 0)
(-0.00855758 -7.56787e-06 0)
(-0.00854902 -1.32147e-05 0)
(-0.00853584 -1.88566e-05 0)
(-0.00851805 -2.44888e-05 0)
(-0.00849565 -3.01064e-05 0)
(-0.00846866 -3.57045e-05 0)
(-0.0084371 -4.1278e-05 0)
(-0.00840098 -4.68222e-05 0)
(-0.00836035 -5.23319e-05 0)
(-0.00831522 -5.78021e-05 0)
(-0.00826563 -6.32279e-05 0)
(-0.00821162 -6.86039e-05 0)
(-0.00815324 -7.39253e-05 0)
(-0.00809053 -7.91868e-05 0)
(-0.00802354 -8.43833e-05 0)
(-0.00795232 -8.95096e-05 0)
(-0.00787695 -9.45606e-05 0)
(-0.00779748 -9.9531e-05 0)
(-0.00771397 -0.000104416 0)
(-0.00762651 -0.000109209 0)
(-0.00753517 -0.000113907 0)
(-0.00744003 -0.000118503 0)
(-0.00734118 -0.000122992 0)
(-0.0072387 -0.000127369 0)
(-0.0071327 -0.00013163 0)
(-0.00702326 -0.000135768 0)
(-0.00691049 -0.000139778 0)
(-0.0067945 -0.000143656 0)
(-0.00667539 -0.000147396 0)
(-0.00655329 -0.000150994 0)
(-0.00642831 -0.000154443 0)
(-0.00630058 -0.000157739 0)
(-0.00617022 -0.000160877 0)
(-0.00603736 -0.000163853 0)
(-0.00590215 -0.00016666 0)
(-0.00576471 -0.000169295 0)
(-0.00562519 -0.000171753 0)
(-0.00548374 -0.000174028 0)
(-0.00534051 -0.000176117 0)
(-0.00519565 -0.000178014 0)
(-0.00504933 -0.000179716 0)
(-0.0049017 -0.000181218 0)
(-0.00475292 -0.000182515 0)
(-0.00460317 -0.000183604 0)
(-0.00445262 -0.000184481 0)
(-0.00430145 -0.000185141 0)
(-0.00414982 -0.000185581 0)
(-0.00399792 -0.000185797 0)
(-0.00384594 -0.000185787 0)
(-0.00369406 -0.000185545 0)
(-0.00354247 -0.00018507 0)
(-0.00339135 -0.000184359 0)
(-0.00324092 -0.000183408 0)
(-0.00309135 -0.000182215 0)
(-0.00294285 -0.000180777 0)
(-0.00279561 -0.000179093 0)
(-0.00264984 -0.000177161 0)
(-0.00250574 -0.000174978 0)
(-0.00236351 -0.000172543 0)
(-0.00222336 -0.000169856 0)
(-0.00208548 -0.000166915 0)
(-0.00195009 -0.00016372 0)
(-0.00181739 -0.00016027 0)
(-0.00168758 -0.000156567 0)
(-0.00156087 -0.00015261 0)
(-0.00143746 -0.0001484 0)
(-0.00131755 -0.00014394 0)
(-0.00120134 -0.000139232 0)
(-0.00108903 -0.000134278 0)
(-0.000980811 -0.000129081 0)
(-0.000876873 -0.000123647 0)
(-0.000777402 -0.00011798 0)
(-0.00068258 -0.000112086 0)
(-0.000592581 -0.000105973 0)
(-0.000507572 -9.96485e-05 0)
(-0.000427714 -9.31236e-05 0)
(-0.000353155 -8.64099e-05 0)
(-0.000284033 -7.95213e-05 0)
(-0.000220474 -7.24741e-05 0)
(-0.000162588 -6.52877e-05 0)
(-0.000110465 -5.79848e-05 0)
(-6.41774e-05 -5.05923e-05 0)
(-2.37704e-05 -4.31421e-05 0)
(1.07387e-05 -3.56722e-05 0)
(3.93672e-05 -2.82283e-05 0)
(6.21729e-05 -2.08651e-05 0)
(7.92617e-05 -1.3649e-05 0)
(9.07972e-05 -6.66103e-06 0)
(9.70117e-05 -2.72724e-10 0)
(9.82201e-05 6.21095e-06 0)
(9.48362e-05 1.1821e-05 0)
(8.7392e-05 1.66413e-05 0)
(7.65596e-05 2.04373e-05 0)
(6.31764e-05 2.29199e-05 0)
(4.82679e-05 2.37431e-05 0)
(3.30399e-05 2.25179e-05 0)
(1.886e-05 1.886e-05 0)
(7.5223e-06 1.25457e-05 0)
(1.41585e-06 4.10727e-06 0)
(1.83338e-06 -8.9261e-06 0)
(9.19907e-06 -2.31852e-05 0)
(2.21673e-05 -3.27505e-05 0)
(3.76014e-05 -3.76039e-05 0)
(5.3307e-05 -3.82608e-05 0)
(6.76807e-05 -3.5373e-05 0)
(7.93129e-05 -2.9584e-05 0)
(8.69956e-05 -2.14728e-05 0)
(8.97325e-05 -1.15341e-05 0)
(8.67166e-05 -1.80239e-07 0)
(7.73057e-05 1.22496e-05 0)
(6.09995e-05 2.54774e-05 0)
(3.74198e-05 3.92758e-05 0)
(6.29185e-06 5.34582e-05 0)
(-3.25717e-05 6.78712e-05 0)
(-7.92841e-05 8.23884e-05 0)
(-0.000133896 9.69049e-05 0)
(-0.000196404 0.000111334 0)
(-0.000266763 0.000125603 0)
(-0.000344886 0.000139652 0)
(-0.000430656 0.00015343 0)
(-0.00052393 0.000166896 0)
(-0.000624538 0.000180013 0)
(-0.000732294 0.000192753 0)
(-0.000846995 0.000205091 0)
(-0.000968422 0.000217007 0)
(-0.00109635 0.000228484 0)
(-0.00123053 0.000239509 0)
(-0.00137072 0.00025007 0)
(-0.00151667 0.000260158 0)
(-0.00166812 0.000269768 0)
(-0.0018248 0.000278893 0)
(-0.00198645 0.00028753 0)
(-0.00215279 0.000295676 0)
(-0.00232356 0.000303332 0)
(-0.00249849 0.000310496 0)
(-0.0026773 0.000317169 0)
(-0.00285972 0.000323354 0)
(-0.00304547 0.000329051 0)
(-0.00323429 0.000334264 0)
(-0.00342591 0.000338997 0)
(-0.00362006 0.000343253 0)
(-0.00381647 0.000347037 0)
(-0.00401487 0.000350354 0)
(-0.00421502 0.000353208 0)
(-0.00441665 0.000355605 0)
(-0.00461949 0.000357551 0)
(-0.00482331 0.000359052 0)
(-0.00502785 0.000360114 0)
(-0.00523287 0.000360743 0)
(-0.00543811 0.000360946 0)
(-0.00564335 0.00036073 0)
(-0.00584835 0.000360101 0)
(-0.00605287 0.000359067 0)
(-0.00625669 0.000357634 0)
(-0.00645958 0.00035581 0)
(-0.00666133 0.000353603 0)
(-0.00686171 0.000351019 0)
(-0.00706052 0.000348066 0)
(-0.00725755 0.000344752 0)
(-0.0074526 0.000341083 0)
(-0.00764546 0.000337069 0)
(-0.00783595 0.000332716 0)
(-0.00802387 0.000328033 0)
(-0.00820903 0.000323027 0)
(-0.00839126 0.000317705 0)
(-0.00857037 0.000312077 0)
(-0.0087462 0.000306149 0)
(-0.00891857 0.00029993 0)
(-0.00908733 0.000293427 0)
(-0.00925231 0.000286648 0)
(-0.00941335 0.000279603 0)
(-0.00957032 0.000272298 0)
(-0.00972306 0.000264741 0)
(-0.00987142 0.000256941 0)
(-0.0100153 0.000248906 0)
(-0.0101545 0.000240644 0)
(-0.010289 0.000232163 0)
(-0.0104186 0.000223472 0)
(-0.0105431 0.000214578 0)
(-0.0106626 0.00020549 0)
(-0.0107768 0.000196217 0)
(-0.0108857 0.000186766 0)
(-0.0109892 0.000177146 0)
(-0.0110871 0.000167365 0)
(-0.0111795 0.000157432 0)
(-0.0112661 0.000147356 0)
(-0.011347 0.000137145 0)
(-0.011422 0.000126807 0)
(-0.0114912 0.000116352 0)
(-0.0115543 0.000105788 0)
(-0.0116114 9.51238e-05 0)
(-0.0116624 8.43682e-05 0)
(-0.0117072 7.35302e-05 0)
(-0.0117459 6.26188e-05 0)
(-0.0117783 5.1643e-05 0)
(-0.0118045 4.06119e-05 0)
(-0.0118243 2.95346e-05 0)
(-0.0118379 1.84203e-05 0)
(-0.0118451 7.27836e-06 0)
(-0.011846 -3.8819e-06 0)
(-0.0118406 -1.50511e-05 0)
(-0.0118287 -2.62197e-05 0)
(-0.0118106 -3.73783e-05 0)
(-0.011786 -4.85171e-05 0)
(-0.0117552 -5.96267e-05 0)
(-0.0117181 -7.06971e-05 0)
(-0.0116746 -8.17186e-05 0)
(-0.011625 -9.26815e-05 0)
(-0.0115691 -0.000103576 0)
(-0.011507 -0.000114391 0)
(-0.0114388 -0.000125118 0)
(-0.0113645 -0.000135747 0)
(-0.0112843 -0.000146266 0)
(-0.011198 -0.000156667 0)
(-0.011106 -0.000166939 0)
(-0.0110081 -0.000177071 0)
(-0.0109045 -0.000187054 0)
(-0.0107952 -0.000196877 0)
(-0.0106805 -0.00020653 0)
(-0.0105603 -0.000216002 0)
(-0.0104347 -0.000225284 0)
(-0.010304 -0.000234364 0)
(-0.0101682 -0.000243234 0)
(-0.0100274 -0.000251881 0)
(-0.00988171 -0.000260297 0)
(-0.00973135 -0.000268471 0)
(-0.00957642 -0.000276392 0)
(-0.00941707 -0.00028405 0)
(-0.00925345 -0.000291436 0)
(-0.00908572 -0.000298539 0)
(-0.00891404 -0.00030535 0)
(-0.00873858 -0.000311858 0)
(-0.00855952 -0.000318053 0)
(-0.00837704 -0.000323927 0)
(-0.00819132 -0.000329469 0)
(-0.00800255 -0.000334669 0)
(-0.00781093 -0.000339519 0)
(-0.00761667 -0.000344009 0)
(-0.00741996 -0.000348131 0)
(-0.00722102 -0.000351875 0)
(-0.00702007 -0.000355233 0)
(-0.00681732 -0.000358195 0)
(-0.00661301 -0.000360755 0)
(-0.00640737 -0.000362904 0)
(-0.00620062 -0.000364634 0)
(-0.00599301 -0.000365937 0)
(-0.00578478 -0.000366807 0)
(-0.00557618 -0.000367236 0)
(-0.00536746 -0.000367217 0)
(-0.00515887 -0.000366744 0)
(-0.00495067 -0.000365812 0)
(-0.00474312 -0.000364413 0)
(-0.00453649 -0.000362544 0)
(-0.00433104 -0.000360199 0)
(-0.00412704 -0.000357374 0)
(-0.00392477 -0.000354064 0)
(-0.00372449 -0.000350267 0)
(-0.00352648 -0.000345978 0)
(-0.00333101 -0.000341196 0)
(-0.00313837 -0.000335918 0)
(-0.00294882 -0.000330144 0)
(-0.00276265 -0.000323873 0)
(-0.00258014 -0.000317104 0)
(-0.00240155 -0.00030984 0)
(-0.00222718 -0.000302081 0)
(-0.00205728 -0.00029383 0)
(-0.00189213 -0.000285092 0)
(-0.001732 -0.000275871 0)
(-0.00157715 -0.000266173 0)
(-0.00142784 -0.000256006 0)
(-0.00128432 -0.000245379 0)
(-0.00114685 -0.000234304 0)
(-0.00101566 -0.000222793 0)
(-0.000890982 -0.000210862 0)
(-0.000773037 -0.000198529 0)
(-0.000662033 -0.000185815 0)
(-0.000558164 -0.000172745 0)
(-0.000461607 -0.000159348 0)
(-0.000372521 -0.000145657 0)
(-0.000291045 -0.000131712 0)
(-0.000217289 -0.000117559 0)
(-0.000151336 -0.000103253 0)
(-9.32351e-05 -8.8857e-05 0)
(-4.29951e-05 -7.44479e-05 0)
(-5.78452e-07 -6.01153e-05 0)
(3.41061e-05 -4.59664e-05 0)
(6.12135e-05 -3.21296e-05 0)
(8.0973e-05 -1.87593e-05 0)
(9.37009e-05 -6.04181e-06 0)
(9.98161e-05 5.7973e-06 0)
(9.98568e-05 1.64844e-05 0)
(9.44997e-05 2.56879e-05 0)
(8.45805e-05 3.30081e-05 0)
(7.11159e-05 3.797e-05 0)
(5.53228e-05 4.00252e-05 0)
(3.86037e-05 3.85767e-05 0)
(2.25333e-05 3.30425e-05 0)
(9.25196e-06 2.30103e-05 0)
(1.81777e-06 8.66061e-06 0)
(1.96305e-06 -1.40573e-05 0)
(9.70006e-06 -3.44891e-05 0)
(2.30117e-05 -4.73808e-05 0)
(3.83482e-05 -5.33202e-05 0)
(5.32673e-05 -5.31562e-05 0)
(6.60097e-05 -4.78086e-05 0)
(7.50327e-05 -3.81635e-05 0)
(7.90031e-05 -2.50225e-05 0)
(7.68059e-05 -9.08375e-06 0)
(6.75226e-05 9.05808e-06 0)
(5.04092e-05 2.89027e-05 0)
(2.48755e-05 5.0032e-05 0)
(-9.53388e-06 7.20975e-05 0)
(-5.3157e-05 9.4809e-05 0)
(-0.000106231 0.000117925 0)
(-0.000168906 0.000141242 0)
(-0.000241256 0.000164593 0)
(-0.000323294 0.000187835 0)
(-0.000414975 0.00021085 0)
(-0.000516209 0.000233537 0)
(-0.000626862 0.000255812 0)
(-0.000746771 0.000277604 0)
(-0.000875738 0.000298854 0)
(-0.00101354 0.000319511 0)
(-0.00115994 0.000339534 0)
(-0.00131468 0.000358886 0)
(-0.00147747 0.000377539 0)
(-0.00164803 0.000395469 0)
(-0.00182606 0.000412656 0)
(-0.00201125 0.000429083 0)
(-0.00220328 0.000444739 0)
(-0.00240182 0.000459613 0)
(-0.00260655 0.000473699 0)
(-0.00281714 0.000486991 0)
(-0.00303325 0.000499487 0)
(-0.00325455 0.000511185 0)
(-0.00348069 0.000522085 0)
(-0.00371134 0.00053219 0)
(-0.00394616 0.000541503 0)
(-0.00418481 0.000550027 0)
(-0.00442696 0.000557767 0)
(-0.00467227 0.000564729 0)
(-0.00492041 0.00057092 0)
(-0.00517105 0.000576347 0)
(-0.00542386 0.000581018 0)
(-0.00567853 0.000584941 0)
(-0.00593472 0.000588125 0)
(-0.00619212 0.000590581 0)
(-0.00645042 0.000592317 0)
(-0.00670932 0.000593344 0)
(-0.00696849 0.000593672 0)
(-0.00722765 0.000593312 0)
(-0.0074865 0.000592275 0)
(-0.00774475 0.000590573 0)
(-0.0080021 0.000588216 0)
(-0.00825828 0.000585217 0)
(-0.00851302 0.000581588 0)
(-0.00876603 0.000577339 0)
(-0.00901706 0.000572485 0)
(-0.00926583 0.000567036 0)
(-0.0095121 0.000561005 0)
(-0.00975561 0.000554405 0)
(-0.00999612 0.000547249 0)
(-0.0102334 0.000539548 0)
(-0.0104672 0.000531316 0)
(-0.0106973 0.000522565 0)
(-0.0109234 0.000513309 0)
(-0.0111454 0.00050356 0)
(-0.0113631 0.000493331 0)
(-0.0115761 0.000482636 0)
(-0.0117844 0.000471486 0)
(-0.0119878 0.000459897 0)
(-0.0121859 0.00044788 0)
(-0.0123788 0.00043545 0)
(-0.0125661 0.000422619 0)
(-0.0127477 0.0004094 0)
(-0.0129235 0.000395808 0)
(-0.0130933 0.000381855 0)
(-0.0132569 0.000367556 0)
(-0.0134142 0.000352923 0)
(-0.013565 0.000337971 0)
(-0.0137092 0.000322713 0)
(-0.0138466 0.000307162 0)
(-0.0139773 0.000291334 0)
(-0.0141009 0.000275241 0)
(-0.0142175 0.000258898 0)
(-0.0143268 0.000242319 0)
(-0.0144289 0.000225518 0)
(-0.0145236 0.000208509 0)
(-0.0146108 0.000191306 0)
(-0.0146905 0.000173924 0)
(-0.0147625 0.000156378 0)
(-0.0148268 0.000138681 0)
(-0.0148834 0.000120849 0)
(-0.0149321 0.000102897 0)
(-0.014973 8.48394e-05 0)
(-0.015006 6.66908e-05 0)
(-0.015031 4.84668e-05 0)
(-0.0150481 3.01823e-05 0)
(-0.0150572 1.18527e-05 0)
(-0.0150582 -6.50644e-06 0)
(-0.0150512 -2.48798e-05 0)
(-0.0150362 -4.32516e-05 0)
(-0.0150132 -6.16062e-05 0)
(-0.0149822 -7.99279e-05 0)
(-0.0149432 -9.82006e-05 0)
(-0.0148962 -0.000116408 0)
(-0.0148413 -0.000134535 0)
(-0.0147785 -0.000152564 0)
(-0.0147079 -0.00017048 0)
(-0.0146295 -0.000188266 0)
(-0.0145433 -0.000205905 0)
(-0.0144495 -0.000223382 0)
(-0.0143481 -0.000240679 0)
(-0.0142392 -0.000257779 0)
(-0.0141229 -0.000274666 0)
(-0.0139992 -0.000291324 0)
(-0.0138684 -0.000307735 0)
(-0.0137304 -0.000323882 0)
(-0.0135855 -0.000339749 0)
(-0.0134337 -0.000355318 0)
(-0.0132752 -0.000370573 0)
(-0.0131102 -0.000385497 0)
(-0.0129387 -0.000400073 0)
(-0.0127609 -0.000414283 0)
(-0.012577 -0.000428112 0)
(-0.0123872 -0.000441542 0)
(-0.0121916 -0.000454556 0)
(-0.0119905 -0.000467139 0)
(-0.0117839 -0.000479273 0)
(-0.0115722 -0.000490941 0)
(-0.0113555 -0.000502129 0)
(-0.011134 -0.000512818 0)
(-0.010908 -0.000522994 0)
(-0.0106777 -0.000532641 0)
(-0.0104433 -0.000541742 0)
(-0.0102051 -0.000550283 0)
(-0.00996324 -0.000558247 0)
(-0.00971807 -0.000565621 0)
(-0.00946982 -0.00057239 0)
(-0.00921876 -0.000578538 0)
(-0.00896516 -0.000584052 0)
(-0.0087093 -0.000588918 0)
(-0.00845146 -0.000593123 0)
(-0.00819193 -0.000596653 0)
(-0.00793102 -0.000599496 0)
(-0.00766901 -0.00060164 0)
(-0.00740621 -0.000603073 0)
(-0.00714294 -0.000603783 0)
(-0.00687951 -0.000603761 0)
(-0.00661624 -0.000602994 0)
(-0.00635345 -0.000601475 0)
(-0.00609147 -0.000599194 0)
(-0.00583063 -0.000596142 0)
(-0.00557126 -0.000592312 0)
(-0.0053137 -0.000587696 0)
(-0.00505829 -0.000582289 0)
(-0.00480537 -0.000576085 0)
(-0.00455528 -0.000569079 0)
(-0.00430838 -0.000561269 0)
(-0.00406499 -0.00055265 0)
(-0.00382547 -0.000543222 0)
(-0.00359017 -0.000532985 0)
(-0.00335943 -0.000521939 0)
(-0.00313358 -0.000510086 0)
(-0.00291298 -0.000497431 0)
(-0.00269797 -0.000483978 0)
(-0.00248887 -0.000469734 0)
(-0.00228602 -0.00045471 0)
(-0.00208974 -0.000438915 0)
(-0.00190035 -0.000422364 0)
(-0.00171817 -0.000405073 0)
(-0.0015435 -0.000387061 0)
(-0.00137662 -0.000368351 0)
(-0.00121783 -0.000348971 0)
(-0.00106737 -0.00032895 0)
(-0.000925521 -0.000308326 0)
(-0.000792495 -0.00028714 0)
(-0.000668508 -0.000265442 0)
(-0.000553747 -0.000243289 0)
(-0.000448371 -0.000220747 0)
(-0.000352505 -0.000197894 0)
(-0.000266241 -0.000174819 0)
(-0.000189625 -0.000151628 0)
(-0.000122654 -0.000128446 0)
(-6.52719e-05 -0.000105419 0)
(-1.73534e-05 -8.27181e-05 0)
(2.13004e-05 -6.05492e-05 0)
(5.09758e-05 -3.91545e-05 0)
(7.20595e-05 -1.8823e-05 0)
(8.50536e-05 1.00809e-07 0)
(9.05922e-05 1.72066e-05 0)
(8.94589e-05 3.2007e-05 0)
(8.26049e-05 4.39274e-05 0)
(7.11692e-05 5.22998e-05 0)
(5.64973e-05 5.63671e-05 0)
(4.01284e-05 5.53077e-05 0)
(2.37987e-05 4.82938e-05 0)
(9.9126e-06 3.46051e-05 0)
(1.9754e-06 1.38458e-05 0)
(1.91765e-06 -1.92093e-05 0)
(9.34242e-06 -4.56481e-05 0)
(2.18094e-05 -6.14098e-05 0)
(3.55972e-05 -6.77509e-05 0)
(4.81178e-05 -6.59228e-05 0)
(5.74999e-05 -5.71524e-05 0)
(6.21111e-05 -4.25852e-05 0)
(6.05376e-05 -2.32523e-05 0)
(5.15874e-05 -5.90126e-08 0)
(3.42675e-05 2.62126e-05 0)
(7.7629e-06 5.48944e-05 0)
(-2.85816e-05 8.54195e-05 0)
(-7.52791e-05 0.000117308 0)
(-0.000132718 0.000150156 0)
(-0.000201174 0.000183621 0)
(-0.00028083 0.000217416 0)
(-0.000371783 0.000251296 0)
(-0.000474057 0.000285056 0)
(-0.000587612 0.000318521 0)
(-0.000712354 0.000351543 0)
(-0.000848141 0.000383996 0)
(-0.000994791 0.000415776 0)
(-0.00115208 0.00044679 0)
(-0.00131977 0.000476964 0)
(-0.00149758 0.000506232 0)
(-0.0016852 0.000534541 0)
(-0.00188233 0.000561844 0)
(-0.00208863 0.000588105 0)
(-0.00230375 0.000613291 0)
(-0.00252733 0.000637378 0)
(-0.002759 0.000660345 0)
(-0.00299838 0.000682175 0)
(-0.00324509 0.000702856 0)