/*--------------------------------*- C++ -*----------------------------------*\
  =========                 |
  \\      /  F ield         | OpenFOAM: The Open Source CFD Toolbox
   \\    /   O peration     | Website:  https://openfoam.org
    \\  /    A nd           | Version:  7
     \\/     M anipulation  |
\*---------------------------------------------------------------------------*/
FoamFile
{
    version     2.0;
    format      ascii;
    class       volVectorField;
    location    "20";
    object      U;
}
// * * * * * * * * * * * * * * * * * * * * * * * * * * * * * * * * * * * * * //

dimensions      [0 1 -1 0 0 0 0];

internalField   nonuniform List<vector> 
607
(
(0.995776 0.00885091 0)
(0.995489 0.00809282 0)
(0.995294 0.00730204 0)
(0.9952 0.00651761 0)
(1.00334 0.0208375 0)
(1.00254 0.0197938 0)
(1.00183 0.0188066 0)
(1.00122 0.0178176 0)
(1.00072 0.0168355 0)
(1.00033 0.0159486 0)
(0.999995 0.0152319 0)
(0.999656 0.0146711 0)
(0.999275 0.0141887 0)
(0.998859 0.0137192 0)
(0.998424 0.013237 0)
(0.997976 0.0127333 0)
(0.997517 0.0121997 0)
(0.99705 0.0116342 0)
(0.996581 0.0110419 0)
(0.996122 0.0104167 0)
(0.995691 0.00973802 0)
(0.995315 0.0089869 0)
(0.995021 0.00817099 0)
(0.994836 0.00732017 0)
(0.994767 0.00648136 0)
(1.00198 0.0209577 0)
(1.00127 0.0199679 0)
(1.00067 0.0190244 0)
(1.00018 0.0180488 0)
(0.999802 0.0170487 0)
(0.999513 0.0161411 0)
(0.999252 0.0154345 0)
(0.998962 0.0149197 0)
(0.998623 0.0144937 0)
(0.99825 0.014066 0)
(0.99786 0.0136093 0)
(0.99745 0.0131261 0)
(0.997008 0.0126118 0)
(0.996532 0.0120598 0)
(0.996036 0.0114702 0)
(0.995547 0.010835 0)
(0.995097 0.010131 0)
(0.99472 0.00933556 0)
(0.994446 0.00845614 0)
(0.994298 0.00752846 0)
(0.994281 0.00661021 0)
(1.00101 0.0216943 -1.9882e-23)
(1.00041 0.0205085 1.07142e-22)
(0.999918 0.0193828 -2.87246e-24)
(0.999523 0.0182511 -2.08296e-24)
(0.99921 0.017143 9.38936e-24)
(0.99896 0.0161795 3.0562e-22)
(0.998737 0.0154591 -4.18977e-22)
(0.998492 0.0149461 1.49884e-22)
(0.998199 0.0145168 -2.82092e-22)
(0.997866 0.0140796 -9.14147e-23)
(0.997509 0.0136168 4.16569e-22)
(0.997123 0.0131364 -3.21069e-22)
(0.996691 0.0126306 5.23651e-22)
(0.996206 0.0120846 -2.45476e-22)
(0.995689 0.0114906 1.36326e-22)
(0.995181 0.010837 -2.30435e-22)
(0.994721 0.0101021 -1.134e-22)
(0.994347 0.00926777 1.67365e-22)
(0.994087 0.00834781 -8.06813e-23)
(0.993963 0.00738425 3.84675e-23)
(0.993978 0.00643929 9.30126e-23)
(1.00065 0.0214277 3.25053e-23)
(1.00009 0.0202699 -1.78455e-22)
(0.999644 0.0191588 1.20713e-22)
(0.999282 0.0180423 2.028e-22)
(0.998988 0.0169624 -2.47145e-22)
(0.998749 0.0160404 -1.07581e-22)
(0.998537 0.0153653 5.35673e-23)
(0.998309 0.0148894 2.12837e-22)
(0.998034 0.0144834 -3.8194e-22)
(0.997717 0.0140587 6.53144e-22)
(0.997372 0.0136051 -5.49937e-22)
(0.996995 0.0131349 3.79961e-23)
(0.996566 0.0126393 1.39065e-22)
(0.996076 0.0121003 2.27095e-22)
(0.995548 0.0115071 -1.29173e-22)
(0.995029 0.0108468 -2.31674e-23)
(0.994563 0.0100984 1.44612e-23)
(0.994189 0.00924661 3.30892e-23)
(0.993935 0.0083086 -1.42425e-22)
(0.993821 0.00732965 4.66283e-23)
(0.993849 0.0063738 -6.39562e-23)
(1.00035 0.0212955 -6.36697e-24)
(0.999841 0.0201325 -7.30153e-23)
(0.999427 0.0190164 -1.68972e-22)
(0.999093 0.0179042 3.76946e-22)
(0.998813 0.0168453 -5.16282e-22)
(0.998579 0.015959 6.33462e-22)
(0.998373 0.0153207 -3.84372e-22)
(0.998157 0.0148724 -2.14218e-22)
(0.997897 0.0144814 6.67321e-22)
(0.997592 0.0140637 -7.477e-22)
(0.997257 0.0136156 1.62608e-22)
(0.996887 0.0131525 5.05142e-22)
(0.996458 0.0126648 -2.65105e-22)
(0.995961 0.0121307 -1.50528e-22)
(0.995421 0.0115359 2.05521e-22)
(0.994888 0.0108661 3.77112e-23)
(0.994414 0.0101015 -1.61677e-22)
(0.994038 0.00923016 8.69634e-23)
(0.993788 0.00827264 -3.51024e-23)
(0.993683 0.00727727 -8.64352e-23)
(0.993724 0.00630977 5.05679e-23)
(1.0001 0.021212 -1.15946e-22)
(0.99963 0.0200425 -1.43703e-22)
(0.999255 0.0189219 1.79643e-22)
(0.998947 0.017812 -7.82868e-23)
(0.998678 0.0167671 3.94802e-22)
(0.998444 0.015905 -2.89126e-22)
(0.998241 0.0152923 2.71469e-22)
(0.998035 0.0148633 -2.92448e-22)
(0.997788 0.0144828 1.44472e-22)
(0.997494 0.0140701 -1.82727e-22)
(0.997167 0.0136267 5.15315e-22)
(0.9968 0.0131708 -3.35824e-22)
(0.996369 0.0126914 -3.34426e-23)
(0.995863 0.0121625 3.01557e-23)
(0.995308 0.0115657 -2.56316e-24)
(0.99476 0.0108853 -1.08693e-22)
(0.994275 0.0101034 1.11849e-22)
(0.993894 0.00921143 -6.02388e-24)
(0.993648 0.00823372 8.34685e-23)
(0.993551 0.00722156 -4.50738e-23)
(0.993604 0.00624222 -1.27518e-22)
(0.999871 0.0211088 -2.93442e-22)
(0.999445 0.0199403 3.61109e-22)
(0.99911 0.0188198 5.63741e-23)
(0.998828 0.0177155 -1.00424e-22)
(0.99857 0.0166873 1.89459e-22)
(0.998337 0.0158499 1.88781e-22)
(0.998137 0.015262 -4.26397e-22)
(0.99794 0.0148513 -2.1057e-22)
(0.997706 0.0144814 1.12196e-22)
(0.997422 0.0140747 3.74655e-22)
(0.997099 0.0136373 -6.46928e-22)
(0.996734 0.01319 3.52099e-22)
(0.996299 0.0127201 1.68127e-22)
(0.995782 0.0121972 -1.21955e-22)
(0.995211 0.0115986 2.69017e-22)
(0.994645 0.010907 -1.25508e-22)
(0.994146 0.0101066 1.14405e-22)
(0.99376 0.00919286 -1.34091e-22)
(0.993515 0.00819411 1.98934e-23)
(0.993427 0.00716466 6.30511e-23)
(0.993491 0.00617324 -2.22848e-22)
(0.999643 0.0209933 -1.72175e-22)
(0.999269 0.0198287 -4.0829e-22)
(0.998976 0.0187112 5.31892e-22)
(0.998722 0.0176166 -9.2568e-23)
(0.998477 0.0166088 -4.81542e-23)
(0.998249 0.0157978 -6.01208e-22)
(0.998052 0.0152339 2.21675e-22)
(0.997865 0.0148402 -1.73461e-22)
(0.997643 0.0144805 4.88126e-22)
(0.997369 0.0140806 -1.60542e-22)
(0.99705 0.0136502 1.42763e-22)
(0.996684 0.0132123 1.09067e-23)
(0.996244 0.0127529 -5.01441e-22)
(0.995716 0.0122366 4.01346e-22)
(0.995127 0.0116361 9.91138e-23)
(0.994542 0.0109324 -3.95692e-23)
(0.994027 0.0101122 1.5026e-22)
(0.993634 0.00917531 -1.34618e-22)
(0.99339 0.00815448 -2.01529e-22)
(0.993309 0.0071071 1.34397e-22)
(0.993385 0.00610331 3.27238e-23)
(0.999406 0.0208732 1.39539e-22)
(0.999088 0.0197142 5.3447e-23)
(0.998839 0.0186022 -7.56612e-23)
(0.998616 0.0175205 -1.01298e-22)
(0.998389 0.0165356 -1.311e-22)
(0.998168 0.0157509 6.47289e-22)
(0.997978 0.0152092 2.04504e-23)
(0.997801 0.0148305 7.75811e-23)
(0.997593 0.0144806 -4.89636e-22)
(0.997329 0.014088 5.97506e-23)
(0.997014 0.0136657 3.34211e-23)
(0.996646 0.0132382 1.15796e-22)
(0.9962 0.0127899 1.9814e-22)
(0.995659 0.0122807 4.15268e-23)
(0.995052 0.0116782 -1.97733e-22)
(0.994447 0.0109616 -1.2646e-22)
(0.993915 0.0101202 -5.6661e-24)
(0.993513 0.00915872 1.57878e-23)
(0.99327 0.00811469 1.57175e-22)
(0.993197 0.00704873 -7.93181e-23)
(0.993284 0.00603228 4.3401e-23)
(0.999514 0.0220303 -1.58975e-22)
(0.999154 0.0207486 8.1989e-23)
(0.998895 0.0195967 -8.2133e-22)
(0.998693 0.0184923 5.7674e-22)
(0.998503 0.0174264 5.8314e-22)
(0.998296 0.0164663 -9.57103e-22)
(0.998087 0.0157079 2.87533e-22)
(0.997906 0.0151865 -3.69646e-22)
(0.997743 0.0148214 7.49224e-22)
(0.997549 0.0144809 -1.07035e-21)
(0.997295 0.0140966 7.23867e-22)
(0.996984 0.0136836 -5.11233e-22)
(0.996613 0.0132675 6.16039e-22)
(0.99616 0.0128311 -4.59719e-22)
(0.995607 0.0123295 5.68107e-23)
(0.994982 0.0117249 -7.79258e-23)
(0.994355 0.0109947 -3.75291e-23)
(0.993806 0.0101306 9.09959e-23)
(0.993396 0.00914312 -1.62943e-22)
(0.993154 0.00807471 2.2279e-22)
(0.993089 0.00698946 -8.56063e-23)
(0.993188 0.00596012 -5.90543e-23)
(0.999181 0.0218895 3.78418e-22)
(0.998888 0.0206185 -2.95064e-22)
(0.998687 0.0194749 3.91418e-23)
(0.998532 0.0183804 4.86592e-22)
(0.998376 0.0173333 -6.48651e-22)
(0.998193 0.0163997 -1.32339e-22)
(0.998 0.0156674 -7.68508e-23)
(0.997832 0.0151651 9.37186e-22)
(0.997682 0.0148123 -3.09529e-22)
(0.997504 0.0144813 -2.01977e-22)
(0.997261 0.0141065 -2.91903e-22)
(0.996953 0.0137041 1.0552e-22)
(0.99658 0.0133004 1.56246e-23)
(0.996119 0.0128766 9.15101e-23)
(0.995553 0.012383 -1.23432e-23)
(0.99491 0.0117763 8.8116e-23)
(0.994263 0.0110317 -2.64557e-22)
(0.993697 0.0101437 4.56764e-23)
(0.993277 0.00912853 8.44961e-23)
(0.993037 0.00803446 -1.4336e-23)
(0.992981 0.00692921 1.15699e-22)
(0.993094 0.00588675 -9.78366e-23)
(0.998836 0.0217426 3.08604e-23)
(0.998609 0.020483 -9.36912e-22)
(0.998467 0.0193488 5.96043e-22)
(0.998357 0.0182666 5.76869e-22)
(0.998236 0.0172406 -5.22397e-22)
(0.998079 0.016335 2.47006e-22)
(0.997905 0.0156287 2.3515e-22)
(0.997752 0.0151443 -8.67649e-23)
(0.997617 0.014803 -2.78552e-23)
(0.997454 0.0144818 -8.67162e-23)
(0.997223 0.0141176 1.93207e-23)
(0.996918 0.0137273 -1.52467e-23)
(0.996541 0.013337 -1.35973e-22)
(0.996072 0.0129265 1.74381e-22)
(0.995493 0.0124414 2.29954e-23)
(0.994832 0.0118324 2.80781e-23)
(0.994165 0.0110726 -8.75943e-23)
(0.993582 0.0101593 2.16792e-22)
(0.993154 0.00911488 -6.38492e-23)
(0.992916 0.00799382 1.18856e-23)
(0.992872 0.0068678 1.48012e-22)
(0.992999 0.00581198 -4.64897e-23)
(0.998485 0.02159 -1.12784e-22)
(0.998323 0.0203421 -1.16051e-22)
(0.998236 0.0192183 -4.21093e-22)
(0.998171 0.0181509 -5.86623e-23)
(0.998084 0.0171483 8.32341e-22)
(0.997955 0.0162716 -3.77825e-22)
(0.997802 0.015591 -4.60624e-22)
(0.997665 0.0151237 -1.66369e-22)
(0.997545 0.0147932 3.11204e-23)
(0.997397 0.0144821 1.77799e-22)
(0.997177 0.0141299 -1.85884e-22)
(0.996876 0.0137531 1.89731e-22)
(0.996495 0.0133775 -2.06989e-22)
(0.996016 0.0129809 -2.52266e-23)
(0.995423 0.0125045 3.10767e-22)
(0.994745 0.0118932 -1.12566e-22)
(0.994058 0.0111174 5.94659e-23)
(0.993458 0.0101773 1.76287e-23)
(0.993023 0.00910201 -1.00553e-22)
(0.992789 0.00795258 -1.27267e-22)
(0.992757 0.00680498 -1.43852e-22)
(0.992902 0.00573561 1.90717e-22)
(0.998132 0.0214319 -1.1206e-22)
(0.998032 0.0201957 -5.93321e-22)
(0.997998 0.0190838 4.91683e-22)
(0.997976 0.0180334 -2.65412e-23)
(0.997924 0.0170561 -5.22178e-22)
(0.997822 0.0162091 9.74297e-22)
(0.997692 0.0155539 -6.25822e-23)
(0.997572 0.015103 -2.32898e-22)
(0.997467 0.0147831 5.16986e-22)
(0.997332 0.0144826 -2.34753e-22)
(0.997122 0.0141435 -2.71009e-22)
(0.996824 0.0137818 2.34181e-22)
(0.996438 0.0134219 2.25842e-23)
(0.995949 0.01304 1.38177e-22)
(0.995342 0.0125726 -1.04782e-22)
(0.994645 0.0119587 -1.34512e-22)
(0.993938 0.0111661 1.31903e-23)
(0.993324 0.0101977 -1.67691e-23)
(0.992883 0.00908976 -7.9844e-23)
(0.992654 0.0079105 -1.0348e-22)
(0.992637 0.00674046 2.72481e-22)
(0.9928 0.00565743 -5.6118e-23)
(0.997782 0.0212683 -2.62894e-22)
(0.997741 0.020044 -7.46787e-23)
(0.997758 0.0189454 4.04903e-22)
(0.997777 0.0179143 1.48534e-22)
(0.997758 0.016964 -7.44789e-22)
(0.997685 0.0161471 2.04943e-22)
(0.997578 0.015517 -4.83876e-22)
(0.997476 0.0150821 2.69337e-22)
(0.997384 0.0147727 -6.88096e-23)
(0.99726 0.0144834 2.48548e-22)
(0.997059 0.0141587 9.03917e-23)
(0.996764 0.0138135 -2.49786e-23)
(0.996372 0.0134706 3.56608e-23)
(0.995871 0.0131041 3.97164e-23)
(0.995247 0.0126459 3.42847e-22)
(0.994531 0.0120291 -1.39673e-22)
(0.993805 0.0112185 -5.04561e-23)
(0.993176 0.0102202 -7.25196e-23)
(0.992731 0.0090779 1.87492e-24)
(0.99251 0.00786733 9.7168e-23)
(0.992509 0.00667395 -1.06725e-22)
(0.992693 0.00557706 1.72412e-22)
(0.997436 0.021099 -1.47884e-21)
(0.997452 0.0198872 1.02511e-21)
(0.997519 0.0188036 -1.7938e-22)
(0.997577 0.0177939 2.04204e-22)
(0.99759 0.0168719 -1.92599e-22)
(0.997545 0.0160853 -1.81049e-22)
(0.997462 0.0154801 5.68741e-23)
(0.997377 0.015061 -9.17817e-23)
(0.997297 0.0147622 1.46832e-22)
(0.997184 0.0144848 1.06574e-23)
(0.996989 0.0141757 1.48411e-22)
(0.996695 0.0138483 -3.37633e-22)
(0.996298 0.0135236 1.71989e-22)
(0.995783 0.0131733 -1.53513e-22)
(0.995141 0.0127245 2.05659e-22)
(0.994404 0.0121044 -1.4246e-22)
(0.993658 0.0112747 -1.68599e-22)
(0.993016 0.0102448 2.84011e-22)
(0.992568 0.00906624 -1.43405e-22)
(0.992356 0.0078228 -1.75856e-22)
(0.992373 0.00660519 9.5358e-23)
(0.992581 0.00549426 1.58479e-23)
(0.997097 0.0209239 -9.65912e-22)
(0.997168 0.0197254 9.9925e-22)
(0.997281 0.0186586 -4.89929e-23)
(0.997378 0.0176722 4.85201e-22)
(0.997422 0.0167796 -1.84012e-22)
(0.997405 0.0160234 -3.46341e-22)
(0.997345 0.0154428 8.17283e-23)
(0.997278 0.0150397 -1.89745e-23)
(0.997209 0.014752 -2.39417e-22)
(0.997103 0.0144872 4.76071e-23)
(0.996914 0.0141947 2.30284e-23)
(0.996621 0.0138865 1.72894e-22)
(0.996215 0.0135814 1.34557e-22)
(0.995685 0.0132481 -2.68449e-22)
(0.995023 0.0128089 -2.23741e-22)
(0.994264 0.0121848 3.6899e-22)
(0.993498 0.0113347 -3.37622e-22)
(0.992843 0.0102714 7.24727e-23)
(0.992394 0.00905456 9.52653e-23)
(0.992192 0.00777668 1.43448e-23)
(0.992229 0.00653393 -4.01838e-23)
(0.992463 0.00540853 -1.01088e-22)
(0.996728 0.0221489 -1.18189e-21)
(0.996765 0.0207431 9.92336e-22)
(0.996889 0.019559 -9.81212e-22)
(0.997047 0.0185106 8.6485e-22)
(0.99718 0.0175495 -4.34013e-22)
(0.997255 0.0166872 -2.82392e-22)
(0.997265 0.0159613 1.30767e-22)
(0.99723 0.0154051 5.10029e-23)
(0.997179 0.0150182 2.26723e-22)
(0.99712 0.0147423 -2.37241e-22)
(0.99702 0.0144908 1.01988e-22)
(0.996834 0.0142159 1.2994e-23)
(0.99654 0.0139283 2.06378e-22)
(0.996127 0.0136441 -4.94087e-22)
(0.99558 0.0133289 1.19918e-22)
(0.994895 0.0128995 2.21051e-22)
(0.994111 0.0122706 -2.40451e-22)
(0.993325 0.0113986 2.89166e-22)
(0.992658 0.0102998 -2.05797e-23)
(0.992209 0.00904266 -7.69066e-23)
(0.99202 0.0077287 3.09871e-23)
(0.992079 0.00645993 -9.75532e-23)
(0.996339 0.0219463 -1.68361e-22)
(0.996438 0.0205565 2.87717e-22)
(0.996613 0.0193882 1.54301e-22)
(0.996814 0.01836 -8.73393e-22)
(0.996983 0.0174256 -2.61266e-22)
(0.997089 0.0165944 2.04539e-22)
(0.997126 0.0158987 2.5598e-22)
(0.997114 0.0153669 -5.67973e-23)
(0.99708 0.0149967 3.30623e-22)
(0.99703 0.0147335 -1.36295e-22)
(0.996933 0.0144961 -1.78975e-22)
(0.99675 0.0142396 2.95085e-22)
(0.996454 0.0139738 -1.97425e-22)
(0.996032 0.013712 -6.86342e-23)
(0.995466 0.013416 1.15408e-22)
(0.994756 0.0129965 7.96669e-23)
(0.993947 0.0123621 -7.12679e-23)
(0.99314 0.0114663 -5.24421e-23)
(0.992462 0.0103299 1.78783e-22)
(0.992014 0.00903033 -2.73314e-22)
(0.991839 0.00767863 2.22535e-22)
(0.991923 0.0063829 -3.16524e-23)
(0.995953 0.0217365 3.00276e-22)
(0.996113 0.0203643 -7.30175e-22)
(0.996338 0.0192132 3.9281e-22)
(0.99658 0.0182068 -2.21539e-22)
(0.996784 0.0173007 8.57613e-22)
(0.996919 0.0165011 -1.81638e-22)
(0.996983 0.0158355 -1.67751e-22)
(0.996995 0.015328 4.80916e-22)
(0.996977 0.0149753 -2.60962e-22)
(0.996934 0.0147257 -5.80608e-23)
(0.99684 0.0145032 4.3905e-23)
(0.996658 0.014266 -3.73755e-22)
(0.99636 0.0140232 6.55668e-23)
(0.995928 0.0137853 2.13715e-22)
(0.995343 0.0135097 -8.4035e-24)
(0.994607 0.0131004 -6.19361e-23)
(0.99377 0.0124594 -4.35652e-23)
(0.992942 0.0115379 2.58592e-22)
(0.992253 0.0103615 2.22569e-22)
(0.991809 0.00901732 -1.73073e-23)
(0.991651 0.0076262 -1.11464e-22)
(0.991761 0.00630259 2.59718e-22)
(0.995562 0.0215195 4.76369e-22)
(0.995783 0.0201665 -3.26527e-22)
(0.996056 0.0190343 4.33606e-22)
(0.996338 0.0180512 -4.82204e-22)
(0.996575 0.0171746 7.20982e-22)
(0.996739 0.016407 -2.52659e-22)
(0.99683 0.0157713 -3.95232e-23)
(0.996865 0.0152884 1.56586e-22)
(0.996863 0.014954 -1.27378e-22)
(0.996826 0.014719 -3.03977e-23)
(0.996734 0.0145123 -3.53242e-22)
(0.996552 0.0142951 2.12057e-22)
(0.996253 0.0140764 -3.99787e-23)
(0.995811 0.0138641 2.001e-22)
(0.995206 0.0136102 -2.58223e-22)
(0.994442 0.0132114 -1.24229e-22)
(0.993577 0.0125626 3.1277e-22)
(0.992728 0.0116134 -2.16292e-22)
(0.992031 0.0103944 -3.79759e-23)
(0.991594 0.00900329 -2.68023e-22)
(0.991456 0.00757107 2.30615e-23)
(0.991595 0.00621871 -3.02813e-23)
(0.995157 0.0212951 -4.58132e-22)
(0.995436 0.0199633 3.62051e-22)
(0.995756 0.0188516 9.35399e-22)
(0.996076 0.0178935 -1.13476e-21)
(0.996346 0.0170473 4.05149e-22)
(0.996538 0.016312 -4.31733e-22)
(0.996655 0.015706 6.40284e-22)
(0.996712 0.0152479 -4.59999e-22)
(0.996725 0.0149328 3.14215e-22)
(0.996695 0.0147137 2.93979e-22)
(0.996604 0.0145234 -1.61654e-22)
(0.996423 0.0143268 4.16388e-22)
(0.996122 0.0141334 5.76761e-23)
(0.995671 0.0139484 2.12942e-23)
(0.995046 0.0137176 1.56929e-22)
(0.994255 0.0133295 -1.08481e-22)
(0.993362 0.0126718 2.39363e-22)
(0.992494 0.0116925 -1.0051e-22)
(0.991793 0.0104283 9.32259e-23)
(0.991366 0.0089878 8.04249e-23)
(0.991252 0.00751284 -7.90181e-23)
(0.991423 0.00613089 -6.37113e-26)
(0.994718 0.0210633 -2.89239e-22)
(0.995055 0.0197548 -4.3653e-22)
(0.99542 0.0186653 6.53162e-22)
(0.995776 0.0177335 -2.77289e-22)
(0.996076 0.0169187 -1.38503e-22)
(0.996296 0.0162158 2.26505e-22)
(0.996438 0.0156395 -3.28367e-23)
(0.996517 0.0152065 9.16068e-23)
(0.996545 0.0149117 -3.28631e-22)
(0.996521 0.0147095 2.89394e-22)
(0.996431 0.0145363 -2.2551e-22)
(0.996252 0.0143608 8.184e-23)
(0.995952 0.0141939 -3.92221e-22)
(0.995494 0.0140379 1.54364e-22)
(0.994851 0.0138318 1.07779e-22)
(0.994034 0.0134546 -1.21687e-22)
(0.993117 0.0127865 -3.27471e-22)
(0.992234 0.0117746 3.07891e-22)
(0.991533 0.0104623 -2.37491e-23)
(0.991123 0.00897015 -6.61254e-23)
(0.991038 0.00745089 5.11201e-23)
(0.991245 0.00603868 -1.26905e-23)
(0.994216 0.0208242 -3.95622e-23)
(0.994609 0.0195412 5.1436e-23)
(0.995016 0.0184758 3.83947e-24)
(0.995406 0.0175716 3.66805e-22)
(0.995735 0.0167888 7.46266e-24)
(0.995981 0.0161184 2.7929e-22)
(0.996148 0.0155715 -6.09275e-22)
(0.996249 0.015164 5.11895e-22)
(0.996291 0.0148905 1.6784e-22)
(0.996273 0.0147062 -5.91543e-22)
(0.996187 0.0145505 9.57466e-23)
(0.996013 0.0143965 1.6161e-22)
(0.995716 0.0142572 -6.02005e-23)
(0.995255 0.014132 -2.17597e-22)
(0.994598 0.013952 -1.09229e-22)
(0.99376 0.0135859 -3.47442e-22)
(0.992824 0.012906 3.54281e-22)
(0.991934 0.0118588 -2.99151e-22)
(0.991242 0.0104956 2.91259e-22)
(0.990858 0.00894932 -2.13852e-22)
(0.99081 0.00738438 1.54848e-22)
(0.99106 0.00594146 -1.93266e-22)
(0.993603 0.0205781 -6.05755e-22)
(0.99405 0.0193226 -2.2393e-22)
(0.994498 0.0182832 4.023e-22)
(0.994919 0.0174079 3.42513e-22)
(0.995275 0.0166576 -1.64041e-22)
(0.995546 0.0160194 -1.18897e-22)
(0.995737 0.0155019 2.18383e-22)
(0.995858 0.0151203 -4.8831e-22)
(0.995914 0.014869 -1.44699e-22)
(0.995905 0.0147031 -7.97841e-23)
(0.995827 0.0145651 2.83081e-22)
(0.995663 0.0144327 -1.00091e-22)
(0.995376 0.014322 7.65545e-25)
(0.994919 0.0142295 1.13426e-22)
(0.994256 0.0140771 1.49095e-22)
(0.993406 0.013722 -1.22378e-22)
(0.992462 0.0130285 1.88612e-22)
(0.991578 0.0119432 -1.71874e-22)
(0.990909 0.0105262 -3.87091e-23)
(0.990563 0.00892376 2.58328e-22)
(0.990564 0.00731211 1.75042e-23)
(0.990864 0.00583839 -6.3907e-23)
(0.992805 0.020325 -4.57746e-22)
(0.993304 0.0190993 -2.9391e-23)
(0.99379 0.0180876 8.67696e-23)
(0.99424 0.0172424 -3.16207e-22)
(0.994621 0.0165249 1.14918e-23)
(0.994916 0.0159186 1.17754e-22)
(0.99513 0.0154302 4.14581e-22)
(0.995273 0.0150748 -3.11312e-22)
(0.995345 0.0148463 3.99689e-23)
(0.995348 0.0146991 5.7874e-22)
(0.995285 0.0145784 1.20135e-22)
(0.99514 0.0144677 -1.07701e-22)
(0.994876 0.0143865 -2.95656e-22)
(0.994434 0.0143283 4.78517e-23)
(0.993779 0.0142047 -4.78407e-22)
(0.992933 0.0138604 4.17491e-23)
(0.992 0.0131513 3.23756e-22)
(0.991142 0.0120251 -2.82154e-23)
(0.990517 0.0105516 -1.45685e-22)
(0.990229 0.00889124 -1.11377e-22)
(0.990293 0.00723235 -1.29361e-22)
(0.990655 0.00572831 9.24148e-24)
(0.991707 0.0200651 -5.11004e-22)
(0.992255 0.0188713 -3.46131e-22)
(0.992777 0.0178892 7.37467e-22)
(0.993254 0.0170751 3.00309e-22)
(0.993659 0.0163903 -4.43391e-22)
(0.993978 0.0158154 5.15737e-22)
(0.994217 0.0153557 -5.75327e-22)
(0.994383 0.0150267 -7.96648e-23)
(0.994476 0.0148211 2.23923e-22)
(0.994501 0.014692 -5.5599e-23)
(0.994465 0.0145877 3.35221e-22)
(0.994357 0.0144982 -4.62041e-23)
(0.994132 0.0144474 2.01039e-22)
(0.993726 0.014425 -1.17979e-22)
(0.993101 0.0143311 -1.78663e-22)
(0.992286 0.0139969 -1.11317e-22)
(0.991394 0.01327 6.87935e-24)
(0.990594 0.0121 -1.30883e-22)
(0.990044 0.0105678 2.36367e-22)
(0.98984 0.0088485 5.10432e-23)
(0.989989 0.00714272 -4.60479e-23)
(0.990428 0.00560964 3.43799e-25)
(0.990133 0.0197982 5.29309e-22)
(0.990729 0.0186385 -4.65435e-22)
(0.991286 0.0176877 9.46648e-22)
(0.991791 0.0169054 -1.19851e-21)
(0.992221 0.0162529 6.18528e-22)
(0.992567 0.0157086 2.353e-22)
(0.992837 0.0152769 -2.20843e-22)
(0.993034 0.014974 -3.92183e-22)
(0.993158 0.0147906 2.14536e-22)
(0.993221 0.0146782 5.45519e-23)
(0.993235 0.0145886 3.9733e-22)
(0.993189 0.0145194 -1.9831e-22)
(0.993032 0.0144994 -4.57285e-22)
(0.992695 0.0145139 1.31385e-22)
(0.992136 0.0144502 1.25166e-22)
(0.991393 0.0141248 -5.40787e-23)
(0.990588 0.0133777 2.06918e-22)
(0.989893 0.0121614 3.97908e-23)
)
;

boundaryField
{
    inlet
    {
        type            uniformFixedValue;
        uniformValue    constant (1 0 0);
        value           nonuniform 0();
    }
    outlet
    {
        type            pressureInletOutletVelocity;
        value           nonuniform 0();
    }
    cylinder
    {
        type            fixedValue;
        value           nonuniform 0();
    }
    top
    {
        type            symmetryPlane;
    }
    bottom
    {
        type            symmetryPlane;
    }
    defaultFaces
    {
        type            empty;
    }
    procBoundary22to14
    {
        type            processor;
        value           nonuniform List<vector> 
22
(
(0.996176 0.00865694 0)
(0.995896 0.00794137 0)
(0.995697 0.00720175 0)
(0.995586 0.00646997 0)
(1.00409 0.0194076 0)
(1.00325 0.0185782 0)
(1.00249 0.0177858 0)
(1.00182 0.0169872 0)
(1.00126 0.0161815 0)
(1.00081 0.0154278 0)
(1.00043 0.0147847 0)
(1.00005 0.0142537 0)
(0.999645 0.0137889 0)
(0.999217 0.0133421 0)
(0.998772 0.0128867 0)
(0.998316 0.0124086 0)
(0.997859 0.0118992 0)
(0.997407 0.0113583 0)
(0.996965 0.0107915 0)
(0.996537 0.0101951 0)
(0.996134 0.00955351 0)
(0.996134 0.00955351 0)
)
;
    }
    procBoundary22to15
    {
        type            processor;
        value           uniform (0.995203 0.00576618 0);
    }
    procBoundary22to21
    {
        type            processor;
        value           nonuniform List<vector> 
30
(
(1.00424 0.0219776 0)
(1.0028 0.0220583 0)
(1.00172 0.0230244 -2.95158e-22)
(1.00132 0.0227211 1.2155e-22)
(1.00099 0.0225898 4.88636e-24)
(1.00069 0.022507 -6.48154e-23)
(1.00041 0.022401 -4.06311e-23)
(1.00013 0.0222852 -2.86039e-23)
(0.999831 0.0221627 2.88811e-22)
(0.999831 0.0221627 2.88811e-22)
(1.00003 0.0235251 -8.17206e-23)
(0.999623 0.0233835 1.68118e-22)
(0.999207 0.023229 -1.99019e-22)
(0.998784 0.0230645 -2.02132e-22)
(0.998361 0.0228934 2.49929e-22)
(0.997941 0.0227164 -6.76281e-22)
(0.997528 0.0225335 2.48585e-22)
(0.997124 0.0223445 -6.38992e-22)
(0.997124 0.0223445 -6.38992e-22)
(0.996798 0.0238152 -7.51294e-22)
(0.996332 0.0235953 -3.40366e-23)
(0.99587 0.0233667 4.81048e-22)
(0.995405 0.0231288 8.01372e-22)
(0.994926 0.0228814 9.09049e-23)
(0.994414 0.0226242 -6.59981e-22)
(0.993841 0.0223574 1.95969e-22)
(0.993159 0.0220809 6.3693e-22)
(0.992295 0.0217949 -1.06907e-22)
(0.991134 0.0214996 8.30745e-22)
(0.989498 0.0211949 1.55912e-21)
)
;
    }
    procBoundary22to23
    {
        type            processor;
        value           nonuniform List<vector> 
28
(
(0.994807 0.00568673 0)
(0.994385 0.00574403 0)
(0.994119 0.00555816 -5.17026e-23)
(0.994006 0.00548711 5.7444e-23)
(0.993895 0.00541691 -1.10723e-22)
(0.99379 0.00534316 -5.36758e-23)
(0.99369 0.00526795 -7.18024e-23)
(0.993597 0.00519169 7.4589e-24)
(0.993509 0.00511435 -7.54614e-23)
(0.993426 0.00503597 -3.66742e-23)
(0.993346 0.00495645 -1.70756e-23)
(0.993266 0.00487556 -7.5526e-23)
(0.993187 0.00479342 1.24869e-22)
(0.993104 0.00471007 -2.11191e-23)
(0.993018 0.00462621 1.25212e-22)
(0.992928 0.00454036 1.00516e-23)
(0.992834 0.00444599 -5.35824e-23)
(0.992339 0.00531962 -1.71867e-22)
(0.992339 0.00531962 -1.71867e-22)
(0.992211 0.00522748 4.77227e-23)
(0.99208 0.00513185 1.51902e-22)
(0.991945 0.00503249 -1.30226e-22)
(0.991807 0.00492915 1.34624e-23)
(0.991667 0.00482145 -7.74417e-24)
(0.991523 0.00470907 -5.68932e-23)
(0.991374 0.00459147 4.32797e-24)
(0.991219 0.004468 -1.22406e-22)
(0.991055 0.00433769 -1.57314e-23)
)
;
    }
    procBoundary22to30
    {
        type            processor;
        value           nonuniform List<vector> 
23
(
(0.989461 0.010569 -6.15218e-23)
(0.989379 0.00879098 1.0162e-22)
(0.989641 0.00703991 -3.05061e-23)
(0.990177 0.00548024 -4.34861e-23)
(0.987824 0.0195235 -5.13694e-22)
(0.988469 0.0183999 -2.2523e-22)
(0.989066 0.0174818 6.25437e-22)
(0.989603 0.0167317 -4.05848e-22)
(0.990065 0.0161108 1.0272e-21)
(0.990449 0.0155955 -1.03503e-22)
(0.990762 0.0151909 -8.08171e-23)
(0.991006 0.0149131 -7.02879e-22)
(0.991183 0.0147501 4.30859e-22)
(0.991313 0.0146518 -4.56566e-22)
(0.991412 0.0145741 1.27779e-22)
(0.99147 0.0145237 -2.50901e-25)
(0.991426 0.0145345 1.13559e-22)
(0.991205 0.0145864 -4.36436e-23)
(0.990769 0.0145523 9.24015e-23)
(0.990161 0.014234 3.49051e-23)
(0.989511 0.0134642 -1.88595e-23)
(0.989461 0.010569 -6.15218e-23)
(0.988987 0.0121999 -2.1011e-23)
)
;
    }
}


// ************************************************************************* //
