/*--------------------------------*- C++ -*----------------------------------*\
  =========                 |
  \\      /  F ield         | OpenFOAM: The Open Source CFD Toolbox
   \\    /   O peration     | Website:  https://openfoam.org
    \\  /    A nd           | Version:  7
     \\/     M anipulation  |
\*---------------------------------------------------------------------------*/
FoamFile
{
    version     2.0;
    format      ascii;
    class       surfaceScalarField;
    location    "110";
    object      phi;
}
// * * * * * * * * * * * * * * * * * * * * * * * * * * * * * * * * * * * * * //

dimensions      [0 3 -1 0 0 0 0];

internalField   nonuniform List<scalar> 
30080
(
-0.000615612
-0.0150207
0.0156363
0.000283821
-0.0113047
0.0104053
0.00176958
0.0040994
-0.00558516
0.00294205
0.0143488
-0.0155212
0.003482
0.0188019
-0.0193418
0.00354288
0.0226399
-0.0227008
0.00489978
0.0163499
-0.0177068
0.0072345
-8.48005e-05
-0.00224992
0.0096584
-0.0128128
0.0103889
0.0108552
-0.0193884
0.0181916
0.0112103
-0.0243112
0.0239562
0.0125732
-0.0254348
0.0240719
0.0151437
-0.0156288
0.0130583
0.0173866
0.00131206
-0.00355495
0.0178231
-0.0189148
0.0184783
-0.000714571
-0.0143061
8.2822e-05
-0.0121021
0.00159844
0.00258378
0.00281047
0.0131367
0.00334636
0.018266
0.0036234
0.0223629
0.00542374
0.0145495
0.00778571
-0.00244677
0.00993452
-0.0149616
0.0111491
-0.020603
0.0113142
-0.0244763
0.0123829
-0.0265036
0.0146214
-0.0178674
0.0164975
-0.000563974
0.016361
0.0179596
-0.000800253
-0.0135059
-9.51232e-05
-0.0128072
0.00144683
0.00104182
0.00268779
0.0118958
0.00320048
0.0177533
0.00374832
0.021815
0.00600279
0.0122951
0.00840412
-0.0048481
0.0102361
-0.0167936
0.0113985
-0.0217654
0.0114044
-0.0244822
0.0120107
-0.0271099
0.0138495
-0.0197062
0.0154185
-0.00213295
0.0145819
0.0171975
-0.000865603
-0.0126403
-0.000243514
-0.0134293
0.0013205
-0.000522188
0.0025755
0.0106408
0.00305781
0.017271
0.00391696
0.0209559
0.00655242
0.0096596
0.00900204
-0.00729773
0.0105506
-0.0183421
0.0115682
-0.022783
0.011458
-0.0243719
0.0114925
-0.0271445
0.0128844
-0.0210981
0.0142741
-0.00352264
0.012646
0.0162101
-0.000903902
-0.0117364
-0.000358433
-0.0139748
0.00121794
-0.00209856
0.00246979
0.00938893
0.00294045
0.0168003
0.00416695
0.0197294
0.00709609
0.00673046
0.00955106
-0.00975269
0.01086
-0.0196511
0.011652
-0.0235751
0.0114946
-0.0242145
0.0109368
-0.0265866
0.0116654
-0.0218267
0.0129709
-0.0048281
0.0104462
0.0151707
-0.000911786
-0.0108246
-0.000422545
-0.014464
0.00112541
-0.00364652
0.00236142
0.00815292
0.00285985
0.0163019
0.0045334
0.0180558
0.00769352
0.00357034
0.0100515
-0.0121107
0.0111494
-0.020749
0.0116854
-0.0241111
0.0115484
-0.0240776
0.0105129
-0.0255511
0.0102114
-0.0215253
0.011518
-0.0061347
0.00739839
0.0145658
-0.000890126
-0.00993444
-0.000438692
-0.0149155
0.00103166
-0.00511687
0.00223612
0.00694846
0.00282623
0.0157118
0.00501404
0.015868
0.00833423
0.000250155
0.0104943
-0.0142707
0.0114052
-0.0216599
0.011714
-0.0244199
0.0116283
-0.0239919
0.0103982
-0.0243211
0.00899507
-0.0201222
0.0103257
-0.00746532
0.00300749
0.0147166
-0.0008438
-0.00909064
-0.000422334
-0.0153369
0.000917735
-0.00645693
0.00207418
0.00579202
0.00285117
0.0149348
0.00559101
0.0131282
0.00895146
-0.00311029
0.010859
-0.0161782
0.0116094
-0.0224103
0.0117598
-0.0245702
0.0117134
-0.0239455
0.0106827
-0.0232904
0.00891735
-0.0183568
0.0104269
-0.00897483
-0.00231647
0.0157508
-0.000780141
-0.0083105
-0.000393819
-0.0157233
0.000758674
-0.00760943
0.00185605
0.00469464
0.00294635
0.0138445
0.00624968
0.00982486
0.00949419
-0.0063548
0.0111309
-0.0178149
0.0117312
-0.0230106
0.0118118
-0.0246508
0.0117909
-0.0239247
0.0112644
-0.0227639
0.0103957
-0.017488
0.0124555
-0.0110346
-0.00743615
0.0175752
-0.00070636
-0.00760414
-0.000366905
-0.0160627
0.000537722
-0.00851405
0.00158486
0.0036475
0.00312101
0.0123083
0.00694948
0.0059964
0.0099352
-0.00934052
0.0113006
-0.0191804
0.011759
-0.023469
0.011844
-0.0247357
0.0118573
-0.023938
0.0118046
-0.0227111
0.0123815
-0.0180649
0.0150163
-0.0136695
-0.0117236
0.0193038
-0.000627035
-0.0069771
-0.000337954
-0.0163518
0.000262644
-0.00911465
0.00131706
0.00259309
0.00342086
0.0102045
0.00760997
0.00180729
0.0102508
-0.0119813
0.0113579
-0.0202875
0.0117111
-0.0238222
0.0118297
-0.0248543
0.011972
-0.0240804
0.0122153
-0.0229544
0.0135476
-0.0193972
0.0162156
-0.0163375
-0.0152718
0.0197637
-0.00054303
-0.00643407
-0.000285202
-0.0166096
-2.3913e-05
-0.00937594
0.00117848
0.0013907
0.00393424
0.00744878
0.00815734
-0.00241581
0.0104215
-0.0142455
0.0113016
-0.0211677
0.0116043
-0.0241249
0.011764
-0.0250139
0.0120763
-0.0243928
0.0125376
-0.0234156
0.0139039
-0.0207634
0.0162106
-0.0186442
-0.0183003
0.0192391
-0.000452601
-0.00598147
-0.000179981
-0.0168822
-0.000144657
-0.00941127
0.00131804
-7.19898e-05
0.00469129
0.00407553
0.00856451
-0.00628903
0.0104403
-0.0161213
0.0111475
-0.0218748
0.0114402
-0.0244176
0.0116661
-0.0252398
0.0121005
-0.0248271
0.012735
-0.0240502
0.0140903
-0.0221187
0.0161645
-0.0207185
-0.0208969
0.0187612
-0.000353502
-0.00562797
1.18641e-05
-0.0172476
-5.46107e-05
-0.00934479
0.00181023
-0.00193683
0.00554787
0.000337887
0.00880187
-0.00954302
0.0103166
-0.0176361
0.010916
-0.0224741
0.0112263
-0.024728
0.0115359
-0.0255495
0.0120631
-0.0253543
0.0128076
-0.0247947
0.0142082
-0.0235193
0.0161479
-0.0226581
-0.0231472
0.0183982
-0.000244295
-0.00538368
0.000212569
-0.0177045
0.00037038
-0.0095026
0.00255954
-0.004126
0.00624987
-0.00335244
0.00884803
-0.0121412
0.0100769
-0.0188649
0.0106267
-0.0230239
0.0109783
-0.0250796
0.0113669
-0.025938
0.0119709
-0.0259583
0.012795
-0.0256188
0.0141585
-0.0248828
0.0159329
-0.0244326
-0.0251618
0.0179475
-0.00012121
-0.00526247
0.000466821
-0.0182925
0.000967802
-0.0100036
0.0033304
-0.0064886
0.00664683
-0.00666886
0.00872019
-0.0142145
0.00975799
-0.0199027
0.0103005
-0.0235665
0.0107031
-0.0254822
0.0111644
-0.0263993
0.0118215
-0.0266154
0.0127083
-0.0265056
0.0140299
-0.0262043
0.0156783
-0.026081
-0.026997
0.0175135
2.27698e-05
-0.00528524
0.000734658
-0.0190044
0.00154483
-0.0108138
0.00390182
-0.00884559
0.00674952
-0.00951655
0.00847045
-0.0159355
0.00939565
-0.0208279
0.0099536
-0.0241244
0.0104063
-0.0259349
0.0109303
-0.0269233
0.0116277
-0.0273128
0.0125542
-0.0274322
0.0138263
-0.0274763
0.0153759
-0.0276306
-0.0286883
0.0170672
0.000171792
-0.00545703
0.000985184
-0.0198178
0.00199826
-0.0118268
0.0042185
-0.0110658
0.00665672
-0.0119548
0.00815577
-0.0174345
0.00901573
-0.0216879
0.00959541
-0.0247041
0.010093
-0.0264325
0.0106661
-0.0274964
0.0113928
-0.0280394
0.0123397
-0.0283791
0.0135474
-0.0286841
0.0150182
-0.0291014
-0.0302523
0.0165822
0.000344674
-0.0058017
0.00120017
-0.0206733
0.0023224
-0.012949
0.00435346
-0.0130969
0.00646505
-0.0140664
0.00781439
-0.0187839
0.0086318
-0.0225053
0.00923105
-0.0253033
0.00976503
-0.0269665
0.0103747
-0.0281061
0.0111205
-0.0287852
0.0120701
-0.0293287
0.0132246
-0.0298386
0.0146344
-0.0305111
-0.0316946
0.0160767
0.000533043
-0.00633474
0.00137731
-0.0215175
0.00254778
-0.0141195
0.00438406
-0.0149332
0.00622931
-0.0159116
0.00746384
-0.0200184
0.00824939
-0.0232909
0.00886281
-0.0259168
0.00942406
-0.0275277
0.0100588
-0.0287409
0.0108154
-0.0295418
0.0117507
-0.0302639
0.0128593
-0.0309472
0.0141976
-0.0318494
-0.0330505
0.0155535
0.000724944
-0.00705969
0.00151981
-0.0223124
0.00269983
-0.0152995
0.004351
-0.0165844
0.00597287
-0.0175335
0.00711023
-0.0211558
0.00787015
-0.0240508
0.00849149
-0.0265381
0.00907088
-0.0281071
0.0097201
-0.0293901
0.0104781
-0.0302999
0.0113914
-0.0311772
0.0124616
-0.0320174
0.0137085
-0.0330964
-0.0343398
0.0149978
0.000904256
-0.00796394
0.00162972
-0.0230379
0.00279264
-0.0164625
0.00427363
-0.0180654
0.0057061
-0.0189659
0.00675868
-0.0222084
0.007495
-0.0247871
0.00811782
-0.0271609
0.00870669
-0.028696
0.00936149
-0.0300449
0.0101125
-0.0310509
0.0109999
-0.0320645
0.012028
-0.0330455
0.0131841
-0.0342525
-0.0355766
0.0144209
0.00105468
-0.00901863
0.00170797
-0.0236912
0.00283502
-0.0175895
0.00416362
-0.019394
0.00543454
-0.0202369
0.00641135
-0.0231852
0.00712336
-0.0254991
0.00774143
-0.027779
0.00833194
-0.0292865
0.00898405
-0.030697
0.0097211
-0.0317879
0.0105787
-0.0329221
0.0115561
-0.0340229
0.0126558
-0.0353522
-0.0367489
0.0138282
0.00116538
-0.010184
0.0017565
-0.0242823
0.00283491
-0.0186679
0.00402973
-0.0205888
0.00516177
-0.0213689
0.00606885
-0.0240923
0.00675459
-0.0261848
0.007362
-0.0283864
0.00794711
-0.0298716
0.00858939
-0.0313393
0.00930645
-0.032505
0.0101297
-0.0337454
0.0110635
-0.0349568
0.0120909
-0.0363795
-0.0378616
0.0132036
0.00123439
-0.0114184
0.0017786
-0.0248265
0.00279971
-0.019689
0.00387703
-0.0216661
0.00488974
-0.0223816
0.00573093
-0.0249334
0.00638785
-0.0268418
0.00697919
-0.0289777
0.00755277
-0.0304452
0.0081789
-0.0319654
0.0088705
-0.0331966
0.00965855
-0.0345334
0.0105384
-0.0358366
0.0115107
-0.0373518
-0.0389102
0.0125593
0.00126748
-0.0126859
0.00177828
-0.0253373
0.00273588
-0.0206466
0.00370873
-0.0226389
0.00461863
-0.0232915
0.00539691
-0.0257117
0.00602235
-0.0274672
0.00659276
-0.0295481
0.0071494
-0.0310018
0.00775372
-0.0325697
0.00841615
-0.033859
0.0091637
-0.035281
0.00999495
-0.0366679
0.0109042
-0.0382611
-0.0398926
0.0118866
0.00127371
-0.0139596
0.00175958
-0.0258232
0.00264883
-0.0215359
0.00352802
-0.0235181
0.00434813
-0.0241116
0.00506601
-0.0264296
0.00565746
-0.0280587
0.0062026
-0.0300933
0.00673751
-0.0315367
0.00731529
-0.0331475
0.00794415
-0.0344879
0.00865043
-0.0359873
0.00942764
-0.0374451
0.0102781
-0.0391115
-0.0408088
0.0111942
0.00126119
-0.0152208
0.00172609
-0.0262881
0.00254294
-0.0223527
0.00333758
-0.0243128
0.00407796
-0.024852
0.00473747
-0.0270891
0.00529262
-0.0286138
0.00580871
-0.0306094
0.00631764
-0.0320457
0.00686445
-0.0336943
0.00745705
-0.0350805
0.00811816
-0.0366484
0.0088423
-0.0381692
0.00963152
-0.0399007
-0.0416584
0.0104811
0.0012354
-0.0164562
0.00167715
-0.0267298
0.0024216
-0.0230972
0.00313946
-0.0250306
0.00380784
-0.0255204
0.00441061
-0.0276919
0.00492746
-0.0291307
0.00541114
-0.031093
0.00589027
-0.0325248
0.00640255
-0.0342066
0.00695564
-0.0356336
0.00756989
-0.0372626
0.00823918
-0.0388385
0.00896715
-0.0406287
-0.0424408
0.00974953
0.00119961
-0.0176558
0.00161296
-0.0271432
0.00228741
-0.0237716
0.00293521
-0.0256784
0.0035376
-0.0261228
0.00408487
-0.0282391
0.00456169
-0.0296075
0.00500999
-0.0315413
0.00545598
-0.0329708
0.00593043
-0.034681
0.00644163
-0.0361448
0.00700681
-0.0378278
0.00761994
-0.0394517
0.00828593
-0.0412946
-0.0431567
0.00900189
0.00115584
-0.0188116
0.00153638
-0.0275237
0.00214529
-0.0243805
0.00272609
-0.0262592
0.00326711
-0.0266638
0.00375981
-0.0287318
0.00419511
-0.0300428
0.00460544
-0.0319517
0.00501529
-0.0333806
0.00544919
-0.0351149
0.0059162
-0.0366118
0.0064302
-0.0383418
0.00698681
-0.0400083
0.00759016
-0.041898
-0.0438047
0.00823809
0.00110551
-0.0199171
0.00144983
-0.027868
0.00199849
-0.0249292
0.00251315
-0.0267739
0.00299627
-0.0271469
0.00343511
-0.0291707
0.00382764
-0.0304353
0.00419771
-0.0323217
0.00456884
-0.0337518
0.00495976
-0.0355059
0.00538041
-0.0370324
0.00584208
-0.0388035
0.00634046
-0.0405066
0.0068805
-0.042438
-0.0443854
0.00746129
0.00104974
-0.0209669
0.0013551
-0.0281734
0.00184738
-0.0254215
0.00229718
-0.0272237
0.00272504
-0.0275748
0.00311054
-0.0295562
0.00345927
-0.0307841
0.00378709
-0.0326496
0.00411721
-0.0340819
0.004463
-0.0358516
0.0048357
-0.0374051
0.00524311
-0.0392109
0.0056831
-0.0409466
0.00615937
-0.0429143
-0.0448974
0.00667128
0.000989462
-0.0219563
0.00125364
-0.0284376
0.00169223
-0.0258601
0.00207879
-0.0276103
0.00245343
-0.0279494
0.00278598
-0.0298887
0.00309005
-0.0310881
0.00337391
-0.0329334
0.00366104
-0.034369
0.00395988
-0.0361505
0.00428286
-0.0377281
0.00463528
-0.0395633
0.00501553
-0.0413269
0.00542729
-0.0433261
-0.045341
0.00587098
0.000925491
-0.0228818
0.00114663
-0.0286587
0.00153359
-0.026247
0.00185847
-0.0279351
0.00218154
-0.0282725
0.00246136
-0.0301685
0.00272013
-0.0313469
0.00295849
-0.0331718
0.00320099
-0.0346115
0.0034512
-0.0364007
0.00372335
-0.0380003
0.00401919
-0.0398591
0.00433946
-0.0416472
0.00468651
-0.0436731
-0.0457153
0.00506076
0.000858514
-0.0237403
0.00103506
-0.0288353
0.00137208
-0.026584
0.00163663
-0.0281997
0.00190954
-0.0285454
0.00213669
-0.0303957
0.00234974
-0.03156
0.00254118
-0.0333632
0.00273771
-0.0348081
0.00293795
-0.0366009
0.00315786
-0.0382202
0.00339653
-0.0400978
0.00365597
-0.0419066
0.00393767
-0.0439548
-0.0460205
0.00424287
0.000789135
-0.0245295
0.000919771
-0.0289659
0.0012083
-0.0268726
0.00141357
-0.028405
0.00163767
-0.0287695
0.00181201
-0.03057
0.00197915
-0.0317271
0.00212246
-0.0335065
0.00227183
-0.0349574
0.00242097
-0.0367501
0.00258758
-0.0383868
0.00276813
-0.0402783
0.00296636
-0.0421049
0.00318253
-0.044171
-0.046256
0.003418
0.000717892
-0.0252474
0.000801422
-0.0290494
0.00104283
-0.027114
0.00118955
-0.0285517
0.00136622
-0.0289462
0.00148744
-0.0306912
0.00160858
-0.0318482
0.00170287
-0.0336008
0.00180384
-0.0350584
0.00190129
-0.0368475
0.00201323
-0.0384987
0.00213549
-0.0404006
0.00227169
-0.0422411
0.0024218
-0.0443211
-0.0464218
0.00258766
0.000645264
-0.0258926
0.000680535
-0.0290847
0.00087627
-0.0273097
0.000964763
-0.0286402
0.00109546
-0.0290769
0.00116322
-0.030759
0.0012382
-0.0319232
0.00128305
-0.0336457
0.00133427
-0.0351096
0.00137972
-0.036893
0.00143605
-0.0385551
0.00149957
-0.0404641
0.00157311
-0.0423146
0.00165683
-0.0444048
-0.0465177
0.00175274
0.000571683
-0.0264643
0.000557499
-0.0290705
0.000709157
-0.0274614
0.000739431
-0.0286704
0.000825596
-0.029163
0.000839624
-0.030773
0.000868309
-0.0319519
0.000863329
-0.0336407
0.000864136
-0.0351104
0.000856679
-0.0368855
0.000857494
-0.0385559
0.000861086
-0.0404677
0.000872427
-0.0423259
0.000889436
-0.0444218
-0.0465423
0.000913976
0.000497486
-0.0269618
0.000432472
-0.0290055
0.000541879
-0.0275708
0.000513413
-0.028642
0.000556904
-0.0292065
0.000516166
-0.0307323
0.000499763
-0.0319355
0.000442801
-0.0335837
0.000395158
-0.0350628
0.000330948
-0.0368213
0.000279652
-0.0385046
0.000218903
-0.040407
0.000171247
-0.0422783
0.000121675
-0.0443723
-0.0464907
7.00746e-05
0.000423127
-0.0273849
0.000305615
-0.028888
0.000375386
-0.0276405
0.000286158
-0.0285527
0.000291409
-0.0292118
0.000191192
-0.0306321
0.000136502
-0.0318808
1.70554e-05
-0.0334643
-6.97497e-05
-0.034976
-0.000192763
-0.0366983
-0.000300069
-0.0383973
-0.000418669
-0.0402884
-0.000531604
-0.0421653
-0.000647693
-0.0442562
-0.0463718
-0.000766589
0.000348907
-0.0277338
0.00017582
-0.0287149
0.000211088
-0.0276758
5.15233e-05
-0.0283932
3.51792e-05
-0.0291954
-0.000128397
-0.0304685
-0.000231819
-0.0317774
-0.000389754
-0.0333063
-0.000543425
-0.0348223
-0.000709172
-0.0365326
-0.000881286
-0.0382252
-0.00105444
-0.0401152
-0.00123301
-0.0419868
-0.00141557
-0.0440736
-0.0461837
-0.00160361
0.000275262
-0.0280091
3.61874e-05
-0.0284758
5.35102e-05
-0.0276931
-0.000157999
-0.0281817
-0.000243202
-0.0291102
-0.000434025
-0.0302777
-0.000601281
-0.0316101
-0.000799313
-0.0331083
-0.00101073
-0.0346109
-0.00122642
-0.0363169
-0.00145798
-0.0379936
-0.00169007
-0.0398831
-0.00193157
-0.0417453
-0.00218071
-0.0438245
-0.0459254
-0.00243901
0.000202756
-0.0282119
-7.67104e-05
-0.0281964
-0.00012379
-0.0276461
-0.000363635
-0.0279418
-0.000515805
-0.028958
-0.000741003
-0.0300525
-0.000965031
-0.0313861
-0.00120833
-0.032865
-0.00147323
-0.034346
-0.00174235
-0.0360477
-0.00203029
-0.0377057
-0.00232353
-0.0395899
-0.00262705
-0.0414418
-0.00294237
-0.0435091
-0.0455969
-0.00327088
0.000132187
-0.028344
-0.000182998
-0.0278812
-0.000304259
-0.0275248
-0.0005707
-0.0276754
-0.000782835
-0.0287459
-0.00104715
-0.0297882
-0.00132385
-0.0311094
-0.00161535
-0.0325735
-0.00193099
-0.0340303
-0.00225538
-0.0357234
-0.00259802
-0.037363
-0.002953
-0.0392349
-0.00331847
-0.0410763
-0.00369946
-0.0431281
-0.0451985
-0.00409785
6.49227e-05
-0.028409
-0.000292147
-0.0275241
-0.000478471
-0.0273385
-0.000777375
-0.0273765
-0.00104522
-0.0284781
-0.00135138
-0.029482
-0.00167782
-0.030783
-0.00201926
-0.0322321
-0.00238404
-0.0336656
-0.00276414
-0.0353433
-0.00316091
-0.0369662
-0.00357684
-0.038819
-0.00400456
-0.0406486
-0.0044509
-0.0426818
-0.0447311
-0.00491834
3.39051e-06
-0.0284124
-0.000402084
-0.0271186
-0.000648798
-0.0270918
-0.00098287
-0.0270424
-0.00130314
-0.0281578
-0.00165294
-0.0291322
-0.00202697
-0.0304089
-0.00241898
-0.03184
-0.00283219
-0.0332524
-0.00326743
-0.034908
-0.00371842
-0.0365153
-0.00419405
-0.0383433
-0.0046839
-0.0401587
-0.00519534
-0.0421704
-0.0441954
-0.00573102
-8.86444e-05
-0.0283237
-0.000512058
-0.0266952
-0.000815597
-0.0267882
-0.00118655
-0.0266715
-0.00155664
-0.0277877
-0.00195106
-0.0287378
-0.00237123
-0.0299888
-0.00281361
-0.0313977
-0.0032751
-0.0327909
-0.00376433
-0.0344188
-0.00426969
-0.0360099
-0.00480379
-0.0378092
-0.00535529
-0.0396072
-0.00593149
-0.0415942
-0.0435924
-0.00653455
-0.000170347
-0.0281534
-0.000621001
-0.0262446
-0.000978949
-0.0264303
-0.00138793
-0.0262625
-0.00180566
-0.02737
-0.00224513
-0.0282983
-0.00271043
-0.0295235
-0.00320237
-0.0309057
-0.00371219
-0.032281
-0.00425411
-0.0338769
-0.00481367
-0.0354503
-0.00540526
-0.0372176
-0.00601755
-0.0389949
-0.00665799
-0.0409537
-0.0429229
-0.00732741
-0.000247188
-0.0279062
-0.000728823
-0.0257629
-0.00113882
-0.0260203
-0.00158655
-0.0258147
-0.00205009
-0.0269064
-0.00253452
-0.0278139
-0.00304429
-0.0290137
-0.00358466
-0.0303654
-0.00414277
-0.0317229
-0.00473614
-0.0332835
-0.00534937
-0.0348371
-0.00599752
-0.0365695
-0.00666958
-0.0383229
-0.00737348
-0.0402498
-0.0421887
-0.00810775
-0.000320753
-0.0275854
-0.000835181
-0.0252485
-0.00129514
-0.0255603
-0.00178199
-0.0253279
-0.00228977
-0.0263986
-0.00281871
-0.027285
-0.00337243
-0.02846
-0.00395997
-0.0297778
-0.0045661
-0.0311168
-0.00520981
-0.0326398
-0.00587587
-0.0341711
-0.0065796
-0.0358658
-0.00731015
-0.0375923
-0.00807622
-0.0394838
-0.0413913
-0.0088736
-0.000391608
-0.0271938
-0.000939834
-0.0247003
-0.00144784
-0.0250523
-0.00197386
-0.0248019
-0.00252451
-0.025848
-0.00309722
-0.0267123
-0.0036944
-0.0278628
-0.00432785
-0.0291444
-0.00498145
-0.0304632
-0.00567447
-0.0319468
-0.00639239
-0.0334531
-0.00715049
-0.0351077
-0.00793807
-0.0368047
-0.00876455
-0.0386573
-0.0405316
-0.00962427
-0.000459989
-0.0267338
-0.00104255
-0.0241177
-0.00159679
-0.0244981
-0.00216182
-0.0242368
-0.00275409
-0.0252557
-0.00336961
-0.0260967
-0.00400969
-0.0272227
-0.00468783
-0.0284662
-0.00538815
-0.0297629
-0.00612952
-0.0312054
-0.00689825
-0.0326844
-0.00770939
-0.0342965
-0.00855238
-0.0359617
-0.00943756
-0.0377721
-0.0396082
-0.010361
-0.000526009
-0.0262078
-0.00114313
-0.0235006
-0.00174188
-0.0238993
-0.00234551
-0.0236332
-0.00297827
-0.024623
-0.0036355
-0.0254395
-0.0043178
-0.0265404
-0.00503945
-0.0277446
-0.00578557
-0.0290168
-0.0065743
-0.0304167
-0.0073928
-0.0318659
-0.0082557
-0.0334336
-0.00915268
-0.0350648
-0.0100957
-0.0368291
-0.0386181
-0.0110858
-0.000589717
-0.0256181
-0.00124137
-0.0228489
-0.00188299
-0.0232577
-0.00252463
-0.0229916
-0.00319679
-0.0239508
-0.00389451
-0.0247418
-0.00461822
-0.0258167
-0.00538222
-0.0269806
-0.00617311
-0.0282259
-0.00700816
-0.0295816
-0.00787538
-0.0309987
-0.00878891
-0.0325201
-0.00973892
-0.0341148
-0.0107398
-0.0358282
-0.0375664
-0.0117915
-0.000651128
-0.024967
-0.0013371
-0.022163
-0.00201998
-0.0225748
-0.00269886
-0.0223127
-0.00340935
-0.0232403
-0.00414629
-0.0240049
-0.00491049
-0.0250525
-0.00571564
-0.0261754
-0.0065502
-0.0273913
-0.00743041
-0.0287014
-0.00834517
-0.0300839
-0.00930822
-0.031557
-0.0103105
-0.0331125
-0.0113661
-0.0347725
-0.0364732
-0.0124594
-0.000710237
-0.0242567
-0.00143014
-0.021443
-0.00215272
-0.0218523
-0.00286793
-0.0215975
-0.00361567
-0.0224926
-0.00439051
-0.02323
-0.00519414
-0.0242489
-0.00603925
-0.0253303
-0.00691629
-0.0265143
-0.0078404
-0.0277773
-0.00880133
-0.029123
-0.00981247
-0.0305459
-0.0108652
-0.0320598
-0.01197
-0.0336678
-0.0353426
-0.0131005
-0.000767025
-0.0234897
-0.00152034
-0.0206897
-0.00228107
-0.0210915
-0.00303159
-0.020847
-0.00381546
-0.0217087
-0.00462685
-0.0224186
-0.00546876
-0.023407
-0.00635258
-0.0244465
-0.00727084
-0.025596
-0.00823749
-0.0268106
-0.00924309
-0.0281174
-0.0103006
-0.0294884
-0.0114018
-0.0309585
-0.0125554
-0.0325142
-0.0341556
-0.0137424
-0.000821466
-0.0226682
-0.00160755
-0.0199036
-0.00240488
-0.0202942
-0.00318956
-0.0200623
-0.00400843
-0.0208898
-0.00485498
-0.0215721
-0.00573392
-0.022528
-0.00665516
-0.0235252
-0.00761332
-0.0246379
-0.00862102
-0.0258029
-0.00966977
-0.0270687
-0.0107721
-0.0283861
-0.0119215
-0.0298091
-0.0131413
-0.0312944
-0.0328701
-0.0144268
-0.000873561
-0.0217947
-0.00169167
-0.0190855
-0.00252409
-0.0194618
-0.00334174
-0.0192446
-0.0041944
-0.0200372
-0.00507475
-0.0206917
-0.00598944
-0.0216134
-0.00694676
-0.0225679
-0.00794343
-0.0236412
-0.00899059
-0.0247558
-0.010081
-0.0259783
-0.0112271
-0.02724
-0.0124239
-0.0286123
-0.0136847
-0.0300336
-0.0315297
-0.0150252
-0.000923213
-0.0208715
-0.00177245
-0.0182363
-0.00263839
-0.0185958
-0.00348767
-0.0183953
-0.00437284
-0.019152
-0.00528551
-0.0197791
-0.00623454
-0.0206643
-0.00722651
-0.0215759
-0.00826011
-0.0226076
-0.00934505
-0.0236708
-0.0104754
-0.0248479
-0.0116636
-0.0260517
-0.0129057
-0.0273702
-0.0142169
-0.0287224
-0.0301522
-0.0155944
-0.00097042
-0.019901
-0.00184982
-0.0173569
-0.00274773
-0.0176979
-0.00362725
-0.0175158
-0.00454361
-0.0182356
-0.00548716
-0.0188355
-0.00646907
-0.0196824
-0.0074942
-0.0205508
-0.00856315
-0.0215386
-0.00968421
-0.0225498
-0.0108531
-0.0236791
-0.012082
-0.0248228
-0.0133679
-0.0260843
-0.0147239
-0.0273664
-0.0287331
-0.016143
-0.00101515
-0.0188859
-0.00192366
-0.0164484
-0.00285196
-0.0167696
-0.0037603
-0.0166075
-0.00470644
-0.0172895
-0.00567939
-0.0178626
-0.00669268
-0.0186691
-0.00774943
-0.0194941
-0.00885205
-0.020436
-0.0100075
-0.0213943
-0.0112133
-0.0224733
-0.0124811
-0.023555
-0.0138082
-0.0247572
-0.015206
-0.0259686
-0.0272714
-0.0166676
-0.00105736
-0.0178285
-0.00199384
-0.0155119
-0.00295093
-0.0158125
-0.00388662
-0.0156718
-0.00486109
-0.016315
-0.00586192
-0.0168617
-0.00690504
-0.017626
-0.00799181
-0.0184073
-0.0091264
-0.0193014
-0.0103146
-0.0202061
-0.0115554
-0.0212325
-0.0128598
-0.0222506
-0.0142255
-0.0233915
-0.0156619
-0.0245322
-0.0257681
-0.0171653
-0.00109703
-0.0167315
-0.00206025
-0.0145487
-0.00304452
-0.0148283
-0.00400602
-0.0147103
-0.00500733
-0.0153137
-0.00603451
-0.0158346
-0.00710583
-0.0165547
-0.00822096
-0.0172922
-0.00938581
-0.0181366
-0.010605
-0.0189869
-0.0118791
-0.0199584
-0.013218
-0.0209117
-0.0146196
-0.0219899
-0.0160933
-0.0230584
-0.0242255
-0.0176359
-0.00113413
-0.0155974
-0.00212278
-0.0135601
-0.00313259
-0.0138184
-0.00411835
-0.0137245
-0.00514494
-0.0142871
-0.00619689
-0.0147826
-0.00729475
-0.0154568
-0.00843655
-0.0161504
-0.00962985
-0.0169433
-0.0108782
-0.0177386
-0.0121836
-0.018653
-0.0135549
-0.0195404
-0.0149904
-0.0205545
-0.0164987
-0.02155
-0.0226458
-0.0180785
-0.00116862
-0.0144288
-0.00218133
-0.0125474
-0.003215
-0.0127848
-0.00422344
-0.0127161
-0.00527371
-0.0132368
-0.00634883
-0.0137075
-0.00747153
-0.0143341
-0.00863827
-0.0149836
-0.00985821
-0.0157233
-0.0111338
-0.016463
-0.0124683
-0.0173184
-0.0138695
-0.0181392
-0.0153366
-0.0190874
-0.016878
-0.0200085
-0.0210316
-0.0184922
-0.00120049
-0.0132283
-0.0022358
-0.011512
-0.00329165
-0.0117289
-0.00432114
-0.0116866
-0.00539344
-0.0121645
-0.00649011
-0.0126108
-0.00763588
-0.0131884
-0.0088258
-0.0137937
-0.0100706
-0.0144786
-0.0113716
-0.015162
-0.0127334
-0.0159567
-0.0141624
-0.0167102
-0.0156586
-0.0175912
-0.0172302
-0.0184369
-0.0193851
-0.0188767
-0.00122972
-0.0119985
-0.0022861
-0.0104557
-0.00336242
-0.0106526
-0.00441132
-0.0106377
-0.00550397
-0.0110719
-0.00662051
-0.0114943
-0.00778759
-0.0120213
-0.00899886
-0.0125824
-0.0102664
-0.013211
-0.0115908
-0.0138376
-0.0129775
-0.01457
-0.0144322
-0.0152556
-0.0159556
-0.0160678
-0.0175552
-0.0168373
-0.0177091
-0.0192312
-0.00125631
-0.0107422
-0.00233215
-0.00937983
-0.00342719
-0.00955755
-0.00449385
-0.00957105
-0.00560512
-0.00996062
-0.00673985
-0.0103596
-0.00792641
-0.0108347
-0.00915726
-0.0113516
-0.0104458
-0.0119224
-0.0117916
-0.0124918
-0.0132011
-0.0131604
-0.014679
-0.0137777
-0.0162271
-0.0145197
-0.0178522
-0.0152121
-0.016006
-0.0195553
-0.0012804
-0.00946184
-0.00237387
-0.00828636
-0.00348588
-0.00844554
-0.00456861
-0.00848832
-0.00569674
-0.00883249
-0.00684794
-0.00920835
-0.00805214
-0.00963053
-0.00930066
-0.0101031
-0.0106081
-0.010615
-0.0119733
-0.0111266
-0.0134035
-0.0117303
-0.0149025
-0.0122787
-0.0164729
-0.0129494
-0.018121
-0.013564
-0.0142786
-0.0198484
-0.00130201
-0.00815983
-0.0024112
-0.00717718
-0.00353839
-0.00731835
-0.00463549
-0.00739122
-0.00577871
-0.00768926
-0.00694465
-0.00804242
-0.0081646
-0.00841057
-0.00942896
-0.00883869
-0.0107534
-0.00929055
-0.0121358
-0.00974419
-0.0135844
-0.0102817
-0.0151021
-0.0107609
-0.0166925
-0.011359
-0.0183611
-0.0118954
-0.0125294
-0.0201103
-0.00132106
-0.00683877
-0.00244406
-0.00605417
-0.00358463
-0.00617779
-0.00469439
-0.00628146
-0.0058509
-0.00653275
-0.00702982
-0.00686351
-0.00826362
-0.00717677
-0.0095419
-0.00756042
-0.0108812
-0.00795127
-0.0122788
-0.00834659
-0.0137435
-0.00881697
-0.0152778
-0.00922663
-0.0168856
-0.00975124
-0.0185721
-0.0102088
-0.0107612
-0.0203404
-0.00133747
-0.00550129
-0.00247242
-0.00491923
-0.00362453
-0.00502568
-0.00474524
-0.00516075
-0.00591321
-0.00536478
-0.00710333
-0.00567339
-0.00834907
-0.00593103
-0.00963935
-0.00627014
-0.0109914
-0.00659919
-0.0124021
-0.00693594
-0.0138807
-0.00733832
-0.0154292
-0.00767819
-0.017052
-0.00812842
-0.0187539
-0.00850689
-0.00897647
-0.0205386
-0.0013512
-0.0041501
-0.0024962
-0.00377423
-0.00365803
-0.00386385
-0.00478795
-0.00403082
-0.00596555
-0.00418718
-0.00716509
-0.00447385
-0.00842081
-0.0046753
-0.00972115
-0.00496979
-0.0110839
-0.00523641
-0.0125055
-0.00551436
-0.0139958
-0.00584803
-0.0155561
-0.00611794
-0.0171914
-0.00649306
-0.0189061
-0.0067922
-0.00717807
-0.0207045
-0.00136219
-0.00278791
-0.00251537
-0.00262104
-0.00368507
-0.00269415
-0.00482248
-0.00289341
-0.00600784
-0.00300183
-0.007215
-0.00326669
-0.00847875
-0.00341155
-0.0097872
-0.00366134
-0.0111586
-0.00386503
-0.0125889
-0.00408401
-0.0140886
-0.0043484
-0.0156583
-0.00454823
-0.0173037
-0.00484762
-0.0190286
-0.0050673
-0.00536867
-0.020838
-0.00137043
-0.00141748
-0.0025299
-0.00146157
-0.00370562
-0.00151843
-0.00484877
-0.00175027
-0.00604002
-0.00181057
-0.007253
-0.00205371
-0.0085228
-0.00214176
-0.00983739
-0.00234675
-0.0112152
-0.0024872
-0.0126522
-0.00264705
-0.0141589
-0.00284172
-0.0157357
-0.00297142
-0.0173887
-0.00319459
-0.0191212
-0.00333478
-0.00355114
-0.0209387
-0.00137589
-4.15894e-05
-0.00253977
-0.000297688
-0.00371964
-0.000338558
-0.00486678
-0.000603132
-0.00606206
-0.00061529
-0.00727903
-0.000836739
-0.0085529
-0.000867886
-0.00987166
-0.00102799
-0.0112538
-0.00110502
-0.0126952
-0.00120566
-0.0142066
-0.00133034
-0.0157881
-0.0013899
-0.0174462
-0.00153649
-0.0191839
-0.00159714
-0.00172832
-0.0210067
-0.00137855
0.00133696
-0.00254495
0.000868713
-0.00372711
0.000843602
-0.00487649
0.000546249
-0.00607392
0.000582139
-0.00729306
0.000382405
-0.00856902
0.000408068
-0.00988996
0.000292948
-0.0112743
0.000279337
-0.012718
0.000238006
-0.0142318
0.000183454
-0.0158157
0.000193984
-0.0174764
0.000124263
-0.0192166
0.000143016
9.76342e-05
-0.0210425
-0.0013784
0.00271536
-0.00254543
0.00203574
-0.00372801
0.00202618
-0.00487789
0.00169612
-0.00607558
0.00177983
-0.00729507
0.0016019
-0.00857112
0.00168412
-0.00989226
0.00161409
-0.0112767
0.00166374
-0.0127204
0.00168175
-0.0142343
0.00169731
-0.0158181
0.00177784
-0.017479
0.00178514
-0.0192191
0.00188314
0.00192385
-0.0210453
-0.00137546
0.00409082
-0.00254123
0.00320151
-0.00372236
0.00320732
-0.00487098
0.00284474
-0.00606706
0.00297592
-0.00728507
0.0028199
-0.00855923
0.00295827
-0.00987857
0.00293343
-0.0112609
0.00304605
-0.0127025
0.00312338
-0.0142141
0.00320891
-0.0157956
0.00335929
-0.017454
0.00344364
-0.0191916
0.00362065
0.00374738
-0.0210151
-0.00136973
0.00546056
-0.00253234
0.00436412
-0.00371017
0.00438514
-0.00485578
0.00399035
-0.00604838
0.00416852
-0.00726307
0.00403459
-0.00853336
0.00422856
-0.00984893
0.004249
-0.011227
0.00442411
-0.0126643
0.00456073
-0.0141714
0.00471593
-0.015748
0.00493594
-0.0174016
0.00509724
-0.0191339
0.00535299
0.00556564
-0.0209522
-0.00136123
0.00682179
-0.00251879
0.00552168
-0.00369145
0.00555779
-0.00483231
0.00513122
-0.00601956
0.00535577
-0.00722912
0.00524415
-0.00849357
0.00549301
-0.00980337
0.00555881
-0.0111751
0.00579579
-0.0126059
0.00599162
-0.0141061
0.00621604
-0.0156755
0.00650541
-0.0173217
0.00674345
-0.0190463
0.00707759
0.00737573
-0.0208564
-0.00135
0.00817179
-0.00250061
0.00667229
-0.00366625
0.00672343
-0.00480062
0.00626559
-0.00598068
0.00653583
-0.00718328
0.00644675
-0.00843992
0.00674966
-0.00974198
0.00686087
-0.0111052
0.00715897
-0.0125274
0.00741386
-0.0140183
0.00770695
-0.0155782
0.00806535
-0.0172146
0.00837977
-0.0189288
0.00879185
0.00917494
-0.020728
-0.00133607
0.00950785
-0.00247782
0.00781405
-0.0036346
0.00788021
-0.00476076
0.00739175
-0.00593178
0.00770685
-0.00712563
0.00764059
-0.00837251
0.00799654
-0.00966487
0.00815323
-0.0110174
0.00851154
-0.0124289
0.0088253
-0.0139083
0.00918635
-0.0154563
0.00961337
-0.0170802
0.0100037
-0.0187815
0.0104932
0.0109605
-0.0205671
-0.0013195
0.0108273
-0.00245048
0.00894503
-0.00359657
0.00902631
-0.00471279
0.00850797
-0.00587297
0.00886703
-0.00705627
0.00882389
-0.00829145
0.00923172
-0.00957214
0.00943392
-0.010912
0.0098514
-0.0123105
0.0102238
-0.0137761
0.0106519
-0.0153098
0.0111471
-0.0169189
0.0116128
-0.0186047
0.012179
0.0127296
-0.0203738
-0.00130037
0.0121277
-0.00241861
0.0100633
-0.00355222
0.0101599