/*--------------------------------*- C++ -*----------------------------------*\
  =========                 |
  \\      /  F ield         | OpenFOAM: The Open Source CFD Toolbox
   \\    /   O peration     | Website:  https://openfoam.org
    \\  /    A nd           | Version:  7
     \\/     M anipulation  |
\*---------------------------------------------------------------------------*/
FoamFile
{
    version     2.0;
    format      ascii;
    class       volScalarField;
    location    "63";
    object      p;
}
// * * * * * * * * * * * * * * * * * * * * * * * * * * * * * * * * * * * * * //

dimensions      [0 2 -2 0 0 0 0];

internalField   nonuniform List<scalar> 
41600
(
-0.210725
-0.214868
-0.217726
-0.218891
-0.220396
-0.220217
-0.220085
-0.219024
-0.217653
-0.215413
-0.212302
-0.207894
-0.202307
-0.195552
-0.188411
-0.181071
-0.174096
-0.16695
-0.158545
-0.149303
-0.136675
-0.125096
-0.112676
-0.10492
-0.0982961
-0.21075
-0.214819
-0.217677
-0.218856
-0.220493
-0.220582
-0.220908
-0.220486
-0.219885
-0.218417
-0.21588
-0.21159
-0.205415
-0.197168
-0.187605
-0.177063
-0.166524
-0.156035
-0.145407
-0.135411
-0.1245
-0.116854
-0.109951
-0.109461
-0.108579
-0.210843
-0.214806
-0.217672
-0.218851
-0.22062
-0.22097
-0.221747
-0.221956
-0.222116
-0.221412
-0.219441
-0.215263
-0.208498
-0.198766
-0.186825
-0.173147
-0.159145
-0.145418
-0.132596
-0.121897
-0.112605
-0.108866
-0.107286
-0.113732
-0.117895
-0.211003
-0.214827
-0.217709
-0.218874
-0.220774
-0.221375
-0.222594
-0.22342
-0.224325
-0.224365
-0.222943
-0.218859
-0.211501
-0.200306
-0.186068
-0.169392
-0.15214
-0.135418
-0.120594
-0.109376
-0.101663
-0.101699
-0.105055
-0.117683
-0.125967
-0.211229
-0.21488
-0.217786
-0.218921
-0.22095
-0.22179
-0.223437
-0.224861
-0.226486
-0.227243
-0.226338
-0.222324
-0.214369
-0.201746
-0.185329
-0.165858
-0.145664
-0.126302
-0.109802
-0.0983353
-0.0922018
-0.0957278
-0.103521
-0.121147
-0.132587
-0.211519
-0.214963
-0.2179
-0.218989
-0.221143
-0.222208
-0.224267
-0.226263
-0.228577
-0.230011
-0.22959
-0.2256
-0.217042
-0.20304
-0.184594
-0.162588
-0.139837
-0.118275
-0.100516
-0.0890955
-0.0845501
-0.0912104
-0.102667
-0.123969
-0.137568
-0.211871
-0.215074
-0.218048
-0.219074
-0.221348
-0.222621
-0.225071
-0.22761
-0.230571
-0.232632
-0.232636
-0.228631
-0.21946
-0.204139
-0.183844
-0.15961
-0.134741
-0.111474
-0.0929321
-0.0818253
-0.0788753
-0.0881548
-0.102402
-0.125907
-0.140713
-0.212283
-0.215211
-0.218226
-0.219172
-0.221559
-0.223023
-0.22584
-0.228885
-0.232447
-0.235074
-0.235438
-0.231361
-0.221564
-0.204993
-0.183041
-0.156928
-0.130434
-0.105997
-0.0871361
-0.0766268
-0.0751404
-0.0864286
-0.102572
-0.126754
-0.141846
-0.212752
-0.21537
-0.21843
-0.219277
-0.22177
-0.223404
-0.226563
-0.230073
-0.23418
-0.237303
-0.237949
-0.233736
-0.22329
-0.205563
-0.182169
-0.154569
-0.126933
-0.101865
-0.0831164
-0.0734095
-0.0732321
-0.0858289
-0.103114
-0.126412
-0.140881
-0.213275
-0.21555
-0.218656
-0.219386
-0.221975
-0.223757
-0.227228
-0.23116
-0.23575
-0.239287
-0.240133
-0.235708
-0.224595
-0.205811
-0.18121
-0.152533
-0.124233
-0.0990518
-0.0807777
-0.0719911
-0.0728742
-0.0860014
-0.103415
-0.124884
-0.137919
-0.213851
-0.215745
-0.2189
-0.219494
-0.222168
-0.224076
-0.227827
-0.232132
-0.237137
-0.241015
-0.241939
-0.237233
-0.225439
-0.205713
-0.180155
-0.150821
-0.122304
-0.0974805
-0.0799432
-0.0721047
-0.0737287
-0.08667
-0.103381
-0.12228
-0.133295
-0.214475
-0.215954
-0.219157
-0.219595
-0.222343
-0.224353
-0.228351
-0.232978
-0.238329
-0.242444
-0.243347
-0.23828
-0.225795
-0.205259
-0.179004
-0.149427
-0.121095
-0.0970217
-0.0803759
-0.0734201
-0.0754092
-0.0875432
-0.102834
-0.118808
-0.127555
-0.215146
-0.216173
-0.219423
-0.219684
-0.222494
-0.224582
-0.228794
-0.233689
-0.239305
-0.243557
-0.244332
-0.238822
-0.225647
-0.204449
-0.177764
-0.148334
-0.120533
-0.0974975
-0.0818036
-0.0755766
-0.0775556
-0.0883916
-0.101758
-0.114784
-0.121328
-0.215862
-0.216399
-0.219693
-0.219758
-0.222617
-0.224758
-0.229148
-0.234257
-0.240056
-0.244339
-0.244871
-0.238843
-0.224993
-0.203297
-0.176445
-0.147508
-0.12052
-0.0986937
-0.0839403
-0.0782278
-0.0798764
-0.0890881
-0.100292
-0.110567
-0.115162
-0.216618
-0.216628
-0.219963
-0.219812
-0.222707
-0.224877
-0.22941
-0.234673
-0.240573
-0.244775
-0.244949
-0.238337
-0.223843
-0.20182
-0.175058
-0.146898
-0.120934
-0.100381
-0.0865063
-0.0810772
-0.082161
-0.0895975
-0.0986251
-0.106458
-0.109419
-0.217414
-0.216858
-0.22023
-0.219842
-0.222761
-0.224934
-0.229575
-0.234934
-0.240847
-0.244853
-0.244557
-0.237306
-0.22222
-0.200043
-0.173609
-0.146437
-0.121641
-0.102338
-0.0892482
-0.0838978
-0.084273
-0.0899381
-0.0969222
-0.102652
-0.104268
-0.218246
-0.217085
-0.220488
-0.219844
-0.222773
-0.22493
-0.229643
-0.235038
-0.240872
-0.244564
-0.243691
-0.235764
-0.220155
-0.197993
-0.172097
-0.146057
-0.122503
-0.104372
-0.0919585
-0.0865354
-0.0861366
-0.0901415
-0.0952846
-0.099234
-0.0997429
-0.219114
-0.217308
-0.220735
-0.219816
-0.222743
-0.224861
-0.229611
-0.234978
-0.240639
-0.243901
-0.242355
-0.233734
-0.21769
-0.195702
-0.17052
-0.145689
-0.123396
-0.106333
-0.0944864
-0.0888988
-0.0877196
-0.0902337
-0.0937589
-0.0962127
-0.0958047
-0.220016
-0.217523
-0.220968
-0.219757
-0.222669
-0.224726
-0.229479
-0.234753
-0.240142
-0.242859
-0.240558
-0.231248
-0.214876
-0.193203
-0.16887
-0.145277
-0.124219
-0.108115
-0.096738
-0.090945
-0.0890188
-0.0902316
-0.0923563
-0.0935576
-0.0923858
-0.22095
-0.21773
-0.221184
-0.219664
-0.222549
-0.224525
-0.229244
-0.234355
-0.23937
-0.241436
-0.23832
-0.228351
-0.211766
-0.190532
-0.167146
-0.144778
-0.124902
-0.109653
-0.0986665
-0.0926636
-0.0900475
-0.0901454
-0.0910693
-0.0912224
-0.0894132
-0.221915
-0.217925
-0.221381
-0.219534
-0.222385
-0.224259
-0.228904
-0.233779
-0.238318
-0.239637
-0.235671
-0.225096
-0.20842
-0.187726
-0.165345
-0.144166
-0.125401
-0.110916
-0.100259
-0.0940641
-0.0908272
-0.0899823
-0.0898824
-0.0891592
-0.0868183
-0.222912
-0.21811
-0.221554
-0.219372
-0.222176
-0.223926
-0.228455
-0.233015
-0.236978
-0.237472
-0.232649
-0.221544
-0.204897
-0.184821
-0.163472
-0.143426
-0.125695
-0.111897
-0.101525
-0.0951666
-0.0913822
-0.0897475
-0.0887776
-0.0873238
-0.0845406
-0.223941
-0.218282
-0.221704
-0.219177
-0.221921
-0.223525
-0.227891
-0.232055
-0.235349
-0.234961
-0.229304
-0.217758
-0.201251
-0.18185
-0.16153
-0.142555
-0.125781
-0.1126
-0.102486
-0.0959953
-0.0917363
-0.0894456
-0.0877377
-0.0856778
-0.082528
-0.225002
-0.218441
-0.221832
-0.218946
-0.221621
-0.223054
-0.227203
-0.230888
-0.233432
-0.232131
-0.225689
-0.213803
-0.197532
-0.17884
-0.15953
-0.141556
-0.125666
-0.113043
-0.103167
-0.0965756
-0.0919117
-0.0890809
-0.086747
-0.0841886
-0.0807367
-0.226096
-0.218587
-0.221939
-0.218683
-0.221276
-0.222507
-0.226383
-0.22951
-0.231236
-0.229017
-0.221862
-0.209738
-0.193782
-0.175817
-0.157478
-0.140436
-0.125362
-0.113246
-0.103598
-0.0969317
-0.0919287
-0.0886567
-0.0857922
-0.0828291
-0.0791292
-0.227224
-0.218727
-0.222021
-0.218389
-0.220882
-0.22188
-0.225422
-0.227915
-0.228777
-0.225662
-0.21788
-0.205616
-0.190036
-0.172798
-0.155385
-0.139207
-0.124885
-0.113229
-0.103805
-0.0970862
-0.0918053
-0.088176
-0.0848621
-0.0815768
-0.0776743
-0.22839
-0.218863
-0.222076
-0.218063
-0.220437
-0.221167
-0.224313
-0.226106
-0.226077
-0.22211
-0.213797
-0.201481
-0.18632
-0.169798
-0.153257
-0.13788
-0.12425
-0.113015
-0.103814
-0.0970595
-0.0915578
-0.0876411
-0.0839474
-0.0804131
-0.076345
-0.229596
-0.218992
-0.22211
-0.217707
-0.219938
-0.220362
-0.22305
-0.224086
-0.223164
-0.218408
-0.209659
-0.197367
-0.182651
-0.166825
-0.151101
-0.136464
-0.123473
-0.112625
-0.103645
-0.0968699
-0.0912006
-0.0870533
-0.0830406
-0.0793223
-0.0751185
-0.230845
-0.21912
-0.222122
-0.217318
-0.21938
-0.21946
-0.22163
-0.221865
-0.220068
-0.214598
-0.205506
-0.193302
-0.179044
-0.163887
-0.148924
-0.134971
-0.122568
-0.112078
-0.10332
-0.0965342
-0.0907464
-0.0864136
-0.0821362
-0.0782911
-0.0739748
-0.232142
-0.219252
-0.222112
-0.216896
-0.218763
-0.218456
-0.220051
-0.219457
-0.216824
-0.210721
-0.20137
-0.189304
-0.175505
-0.160987
-0.146729
-0.13341
-0.121549
-0.111392
-0.102854
-0.0960674
-0.0902063
-0.085722
-0.0812301
-0.0773073
-0.0728963
-0.233491
-0.219393
-0.222077
-0.21644
-0.218084
-0.217346
-0.218314
-0.216882
-0.213463
-0.206811
-0.197275
-0.185384
-0.172039
-0.158125
-0.144521
-0.131789
-0.120428
-0.110584
-0.102262
-0.0954835
-0.0895897
-0.0849786
-0.0803198
-0.0763596
-0.0718677
-0.234896
-0.219549
-0.222013
-0.215949
-0.217344
-0.216124
-0.216424
-0.214158
-0.210018
-0.202895
-0.193238
-0.181549
-0.168647
-0.155304
-0.142303
-0.130116
-0.119214
-0.109667
-0.101557
-0.0947955
-0.0889041
-0.0841829
-0.0794038
-0.0754366
-0.0708757
-0.236364
-0.219726
-0.221918
-0.215429
-0.216544
-0.214786
-0.214389
-0.211309
-0.206515
-0.198996
-0.189272
-0.177802
-0.165327
-0.15252
-0.140078
-0.128398
-0.117919
-0.108656
-0.10075
-0.0940154
-0.0881555
-0.0833352
-0.0784819
-0.0745273
-0.069908
-0.2379
-0.219927
-0.221787
-0.214884
-0.215682
-0.213329
-0.21222
-0.208358
-0.202979
-0.195131
-0.185383
-0.174144
-0.162078
-0.149774
-0.137847
-0.126639
-0.116552
-0.107561
-0.0998496
-0.0931544
-0.0873479
-0.0824358
-0.0775547
-0.0736216
-0.0689516
-0.239511
-0.220155
-0.221617
-0.214325
-0.214755
-0.211752
-0.209929
-0.205325
-0.19943
-0.191312
-0.181575
-0.170572
-0.158897
-0.147063
-0.135613
-0.124845
-0.115119
-0.106391
-0.0988651
-0.0922229
-0.0864836
-0.0814857
-0.0766223
-0.0727078
-0.0680037
-0.241202
-0.220409
-0.22141
-0.213758
-0.213758
-0.210055
-0.207531
-0.202229
-0.195884
-0.187548
-0.17785
-0.167084
-0.155779
-0.144384
-0.133378
-0.12302
-0.11363
-0.105156
-0.0978045
-0.09123
-0.0855637
-0.080488
-0.0756824
-0.071766
-0.0670602
-0.242981
-0.220681
-0.221174
-0.213188
-0.212687
-0.208243
-0.20504
-0.199089
-0.192353
-0.183843
-0.174205
-0.163674
-0.15272
-0.141737
-0.131142
-0.121168
-0.112091
-0.103862
-0.0966759
-0.0901835
-0.084589
-0.0794493
-0.0747277
-0.0707639
-0.0660936
-0.244854
-0.220959
-0.220923
-0.212613
-0.211536
-0.206322
-0.20247
-0.195919
-0.188848
-0.180201
-0.17064
-0.160339
-0.149717
-0.139118
-0.128907
-0.119291
-0.110508
-0.102516
-0.0954869
-0.0890899
-0.0835615
-0.07838
-0.0737479
-0.0696699
-0.0650754
-0.246821
-0.221231
-0.220679
-0.212022
-0.210304
-0.2043
-0.199834
-0.192731
-0.185374
-0.176622
-0.167151
-0.157073
-0.146766
-0.136526
-0.126673
-0.117393
-0.108887
-0.101122
-0.0942449
-0.0879535
-0.0824858
-0.0772911
-0.0727313
-0.0684659
-0.0640326
-0.248858
-0.2215
-0.220468
-0.211401
-0.20899
-0.202185
-0.197144
-0.189535
-0.181936
-0.173105
-0.163733
-0.153872
-0.143862
-0.133959
-0.124442
-0.115477
-0.107232
-0.0996863
-0.0929565
-0.0867779
-0.0813682
-0.0761903
-0.071675
-0.0671935
-0.0629651
-0.250986
-0.221733
-0.220314
-0.210733
-0.207596
-0.199986
-0.194411
-0.186339
-0.178538
-0.16965
-0.160383
-0.15073
-0.141002
-0.131415
-0.122213
-0.113544
-0.105548
-0.098212
-0.0916273
-0.0855658
-0.0802157
-0.0750789
-0.0705845
-0.06597
-0.0618445
-0.253191
-0.221921
-0.220234
-0.210002
-0.206122
-0.197711
-0.191643
-0.18315
-0.17518
-0.166253
-0.157095
-0.147644
-0.138183
-0.128893
-0.119987
-0.111596
-0.103837
-0.0967036
-0.0902622
-0.0843203
-0.0790342
-0.073954
-0.0694725
-0.064838
-0.0607154
-0.255445
-0.222065
-0.220233
-0.209197
-0.204572
-0.195369
-0.188848
-0.179971
-0.171863
-0.162911
-0.153866
-0.144608
-0.1354
-0.12639
-0.117764
-0.109637
-0.102104
-0.0951646
-0.088865
-0.0830443
-0.0778277
-0.0728138
-0.0683597
-0.0637498
-0.0596067
-0.257716
-0.222177
-0.220301
-0.208312
-0.202948
-0.192967
-0.186033
-0.176806
-0.168585
-0.159621
-0.150691
-0.141619
-0.132652
-0.123906
-0.115545
-0.107667
-0.10035
-0.0935983
-0.0874394
-0.0817409
-0.0765989
-0.0716603
-0.0672443
-0.0626888
-0.0585849
-0.259964
-0.222278
-0.220411
-0.207347
-0.201251
-0.190511
-0.183202
-0.173656
-0.165347
-0.15638
-0.147565
-0.138673
-0.129935
-0.121438
-0.113328
-0.105687
-0.0985784
-0.0920077
-0.0859884
-0.0804127
-0.0753505
-0.0704935
-0.0661289
-0.0616453
-0.0576035
-0.26214
-0.222401
-0.220524
-0.206304
-0.199485
-0.188008
-0.180359
-0.170523
-0.162144
-0.153183
-0.144485
-0.135765
-0.127246
-0.118986
-0.111115
-0.103699
-0.0967908
-0.0903953
-0.0845147
-0.0790622
-0.074084
-0.0693152
-0.0650108
-0.060608
-0.0566581
-0.264194
-0.222587
-0.220595
-0.205187
-0.19765
-0.185462
-0.177508
-0.167408
-0.158976
-0.150028
-0.141447
-0.132893
-0.124583
-0.116549
-0.108906
-0.101704
-0.0949891
-0.0887635
-0.0830206
-0.0776912
-0.0728012
-0.0681254
-0.0638884
-0.0595756
-0.0557227
-0.266079
-0.222887
-0.220577
-0.203997
-0.19575
-0.182879
-0.17465
-0.164309
-0.155841
-0.146911
-0.138446
-0.130053
-0.121944
-0.114125
-0.106699
-0.0997035
-0.0931747
-0.0871141
-0.081508
-0.0763018
-0.0715032
-0.0669249
-0.0627606
-0.0585417
-0.0547916
-0.26775
-0.223355
-0.220432
-0.202738
-0.193787
-0.18026
-0.171788
-0.161225
-0.152734
-0.143829
-0.13548
-0.127242
-0.119326
-0.111713
-0.104495
-0.0976974
-0.0913491
-0.085449
-0.0799788
-0.0748953
-0.0701914
-0.0657139
-0.0616258
-0.0575054
-0.0538561
-0.269172
-0.224041
-0.220133
-0.201409
-0.191764
-0.177608
-0.168921
-0.158157
-0.149655
-0.140778
-0.132545
-0.124457
-0.116727
-0.109312
-0.102294
-0.0956865
-0.0895133
-0.0837698
-0.0784345
-0.0734732
-0.0688665
-0.0644923
-0.0604836
-0.0564636
-0.0529137
-0.27032
-0.224989
-0.219668
-0.200009
-0.189683
-0.174927
-0.166051
-0.155101
-0.146599
-0.137754
-0.129638
-0.121697
-0.114147
-0.106921
-0.100095
-0.0936715
-0.0876684
-0.0820777
-0.0768764
-0.0720367
-0.0675296
-0.0632604
-0.059333
-0.0554157
-0.051962
-0.271177
-0.226228
-0.219037
-0.198536
-0.187547
-0.172216
-0.163176
-0.152058
-0.143565
-0.134756
-0.126756
-0.118957
-0.111581
-0.104539
-0.0978992
-0.0916528
-0.0858152
-0.080374
-0.0753057
-0.0705867
-0.0661812
-0.0620182
-0.0581739
-0.0543601
-0.0510002
-0.27174
-0.227765
-0.218252
-0.196986
-0.185359
-0.169477
-0.160297
-0.149023
-0.140549
-0.13178
-0.123896
-0.116237
-0.109031
-0.102165
-0.095705
-0.0896307
-0.0839544
-0.0786597
-0.0737232
-0.0691242
-0.0648219
-0.0607657
-0.0570058
-0.0532964
-0.0500276
-0.272009
-0.229584
-0.217331
-0.195355
-0.183121
-0.166711
-0.157412
-0.145997
-0.13755
-0.128823
-0.121056
-0.113533
-0.106492
-0.0997982
-0.0935125
-0.0876055
-0.0820866
-0.0769357
-0.07213
-0.0676501
-0.0634524
-0.0595031
-0.0558286
-0.052224
-0.0490437
-0.271993
-0.23164
-0.216297
-0.193638
-0.180836
-0.163918
-0.154521
-0.142977
-0.134564
-0.125883
-0.118234
-0.110845
-0.103965
-0.0974377
-0.0913216
-0.0855773
-0.0802124
-0.0752028
-0.0705267
-0.066165
-0.0620731
-0.0582304
-0.0546423
-0.0511428
-0.0480486
-0.271705
-0.233862
-0.215171
-0.19183
-0.178503
-0.161098
-0.151622
-0.13996
-0.131589
-0.122958
-0.115426
-0.10817
-0.101448
-0.0950827
-0.0891318
-0.0835464
-0.0783322
-0.0734616
-0.068914
-0.0646697
-0.0606844
-0.0569478
-0.0534468
-0.0500524
-0.047042
-0.271167
-0.236157
-0.213973
-0.189927
-0.176126
-0.15825
-0.148713
-0.136945
-0.128623
-0.120045
-0.112632
-0.105506
-0.0989387
-0.0927324
-0.0869428
-0.0815128
-0.0764465
-0.0717128
-0.0672925
-0.0631646
-0.0592866
-0.0556554
-0.0522424
-0.0489528
-0.0460242
-0.270402
-0.238414
-0.212718
-0.187922
-0.173703
-0.155373
-0.145794
-0.13393
-0.125664
-0.117141
-0.109849
-0.102851
-0.096437
-0.0903861
-0.0847545
-0.0794766
-0.0745555
-0.0699569
-0.0656626
-0.0616505
-0.0578801
-0.0543534
-0.0510292
-0.0478439
-0.0449951
-0.269444
-0.240514
-0.211418
-0.185813
-0.171235
-0.152468
-0.142861
-0.130913
-0.122709
-0.114246
-0.107074
-0.100205
-0.0939416
-0.088043
-0.0825663
-0.0774377
-0.0726595
-0.0681942
-0.0640249
-0.0601276
-0.0564651
-0.053042
-0.0498073
-0.0467258
-0.0439549
-0.268333
-0.242342
-0.210078
-0.183596
-0.168721
-0.149533
-0.139915
-0.127892
-0.119756
-0.111356
-0.104307
-0.0975655
-0.0914512
-0.0857025
-0.0803782
-0.0753964
-0.0707588
-0.0664252
-0.0623797
-0.0585966
-0.055042
-0.0517216
-0.048577
-0.0455984
-0.0429039
-0.267121
-0.243793
-0.2087
-0.181269
-0.166161
-0.146568
-0.136953
-0.124866
-0.116804
-0.10847
-0.101546
-0.0949314
-0.0889649
-0.083364
-0.0781897
-0.0733524
-0.0688536
-0.0646503
-0.0607275
-0.0570579
-0.0536111
-0.0503923
-0.0473386
-0.044462
-0.0418422
-0.265864
-0.244783
-0.207283
-0.178831
-0.163553
-0.143571
-0.133972
-0.121831
-0.113851
-0.105587
-0.0987889
-0.0923015
-0.0864818
-0.0810268
-0.0760006
-0.0713058
-0.066944
-0.0628696
-0.0590684
-0.0555117
-0.0521726
-0.0490544
-0.0460922
-0.0433165
-0.0407701
-0.264628
-0.245254
-0.205824
-0.176282
-0.160897
-0.140541
-0.130973
-0.118788
-0.110894
-0.102705
-0.0960346
-0.0896746
-0.084001
-0.0786905
-0.0738106
-0.0692565
-0.0650302
-0.0610835
-0.057403
-0.0539585
-0.0507267
-0.0477082
-0.0448382
-0.042162
-0.039688
-0.263485
-0.245178
-0.204317
-0.173623
-0.158189
-0.137477
-0.127953
-0.115733
-0.107932
-0.0998217
-0.0932817
-0.0870497
-0.0815217
-0.0763544
-0.0716195
-0.0672046
-0.0631124
-0.0592922
-0.0557314
-0.0523986
-0.0492736
-0.0463541
-0.0435767
-0.0409988
-0.0385961
-0.262504
-0.244556
-0.202758
-0.170856
-0.15543
-0.134378
-0.12491
-0.112666
-0.104964
-0.0969364
-0.090529
-0.0844256
-0.0790432
-0.0740181
-0.0694269
-0.0651499
-0.0611906
-0.057496
-0.054054
-0.0508324
-0.0478137
-0.0449923
-0.0423081
-0.0398269
-0.0374948
-0.261754
-0.243414
-0.201141
-0.167984
-0.152618
-0.131244
-0.121842
-0.109584
-0.101988
-0.0940476
-0.0877752
-0.0818015
-0.0765646
-0.0716811
-0.0672328
-0.0630924
-0.059265
-0.055695
-0.052371
-0.0492601
-0.0463472
-0.0436232
-0.0410324
-0.0386466
-0.0363846
-0.261296
-0.241797
-0.199461
-0.165011
-0.14975
-0.128072
-0.118749
-0.106487
-0.0990031
-0.0911541
-0.0850194
-0.0791764
-0.0740855
-0.0693431
-0.0650367
-0.0610322
-0.0573357
-0.0538895
-0.0506828
-0.0476819
-0.0448743
-0.0422471
-0.03975
-0.0374579
-0.0352656
-0.261182
-0.239763
-0.197714
-0.161941
-0.146826
-0.124863
-0.115629
-0.103374
-0.0960072
-0.0882547
-0.0822603
-0.0765497
-0.0716051
-0.0670036
-0.0628387
-0.0589691
-0.0554028
-0.0520796
-0.0489894
-0.0460983
-0.0433952
-0.0408643
-0.0384611
-0.0362611
-0.0341385
-0.26145
-0.237375
-0.195895
-0.158777
-0.143844
-0.121614
-0.11248
-0.100242
-0.0929995
-0.0853483
-0.0794973
-0.0739206
-0.069123
-0.0646623
-0.0606384
-0.0569032
-0.0534664
-0.0502655
-0.0472913
-0.0445094
-0.0419103
-0.0394752
-0.0371658
-0.0350564
-0.0330036
-0.262124
-0.234697
-0.194002
-0.155523
-0.140803
-0.118325
-0.109302
-0.0970906
-0.0899787
-0.082434
-0.0767293
-0.0712884
-0.0666386
-0.0623189
-0.0584358
-0.0548344
-0.0515266
-0.0484474
-0.0455886
-0.0429156
-0.0404198
-0.03808
-0.0358644
-0.0338441
-0.0318612
-0.263216
-0.231785
-0.19203
-0.152183
-0.1377
-0.114994
-0.106092
-0.0939189
-0.0869438
-0.0795108
-0.0739556
-0.0686524
-0.0641515
-0.0599732
-0.0562308
-0.0527629
-0.0495834
-0.0466255
-0.0438816
-0.041317
-0.038924
-0.0366791
-0.0345572
-0.0326245
-0.0307118
-0.264721
-0.228689
-0.189974
-0.148759
-0.134535
-0.111621
-0.10285
-0.0907256
-0.0838938
-0.0765778
-0.0711755
-0.0660122
-0.0616613
-0.0576248
-0.0540231
-0.0506885
-0.0476372
-0.0448
-0.0421706
-0.039714
-0.0374231
-0.0352728
-0.0332444
-0.0313977
-0.0295557
-0.266625
-0.225451
-0.187832
-0.145254
-0.131307
-0.108205
-0.0995738
-0.0875097
-0.0808279
-0.0736344
-0.0683883
-0.0633673
-0.0591677
-0.0552736
-0.0518128
-0.0486114
-0.0456879
-0.0429711
-0.0404558
-0.0381068
-0.0359176
-0.0338616
-0.0319263
-0.0301643
-0.0283934
-0.268899
-0.2221
-0.185598
-0.141669
-0.128013
-0.104744
-0.0962633
-0.0842702
-0.0777451
-0.0706798
-0.0655934
-0.0607172
-0.0566703
-0.0529194
-0.0495999
-0.0465315
-0.0437357
-0.041139
-0.0387375
-0.0364957
-0.0344075
-0.0324457
-0.0306031
-0.0289246
-0.0272254
-0.271509
-0.218659
-0.183268
-0.138006
-0.124651
-0.101238
-0.0929171
-0.0810064
-0.0746447
-0.0677133
-0.0627904
-0.0580615
-0.0541689
-0.0505621
-0.0473843
-0.0444491
-0.0417809
-0.039304
-0.0370158
-0.034881
-0.0328934
-0.0310254
-0.0292752
-0.0276794
-0.0260527
-0.27441
-0.215141
-0.180835
-0.134265
-0.121222
-0.0976844
-0.0895343
-0.0777174
-0.071526
-0.0647345
-0.0599788
-0.0554
-0.0516633
-0.0482016
-0.0451659
-0.0423642
-0.0398234
-0.0374662
-0.0352912
-0.0332629
-0.0313755
-0.0296009
-0.0279427
-0.0264293
-0.0248763
-0.277554
-0.211555
-0.178294
-0.130446
-0.117721
-0.0940835
-0.0861139
-0.0744024
-0.0683885
-0.0617428
-0.0571581
-0.0527324
-0.0491533
-0.0458379
-0.042945
-0.0402769
-0.0378637
-0.0356259
-0.0335639
-0.0316419
-0.0298541
-0.0281727
-0.0266058
-0.0251745
-0.0236974
-0.280886
-0.207902
-0.175638
-0.12655
-0.11415
-0.0904339
-0.0826551
-0.0710609
-0.0652315
-0.0587378
-0.0543281
-0.0500584
-0.0466389
-0.0434709
-0.0407215
-0.0381874
-0.0359018
-0.0337833
-0.0318342
-0.0300181
-0.0283295
-0.026741
-0.0252647
-0.0239149
-0.0225159
-0.284349
-0.20418
-0.172861
-0.122574
-0.110504
-0.0867345
-0.0791573
-0.0676922
-0.0620547
-0.0557191
-0.0514887
-0.0473779
-0.04412
-0.0411008
-0.0384955
-0.0360958
-0.033938
-0.0319389
-0.0301024
-0.028392
-0.0268022
-0.0253062
-0.02392
-0.0226505
-0.021329
-0.287883
-0.200383
-0.169955
-0.118517
-0.106784
-0.0829844
-0.0756197
-0.0642958
-0.0588577
-0.0526865
-0.0486395
-0.0446909
-0.0415965
-0.0387275
-0.0362673
-0.0340025
-0.0319726
-0.0300928
-0.0283688
-0.0267639
-0.0252722
-0.0238684
-0.0225725
-0.0213829
-0.0201296
-0.291427
-0.196503
-0.166913
-0.114378
-0.102987
-0.0791826
-0.0720419
-0.060871
-0.0556405
-0.0496396
-0.0457805
-0.0419973
-0.0390684
-0.0363512
-0.0340369
-0.0319075
-0.0300057
-0.0282453
-0.0266338
-0.025134
-0.0237398
-0.0224274
-0.0212229
-0.0201162
-0.0189084
-0.294919
-0.192529
-0.163727
-0.110154
-0.0991122
-0.0753281
-0.0684234
-0.0574172
-0.0524029
-0.0465785
-0.0429112
-0.0392973
-0.0365359
-0.033972
-0.0318045
-0.0298111
-0.0280378
-0.0263967
-0.0248978
-0.0235028
-0.0222053
-0.0209836
-0.0198708
-0.0188531
-0.0176638
-0.2983
-0.188449
-0.160391
-0.105844
-0.095158
-0.0714199
-0.0647643
-0.053934
-0.0491443
-0.0435033
-0.0400316
-0.0365909
-0.0339992
-0.0315899
-0.0295705
-0.0277135
-0.0260691
-0.0245474
-0.0231612
-0.0218705
-0.0206692
-0.0195386
-0.0185173
-0.0175855
-0.0164156
-0.301507
-0.184251
-0.156896
-0.101444
-0.0911231
-0.0674565
-0.0610648
-0.050422
-0.0458638
-0.0404139
-0.0371422
-0.0338774
-0.0314591
-0.0292049
-0.0273353
-0.025615
-0.0241
-0.0226977
-0.0214243
-0.0202375
-0.0191321
-0.0180948
-0.0171689
-0.0162916
-0.0151932
-0.304484
-0.17992
-0.153235
-0.0969519
-0.0870068
-0.0634369
-0.0573238
-0.0468829
-0.0425613
-0.0373082
-0.0342459
-0.0311551
-0.0289164
-0.0268171
-0.0250991
-0.023516
-0.0221308
-0.0208485
-0.0196872
-0.0186041
-0.0175947
-0.0166525
-0.0158176
-0.0149872
-0.013986
-0.307173
-0.175444
-0.149402
-0.0923647
-0.0828086
-0.0593607
-0.0535393
-0.0433155
-0.0392415
-0.0341818
-0.0313469
-0.028423
-0.0263707
-0.0244277
-0.0228614
-0.0214173
-0.0201617
-0.0189997
-0.0179505
-0.0169708
-0.0160579
-0.0152108
-0.0144611
-0.0136821
-0.012784
-0.309521
-0.170808
-0.145389
-0.0876792
-0.0785283
-0.055229
-0.0497115
-0.0397092
-0.0359165
-0.0310318
-0.0284444
-0.0256856
-0.0238182
-0.0220386
-0.0206229
-0.019319
-0.0181932
-0.0171518
-0.0162146
-0.0153381
-0.0145221
-0.0137691
-0.0131006
-0.0123798
-0.0115817
-0.311474
-0.165998
-0.141191
-0.082892
-0.0741645
-0.0510405
-0.0458526
-0.0360415
-0.0325964
-0.0278672
-0.0255223
-0.0229523
-0.0212606
-0.0196484
-0.0183842
-0.0172212
-0.0162259
-0.0153052
-0.01448
-0.0137067
-0.0129876
-0.0123274
-0.0117384
-0.0110804
-0.0103774
-0.312986
-0.161002
-0.136803
-0.0780008
-0.069715
-0.0467814
-0.0419918
-0.0323042
-0.0292605
-0.0247082
-0.0225813
-0.0202165
-0.0187003
-0.017257
-0.016146
-0.0151244
-0.0142601
-0.0134602
-0.0127472
-0.0120769
-0.0114546
-0.0108862
-0.010376
-0.00978301
-0.00917129
-0.31401
-0.155807
-0.132219
-0.0730042
-0.0651834
-0.0424224
-0.038145
-0.0285574
-0.0258625
-0.0215487
-0.0196285
-0.0174759
-0.0161383
-0.0148648
-0.0139087
-0.0130291
-0.0122964
-0.0116176
-0.0110166
-0.0104494
-0.00992357
-0.00944613
-0.00901454
-0.00848715
-0.00796421
-0.314506
-0.150401
-0.127436
-0.067898
-0.0605903
-0.0379505
-0.0342449
-0.0248395
-0.0224243
-0.0183814
-0.0166678
-0.0147301
-0.0135752
-0.0124724
-0.0116728
-0.0109359
-0.0103352
-0.00977764
-0.00928881
-0.00882448
-0.00839499
-0.008008
-0.00765462
-0.00719266
-0.00675707
-0.314434
-0.144771
-0.122449
-0.0626646
-0.0559691
-0.0334358
-0.0302383
-0.021123
-0.0189588
-0.0152025
-0.0137011
-0.0119796
-0.0110114
-0.0100804
-0.00943855
-0.00884514
-0.00837704
-0.00794096
-0.00756428
-0.00720278
-0.00686938
-0.00657242
-0.00629671
-0.00589973
-0.00555073
-0.31376
-0.138908
-0.117251
-0.0572716
-0.0513187
-0.028895
-0.0261482
-0.0173924
-0.0154736
-0.0120111
-0.0107292
-0.00922515
-0.00844721
-0.00768951
-0.00720664
-0.00675753
-0.00642242
-0.00610808
-0.00584356
-0.00558479
-0.00534732
-0.00514
-0.00494124
-0.00460878
-0.00434594
-0.312454
-0.1328
-0.111841
-0.0517102
-0.0465718
-0.0243739
-0.0219969
-0.01364
-0.011972
-0.00880741
-0.0077525
-0.00646772
-0.00588318
-0.00530036
-0.00497761
-0.0046736
-0.00447192
-0.00427955
-0.00412721
-0.00397108
-0.00382938
-0.00371129
-0.0035887
-0.00332032
-0.00314337
-0.310489
-0.126441
-0.10625
-0.0460585
-0.0416665
-0.0198342
-0.0177971
-0.00986283
-0.00845585
-0.0055924
-0.00477163
-0.00370823
-0.00331986
-0.00291359
-0.00275205
-0.00259392
-0.00252612
-0.00245594
-0.00241579
-0.00236222
-0.00231618
-0.00228686
-0.0022396
-0.00203497
-0.00194362
-0.307842
-0.119828
-0.100538
-0.0402729
-0.0366041
-0.0152601
-0.0135557
-0.00606018
-0.00492639
-0.00236719
-0.00178709
-0.000947593
-0.000757916
-0.000529879
-0.000530608
-0.000519123
-0.000585621
-0.000637855
-0.000709881
-0.000758813
-0.000808301
-0.000867262
-0.000894516
-0.000753348
-0.000747255
-0.304493
-0.112949
-0.0946992
-0.0343383
-0.0314182
-0.0106434
-0.00927701
-0.00223255
-0.00138447
0.000866962
0.00120046
0.00181328
0.00180194
0.00185006
0.00168604
0.00155015
0.00134895
0.00117411
0.000989904
0.000838522
0.000693632
0.000546925
0.000445948
0.000523874
0.000445208
-0.300427
-0.105753
-0.0885134
-0.0284608
-0.0261277
-0.00598083
-0.00496396
0.00161897
0.00216905
0.00410877
0.00419024
0.00457348
0.00435893
0.0042255
0.00389721
0.00361324
0.00327696
0.00297934
0.00268295
0.00242915
0.002189
0.00195511
0.00178114
0.001796
0.00163321
-0.295633
-0.0981674
-0.0821733
-0.0225262
-0.0207432
-0.00127098
-0.000618775
0.00549292
0.00573324
0.00735692
0.00718137
0.00733205
0.00691221
0.00659566
0.00610216
0.00566946
0.00519774
0.00477717
0.00436861
0.00401243
0.00367718
0.00335667
0.00311039
0.0030623
0.0028161
-0.290103
-0.0902186
-0.0756707
-0.0165132
-0.0152711
0.00348606
0.0037566
0.00938763
0.00930707
0.0106101
0.0101729
0.010088
0.00946093
0.00895974
0.00830014
0.00771809
0.00711062
0.00656697
0.00604625
0.0055877
0.00515753
0.00475098
0.00443299
0.00432196
0.00399314
-0.283835
-0.0821922
-0.0687802
-0.0104105
-0.00971645
0.00828933
0.00816033
0.0133013
0.0128894
0.0138668
0.0131637
0.0128404
0.0120042
0.0113169
0.0104904
0.00975839
0.0090149
0.00834805
0.00771519
0.00715429
0.00662938
0.00613737
0.00574816
0.00557412
0.00516354
-0.276827
-0.0739536
-0.0616179
-0.00421348
-0.00408364
0.0131373
0.0125906
0.0172319
0.0164789
0.0171258
0.0161527
0.0155881
0.014541
0.0136663
0.0126721
0.0117896
0.0109099
0.0101197
0.00937476
0.00871153
0.00809207
0.00751517
0.0070551
0.00681781
0.00632666
-0.26909
-0.0654632
-0.0542153
0.00207932
0.00162333
0.0180278
0.0170453
0.0211776
0.0200743
0.0203855
0.0191387
0.01833
0.0170703
0.016007
0.0148444
0.013811
0.0127948
0.0118813
0.0110243
0.0102587
0.00954493
0.00888368
0.00835294
0.00805207
0.00748193
-0.260668
-0.0566747
-0.0465886
0.00846706
0.00740054
0.0229586
0.0215226
0.0251361
0.0236739
0.0236445
0.0221204
0.021065
0.0195913
0.0183381
0.0170065
0.0158218
0.014669
0.0136321
0.012663
0.0117952
0.0109873
0.0102422
0.00964086
0.0092759
0.00862856
-0.251619
-0.0475388
-0.0387489
0.0149473
0.0132441
0.027927
0.0260202
0.0291053
0.0272761
0.0269012
0.0250965
0.023792
0.0221027
0.0206586
0.0191574
0.0178211
0.0165316
0.0153714
0.0142904
0.0133202
0.0124184
0.01159
0.010918
0.0104883
0.00976515
-0.241892
-0.0381151
-0.0307065
0.0215167
0.0191498
0.03293
0.0305357
0.033083
0.0308792
0.030154
0.0280657
0.0265096
0.0246035
0.0229676
0.0212964
0.0198081
0.0183819
0.0170985
0.0159055
0.0148331
0.0138376
0.0129264
0.0121837
0.011688
0.0108897
-0.231259
-0.0286295
-0.0224726
0.0281714
0.0251136
0.0379644
0.0350667
0.0370668
0.0344813
0.0334013
0.0310264
0.0292166
0.0270926
0.025264
0.0234225
0.021782
0.0202192
0.0188126
0.0175078
0.0163331
0.0152443
0.0142507
0.0134368
0.0128737
0.0120009
-0.219902
-0.0189739
-0.014057
0.0349073
0.031131
0.043027
0.0396104
0.0410542
0.0380805
0.0366412
0.0339772
0.0319118
0.0295688
0.0275468
0.0255347
0.023742
0.0220426
0.020513
0.0190965
0.0178196
0.0166376
0.0155622
0.0146762
0.0140435
0.0130984
-0.207863
-0.00912391
-0.00546946
0.0417197
0.0371974
0.048114
0.0441641
0.0450429
0.0416748
0.0398722
0.0369166
0.0345938
0.032031
0.0298149
0.0276321
0.0256871
0.0238513
0.0221989
0.0206709
0.0192918
0.0180171
0.0168601
0.0159006
0.0151955
0.0141819
-0.195163
0.000921709
0.00328004
0.0486034
0.0433079
0.0532219
0.0487248
0.0490301
0.0452621
0.0430922
0.039843
0.0372612
0.0344778
0.0320674
0.0297137
0.0276166
0.0256446
0.0238697
0.0222303
0.0207492
0.0193821
0.0181437
0.0171089
0.0163277
0.0152465
-0.181829
0.0111589
0.0121811
0.0555528
0.0494575
0.0583467
0.0532893
0.0530133
0.0488401
0.0462996
0.0427548
0.0399126
0.0369081
0.0343029
0.0317785
0.0295294
0.0274216
0.0255245
0.0237741
0.0221912
0.0207321
0.0194126
0.0183005
0.0174378
0.0162828
-0.16789
0.0215804
0.0212229
0.0625618
0.0556408
0.0634843
0.0578545
0.0569896
0.0524066
0.0494922
0.0456503
0.0425465
0.0393206
0.0365205
0.0338255
0.0314247
0.0291816
0.0271627
0.0253015
0.023617
0.0220663
0.020666
0.0194746
0.0185247
0.0172875
-0.153376
0.0321766
0.0303943
0.069624
0.0618523
0.0686305
0.0624169
0.0609564
0.0559592
0.0526682
0.0485277
0.0451616
0.0417141
0.038719
0.0358538
0.0333016
0.0309237
0.0287835
0.0268119
0.025026
0.0233841
0.0219034
0.0206313
0.0195901