/*--------------------------------*- C++ -*----------------------------------*\
  =========                 |
  \\      /  F ield         | OpenFOAM: The Open Source CFD Toolbox
   \\    /   O peration     | Website:  https://openfoam.org
    \\  /    A nd           | Version:  7
     \\/     M anipulation  |
\*---------------------------------------------------------------------------*/
FoamFile
{
    version     2.0;
    format      ascii;
    class       volScalarField;
    location    "5";
    object      T;
}
// * * * * * * * * * * * * * * * * * * * * * * * * * * * * * * * * * * * * * //

dimensions      [0 0 0 1 0 0 0];

internalField   nonuniform List<scalar> 
2413
(
1.17322
1.19104
1.2083
1.22346
1.2355
1.24424
1.25013
1.25417
1.25756
1.26135
1.26687
1.27472
1.28638
1.30157
1.32018
1.34046
1.35974
1.37966
1.39819
1.4146
1.42999
1.44335
1.45437
1.46364
1.47134
1.47811
1.48469
1.49197
1.50123
1.51371
1.52997
1.55065
1.57548
1.60377
1.63337
1.66098
1.68535
1.70346
1.7161
1.72234
1.72353
1.72179
1.71694
1.70861
1.69673
1.67976
1.65746
1.63076
1.60152
1.57134
1.54152
1.51256
1.48458
1.45774
1.43204
1.40751
1.38406
1.36255
1.34393
1.32892
1.31822
1.3125
1.31156
1.31293
1.31718
1.32416
1.3329
1.34265
1.35421
1.36951
1.39197
1.42182
1.4566
1.49132
1.51884
1.5352
1.54089
1.5423
1.54137
1.54149
1.54263
1.54605
1.55331
1.56858
1.59053
1.61762
1.64773
1.67722
1.13659
1.14898
1.16414
1.18074
1.19721
1.21216
1.22463
1.23431
1.24142
1.24668
1.25127
1.25608
1.26239
1.27063
1.28204
1.2961
1.31312
1.33204
1.34975
1.36821
1.38617
1.40204
1.41717
1.43129
1.4434
1.45385
1.46261
1.47005
1.47697
1.48439
1.49349
1.50543
1.5212
1.54073
1.56441
1.59119
1.62012
1.64782
1.67252
1.69148
1.70469
1.71213
1.71322
1.7115
1.7063
1.69665
1.6821
1.66272
1.63714
1.60739
1.5751
1.5421
1.50971
1.47893
1.45013
1.42318
1.39781
1.37395
1.353
1.33592
1.32413
1.31982
1.3205
1.32364
1.33053
1.34156
1.35602
1.37199
1.38817
1.40332
1.41792
1.4343
1.45532
1.4769
1.49664
1.51254
1.52124
1.52683
1.53032
1.53435
1.53931
1.54629
1.55489
1.57008
1.59045
1.61427
1.63968
1.66568
1.11755
1.12229
1.13017
1.14108
1.15458
1.16973
1.18532
1.20013
1.21311
1.22365
1.23193
1.2385
1.2443
1.25008
1.25681
1.26515
1.27602
1.28909
1.3048
1.32286
1.33948
1.35657
1.37415
1.39009
1.40494
1.41939
1.43214
1.4429
1.45201
1.4598
1.46699
1.47452
1.48349
1.49489
1.50988
1.52869
1.55097
1.57636
1.60343
1.63026
1.65474
1.67441
1.68894
1.69784
1.69893
1.69672
1.69041
1.67928
1.6626
1.64088
1.61339
1.5815
1.54718
1.5124
1.47875
1.44726
1.4183
1.39107
1.36677
1.34609
1.331
1.32429
1.32417
1.32611
1.33165
1.34233
1.35897
1.38014
1.40322
1.42478
1.44318
1.45755
1.47089
1.48471
1.49754
1.50826
1.51367
1.5171
1.51945
1.52374
1.52937
1.5376
1.54758
1.56244
1.58091
1.60232
1.62481
1.64852
1.11139
1.11168
1.11315
1.11687
1.12342
1.13278
1.14468
1.15845
1.17304
1.18737
1.20051
1.21179
1.2211
1.22887
1.23576
1.24254
1.25
1.2588
1.26927
1.28153
1.29571
1.31219
1.32824
1.3445
1.36166
1.37824
1.3933
1.40753
1.42045
1.43119
1.4402
1.44802
1.4553
1.46291
1.47197
1.48323
1.49757
1.51537
1.5359
1.55904
1.58397
1.60917
1.63317
1.65374
1.66918
1.67929
1.68012
1.67713
1.66961
1.65742
1.63967
1.61667
1.58854
1.55592
1.52078
1.48539
1.45145
1.41974
1.3902
1.3647
1.34354
1.33035
1.32582
1.32627
1.32966
1.33821
1.35311
1.37394
1.39841
1.42286
1.44577
1.46612
1.48226
1.49516
1.50406
1.5114
1.51418
1.51645
1.51619
1.51864
1.52224
1.5273
1.53598
1.54774
1.5626
1.58258
1.60604
1.62878
1.11178
1.10943
1.10762
1.10768
1.10873
1.11146
1.1166
1.1243
1.13445
1.14669
1.16019
1.17399
1.18714
1.19895
1.20923
1.21818
1.22626
1.23393
1.24179
1.25071
1.26096
1.27274
1.28588
1.30086
1.31703
1.33271
1.34895
1.36579
1.38158
1.39551
1.40811
1.41882
1.42749
1.43501
1.44238
1.45046
1.45992
1.47114
1.48463
1.50082
1.51923
1.53994
1.5628
1.58629
1.60943
1.63017
1.64586
1.65648
1.65704
1.65358
1.64517
1.63268
1.61488
1.59237
1.56454
1.53279
1.49851
1.46355
1.42952
1.39753
1.36961
1.34718
1.33264
1.32637
1.3261
1.32876
1.33669
1.35144
1.37169
1.39602
1.4218
1.44721
1.46929
1.48765
1.50007
1.50889
1.51234
1.51413
1.51348
1.5138
1.51501
1.51629
1.51834
1.52538
1.5346
1.54872
1.56747
1.58757
1.11481
1.11152
1.10862
1.10636
1.10421
1.10367
1.10426
1.10609
1.10989
1.11604
1.1245
1.13511
1.14727
1.16015
1.17298
1.18505
1.19598
1.20584
1.21495
1.22375
1.23237
1.24129
1.25125
1.26231
1.27467
1.28847
1.30402
1.32014
1.3363
1.35308
1.36949
1.38381
1.39554
1.40539
1.4138
1.42141
1.42902
1.43745
1.44709
1.45816
1.47072
1.4853
1.50171
1.51996
1.54052
1.56214
1.58386
1.60395
1.6192
1.62985
1.63061
1.62712
1.61865
1.60626
1.58949
1.56827
1.54309
1.51323
1.4809
1.44736
1.41388
1.38315
1.35775
1.33885
1.32844
1.32535
1.32614
1.33069
1.34085
1.35761
1.37883
1.40242
1.42502
1.44628
1.46388
1.47779
1.48709
1.49295
1.49621
1.49636
1.49653
1.49581
1.49283
1.49319
1.49701
1.50321
1.51181
1.52536
1.11943
1.11571
1.11206
1.10881
1.10574
1.10333
1.10109
1.09974
1.09985
1.1009
1.1035
1.10819
1.11508
1.12401
1.13469
1.14647
1.15859
1.17054
1.18192
1.19249
1.20233
1.21173
1.22093
1.2303
1.24008
1.25097
1.26287
1.27582
1.29032
1.30659
1.32332
1.3401
1.35647
1.37112
1.38256
1.39169
1.39966
1.40732
1.41517
1.42392
1.43362
1.44434
1.45589
1.46869
1.48309
1.49916
1.51736
1.53689
1.5568
1.57557
1.59022
1.60054
1.60226
1.59899
1.59095
1.57962
1.56461
1.54583
1.5232
1.49708
1.46775
1.43642
1.40432
1.37626
1.35229
1.33768
1.32873
1.32342
1.3233
1.32648
1.33437
1.34708
1.36272
1.38082
1.39908
1.41615
1.42991
1.43989
1.44725
1.45243
1.45299
1.4525
1.4495
1.44678
1.44535
1.44355
1.44535
1.44811
1.12372
1.12026
1.11682
1.11326
1.10958
1.10614
1.10294
1.10034
1.09805
1.09604
1.09565
1.09615
1.09772
1.10099
1.10628
1.11348
1.12239
1.13271
1.14391
1.15534
1.16667
1.17765
1.18817
1.19826
1.20809
1.21782
1.22755
1.23781
1.24935
1.26224
1.2766
1.2926
1.30972
1.32673
1.34265
1.35709
1.36859
1.37733
1.38504
1.39276
1.40077
1.40946
1.41883
1.42884
1.43948
1.45088
1.46348
1.47762
1.49366
1.51077
1.52849
1.54565
1.55939
1.56917
1.57224
1.57008
1.56333
1.55319
1.54002
1.52426
1.50504
1.48244
1.45649
1.42813
1.39978
1.37552
1.35531
1.33978
1.3307
1.32508
1.32068
1.32075
1.32327
1.32881
1.33679
1.34636
1.35654
1.3657
1.37372
1.38137
1.38473
1.38448
1.3825
1.38024
1.37722
1.37304
1.36759
1.36403
1.12723
1.12396
1.12084
1.11757
1.11419
1.11074
1.10703
1.10349
1.10023
1.09738
1.09518
1.09303
1.09162
1.09167
1.09248
1.09444
1.09806
1.10352
1.11075
1.11947
1.12943
1.14
1.15091
1.16177
1.1725
1.18289
1.19297
1.20297
1.21307
1.22354
1.2346
1.24733
1.26168
1.27777
1.29504
1.31222
1.32779
1.34165
1.35305
1.36181
1.36947
1.37714
1.38526
1.39375
1.40262
1.41194
1.42159
1.43185
1.44289
1.45515
1.4692
1.48432
1.49942
1.51451
1.5271
1.53641
1.54129
1.54029
1.53614
1.52744
1.51639
1.50216
1.48637
1.46791
1.44667
1.42306
1.39917
1.37697
1.36009
1.3453
1.3336
1.32669
1.32245
1.31838
1.31515
1.3151
1.31567
1.31647
1.31804
1.32125
1.32237
1.32158
1.31985
1.31887
1.31638
1.31234
1.30551
1.30023
1.13031
1.12699
1.12388
1.12081
1.11778
1.11469
1.11136
1.10798
1.10445
1.10096
1.09779
1.09478
1.0923
1.09019
1.08817
1.08719
1.08738
1.08833
1.09058
1.09439
1.09983
1.10679
1.11522
1.12472
1.13494
1.14533
1.15575
1.16606
1.17621
1.1862
1.19633
1.20702
1.21851
1.23133
1.24569
1.26181
1.27854
1.2955
1.31103
1.3244
1.33571
1.34493
1.35293
1.36052
1.36825
1.37648
1.38481
1.39335
1.40216
1.41146
1.42144
1.43212
1.44384
1.45672
1.46953
1.48245
1.49415
1.50313
1.5088
1.50863
1.50616
1.50096
1.49258
1.48183
1.46752
1.45197
1.43534
1.41759
1.39979
1.38165
1.36557
1.35237
1.34042
1.33029
1.32265
1.31742
1.31261
1.30714
1.30215
1.29918
1.29598
1.29087
1.28618
1.28369
1.27996
1.27453
1.26757
1.26331
1.1333
1.12991
1.1266
1.12343
1.12045
1.11755
1.11457
1.11154
1.10843
1.10521
1.10196
1.0986
1.09527
1.09219
1.0894
1.08705
1.08494
1.0831
1.08259
1.08285
1.08381
1.08605
1.08983
1.09507
1.10181
1.10969
1.11866
1.12822
1.1381
1.14784
1.15785
1.16782
1.17809
1.18887
1.20046
1.21334
1.22777
1.24369
1.26046
1.27696
1.29179
1.30523
1.31675
1.32642
1.3348
1.34255
1.35007
1.3577
1.36555
1.3734
1.3815
1.38996
1.39877
1.40789
1.41751
1.42842
1.43959
1.45025
1.46015
1.46789
1.47407
1.4768
1.47564
1.47223
1.46654
1.45915
1.44967
1.43818
1.42515
1.41147
1.3975
1.3836
1.37005
1.35665
1.34476
1.33491
1.32552
1.31628
1.30898
1.30322
1.29711
1.28967
1.28306
1.27827
1.27264
1.26501
1.25773
1.25349
1.1357
1.13289
1.12961
1.12625
1.12301
1.11997
1.11701
1.11413
1.11131
1.10849
1.10559
1.10255
1.09929
1.0959
1.09256
1.08931
1.08638
1.08392
1.08173
1.07975
1.07802
1.07743
1.07769
1.0786
1.08078
1.08427
1.08925
1.09551
1.10288
1.111
1.12
1.12911
1.13857
1.14808
1.1581
1.16868
1.1806
1.19336
1.20779
1.22329
1.23952
1.25586
1.27066
1.28393
1.29594
1.3062
1.31495
1.32278
1.33026
1.33743
1.34478
1.35227
1.35977
1.36705
1.37461
1.38268
1.39095
1.39967
1.40846
1.41681
1.42518
1.43281
1.43868
1.44279
1.44334
1.44187
1.43805
1.4323
1.42555
1.41782
1.409
1.39978
1.38949
1.37789
1.36665
1.3562
1.34518
1.33386
1.3247
1.31661
1.30773
1.2979
1.29072
1.28485
1.27777
1.2688
1.26216
1.25726
1.13655
1.13485
1.1325
1.12952
1.12623
1.12285
1.11961
1.11656
1.11373
1.11101
1.1083
1.10554
1.10261
1.09955
1.09631
1.09289
1.08956
1.08641
1.08343
1.08074
1.07835
1.07612
1.07421
1.07252
1.07171
1.07181
1.07267
1.07465
1.07789
1.08235
1.08808
1.09465
1.10223
1.11025
1.11882
1.12769
1.13723
1.14735
1.15879
1.17113
1.18552
1.20034
1.21623
1.23176
1.24672
1.26031
1.27241
1.28311
1.29245
1.30069
1.30828
1.31559
1.32276
1.32957
1.33631
1.34304
1.34985
1.35662
1.36329
1.37002
1.37717
1.38436
1.39086
1.39694
1.40188
1.40551
1.40817
1.4082
1.40726
1.4042
1.39913
1.39339
1.38663
1.37832
1.37034
1.36292
1.35416
1.34438
1.33606
1.32787
1.31834
1.30817
1.30077
1.29392
1.28574
1.27627
1.2701
1.26465
1.1362
1.13522
1.13387
1.13207
1.1296
1.12651
1.12309
1.11974
1.11658
1.11359
1.11076
1.10797
1.10519
1.10242
1.09945
1.0963
1.0931
1.08986
1.08655
1.08332
1.08023
1.07744
1.0749
1.07249
1.07012
1.06806
1.06639
1.06546
1.06556
1.06636
1.06814
1.07094
1.07488
1.07971
1.08554
1.09213
1.0994
1.10728
1.11581
1.12516
1.13579
1.14741
1.16095
1.17507
1.18984
1.205
1.21952
1.23324
1.24577
1.25698
1.26689
1.27581
1.28396
1.29145
1.29849
1.30511
1.31158
1.31773
1.32358
1.32935
1.33504
1.34055
1.34594
1.35117
1.35618
1.36086
1.36503
1.36837
1.37114
1.37178
1.37125
1.37016
1.36797
1.36416
1.35916
1.35446
1.34828
1.34043
1.33363
1.32698
1.31862
1.30983
1.30354
1.29711
1.28898
1.27996
1.2743
1.26859
1.13532
1.13473
1.13384
1.13286
1.13151
1.12949
1.12687
1.12381
1.12048
1.11709
1.11378
1.11067
1.1078
1.10497
1.10209
1.09917
1.09622
1.09314
1.08993
1.08664
1.08333
1.08013
1.07701
1.07402
1.07117
1.06855
1.06605
1.06368
1.0618
1.06029
1.05933
1.05934
1.05985
1.06118
1.06349
1.0667
1.07073
1.07562
1.08118
1.08763
1.09473
1.103
1.11234
1.12295
1.13478
1.14788
1.16156
1.17574
1.18966
1.20306
1.21553
1.22708
1.23774
1.24746
1.25616
1.26404
1.27134
1.27804
1.28429
1.29017
1.29568
1.30087
1.30574
1.3102
1.31433
1.31822
1.32191
1.32541
1.32856
1.33067
1.33236
1.3338
1.33378
1.3331
1.3315
1.33004
1.32736
1.32271
1.3183
1.31437
1.30844
1.30129
1.29595
1.29045
1.28322
1.27523
1.2702
1.26477
1.13467
1.13414
1.13348
1.13277
1.13195
1.13074
1.12922
1.12731
1.12463
1.12138
1.11782
1.11435
1.11108
1.10796
1.10495
1.10198
1.09909
1.09613
1.09307
1.0899
1.08669
1.08347
1.08019
1.07689
1.07362
1.07044
1.06739
1.06459
1.06212
1.05984
1.05767
1.05589
1.05439
1.05319
1.05289
1.05312
1.05392
1.05563
1.05812
1.06139
1.06521
1.06988
1.07515
1.08166
1.08926
1.09821
1.1084
1.11973
1.13174
1.14446
1.15726
1.16993
1.18221
1.19389
1.20477
1.21484
1.22412
1.23255
1.24024
1.24734
1.25384
1.2598
1.26516
1.2699
1.27419
1.27811
1.2817
1.28495
1.2878
1.28998
1.29185
1.29364
1.29493
1.29494
1.29496
1.29502
1.29434
1.2922
1.29002
1.28804
1.28447
1.2794
1.27581
1.27213
1.26653
1.2602
1.25629
1.25162
1.13471
1.13397
1.13326
1.13261
1.13193
1.13104
1.13003
1.12887
1.12728
1.12497
1.12199
1.11867
1.11527
1.11186
1.10855
1.10535
1.10228
1.09922
1.09616
1.09307
1.08998
1.08684
1.08365
1.08037
1.07703
1.07366
1.07027
1.06705
1.064
1.06116
1.05858
1.05627
1.05406
1.05193
1.04991
1.04834
1.04693
1.04626
1.04632
1.04682
1.04789
1.04959
1.05177
1.05457
1.05802
1.06244
1.06799
1.07475
1.08268
1.09181
1.10184
1.11268
1.12386
1.13521
1.14658
1.15766
1.1682
1.17814
1.18759
1.19649
1.20469
1.21221
1.21895
1.22501
1.23045
1.23537
1.23982
1.24369
1.24686
1.24948
1.25167
1.25364
1.25537
1.25591
1.25675
1.25755
1.2573
1.25614
1.25538
1.25441
1.25242
1.24913
1.24712
1.24485
1.24073
1.23599
1.2331
1.22946
1.13599
1.13477
1.13372
1.13284
1.13205
1.13117
1.13026
1.12931
1.12823
1.12675
1.12473
1.12221
1.11935
1.11616
1.11282
1.10948
1.1062
1.10291
1.09967
1.09646
1.09337
1.09026
1.08715
1.08396
1.08071
1.07743
1.0741
1.07078
1.0675
1.06426
1.06122
1.05833
1.05555
1.05295
1.05047
1.04817
1.04597
1.04397
1.04233
1.04109
1.04006
1.03961
1.03969
1.04003
1.04074
1.04196
1.04377
1.04629
1.04969
1.05408
1.05954
1.0661
1.07354
1.08183
1.09096
1.10045
1.10993
1.11952
1.12934
1.13887
1.14789
1.15639
1.16434
1.17179
1.17871
1.18511
1.191
1.19622
1.2006
1.20441
1.20751
1.21019
1.21272
1.21435
1.21575
1.21759
1.21768
1.21712
1.21724
1.21702
1.21607
1.2142
1.21336
1.21193
1.20889
1.20555
1.20355
1.20084
1.13889
1.13718
1.13559
1.1342
1.13298
1.13178
1.13069
1.12967
1.12867
1.12747
1.12598
1.12422
1.12216
1.11962
1.11673
1.11366
1.11046
1.1071
1.10374
1.1004
1.09718
1.09398
1.09083
1.58169
1.63839
1.67438
1.69837
1.7199
1.74084
1.75493
1.74001
1.70289
1.67679
1.66818
1.66612
1.66052
1.65065
1.40468
1.43145
1.45467
1.47223
1.48381
1.4897
1.49135
1.49012
1.48699
1.48236
1.47693
1.47208
1.46889
1.46812
1.46931
1.4729
1.47899
1.48651
1.49504
1.50363
1.51119
1.51696
1.51975
1.51996
1.5178
1.51341
1.50767
1.5013
1.49539
1.49105
1.48889
1.48863
1.48951
1.49193
1.49582
1.50087
1.50661
1.5124
1.51754
1.52129
1.5229
1.52223
1.51929
1.51376
1.50611
1.49695
1.48707
1.47682
1.46616
1.45505
1.44356
1.43175
1.41969
1.40742
1.39487
1.38203
1.36897
1.35606
1.34359
1.33167
1.32017
1.30868
1.29669
1.28395
1.27082
1.25874
1.25031
1.24734
1.25224
1.27376
1.32437
1.40648
1.5051
1.59522
1.6606
1.7001
1.71911
1.72681
1.73401
1.74373
1.75058
1.74158
1.70793
1.6728
1.65425
1.64586
1.64126
1.64125
1.3546
1.38159
1.41012
1.43719
1.45993
1.47615
1.48616
1.49078
1.49128
1.48982
1.48681
1.48289
1.47887
1.47631
1.4759
1.47734
1.4816
1.48911
1.49941
1.5115
1.52277
1.53518
1.54639
1.55573
1.56175
1.5643
1.56377
1.56065
1.55592
1.55101
1.54671
1.54362
1.54194
1.54171
1.54243
1.54424
1.54696
1.55009
1.55296
1.55467
1.55455
1.55257
1.54777
1.54009
1.53022
1.51859
1.50604
1.49313
1.47998
1.46668
1.4533
1.4399
1.42638
1.41271
1.39878
1.38476
1.37085
1.35717
1.34393
1.33124
1.31893
1.30668
1.29403
1.28066
1.26743
1.25674
1.25109
1.25231
1.26465
1.30142
1.37287
1.47256
1.57481
1.65268
1.69848
1.72209
1.7314
1.73124
1.72618
1.71695
1.70353
1.68033
1.64351
1.60596
1.58196
1.56921
1.56322
1.56586
1.31343
1.33298
1.35745
1.38555
1.4146
1.44142
1.46295
1.47769
1.48622
1.48996
1.4904
1.48904
1.48645
1.48383
1.4821
1.482
1.4836
1.48806
1.4962
1.5082
1.5227
1.53928
1.55577
1.56978
1.58371
1.59499
1.60369
1.60789
1.60878
1.60737
1.60377
1.59965
1.59577
1.59223
1.5892
1.58689
1.58536
1.58448
1.58382
1.58278
1.5806
1.57659
1.57013
1.56113
1.54977
1.53662
1.52212
1.50703
1.49163
1.4762
1.46084
1.44561
1.43044
1.41521
1.39992
1.38477
1.36999
1.35554
1.34157
1.32807
1.31499
1.30209
1.28893
1.27538
1.26303
1.25472
1.25208
1.25705
1.27801
1.32929
1.41679
1.52439
1.61936
1.67971
1.70842
1.71977
1.72323
1.7173
1.69964
1.67183
1.63856
1.60193
1.56605
1.53758
1.51815
1.50299
1.49208
1.48896
1.28863
1.29886
1.31416
1.33501
1.36072
1.38939
1.41792
1.44338
1.46324
1.47688
1.48485
1.48845
1.48919
1.48835
1.48682
1.48588
1.48603
1.48792
1.49259
1.50122
1.51436
1.53098
1.55
1.56907
1.58863
1.60563
1.61975
1.63233
1.64157
1.64784
1.64945
1.6489
1.64604
1.64142
1.63604
1.63019
1.62417
1.61844
1.61325
1.60843
1.60327
1.59701
1.58898
1.5789
1.56657
1.5526
1.53694
1.52026
1.50289
1.48537
1.46762
1.45001
1.43271
1.41568
1.39913
1.38292
1.36712
1.35181
1.33712
1.3231
1.30967
1.29659
1.28372
1.27114
1.2604
1.25387
1.25335
1.26042
1.28686
1.34675
1.44214
1.54964
1.63512
1.68156
1.69914
1.70047
1.69315
1.67604
1.6511
1.61936
1.58536
1.55431
1.53098
1.5143
1.50322
1.49374
1.48164
1.47214
1.27745
1.28101
1.28765
1.2987
1.31522
1.33735
1.36392
1.3923
1.41942
1.44323
1.4618
1.47463
1.48246
1.48635
1.48765
1.48764
1.48755
1.48808
1.4902
1.49498
1.50359
1.51646
1.53387
1.55438
1.57686
1.59883
1.6189
1.63796
1.65267
1.6647
1.67413
1.68003
1.68224
1.68115
1.67762
1.67146
1.66345
1.65422
1.64457
1.63538
1.62641
1.61709
1.60699
1.59539
1.58215
1.56733
1.55094
1.53319
1.5143
1.49508
1.47523
1.45525
1.43568
1.41673
1.39854
1.38071
1.36365
1.34745
1.33236
1.31844
1.30549
1.2932
1.28135
1.27007
1.2606
1.25475
1.25503
1.26298
1.29035
1.34992
1.44265
1.54651
1.62815
1.6693
1.67849
1.67189
1.65525
1.6323
1.60826
1.584
1.56097
1.54195
1.52988
1.5237
1.52108
1.51721
1.50806
1.49698
1.27239
1.27352
1.27554
1.27956
1.28702
1.29925
1.31719
1.34022
1.36648
1.39354
1.41847
1.44057
1.45839
1.47109
1.47933
1.48376
1.48601
1.4873
1.48868
1.49092
1.49513
1.50236
1.51413
1.53068
1.5514
1.57541
1.6
1.62448
1.646
1.66441
1.68048
1.69134
1.69931
1.70381
1.70505
1.70328
1.69815
1.68941
1.678
1.66578
1.65323
1.64043
1.62714
1.61318
1.59828
1.58212
1.56482
1.54627
1.52633
1.50573
1.48431
1.46226
1.44044
1.41935
1.39929
1.37991
1.36181
1.34512
1.33004
1.31655
1.30431
1.29305
1.28217
1.272
1.26375
1.25881
1.2594
1.26689
1.29129
1.34465
1.43038
1.52868
1.60789
1.64729
1.65381
1.64577
1.62647
1.60197
1.5804
1.56441
1.55193
1.54443
1.54166
1.54299
1.54709
1.55143
1.5533
1.55035
1.26573
1.26824
1.26961
1.27099
1.27343
1.27822
1.28665
1.30043
1.31942
1.34287
1.36773
1.39294
1.41578
1.43633
1.45351
1.46628
1.47516
1.48059
1.48405
1.48674
1.48967
1.49365
1.49964
1.50892
1.52268
1.54195
1.56537
1.59149
1.61862
1.64417
1.66749
1.68577
1.70038
1.71094
1.7166
1.71938
1.7188
1.71547
1.70789
1.69702
1.68382
1.66894
1.65281
1.63571
1.61767
1.59906
1.57988
1.55989
1.5391
1.5175
1.49512
1.47179
1.44831
1.42536
1.40334
1.38248
1.36322
1.34592
1.33066
1.3172
1.30519
1.29451
1.28484
1.27651
1.27013
1.26671
1.26759
1.27405
1.29384
1.33653
1.40747
1.49412
1.57076
1.61435
1.62417
1.61875
1.6032
1.58185
1.56339
1.55376
1.54863
1.54757
1.55257
1.56298
1.57688
1.59277
1.60548
1.61299
1.24866
1.25702
1.26192
1.26466
1.26642
1.26831
1.27156
1.27734
1.28699
1.30188
1.32132
1.3441
1.36719
1.39043
1.41146
1.43062
1.4475
1.46033
1.46983
1.4766
1.48146
1.48546
1.48958
1.49497
1.50266
1.51364
1.52901
1.5494
1.57465
1.60243
1.63099
1.65806
1.6814
1.70049
1.71344
1.72291
1.72664
1.72653
1.72456
1.71925
1.71017
1.69791
1.68251
1.66436
1.64372
1.62189
1.59915
1.57619
1.55328
1.53014
1.50673
1.4826
1.4582
1.43406
1.41065
1.38843
1.36768
1.34924
1.33332
1.31964
1.308
1.29842
1.29074
1.28519
1.28171
1.28077
1.28224
1.28812
1.30355
1.33602
1.38791
1.45647
1.52526
1.57241
1.5903
1.58916
1.58135
1.56759
1.55377
1.54773
1.54576
1.54716
1.55562
1.56987
1.58928
1.61183
1.6337
1.64991
1.21605
1.23183
1.24393
1.25224
1.25734
1.26037
1.26264
1.26526
1.26959
1.27647
1.2876
1.30321
1.32276
1.34451
1.36566
1.38737
1.40679
1.42418
1.44027
1.45337
1.46359
1.47148
1.4776
1.48296
1.48848
1.49509
1.50399
1.51612
1.5323
1.55329
1.57894
1.60801
1.63733
1.66521
1.68899
1.7073
1.71979
1.72642
1.72925
1.72783
1.72341
1.71611
1.70642
1.69236
1.67333
1.65091
1.62544
1.59875
1.57204
1.54575
1.52004
1.49449
1.46908
1.44406
1.41974
1.39647
1.37446
1.3547
1.33771
1.32357
1.31253
1.3046
1.29969
1.29775
1.29793
1.29971
1.30351
1.31008
1.32221
1.34399
1.37988
1.42782
1.48158
1.52827
1.55744
1.56756
1.56661
1.56138
1.55289
1.54775
1.54629
1.54785
1.55561
1.57097
1.59175
1.61559
1.63559
1.6547
)
;

boundaryField
{
    inlet
    {
        type            fixedValue;
        value           nonuniform 0();
    }
    outlet
    {
        type            inletOutlet;
        inletValue      nonuniform 0();
        value           nonuniform 0();
    }
    bottom
    {
        type            symmetryPlane;
    }
    top
    {
        type            symmetryPlane;
    }
    obstacle
    {
        type            zeroGradient;
    }
    front
    {
        type            empty;
    }
    back
    {
        type            empty;
    }
    procBoundary20to5
    {
        type            processor;
        value           nonuniform List<scalar> 
25
(
1.69794
1.68612
1.67191
1.65258
1.61267
1.54477
1.45445
1.36243
1.29645
1.25869
1.2482
1.251
1.25743
1.26064
1.25703
1.62918
1.63753
1.57409
1.49936
1.46886
1.48627
1.54244
1.61152
1.6562
1.66557
)
;
    }
    procBoundary20to12
    {
        type            processor;
        value           nonuniform List<scalar> 
89
(
1.46658
1.52748
1.57691
1.61961
1.65889
1.68817
1.70083
1.68199
1.64391
1.62481
1.6179
1.61554
1.60686
1.58853
1.44775
1.46603
1.47868
1.48617
1.48971
1.48919
1.48677
1.48224
1.47623
1.46985
1.46416
1.46041
1.45912
1.45973
1.46179
1.46548
1.4706
1.47586
1.48038
1.48259
1.48259
1.48038
1.47611
1.47069
1.46449
1.45773
1.45089
1.44468
1.43995
1.4376
1.43749
1.43862
1.44111
1.44499
1.45018
1.4564
1.46321
1.47001
1.47622
1.48124
1.48438
1.48522
1.48399
1.48079
1.47575
1.46937
1.46225
1.45465
1.44644
1.4375
1.42792
1.41787
1.40747
1.39675
1.38564
1.37413
1.36246
1.35092
1.33971
1.32879
1.31811
1.30735
1.2961
1.28412
1.27152
1.25901
1.24848
1.24241
1.24189
1.251
1.28054
1.33751
1.41746
1.50471
1.50471
)
;
    }
    procBoundary20to13
    {
        type            processor;
        value           nonuniform List<scalar> 3(1.24467 1.22386 1.19638);
    }
    procBoundary20to19
    {
        type            processor;
        value           nonuniform List<scalar> 
27
(
1.15661
1.1276
1.11558
1.11263
1.11441
1.11824
1.12286
1.12704
1.13058
1.13379
1.1365
1.13789
1.13786
1.137
1.13586
1.13529
1.13561
1.13738
1.3771
1.3313
1.29907
1.28245
1.27569
1.27128
1.26104
1.23621
1.19765
)
;
    }
    procBoundary20to27
    {
        type            processor;
        value           uniform 1.14047;
    }
    procBoundary20to28
    {
        type            processor;
        value           nonuniform List<scalar> 
89
(
1.08767
1.08451
1.08137
1.0782
1.07495
1.0717
1.06847
1.0653
1.06216
1.05903
1.0559
1.05287
1.04992
1.04718
1.04472
1.04249
1.04042
1.03846
1.03662
1.03517
1.03397
1.03292
1.03219
1.03202
1.03212
1.03256
1.03351
1.03502
1.03726
1.0403
1.04418
1.04895
1.05451
1.06062
1.06754
1.07519
1.08295
1.09056
1.09823
1.10607
1.11369
1.12092
1.1279
1.1346
1.14069
1.14606
1.15084
1.15516
1.15904
1.16267
1.16575
1.16809
1.17065
1.17208
1.17239
1.17338
1.17443
1.17401
1.17345
1.1734
1.17265
1.17059
1.16869
1.16731
1.16535
1.1416
1.14024
1.1387
1.13702
1.13533
1.13365
1.13211
1.13072
1.1295
1.12825
1.12688
1.12539
1.12378
1.12185
1.11952
1.11693
1.11412
1.11104
1.10784
1.10455
1.10132
1.09809
1.08767
1.09485
)
;
    }
}


// ************************************************************************* //
