/*--------------------------------*- C++ -*----------------------------------*\
  =========                 |
  \\      /  F ield         | OpenFOAM: The Open Source CFD Toolbox
   \\    /   O peration     | Website:  https://openfoam.org
    \\  /    A nd           | Version:  7
     \\/     M anipulation  |
\*---------------------------------------------------------------------------*/
FoamFile
{
    version     2.0;
    format      ascii;
    class       surfaceScalarField;
    location    "51";
    object      phi;
}
// * * * * * * * * * * * * * * * * * * * * * * * * * * * * * * * * * * * * * //

dimensions      [0 3 -1 0 0 0 0];

internalField   nonuniform List<scalar> 
53160
(
-0.000164271
8.2027e-05
8.22445e-05
-0.000322894
5.45987e-05
0.000104024
-0.000506682
6.65908e-05
0.000117197
-0.000678969
6.98026e-05
0.000102484
-0.000858289
0.000137921
4.14002e-05
-0.00103656
0.00026291
-8.46389e-05
-0.00121477
0.000444626
-0.000266415
-0.00138967
0.000647421
-0.00047252
-0.00155649
0.000808973
-0.000642157
-0.00171207
0.000857914
-0.000702339
-0.00184099
0.000715314
-0.000586392
-0.00194629
0.000372949
-0.000267651
-0.00200003
-0.000178598
0.000232344
-0.00201516
-0.000772999
0.000788125
-0.00196923
-0.00133136
0.00128544
-0.00183959
-0.00165029
0.00152065
-0.00166964
-0.00158572
0.00141577
-0.00132265
-0.00125564
0.000908648
-0.000932563
-0.000497447
0.000107356
0.000101599
-0.000680397
-0.000353765
-0.000163861
0.000245888
-0.000321162
0.0002119
-0.000502501
0.00024793
-0.000670517
0.000237818
-0.000842942
0.000310345
-0.00101095
0.000430919
-0.00117459
0.000608264
-0.00132946
0.000802293
-0.00146916
0.000948671
-0.00158855
0.000977311
-0.00167033
0.000797093
-0.00171611
0.000418726
-0.0017007
-0.00019401
-0.00164263
-0.000831064
-0.00151742
-0.00145658
-0.00133318
-0.00183453
-0.00109685
-0.00182204
-0.000711203
-0.00164129
-0.000243718
-0.000964931
-0.000586827
0.000444708
-0.00016269
0.000408578
-0.000316983
0.000366193
-0.000493202
0.00042415
-0.000652841
0.000397457
-0.00081229
0.000469795
-0.000961451
0.00058008
-0.00109865
0.000745459
-0.0012175
0.000921143
-0.00130908
0.00104025
-0.00136518
0.00103341
-0.00136613
0.000798043
-0.00131
0.000362601
-0.00117365
-0.000330358
-0.000981328
-0.00102339
-0.000695899
-0.00174201
-0.000380386
-0.00215004
5.41261e-05
-0.00225655
0.000572781
-0.00215994
0.00123136
-0.00162351
-0.00150748
0.00215202
-0.000160783
0.000569361
-0.000310409
0.000515819
-0.000478885
0.000592625
-0.000626139
0.000544712
-0.000766725
0.00061038
-0.000888808
0.000702163
-0.000988338
0.00084499
-0.00105631
0.000989113
-0.00108079
0.00106474
-0.00104965
0.00100226
-0.000941618
0.000690012
-0.000749583
0.000170566
-0.000452844
-0.000627096
-8.36357e-05
-0.0013926
0.000412443
-0.00223809
0.00092477
-0.00266237
0.00158003
-0.00291182
0.00234167
-0.00292158
0.00323642
-0.00251826
-0.00269668
0.00442562
-0.000158174
0.000727535
-0.000301518
0.000659163
-0.000459685
0.000750792
-0.000590671
0.000675698
-0.000706733
0.000726442
-0.000793953
0.000789383
-0.000845411
0.000896448
-0.000849047
0.000992749
-0.00078989
0.00100558
-0.00065129
0.000863661
-0.00041227
0.000450991
-5.82482e-05
-0.000183456
0.000422627
-0.00110797
0.000993927
-0.0019639
0.0017064
-0.00295056
0.00245396
-0.00340992
0.0033472
-0.00380506
0.00435095
-0.00392533
0.00549058
-0.0036579
-0.00410189
0.00689579
-0.000154907
0.000882442
-0.000290408
0.000794664
-0.000435763
0.000896147
-0.000546725
0.00078666
-0.000632844
0.000812561
-0.000677884
0.000834423
-0.000671725
0.000890289
-0.000599055
0.000920078
-0.000442188
0.000848717
-0.000179654
0.000601127
0.000207345
6.39924e-05
0.000735602
-0.000711712
0.00141311
-0.00178548
0.00219476
-0.00274555
0.00311232
-0.00386812
0.00408394
-0.00438155
0.00518255
-0.00490367
0.00638126
-0.00512404
0.00772755
-0.00500419
-0.00561703
0.00924269
-0.000151037
0.00103348
-0.000277192
0.000920819
-0.000407294
0.00102625
-0.000494589
0.000873955
-0.000545553
0.000863526
-0.000541506
0.000830375
-0.000468958
0.000817742
-0.000309373
0.000760493
-4.37196e-05
0.000583064
0.000356573
0.000200834
0.000905949
-0.000485383
0.00161357
-0.00141933
0.00248161
-0.00265352
0.00346207
-0.00372601
0.00454601
-0.00495206
0.00569842
-0.00553395
0.00693746
-0.00614271
0.00824785
-0.00643442
0.00971191
-0.00646826
-0.0071264
0.0112213
-0.000146625
0.0011801
-0.000262
0.00103619
-0.000374449
0.0011387
-0.00043451
0.000934015
-0.000445229
0.000874245
-0.00038546
0.000770607
-0.000238304
0.000670585
1.75127e-05
0.000504677
0.000404678
0.000195899
0.000949363
-0.000343851
0.0016661
-0.00120212
0.00255112
-0.00230436
0.0035891
-0.0036915
0.00473261
-0.00486952
0.00592895
-0.0061484
0.00718818
-0.00679318
0.00848409
-0.00743862
0.00981419
-0.00776453
0.0112796
-0.00793366
-0.00853517
0.0126884
-0.000141742
0.00132185
-0.000244965
0.00113942
-0.000337383
0.00123112
-0.00036665
0.000963283
-0.000332023
0.000839617
-0.000209965
0.000648549
1.99301e-05
0.00044069
0.000380866
0.00014374
0.000896944
-0.000320179
0.00159152
-0.00103842
0.00247278
-0.00208338
0.00351957
-0.00335115
0.00469084
-0.00486277
0.00593892
-0.0061176
0.00718344
-0.00739292
0.00846185
-0.00807159
0.00973125
-0.00870801
0.0110017
-0.00903496
0.0123654
-0.00929742
-0.00979541
0.0136257
-0.00013646
0.00145831
-0.000226228
0.00122919
-0.000296207
0.00130109
-0.000291035
0.000958111
-0.000205764
0.000754346
-1.47759e-05
0.000457561
0.000305437
0.000120477
0.000779475
-0.000330297
0.00143063
-0.000971335
0.00227441
-0.00188221
0.00330549
-0.00311446
0.00448198
-0.00452764
0.00573402
-0.00611481
0.00701542
-0.007399
0.00824116
-0.00861866
0.00946013
-0.00929057
0.0106406
-0.00988844
0.0118005
-0.0101949
0.0130112
-0.0105081
-0.0109093
0.0141251
-0.000130856
0.00158916
-0.000205921
0.00130425
-0.000250974
0.00134615
-0.000207506
0.000914643
-6.57857e-05
0.000612626
0.000201296
0.000190479
0.000619683
-0.000297911
0.00121303
-0.000923646
0.0020007
-0.001759
0.00298424
-0.00286574
0.00413597
-0.00426619
0.00539322
-0.00578489
0.00666339
-0.00738497
0.00790861
-0.00864422
0.00905921
-0.00976926
0.0101688
-0.0104001
0.0112306
-0.0109503
0.0122662
-0.0112305
0.0133292
-0.0115711
-0.0119094
0.0143293
-0.000125006
0.00171417
-0.000184165
0.00136341
-0.000201644
0.00136363
-0.000115687
0.000828686
8.84051e-05
0.000408534
0.000439328
-0.000160443
0.000963195
-0.000821778
0.00167943
-0.00163988
0.00259745
-0.00267703
0.00369869
-0.00396698
0.00492756
-0.00549506
0.00620564
-0.00706297
0.00743317
-0.00861251
0.0085895
-0.00980055
0.00963187
-0.0108116
0.0106176
-0.0113858
0.0115631
-0.0118958
0.0124903
-0.0121577
0.0134413
-0.0125222
-0.0128324
0.0143644
-0.000118982
0.00183315
-0.000161057
0.00140548
-0.000148058
0.00135063
-1.52122e-05
0.000695841
0.000258261
0.000135061
0.00070078
-0.000602962
0.00133541
-0.0014564
0.00217259
-0.00247707
0.00320412
-0.00370856
0.00438684
-0.0051497
0.00563969
-0.00674791
0.00687979
-0.00830308
0.00801916
-0.00975187
0.00906009
-0.0108415
0.00998806
-0.0117396
0.010863
-0.0122608
0.0117139
-0.0127468
0.0125612
-0.0130049
0.0134375
-0.0133985
-0.0137054
0.0143105
-0.000112848
0.001946
-0.000136659
0.00142929
-8.98762e-05
0.00130384
9.60157e-05
0.000509949
0.000445463
-0.000214387
0.000986295
-0.00114379
0.00173288
-0.00220299
0.00268037
-0.00342456
0.00379635
-0.00482453
0.0050137
-0.00636705
0.00623752
-0.00797172
0.00739503
-0.00946059
0.00842382
-0.0107807
0.00934848
-0.0117661
0.0101758
-0.0125669
0.0109656
-0.0130505
0.0117483
-0.0135295
0.0125416
-0.0137983
0.01337
-0.0142269
-0.0145452
0.0142098
-0.000106656
0.00205266
-0.000110977
0.00143361
-2.63884e-05
0.00121926
0.00021821
0.00026535
0.000651165
-0.000647341
0.0012947
-0.00178733
0.00214776
-0.00305606
0.00318408
-0.00446088
0.00434533
-0.00598578
0.00554853
-0.00757026
0.00670157
-0.00912476
0.00775339
-0.0105124
0.00867125
-0.0116985
0.0094955
-0.0125904
0.0102444
-0.0133158
0.0109748
-0.0137809
0.0117112
-0.0142659
0.0124692
-0.0145563
0.0132664
-0.0150241
-0.0153617
0.0140829
-0.000100439
0.00215309
-8.39462e-05
0.00141712
4.22788e-05
0.00109303
0.000353012
-4.5383e-05
0.000875828
-0.00117016
0.00162183
-0.00253333
0.00256707
-0.0040013
0.00366076
-0.00555457
0.00482438
-0.0071494
0.00597279
-0.00871866
0.00703139
-0.0101834
0.00797482
-0.0114558
0.0087956
-0.0125193
0.00954144
-0.0133362
0.0102338
-0.0140082
0.0109252
-0.0144723
0.0116305
-0.0149712
0.0123651
-0.0152909
0.0131407
-0.0157997
-0.0161605
0.0139395
-9.42001e-05
0.00224729
-5.54038e-05
0.00137832
0.000117413
0.000920214
0.00050177
-0.000429739
0.00111836
-0.00178675
0.00195976
-0.00337473
0.00297378
-0.00501532
0.00408795
-0.00666874
0.00521567
-0.00827713
0.00628347
-0.00978646
0.00724176
-0.0111417
0.00808757
-0.0123016
0.00883055
-0.0132623
0.0095188
-0.0140245
0.0101723
-0.0146617
0.0108383
-0.0151383
0.0115222
-0.015655
0.0122408
-0.0160096
0.0130001
-0.0165589
-0.0169445
0.0137841
-8.79102e-05
0.0023352
-2.51364e-05
0.00131555
0.000200419
0.000694659
0.000665265
-0.000894586
0.00137529
-0.00249677
0.00229699
-0.00429642
0.00334979
-0.00606812
0.00444886
-0.0077678
0.00551345
-0.00934172
0.00649045
-0.0107635
0.00735506
-0.0120063
0.00811974
-0.0130663
0.00880361
-0.0139462
0.00945088
-0.0146718
0.010078
-0.0152888
0.0107274
-0.0157877
0.0113954
-0.016323
0.0121024
-0.0167166
0.0128477
-0.0173042
-0.0177154
0.0136186
-8.14904e-05
0.00241669
7.2946e-06
0.00122677
0.000292355
0.000409598
0.000843156
-0.00144539
0.00164037
-0.00329399
0.00262
-0.00527605
0.00367985
-0.00712797
0.00473551
-0.00882347
0.00572271
-0.0103289
0.00661065
-0.0116514
0.00739432
-0.0127899
0.00809473
-0.0137667
0.00873497
-0.0145864
0.00935326
-0.01529
0.00996247
-0.015898
0.0105998
-0.016425
0.0112553
-0.0169784
0.0119529
-0.0174142
0.0126852
-0.0180365
-0.0184742
0.0134439
-7.48028e-05
0.0024915
4.4536e-05
0.00110743
0.000394307
5.98276e-05
0.00103342
-0.0020845
0.00190491
-0.00416548
0.00291574
-0.00628688
0.0039544
-0.00816663
0.00494857
-0.00981764
0.00585504
-0.0112354
0.00666247
-0.0124588
0.00737942
-0.0135069
0.0080302
-0.0144175
0.00863851
-0.0151947
0.00923589
-0.0158874
0.00983236
-0.0164945
0.0104601
-0.0170527
0.0111047
-0.017623
0.011794
-0.0181036
0.0125133
-0.0187557
-0.0192214
0.0132604
-6.76406e-05
0.00255914
8.55394e-05
0.000954247
0.000506956
-0.000361589
0.00123205
-0.0028096
0.00215899
-0.00509242
0.00317412
-0.007302
0.00417043
-0.00916294
0.00509476
-0.010742
0.00592438
-0.012065
0.00666254
-0.013197
0.00732588
-0.0141702
0.00793866
-0.0150303
0.00852335
-0.0157794
0.00910494
-0.016469
0.00969168
-0.0170813
0.0103106
-0.0176716
0.0109452
-0.0182577
0.0116264
-0.0187847
0.0123323
-0.0194616
-0.0199575
0.0130684
-5.97036e-05
0.00261884
0.00013207
0.000762473
0.00063022
-0.000859739
0.00143327
-0.00361265
0.00239326
-0.00605241
0.0033894
-0.00829813
0.00433026
-0.0101038
0.00518379
-0.0115955
0.00594416
-0.0128254
0.00662442
-0.0138773
0.00724513
-0.0147909
0.00782862
-0.0156138
0.00839531
-0.0163461
0.00896417
-0.0170379
0.0095427
-0.0176598
0.0101527
-0.0182817
0.0107779
-0.0188828
0.0114505
-0.0194573
0.0121425
-0.0201536
-0.020683
0.012868
-5.05823e-05
0.00266942
0.000185481
0.000526411
0.0007629
-0.00143716
0.00163025
-0.00447999
0.00260047
-0.00702263
0.00356019
-0.00925785
0.00443956
-0.0109832
0.00522591
-0.0123818
0.00592591
-0.0135254
0.0065585
-0.0145098
0.00714525
-0.0153777
0.00770577
-0.0161743
0.00825802
-0.0168983
0.00881582
-0.0175957
0.00938675
-0.0182307
0.00998744
-0.0188824
0.0106032
-0.0194986
0.0112664
-0.0201206
0.011944
-0.0208312
-0.0213984
0.0126594
-3.97414e-05
0.00270917
0.000246844
0.000239825
0.00090253
-0.00209284
0.00181617
-0.00539364
0.00277629
-0.00798275
0.00368842
-0.01017
0.00450543
-0.0118002
0.00523058
-0.013107
0.00587896
-0.0141738
0.00647245
-0.0151033
0.00703185
-0.0159371
0.00757376
-0.0167162
0.00811369
-0.0174383
0.00866125
-0.0181432
0.00922459
-0.0187941
0.00981519
-0.019473
0.0104215
-0.0201049
0.0110744
-0.0207734
0.0117372
-0.021494
-0.0221039
0.0124427
-2.65035e-05
0.00273567
0.00031669
-0.000103368
0.00104549
-0.00282164
0.00198534
-0.00633349
0.00291929
-0.00891671
0.00377803
-0.0110287
0.00453508
-0.0125572
0.00520586
-0.0137778
0.0058105
-0.0147784
0.00637183
-0.0156647
0.00690869
-0.0164739
0.00743493
-0.0172425
0.00796364
-0.017967
0.00850128
-0.0186809
0.00905664
-0.0193494
0.00963634
-0.0200527
0.0102332
-0.0207018
0.0108745
-0.0214147
0.0115224
-0.0221419
-0.0227996
0.0122181
-9.93295e-06
0.0027456
0.000394802
-0.000508103
0.00118737
-0.00361421
0.00213377
-0.00727989
0.00303027
-0.00981321
0.00383385
-0.0118323
0.00453513
-0.0132585
0.00515831
-0.014401
0.00572598
-0.0153461
0.00626052
-0.0161992
0.0067783
-0.0169917
0.00729073
-0.0177549
0.00780867
-0.0184849
0.00833642
-0.0192086
0.00888315
-0.0198961
0.00945121
-0.0206207
0.0100385
-0.0212891
0.010667
-0.0220432
0.0112996
-0.0227745
-0.0234857
0.0119857
9.94083e-06
0.00273566
0.000480192
-0.000978354
0.00132354
-0.00445756
0.00225939
-0.00821574
0.0031115
-0.0106653
0.00386082
-0.0125816
0.0045113
-0.013909
0.00509313
-0.0149828
0.00562943
-0.0158824
0.00614125
-0.016711
0.00664233
-0.0174928
0.00714207
-0.0182546
0.00764928
-0.0189921
0.00816699
-0.0197263
0.00870426
-0.0204334
0.00926012
-0.0211766
0.00983757
-0.0218665
0.0104517
-0.0226573
0.0110691
-0.0233919
-0.024162
0.0117454
3.33591e-05
0.0027023
0.000571232
-0.00151623
0.00144977
-0.00533609
0.00236179
-0.00912776
0.00316597
-0.0114695
0.00386357
-0.0132792
0.00446839
-0.0145138
0.00501437
-0.0155288
0.00552379
-0.0163918
0.0060159
-0.0172031
0.00650186
-0.0179788
0.00698949
-0.0187423
0.00748579
-0.0194884
0.00799318
-0.0202337
0.00852013
-0.0209604
0.00906353
-0.02172
0.00963077
-0.0224338
0.0102286
-0.0232552
0.0108311
-0.0239944
-0.0248275
0.0114966
6.12724e-05
0.00264103
0.000665829
-0.00212078
0.00156283
-0.00623309
0.00244172
-0.0100067
0.00319692
-0.0122247
0.00384619
-0.0139285
0.00441029
-0.0150779
0.00492511
-0.0160436
0.00541118
-0.0168779
0.00588572
-0.0176777
0.00635758
-0.0184506
0.00683331
-0.019218
0.00731842
-0.0199735
0.00781513
-0.0207304
0.00833091
-0.0214761
0.00886177
-0.0222508
0.00941812
-0.0229901
0.00999781
-0.0238349
0.0105853
-0.0245819
-0.0254814
0.0112392
9.29768e-05
0.00254805
0.000761525
-0.00278933
0.00166074
-0.00713231
0.00250068
-0.0108466
0.00320753
-0.0129316
0.00381224
-0.0145332
0.00434014
-0.0156058
0.00482768
-0.0165311
0.0052931
-0.0173433
0.00575158
-0.0181362
0.00620994
-0.018909
0.00667376
-0.0196818
0.00714733
-0.0204471
0.00763292
-0.021216
0.00813677
-0.02198
0.00865511
-0.0227692
0.00919952
-0.0235345
0.00975996
-0.0243953
0.0103307
-0.0251527
-0.0261258
0.0109751
0.000127467
0.00242059
0.000855579
-0.00351744
0.00174269
-0.00801942
0.00254051
-0.0116444
0.00320066
-0.0135917
0.00376461
-0.0150971
0.00426029
-0.0161015
0.00472373
-0.0169946
0.00517049
-0.01779
0.00561391
-0.0185796
0.00605905
-0.0193541
0.00651079
-0.0201336
0.00697243
-0.0209087
0.00744639
-0.02169
0.00793767
-0.0224713
0.00844339
-0.0232749
0.00897458
-0.0240657
0.00951755
-0.0249383
0.010082
-0.0257171
-0.0267242
0.0106805
0.000163512
0.00225707
0.00094517
-0.0042991
0.00180889
-0.00888314
0.00256327
-0.0123988
0.00317908
-0.0142075
0.00370594
-0.015624
0.0041729
-0.0165685
0.00461476
-0.0174364
0.00504438
-0.0182197
0.00547339
-0.0190086
0.00590545
-0.0197862
0.00634488
-0.020573
0.00679424
-0.0213581
0.00725609
-0.0221518
0.00773432
-0.0229495
0.00822717
-0.0237678
0.00874393
-0.0245825
0.00927093
-0.0254653
0.00983084
-0.0262771
-0.0272876
0.0103942
0.000199989
0.00205709
0.00102765
-0.00512676
0.00186002
-0.00971551
0.0025709
-0.0131097
0.00314502
-0.0147816
0.00363819
-0.0161171
0.00407938
-0.0170097
0.00450164
-0.0178587
0.00491518
-0.0186332
0.00533016
-0.0194236
0.00574911
-0.0202051
0.00617594
-0.0209998
0.00661265
-0.0217948
0.00706188
-0.0226011
0.00752665
-0.0234143
0.00800616
-0.0242473
0.00850777
-0.0250841
0.00902168
-0.0259792
0.00956467
-0.02682
-0.0278332
0.0101103
0.000236224
0.00182086
0.00110095
-0.00599149
0.00189715
-0.0105117
0.00256525
-0.0137778
0.00310047
-0.0153169
0.00356302
-0.0165797
0.0039809
-0.0174276
0.00438507
-0.0182628
0.00478325
-0.0190314
0.0051844
-0.0198247
0.00559012
-0.0206109
0.00600404
-0.0214137
0.00642774
-0.0222185
0.00686388
-0.0230372
0.0073148
-0.0238652
0.00778046
-0.024713
0.00826701
-0.0255706
0.00876553
-0.0264777
0.00929355
-0.0273481
-0.0283688
0.0098291
0.000272175
0.00154869
0.00116381
-0.00688312
0.0019215
-0.0112694
0.00254804
-0.0144043
0.0030471
-0.0158159
0.00348177
-0.0170144
0.00387835
-0.0178241
0.00426558
-0.0186501
0.00464888
-0.0194147
0.00503626
-0.0202121
0.00542858
-0.0210032
0.00582927
-0.0218144
0.00623959
-0.0226288
0.0066622
-0.0234598
0.00709888
-0.0243018
0.00755032
-0.0251644
0.00802104
-0.0260413
0.00850522
-0.0269619
0.00901632
-0.0278592
-0.0288871
0.00953469
0.000308405
0.00124028
0.00121583
-0.00779054
0.00193436
-0.0119879
0.00252081
-0.0149907
0.00298636
-0.0162815
0.00339552
-0.0174235
0.00377244
-0.0182011
0.00414355
-0.0190212
0.00451227
-0.0197834
0.00488584
-0.0205857
0.00526455
-0.0213819
0.00565171
-0.0222016
0.0060483
-0.0230254
0.00645695
-0.0238685
0.00687906
-0.024724
0.00731572
-0.0256011
0.00777075
-0.0264964
0.00823903
-0.0274302
0.00873299
-0.0283531
-0.0293912
0.009237
0.000345859
0.000894423
0.0012573
-0.00870198
0.00193698
-0.0126676
0.00248495
-0.0155387
0.00291945
-0.016716
0.00330515
-0.0178092
0.0036637
-0.0185596
0.00401927
-0.0193767
0.00437357
-0.0201377
0.00473324
-0.0209453
0.00509813
-0.0217468
0.00547144
-0.0225749
0.00585395
-0.0234079
0.00624826
-0.0242628
0.00665543
-0.0251311
0.007077
-0.0260226
0.00751565
-0.026935
0.00796819
-0.0278827
0.00844494
-0.0288299
-0.029877
0.0089308
0.000385524
0.000508898
0.00128894
-0.00960539
0.00193054
-0.0133092
0.00244166
-0.0160498
0.00284736
-0.0171217
0.00321133
-0.0181732
0.00355253
-0.0189008
0.00389298
-0.0197172
0.00423291
-0.0204776
0.00457855
-0.021291
0.00492937
-0.0220976
0.00528854
-0.0229341
0.00565665
-0.023776
0.00603623
-0.0246424
0.00642815
-0.025523
0.00683413
-0.0264286
0.00725635
-0.0273572
0.00769236
-0.0283188
0.00815092
-0.0292884
-0.030346
0.00861993
0.000428081
8.08175e-05
0.00131164
-0.010489
0.00191606
-0.0139136
0.002392
-0.0165258
0.00277094
-0.0175006
0.00311463
-0.0185169
0.00343927
-0.0192255
0.00376483
-0.0200427
0.00409039
-0.0208032
0.00442184
-0.0216224
0.00475837
-0.0224341
0.0051031
-0.0232788
0.0054565
-0.0241294
0.00582101
-0.0250069
0.00619732
-0.0258993
0.0065874
-0.0268187
0.00699266
-0.0277625
0.00741187
-0.028738
0.0078524
-0.029729
-0.0307963
0.00830272
0.0004736
-0.000392783
0.00132629
-0.0113416
0.00189447
-0.0144818
0.00233687
-0.0169682
0.00269088
-0.0178546
0.00301549
-0.0188415
0.00332414
-0.0195341
0.00363497
-0.0203536
0.0039461
-0.0211143
0.00426319
-0.0219395
0.0045852
-0.0227562
0.00491523
-0.0236088
0.0052536
-0.0244678
0.00560271
-0.025356
0.00596312
-0.0262598
0.00633685
-0.0271924
0.00672498
-0.0281506
0.00712691
-0.0291399
0.00754848
-0.0301505
-0.0312284
0.00798053
0.000521346
-0.000914129
0.00133364
-0.0121539
0.00186653
-0.0150147
0.00227706
-0.0173787
0.00260776
-0.0181853
0.00291426
-0.019148
0.00320736
-0.0198272
0.00350352
-0.0206497
0.00380014
-0.0214109
0.00410268
-0.022242
0.00440995
-0.0230634
0.004725
-0.0239239
0.00504807
-0.0247909
0.00538145
-0.0256894
0.00572565
-0.026604
0.00608273
-0.0275495
0.00645331
-0.0285212
0.00683754
-0.0295241
0.00724022
-0.0305532
-0.0316412
0.00765302
0.000569768
-0.0014839
0.00133429
-0.0129185
0.00183291
-0.0155133
0.00221323
-0.017759
0.00252205
-0.0184942
0.00281122
-0.0194372
0.00308909
-0.0201051
0.00337058
-0.0209312
0.00365258
-0.0216929
0.0039404
-0.0225298
0.0042327
-0.0233557
0.00453253
-0.0242237
0.00484002
-0.0250983
0.00515738
-0.0260068
0.00548507
-0.0269317
0.00582511
-0.0278895
0.00617791
-0.028874
0.0065441
-0.0298903
0.00692719
-0.0309363
-0.0320347
0.0073207
0.000616644
-0.00210054
0.0013287
-0.0136305
0.00179419
-0.0159788
0.00214594
-0.0181108
0.00243417
-0.0187824
0.0027066
-0.0197096
0.00296946
-0.0203679
0.00323625
-0.021198
0.00350351
-0.0219602
0.00377642
-0.0228028
0.00405355
-0.0236329
0.00433792
-0.0245081
0.00462955
-0.02539
0.00493062
-0.0263078
0.00524151
-0.0272425
0.00556421
-0.0282122
0.0058989
-0.0292087
0.0062466
-0.030238
0.00661005
-0.0312997
-0.0324083
0.00698368
0.000659428
-0.00275997
0.00131728
-0.0142884
0.00175087
-0.0164124
0.00207568
-0.0184356
0.00234442
-0.0190511
0.0026006
-0.0199658
0.00284859
-0.0206159
0.0031006
-0.02145
0.00335301
-0.0222126
0.00361083
-0.0230606
0.00387259
-0.0238946
0.00414127
-0.0247768
0.00441681
-0.0256655
0.00470131
-0.0265923
0.00499513
-0.0275364
0.00530015
-0.0285172
0.00561648
-0.029525
0.0059454
-0.0305669
0.0062887
-0.031643
-0.0327619
0.00664223
0.000695716
-0.00345569
0.00130037
-0.014893
0.00170343
-0.0168155
0.00200287
-0.018735
0.00225309
-0.0193013
0.00249338
-0.0202061
0.00272657
-0.0208491
0.00296372
-0.0216872
0.00320115
-0.02245
0.00344372
-0.0233031
0.00368992
-0.0241408
0.00394269
-0.0250295
0.0042019
-0.0259247
0.00446959
-0.02686
0.00474607
-0.0278128
0.00503314
-0.0288043
0.00533083
-0.0298227
0.00564056
-0.0308767
0.00596357
-0.0319661
-0.0330949
0.00629659
0.000723716
-0.0041794
0.00127836
-0.0154477
0.00165234
-0.0171895
0.00192787
-0.0190105
0.0021604
-0.0195339
0.00238506
-0.0204308
0.00260351
-0.0210676
0.00282571
-0.0219094
0.00304803
-0.0226724
0.00327518
-0.0235303
0.00350564
-0.0243713
0.0037423
-0.0252662
0.00398495
-0.0261674
0.00423559
-0.0271107
0.00449448
-0.0280717
0.00476333
-0.0290732
0.00504211
-0.0301015
0.00533237
-0.0311669
0.00563473
-0.0322684
-0.0334071
0.00594696
0.000742547
-0.00492195
0.00125168
-0.0159568
0.00159805
-0.0175358
0.001851
-0.0192635
0.00206656
-0.0197494
0.00227578
-0.02064
0.00247949
-0.0212713
0.00268662
-0.0221165
0.00289373
-0.0228795
0.0031053
-0.0237419
0.00331986
-0.0245859
0.00354021
-0.0254865
0.00376609
-0.0263933
0.00399946
-0.027344
0.00424052
-0.0283128
0.00449089
-0.0293235
0.00475052
-0.0303611
0.00502098
-0.0314374
0.00530251
-0.03255
-0.0336982
0.00559362
0.000752285
-0.00567423
0.00122081
-0.0164253
0.00154098
-0.017856
0.00177254
-0.019495
0.00197172
-0.0199486
0.00216562
-0.0208339
0.00235459
-0.0214603
0.00254656
-0.0223085
0.00273834
-0.0230712
0.00293417
-0.0239377
0.00313267
-0.0247844
0.00333653
-0.0256904
0.00354546
-0.0266022
0.00376134
-0.0275599
0.00398435
-0.0285358
0.004216
-0.0295552
0.00445624
-0.0306013
0.00470663
-0.0316878
0.00496706
-0.0328104
-0.0339679
0.00523678
0.00075377
-0.006428
0.00118624
-0.0168578
0.00148153
-0.0181513
0.00169273
-0.0197062
0.00187604
-0.0201319
0.0020547
-0.0210125
0.0022289
-0.0216345
0.00240559
-0.0224852
0.00258194
-0.0232476
0.00276191
-0.0241177
0.0029442
-0.0249666
0.0031314
-0.0258776
0.00332319
-0.026794
0.00352139
-0.0277581
0.00372613
-0.0287405
0.00393884
-0.0297679
0.00415947
-0.030822
0.00438951
-0.0319178
0.00462866
-0.0330495
-0.034216
0.00487672
0.000748273
-0.00717628
0.00114848
-0.017258
0.00142005
-0.0184229
0.0016118
-0.019898
0.00177963
-0.0202998
0.0019431
-0.021176
0.00210249
-0.0217938
0.00226381
-0.0226465
0.00242462
-0.0234084
0.00258859
-0.0242816
0.00275455
-0.0251326
0.00292492
-0.026048
0.00309941
-0.0269685
0.00327974
-0.0279384
0.00346602
-0.0289268
0.00365958
-0.0299615
0.00386039
-0.0310228
0.00406986
-0.0321273
0.0042875
-0.0332672
-0.0344421
0.00451365
0.000737173
-0.00791345
0.00110795
-0.0176288
0.00135686
-0.0186718
0.00152993
-0.0200711
0.00168262
-0.0204525
0.0018309
-0.0213243
0.00197545
-0.0219384
0.0021213
-0.0227923
0.00226649
-0.0235536
0.00241434
-0.0244295
0.00256382
-0.0252821
0.00271723
-0.0262014
0.00287426
-0.0271255
0.00303655
-0.0281007
0.00320419
-0.0290945
0.00337842
-0.0301357
0.00355922
-0.0312036
0.00374788
-0.032316
0.00394385
-0.0334631
-0.0346461
0.00414785
0.000721718
-0.00863517
0.00106504
-0.0179721
0.00129226
-0.018899
0.00144729
-0.0202261
0.00158509
-0.0205903
0.00171818
-0.0214574
0.00184785
-0.0220681
0.00197814
-0.0229226
0.00210762
-0.0236831
0.00223924
-0.0245611
0.00237214
-0.025415
0.00250845
-0.0263377
0.00264787
-0.0272649
0.00279198
-0.0282448
0.00294082
-0.0292433
0.00309554
-0.0302904
0.00325614
-0.0313642
0.00342381
-0.0324836
0.00359794
-0.0336373
-0.0348278
0.00377957
0.000702912
-0.00933808
0.00102012
-0.0182893
0.0012265
-0.0191054
0.00136404
-0.0203636
0.00148714
-0.0207134
0.00160503
-0.0215752
0.00171977
-0.0221828
0.00183442
-0.0230373
0.00194812
-0.0237968
0.00206341
-0.0246764
0.00217962
-0.0255312
0.00229871
-0.0264568
0.0024204
-0.0273866
0.00254618
-0.0283706
0.00267606
-0.0293732
0.00281112
-0.0304255
0.00295136
-0.0315044
0.00309786
-0.0326301
0.00325
-0.0337894
-0.0349868
0.00340906
0.000681513
-0.0100196
0.000973515
-0.0185813
0.0011598
-0.0192917
0.0012803
-0.0204841
0.00138887
-0.0208219
0.00149151
-0.0216779
0.00159129
-0.0222826
0.00169022
-0.0231362
0.00178808
-0.0238946
0.00188694
-0.0247752
0.00198638
-0.0256306
0.00208814
-0.0265585
0.00219199
-0.0274905
0.00229931
-0.0284779
0.00241009
-0.029484
0.00252535
-0.0305407
0.00264508
-0.0316242
0.00277026
-0.0327553
0.00290028
-0.0339194
-0.0351231
0.00303657
0.000658078
-0.0106777
0.000925504
-0.0188487
0.00109236
-0.0194585
0.0011962
-0.020588
0.00129034
-0.0209161
0.00137771
-0.0217653
0.00146249
-0.0223674
0.00154563
-0.0232194
0.0016276
-0.0239766
0.00170995
-0.0248576
0.00179254
-0.0257132
0.00187686
-0.0266429
0.00196277
-0.0275764
0.00205152
-0.0285667
0.00214309
-0.0295755
0.00223842
-0.0306361
0.00233751
-0.0317232
0.00244122
-0.032859
0.00254904
-0.0340273
-0.0352364
0.00266237
0.000633013
-0.0113107
0.000876339
-0.0190921
0.00102435
-0.0196065
0.00111185
-0.0206755
0.00119164
-0.0209959
0.0012637
-0.0218373
0.00133346
-0.0224371
0.00140075
-0.0232866
0.00146677
-0.0240426
0.00153255
-0.0249234
0.00159821
-0.0257789
0.00166502
-0.0267097
0.0017329
-0.0276442
0.00180297
-0.0286367
0.00187523
-0.0296478
0.00195052
-0.0307114
0.00202884
-0.0318016
0.00211098
-0.0329412
0.0021965
-0.0341128
-0.0353267
0.00228674
0.000606627
-0.0119173
0.000826241
-0.0193117
0.00095593
-0.0197362
0.00102733
-0.0207469
0.00109284
-0.0210614
0.00114955
-0.021894
0.00120427
-0.0224918
0.00125566
-0.023338
0.00130569
-0.0240926
0.00135484
-0.0249725
0.00140352
-0.0258276
0.00145274
-0.0267589
0.00150251
-0.027694
0.00155383
-0.0286881
0.00160669
-0.0297006
0.00166184
-0.0307665
0.00171928
-0.031859
0.00177974
-0.0330016
0.00184289
-0.0341759
-0.0353936
0.0019098
0.000579166
-0.0124965
0.000775409
-0.0195079
0.000887236
-0.019848
0.000942739
-0.0208024
0.000994011
-0.0211126
0.00103534
-0.0219354
0.001075
-0.0225315
0.00111044
-0.0233735
0.00114446
-0.0241267
0.00117693
-0.025005
0.00120858
-0.0258592
0.00124016
-0.0267905
0.00127177
-0.0277256
0.00130426
-0.0287206
0.00133764
-0.029734
0.00137257
-0.0308014
0.00140905
-0.0318955
0.00144772
-0.0330403
0.00148839
-0.0342166
-0.035437
0.00153182
0.00055083
-0.0130473
0.000724019
-0.0196811
0.000818391
-0.0199424
0.000858153
-0.0208421
0.000895227
-0.0211497
0.000921123
-0.0219613
0.000945731
-0.0225561
0.000965189
-0.0233929
0.000983195
-0.0241447
0.000998924
-0.0250207
0.00101353
-0.0258738
0.00102741
-0.0268043
0.00104081
-0.027739
0.00105442
-0.0287342
0.00106828
-0.0297479
0.00108292
-0.0308161
0.00109838
-0.0319109
0.0011152
-0.0330571
0.00113313
-0.0342345
-0.035457
0.00115314
0.000521788
-0.0135691
0.000672227
-0.0198315
0.000749506
-0.0200197
0.000773646
-0.0208663
0.000796556
-0.0211726
0.000806984
-0.0219717
0.00081656
-0.0225657
0.00081998
-0.0233964
0.000821991
-0.0241467
0.000820934
-0.0250197
0.000818488
-0.0258714
0.000814625
-0.0268005
0.000809788
-0.0277342
0.000804477
-0.0287289
0.000798755
-0.0297422
0.000793072
-0.0308104
0.000787498
-0.0319054
0.000782494
-0.0330521
0.000777362
-0.0342294
-0.0354535
0.000773879
0.000492166
-0.0140613
0.000620125
-0.0199595
0.000680616
-0.0200802
0.000689198
-0.0208749
0.00069797
-0.0211814
0.000692852
-0.0219666
0.000687433
-0.0225602
0.000674726
-0.0233837
0.000660762
-0.0241327
0.000642861
-0.0250018
0.000623323
-0.0258519
0.000601691
-0.0267788
0.000578556
-0.0277111
0.000554284
-0.0287046
0.00052891
-0.0297168
0.000502857
-0.0307843
0.000476188
-0.0318787
0.000449393
-0.0330253
0.000421308
-0.0342013
-0.0354256
0.000393326
0.000462137
-0.0145234
0.000567927
-0.0200653
0.000611943
-0.0201242
0.000605035
-0.0208679
0.000599754
-0.0211761
0.000579028
-0.0219458
0.000558733
-0.02254
0.000529856
-0.0233548
0.000499966
-0.0241028
0.000465266
-0.0249671
0.00042861
-0.0258152
0.000389279
-0.0267395
0.00034783
-0.0276696
0.000304631
-0.0286614
0.00025961
-0.0296718
0.000213226
-0.030738
0.000165443
-0.0318309
0.000116546
-0.0329764
6.75801e-05
-0.0341523
-0.0353684
1.04251e-05
0.000431794
-0.0149552
0.000515695
-0.0201492
0.000543506
-0.020152
0.000521117
-0.0208456
0.000501888
-0.0211569
0.000465441
-0.0219094
0.000430391
-0.0225049
0.000385309
-0.0233097
0.000339482
-0.024057
0.000288036
-0.0249156
0.000234259
-0.0257614
0.000177193
-0.0266824
0.000117518
-0.0276099
5.52107e-05
-0.0285991
-9.10223e-06
-0.0296075
-7.60227e-05
-0.030671
-0.000144849
-0.0317621
-0.000215333
-0.032906
-0.000288742
-0.0340789
-0.0352921
-0.000365081
0.000401238
-0.0153564
0.000463521
-0.0202115
0.00047539
-0.0201639
0.000437477
-0.0208076
0.000404453
-0.0211239
0.000352154
-0.0218571
0.000302483
-0.0224552
0.000241113
-0.0232483
0.000179545
-0.0239954
0.000110994
-0.0248471
4.08242e-05
-0.0256913
-3.46778e-05
-0.0266069
-0.000112281
-0.0275323
-0.000193346
-0.028518
-0.000277583
-0.0295232
-0.000364601
-0.030584
-0.000454398
-0.0316723
-0.000546809
-0.0328135
-0.000643831
-0.0339819
-0.0351939
-0.00074204
0.00037056
-0.015727
0.000411484
-0.0202524
0.000407675
-0.0201601
0.000354144
-0.0207541
0.000307525
-0.0210772
0.000239183
-0.0217887
0.000175251
-0.0223913
9.68617e-05
-0.0231699
2.13726e-05
-0.02392
-6.53404e-05
-0.0247603
-0.000152838
-0.0256038
-0.000245042
-0.0265147
-0.000341396
-0.027436
-0.000441302
-0.0284181
-0.000545105
-0.0294194
-0.000652415
-0.0304767
-0.000763221
-0.0315615
-0.000877813
-0.0326989
-0.000997332
-0.0338624
-0.0350726