/*--------------------------------*- C++ -*----------------------------------*\
  =========                 |
  \\      /  F ield         | OpenFOAM: The Open Source CFD Toolbox
   \\    /   O peration     | Website:  https://openfoam.org
    \\  /    A nd           | Version:  7
     \\/     M anipulation  |
\*---------------------------------------------------------------------------*/
FoamFile
{
    version     2.0;
    format      ascii;
    class       surfaceScalarField;
    location    "1";
    object      phi;
}
// * * * * * * * * * * * * * * * * * * * * * * * * * * * * * * * * * * * * * //

dimensions      [0 3 -1 0 0 0 0];

internalField   nonuniform List<scalar> 
50880
(
5.87803e-12
-6.35137e-12
3.61867e-11
-3.03089e-11
8.11676e-11
-4.49813e-11
1.30889e-10
-4.9722e-11
1.78216e-10
-4.73269e-11
2.18168e-10
-3.99533e-11
2.47315e-10
-2.91476e-11
2.63339e-10
-1.60242e-11
2.64711e-10
-1.37263e-12
2.50465e-10
1.42464e-11
2.20038e-10
3.04268e-11
1.73168e-10
4.6869e-11
1.09819e-10
6.33488e-11
3.01224e-11
7.9696e-11
-6.56581e-11
9.57801e-11
-1.77159e-10
1.115e-10
-3.03936e-10
1.26778e-10
-4.45489e-10
1.41552e-10
-6.01264e-10
1.55775e-10
-7.70676e-10
1.69412e-10
-9.53109e-10
1.82432e-10
-1.14793e-09
1.94817e-10
-1.35447e-09
2.06548e-10
-1.57209e-09
2.17617e-10
-1.8001e-09
2.28014e-10
-2.03784e-09
2.37737e-10
-2.28462e-09
2.46783e-10
-2.53978e-09
2.55153e-10
-2.80263e-09
2.62851e-10
-3.07251e-09
2.69879e-10
-3.34875e-09
2.76243e-10
-3.6307e-09
2.8195e-10
-3.91771e-09
2.87007e-10
-4.20913e-09
2.91423e-10
-4.50434e-09
2.95207e-10
-4.80271e-09
2.98368e-10
-5.10362e-09
3.00917e-10
-5.40649e-09
3.02864e-10
-5.71071e-09
3.0422e-10
-6.0157e-09
3.04997e-10
-6.32091e-09
3.05206e-10
-6.62577e-09
3.0486e-10
-6.92974e-09
3.0397e-10
-7.23229e-09
3.02549e-10
-7.5329e-09
3.00609e-10
-7.83106e-09
2.98163e-10
-8.12628e-09
2.95223e-10
-8.41808e-09
2.91802e-10
-8.706e-09
2.87914e-10
-8.98957e-09
2.8357e-10
-9.26835e-09
2.78784e-10
-9.54192e-09
2.73569e-10
-9.80986e-09
2.67939e-10
-1.00718e-08
2.61905e-10
-1.03272e-08
2.55482e-10
-1.05759e-08
2.48682e-10
-1.08174e-08
2.41518e-10
-1.10515e-08
2.34004e-10
-1.12776e-08
2.26153e-10
-1.14956e-08
2.17979e-10
-1.17051e-08
2.09494e-10
-1.19058e-08
2.00713e-10
-1.20974e-08
1.91648e-10
-1.22798e-08
1.82313e-10
-1.24525e-08
1.72721e-10
-1.26154e-08
1.62886e-10
-1.27682e-08
1.52823e-10
-1.29107e-08
1.42543e-10
-1.30428e-08
1.32063e-10
-1.31642e-08
1.21394e-10
-1.32747e-08
1.10552e-10
-1.33743e-08
9.95505e-11
-1.34627e-08
8.84035e-11
-1.35398e-08
7.71256e-11
-1.36055e-08
6.57312e-11
-1.36598e-08
5.4235e-11
-1.37024e-08
4.26516e-11
-1.37334e-08
3.09957e-11
-1.37527e-08
1.92826e-11
-1.37602e-08
7.5272e-12
-1.3756e-08
-4.25513e-12
-1.37399e-08
-1.6049e-11
-1.37121e-08
-2.78389e-11
-1.36725e-08
-3.96091e-11
-1.36211e-08
-5.13438e-11
-1.35581e-08
-6.30271e-11
-1.34835e-08
-7.46428e-11
-1.33973e-08
-8.61748e-11
-1.32997e-08
-9.76066e-11
-1.31908e-08
-1.08922e-10
-1.30707e-08
-1.20104e-10
-1.29395e-08
-1.31135e-10
-1.27975e-08
-1.42001e-10
-1.26449e-08
-1.52682e-10
-1.24817e-08
-1.63164e-10
-1.23083e-08
-1.73427e-10
-1.21248e-08
-1.83456e-10
-1.19316e-08
-1.93233e-10
-1.17288e-08
-2.02741e-10
-1.15169e-08
-2.11964e-10
-1.1296e-08
-2.20883e-10
-1.10665e-08
-2.29483e-10
-1.08288e-08
-2.37745e-10
-1.05831e-08
-2.45653e-10
-1.03299e-08
-2.5319e-10
-1.00696e-08
-2.60339e-10
-9.8025e-09
-2.67085e-10
-9.52909e-09
-2.7341e-10
-9.24979e-09
-2.79299e-10
-8.96506e-09
-2.84735e-10
-8.67536e-09
-2.89702e-10
-8.38117e-09
-2.94185e-10
-8.083e-09
-2.9817e-10
-7.78136e-09
-3.01641e-10
-7.47678e-09
-3.04584e-10
-7.1698e-09
-3.06986e-10
-6.86097e-09
-3.08831e-10
-6.55086e-09
-3.10107e-10
-6.24006e-09
-3.10802e-10
-5.92915e-09
-3.10904e-10
-5.61875e-09
-3.10402e-10
-5.30947e-09
-3.09285e-10
-5.00193e-09
-3.07541e-10
-4.69677e-09
-3.05162e-10
-4.39463e-09
-3.02139e-10
-4.09617e-09
-2.98464e-10
-3.80203e-09
-2.94132e-10
-3.5129e-09
-2.89136e-10
-3.22943e-09
-2.8347e-10
-2.9523e-09
-2.77131e-10
-2.68218e-09
-2.70116e-10
-2.41976e-09
-2.62424e-10
-2.1657e-09
-2.54057e-10
-1.92069e-09
-2.45015e-10
-1.68538e-09
-2.35304e-10
-1.46046e-09
-2.24928e-10
-1.24656e-09
-2.13897e-10
-1.04434e-09
-2.02221e-10
-8.54426e-10
-1.89916e-10
-6.77423e-10
-1.77002e-10
-5.13921e-10
-1.63502e-10
-3.64478e-10
-1.49444e-10
-2.29614e-10
-1.34865e-10
-1.09805e-10
-1.1981e-10
-5.472e-12
-1.04334e-10
8.30347e-11
-8.8506e-11
1.55449e-10
-7.24136e-11
2.11614e-10
-5.61647e-11
2.51509e-10
-3.98964e-11
2.75293e-10
-2.37855e-11
2.83355e-10
-8.06209e-12
2.76385e-10
6.96948e-12
2.55485e-10
2.09006e-11
2.22314e-10
3.31723e-11
1.79309e-10
4.30045e-11
1.30002e-10
4.93064e-11
7.94177e-11
5.05831e-11
3.46364e-11
4.47811e-11
5.32221e-12
2.93143e-11
5.3225e-12
3.00539e-11
-3.64054e-11
1.01275e-10
-1.01531e-10
1.95674e-10
-1.39381e-10
2.96163e-10
-1.50212e-10
3.88367e-10
-1.39532e-10
4.61036e-10
-1.12623e-10
5.05698e-10
-7.38104e-11
5.16158e-10
-2.64848e-11
4.88016e-10
2.67678e-11
4.18268e-10
8.39935e-11
3.04988e-10
1.43706e-10
1.47087e-10
2.04769e-10
-5.5871e-11
2.66306e-10
-3.03811e-10
3.27635e-10
-5.96254e-10
3.88223e-10
-9.32404e-10
4.4765e-10
-1.31121e-09
5.05584e-10
-1.73142e-09
5.61765e-10
-2.19163e-09
6.15983e-10
-2.6903e-09
6.68076e-10
-3.22578e-09
7.17915e-10
-3.79636e-09
7.65401e-10
-4.40027e-09
8.10457e-10
-5.03569e-09
8.53029e-10
-5.70075e-09
8.93074e-10
-6.39357e-09
9.30566e-10
-7.11228e-09
9.6549e-10
-7.85497e-09
9.97839e-10
-8.61973e-09
1.02762e-09
-9.40469e-09
1.05483e-09
-1.02079e-08
1.0795e-09
-1.10276e-08
1.10163e-09
-1.18619e-08
1.12127e-09
-1.27089e-08
1.13842e-09
-1.35668e-08
1.15314e-09
-1.44339e-08
1.16544e-09
-1.53083e-08
1.17537e-09
-1.61884e-08
1.18296e-09
-1.70725e-08
1.18826e-09
-1.79588e-08
1.1913e-09
-1.88457e-08
1.19214e-09
-1.97317e-08
1.19082e-09
-2.06151e-08
1.18737e-09
-2.14944e-08
1.18185e-09
-2.23681e-08
1.17431e-09
-2.32347e-08
1.16479e-09
-2.40928e-08
1.15334e-09
-2.4941e-08
1.14001e-09
-2.5778e-08
1.12485e-09
-2.66023e-08
1.10792e-09
-2.74128e-08
1.08925e-09
-2.82081e-08
1.0689e-09
-2.89871e-08
1.04693e-09
-2.97485e-08
1.02337e-09
-3.04914e-08
9.98289e-10
-3.12144e-08
9.71731e-10
-3.19166e-08
9.4375e-10
-3.2597e-08
9.14396e-10
-3.32546e-08
8.8372e-10
-3.38884e-08
8.51777e-10
-3.44975e-08
8.18617e-10
-3.50811e-08
7.84293e-10
-3.56383e-08
7.48857e-10
-3.61684e-08
7.12364e-10
-3.66705e-08
6.74865e-10
-3.7144e-08
6.36415e-10
-3.75883e-08
5.97066e-10
-3.80026e-08
5.56874e-10
-3.83864e-08
5.15893e-10
-3.87392e-08
4.74177e-10
-3.90604e-08
4.31782e-10
-3.93497e-08
3.88763e-10
-3.96064e-08
3.45176e-10
-3.98304e-08
3.01077e-10
-4.00212e-08
2.56525e-10
-4.01785e-08
2.11575e-10
-4.03022e-08
1.66286e-10
-4.03919e-08
1.20716e-10
-4.04475e-08
7.49243e-11
-4.0469e-08
2.89702e-11
-4.04561e-08
-1.70865e-11
-4.0409e-08
-6.31852e-11
-4.03276e-08
-1.09265e-10
-4.02119e-08
-1.55264e-10
-4.00621e-08
-2.0112e-10
-3.98784e-08
-2.46772e-10
-3.96609e-08
-2.92154e-10
-3.94099e-08
-3.37205e-10
-3.91256e-08
-3.8186e-10
-3.88085e-08
-4.26054e-10
-3.84589e-08
-4.69723e-10
-3.80772e-08
-5.12801e-10
-3.7664e-08
-5.55223e-10
-3.72197e-08
-5.96922e-10
-3.67451e-08
-6.37833e-10
-3.62406e-08
-6.7789e-10
-3.5707e-08
-7.17024e-10
-3.51451e-08
-7.55171e-10
-3.45556e-08
-7.92263e-10
-3.39393e-08
-8.28234e-10
-3.32972e-08
-8.63017e-10
-3.26301e-08
-8.96545e-10
-3.19391e-08
-9.28754e-10
-3.12252e-08
-9.59577e-10
-3.04894e-08
-9.88948e-10
-2.9733e-08
-1.0168e-09
-2.8957e-08
-1.04308e-09
-2.81627e-08
-1.06771e-09
-2.73513e-08
-1.09064e-09
-2.65243e-08
-1.1118e-09
-2.56828e-08
-1.13113e-09
-2.48285e-08
-1.14857e-09
-2.39626e-08
-1.16407e-09
-2.30866e-08
-1.17757e-09
-2.22022e-08
-1.189e-09
-2.13109e-08
-1.19833e-09
-2.04142e-08
-1.2055e-09
-1.95139e-08
-1.21045e-09
-1.86115e-08
-1.21315e-09
-1.77089e-08
-1.21353e-09
-1.68077e-08
-1.21157e-09
-1.59098e-08
-1.20723e-09
-1.50169e-08
-1.20046e-09
-1.41308e-08
-1.19122e-09
-1.32535e-08
-1.1795e-09
-1.23867e-08
-1.16525e-09
-1.15323e-08
-1.14847e-09
-1.06924e-08
-1.12912e-09
-9.86863e-09
-1.10719e-09
-9.06309e-09
-1.08267e-09
-8.27765e-09
-1.05556e-09
-7.51423e-09
-1.02585e-09
-6.77473e-09
-9.93559e-10
-6.06105e-09
-9.58693e-10
-5.37508e-09
-9.21277e-10
-4.71866e-09
-8.81342e-10
-4.09363e-09
-8.3893e-10
-3.50176e-09
-7.94095e-10
-2.94477e-09
-7.46907e-10
-2.42432e-09
-6.97451e-10
-1.94199e-09
-6.45832e-10
-1.49925e-09
-5.92181e-10
-1.09746e-09
-5.36654e-10
-7.3783e-10
-4.79444e-10
-4.21376e-10
-4.20789e-10
-1.48906e-10
-3.60978e-10
7.90512e-11
-3.00371e-10
2.62301e-10
-2.39414e-10
4.01066e-10
-1.78662e-10
4.96098e-10
-1.18817e-10
5.48804e-10
-6.07699e-11
5.61437e-10
-5.66468e-12
5.3732e-10
4.50174e-11
4.81149e-10
8.93433e-11
3.99372e-10
1.24781e-10
3.00632e-10
1.48047e-10
1.96209e-10
1.55006e-10
1.00268e-10
1.40721e-10
2.92963e-11
1.00286e-10
3.46189e-11
4.48814e-11
-8.12872e-11
1.39293e-10
-1.95944e-10
2.56722e-10
-2.56811e-10
3.75514e-10
-2.69004e-10
4.77368e-10
-2.41387e-10
5.47392e-10
-1.82647e-10
5.73862e-10
-1.00281e-10
5.47811e-10
-4.34323e-13
4.62592e-10
1.11985e-10
3.13458e-10
2.33126e-10
9.72081e-11
3.59956e-10
-1.88114e-10
4.90091e-10
-5.43461e-10
6.21652e-10
-9.68977e-10
7.5315e-10
-1.46416e-09
8.83401e-10
-2.02796e-09
1.01146e-09
-2.65894e-09
1.13656e-09
-3.35529e-09
1.25811e-09
-4.11493e-09
1.37562e-09
-4.93555e-09
1.48869e-09
-5.81466e-09
1.59703e-09
-6.74965e-09
1.70038e-09
-7.73775e-09
1.79856e-09
-8.77614e-09
1.89142e-09
-9.86193e-09
1.97886e-09
-1.09922e-08
2.0608e-09
-1.21639e-08
2.13718e-09
-1.3374e-08
2.20799e-09
-1.46196e-08
2.27322e-09
-1.58976e-08
2.33287e-09
-1.72051e-08
2.38696e-09
-1.8539e-08
2.43554e-09
-1.98964e-08
2.47864e-09
-2.12743e-08
2.51633e-09
-2.26698e-08
2.54866e-09
-2.40801e-08
2.57571e-09
-2.55023e-08
2.59754e-09
-2.69336e-08
2.61424e-09
-2.83712e-08
2.6259e-09
-2.98125e-08
2.6326e-09
-3.12548e-08
2.63444e-09
-3.26955e-08
2.63151e-09
-3.4132e-08
2.62391e-09
-3.55619e-08
2.61174e-09
-3.69827e-08
2.59509e-09
-3.8392e-08
2.57409e-09
-3.97875e-08
2.54882e-09
-4.11669e-08
2.5194e-09
-4.2528e-08
2.48594e-09
-4.38686e-08
2.44854e-09
-4.51866e-08
2.40732e-09
-4.64801e-08
2.36237e-09
-4.7747e-08
2.31383e-09
-4.89854e-08
2.26179e-09
-5.01935e-08
2.20638e-09
-5.13695e-08
2.14769e-09
-5.25116e-08
2.08585e-09
-5.36182e-08
2.02098e-09
-5.46876e-08
1.95318e-09
-5.57184e-08
1.88257e-09
-5.67091e-08
1.80926e-09
-5.76582e-08
1.73338e-09
-5.85643e-08
1.65504e-09
-5.94263e-08
1.57435e-09
-6.02429e-08
1.49144e-09
-6.10129e-08
1.40643e-09
-6.17353e-08
1.31942e-09
-6.2409e-08
1.23055e-09
-6.3033e-08
1.13993e-09
-6.36065e-08
1.04768e-09
-6.41287e-08
9.53939e-10
-6.45987e-08
8.58813e-10
-6.5016e-08
7.62433e-10
-6.53798e-08
6.64924e-10
-6.56897e-08
5.66411e-10
-6.59451e-08
4.67024e-10
-6.61457e-08
3.66889e-10
-6.62912e-08
2.66137e-10
-6.63811e-08
1.64898e-10
-6.64155e-08
6.33039e-11
-6.63941e-08
-3.85118e-11
-6.63168e-08
-1.40415e-10
-6.61838e-08
-2.42271e-10
-6.59951e-08
-3.43943e-10
-6.5751e-08
-4.45293e-10
-6.54516e-08
-5.46183e-10
-6.50972e-08
-6.46473e-10
-6.46884e-08
-7.46022e-10
-6.42256e-08
-8.44689e-10
-6.37093e-08
-9.4233e-10
-6.31402e-08
-1.0388e-09
-6.25191e-08
-1.13396e-09
-6.18466e-08
-1.22766e-09
-6.11238e-08
-1.31976e-09
-6.03515e-08
-1.41011e-09
-5.95309e-08
-1.49856e-09
-5.86629e-08
-1.58497e-09
-5.77489e-08
-1.66919e-09
-5.67901e-08
-1.75107e-09
-5.57879e-08
-1.83047e-09
-5.47437e-08
-1.90723e-09
-5.3659e-08
-1.98122e-09
-5.25354e-08
-2.05229e-09
-5.13747e-08
-2.1203e-09
-5.01786e-08
-2.18509e-09
-4.89488e-08
-2.24654e-09
-4.76874e-08
-2.30449e-09
-4.63963e-08
-2.35881e-09
-4.50776e-08
-2.40936e-09
-4.37334e-08
-2.45601e-09
-4.23659e-08
-2.49863e-09
-4.09774e-08
-2.53708e-09
-3.95702e-08
-2.57124e-09
-3.81468e-08
-2.60099e-09
-3.67096e-08
-2.6262e-09
-3.52612e-08
-2.64676e-09
-3.38041e-08
-2.66255e-09
-3.23411e-08
-2.67348e-09
-3.08748e-08
-2.67944e-09
-2.9408e-08
-2.68032e-09
-2.79436e-08
-2.67604e-09
-2.64843e-08
-2.66652e-09
-2.50331e-08
-2.65167e-09
-2.35929e-08
-2.63142e-09
-2.21667e-08
-2.6057e-09
-2.07574e-08
-2.57447e-09
-1.93682e-08
-2.53767e-09
-1.80021e-08
-2.49526e-09
-1.66621e-08
-2.44722e-09
-1.53512e-08
-2.39352e-09
-1.40726e-08
-2.33417e-09
-1.28293e-08
-2.26917e-09
-1.16243e-08
-2.19855e-09
-1.04607e-08
-2.12235e-09
-9.34132e-09
-2.04062e-09
-8.2692e-09
-1.95346e-09
-7.24717e-09
-1.86096e-09
-6.27799e-09
-1.76327e-09
-5.36436e-09
-1.66054e-09
-4.50883e-09
-1.55299e-09
-3.71379e-09
-1.44087e-09
-2.9815e-09
-1.32448e-09
-2.31396e-09
-1.20419e-09
-1.71294e-09
-1.08046e-09
-1.1799e-09
-9.53831e-10
-7.15916e-10
-8.24965e-10
-3.21614e-10
-6.94675e-10
2.93014e-12
-5.63958e-10
2.58311e-10
-4.34042e-10
4.45945e-10
-3.06451e-10
5.68261e-10
-1.83086e-10
6.28929e-10
-6.63334e-11
6.33144e-10
4.08014e-11
5.87964e-10
1.34523e-10
5.02689e-10
2.10056e-10
3.89257e-10
2.61479e-10
2.62591e-10
2.81671e-10
1.40749e-10
2.62563e-10
4.4763e-11
1.96271e-10
7.93817e-11
4.97611e-11
-1.31049e-10
1.50497e-10
-2.96681e-10
2.6957e-10
-3.75885e-10
3.8176e-10
-3.81195e-10
4.66238e-10
-3.25867e-10
5.05916e-10
-2.22326e-10
4.87054e-10
-8.14203e-11
3.98863e-10
8.77558e-11
2.33099e-10
2.77749e-10
-1.63023e-11
4.82527e-10
-3.5358e-10
6.97232e-10
-7.8145e-10
9.1796e-10
-1.30137e-09
1.14157e-09
-1.91375e-09
1.36553e-09
-2.61814e-09
1.5878e-09
-3.4134e-09
1.80672e-09
-4.29779e-09
2.02095e-09
-5.2691e-09
2.22942e-09
-6.32472e-09
2.43124e-09
-7.46172e-09
2.6257e-09
-8.67692e-09
2.81223e-09
-9.96691e-09
2.99037e-09
-1.13281e-08
3.15976e-09
-1.27568e-08
3.32013e-09
-1.42492e-08
3.47125e-09
-1.58014e-08
3.61298e-09
-1.74094e-08
3.74519e-09
-1.90693e-08
3.86784e-09
-2.07769e-08
3.98087e-09
-2.25283e-08
4.0843e-09
-2.43195e-08
4.17814e-09
-2.61464e-08
4.26245e-09
-2.80051e-08
4.33729e-09
-2.98915e-08
4.40274e-09
-3.18017e-08
4.4589e-09
-3.37319e-08
4.50588e-09
-3.56782e-08
4.54382e-09
-3.76367e-08
4.57283e-09
-3.96039e-08
4.59306e-09
-4.1576e-08
4.60466e-09
-4.35493e-08
4.60779e-09
-4.55204e-08
4.6026e-09
-4.74858e-08
4.58927e-09
-4.9442e-08
4.56796e-09
-5.13857e-08
4.53884e-09
-5.33137e-08
4.50211e-09
-5.52229e-08
4.45793e-09
-5.71099e-08
4.4065e-09
-5.8972e-08
4.34799e-09
-6.08061e-08
4.2826e-09
-6.26093e-08
4.21052e-09
-6.43788e-08
4.13194e-09
-6.6112e-08
4.04705e-09
-6.78063e-08
3.95604e-09
-6.9459e-08
3.85912e-09
-7.10678e-08
3.75648e-09
-7.26303e-08
3.64832e-09
-7.41442e-08
3.53484e-09
-7.56072e-08
3.41623e-09
-7.70173e-08
3.29271e-09
-7.83725e-08
3.16446e-09
-7.96709e-08
3.0317e-09
-8.09105e-08
2.89464e-09
-8.20896e-08
2.75346e-09
-8.32065e-08
2.60839e-09
-8.42597e-08
2.45964e-09
-8.52477e-08
2.3074e-09
-8.61691e-08
2.15189e-09
-8.70224e-08
1.99333e-09
-8.78067e-08
1.83192e-09
-8.85206e-08
1.66788e-09
-8.91632e-08
1.50143e-09
-8.97336e-08
1.33279e-09
-9.02309e-08
1.16218e-09
-9.06543e-08
9.89812e-10
-9.10032e-08
8.15918e-10
-9.1277e-08
6.40722e-10
-9.14753e-08
4.64451e-10
-9.15977e-08
2.87335e-10
-9.1644e-08
1.09605e-10
-9.1614e-08
-6.85059e-11
-9.15077e-08
-2.46762e-10
-9.1325e-08
-4.24927e-10
-9.10662e-08
-6.02761e-10
-9.07315e-08
-7.80023e-10
-9.03212e-08
-9.56471e-10
-8.98358e-08
-1.13186e-09
-8.92759e-08
-1.30594e-09
-8.86421e-08
-1.47847e-09
-8.79353e-08
-1.64919e-09
-8.71562e-08
-1.81786e-09
-8.6306e-08
-1.98422e-09
-8.53856e-08
-2.14802e-09
-8.43964e-08
-2.309e-09
-8.33396e-08
-2.46692e-09
-8.22166e-08
-2.6215e-09
-8.10291e-08
-2.77251e-09
-7.97786e-08
-2.91967e-09
-7.84669e-08
-3.06274e-09
-7.70959e-08
-3.20146e-09
-7.56676e-08
-3.33558e-09
-7.4184e-08
-3.46483e-09
-7.26473e-08
-3.58897e-09
-7.10599e-08
-3.70774e-09
-6.94241e-08
-3.8209e-09
-6.77424e-08
-3.9282e-09
-6.60175e-08
-4.0294e-09
-6.4252e-08
-4.12425e-09
-6.24489e-08
-4.21251e-09
-6.0611e-08
-4.29396e-09
-5.87412e-08
-4.36836e-09
-5.68428e-08
-4.43549e-09
-5.49189e-08
-4.49513e-09
-5.29728e-08
-4.54707e-09
-5.10079e-08
-4.5911e-09
-4.90277e-08
-4.62702e-09
-4.70356e-08
-4.65464e-09
-4.50353e-08
-4.67378e-09
-4.30305e-08
-4.68425e-09
-4.10249e-08
-4.6859e-09
-3.90223e-08
-4.67857e-09
-3.70267e-08
-4.66212e-09
-3.5042e-08
-4.6364e-09
-3.30721e-08
-4.60131e-09
-3.11211e-08
-4.55673e-09
-2.9193e-08
-4.50258e-09
-2.72919e-08
-4.43877e-09
-2.54219e-08
-4.36525e-09
-2.35871e-08
-4.28198e-09
-2.17917e-08
-4.18894e-09
-2.00397e-08
-4.08614e-09
-1.83353e-08
-3.97359e-09
-1.66825e-08
-3.85137e-09
-1.50853e-08
-3.71954e-09
-1.35477e-08
-3.57825e-09
-1.20735e-08
-3.42763e-09
-1.06666e-08
-3.26791e-09
-9.33048e-09
-3.09934e-09
-8.06879e-09
-2.92223e-09
-6.88481e-09
-2.73697e-09
-5.78166e-09
-2.54402e-09
-4.76219e-09
-2.34395e-09
-3.82895e-09
-2.13742e-09
-2.98415e-09
-1.92526e-09
-2.22954e-09
-1.70844e-09
-1.56637e-09
-1.48814e-09
-9.9527e-10
-1.26578e-09
-5.16129e-10
-1.0431e-09
-1.27965e-10
-8.22206e-10
1.71264e-10
-6.05679e-10
3.84862e-10
-3.96684e-10
5.17646e-10
-1.99118e-10
5.76231e-10
-1.77842e-11
5.69349e-10
1.41403e-10
5.08196e-10
2.71209e-10
4.06778e-10
3.62897e-10
2.82262e-10
4.06188e-10
1.55303e-10
3.89522e-10
5.06286e-11
3.00945e-10
1.3001e-10
4.75644e-11
-1.78614e-10
1.4045e-10
-3.89567e-10
2.43148e-10
-4.78584e-10
3.28245e-10
-4.66293e-10
3.73346e-10
-3.70968e-10
3.60067e-10
-2.09048e-10
2.73477e-10
5.16969e-12
1.01653e-10
2.59578e-10
-1.64683e-10
5.44085e-10
-5.32514e-10
8.50357e-10
-1.00684e-09
1.17156e-09
-1.59097e-09
1.50209e-09
-2.28677e-09
1.83737e-09
-3.0949e-09
2.17366e-09
-4.01502e-09
2.50791e-09
-5.04589e-09
2.83759e-09
-6.1856e-09
3.16066e-09
-7.43162e-09
3.47544e-09
-8.78091e-09
3.78054e-09
-1.02301e-08
4.07484e-09
-1.17753e-08
4.35743e-09
-1.34124e-08
4.62757e-09
-1.51374e-08
4.88467e-09
-1.69455e-08
5.12826e-09
-1.88322e-08
5.35798e-09
-2.07928e-08
5.57356e-09
-2.28224e-08
5.7748e-09
-2.49161e-08
5.96157e-09
-2.7069e-08
6.1338e-09
-2.92762e-08
6.29146e-09
-3.15326e-08
6.43456e-09
-3.38333e-08
6.56316e-09
-3.61734e-08
6.67735e-09
-3.85479e-08
6.77724e-09
-4.0952e-08
6.86295e-09
-4.33807e-08
6.93465e-09
-4.58294e-08
6.99252e-09
-4.82934e-08
7.03675e-09
-5.07678e-08
7.06754e-09
-5.32483e-08
7.08512e-09
-5.57302e-08
7.08971e-09
-5.82092e-08
7.08156e-09
-6.06808e-08
7.06091e-09
-6.31409e-08
7.02802e-09
-6.55852e-08
6.98316e-09
-6.80097e-08
6.92659e-09
-7.04103e-08
6.85858e-09
-7.27833e-08
6.77943e-09
-7.51247e-08
6.6894e-09
-7.74309e-08
6.58879e-09
-7.96982e-08
6.47788e-09
-8.19233e-08
6.35698e-09
-8.41026e-08
6.22637e-09
-8.62329e-08
6.08635e-09
-8.8311e-08
5.93722e-09
-9.03338e-08
5.77929e-09
-9.22984e-08
5.61286e-09
-9.42018e-08
5.43824e-09
-9.60412e-08
5.25572e-09
-9.78142e-08
5.06564e-09
-9.9518e-08
4.86828e-09
-1.0115e-07
4.66398e-09
-1.02709e-07
4.45304e-09
-1.04191e-07
4.23577e-09
-1.05595e-07
4.01251e-09
-1.06919e-07
3.78357e-09
-1.08161e-07
3.54927e-09
-1.09319e-07
3.30994e-09
-1.10392e-07
3.0659e-09
-1.11377e-07
2.81749e-09
-1.12274e-07
2.56503e-09
-1.13082e-07
2.30887e-09
-1.13798e-07
2.04933e-09
-1.14423e-07
1.78676e-09
-1.14954e-07
1.5215e-09
-1.15392e-07
1.2539e-09
-1.15736e-07
9.84301e-10
-1.15985e-07
7.13055e-10
-1.16138e-07
4.40518e-10
-1.16195e-07
1.67044e-10
-1.16157e-07
-1.07004e-10
-1.16022e-07
-3.81266e-10
-1.15792e-07
-6.55374e-10
-1.15466e-07
-9.28961e-10
-1.15044e-07
-1.20166e-09
-1.14527e-07
-1.47308e-09
-1.13916e-07
-1.74287e-09
-1.13212e-07
-2.01062e-09
-1.12414e-07
-2.27598e-09
-1.11525e-07
-2.53854e-09
-1.10545e-07
-2.79793e-09
-1.09475e-07
-3.05376e-09
-1.08318e-07
-3.30563e-09
-1.07073e-07
-3.55315e-09
-1.05744e-07
-3.79594e-09
-1.04332e-07
-4.0336e-09
-1.02839e-07
-4.26574e-09
-1.01267e-07
-4.49196e-09
-9.96177e-08
-4.71187e-09
-9.78941e-08
-4.92508e-09
-9.60985e-08
-5.1312e-09
-9.42335e-08
-5.32983e-09
-9.23018e-08
-5.5206e-09
-9.03065e-08
-5.70311e-09
-8.82504e-08
-5.87699e-09
-8.61367e-08
-6.04186e-09
-8.39688e-08
-6.19734e-09
-8.175e-08
-6.34306e-09
-7.94838e-08
-6.47867e-09
-7.7174e-08
-6.60381e-09
-7.48242e-08
-6.71813e-09
-7.24384e-08
-6.82128e-09
-7.00206e-08
-6.91294e-09
-6.75749e-08
-6.99278e-09
-6.51055e-08
-7.06049e-09
-6.26168e-08
-7.11577e-09
-6.01131e-08
-7.15832e-09
-5.7599e-08
-7.18787e-09
-5.50791e-08
-7.20416e-09
-5.25581e-08
-7.20693e-09
-5.00407e-08
-7.19597e-09
-4.75318e-08
-7.17104e-09
-4.50362e-08
-7.13196e-09
-4.2559e-08
-7.07855e-09
-4.01051e-08
-7.01065e-09
-3.76795e-08
-6.92814e-09
-3.52874e-08
-6.83091e-09
-3.29337e-08
-6.71888e-09
-3.06237e-08
-6.59201e-09
-2.83624e-08
-6.45028e-09
-2.61548e-08
-6.2937e-09
-2.40061e-08
-6.12235e-09
-2.19211e-08
-5.93633e-09
-1.99049e-08
-5.73578e-09
-1.79622e-08
-5.52092e-09
-1.60978e-08
-5.29202e-09
-1.43163e-08
-5.04941e-09
-1.26221e-08
-4.79353e-09
-1.10195e-08
-4.52488e-09
-9.51237e-09
-4.24408e-09
-8.1045e-09
-3.95189e-09
-6.79927e-09
-3.64918e-09
-5.59966e-09
-3.33703e-09
-4.5082e-09
-3.01672e-09
-3.52688e-09
-2.68976e-09
-2.65705e-09
-2.35797e-09
-1.89931e-09
-2.02352e-09
-1.25337e-09
-1.68905e-09
-7.17888e-10
-1.35769e-09
-2.90321e-10
-1.03325e-09
3.33272e-11
-7.20331e-10
2.58722e-10
-4.24512e-10
3.93474e-10
-1.52537e-10
4.47432e-10
8.74449e-11
4.32989e-10
2.85651e-10
3.65423e-10
4.30463e-10
2.63287e-10
5.08324e-10
1.48937e-10
5.03873e-10
4.95112e-11
4.00371e-10
1.7952e-10
4.04663e-11
-2.19081e-10
1.14438e-10
-4.6354e-10
1.86128e-10
-5.50275e-10
2.27343e-10
-5.07509e-10
2.15015e-10
-3.58641e-10
1.30157e-10
-1.24191e-10
-4.27598e-11
1.78085e-10
-3.16256e-10
5.33074e-10
-7.00207e-10
9.28035e-10
-1.20215e-09
1.3523e-09
-1.82759e-09
1.79699e-09
-2.58022e-09
2.25472e-09
-3.46222e-09
2.71937e-09
-4.47443e-09
3.18587e-09
-5.61655e-09
3.65003e-09
-6.88733e-09
4.10837e-09
-8.28467e-09
4.558e-09
-9.80579e-09
4.99656e-09
-1.14473e-08
5.42207e-09
-1.32054e-08
5.83291e-09
-1.50757e-08
6.22775e-09
-1.70537e-08
6.60551e-09
-1.91343e-08
6.96531e-09
-2.13125e-08
7.30645e-09
-2.35829e-08
7.62838e-09
-2.594e-08
7.93067e-09
-2.83782e-08
8.21301e-09
-3.08918e-08
8.47517e-09
-3.34751e-08
8.71702e-09
-3.61221e-08
8.9385e-09
-3.88271e-08
9.13959e-09
-4.15843e-08
9.32035e-09
-4.43878e-08
9.48087e-09
-4.72319e-08
9.62129e-09
-5.01107e-08
9.74179e-09
-5.30186e-08
9.84255e-09
-5.59499e-08
9.92383e-09
-5.88991e-08
9.98588e-09
-6.18605e-08
1.0029e-08
-6.48288e-08
1.00534e-08
-6.77986e-08
1.00595e-08
-7.07646e-08
1.00476e-08
-7.37217e-08
1.0018e-08
-7.66648e-08
9.97111e-09
-7.95889e-08
9.90727e-09
-8.24892e-08
9.82686e-09
-8.53608e-08
9.73026e-09
-8.81993e-08
9.61785e-09
-9.09999e-08
9.49005e-09
-9.37584e-08
9.34725e-09
-9.64703e-08
9.18985e-09
-9.91316e-08
9.01827e-09
-1.01738e-07
8.83293e-09
-1.04286e-07
8.63424e-09
-1.06771e-07
8.42263e-09
-1.09191e-07
8.19853e-09
-1.1154e-07
7.96237e-09
-1.13817e-07
7.71458e-09
-1.16016e-07
7.45559e-09
-1.18137e-07
7.18585e-09
-1.20174e-07
6.9058e-09
-1.22126e-07
6.61589e-09
-1.2399e-07
6.31655e-09
-1.25762e-07
6.00824e-09
-1.27441e-07
5.69141e-09
-1.29024e-07
5.36653e-09
-1.30509e-07
5.03404e-09
-1.31893e-07
4.69441e-09
-1.33175e-07
4.34811e-09
-1.34354e-07
3.9956e-09
-1.35426e-07
3.63736e-09
-1.36391e-07
3.27386e-09
-1.37247e-07
2.90558e-09
-1.37993e-07
2.533e-09
-1.38628e-07
2.15662e-09
-1.39151e-07
1.77691e-09
-1.39562e-07
1.39439e-09
-1.39858e-07
1.00954e-09
-1.4004e-07
6.22868e-10
-1.40108e-07
2.34883e-10
-1.40061e-07
-1.53904e-10
-1.399e-07
-5.42979e-10
-1.39623e-07
-9.31821e-10
-1.39232e-07
-1.31991e-09
-1.38727e-07
-1.70671e-09
-1.38109e-07
-2.0917e-09
-1.37377e-07
-2.47434e-09
-1.36534e-07
-2.85409e-09
-1.35579e-07
-3.23041e-09
-1.34515e-07
-3.60275e-09
-1.33342e-07
-3.97057e-09
-1.32063e-07
-4.33332e-09
-1.30678e-07
-4.69045e-09
-1.2919e-07
-5.04139e-09
-1.276e-07
-5.3856e-09
-1.25911e-07
-5.72253e-09
-1.24125e-07
-6.0516e-09
-1.22245e-07
-6.37227e-09
-1.20273e-07
-6.68399e-09
-1.18212e-07
-6.98619e-09
-1.16065e-07
-7.27832e-09
-1.13835e-07
-7.55984e-09
-1.11525e-07
-7.83019e-09
-1.09139e-07
-8.08884e-09
-1.06681e-07
-8.33525e-09
-1.04154e-07
-8.56888e-09
-1.01562e-07
-8.78921e-09
-9.89095e-08
-8.99572e-09
-9.62003e-08
-9.1879e-09
-9.34388e-08
-9.36526e-09
-9.06296e-08
-9.52729e-09
-8.77774e-08
-9.67353e-09
-8.48868e-08
-9.8035e-09
-8.19629e-08
-9.91676e-09
-7.90105e-08
-1.00129e-08
-7.60349e-08
-1.00914e-08
-7.30413e-08
-1.01519e-08
-7.0035e-08
-1.01941e-08
-6.70216e-08
-1.02176e-08
-6.40066e-08
-1.02219e-08
-6.09957e-08
-1.02069e-08
-5.79945e-08
-1.01722e-08
-5.50089e-08
-1.01176e-08
-5.20447e-08
-1.00427e-08
-4.91079e-08
-9.94749e-09
-4.62043e-08
-9.83169e-09
-4.33401e-08
-9.69518e-09
-4.05211e-08
-9.53789e-09
-3.77533e-08
-9.35975e-09
-3.50429e-08
-9.16076e-09
-3.23956e-08
-8.94098e-09
-2.98174e-08
-8.70052e-09
-2.73142e-08
-8.43954e-09
-2.48917e-08
-8.15828e-09
-2.25555e-08
-7.85708e-09
-2.03112e-08
-7.53634e-09
-1.81641e-08
-7.19658e-09
-1.61192e-08
-6.83842e-09
-1.41814e-08
-6.46263e-09
-1.23554e-08
-6.07012e-09
-1.06453e-08
-5.66197e-09
-9.05499e-09
-5.23949e-09
-7.58782e-09
-4.80421e-09
-6.24658e-09
-4.35795e-09
-5.03347e-09
-3.90287e-09
-3.9499e-09
-3.44154e-09
-2.99644e-09
-2.97698e-09
-2.17266e-09
-2.51283e-09
-1.47696e-09
-2.05338e-09
-9.06416e-10
-1.60379e-09
-4.56554e-10
-1.17019e-09
-1.21134e-10
-7.59931e-10
1.08088e-10
-3.81758e-10
2.4163e-10
-4.60976e-11
2.9257e-10
2.3471e-10
2.76875e-10
4.46157e-10
2.13829e-10
5.71369e-10
1.26641e-10
5.91061e-10
4.34811e-11
4.83531e-10
2.23001e-10
3.00085e-11
-2.4909e-10
7.67561e-11
-5.10289e-10
1.05919e-10
-5.79438e-10
8.97353e-11
-4.91327e-10
5.26573e-12
-2.74172e-10
-1.66485e-10
4.75595e-11
-4.41151e-10
4.52749e-10
-8.31432e-10
9.23354e-10
-1.34743e-09
1.44404e-09
-1.99695e-09
2.00182e-09
-2.78572e-09
2.58576e-09
-3.71768e-09
3.18667e-09
-4.79514e-09
3.79683e-09
-6.01904e-09
4.40977e-09
-7.38909e-09
5.02009e-09
-8.90398e-09
5.62325e-09
-1.05615e-08
6.21548e-09
-1.23585e-08
6.79362e-09
-1.42915e-08
7.35503e-09
-1.63561e-08
7.89752e-09
-1.85476e-08
8.4193e-09
-2.0861e-08
8.91886e-09
-2.32907e-08
9.39499e-09
-2.58309e-08
9.84671e-09
-2.84758e-08
1.02732e-08
-3.1219e-08
1.06739e-08
-3.40544e-08
1.10484e-08
-3.69755e-08
1.13962e-08
-3.99757e-08
1.17172e-08
-4.30484e-08
1.20113e-08
-4.61871e-08
1.22783e-08
-4.93851e-08
1.25184e-08
-5.26359e-08
1.27316e-08
-5.59327e-08
1.29181e-08
-5.9269e-08
1.30781e-08
-6.26382e-08
1.32118e-08
-6.6034e-08
1.33196e-08
-6.94499e-08
1.34018e-08
-7.28796e-08
1.34586e-08
-7.63168e-08
1.34906e-08
-7.97554e-08
1.34981e-08
-8.31893e-08
1.34815e-08
-8.66126e-08
1.34413e-08
-9.00195e-08
1.3378e-08
-9.34042e-08
1.3292e-08
-9.67611e-08
1.31838e-08
-1.00085e-07
1.30539e-08
-1.0337e-07
1.29029e-08
-1.06611e-07
1.27313e-08
-1.09803e-07
1.25395e-08
-1.12942e-07
1.23282e-08
-1.16021e-07
1.20979e-08
-1.19037e-07
1.18491e-08
-1.21986e-07
1.15825e-08
-1.24862e-07
1.12985e-08
-1.27661e-07
1.09978e-08
-1.30379e-07
1.06809e-08
-1.33013e-07
1.03483e-08
-1.35558e-07
1.00008e-08
-1.38011e-07
9.63886e-09
-1.40369e-07
9.26307e-09
-1.42627e-07
8.87403e-09
-1.44783e-07
8.47236e-09
-1.46833e-07
8.05865e-09
-1.48775e-07
7.63352e-09
-1.50606e-07
7.19757e-09
-1.52324e-07
6.75142e-09
-1.53925e-07
6.2957e-09
-1.55408e-07
5.83103e-09
-1.5677e-07
5.35803e-09
-1.5801e-07
4.87735e-09
-1.59126e-07
4.38962e-09
-1.60116e-07
3.89548e-09
-1.60978e-07
3.39559e-09
-1.61712e-07
2.89061e-09
-1.62317e-07
2.38118e-09
-1.6279e-07
1.86798e-09
-1.63132e-07
1.35168e-09
-1.63342e-07
8.32947e-10
-1.6342e-07
3.1247e-10
-1.63365e-07
-2.09066e-10
-1.63177e-07
-7.30969e-10
-1.62856e-07
-1.25254e-09
-1.62403e-07
-1.77308e-09
-1.61818e-07
-2.29188e-09
-1.61101e-07
-2.80822e-09
-1.60254e-07
-3.32138e-09
-1.59278e-07
-3.83066e-09
-1.58173e-07
-4.33531e-09
-1.56941e-07
-4.83461e-09
-1.55584e-07
-5.32782e-09
-1.54103e-07
-5.81421e-09
-1.525e-07
-6.29303e-09
-1.50778e-07
-6.76355e-09
-1.48939e-07
-7.22502e-09
-1.46984e-07
-7.6767e-09
-1.44918e-07
-8.11784e-09
-1.42743e-07
-8.5477e-09
-1.40461e-07
-8.96554e-09
-1.38077e-07
-9.3706e-09
-1.35593e-07
-9.76217e-09
-1.33013e-07
-1.01395e-08
-1.30342e-07
-1.05019e-08
-1.27582e-07
-1.08485e-08
-1.24738e-07
-1.11788e-08
-1.21815e-07
-1.14919e-08
-1.18817e-07
-1.17872e-08
-1.15749e-07
-1.2064e-08
-1.12615e-07
-1.23217e-08
-1.09421e-07
-1.25594e-08
-1.06172e-07
-1.27767e-08
-1.02872e-07
-1.29729e-08
-9.95287e-08
-1.31472e-08
-9.61462e-08
-1.32993e-08
-9.27307e-08
-1.34283e-08
-8.92881e-08
-1.35339e-08
-8.58246e-08
-1.36155e-08
-8.23461e-08
-1.36726e-08
-7.8859e-08
-1.37046e-08
-7.53698e-08
-1.37112e-08
-7.18848e-08
-1.36919e-08
-6.84106e-08
-1.36464e-08
-6.49539e-08
-1.35743e-08
-6.15214e-08
-1.34753e-08
-5.81198e-08
-1.33491e-08
-5.47559e-08
-1.31955e-08
-5.14366e-08
-1.30145e-08
-4.81687e-08
-1.28058e-08
-4.4959e-08
-1.25694e-08
-4.18144e-08
-1.23054e-08
-3.87416e-08
-1.20138e-08
-3.57473e-08
-1.16948e-08
-3.28381e-08
-1.13487e-08
-3.00206e-08
-1.09758e-08
-2.7301e-08
-1.05766e-08
-2.46856e-08
-1.01517e-08
-2.21804e-08
-9.7018e-09
-1.97911e-08
-9.22776e-09
-1.7523e-08
-8.73066e-09
-1.53814e-08
-8.21174e-09
-1.33709e-08
-7.67251e-09
-1.14956e-08
-7.11472e-09
-9.75941e-09
-6.54045e-09
-8.16523e-09
-5.95214e-09
-6.71543e-09
-5.35267e-09
-5.41154e-09
-4.74543e-09
-4.25412e-09
-4.1344e-09
-3.24266e-09
-3.52429e-09
-2.3754e-09
-2.92064e-09
-1.64919e-09
-2.33001e-09
-1.05926e-09
-1.76012e-09
-5.99059e-10
-1.22013e-09
-2.60014e-10
-7.20802e-10
-3.12954e-11
-2.74816e-10
1.00448e-10
1.02966e-10
1.51404e-10
3.952e-10
1.41014e-10
5.81758e-10
9.25556e-11
6.39519e-10
3.4037e-11
5.4205e-10
2.57039e-10
1.72895e-11
-2.6638e-10
3.07274e-11
-5.23728e-10
8.51969e-12
-5.57232e-10
-7.57479e-11
-4.0706e-10
-2.44206e-10
-1.05715e-10
-5.15342e-10
3.18695e-10
-9.04476e-10
8.41882e-10
-1.42413e-09
1.44301e-09
-2.08434e-09
2.10424e-09
-2.89289e-09
2.81036e-09
-3.85553e-09
3.54841e-09
-4.97624e-09
4.30738e-09
-6.25735e-09
5.07794e-09
-7.6998e-09
5.85222e-09
-9.30324e-09
6.62353e-09
-1.10662e-08
7.38626e-09
-1.29864e-08
8.13564e-09
-1.50605e-08
8.8677e-09
-1.72845e-08
9.57906e-09
-1.96539e-08
1.02669e-08
-2.21636e-08
1.09289e-08
-2.48079e-08
1.15632e-08
-2.75809e-08
1.2168e-08
-3.04763e-08
1.27421e-08
-3.34876e-08
1.32845e-08
-3.6608e-08
1.37943e-08
-3.98305e-08
1.42709e-08
-4.31479e-08
1.47137e-08
-4.65532e-08
1.51225e-08
-5.0039e-08
1.54971e-08
-5.3598e-08
1.58373e-08
-5.72228e-08
1.61432e-08
-6.0906e-08
1.64148e-08
-6.46403e-08
1.66524e-08
-6.84184e-08
1.68561e-08
-7.22329e-08
1.70263e-08
-7.60766e-08
1.71634e-08
-7.99424e-08
1.72676e-08
-8.38232e-08
1.73394e-08
-8.7712e-08
1.73794e-08
-9.16018e-08
1.7388e-08
-9.5486e-08
1.73657e-08
-9.93578e-08
1.73131e-08
-1.03211e-07
1.72308e-08
-1.07038e-07
1.71195e-08
-1.10834e-07
1.69796e-08
-1.14592e-07
1.68119e-08
-1.18306e-07
1.6617e-08
-1.21971e-07