2 	-9.56759 	-5.01458e-18 	1.00681 	-0.0135188 	-6.46827e-22
2 	-8.72694 	-8.05291e-18 	1.00701 	-0.0137887 	2.90832e-22
2 	-7.90114 	-6.99372e-18 	1.00742 	-0.0149882 	-5.45718e-22
2 	-7.08993 	-4.53666e-18 	1.00764 	-0.0147508 	1.86999e-22
2 	-6.29305 	-2.1116e-18 	1.00803 	-0.0160468 	7.4365e-23
2 	-5.51024 	6.54737e-19 	1.00981 	-0.0148089 	1.76109e-22
2 	-4.97537 	1.57527e-18 	1.00957 	-0.0161776 	4.04839e-22
2 	-4.72636 	1.80524e-18 	1.00937 	-0.0158282 	7.11981e-23
2 	-4.48132 	7.5954e-19 	1.01061 	-0.0141851 	6.38497e-22
2 	-4.24028 	-1.98432e-19 	1.01015 	-0.0140514 	-2.84733e-21
2 	-4.03372 	-1.88566e-18 	1.0093 	-0.0135038 	-5.59182e-21
2 	-3.79935 	-4.00265e-18 	1.0084 	-0.0136669 	-6.59633e-21
2 	-3.62237 	-1.73472e-18 	1.0082 	-0.00905033 	-5.57223e-21
2 	-3.41748 	-2.22713e-18 	1.00616 	-0.00958204 	-3.31406e-21
2 	-3.23899 	-2.81515e-18 	1.00394 	-0.010632 	-6.74082e-21
2 	-3.10375 	-1.62886e-18 	0.999826 	-0.00345283 	-1.72183e-21
2 	-2.87636 	-3.1225e-18 	0.99557 	-0.00441453 	1.54616e-20
2 	-2.75613 	-4.16334e-18 	0.994065 	0.0134755 	3.07814e-21
2 	-2.64488 	-4.51028e-18 	0.98669 	0.0134414 	3.23854e-20
2 	-2.43934 	-1.85487e-18 	0.978266 	0.0125618 	-2.28898e-20
2 	-2.32087 	1.6478e-18 	0.968661 	0.0106179 	-4.20656e-21
2 	-2.23181 	1.07406e-18 	0.967074 	0.0447239 	4.46023e-20
2 	-2.08179 	8.91641e-19 	0.952925 	0.0475296 	-2.7193e-20
2 	-1.92439 	-2.20418e-19 	0.936506 	0.0497491 	1.524e-20
2 	-1.83556 	-1.36575e-18 	0.917394 	0.0513426 	-1.20624e-20
2 	-1.76525 	-1.98842e-18 	0.937083 	0.119345 	2.93086e-20
2 	-1.64242 	-1.73472e-18 	0.915847 	0.130112 	-1.5028e-21
2 	-1.51488 	-7.38535e-19 	0.891657 	0.142122 	-1.81162e-20
2 	-1.39472 	-8.45796e-19 	0.864124 	0.155604 	-4.47942e-20
2 	-1.31301 	-7.67892e-20 	0.8327 	0.171566 	2.65709e-20
2 	-1.25763 	-1.70425e-18 	0.905859 	0.261403 	1.61717e-20
2 	-1.17283 	-1.73472e-18 	0.881284 	0.287422 	-1.78671e-19
2 	-1.06955 	-1.73472e-18 	0.853804 	0.316601 	-1.82036e-20
2 	-0.970532 	-5.4922e-18 	0.82511 	0.347437 	2.42631e-19
2 	-0.87522 	-7.65064e-18 	0.800066 	0.377042 	-1.59285e-19
2 	-0.783133 	-9.02632e-18 	0.779807 	0.407509 	1.22917e-19
2 	-0.693839 	-1.07109e-17 	0.759266 	0.44353 	-9.7644e-20
2 	-0.606949 	-5.29218e-19 	0.731015 	0.486031 	-1.82488e-19
2 	-0.548396 	3.17165e-19 	0.690767 	0.531291 	4.75274e-20
2 	-0.506446 	6.99514e-19 	0.790684 	0.575823 	1.41496e-19
2 	-0.438991 	-3.46945e-18 	0.768502 	0.600986 	1.6938e-19
2 	-0.357296 	-9.36751e-18 	0.743133 	0.627559 	-8.48642e-20
2 	-0.276742 	-1.11022e-17 	0.709293 	0.655283 	-1.33863e-19
2 	-0.197059 	-9.71445e-18 	0.665157 	0.682526 	1.21301e-19
2 	-0.117992 	-1.00614e-17 	0.613266 	0.707661 	1.19456e-19
2 	-0.03929 	-1.38778e-17 	0.558656 	0.729966 	-5.03502e-20
2 	0.03929 	-1.76942e-17 	0.505439 	0.749215 	-5.38322e-20
2 	0.117992 	-1.94289e-17 	0.454193 	0.76458 	1.19238e-19
2 	0.197059 	-1.94289e-17 	0.402815 	0.774007 	1.07613e-19
2 	0.276742 	-1.76942e-17 	0.350352 	0.774751 	-1.35835e-19
2 	0.357296 	-1.94289e-17 	0.299006 	0.764685 	-1.6848e-19
2 	0.438991 	-2.60209e-17 	0.252648 	0.742861 	2.17861e-19
2 	0.506446 	-3.01898e-17 	0.216959 	0.708559 	1.49546e-19
2 	0.548396 	-3.30008e-17 	0.58444 	0.43467 	8.10952e-20
2 	0.606949 	-3.17542e-17 	0.68683 	0.376338 	8.80336e-20
2 	0.693839 	-2.4504e-17 	0.799856 	0.32018 	-1.74115e-19
2 	0.783133 	-8.73122e-19 	0.915161 	0.271735 	1.5359e-19
2 	0.87522 	-2.48984e-18 	1.02162 	0.234166 	-4.15111e-19
2 	0.970532 	-1.37223e-18 	1.10871 	0.20746 	4.69933e-19
2 	1.06955 	0 	1.17009 	0.18989 	-7.25568e-20
2 	1.17283 	-1.73472e-18 	1.20405 	0.178521 	-3.36214e-19
2 	1.25763 	-3.49992e-18 	1.21328 	0.169456 	6.24018e-20
2 	1.31301 	-7.77052e-18 	1.24514 	0.0290713 	7.71672e-20
2 	1.39472 	-1.17746e-17 	1.2237 	0.0386173 	-1.1923e-19
2 	1.51488 	-1.06265e-17 	1.20144 	0.0455117 	-6.22519e-20
2 	1.64242 	-4.85723e-18 	1.18039 	0.0503215 	-3.82734e-20
2 	1.76525 	2.33536e-18 	1.16125 	0.0535069 	3.65153e-20
2 	1.83556 	6.42748e-18 	1.13713 	0.00100081 	-1.84151e-19
2 	1.92439 	8.10626e-18 	1.1246 	0.0101267 	9.71896e-20
2 	2.08179 	1.02591e-17 	1.11335 	0.0176151 	-1.03712e-19
2 	2.23181 	1.07221e-17 	1.10328 	0.0237936 	1.79983e-19
2 	2.32087 	1.12958e-17 	1.08313 	-0.00159547 	-5.66288e-20
2 	2.43934 	1.02882e-17 	1.07762 	0.00535941 	-7.6048e-20
2 	2.64488 	8.67362e-18 	1.07251 	0.0112326 	1.40623e-19
2 	2.75613 	8.75806e-18 	1.06778 	0.0162022 	7.82497e-21
2 	2.87636 	3.90084e-18 	1.05261 	0.00788103 	5.29456e-20
2 	3.10375 	3.36358e-18 	1.05007 	0.0128774 	-2.04398e-20
2 	3.23899 	4.6059e-18 	1.03899 	0.00709432 	-4.57614e-20
2 	3.41748 	5.48433e-19 	1.03794 	0.0110668 	-2.82459e-22
2 	3.62237 	-1.83309e-18 	1.03672 	0.0146082 	-1.86362e-20
2 	3.79935 	-2.87393e-18 	1.02806 	0.0135019 	-4.80684e-20
2 	4.03372 	-5.89806e-18 	1.02742 	0.0163263 	-2.29457e-20
2 	4.24028 	4.19272e-19 	1.02245 	0.0142487 	-3.12588e-20
2 	4.48132 	-7.04424e-19 	1.02211 	0.0162353 	9.35483e-22
2 	4.72636 	-3.62345e-19 	1.0174 	0.0165295 	2.03211e-20
2 	4.97537 	-1.80662e-18 	1.0171 	0.0180712 	-1.3256e-20
2 	5.51024 	-4.17665e-18 	1.01498 	0.0165492 	-4.76836e-22
2 	6.29305 	-6.0559e-18 	1.01139 	0.0191644 	-8.94776e-23
2 	7.08993 	-9.02056e-18 	1.01028 	0.0167297 	-1.92009e-22
2 	7.90114 	-8.32667e-18 	1.0094 	0.0169832 	5.01319e-22
2 	8.72694 	-4.51028e-18 	1.00866 	0.015593 	-5.8518e-23
2 	9.56759 	-4.51028e-18 	1.00826 	0.0149042 	2.81421e-22
