/*--------------------------------*- C++ -*----------------------------------*\
  =========                 |
  \\      /  F ield         | OpenFOAM: The Open Source CFD Toolbox
   \\    /   O peration     | Website:  https://openfoam.org
    \\  /    A nd           | Version:  7
     \\/     M anipulation  |
\*---------------------------------------------------------------------------*/
FoamFile
{
    version     2.0;
    format      ascii;
    class       volScalarField;
    location    "20";
    object      p;
}
// * * * * * * * * * * * * * * * * * * * * * * * * * * * * * * * * * * * * * //

dimensions      [0 2 -2 0 0 0 0];

internalField   nonuniform List<scalar> 
607
(
0.00618188
0.00621121
0.00626906
0.00634928
0.00646009
0.00658697
0.00675635
0.00692857
0.00716848
0.00738725
0.00771345
0.00798141
0.00842479
0.00873706
0.00933818
0.00969367
0.0104662
0.0109449
0.0118464
0.0125308
0.0135434
0.00618335
0.00621265
0.00627049
0.00635051
0.00646122
0.00658739
0.00675639
0.00692715
0.00716748
0.00738209
0.00771415
0.00797693
0.00842356
0.00873068
0.00933384
0.00968475
0.0104735
0.0109357
0.011846
0.0125267
0.0135493
0.00618478
0.00621402
0.00627185
0.00635171
0.00646249
0.00658833
0.00675786
0.00692786
0.00716915
0.0073831
0.00771379
0.00797334
0.0084254
0.00872633
0.0093411
0.00967756
0.0104764
0.0109321
0.0118562
0.0125272
0.0135733
0.00618618
0.00621537
0.00627319
0.00635291
0.00646377
0.00658924
0.00675911
0.00692815
0.00717043
0.00738207
0.00771602
0.00797141
0.00842826
0.00872594
0.00934462
0.00967118
0.0104887
0.0109266
0.0118685
0.012528
0.0135896
0.00618754
0.00621669
0.0062745
0.00635409
0.006465
0.00659009
0.00676026
0.00692834
0.00717161
0.00738118
0.00771753
0.00796886
0.00842997
0.00871136
0.0093493
0.00966485
0.0104914
0.0109205
0.0118698
0.0125283
0.0136151
0.00618886
0.00621797
0.00627578
0.00635523
0.00646621
0.00659092
0.00676141
0.00692856
0.00717282
0.00738036
0.0077191
0.00796632
0.00843228
0.00871013
0.00935355
0.0096589
0.0104973
0.0109122
0.0118831
0.0125269
0.0136276
0.00619015
0.00621922
0.00627703
0.00635634
0.00646739
0.00659173
0.00676254
0.00692878
0.00717404
0.00737952
0.00772075
0.0079638
0.00843488
0.00870471
0.00935741
0.00965142
0.0105032
0.0109112
0.0118936
0.0125253
0.0136492
0.0061914
0.00622044
0.00627825
0.00635743
0.00646855
0.00659252
0.00676366
0.00692898
0.00717525
0.00737869
0.00772244
0.00796127
0.00843756
0.0086999
0.00936142
0.00964361
0.0105086
0.0108964
0.0119052
0.0125241
0.0136676
0.00619262
0.00622162
0.00627943
0.00635849
0.00646968
0.0065933
0.00676476
0.00692918
0.00717647
0.00737786
0.00772417
0.00795872
0.0084404
0.00869504
0.00936586
0.00963854
0.0105147
0.0108962
0.011916
0.0125225
0.0136876
0.0061938
0.00622277
0.00628058
0.00635951
0.00647078
0.00659405
0.00676584
0.00692937
0.00717768
0.00737703
0.00772594
0.00795616
0.00844338
0.00869015
0.00937059
0.00963186
0.0105212
0.0108877
0.0119261
0.0125208
0.0137066
0.00619495
0.00622388
0.0062817
0.00636051
0.00647185
0.00659478
0.0067669
0.00692955
0.00717889
0.00737621
0.00772774
0.0079536
0.00844646
0.00868524
0.00937548
0.00962559
0.0105277
0.0108824
0.0119363
0.0125196
0.0137262
0.00619605
0.00622495
0.00628278
0.00636147
0.00647289
0.00659548
0.00676794
0.00692972
0.00718009
0.00737538
0.00772957
0.00795103
0.00844965
0.00868031
0.00938056
0.00961917
0.0105345
0.0108759
0.0119463
0.0125152
0.0137453
0.00619713
0.006226
0.00628383
0.00636241
0.0064739
0.00659617
0.00676895
0.00692989
0.00718128
0.00737456
0.00773143
0.00794846
0.00845294
0.00867538
0.00938577
0.00961276
0.0105414
0.0108698
0.0119557
0.0125213
0.0137649
0.00619816
0.006227
0.00628484
0.00636331
0.00647488
0.00659683
0.00676994
0.00693004
0.00718246
0.00737375
0.0077333
0.0079459
0.0084563
0.00867045
0.00939109
0.00960635
0.0105485
0.0108635
0.0119646
0.0125015
0.0137844
0.00619916
0.00622797
0.00628582
0.00636419
0.00647583
0.00659747
0.00677091
0.00693019
0.00718363
0.00737293
0.00773518
0.00794333
0.00845972
0.00866554
0.00939651
0.00959996
0.0105556
0.0108573
0.0119743
0.012506
0.0138027
0.00620012
0.00622891
0.00628676
0.00636503
0.00647675
0.00659808
0.00677184
0.00693032
0.00718478
0.00737212
0.00773707
0.00794078
0.00846319
0.00866064
0.00940199
0.0095936
0.0105628
0.0108511
0.0119843
0.0124999
0.0138199
0.0146052
0.00620104
0.0062298
0.00628767
0.00636584
0.00647764
0.00659868
0.00677275
0.00693045
0.00718591
0.00737132
0.00773896
0.00793824
0.00846669
0.00865578
0.0094075
0.0095873
0.01057
0.0108449
0.0119942
0.0124973
0.0138366
0.0146118
0.00620192
0.00623067
0.00628855
0.00636662
0.00647849
0.00659925
0.00677364
0.00693056
0.00718702
0.00737052
0.00774085
0.00793572
0.00847021
0.00865097
0.00941302
0.00958108
0.0105772
0.0108388
0.0120042
0.0124938
0.0138524
0.014621
0.00620277
0.00623149
0.00628938
0.00636736
0.00647931
0.00659979
0.00677449
0.00693067
0.00718811
0.00736973
0.00774272
0.00793323
0.00847373
0.00864622
0.00941853
0.00957494
0.0105843
0.0108328
0.0120141
0.0124905
0.0138675
0.0146235
0.00620358
0.00623228
0.00629018
0.00636808
0.0064801
0.00660031
0.00677531
0.00693077
0.00718917
0.00736895
0.00774457
0.00793077
0.00847724
0.00864155
0.009424
0.00956891
0.0105914
0.0108269
0.0120239
0.0124872
0.0138817
0.0146391
0.00620435
0.00623303
0.00629094
0.00636876
0.00648085
0.00660081
0.0067761
0.00693086
0.0071902
0.00736819
0.0077464
0.00792836
0.00848072
0.00863696
0.00942941
0.009563
0.0105984
0.0108211
0.0120335
0.0124841
0.0138943
0.0146329
0.00620509
0.00623375
0.00629167
0.0063694
0.00648157
0.00660128
0.00677686
0.00693094
0.0071912
0.00736744
0.00774819
0.007926
0.00848415
0.00863249
0.00943473
0.00955724
0.0106053
0.0108154
0.0120429
0.0124811
0.0139074
0.0146475
0.00620578
0.00623443
0.00629236
0.00637002
0.00648225
0.00660173
0.00677758
0.00693102
0.00719216
0.00736671
0.00774995
0.00792369
0.00848751
0.00862813
0.00943994
0.00955164
0.010612
0.0108098
0.012052
0.0124782
0.0139201
0.0146484
0.00620644
0.00623507
0.00629301
0.0063706
0.00648289
0.00660215
0.00677827
0.00693108
0.00719309
0.007366
0.00775166
0.00792145
0.0084908
0.00862391
0.00944502
0.00954622
0.0106186
0.0108045
0.0120609
0.0124755
0.0139321
0.0146562
0.00620706
0.00623567
0.00629363
0.00637115
0.00648351
0.00660255
0.00677892
0.00693114
0.00719398
0.00736531
0.00775331
0.00791929
0.008494
0.00861984
0.00944993
0.009541
0.0106249
0.0107993
0.0120693
0.0124729
0.0139436
0.0146605
0.00620764
0.00623624
0.00629421
0.00637166
0.00648408
0.00660292
0.00677954
0.00693119
0.00719483
0.00736464
0.0077549
0.00791721
0.00849708
0.00861593
0.00945466
0.009536
0.010631
0.0107944
0.0120774
0.0124704
0.0139544
0.014666
0.0120851
0.0124681
0.0139646
0.0146708
0.010632
0.0112918
0.0119797
0.0126756
0.0061723
0.00620133
0.00625815
0.00633744
0.00644551
0.00657112
0.00673455
0.00690647
0.00713445
0.00735615
0.00766172
0.00793779
0.00833985
0.00867005
0.00920407
0.00959163
0.0102603
0.010768
0.0115151
0.0122147
0.0130151
0.00617837
0.00620767
0.00626528
0.0063454
0.00645525
0.00658198
0.00674873
0.00692146
0.00715634
0.0073767
0.00769609
0.00797193
0.00839427
0.00872617
0.00928964
0.00967231
0.0104032
0.0109071
0.0117316
0.0124564
0.0133623
)
;

boundaryField
{
    inlet
    {
        type            zeroGradient;
    }
    outlet
    {
        type            fixedValue;
        value           nonuniform 0();
    }
    cylinder
    {
        type            zeroGradient;
    }
    top
    {
        type            symmetryPlane;
    }
    bottom
    {
        type            symmetryPlane;
    }
    defaultFaces
    {
        type            empty;
    }
    procBoundary16to8
    {
        type            processor;
        value           nonuniform List<scalar> 
22
(
0.0104779
0.0110645
0.0117169
0.0123251
0.00616558
0.0061943
0.00625032
0.0063288
0.00643502
0.00655952
0.00671923
0.00689019
0.00711105
0.00733284
0.00762427
0.00790399
0.0082802
0.00862166
0.0091087
0.00951231
0.0101146
0.0101146
)
;
    }
    procBoundary16to17
    {
        type            processor;
        value           nonuniform List<scalar> 
30
(
0.0144428
0.0144514
0.0144675
0.014483
0.014498
0.0145131
0.0145266
0.0145382
0.0145489
0.0145583
0.0145656
0.0145735
0.0145816
0.0145896
0.0145973
0.0145973
0.0161931
0.0162245
0.0162551
0.016284
0.0163123
0.0163397
0.0163648
0.0163879
0.0164097
0.0164297
0.0164483
0.0134719
0.0138832
0.0142813
)
;
    }
    procBoundary16to24
    {
        type            processor;
        value           nonuniform List<scalar> 
23
(
0.00620819
0.00623677
0.00629475
0.00637214
0.00648462
0.00660327
0.00678012
0.00693124
0.00719563
0.00736401
0.00775642
0.00791522
0.00850004
0.00861221
0.00945919
0.00953124
0.0106369
0.0107897
0.0107897
0.0120924
0.012466
0.0139741
0.0146755
)
;
    }
    procBoundary16to25
    {
        type            processor;
        value           uniform 0.0164653;
    }
}


// ************************************************************************* //
