/*--------------------------------*- C++ -*----------------------------------*\
  =========                 |
  \\      /  F ield         | OpenFOAM: The Open Source CFD Toolbox
   \\    /   O peration     | Website:  https://openfoam.org
    \\  /    A nd           | Version:  7
     \\/     M anipulation  |
\*---------------------------------------------------------------------------*/
FoamFile
{
    version     2.0;
    format      ascii;
    class       surfaceScalarField;
    location    "79";
    object      phi;
}
// * * * * * * * * * * * * * * * * * * * * * * * * * * * * * * * * * * * * * //

dimensions      [0 3 -1 0 0 0 0];

internalField   nonuniform List<scalar> 
82640
(
-8.70888e-05
-0.00153088
0.00161797
-0.000196119
-0.00154253
0.00165156
-0.000322145
-0.00119751
0.00132354
-0.000441642
-0.00044214
0.000561638
-0.000544085
0.000865053
-0.00076261
-0.000606135
0.00274956
-0.00268751
-0.000625802
0.00487061
-0.00485095
-0.000603861
0.00677099
-0.00679293
-0.000515483
0.00793601
-0.00802439
-0.0003051
0.00779524
-0.00800562
6.74606e-05
0.00592058
-0.00629314
0.000591058
0.00247574
-0.00299933
0.00119926
-0.00167088
0.00106268
0.00179727
-0.00556266
0.00496466
0.00229272
-0.00855199
0.00805654
0.00261261
-0.0104941
0.0101742
0.00262955
-0.0115447
0.0115277
0.00235953
-0.012509
0.012779
0.00232523
-0.0123212
0.0123555
0.00287378
-0.0095025
0.00895394
0.00382384
-0.00417936
0.0032293
0.00486876
0.00197403
-0.00301895
0.00582755
0.00700928
-0.00796806
0.00656281
0.0102312
-0.0109665
0.0123026
-0.0124813
0.0067415
-8.93241e-05
-0.00144155
-0.000200013
-0.00143184
-0.000326546
-0.00107098
-0.00044502
-0.000323666
-0.000544646
0.000964679
-0.000600401
0.00280532
-0.000605746
0.00487596
-0.000555604
0.00672085
-0.000424109
0.00780452
-0.000165644
0.00753677
0.00024875
0.00550619
0.000798851
0.00192564
0.0014222
-0.00229424
0.00201949
-0.00615994
0.00249709
-0.0090296
0.00280983
-0.0108068
0.00284969
-0.0115845
0.00255348
-0.0122128
0.00236797
-0.0121357
0.00275148
-0.009886
0.00360235
-0.00503023
0.00463601
0.000940369
0.00566341
0.00598188
0.00640883
0.0094858
0.0121508
0.00656062
-9.11806e-05
-0.00135037
-0.000202752
-0.00132027
-0.00032849
-0.00094524
-0.000443872
-0.000208284
-0.000537626
0.00105843
-0.000582992
0.00285068
-0.00056925
0.00486222
-0.000486572
0.00663817
-0.000309983
0.00762793
-8.4903e-06
0.00723528
0.000449343
0.00504835
0.00102662
0.00134836
0.001664
-0.00293162
0.00225886
-0.00675481
0.00271783
-0.00948856
0.00301422
-0.0111032
0.00307846
-0.0116488
0.00279452
-0.0119289
0.00248724
-0.0118284
0.00270133
-0.0101001
0.00345789
-0.00578679
0.00448497
-8.67185e-05
0.0055546
0.00491226
0.00627871
0.00876169
0.0120089
0.00642065
-9.26709e-05
-0.0012577
-0.000204379
-0.00120856
-0.000328076
-0.000821543
-0.000438397
-9.79624e-05
-0.000523401
0.00114344
-0.000554603
0.00288188
-0.000517561
0.00482517
-0.000398822
0.00651943
-0.000176135
0.00740524
0.000176955
0.00688219
0.000667794
0.00455751
0.00127277
0.000743385
0.00192238
-0.00358123
0.00251154
-0.00734396
0.00295202
-0.00992904
0.00322566
-0.0113768
0.00330795
-0.011731
0.00306684
-0.0116878
0.00267917
-0.0114407
0.00272673
-0.0101477
0.00338638
-0.00644644
0.00440315
-0.00110349
0.00548479
0.00383062
0.00617097
0.0080755
0.0118495
0.00633035
-9.3812e-05
-0.00116389
-0.000204948
-0.00109743
-0.00032543
-0.000701061
-0.00042885
5.45722e-06
-0.000502446
0.00121703
-0.000516084
0.00289552
-0.000452113
0.0047612
-0.000294539
0.00636186
-2.70975e-05
0.0071378
0.00037437
0.00648072
0.000901879
0.00403
0.00153503
0.000110233
0.00219447
-0.00424066
0.00277351
-0.007923
0.00319501
-0.0103505
0.00344348
-0.0116253
0.00353319
-0.0118208
0.00335336
-0.0115079
0.00293536
-0.0110227
0.0028282
-0.0100405
0.00337124
-0.00698948
0.00435826
-0.00209051
0.00543205
0.00275683
0.00608302
0.00742453
0.0116366
0.00629591
-9.46249e-05
-0.00106927
-0.000204524
-0.000987529
-0.000320702
-0.000584883
-0.00041553
0.000100285
-0.000475317
0.00127682
-0.000468404
0.00288861
-0.000374472
0.00466727
-0.000176059
0.00616345
0.000140848
0.00682089
0.000584524
0.00603705
0.00114932
0.00346521
0.00181026
-0.000550702
0.00247655
-0.00490695
0.00304082
-0.00848728
0.00344137
-0.0107511
0.00366567
-0.0118496
0.00375215
-0.0119072
0.00363812
-0.0113939
0.00324174
-0.0106264
0.00300638
-0.00980514
0.00339724
-0.00738034
0.00432139
-0.00301465
0.00537822
0.0017
0.00601382
0.00678893
0.0113289
0.00632154
-9.51341e-05
-0.000974131
-0.000203181
-0.000879482
-0.000314062
-0.000474002
-0.000398777
0.000184999
-0.000442633
0.00132068
-0.000412622
0.0028586
-0.00028629
0.00454094
-4.61622e-05
0.00592332
0.000318663
0.00645607
0.000804823
0.00555089
0.00140735
0.00286268
0.00209494
-0.0012383
0.00276421
-0.00557622
0.00330946
-0.00903253
0.00368583
-0.0111275
0.00388867
-0.0120524
0.00396479
-0.0119834
0.00390867
-0.0113378
0.00357825
-0.0102959
0.00326116
-0.00948805
0.00346789
-0.00758707
0.00428423
-0.003831
0.00531814
0.000666093
0.00596581
0.00614126
0.0108844
0.00641027
-9.53666e-05
-0.000878765
-0.000200999
-0.000773849
-0.000305694
-0.000369307
-0.000378961
0.000258266
-0.000405068
0.00134678
-0.000349867
0.0028034
-0.000189292
0.00438036
9.4258e-05
0.00563977
0.000504694
0.00604563
0.00103247
0.00502311
0.00167298
0.00222217
0.00238502
-0.00195034
0.00305264
-0.00624384
0.00357511
-0.00955499
0.00392383
-0.0114762
0.00410774
-0.0122363
0.00417169
-0.0120473
0.00415782
-0.0113239
0.00392123
-0.0100593
0.00358524
-0.00915205
0.00360347
-0.00760531
0.00426786
-0.00449539
0.00526352
-0.000329566
0.00594476
0.00546002
0.0102655
0.00656373
-9.53514e-05
-0.000783413
-0.000198066
-0.000671135
-0.000295793
-0.00027158
-0.000356475
0.000318948
-0.00036333
0.00135364
-0.000281308
0.00272138
-8.51561e-05
0.00418421
0.000241493
0.00531312
0.000696163
0.00559096
0.00126455
0.00445472
0.00194294
0.00154379
0.00267631
-0.00268371
0.00333704
-0.00690457
0.00383322
-0.0100512
0.00415165
-0.0117946
0.00431787
-0.0124026
0.00437261
-0.0121021
0.00438383
-0.0113351
0.00424819
-0.00992369
0.00395938
-0.00886324
0.00382632
-0.00747225
0.0043123
-0.00498136
0.00523946
-0.00125672
0.00595847
0.00474101
0.00944122
0.00678271
-9.51189e-05
-0.000688294
-0.000194467
-0.000571787
-0.000284561
-0.000181486
-0.000331722
0.00036611
-0.000318148
0.00134006
-0.000208141
0.00261137
2.41561e-05
0.00395192
0.000393357
0.00494392
0.000890107
0.00509421
0.00149812
0.00384671
0.00221387
0.000828033
0.00296454
-0.00343437
0.00361282
-0.00755286
0.00407931
-0.0105176
0.0043662
-0.0120815
0.00451482
-0.0125512
0.00456567
-0.0121529
0.00458922
-0.0113587
0.00454299
-0.00987746
0.00435365
-0.0086739
0.00414473
-0.00726334
0.00445915
-0.00529579
0.00527117
-0.00206874
0.00601652
0.00399565
0.0083904
0.00706734
-9.46997e-05
-0.000593595
-0.000190293
-0.000476194
-0.000272195
-9.95846e-05
-0.000305104
0.000399019
-0.00027025
0.00130521
-0.00013155
0.00247267
0.000136726
0.00368364
0.00054737
0.00453327
0.00108354
0.00455804
0.00173036
0.00319989
0.00248254
7.58468e-05
0.00324552
-0.00419735
0.00387571
-0.00818305
0.00430936
-0.0109513
0.0045648
-0.0123369
0.00469571
-0.0126821
0.00474749
-0.0122047
0.00477818
-0.0113894
0.0047994
-0.00989868
0.0047341
-0.0086086
0.00454212
-0.00707135
0.00472842
-0.00548209
0.00537839
-0.00271871
0.00613364
0.0032404
0.00710276
0.00742128
-9.41242e-05
-0.00049947
-0.000185627
-0.000384691
-0.000258885
-2.63261e-05
-0.000277007
0.000417141
-0.00022034
0.00124854
-5.25682e-05
0.0023049
0.00025123
0.00337984
0.000700975
0.00408353
0.00127364
0.00398538
0.0019589
0.00251463
0.00274602
-0.000711273
0.00351533
-0.00496666
0.00412181
-0.00878953
0.00452007
-0.0113496
0.00474511
-0.012562
0.00485911
-0.0127961
0.00491443
-0.01226
0.00495382
-0.0114288
0.00502073
-0.00996559
0.00507231
-0.00866019
0.00497849
-0.00697752
0.00510681
-0.00561041
0.00557279
-0.00318469
0.00633552
0.00247767
0.0055834
0.00785487
-9.34213e-05
-0.000406049
-0.000180549
-0.000297564
-0.000244806
3.79307e-05
-0.000247785
0.00042012
-0.00016907
0.00116983
2.72701e-05
0.00210856
0.000365818
0.00304129
0.000851657
0.00359769
0.00145802
0.00337901
0.00218214
0.00179051
0.00300177
-0.0015309
0.00377044
-0.00573532
0.00434773
-0.00936681
0.00470896
-0.0117108
0.0049053
-0.0127583
0.00500445
-0.0128953
0.00506406
-0.0123196
0.00511663
-0.0114813
0.00521561
-0.0100646
0.00535437
-0.00879895
0.00540288
-0.00702604
0.00554908
-0.00575661
0.00586201
-0.00349761
0.00666221
0.00167746
0.00386399
0.00838163
-9.26177e-05
-0.000313431
-0.000175129
-0.000215052
-0.000230102
9.29041e-05
-0.000217734
0.000407751
-0.00011699
0.00106908
0.000107224
0.00188434
0.000478904
0.00266961
0.000997188
0.00307941
0.00163525
0.00274095
0.00239941
0.00102634
0.00324769
-0.00237918
0.00400767
-0.0064953
0.00455068
-0.00990982
0.00487432
-0.0120344
0.00504429
-0.0129283
0.00513154
-0.0129825
0.00519584
-0.0123839
0.00526502
-0.0115505
0.00539164
-0.0101912
0.00558359
-0.0089909
0.00577282
-0.00721526
0.00599287
-0.00597666
0.00624801
-0.00375275
0.00715219
0.000773275
0.00201182
0.00900436
-9.17374e-05
-0.000221694
-0.000169425
-0.000137365
-0.000214885
0.000138364
-0.00018707
0.000379935
-6.44697e-05
0.000946484
0.000186749
0.00163312
0.000589165
0.0022672
0.00113605
0.00253252
0.00180535
0.00207165
0.00261106
0.000220632
0.00348192
-0.00325003
0.00422425
-0.00723764
0.00472857
-0.0104141
0.00501523
-0.0123211
0.00516183
-0.0130749
0.00524043
-0.0130611
0.00531056
-0.012454
0.00539732
-0.0116373
0.0055515
-0.0103454
0.00577409
-0.00921349
0.00607054
-0.00751171
0.0063821
-0.00628822
0.00671091
-0.00408156
0.0077924
-0.00030822
0.000124317
0.00967991
-9.08003e-05
-0.000130894
-0.00016348
-6.46849e-05
-0.000199219
0.000174103
-0.000155901
0.000336617
-1.12187e-05
0.000801802
0.000265358
0.00135655
0.000695785
0.00183677
0.00126802
0.00196028
0.00197013
0.00136954
0.00281808
-0.000627311
0.00370253
-0.00413448
0.00441773
-0.00795284
0.00488007
-0.0108765
0.00513151
-0.0125725
0.00525834
-0.0132017
0.0053316
-0.0131344
0.00540936
-0.0125318
0.00551324
-0.0117412
0.00569413
-0.0105263
0.00593945
-0.0094588
0.00630334
-0.00787561
0.00669304
-0.00667792
0.00719561
-0.00458413
0.0084691
-0.00158172
-0.00169489
0.0102883
-8.98219e-05
-4.10717e-05
-0.000157318
2.8112e-06
-0.000183108
0.000199893
-0.000124205
0.000277714
4.09416e-05
0.000636656
0.000343104
0.00105439
0.000798816
0.00138106
0.00139476
0.00136434
0.00213312
0.000631185
0.0030213
-0.0015155
0.00390727
-0.00502045
0.00458607
-0.00863165
0.00500458
-0.011295
0.0052237
-0.0127916
0.0053348
-0.0133128
0.00540603
-0.0132056
0.0054932
-0.012619
0.00561366
-0.0118616
0.00581843
-0.010731
0.00608618
-0.00972655
0.00648961
-0.00827903
0.00693872
-0.00712704
0.00762634
-0.00527175
0.0090144
-0.00296977
-0.00336772
0.0106872
-8.88125e-05
4.77409e-05
-0.000150941
6.494e-05
-0.000166489
0.000215441
-9.17838e-05
0.000203008
9.43141e-05
0.000450558
0.000420655
0.000728044
0.000899549
0.000902166
0.00151999
0.000743904
0.00229858
-0.000147412
0.00322055
-0.00243747
0.00409345
-0.00589335
0.00472774
-0.00926593
0.00510232
-0.0116696
0.00529299
-0.0129823
0.0053926
-0.0134124
0.00546503
-0.013278
0.00556298
-0.0127169
0.00569979
-0.0119984
0.00592507
-0.0109563
0.00621525
-0.0100167
0.00664466
-0.00870845
0.00714426
-0.00762664
0.00795195
-0.00607944
0.00933005
-0.00434786
-0.00486176
0.0108241
-8.77767e-05
0.000135518
-0.000144329
0.000121492
-0.000149223
0.000220335
-5.82563e-05
0.000112041
0.000149162
0.00024314
0.000499343
0.000377863
0.00100073
0.000400779
0.00164899
9.5644e-05
0.00247007
-0.000968493
0.0034138
-0.0033812
0.00425809
-0.00673763
0.00484186
-0.00984971
0.00517426
-0.012002
0.0053411
-0.0131492
0.00543342
-0.0135047
0.00551004
-0.0133546
0.00561969
-0.0128266
0.0057727
-0.0121514
0.00601571
-0.0111993
0.00632668
-0.0103277
0.0067759
-0.00915767
0.00731846
-0.0081692
0.0081647
-0.00692568
0.00944732
-0.00563048
-0.00618547
0.010771
-8.6713e-05
0.000222231
-0.000137435
0.000172214
-0.00013109
0.00021399
-2.30199e-05
3.97165e-06
0.000206581
1.3539e-05
0.000581166
3.278e-06
0.00110633
-0.00012439
0.00178721
-0.00058523
0.00264865
-0.00182993
0.00359707
-0.00432962
0.00439831
-0.00753887
0.00492841
-0.0103798
0.00522205
-0.0122956
0.00537011
-0.0132972
0.00545913
-0.0135938
0.00554248
-0.013438
0.00566442
-0.0129485
0.00583328
-0.0123203
0.00609188
-0.0114579
0.0064212
-0.010657
0.00688523
-0.0096217
0.00745748
-0.00874145
0.00829092
-0.00775911
0.00945677
-0.00679633
-0.00736449
0.0106358
-8.56136e-05
0.000307844
-0.000130185
0.000216785
-0.000111787
0.000195593
1.45733e-05
-0.000122389
0.000268005
-0.000239893
0.000668618
-0.000397335
0.00122077
-0.000676547
0.00193831
-0.00130277
0.00283182
-0.00272344
0.00376509
-0.00526289
0.00451194
-0.00828572
0.00498828
-0.0108562
0.00524794
-0.0125553
0.00538231
-0.0134316
0.0054716
-0.0136831
0.00556372
-0.0135301
0.00569825
-0.013083
0.00588237
-0.0125044
0.00615468
-0.0117302
0.00649962
-0.011002
0.00697327
-0.0100953
0.00756076
-0.00932894
0.00836275
-0.00856111
0.00942282
-0.00785641
-0.00842457
0.0104829
-8.44644e-05
0.000392309
-0.000122479
0.000254799
-9.09376e-05
0.000164052
5.54844e-05
-0.000268811
0.000335037
-0.000519445
0.000764315
-0.000826613
0.00134763
-0.00125986
0.00210252
-0.00205766
0.00301369
-0.00363462
0.00391244
-0.00616164
0.00459796
-0.00897123
0.00502328
-0.0112815
0.00525453
-0.0127865
0.00538004
-0.0135571
0.00547264
-0.0137757
0.00557503
-0.0136325
0.00572217
-0.0132302
0.0059207
-0.012703
0.00620501
-0.0120145
0.00656263
-0.0113596
0.0070414
-0.0105741
0.00763301
-0.00992055
0.00840011
-0.0093282
0.00937005
-0.00882635
-0.00938731
0.0103328
-8.3245e-05
0.000475554
-0.000114191
0.000285745
-6.80951e-05
0.000117956
0.000100713
-0.000437619
0.000409241
-0.000827973
0.000870424
-0.0012878
0.00148829
-0.00187772
0.00227603
-0.0028454
0.0031864
-0.00454498
0.00403485
-0.00701009
0.00465673
-0.00959312
0.00503592
-0.0116607
0.00524461
-0.0129952
0.00536558
-0.013678
0.00546392
-0.013874
0.00557751
-0.0137461
0.00573703
-0.0133897
0.00594898
-0.0129149
0.00624361
-0.0123092
0.00661099
-0.011727
0.00709144
-0.0110546
0.00767965
-0.0105088
0.00841236
-0.0100609
0.00930558
-0.00971957
-0.0102702
0.0101885
-8.1929e-05
0.000557483
-0.000105168
0.000308984
-4.27589e-05
5.55471e-05
0.000151219
-0.000631597
0.000491892
-0.00116865
0.000988019
-0.00178392
0.00164116
-0.00253087
0.00245175
-0.00365599
0.00334213
-0.00543537
0.00412993
-0.00779789
0.00468997
-0.0101531
0.00502919
-0.0119999
0.00522094
-0.013187
0.00534099
-0.0137981
0.00544686
-0.0139799
0.00557215
-0.0138714
0.00574357
-0.0135611
0.00596782
-0.0131392
0.00627114
-0.0126125
0.0066456
-0.0121014
0.0071251
-0.0115341
0.00770496
-0.0110886
0.00840473
-0.0107607
0.00923258
-0.0105474
-0.0110872
0.0100496
-8.04845e-05
0.000637967
-9.52349e-05
0.000323734
-1.43342e-05
-2.53536e-05
0.000207865
-0.000853797
0.000583705
-0.00154448
0.00111656
-0.00231678
0.00180171
-0.00321601
0.00262112
-0.0044754
0.00347491
-0.00628915
0.00419744
-0.00852043
0.00470034
-0.010656
0.00500622
-0.0123058
0.00518608
-0.0133668
0.0053081
-0.0139201
0.00542272
-0.0140945
0.00555976
-0.0140084
0.00574245
-0.0137438
0.00597776
-0.0133745
0.00628821
-0.0129229
0.00666739
-0.0124806
0.00714393
-0.0120106
0.00771221
-0.0116569
0.00838094
-0.0114294
0.00915304
-0.0113195
-0.0118491
0.00991491
-7.88742e-05
0.000716841
-8.41957e-05
0.000329056
1.74315e-05
-0.000126981
0.000271282
-0.00110765
0.000684603
-0.00195781
0.0012537
-0.00288588
0.00196344
-0.00392576
0.00277622
-0.00528818
0.00358146
-0.0070944
0.00423894
-0.0091779
0.00469111
-0.0111082
0.00497008
-0.0125847
0.00514231
-0.0135391
0.00526844
-0.0140463
0.00539251
-0.0142186
0.00554103
-0.0141569
0.0057342
-0.013937
0.00597933
-0.0136196
0.00629537
-0.013239
0.0066773
-0.0128625
0.0071493
-0.0124826
0.00770401
-0.0122116
0.0083438
-0.0120692
0.00906822
-0.0120439
-0.0125643
0.00978343
-7.7056e-05
0.000793897
-7.18349e-05
0.000323835
5.3156e-05
-0.000251972
0.000341758
-0.00139625
0.000793569
-0.00240962
0.00139553
-0.00348783
0.00211934
-0.00464957
0.00291117
-0.00608002
0.00366115
-0.00784437
0.00425719
-0.00977394
0.00466566
-0.0115167
0.0049235
-0.0128426
0.00509154
-0.0137071
0.00522326
-0.014178
0.00535705
-0.0143523
0.00551653
-0.0143164
0.00571929
-0.0141397
0.00597297
-0.0138733
0.00629316
-0.0135592
0.00667626
-0.0132456
0.00714244
-0.0129488
0.00768243
-0.0127516
0.0082955
-0.0126823
0.00897891
-0.0127273
-0.0132396
0.00965417
-7.49828e-05
0.00086888
-5.79206e-05
0.000306772
9.33082e-05
-0.0004032
0.000419138
-0.00172208
0.00090864
-0.00289912
0.00153724
-0.00411644
0.00226322
-0.00537554
0.00302282
-0.00683961
0.00371539
-0.00853694
0.00425556
-0.0103141
0.0046272
-0.0118883
0.00486887
-0.0130842
0.00503536
-0.0138736
0.00517358
-0.0143162
0.00531699
-0.0144957
0.00548673
-0.0144862
0.00569815
-0.0143512
0.00595908
-0.0141342
0.00628214
-0.0138822
0.00666511
-0.0136286
0.0071244
-0.0134081
0.00764917
-0.0132764
0.00823779
-0.0132709
0.0088856
-0.0133752
-0.0138802
0.00952623
-7.26028e-05
0.000941483
-4.2209e-05
0.000276379
0.000138122
-0.000583532
0.000502766
-0.00208672
0.00102708
-0.00342344
0.00167396
-0.00476331
0.00239061
-0.0060922
0.00311041
-0.00755941
0.0037468
-0.00917333
0.00423749
-0.0108048
0.00457857
-0.0122294
0.00480815
-0.0133138
0.004975
-0.0140405
0.00512018
-0.0144614
0.00527284
-0.0146484
0.005452
-0.0146653
0.00567111
-0.0145703
0.00593807
-0.0144012
0.00626284
-0.014207
0.00664465
-0.0140104
0.00709612
-0.0138595
0.00760571
-0.013786
0.00817202
-0.0138372
0.00878855
-0.0139917
-0.0144905
0.00939883
-6.98588e-05
0.00101134
-2.44531e-05
0.000230973
0.000187704
-0.000795689
0.000591481
-0.0024905
0.00114571
-0.00397767
0.00180141
-0.00541901
0.00249902
-0.00678982
0.00317501
-0.0082354
0.00375856
-0.00975688
0.00420617
-0.0112524
0.00452218
-0.0125454
0.0047429
-0.0135345
0.00491144
-0.014209
0.00506364
-0.0146136
0.00522501
-0.0148098
0.00541267
-0.014853
0.0056385
-0.0147961
0.00591029
-0.014673
0.0062358
-0.0145325
0.00661552
-0.0143901
0.00705843
-0.0143025
0.00755328
-0.0142808
0.00809921
-0.0143831
0.00868787
-0.0145803
-0.0150739
0.00927127
-6.66869e-05
0.00107803
-4.47504e-06
0.000168761
0.000241961
-0.00104212
0.000683675
-0.00293221
0.0012613
-0.00455529
0.00191645
-0.00607416
0.00258771
-0.00746107
0.00321871
-0.0088664
0.00375387
-0.010292
0.00416443
-0.011663
0.00445997
-0.012841
0.00467432
-0.0137489
0.00484538
-0.0143801
0.00500442
-0.0147726
0.00517381
-0.0149792
0.00536902
-0.0150482
0.00560059
-0.0150277
0.0058761
-0.0149485
0.00620149
-0.0148579
0.00657834
-0.014767
0.00701215
-0.0147363
0.00749297
-0.0147616
0.00802009
-0.0149102
0.00858358
-0.0151438
-0.0156334
0.00914303
-6.30146e-05
0.00114104
1.8207e-05
8.75396e-05
0.000300569
-0.00132449
0.000777428
-0.00340907
0.00137093
-0.00514879
0.00201716
-0.00672039
0.00265722
-0.00810114
0.00324407
-0.00945325
0.0037357
-0.0107837
0.00411459
-0.0120419
0.00439348
-0.0131199
0.00460335
-0.0139588
0.00477736
-0.0145541
0.00494284
-0.0149381
0.00511948
-0.0151558
0.00532128
-0.01525
0.00555765
-0.015264
0.00583586
-0.0152267
0.00616039
-0.0151824
0.00653363
-0.0151402
0.00695803
-0.0151607
0.00742562
-0.0152292
0.00793514
-0.0154198
0.00847572
-0.0156844
-0.0161713
0.00901369
-5.87591e-05
0.0011998
4.35573e-05
-1.47769e-05
0.000362961
-0.00164389
0.000870683
-0.0039168
0.00147227
-0.00575038
0.00210272
-0.00735084
0.00270893
-0.00870735
0.00325372
-0.00999803
0.00370663
-0.0112366
0.00405858
-0.0123938
0.0043239
-0.0133852
0.00453065
-0.0141655
0.00470777
-0.0147312
0.00487915
-0.0151095
0.00506222
-0.0153389
0.00526965
-0.0154574
0.00550992
-0.0155043
0.00578987
-0.0155066
0.00611291
-0.0155055
0.00648188
-0.0155092
0.00689677
-0.0155756
0.00735191
-0.0156844
0.00784471
-0.0159126
0.00836432
-0.016204
-0.01669
0.008883
-5.3824e-05
0.00125363
7.17526e-05
-0.000140353
0.000428339
-0.00200048
0.000961438
-0.00444989
0.00156372
-0.00635266
0.00217323
-0.00796035
0.00274459
-0.00927872
0.00325013
-0.0105036
0.00366888
-0.0116553
0.00399791
-0.0127228
0.00425213
-0.0136394
0.0044567
-0.0143701
0.00463685
-0.0149113
0.00481352
-0.0152862
0.00500217
-0.0155275
0.00521432
-0.0156696
0.00545763
-0.0157476
0.00573846
-0.0157875
0.00605943
-0.0158264
0.00642356
-0.0158733
0.00682901
-0.015981
0.00727234
-0.0161277
0.00774909
-0.0163893
0.00824951
-0.0167044
-0.0171911
0.00875058
-4.80972e-05
0.00130172
0.000102841
-0.000291292
0.000495714
-0.00239335
0.00104791
-0.00500209
0.00164432
-0.00694907
0.00222934
-0.00854537
0.00276611
-0.00981549
0.00323553
-0.010973
0.00362425
-0.0120441
0.00393377
-0.0130324
0.00417884
-0.0138845
0.00438185
-0.0145731
0.0045648
-0.0150943
0.00474607
-0.0154674
0.00493947
-0.0157209
0.00515545
-0.0158856
0.00540098
-0.0159932
0.00568192
-0.0160684
0.00600031
-0.0161448
0.00635911
-0.0162321
0.00675529
-0.0163772
0.00718728
-0.0165597
0.00764857
-0.0168506
0.00813155
-0.0171874
-0.0176761
0.00861653
-4.14513e-05
0.00134317
0.000136753
-0.000469496
0.000563958
-0.00282055
0.00112864
-0.00556677
0.00171374
-0.00753417
0.0022721
-0.00910372
0.00277532
-0.0103187
0.00321182
-0.0114095
0.00357423
-0.0124065
0.00386707
-0.0133252
0.0041045
-0.0141219
0.00430632
-0.0147749
0.00449171
-0.0152797
0.0046769
-0.0156526
0.00487422
-0.0159183
0.0050932
-0.0161045
0.00534019
-0.0162402
0.00562053
-0.0163487
0.00593588
-0.0164602
0.00628893
-0.0165852
0.00667608
-0.0167643
0.00709702
-0.0169806
0.00754349
-0.0172971
0.00801077
-0.0176547
-0.0181463
0.00848105
-3.37474e-05
0.00137692
0.000173299
-0.000676542
0.000631876
-0.00327913
0.00120257
-0.00613746
0.00177208
-0.00810369
0.0023027
-0.00963433
0.00277396
-0.01079
0.00318065
-0.0118162
0.00351999
-0.0127458
0.00379853
-0.0136037
0.00402945
-0.0143528
0.00423025
-0.0149757
0.00441767
-0.0154671
0.00460606
-0.015841
0.00480653
-0.0161187
0.0050277
-0.0163257
0.00527545
-0.0164879
0.00555455
-0.0166278
0.00586643
-0.0167721
0.00621341
-0.0169321
0.00659176
-0.0171427
0.0070018
-0.0173907
0.00743424
-0.0177295
0.00788738
-0.0181078
-0.0186027
0.00834378
-2.48438e-05
0.00140177
0.000212185
-0.000913571
0.00069828
-0.00376523
0.00126901
-0.00670819
0.00181978
-0.00865446
0.00232239
-0.0101369
0.00276356
-0.0112311
0.00314338
-0.012196
0.00346249
-0.0130649
0.00372864
-0.0138699
0.00395391
-0.0145781
0.00415373
-0.0151755
0.00434271
-0.0156561
0.00453362
-0.0160319
0.00473647
-0.0163216
0.00495911
-0.0165483
0.00520693
-0.0167357
0.00548422
-0.0169051
0.00579225
-0.0170801
0.0061329
-0.0172728
0.00650266
-0.0175124
0.00690185
-0.0177899
0.00732126
-0.0181489
0.00776138
-0.0185479
-0.0190458
0.00820442
-1.46074e-05
0.00141637
0.000253032
-0.00118121
0.000762066
-0.00427426
0.00132764
-0.00727376
0.00185745
-0.00918427
0.00233239
-0.0106119
0.00274549
-0.0116442
0.00310115
-0.0125517
0.00340247
-0.0133662
0.00365779
-0.0141252
0.00387804
-0.0147983
0.00407679
-0.0153743
0.00426685
-0.0158461
0.00445961
-0.0162247
0.00466412
-0.0165261
0.00488753
-0.0167718
0.00513481
-0.016983
0.00540977
-0.0171801
0.00571359
-0.0173839
0.00604772
-0.0176069
0.00640903
-0.0178738
0.00679743
-0.0181783
0.00720487
-0.0185564
0.00763267
-0.0189757
-0.0194751
0.008062
-2.84678e-06
0.00141922
0.000295405
-0.00147946
0.000822276
-0.00480113
0.00137837
-0.00782986
0.00188582
-0.00969172
0.00233386
-0.0110599
0.00272094
-0.0120313
0.0030549
-0.0128856
0.0033405
-0.0136518
0.00358626
-0.014371
0.00380193
-0.015014
0.00399944
-0.0155718
0.00419009
-0.0160368
0.00438406
-0.0164186
0.00458955
-0.0167316
0.0048131
-0.0169953
0.00505925
-0.0172292
0.00533143
-0.0174523
0.0056307
-0.0176832
0.00595817
-0.0179344
0.00631108
-0.0182267
0.00668889
-0.0185561
0.00708515
-0.0189526
0.00750097
-0.0193916
-0.0198929
0.00791871
1.01176e-05
0.0014091
0.000338822
-0.00180817
0.000878136
-0.00534045
0.00142133
-0.00837305
0.00190563
-0.010176
0.0023278
-0.0114821
0.00269086
-0.0123944
0.00300533
-0.0132001
0.00327695
-0.0139235
0.00351414
-0.0146081
0.0037255
-0.0152254
0.00392157
-0.0157679
0.00411231
-0.0162275
0.00430687
-0.0166132
0.0045127
-0.0169374
0.00473576
-0.0172184
0.00498025
-0.0174736
0.0052492
-0.0177212
0.00554361
-0.0179776
0.00586429
-0.0182551
0.00620883
-0.0185712
0.00657638
-0.0189236
0.00696181
-0.0193381
0.00736234
-0.0197921
-0.0203071
0.00777658
2.45125e-05
0.00138459
0.000382784
-0.00216644
0.000929129
-0.00588679
0.00145686
-0.00890078
0.00191773
-0.0106369
0.00231526
-0.0118796
0.00265626
-0.0127354
0.00295319
-0.013497
0.00321233
-0.0141826
0.00344175
-0.0148376
0.00364899
-0.0154326
0.00384338
-0.0159623
0.00403374
-0.0164179
0.00422832
-0.0168078
0.00443391
-0.017143
0.00465595
-0.0174404
0.00489829
-0.017716
0.00516364
-0.0179866
0.00545292
-0.0182669
0.00576673
-0.0185689
0.00610291
-0.0189074
0.00646059
-0.0192813
0.00683556
-0.019713
0.00722369
-0.0201802
-0.0207066
0.0076232
4.01778e-05
0.00134441
0.000426743
-0.002553
0.000974911
-0.00643496
0.0014853
-0.00941117
0.00192284
-0.0110744
0.00229706
-0.0122538
0.0026178
-0.0130561
0.00289891
-0.0137781
0.0031468
-0.0144305
0.00336907
-0.0150598
0.00357228
-0.0156358
0.00376473
-0.0161547
0.00395425
-0.0166074
0.00414832
-0.0170019
0.00435312
-0.0173478
0.00457362
-0.0176609
0.00481335
-0.0179557
0.00507474
-0.018248
0.00535863
-0.0185508
0.00566547
-0.0188757
0.00599332
-0.0192352
0.00634139
-0.0196294
0.0067056
-0.0200773
0.00708391
-0.0205585
-0.0210954
0.00747268
5.68762e-05
0.00128754
0.00047012
-0.00296625
0.00101533
-0.00698017
0.00150711
-0.00990294
0.00192168
-0.011489
0.00227394
-0.0126061
0.00257612
-0.0133583
0.00284291
-0.0140449
0.00308057
-0.0146681
0.00329616
-0.0152754
0.00349536
-0.015835
0.0036856
-0.016345
0.00387384
-0.0167956
0.00406689
-0.0171949
0.00427038
-0.0175513
0.00448885
-0.0178794
0.00472555
-0.0181924
0.00498265
-0.0185051
0.00526094
-0.0188291
0.00556071
-0.0191755
0.00588026
-0.0195548
0.00621879
-0.0199679
0.00657298
-0.0204314
0.00694008
-0.0209256
-0.021474
0.00731868
7.43362e-05
0.0012132
0.000512316
-0.00340423
0.00105039
-0.00751825
0.00152272
-0.0103753
0.00191491
-0.0118812
0.00224658
-0.0129378
0.00253173
-0.0136435
0.00278551
-0.0142987
0.00301377
-0.0148964
0.00322304
-0.0154847
0.00341821
-0.0160302
0.00360595
-0.0165327
0.00379249
-0.0169822
0.00398406
-0.0173865
0.00418575
-0.0177529
0.00440176
-0.0180954
0.00463504
-0.0184257
0.00488754
-0.0187576
0.00516
-0.0191015
0.00545262
-0.0194681
0.00576387
-0.019866
0.00609311
-0.0202971
0.006437
-0.0207753
0.00679399
-0.0212826
-0.0218424
0.00716243
9.22739e-05
0.00112093
0.000552735
-0.00386469
0.00108019
-0.00804571
0.00153262
-0.0108277
0.00190314
-0.0122517
0.00221556
-0.0132502
0.00248508
-0.013913
0.00272695
-0.0145406
0.0029465
-0.015116
0.00314971
-0.0156879
0.00334079
-0.0162212
0.00352576
-0.0167177
0.00371022
-0.0171666
0.00389984
-0.0175761
0.0040993
-0.0179524
0.00431242
-0.0183085
0.00454192
-0.0186552
0.00478955
-0.0190052
0.00505599
-0.019368
0.00534137
-0.0197535
0.00564434
-0.020169
0.00596429
-0.0206171
0.00629833
-0.0211094
0.00664498
-0.0216293
-0.0222004
0.00700293
0.000110433
0.00101049
0.000590822
-0.00434508
0.0011049
-0.00855979
0.00153725
-0.01126
0.00188694
-0.0126014
0.00218139
-0.0135446
0.00243653
-0.0141681
0.00266744
-0.0147715
0.00287883
-0.0153274
0.00307618
-0.0158853
0.00326307
-0.0164081
0.00344501
-0.0168996
0.003627
-0.0173486
0.00381428
-0.0177634
0.00401108
-0.0181492
0.00422094
-0.0185184
0.00444631
-0.0188806
0.00468881
-0.0192477
0.00494904
-0.0196282
0.0052271
-0.0200315
0.00552178
-0.0204637
0.00583259
-0.0209279
0.00615672
-0.0214335
0.00649332
-0.0219659
-0.022548
0.00684094
0.00012862
0.000881872
0.000626107
-0.00484256
0.00112475
-0.00905843
0.00153706
-0.0116724
0.00186682
-0.0129312
0.0021445
-0.0138223
0.00238639
-0.01441
0.00260713
-0.0149922
0.00281082
-0.015531
0.00300243
-0.0160769
0.00318503
-0.0165907
0.00336367
-0.0170782
0.00354286
-0.0175278
0.0037274
-0.0179479
0.00392116
-0.018343
0.00412739
-0.0187246
0.00434833
-0.0191015
0.00458545
-0.0194848
0.00483931
-0.0198821
0.00510995
-0.0203022
0.00539635
-0.0207501
0.00569801
-0.0212295
0.00601244
-0.0217479
0.00633904
-0.0222925
-0.0228851
0.00667616
0.000146726
0.000735146
0.000658228
-0.00535406
0.00113998
-0.00954018
0.00153247
-0.0120648
0.00184323
-0.0132419
0.00210527
-0.0140843
0.0023349
-0.0146396
0.00254616
-0.0152035
0.00274249
-0.0157274
0.00292844
-0.0162628
0.00310664
-0.0167689
0.00328173
-0.0172533
0.00345778
-0.0177039
0.00363922
-0.0181294
0.00382959
-0.0185333
0.00403185
-0.0189269
0.00424808
-0.0193177
0.00447959
-0.0197163
0.00472692
-0.0201294
0.00499007
-0.0205653
0.00526815
-0.0210282
0.00556073
-0.0215221
0.00586549
-0.0220527
0.00618213
-0.0226091
-0.0232119
0.00650889
0.000164729
0.000570417
0.000686954
-0.00587629
0.00115089
-0.0100041
0.00152388
-0.0124378
0.00181658
-0.0135346
0.00206404
-0.0143318
0.00228227
-0.0148579
0.00248462
-0.0154058
0.00267387
-0.0159166
0.00285421
-0.0164432
0.00302788
-0.0169426
0.00319918
-0.0174246
0.00337178
-0.0178765
0.00354979
-0.0183074
0.00373642
-0.01872
0.00393442
-0.0191249
0.00414566
-0.019529
0.00437135
-0.019942
0.00461199
-0.02037
0.00486756
-0.0208209
0.00513731
-0.0212979
0.00542082
-0.0218056
0.00571599
-0.0223479
0.00602271
-0.0229158
-0.0235283
0.00633909
0.000182683
0.000387734
0.000712174
-0.00640578
0.00115776
-0.0104497
0.00151166
-0.0127917
0.00178725
-0.0138102
0.00202109
-0.0145657
0.00222867
-0.0150654
0.00242257
-0.0155997
0.00260497
-0.016099
0.00277972
-0.0166179
0.00294872
-0.0171116
0.003116
-0.0175919
0.00328487
-0.0180453
0.00345914
-0.0184817
0.00364172
-0.0189025
0.00383516
-0.0193183
0.00404116
-0.019735
0.00426083
-0.0201617
0.00449464
-0.0206038
0.00474255
-0.0210688
0.00500394
-0.0215593
0.00527838
-0.0220801
0.00556399
-0.0226335
0.00586079
-0.0232126
-0.0238343
0.00616687
0.000200691
0.000187043
0.000733885
-0.00693898
0.00116087
-0.0108767
0.00149615
-0.013127
0.00175555
-0.0140696
0.00197665
-0.0147868
0.00217424
-0.015263
0.00236009
-0.0157856
0.00253579
-0.0162747
0.00270494
-0.0167871
0.00286916
-0.0172758
0.00303219
-0.0177549
0.00319707
-0.0182102
0.00336729
-0.0186519
0.00354554