/*--------------------------------*- C++ -*----------------------------------*\
  =========                 |
  \\      /  F ield         | OpenFOAM: The Open Source CFD Toolbox
   \\    /   O peration     | Website:  https://openfoam.org
    \\  /    A nd           | Version:  7
     \\/     M anipulation  |
\*---------------------------------------------------------------------------*/
FoamFile
{
    version     2.0;
    format      ascii;
    class       volVectorField;
    location    "0.5";
    object      U;
}
// * * * * * * * * * * * * * * * * * * * * * * * * * * * * * * * * * * * * * //

dimensions      [0 1 -1 0 0 0 0];

internalField   nonuniform List<vector> 
2413
(
(1.4 1.76881e-15 0)
(1.4 1.81679e-15 0)
(1.4 1.89739e-15 0)
(1.4 1.9532e-15 0)
(1.4 1.95171e-15 0)
(1.4 1.98382e-15 0)
(1.4 2.02377e-15 0)
(1.4 2.2209e-15 0)
(1.4 2.52709e-15 0)
(1.4 2.68119e-15 0)
(1.4 2.87311e-15 0)
(1.4 2.77308e-15 0)
(1.4 2.69153e-15 0)
(1.4 2.65133e-15 0)
(1.4 2.42535e-15 0)
(1.4 2.36391e-15 0)
(1.4 2.33011e-15 0)
(1.4 2.24259e-15 0)
(1.4 2.0678e-15 0)
(1.4 1.74521e-15 0)
(1.4 1.15838e-15 0)
(1.4 6.35857e-16 0)
(1.4 3.53413e-16 0)
(1.4 -1.99914e-17 0)
(1.4 -1.49033e-16 0)
(1.4 -5.1223e-16 0)
(1.4 -9.73197e-16 0)
(1.4 -9.8745e-16 0)
(1.4 -9.3606e-16 0)
(1.4 -1.30748e-15 0)
(1.4 -1.31309e-15 0)
(1.4 -1.14795e-15 0)
(1.4 -9.63987e-16 0)
(1.4 -8.02109e-16 0)
(1.4 -6.83845e-16 0)
(1.4 -5.83297e-16 0)
(1.4 -4.69806e-16 0)
(1.4 -2.96326e-16 0)
(1.4 -1.40856e-16 0)
(1.4 -5.42933e-17 0)
(1.4 -9.6298e-17 0)
(1.4 -1.93986e-16 0)
(1.4 -2.20564e-16 0)
(1.4 8.19133e-19 0)
(1.4 3.77419e-16 0)
(1.4 8.93927e-16 0)
(1.4 1.77549e-15 0)
(1.4 2.14191e-15 0)
(1.4 2.62114e-15 0)
(1.4 2.83193e-15 0)
(1.4 3.097e-15 0)
(1.4 2.98293e-15 0)
(1.4 2.60461e-15 0)
(1.4 4.78019e-17 0)
(1.4 3.57201e-17 0)
(1.4 1.54742e-17 0)
(1.4 -2.35023e-16 0)
(1.4 -4.26874e-16 0)
(1.4 -5.30543e-16 0)
(1.4 -6.84821e-16 0)
(1.4 -6.78633e-16 0)
(1.4 -7.74746e-16 0)
(1.4 -8.96827e-16 0)
(1.4 -8.48204e-16 0)
(1.4 -8.2464e-16 0)
(1.4 -6.9087e-16 0)
(1.4 -5.8824e-16 0)
(1.4 -4.27658e-16 0)
(1.4 -2.86548e-16 0)
(1.4 -2.68978e-16 0)
(1.4 -2.4772e-16 0)
(1.4 -1.29253e-16 0)
(1.4 -7.94157e-17 0)
(1.4 1.56996e-16 0)
(1.4 4.26497e-16 0)
(1.4 6.54611e-16 0)
(1.4 6.89432e-16 0)
(1.4 6.60717e-16 0)
(1.4 3.62098e-16 0)
(1.4 8.5119e-18 0)
(1.4 -2.11616e-16 0)
(1.4 -2.30585e-16 0)
(1.4 -7.84091e-17 0)
(1.4 4.50102e-17 0)
(1.4 2.85649e-17 0)
(1.4 -5.2641e-17 0)
(1.4 -2.23347e-16 0)
(1.4 -6.16345e-16 0)
(1.4 -1.13463e-15 0)
(1.4 -1.41419e-15 0)
(1.4 -1.73401e-15 0)
(1.4 -1.59198e-15 0)
(1.4 -1.92242e-15 0)
(1.4 -2.26163e-15 0)
(1.4 -2.58981e-15 0)
(1.4 -2.84633e-15 0)
(1.4 -2.75952e-15 0)
(1.4 -2.43451e-15 0)
(1.4 -2.18679e-15 0)
(1.4 -1.94733e-15 0)
(1.4 -1.68535e-15 0)
(1.4 -1.18741e-15 0)
(1.4 -8.28143e-16 0)
(1.4 -6.86645e-16 0)
(1.4 -6.47649e-16 0)
(1.4 -5.68318e-16 0)
(1.4 -5.25898e-16 0)
(1.4 -5.39392e-16 0)
(1.4 -6.42764e-16 0)
(1.4 -7.95525e-16 0)
(1.4 -7.7057e-16 0)
(1.4 -7.31984e-16 0)
(1.4 -6.67402e-16 0)
(1.4 -3.73428e-16 0)
(1.4 3.97366e-17 0)
(1.4 1.15965e-16 0)
(1.4 8.1494e-16 0)
(1.4 8.85052e-16 0)
(1.4 8.59279e-16 0)
(1.4 8.57237e-16 0)
(1.4 1.08283e-15 0)
(1.4 1.21269e-15 0)
(1.4 1.33387e-15 0)
(1.4 1.42583e-15 0)
(1.4 1.50416e-15 0)
(1.4 1.43022e-15 0)
(1.4 1.42416e-15 0)
(1.4 1.4982e-15 0)
(1.4 1.4007e-15 0)
(1.4 1.77543e-15 0)
(1.4 1.89021e-15 0)
(1.4 2.01896e-15 0)
(1.4 2.20206e-15 0)
(1.4 2.54781e-15 0)
(1.4 2.78858e-15 0)
(1.4 2.88323e-15 0)
(1.4 2.92647e-15 0)
(1.4 2.93439e-15 0)
(1.4 2.77005e-15 0)
(1.4 2.19711e-15 0)
(1.4 2.28808e-15 0)
(1.4 2.32095e-15 0)
(1.4 1.91159e-15 0)
(1.4 1.57834e-15 0)
(1.4 1.1762e-15 0)
(1.4 9.67295e-16 0)
(1.4 3.99261e-16 0)
(1.4 -2.32313e-16 0)
(1.4 -8.05337e-16 0)
(1.4 -1.00473e-15 0)
(1.4 -1.1992e-15 0)
(1.4 -1.3597e-15 0)
(1.4 -1.66786e-15 0)
(1.4 -2.01341e-15 0)
(1.4 -2.43707e-15 0)
(1.4 -2.57982e-15 0)
(1.4 -2.38946e-15 0)
(1.4 -2.22441e-15 0)
(1.4 -1.7723e-15 0)
(1.4 -1.32294e-15 0)
(1.4 -8.86035e-16 0)
(1.4 -6.66849e-16 0)
(1.4 -4.93307e-17 0)
(1.4 8.31909e-16 0)
(1.4 1.16143e-15 0)
(1.4 1.70833e-15 0)
(1.4 2.21777e-15 0)
(1.4 2.35086e-15 0)
(1.4 2.27372e-15 0)
(1.4 2.2482e-15 0)
(1.4 2.17988e-15 0)
(1.4 1.81539e-15 0)
(1.4 1.57226e-15 0)
(1.4 -2.37686e-15 0)
(1.4 -2.36577e-15 0)
(1.4 -2.20408e-15 0)
(1.4 -2.18198e-15 0)
(1.4 -2.22559e-15 0)
(1.4 -2.33694e-15 0)
(1.4 -2.28255e-15 0)
(1.4 -2.32506e-15 0)
(1.4 -2.40432e-15 0)
(1.4 -2.47219e-15 0)
(1.4 -2.39676e-15 0)
(1.4 -2.22888e-15 0)
(1.4 -1.72346e-15 0)
(1.4 -1.46099e-15 0)
(1.4 -9.1524e-16 0)
(1.4 -5.92005e-16 0)
(1.4 -3.2438e-16 0)
(1.4 -4.39735e-16 0)
(1.4 -6.82679e-16 0)
(1.4 -7.62262e-16 0)
(1.4 -7.74976e-16 0)
(1.4 -9.27152e-16 0)
(1.4 -9.51624e-16 0)
(1.4 -1.0896e-15 0)
(1.4 -1.51361e-15 0)
(1.4 -1.51886e-15 0)
(1.4 -1.36912e-15 0)
(1.4 -1.09966e-15 0)
(1.4 -8.36896e-16 0)
(1.4 -6.26613e-16 0)
(1.4 -6.65461e-16 0)
(1.4 -9.30251e-16 0)
(1.4 -9.75828e-16 0)
(1.4 -1.30023e-15 0)
(1.4 -1.67575e-15 0)
(1.4 -1.98631e-15 0)
(1.4 -2.25814e-15 0)
(1.4 -2.52232e-15 0)
(1.4 -2.88392e-15 0)
(1.4 -3.13717e-15 0)
(1.4 -3.50363e-15 0)
(1.4 -3.25503e-15 0)
(1.4 -3.19727e-15 0)
(1.4 -3.06139e-15 0)
(1.4 -3.0227e-15 0)
(1.4 -2.86414e-15 0)
(1.4 -2.58463e-15 0)
(1.4 -2.2559e-15 0)
(1.4 -1.89844e-15 0)
(1.4 -1.6248e-15 0)
(1.4 -1.36338e-15 0)
(1.4 -1.1722e-15 0)
(1.4 -9.36017e-16 0)
(1.4 -8.4497e-16 0)
(1.4 -4.04538e-16 0)
(1.4 -2.06494e-16 0)
(1.4 2.77361e-16 0)
(1.4 1.2487e-15 0)
(1.4 1.62555e-15 0)
(1.4 1.60389e-15 0)
(1.4 1.4485e-15 0)
(1.4 7.07209e-16 0)
(1.4 4.06729e-16 0)
(1.4 1.35016e-16 0)
(1.4 -1.11548e-16 0)
(1.4 -2.45935e-16 0)
(1.4 -2.58019e-16 0)
(1.4 -1.91051e-16 0)
(1.4 5.19086e-17 0)
(1.4 3.19569e-16 0)
(1.4 8.28441e-16 0)
(1.4 1.07369e-15 0)
(1.4 1.11151e-15 0)
(1.4 1.10104e-15 0)
(1.4 9.9496e-16 0)
(1.4 9.38555e-16 0)
(1.4 7.98875e-16 0)
(1.4 7.61825e-16 0)
(1.4 7.68635e-16 0)
(1.4 7.82774e-16 0)
(1.4 8.67054e-16 0)
(1.4 1.00567e-15 0)
(1.4 9.05925e-16 0)
(1.4 8.31233e-16 0)
(1.4 7.69317e-16 0)
(1.4 8.35212e-16 0)
(1.4 1.13634e-15 0)
(1.4 1.18081e-15 0)
(1.4 1.22924e-15 0)
(1.4 1.01684e-15 0)
(1.4 1.02734e-15 0)
(1.4 8.63903e-16 0)
(1.4 5.4998e-16 0)
(1.4 6.65903e-16 0)
(1.4 4.0347e-16 0)
(1.4 1.03318e-17 0)
(1.4 -2.6657e-16 0)
(1.4 -6.55157e-16 0)
(1.4 -8.17937e-16 0)
(1.4 -1.32765e-15 0)
(1.4 -1.97634e-15 0)
(1.4 -2.53045e-15 0)
(1.4 -2.8272e-15 0)
(1.4 -2.78967e-15 0)
(1.4 -2.87076e-15 0)
(1.4 -3.00077e-15 0)
(1.4 -2.40535e-15 0)
(1.4 -1.28855e-15 0)
(1.4 -4.32194e-16 0)
(1.4 7.23193e-16 0)
(1.4 1.00327e-15 0)
(1.4 1.05882e-15 0)
(1.4 5.27478e-16 0)
(1.4 2.85446e-16 0)
(1.4 2.87241e-16 0)
(1.4 -4.20093e-17 0)
(1.4 -2.60892e-16 0)
(1.4 -6.48865e-16 0)
(1.4 -7.5602e-16 0)
(1.4 -6.58923e-16 0)
(1.4 -1.90767e-15 0)
(1.4 -2.55004e-15 0)
(1.4 -2.7693e-15 0)
(1.4 -2.66783e-15 0)
(1.4 -2.64589e-15 0)
(1.4 -2.72041e-15 0)
(1.4 -2.76278e-15 0)
(1.4 -2.85782e-15 0)
(1.4 -3.00922e-15 0)
(1.4 -3.03081e-15 0)
(1.4 -3.0396e-15 0)
(1.4 -3.01624e-15 0)
(1.4 -2.93488e-15 0)
(1.4 -2.85168e-15 0)
(1.4 -2.84114e-15 0)
(1.4 -2.64895e-15 0)
(1.4 -2.42313e-15 0)
(1.4 -2.25874e-15 0)
(1.4 -1.94731e-15 0)
(1.4 -1.66316e-15 0)
(1.4 -1.58248e-15 0)
(1.4 -1.24747e-15 0)
(1.4 -8.34477e-16 0)
(1.4 -5.67427e-16 0)
(1.4 -2.9934e-16 0)
(1.4 -2.03213e-16 0)
(1.4 -3.35914e-16 0)
(1.4 -4.69693e-16 0)
(1.4 -5.41232e-16 0)
(1.4 -7.45562e-16 0)
(1.4 -1.02023e-15 0)
(1.4 -1.15348e-15 0)
(1.4 -1.5801e-15 0)
(1.4 -1.61255e-15 0)
(1.4 -1.57997e-15 0)
(1.4 -1.54325e-15 0)
(1.4 -1.66161e-15 0)
(1.4 -1.78461e-15 0)
(1.4 -2.25955e-15 0)
(1.4 -2.70589e-15 0)
(1.4 -2.31753e-15 0)
(1.4 -2.12126e-15 0)
(1.4 -2.0566e-15 0)
(1.4 -2.22351e-15 0)
(1.4 -2.46023e-15 0)
(1.4 -2.50108e-15 0)
(1.4 -2.43525e-15 0)
(1.4 -2.10986e-15 0)
(1.4 -1.88756e-15 0)
(1.4 -1.75212e-15 0)
(1.4 -1.55799e-15 0)
(1.4 -1.12044e-15 0)
(1.4 -9.7025e-16 0)
(1.4 -7.63386e-16 0)
(1.4 -3.48254e-16 0)
(1.4 3.28182e-16 0)
(1.4 8.80738e-16 0)
(1.4 9.19631e-16 0)
(1.4 1.24356e-15 0)
(1.4 1.41998e-15 0)
(1.4 1.50516e-15 0)
(1.4 1.3971e-15 0)
(1.4 1.24017e-15 0)
(1.4 7.67347e-16 0)
(1.4 4.75939e-16 0)
(1.4 1.84303e-16 0)
(1.4 -2.21493e-17 0)
(1.4 1.11077e-16 0)
(1.4 4.2577e-16 0)
(1.4 8.19174e-16 0)
(1.4 1.16721e-15 0)
(1.4 1.284e-15 0)
(1.4 1.51506e-15 0)
(1.4 1.562e-15 0)
(1.4 1.53685e-15 0)
(1.4 1.41284e-15 0)
(1.4 1.36307e-15 0)
(1.4 1.50047e-15 0)
(1.4 1.63222e-15 0)
(1.4 1.88745e-15 0)
(1.4 1.71047e-15 0)
(1.4 1.56993e-15 0)
(1.4 1.34494e-15 0)
(1.4 1.21653e-15 0)
(1.4 1.06501e-15 0)
(1.4 1.11181e-15 0)
(1.4 1.27557e-15 0)
(1.4 1.27005e-15 0)
(1.4 1.19113e-15 0)
(1.4 1.1854e-15 0)
(1.4 1.13035e-15 0)
(1.4 1.02747e-15 0)
(1.4 8.65002e-16 0)
(1.4 4.79208e-16 0)
(1.4 2.64238e-16 0)
(1.4 1.17926e-16 0)
(1.4 -5.01347e-16 0)
(1.4 -6.1725e-16 0)
(1.4 -6.57723e-16 0)
(1.4 -5.64044e-16 0)
(1.4 -3.10981e-16 0)
(1.4 -1.88253e-16 0)
(1.4 -2.86982e-16 0)
(1.4 -4.25738e-16 0)
(1.4 -9.01682e-16 0)
(1.4 -1.18293e-15 0)
(1.4 -1.00239e-15 0)
(1.4 -9.48827e-16 0)
(1.4 4.69111e-17 0)
(1.4 9.73769e-16 0)
(1.4 1.12677e-15 0)
(1.4 1.25874e-15 0)
(1.4 1.45527e-15 0)
(1.4 1.39085e-15 0)
(1.4 1.52154e-15 0)
(1.4 1.48043e-15 0)
(1.4 1.33698e-15 0)
(1.4 4.8405e-16 0)
(1.4 2.46215e-16 0)
(1.4 2.60932e-16 0)
(1.4 -2.07613e-15 0)
(1.4 -2.37683e-15 0)
(1.4 -2.71175e-15 0)
(1.4 -2.90135e-15 0)
(1.4 -2.91304e-15 0)
(1.4 -3.00592e-15 0)
(1.4 -3.04e-15 0)
(1.4 -3.0682e-15 0)
(1.4 -3.13281e-15 0)
(1.4 -3.20445e-15 0)
(1.4 -3.28533e-15 0)
(1.4 -3.52371e-15 0)
(1.4 -3.70718e-15 0)
(1.4 -4.09865e-15 0)
(1.4 -4.34761e-15 0)
(1.4 -4.50175e-15 0)
(1.4 -4.47664e-15 0)
(1.4 -4.34858e-15 0)
(1.4 -3.67173e-15 0)
(1.4 -2.44535e-15 0)
(1.4 -1.50176e-15 0)
(1.4 -5.13842e-16 0)
(1.4 -3.88715e-16 0)
(1.4 6.48045e-17 0)
(1.4 1.87363e-16 0)
(1.4 6.39572e-17 0)
(1.4 1.04078e-16 0)
(1.4 7.7231e-17 0)
(1.4 -2.72632e-16 0)
(1.4 -5.42837e-16 0)
(1.4 -1.10913e-15 0)
(1.4 -1.27253e-15 0)
(1.4 -1.41703e-15 0)
(1.4 -1.73036e-15 0)
(1.4 -1.31434e-15 0)
(1.4 -9.02668e-16 0)
(1.4 -9.10366e-16 0)
(1.4 -8.31003e-16 0)
(1.4 -6.24994e-16 0)
(1.4 -3.3118e-16 0)
(1.4 -1.87122e-16 0)
(1.4 -1.97492e-16 0)
(1.4 -6.91936e-16 0)
(1.4 -9.30815e-16 0)
(1.4 -1.19179e-15 0)
(1.4 -1.29221e-15 0)
(1.4 -1.3038e-15 0)
(1.4 -1.35243e-15 0)
(1.4 -1.21782e-15 0)
(1.4 -1.11944e-15 0)
(1.4 -1.09235e-15 0)
(1.4 -8.71055e-16 0)
(1.4 -6.4816e-16 0)
(1.4 -4.02767e-16 0)
(1.4 -4.81249e-17 0)
(1.4 2.46329e-16 0)
(1.4 3.61507e-16 0)
(1.4 4.32341e-16 0)
(1.4 5.82856e-16 0)
(1.4 8.18665e-16 0)
(1.4 1.15391e-15 0)
(1.4 1.42636e-15 0)
(1.4 1.54165e-15 0)
(1.4 1.62289e-15 0)
(1.4 1.42472e-15 0)
(1.4 1.25495e-15 0)
(1.4 1.30066e-15 0)
(1.4 1.34859e-15 0)
(1.4 8.7057e-16 0)
(1.4 6.82458e-16 0)
(1.4 7.1567e-16 0)
(1.4 1.00456e-15 0)
(1.4 1.19544e-15 0)
(1.4 1.12172e-15 0)
(1.4 1.21225e-15 0)
(1.4 1.38507e-15 0)
(1.4 1.65216e-15 0)
(1.4 1.72511e-15 0)
(1.4 1.8074e-15 0)
(1.4 1.82654e-15 0)
(1.4 1.77751e-15 0)
(1.4 1.55631e-15 0)
(1.4 1.43268e-15 0)
(1.4 1.43471e-15 0)
(1.4 1.39334e-15 0)
(1.4 1.20755e-15 0)
(1.4 1.02623e-15 0)
(1.4 8.85828e-16 0)
(1.4 5.77234e-16 0)
(1.4 2.83441e-16 0)
(1.4 5.61773e-17 0)
(1.4 -2.98011e-16 0)
(1.4 -5.98651e-16 0)
(1.4 -8.82332e-16 0)
(1.4 -1.192e-15 0)
(1.4 -1.39596e-15 0)
(1.4 -1.45568e-15 0)
(1.4 -1.55306e-15 0)
(1.4 -1.35133e-15 0)
(1.4 -2.7941e-16 0)
(1.4 1.65691e-16 0)
(1.4 3.53949e-16 0)
(1.4 3.27296e-16 0)
(1.4 3.00445e-16 0)
(1.4 3.47493e-16 0)
(1.4 4.15622e-16 0)
(1.4 4.20543e-16 0)
(1.4 5.8254e-16 0)
(1.4 8.46413e-16 0)
(1.4 6.74069e-16 0)
(1.4 6.49661e-16 0)
(1.4 1.40293e-15 0)
(1.4 2.12152e-15 0)
(1.4 2.10231e-15 0)
(1.4 1.41966e-15 0)
(1.4 6.69618e-16 0)
(1.4 5.63018e-16 0)
(1.4 3.24888e-16 0)
(1.4 1.96681e-16 0)
(1.4 -4.08548e-16 0)
(1.4 -3.15326e-15 0)
(1.4 -3.06688e-15 0)
(1.4 -3.00228e-15 0)
(1.4 -3.19113e-15 0)
(1.4 -3.53299e-15 0)
(1.4 -3.48845e-15 0)
(1.4 -3.18057e-15 0)
(1.4 -3.03047e-15 0)
(1.4 -2.72028e-15 0)
(1.4 -2.65217e-15 0)
(1.4 -2.49503e-15 0)
(1.4 -2.50576e-15 0)
(1.4 -2.81145e-15 0)
(1.4 -3.2781e-15 0)
(1.4 -3.15282e-15 0)
(1.4 -2.93662e-15 0)
(1.4 -2.65995e-15 0)
(1.4 -2.55994e-15 0)
(1.4 -2.40333e-15 0)
(1.4 -2.38598e-15 0)
(1.4 -2.59572e-15 0)
(1.4 -2.76598e-15 0)
(1.4 -2.84259e-15 0)
(1.4 -2.44024e-15 0)
(1.4 -2.37451e-15 0)
(1.4 -2.16557e-15 0)
(1.4 -1.96051e-15 0)
(1.4 -1.99284e-15 0)
(1.4 -2.14577e-15 0)
(1.4 -2.31971e-15 0)
(1.4 -2.3501e-15 0)
(1.4 -2.23802e-15 0)
(1.4 -2.19928e-15 0)
(1.4 -2.46716e-15 0)
(1.4 -2.60838e-15 0)
(1.4 -2.77518e-15 0)
(1.4 -2.34551e-15 0)
(1.4 -2.23771e-15 0)
(1.4 -1.95002e-15 0)
(1.4 -1.84769e-15 0)
(1.4 -1.91201e-15 0)
(1.4 -1.89832e-15 0)
(1.4 -1.68762e-15 0)
(1.4 -1.49999e-15 0)
(1.4 -1.49039e-15 0)
(1.4 -1.47132e-15 0)
(1.4 -1.4864e-15 0)
(1.4 -1.44606e-15 0)
(1.4 -1.63831e-15 0)
(1.4 -1.7565e-15 0)
(1.4 -1.97959e-15 0)
(1.4 -2.21182e-15 0)
(1.4 -2.17142e-15 0)
(1.4 -1.65489e-15 0)
(1.4 -1.38451e-15 0)
(1.4 -9.08688e-16 0)
(1.4 -2.89948e-16 0)
(1.4 -2.27988e-16 0)
(1.4 2.5006e-17 0)
(1.4 3.80345e-17 0)
(1.4 2.99032e-16 0)
(1.4 5.88724e-16 0)
(1.4 7.59139e-16 0)
(1.4 9.54356e-16 0)
(1.4 9.60677e-16 0)
(1.4 1.04188e-15 0)
(1.4 1.08505e-15 0)
(1.4 8.6657e-16 0)
(1.4 5.67962e-16 0)
(1.4 2.01144e-16 0)
(1.4 1.49094e-16 0)
(1.4 2.58351e-16 0)
(1.4 3.47019e-16 0)
(1.4 6.73285e-16 0)
(1.4 8.33098e-16 0)
(1.4 8.73543e-16 0)
(1.4 6.67717e-16 0)
(1.4 4.16191e-16 0)
(1.4 2.90082e-16 0)
(1.4 -1.16092e-16 0)
(1.4 -1.54871e-16 0)
(1.4 -3.69788e-17 0)
(1.4 1.57955e-16 0)
(1.4 1.35207e-16 0)
(1.4 -6.24753e-17 0)
(1.4 -2.43953e-16 0)
(1.4 -5.64416e-16 0)
(1.4 -7.63375e-16 0)
(1.4 -1.04771e-15 0)
(1.4 -1.16749e-15 0)
(1.4 -1.40886e-15 0)
(1.4 -1.50954e-15 0)
(1.4 -1.71944e-15 0)
(1.4 -1.84075e-15 0)
(1.4 -1.7687e-15 0)
(1.4 -1.61038e-15 0)
(1.4 -8.63128e-16 0)
(1.4 -5.31817e-16 0)
(1.4 -2.71056e-16 0)
(1.4 -1.04936e-16 0)
(1.4 1.40756e-16 0)
(1.4 2.75913e-16 0)
(1.4 3.83395e-16 0)
(1.4 4.53662e-16 0)
(1.4 4.73539e-16 0)
(1.4 4.75084e-16 0)
(1.4 4.69531e-16 0)
(1.4 5.62732e-16 0)
(1.4 5.29379e-16 0)
(1.4 2.99981e-16 0)
(1.4 -3.41566e-17 0)
(1.4 -3.31439e-16 0)
(1.4 -8.39273e-17 0)
(1.4 -9.58897e-18 0)
(1.4 -9.57674e-17 0)
(1.4 -3.3843e-16 0)
(1.4 -6.09507e-16 0)
(1.4 -5.35226e-16 0)
(1.4 -4.92988e-16 0)
(1.4 -7.89303e-16 0)
(1.4 -2.30734e-15 0)
(1.4 -2.18036e-15 0)
(1.4 -2.20199e-15 0)
(1.4 -2.17084e-15 0)
(1.4 -2.01875e-15 0)
(1.4 -2.08811e-15 0)
(1.4 -1.69016e-15 0)
(1.4 -1.57063e-15 0)
(1.4 -1.50221e-15 0)
(1.4 -1.41202e-15 0)
(1.4 -1.39581e-15 0)
(1.4 -1.25795e-15 0)
(1.4 -1.10981e-15 0)
(1.4 -1.19208e-15 0)
(1.4 -1.22485e-15 0)
(1.4 -1.18896e-15 0)
(1.4 -1.48892e-15 0)
(1.4 -1.85592e-15 0)
(1.4 -2.26421e-15 0)
(1.4 -2.55389e-15 0)
(1.4 -3.15834e-15 0)
(1.4 -3.48935e-15 0)
(1.4 -3.72258e-15 0)
(1.4 -3.39679e-15 0)
(1.4 -2.9032e-15 0)
(1.4 -2.60435e-15 0)
(1.4 -2.5824e-15 0)
(1.4 -2.29867e-15 0)
(1.4 -2.25936e-15 0)
(1.4 -2.38097e-15 0)
(1.4 -2.24818e-15 0)
(1.4 -2.10165e-15 0)
(1.4 -2.29336e-15 0)
(1.4 -2.17985e-15 0)
(1.4 -2.25303e-15 0)
(1.4 -2.29436e-15 0)
(1.4 -2.3655e-15 0)
(1.4 -2.41113e-15 0)
(1.4 -2.33937e-15 0)
(1.4 -2.03161e-15 0)
(1.4 -1.78258e-15 0)
(1.4 -1.71764e-15 0)
(1.4 -1.65241e-15 0)
(1.4 -1.61413e-15 0)
(1.4 -1.52754e-15 0)
(1.4 -1.40183e-15 0)
(1.4 -1.46852e-15 0)
(1.4 -1.39266e-15 0)
(1.4 -1.40235e-15 0)
(1.4 -1.25326e-15 0)
(1.4 -1.15249e-15 0)
(1.4 -1.06893e-15 0)
(1.4 -1.03154e-15 0)
(1.4 -1.16309e-15 0)
(1.4 -1.4812e-15 0)
(1.4 -1.71203e-15 0)
(1.4 -1.60145e-15 0)
(1.4 -1.37762e-15 0)
(1.4 -1.06154e-15 0)
(1.4 -9.03402e-16 0)
(1.4 -7.79159e-16 0)
(1.4 -7.67353e-16 0)
(1.4 -7.12952e-16 0)
(1.4 -5.31901e-16 0)
(1.4 -2.66318e-16 0)
(1.4 -1.43401e-16 0)
(1.4 -1.17039e-16 0)
(1.4 1.72314e-16 0)
(1.4 2.34009e-16 0)
(1.4 2.86084e-16 0)
(1.4 3.52137e-16 0)
(1.4 2.96067e-16 0)
(1.4 2.72333e-16 0)
(1.4 4.42173e-16 0)
(1.4 1.29062e-17 0)
(1.4 -2.74702e-16 0)
(1.4 -4.74548e-16 0)
(1.4 -5.87322e-16 0)
(1.4 -7.58763e-16 0)
(1.4 -9.11032e-16 0)
(1.4 -1.12145e-15 0)
(1.4 -1.0052e-15 0)
(1.4 -8.83918e-16 0)
(1.4 -7.90341e-16 0)
(1.4 -6.73611e-16 0)
(1.4 -5.04007e-16 0)
(1.4 -4.3403e-16 0)
(1.4 -6.03316e-16 0)
(1.4 -7.47608e-16 0)
(1.4 -9.45865e-16 0)
(1.4 -1.00115e-15 0)
(1.4 -6.8331e-16 0)
(1.4 -1.16967e-16 0)
(1.4 1.08452e-16 0)
(1.4 6.43014e-16 0)
(1.4 1.07419e-15 0)
(1.4 1.35916e-15 0)
(1.4 1.42815e-15 0)
(1.4 1.3461e-15 0)
(1.4 1.2571e-15 0)
(1.4 1.29828e-15 0)
(1.4 1.42049e-15 0)
(1.4 1.67906e-15 0)
(1.4 1.84401e-15 0)
(1.4 2.30874e-15 0)
(1.4 2.74832e-15 0)
(1.4 2.95869e-15 0)
(1.4 2.97197e-15 0)
(1.4 2.71821e-15 0)
(1.4 2.32741e-15 0)
(1.4 1.45773e-15 0)
(1.4 2.98754e-16 0)
(1.4 -3.07113e-16 0)
(1.4 -1.24148e-15 0)
(1.4 -1.42614e-15 0)
(1.4 -1.39862e-15 0)
(1.4 -1.15213e-15 0)
(1.4 -1.37064e-15 0)
(1.4 -1.67678e-15 0)
(1.4 -1.42011e-15 0)
(1.4 -9.76327e-16 0)
(1.4 -9.89345e-16 0)
(1.4 -9.78032e-16 0)
(1.4 -8.20958e-16 0)
(1.4 -6.62347e-16 0)
(1.4 -7.68715e-16 0)
(1.4 -8.87857e-16 0)
(1.4 -1.01942e-15 0)
(1.4 -1.0909e-15 0)
(1.4 -1.06514e-15 0)
(1.4 -1.1828e-15 0)
(1.4 -1.18288e-15 0)
(1.4 -9.11202e-16 0)
(1.4 -7.18124e-16 0)
(1.4 -9.43853e-16 0)
(1.4 -1.22342e-15 0)
(1.4 -1.89672e-15 0)
(1.4 -2.29424e-15 0)
(1.4 -2.51956e-15 0)
(1.4 -2.57817e-15 0)
(1.4 -2.64758e-15 0)
(1.4 -2.82681e-15 0)
(1.4 -2.9764e-15 0)
(1.4 -3.04961e-15 0)
(1.4 -3.35284e-15 0)
(1.4 -3.43114e-15 0)
(1.4 -3.40901e-15 0)
(1.4 -3.37096e-15 0)
(1.4 -3.20059e-15 0)
(1.4 -3.04227e-15 0)
(1.4 -2.9208e-15 0)
(1.4 -2.81251e-15 0)
(1.4 -2.72418e-15 0)
(1.4 -2.71838e-15 0)
(1.4 -2.51028e-15 0)
(1.4 -2.18308e-15 0)
(1.4 -2.15454e-15 0)
(1.4 -1.81381e-15 0)
(1.4 -1.77618e-15 0)
(1.4 -1.78983e-15 0)
(1.4 -1.62663e-15 0)
(1.4 -1.56513e-15 0)
(1.4 -1.28774e-15 0)
(1.4 -1.26877e-15 0)
(1.4 -9.68937e-16 0)
(1.4 -9.23642e-16 0)
(1.4 -8.01593e-16 0)
(1.4 -6.94343e-16 0)
(1.4 -6.19033e-16 0)
(1.4 -4.60031e-16 0)
(1.4 -4.23653e-16 0)
(1.4 -5.60799e-16 0)
(1.4 -1.0688e-15 0)
(1.4 -1.07806e-15 0)
(1.4 -1.63057e-15 0)
(1.4 -1.80735e-15 0)
(1.4 -1.17585e-15 0)
(1.4 -8.6141e-16 0)
(1.4 -7.42462e-16 0)
(1.4 -6.10694e-16 0)
(1.4 -6.17355e-16 0)
(1.4 -8.23682e-16 0)
(1.4 -1.25482e-15 0)
(1.4 -1.38256e-15 0)
(1.4 -1.56543e-15 0)
(1.4 -1.73173e-15 0)
(1.4 -1.68087e-15 0)
(1.4 -1.49361e-15 0)
(1.4 -1.28068e-15 0)
(1.4 -1.11237e-15 0)
(1.4 -8.63836e-16 0)
(1.4 -8.09402e-16 0)
(1.4 -7.3195e-16 0)
(1.4 -1.04534e-15 0)
(1.4 -1.19488e-15 0)
(1.4 -1.5179e-15 0)
(1.4 -1.51426e-15 0)
(1.4 -1.59826e-15 0)
(1.4 -1.73385e-15 0)
(1.4 -1.6871e-15 0)
(1.4 -1.34993e-15 0)
(1.4 -1.02964e-15 0)
(1.4 -7.65531e-16 0)
(1.4 -6.23135e-16 0)
(1.4 -4.18092e-16 0)
(1.4 4.17702e-16 0)
(1.4 8.14054e-16 0)
(1.4 9.87257e-16 0)
(1.4 8.84698e-16 0)
(1.4 7.18661e-16 0)
(1.4 4.91996e-16 0)
(1.4 6.91367e-16 0)
(1.4 7.074e-16 0)
(1.4 7.96292e-16 0)
(1.4 9.56798e-16 0)
(1.4 1.06093e-15 0)
(1.4 9.87741e-16 0)
(1.4 1.11557e-15 0)
(1.4 1.12222e-15 0)
(1.4 1.06155e-15 0)
(1.4 1.12709e-15 0)
(1.4 1.25517e-15 0)
(1.4 1.89116e-15 0)
(1.4 2.61826e-15 0)
(1.4 3.02524e-15 0)
(1.4 3.02269e-15 0)
(1.4 2.64915e-15 0)
(1.4 2.26215e-15 0)
(1.4 1.93587e-15 0)
(1.4 1.09221e-15 0)
(1.4 3.42303e-16 0)
(1.4 -3.59418e-16 0)
(1.4 -2.17184e-15 0)
(1.4 -2.75925e-15 0)
(1.4 -2.905e-15 0)
(1.4 -2.97047e-15 0)
(1.4 -3.09363e-15 0)
(1.4 -3.02654e-15 0)
(1.4 -2.49112e-15 0)
(1.4 -2.23986e-15 0)
(1.4 -6.08401e-16 0)
(1.4 -8.00632e-16 0)
(1.4 -7.20375e-16 0)
(1.4 -4.7481e-16 0)
(1.4 -4.87842e-16 0)
(1.4 -5.63574e-16 0)
(1.4 -9.12645e-16 0)
(1.4 -1.05772e-15 0)
(1.4 -1.14549e-15 0)
(1.4 -1.16561e-15 0)
(1.4 -1.05631e-15 0)
(1.4 -1.07039e-15 0)
(1.4 -1.0377e-15 0)
(1.4 -8.35121e-16 0)
(1.4 -8.25565e-16 0)
(1.4 -9.16711e-16 0)
(1.4 -1.10523e-15 0)
(1.4 -1.01175e-15 0)
(1.4 -1.0887e-15 0)
(1.4 -1.27605e-15 0)
(1.4 -1.49526e-15 0)
(1.4 -1.61878e-15 0)
(1.4 -2.03506e-15 0)
(1.4 -2.53081e-15 0)
(1.4 -3.26181e-15 0)
(1.4 -3.58687e-15 0)
(1.4 -3.68556e-15 0)
(1.4 -3.63625e-15 0)
(1.4 -3.52993e-15 0)
(1.4 -3.37039e-15 0)
(1.4 -3.47246e-15 0)
(1.4 -3.53179e-15 0)
(1.4 -3.49705e-15 0)
(1.4 -3.55297e-15 0)
(1.4 -3.33068e-15 0)
(1.4 -2.7448e-15 0)
(1.4 -2.43383e-15 0)
(1.4 -2.3371e-15 0)
(1.4 -2.32209e-15 0)
(1.4 -2.29246e-15 0)
(1.4 -2.19722e-15 0)
(1.4 -1.70761e-15 0)
(1.4 -1.43133e-15 0)
(1.4 -1.34201e-15 0)
(1.4 -1.27256e-15 0)
(1.4 -1.29866e-15 0)
(1.4 -1.33591e-15 0)
(1.4 -1.39271e-15 0)
(1.4 -1.35327e-15 0)
(1.4 -1.5173e-15 0)
(1.4 -1.66575e-15 0)
(1.4 -1.76433e-15 0)
(1.4 -2.05632e-15 0)
(1.4 -2.17532e-15 0)
(1.4 -1.91762e-15 0)
(1.4 -1.891e-15 0)
(1.4 -1.82515e-15 0)
(1.4 -1.74034e-15 0)
(1.4 -1.96955e-15 0)
(1.4 -1.51989e-15 0)
(1.4 -1.36722e-15 0)
(1.4 -1.28725e-15 0)
(1.4 -1.30232e-15 0)
(1.4 -1.31414e-15 0)
(1.4 -1.46738e-15 0)
(1.4 -1.51684e-15 0)
(1.4 -1.67548e-15 0)
(1.4 -2.15424e-15 0)
(1.4 -2.49678e-15 0)
(1.4 -2.71083e-15 0)
(1.4 -2.96559e-15 0)
(1.4 -3.37618e-15 0)
(1.4 -3.3421e-15 0)
(1.4 -3.17153e-15 0)
(1.4 -2.95952e-15 0)
(1.4 -2.45706e-15 0)
(1.4 -2.45004e-15 0)
(1.4 -1.94053e-15 0)
(1.4 -1.2779e-15 0)
(1.4 -1.0146e-15 0)
(1.4 -8.56631e-16 0)
(1.4 -7.26364e-16 0)
(1.4 -8.66844e-16 0)
(1.4 -1.26751e-15 0)
(1.4 -1.43014e-15 0)
(1.4 -1.30042e-15 0)
(1.4 -9.82233e-16 0)
(1.4 -7.50755e-16 0)
(1.4 -1.64643e-16 0)
(1.4 1.04078e-16 0)
(1.4 1.53389e-16 0)
(1.4 6.82251e-16 0)
(1.4 8.30367e-16 0)
(1.4 8.75381e-16 0)
(1.4 8.57192e-16 0)
(1.4 8.46935e-16 0)
(1.4 8.51594e-16 0)
(1.4 9.73819e-16 0)
(1.4 1.09538e-15 0)
(1.4 1.27244e-15 0)
(1.4 1.49041e-15 0)
(1.4 1.58943e-15 0)
(1.4 1.64022e-15 0)
(1.4 1.83337e-15 0)
(1.4 1.58693e-15 0)
(1.4 3.76206e-16 0)
(1.4 -2.72838e-17 0)
(1.4 -4.33869e-16 0)
(1.4 -8.33973e-16 0)
(1.4 -1.27986e-15 0)
(1.4 -1.62935e-15 0)
(1.4 -2.3221e-15 0)
(1.4 -2.81594e-15 0)
(1.4 -3.05563e-15 0)
(1.4 -3.22324e-15 0)
(1.4 -3.27803e-15 0)
(1.4 -3.24608e-15 0)
(1.4 -3.18728e-15 0)
(1.4 -3.06339e-15 0)
(1.4 -2.9869e-15 0)
(1.4 -3.32479e-16 0)
(1.4 -3.94689e-16 0)
(1.4 -3.8239e-16 0)
(1.4 -3.81914e-16 0)
(1.4 -2.47991e-16 0)
(1.4 -9.70061e-17 0)
(1.4 6.13335e-17 0)
(1.4 1.98194e-16 0)
(1.4 2.10269e-16 0)
(1.4 5.14854e-17 0)
(1.4 4.62178e-17 0)
(1.4 1.11253e-16 0)
(1.4 7.89674e-17 0)
(1.4 1.1885e-16 0)
(1.4 2.25523e-16 0)
(1.4 3.81332e-16 0)
(1.4 7.60484e-16 0)
(1.4 6.03871e-16 0)
(1.4 3.22919e-16 0)
(1.4 8.97979e-17 0)
(1.4 -1.27446e-16 0)
(1.4 -7.10303e-16 0)
(1.4 -1.09354e-15 0)
(1.4 -1.48824e-15 0)
(1.4 -1.78587e-15 0)
(1.4 -2.05928e-15 0)
(1.4 -2.21437e-15 0)
(1.4 -2.39804e-15 0)
(1.4 -2.41538e-15 0)
(1.4 -2.48837e-15 0)
(1.4 -2.41796e-15 0)
(1.4 -2.36674e-15 0)
(1.4 -2.25073e-15 0)
(1.4 -2.25278e-15 0)
(1.4 -2.57054e-15 0)
(1.4 -3.26558e-15 0)
(1.4 -3.29009e-15 0)
(1.4 -3.29078e-15 0)
(1.4 -3.21124e-15 0)
(1.4 -2.6976e-15 0)
(1.4 -2.54845e-15 0)
(1.4 -2.39989e-15 0)
(1.4 -2.53745e-15 0)
(1.4 -2.39159e-15 0)
(1.4 -2.19e-15 0)
(1.4 -2.147e-15 0)
(1.4 -2.21548e-15 0)
(1.4 -2.32963e-15 0)
(1.4 -2.48894e-15 0)
(1.4 -2.68473e-15 0)
(1.4 -2.70792e-15 0)
(1.4 -2.71868e-15 0)
(1.4 -2.78304e-15 0)
(1.4 -2.99662e-15 0)
(1.4 -3.02176e-15 0)
(1.4 -2.97669e-15 0)
(1.4 -3.04687e-15 0)
(1.4 -3.09695e-15 0)
(1.4 -3.16823e-15 0)
(1.4 -3.00247e-15 0)
(1.4 -3.05455e-15 0)
(1.4 -3.00011e-15 0)
(1.4 -2.80749e-15 0)
(1.4 -2.64595e-15 0)
(1.4 -2.27563e-15 0)
(1.4 -1.95672e-15 0)
(1.4 -1.82601e-15 0)
(1.4 -1.91669e-15 0)
(1.4 -1.97728e-15 0)
(1.4 -1.99791e-15 0)
(1.4 -1.869e-15 0)
(1.4 -1.58577e-15 0)
(1.4 -1.67642e-15 0)
(1.4 -1.62447e-15 0)
(1.4 -1.20377e-15 0)
(1.4 -8.52989e-16 0)
(1.4 -5.29566e-16 0)
(1.4 -1.77335e-16 0)
(1.4 8.01684e-17 0)
(1.4 3.80587e-16 0)
(1.4 7.67518e-16 0)
(1.4 9.48614e-16 0)
(1.4 1.15377e-15 0)
(1.4 1.27249e-15 0)
(1.4 1.23223e-15 0)
(1.4 1.19642e-15 0)
(1.4 1.55842e-15 0)
(1.4 1.49926e-15 0)
(1.4 1.36178e-15 0)
(1.4 1.42342e-15 0)
(1.4 1.28515e-15 0)
(1.4 1.13115e-15 0)
(1.4 9.21252e-16 0)
(1.4 3.54814e-16 0)
(1.4 2.07949e-16 0)
(1.4 3.08853e-16 0)
(1.4 4.5312e-16 0)
(1.4 6.0695e-16 0)
(1.4 8.99271e-16 0)
(1.4 9.81921e-16 0)
(1.4 1.50821e-15 0)
(1.4 1.25073e-15 0)
(1.4 9.3358e-16 0)
(1.4 3.62646e-16 0)
(1.4 1.98956e-16 0)
(1.4 -6.21349e-16 0)
(1.4 -2.01289e-15 0)
(1.4 -2.23424e-15 0)
(1.4 -2.56593e-15 0)
(1.4 -2.66549e-15 0)
(1.4 -2.7031e-15 0)
(1.4 -2.65775e-15 0)
(1.4 -2.6056e-15 0)
(1.4 -2.47026e-15 0)
(1.4 -2.52496e-15 0)
(1.4 -2.53187e-15 0)
(1.4 -2.17366e-15 0)
(1.4 -1.84406e-15 0)
(1.4 -1.53308e-15 0)
(1.4 -1.22905e-15 0)
(1.4 -1.65494e-15 0)
(1.4 -1.50632e-15 0)
(1.4 -1.37661e-15 0)
(1.4 -1.275e-15 0)
(1.4 -1.03972e-15 0)
(1.4 -7.62167e-16 0)
(1.4 -4.33603e-16 0)
(1.4 -1.48084e-16 0)
(1.4 1.35986e-16 0)
(1.4 5.65037e-16 0)
(1.4 6.84773e-16 0)
(1.4 7.18493e-16 0)
(1.4 6.13779e-16 0)
(1.4 3.3693e-17 0)
(1.4 -1.90846e-16 0)
(1.4 -2.64832e-16 0)
(1.4 -3.04013e-16 0)
(1.4 -3.53851e-16 0)
(1.4 -5.51929e-16 0)
(1.4 -5.90094e-16 0)
(1.4 -6.75934e-16 0)
(1.4 -6.99868e-16 0)
(1.4 -6.52382e-16 0)
(1.4 -6.28336e-16 0)
(1.4 -6.31465e-16 0)
(1.4 -7.38438e-16 0)
(1.4 -9.00282e-16 0)
(1.4 -1.28991e-15 0)
(1.4 -1.41127e-15 0)
(1.4 -1.437e-15 0)
(1.4 -1.33586e-15 0)
(1.4 -1.19157e-15 0)
(1.4 -1.28815e-15 0)
(1.4 -1.12269e-15 0)
(1.4 -1.20106e-15 0)
(1.4 -9.66743e-16 0)
(1.4 -9.65507e-16 0)
(1.4 -1.19847e-15 0)
(1.4 -1.62692e-15 0)
(1.4 -1.82944e-15 0)
(1.4 -2.12018e-15 0)
(1.4 -2.63013e-15 0)
(1.4 -2.91445e-15 0)
(1.4 -3.05394e-15 0)
(1.4 -3.06263e-15 0)
(1.4 -2.85086e-15 0)
(1.4 -2.59318e-15 0)
(1.4 -2.37574e-15 0)
(1.4 -2.32647e-15 0)
(1.4 -1.86159e-15 0)
(1.4 -1.58132e-15 0)
(1.4 -1.4491e-15 0)
(1.4 -1.32555e-15 0)
(1.4 -1.19127e-15 0)
(1.4 -1.48256e-15 0)
(1.4 -1.59726e-15 0)
(1.4 -1.61623e-15 0)
(1.4 -1.5397e-15 0)
(1.4 -1.58146e-15 0)
(1.4 -1.81035e-15 0)
(1.4 -1.93639e-15 0)
(1.4 -1.91305e-15 0)
(1.4 -1.88593e-15 0)
(1.4 -1.76438e-15 0)
(1.4 -1.35563e-15 0)
(1.4 -1.14767e-15 0)
(1.4 -6.43099e-16 0)
(1.4 -5.07595e-16 0)
(1.4 1.18139e-16 0)
(1.4 4.95996e-16 0)
(1.4 7.00969e-16 0)
(1.4 7.84649e-16 0)
(1.4 9.51795e-16 0)
(1.4 1.05462e-15 0)
(1.4 1.09567e-15 0)
(1.4 1.11648e-15 0)
(1.4 1.22442e-15 0)
(1.4 1.14788e-15 0)
(1.4 1.26914e-15 0)
(1.4 1.52858e-15 0)
(1.4 1.89385e-15 0)
(1.4 2.28844e-15 0)
(1.4 2.66213e-15 0)
(1.4 2.93078e-15 0)
(1.4 3.3058e-15 0)
(1.4 3.81091e-15 0)
(1.4 4.09795e-15 0)
(1.4 4.16218e-15 0)
(1.4 4.23523e-15 0)
(1.4 3.87318e-15 0)
(1.4 3.41971e-15 0)
(1.4 2.59928e-15 0)
(1.4 2.15287e-15 0)
(1.4 1.84358e-15 0)
(1.4 1.18608e-15 0)
(1.4 1.01291e-15 0)
(1.4 9.17803e-16 0)
(1.4 5.93588e-16 0)
(1.4 4.73861e-16 0)
(1.4 3.84464e-16 0)
(1.4 -1.22514e-17 0)
(1.4 -3.06486e-16 0)
(1.4 -5.0251e-16 0)
(1.4 -7.84854e-16 0)
(1.4 -1.16019e-15 0)
(1.4 -1.86216e-15 0)
(1.4 -2.23239e-15 0)
(1.4 -2.31721e-15 0)
(1.4 -2.69588e-15 0)
(1.4 -2.66184e-15 0)
(1.4 -2.54642e-15 0)
(1.4 -2.07052e-15 0)
(1.4 -1.38587e-15 0)
(1.4 -9.81623e-16 0)
(1.4 -4.49298e-16 0)
(1.4 -3.60981e-16 0)
(1.4 -3.97419e-16 0)
(1.4 -2.79315e-16 0)
(1.4 -2.72463e-16 0)
(1.4 -6.53769e-17 0)
(1.4 -2.53755e-15 0)
(1.4 -2.36357e-15 0)
(1.4 -2.05387e-15 0)
(1.4 -1.87005e-15 0)
(1.4 -1.75281e-15 0)
(1.4 -1.60648e-15 0)
(1.4 -1.69852e-15 0)
(1.4 -1.67819e-15 0)
(1.4 -1.707e-15 0)
(1.4 -1.42802e-15 0)
(1.4 -1.21903e-15 0)
(1.4 -1.15733e-15 0)
(1.4 -1.04572e-15 0)
(1.4 -1.12678e-15 0)
(1.4 -1.13391e-15 0)
(1.4 -1.14097e-15 0)
(1.4 -1.19102e-15 0)
(1.4 -1.24201e-15 0)
(1.4 -1.17757e-15 0)
(1.4 -1.21302e-15 0)
(1.4 -1.25653e-15 0)
(1.4 -1.32142e-15 0)
(1.4 -1.33044e-15 0)
(1.4 -1.31248e-15 0)
(1.4 -1.24653e-15 0)
(1.4 -1.28756e-15 0)
(1.4 -9.67471e-16 0)
(1.4 -6.87949e-16 0)
(1.4 -5.33922e-16 0)
(1.4 -3.1311e-16 0)
(1.4 -1.33715e-16 0)
(1.4 -2.19872e-16 0)
(1.4 -2.69615e-16 0)
(1.4 -1.85165e-16 0)
(1.4 1.38734e-16 0)
(1.4 3.37802e-16 0)
(1.4 3.34156e-16 0)
(1.4 1.97262e-16 0)
(1.4 -2.89942e-17 0)
(1.4 -4.14385e-16 0)
(1.4 -1.05712e-15 0)
(1.4 -1.86358e-15 0)
(1.4 -2.37375e-15 0)
(1.4 -2.46895e-15 0)
(1.4 -2.55152e-15 0)
(1.4 -2.47366e-15 0)
(1.4 -2.01621e-15 0)
(1.4 -1.68514e-15 0)
(1.4 -1.16954e-15 0)
(1.4 -4.78412e-16 0)
(1.4 -3.0701e-16 0)
(1.4 4.54052e-16 0)
(1.4 7.35107e-16 0)
(1.4 9.89635e-16 0)
(1.4 1.00381e-15 0)
(1.4 9.6259e-16 0)
(1.4 9.12015e-16 0)
(1.4 7.89125e-16 0)
(1.4 8.35807e-16 0)
(1.4 7.7477e-16 0)
(1.4 7.81159e-16 0)
(1.4 9.62328e-16 0)
(1.4 1.04743e-15 0)
(1.4 1.27737e-15 0)
(1.4 1.6244e-15 0)
(1.4 1.69729e-15 0)
(1.4 1.81455e-15 0)
(1.4 1.99218e-15 0)
(1.4 2.15569e-15 0)
(1.4 2.33442e-15 0)
(1.4 2.37387e-15 0)
(1.4 2.35819e-15 0)
(1.4 2.3647e-15 0)
(1.4 2.35061e-15 0)
(1.4 2.33612e-15 0)
(1.4 2.17738e-15 0)
(1.4 1.7201e-15 0)
(1.4 1.57782e-15 0)
(1.4 1.47171e-15 0)
(1.4 1.42011e-15 0)
(1.4 1.3482e-15 0)
(1.4 1.23853e-15 0)
(1.4 1.27641e-15 0)
(1.4 1.46636e-15 0)
(1.4 1.64977e-15 0)
(1.4 1.69037e-15 0)
(1.4 1.72199e-15 0)
(1.4 2.18182e-15 0)
(1.4 2.52109e-15 0)
(1.4 3.15637e-15 0)
(1.4 3.56907e-15 0)
(1.4 3.5771e-15 0)
(1.4 3.60352e-15 0)
(1.4 2.98576e-15 0)
(1.4 2.2673e-15 0)
(1.4 1.66465e-15 0)
(1.4 1.40518e-15 0)
(1.4 7.93339e-16 0)
(1.4 5.14624e-16 0)
(1.4 2.1976e-16 0)
(1.4 -1.76734e-16 0)
(1.4 -3.1384e-16 0)
(1.4 -5.21325e-16 0)
(1.4 -7.70944e-16 0)
(1.4 -1.03707e-15 0)
(1.4 -1.36371e-15 0)
(1.4 -1.35637e-15 0)
(1.4 -1.53485e-15 0)
(1.4 -1.39069e-15 0)
(1.4 -1.1887e-15 0)
(1.4 -7.82363e-16 0)
(1.4 -5.93764e-16 0)
(1.4 -3.86579e-16 0)
(1.4 -2.69886e-16 0)
(1.4 -2.23467e-16 0)
(1.4 -1.2976e-16 0)
(1.4 -1.13792e-16 0)
(1.4 -1.76359e-16 0)
(1.4 -2.9585e-16 0)
(1.4 -3.91689e-16 0)
(1.4 -2.18881e-15 0)
(1.4 -2.1438e-15 0)
(1.4 -2.11918e-15 0)
(1.4 -2.14496e-15 0)
(1.4 -2.24744e-15 0)
(1.4 -2.28344e-15 0)
(1.4 -2.28245e-15 0)
(1.4 -2.66101e-15 0)
(1.4 -2.81031e-15 0)
(1.4 -3.37574e-15 0)
(1.4 -3.53998e-15 0)
(1.4 -3.48675e-15 0)
(1.4 -3.43734e-15 0)
(1.4 -2.81879e-15 0)
(1.4 -2.41248e-15 0)
(1.4 -2.00218e-15 0)
(1.4 -1.79822e-15 0)
(1.4 -1.77814e-15 0)
(1.4 -1.80461e-15 0)
(1.4 -1.85337e-15 0)
(1.4 -1.91528e-15 0)
(1.4 -2.05479e-15 0)
(1.4 -2.21299e-15 0)
(1.4 -2.18658e-15 0)
(1.4 -2.06758e-15 0)
(1.4 -1.72574e-15 0)
(1.4 -1.2815e-15 0)
(1.4 -6.27415e-16 0)
(1.4 -1.62409e-17 0)
(1.4 2.55552e-16 0)
(1.4 1.91633e-16 0)
(1.4 1.0625e-16 0)
(1.4 1.03512e-19 0)
(1.4 1.78241e-17 0)
(1.4 1.25034e-16 0)
(1.4 7.87461e-18 0)
(1.4 8.36885e-17 0)
(1.4 3.03817e-17 0)
(1.4 -1.75122e-16 0)
(1.4 -6.21708e-16 0)
(1.4 -1.30564e-15 0)
(1.4 -1.64887e-15 0)
(1.4 -1.85472e-15 0)
(1.4 -2.11514e-15 0)
(1.4 -1.90136e-15 0)
(1.4 -1.77314e-15 0)
(1.4 -1.42357e-15 0)
(1.4 -1.04219e-15 0)
(1.4 -1.03879e-15 0)
(1.4 -4.80666e-16 0)
(1.4 -1.49001e-16 0)
(1.4 -1.13763e-16 0)
(1.4 -6.06283e-17 0)