/*--------------------------------*- C++ -*----------------------------------*\
  =========                 |
  \\      /  F ield         | OpenFOAM: The Open Source CFD Toolbox
   \\    /   O peration     | Website:  https://openfoam.org
    \\  /    A nd           | Version:  7
     \\/     M anipulation  |
\*---------------------------------------------------------------------------*/
FoamFile
{
    version     2.0;
    format      ascii;
    class       surfaceScalarField;
    location    "1.435";
    object      phi;
}
// * * * * * * * * * * * * * * * * * * * * * * * * * * * * * * * * * * * * * //

dimensions      [0 3 -1 0 0 0 0];

internalField   nonuniform List<scalar> 
18389
(
-7.9731e-05
7.9731e-05
4.34605e-05
-4.34604e-05
-5.20444e-05
5.20444e-05
4.01749e-05
-4.01749e-05
-5.18284e-05
5.18285e-05
-4.00509e-05
4.00509e-05
-3.47259e-05
3.47259e-05
3.90672e-05
-3.90672e-05
-3.57288e-05
3.57288e-05
4.14962e-05
-4.14961e-05
4.51121e-05
-4.51121e-05
-3.46623e-05
3.46623e-05
-1.58738e-05
1.58738e-05
-4.28591e-05
4.28591e-05
4.34871e-05
-4.34871e-05
2.4551e-05
-2.4551e-05
1.9501e-05
-1.9501e-05
4.58961e-05
-4.58961e-05
4.59297e-05
-4.59297e-05
4.33301e-05
-4.33301e-05
-4.25792e-05
4.25792e-05
3.5657e-05
-3.5657e-05
4.29927e-05
-4.29927e-05
-5.84587e-05
5.84587e-05
-4.97184e-05
4.97184e-05
-4.18098e-05
4.18098e-05
-4.45457e-05
4.45457e-05
4.56278e-05
-4.56277e-05
4.58597e-05
-4.58597e-05
4.41469e-05
-4.41469e-05
-4.13466e-05
4.13466e-05
-6.30738e-05
6.30738e-05
4.31166e-05
-4.31166e-05
-4.47503e-05
4.47503e-05
4.08602e-05
-4.08601e-05
4.67035e-05
-4.67035e-05
-4.55514e-05
4.55514e-05
5.35742e-05
-5.35742e-05
-5.8916e-05
5.8916e-05
3.78765e-05
-3.78765e-05
4.48725e-05
-4.48725e-05
4.5383e-05
-4.5383e-05
-4.10138e-05
4.10138e-05
4.49051e-05
-4.49051e-05
4.58763e-05
-4.58762e-05
-4.58591e-05
4.58591e-05
-4.586e-05
4.586e-05
-4.06688e-05
4.06689e-05
-4.58903e-05
4.58903e-05
4.59433e-05
-4.59433e-05
4.59573e-05
-4.59573e-05
4.46214e-05
-4.46214e-05
3.77322e-05
-3.77322e-05
-4.57699e-05
4.57699e-05
-5.55463e-05
5.55463e-05
-4.38137e-05
4.38137e-05
4.57525e-05
-4.57525e-05
-4.59942e-05
4.59942e-05
4.32275e-05
-4.32274e-05
-5.93197e-05
5.93197e-05
-4.71472e-05
4.71472e-05
4.96052e-05
-4.96052e-05
4.57371e-05
-4.57371e-05
-1.23348e-05
1.23348e-05
4.57766e-05
-4.57766e-05
4.15161e-05
-4.15161e-05
5.12131e-05
-5.12131e-05
-4.58704e-05
4.58704e-05
4.23189e-05
-4.23189e-05
3.16318e-05
-3.16318e-05
3.1184e-06
-3.1184e-06
-4.41273e-05
4.41273e-05
3.28686e-05
-3.28686e-05
-3.65722e-05
3.65722e-05
3.97659e-05
-3.97659e-05
2.66255e-05
-2.66255e-05
2.61997e-05
-2.61997e-05
2.70488e-05
-2.70488e-05
2.43918e-05
-2.43918e-05
1.34486e-05
-1.34486e-05
0.00107576
-0.000882504
-0.000193255
0.00546704
-0.00207616
-0.00339088
-0.00594624
0.00594619
5.22466e-08
0.00335399
-0.00259788
-0.000756116
-0.00154356
0.00176148
-0.000217919
-0.00676591
0.00284617
0.00391976
0.0012155
0.00425154
0.00725586
-0.00587606
-0.00137981
0.00116576
-0.00191358
0.00074782
-0.000870311
-0.000673249
-0.00144235
-0.000314624
0.00175698
0.000159523
-2.52548e-06
-0.000156998
0.000778409
-0.00222076
-0.00360328
0.000123284
0.00347999
-0.00320227
0.00289109
0.000311187
-0.00571962
0.00726895
-0.00154933
-0.0037093
0.00289656
0.000812732
-0.000564401
-0.00303888
-0.00174632
0.00238758
-0.000641256
-0.000465349
0.00255843
-0.00209308
-0.00160891
0.00110905
0.000499855
0.000583529
0.000581831
-0.00160223
-0.00516369
0.00123356
-0.00179065
0.000557096
0.00578209
-0.00386236
-0.00191972
-0.000654814
0.0033095
-0.00265469
-0.00583447
0.00583564
0.000487133
0.00127435
-0.00634471
0.000972509
0.00537221
0.00232976
-0.00298458
-0.00379001
0.00311343
0.000676576
0.00214795
-0.00422411
0.0010885
-0.000203451
-0.000885047
0.00150253
-0.00128886
-0.000213669
-0.00280109
-0.00040117
0.00535189
-0.00535246
0.000367858
0.00113467
0.00522927
-0.00133734
-0.00389193
0.0020011
-0.000835339
0.00308567
0.00190871
-0.00499437
-0.000722344
-0.00306767
-8.8547e-05
-0.000155338
0.000243885
0.00393554
0.00332033
0.00117334
-0.00489783
0.00372449
0.00162864
0.00360062
-0.00498117
0.00632115
-0.00133999
-0.00113167
-0.000594947
0.00172662
0.00133832
0.00201567
0.000135293
0.000103627
-0.00023892
0.00502284
-0.0033942
0.00646015
-0.000843135
-0.00561701
0.00322138
-0.0026546
-0.000566779
0.00223169
0.000442385
-0.00267408
0.00295518
-0.000723485
0.00650355
-0.0053983
-0.00110524
0.000511825
-0.00387795
0.00336613
7.00692e-05
0.00639008
0.00481677
-0.00430494
-0.000535788
0.00105936
-0.000523571
-0.00175748
0.000625806
0.00191712
0.00224905
-0.00416616
0.000253446
-0.000333589
8.01429e-05
-0.00127321
-0.00284496
0.00411818
-2.65273e-05
0.00653008
-0.00281811
0.00229011
0.000527992
0.00038737
-1.22595e-05
-0.00037511
-0.00569227
-0.000253966
0.00187393
-0.0013868
0.000827828
0.00495426
0.00089242
0.000183343
0.00263051
-0.00645631
0.0038258
-0.0011202
0.000584413
0.00263732
-0.00391053
0.00619725
-0.0022617
0.0010921
0.00117728
-0.000786875
0.00102636
-0.00023949
-0.00110985
-0.000499054
0.00189979
0.00132159
-0.000595862
0.00142982
-0.00123772
-0.000192102
-0.0026545
0.00198508
0.000669416
0.00116709
0.000262728
0.0011451
-0.00498736
0.00384226
-0.00476451
0.00142524
0.00333926
-0.0045543
0.00611794
-0.00156364
-0.00506255
8.13896e-05
-0.00201676
-0.000637737
-0.000213839
0.000125292
-0.00123286
0.00465594
-0.00342308
-0.00122824
-0.000685338
0.000103315
-0.000192025
8.87105e-05
0.000126294
-2.29796e-05
-0.001266
0.00464547
-0.00337947
-0.000156017
2.44423e-05
0.000131575
-0.00556895
0.0017066
-0.00118815
-0.000569321
-0.00044951
-1.89428e-05
0.000468452
-0.000543385
9.3874e-05
0.00101394
7.45501e-05
-0.00180705
0.000618896
-0.000150222
1.70701e-05
0.000133152
0.00136799
-0.00234447
0.000976479
0.000271104
-0.000135811
-0.00392558
0.00514109
-0.00245614
0.000709827
-9.46146e-05
-0.000428249
0.000522864
0.00568648
-0.00217012
-0.00351636
7.62996e-05
0.00250762
-0.00258392
0.00447786
-0.00562596
0.00114811
0.00263379
0.00305268
0.0029129
-0.00283661
-0.00616953
0.000449909
-0.00647424
0.00363021
0.00284403
0.00229422
0.00390303
-0.00439286
0.00138569
0.00300717
0.00150276
-0.000269201
-0.00102802
0.00402254
-0.00299452
0.00463972
-0.00162732
-0.00301241
-0.0046123
0.00374692
0.000865387
0.00369352
-0.00503087
5.86937e-05
0.000328676
-0.00136977
0.00584764
-9.3436e-05
0.00214911
-0.00205567
-0.0020631
0.0026037
0.000179258
-0.00278295
-0.00127742
0.00264541
-0.00065391
0.00325761
0.00164016
-0.00173359
0.000916803
0.00397255
-0.00488936
-0.0050423
0.00384381
0.00119849
0.00255188
-0.00359409
0.00104222
-0.00334149
0.00412069
-0.0007792
0.000332729
-0.00367422
-0.000870911
0.000870911
-0.000448515
0.0003539
-0.000126981
-0.000973468
0.00110045
0.00507033
-0.0018438
-0.00322652
-0.00243308
-0.000368025
0.0029002
0.00015775
1.65518e-05
-0.000174302
-0.00146857
0.0011222
0.000346369
-0.000140706
-0.00490159
0.005068
-0.00389466
0.000259742
-0.000100219
0.00444554
0.000577302
0.00406759
-0.0015157
0.000164837
-7.08764e-06
-0.00633008
-0.00098023
-0.000826821
0.00430062
-0.00190525
-0.00239537
0.00275578
0.00154485
0.0010777
-0.00563199
-0.00225474
-0.000563366
-0.00111872
-0.00095934
0.00207806
3.86998e-05
-0.00272162
0.00268292
-0.00235718
0.00123846
-0.00221812
0.0053038
-0.0046247
0.0016085
0.0030162
0.00254632
0.000669942
-0.00033427
-0.000335672
-0.00601398
0.000583115
0.00543086
-0.00418644
0.00583393
-0.00164749
0.00182575
0.0016291
-0.00345486
-0.00166881
0.000899412
0.000769393
-0.00271538
0.00207883
0.000636555
0.00109687
0.000777065
0.000247197
-0.000328939
8.17435e-05
0.00491383
-0.00399703
-0.00638759
0.00557595
0.000811645
-0.00479831
-0.00167593
0.00334102
0.000653602
-0.00399462
0.000153921
-0.000162112
8.19134e-06
0.000590568
-0.00012534
-0.000465227
-0.00451852
0.00261328
0.000372458
-0.000559113
0.000186655
5.53492e-05
-0.000926262
-0.00257571
0.00448442
-0.00530526
-0.000323315
0.00562858
0.000204307
0.000180025
-0.000384331
0.000618897
-0.000618897
0.00168376
-0.0007303
-0.00210971
0.00180882
0.000300886
0.00440543
-0.00301975
-0.000162275
6.25776e-06
-0.00119453
0.00124988
0.000725753
0.00127535
0.00234939
-0.000270557
-0.00402061
-0.00128465
0.00111315
-0.00499111
0.00321267
-0.00447867
0.000836515
-0.00213491
0.0012984
0.0033588
-0.00459167
-0.00271189
-0.00180663
-0.00483682
0.00469611
-0.000675691
-0.00533828
-0.00516013
0.00150022
-0.0014523
-4.79178e-05
0.00222909
0.000120298
-0.00601388
0.00204823
0.00396565
-0.00121933
0.000525995
0.000693335
0.00146002
0.00294542
-0.00462601
-0.00101732
0.00564334
-0.000212784
0.000138488
7.42954e-05
-0.00551591
0.00132947
0.00375304
-0.0049369
0.00118387
-0.00149067
-0.000619043
-0.000536673
-0.000637501
0.000138369
-0.000203835
6.54646e-05
0.0050061
-0.00386101
-0.00130135
0.00512604
-0.0038247
-0.000393909
-0.000800623
-0.00586099
0.000439066
0.00539657
-0.00617015
0.00456792
-0.000923237
-0.00546436
-0.0010918
-0.000376769
-0.00181565
0.00285667
-0.00104102
-0.0004192
0.000322091
9.71095e-05
-0.00173203
0.00141741
0.00159645
-9.62279e-05
0.000828594
-3.67519e-05
-0.00169528
0.00279591
0.00121869
-0.00303433
0.00604697
-0.000471019
0.00528108
7.0809e-05
-0.00528238
0.00439258
0.00114239
-0.00553498
0.000556435
-0.00076887
0.000212435
-4.04739e-05
-0.000408041
-2.07516e-05
0.00606771
-0.000162225
0.000156869
5.35676e-06
0.000133299
2.06213e-05
0.00253451
-0.00335907
0.000824556
-0.00192586
0.000742436
0.00118343
0.00792248
-0.00345633
-0.00446614
0.00117173
0.00126268
-0.00243441
0.000105632
-0.000175582
6.99501e-05
-0.00080587
0.00133186
0.00116717
0.00318039
-0.00434756
-0.0056141
0.000165418
0.00544868
-0.0040214
0.00299338
0.00173497
0.00479511
0.00458069
0.00334177
-2.24892e-05
0.000188716
-0.000166227
-0.00131472
0.0044006
-0.00308587
0.000301262
-0.000341736
-0.000131295
-8.14886e-05
0.00410105
-0.00227531
0.00478389
-0.00503186
0.000247971
-0.00325135
0.00609959
-0.00284824
0.00252603
0.00157502
0.00577207
-0.000988181
-0.00140165
-0.00562045
0.00137217
0.00424829
0.00065463
0.000520697
-0.00117533
0.00126955
-0.000614916
0.000585345
-0.00111024
0.0005249
0.00110604
0.000276383
0.000393559
-0.000678285
0.00443133
0.00151576
-0.000393561
0.00355029
-0.00613999
0.00258971
0.00153204
-0.00258384
0.0010518
-0.00432589
0.00117166
0.00315423
0.0029109
-0.00422563
-0.00491404
-0.00125611
-0.00410206
0.00127118
0.00283088
0.00125408
0.00314651
-0.00326436
-0.000837712
0.00222594
-0.00105422
-0.000686411
-0.00252739
0.0032138
0.00240365
0.000623188
-0.00302684
-0.00158773
0.00119882
0.000388905
0.000269998
0.00148224
-0.00196401
0.000481774
-0.000110853
-0.000222737
-0.00026434
0.000153487
-0.00435551
-0.00025679
-0.000292117
0.00117012
-0.000878006
0.0043513
-0.00464603
0.000294732
-8.842e-05
0.000117767
-2.93467e-05
0.000976451
0.00338092
-0.00435737
-0.000157
6.85808e-05
-0.00475278
0.000711382
0.0040414
-0.000718236
0.000127799
0.000590435
5.93106e-05
-6.18361e-05
-0.000401468
0.000864667
-0.000347473
-0.000517195
-0.00603575
0.000637443
-0.00254967
-0.000128189
0.00267786
-0.00316831
0.00442239
0.00218082
-0.00108872
-0.00116719
-0.00116937
-5.88723e-05
-0.00351917
-0.00124533
0.00150411
-0.000399931
-0.00110418
0.0019184
0.00183917
-0.00375758
0.00505242
-0.00162208
-0.00343034
0.000793804
-0.00541981
-0.00137376
0.00300286
0.00196581
0.000776888
-0.0027427
-0.00349751
0.00447396
-0.000152906
2.68412e-06
0.000939015
-0.00443652
-0.0044975
-0.000148546
-0.000998257
-0.00461585
0.00463791
0.00149675
0.00355567
0.00416049
0.00114387
-0.00530436
3.6037e-05
5.92933e-05
-9.53303e-05
-0.00140251
0.00336832
0.00372071
0.00354824
-0.00139703
0.00236872
-0.000971684
-0.00248121
0.000464459
-0.000878419
0.000751437
-0.000208572
0.000412879
-0.000217221
0.00169946
0.00376317
-0.00184477
-0.0010661
-0.000602708
-0.000107143
-0.000157197
0.0035504
-0.00163327
-0.00240372
0.00465277
0.000674532
-0.00309589
0.00242136
0.000633801
0.000761908
-0.00105403
0.00209919
-0.00131968
-0.00327334
0.00459301
-0.00218358
0.00481409
-0.000554298
0.00344538
0.00023788
-0.00022081
-0.00236232
0.000965304
0.00233324
-0.00387154
0.00153831
-0.00120011
5.72505e-05
-2.12136e-05
0.00214598
-0.00279617
0.000650198
-0.00116642
-0.000421302
-0.00353471
0.00450722
0.00119887
0.00167147
-0.00287034
-0.00168827
0.00366516
-0.0019769
0.00424314
-0.000862218
0.000234405
1.4117e-05
-0.000248522
-0.00372331
0.00203504
-0.00143539
0.00472559
-0.0032902
0.000878037
0.00130278
0.000176618
0.000442279
0.00025301
-0.000300691
4.76811e-05
0.00169952
0.000215332
-0.00191486
0.00301721
-0.00459657
0.00157937
-5.2789e-05
0.00037421
-0.000321421
0.0015602
-0.000361381
0.0013962
-0.000609921
-0.000786282
0.00282104
-0.00392889
0.00110785
0.00267818
-0.0037433
0.00106512
-0.00517884
0.00192749
0.00390948
-0.000892273
-0.000640501
-0.00237161
0.00301211
0.00140801
-0.00511834
0.00371034
0.00336053
-0.00145892
-0.00190161
-0.000678457
0.001723
-0.00104455
0.00477136
-0.00303639
-0.000687976
-0.00196662
-0.00598337
0.00514023
3.84117e-06
0.000121655
-0.000125496
-0.00157694
0.00119759
0.000379352
-0.00491077
0.00631257
-0.00140181
-0.00188228
0.000729601
0.00115268
0.000405911
0.00268614
-0.00208661
-0.000599528
0.00343573
0.000488868
-0.00392461
0.000126686
-2.10538e-05
0.00517161
0.000336589
-0.0055082
-0.0019405
0.00379751
-0.00185701
0.00277238
-0.000648057
-0.00212433
0.000462561
0.000402107
-0.000436671
0.0038724
0.00202623
-0.00396672
0.000699986
-0.000265744
-0.000434241
-0.000643943
1.82961e-05
0.000625649
-0.00315218
-0.00576628
0.00576597
-0.000274481
0.000949045
-0.000674565
-0.00228615
-0.000195071
-0.00455837
0.00323868
-0.000877789
0.00113677
0.00360772
-0.00501931
0.00141159
0.000410669
-0.00296033
0.00232909
-0.00244167
0.00011257
-0.00157141
0.00148227
8.91337e-05
-0.00120798
-0.000368957
-0.0033912
0.00342954
-0.00223067
0.000457258
0.000133309
-0.00173207
0.00105361
-0.0027982
0.000754116
0.00204409
0.000242429
-8.02389e-06
-0.0034777
0.00102415
0.00245355
-0.00144535
0.00560585
0.000339414
-0.00095256
0.000613147
0.0021144
0.000657982
-0.00127775
0.000304282
0.00110991
0.00121919
-0.00143498
0.00496436
-0.00352938
-0.00484943
0.00577232
-0.000922899
-0.00117623
0.00228732
0.00410276
0.00107118
3.787e-05
0.00586483
-0.00551723
-0.000347598
0.00356489
-0.00466536
0.00110047
0.00309389
-0.000690238
0.00542605
-0.00181833
-0.00250225
-0.000975447
-0.00216898
-0.000325937
0.00249493
0.00241185
-0.00196948
-0.00160816
-0.00424224
0.00274599
0.00149625
-0.000325795
0.00122521
0.00122356
0.0036602
-0.00488376
-0.000293353
0.000665811
0.00305956
-0.00238503
-0.00472453
-0.00125884
0.00647002
-0.00129841
0.00424581
0.00205991
0.000498518
0.00285499
-0.0021249
-0.000730097
0.00473847
-0.00245115
-7.29631e-05
-0.00332506
-0.000871484
0.00419655
0.000387902
-8.64905e-05
-0.000301412
-0.00514436
0.00610828
-0.000963912
-0.000738438
0.00190218
-0.00116374
-0.000696967
0.0052518
-0.00455484
0.00116983
-0.00190827
-0.000114151
-0.0057619
-0.000786875
0.0020224
0.00384242
-0.000242011
-0.00192697
0.000251397
-4.20032e-06
0.000362632
-0.000487972
0.00336281
-0.000828297
-0.00522693
-0.000271641
-0.000147559
0.000150197
-0.000133575
-1.66222e-05
-0.00248308
0.000125896
-0.00042317
0.0015883
-0.00100972
-0.000578576
0.00247504
0.000589885
-0.00306493
-0.000710471
0.00318551
-0.00520293
-0.000271482
0.00547441
0.00375053
0.00137552
0.00441507
-0.00123468
-0.000137371
0.00254923
0.00540388
-0.000206675
-0.00519721
-0.00608767
0.00425246
0.00183522
0.0032105
-0.00126777
-0.00435268
0.000201872
-0.000224361
0.000580947
0.000815254
0.00106949
0.000104216
-0.00117371
0.0042123
0.00119158
-0.000958495
0.00317207
-0.00221357
0.00474122
-0.00140019
-0.00217804
0.00279251
-0.000614462
-0.00117637
-0.000131012
0.000311487
-0.000180475
0.0034465
-0.00414347
0.00134308
-0.000986227
-0.000356853
0.00159456
-0.000396971
-0.00325089
0.00229239
0.00548519
-0.0043428
-3.06306e-05
0.000352722
-0.00535861
0.000447835
0.00545804
-0.00190776
-0.00100402
-0.00361437
0.00461839
-0.000647057
0.00288271
-0.00223565
0.00549726
-0.00286246
-0.0026348
-8.83983e-05
0.000593064
-0.000677308
0.000660594
1.67132e-05
-0.000686935
0.0017286
-0.00104167
-0.00314798
-0.00117791
0.000155573
-1.72037e-05
-0.00122462
-0.00478925
-0.00307754
0.00239112
-0.000423365
-0.000195531
-7.26379e-05
-8.9587e-05
-0.00120054
-0.00080568
-0.00523007
-0.00283824
0.00219118
-0.000818629
0.00118649
0.00112498
0.0043894
-0.00551437
0.00340703
-0.00275343
0.000468397
0.000774673
-0.00288435
0.00210968
0.00499237
-0.00494741
-4.49575e-05
-0.00320957
0.0036156
-0.000406019
0.000207798
-9.56104e-05
-0.000112188
-0.0049605
-0.00149583
-0.00175591
0.00369034
-0.00193443
0.00298172
-0.00220704
-0.00378396
0.00202806
0.00139499
-0.00258174
0.00118675
-0.00363328
0.00568151
0.00649869
-0.00219608
-0.00430261
-0.00240035
0.00237308
2.72748e-05
0.00562418
-0.00165164
0.00118697
-0.000924798
-0.000262173
-9.11485e-06
0.000262125
0.00024922
-0.000772767
0.000523548
-0.00304514
0.00365167
-0.000973489
0.000844344
-0.00104779
0.00236199
-0.000631657
-0.00173033
0.00220748
-0.000507958
0.00453046
0.00062943
0.00173256
-0.00175301
0.00106608
0.000408593
-0.000464692
5.60991e-05
0.00221016
-0.00174499
-0.000465174
0.000835419
-0.0051478
-0.000544473
0.000369492
-0.000588344
0.000218851
-0.00410088
0.00547305
0.000942159
-0.00111663
0.000174477
-0.00151884
0.00216527
-0.000646438
-0.00149268
-0.00274956
-0.00537718
-0.000156375
0.00553356
0.000301925
0.00010831
4.1888e-05
0.000128522
-0.00012845
-7.19348e-08
0.00412525
-0.0029017
-0.0038024
-0.00233758
0.00346383
0.00303486
-0.00259725
0.000738388
0.00185886
-0.0008447
0.00223968
-0.0022962
-0.000104151
0.00272865
-0.00377751
0.00104885
0.00130595
-0.000135832
0.000461245
0.000552702
-0.00327796
0.000965629
0.00231233
0.00091807
-0.000594707
-4.92379e-05
-0.00428036
0.00172775
9.48339e-05
-0.00182258
-0.00396612
0.00146711
0.002499
0.000522194
0.00146088
-0.000879935
-0.000245955
-0.00466034
0.0049063
0.000784959
-0.00247689
0.00169193
0.00120221
0.00131231
-0.000477255
-0.00170935
0.00218661
0.00258017
-0.00179521
0.00447151
-0.00353249
-0.000785413
-0.00264118
-0.000227434
0.000251877
-0.000701011
0.00176311
-0.0010621
0.00265912
-0.00366788
0.00100874
0.00013647
2.03988e-05
-0.00236241
-0.000915556
0.00142154
-0.00163642
0.00021488
-0.00277436
0.00068776
0.00127651
-0.00141877
0.000142255
0.00161892
-0.00180789
0.000188974
0.000676958
-0.00372877
-0.00116906
0.00135721
-0.00490902
0.00355181
-0.000914981
0.00357409
0.000116443
-7.73758e-05
-3.90675e-05
0.00477007
-0.00364508
-0.000339583
-0.00153447
-0.00401584
-0.00150007
0.0020911
0.000701394
-0.00101799
-0.000924097
-0.0045295
-0.00164003
-0.000379088
0.00124272
-0.000931085
-0.000311637
-0.00149481
-0.00108904
0.000659476
0.00225554
-0.00291501
-0.000114296
0.000670731
-0.000716077
3.87692e-05
-0.00245435
0.00196644
0.00139408
-0.000730698
0.00165649
-0.000925796
-8.68726e-05
-0.000116962
0.000317925
-0.00194519
0.000454529
0.0015993
-0.00231048
0.000711178
-0.00334644
0.00257774
0.00076869
0.00119111
0.00242082
-0.00361193
-0.00175188
0.00105087
-0.0029405
-0.00102561
-0.000799836
-0.0025466
-0.00167586
0.00125138
0.000424489
0.00176296
-3.52109e-05
-0.000765476
-0.00243176
0.00319723
-0.000683803
0.00291455
-0.00225507
-0.000858525
-0.00394761
0.00480615
-0.00234404
0.00233845
5.59304e-06
-0.000718236
-0.00155945
0.000549735
-0.00240463
0.00381955
-0.00141493
0.00323281
0.00288513
0.000194396
3.62195e-05
-0.000230616
0.00234005
-0.000603102
-0.00173695
0.000188097
-0.000184256
-0.00358961
0.00494682
-0.00329821
0.005252
-0.00195379
-0.00351026
-0.00150905
-0.00091305
0.00323172
-0.00231867
0.00285581
0.00177664
-0.00418128
-0.00499774
-0.000146621
-0.000798666
0.00285068
-0.00205201
-0.000431684
0.000378895
-0.00052784
0.00167427
-0.00114643
-0.00403965
0.00334075
0.000698891
-0.00326922
0.00235617
-0.00387
0.000676153
0.00319384
0.00140842
-0.0010114
-0.000397017
-0.00589958
0.000696656
0.00184649
-0.00141053
-0.000435955
0.00139638
-0.00040053
-0.000995855
7.8376e-05
0.000129422
0.00293349
-0.000643375
-0.000222191
-0.00348736
-0.000382647
0.000428144
-0.00305325
-0.000986405
-0.00233517
-8.87014e-06
-0.00292699
0.00228649
0.000721337
0.00260131
-0.00332265
0.000583881
-0.000858363
0.00141524
-0.00672077
0.00530553
-0.00578986
0.000991542
-0.00234857
0.00353968
0.000690785
0.000258261
-0.00273244
0.00345378
-0.00010106
0.00509343
0.000626313
0.00170026
-0.00232658
-0.0017747
0.00124686
0.00274591
-0.00369592
0.000950001
0.00510153
0.000665616
0.00154454
0.000313635
0.00038635
-0.000364111
-0.00040476
0.000180943
-0.00174436
0.00176684
-0.000888803
0.000846744
0.000614133
-0.000586754
0.00301122
-0.00242446
-0.00149567
0.00184071
-0.000345045
-0.00489656
0.00380135
0.00109521
-0.00480444
0.00150622
-4.08098e-05
3.92483e-05
1.56148e-06
-0.00280929
-0.00085858
0.00107143
-0.00128984
0.000218416
0.0013661
-0.00495571
0.001012
5.74859e-05
0.00124675
0.00069562
0.00218709
-0.00366802
0.000858735
0.000187977
-0.00503741
0.00189943
0.00120338
0.000698803
-0.00527402
-0.000492269
0.00565182
0.00118376
0.00710751
-0.00218565
-0.00492185
0.00078623
-0.000376242
-0.000409989
0.000722281
-0.00138009
0.000777384
-0.00386075
-0.0012576
0.000311486
-0.000925999
-0.000420573
0.00134657
0.0023278
0.00400856
-0.00486707
0.00270218
0.000835202
-0.00353739
0.00124982
-0.000963787
-0.000286031
0.000745638
0.00159441
-0.000135035
0.000138267
-3.23233e-06
-0.00071058
0.00288352
-0.00217295
0.00362147
0.00110412
-0.00126121
-0.000414656
0.00141308
-0.00153205
0.000118962
4.77737e-05
6.86696e-05
-0.004476
0.000965737
-0.00165221
0.000444222
-0.00364575
0.00293526
-0.000950194
6.7689e-05
0.000937146
0.00267873
-0.00361588
0.000844028
-0.00126025
0.00419467
-0.00293443
0.000318731
0.000279965
4.6582e-05
-0.000326547
7.82797e-05
-0.00539171
0.00531343
-0.00262963
-0.00078721
0.00341685
-0.00349665
0.00260433
0.000892328
-0.00278203
-0.000261775
-0.00171289
-0.00491192
0.000896077
-0.00145252
-0.000882654
-0.00106382
0.00379247
0.00170676
-0.00372574
0.00201898
0.000105639
2.2883e-05
0.00372636
-0.0020196
0.00286011
0.000966816
-0.00382691
-0.00130026
0.00174082
-0.000440551
0.00357297
0.00110584
-0.0046788
0.00718593
-0.00197574
-0.00521018
-0.00212633
-0.000711903
-0.00172372
0.00235002
0.00377233
-0.00493007
0.00115773
-0.00280055
0.0037377
0.00113597
-1.14585e-05
-0.00112451
0.00148204
0.000905526
-0.00551447
0.000600434
0.000430102
0.000356127
0.00292156
-0.00112423
-0.0025221
0.00247896
4.31428e-05
0.000505071
-0.00184032
0.00133524
-0.00386942
-0.00119313
0.0010913
-0.00254382
-0.00529919
0.000151393
-0.00124418
-0.000528971
0.00177315
0.0056362
-0.00449233
0.000104283
0.00028362
-0.00301299
0.00319225
0.0014394
-0.00107006
-0.000369341
0.00346749
0.0047606
-0.000959253
0.000649963
-0.00327959
0.00106634
-0.000938541
-5.28855e-05
0.000461478
0.000393959
-1.97493e-05
-0.00206575
-0.00045662
0.00152804
-0.000918926
-0.00349763
0.000765199
-2.81355e-05
-1.26743e-05
0.00599852
-0.00492081
0.00522264
-0.00439481
2.4828e-05
-0.000590435
0.000565607
0.00194868
-0.000458591
-0.00149009
0.00335894
-0.000757622
-0.0025676
0.00336119
-0.00079358
-0.00183262
0.000532359
0.00127833
-0.000951582
-0.000326745
-0.000118767
-0.000210171
0.00205898
-0.000548591
-0.00151039
-0.00137979
-0.00239342
-0.000128681
0.0020887
-0.00274549
0.000656793
0.00280649
-0.000751306
-0.00205519
0.00410318
-0.00434913
0.00031454
0.00224311
-0.000643808
-0.000683264
0.000833101
-0.00367663
0.00504272
0.00124257
0.000471441
-0.00171562
-0.00286885
0.00209591
0.003634
0.00158864
-0.00113121
-0.00383647
-0.0011509
0.00130241
-0.0017167
0.000414292
0.00367501
-0.00318615
-0.000193831
0.00113599
-3.86994e-05
-0.000270587
0.000309287
-0.000706317
-0.00189094
0.00377129
-0.00491055
0.00113926
-0.00185778
0.00235224
-0.000494463
-0.00115878
0.00213185
0.00075167
-0.00226235
0.00375544
-0.00149309
0.00150407
-0.0011398
-0.000364267
-0.000997179
0.000278946
0.00018877
-0.000430771
0.000242001
-0.000425879
-0.00122633
-0.00248045
0.00250356
-2.31158e-05
0.00144959
-0.00371195
0.00162341
-0.000372036
0.000365323
-0.00041787
5.2547e-05
-0.000825588
0.000592614
0.000232974
-0.000795454
-0.00285299
0.000839359
0.00201364
-0.00199609
-0.00085452
-0.000710209
0.00156473
-0.00524491
0.00389558
0.00134932
-0.00119928
0.00122411
-0.000576387
-0.000115927
0.000692314
0.00286844
-0.000736591
-0.000770367
-0.000160191
0.000930558
0.00183909
-0.00136765
0.00169739
-0.000394978
-0.00013294
-0.000638048
-0.00420461
0.00484266
-0.00138262
0.00283026
0.00427725
-0.00239821
-8.22333e-05
0.00311743
-0.00473951
0.000733532
0.00158104
-0.00231458
0.00200396
-0.00280262
0.00199523
-0.000743448
-0.00125178
-0.00179589
0.000456096
0.00133979
0.00432219
0.00286374
-0.00552313
0.0013411
0.00418203
-0.00125423
-0.00399067
-0.000460362
-0.00133553
-0.000997388
-0.000562063
-0.0012915
-0.000425204
0.00114624
-0.000533313
0.00150483
-0.000971516
-0.00175704
0.00129668
-0.00094449
-0.000207195
0.00115169
0.00217001
-0.00286687
0.000696871
-1.17669e-05
0.000206163
0.00103165
0.00606991
-0.001414
-0.00465592
-0.00203528
-0.00187228
0.00132963
0.000542649
0.00127074
-0.000977695
-0.000293042
-0.00228965
-0.00103093
0.00332059
-0.00266796
0.00358587
-0.000917909
-0.000922117
0.00111171
1.15841e-05
-0.00112329
0.0037606
-0.0049389
0.00117829
0.00174749
-0.00135517
-0.000392316
0.00242707
-0.00122486
0.00274235
-0.000634561
-0.000191027
-0.00409437
0.00228874
-0.00180239
-0.000486348
0.000560833
-0.00200882
0.00144799
-0.00251155
-0.000847514
0.000858941
-0.000657247
-0.000201695
-0.000180153
-0.003645
0.000977043
0.000669021
-0.00048025
0.00258887
0.000996992
0.000319157
0.00129271
0.000702513
-0.00160269
0.00233622
-0.00149867
0.000983311
0.000515357
0.00355502
-0.000694911
-0.0038099
0.00610412
-0.00114995
-0.00248936
0.00683571
-0.00434636
-0.000890441
0.00356918
-0.0041418
0.000932239
-0.00210183
0.00424978
-0.000701524
-0.00160896
-0.0024509
0.00170401
0.0007469
-0.00128034
0.000363967
-0.000426623
6.26569e-05
-0.00137278
-0.000776863
-0.000153511
0.000930374
-0.0015628
0.00135738
0.000205419
0.00203088
0.000819792
6.24434e-05
-0.00130016
-0.000554502
-0.000825589
-0.00242311
-0.000484251
-0.00138803
-0.000171048
0.00159259
-0.000180753
0.00341163
-0.000515069
0.00133895
0.000199182
-0.000835817
-0.000954838
-0.00192964
0.00247711
-0.000547464
-0.0010406
-0.0057289
0.00351077
0.00146789
-0.00062115
0.00288631
-0.00121484
0.000970196
-0.00135873
-0.00453028
0.005889
0.000620966
-0.00255061
0.000742105
-0.00369136
0.00269572
0.000995633
0.000886765
-0.00142008
0.0022221
-0.00311844
0.000896335
0.00119675
-0.00343001
0.00223325
0.000861212
0.00168734
-0.00254855
-0.000174292
0.00179321
0.0027393
0.00107819
0.00361893
-0.000413519
0.00078301
0.00315721
-0.00402868
0.000987314
-0.00327696
0.000436179
0.00412507
0.00146375
-1.07495e-05
-0.000275603
0.000286352
-0.00619331
0.00385615
0.00233717
-0.000833508
-0.00261211
0.00344562
0.00263953
-0.00177831
-0.00369709
0.000896533
-0.00132106
-0.00043599
-0.000152662
0.00131976
0.00372809
0.00123626
0.000224381
0.00130816
-0.000991281
-0.000316881
0.000874389
0.000593506
-0.000313925
0.00376775
-0.00493606
0.00116832
0.00307936
-0.000857268
-0.00139792
0.00190299
0.00125661
-0.00355448
0.00229787
-0.00117115
0.00145537
0.000679032
-0.00213441
0.000191846
-0.000202596
0.00219822
-0.000859898
-0.00124843
0.000330467
0.000924891
-0.000347881
-0.000577009
0.0035331
-0.0022765
-0.00052048
0.00230007
-0.00177959
0.0010181
-0.00297352
0.0020769
0.000896626
0.000106633
-9.94745e-07
0.00467803
0.000546774
-0.00571048
-0.00519786
0.00392781
0.00127006
-0.00108037
-0.00269322
0.00377359
0.00222117
0.00372502
0.00282578
-0.00375415
0.000928372
-0.00146826
0.0010993
-0.000967703
0.00338032
-0.00241262
0.00149631
0.000562664
-0.00378479
-0.00240853
0.001088
-0.00230068
0.00321768
-0.000917004
0.00343958
-0.000835239
0.000397082
-0.00082212
0.0025389
0.000900677
-0.000635898
0.00431091
-0.00130768
0.00171593
-0.000408243
0.0020057
-0.00126326
-0.000390065
0.00607679
-0.00491843
-0.000458745
0.000859247
-0.00246194
-0.00539163
-0.0017217
0.000414017
-0.000678148
0.000101761
-0.000871299
0.000211599
-0.00146703
0.000680731
0.00156238
-0.000905432
0.000135066
0.000805822
0.00251553
-0.00332136
-0.00109517
0.00187357
-0.00194652
-0.000474596
0.00196108
-0.00148648
-0.000894841
-0.00207867
-0.00195175
0.00147715
-0.00265698
0.00346279
-0.00163639
0.000588839
0.00104755
-0.000985801
0.00357467
0.00602718
-0.00230647
-0.00130149
-0.000420209
-0.00173795
0.0010958
0.000642153
0.000906979
-0.00452101
0.00361404
-0.00131088
0.000546961
0.000763913
-0.00403466
-0.0011632
0.000191712
-0.0011362
0.00193596
-0.000732583
-0.00135469
-0.00380891
0.00516361
0.000999875
7.13041e-05
0.00329727
-0.00252733
-0.000769936
0.000137178
0.0012592
0.000875636
-0.000668697
-0.000206939
-0.00134352
-0.0010188
-0.0010935
0.0051366
-0.0040431
0.000639079
-0.00249686
0.000143655
0.00126943
0.0037717
-0.00496362
0.00119193
0.0028825
-0.00204314
0.000101878
-0.000168197
6.63183e-05
0.00102956
0.000138131
0.000104298
0.00235872
0.00371119
-0.00058508
-0.000802401
0.00138748
0.000653932
0.00177048
-0.00242441
0.00240297
-0.0016966
-0.00070637
0.000475947
0.00147273
0.000426432
-0.000512976
-0.0007979
0.000599898
-0.00532443
0.000690503
-2.99094e-05
-0.00116436
-0.00132105
-0.00379648
0.00511753
0.00103159
0.00143668
-0.00189527
0.00254659
-0.000394857
-0.00490878
0.00530364
0.000120571
-1.86927e-05
0.000669768
0.00126619
0.00272621
0.000948772
-0.00367497
0.00137459
0.000471893
0.00258722
-0.00364086
0.00454784
0.00277347
0.000844288
-0.00361776
0.00162323
-0.000826481
-0.000796751
0.00132747
-0.00101784
-0.000309627
0.000424427
0.00106085
-0.00470171
0.000218389
-6.78652e-06
0.000198632
0.0060563
-0.00128624
0.0015253
-0.0021284
0.00252955
-0.00181804
-0.000711512
0.000871216
-0.00254374
0.00167252
0.00523417
-0.00281457
-0.000928724
-0.00157969
0.00501417
0.00148635
-0.00178137
0.000295018
0.000499364
-0.000103685
-0.000395677
-0.00100024
-0.00313866
0.00413891
0.000743329
0.00181839
-0.00256171
0.00176754
-0.000281185
0.00224574
0.00140416
-0.000857203
-0.00093742