/*--------------------------------*- C++ -*----------------------------------*\
  =========                 |
  \\      /  F ield         | OpenFOAM: The Open Source CFD Toolbox
   \\    /   O peration     | Website:  https://openfoam.org
    \\  /    A nd           | Version:  7
     \\/     M anipulation  |
\*---------------------------------------------------------------------------*/
FoamFile
{
    version     2.0;
    format      ascii;
    class       surfaceScalarField;
    location    "1.178";
    object      phi;
}
// * * * * * * * * * * * * * * * * * * * * * * * * * * * * * * * * * * * * * //

dimensions      [0 3 -1 0 0 0 0];

internalField   nonuniform List<scalar> 
18389
(
-7.97328e-05
7.97328e-05
4.34579e-05
-4.34579e-05
-5.20443e-05
5.20443e-05
4.0145e-05
-4.0145e-05
-5.17836e-05
5.17836e-05
-4.00056e-05
4.00056e-05
-3.46827e-05
3.46827e-05
3.90367e-05
-3.90367e-05
-3.57024e-05
3.57024e-05
4.1552e-05
-4.1552e-05
4.49848e-05
-4.49848e-05
-3.44781e-05
3.44781e-05
-1.54608e-05
1.54608e-05
-4.28814e-05
4.28814e-05
4.34333e-05
-4.34333e-05
2.46702e-05
-2.46702e-05
1.95238e-05
-1.95238e-05
4.58915e-05
-4.58915e-05
4.59245e-05
-4.59245e-05
4.32838e-05
-4.32838e-05
-4.26308e-05
4.26308e-05
3.56269e-05
-3.56269e-05
4.30032e-05
-4.30032e-05
-5.84618e-05
5.84618e-05
-4.97232e-05
4.97232e-05
-4.17999e-05
4.17999e-05
-4.45468e-05
4.45468e-05
4.56265e-05
-4.56265e-05
4.58509e-05
-4.58508e-05
4.41463e-05
-4.41463e-05
-4.1341e-05
4.1341e-05
-6.30738e-05
6.30738e-05
4.31162e-05
-4.31162e-05
-4.47505e-05
4.47505e-05
4.08601e-05
-4.08601e-05
4.66974e-05
-4.66974e-05
-4.55428e-05
4.55428e-05
5.35757e-05
-5.35757e-05
-5.88633e-05
5.88634e-05
3.7865e-05
-3.7865e-05
4.48457e-05
-4.48457e-05
4.53767e-05
-4.53767e-05
-4.10135e-05
4.10135e-05
4.48992e-05
-4.48992e-05
4.587e-05
-4.587e-05
-4.58529e-05
4.58529e-05
-4.58545e-05
4.58545e-05
-4.06664e-05
4.06664e-05
-4.58837e-05
4.58837e-05
4.59454e-05
-4.59454e-05
4.59577e-05
-4.59577e-05
4.46214e-05
-4.46214e-05
3.77317e-05
-3.77317e-05
-4.57676e-05
4.57676e-05
-5.55453e-05
5.55453e-05
-4.38145e-05
4.38145e-05
4.57518e-05
-4.57518e-05
-4.59942e-05
4.59943e-05
4.3227e-05
-4.3227e-05
-5.93191e-05
5.93192e-05
-4.71471e-05
4.71471e-05
4.96054e-05
-4.96054e-05
4.57375e-05
-4.57375e-05
-1.01074e-05
1.01075e-05
4.57756e-05
-4.57756e-05
4.16073e-05
-4.16073e-05
5.12036e-05
-5.12036e-05
-4.58728e-05
4.58728e-05
4.23183e-05
-4.23183e-05
3.17233e-05
-3.17233e-05
1.93046e-06
-1.93046e-06
-4.40766e-05
4.40766e-05
3.28684e-05
-3.28684e-05
-3.657e-05
3.657e-05
3.97155e-05
-3.97155e-05
2.66257e-05
-2.66257e-05
2.61996e-05
-2.61996e-05
2.70488e-05
-2.70488e-05
2.43931e-05
-2.43931e-05
1.33602e-05
-1.33602e-05
0.00107245
-0.00087993
-0.000192516
0.00546681
-0.00207571
-0.00339109
-0.0059464
0.00594631
8.84497e-08
0.00335458
-0.0025984
-0.000756175
-0.00154617
0.00176204
-0.000215867
-0.00676532
0.00284371
0.00392162
0.00121517
0.00425164
0.00725509
-0.00587545
-0.00137965
0.0011773
-0.00191693
0.000739637
-0.000867914
-0.000678259
-0.00144228
-0.000314619
0.0017569
0.000159142
2.5154e-06
-0.000161657
0.000778465
-0.00222075
-0.00360328
0.000123229
0.00348004
-0.00320225
0.0028915
0.000310763
-0.00572154
0.00726317
-0.00154164
-0.00370933
0.00289695
0.000812372
-0.000564192
-0.00303909
-0.00174753
0.00238854
-0.000641011
-0.000465012
0.00255874
-0.00209373
-0.001608
0.00111011
0.000497883
0.000583527
0.000581832
-0.00160209
-0.00516323
0.00124055
-0.00178672
0.000546167
0.00578027
-0.0038607
-0.00191956
-0.000658764
0.00331006
-0.00265129
-0.00583504
0.00583468
0.000483255
0.00127878
-0.00632829
0.000971748
0.00535655
0.0023268
-0.00298557
-0.00378969
0.00311351
0.000676184
0.002148
-0.00422371
0.00108915
-0.000202946
-0.000886203
0.00150382
-0.00128904
-0.00021478
-0.00280112
-0.000401132
0.00535231
-0.00534898
0.000369693
0.00113413
0.00522814
-0.00133743
-0.00389072
0.00200764
-0.000830339
0.00308568
0.00190869
-0.00499437
-0.000722075
-0.00306763
-8.89249e-05
-0.000154855
0.00024378
0.00393505
0.00332004
0.00116824
-0.00489592
0.00372767
0.00162688
0.00360126
-0.00498315
0.00632195
-0.0013388
-0.00113519
-0.000593256
0.00172845
0.00133791
0.00201666
0.000135293
0.000103626
-0.000238919
0.00502273
-0.00339584
0.00645721
-0.000839945
-0.00561727
0.00321862
-0.00265645
-0.00056217
0.0022244
0.000448116
-0.00267253
0.00295229
-0.000727888
0.0065035
-0.00539832
-0.00110517
0.000505659
-0.00387259
0.00336694
6.83143e-05
0.0063889
0.00480977
-0.00430411
-0.000535785
0.00105937
-0.000523585
-0.00175859
0.000623399
0.00191711
0.00224906
-0.00416616
0.000253452
-0.000333614
8.01619e-05
-0.00126934
-0.00284585
0.00411519
-2.62213e-05
0.00652973
-0.00281771
0.00229186
0.000525852
0.000388781
-1.24773e-05
-0.000376304
-0.00569234
-0.000254061
0.00187559
-0.00139234
0.000826733
0.00495354
0.000894276
0.000178174
0.00265978
-0.00648088
0.00382111
-0.0011202
0.000584417
0.00263891
-0.00390825
0.0061967
-0.00226163
0.00109209
0.00117729
-0.000788199
0.00103628
-0.00024808
-0.0011094
-0.00049859
0.00189346
0.00132516
-0.000595818
0.00142982
-0.00123773
-0.000192089
-0.00265446
0.00198636
0.000668107
0.00116713
0.000262697
0.00114006
-0.00498204
0.00384197
-0.00476295
0.0014221
0.00334084
-0.00455427
0.00611798
-0.00156372
-0.00506334
8.02024e-05
-0.00201752
-0.000636941
-0.000214941
0.000126016
-0.00122924
0.00465268
-0.00342344
-0.0012246
-0.000692326
0.000103311
-0.000192024
8.87124e-05
0.000126291
-2.29797e-05
-0.00126366
0.00464327
-0.00337961
-0.000156073
2.44295e-05
0.000131644
-0.00556815
0.00170746
-0.00119063
-0.000567955
-0.000449465
-1.89291e-05
0.000468393
-0.000543309
9.38432e-05
0.00101247
7.66775e-05
-0.00180934
0.000618709
-0.000150137
1.70076e-05
0.000133129
0.001368
-0.00234447
0.000976469
0.000271104
-0.000135811
-0.00392527
0.00514045
-0.00245681
0.000709297
-9.44539e-05
-0.000427533
0.000521988
0.00568629
-0.00216975
-0.00351655
7.71414e-05
0.00250722
-0.00258436
0.00447204
-0.00562627
0.00115424
0.00263388
0.00305241
0.0029135
-0.00283636
-0.00616184
0.000440307
-0.00646836
0.00363759
0.00283077
0.00229338
0.00390332
-0.00439198
0.0013832
0.00300877
0.00150591
-0.000265358
-0.00102639
0.0040209
-0.0029945
0.00463923
-0.00162684
-0.00301239
-0.00460955
0.00374779
0.000861761
0.00369334
-0.00503077
5.87053e-05
0.000330076
-0.00137409
0.00584614
-9.33438e-05
0.00214931
-0.00205596
-0.00206518
0.00260609
0.000176378
-0.00278247
-0.00127742
0.00264541
-0.000651084
0.00325717
0.00164075
-0.00173409
0.000911519
0.00397403
-0.00488556
-0.00504175
0.0038432
0.00119856
0.00255189
-0.00359409
0.0010422
-0.00333498
0.00411776
-0.000782776
0.000338149
-0.00367313
-0.000869576
0.000869576
-0.00044696
0.000352507
-0.000126974
-0.000973465
0.00110044
0.00506989
-0.00184297
-0.00322692
-0.00243302
-0.000368106
0.00290014
0.000157836
1.65635e-05
-0.000174399
-0.00146841
0.00112319
0.000345212
-0.000140971
-0.00490078
0.00506203
-0.00389379
0.000255768
-9.66267e-05
0.00444344
0.000579287
0.00406759
-0.00151569
0.000164915
-7.07975e-06
-0.00633515
-0.000983966
-0.000825377
0.0043002
-0.00190477
-0.00239543
0.00275593
0.00154427
0.00107775
-0.00563201
-0.00225692
-0.000560797
-0.00111997
-0.000958621
0.00207859
3.89219e-05
-0.00272192
0.00268299
-0.00235815
0.00123818
-0.00221812
0.0053038
-0.00462306
0.00160541
0.00301765
0.00254614
0.000669637
-0.000333234
-0.000336404
-0.00601455
0.000582968
0.00543159
-0.00418982
0.0058291
-0.00163928
0.00182539
0.00162915
-0.00345455
-0.00167194
0.000899208
0.000772729
-0.002715
0.00207948
0.000635529
0.00110144
0.000774149
0.000247197
-0.000328938
8.17422e-05
0.00490919
-0.00399768
-0.00638536
0.00557673
0.00080864
-0.00479387
-0.0016745
0.00334206
0.000647959
-0.00399002
0.000153942
-0.000162141
8.19909e-06
0.00059048
-0.000125308
-0.000465172
-0.0045185
0.00261373
0.000382578
-0.000567022
0.000184444
5.99774e-05
-0.000929556
-0.00257572
0.00448442
-0.00530397
-0.000324445
0.00562842
0.000201263
0.000182494
-0.000383757
0.000679838
-0.000679838
0.0016843
-0.000728644
-0.00211038
0.00181069
0.000299683
0.00440466
-0.00302146
-0.000162338
6.26506e-06
-0.00120174
0.00126171
0.000722808
0.00128483
0.00234958
-0.000270099
-0.00401979
-0.00128418
0.00111458
-0.00498719
0.00321308
-0.00447675
0.000835579
-0.00213529
0.00129971
0.00335947
-0.00458872
-0.00271169
-0.00180681
-0.00483581
0.00469483
-0.000676085
-0.00533846
-0.00516025
0.00149815
-0.00145428
-4.38693e-05
0.00223022
0.000119357
-0.00601384
0.0020482
0.00396565
-0.00121933
0.000526002
0.000693328
0.0014575
0.00294716
-0.00462713
-0.00101445
0.00564159
-0.000212797
0.000138505
7.4292e-05
-0.00550993
0.0013201
0.00375307
-0.0049369
0.00118383
-0.00149257
-0.000617806
-0.000536676
-0.000637499
0.000138366
-0.000203833
6.54669e-05
0.00500147
-0.00386141
-0.00130163
0.00512597
-0.00382435
-0.000395685
-0.000806054
-0.00586125
0.000440017
0.00539466
-0.00616926
0.00456716
-0.000920905
-0.00546447
-0.00109228
-0.000376128
-0.00181599
0.00285663
-0.00104063
-0.000419203
0.000322095
9.71086e-05
-0.00173203
0.00141742
0.00160171
-0.000103568
0.000826727
-3.67483e-05
-0.00169529
0.00279625
0.00121844
-0.00303443
0.00606011
-0.000483378
0.00528464
6.76602e-05
-0.00528066
0.00439109
0.00114592
-0.00553702
0.000556433
-0.000768809
0.000212376
-3.98597e-05
-0.000407101
-6.69049e-06
0.00606679
-0.000162208
0.000156852
5.35627e-06
0.000133324
2.06179e-05
0.00253578
-0.00335804
0.000822255
-0.00192912
0.000738535
0.00119059
0.00792821
-0.00345605
-0.00447215
0.00117043
0.00126413
-0.00243457
0.000103079
-0.00017411
7.10313e-05
-0.000805872
0.00133187
0.00116505
0.00318131
-0.00434637
-0.00561281
0.000165349
0.00544745
-0.00402037
0.00299398
0.00173508
0.00479465
0.00459454
0.00333366
-2.21554e-05
0.000190206
-0.000168051
-0.00131124
0.00439883
-0.00308759
0.000302175
-0.000342035
-0.000131316
-8.14813e-05
0.00410087
-0.00227549
0.00475376
-0.00501659
0.000262829
-0.00324157
0.00607876
-0.00283719
0.00252661
0.00157426
0.00575778
-0.00100402
-0.00137899
-0.0056209
0.00137278
0.00424812
0.000654617
0.000520714
-0.00117533
0.00126956
-0.000614938
0.000585327
-0.00111023
0.000524906
0.00110604
0.000274461
0.000395177
-0.000678265
0.00443134
0.00151672
-0.000393527
0.00354534
-0.00613736
0.00259202
0.00153269
-0.00258396
0.00105127
-0.00432388
0.00116881
0.00315507
0.0029122
-0.00422343
-0.00491007
-0.00125919
-0.00410068
0.00126954
0.00283115
0.00125119
0.00314764
-0.00326441
-0.000836281
0.00222586
-0.00105544
-0.000683946
-0.00252905
0.00321299
0.0024051
0.000620662
-0.00302575
-0.00158858
0.00119962
0.000388958
0.000270015
0.00148591
-0.00196427
0.000478374
-0.00011088
-0.000222734
-0.00026441
0.00015353
-0.00435563
-0.000253916
-0.000292795
0.00117224
-0.000879443
0.00435139
-0.00464567
0.000294281
-8.84216e-05
0.000117768
-2.93459e-05
0.000975647
0.00338068
-0.00435632
-0.000157001
6.858e-05
-0.00475252
0.000711471
0.00404105
-0.000727878
0.00012413
0.000603746
7.07069e-05
-6.81915e-05
-0.000401121
0.000864674
-0.000347475
-0.0005172
-0.00603572
0.000637407
-0.00254967
-0.000128185
0.00267785
-0.0031689
0.00442008
0.00218082
-0.00108872
-0.00116718
-0.00117245
-5.21538e-05
-0.00351949
-0.00124345
0.00150562
-0.000403105
-0.00110252
0.00191861
0.00183885
-0.00375746
0.00505028
-0.00161912
-0.00343116
0.000793458
-0.00542059
-0.0013739
0.00300305
0.00196313
0.000779334
-0.00274246
-0.00349795
0.0044736
-0.000152873
2.7363e-06
0.000937302
-0.00443525
-0.00449715
-0.000148528
-0.000997109
-0.00461569
0.00463518
0.00149422
0.00355606
0.00416024
0.00114311
-0.00530335
3.668e-05
5.88689e-05
-9.55489e-05
-0.00140469
0.00336783
0.00371555
0.00354762
-0.00139813
0.00236942
-0.000971281
-0.00248099
0.000463468
-0.000878413
0.000751438
-0.000204187
0.00040545
-0.000213577
0.00169949
0.00376318
-0.00184456
-0.00106874
-0.000603205
-0.000107167
-0.000157243
0.00355042
-0.00163331
-0.00240371
0.00465278
0.000674532
-0.00309589
0.00242136
0.000637709
0.000762842
-0.00105564
0.00209971
-0.00131685
-0.00327441
0.00459125
-0.00216648
0.00482626
-0.000553647
0.00344514
0.000238248
-0.000221241
-0.00236191
0.000963787
0.0023275
-0.0038696
0.00154211
-0.00120632
5.77978e-05
-2.11179e-05
0.00214653
-0.00279646
0.000649929
-0.00116726
-0.000421308
-0.00353505
0.0045068
0.00119702
0.00167352
-0.00287054
-0.00168875
0.00366476
-0.00197602
0.00424191
-0.000861236
0.000234411
1.41068e-05
-0.000248518
-0.00372284
0.0020341
-0.00143287
0.0047225
-0.00328963
0.000878014
0.00130281
0.000170716
0.000509121
0.00025301
-0.000300691
4.76809e-05
0.00170049
0.000209812
-0.00191031
0.00301884
-0.00459475
0.00157591
-5.28086e-05
0.000374228
-0.000321419
0.00156098
-0.00036137
0.00139913
-0.000608409
-0.000790719
0.00282297
-0.00392818
0.00110521
0.00267921
-0.00374321
0.001064
-0.00518614
0.00194458
0.00390661
-0.000887769
-0.000637428
-0.00237327
0.0030107
0.00140778
-0.00511817
0.00371039
0.00336053
-0.00145893
-0.00190161
-0.000679716
0.00172309
-0.00104337
0.00477122
-0.00303615
-0.000692708
-0.00196374
-0.0059825
0.00514256
3.94011e-06
0.000121696
-0.000125636
-0.00157749
0.00119882
0.000378675
-0.00490828
0.00630893
-0.00140065
-0.00188466
0.000729269
0.00115539
0.000407318
0.00268649
-0.00208764
-0.000598844
0.00343561
0.000489011
-0.00392462
0.000122906
-1.98266e-05
0.0051725
0.000336652
-0.00550914
-0.00194053
0.00379755
-0.00185703
0.00277042
-0.00064443
-0.00212599
0.000462554
0.00040212
-0.000436712
0.00387232
0.00202615
-0.00396668
0.000702068
-0.00026501
-0.000437056
-0.000643179
2.31766e-05
0.000620004
-0.00315206
-0.00576423
0.00576628
-0.000274307
0.000949595
-0.000675289
-0.00228652
-0.000194478
-0.00455656
0.00323969
-0.000875272
0.0011332
0.00360766
-0.00501832
0.00141066
0.000410671
-0.00296034
0.00232948
-0.00244163
0.000112142
-0.00157142
0.00148228
8.91398e-05
-0.00120896
-0.000368533
-0.0033915
0.00342942
-0.0022324
0.000457241
0.000133239
-0.00173297
0.00105326
-0.00279619
0.000749704
0.00204649
0.00024241
-7.99891e-06
-0.0034777
0.00102464
0.00245306
-0.00144461
0.00560486
0.000339923
-0.000953407
0.000613485
0.00211656
0.000653862
-0.00127774
0.000304281
0.00111119
0.0012183
-0.00143233
0.00496207
-0.00352973
-0.0048497
0.00576733
-0.000917626
-0.00117532
0.00228212
0.00410678
0.0010726
3.75132e-05
0.00586762
-0.00553022
-0.0003374
0.00355979
-0.004664
0.00110421
0.00309346
-0.000688365
0.00542695
-0.00181929
-0.00250291
-0.000974789
-0.00217234
-0.000323412
0.00249576
0.00241306
-0.00196496
-0.00160817
-0.00424188
0.00274675
0.00149513
-0.000326825
0.00122603
0.00121736
0.00365937
-0.00487672
-0.000287622
0.000670199
0.00305957
-0.00238503
-0.00472454
-0.00125797
0.00647067
-0.00129818
0.00424432
0.00206065
0.000498093
0.00285514
-0.00212518
-0.000729958
0.00473617
-0.00245405
-7.2226e-05
-0.00332663
-0.000869271
0.00419591
0.000387746
-8.64581e-05
-0.000301288
-0.00514443
0.00610568
-0.000961255
-0.000739339
0.00190505
-0.00116571
-0.000696724
0.00525198
-0.00455526
0.00117082
-0.00191016
-0.000111777
-0.00576366
-0.000788199
0.00203627
0.00383136
-0.00024501
-0.00192733
0.000251398
-4.20147e-06
0.000362596
-0.000487904
0.0033622
-0.000826421
-0.0052269
-0.000271646
-0.000147558
0.000150191
-0.00013357
-1.66207e-05
-0.00248331
0.000125154
-0.000422662
0.00159022
-0.00101234
-0.000577883
0.00247197
0.000592918
-0.00306489
-0.0007133
0.00318526
-0.00520292
-0.000271501
0.00547442
0.00375055
0.00137543
0.00441312
-0.00123181
-0.000132833
0.0025459
0.00540386
-0.000206652
-0.00519722
-0.0060869
0.00425232
0.0018346
0.00321094
-0.00126808
-0.00435283
0.000202449
-0.000224604
0.00058046
0.000818665
0.00107857
0.000115322
-0.00119389
0.00421229
0.00119158
-0.000959466
0.00317176
-0.0022123
0.00473789
-0.00139582
-0.00217856
0.00279231
-0.000613743
-0.00117706
-0.000124941
0.000317473
-0.000192531
0.00344635
-0.00414308
0.00134546
-0.000987114
-0.000358341
0.00159572
-0.000396897
-0.0032509
0.00229143
0.00549088
-0.00434496
-3.06251e-05
0.000352721
-0.00535651
0.00044822
0.00545322
-0.00190788
-0.00100344
-0.00361437
0.00461781
-0.000646869
0.00288275
-0.00223588
0.00549726
-0.00286245
-0.00263481
-8.83975e-05
0.000592765
-0.000677207
0.000660539
1.66681e-05
-0.000689006
0.00172937
-0.00104036
-0.00314818
-0.00117569
0.000155567
-1.72012e-05
-0.00122456
-0.00478928
-0.00307705
0.0023931
-0.000467259
-0.000212578
-7.26281e-05
-8.958e-05
-0.00120406
-0.00080569
-0.00523004
-0.00283806
0.00219119
-0.000818447
0.00118814
0.00113237
0.00438334
-0.0055157
0.00340286
-0.0027549
0.000468705
0.000773553
-0.00288408
0.00211053
0.00499132
-0.00494384
-4.74739e-05
-0.00320956
0.00361559
-0.000406022
0.000207795
-9.56095e-05
-0.000112186
-0.00499376
-0.00148714
-0.00175709
0.00369027
-0.00193317
0.00298168
-0.00220812
-0.00378363
0.00202654
0.001395
-0.00258174
0.00118673
-0.0036329
0.0056811
0.00650032
-0.00219654
-0.00430378
-0.00240064
0.00237377
2.68797e-05
0.0056194
-0.00164538
0.00118628
-0.000924256
-0.000262023
-9.11512e-06
0.000262125
0.000249198
-0.000772899
0.000523701
-0.00304649
0.00365136
-0.000972151
0.00084517
-0.00104812
0.00236275
-0.000632203
-0.00173055
0.00220488
-0.000504382
0.00452828
0.00062983
0.00173292
-0.00175436
0.00106536
0.000408592
-0.000464692
5.60995e-05
0.00221096
-0.00174455
-0.000466407
0.000833154
-0.0051478
-0.000544537
0.000369493
-0.000588345
0.000218851
-0.00410087
0.00547365
0.000942169
-0.00111664
0.000174472
-0.00152141
0.00216476
-0.000643355
-0.00149143
-0.00275045
-0.00538221
-0.000156589
0.0055388
0.000300076
0.000108292
4.18994e-05
0.000127896
-0.00012782
-7.57649e-08
0.00412343
-0.00290607
-0.00380394
-0.00233341
0.00346909
0.00303122
-0.00259596
0.000733567
0.00186239
-0.000844684
0.00223968
-0.00229653
-0.00010411
0.00272898
-0.00377739
0.00104841
0.00130618
-0.000133946
0.000461948
0.000550524
-0.00327806
0.000964961
0.0023131
0.00091527
-0.000596339
-4.68415e-05
-0.00427872
0.00172574
9.71803e-05
-0.00182291
-0.00396567
0.00146555
0.00250012
0.000521486
0.00146452
-0.000884063
-0.000246356
-0.00466078
0.00490714
0.000784707
-0.00247679
0.00169209
0.0012022
0.00131232
-0.000474445
-0.00171279
0.00218724
0.00258007
-0.00179536
0.00447109
-0.00353378
-0.000783214
-0.00264056
-0.000227496
0.000251925
-0.000701901
0.00176256
-0.00106066
0.00265894
-0.0036674
0.00100845
0.000136446
2.0406e-05
-0.00236328
-0.000914782
0.00142158
-0.00163642
0.000214844
-0.00277462
0.000686979
0.0012765
-0.00141878
0.000142283
0.00161901
-0.00180789
0.000188879
0.000676579
-0.00372726
-0.00116866
0.00135381
-0.00490534
0.00355153
-0.000914655
0.00357359
0.000116533
-7.70984e-05
-3.94347e-05
0.00475926
-0.00362688
-0.000329127
-0.00153267
-0.00400926
-0.00150067
0.00209116
0.000701141
-0.00101598
-0.000924125
-0.00452653
-0.00163531
-0.000384528
0.00124256
-0.000931139
-0.000311424
-0.00149504
-0.00108893
0.000658543
0.00225632
-0.00291486
-0.000114283
0.000670715
-0.000715994
3.87869e-05
-0.00245638
0.00196644
0.00139409
-0.00072957
0.00165896
-0.00092939
-8.68721e-05
-0.000116961
0.000318308
-0.00194582
0.000453248
0.00160307
-0.00231087
0.000707796
-0.00334524
0.00257925
0.000765981
0.00119414
0.002418
-0.00361213
-0.00175268
0.00105078
-0.00294072
-0.00102494
-0.000795942
-0.0025493
-0.00167697
0.00125242
0.000424553
0.00176312
-3.7385e-05
-0.000764296
-0.00243295
0.00319724
-0.000679634
0.00291476
-0.00225621
-0.000858518
-0.00394762
0.00480615
-0.00234437
0.00233919
5.18339e-06
-0.000727878
-0.00155915
0.000546817
-0.00240472
0.00381924
-0.00141453
0.00323276
0.00288522
0.000194393
3.62193e-05
-0.000230613
0.00234013
-0.000602816
-0.00173731
0.000188248
-0.000184308
-0.00358976
0.00494357
-0.003291
0.00524303
-0.00195204
-0.0035091
-0.00150921
-0.000914167
0.00323134
-0.00231718
0.00285584
0.00177588
-0.00418061
-0.00499552
-0.000148901
-0.000795023
0.00284963
-0.0020546
-0.000431675
0.000378867
-0.000528876
0.00167495
-0.00114607
-0.00403715
0.00334215
0.000694997
-0.00326986
0.00235569
-0.00386934
0.000675474
0.00319386
0.00140949
-0.00101264
-0.000396848
-0.00589958
0.000696654
0.00184658
-0.00141062
-0.000435954
0.00140174
-0.000402327
-0.000999417
7.83752e-05
0.00012942
0.00293333
-0.000641462
-0.000222726
-0.0034873
-0.000382044
0.000428456
-0.00305342
-0.000983739
-0.00233552
-8.84221e-06
-0.00292539
0.00228797
0.00072096
0.0026016
-0.00332256
0.000585138
-0.000859445
0.00140471
-0.00671497
0.00531026
-0.00577871
0.000984834
-0.00234612
0.00354026
0.000691092
0.000258504
-0.00273264
0.0034536
-9.97255e-05
0.00509105
0.000620471
0.00170265
-0.00232313
-0.00177552
0.00124664
0.00274622
-0.00369606
0.000949833
0.00510111
0.00066599
0.00154497
0.000315196
0.00038687
-0.000364053
-0.000404755
0.000180961
-0.00174518
0.00176684
-0.00088883
0.000852102
0.000612417
-0.000585891
0.00301113
-0.00242523
-0.00149991
0.00184171
-0.000341801
-0.00489566
0.00380286
0.00109281
-0.00480435
0.00151335
-3.90527e-05
3.88825e-05
1.70256e-07
-0.00281011
-0.000857285
0.00107567
-0.00129202
0.000216354
0.00136206
-0.00495182
0.00103521
4.33597e-05
0.00124421
0.00069504
0.0021877
-0.00366716
0.000857057
0.000194113
-0.00504382
0.00190009
0.0012087
0.000696348
-0.00527261
-0.000491629
0.00565451
0.00118509
0.0071079
-0.00218493
-0.00492297
0.000789018
-0.000378966
-0.000410052
0.000720186
-0.00138203
0.000778823
-0.00386023
-0.00125795
0.000317472
-0.000928679
-0.000419865
0.00134855
0.00232887
0.00400856
-0.00486707
0.00270238
0.000834902
-0.00353729
0.00124953
-0.000964202
-0.000285326
0.000745654
0.00159448
-0.000135051
0.000138275
-3.22438e-06
-0.000709977
0.00288347
-0.0021735
0.00362171
0.00110079
-0.00126193
-0.000415041
0.00141434
-0.00154099
0.000126646
4.69098e-05
6.96234e-05
-0.00447768
0.000968568
-0.00165343
0.000444461
-0.0036469
0.00293359
-0.000949965
7.00346e-05
0.000935747
0.0026794
-0.00361515
0.000846868
-0.00126318
0.00419264
-0.00292947
0.000318386
0.000279907
4.65775e-05
-0.000326485
7.83005e-05
-0.00539167
0.00531337
-0.00263138
-0.00078262
0.003414
-0.00349453
0.00260606
0.000888475
-0.00276808
-0.000262315
-0.00171348
-0.00490734
0.000898081
-0.00145368
-0.000881848
-0.00106357
0.00379254
0.00170763
-0.00372569
0.00201806
0.000105691
2.22053e-05
0.003726
-0.00201837
0.00286222
0.000963237
-0.00382544
-0.00130102
0.00174065
-0.00043962
0.00357404
0.00110262
-0.00467666
0.00718359
-0.0019723
-0.00521128
-0.0021268
-0.00071125
-0.001727
0.00234746
0.00377175
-0.00492843
0.00115668
-0.0028016
0.00373734
0.00114015
-8.4112e-06
-0.00113174
0.00148194
0.00090659
-0.00551044
0.000600367
0.000433799
0.000355218
0.00292155
-0.00112391
-0.0025216
0.00247945
4.21503e-05
0.000504914
-0.00184031
0.0013354
-0.00387051
-0.00119284
0.00109013
-0.00254381
-0.00529914
0.000151347
-0.00124809
-0.000526154
0.00177425
0.00563612
-0.00449301
0.000104348
0.000283399
-0.00301469
0.00319108
0.00144012
-0.00107131
-0.000368815
0.00346765
0.00475959
-0.000956737
0.000648084
-0.00327946
0.00107696
-0.000952835
-5.28871e-05
0.000461478
0.000393951
-1.97229e-05
-0.00206362
-0.000456597
0.00153226
-0.000915291
-0.00349754
0.000764907
-2.82038e-05
-1.0849e-05
0.00599855
-0.00492079
0.0052214
-0.00439466
2.55545e-05
-0.000603746
0.000578191
0.00194864
-0.000458474
-0.00149017
0.00335888
-0.000757281
-0.00256775
0.00336114
-0.000793391
-0.00183253
0.000531507
0.00127895
-0.000952048
-0.0003269
-0.000118767
-0.000210171
0.00205907
-0.00054857
-0.0015105
-0.00138064
-0.00239394
-0.000127656
0.00208893
-0.00274542
0.000656493
0.00280625
-0.000750896
-0.00205536
0.0041034
-0.00434975
0.000314748
0.00224271
-0.000639633
-0.000683465
0.000834336
-0.00367873
0.00504079
0.00123125
0.000467629
-0.00171572
-0.00286756
0.00209628
0.00363331
0.00158809
-0.00113601
-0.00383342
-0.00114863
0.00130284
-0.0017173
0.000414461
0.00367506
-0.00318606
-0.000193825
0.00113599
-3.87592e-05
-0.000270428
0.000309188
-0.000701908
-0.00189406
0.00377129
-0.00490976
0.00113848
-0.00185927
0.00235235
-0.000493077
-0.00115714
0.00213204
0.000751429
-0.00226191
0.00375515
-0.00149325
0.0015053
-0.00114092
-0.000364375
-0.00100103
0.000273153
0.000187592
-0.000434452
0.000246859
-0.000426583
-0.00122684
-0.00248022
0.0025039
-2.36835e-05
0.00144951
-0.00371142
0.0016234
-0.000370979
0.00036838
-0.000418907
5.05275e-05
-0.000826099
0.00059285
0.000233249
-0.000795163
-0.00285192
0.000835567
0.00201636
-0.00199585
-0.000854632
-0.000713659
0.00156829
-0.00524433
0.0038956
0.00134873
-0.00122103
0.00124659
-0.000576396
-0.000115917
0.000692313
0.00286854
-0.000736501
-0.000770358
-0.000160201
0.000930559
0.00183985
-0.00137222
0.00169725
-0.0003944
-0.00014407
-0.000633633
-0.00420577
0.00483941
-0.00138528
0.00283096
0.00427694
-0.00239853
-8.1681e-05
0.00311916
-0.00473828
0.000733401
0.00158107
-0.00231448
0.00200662
-0.00280164
0.00199513
-0.000737507
-0.00125762
-0.00179595
0.000455975
0.00133998
0.00431631
0.00286729
-0.0055211
0.00133951
0.00418159
-0.00125353
-0.00399079
-0.000460293
-0.00133566
-0.000997012
-0.00056214
-0.00129237
-0.000424933
0.00114522
-0.000533599
0.00150808
-0.000974479
-0.00175705
0.00129675
-0.000944504
-0.000207197
0.0011517
0.00217071
-0.00286706
0.000696354
-1.17704e-05
0.000206164
0.00103336
0.00606238
-0.00140411
-0.00465828
-0.00203619
-0.00187319
0.00133438
0.000538812
0.00127089
-0.000978222
-0.000292669
-0.00229118
-0.00102868
0.00331987
-0.00266909
0.00358449
-0.000915401
-0.00092095
0.00111179
1.13604e-05
-0.00112315
0.00376094
-0.00493794
0.001177
0.00174751
-0.00135531
-0.000392193
0.00242707
-0.00122487
0.00274019
-0.000634944
-0.000191155
-0.00408968
0.00229079
-0.00180213
-0.000488658
0.000560654
-0.00200883
0.00144818
-0.00251286
-0.000845172
0.000859554
-0.000657823
-0.000201732
-0.000180049
-0.00364452
0.000975433
0.000660508
-0.000472915
0.00259004
0.000994449
0.000318844
0.00129664
0.00069849
-0.00160275
0.00233615
-0.00149832
0.000985292
0.000513031
0.00355317
-0.00069094
-0.00380958
0.00610296
-0.00114882
-0.00248853
0.00682949
-0.00434096
-0.00088952
0.00356893
-0.00414181
0.000932258
-0.00210168
0.00424968
-0.000697178
-0.00161369
-0.00245113
0.00170762
0.000743512
-0.00128022
0.000379599
-0.000435258
5.56598e-05
-0.00137401
-0.000776857
-0.000153525
0.000930382
-0.00156469
0.00135901
0.000205681
0.00203382
0.000815809
6.24491e-05
-0.00130018
-0.000555793
-0.000826235
-0.00242178
-0.00048524
-0.00138795
-0.000170994
0.00159257
-0.000180713
0.00341142
-0.000514468
0.00133895
0.00019949
-0.000825878
-0.000960843
-0.00192982
0.00247699
-0.000547172
-0.00104321
-0.00572889
0.00351078
0.00147398
-0.000621879
0.00288652
-0.001213
0.000967009
-0.00135877
-0.00453024
0.005889
0.000620666
-0.00255049
0.000741735
-0.00368982
0.00269684
0.000992979
0.000887279
-0.00142088
0.00222398
-0.00311871
0.000894721
0.00119681
-0.00342986
0.00223305
0.000861075
0.00168743
-0.00254851
-0.000174196
0.0017932
0.00274105
0.00107872
0.00361716
-0.000413518
0.00078301
0.003158
-0.00402727
0.000985666
-0.00327684
0.000435315
0.0041254
0.00146759
-1.05597e-05
-0.000275095
0.000285655
-0.0061933
0.00385609
0.00233721
-0.000831397
-0.00261367
0.00344507
0.00263975
-0.00177867
-0.0036971
0.000895499
-0.00132124
-0.00043581
-0.000152634
0.00131976
0.0037287
0.00123337
0.00022461
0.00130883
-0.000991852
-0.000316979
0.00088231
0.000591673
-0.000313954
0.00376864
-0.00493571
0.00116707
0.00307864
-0.000854662
-0.00139814
0.00190305
0.00125757
-0.00355468
0.00229711
-0.0011693
0.00145591
0.000678638
-0.00213455
0.000192705
-0.000203265
0.0021985
-0.000860585
-0.00125032
0.000330609
0.000926214
-0.000348874
-0.00057734
0.0035326
-0.00227503
-0.000512738
0.0022946
-0.00178187
0.00101881
-0.00297217
0.00207974
0.000892443
0.000106839
-1.1488e-06
0.00467436
0.000539992
-0.00570324
-0.00519749
0.00392759
0.00126991
-0.00107911
-0.00269382
0.00377293
0.0022213
0.00372501
0.00282623
-0.00375422
0.000927988
-0.0014685
0.00109996
-0.000962681
0.0033777
-0.00241502
0.00149645
0.000562624
-0.00378539
-0.00240792
0.00108252
-0.00230172
0.0032166
-0.000914888
0.00343714
-0.000831072
0.000396554
-0.000818115
0.00254074
0.000896395
-0.000635745
0.00431081
-0.00130806
0.00171631
-0.000408245
0.00200661
-0.00126808
-0.000389778
0.00607685
-0.00492041
-0.000461796
0.000859164
-0.00246192
-0.0053916
-0.00172179
0.000413728
-0.000678155
0.000101759
-0.000870861
0.000212412
-0.0014682
0.000676601
0.0015661
-0.000905426
0.000135068
0.000805491
0.00251574
-0.00332124
-0.00109514
0.00187361
-0.00194671
-0.000474432
0.00196106
-0.00148662
-0.00089121
-0.00208096
-0.00195164
0.00147721
-0.00265724
0.00346272
-0.00163944
0.000589758
0.00104968
-0.000983772
0.00357381
0.00602782
-0.00231227
-0.00130207
-0.000419717
-0.00173849
0.00109765
0.000640837
0.000906093
-0.00452034
0.00361425
-0.00131146
0.000544435
0.000767019
-0.00403569
-0.0011618
0.000191692
-0.00113619
0.00193627
-0.000727569
-0.00134912
-0.00380907
0.0051582
0.000999877
7.27191e-05
0.00329733
-0.00252745
-0.000769878
0.000141185
0.00126056
0.000876302
-0.000669281
-0.000207022
-0.00134451
-0.00101739
-0.00108859
0.00513094
-0.00404234
0.000637653
-0.00249693
0.000135283
0.00127906
0.00377199
-0.00496276
0.00119078
0.00288179
-0.00204622
0.000101897
-0.000168248
6.63515e-05
0.00102925
0.000138116
0.000104293
0.00235565
0.00370673
-0.000584076
-0.000803648
0.00138772
0.000653696
0.00177082
-0.00242452
0.00240291
-0.0016996
-0.000703303
0.00047582
0.00147282
0.000426271
-0.000512644
-0.000798811
0.000600117
-0.00532466
0.000690398
-2.98597e-05
-0.00116371
-0.00131947
-0.00379417
0.00511363
0.00103219
0.00143682
-0.00189529
0.0025466
-0.000394843
-0.0049088
0.00530364
0.000120643
-1.87461e-05
0.000664702
0.00127157
0.0027273
0.000947347
-0.00367464
0.00137475
0.000471825
0.00258702
-0.00364083
0.00454693
0.00277365
0.000844055
-0.0036177
0.00163478
-0.000832483
-0.000802294
0.0013279
-0.00101856
-0.000309334
0.000423936
0.00106017
-0.00470101
0.000218479
-6.77809e-06
0.000199483
0.00605218
-0.00129293
0.00152569
-0.00212851
0.00252851
-0.00182046
-0.000708042
0.000867009
-0.00254397
0.00167697
0.00523466
-0.00281544
-0.000927764
-0.00158412
0.00500751
0.00148636
-0.00178139
0.000295028
0.00049974
-0.000103766
-0.000395973
-0.000997681
-0.0031399
0.00413758
0.000742885
0.00181882
-0.0025617
0.00176754
-0.000281177
0.00224682
0.00140412