/*--------------------------------*- C++ -*----------------------------------*\
  =========                 |
  \\      /  F ield         | OpenFOAM: The Open Source CFD Toolbox
   \\    /   O peration     | Website:  https://openfoam.org
    \\  /    A nd           | Version:  7
     \\/     M anipulation  |
\*---------------------------------------------------------------------------*/
FoamFile
{
    version     2.0;
    format      ascii;
    class       surfaceScalarField;
    location    "1.205";
    object      phi;
}
// * * * * * * * * * * * * * * * * * * * * * * * * * * * * * * * * * * * * * //

dimensions      [0 3 -1 0 0 0 0];

internalField   nonuniform List<scalar> 
18389
(
-7.97266e-05
7.97266e-05
4.34637e-05
-4.34637e-05
-5.20442e-05
5.20442e-05
4.01109e-05
-4.01109e-05
-5.17888e-05
5.17888e-05
-4.00049e-05
4.00049e-05
-3.47003e-05
3.47003e-05
3.90427e-05
-3.90427e-05
-3.56628e-05
3.56628e-05
4.15382e-05
-4.15382e-05
4.50067e-05
-4.50067e-05
-3.45252e-05
3.45252e-05
-1.56329e-05
1.56329e-05
-4.28764e-05
4.28764e-05
4.34366e-05
-4.34366e-05
2.4627e-05
-2.4627e-05
1.95173e-05
-1.95173e-05
4.58918e-05
-4.58918e-05
4.59236e-05
-4.59236e-05
4.32813e-05
-4.32813e-05
-4.26612e-05
4.26612e-05
3.56207e-05
-3.56207e-05
4.29865e-05
-4.29865e-05
-5.84734e-05
5.84734e-05
-4.9726e-05
4.9726e-05
-4.17873e-05
4.17873e-05
-4.4546e-05
4.4546e-05
4.56265e-05
-4.56265e-05
4.58506e-05
-4.58506e-05
4.41467e-05
-4.41467e-05
-4.13412e-05
4.13413e-05
-6.30737e-05
6.30738e-05
4.31162e-05
-4.31162e-05
-4.47509e-05
4.47509e-05
4.086e-05
-4.086e-05
4.66992e-05
-4.66992e-05
-4.55477e-05
4.55477e-05
5.35695e-05
-5.35695e-05
-5.88744e-05
5.88744e-05
3.78679e-05
-3.78679e-05
4.48499e-05
-4.48499e-05
4.5376e-05
-4.5376e-05
-4.10116e-05
4.10116e-05
4.4902e-05
-4.4902e-05
4.58709e-05
-4.58709e-05
-4.58525e-05
4.58525e-05
-4.58543e-05
4.58543e-05
-4.06665e-05
4.06665e-05
-4.58836e-05
4.58836e-05
4.59448e-05
-4.59448e-05
4.59574e-05
-4.59574e-05
4.46218e-05
-4.46218e-05
3.77318e-05
-3.77318e-05
-4.57677e-05
4.57677e-05
-5.55456e-05
5.55456e-05
-4.38141e-05
4.38141e-05
4.57501e-05
-4.575e-05
-4.59943e-05
4.59943e-05
4.32266e-05
-4.32266e-05
-5.9319e-05
5.9319e-05
-4.71471e-05
4.71471e-05
4.96055e-05
-4.96055e-05
4.57367e-05
-4.57367e-05
-1.02977e-05
1.02977e-05
4.57752e-05
-4.57752e-05
4.1601e-05
-4.1601e-05
5.12058e-05
-5.12058e-05
-4.58721e-05
4.58721e-05
4.23165e-05
-4.23165e-05
3.17315e-05
-3.17315e-05
2.02699e-06
-2.02699e-06
-4.40751e-05
4.40751e-05
3.28684e-05
-3.28684e-05
-3.65672e-05
3.65672e-05
3.9741e-05
-3.9741e-05
2.66257e-05
-2.66257e-05
2.61996e-05
-2.61996e-05
2.70488e-05
-2.70488e-05
2.43906e-05
-2.43906e-05
1.33728e-05
-1.33728e-05
0.00107414
-0.00088002
-0.000194114
0.00546675
-0.00207585
-0.0033909
-0.00594636
0.00594629
6.31946e-08
0.00335435
-0.00259847
-0.000755888
-0.00154607
0.00176138
-0.000215305
-0.00676604
0.00284475
0.00392131
0.00121557
0.00425119
0.00725521
-0.00587518
-0.00138004
0.0011752
-0.00191601
0.000740806
-0.000867825
-0.000678251
-0.00144228
-0.000314628
0.00175691
0.000159296
2.23041e-06
-0.000161526
0.000778464
-0.00222075
-0.00360343
0.000123662
0.00347976
-0.00320227
0.00289172
0.000310564
-0.00571826
0.00725732
-0.00153906
-0.00370938
0.00289676
0.000812605
-0.000564334
-0.0030391
-0.00174712
0.00238821
-0.000641083
-0.000465126
0.00255882
-0.00209369
-0.00160783
0.00111042
0.000497405
0.000583526
0.000581833
-0.0016014
-0.00516465
0.00124033
-0.00178495
0.000544628
0.00578082
-0.00386096
-0.00191985
-0.000659049
0.00331046
-0.00265142
-0.00583496
0.00583459
0.000483976
0.00127741
-0.00633921
0.000967982
0.00537123
0.00232623
-0.00298528
-0.00378963
0.0031135
0.000676132
0.0021479
-0.00422375
0.0010889
-0.000202615
-0.000886289
0.00150341
-0.00128899
-0.000214419
-0.00280104
-0.00040123
0.00535314
-0.00534841
0.000369213
0.0011342
0.00522799
-0.00133728
-0.00389072
0.00200493
-0.000829719
0.00308569
0.00190869
-0.00499437
-0.000722093
-0.00306754
-8.89121e-05
-0.000154884
0.000243796
0.00393541
0.0033198
0.00116792
-0.00489497
0.00372704
0.00162749
0.0036005
-0.00498374
0.00632205
-0.0013383
-0.00113548
-0.000592909
0.00172839
0.00133834
0.002016
0.000135293
0.000103626
-0.00023892
0.00502246
-0.00339497
0.00645772
-0.000841117
-0.00561661
0.00321846
-0.0026555
-0.000562959
0.00222575
0.000447212
-0.00267297
0.00295268
-0.000726928
0.00650349
-0.00539834
-0.00110514
0.000506558
-0.00387356
0.00336701
6.77319e-05
0.00639
0.00481164
-0.00430508
-0.000535781
0.00105937
-0.000523586
-0.00175899
0.000623513
0.00191709
0.00224908
-0.00416616
0.000253464
-0.00033364
8.01755e-05
-0.00127019
-0.00284574
0.00411593
-2.63331e-05
0.00652982
-0.00281713
0.00229101
0.000526122
0.000388509
-1.23323e-05
-0.000376176
-0.00569234
-0.000254023
0.00187523
-0.00139125
0.000827108
0.00495371
0.000894383
0.000179755
0.00264306
-0.00647234
0.00382928
-0.0011202
0.00058442
0.00263808
-0.00390826
0.0061969
-0.00226147
0.00109209
0.00117729
-0.00078187
0.00103266
-0.000250791
-0.00110949
-0.000498337
0.00189377
0.00132469
-0.000595876
0.00142983
-0.00123772
-0.000192103
-0.00265443
0.00198536
0.00066907
0.0011671
0.000262729
0.0011396
-0.00498184
0.00384223
-0.0047633
0.00142304
0.00334025
-0.00455425
0.00611798
-0.00156373
-0.00506319
7.94485e-05
-0.00201785
-0.000636576
-0.000214841
0.000125929
-0.00122897
0.00465255
-0.00342358
-0.0012252
-0.00069081
0.000103311
-0.000192024
8.87129e-05
0.00012629
-2.29798e-05
-0.00126435
0.00464328
-0.00337893
-0.000156069
2.44745e-05
0.000131595
-0.00556853
0.00170758
-0.00119049
-0.000568503
-0.000449471
-1.89268e-05
0.000468397
-0.000543306
9.38341e-05
0.00101253
7.63727e-05
-0.00180856
0.000618073
-0.000150136
1.69824e-05
0.000133154
0.00136801
-0.00234447
0.000976461
0.000271104
-0.00013581
-0.00392504
0.00514061
-0.00245669
0.000709573
-9.40619e-05
-0.000428242
0.000522304
0.00568624
-0.00216988
-0.00351637
7.73891e-05
0.00250688
-0.00258427
0.0044743
-0.00562777
0.00115348
0.00263423
0.00305201
0.00291349
-0.0028361
-0.00617066
0.000452402
-0.00646831
0.00363681
0.0028315
0.00229388
0.00390301
-0.00439121
0.00138319
0.00300802
0.00150199
-0.000261668
-0.00102659
0.00402098
-0.00299439
0.00463927
-0.00162714
-0.00301213
-0.00460972
0.00374851
0.000861212
0.00369341
-0.0050307
5.85767e-05
0.000329932
-0.00136993
0.00584424
-9.35235e-05
0.0021493
-0.00205577
-0.00206498
0.00260693
0.000175482
-0.00278241
-0.00127741
0.00264541
-0.000650172
0.0032571
0.00164053
-0.00173405
0.000911162
0.00397444
-0.00488561
-0.00504148
0.00384269
0.0011988
0.00255191
-0.00359409
0.00104219
-0.00333533
0.00411853
-0.000783197
0.000337891
-0.00367322
-0.000872559
0.000872559
-0.000446809
0.000352748
-0.000126974
-0.000973465
0.00110044
0.00506958
-0.00184297
-0.00322661
-0.0024328
-0.000368245
0.0028997
0.000157822
1.65329e-05
-0.000174355
-0.00146869
0.00112293
0.00034576
-0.000140482
-0.004901
0.00506298
-0.00389506
0.000256929
-9.76334e-05
0.00444391
0.000578553
0.00406759
-0.00151568
0.000164907
-7.08563e-06
-0.0063248
-0.000983052
-0.000825509
0.00430028
-0.00190482
-0.00239546
0.00275595
0.00154434
0.00107776
-0.005632
-0.00225795
-0.00055918
-0.00111975
-0.000958969
0.00207872
3.90356e-05
-0.00272205
0.00268302
-0.00235785
0.00123809
-0.00221811
0.00530379
-0.00462303
0.00160634
0.0030167
0.00254591
0.000670169
-0.000333758
-0.000336411
-0.0060145
0.000582971
0.00543153
-0.00418946
0.00582866
-0.0016392
0.00182561
0.00162901
-0.00345462
-0.00167229
0.000899545
0.000772746
-0.00271493
0.00208022
0.000634711
0.00110038
0.000774856
0.000247197
-0.000328938
8.17429e-05
0.00491025
-0.00399909
-0.00638624
0.00557885
0.000807395
-0.00479409
-0.00167422
0.00334175
0.000648507
-0.00399026
0.000153945
-0.000162139
8.19363e-06
0.000590484
-0.000125322
-0.000465162
-0.00451839
0.00261358
0.000377611
-0.000565409
0.000187799
5.53576e-05
-0.000927919
-0.00257573
0.00448442
-0.00530366
-0.000324447
0.00562811
0.000202907
0.000180506
-0.000383412
0.000671129
-0.000671129
0.00168418
-0.000729568
-0.00210992
0.00181104
0.000298875
0.00440493
-0.00302176
-0.000162331
6.26212e-06
-0.00120968
0.00126504
0.000719802
0.00128512
0.00234922
-0.000268993
-0.00401972
-0.00128393
0.0011138
-0.00498737
0.00321255
-0.00447689
0.000835865
-0.00213523
0.00129937
0.00335959
-0.00458856
-0.0027118
-0.00180659
-0.00483539
0.0046949
-0.000676084
-0.00533841
-0.00515983
0.00150014
-0.00145895
-4.11871e-05
0.00222952
0.000119697
-0.00601388
0.00204815
0.00396573
-0.00121933
0.000526003
0.000693325
0.00145794
0.002947
-0.00462676
-0.00101348
0.00564026
-0.000212785
0.0001385
7.42839e-05
-0.0055126
0.00132315
0.00375308
-0.0049369
0.00118382
-0.00149091
-0.000619002
-0.000536675
-0.000637497
0.000138365
-0.000203832
6.54662e-05
0.00500142
-0.00386182
-0.00130175
0.00512584
-0.00382409
-0.000398243
-0.000811441
-0.00586129
0.000439905
0.00539468
-0.00616916
0.00456775
-0.000921971
-0.00546427
-0.00109207
-0.000376623
-0.00181588
0.00285669
-0.00104081
-0.000419201
0.000322092
9.71092e-05
-0.00173204
0.00141741
0.00159877
-9.86293e-05
0.00082799
-3.67543e-05
-0.00169529
0.0027963
0.00121851
-0.00303438
0.00606112
-0.00048227
0.00528609
6.70471e-05
-0.00528067
0.00439115
0.00114547
-0.00553663
0.000556422
-0.000768811
0.000212389
-3.98878e-05
-0.000406922
-5.32062e-06
0.00606643
-0.000162208
0.00015685
5.35781e-06
0.000133316
2.06291e-05
0.00253549
-0.0033581
0.000822604
-0.00192706
0.000738471
0.00118859
0.00792586
-0.00345377
-0.00447209
0.00117052
0.00126376
-0.00243428
0.000103503
-0.000174759
7.12565e-05
-0.00080587
0.00133187
0.00116496
0.00318163
-0.00434659
-0.005613
0.000164909
0.00544809
-0.00402037
0.00299378
0.00173514
0.00479468
0.00458997
0.00333589
-2.22982e-05
0.00019021
-0.000167912
-0.00131103
0.00439915
-0.00308811
0.000302129
-0.000342017
-0.000131305
-8.14796e-05
0.00410074
-0.00227515
0.00475649
-0.00501701
0.000260524
-0.00325431
0.00608963
-0.00283532
0.00252659
0.00157416
0.00575084
-0.000994352
-0.00138019
-0.00562084
0.00137259
0.00424825
0.000654622
0.00052071
-0.00117533
0.00126954
-0.000614923
0.00058532
-0.00111023
0.000524912
0.00110603
0.000275407
0.000394763
-0.000678257
0.00443134
0.00151633
-0.000393399
0.00354527
-0.00613693
0.00259167
0.00153247
-0.00258371
0.00105124
-0.00432362
0.00116878
0.00315484
0.00291255
-0.00422358
-0.00491155
-0.00125761
-0.00410065
0.00126933
0.00283132
0.00125233
0.00314682
-0.00326408
-0.000836576
0.002226
-0.00105548
-0.000683896
-0.00252889
0.00321279
0.00240444
0.000621345
-0.00302578
-0.00158827
0.00119923
0.00038904
0.000269997
0.00148478
-0.00196374
0.000478968
-0.000110892
-0.000222748
-0.000264395
0.000153503
-0.00435527
-0.000254446
-0.000292526
0.00117211
-0.000879589
0.00435119
-0.00464559
0.000294405
-8.84204e-05
0.000117767
-2.93461e-05
0.000976014
0.00338007
-0.00435608
-0.000157
6.858e-05
-0.00475261
0.000711625
0.00404099
-0.00072074
0.000117726
0.000603013
6.94568e-05
-6.72263e-05
-0.000401411
0.000864671
-0.000347474
-0.000517197
-0.00603576
0.000637422
-0.00254966
-0.000128197
0.00267785
-0.0031681
0.00442042
0.00218082
-0.00108872
-0.00116718
-0.00117471
-5.0489e-05
-0.00351967
-0.00124363
0.00150408
-0.000401921
-0.00110216
0.00191851
0.00183893
-0.00375743
0.0050503
-0.00161907
-0.00343123
0.000794072
-0.00542083
-0.00137378
0.00300279
0.00196342
0.00077929
-0.0027427
-0.00349766
0.00447368
-0.000152902
2.76552e-06
0.00093732
-0.00443498
-0.00449705
-0.000148556
-0.000997424
-0.00461557
0.00463558
0.00149433
0.00355596
0.00415965
0.00114402
-0.00530367
3.64483e-05
5.89913e-05
-9.54397e-05
-0.00140456
0.00336798
0.00371415
0.00354316
-0.00139834
0.00236917
-0.000970825
-0.00248105
0.000463199
-0.000878413
0.000751437
-0.000203475
0.000406382
-0.000214769
0.00169955
0.0037632
-0.00184469
-0.00106816
-0.000604132
-0.000107159
-0.000157235
0.00355042
-0.00163333
-0.0024037
0.00465278
0.000674539
-0.0030959
0.00242136
0.000636251
0.000762749
-0.00105527
0.00209962
-0.00131714
-0.00327441
0.00459154
-0.00219494
0.004838
-0.00055355
0.00344526
0.00023816
-0.000221178
-0.00236178
0.000963444
0.00232811
-0.00386997
0.00154187
-0.00120726
5.76006e-05
-2.11524e-05
0.00214669
-0.00279591
0.000649221
-0.00116712
-0.000421152
-0.00353887
0.00450685
0.00119624
0.00167411
-0.00287035
-0.00168871
0.00366472
-0.00197601
0.00424208
-0.000862016
0.00023441
1.41093e-05
-0.00024852
-0.00372296
0.00203424
-0.00143279
0.00472273
-0.00328994
0.000878008
0.00130281
0.000169889
0.000501239
0.000253004
-0.000300682
4.76785e-05
0.00170038
0.000210173
-0.00191055
0.00301851
-0.00459504
0.00157653
-5.28145e-05
0.000374225
-0.000321411
0.00156039
-0.000361157
0.00139877
-0.000606257
-0.000792515
0.00282196
-0.00392808
0.00110612
0.00267901
-0.00374318
0.00106417
-0.00518574
0.00193144
0.00390683
-0.000888317
-0.00063694
-0.00237362
0.00301056
0.0014078
-0.00511789
0.00371009
0.00336053
-0.00145894
-0.0019016
-0.000681324
0.00172411
-0.00104279
0.00477136
-0.00303623
-0.000691612
-0.00196388
-0.00598318
0.00514206
3.89453e-06
0.000121724
-0.000125618
-0.00157733
0.00119866
0.000378669
-0.00490868
0.00630894
-0.00140027
-0.00188472
0.000725663
0.00115906
0.000406845
0.00268627
-0.0020874
-0.000598871
0.00343571
0.000488845
-0.00392456
0.000123235
-1.97322e-05
0.00517211
0.000337346
-0.00550945
-0.00194052
0.00379752
-0.001857
0.00277057
-0.00064558
-0.00212499
0.000462553
0.000402118
-0.000436562
0.00387227
0.00202615
-0.00396666
0.000702431
-0.00026536
-0.00043707
-0.00063841
1.88672e-05
0.000619545
-0.00315202
-0.00576433
0.0057673
-0.000274524
0.000949505
-0.000674982
-0.00228628
-0.000194775
-0.0045565
0.00323935
-0.000874529
0.00113288
0.003607
-0.00501872
0.00141172
0.000410681
-0.00296034
0.00232956
-0.00244184
0.000112277
-0.00157141
0.00148227
8.91374e-05
-0.00120875
-0.000368585
-0.00339154
0.00342909
-0.00223284
0.000457246
0.000133238
-0.00173317
0.00105185
-0.00279615
0.000750131
0.00204602
0.000242415
-8.00495e-06
-0.00347752
0.001025
0.00245252
-0.00144461
0.00560426
0.000339854
-0.000953245
0.000613392
0.00211678
0.000653789
-0.00127774
0.000304282
0.00111111
0.00121845
-0.00143197
0.00496184
-0.00352987
-0.00484962
0.00576857
-0.000918955
-0.00117517
0.00228336
0.00410664
0.00107293
3.749e-05
0.00586468
-0.00552345
-0.000341226
0.00356037
-0.00466484
0.00110447
0.0030936
-0.000689166
0.00542635
-0.00181935
-0.00250343
-0.000974092
-0.00217161
-0.000323697
0.00249532
0.0024129
-0.00196569
-0.00160817
-0.00424187
0.00274654
0.00149533
-0.000326306
0.00122585
0.00121986
0.00365904
-0.00487889
-0.00029072
0.000668331
0.00305957
-0.00238503
-0.00472468
-0.0012585
0.0064706
-0.00129849
0.00424441
0.0020605
0.000498327
0.00285499
-0.00212505
-0.000729945
0.00473641
-0.00245305
-7.26779e-05
-0.00332683
-0.000869155
0.00419598
0.000387714
-8.64215e-05
-0.000301293
-0.00514437
0.00610672
-0.000962348
-0.000735393
0.00190311
-0.00116772
-0.000696748
0.00525164
-0.0045549
0.00117389
-0.00190928
-0.000111544
-0.00576363
-0.00078187
0.00203275
0.00383193
-0.000244233
-0.00192738
0.000251398
-4.20115e-06
0.000362587
-0.000487909
0.00336222
-0.000826726
-0.0052268
-0.000271642
-0.00014756
0.000150193
-0.000133572
-1.66212e-05
-0.00248314
0.000125281
-0.000422637
0.00158936
-0.00101271
-0.000576651
0.00247222
0.000593152
-0.00306537
-0.000712688
0.0031849
-0.00520291
-0.000271504
0.00547441
0.00375016
0.00137569
0.00441311
-0.00123147
-0.00013343
0.00254633
0.00540386
-0.000206651
-0.00519721
-0.00608711
0.00425255
0.00183457
0.00321132
-0.00126829
-0.00435255
0.00020219
-0.000224488
0.000582574
0.000816195
0.00107606
0.000113596
-0.00118966
0.0042123
0.00119156
-0.000959456
0.00317175
-0.0022123
0.00473806
-0.0013963
-0.00217849
0.00279225
-0.000613757
-0.00117738
-0.000127096
0.000317821
-0.000190725
0.00344654
-0.00414329
0.00134506
-0.00098691
-0.000358145
0.00159568
-0.000397015
-0.00325069
0.00229123
0.00549016
-0.00434469
-3.06245e-05
0.000352718
-0.00535544
0.000446752
0.00545456
-0.00190929
-0.00100302
-0.00361478
0.0046178
-0.000646833
0.00288256
-0.00223573
0.00549726
-0.00286245
-0.00263482
-8.83973e-05
0.00059258
-0.00067722
0.000660542
1.66776e-05
-0.000688931
0.00172903
-0.0010401
-0.00314841
-0.00117521
0.000155567
-1.72019e-05
-0.00122463
-0.00478925
-0.00307719
0.00239329
-0.000461553
-0.000209575
-7.26269e-05
-8.95805e-05
-0.00120404
-0.000805763
-0.00523
-0.00283804
0.00219121
-0.000818544
0.00118776
0.00113229
0.00438537
-0.00551765
0.00340358
-0.00275507
0.000468317
0.000773752
-0.00288394
0.00211019
0.00499002
-0.0049435
-4.65122e-05
-0.00320954
0.00361559
-0.00040605
0.000207795
-9.56096e-05
-0.000112186
-0.00498452
-0.00148783
-0.00175697
0.00368997
-0.001933
0.00298131
-0.00220756
-0.00378347
0.0020265
0.00139501
-0.00258174
0.00118673
-0.00363309
0.00568124
0.00650115
-0.00219664
-0.0043045
-0.00239999
0.00237361
2.63907e-05
0.00562021
-0.00164577
0.0011865
-0.000924322
-0.000262184
-9.11312e-06
0.000262117
0.00024935
-0.000773052
0.000523702
-0.00304705
0.00365142
-0.000972412
0.000845243
-0.00104786
0.00236238
-0.000631747
-0.00173063
0.00220479
-0.000504412
0.00452837
0.000629813
0.00173257
-0.00175376
0.00106483
0.000408591
-0.000464691
5.6099e-05
0.00221155
-0.00174501
-0.000466541
0.000833327
-0.00514782
-0.000544517
0.000369493
-0.000588344
0.000218851
-0.00410108
0.00547367
0.000942157
-0.00111664
0.000174481
-0.00152059
0.00216461
-0.000644016
-0.00149137
-0.0027505
-0.00538145
-0.000157024
0.00553848
0.000300218
0.000108294
4.1899e-05
0.000127887
-0.000127845
-4.22179e-08
0.00412407
-0.00290421
-0.00380248
-0.00233444
0.00346965
0.0030315
-0.00259608
0.000734293
0.00186178
-0.000844675
0.00223968
-0.00229628
-0.000103716
0.00272885
-0.00377735
0.0010485
0.00130598
-0.000133865
0.000461017
0.000551514
-0.00327779
0.000964306
0.00231349
0.000915251
-0.000598232
-4.01794e-05
-0.00427853
0.00172598
9.80479e-05
-0.00182402
-0.00396577
0.00146583
0.00249994
0.0005212
0.00146444
-0.000881869
-0.000246186
-0.00466057
0.00490676
0.000784764
-0.00247678
0.00169202
0.0012022
0.00131232
-0.000474847
-0.0017123
0.00218715
0.00258007
-0.0017953
0.00447069
-0.00353337
-0.000784347
-0.00264058
-0.000227524
0.000251998
-0.000701961
0.00176238
-0.00106042
0.00265845
-0.0036673
0.00100884
0.000136448
2.04025e-05
-0.00236292
-0.000914878
0.00142153
-0.00163643
0.000214891
-0.00277453
0.000687138
0.00127649
-0.00141877
0.000142282
0.00161895
-0.0018079
0.000188949
0.000676506
-0.0037271
-0.00116787
0.00135346
-0.00490563
0.00355217
-0.000915224
0.00357367
0.00011635
-7.71076e-05
-3.9242e-05
0.00476527
-0.00363298
-0.00033057
-0.00153331
-0.0040112
-0.00150141
0.00209098
0.000701265
-0.00101553
-0.000924221
-0.00453456
-0.00163611
-0.000384903
0.00124254
-0.000931071
-0.000311469
-0.001495
-0.00108872
0.000658193
0.0022564
-0.00291459
-0.000114282
0.000670703
-0.000715988
3.87688e-05
-0.00245584
0.00196644
0.00139409
-0.000731806
0.00165941
-0.000927602
-8.68718e-05
-0.00011696
0.000318219
-0.00194575
0.000454833
0.00160285
-0.00231099
0.000708139
-0.00334467
0.00257895
0.000765708
0.00119344
0.00241874
-0.00361218
-0.00175274
0.00105077
-0.00294053
-0.00102523
-0.000795997
-0.00254867
-0.00167663
0.00125215
0.000424482
0.00176259
-3.66185e-05
-0.000764061
-0.00243312
0.00319718
-0.000679366
0.00291472
-0.00225652
-0.000858535
-0.00394761
0.00480615
-0.00234402
0.00233878
5.24047e-06
-0.00072074
-0.00156051
0.0005478
-0.00240466
0.00381918
-0.00141453
0.00323278
0.00288521
0.000194394
3.62189e-05
-0.000230613
0.00233997
-0.000602838
-0.00173713
0.000188245
-0.000184351
-0.00359036
0.00494382
-0.00329589
0.00524387
-0.00194798
-0.00350932
-0.0015094
-0.000914481
0.00323133
-0.00231685
0.00285627
0.00177583
-0.0041805
-0.00499659
-0.000147779
-0.000795912
0.00284975
-0.00205383
-0.000431683
0.000378868
-0.000528813
0.00167478
-0.00114596
-0.00403746
0.00334245
0.000695004
-0.00326974
0.00235525
-0.00386918
0.000675617
0.00319355
0.00140993
-0.00101275
-0.000397187
-0.00589958
0.000696665
0.0018465
-0.00141055
-0.000435948
0.00140269
-0.000397153
-0.00100554
7.83755e-05
0.00012942
0.00293384
-0.000642824
-0.000221633
-0.00348702
-0.00038216
0.000428562
-0.00305309
-0.00098437
-0.00233546
-8.56274e-06
-0.00292575
0.00228881
0.000721026
0.0026015
-0.00332253
0.000584794
-0.000859319
0.00140597
-0.00671547
0.0053095
-0.00577977
0.000985675
-0.00234672
0.00354016
0.000691124
0.000258382
-0.00273254
0.00345357
-0.000101319
0.00509134
0.00062103
0.00170244
-0.00232347
-0.00177544
0.00124663
0.0027458
-0.00369585
0.000950049
0.0051012
0.000667355
0.00154419
0.000314941
0.000387488
-0.000364056
-0.000404755
0.000180957
-0.00174466
0.00176684
-0.000888834
0.000851728
0.00061271
-0.000586345
0.00301109
-0.00242474
-0.00149856
0.00184163
-0.000343074
-0.00489552
0.00380197
0.00109356
-0.00480679
0.0015109
-3.90968e-05
3.89099e-05
1.86974e-07
-0.00281031
-0.000856987
0.00107675
-0.00129212
0.00021537
0.00136252
-0.00495289
0.00102778
4.82802e-05
0.001245
0.000695061
0.0021875
-0.00366722
0.000856914
0.000192361
-0.00504198
0.00189955
0.00120608
0.000697035
-0.00527284
-0.000491495
0.00565576
0.0011851
0.0071077
-0.00218499
-0.0049227
0.000786834
-0.000379212
-0.000407623
0.00071998
-0.00138177
0.000777639
-0.00386007
-0.00125782
0.000317821
-0.000929939
-0.00041772
0.00134766
0.00232838
0.00400856
-0.00486708
0.00270232
0.000834965
-0.00353729
0.00124948
-0.000963939
-0.000285536
0.000745575
0.00159439
-0.000135046
0.000138276
-3.23095e-06
-0.000710082
0.00288353
-0.00217344
0.00362104
0.00110169
-0.00126186
-0.000414777
0.00141432
-0.00153987
0.000125551
4.70411e-05
6.93086e-05
-0.00447815
0.000968831
-0.00165307
0.000444321
-0.00364671
0.00293401
-0.000948808
6.87875e-05
0.000935752
0.00267945
-0.0036152
0.000846722
-0.00126222
0.00419226
-0.00293005
0.000318402
0.000279909
4.65773e-05
-0.000326487
7.82885e-05
-0.00539167
0.00531338
-0.00263057
-0.000783953
0.00341453
-0.00349499
0.00260625
0.000888756
-0.00277404
-0.000262121
-0.00171333
-0.00491121
0.000900013
-0.00145351
-0.000881948
-0.00106364
0.0037925
0.00170763
-0.00372553
0.0020179
0.000105655
2.22321e-05
0.003726
-0.00201837
0.00286152
0.000964447
-0.00382595
-0.00130081
0.00174032
-0.000439511
0.00357337
0.00110353
-0.0046769
0.00718332
-0.00197306
-0.00521025
-0.00212658
-0.000711457
-0.0017262
0.00234723
0.00377217
-0.00492886
0.00115667
-0.00280161
0.00373736
0.00113959
-9.40293e-06
-0.00113018
0.00148148
0.000906719
-0.00551153
0.000599979
0.000433178
0.000353655
0.00292154
-0.00112335
-0.00252138
0.00247949
4.18936e-05
0.000504923
-0.00184028
0.00133536
-0.0038691
-0.00119409
0.00109032
-0.00254383
-0.00529916
0.000151342
-0.00124774
-0.000525062
0.0017728
0.00563598
-0.00449196
0.000104317
0.000283398
-0.00301544
0.00319093
0.00143997
-0.00107112
-0.000368845
0.00346767
0.00475938
-0.000957418
0.00064875
-0.00327931
0.00106837
-0.000950646
-5.28867e-05
0.000461478
0.000393949
-1.9724e-05
-0.00206646
-0.00045449
0.00153124
-0.000916054
-0.00349751
0.000764977
-2.83321e-05
-1.07648e-05
0.00599857
-0.00492079
0.00522167
-0.00439456
2.20128e-05
-0.000603013
0.000580999
0.0019486
-0.000458508
-0.00149009
0.00335888
-0.000757382
-0.00256767
0.00336111
-0.000793433
-0.0018323
0.000531497
0.00127883
-0.000952206
-0.000326624
-0.000118767
-0.000210172
0.00205902
-0.000548544
-0.00151048
-0.00138031
-0.00239373
-0.00012764
0.00208877
-0.0027452
0.000656427
0.00280625
-0.000750994
-0.00205526
0.00410336
-0.00434954
0.000314892
0.00224209
-0.00063924
-0.000683558
0.000834144
-0.00367757
0.00504009
0.00121627
0.000468651
-0.00171639
-0.00286742
0.00209617
0.00363366
0.001588
-0.00113442
-0.00383307
-0.00114877
0.00130281
-0.00171688
0.000414065
0.00367487
-0.00318603
-0.000193833
0.00113599
-3.8757e-05
-0.000270454
0.000309212
-0.000702576
-0.00189351
0.0037715
-0.0049091
0.00113761
-0.00185915
0.0023522
-0.000493056
-0.00115736
0.00213194
0.000751577
-0.0022614
0.00375467
-0.00149328
0.00150498
-0.00114094
-0.00036404
-0.000994462
0.000273725
0.000184532
-0.000436731
0.000252199
-0.000426428
-0.00122664
-0.00248003
0.0025037
-2.36751e-05
0.00144996
-0.00371136
0.00162336
-0.000371206
0.000368033
-0.000417954
4.99214e-05
-0.000825823
0.000592844
0.000232979
-0.000795196
-0.00285175
0.000836064
0.00201569
-0.00199544
-0.000848405
-0.000713821
0.00156222
-0.00524342
0.00389531
0.00134811
-0.00121921
0.00124122
-0.000576393
-0.000115919
0.000692311
0.00286833
-0.000736394
-0.00077036
-0.000160193
0.000930554
0.00183951
-0.00137086
0.00169756
-0.000394747
-0.000150841
-0.000635526
-0.004204
0.00483953
-0.00138443
0.00283039
0.00427731
-0.00239862
-8.14097e-05
0.00311924
-0.00473831
0.000733413
0.00158107
-0.00231448
0.00200581
-0.00280172
0.00199333
-0.000733428
-0.0012599
-0.00179594
0.000456027
0.00133991
0.00431666
0.00286665
-0.00552232
0.00134068
0.00418165
-0.00125222
-0.0039912
-0.00046027
-0.00133567
-0.000996688
-0.00056382
-0.00129213
-0.000424746
0.00114461
-0.000531844
0.00150669
-0.000974842
-0.00175701
0.00129673
-0.000944501
-0.00020719
0.00115169
0.00217077
-0.00286682
0.000696063
-1.177e-05
0.000206164
0.00103331
0.00606416
-0.00140482
-0.00465935
-0.00203599
-0.00187326
0.00133054
0.000542717
0.00127099
-0.000978042
-0.000292949
-0.00229037
-0.00102966
0.00332004
-0.00266846
0.00358437
-0.00091591
-0.000921423
0.00111438
9.47037e-06
-0.00112385
0.00376056
-0.0049381
0.00117754
0.00174747
-0.00135529
-0.000392184
0.00242707
-0.00122487
0.0027401
-0.000634706
-0.000191117
-0.00408929
0.0022897
-0.00180193
-0.000487769
0.000560654
-0.00200877
0.00144812
-0.00251295
-0.000845146
0.000859429
-0.000657847
-0.000201582
-0.000180208
-0.00364448
0.000976019
0.000659803
-0.00047527
0.00259023
0.000994141
0.000318787
0.00129367
0.000699661
-0.00160262
0.00233603
-0.00149899
0.000984674
0.000514319
0.0035533
-0.000691772
-0.00380954
0.00610342
-0.00114855
-0.00248957
0.00682921
-0.00433964
-0.000889039
0.00356849
-0.00414181
0.000932282
-0.00210159
0.00424949
-0.000697636
-0.00161336
-0.00245065
0.00170742
0.000743237
-0.00128054
0.000375733
-0.000434418
5.86856e-05
-0.00137391
-0.000776854
-0.000153527
0.000930382
-0.00156308
0.00136037
0.000202712
0.00203357
0.000816181
6.24581e-05
-0.00130018
-0.000554621
-0.00082715
-0.0024223
-0.00048225
-0.001391
-0.000171036
0.00159257
-0.000180718
0.00341118
-0.000514415
0.00133895
0.000199404
-0.000820448
-0.000964505
-0.00192976
0.00247698
-0.000547218
-0.00104188
-0.0057289
0.00351079
0.0014733
-0.000621574
0.00288673
-0.00121263
0.000967517
-0.00135877
-0.00453027
0.00588903
0.000620725
-0.00255049
0.000741756
-0.00369002
0.00269716
0.000992849
0.00088813
-0.00141997
0.00222357
-0.0031188
0.000895222
0.00119673
-0.00342964
0.0022329
0.000860971
0.00168744
-0.00254841
-0.000174244
0.00179319
0.00273992
0.00107855
0.00361716
-0.000413519
0.00078301
0.00315809
-0.00402724
0.00098613
-0.0032765
0.000435703
0.0041254
0.00146697
-1.05616e-05
-0.000275095
0.000285656
-0.00619308
0.00385621
0.00233687
-0.000831525
-0.00261373
0.00344526
0.00263955
-0.00177857
-0.00369712
0.000895513
-0.00132115
-0.000435861
-0.000152656
0.00131976
0.00372805
0.00123378
0.000224723
0.00130855
-0.00099186
-0.000316695
0.000883509
0.000589794
-0.000313945
0.00376847
-0.00493546
0.00116699
0.00307857
-0.00085501
-0.00139808
0.001903
0.00125751
-0.00355445
0.00229694
-0.00116964
0.00145576
0.000678772
-0.00213453
0.0001926
-0.000203162
0.00219833
-0.000859989
-0.00124665
0.000330512
0.00092595
-0.000348387
-0.000577562
0.00353265
-0.00227515
-0.000513492
0.00229516
-0.00178167
0.00101882
-0.00297232
0.00207907
0.000893255
0.00010675
-1.0955e-06
0.00467416
0.000539885
-0.00570455
-0.0051974
0.00392769
0.00126972
-0.00107928
-0.00269361
0.00377289
0.00222126
0.00372504
0.00282587
-0.00375402
0.000928153
-0.00146864
0.00110005
-0.000963176
0.00337819
-0.00241502
0.00149644
0.000562584
-0.00378523
-0.00240785
0.00108455
-0.00230105
0.0032167
-0.000915663
0.00343745
-0.000831204
0.000396717
-0.000818195
0.00254019
0.000897257
-0.000635914
0.00431079
-0.00130816
0.00171638
-0.000408227
0.00200809
-0.00126961
-0.000390079
0.00607685
-0.00492032
-0.000461135
0.000859266
-0.00246189
-0.00539161
-0.00172185
0.000413691
-0.000678153
0.00010176
-0.000871246
0.000212442
-0.00146814
0.0006768
0.00156529
-0.000905427
0.000135067
0.000805544
0.00251568
-0.00332123
-0.00109514
0.0018736
-0.00194662
-0.00047446
0.00196103
-0.00148657
-0.00089101
-0.00208131
-0.00195165
0.00147719
-0.00265715
0.00346269
-0.00163959
0.000590214
0.00104938
-0.000983802
0.00357402
0.00602712
-0.00231297
-0.001302
-0.000419844
-0.00173841
0.00109703
0.000641373
0.000906368
-0.00452015
0.00361379
-0.00131219
0.000545441
0.000766744
-0.00403607
-0.00116133
0.000191694
-0.00113619
0.00193718
-0.000731105
-0.00135047
-0.00380916
0.00515963
0.000999212
7.37146e-05
0.00329731
-0.00252738
-0.000769931
0.000139027
0.00126367
0.00087629
-0.000669153
-0.000207137
-0.00134388
-0.00101789
-0.00108903
0.00513102
-0.00404199
0.000638347
-0.0024975
0.000136346
0.00127797
0.0037719
-0.00496252
0.00119062
0.00288212
-0.00204605
0.000101896
-0.00016822
6.63239e-05
0.00102972
0.000138116
0.000104299
0.00235658
0.00370759
-0.000583515
-0.000804934
0.00138845
0.000653689
0.00177073
-0.00242442
0.00240331
-0.00169912
-0.00070419
0.000475819
0.00147278
0.000426328
-0.000513869
-0.000798317
0.000599432
-0.00532412
0.000690395
-2.98542e-05
-0.00116354
-0.00131881
-0.00379493
0.00511373
0.00103406
0.00143675
-0.00189526
0.00254671
-0.000394809
-0.00490882
0.00530363
0.000120628
-1.87322e-05
0.000665919
0.00127126
0.00272669
0.000947748
-0.00367443
0.00137468
0.000471823
0.0025871
-0.00364037
0.00454674
0.00277357
0.0008441
-0.00361767
0.00163631
-0.000830295
-0.000806017
0.00132787
-0.00101821
-0.000309657
0.000424252
0.00106039
-0.00470077
0.000218443
-6.75895e-06
0.000199359
0.00604575
-0.00128049
0.00152559
-0.00212843
0.00252919
-0.00182055
-0.000708639
0.000866447
-0.0025436
0.00167715
0.00523458
-0.00281549
-0.000927679
-0.0015842
0.00500789
0.00148635
-0.00178138
0.000295032
0.000499708
-0.000103742
-0.000395965
-0.000998461
-0.00313944
0.0041379
0.000742872
0.00181875
-0.00256162
0.00176754
-0.000281191
0.00224702
0.0014038
-0.00085836
-0.000937421
0.000160566