/*--------------------------------*- C++ -*----------------------------------*\
  =========                 |
  \\      /  F ield         | OpenFOAM: The Open Source CFD Toolbox
   \\    /   O peration     | Website:  https://openfoam.org
    \\  /    A nd           | Version:  7
     \\/     M anipulation  |
\*---------------------------------------------------------------------------*/
FoamFile
{
    version     2.0;
    format      ascii;
    class       volScalarField;
    location    "79";
    object      p;
}
// * * * * * * * * * * * * * * * * * * * * * * * * * * * * * * * * * * * * * //

dimensions      [0 2 -2 0 0 0 0];

internalField   nonuniform List<scalar> 
26800
(
-0.44727
-0.454757
-0.470043
-0.472724
-0.465675
-0.415464
-0.348674
-0.285724
-0.244023
-0.223968
-0.223799
-0.232977
-0.220788
-0.189621
-0.163266
-0.141944
-0.12571
-0.123884
-0.131173
-0.13853
-0.451233
-0.461578
-0.467809
-0.45725
-0.441734
-0.393063
-0.333704
-0.279676
-0.245942
-0.233998
-0.241081
-0.252539
-0.23423
-0.195012
-0.162024
-0.137408
-0.118377
-0.113161
-0.121482
-0.132151
-0.455783
-0.468815
-0.465707
-0.441419
-0.416635
-0.368817
-0.316598
-0.271476
-0.245901
-0.242692
-0.25734
-0.269486
-0.244541
-0.198176
-0.15926
-0.131923
-0.111403
-0.104317
-0.113301
-0.125514
-0.460975
-0.476486
-0.463826
-0.42547
-0.39072
-0.343053
-0.297509
-0.260986
-0.243726
-0.249722
-0.272329
-0.28339
-0.251436
-0.198972
-0.155126
-0.125551
-0.104514
-0.0968736
-0.106353
-0.11884
-0.466848
-0.48458
-0.46223
-0.409615
-0.364364
-0.31611
-0.276602
-0.248117
-0.239302
-0.254739
-0.285542
-0.293772
-0.254736
-0.197345
-0.149809
-0.118388
-0.0974463
-0.0902865
-0.100315
-0.112174
-0.473419
-0.493059
-0.460956
-0.394034
-0.337927
-0.288339
-0.254047
-0.232838
-0.232556
-0.257372
-0.296182
-0.300067
-0.254366
-0.193336
-0.143474
-0.110524
-0.0899564
-0.0837602
-0.0944927
-0.105016
-0.480684
-0.501856
-0.460006
-0.37887
-0.311801
-0.260005
-0.230019
-0.215192
-0.22344
-0.257368
-0.303383
-0.301856
-0.25043
-0.187131
-0.136261
-0.102053
-0.0817743
-0.0761041
-0.0875658
-0.0959472
-0.488619
-0.510877
-0.459351
-0.364229
-0.286319
-0.231429
-0.20471
-0.195317
-0.211907
-0.254746
-0.306474
-0.299012
-0.243249
-0.179071
-0.128321
-0.0931775
-0.0726805
-0.0659442
-0.0776187
-0.0826049
-0.497173
-0.520003
-0.458927
-0.35019
-0.261781
-0.20294
-0.178344
-0.173462
-0.19793
-0.249761
-0.305044
-0.29169
-0.233293
-0.169625
-0.119855
-0.0842772
-0.0628336
-0.0526983
-0.0629567
-0.063033
-0.506277
-0.529098
-0.458648
-0.33681
-0.238439
-0.174906
-0.151186
-0.150015
-0.181562
-0.242733
-0.298947
-0.280309
-0.221121
-0.159305
-0.111148
-0.075795
-0.0529093
-0.0374458
-0.0438456
-0.037771
-0.515841
-0.538015
-0.458407
-0.324145
-0.216491
-0.147698
-0.123541
-0.125498
-0.163073
-0.233914
-0.288348
-0.265534
-0.207351
-0.148573
-0.102559
-0.0680583
-0.0438725
-0.0226763
-0.0234185
-0.0109264
-0.525757
-0.546607
-0.458094
-0.312254
-0.196085
-0.1217
-0.0957549
-0.100531
-0.143108
-0.223409
-0.273745
-0.24822
-0.192638
-0.137805
-0.0944319
-0.0611994
-0.0364842
-0.0114578
-0.00694865
0.0103846
-0.535905
-0.554729
-0.457614
-0.301213
-0.177344
-0.0972626
-0.0682636
-0.0757765
-0.122814
-0.21115
-0.255889
-0.229308
-0.177614
-0.127309
-0.0869775
-0.0552788
-0.0307074
-0.00489445
0.00346204
0.0215924
-0.546155
-0.562255
-0.456913
-0.291089
-0.160385
-0.0746949
-0.041739
-0.0519253
-0.103728
-0.197006
-0.235734
-0.209729
-0.162826
-0.117353
-0.0802512
-0.0503661
-0.0263175
-0.00220258
0.00880419
0.0234907
-0.556368
-0.569081
-0.455972
-0.281947
-0.145349
-0.0543488
-0.0172626
-0.0298175
-0.0873202
-0.181168
-0.214365
-0.190323
-0.148708
-0.108129
-0.0742572
-0.0464409
-0.0233057
-0.00192254
0.0107615
0.0210363
-0.566406
-0.575138
-0.454673
-0.273934
-0.132468
-0.0367539
0.00372854
-0.0106009
-0.0743563
-0.164249
-0.192861
-0.171781
-0.135572
-0.0997347
-0.0690064
-0.0433778
-0.0215327
-0.00279254
0.0104807
0.0174863
-0.576126
-0.580372
-0.45294
-0.267155
-0.121985
-0.0226638
0.0196585
0.00437424
-0.06463
-0.147148
-0.172181
-0.154605
-0.123613
-0.0921983
-0.0644774
-0.0410292
-0.0207003
-0.0041764
0.00882594
0.0138979
-0.585393
-0.584648
-0.450907
-0.261671
-0.11411
-0.0128235
0.029774
0.014113
-0.0572589
-0.130762
-0.153077
-0.139104
-0.112911
-0.085507
-0.0606063
-0.0392547
-0.0205165
-0.00580883
0.0064367
0.0105396
-0.594077
-0.588069
-0.448495
-0.257482
-0.108923
-0.00758684
0.0341798
0.0184735
-0.0514944
-0.115808
-0.136042
-0.125414
-0.103461
-0.079617
-0.0573123
-0.0379263
-0.0207568
-0.00754673
0.00373092
0.00745022
-0.60206
-0.590694
-0.445695
-0.254541
-0.106325
-0.0067052
0.0336737
0.0183411
-0.0469833
-0.102766
-0.121297
-0.113528
-0.0952022
-0.0744649
-0.0545143
-0.0369368
-0.0212585
-0.00930152
0.000969766
0.00460518
-0.609244
-0.592613
-0.442507
-0.25276
-0.106065
-0.00943689
0.0293633
0.0149564
-0.0436985
-0.0918546
-0.108835
-0.103344
-0.0880418
-0.0699796
-0.0521374
-0.0362024
-0.0219073
-0.011015
-0.00169087
0.00197407
-0.615591
-0.593911
-0.438947
-0.252018
-0.107791
-0.0148633
0.0223452
0.00947208
-0.0416796
-0.0830565
-0.0984939
-0.0947026
-0.0818716
-0.0660891
-0.0501162
-0.0356583
-0.0226255
-0.0126466
-0.00416717
-0.000451598
-0.621039
-0.594738
-0.435044
-0.252171
-0.111116
-0.0221431
0.0135529
0.00275177
-0.0408734
-0.0761886
-0.0900299
-0.0874275
-0.0765819
-0.0627243
-0.0483961
-0.0352557
-0.0233613
-0.0141708
-0.00642214
-0.00267113
-0.625517
-0.595289
-0.430844
-0.25306
-0.115662
-0.0306035
0.00372209
-0.00461075
-0.0411224
-0.0709886
-0.0831805
-0.0813415
-0.0720672
-0.059822
-0.0469316
-0.0349573
-0.0240812
-0.0155749
-0.00844656
-0.00468226
-0.629038
-0.595764
-0.426416
-0.25452
-0.121093
-0.0397325
-0.00659579
-0.0122194
-0.0422207
-0.0671809
-0.0776955
-0.0762802
-0.0682299
-0.057325
-0.0456848
-0.0347348
-0.0247659
-0.0168548
-0.0102473
-0.00648587
-0.631635
-0.596358
-0.421846
-0.256392
-0.127122
-0.0491467
-0.0170028
-0.019814
-0.0439634
-0.0645102
-0.0733508
-0.0720957
-0.0649811
-0.0551833
-0.044623
-0.0345671
-0.0254066
-0.0180087
-0.0118439
-0.00809598
-0.633342
-0.597237
-0.417229
-0.258524
-0.133512
-0.0585627
-0.0272207
-0.0272262
-0.0461696
-0.0627534
-0.069952
-0.0686573
-0.0622415
-0.0533524
-0.0437175
-0.0344409
-0.0259983
-0.0190354
-0.0132673
-0.00953817
-0.634189
-0.59852
-0.41267
-0.260779
-0.140068
-0.0677749
-0.0370619
-0.0343491
-0.0486889
-0.0617211
-0.0673326
-0.0658505
-0.0599405
-0.0517927
-0.0429436
-0.0343486
-0.0265343
-0.0199437
-0.0145496
-0.0107953
-0.634196
-0.600251
-0.408266
-0.263036
-0.146632
-0.0766377
-0.0464053
-0.0411167
-0.0514004
-0.0612551
-0.0653518
-0.0635758
-0.0580161
-0.0504679
-0.0422814
-0.0342844
-0.0270077
-0.0207574
-0.0157015
-0.0118451
-0.633374
-0.602376
-0.404106
-0.265193
-0.15308
-0.0850516
-0.0551784
-0.0474906
-0.0542085
-0.0612247
-0.0638904
-0.0617472
-0.0564137
-0.0493453
-0.0417148
-0.0342405
-0.0274191
-0.0214972
-0.0166999
-0.0128183
-0.631717
-0.604725
-0.400259
-0.26716
-0.159312
-0.0929519
-0.063343
-0.0534508
-0.0570389
-0.0615222
-0.0628482
-0.0602899
-0.0550849
-0.0483956
-0.0412299
-0.0342086
-0.0277775
-0.022166
-0.0175337
-0.0138039
-0.629208
-0.607011
-0.396774
-0.268867
-0.165251
-0.1003
-0.070885
-0.0589895
-0.0598341
-0.0620598
-0.0621405
-0.0591398
-0.0539871
-0.0475926
-0.0408139
-0.0341823
-0.028091
-0.0227576
-0.0182728
-0.0146734
-0.625829
-0.608834
-0.393671
-0.270255
-0.170837
-0.107077
-0.0778064
-0.0641069
-0.06255
-0.0627653
-0.0616963
-0.058241
-0.0530826
-0.0469128
-0.0404551
-0.0341569
-0.0283626
-0.0232744
-0.0189312
-0.0154126
-0.621574
-0.609713
-0.390941
-0.271282
-0.176025
-0.113277
-0.0841204
-0.0688088
-0.065153
-0.0635799
-0.0614555
-0.0575457
-0.0523379
-0.0463354
-0.0401426
-0.0341283
-0.0285946
-0.0237201
-0.0195085
-0.0160565
-0.616471
-0.609144
-0.388551
-0.27192
-0.180781
-0.118905
-0.0898466
-0.0731043
-0.0676176
-0.0644557
-0.0613676
-0.0570122
-0.0517236
-0.0458417
-0.0398663
-0.0340933
-0.0287881
-0.024098
-0.0200098
-0.0166245
-0.610608
-0.606667
-0.386443
-0.272156
-0.185084
-0.123972
-0.0950088
-0.0770047
-0.0699249
-0.0653537
-0.0613899
-0.0566046
-0.0512136
-0.0454148
-0.0396168
-0.0340489
-0.0289432
-0.0244131
-0.0204408
-0.0171179
-0.604148
-0.601955
-0.384544
-0.271988
-0.188919
-0.128493
-0.0996326
-0.0805227
-0.0720611
-0.0662418
-0.0614864
-0.056292
-0.0507848
-0.0450396
-0.0393856
-0.033992
-0.0290605
-0.0246698
-0.0208042
-0.0175463
-0.597338
-0.594873
-0.382777
-0.271426
-0.19228
-0.132485
-0.103745
-0.0836716
-0.0740162
-0.0670941
-0.0616269
-0.0560475
-0.0504167
-0.0447023
-0.0391649
-0.0339199
-0.0291402
-0.0248716
-0.0211062
-0.0179091
-0.590492
-0.585511
-0.381065
-0.270488
-0.195171
-0.13597
-0.107372
-0.0864647
-0.0757833
-0.0678897
-0.0617856
-0.0558478
-0.0500915
-0.0443907
-0.0389476
-0.0338297
-0.0291824
-0.0250219
-0.021349
-0.0182116
-0.583966
-0.574167
-0.379343
-0.269201
-0.197597
-0.138968
-0.110539
-0.0889158
-0.0773579
-0.0686114
-0.061941
-0.0556731
-0.0497933
-0.0440936
-0.0387272
-0.0337185
-0.0291872
-0.025123
-0.0215371
-0.0184554
-0.578109
-0.561284
-0.377557
-0.267593
-0.199571
-0.141501
-0.113271
-0.0910381
-0.0787376
-0.0692455
-0.0620749
-0.0555059
-0.0495081
-0.0438013
-0.0384978
-0.0335836
-0.0291544
-0.0251772
-0.0216724
-0.0186438
-0.573225
-0.547372
-0.375667
-0.265696
-0.201107
-0.143588
-0.115591
-0.0928448
-0.0799214
-0.0697811
-0.0621721
-0.0553315
-0.0492237
-0.0435048
-0.038254
-0.0334225
-0.0290838
-0.0251861
-0.0217578
-0.0187791
-0.56954
-0.532922
-0.373643
-0.263539
-0.202222
-0.145252
-0.117521
-0.0943486
-0.0809095
-0.0702094
-0.0622199
-0.0551371
-0.0489293
-0.0431962
-0.0379908
-0.0332326
-0.0289752
-0.0251509
-0.021795
-0.0188633
-0.567188
-0.518352
-0.371468
-0.261147
-0.202935
-0.146512
-0.119079
-0.0955615
-0.0817031
-0.0705235
-0.0622075
-0.0549117
-0.0486156
-0.0428687
-0.0377037
-0.0330118
-0.028828
-0.0250727
-0.0217857
-0.0188983
-0.566219
-0.50398
-0.369132
-0.258539
-0.203264
-0.147388
-0.120287
-0.0964952
-0.0823043
-0.0707184
-0.0621262
-0.0546461
-0.0482742
-0.042516
-0.0373888
-0.0327577
-0.028642
-0.0249524
-0.0217311
-0.0188857
-0.566608
-0.490024
-0.366629
-0.255731
-0.203227
-0.147897
-0.121159
-0.0971608
-0.0827154
-0.07079
-0.0619688
-0.0543322
-0.0478982
-0.0421327
-0.0370425
-0.0324686
-0.0284167
-0.0247906
-0.0216324
-0.0188271
-0.568278
-0.476615
-0.363953
-0.252734
-0.202841
-0.148057
-0.121714
-0.0975685
-0.0829396
-0.0707357
-0.0617293
-0.0539634
-0.0474814
-0.0417141
-0.0366614
-0.0321424
-0.0281517
-0.0245878
-0.0214905
-0.0187239
-0.571111
-0.46382
-0.361099
-0.249556
-0.202123
-0.147884
-0.121965
-0.0977283
-0.08298
-0.0705536
-0.0614032
-0.0535342
-0.0470186
-0.041256
-0.0362428
-0.0317776
-0.0278466
-0.0243444
-0.0213061
-0.0185778
-0.574966
-0.451655
-0.358067
-0.246205
-0.201086
-0.147394
-0.121926
-0.0976496
-0.0828404
-0.0702426
-0.0609866
-0.0530398
-0.0465053
-0.0407549
-0.0357841
-0.0313729
-0.0275011
-0.0240605
-0.0210798
-0.0183904
-0.579682
-0.440103
-0.354853
-0.242684
-0.199745
-0.1466
-0.121611
-0.097341
-0.0825244
-0.0698025
-0.0604767
-0.0524766
-0.0459378
-0.0402077
-0.0352832
-0.030927
-0.027115
-0.0237364
-0.0208124
-0.0181632
-0.585091
-0.429129
-0.351456
-0.238995
-0.198112
-0.145515
-0.121031
-0.0968109
-0.082036
-0.0692334
-0.0598715
-0.0518414
-0.045313
-0.039612
-0.0347381
-0.0304388
-0.0266879
-0.0233722
-0.0205043
-0.0178973
-0.591017
-0.418683
-0.347868
-0.235137
-0.196198
-0.144151
-0.120197
-0.0960672
-0.0813792
-0.0685361
-0.0591695
-0.0511318
-0.0446284
-0.0389655
-0.0341474
-0.0299076
-0.0262196
-0.0229681
-0.0201564
-0.0175939
-0.597285
-0.408708
-0.344081
-0.231111
-0.194012
-0.142518
-0.11912
-0.0951173
-0.080558
-0.0677115
-0.0583699
-0.0503461
-0.0438821
-0.0382667
-0.0335098
-0.0293325
-0.0257101
-0.0225242
-0.0197692
-0.017254
-0.603718
-0.399143
-0.340088
-0.226912
-0.191565
-0.140627
-0.117809
-0.093968
-0.0795769
-0.0667611
-0.0574725
-0.049483
-0.0430726
-0.0375141
-0.0328243
-0.0287133
-0.0251591
-0.0220406
-0.0193437
-0.016879
-0.610146
-0.389922
-0.335876
-0.222538
-0.188865
-0.138485
-0.116275
-0.0926251
-0.0784403
-0.0656868
-0.0564772
-0.0485419
-0.0421987
-0.0367068
-0.0320901
-0.0280494
-0.0245666
-0.0215175
-0.0188806
-0.0164702
-0.616402
-0.380976
-0.331435
-0.217983
-0.185919
-0.136099
-0.114527
-0.0910947
-0.0771528
-0.0644906
-0.0553847
-0.0475224
-0.0412601
-0.0358441
-0.0313069
-0.0273407
-0.0239325
-0.0209547
-0.0183802
-0.0160288
-0.622326
-0.372238
-0.326754
-0.213241
-0.182735
-0.133476
-0.112574
-0.0893833
-0.0757178
-0.0631752
-0.0541953
-0.0464246
-0.0402563
-0.0349258
-0.0304742
-0.0265873
-0.0232569
-0.0203524
-0.0178424
-0.015554
-0.627768
-0.363641
-0.32182
-0.208304
-0.179324
-0.13062
-0.110425
-0.0874985
-0.0741379
-0.0617439
-0.0529097
-0.0452485
-0.0391873
-0.0339516
-0.0295919
-0.0257891
-0.0225401
-0.0197116
-0.0172673
-0.015042
-0.632587
-0.355119
-0.316623
-0.203162
-0.175692
-0.12754
-0.108081
-0.0854478
-0.0724175
-0.0601997
-0.0515292
-0.0439938
-0.0380539
-0.0329217
-0.0286605
-0.0249463
-0.0217829
-0.0190334
-0.0166557
-0.0144855
-0.636651
-0.346606
-0.311156
-0.197806
-0.171844
-0.124246
-0.10555
-0.0832317
-0.0705684
-0.0585399
-0.0500587
-0.0426596
-0.0368575
-0.0318356
-0.0276818
-0.0240588
-0.0209866
-0.0183195
-0.0160092
-0.013878
-0.63984
-0.338041
-0.305412
-0.192233
-0.167778
-0.120734
-0.102857
-0.0808311
-0.068615
-0.0567499
-0.0485108
-0.0412461
-0.0356004
-0.030693
-0.0266577
-0.0231269
-0.0201522
-0.0175703
-0.0153273
-0.0132245
-0.642044
-0.329361
-0.299386
-0.186442
-0.163506
-0.116962
-0.10007
-0.0782045
-0.0665855
-0.0548141
-0.0468974
-0.0397586
-0.0342825
-0.0294959
-0.0255873
-0.0221529
-0.0192802
-0.0167857
-0.0146035
-0.0125482
-0.643165
-0.320506
-0.293068
-0.180409
-0.1591
-0.112848
-0.0972726
-0.0753312
-0.0644706
-0.0527624
-0.0451993
-0.0382115
-0.0328975
-0.0282533
-0.0244634
-0.021141
-0.0183698
-0.0159637
-0.0138359
-0.0118619
-0.643119
-0.311427
-0.286441
-0.174028
-0.154711
-0.108362
-0.0944247
-0.0723092
-0.0621769
-0.0506811
-0.0433783
-0.0366103
-0.0314475
-0.0269604
-0.0232919
-0.0200896
-0.0174223
-0.0151027
-0.0130332
-0.0111587
-0.64183
-0.302082
-0.279524
-0.167143
-0.150422
-0.103683
-0.0912329
-0.0693426
-0.0596783
-0.048559
-0.0414509
-0.0349436
-0.0299394
-0.0256156
-0.0220764
-0.0189984
-0.0164383
-0.0142042
-0.0122012
-0.0104315
-0.639236
-0.29241
-0.272435
-0.15975
-0.145945
-0.0990685
-0.0876941
-0.0663692
-0.0570147
-0.0463648
-0.0394429
-0.033206
-0.0283771
-0.02422
-0.0208188
-0.0178684
-0.0154184
-0.0132711
-0.0113418
-0.00967674
-0.635286
-0.282282
-0.265374
-0.15216
-0.140916
-0.0945294
-0.0838726
-0.0633393
-0.0542252
-0.0440803
-0.0373668
-0.0313984
-0.0267621
-0.0227762
-0.0195204
-0.016701
-0.0143639
-0.012306
-0.0104555
-0.0088936
-0.62994
-0.271505
-0.258344
-0.144467
-0.135377
-0.0899982
-0.0798327
-0.0602166
-0.0513358
-0.0417
-0.0352272
-0.0295252
-0.0250955
-0.0212865
-0.0181825
-0.0154979
-0.0132763
-0.0113109
-0.00954272
-0.0080828
-0.623167
-0.260052
-0.250779
-0.137063
-0.129431
-0.085416
-0.0756209
-0.0569825
-0.0483617
-0.0392255
-0.0330258
-0.0275911
-0.0233788
-0.0197534
-0.0168067
-0.0142606
-0.0121572
-0.0102874
-0.00860403
-0.00724564
-0.614951
-0.248391
-0.242452
-0.129755
-0.123158
-0.0807419
-0.0712698
-0.0536289
-0.0453111
-0.0366627
-0.0307635
-0.0256006
-0.021614
-0.0181789
-0.0153948
-0.0129909
-0.0110084
-0.00923696
-0.00764057
-0.00638365
-0.60529
-0.236629
-0.233353
-0.122442
-0.116615
-0.0759505
-0.0668017
-0.0501556
-0.042188
-0.0340186
-0.0284415
-0.0235574
-0.0198037
-0.0165654
-0.0139487
-0.0116907
-0.00983169
-0.00816129
-0.00665381
-0.00549847
-0.594233
-0.224615
-0.223605
-0.115049
-0.109842
-0.0710271
-0.0622314
-0.0465669
-0.0389951
-0.0313002
-0.0260622
-0.021465
-0.0179506
-0.0149149
-0.0124705
-0.0103618
-0.00862888
-0.00706204
-0.00564539
-0.00459181
-0.581902
-0.212174
-0.213294
-0.107537
-0.102872
-0.0659651
-0.0575693
-0.0428697
-0.0357347
-0.0285141
-0.0236284
-0.0193265
-0.0160575
-0.01323
-0.0109623
-0.00900617
-0.00740184
-0.00594095
-0.004617
-0.00366561
-0.568381
-0.199211
-0.202485
-0.0998796
-0.0957293
-0.0607635
-0.0528231
-0.0390721
-0.0324093
-0.0256662
-0.0211436
-0.017145
-0.0141274
-0.0115132
-0.00942628
-0.00762591
-0.00615247
-0.0047998
-0.00357039
-0.00272213
-0.553439
-0.185931
-0.191229
-0.0920623
-0.0884333
-0.0554253
-0.0479987
-0.0351828
-0.0290221
-0.0227619
-0.0186116
-0.0149239
-0.0121631
-0.00976695
-0.00786484
-0.00622312
-0.00488279
-0.00364054
-0.00250763
-0.0017638
-0.536622
-0.172714
-0.17957
-0.0840767
-0.081001
-0.0499562
-0.0431013
-0.0312104
-0.0255769
-0.0198063
-0.0160363
-0.0126665
-0.0101677
-0.00799404
-0.00628032
-0.00479996
-0.0035949
-0.0024655
-0.00143129
-0.000792685
-0.518222
-0.159361
-0.167543
-0.075919
-0.0734464
-0.0443639
-0.0381361
-0.0271634
-0.0220781
-0.0168045
-0.0134219
-0.0103761
-0.00814428
-0.00619716
-0.00467512
-0.0033586
-0.00229105
-0.0012774
-0.000344576
0.000189653
-0.498361
-0.145792
-0.155182
-0.0675897
-0.0657825
-0.0386575
-0.0331082
-0.0230499
-0.0185304
-0.0137612
-0.0107725
-0.00805632
-0.00609588
-0.00437906
-0.00305164
-0.00190122
-0.000973472
-7.89781e-05
0.000749212
0.00118091
-0.477132
-0.131961
-0.142517
-0.0590927
-0.0580209
-0.0328469
-0.0280232
-0.018878
-0.0149392
-0.0106815
-0.00809231
-0.00571081
-0.00402571
-0.00254254
-0.00141234
-0.000430007
0.000355689
0.00112746
0.00184723
0.00217585
-0.454621
-0.117848
-0.129576
-0.0504349
-0.0501728
-0.0269427
-0.0228872
-0.0146553
-0.0113097
-0.00757017
-0.0053857
-0.00334323
-0.00193698
-0.000690432
0.00024027
0.00105271
0.00169431
0.00234013
0.00294741
0.0031667
-0.43091
-0.103447
-0.11639
-0.0416255
-0.0422495
-0.0209558
-0.0177066
-0.0103895
-0.00764765
-0.00443225
-0.00265698
-0.000957318
0.000167043
0.0011744
0.00190359
0.00254448
0.00304014
0.00355735
0.00404833
0.00414982
-0.406086
-0.0887602
-0.102984
-0.0326761
-0.034262
-0.0148976
-0.0124883
-0.00608812
-0.00395892
-0.00127277
8.94823e-05
0.00144314
0.00228307
0.00304905
0.00357496
0.00404277
0.00439084
0.00477707
0.00514912
0.00513488
-0.380233
-0.0737986
-0.0893872
-0.0235996
-0.0262217
-0.00877927
-0.0072395
-0.00175857
-0.000249422
0.00190315
0.00284925
0.00385432
0.00440776
0.00493055
0.0052517
0.00554521
0.00574446
0.00599748
0.00624968
0.00614065
-0.35344
-0.0585777
-0.0756274
-0.0144108
-0.0181402
-0.00261255
-0.00196795
0.00259166
0.00347479
0.00509034
0.00561787
0.00627237
0.00653774
0.0068159
0.00693117
0.00704986
0.00710008
0.00721817
0.00734919
0.00716602
-0.325799
-0.043118
-0.0617326
-0.0051255
-0.0100295
0.00359094
0.00331836
0.00695512
0.00720758
0.00828359
0.00839085
0.00869342
0.00866958
0.00870206
0.00861092
0.00855532
0.0084578
0.00843929
0.00843992
0.00815733
-0.297401
-0.0274438
-0.0477312
0.00423916
-0.00190209
0.00981944
0.00861116
0.0113243
0.0109428
0.0114776
0.0111637
0.0111135
0.0107998
0.010586
0.0102887
0.0100606
0.00981733
0.00965702
0.00949875
0.00902432
-0.268343
-0.011583
-0.033652
0.0136653
0.00622931
0.0160611
0.0139019
0.0156918
0.0146741
0.0146672
0.0139318
0.0135287
0.0129249
0.012465
0.0119628
0.0115647
0.0111759
0.0108593
0.0104933
0.009747
-0.238719
0.00443377
-0.0195242
0.0231343
0.0143515
0.0223042
0.019182
0.0200499
0.0183952
0.017847
0.0166907
0.0159351
0.0150415
0.0143362
0.0136312
0.0130655
0.012527
0.0120309
0.0114166
0.0104787
-0.208629
0.0205733
-0.00537732
0.0326267
0.0224509
0.0285367
0.0244423
0.0243913
0.0220999
0.0210117
0.0194357
0.0183286
0.0171461
0.0161972
0.015292
0.0145592
0.0138622
0.0131665
0.0123207
0.0114404
-0.178171
0.0368002
0.00875859
0.0421226
0.0305136
0.0347466
0.0296741
0.0287082
0.0257818
0.024156
0.0221623
0.0207053
0.0192356
0.0180453
0.0169424
0.0160405
0.0151748
0.0142771
0.0132789
0.0126934
-0.147444
0.0530772
0.0228533
0.0516019
0.0385254
0.0409222
0.0348682
0.0329931
0.0294347
0.0272746
0.0248659
0.0230613
0.0213067
0.019878
0.0185789
0.0175044
0.0164625
0.015378
0.0142885
0.0140363
-0.116549
0.0693659
0.0368765
0.0610438
0.0464721
0.0470513
0.0400153
0.0372385
0.0330522
0.0303621
0.027542
0.0253927
0.0233562
0.0216922
0.020198
0.0189473
0.0177282
0.0164824
0.0153567
0.01525
-0.0855861
0.0856263
0.0507974
0.0704275
0.054339
0.0531222
0.0451064
0.0414367
0.0366279
0.0334133
0.0301859
0.0276957
0.0253809
0.0234848
0.0217962
0.0203672
0.0189772
0.0175992
0.0164528
0.0163374
-0.0546547
0.101817
0.0645852
0.0797321
0.0621113
0.0591228
0.0501323
0.0455804
0.0401558
0.036423
0.0327933
0.0299665
0.0273776
0.0252526
0.0233701
0.0217633
0.0202116
0.0187217
0.0175429
0.017349
-0.0238543
0.117898
0.0782091
0.0889364
0.0697744
0.0650415
0.0550837
0.049662
0.0436295
0.0393859
0.0353597
0.0322015
0.0293429
0.0269924
0.0249172
0.0231353
0.0214325
0.019842
0.0186113
0.0183073
0.0067166
0.133825
0.0916386
0.0980195
0.0773133
0.0708665
0.0599515
0.0536741
0.047043
0.0422969
0.0378808
0.0343969
0.0312736
0.0287009
0.0264352
0.0244824
0.0226379
0.0209518
0.0196544
0.0192312
0.0369608
0.149556
0.104843
0.10696
0.0847135
0.0765863
0.0647269
0.0576095
0.0503902
0.0451511
0.0403522
0.0365491
0.0331664
0.0303753
0.0279221
0.0258037
0.0238249
0.0220449
0.0206708
0.0201263
0.0667824
0.16505
0.117792
0.115738
0.0919601
0.0821893
0.0694007
0.061461
0.0536652
0.0479433
0.0427698
0.0386545
0.035018
0.0320128
0.0293758
0.0270973
0.0249903
0.0231169
0.0216607
0.0209956
0.0960876
0.180263
0.130456
0.124333
0.0990386
0.0876644
0.0739643
0.0652215
0.0568621
0.0506688
0.0451295
0.0407095
0.0368252
0.0336106
0.0307943
0.0283614
0.026131
0.0241651
0.0226241
0.0218392
0.124784
0.195154
0.142806
0.132724
0.105935
0.0930005
0.078409
0.068884
0.0599752
0.0533227
0.0474272
0.0427106
0.0385849
0.0351663
0.0321757
0.0295936
0.0272443
0.025187
0.0235602
0.0226564
0.152783
0.209681
0.154812
0.140891
0.112635
0.0981869
0.0827264
0.072442
0.0629989
0.0559006
0.049659
0.0446545
0.0402943
0.0366773
0.0335176
0.0307918
0.0283278
0.0261809
0.0244681
0.0234463
0.179997
0.223804
0.166446
0.148816
0.119124
0.103213
0.0869083
0.0758887
0.0659278
0.0583978
0.0518211
0.0465379
0.0419505
0.0381412
0.0348181
0.0319539
0.0293793
0.0271448
0.0253466
0.0242077
0.206342
0.237482
0.177682
0.156479
0.12539
0.108069
0.0909467
0.0792177
0.0687567
0.06081
0.0539097
0.0483574
0.0435506
0.0395557
0.036075
0.0330777
0.0303967
0.0280771
0.0261943
0.0249397
0.231736
0.250677
0.188492
0.163863
0.13142
0.112744
0.094834
0.082423
0.0714804
0.0631329
0.0559212
0.0501102
0.0450921
0.0409185
0.0372862
0.0341613
0.0313782
0.0289762
0.0270098
0.0256414
0.256103
0.263351
0.198851
0.170949
0.137201
0.117229
0.0985626
0.0854986
0.0740942
0.0653626
0.0578523
0.0517932
0.0465724
0.0422273
0.0384498
0.0352028
0.032322
0.0298403
0.027792
0.0263121
0.279368
0.275469
0.208735
0.177721
0.14272
0.121515
0.102126
0.0884389
0.0765932
0.0674951
0.0596996
0.0534036
0.047989
0.0434801
0.0395638
0.0362005
0.0332265
0.030668
0.0285396
0.026951
0.30146
0.286995
0.21812
0.184163
0.147967
0.125594
0.105516
0.0912383
0.0789731
0.0695268
0.0614599
0.0549386
0.0493396
0.0446748
0.0406264
0.0371527
0.0340899
0.0314578
0.0292516
0.0275578
0.322313
0.297897
0.226983
0.19026
0.152931
0.129457
0.108727
0.0938917
0.0812296
0.071454
0.0631303
0.0563958
0.050622
0.0458094
0.041636
0.0380577
0.0349109
0.0322083
0.0299268
0.0281319
0.341865
0.308143
0.235305
0.195997
0.1576
0.133096
0.111754
0.0963944
0.0833587
0.0732736
0.0647079
0.0577728
0.0518341
0.0468822
0.0425908
0.0389141
0.0356878
0.0329181
0.0305644
0.0286731
0.360058
0.317705
0.243065
0.201361
0.161967
0.136504
0.114589
0.0987417
0.0853567
0.0749824
0.0661902
0.0590671
0.0529739
0.0478915
0.0434893
0.0397205
0.0364195
0.0335861
0.0311635
0.029181
0.376838
0.326556
0.250245
0.206339
0.166021
0.139674
0.117229
0.10093
0.08722
0.0765775
0.0675745
0.0602769
0.0540397
0.0488355
0.0443301
0.0404755
0.0371045
0.0342111
0.0317234
0.0296554
0.392156
0.334669
0.256828
0.210921
0.169754
0.1426
0.119667
0.102954
0.0889456
0.0780562
0.0688588
0.0614
0.0550296
0.0497129
0.045112
0.0411778
0.0377418
0.034792
0.0322434
0.0300962
0.405968
0.342024
0.2628
0.215095
0.173159
0.145277
0.121901
0.104811
0.0905304
0.079416
0.0700408
0.0624347
0.0559421
0.0505223
0.0458336
0.0418265
0.0383303
0.0353279
0.0327228
0.0305032
0.418233
0.3486
0.268147
0.218852
0.17623
0.147699
0.123924
0.106498
0.0919718
0.0806549
0.0711187
0.0633794
0.0567759
0.0512624
0.0464939
0.0424204
0.0388689
0.035818
0.0331612
0.0308763
0.428919
0.354378
0.272857
0.222184
0.178959
0.149862
0.125735
0.108012
0.0932675
0.0817707
0.0720909
0.0642327
0.0575296
0.0519322
0.047092
0.0429587
0.0393569
0.0362615
0.0335579
0.0312154
0.437993
0.359345
0.27692
0.225085
0.181343
0.151761
0.12733
0.109351
0.0944153
0.0827618
0.0729557
0.0649931
0.0582022
0.0525306
0.0476269
0.0434405
0.0397933
0.0366576
0.0339126
0.0315204
0.445433
0.363486
0.280328
0.227548
0.183377
0.153395
0.128707
0.110512
0.0954136
0.0836267
0.073712
0.0656598
0.0587927
0.0530569
0.0480978
0.0438651
0.0401777
0.0370057
0.0342249
0.0317913
0.451219
0.366794
0.283073
0.229568
0.185057
0.154759
0.129862
0.111493
0.0962607
0.0843641
0.0743586
0.0662316
0.0593002
0.0535102
0.0485042
0.0442319
0.0405093
0.0373057
0.0344948
0.032028
0.455336
0.369259
0.285151
0.231142
0.186381
0.155852
0.130796
0.112294
0.0969557
0.0849731
0.0748948
0.0667079
0.0597241
0.0538902
0.0488455
0.0445405
0.040788
0.0375571
0.034722
0.0322303
0.457775
0.370878
0.286559
0.232269
0.187348
0.156673
0.131506
0.112913
0.0974977
0.085453
0.0753198
0.0670881
0.060064
0.0541962
0.0491213
0.0447905
0.0410131
0.0377591
0.034905
0.0323958
0.458534
0.371648
0.287296
0.232945
0.187955
0.157221
0.131991
0.11335
0.0978862
0.0858032
0.0756333
0.0673719
0.0603195
0.054428
0.0493314
0.0449817
0.0411846
0.037912
0.0350443
0.0325264
0.457614
0.37157
0.287361
0.233173
0.188204
0.157496
0.132253
0.113604
0.0981209
0.0860236
0.0758351
0.067559
0.0604903
0.0545854
0.0494756
0.0451138
0.0413024
0.0380159
0.0351411
0.0326233
0.455022
0.370649
0.286758
0.232954
0.188096
0.157498
0.13229
0.113676
0.0982019
0.0861142
0.0759251
0.0676493
0.0605765
0.0546684
0.0495538
0.045187
0.0413665
0.0380707
0.0351948
0.0326863
0.450771
0.368889
0.28549
0.232289
0.187631
0.157228
0.132105
0.113566
0.0981296
0.0860752
0.0759035
0.0676431
0.0605781
0.0546771
0.0495661
0.0452013
0.041377
0.0380764
0.0352051
0.0327143
0.44488
0.3663
0.283563
0.231182
0.186812
0.156689
0.131697
0.113276
0.0979048
0.0859073
0.0757707
0.0675407
0.0604955
0.0546117
0.0495128
0.0451568
0.0413342
0.0380332
0.0351721
0.032707
0.437371
0.362894
0.280985
0.22964
0.185644
0.155882
0.13107
0.112806
0.0975284
0.0856111
0.0755275
0.0673426
0.060329
0.0544724
0.0493941
0.0450539
0.0412384
0.0379417
0.0350959
0.0326643
0.428273
0.358683
0.277765
0.227667
0.18413
0.154811
0.130224
0.112159
0.0970018
0.0851877
0.0751745
0.0670494
0.0600793
0.05426
0.0492104
0.044893
0.04109
0.037802
0.0349768
0.0325859
0.41762
0.353686
0.273914
0.225272
0.182275
0.15348
0.129164
0.111335
0.0963264
0.0846384
0.0747128
0.066662
0.059747
0.0539748
0.0489624
0.0446746
0.0408897
0.0376148
0.0348148
0.0324717
0.40545
0.347921
0.269444
0.222462
0.180085
0.151892
0.127891
0.110339
0.0955043
0.0839646
0.0741437
0.0661814
0.0593331
0.0536178
0.0486506
0.0443993
0.0406379
0.0373805
0.0346104
0.0323216
0.391808
0.341409
0.264371
0.219247
0.177567
0.150053
0.12641
0.109171
0.0945376
0.0831681
0.0734686
0.0656088
0.0588384
0.0531897
0.0482758
0.044068
0.0403356
0.0371
0.0343637
0.0321353
0.376741
0.334176
0.258711
0.215637
0.174728
0.147968
0.124725
0.107837
0.0934287
0.0822509
0.072689
0.0649455
0.0582643
0.0526916
0.047839
0.0436813
0.0399835
0.0367739
0.0340752
0.0319129
0.360303
0.326246
0.252479
0.211645
0.171576
0.145642
0.12284
0.106338
0.0921804
0.081215
0.0718069
0.0641931
0.0576119
0.0521245
0.047341
0.0432403
0.0395825
0.0364031
0.0337455
0.0316543
0.342552
0.31765
0.245697
0.207283
0.16812
0.143083
0.120759
0.104679
0.0907954
0.080063
0.070824
0.0633532
0.0568826
0.0514897
0.046783
0.0427459
0.0391338
0.0359885
0.0333751
0.0313595
0.32355
0.308417
0.238383
0.202565
0.16437
0.140297
0.118489
0.102863
0.0892771
0.0787972
0.0697426
0.0624275
0.0560781
0.0507885
0.0461662
0.0421992
0.0386383
0.0355312
0.0329647
0.0310287
0.303364
0.29858
0.230559
0.197504
0.160335
0.137291
0.116034
0.100896
0.0876289
0.0774206
0.0685649
0.0614181
0.0551999
0.0500223
0.0454919
0.0416016
0.0380972
0.0350322
0.0325149
0.0306621
0.282064
0.288173
0.22225
0.192117
0.156027
0.134073
0.113401
0.0987806
0.0858543
0.075936
0.0672935
0.0603269
0.0542499
0.0491928
0.0447614
0.0409542
0.0375119
0.0344927
0.0320268
0.03026
0.259726
0.277233
0.213477
0.186418
0.151455
0.130651
0.110596
0.0965227
0.0839572
0.0743465
0.0659308
0.0591561
0.0532298
0.0483015
0.0439763
0.0402585
0.0368836
0.033914
0.0315012
0.0298227
0.236428
0.265796
0.204267
0.180425
0.146633
0.127035
0.107624
0.0941271
0.0819417
0.0726555
0.0644797
0.0579081
0.0521417
0.0473501
0.0431382
0.039516
0.0362139
0.0332974
0.0309391
0.0293507
0.212254
0.253901
0.194646
0.174156
0.141571
0.123232
0.104494
0.0915989
0.0798119
0.0708662
0.0629429
0.0565853
0.0509876
0.0463404
0.0422487
0.0387284
0.0355042
0.0326442
0.0303418
0.0288446
0.187287
0.24159
0.184641
0.167628
0.136283
0.119253
0.101211
0.0889437
0.0775721
0.0689823
0.0613235
0.0551901
0.0497698
0.0452743
0.0413095
0.0378973
0.0347561
0.0319559
0.0297103
0.0283053
0.161618
0.228902
0.17428
0.16086
0.130782
0.115106
0.0977834
0.086167
0.075227
0.0670074
0.0596245
0.0537253
0.0484904
0.0441536
0.0403223
0.0370248
0.0339718
0.0312342
0.0290458
0.0277336
0.135338
0.21588
0.16359
0.153871
0.125079
0.110801
0.0942182
0.0832746
0.0727811
0.0649454
0.0578491
0.0521936
0.0471519
0.0429803
0.0392889
0.0361126
0.0331531
0.0304802
0.0283493
0.0271305
0.108541
0.202567
0.152602
0.14668
0.11919
0.106349
0.090523
0.0802725
0.0702393
0.0628
0.0560005
0.0505977
0.0457568
0.0417564
0.0382108
0.0351629
0.0323028
0.0296963
0.0276219
0.0264969
0.081325
0.189005
0.141345
0.139307
0.113126
0.101759
0.0867053
0.0771665
0.0676063
0.0605754
0.0540822
0.0489405
0.0443075
0.0404841
0.0370897
0.0341775
0.0314238