/*--------------------------------*- C++ -*----------------------------------*\
  =========                 |
  \\      /  F ield         | OpenFOAM: The Open Source CFD Toolbox
   \\    /   O peration     | Website:  https://openfoam.org
    \\  /    A nd           | Version:  7
     \\/     M anipulation  |
\*---------------------------------------------------------------------------*/
FoamFile
{
    version     2.0;
    format      ascii;
    class       volScalarField;
    location    "4.5";
    object      T;
}
// * * * * * * * * * * * * * * * * * * * * * * * * * * * * * * * * * * * * * //

dimensions      [0 0 0 1 0 0 0];

internalField   nonuniform List<scalar> 
2413
(
0.980809
0.98258
0.984934
0.987928
0.991552
0.995639
0.999832
1.00385
1.00779
1.01166
1.015
1.0176
1.01977
1.02153
1.02278
1.02352
1.02368
1.02327
1.02236
1.02128
1.02062
1.02083
1.02233
1.02469
1.028
1.03475
1.04409
1.05254
1.0588
1.06333
1.06687
1.07001
1.07207
1.07368
1.07565
1.07801
1.08062
1.08335
1.08615
1.089
1.09188
1.0948
1.09775
1.10072
1.10371
1.10669
1.10964
1.11253
1.11532
1.11803
1.12068
1.12328
1.12579
1.12822
1.13058
1.13293
1.13531
1.1378
1.14044
1.1433
1.14647
1.15003
1.15405
1.15852
1.16332
1.16828
1.1732
1.17779
1.18179
1.1851
1.18776
1.18983
1.19142
1.19261
1.19348
1.19412
1.1946
1.19497
1.19529
1.19556
1.19581
1.19604
1.19626
1.19647
1.19667
1.19686
1.19705
1.19722
0.98206
0.98401
0.986484
0.989464
0.992914
0.996743
1.00077
1.00462
1.00805
1.01088
1.01329
1.01534
1.01715
1.01888
1.02059
1.02217
1.02318
1.02332
1.0228
1.02191
1.02128
1.02146
1.0229
1.02519
1.02845
1.03518
1.04463
1.0533
1.05977
1.06445
1.06808
1.07125
1.07352
1.0751
1.07702
1.07934
1.08192
1.08463
1.08742
1.09026
1.09314
1.09604
1.09896
1.10189
1.1048
1.10769
1.11053
1.11329
1.11595
1.11852
1.12102
1.12349
1.12593
1.12838
1.13084
1.13332
1.13585
1.13846
1.14121
1.14416
1.1474
1.15101
1.15502
1.15941
1.16407
1.1688
1.17334
1.17748
1.18115
1.18429
1.18692
1.18908
1.19082
1.19218
1.1932
1.19395
1.1945
1.19492
1.19525
1.19553
1.19577
1.19599
1.19619
1.19637
1.19654
1.19669
1.19681
1.19693
0.984098
0.986256
0.988808
0.991606
0.994495
0.997361
1.00013
1.00288
1.0054
1.00764
1.00965
1.01164
1.01373
1.01591
1.01815
1.02038
1.02246
1.02357
1.02335
1.02255
1.02192
1.02207
1.02347
1.02579
1.02898
1.03564
1.04536
1.0544
1.06115
1.06604
1.06984
1.0731
1.07536
1.07676
1.07843
1.08052
1.08291
1.08545
1.0881
1.09082
1.0936
1.09643
1.09928
1.10214
1.10498
1.10781
1.1106
1.11336
1.11608
1.11877
1.1214
1.12396
1.1265
1.12903
1.13158
1.13417
1.13682
1.13957
1.14248
1.14561
1.14903
1.15277
1.15682
1.16108
1.16538
1.16954
1.17347
1.17714
1.18047
1.18348
1.1861
1.18835
1.19025
1.1918
1.19306
1.19403
1.19477
1.1953
1.19569
1.19597
1.19618
1.19634
1.19648
1.19657
1.19664
1.19669
1.19673
1.19676
0.987378
0.989606
0.991995
0.99441
0.996653
0.998542
1.00017
1.00141
1.00252
1.00392
1.00569
1.00778
1.0101
1.01255
1.01507
1.01758
1.02003
1.0222
1.02315
1.0229
1.02256
1.0229
1.02434
1.02669
1.02984
1.03648
1.04653
1.05606
1.06322
1.06841
1.07244
1.0758
1.07817
1.07947
1.08091
1.08278
1.08494
1.08728
1.08974
1.09229
1.09492
1.09761
1.10032
1.10305
1.10579
1.1085
1.1112
1.11391
1.11663
1.11933
1.12199
1.12461
1.12721
1.12982
1.13247
1.13522
1.13808
1.14111
1.14436
1.14787
1.15165
1.15563
1.1597
1.16369
1.16745
1.17093
1.17417
1.17726
1.18021
1.18301
1.18561
1.18793
1.18995
1.19169
1.19318
1.19441
1.19539
1.19609
1.19657
1.1969
1.19711
1.19721
1.19723
1.19719
1.19711
1.19702
1.19692
1.19683
0.991174
0.99313
0.994922
0.996492
0.997709
0.998306
0.998644
0.999085
0.999837
1.00099
1.00253
1.00441
1.00659
1.00901
1.0116
1.01426
1.01691
1.01944
1.02156
1.02271
1.02308
1.02363
1.02512
1.02753
1.03068
1.03733
1.04784
1.05803
1.06572
1.07125
1.07548
1.07895
1.08141
1.08261
1.08382
1.08545
1.08741
1.08956
1.09185
1.09424
1.09672
1.09925
1.10182
1.10442
1.10703
1.10966
1.1123
1.11494
1.11759
1.12023
1.12287
1.1255
1.12816
1.13087
1.13368
1.13664
1.13982
1.14326
1.14696
1.15087
1.15491
1.15894
1.16277
1.16625
1.16937
1.17222
1.17492
1.17756
1.18023
1.18288
1.18544
1.18782
1.19001
1.19194
1.19362
1.19504
1.1962
1.19711
1.19781
1.19829
1.19856
1.19864
1.19858
1.19847
1.1983
1.19811
1.19792
1.19773
0.994698
0.996207
0.997323
0.997961
0.998009
0.997665
0.997393
0.997478
0.997969
0.998861
1.00011
1.00168
1.00357
1.00575
1.00818
1.0108
1.01349
1.01613
1.01854
1.02057
1.0222
1.02369
1.02554
1.02806
1.03128
1.03806
1.04914
1.0601
1.06836
1.07427
1.0787
1.08228
1.08491
1.08612
1.08716
1.08861
1.09039
1.09238
1.0945
1.09672
1.09901
1.10135
1.10373
1.10612
1.10854
1.11097
1.11344
1.11593
1.11845
1.121
1.12359
1.12625
1.129
1.13189
1.13496
1.13824
1.14175
1.1455
1.14946
1.15352
1.15754
1.1613
1.16467
1.16763
1.17028
1.17274
1.17516
1.17756
1.18001
1.18251
1.18501
1.18748
1.18984
1.19202
1.19396
1.19565
1.19708
1.19827
1.19917
1.19975
1.20008
1.20025
1.2003
1.20023
1.20009
1.19993
1.19976
1.19959
0.997049
0.998264
0.998719
0.998118
0.997225
0.996653
0.996472
0.996588
0.996958
0.9976
0.998538
0.999799
1.00138
1.00326
1.00541
1.00779
1.01029
1.0128
1.01521
1.01748
1.01972
1.02207
1.02468
1.02762
1.03119
1.03836
1.05004
1.06186
1.07091
1.07726
1.08184
1.08551
1.0883
1.0896
1.0905
1.09173
1.09332
1.09514
1.09711
1.09916
1.10126
1.10338
1.10551
1.10764
1.10979
1.11199
1.11424
1.11655
1.11893
1.12138
1.12393
1.12661
1.12944
1.13247
1.13572
1.13922
1.14297
1.14691
1.15095
1.15497
1.15878
1.16223
1.16528
1.16798
1.17042
1.17269
1.17486
1.177
1.17919
1.18148
1.18386
1.1863
1.18874
1.1911
1.19327
1.19524
1.19697
1.19846
1.19968
1.20063
1.20135
1.20188
1.20221
1.20236
1.20246
1.20252
1.20254
1.20253
0.997612
0.997807
0.997441
0.997046
0.996666
0.996385
0.996263
0.996288
0.996465
0.996851
0.997507
0.998479
0.99979
1.00143
1.00334
1.00548
1.00775
1.01004
1.01225
1.01443
1.01677
1.01941
1.02236
1.02558
1.02947
1.03662
1.04874
1.06222
1.07269
1.0796
1.08448
1.08827
1.09126
1.09272
1.09348
1.0945
1.09589
1.09756
1.09938
1.10125
1.10312
1.10498
1.10683
1.10871
1.11063
1.11259
1.11461
1.1167
1.11888
1.12119
1.12364
1.12628
1.12913
1.13223
1.1356
1.13923
1.14308
1.14709
1.15111
1.15499
1.15856
1.16172
1.16448
1.16693
1.16922
1.1714
1.17352
1.17557
1.1776
1.17965
1.18177
1.18399
1.18633
1.18874
1.19111
1.19334
1.19537
1.19719
1.19883
1.20028
1.20155
1.20264
1.20358
1.20441
1.20508
1.20564
1.20617
1.20664
0.995149
0.995448
0.995616
0.995841
0.996015
0.996039
0.996
0.996012
0.996157
0.996478
0.997019
0.997824
0.998933
1.00036
1.00209
1.00402
1.00607
1.00812
1.0101
1.01205
1.01419
1.01673
1.01965
1.02287
1.02665
1.03311
1.04479
1.05935
1.07185
1.08043
1.08583
1.08968
1.09294
1.09489
1.09584
1.09673
1.09788
1.09928
1.10082
1.1024
1.104
1.10562
1.10728
1.10899
1.11075
1.11253
1.11435
1.11624
1.11823
1.12037
1.1227
1.12527
1.12812
1.13127
1.1347
1.13836
1.14218
1.14607
1.14987
1.15341
1.15654
1.15927
1.16174
1.16405
1.16623
1.16832
1.17032
1.17227
1.17418
1.17611
1.17813
1.18027
1.18251
1.18483
1.1872
1.18958
1.19197
1.19431
1.19651
1.19856
1.20044
1.20219
1.20386
1.20544
1.20685
1.20812
1.20919
1.21013
0.991668
0.992306
0.993048
0.993822
0.994552
0.995128
0.995488
0.995721
0.995969
0.996327
0.996855
0.997599
0.998601
0.999886
1.00143
1.00318
1.00503
1.00689
1.00864
1.01032
1.01215
1.01438
1.0171
1.02015
1.02351
1.02867
1.03886
1.05362
1.06761
1.07773
1.08437
1.08886
1.09247
1.09542
1.09695
1.09784
1.09884
1.10005
1.10141
1.10284
1.10432
1.10584
1.10739
1.10894
1.1105
1.11209
1.11372
1.11542
1.11725
1.11925
1.12148
1.124
1.12681
1.12993
1.1333
1.13687
1.14053
1.14415
1.14755
1.15061
1.15332
1.15577
1.15803
1.16013
1.1621
1.16396
1.16573
1.16747
1.1692
1.17097
1.17281
1.17478
1.1769
1.17919
1.18168
1.18433
1.18708
1.18983
1.19258
1.19528
1.19789
1.20037
1.20268
1.20479
1.20673
1.20853
1.21015
1.2116
0.987696
0.988662
0.98978
0.990958
0.992126
0.993224
0.994166
0.994896
0.995471
0.996032
0.996701
0.997543
0.998587
0.999836
1.00128
1.0029
1.00461
1.00627
1.00776
1.00908
1.01047
1.01222
1.01452
1.01729
1.02035
1.02438
1.03243
1.04591
1.06057
1.07213
1.08004
1.08547
1.0895
1.09301
1.09523
1.09638
1.09754
1.09899
1.10065
1.10238
1.10409
1.10569
1.10717
1.10856
1.10992
1.1113
1.11275
1.11431
1.11605
1.11799
1.12019
1.12267
1.12543
1.12844
1.13168
1.13506
1.13847
1.14177
1.14478
1.14742
1.14971
1.15174
1.15357
1.15529
1.15693
1.15854
1.16014
1.16177
1.16346
1.16525
1.16714
1.16914
1.17127
1.17355
1.176
1.17865
1.18149
1.18446
1.18755
1.19068
1.19379
1.19672
1.19945
1.20193
1.20418
1.2062
1.20803
1.20969
0.983838
0.98495
0.986212
0.987554
0.988925
0.990299
0.991661
0.992979
0.994191
0.995272
0.996279
0.997317
0.998466
0.999761
1.00121
1.00278
1.0044
1.0059
1.00716
1.00815
1.00905
1.01019
1.01188
1.01422
1.01702
1.02037
1.02666
1.03801
1.0519
1.06411
1.0731
1.07948
1.08425
1.08817
1.09155
1.09365
1.09505
1.0966
1.09838
1.10022
1.10198
1.10363
1.1052
1.10671
1.10818
1.10967
1.11121
1.11287
1.1147
1.11676
1.11903
1.12154
1.12426
1.12718
1.13026
1.13343
1.13651
1.13931
1.1417
1.14374
1.14557
1.14727
1.14889
1.15043
1.15194
1.15346
1.15503
1.15668
1.15844
1.16032
1.16232
1.16442
1.16662
1.16893
1.17136
1.17392
1.17661
1.17943
1.18236
1.18531
1.18825
1.19112
1.19385
1.19643
1.19881
1.20098
1.20295
1.20472
0.980258
0.981337
0.982564
0.983903
0.985327
0.986817
0.988363
0.989961
0.991611
0.993284
0.994891
0.996399
0.997843
0.999278
1.00075
1.00228
1.00383
1.00528
1.00646
1.00725
1.00775
1.00827
1.00928
1.01107
1.01356
1.01648
1.02151
1.03105
1.04353
1.05528
1.06461
1.07167
1.07713
1.0816
1.08545
1.0887
1.09103
1.09308
1.09522
1.09732
1.09926
1.10106
1.10277
1.10442
1.10602
1.10763
1.10927
1.11102
1.11292
1.11503
1.11736
1.11996
1.12279
1.12581
1.12892
1.13196
1.13474
1.13711
1.13907
1.14077
1.14231
1.14377
1.1452
1.14663
1.14811
1.14967
1.15133
1.15311
1.15501
1.15701
1.1591
1.16125
1.16342
1.16562
1.16784
1.17011
1.17244
1.17483
1.17726
1.17968
1.18203
1.18432
1.18658
1.18876
1.19087
1.19287
1.19475
1.19647
0.976934
0.977889
0.978995
0.980238
0.981611
0.983105
0.984711
0.986423
0.988233
0.990135
0.992091
0.994056
0.995983
0.997813
0.999551
1.00121
1.00277
1.00415
1.00519
1.00581
1.00613
1.00644
1.0071
1.00845
1.01055
1.01316
1.01722
1.0253
1.03656
1.04752
1.05646
1.06349
1.06917
1.07397
1.07818
1.08191
1.08496
1.08755
1.09025
1.093
1.09552
1.09769
1.09958
1.10131
1.10302
1.10479
1.10667
1.10868
1.11085
1.11322
1.11582
1.11865
1.12164
1.12471
1.12771
1.13047
1.13285
1.13488
1.13666
1.13829
1.13982
1.1413
1.14277
1.14427
1.14584
1.14752
1.14933
1.15127
1.15329
1.15536
1.15744
1.1595
1.16151
1.16347
1.16537
1.1672
1.16893
1.17056
1.17208
1.17354
1.175
1.17648
1.17797
1.17948
1.18102
1.18254
1.18403
1.18544
0.97386
0.974654
0.975606
0.976717
0.977986
0.979406
0.980972
0.982675
0.984501
0.986441
0.988479
0.990586
0.992714
0.99481
0.996877
0.998862
1.00072
1.00233
1.00356
1.00436
1.00481
1.00507
1.00545
1.00634
1.00802
1.0104
1.01366
1.02042
1.03078
1.0413
1.04988
1.05654
1.06191
1.0665
1.07063
1.07441
1.07768
1.08057
1.0836
1.08669
1.08967
1.09242
1.09501
1.09746
1.09976
1.1019
1.10394
1.10603
1.10837
1.11099
1.11386
1.1169
1.12003
1.12314
1.12606
1.12866
1.13088
1.1328
1.13453
1.13614
1.13772
1.1393
1.14093
1.14264
1.14447
1.14641
1.14843
1.1505
1.15256
1.15458
1.15651
1.15834
1.16007
1.16166
1.16308
1.1643
1.16527
1.16602
1.16659
1.1671
1.16765
1.16829
1.16902
1.16984
1.17072
1.17164
1.17258
1.17354
0.97104
0.971672
0.972458
0.973417
0.974561
0.975878
0.977342
0.978954
0.9807
0.98256
0.984515
0.986554
0.988671
0.990861
0.993113
0.995372
0.997582
0.999755
1.00162
1.00277
1.0033
1.00356
1.00383
1.00447
1.00584
1.008
1.01077
1.01627
1.0258
1.03617
1.04472
1.0512
1.05624
1.06042
1.06412
1.06757
1.07038
1.0731
1.07612
1.07932
1.08251
1.0856
1.08855
1.0914
1.09418
1.09698
1.09986
1.10281
1.10575
1.10866
1.11164
1.1147
1.11781
1.12083
1.12363
1.12612
1.12835
1.1304
1.13235
1.13425
1.13612
1.13801
1.13996
1.142
1.14412
1.14625
1.14835
1.15036
1.15227
1.15407
1.1557
1.15714
1.15835
1.1593
1.15995
1.16033
1.16049
1.16051
1.16051
1.1605
1.16055
1.16068
1.16089
1.16119
1.16159
1.16205
1.16256
1.1631
0.968411
0.968922
0.969579
0.970403
0.971405
0.972582
0.973925
0.97541
0.977017
0.978736
0.98055
0.98246
0.984476
0.986614
0.9889
0.991323
0.993789
0.996182
0.998486
1.00039
1.00132
1.00169
1.00198
1.00256
1.00379
1.0058
1.00838
1.01295
1.02162
1.03188
1.04062
1.04716
1.05208
1.056
1.05939
1.06241
1.06454
1.06664
1.06914
1.07195
1.07495
1.07804
1.08116
1.08428
1.08743
1.09064
1.09393
1.09729
1.10073
1.10429
1.10791
1.11153
1.11495
1.11806
1.12081
1.1233
1.12566
1.12798
1.13027
1.13257
1.13488
1.13723
1.13958
1.14189
1.14414
1.14626
1.14824
1.15006
1.15169
1.1531
1.15424
1.15508
1.15553
1.1556
1.15543
1.15515
1.15486
1.15461
1.15439
1.1542
1.15405
1.15392
1.15384
1.15381
1.15384
1.15394
1.15411
1.15433
0.965912
0.966372
0.966956
0.967687
0.968574
0.96962
0.970815
0.972145
0.973592
0.975156
0.976846
0.978646
0.980571
0.982643
0.984898
0.987344
0.989913
0.992469
0.994905
0.997235
0.998919
0.999552
0.999905
1.00053
1.00174
1.00367
1.00616
1.01005
1.01792
1.02816
1.03718
1.04388
1.04878
1.05259
1.05582
1.0585
1.06012
1.06169
1.06364
1.0659
1.06839
1.07105
1.07388
1.07689
1.08008
1.08345
1.08702
1.09076
1.09464
1.09857
1.10247
1.10631
1.11007
1.11365
1.11695
1.12
1.12289
1.12569
1.12849
1.13132
1.13417
1.13696
1.13957
1.14193
1.14402
1.14585
1.14744
1.14882
1.14991
1.15066
1.15097
1.15093
1.15066
1.15026
1.14985
1.14945
1.1491
1.14879
1.14853
1.1483
1.14811
1.14795
1.1478
1.14767
1.14756
1.14748
1.14746
1.14749
0.963496
0.963982
0.964563
0.965258
0.966077
0.967025
0.968099
0.969292
0.970601
0.972032
0.973605
0.975319
0.977168
0.979183
0.981386
0.983768
0.986283
0.988826
0.991286
0.993652
0.99571
0.996795
0.997448
0.998277
0.999588
1.00153
1.004
1.0074
1.01438
1.02457
1.03417
1.04134
1.04644
1.05028
1.05344
1.05595
1.0572
1.05829
1.05976
1.06159
1.06366
1.06589
1.06827
1.07083
1.07363
1.07671
1.08011
1.08382
1.08779
1.09195
1.09621
1.1005
1.10468
1.10866
1.11248
1.11622
1.11988
1.12348
1.12698
1.13035
1.13346
1.13617
1.13849
1.14052
1.14238
1.14398
1.14513
1.14573
1.14586
1.14575
1.1455
1.1452
1.14488
1.14457
1.14426
1.14397
1.14371
1.14347
1.14326
1.14307
1.1429
1.14274
1.14259
1.14245
1.14233
1.14224
1.14218
1.14215
0.961131
0.96171
0.962357
0.963083
0.963897
0.964805
0.965811
0.966919
0.968138
0.969483
0.970972
0.972612
0.974405
0.976356
0.978468
0.980726
0.983102
0.985537
0.987947
0.990291
0.992479
0.99395
0.99499
0.99609
0.997538
0.999506
1.00197
1.00502
1.01091
1.02075
1.03111
1.03907
1.04458
1.04857
1.05177
1.05435
1.05551
1.05619
1.05718
1.05858
1.06029
1.06221
1.06431
1.06659
1.06908
1.07181
1.0748
1.07812
1.0818
1.08582
1.0901
1.09458
1.09917
1.10385
1.10859
1.11318
1.11754
1.12165
1.12539
1.12862
1.1313
1.13355
1.1356
1.13728
1.13838
1.13903
1.13944
1.13968
1.13975
1.1397
1.13959
1.13943
1.13925
1.13908
1.13892
1.13879
1.13868
1.13859
1.13851
1.13845
1.13839
1.13832
1.13824
1.13815
1.13806
1.13798
1.13791
1.13785
0.958785
0.959511
0.960289
0.961117
0.961998
0.962939
0.963948
0.96504
0.966233
0.967545
0.96899
0.970578
0.972311
0.974184
0.976183
0.978291
0.980494
0.982773
0.985098
0.987422
0.989662
0.991417
0.992818
0.994165
0.995722
0.997702
1.00014
1.00297
1.00771
1.0166
1.02751
1.03663
1.0429
1.04721
1.05053
1.05335
1.05485
1.05537
1.05598
1.05696
1.05826
1.05981
1.06157
1.06352
1.06571
1.06819
1.07101
1.07422
1.07779
1.08166
1.08585
1.09042
1.09532
1.10034
1.10532
1.11019
1.11485
1.11907
1.12254
1.1252
1.12736
1.12918
1.13047
1.13136
1.13206
1.13259
1.13301
1.13332
1.13354
1.13366
1.13372
1.13373
1.13375
1.13377
1.13382
1.13388
1.13396
1.13404
1.13412
1.1342
1.13428
1.13433
1.13435
1.13435
1.13432
1.13427
1.13419
1.13409
0.956487
0.95738
0.958324
0.959297
0.960296
0.961331
0.962415
0.963569
0.964809
0.96615
0.967601
0.969167
0.970843
0.972622
0.974489
0.976437
0.97847
0.980601
0.982836
0.98515
0.987458
0.989491
0.991172
0.992689
0.994295
0.996225
0.998584
1.0013
1.00504
1.01235
1.02311
1.03342
1.04092
1.04588
1.04947
1.0525
1.05465
1.05539
1.05581
1.05648
1.05747
1.05871
1.06016
1.06181
1.06374
1.06601
1.06869
1.07185
1.07545
1.07953
1.08412
1.08921
1.0946
1.10001
1.10517
1.10975
1.11335
1.11607
1.11845
1.12049
1.12196
1.1229
1.12358
1.12416
1.12474
1.12534
1.12594
1.12652
1.12702
1.12746
1.12782
1.12813
1.12839
1.12864
1.12889
1.12912
1.12936
1.12961
1.12985
1.13007
1.13029
1.13047
1.13061
1.1307
1.13072
1.13069
1.13061
1.13048
0.954293
0.955322
0.956407
0.957536
0.9587
0.959897
0.961137
0.96243
0.963788
0.965215
0.966713
0.96828
0.96991
0.971598
0.973342
0.975156
0.977072
0.979121
0.981322
0.98365
0.986019
0.988252
0.990136
0.99173
0.993294
0.995104
0.997318
0.999927
1.003
1.00854
1.01815
1.02915
1.03809
1.04421
1.04834
1.05159
1.05439
1.05574
1.0562
1.05672
1.05752
1.05858
1.05986
1.06141
1.0633
1.06562
1.06845
1.07182
1.0758
1.08049
1.08578
1.0913
1.09664
1.10153
1.10574
1.10906
1.11136
1.11288
1.11376
1.11435
1.11489
1.11544
1.11602
1.11664
1.11728
1.11796
1.11869
1.11946
1.12023
1.12098
1.1217
1.12237
1.12298
1.12353
1.12401
1.12445
1.12485
1.12523
1.1256
1.12597
1.12631
1.12661
1.12686
1.12703
1.12711
1.12712
1.12707
1.12697
0.952278
0.953413
0.954602
0.955863
0.957196
0.95859
0.960031
0.961511
0.963024
0.964566
0.966133
0.967721
0.96933
0.970961
0.972636
0.974389
0.976262
0.978286
0.980479
0.982805
0.985183
0.987491
0.989522
0.991186
0.992692
0.99434
0.996344
0.998784
1.00156
1.00561
1.0133
1.02403
1.0342
1.04177
1.0469
1.05058
1.05372
1.05593
1.0567
1.05718
1.05791
1.059
1.06049
1.06239
1.06475
1.06762
1.07106
1.07516
1.07991
1.08509
1.09028
1.09511
1.09934
1.10275
1.10503
1.10627
1.10694
1.10733
1.10757
1.10773
1.10797
1.10837
1.1089
1.10949
1.1101
1.11075
1.11145
1.11223
1.11307
1.11395
1.11484
1.11571
1.11657
1.1174
1.11818
1.11893
1.11962
1.12023
1.12076
1.12125
1.12174
1.12219
1.12259
1.12292
1.12316
1.12332
1.12339
1.12341
0.950134
0.951531
0.952899
0.95431
0.955799
0.957369
0.958997
0.960657
0.962327
0.96399
0.965639
0.967274
0.968903
0.970542
0.972222
0.973988
0.975879
0.977934
0.98015
0.982485
0.984872
0.987223
0.989379
0.991159
0.992618
0.994029
0.995718
0.997861
1.00044
1.00355
1.00923
1.01865
1.02939
1.03837
1.0448
1.04924
1.05264
1.05556
1.05699
1.05766
1.0586
1.0601
1.06216
1.06477
1.06795
1.07173
1.07609
1.08084
1.08566
1.09029
1.09452
1.09817
1.10096
1.10249
1.10301
1.10299
1.10271
1.10231
1.1021
1.10211
1.10224
1.10244
1.10271
1.10305
1.10342
1.10382
1.10427
1.10485
1.10559
1.10643
1.10734
1.10829
1.10924
1.11016
1.11102
1.11182
1.11256
1.1132
1.11376
1.11429
1.11481
1.11532
1.1158
1.11624
1.11663
1.11695
1.11721
1.11741
0.947676
0.949419
0.951208
0.952904
0.954589
0.956296
0.95804
0.959809
0.961584
0.963342
0.965074
0.966787
0.968487
0.970185
0.971917
0.973755
0.975772
0.977992
0.980346
0.982762
0.985184
0.987548
0.989723
0.991474
0.992813
0.99404
0.995436
0.997247
0.99959
1.00234
1.00638
1.01387
1.02418
1.03411
1.04172
1.0471
1.051
1.05431
1.05694
1.05841
1.05992
1.06209
1.06494
1.06842
1.0725
1.07689
1.08133
1.08563
1.08961
1.09316
1.09635
1.09909
1.10069
1.10099
1.10033
1.09938
1.09863
1.09815
1.09781
1.09757
1.0974
1.09728
1.09723
1.09725
1.09732
1.09743
1.09759
1.09783
1.09818
1.09877
1.09951
1.10033
1.10119
1.10204
1.10286
1.10366
1.10443
1.10514
1.10582
1.10647
1.1071
1.10772
1.10833
1.10893
1.1095
1.11001
1.11047
1.11086
0.946268
0.947198
0.949154
0.951229
0.95329
0.955208
0.957051
0.958862
0.960669
0.96248
0.964281
0.966073
0.967861
0.969674
0.971568
0.973605
0.975818
0.978172
0.980599
0.983034
0.985441
0.987785
0.989971
0.991773
0.993108
0.994237
0.99548
0.997083
0.999172
1.00173
1.00479
1.01035
1.01918
1.02917
1.03765
1.044
1.04877
1.05265
1.05618
1.05929
1.06185
1.06473
1.06817
1.07205
1.07614
1.08014
1.0838
1.08722
1.09053
1.09375
1.09651
1.0977
1.09771
1.09732
1.0966
1.09574
1.09495
1.09432
1.09379
1.09332
1.09288
1.09245
1.09207
1.09175
1.09151
1.09135
1.09129
1.09129
1.09133
1.09147
1.09174
1.09214
1.09263
1.0932
1.09379
1.09441
1.09505
1.09569
1.09636
1.09705
1.09775
1.09846
1.09919
1.09992
1.10065
1.10134
1.102
1.10259
0.955513
0.94817
0.947774
0.949056
0.951339
0.953588
0.955692
0.957595
0.959425
0.961241
0.963076
0.964949
0.966895
0.968947
0.97112
0.973416
0.975813
0.978268
0.980734
0.983174
0.985565
0.987884
0.990062
0.991902
0.993276
0.994392
0.995541
0.996973
0.998864
1.00125
1.00403
1.00786
1.01471
1.02373
1.03258
1.0399
1.04584
)
;

boundaryField
{
    inlet
    {
        type            fixedValue;
        value           nonuniform 0();
    }
    outlet
    {
        type            inletOutlet;
        inletValue      nonuniform 0();
        value           nonuniform 0();
    }
    bottom
    {
        type            symmetryPlane;
    }
    top
    {
        type            symmetryPlane;
    }
    obstacle
    {
        type            zeroGradient;
    }
    front
    {
        type            empty;
    }
    back
    {
        type            empty;
    }
    procBoundary4to3
    {
        type            processor;
        value           nonuniform List<scalar> 
27
(
0.979449
0.980612
0.982424
0.985414
0.989149
0.992791
0.995394
0.996444
0.994402
0.991114
0.986966
0.982959
0.979375
0.976152
0.973224
0.970543
0.968012
0.965544
0.96308
0.960601
0.958106
0.955675
0.953339
0.951137
0.948594
0.946182
0.947198
)
;
    }
    procBoundary4to5
    {
        type            processor;
        value           nonuniform List<scalar> 
27
(
1.19738
1.19704
1.19677
1.19674
1.19756
1.19941
1.20247
1.20704
1.21095
1.21288
1.21117
1.20627
1.198
1.18676
1.17447
1.16365
1.15458
1.14755
1.14214
1.13778
1.13398
1.13032
1.12683
1.12338
1.11757
1.1112
1.10311
)
;
    }
    procBoundary4to11
    {
        type            processor;
        value           uniform 0.9917;
    }
    procBoundary4to12
    {
        type            processor;
        value           nonuniform List<scalar> 
89
(
1.05091
1.05551
1.05982
1.06368
1.06698
1.07
1.07303
1.0761
1.0794
1.08284
1.086
1.08858
1.09055
1.0918
1.0923
1.09226
1.09187
1.09128
1.09063
1.09002
1.08947
1.08893
1.08834
1.08771
1.08709
1.0865
1.08597
1.08551
1.08514
1.08486
1.08464
1.08441
1.08407
1.08385
1.08381
1.08386
1.08399
1.08419
1.08445
1.08478
1.08518
1.08566
1.0862
1.0868
1.08743
1.08809
1.08878
1.0895
1.09022
1.09092
1.09158
1.06367
0.990508
0.956481
0.949897
0.949656
0.951138
0.953536
0.955769
0.95786
0.959805
0.961771
0.963847
0.966048
0.968351
0.970733
0.97317
0.975642
0.978123
0.980583
0.983
0.985356
0.987633
0.98978
0.991643
0.993095
0.994276
0.995406
0.996675
0.998268
1.00031
1.00283
1.00574
1.01044
1.01778
1.02655
1.03504
1.05091
1.04246
)
;
    }
}


// ************************************************************************* //
