/*--------------------------------*- C++ -*----------------------------------*\
  =========                 |
  \\      /  F ield         | OpenFOAM: The Open Source CFD Toolbox
   \\    /   O peration     | Website:  https://openfoam.org
    \\  /    A nd           | Version:  7
     \\/     M anipulation  |
\*---------------------------------------------------------------------------*/
FoamFile
{
    version     2.0;
    format      ascii;
    class       volVectorField;
    location    "114";
    object      U;
}
// * * * * * * * * * * * * * * * * * * * * * * * * * * * * * * * * * * * * * //

dimensions      [0 1 -1 0 0 0 0];

internalField   nonuniform List<vector> 
15200
(
(-0.274264 0.000888928 -1.7464e-19)
(0.237197 0.598949 -1.02448e-19)
(-0.0382945 0.8607 -1.46659e-19)
(0.174408 0.524481 -8.93175e-20)
(0.471652 -0.0500997 7.77199e-20)
(0.664017 -0.457119 -7.07027e-20)
(0.752189 -0.598719 -2.2727e-20)
(0.708568 -0.661848 3.97808e-20)
(0.611532 -0.681892 8.39204e-21)
(0.63921 -0.363144 -2.46445e-21)
(0.777517 0.0442364 -5.75436e-21)
(0.849512 0.33704 -9.3644e-21)
(0.82385 0.57972 2.43039e-20)
(0.791928 0.62278 -7.1881e-21)
(0.871447 0.352412 -1.49557e-20)
(-0.266341 -0.00481947 -2.75173e-19)
(0.198555 0.584931 -4.47585e-19)
(-0.077467 0.857947 4.04425e-19)
(0.210139 0.473977 -1.65423e-19)
(0.543694 -0.101888 -3.10572e-20)
(0.7328 -0.481383 1.58658e-19)
(0.78683 -0.603405 -1.36837e-20)
(0.755856 -0.638316 4.47831e-20)
(0.648328 -0.6721 -1.10133e-20)
(0.658049 -0.394015 4.49278e-21)
(0.760508 0.00685022 2.01616e-20)
(0.808558 0.327843 3.32044e-21)
(0.773914 0.585434 -6.11404e-21)
(0.752141 0.599226 3.18464e-21)
(0.862678 0.319678 -2.24936e-20)
(-0.258511 -0.00949209 7.91886e-19)
(0.162558 0.569961 6.34442e-19)
(-0.112422 0.847543 -6.35537e-20)
(0.262968 0.419382 4.46577e-19)
(0.616886 -0.149321 -4.13875e-19)
(0.804265 -0.495998 1.50813e-19)
(0.819956 -0.603539 4.3687e-20)
(0.802877 -0.612723 5.2488e-21)
(0.682621 -0.65512 -6.23565e-20)
(0.662892 -0.418639 -5.61376e-20)
(0.736701 -0.0248612 9.52828e-20)
(0.769921 0.31808 2.80963e-20)
(0.724755 0.586969 -2.34183e-20)
(0.705206 0.56807 -1.76936e-20)
(0.849523 0.278514 2.29788e-20)
(-0.251043 -0.0132429 -8.10339e-19)
(0.128999 0.553961 3.88575e-19)
(-0.141439 0.828936 7.32065e-20)
(0.332971 0.363479 -3.45881e-19)
(0.69448 -0.190509 5.25933e-19)
(0.871568 -0.501529 -1.85822e-19)
(0.856468 -0.598335 -5.3396e-20)
(0.842872 -0.585815 2.14132e-19)
(0.715845 -0.628106 1.50927e-19)
(0.649052 -0.439653 6.6271e-20)
(0.713542 -0.0569111 -3.80826e-20)
(0.735051 0.305806 -8.64852e-20)
(0.673386 0.586191 3.96946e-20)
(0.672058 0.532423 4.6932e-20)
(0.859568 0.232731 -8.56142e-20)
(-0.244137 -0.0161801 1.4389e-18)
(0.0973677 0.536721 -7.81653e-19)
(-0.162518 0.801779 -1.02529e-18)
(0.417668 0.308031 -1.72358e-19)
(0.776815 -0.223344 -6.08016e-19)
(0.931614 -0.49948 -2.38355e-19)
(0.899329 -0.586097 1.40092e-19)
(0.870997 -0.55864 -2.1607e-19)
(0.750573 -0.589142 -1.0189e-19)
(0.626547 -0.457777 -1.38849e-20)
(0.693498 -0.0924738 -1.17013e-19)
(0.691366 0.290649 6.27152e-20)
(0.619216 0.580657 -1.27551e-19)
(0.67761 0.492767 -4.65503e-20)
(0.908533 0.192611 2.02713e-19)
(-0.237954 -0.0183764 -9.72213e-19)
(0.0667059 0.517802 1.79285e-19)
(-0.173445 0.766092 1.02379e-18)
(0.512613 0.253887 4.17908e-19)
(0.860256 -0.246812 1.49538e-19)
(0.985357 -0.491377 3.27793e-19)
(0.946171 -0.565643 -4.83597e-20)
(0.888315 -0.531953 -5.82666e-20)
(0.786553 -0.539735 -4.71998e-20)
(0.61101 -0.465872 4.23282e-20)
(0.660715 -0.130781 1.19178e-19)
(0.6227 0.270228 1.22102e-19)
(0.5662 0.558177 6.56947e-20)
(0.718862 0.441065 -7.62219e-21)
(0.981772 0.164323 -3.44839e-20)
(-0.23266 -0.0198373 -6.18268e-19)
(0.0355333 0.49641 -1.87004e-19)
(-0.171639 0.72256 -8.39099e-19)
(0.613461 0.201706 3.76768e-19)
(0.940395 -0.2612 -3.51031e-19)
(1.03508 -0.478009 2.6821e-19)
(0.990635 -0.537753 9.15571e-20)
(0.901627 -0.505434 7.45162e-20)
(0.818961 -0.485232 1.16271e-19)
(0.613165 -0.450924 -9.86567e-21)
(0.599903 -0.165756 -7.96266e-20)
(0.53091 0.238803 -4.02045e-20)
(0.52388 0.503019 9.63651e-20)
(0.775421 0.366493 -4.03364e-20)
(1.04992 0.140534 -7.12723e-20)
(-0.228471 -0.020468 -2.54784e-19)
(0.00185212 0.471218 2.91516e-19)
(-0.153547 0.672795 1.33835e-19)
(0.716733 0.152755 4.90338e-19)
(1.01468 -0.267405 3.17206e-19)
(1.08161 -0.459495 -9.02149e-19)
(1.02738 -0.505039 7.18841e-20)
(0.918509 -0.477397 6.02781e-20)
(0.842765 -0.432754 -1.31939e-19)
(0.634346 -0.406882 -3.50632e-20)
(0.528248 -0.186667 -4.46483e-20)
(0.441721 0.192 -1.14691e-20)
(0.526054 0.422439 -2.82562e-20)
(0.849694 0.28232 -6.11332e-21)
(1.09877 0.117397 3.3352e-20)
(-0.225701 -0.020039 -4.45245e-20)
(-0.0367393 0.440133 -1.49689e-19)
(-0.113453 0.619745 1.10157e-18)
(0.819263 0.108786 -3.00869e-19)
(1.08221 -0.266339 1.61938e-19)
(1.12364 -0.436015 5.01461e-19)
(1.05554 -0.470503 -1.66431e-19)
(0.942007 -0.445653 -4.23138e-20)
(0.857407 -0.388171 2.19458e-20)
(0.673062 -0.342444 2.95522e-20)
(0.500205 -0.177787 2.53202e-20)
(0.413352 0.135713 -3.64525e-20)
(0.609166 0.335622 -4.85377e-21)
(0.946095 0.213126 1.27811e-20)
(1.12662 0.0994389 -5.8121e-20)
(-0.224798 -0.0181552 -1.65871e-18)
(-0.0825419 0.400144 -8.34934e-19)
(-0.0437069 0.567842 -5.12038e-19)
(0.917891 0.0715556 6.10461e-19)
(1.14254 -0.258744 -3.78988e-19)
(1.15926 -0.408472 2.16561e-19)
(1.078 -0.435851 1.55745e-19)
(0.968562 -0.409671 5.88529e-20)
(0.868757 -0.352689 1.10002e-19)
(0.725703 -0.277659 -5.0049e-20)
(0.5582 -0.137705 1.1582e-20)
(0.50403 0.0959525 -6.4645e-21)
(0.751526 0.258543 2.77469e-20)
(1.03215 0.165811 1.60698e-20)
(1.12956 0.0881803 4.70593e-20)
(-0.226308 -0.0142675 3.21408e-18)
(-0.136141 0.347859 -9.61713e-20)
(0.0612226 0.521584 -2.90098e-19)
(1.00942 0.0428246 -1.34611e-18)
(1.19489 -0.245333 5.9949e-19)
(1.18772 -0.378394 8.80383e-19)
(1.09786 -0.400901 -4.12059e-19)
(0.991586 -0.372592 1.49882e-19)
(0.884792 -0.320361 -7.78514e-20)
(0.775322 -0.231167 -4.09194e-20)
(0.668321 -0.090681 -3.40603e-21)
(0.672417 0.086803 -1.35828e-20)
(0.881171 0.206986 3.99129e-20)
(1.06974 0.135226 -6.10263e-21)
(1.1089 0.0803537 -7.06535e-21)
(-0.230669 -0.00780266 -7.81349e-19)
(-0.193071 0.281675 6.87047e-19)
(0.198285 0.482269 -1.80266e-20)
(1.09062 0.0236035 2.5247e-20)
(1.23838 -0.227102 -8.61518e-19)
(1.20976 -0.347104 -7.4869e-19)
(1.11531 -0.365253 4.93259e-19)
(1.00894 -0.338227 -1.03718e-19)
(0.908127 -0.285973 -3.52736e-20)
(0.814044 -0.202389 5.16989e-21)
(0.760894 -0.0650528 9.91339e-21)
(0.799935 0.0778792 -2.59563e-20)
(0.941489 0.167393 -4.93551e-20)
(1.05954 0.11003 -1.487e-20)
(1.07758 0.0710901 2.02707e-20)
(-0.237805 0.00153561 9.32249e-19)
(-0.2401 0.205582 -4.47438e-20)
(0.353412 0.446057 4.35938e-19)
(1.15871 0.0132989 4.95582e-20)
(1.27254 -0.205354 -3.38706e-19)
(1.22636 -0.315307 7.77542e-19)
(1.12884 -0.330028 -5.58781e-20)
(1.02389 -0.306199 -1.94969e-21)
(0.932237 -0.253533 1.26071e-19)
(0.850448 -0.179054 6.60493e-21)
(0.813927 -0.0613641 5.27538e-21)
(0.851052 0.0522229 -1.03799e-20)
(0.945738 0.123591 -9.01606e-20)
(1.03421 0.0844765 1.73436e-20)
(1.05123 0.0599407 -8.76545e-22)
(-0.246789 0.0133027 1.19057e-18)
(-0.255515 0.131942 1.04634e-18)
(0.507706 0.407464 -3.38644e-19)
(1.21238 0.0098578 1.59701e-18)
(1.29762 -0.181392 -1.46533e-19)
(1.23788 -0.283675 -8.94544e-19)
(1.13858 -0.296352 -3.75281e-19)
(1.03839 -0.275147 9.28071e-20)
(0.952354 -0.226228 -1.73802e-20)
(0.884336 -0.157595 -2.57911e-20)
(0.850135 -0.0612765 2.45152e-20)
(0.878455 0.0271472 7.79826e-20)
(0.946371 0.0866665 8.15966e-20)
(1.01922 0.0640297 8.35733e-21)
(1.03474 0.0498709 -1.66684e-21)
(-0.256137 0.0257469 -3.02842e-18)
(-0.2171 0.0789147 -1.70715e-18)
(0.648946 0.363581 2.72374e-20)
(1.25247 0.0109075 -1.07661e-18)
(1.3143 -0.156329 -1.20119e-18)
(1.24478 -0.252989 7.64025e-19)
(1.14586 -0.264162 5.84445e-20)
(1.05097 -0.24609 4.96663e-20)
(0.970709 -0.201749 -1.86527e-21)
(0.912281 -0.140476 1.00909e-20)
(0.884606 -0.0588008 -4.45218e-20)
(0.906433 0.0120351 -5.10745e-20)
(0.954661 0.0614465 -5.53362e-20)
(1.01169 0.0493823 -1.3811e-20)
(1.02328 0.040946 -1.29865e-20)
(-0.264743 0.035421 -3.56818e-19)
(-0.115265 0.0610504 1.29688e-18)
(0.772922 0.320111 -1.28816e-19)
(1.2814 0.0149692 1.6838e-18)
(1.32362 -0.131067 1.12896e-18)
(1.24794 -0.223669 -6.20616e-19)
(1.15101 -0.23358 -1.12385e-20)
(1.06137 -0.219461 -7.91757e-20)
(0.987713 -0.179328 -5.23714e-21)
(0.936092 -0.125826 -1.62698e-21)
(0.912224 -0.0571753 3.0094e-20)
(0.927482 0.00112391 4.78309e-20)
(0.961609 0.0418818 5.94666e-20)
(1.00601 0.0373612 3.35855e-20)
(1.01478 0.0327697 4.29009e-21)
(-0.272386 0.0377329 1.98341e-18)
(0.0390102 0.0795507 5.24916e-19)
(0.878922 0.285661 -1.11546e-19)
(1.30122 0.0209034 -2.42957e-18)
(1.32682 -0.106265 -2.92271e-19)
(1.24806 -0.195942 -1.4529e-19)
(1.15409 -0.204958 -6.90631e-20)
(1.07035 -0.194798 -5.3026e-20)
(1.00252 -0.159219 -1.72782e-20)
(0.956466 -0.112501 1.63699e-21)
(0.934413 -0.0553666 4.08015e-21)
(0.944037 -0.00680129 -1.82713e-20)
(0.968919 0.0269466 -3.33175e-20)
(1.00276 0.0278562 -2.03764e-20)
(1.00956 0.0259997 1.05003e-20)
(-0.278825 0.0290109 -1.98009e-18)
(0.217086 0.120959 -4.22426e-19)
(0.966946 0.262184 8.03569e-19)
(1.31356 0.0277958 7.43619e-19)
(1.32514 -0.0823812 6.87784e-19)
(1.2457 -0.170041 4.38515e-19)
(1.15562 -0.178237 3.71076e-19)
(1.07791 -0.172099 -4.59147e-20)
(1.01538 -0.140858 1.16696e-19)
(0.973745 -0.100776 -9.67246e-21)
(0.95347 -0.0527191 1.01028e-20)
(0.958339 -0.0117742 -1.57789e-20)
(0.976588 0.0160318 -7.32632e-21)
(1.00099 0.0209035 -1.65793e-20)
(1.00693 0.0202651 -1.2796e-20)
(-0.282616 0.00959208 4.44945e-19)
(0.389772 0.163946 -1.99577e-19)
(1.03627 0.247361 7.91769e-19)
(1.31962 0.0349473 8.70434e-19)
(1.31973 -0.0597517 -2.75956e-19)
(1.24145 -0.146044 5.88522e-20)
(1.15592 -0.15335 -3.39787e-19)
(1.0841 -0.15132 2.86144e-20)
(1.02645 -0.123978 -1.01319e-19)
(0.988379 -0.0900415 1.59023e-20)
(0.968867 -0.0496926 -1.81671e-21)
(0.970222 -0.015179 1.42836e-20)
(0.983241 0.00801921 2.62448e-20)
(1.00006 0.0155354 -2.14199e-22)
(1.0068 0.0151792 -2.32586e-21)
(-0.281083 -0.0161302 -1.8112e-19)
(0.54057 0.192462 -4.3593e-19)
(1.08821 0.2379 -1.80824e-18)
(1.32057 0.0419182 -8.25444e-19)
(1.31162 -0.0385691 -4.59687e-19)
(1.23583 -0.12394 -7.13938e-19)
(1.15516 -0.130283 1.6847e-19)
(1.08909 -0.132253 -8.47971e-21)
(1.03578 -0.108451 5.56672e-20)
(1.00071 -0.0801697 -2.92652e-20)
(0.981855 -0.0460795 3.04982e-21)
(0.980576 -0.0172369 8.69685e-21)
(0.989109 0.00286317 -1.85075e-22)
(1.00052 0.0110244 7.49235e-21)
(1.0083 0.0112926 -2.93632e-21)
(-0.269565 -0.0409917 2.20806e-19)
(0.667171 0.203621 4.44729e-19)
(1.12613 0.231636 7.38207e-19)
(1.31754 0.0485112 7.70864e-19)
(1.30161 -0.0188939 4.4829e-19)
(1.22922 -0.103685 1.90687e-19)
(1.15358 -0.108919 -2.07615e-19)
(1.09299 -0.114789 3.68213e-20)
(1.04355 -0.094081 -6.20636e-20)
(1.01108 -0.0709708 3.52051e-20)
(0.99269 -0.0421493 3.5867e-21)
(0.989404 -0.0180286 8.75685e-21)
(0.994166 -0.000447665 -7.60102e-21)
(1.00223 0.00709537 8.40144e-21)
(1.0095 0.00999213 2.42386e-21)
(-0.242465 -0.0558283 -3.06408e-19)
(0.77498 0.202323 2.16961e-19)
(1.15394 0.227661 -2.02682e-18)
(1.31153 0.0546882 -6.9575e-19)
(1.29032 -0.000699822 -5.08851e-19)
(1.22197 -0.0851743 3.52431e-19)
(1.15134 -0.0891525 2.82071e-19)
(1.09587 -0.0987999 -5.72555e-20)
(1.04989 -0.0807389 1.14966e-19)
(1.01973 -0.0623333 -2.22349e-20)
(1.00172 -0.0379577 -7.29971e-21)
(0.996939 -0.0178519 -8.69044e-21)
(0.99872 -0.00259757 -7.46154e-22)
(1.00457 0.0048073 7.22437e-21)
(1.00739 0.00764916 1.47933e-20)
(-0.193847 -0.0503822 -3.28888e-19)
(0.869177 0.195336 4.79112e-19)
(1.17478 0.225776 5.32994e-19)
(1.30335 0.0604845 6.17948e-19)
(1.27819 0.016086 1.11652e-18)
(1.21432 -0.0682863 1.18458e-19)
(1.14854 -0.0708873 -2.77371e-19)
(1.09784 -0.0841546 3.22799e-20)
(1.05497 -0.0683113 -3.91024e-20)
(1.02693 -0.0541982 -3.16291e-20)
(1.00931 -0.0335277 -1.02223e-20)
(1.00334 -0.0169567 2.79247e-21)
(1.00293 -0.00348846 9.90057e-22)
(1.00601 0.00305676 -7.09423e-21)
(1.00862 0.00654367 -1.90093e-20)
(-0.118751 -0.0147082 4.39141e-19)
(0.951733 0.188331 -5.276e-19)
(1.19062 0.226062 1.05916e-19)
(1.2936 0.0659714 -7.03849e-19)
(1.26555 0.0315473 -5.94809e-19)
(1.20645 -0.0528934 1.18041e-19)
(1.14528 -0.0540139 2.83137e-20)
(1.09898 -0.0707398 3.68197e-20)
(1.05891 -0.0566979 -4.76586e-20)
(1.03287 -0.0465009 5.52956e-20)
(1.01557 -0.0290114 1.87562e-20)
(1.00879 -0.0153983 -1.62908e-21)
(1.00639 -0.00372021 -1.31393e-20)
(1.00844 0.00204058 -5.2149e-21)
(1.00837 0.00597368 1.00773e-21)
(-0.0158491 0.0574184 2.98897e-19)
(1.022 0.185033 -1.34336e-19)
(1.20235 0.228571 7.55072e-19)
(1.28278 0.0712099 5.7919e-19)
(1.25264 0.0457597 1.06776e-19)
(1.19849 -0.0388641 -4.59506e-19)
(1.14164 -0.0384349 5.21661e-22)
(1.09938 -0.0584423 -6.0791e-20)
(1.06187 -0.0458203 6.59292e-21)
(1.0377 -0.0392332 3.30206e-21)
(1.02076 -0.0243749 1.14546e-20)
(1.0133 -0.0134336 2.39453e-21)
(1.00974 -0.00334844 -1.43683e-21)
(1.00998 0.00189158 -4.37337e-21)
(1.00938 0.00551207 -6.97868e-21)
(0.109122 0.162598 1.87749e-18)
(1.07814 0.186643 4.6899e-19)
(1.21023 0.23303 -6.24134e-19)
(1.27126 0.0762017 3.00196e-19)
(1.23968 0.0587939 -1.43395e-19)
(1.19052 -0.0260737 3.92136e-20)
(1.13767 -0.0240578 2.11636e-19)
(1.09913 -0.047154 7.59294e-20)
(1.06396 -0.0356243 4.95886e-20)
(1.04156 -0.0323518 -1.90095e-20)
(1.02495 -0.0197227 -3.71899e-21)
(1.01713 -0.0111526 1.12604e-22)
(1.01242 -0.00235044 -1.03957e-22)
(1.01186 0.0018381 1.04082e-20)
(1.01015 0.00573797 1.32909e-20)
(0.242024 0.282939 -7.79357e-19)
(1.11881 0.191552 2.32564e-19)
(1.21428 0.238768 -2.61375e-19)
(1.25943 0.0809075 -1.5705e-19)
(1.22682 0.0707209 -4.67179e-19)
(1.18261 -0.0144053 2.91898e-19)
(1.13342 -0.0107946 -5.61964e-20)
(1.0983 -0.0367807 -3.25545e-20)
(1.0653 -0.026059 -5.02123e-20)
(1.04456 -0.0258502 7.36547e-21)
(1.02833 -0.0150749 -1.22321e-20)
(1.02024 -0.00859315 2.15843e-24)
(1.01484 -0.00116148 -9.36659e-21)
(1.01338 0.00256604 1.63166e-20)
(1.01099 0.0059614 -3.27193e-21)
(0.364715 0.389698 -4.77631e-19)
(1.14459 0.196459 -1.17497e-20)
(1.21471 0.244967 1.82317e-19)
(1.24759 0.0853004 -3.85297e-20)
(1.2142 0.0816205 2.03783e-19)
(1.17478 -0.00375055 -3.1059e-19)
(1.12893 0.00143297 -1.79433e-19)
(1.09697 -0.0272329 1.12926e-19)
(1.06597 -0.0170891 4.42895e-20)
(1.0468 -0.019708 9.17985e-21)
(1.03094 -0.0104537 -3.61356e-21)
(1.0228 -0.00594684 7.21426e-22)
(1.01684 0.000542733 1.00594e-20)
(1.01471 0.00323119 -2.60285e-20)
(1.01194 0.00663644 1.00249e-20)
(0.464167 0.458289 2.83709e-19)
(1.15838 0.198767 -4.59031e-19)
(1.21201 0.250975 1.96152e-20)
(1.23596 0.0894008 -3.53395e-19)
(1.20189 0.0915814 5.75884e-20)
(1.16707 0.00598796 -5.01996e-20)
(1.12423 0.012698 1.63514e-19)
(1.09521 -0.0184321 -1.50656e-19)
(1.06606 -0.00868262 1.92164e-20)
(1.04835 -0.013908 -2.80422e-20)
(1.03291 -0.00592476 3.38491e-21)
(1.02483 -0.00311915 -9.73688e-22)
(1.01844 0.00226906 4.36905e-21)
(1.01598 0.00440672 1.3317e-20)
(1.0126 0.00735724 5.66887e-21)
(0.538881 0.483219 -1.11303e-18)
(1.16443 0.198113 7.90861e-19)
(1.20687 0.256455 1.61449e-19)
(1.22463 0.0932624 2.83144e-19)
(1.18997 0.100691 2.83336e-19)
(1.15947 0.0148986 1.35139e-19)
(1.11935 0.0230684 -2.07181e-19)
(1.09305 -0.0103076 3.75975e-20)
(1.06563 -0.000814307 -5.9641e-20)
(1.04931 -0.00844206 -2.8105e-22)
(1.0343 -0.00146671 -2.34279e-22)
(1.02639 -0.000316383 7.84374e-22)
(1.01978 0.00432096 -3.98497e-21)
(1.01684 0.00554369 -1.14359e-21)
(1.01333 0.00831063 -1.41561e-20)
(0.596313 0.477594 5.82876e-19)
(1.16663 0.195676 -4.39643e-19)
(1.19991 0.261326 -3.41911e-19)
(1.21363 0.0969386 -1.14495e-19)
(1.17844 0.109029 -1.1562e-19)
(1.15199 0.023061 -5.32161e-20)
(1.11431 0.0326082 8.91098e-20)
(1.09057 -0.0027983 7.54652e-20)
(1.06476 0.00653609 1.62781e-20)
(1.04973 -0.00328275 7.62106e-21)
(1.03519 0.00284898 -4.66711e-23)
(1.02756 0.00256519 9.45173e-22)
(1.02068 0.00635076 -1.66998e-21)
(1.01767 0.00694046 -3.43216e-21)
(1.01376 0.00932707 9.83776e-21)
(0.645056 0.459477 5.57045e-19)
(1.16735 0.192688 4.78518e-20)
(1.19163 0.265614 5.95795e-20)
(1.20296 0.10047 3.1425e-20)
(1.16732 0.116667 -1.89953e-20)
(1.14462 0.0305484 -7.62743e-20)
(1.10915 0.0413769 -3.85989e-20)
(1.08778 0.00414742 -4.47229e-20)
(1.06348 0.013392 -4.28911e-21)
(1.04968 0.00157719 -5.98339e-21)
(1.03563 0.00704343 4.93416e-21)
(1.0283 0.00537448 -2.68922e-21)
(1.02138 0.00852553 1.02051e-21)
(1.01812 0.00834285 -7.64202e-21)
(1.01415 0.0104533 -8.07301e-21)
(0.690028 0.440845 9.7885e-20)
(1.16755 0.189853 1.97072e-19)
(1.18246 0.269383 4.53652e-19)
(1.19261 0.10389 -2.9141e-19)
(1.15658 0.123667 1.15587e-19)
(1.13737 0.0374276 5.36277e-20)
(1.10388 0.049427 4.38775e-20)
(1.08475 0.0105754 -8.85929e-21)
(1.06185 0.0197744 5.92072e-21)
(1.04922 0.00616113 3.84116e-21)
(1.03567 0.0110592 -2.83825e-21)
(1.02874 0.00817344 1.99401e-22)
(1.0217 0.0106726 -1.00875e-21)
(1.0185 0.00983983 1.0197e-20)
(1.01432 0.0116261 5.91164e-22)
(0.732711 0.426265 -3.51773e-19)
(1.16748 0.187518 -2.35299e-19)
(1.17272 0.272715 -2.0274e-19)
(1.18254 0.107226 1.60905e-19)
(1.14621 0.130083 -1.09632e-19)
(1.13021 0.0437586 -2.91517e-20)
(1.09853 0.0568054 -1.60113e-20)
(1.08149 0.0165281 -4.22403e-21)
(1.05991 0.025705 3.08243e-21)
(1.04838 0.0104705 5.4662e-21)
(1.03536 0.0149078 -2.84503e-22)
(1.02882 0.0108838 -1.02118e-21)
(1.02183 0.0128341 -2.91811e-21)
(1.01857 0.0113626 -3.45299e-21)
(1.0144 0.0128429 1.61936e-21)
(0.773085 0.416395 3.02897e-19)
(1.16712 0.185889 -3.43581e-20)
(1.16262 0.275696 -5.37282e-20)
(1.17272 0.110497 3.28353e-20)
(1.13619 0.135962 -1.70771e-20)
(1.12313 0.0495932 4.20259e-20)
(1.09311 0.0635558 6.2438e-21)
(1.07802 0.0220453 8.14852e-21)
(1.05768 0.0311972 2.93905e-21)
(1.04722 0.0145218 1.57273e-21)
(1.03473 0.0185594 2.3564e-22)
(1.02863 0.013522 3.04714e-21)
(1.02164 0.0149585 9.1426e-21)
(1.01852 0.0128847 2.20959e-21)
(1.01431 0.0140765 -1.20307e-20)
(0.810816 0.410781 -4.43707e-19)
(1.16638 0.185115 -6.90523e-20)
(1.15234 0.278402 -1.52611e-19)
(1.16311 0.113718 -6.74306e-20)
(1.12646 0.141344 8.26303e-20)
(1.11614 0.0549763 1.5226e-20)
(1.08763 0.0697205 -9.65733e-21)
(1.07436 0.0271583 -3.32384e-21)
(1.05523 0.0362635 5.57386e-21)
(1.04577 0.0183244 -2.29224e-22)
(1.03382 0.0220148 -1.29373e-21)
(1.02815 0.0160575 -2.80959e-21)
(1.02128 0.0170129 -6.93647e-21)
(1.01825 0.0144295 -1.983e-22)
(1.01409 0.0153111 4.87113e-21)
(0.845609 0.408884 2.59547e-19)
(1.16515 0.185296 1.35994e-19)
(1.14197 0.280898 8.3825e-20)
(1.15367 0.116897 3.52939e-20)
(1.11702 0.14626 -1.09512e-21)
(1.10921 0.0599501 -1.18046e-20)
(1.0821 0.0753353 2.65987e-21)
(1.07054 0.0318888 1.05968e-20)
(1.05259 0.0409166 -2.50957e-21)
(1.04403 0.0218963 -2.1237e-22)
(1.03266 0.0252529 -8.75939e-22)
(1.02744 0.018478 9.88825e-22)
(1.02068 0.0190148 6.22806e-22)
(1.01783 0.0159277 -3.36082e-21)
(1.01374 0.0165317 -4.53393e-21)
(0.877244 0.410239 -2.57325e-19)
(1.16332 0.186487 5.87586e-21)
(1.13159 0.283236 1.57942e-20)
(1.14435 0.120036 -4.23851e-20)
(1.10783 0.15074 -3.19386e-20)
(1.10231 0.0645515 1.88069e-21)
(1.07656 0.0804249 -3.70592e-21)
(1.06654 0.0362554 -3.07777e-21)
(1.04981 0.0451765 -6.09813e-22)
(1.04202 0.0252456 1.76589e-21)
(1.03133 0.0282617 2.69914e-21)
(1.02649 0.0207911 3.78565e-22)
(1.01991 0.0209049 -1.30915e-21)
(1.01725 0.0174301 4.96962e-21)
(1.01325 0.0177131 1.6499e-21)
(0.905553 0.414433 8.99272e-20)
(1.1608 0.188698 9.74218e-21)
(1.12124 0.285452 1.3414e-21)
(1.13511 0.123131 3.12908e-20)
(1.09887 0.154808 1.65946e-20)
(1.09538 0.068803 4.94319e-21)
(1.0711 0.0850135 3.15616e-21)
(1.06234 0.0402851 1.26337e-21)
(1.04694 0.0490621 1.74648e-22)
(1.03974 0.0283791 -2.8147e-21)
(1.02983 0.0310331 4.19143e-23)
(1.02533 0.0229826 3.02206e-22)
(1.01895 0.0227149 -6.51308e-22)
(1.01652 0.0188566 -1.02404e-21)
(1.01264 0.0188543 2.75157e-21)
(0.930415 0.421077 5.76216e-20)
(1.15747 0.191905 -2.46313e-20)
(1.11091 0.287567 2.85948e-20)
(1.12591 0.126172 -4.98003e-21)
(1.09016 0.158497 2.86911e-21)
(1.08836 0.0727081 -5.85177e-22)
(1.06576 0.0891405 -1.46861e-21)
(1.05789 0.0440035 2.84006e-22)
(1.04401 0.0525825 -1.36719e-23)
(1.03721 0.0313005 1.31709e-21)
(1.02821 0.0335583 -5.12276e-23)
(1.02397 0.0250702 -5.28283e-22)
(1.01785 0.0243802 1.30605e-21)
(1.01566 0.0202619 1.19492e-21)
(1.01188 0.0199302 -9.92561e-22)
(0.951747 0.429798 6.54579e-20)
(1.15325 0.196049 -1.8332e-20)
(1.10061 0.289593 2.40309e-20)
(1.11666 0.129143 -2.83639e-21)
(1.08175 0.161839 2.36697e-21)
(1.08118 0.0762609 -2.71073e-22)
(1.06054 0.0928492 -5.64045e-22)
(1.05321 0.0474177 -8.97522e-22)
(1.04104 0.0557376 2.6655e-22)
(1.0345 0.0340204 2.52645e-21)
(1.02642 0.0358332 -4.54508e-22)
(1.02247 0.0270348 -6.41251e-22)
(1.0166 0.0259365 1.99261e-21)
(1.01465 0.0215846 1.24116e-21)
(1.011 0.0209542 -1.63665e-21)
(0.969502 0.440233 1.14291e-19)
(1.14803 0.201044 1.00391e-20)
(1.09034 0.291536 9.22099e-22)
(1.10716 0.132001 9.79925e-21)
(1.07375 0.164865 6.50404e-21)
(1.07382 0.0794651 -2.73508e-23)
(1.0554 0.0961569 6.75034e-22)
(1.04844 0.0505333 -1.7595e-21)
(1.03796 0.058528 -6.52629e-22)
(1.03171 0.0365628 -8.42097e-21)
(1.02444 0.0378468 1.25031e-21)
(1.02088 0.0288881 7.59974e-22)
(1.01522 0.0273441 -8.30064e-22)
(1.01353 0.0228622 2.40674e-23)
(1.01002 0.0219062 3.52412e-21)
(0.983667 0.45203 -3.31513e-19)
(1.14173 0.206779 2.56307e-21)
(1.08016 0.293415 6.20894e-21)
(1.09728 0.134671 -1.05026e-20)
(1.06621 0.167588 -1.23168e-20)
(1.06636 0.0823597 -1.26475e-21)
(1.0502 0.0990313 -3.78358e-22)
(1.04381 0.0533991 5.71282e-21)
(1.03453 0.0609399 2.1354e-21)
(1.029 0.0389552 9.69849e-21)
(1.0222 0.0396079 8.29578e-21)
(1.01923 0.0305991 1.35869e-21)
(1.01373 0.0286524 -1.06568e-21)
(1.01226 0.0240285 5.39438e-21)
(1.00897 0.0227954 5.21057e-21)
(0.994253 0.464847 3.58865e-19)
(1.1342 0.213105 3.9137e-20)
(1.07021 0.295265 3.50379e-20)
(1.08702 0.137093 1.8715e-21)
(1.05883 0.169951 1.11661e-21)
(1.05909 0.0850419 4.43708e-21)
(1.04467 0.101422 -1.24386e-21)
(1.03943 0.0561141 -1.5443e-20)
(1.03074 0.0629769 4.89093e-21)
(1.02637 0.0411685 -9.31763e-22)
(1.01978 0.041149 -1.76032e-21)
(1.0175 0.0321457 2.64277e-21)
(1.01216 0.0298445 5.17426e-21)
(1.01092 0.0251149 -1.26587e-20)
(1.00781 0.0236047 -2.9956e-21)
(1.00129 0.478358 -6.5279e-19)
(1.12525 0.219825 -2.7174e-20)
(1.06064 0.297107 -7.41175e-20)
(1.07664 0.139304 7.90903e-21)
(1.05118 0.171839 5.68908e-21)
(1.05218 0.0876256 -9.35709e-21)
(1.03882 0.103314 4.09643e-21)
(1.03522 0.0586279 5.32632e-21)
(1.02673 0.0646648 -6.95219e-21)
(1.02373 0.0431858 -1.45354e-21)
(1.01724 0.0425014 -1.13615e-20)
(1.01567 0.0335018 -1.00957e-20)
(1.01054 0.0309379 -1.97764e-20)
(1.00951 0.0260901 1.28966e-21)
(1.0066 0.0243487 1.7625e-20)
(1.00484 0.492257 4.5269e-19)
(1.11478 0.226711 -9.07655e-21)
(1.05131 0.298866 -1.90663e-20)
(1.06635 0.141456 -3.64886e-21)
(1.04315 0.173209 -6.76647e-21)
(1.04556 0.0900898 -2.41037e-20)
(1.03278 0.104748 -1.4092e-21)
(1.0311 0.0609556 -6.20138e-21)
(1.0226 0.0660442 -6.78589e-21)
(1.02102 0.0449734 -1.27079e-20)
(1.01466 0.0436935 -1.93145e-20)
(1.01374 0.0346624 1.96221e-20)
(1.00886 0.0319055 2.99833e-20)
(1.00805 0.0269734 5.28943e-21)
(1.00532 0.0250154 -2.80193e-20)
(1.00499 0.506256 -5.91735e-19)
(1.10294 0.233597 6.65984e-21)
(1.04167 0.300336 -4.71829e-20)
(1.05639 0.143651 -5.44828e-20)
(1.03485 0.174005 1.20892e-20)
(1.03912 0.0924191 1.50725e-20)
(1.02663 0.105748 5.79017e-21)
(1.02698 0.0630451 8.18182e-21)
(1.01843 0.0671465 -5.88596e-21)
(1.01822 0.0465147 -1.43892e-20)
(1.01205 0.0447411 1.95772e-20)
(1.01172 0.0356319 -2.75264e-21)
(1.00715 0.0327444 3.91763e-22)
(1.00656 0.0277413 -8.31687e-21)
(1.004 0.0256111 -4.40716e-21)
(1.00196 0.520083 1.54605e-19)
(1.09009 0.240459 -7.33363e-21)
(1.03124 0.301355 1.10535e-19)
(1.04673 0.145973 1.12585e-19)
(1.02635 0.174286 -1.79223e-20)
(1.03278 0.0945604 -3.2768e-20)
(1.02047 0.106363 -3.22203e-20)
(1.02281 0.0648814 1.64513e-20)
(1.01427 0.0680074 -1.28377e-20)
(1.01531 0.0477945 -1.43907e-20)
(1.00943 0.0456473 3.6581e-20)
(1.00964 0.036427 5.63367e-21)
(1.0054 0.0334377 -6.95961e-21)
(1.00505 0.0283939 2.20613e-20)
(1.00263 0.0261185 9.92699e-21)
(0.995993 0.533487 9.12216e-19)
(1.07623 0.247248 -5.32597e-21)
(1.02004 0.301806 -7.00283e-21)
(1.03718 0.148251 -1.16207e-20)
(1.01777 0.174067 7.59537e-21)
(1.02646 0.0964818 5.15753e-20)
(1.01435 0.106625 7.7556e-21)
(1.01856 0.0664338 6.67492e-20)
(1.01015 0.0686469 -4.75724e-21)
(1.0123 0.0488167 2.44429e-20)
(1.00678 0.046406 -3.65239e-20)
(1.00751 0.0370621 -3.36738e-20)
(1.00361 0.0339922 3.45028e-21)
(1.00352 0.0289172 -1.13908e-20)
(1.00124 0.0265311 -3.49832e-20)
(0.987208 0.546204 8.16903e-19)
(1.0613 0.253823 9.01954e-20)
(1.00827 0.301603 -3.23351e-20)
(1.02766 0.15044 6.28845e-20)
(1.00914 0.173383 4.35407e-20)
(1.02011 0.0981342 2.6507e-20)
(1.00831 0.106572 -7.23156e-20)
(1.01423 0.067688 -7.13403e-20)
(1.00609 0.0690797 -2.97156e-20)
(1.00922 0.0495874 -3.69353e-20)
(1.00411 0.0470069 2.1538e-20)
(1.00534 0.0375508 4.09153e-20)
(1.00181 0.0344085 -4.1203e-20)
(1.00201 0.0293159 -1.22429e-20)
(0.999862 0.0268401 3.17451e-20)
(0.975365 0.557796 -1.59809e-18)
(1.04564 0.260157 -1.13424e-21)
(0.996049 0.300701 1.92176e-21)
(1.01808 0.15244 -1.27384e-19)
(1.00055 0.172258 -1.07866e-19)
(1.01372 0.0994859 -8.1123e-20)
(1.00237 0.106226 1.53617e-19)
(1.00982 0.0686346 -5.73619e-20)
(1.00209 0.0693097 1.1704e-19)
(1.00608 0.0501229 -4.9575e-21)
(1.00141 0.0474417 -2.19604e-20)
(1.00314 0.0378978 4.84008e-20)
(0.999988 0.0346947 -2.97517e-20)
(1.00052 0.0295902 -1.18871e-20)
(0.998517 0.0270483 -2.24426e-20)
(0.960392 0.567987 3.77962e-19)
(1.02936 0.266344 1.46202e-19)
(0.983476 0.299101 -1.18978e-20)
(1.00841 0.154183 1.72712e-19)
(0.992017 0.170715 -2.23408e-20)
(1.00726 0.100503 4.47927e-20)
(0.996547 0.105607 -1.43548e-19)
(1.00535 0.069272 1.69035e-19)
(0.99815 0.0693358 -1.11186e-20)
(1.00291 0.0504367 6.11356e-20)
(0.998697 0.0477049 3.65028e-21)
(1.00091 0.0381078 -8.37939e-20)
(0.998152 0.0348495 4.25385e-20)
(0.999068 0.0297395 6.21164e-20)
(0.997219 0.0271551 -1.99035e-22)
(0.942639 0.576507 -3.99252e-19)
(1.01238 0.272135 1.95055e-20)
(0.970628 0.296793 -3.81952e-20)
(0.998604 0.155592 2.10188e-20)
(0.983573 0.168774 -7.0772e-20)
(1.00074 0.101163 1.82737e-19)
(0.990843 0.104725 1.33463e-19)
(1.00085 0.0696045 -1.10521e-19)
(0.994261 0.0691537 -8.77403e-20)
(0.999739 0.050543 -2.68283e-20)
(0.995977 0.0477955 2.47807e-20)
(0.998661 0.0381833 2.66914e-20)
(0.996287 0.0348773 6.98929e-20)
(0.997616 0.0297617 -1.04314e-19)
(0.995936 0.0271595 3.44599e-20)
(0.922418 0.583136 -4.39867e-19)
(0.994676 0.277351 -3.81009e-20)
(0.95758 0.29377 4.16428e-20)
(0.988668 0.156602 9.96645e-20)
(0.975239 0.166446 2.17858e-19)
(0.994188 0.101447 -2.13568e-19)
(0.985256 0.103585 3.79779e-20)
(0.99633 0.0696393 3.70162e-20)
(0.990427 0.0687583 9.60387e-20)
(0.996574 0.0504512 -2.84222e-20)
(0.993266 0.0477136 6.8387e-20)
(0.99639 0.0381286 1.93057e-20)
(0.994392 0.0347874 -9.12251e-20)
(0.99615 0.0296716 5.11258e-20)
(0.994656 0.0270762 1.35606e-20)
(0.900023 0.587688 1.12103e-18)
(0.976262 0.281821 -1.68327e-19)
(0.944395 0.29002 2.09126e-19)
(0.978603 0.157152 -1.74153e-19)
(0.96703 0.163743 5.45064e-20)
(0.987611 0.101344 -1.87673e-20)
(0.979787 0.102188 -1.27778e-19)
(0.991821 0.0693858 -9.19953e-20)
(0.986653 0.0681463 -1.00673e-19)
(0.993433 0.0501688 5.31831e-20)
(0.990571 0.0474586 3.40875e-20)
(0.99411 0.0379407 6.96036e-20)
(0.992484 0.0345908 -7.14856e-20)
(0.994695 0.0295049 -1.64689e-20)
(0.993446 0.0269551 4.67708e-20)
(0.875739 0.589999 1.87274e-20)
(0.957178 0.285393 5.58795e-20)
(0.931134 0.285534 -2.49071e-19)
(0.968429 0.157191 -3.43526e-19)
(0.95896 0.160669 -3.63299e-20)
(0.981036 0.100846 2.97919e-19)
(0.974435 0.100534 1.09718e-20)
(0.987343 0.068853 4.49807e-20)
(0.982945 0.0673166 4.90574e-21)
(0.990324 0.0497015 -6.23195e-21)
(0.9879 0.0470297 -8.27493e-20)
(0.991831 0.0376109 1.03593e-20)
(0.99059 0.0342814 8.21589e-20)
(0.993297 0.0292812 1.14619e-20)
(0.992406 0.0268406 -4.14326e-20)
(0.849844 0.589935 -1.54387e-20)
(0.937492 0.287928 5.57994e-19)
(0.917857 0.280302 -5.52174e-20)
(0.958174 0.156672 3.66888e-19)
(0.951041 0.157227 2.61211e-19)
(0.974491 0.0999515 -2.74971e-20)
(0.969204 0.0986201 -3.81569e-20)
(0.982915 0.0680502 -4.53527e-20)
(0.979311 0.0662705 8.51716e-20)
(0.987254 0.0490548 -1.84414e-19)
(0.985258 0.0464298 -1.35309e-19)
(0.98957 0.0371322 -6.70387e-20)
(0.988738 0.0338373 -6.83553e-20)
(0.991962 0.0289671 3.93315e-21)
(0.99149 0.0267048 1.44984e-20)
(0.822615 0.587384 -2.03392e-19)
(0.917289 0.289299 -2.35427e-19)
(0.904618 0.274318 -2.96997e-19)
(0.947876 0.155559 -3.74202e-19)
(0.943285 0.153418 -5.17697e-19)
(0.968001 0.0986607 -5.69393e-20)
(0.9641 0.0964447 1.90544e-19)
(0.978554 0.0669855 -3.93033e-20)
(0.975759 0.0650108 6.88946e-20)
(0.98423 0.0482334 1.2503e-19)
(0.982656 0.0456656 1.53837e-20)
(0.987359 0.0365128 -2.74416e-20)
(0.986952 0.0332506 1.6032e-20)
(0.990613 0.0284911 -4.48513e-21)
(0.990395 0.026432 -9.45738e-20)
(0.79433 0.582261 -1.31879e-19)
(0.896676 0.289398 -1.23034e-19)
(0.891475 0.267574 1.18757e-18)
(0.937579 0.153821 3.43605e-19)
(0.935705 0.149242 3.09753e-19)
(0.961595 0.0969765 -2.71979e-19)
(0.959128 0.0940073 -2.00501e-19)
(0.974276 0.0656665 2.28772e-20)
(0.972299 0.0635415 -1.63739e-19)
(0.981259 0.0472399 7.38794e-20)
(0.980113 0.0447426 6.06517e-20)
(0.98523 0.0357709 -1.37649e-19)
(0.985252 0.0325556 7.19561e-21)
(0.989161 0.0278495 4.2738e-21)
(0.988803 0.025942 8.28695e-20)
(0.765262 0.574502 -1.09902e-19)
(0.875767 0.288128 -3.75077e-19)
(0.878482 0.26007 -1.10168e-18)
(0.927328 0.151436 -3.63919e-19)
(0.928316 0.144697 -2.49055e-19)
(0.955298 0.0949041 -8.75205e-20)
(0.954301 0.0913087 1.00529e-19)
(0.970096 0.0641005 -9.33459e-21)
(0.968937 0.0618676 1.10209e-19)
(0.978352 0.0460763 -1.36133e-19)
(0.977647 0.0436613 4.4867e-20)
(0.983201 0.0349102 6.37695e-20)
(0.983635 0.0317919 -9.94151e-21)
(0.987623 0.0271592 5.15681e-20)