/*--------------------------------*- C++ -*----------------------------------*\
  =========                 |
  \\      /  F ield         | OpenFOAM: The Open Source CFD Toolbox
   \\    /   O peration     | Website:  https://openfoam.org
    \\  /    A nd           | Version:  7
     \\/     M anipulation  |
\*---------------------------------------------------------------------------*/
FoamFile
{
    version     2.0;
    format      ascii;
    class       volVectorField;
    location    "6";
    object      U;
}
// * * * * * * * * * * * * * * * * * * * * * * * * * * * * * * * * * * * * * //

dimensions      [0 1 -1 0 0 0 0];

internalField   nonuniform List<vector> 
2413
(
(1.95377 -0.124942 0)
(1.95503 -0.123673 0)
(1.9563 -0.122511 0)
(1.95891 -0.120986 0)
(1.96143 -0.119598 0)
(1.96325 -0.118621 0)
(1.9656 -0.117325 0)
(1.96801 -0.115329 0)
(1.97025 -0.113005 0)
(1.9729 -0.110792 0)
(1.97549 -0.108822 0)
(1.97761 -0.107165 0)
(1.9799 -0.105573 0)
(1.98234 -0.103684 0)
(1.98449 -0.1021 0)
(1.98647 -0.100975 0)
(1.98867 -0.099527 0)
(1.99119 -0.097655 0)
(1.99348 -0.0959883 0)
(1.99564 -0.0951861 0)
(1.99772 -0.0944522 0)
(1.9995 -0.0933746 0)
(2.00095 -0.0926329 0)
(2.00231 -0.0923707 0)
(2.00382 -0.0920672 0)
(2.00541 -0.0917401 0)
(2.00692 -0.0916425 0)
(2.00833 -0.0917418 0)
(2.00962 -0.0919416 0)
(2.01073 -0.0924386 0)
(2.01175 -0.0931823 0)
(2.01271 -0.0939199 0)
(2.01357 -0.0948384 0)
(2.01427 -0.0959352 0)
(2.01485 -0.0968344 0)
(2.01547 -0.0979912 0)
(2.01609 -0.0992318 0)
(2.01654 -0.100332 0)
(2.01694 -0.10148 0)
(2.01761 -0.102274 0)
(2.01869 -0.102562 0)
(2.02005 -0.102754 0)
(2.02168 -0.102733 0)
(2.02353 -0.102425 0)
(2.0253 -0.102065 0)
(2.02772 -0.101537 0)
(2.03028 -0.101042 0)
(2.03259 -0.100726 0)
(2.03481 -0.100142 0)
(2.03696 -0.0996036 0)
(2.03897 -0.099594 0)
(2.04105 -0.0996259 0)
(2.04329 -0.0993514 0)
(2.04555 -0.099333 0)
(2.04775 -0.0990306 0)
(2.04989 -0.0983687 0)
(2.05259 -0.0972449 0)
(2.05555 -0.0964391 0)
(2.0584 -0.0952115 0)
(2.06048 -0.0940817 0)
(2.06324 -0.0936558 0)
(2.06587 -0.0934839 0)
(2.06834 -0.0931271 0)
(2.0709 -0.0926984 0)
(2.07367 -0.0924459 0)
(2.07645 -0.0922873 0)
(2.07926 -0.0918893 0)
(2.08199 -0.0914517 0)
(2.08462 -0.091369 0)
(2.08743 -0.0912258 0)
(2.09007 -0.0906538 0)
(2.09255 -0.0903491 0)
(2.09485 -0.090409 0)
(2.09707 -0.0901301 0)
(2.09959 -0.0894561 0)
(2.10188 -0.0886633 0)
(2.10433 -0.0886242 0)
(2.10656 -0.0883838 0)
(2.10985 -0.0872014 0)
(1.85896 -0.189647 0)
(1.86065 -0.189122 0)
(1.86244 -0.188547 0)
(1.86445 -0.187498 0)
(1.86637 -0.186407 0)
(1.86796 -0.185424 0)
(1.86901 -0.18392 0)
(1.87045 -0.181273 0)
(1.87256 -0.177955 0)
(1.8741 -0.174218 0)
(1.87461 -0.169685 0)
(1.87483 -0.163851 0)
(1.87537 -0.158182 0)
(1.87645 -0.154674 0)
(1.87854 -0.153537 0)
(1.88106 -0.153804 0)
(1.88352 -0.154279 0)
(1.88593 -0.154363 0)
(1.88841 -0.154318 0)
(1.89094 -0.154281 0)
(1.89341 -0.154099 0)
(1.89559 -0.153534 0)
(1.89774 -0.15246 0)
(1.90007 -0.151522 0)
(1.90168 -0.15029 0)
(1.90304 -0.148594 0)
(1.90464 -0.146859 0)
(1.90615 -0.144961 0)
(1.90729 -0.14297 0)
(1.90877 -0.141429 0)
(1.91086 -0.140879 0)
(1.91314 -0.140698 0)
(1.91519 -0.140379 0)
(1.9171 -0.139239 0)
(1.91889 -0.137788 0)
(1.92057 -0.13725 0)
(1.92209 -0.136846 0)
(1.92341 -0.135854 0)
(1.92467 -0.13499 0)
(1.926 -0.134713 0)
(1.92707 -0.134285 0)
(1.92846 -0.132938 0)
(1.93134 -0.13163 0)
(1.93355 -0.130757 0)
(1.93551 -0.12996 0)
(1.93801 -0.128612 0)
(1.94067 -0.126897 0)
(1.94282 -0.125681 0)
(1.94499 -0.124874 0)
(1.94792 -0.123553 0)
(1.95069 -0.122359 0)
(1.95346 -0.121782 0)
(1.95633 -0.120699 0)
(1.95859 -0.119155 0)
(1.96017 -0.117768 0)
(1.96153 -0.116306 0)
(1.96274 -0.114272 0)
(1.96373 -0.111943 0)
(1.96572 -0.110077 0)
(1.96847 -0.109273 0)
(1.97125 -0.108228 0)
(1.97366 -0.106293 0)
(1.97604 -0.104363 0)
(1.97877 -0.102757 0)
(1.98112 -0.101654 0)
(1.98345 -0.100504 0)
(1.98588 -0.098823 0)
(1.98808 -0.0971197 0)
(1.99003 -0.0959651 0)
(1.99205 -0.0945741 0)
(1.99386 -0.0928342 0)
(1.99531 -0.0917393 0)
(1.99674 -0.0913392 0)
(1.99822 -0.0909501 0)
(1.99971 -0.0902936 0)
(2.0011 -0.0901231 0)
(2.00239 -0.0905532 0)
(2.00366 -0.0908263 0)
(2.00495 -0.0910661 0)
(2.00625 -0.091749 0)
(2.00745 -0.0925797 0)
(2.00843 -0.0933412 0)
(2.00924 -0.09437 0)
(2.01 -0.0954457 0)
(2.0108 -0.0960749 0)
(2.01163 -0.0969827 0)
(2.01241 -0.0979162 0)
(2.01317 -0.0988039 0)
(2.01404 -0.0993636 0)
(2.01504 -0.0995353 0)
(2.01594 -0.0998264 0)
(2.01682 -0.100012 0)
(2.01797 -0.0996286 0)
(2.01934 -0.0990221 0)
(2.02073 -0.0986949 0)
(2.02227 -0.0985672 0)
(2.02384 -0.0983763 0)
(2.02554 -0.0976687 0)
(2.02782 -0.0969057 0)
(2.02994 -0.0966052 0)
(2.03219 -0.0962393 0)
(2.03426 -0.0954772 0)
(2.03672 -0.0949241 0)
(2.03902 -0.0944896 0)
(2.04136 -0.0938352 0)
(2.04414 -0.0929303 0)
(2.04693 -0.0923387 0)
(2.04973 -0.0915152 0)
(2.05189 -0.0907116 0)
(2.05415 -0.0902269 0)
(2.05672 -0.0897514 0)
(2.05909 -0.0888482 0)
(2.0612 -0.088201 0)
(2.06388 -0.0876355 0)
(2.06646 -0.0871704 0)
(2.0689 -0.0865923 0)
(2.07156 -0.0862125 0)
(2.0742 -0.0861858 0)
(2.07683 -0.0862131 0)
(2.0795 -0.0862194 0)
(2.0822 -0.0861126 0)
(2.08492 -0.0862183 0)
(2.08755 -0.0863509 0)
(2.09025 -0.0860559 0)
(2.09269 -0.0855858 0)
(2.09517 -0.0853864 0)
(2.09741 -0.0853538 0)
(2.09964 -0.0849049 0)
(2.10169 -0.0844614 0)
(2.10401 -0.0841904 0)
(2.10607 -0.0839154 0)
(2.10936 -0.0827657 0)
(1.86018 -0.178741 0)
(1.8623 -0.178242 0)
(1.86434 -0.1778 0)
(1.86643 -0.176881 0)
(1.86837 -0.175846 0)
(1.87017 -0.174727 0)
(1.87221 -0.172757 0)
(1.87398 -0.16989 0)
(1.87485 -0.166596 0)
(1.87455 -0.162681 0)
(1.874 -0.157094 0)
(1.87402 -0.151105 0)
(1.87464 -0.147233 0)
(1.8764 -0.145823 0)
(1.87903 -0.145588 0)
(1.88224 -0.145963 0)
(1.88608 -0.146836 0)
(1.88963 -0.147588 0)
(1.89285 -0.148093 0)
(1.89556 -0.148357 0)
(1.89771 -0.148375 0)
(1.89961 -0.147982 0)
(1.90159 -0.147062 0)
(1.903 -0.145466 0)
(1.90388 -0.1437 0)
(1.90528 -0.141731 0)
(1.90706 -0.139748 0)
(1.90848 -0.137757 0)
(1.91 -0.136681 0)
(1.91189 -0.135866 0)
(1.91375 -0.135187 0)
(1.9155 -0.134623 0)
(1.91721 -0.134084 0)
(1.91908 -0.133005 0)
(1.92105 -0.131778 0)
(1.92299 -0.131286 0)
(1.92485 -0.130776 0)
(1.92656 -0.129701 0)
(1.92805 -0.128715 0)
(1.92942 -0.12821 0)
(1.93074 -0.127619 0)
(1.93163 -0.126297 0)
(1.9338 -0.124738 0)
(1.93597 -0.123864 0)
(1.93829 -0.122965 0)
(1.94139 -0.121835 0)
(1.94454 -0.120096 0)
(1.94675 -0.11888 0)
(1.94924 -0.117808 0)
(1.95181 -0.116691 0)
(1.95378 -0.11586 0)
(1.95552 -0.114802 0)
(1.95729 -0.112607 0)
(1.95925 -0.110233 0)
(1.9611 -0.108495 0)
(1.96291 -0.106991 0)
(1.96533 -0.105963 0)
(1.96797 -0.105382 0)
(1.97061 -0.104084 0)
(1.97276 -0.101952 0)
(1.97422 -0.100128 0)
(1.97541 -0.0989386 0)
(1.97735 -0.0974522 0)
(1.97971 -0.0958887 0)
(1.982 -0.0947152 0)
(1.98436 -0.0936204 0)
(1.98677 -0.0921884 0)
(1.98887 -0.0909408 0)
(1.9907 -0.0905419 0)
(1.99239 -0.0902311 0)
(1.99399 -0.089492 0)
(1.99546 -0.0889597 0)
(1.99677 -0.0890921 0)
(1.998 -0.0893181 0)
(1.99925 -0.0891149 0)
(2.00052 -0.0893396 0)
(2.00173 -0.0900936 0)
(2.00287 -0.0908917 0)
(2.00402 -0.0919958 0)
(2.00516 -0.0931969 0)
(2.00621 -0.0942002 0)
(2.00713 -0.0951491 0)
(2.0079 -0.0965192 0)
(2.00855 -0.0980255 0)
(2.00924 -0.0987673 0)
(2.01015 -0.0989846 0)
(2.01126 -0.09909 0)
(2.01238 -0.0990738 0)
(2.01352 -0.0989022 0)
(2.01496 -0.0980806 0)
(2.01644 -0.0971429 0)
(2.01768 -0.0968811 0)
(2.01892 -0.0966389 0)
(2.02026 -0.0959927 0)
(2.02155 -0.0953479 0)
(2.02298 -0.0948768 0)
(2.02449 -0.0945843 0)
(2.02624 -0.0935807 0)
(2.02861 -0.0922122 0)
(2.03056 -0.0916083 0)
(2.03263 -0.0909725 0)
(2.03491 -0.0898122 0)
(2.03749 -0.0891675 0)
(2.03998 -0.0884633 0)
(2.04212 -0.0878474 0)
(2.04453 -0.0871886 0)
(2.0472 -0.0867272 0)
(2.04959 -0.0860264 0)
(2.05198 -0.0850647 0)
(2.05473 -0.0841789 0)
(2.05725 -0.0833457 0)
(2.05953 -0.0828143 0)
(2.06198 -0.0822674 0)
(2.06442 -0.0818136 0)
(2.06687 -0.0813564 0)
(2.06923 -0.080953 0)
(2.07177 -0.0808992 0)
(2.07432 -0.0810256 0)
(2.0769 -0.0811328 0)
(2.07956 -0.0811259 0)
(2.08226 -0.0809444 0)
(2.08502 -0.0808194 0)
(2.08788 -0.0807947 0)
(2.09095 -0.0803361 0)
(2.09392 -0.0795101 0)
(2.09634 -0.0794197 0)
(2.09911 -0.0791719 0)
(2.1017 -0.0784194 0)
(2.10377 -0.0776644 0)
(2.10584 -0.076906 0)
(2.10737 -0.0769993 0)
(2.10998 -0.0762354 0)
(1.86181 -0.167622 0)
(1.86329 -0.167056 0)
(1.86521 -0.166626 0)
(1.86752 -0.165664 0)
(1.86951 -0.164361 0)
(1.87085 -0.162865 0)
(1.8717 -0.16082 0)
(1.87241 -0.158011 0)
(1.873 -0.154469 0)
(1.87402 -0.149666 0)
(1.8755 -0.144281 0)
(1.8768 -0.140116 0)
(1.87849 -0.138019 0)
(1.88074 -0.137702 0)
(1.88336 -0.138274 0)
(1.88614 -0.138842 0)
(1.88904 -0.139505 0)
(1.89184 -0.140119 0)
(1.89438 -0.140359 0)
(1.89671 -0.140229 0)
(1.89925 -0.140066 0)
(1.9016 -0.139904 0)
(1.90375 -0.139286 0)
(1.90562 -0.138184 0)
(1.90678 -0.137078 0)
(1.90801 -0.135145 0)
(1.90896 -0.132624 0)
(1.90993 -0.131003 0)
(1.91133 -0.130284 0)
(1.91311 -0.129545 0)
(1.91497 -0.128882 0)
(1.9168 -0.128445 0)
(1.91866 -0.128067 0)
(1.92063 -0.127267 0)
(1.92269 -0.126288 0)
(1.92478 -0.125806 0)
(1.92691 -0.12528 0)
(1.92904 -0.124204 0)
(1.93115 -0.122907 0)
(1.93326 -0.121772 0)
(1.93502 -0.120671 0)
(1.93642 -0.119172 0)
(1.93856 -0.117738 0)
(1.9401 -0.11669 0)
(1.94145 -0.11584 0)
(1.94342 -0.114134 0)
(1.94571 -0.111695 0)
(1.94791 -0.109845 0)
(1.95002 -0.108407 0)
(1.95198 -0.107172 0)
(1.95437 -0.106637 0)
(1.95709 -0.106134 0)
(1.95978 -0.104986 0)
(1.96216 -0.103821 0)
(1.96452 -0.102531 0)
(1.96683 -0.101076 0)
(1.96898 -0.0997893 0)
(1.9711 -0.098456 0)
(1.97289 -0.0966274 0)
(1.97434 -0.0945991 0)
(1.97601 -0.0933555 0)
(1.97803 -0.0925622 0)
(1.98013 -0.0913899 0)
(1.98202 -0.0900953 0)
(1.98365 -0.0894925 0)
(1.98528 -0.0892313 0)
(1.9871 -0.0884343 0)
(1.98885 -0.0876258 0)
(1.99043 -0.0877454 0)
(1.99181 -0.0881567 0)
(1.99314 -0.0881926 0)
(1.99445 -0.0883107 0)
(1.99567 -0.0888722 0)
(1.99682 -0.0896505 0)
(1.99794 -0.0901353 0)
(1.99912 -0.0909737 0)
(2.00035 -0.0922961 0)
(2.00157 -0.0933312 0)
(2.00276 -0.0942291 0)
(2.00392 -0.0953636 0)
(2.00509 -0.0963695 0)
(2.00628 -0.0969208 0)
(2.00735 -0.0974875 0)
(2.00829 -0.0981267 0)
(2.0092 -0.0986843 0)
(2.01012 -0.0991725 0)
(2.0113 -0.0987459 0)
(2.0127 -0.0978516 0)
(2.01404 -0.0975458 0)
(2.0155 -0.0967396 0)
(2.01709 -0.0951875 0)
(2.01844 -0.094292 0)
(2.01957 -0.0940008 0)
(2.0209 -0.0930529 0)
(2.02259 -0.0915003 0)
(2.02437 -0.0901681 0)
(2.02605 -0.089584 0)
(2.02758 -0.0888512 0)
(2.02978 -0.0871912 0)
(2.03171 -0.0860342 0)
(2.03353 -0.0853809 0)
(2.03568 -0.0842597 0)
(2.03849 -0.083417 0)
(2.04109 -0.082389 0)
(2.04337 -0.0815848 0)
(2.04614 -0.0807022 0)
(2.04881 -0.0798867 0)
(2.05103 -0.0791254 0)
(2.0532 -0.078467 0)
(2.05548 -0.0778528 0)
(2.05765 -0.0775531 0)
(2.05997 -0.077323 0)
(2.06243 -0.0768947 0)
(2.06485 -0.076532 0)
(2.06723 -0.0760049 0)
(2.06975 -0.0751198 0)
(2.07243 -0.0748685 0)
(2.07496 -0.0748552 0)
(2.07754 -0.0747729 0)
(2.08017 -0.0746288 0)
(2.08269 -0.0745739 0)
(2.08518 -0.0747964 0)
(2.08778 -0.0749333 0)
(2.09048 -0.0745558 0)
(2.09366 -0.0738591 0)
(2.09643 -0.0736061 0)
(2.09916 -0.0735408 0)
(2.10198 -0.0730665 0)
(2.10434 -0.0722945 0)
(2.10646 -0.0715539 0)
(2.10758 -0.0713535 0)
(2.11037 -0.0699609 0)
(1.86374 -0.156434 0)
(1.86616 -0.155873 0)
(1.86808 -0.155106 0)
(1.86922 -0.153726 0)
(1.87005 -0.151994 0)
(1.87118 -0.150184 0)
(1.8724 -0.147858 0)
(1.8728 -0.144572 0)
(1.87226 -0.140404 0)
(1.87266 -0.135767 0)
(1.8741 -0.131877 0)
(1.87627 -0.129502 0)
(1.87908 -0.128493 0)
(1.88209 -0.128643 0)
(1.88556 -0.129855 0)
(1.88912 -0.131295 0)
(1.89245 -0.132525 0)
(1.89535 -0.133384 0)
(1.89778 -0.133688 0)
(1.89995 -0.133342 0)
(1.90158 -0.132431 0)
(1.90274 -0.131331 0)
(1.90393 -0.130089 0)
(1.90523 -0.129075 0)
(1.90672 -0.128271 0)
(1.90857 -0.127252 0)
(1.91054 -0.126015 0)
(1.91252 -0.125046 0)
(1.91445 -0.124504 0)
(1.91649 -0.12375 0)
(1.91859 -0.122692 0)
(1.92049 -0.122012 0)
(1.92228 -0.121664 0)
(1.92401 -0.120963 0)
(1.92558 -0.119998 0)
(1.92722 -0.119371 0)
(1.92903 -0.118797 0)
(1.93113 -0.117664 0)
(1.93329 -0.11604 0)
(1.93508 -0.114258 0)
(1.93658 -0.112392 0)
(1.93783 -0.109968 0)
(1.93909 -0.107399 0)
(1.94085 -0.105995 0)
(1.94328 -0.10549 0)
(1.94581 -0.104923 0)
(1.9487 -0.10361 0)
(1.95093 -0.102618 0)
(1.95373 -0.101531 0)
(1.95628 -0.100315 0)
(1.95843 -0.0993014 0)
(1.95993 -0.0984252 0)
(1.96091 -0.0979233 0)
(1.96241 -0.097459 0)
(1.96455 -0.0962467 0)
(1.96674 -0.0946496 0)
(1.96873 -0.093243 0)
(1.9709 -0.0919309 0)
(1.97332 -0.090408 0)
(1.97549 -0.0889734 0)
(1.9772 -0.0881582 0)
(1.97867 -0.0876489 0)
(1.98024 -0.0867445 0)
(1.98182 -0.085866 0)
(1.98333 -0.0858772 0)
(1.98482 -0.0863596 0)
(1.98639 -0.0862589 0)
(1.98793 -0.0859574 0)
(1.98931 -0.0865252 0)
(1.99047 -0.0874678 0)
(1.99154 -0.0880605 0)
(1.9926 -0.0887827 0)
(1.99368 -0.0900033 0)
(1.99483 -0.0912274 0)
(1.99607 -0.0919528 0)
(1.99738 -0.0929614 0)
(1.99871 -0.0943221 0)
(2.00004 -0.0951602 0)
(2.00138 -0.0957278 0)
(2.00276 -0.0965002 0)
(2.00422 -0.0970035 0)
(2.00576 -0.0967211 0)
(2.00733 -0.0963712 0)
(2.00903 -0.0961691 0)
(2.01067 -0.0958246 0)
(2.01188 -0.095843 0)
(2.01298 -0.0957217 0)
(2.01439 -0.0950654 0)
(2.01579 -0.0944849 0)
(2.01703 -0.0936849 0)
(2.01847 -0.0921689 0)
(2.01994 -0.0906565 0)
(2.02122 -0.0896514 0)
(2.02254 -0.088594 0)
(2.02409 -0.0871872 0)
(2.02579 -0.085521 0)
(2.02743 -0.0844795 0)
(2.02884 -0.0838546 0)
(2.03081 -0.0822373 0)
(2.03286 -0.0805713 0)
(2.03461 -0.079739 0)
(2.03662 -0.0786624 0)
(2.0396 -0.0775345 0)
(2.04214 -0.0762956 0)
(2.04437 -0.0757293 0)
(2.04708 -0.0749392 0)
(2.04994 -0.0738363 0)
(2.05234 -0.0727095 0)
(2.05456 -0.0719065 0)
(2.05677 -0.071356 0)
(2.05898 -0.0711485 0)
(2.06116 -0.0710801 0)
(2.06335 -0.0711213 0)
(2.06558 -0.0711776 0)
(2.06782 -0.0708994 0)
(2.06996 -0.0702959 0)
(2.07227 -0.0701415 0)
(2.0745 -0.0701558 0)
(2.07682 -0.0700119 0)
(2.07935 -0.0695599 0)
(2.08197 -0.0692191 0)
(2.0847 -0.0690325 0)
(2.08739 -0.0683643 0)
(2.09018 -0.0677041 0)
(2.09298 -0.0672973 0)
(2.09583 -0.0669923 0)
(2.09855 -0.0669325 0)
(2.10122 -0.0670021 0)
(2.1038 -0.0667829 0)
(2.10659 -0.065628 0)
(2.1086 -0.0641827 0)
(2.11153 -0.0624047 0)
(1.86283 -0.145573 0)
(1.86338 -0.145428 0)
(1.86458 -0.144212 0)
(1.86654 -0.141742 0)
(1.86849 -0.13933 0)
(1.87021 -0.13733 0)
(1.87104 -0.13516 0)
(1.87068 -0.131534 0)
(1.87133 -0.12651 0)
(1.87396 -0.122959 0)
(1.87695 -0.121342 0)
(1.88043 -0.120931 0)
(1.884 -0.121161 0)
(1.88729 -0.121847 0)
(1.89047 -0.123114 0)
(1.89333 -0.124225 0)
(1.89592 -0.12501 0)
(1.89823 -0.125517 0)
(1.90039 -0.125551 0)
(1.90245 -0.125187 0)
(1.90411 -0.124629 0)
(1.90552 -0.124224 0)
(1.90698 -0.123446 0)
(1.90852 -0.12231 0)
(1.90985 -0.121349 0)
(1.91133 -0.120426 0)
(1.91307 -0.119238 0)
(1.91479 -0.118259 0)
(1.91653 -0.117872 0)
(1.91838 -0.117049 0)
(1.92025 -0.115516 0)
(1.92207 -0.114534 0)
(1.92412 -0.114294 0)
(1.92628 -0.113761 0)
(1.92871 -0.112772 0)
(1.93089 -0.112085 0)
(1.93292 -0.111186 0)
(1.93519 -0.109465 0)
(1.93721 -0.107245 0)
(1.93871 -0.105684 0)
(1.94021 -0.104388 0)
(1.94187 -0.102239 0)
(1.94346 -0.100068 0)
(1.94529 -0.0988377 0)
(1.94772 -0.0975192 0)
(1.94974 -0.0957656 0)
(1.95081 -0.0950457 0)
(1.95186 -0.0950638 0)
(1.95392 -0.0939686 0)
(1.95626 -0.0926315 0)
(1.95849 -0.0917399 0)
(1.96102 -0.0911616 0)
(1.96354 -0.0912141 0)
(1.96554 -0.0913423 0)
(1.96766 -0.0906186 0)
(1.9698 -0.089054 0)
(1.97158 -0.0878221 0)
(1.97303 -0.087104 0)
(1.97445 -0.0861192 0)
(1.97588 -0.0850237 0)
(1.97719 -0.0846782 0)
(1.97842 -0.0848974 0)
(1.97973 -0.084714 0)
(1.98107 -0.0842771 0)
(1.98236 -0.0847398 0)
(1.98361 -0.0859062 0)
(1.98493 -0.0863986 0)
(1.9863 -0.0863916 0)
(1.98759 -0.0872644 0)
(1.98871 -0.0887281 0)
(1.98974 -0.0897027 0)
(1.99077 -0.0905961 0)
(1.9919 -0.0921116 0)
(1.99316 -0.0935327 0)
(1.99464 -0.0940014 0)
(1.99622 -0.0944092 0)
(1.99776 -0.0952402 0)
(1.99919 -0.0956679 0)
(2.00064 -0.0958001 0)
(2.00221 -0.0962003 0)
(2.00378 -0.0964103 0)
(2.0053 -0.0959147 0)
(2.00692 -0.0956362 0)
(2.00886 -0.0952981 0)
(2.01102 -0.0940063 0)
(2.01279 -0.0929825 0)
(2.0145 -0.0924824 0)
(2.01658 -0.0914887 0)
(2.01857 -0.0902547 0)
(2.02017 -0.0892149 0)
(2.02169 -0.0878446 0)
(2.02321 -0.0860472 0)
(2.02445 -0.0845739 0)
(2.02539 -0.0835961 0)
(2.02647 -0.0821773 0)
(2.02798 -0.0803986 0)
(2.02962 -0.079373 0)
(2.03137 -0.0784135 0)
(2.03336 -0.0766149 0)
(2.03506 -0.0749698 0)
(2.03664 -0.0740346 0)
(2.03863 -0.0729539 0)
(2.04069 -0.071973 0)
(2.04289 -0.0710303 0)
(2.04554 -0.0698601 0)
(2.04774 -0.0692852 0)
(2.0502 -0.0685066 0)
(2.05284 -0.0673169 0)
(2.05515 -0.0664519 0)
(2.05752 -0.0657969 0)
(2.06021 -0.0650864 0)
(2.06281 -0.0645124 0)
(2.06521 -0.0643546 0)
(2.06751 -0.064374 0)
(2.06975 -0.064193 0)
(2.07181 -0.0637084 0)
(2.07385 -0.0633693 0)
(2.07581 -0.0632668 0)
(2.07777 -0.0631113 0)
(2.07994 -0.0628126 0)
(2.08226 -0.0627736 0)
(2.08475 -0.0626887 0)
(2.08714 -0.0623499 0)
(2.08971 -0.0618082 0)
(2.09243 -0.0612233 0)
(2.09501 -0.0606073 0)
(2.09789 -0.059657 0)
(2.1013 -0.0586995 0)
(2.10515 -0.0582672 0)
(2.10879 -0.0571815 0)
(2.11234 -0.0560234 0)
(2.1152 -0.0548226 0)
(1.86461 -0.135169 0)
(1.86689 -0.134658 0)
(1.86839 -0.132943 0)
(1.86863 -0.130248 0)
(1.86878 -0.127821 0)
(1.86994 -0.125527 0)
(1.87177 -0.1225 0)
(1.87382 -0.118458 0)
(1.87501 -0.11388 0)
(1.87573 -0.110951 0)
(1.87721 -0.110341 0)
(1.87964 -0.110666 0)
(1.88266 -0.111187 0)
(1.88569 -0.111914 0)
(1.88902 -0.113175 0)
(1.89198 -0.114265 0)
(1.89472 -0.114984 0)
(1.89723 -0.1153 0)
(1.89956 -0.115414 0)
(1.9017 -0.115371 0)
(1.90353 -0.115085 0)
(1.90517 -0.114824 0)
(1.90676 -0.114014 0)
(1.90817 -0.112781 0)
(1.9097 -0.11228 0)
(1.91173 -0.112075 0)
(1.91419 -0.111535 0)
(1.91668 -0.111317 0)
(1.91906 -0.111524 0)
(1.92119 -0.110923 0)
(1.92294 -0.108937 0)
(1.92432 -0.107248 0)
(1.92583 -0.106391 0)
(1.92793 -0.104851 0)
(1.92979 -0.102767 0)
(1.93115 -0.101508 0)
(1.93267 -0.100649 0)
(1.93476 -0.0991279 0)
(1.93666 -0.0976041 0)
(1.93829 -0.0970256 0)
(1.93992 -0.0964733 0)
(1.94182 -0.0947414 0)
(1.94347 -0.0929562 0)
(1.94499 -0.0920626 0)
(1.94706 -0.0905532 0)
(1.94942 -0.0885442 0)
(1.95171 -0.0879673 0)
(1.95383 -0.088068 0)
(1.95599 -0.087282 0)
(1.95793 -0.0864584 0)
(1.95983 -0.0861238 0)
(1.96197 -0.0854956 0)
(1.96404 -0.0849109 0)
(1.96594 -0.0847114 0)
(1.96791 -0.0842335 0)
(1.96987 -0.0835138 0)
(1.97168 -0.0833293 0)
(1.97316 -0.08353 0)
(1.9744 -0.0833467 0)
(1.97553 -0.0829505 0)
(1.9766 -0.0832961 0)
(1.97762 -0.0842874 0)
(1.9787 -0.0847806 0)
(1.97989 -0.08473 0)
(1.98104 -0.0854572 0)
(1.98209 -0.0870568 0)
(1.98319 -0.0879378 0)
(1.98449 -0.0880113 0)
(1.98584 -0.0887756 0)
(1.98711 -0.0901617 0)
(1.98833 -0.090956 0)
(1.9896 -0.0915042 0)
(1.99097 -0.0927158 0)
(1.99245 -0.0938024 0)
(1.99424 -0.0938424 0)
(1.99617 -0.0935559 0)
(1.99801 -0.0933668 0)
(1.99962 -0.093089 0)
(2.00118 -0.0931263 0)
(2.00288 -0.0933094 0)
(2.00452 -0.0928685 0)
(2.00587 -0.0923139 0)
(2.0073 -0.0926333 0)
(2.00895 -0.0926057 0)
(2.0111 -0.0909817 0)
(2.01289 -0.089597 0)
(2.01464 -0.0891415 0)
(2.01654 -0.0882429 0)
(2.01828 -0.0867236 0)
(2.01967 -0.0855924 0)
(2.02113 -0.0843475 0)
(2.02315 -0.0821747 0)
(2.02516 -0.0801741 0)
(2.02699 -0.07868 0)
(2.02877 -0.0768998 0)
(2.03041 -0.075457 0)
(2.03212 -0.0745449 0)
(2.03397 -0.0732002 0)
(2.03573 -0.0713582 0)
(2.03735 -0.0698032 0)
(2.03914 -0.068507 0)
(2.04109 -0.0672663 0)
(2.04299 -0.0662646 0)
(2.04488 -0.0653715 0)
(2.0469 -0.0644114 0)
(2.04903 -0.0635259 0)
(2.05109 -0.0629845 0)
(2.05338 -0.0621201 0)
(2.0558 -0.0609512 0)
(2.05813 -0.0602292 0)
(2.06046 -0.059799 0)
(2.06297 -0.0591315 0)
(2.06568 -0.0583345 0)
(2.06801 -0.0578083 0)
(2.07017 -0.0575418 0)
(2.07234 -0.0571939 0)
(2.07475 -0.0569143 0)
(2.07696 -0.056642 0)
(2.07909 -0.0563589 0)
(2.08136 -0.055795 0)
(2.08388 -0.0556946 0)
(2.08637 -0.0557561 0)
(2.08898 -0.0552528 0)
(2.09167 -0.0540892 0)
(2.09442 -0.0529396 0)
(2.09674 -0.052098 0)
(2.09904 -0.0514729 0)
(2.10141 -0.0506371 0)
(2.10433 -0.0500946 0)
(2.10702 -0.0489597 0)
(2.11001 -0.0482806 0)
(2.11377 -0.0461072 0)
(1.86709 -0.126024 0)
(1.86828 -0.125047 0)
(1.86888 -0.122373 0)
(1.87023 -0.118397 0)
(1.87117 -0.11556 0)
(1.87125 -0.11314 0)
(1.87171 -0.109453 0)
(1.87303 -0.104723 0)
(1.87434 -0.100742 0)
(1.87631 -0.0992617 0)
(1.87961 -0.100086 0)
(1.8832 -0.101579 0)
(1.88642 -0.102977 0)
(1.88996 -0.104392 0)
(1.89315 -0.10537 0)
(1.89599 -0.106316 0)
(1.8986 -0.10672 0)
(1.90078 -0.106767 0)
(1.90282 -0.106738 0)
(1.90472 -0.106471 0)
(1.90636 -0.106061 0)
(1.90793 -0.105914 0)
(1.90938 -0.105602 0)
(1.91065 -0.104802 0)
(1.91188 -0.104239 0)
(1.91337 -0.103883 0)
(1.91536 -0.102991 0)
(1.91737 -0.102358 0)
(1.91926 -0.10238 0)
(1.92133 -0.101963 0)
(1.92424 -0.100771 0)
(1.927 -0.0997536 0)
(1.92942 -0.0988096 0)
(1.93163 -0.0972159 0)
(1.93371 -0.0953438 0)
(1.93549 -0.0942902 0)
(1.93693 -0.0937454 0)
(1.93854 -0.09245 0)
(1.94033 -0.0908833 0)
(1.94186 -0.090386 0)
(1.94317 -0.0901566 0)
(1.94485 -0.0887009 0)
(1.94646 -0.0869763 0)
(1.94783 -0.0862858 0)
(1.94926 -0.0851003 0)
(1.95066 -0.083142 0)
(1.95202 -0.0825416 0)
(1.95356 -0.0826405 0)
(1.95551 -0.0818378 0)
(1.95748 -0.0813197 0)
(1.95947 -0.0814394 0)
(1.96151 -0.0812354 0)
(1.96354 -0.0810772 0)
(1.96551 -0.0813089 0)
(1.96738 -0.0813624 0)
(1.96917 -0.0811816 0)
(1.97085 -0.0813967 0)
(1.97221 -0.0820921 0)
(1.97328 -0.08267 0)
(1.97431 -0.0829681 0)
(1.97533 -0.0837062 0)
(1.97632 -0.0852111 0)
(1.97736 -0.0862805 0)
(1.97863 -0.086293 0)
(1.97988 -0.0867142 0)
(1.98098 -0.088321 0)
(1.98205 -0.0894854 0)
(1.98337 -0.0895507 0)
(1.98484 -0.0899548 0)
(1.98633 -0.091045 0)
(1.98784 -0.0915027 0)
(1.98941 -0.0913542 0)
(1.991 -0.0918938 0)
(1.99263 -0.0926961 0)
(1.9946 -0.0925371 0)
(1.99678 -0.0916735 0)
(1.99882 -0.0906272 0)
(2.0006 -0.0898102 0)
(2.00234 -0.0897103 0)
(2.00409 -0.0896383 0)
(2.00582 -0.0886714 0)
(2.00741 -0.0879881 0)
(2.00911 -0.0883619 0)
(2.01101 -0.0880183 0)
(2.01329 -0.0861222 0)
(2.015 -0.0846 0)
(2.01662 -0.0840159 0)
(2.01814 -0.0830733 0)
(2.01953 -0.0815053 0)
(2.02082 -0.0803273 0)
(2.0223 -0.0791955 0)
(2.02414 -0.0774931 0)
(2.02601 -0.0758067 0)
(2.02794 -0.0739339 0)
(2.02985 -0.0719676 0)
(2.03162 -0.0708411 0)
(2.03338 -0.0700539 0)
(2.03526 -0.0686366 0)
(2.0373 -0.0668637 0)
(2.03949 -0.065237 0)
(2.04187 -0.0636307 0)
(2.0441 -0.0621045 0)
(2.04603 -0.0607027 0)
(2.04771 -0.0595922 0)
(2.04931 -0.0587423 0)
(2.05095 -0.0579015 0)
(2.0526 -0.057402 0)
(2.05422 -0.0571035 0)
(2.05617 -0.0562255 0)
(2.05862 -0.055038 0)
(2.06107 -0.0541894 0)
(2.06356 -0.0532391 0)
(2.06601 -0.0520746 0)
(2.06823 -0.0510413 0)
(2.07048 -0.0504391 0)
(2.07278 -0.0502236 0)
(2.07527 -0.0502144 0)
(2.07795 -0.0500826 0)
(2.0802 -0.0496521 0)
(2.08283 -0.0487905 0)
(2.08559 -0.0484928 0)
(2.08812 -0.0485765 0)
(2.09073 -0.0482018 0)
(2.09327 -0.0469891 0)
(2.09615 -0.0454095 0)
(2.09887 -0.0441776 0)
(2.10158 -0.0435043 0)
(2.10465 -0.0425964 0)
(2.10664 -0.0412545 0)
(2.10902 -0.0401083 0)
(2.11169 -0.0395917 0)
(2.11558 -0.0373224 0)
(1.86827 -0.117431 0)
(1.86982 -0.115797 0)
(1.87137 -0.111956 0)
(1.87159 -0.107532 0)
(1.87085 -0.104097 0)
(1.87058 -0.100025 0)
(1.87261 -0.0967121 0)
(1.87562 -0.0937253 0)
(1.87789 -0.0915341 0)
(1.88119 -0.0910822 0)
(1.88483 -0.0914774 0)
(1.88778 -0.0923228 0)
(1.88997 -0.093259 0)
(1.89166 -0.0941578 0)
(1.8931 -0.094975 0)
(1.89456 -0.0952518 0)
(1.89672 -0.0952384 0)
(1.89887 -0.0951782 0)
(1.90082 -0.0950388 0)
(1.90265 -0.094874 0)
(1.90451 -0.0945622 0)
(1.90654 -0.0941274 0)
(1.90873 -0.0939753 0)
(1.91126 -0.0938311 0)
(1.91385 -0.0938556 0)
(1.91641 -0.0938327 0)
(1.91871 -0.0935924 0)
(1.92106 -0.0933554 0)
(1.92338 -0.0933929 0)
(1.92554 -0.0928696 0)
(1.9275 -0.0914407 0)
(1.92899 -0.0902633 0)
(1.93008 -0.0901738 0)
(1.9311 -0.0900126 0)
(1.93256 -0.0888712 0)
(1.9341 -0.0878052 0)
(1.93549 -0.0872919 0)
(1.93698 -0.0864634 0)
(1.93882 -0.0849613 0)
(1.94063 -0.0840367 0)
(1.94243 -0.0835732 0)
(1.9445 -0.0822542 0)
(1.94635 -0.0808433 0)
(1.94785 -0.0807464 0)
(1.94907 -0.0805508 0)
(1.9503 -0.0793979 0)
(1.95157 -0.0792556 0)
(1.95293 -0.0795942 0)
(1.95463 -0.0788332 0)
(1.9565 -0.0783558 0)
(1.95849 -0.0785716 0)
(1.96047 -0.0784992 0)
(1.96239 -0.0785403 0)
(1.96425 -0.0790409 0)
(1.96595 -0.0795575 0)
(1.9675 -0.0800353 0)
(1.96894 -0.08083 0)
(1.97019 -0.0820617 0)
(1.97128 -0.0832991 0)
(1.97249 -0.0840522 0)
(1.97381 -0.0848371 0)
(1.97509 -0.086388 0)
(1.97629 -0.0876638 0)
(1.97775 -0.0875602 0)
(1.9792 -0.0874 0)
(1.9805 -0.0885618 0)
(1.98168 -0.0896192 0)
(1.98311 -0.089478 0)
(1.98474 -0.0893785 0)
(1.98647 -0.0897946 0)
(1.98838 -0.0896463 0)
(1.99039 -0.0887927 0)
(1.99224 -0.0885175 0)
(1.99404 -0.0891207 0)
(1.99593 -0.0892913 0)
(1.99798 -0.088565 0)
(1.99985 -0.0874261 0)
(2.00158 -0.0866808 0)
(2.00334 -0.0865269 0)
(2.00507 -0.0858738 0)
(2.00695 -0.0843784 0)
(2.00881 -0.0833975 0)
(2.01078 -0.0834404 0)
(2.0124 -0.0832017 0)
(2.01431 -0.081522 0)
(2.01623 -0.0799077 0)
(2.01827 -0.0789374 0)
(2.02049 -0.0776684 0)
(2.02262 -0.0762224 0)
(2.02448 -0.0751395 0)
(2.02621 -0.074103 0)
(2.02782 -0.0728177 0)
(2.0293 -0.0712511 0)
(2.03084 -0.0692421 0)
(2.03242 -0.0674108 0)
(2.034 -0.0662804 0)
(2.0356 -0.0652324 0)
(2.03734 -0.063767 0)
(2.03926 -0.062275 0)
(2.04147 -0.0608545 0)
(2.04388 -0.0592477 0)
(2.04622 -0.0574753 0)
(2.04836 -0.0557007 0)
(2.05024 -0.0543396 0)
(2.05198 -0.053279 0)
(2.05361 -0.0522414 0)
(2.05512 -0.0516008 0)
(2.05665 -0.0510777 0)
(2.05834 -0.0501048 0)
(2.06008 -0.0492039 0)
(2.06191 -0.0486032 0)
(2.06384 -0.0478342 0)
(2.06593 -0.0467502 0)
(2.06809 -0.0455554 0)
(2.07045 -0.0443765 0)
(2.07314 -0.0436039 0)
(2.07618 -0.0430816 0)
(2.07973 -0.0425671 0)
(2.08373 -0.0414114 0)
(2.0873 -0.0397981 0)
(2.09042 -0.0391483 0)
(2.09272 -0.0388758 0)
(2.09429 -0.0386644 0)
(2.09555 -0.038125 0)
(2.09735 -0.0366765 0)
(2.09983 -0.0354781 0)
(2.10242 -0.0349174 0)
(2.10545 -0.0345529 0)
(2.10973 -0.0337208 0)
(2.1125 -0.0315956 0)
(2.1147 -0.0298456 0)
(2.11876 -0.0274793 0)
(1.87017 -0.108395 0)
(1.87238 -0.105364 0)
(1.8741 -0.100603 0)
(1.87509 -0.0955103 0)
(1.87548 -0.0921306 0)
(1.8763 -0.0892111 0)
(1.87726 -0.0856449 0)
(1.87753 -0.0830187 0)
(1.87863 -0.0826858 0)
(1.88084 -0.0829739 0)
(1.88373 -0.083156 0)
(1.88695 -0.0835189 0)
(1.89021 -0.0842062 0)
(1.89332 -0.0852575 0)
(1.89608 -0.0862408 0)
(1.89863 -0.0867273 0)
(1.90077 -0.0868985 0)
(1.9026 -0.0869688 0)
(1.90434 -0.0867688 0)
(1.90583 -0.0863153 0)
(1.90741 -0.0855551 0)
(1.90909 -0.0845007 0)
(1.91059 -0.0837234 0)
(1.91219 -0.0834808 0)
(1.91403 -0.0833995 0)
(1.91598 -0.0833387 0)
(1.91784 -0.0835014 0)
(1.9199 -0.0832942 0)
(1.92225 -0.0826983 0)
(1.92473 -0.0820902 0)
(1.9272 -0.0817828 0)
(1.9298 -0.0818249 0)
(1.9321 -0.0819694 0)
(1.93342 -0.0818972 0)
(1.9343 -0.0813763 0)
(1.93562 -0.0806649 0)
(1.93719 -0.0803898 0)
(1.93874 -0.0802539 0)
(1.94061 -0.0792526 0)
(1.94248 -0.0783162 0)
(1.9439 -0.0783653 0)
(1.94509 -0.0781064 0)
(1.94646 -0.0774159 0)
(1.94783 -0.0775774 0)
(1.94892 -0.0776006 0)
(1.94997 -0.0767004 0)
(1.95113 -0.076506 0)
(1.95236 -0.0767147 0)
(1.95369 -0.0761394 0)
(1.95526 -0.0760844 0)
(1.95708 -0.0767178 0)
(1.95887 -0.0770498 0)
(1.96057 -0.0776002 0)
(1.96221 -0.0786289 0)
(1.96375 -0.0797095 0)
(1.96518 -0.0807238 0)
(1.96658 -0.0817218 0)
(1.96795 -0.082962 0)
(1.96936 -0.0843366 0)
(1.97102 -0.0850744 0)
(1.97281 -0.0852838 0)
(1.9745 -0.0862899 0)
(1.97593 -0.0876533 0)
(1.97748 -0.0876264 0)
(1.97902 -0.0869875 0)
(1.98046 -0.0875557 0)
(1.98182 -0.088367 0)
(1.98341 -0.0880022 0)
(1.98512 -0.0874913 0)
(1.98693 -0.0876742 0)
(1.98895 -0.0874176 0)
(1.9912 -0.0861498 0)
(1.99316 -0.0851702 0)
(1.99505 -0.0854927 0)
(1.9969 -0.0858995 0)
(1.99901 -0.085 0)
(2.00107 -0.0834953 0)
(2.0031 -0.0827584 0)
(2.00529 -0.082204 0)
(2.00729 -0.0809367 0)
(2.00885 -0.079487 0)
(2.01054 -0.0786798 0)
(2.0124 -0.0783249 0)
(2.01423 -0.077401 0)
(2.01627 -0.0757829 0)
(2.01814 -0.0743659 0)
(2.01976 -0.0731643 0)
(2.02135 -0.0717707 0)
(2.02316 -0.0704117 0)
(2.02513 -0.0692545 0)
(2.02711 -0.0682289 0)
(2.02898 -0.0672745 0)
(2.03088 -0.0659877 0)
(2.03304 -0.0642486 0)
(2.03518 -0.0627046 0)
(2.03715 -0.0615327 0)
(2.039 -0.060298 0)
(2.04075 -0.0588887 0)
(2.04243 -0.0576481 0)
(2.04426 -0.0563499 0)
(2.04632 -0.0546384 0)
(2.04838 -0.0526359 0)
(2.05029 -0.0506728 0)
(2.05204 -0.0490646 0)
(2.05367 -0.0478298 0)
(2.05531 -0.0467061 0)
(2.05697 -0.0458854 0)
(2.05856 -0.0452973 0)
(2.06019 -0.0443939 0)
(2.06199 -0.043302 0)
(2.06381 -0.0424581 0)
(2.06561 -0.0413165 0)
(2.06799 -0.0397741 0)
(2.07004 -0.0384831 0)
(2.07212 -0.0371467 0)
(2.0746 -0.0358262 0)
(2.07708 -0.0349591 0)
(2.07949 -0.0344711 0)
(2.08212 -0.0339122 0)
(2.08506 -0.032901 0)
(2.08805 -0.0317063 0)
(2.09089 -0.0303933 0)
(2.09369 -0.0291924 0)
(2.09698 -0.0286048 0)
(2.10104 -0.0279394 0)
(2.10487 -0.0270848 0)
(2.10667 -0.0267114 0)
(2.10866 -0.0258914 0)
(2.11016 -0.0246166 0)
(2.11194 -0.0231241 0)
(2.11448 -0.0220974 0)
(2.11842 -0.020677 0)
(1.87426 -0.0973856 0)
(1.87295 -0.0935142 0)
(1.87197 -0.0888613 0)
(1.87187 -0.0848009 0)
(1.87236 -0.0822374 0)
(1.87449 -0.0793725 0)
(1.8773 -0.07658 0)
(1.88002 -0.075245 0)
(1.88326 -0.0753964 0)
(1.88594 -0.0760529 0)
(1.8882 -0.0764728 0)
(1.89046 -0.076782 0)
(1.8928 -0.0772651 0)
(1.89503 -0.0775395 0)
(1.89692 -0.0775889 0)
(1.89871 -0.0776095 0)
(1.90051 -0.0776268 0)
(1.90249 -0.077507 0)
(1.90448 -0.0767351 0)
(1.90642 -0.0762651 0)
(1.9078 -0.0762752 0)
(1.90982 -0.0762953 0)
(1.91221 -0.0762576 0)
(1.91447 -0.0764158 0)
(1.9167 -0.0762933 0)
(1.91881 -0.0755616 0)
(1.92038 -0.0749613 0)
(1.9217 -0.0746984 0)
(1.92316 -0.0742999 0)
(1.9246 -0.0739759 0)
(1.92595 -0.0743934 0)
(1.92746 -0.0748598 0)
(1.92912 -0.0745343 0)
(1.93048 -0.0741218 0)
(1.93174 -0.0742356 0)
(1.93339 -0.0740728 0)
(1.93528 -0.0738802 0)