/*--------------------------------*- C++ -*----------------------------------*\
  =========                 |
  \\      /  F ield         | OpenFOAM: The Open Source CFD Toolbox
   \\    /   O peration     | Website:  https://openfoam.org
    \\  /    A nd           | Version:  7
     \\/     M anipulation  |
\*---------------------------------------------------------------------------*/
FoamFile
{
    version     2.0;
    format      ascii;
    class       volVectorField;
    location    "32";
    object      U;
}
// * * * * * * * * * * * * * * * * * * * * * * * * * * * * * * * * * * * * * //

dimensions      [0 1 -1 0 0 0 0];

internalField   nonuniform List<vector> 
135168
(
(3 -1.47926e-17 0)
(3 -6.17444e-17 0)
(3 -7.47802e-17 0)
(3 -3.57498e-17 0)
(3 -7.80771e-17 0)
(3 -1.62981e-16 0)
(3 -1.77637e-16 0)
(3 -7.33197e-17 0)
(3 1.72146e-16 0)
(3 2.15673e-16 0)
(3 9.16805e-17 0)
(3 1.74913e-17 0)
(3 3.69174e-17 0)
(3 4.87945e-17 0)
(3 6.80246e-17 0)
(3 1.01844e-16 0)
(3 6.45432e-17 0)
(3 8.05991e-19 0)
(3 4.46361e-17 0)
(3 1.15636e-16 0)
(3 1.94807e-16 0)
(3 2.51922e-16 0)
(3 2.73036e-16 0)
(3 4.90216e-16 0)
(3 5.79749e-16 0)
(3 6.86553e-16 0)
(3 6.94145e-16 0)
(3 5.82229e-16 0)
(3 4.2959e-16 0)
(3 5.44862e-16 0)
(3 2.02254e-16 0)
(3 -3.18349e-16 0)
(3 -4.44642e-16 0)
(3 -5.20146e-16 0)
(3 -5.18826e-16 0)
(3 -3.20698e-16 0)
(3 -2.19899e-16 0)
(3 -2.12275e-16 0)
(3 -2.9323e-16 0)
(3 -2.94537e-16 0)
(3 -2.2183e-16 0)
(3 -1.20647e-16 0)
(3 9.32898e-17 0)
(3 1.29199e-16 0)
(3 5.63413e-17 0)
(3 1.55117e-17 0)
(3 -1.27253e-16 0)
(3 -4.4469e-16 0)
(3 -9.75092e-16 0)
(3 -1.00253e-15 0)
(3 -9.65734e-16 0)
(3 -9.19407e-16 0)
(3 -9.47062e-16 0)
(3 -1.14968e-15 0)
(3 -1.45526e-15 0)
(3 -1.45414e-15 0)
(3 -1.03504e-15 0)
(3 -8.10712e-16 0)
(3 -6.1934e-16 0)
(3 -5.94765e-16 0)
(3 -5.92371e-16 0)
(3 -6.43755e-16 0)
(3 -5.45589e-16 0)
(3 -6.07812e-16 0)
(3 -8.71822e-16 0)
(3 -9.39877e-16 0)
(3 -7.7024e-16 0)
(3 -5.76794e-16 0)
(3 -2.17794e-16 0)
(3 2.75249e-16 0)
(3 2.91475e-16 0)
(3 2.39442e-16 0)
(3 2.88271e-16 0)
(3 3.93165e-16 0)
(3 4.04097e-17 0)
(3 -9.80989e-17 0)
(3 -1.24538e-16 0)
(3 -2.19349e-16 0)
(3 -9.07372e-16 0)
(3 -1.37916e-15 0)
(3 -1.5711e-15 0)
(3 -1.75894e-15 0)
(3 -1.8026e-15 0)
(3 -1.73631e-15 0)
(3 -1.69734e-15 0)
(3 -1.63547e-15 0)
(3 -1.21788e-15 0)
(3 -8.19326e-16 0)
(3 -8.51232e-16 0)
(3 -5.44293e-16 0)
(3 2.53044e-16 0)
(3 4.36167e-16 0)
(3 8.58889e-16 0)
(3 9.7563e-16 0)
(3 9.91247e-16 0)
(3 9.61205e-16 0)
(3 7.67575e-16 0)
(3 6.92186e-16 0)
(3 8.7464e-16 0)
(3 3.35609e-16 0)
(3 -1.15456e-16 0)
(3 -1.22532e-16 0)
(3 2.80509e-16 0)
(3 8.3425e-16 0)
(3 1.0184e-15 0)
(3 1.17496e-15 0)
(3 8.91655e-16 0)
(3 2.12747e-16 0)
(3 -8.96385e-17 0)
(3 -2.26468e-16 0)
(3 -2.62176e-16 0)
(3 -1.60097e-16 0)
(3 -1.23626e-16 0)
(3 -2.92801e-16 0)
(3 -6.49116e-16 0)
(3 -9.46627e-16 0)
(3 -1.1865e-15 0)
(3 -1.07842e-15 0)
(3 -1.61944e-15 0)
(3 -1.99467e-15 0)
(3 -2.03604e-15 0)
(3 -2.00513e-15 0)
(3 -1.96151e-15 0)
(3 -1.90331e-15 0)
(3 -1.85075e-15 0)
(3 -1.66486e-15 0)
(3 -1.39052e-15 0)
(3 -9.83247e-16 0)
(3 -7.75288e-16 0)
(3 -7.86878e-16 0)
(3 -1.25313e-15 0)
(3 -1.36294e-15 0)
(3 -1.32234e-15 0)
(3 -1.19793e-15 0)
(3 -1.58459e-15 0)
(3 -1.61794e-15 0)
(3 -1.53196e-15 0)
(3 -1.53564e-15 0)
(3 -1.60224e-15 0)
(3 -1.96067e-15 0)
(3 -2.42635e-15 0)
(3 -2.50437e-15 0)
(3 -2.67742e-15 0)
(3 -2.77231e-15 0)
(3 -2.78824e-15 0)
(3 -2.84351e-15 0)
(3 -2.34103e-15 0)
(3 -1.90369e-15 0)
(3 -1.39524e-15 0)
(3 5.06335e-16 0)
(3 1.42333e-15 0)
(3 1.06844e-15 0)
(3 5.53932e-16 0)
(3 1.39005e-16 0)
(3 -1.46195e-16 0)
(3 -4.73602e-16 0)
(3 -9.89108e-16 0)
(3 -1.11927e-15 0)
(3 -1.16786e-15 0)
(3 -8.2409e-16 0)
(3 -1.59519e-16 0)
(3 6.29354e-16 0)
(3 8.92541e-16 0)
(3 6.55968e-16 0)
(3 9.78665e-17 0)
(3 -1.04951e-15 0)
(3 -1.21903e-15 0)
(3 -2.85852e-16 0)
(3 1.75597e-16 0)
(3 -1.05042e-16 0)
(3 -5.89801e-16 0)
(3 -7.08542e-16 0)
(3 -1.03733e-15 0)
(3 -1.56746e-15 0)
(3 -1.80807e-15 0)
(3 -2.04324e-15 0)
(3 -1.85803e-15 0)
(3 -1.86259e-15 0)
(3 -1.64121e-15 0)
(3 -1.57156e-15 0)
(3 -1.54868e-15 0)
(3 -8.39146e-16 0)
(3 -3.31984e-16 0)
(3 -3.59242e-16 0)
(3 -5.7424e-16 0)
(3 -8.52929e-16 0)
(3 -1.2032e-15 0)
(3 -1.35262e-15 0)
(3 -1.19926e-15 0)
(3 -9.71652e-16 0)
(3 -9.93656e-16 0)
(3 -1.00697e-15 0)
(3 -9.22011e-16 0)
(3 -9.93998e-16 0)
(3 -5.67546e-16 0)
(3 1.35733e-16 0)
(3 3.63181e-16 0)
(3 2.65872e-16 0)
(3 1.80238e-16 0)
(3 2.57788e-16 0)
(3 3.04554e-16 0)
(3 3.77898e-16 0)
(3 8.62546e-16 0)
(3 1.58976e-15 0)
(3 1.60721e-15 0)
(3 2.27623e-15 0)
(3 3.79119e-15 0)
(3 2.14338e-15 0)
(3 1.68428e-15 0)
(3 1.63487e-15 0)
(3 1.09954e-15 0)
(3 1.23713e-15 0)
(3 7.08942e-16 0)
(3 4.68326e-16 0)
(3 5.21869e-17 0)
(3 1.88412e-16 0)
(3 6.98559e-16 0)
(3 1.69812e-15 0)
(3 3.02537e-15 0)
(3 3.7264e-15 0)
(3 3.30958e-15 0)
(3 2.49601e-15 0)
(3 2.92187e-15 0)
(3 3.50022e-15 0)
(3 3.458e-15 0)
(3 2.88336e-15 0)
(3 2.09432e-15 0)
(3 1.57384e-15 0)
(3 1.61175e-15 0)
(3 1.54127e-15 0)
(3 1.3162e-15 0)
(3 1.09818e-15 0)
(3 8.69362e-16 0)
(3 4.69595e-16 0)
(3 -4.61496e-16 0)
(3 -1.21742e-16 0)
(3 2.97272e-16 0)
(3 5.03223e-16 0)
(3 5.38991e-16 0)
(3 5.57192e-16 0)
(3 7.3917e-16 0)
(3 9.33206e-16 0)
(3 9.91927e-16 0)
(3 8.67608e-16 0)
(3 5.74156e-16 0)
(3 4.14332e-16 0)
(3 4.52654e-16 0)
(3 5.77828e-16 0)
(3 5.67356e-16 0)
(3 7.96727e-16 0)
(3 1.39902e-15 0)
(3 1.52933e-15 0)
(3 1.51459e-15 0)
(3 1.58102e-15 0)
(3 1.86577e-15 0)
(3 1.81107e-15 0)
(3 2.23525e-15 0)
(3 2.67157e-15 0)
(3 3.10388e-15 0)
(3 3.25154e-15 0)
(3 3.25125e-15 0)
(3 3.55751e-15 0)
(3 3.73837e-15 0)
(3 3.67319e-15 0)
(3 3.293e-15 0)
(3 2.7515e-15 0)
(3 2.57199e-15 0)
(3 2.49462e-15 0)
(3 2.37362e-15 0)
(3 1.90608e-15 0)
(3 1.41118e-15 0)
(3 8.5017e-16 0)
(3 6.0572e-16 0)
(3 4.9454e-16 0)
(3 4.69979e-16 0)
(3 4.49947e-16 0)
(3 4.04193e-16 0)
(3 1.74495e-16 0)
(3 3.66245e-16 0)
(3 -4.88516e-16 0)
(3 -1.0608e-15 0)
(3 -1.57672e-15 0)
(3 -2.23763e-15 0)
(3 -2.52803e-15 0)
(3 -2.65763e-15 0)
(3 -2.98235e-15 0)
(3 -3.134e-15 0)
(3 -3.19927e-15 0)
(3 -1.86845e-15 0)
(3 -1.66141e-16 0)
(3 4.78246e-16 0)
(3 7.47024e-16 0)
(3 1.25386e-15 0)
(3 2.49464e-15 0)
(3 3.10121e-15 0)
(3 2.71192e-15 0)
(3 1.2682e-15 0)
(3 7.77217e-16 0)
(3 8.59739e-16 0)
(3 6.7263e-16 0)
(3 -1.35805e-15 0)
(3 -2.52589e-15 0)
(3 -2.72135e-15 0)
(3 -2.93908e-15 0)
(3 -3.10162e-15 0)
(3 -3.02419e-15 0)
(3 -1.95976e-15 0)
(3 -1.69058e-15 0)
(3 -1.46594e-15 0)
(3 -1.32327e-15 0)
(3 -1.13352e-15 0)
(3 -1.04131e-15 0)
(3 -6.80052e-16 0)
(3 -3.02174e-16 0)
(3 -6.29188e-16 0)
(3 -2.4251e-15 0)
(3 -3.02061e-15 0)
(3 -3.13072e-15 0)
(3 -3.1519e-15 0)
(3 -3.17139e-15 0)
(3 -2.98946e-15 0)
(3 -2.54751e-15 0)
(3 -1.99142e-15 0)
(3 -2.03379e-15 0)
(3 -2.5246e-15 0)
(3 -1.48963e-15 0)
(3 5.01639e-16 0)
(3 8.73579e-16 0)
(3 4.21032e-16 0)
(3 -1.11888e-15 0)
(3 -1.47313e-15 0)
(3 -1.63462e-15 0)
(3 -1.79573e-15 0)
(3 -1.62942e-15 0)
(3 -9.86732e-16 0)
(3 -8.64668e-16 0)
(3 -8.73286e-16 0)
(3 -9.59418e-16 0)
(3 -9.43737e-16 0)
(3 -9.63913e-16 0)
(3 1.48759e-15 0)
(3 2.89114e-15 0)
(3 2.97768e-15 0)
(3 2.43137e-15 0)
(3 1.97161e-15 0)
(3 8.1461e-16 0)
(3 -4.27069e-16 0)
(3 -6.51068e-16 0)
(3 -9.5969e-16 0)
(3 -1.15656e-15 0)
(3 -1.11347e-15 0)
(3 -2.64202e-16 0)
(3 -9.15024e-17 0)
(3 1.39511e-17 0)
(3 6.65414e-17 0)
(3 6.43411e-16 0)
(3 1.37583e-15 0)
(3 1.46438e-15 0)
(3 -4.84636e-16 0)
(3 -3.29932e-15 0)
(3 -3.36994e-15 0)
(3 -3.00073e-15 0)
(3 -2.71862e-15 0)
(3 -2.7381e-15 0)
(3 -2.50512e-15 0)
(3 -2.10985e-15 0)
(3 -1.47267e-15 0)
(3 -2.04749e-15 0)
(3 -3.19474e-15 0)
(3 -3.37753e-15 0)
(3 -3.5265e-15 0)
(3 -3.50045e-15 0)
(3 -2.82397e-15 0)
(3 -2.34269e-15 0)
(3 -2.46797e-15 0)
(3 -3.96696e-15 0)
(3 -4.5099e-15 0)
(3 -6.40408e-15 0)
(3 -5.77432e-15 0)
(3 -4.8895e-15 0)
(3 -4.30826e-15 0)
(3 -2.82898e-15 0)
(3 -1.9226e-15 0)
(3 1.85288e-17 0)
(3 -1.08448e-17 0)
(3 -2.37396e-17 0)
(3 9.05332e-17 0)
(3 1.53005e-16 0)
(3 1.49617e-16 0)
(3 7.83963e-17 0)
(3 7.29026e-17 0)
(3 1.69317e-16 0)
(3 2.74556e-16 0)
(3 5.05149e-16 0)
(3 7.23709e-16 0)
(3 6.65253e-16 0)
(3 3.31886e-16 0)
(3 2.2331e-16 0)
(3 1.42924e-16 0)
(3 4.2134e-17 0)
(3 -6.58843e-17 0)
(3 -9.45077e-17 0)
(3 -9.59031e-17 0)
(3 1.69308e-16 0)
(3 3.48278e-16 0)
(3 5.96106e-16 0)
(3 9.88676e-16 0)
(3 1.27427e-15 0)
(3 1.3192e-15 0)
(3 1.11147e-15 0)
(3 1.02312e-15 0)
(3 1.0858e-15 0)
(3 1.13266e-15 0)
(3 6.88056e-16 0)
(3 4.05759e-16 0)
(3 -1.47863e-16 0)
(3 -8.85413e-16 0)
(3 -1.25089e-15 0)
(3 -7.05622e-16 0)
(3 -5.89926e-16 0)
(3 -2.92722e-16 0)
(3 -3.27105e-17 0)
(3 3.59797e-17 0)
(3 5.54955e-17 0)
(3 4.35531e-17 0)
(3 -3.79217e-16 0)
(3 -3.49506e-18 0)
(3 4.11745e-17 0)
(3 -7.43981e-17 0)
(3 -7.57963e-17 0)
(3 -8.06044e-16 0)
(3 -1.4235e-15 0)
(3 -1.69329e-15 0)
(3 -2.24601e-15 0)
(3 -2.4188e-15 0)
(3 -2.39304e-15 0)
(3 -2.34412e-15 0)
(3 -2.18418e-15 0)
(3 -2.41747e-15 0)
(3 -2.36513e-15 0)
(3 -1.81138e-15 0)
(3 -1.37577e-15 0)
(3 -1.18379e-15 0)
(3 -9.9585e-16 0)
(3 -7.74488e-16 0)
(3 -4.60522e-16 0)
(3 -4.34723e-16 0)
(3 -4.40053e-16 0)
(3 -6.30373e-16 0)
(3 -7.68555e-16 0)
(3 -7.7725e-16 0)
(3 -6.85428e-16 0)
(3 -6.2119e-16 0)
(3 -5.57678e-16 0)
(3 -4.41061e-16 0)
(3 -3.57786e-16 0)
(3 -7.31799e-16 0)
(3 -9.97155e-16 0)
(3 -1.05132e-15 0)
(3 -1.04371e-15 0)
(3 -1.04977e-15 0)
(3 -1.31431e-15 0)
(3 -1.49629e-15 0)
(3 -1.8926e-15 0)
(3 -2.65755e-15 0)
(3 -3.0942e-15 0)
(3 -3.30479e-15 0)
(3 -3.58153e-15 0)
(3 -3.83704e-15 0)
(3 -4.50838e-15 0)
(3 -4.43983e-15 0)
(3 -1.51824e-15 0)
(3 -4.73194e-16 0)
(3 1.64373e-16 0)
(3 5.05361e-16 0)
(3 7.05469e-16 0)
(3 4.53918e-16 0)
(3 4.71683e-16 0)
(3 4.7085e-16 0)
(3 5.11849e-16 0)
(3 5.25069e-16 0)
(3 2.66704e-16 0)
(3 1.5525e-15 0)
(3 1.26964e-15 0)
(3 -6.57425e-17 0)
(3 -1.18667e-15 0)
(3 -1.57332e-15 0)
(3 -2.37472e-15 0)
(3 -1.84395e-15 0)
(3 -1.54e-15 0)
(3 -1.35837e-15 0)
(3 -1.41166e-15 0)
(3 -1.81687e-15 0)
(3 -2.25376e-15 0)
(3 -2.49214e-15 0)
(3 -2.58714e-15 0)
(3 -2.49942e-15 0)
(3 -2.4429e-15 0)
(3 -2.23228e-15 0)
(3 -2.21064e-15 0)
(3 -2.37964e-15 0)
(3 -2.95996e-15 0)
(3 -4.1031e-15 0)
(3 -4.37844e-15 0)
(3 -4.65636e-15 0)
(3 -4.69259e-15 0)
(3 -4.74413e-15 0)
(3 -4.54121e-15 0)
(3 -4.26785e-15 0)
(3 -4.27175e-15 0)
(3 -4.41972e-15 0)
(3 -4.70001e-15 0)
(3 -4.48693e-15 0)
(3 -4.04299e-15 0)
(3 -3.87012e-15 0)
(3 -4.05721e-15 0)
(3 -4.28251e-15 0)
(3 -4.44967e-15 0)
(3 -2.76092e-15 0)
(3 -1.92095e-15 0)
(3 -2.92591e-15 0)
(3 -3.74119e-15 0)
(3 -3.92105e-15 0)
(3 -4.3634e-15 0)
(3 -4.59091e-15 0)
(3 -4.92646e-15 0)
(3 -4.69676e-15 0)
(3 -4.0345e-15 0)
(3 -4.35233e-15 0)
(3 -3.59976e-15 0)
(3 -1.96468e-15 0)
(3 -9.37993e-16 0)
(3 1.93442e-16 0)
(3 1.76701e-15 0)
(3 2.819e-15 0)
(3 1.53005e-15 0)
(3 6.93095e-16 0)
(3 6.95467e-16 0)
(3 7.75899e-16 0)
(3 7.40474e-16 0)
(3 -4.39377e-16 0)
(3 -7.33572e-16 0)
(3 -2.00495e-15 0)
(3 -1.50669e-15 0)
(3 1.79855e-15 0)
(3 2.15952e-15 0)
(3 2.65743e-15 0)
(3 2.42425e-15 0)
(3 7.50876e-16 0)
(3 -1.81988e-17 0)
(3 -5.3984e-16 0)
(3 -5.1095e-16 0)
(3 -6.91104e-16 0)
(3 -1.57689e-15 0)
(3 -2.19192e-15 0)
(3 -2.35263e-15 0)
(3 -2.66529e-15 0)
(3 -3.55283e-15 0)
(3 -4.41398e-15 0)
(3 -5.18576e-15 0)
(3 -5.34005e-15 0)
(3 -4.92292e-15 0)
(3 -4.06882e-15 0)
(3 -5.20734e-15 0)
(3 -5.97882e-15 0)
(3 -6.07425e-15 0)
(3 -5.21929e-15 0)
(3 -4.42549e-15 0)
(3 -3.56784e-15 0)
(3 -3.43475e-15 0)
(3 -3.82817e-15 0)
(3 -4.35758e-15 0)
(3 -4.36593e-15 0)
(3 -3.51315e-15 0)
(3 -3.14577e-15 0)
(3 -3.09195e-15 0)
(3 -2.9724e-15 0)
(3 -2.3787e-15 0)
(3 -2.20917e-15 0)
(3 -1.73845e-15 0)
(3 -1.63662e-15 0)
(3 -1.57478e-15 0)
(3 -1.41029e-15 0)
(3 -1.21428e-15 0)
(3 -9.88993e-16 0)
(3 -1.17835e-15 0)
(3 -1.93168e-15 0)
(3 -1.25214e-15 0)
(3 1.26083e-15 0)
(3 2.53495e-15 0)
(3 2.41733e-15 0)
(3 1.97784e-15 0)
(3 3.04008e-16 0)
(3 -9.45152e-16 0)
(3 -1.19679e-15 0)
(3 -1.42106e-15 0)
(3 -1.64857e-15 0)
(3 -1.81181e-15 0)
(3 -2.01281e-15 0)
(3 -2.64919e-15 0)
(3 -1.23342e-15 0)
(3 -4.23027e-16 0)
(3 -2.40716e-16 0)
(3 -1.85087e-16 0)
(3 -6.20306e-16 0)
(3 -1.38881e-15 0)
(3 -1.66645e-15 0)
(3 -1.76363e-15 0)
(3 -8.32164e-16 0)
(3 -5.16917e-16 0)
(3 -5.24585e-16 0)
(3 -6.8287e-16 0)
(3 -8.01937e-16 0)
(3 -8.31911e-16 0)
(3 -8.19678e-16 0)
(3 -8.77573e-16 0)
(3 -1.09227e-15 0)
(3 -1.35574e-15 0)
(3 -1.82846e-15 0)
(3 -5.31123e-16 0)
(3 5.42533e-16 0)
(3 5.90904e-16 0)
(3 9.53232e-16 0)
(3 1.22193e-15 0)
(3 9.43404e-16 0)
(3 -1.07156e-17 0)
(3 -6.67148e-16 0)
(3 -3.37701e-16 0)
(3 1.92999e-16 0)
(3 1.19169e-15 0)
(3 1.48725e-15 0)
(3 1.30298e-15 0)
(3 1.05707e-15 0)
(3 1.12436e-15 0)
(3 1.37197e-15 0)
(3 1.34697e-15 0)
(3 6.80144e-16 0)
(3 5.79175e-16 0)
(3 9.33209e-16 0)
(3 1.9671e-15 0)
(3 2.80797e-15 0)
(3 2.71858e-15 0)
(3 2.08976e-15 0)
(3 1.59043e-15 0)
(3 1.74245e-15 0)
(3 2.10233e-15 0)
(3 2.02037e-15 0)
(3 9.5582e-16 0)
(3 -4.60769e-17 0)
(3 -6.25339e-16 0)
(3 -6.89692e-16 0)
(3 -5.87183e-16 0)
(3 -6.46989e-16 0)
(3 -7.61475e-16 0)
(3 -1.54989e-15 0)
(3 -2.30908e-15 0)
(3 -1.73974e-15 0)
(3 -1.33219e-15 0)
(3 -9.14504e-16 0)
(3 -8.19102e-16 0)
(3 -7.50491e-16 0)
(3 -6.13265e-16 0)
(3 -3.82148e-16 0)
(3 3.16753e-17 0)
(3 2.346e-16 0)
(3 -1.84082e-15 0)
(3 -2.87796e-15 0)
(3 -3.18554e-15 0)
(3 -3.87958e-15 0)
(3 -4.10289e-15 0)
(3 -5.76598e-15 0)
(3 -7.43308e-15 0)
(3 -6.85449e-15 0)
(3 -1.10568e-15 0)
(3 1.51039e-15 0)
(3 1.5707e-15 0)
(3 1.84278e-15 0)
(3 1.58045e-15 0)
(3 2.41404e-15 0)
(3 3.14831e-15 0)
(3 3.23218e-15 0)
(3 3.07856e-15 0)
(3 2.66999e-15 0)
(3 1.77512e-15 0)
(3 1.28864e-15 0)
(3 1.32239e-15 0)
(3 1.60552e-15 0)
(3 1.39077e-15 0)
(3 1.06099e-15 0)
(3 6.90675e-16 0)
(3 8.76329e-17 0)
(3 2.08992e-16 0)
(3 3.50607e-16 0)
(3 4.28305e-16 0)
(3 5.20621e-16 0)
(3 8.64473e-16 0)
(3 1.83635e-15 0)
(3 4.20806e-15 0)
(3 2.50647e-15 0)
(3 -1.41321e-16 0)
(3 -9.2482e-16 0)
(3 -1.54e-15 0)
(3 -1.67893e-15 0)
(3 -1.61108e-15 0)
(3 -1.34782e-15 0)
(3 -1.25264e-15 0)
(3 -1.45031e-15 0)
(3 -2.05608e-15 0)
(3 -1.04389e-15 0)
(3 -6.63747e-17 0)
(3 5.76974e-16 0)
(3 8.09098e-16 0)
(3 2.62176e-17 0)
(3 -1.21577e-15 0)
(3 -1.95773e-15 0)
(3 -2.33532e-15 0)
(3 -2.35055e-15 0)
(3 -2.38815e-15 0)
(3 -2.47844e-15 0)
(3 -2.63898e-15 0)
(3 -2.94e-15 0)
(3 -2.874e-15 0)
(3 -2.61599e-15 0)
(3 -1.71461e-15 0)
(3 1.1198e-15 0)
(3 1.941e-15 0)
(3 2.78517e-16 0)
(3 -7.89856e-16 0)
(3 -1.24852e-15 0)
(3 -1.46013e-15 0)
(3 -1.90579e-15 0)
(3 -1.78559e-15 0)
(3 -2.13833e-15 0)
(3 -3.335e-15 0)
(3 -3.62657e-15 0)
(3 -3.56349e-15 0)
(3 -3.7534e-15 0)
(3 -3.87402e-15 0)
(3 -4.0746e-15 0)
(3 -3.46801e-15 0)
(3 -2.93638e-15 0)
(3 -4.50031e-15 0)
(3 -7.71883e-15 0)
(3 -7.99127e-15 0)
(3 -8.4771e-15 0)
(3 -9.11665e-15 0)
(3 -9.21736e-15 0)
(3 -8.76875e-15 0)
(3 -8.14246e-15 0)
(3 -7.39704e-15 0)
(3 -6.20721e-15 0)
(3 -5.4498e-15 0)
(3 -5.39759e-15 0)
(3 -5.67549e-15 0)
(3 -5.64949e-15 0)
(3 -5.6793e-15 0)
(3 -4.76394e-15 0)
(3 -3.36329e-15 0)
(3 -5.26956e-15 0)
(3 -7.33606e-15 0)
(3 -7.32316e-15 0)
(3 -7.04599e-15 0)
(3 -6.67069e-15 0)
(3 -6.24247e-15 0)
(3 -5.16843e-15 0)
(3 -4.20448e-15 0)
(3 -3.55941e-15 0)
(3 -2.67129e-16 0)
(3 -3.98398e-17 0)
(3 1.97884e-17 0)
(3 5.58446e-17 0)
(3 9.23446e-17 0)
(3 4.52208e-17 0)
(3 1.59825e-17 0)
(3 -1.6092e-16 0)
(3 -3.47841e-16 0)
(3 -7.05967e-16 0)
(3 -8.25401e-16 0)
(3 -2.77044e-16 0)
(3 4.37272e-17 0)
(3 -2.67945e-16 0)
(3 -5.39028e-16 0)
(3 -5.96921e-16 0)
(3 -7.8933e-16 0)
(3 -6.60498e-16 0)
(3 -5.35941e-16 0)
(3 -4.71702e-16 0)
(3 -3.48783e-16 0)
(3 -9.79172e-17 0)
(3 2.52781e-16 0)
(3 5.2212e-16 0)
(3 5.93335e-16 0)
(3 5.35517e-16 0)
(3 4.91631e-16 0)
(3 1.85075e-16 0)
(3 -5.99333e-17 0)
(3 -2.85171e-16 0)
(3 -2.80711e-16 0)
(3 -3.25327e-16 0)
(3 -2.66698e-16 0)
(3 -3.00753e-16 0)
(3 -4.87128e-16 0)
(3 -8.03119e-16 0)
(3 -9.4432e-16 0)
(3 -8.07263e-16 0)
(3 -6.70246e-16 0)
(3 -7.07389e-16 0)
(3 -5.26057e-16 0)
(3 -3.34824e-17 0)
(3 1.07351e-16 0)
(3 4.10258e-16 0)
(3 5.95425e-16 0)
(3 5.87562e-16 0)
(3 5.79921e-16 0)
(3 6.33603e-16 0)
(3 5.9381e-16 0)
(3 4.87388e-16 0)
(3 6.55968e-16 0)
(3 4.48847e-16 0)
(3 2.58357e-17 0)
(3 -9.6913e-16 0)
(3 -1.43364e-15 0)
(3 -1.78158e-15 0)
(3 -2.0805e-15 0)
(3 -2.11694e-15 0)
(3 -2.10747e-15 0)
(3 -1.92361e-15 0)
(3 -1.74692e-15 0)
(3 -1.70066e-15 0)
(3 -1.68514e-15 0)
(3 -1.11807e-15 0)
(3 -7.00484e-16 0)
(3 -6.03884e-16 0)
(3 -5.53774e-16 0)
(3 -1.00164e-15 0)
(3 -1.71253e-15 0)
(3 -1.98866e-15 0)
(3 -2.06751e-15 0)
(3 -2.5233e-15 0)
(3 -3.18649e-15 0)
(3 -2.71402e-15 0)
(3 -2.09792e-15 0)
(3 -2.10534e-15 0)
(3 -2.18e-15 0)
(3 -2.23354e-15 0)
(3 -2.1192e-15 0)
(3 -1.49344e-15 0)
(3 -1.31911e-16 0)
(3 5.35629e-16 0)
(3 7.86186e-16 0)
(3 2.67678e-16 0)
(3 -1.06141e-15 0)
(3 -1.30812e-15 0)
(3 -1.59817e-15 0)
(3 -1.78992e-15 0)
(3 -1.63254e-15 0)
(3 -1.62531e-15 0)
(3 -1.63973e-15 0)
(3 -1.66971e-15 0)
(3 -1.97584e-15 0)
(3 -2.48883e-15 0)
(3 -2.51502e-15 0)
(3 -2.31807e-15 0)
(3 -1.93978e-15 0)
(3 -1.52437e-15 0)
(3 -1.33751e-15 0)
(3 -1.21936e-15 0)
(3 -1.20879e-15 0)
(3 -9.94557e-16 0)
(3 -1.17613e-15 0)
(3 -1.57444e-15 0)
(3 -1.49945e-15 0)
(3 -1.01725e-15 0)
(3 -1.48539e-15 0)
(3 -1.8363e-15 0)
(3 -2.07865e-15 0)
(3 -2.08508e-15 0)
(3 -2.07964e-15 0)
(3 -2.08424e-15 0)
(3 -2.15572e-15 0)
(3 -2.20065e-15 0)
(3 -2.16823e-15 0)
(3 -1.47817e-15 0)
(3 -1.25823e-15 0)
(3 -1.39566e-15 0)
(3 -1.68053e-15 0)
(3 -1.67838e-15 0)
(3 -1.60849e-15 0)
(3 -1.51809e-15 0)
(3 -1.54692e-15 0)
(3 -1.53962e-15 0)
(3 -1.44604e-15 0)
(3 -1.33732e-15 0)
(3 -1.32676e-15 0)
(3 -1.38838e-15 0)
(3 -1.44433e-15 0)
(3 -1.42884e-15 0)
(3 -1.92205e-15 0)
(3 -2.46886e-15 0)
(3 -2.92212e-15 0)
(3 -3.13796e-15 0)
(3 -3.31851e-15 0)
(3 -4.40367e-15 0)
(3 -5.61541e-15 0)
(3 -6.02655e-15 0)
(3 -5.93012e-15 0)
(3 -5.69347e-15 0)
(3 -5.08583e-15 0)
(3 -4.36896e-15 0)
(3 -4.30632e-15 0)
(3 -3.1913e-15 0)
(3 -2.87193e-15 0)
(3 -1.9961e-15 0)
(3 -1.25958e-15 0)
(3 -1.41486e-15 0)
(3 -1.16905e-15 0)
(3 -1.24199e-15 0)
(3 -1.79562e-15 0)
(3 -2.606e-15 0)
(3 -1.81051e-15 0)
(3 3.34547e-17 0)
(3 7.53764e-16 0)
(3 1.38713e-15 0)
(3 2.50176e-15 0)
(3 4.08503e-15 0)
(3 4.34801e-15 0)
(3 4.46601e-15 0)
(3 4.96401e-15 0)
(3 4.6145e-15 0)
(3 2.38248e-15 0)
(3 1.15173e-15 0)
(3 5.21064e-16 0)
(3 2.13376e-16 0)
(3 -4.21216e-16 0)
(3 -8.35375e-16 0)
(3 -7.8261e-16 0)
(3 -4.91079e-16 0)
(3 -2.67207e-16 0)
(3 -4.98375e-16 0)
(3 -7.26021e-16 0)
(3 -8.48955e-16 0)
(3 -1.15972e-15 0)
(3 -1.46395e-15 0)
(3 -1.48564e-15 0)
(3 -1.44839e-15 0)
(3 -1.42746e-15 0)
(3 -1.49826e-15 0)
(3 -2.19413e-15 0)
(3 -2.63037e-15 0)
(3 -3.40486e-15 0)
(3 -3.94663e-15 0)
(3 -3.93354e-15 0)
(3 -4.15675e-15 0)
(3 -4.3787e-15 0)
(3 -3.26309e-15 0)
(3 -3.09805e-15 0)
(3 -3.18443e-15 0)
(3 -3.54729e-15 0)
(3 -3.60291e-15 0)
(3 -3.71872e-15 0)
(3 -3.80847e-15 0)
(3 -3.48413e-15 0)
(3 -3.26782e-15 0)
(3 -3.11948e-15 0)
(3 -2.72243e-15 0)
(3 -2.77018e-15 0)
(3 -2.44007e-15 0)
(3 -1.99204e-15 0)
(3 -1.83219e-15 0)
(3 -1.88475e-15 0)
(3 -1.48325e-15 0)
(3 -1.14054e-15 0)
(3 -4.50613e-16 0)
(3 7.93473e-16 0)
(3 8.43566e-16 0)
(3 1.20488e-15 0)
(3 1.28263e-15 0)
(3 9.70945e-16 0)
(3 -2.74241e-17 0)
(3 -1.98906e-16 0)
(3 4.31284e-16 0)
(3 9.49363e-16 0)
(3 1.13837e-15 0)
(3 1.16076e-15 0)
(3 9.77414e-16 0)
(3 8.36513e-16 0)
(3 8.34652e-16 0)
(3 8.40244e-16 0)
(3 4.93855e-16 0)
(3 3.1514e-16 0)
(3 6.49996e-17 0)
(3 -6.9836e-16 0)
(3 -1.29745e-15 0)
(3 -3.41592e-16 0)
(3 -1.40157e-16 0)
(3 6.96035e-17 0)
(3 1.87081e-16 0)
(3 7.9309e-16 0)
(3 1.07564e-15 0)
(3 3.73574e-16 0)
(3 -1.82947e-15 0)
(3 -2.45376e-15 0)
(3 -1.92889e-15 0)
(3 -1.81706e-15 0)
(3 -1.78725e-15 0)
(3 -1.84056e-15 0)
(3 -2.20413e-15 0)
(3 -2.31211e-15 0)
(3 -2.64845e-15 0)
(3 -3.88872e-15 0)
(3 -4.66689e-15 0)
(3 -5.01358e-15 0)
(3 -3.72483e-15 0)
(3 -3.36855e-15 0)
(3 -3.25223e-15 0)
(3 -3.06422e-15 0)
(3 -1.53862e-15 0)
(3 -1.35576e-15 0)
(3 -1.56934e-15 0)
(3 -1.85244e-15 0)
(3 -1.68071e-15 0)
(3 -1.4464e-15 0)
(3 -1.3654e-15 0)
(3 -1.7128e-15 0)
(3 -2.35863e-15 0)
(3 -1.44631e-15 0)
(3 -1.10586e-15 0)
(3 -7.44833e-16 0)
(3 2.93675e-17 0)
(3 -1.10318e-15 0)
(3 -1.44365e-15 0)
(3 -1.76053e-15 0)
(3 -1.70641e-15 0)
(3 -1.88568e-15 0)
(3 -2.42509e-15 0)
(3 -3.30872e-15 0)
(3 -3.38572e-15 0)
(3 -2.72883e-15 0)
(3 -2.17882e-15 0)
(3 -2.23982e-15 0)
(3 -2.4408e-15 0)
(3 -1.55919e-15 0)
(3 -1.08594e-15 0)
(3 -9.19122e-16 0)
(3 -8.8023e-16 0)
(3 -9.59762e-16 0)
(3 -1.0657e-15 0)
(3 -7.56927e-16 0)
(3 1.45028e-16 0)
(3 -9.49438e-16 0)
(3 -6.34458e-15 0)
(3 -8.48184e-15 0)
(3 -8.46274e-15 0)
(3 -7.36626e-15 0)
(3 -6.11727e-15 0)
(3 -5.8342e-15 0)
(3 -5.43092e-15 0)
(3 -4.77784e-15 0)
(3 -4.80322e-15 0)
(3 -5.06045e-15 0)
(3 -4.8507e-15 0)
(3 -4.4298e-15 0)
(3 -3.63977e-15 0)
(3 -3.65083e-15 0)
(3 -3.40292e-15 0)
(3 -3.26371e-15 0)
(3 -2.94336e-15 0)
(3 -1.9617e-15 0)
(3 -1.72627e-15 0)
(3 -1.88501e-15 0)
(3 -1.71495e-15 0)
(3 -1.75576e-16 0)
(3 2.4389e-16 0)
(3 4.12987e-16 0)
(3 9.27038e-17 0)
(3 -1.66767e-16 0)
(3 -8.21583e-17 0)
(3 -7.12901e-16 0)
(3 -1.54046e-15 0)
(3 -2.65612e-16 0)
(3 8.75824e-16 0)
(3 9.10373e-16 0)
(3 -4.7641e-16 0)
(3 -9.65676e-16 0)
(3 -1.06123e-15 0)
(3 -1.20144e-15 0)
(3 -2.10111e-15 0)
(3 -3.1927e-15 0)
(3 -3.14848e-15 0)
(3 -3.24467e-15 0)
(3 -4.15101e-15 0)
(3 -3.87767e-15 0)
(3 -2.90734e-15 0)
(3 -1.8914e-15 0)
(3 -1.88269e-15 0)
(3 -2.16394e-15 0)
(3 -3.07983e-15 0)
(3 -3.65644e-15 0)
(3 -3.7297e-15 0)
(3 -3.69918e-15 0)
(3 -3.70967e-15 0)
(3 -3.25865e-15 0)
(3 -2.97588e-15 0)
(3 -2.78232e-15 0)
(3 -2.30795e-15 0)
(3 -1.84737e-15 0)
(3 -1.62379e-15 0)
(3 -1.17291e-15 0)
(3 -1.55613e-15 0)
(3 -1.3522e-15 0)
(3 -1.0247e-15 0)
(3 -1.72584e-15 0)
(3 -2.69624e-15 0)
(3 -3.84726e-15 0)
(3 -4.37952e-15 0)
(3 -4.65484e-15 0)
(3 -4.65406e-15 0)
(3 -4.58207e-15 0)
(3 -4.64437e-15 0)
(3 -4.8328e-15 0)
(3 -5.04351e-15 0)
(3 -5.97392e-15 0)
(3 -6.38648e-15 0)
(3 -5.96922e-15 0)
(3 -5.79835e-15 0)
(3 -7.49543e-15 0)
(3 -9.04628e-15 0)
(3 -9.49085e-15 0)
(3 -1.02655e-14 0)
(3 -1.15547e-14 0)
(3 -1.08403e-14 0)
(3 -8.88908e-15 0)
(3 -8.487e-15 0)
(3 -8.44762e-15 0)
(3 -7.22316e-15 0)
(3 -5.77976e-15 0)
(3 -4.47386e-15 0)
(3 -4.17672e-15 0)
(3 -4.02382e-15 0)
(3 -4.11706e-15 0)
(3 -7.14422e-15 0)
(3 -8.0846e-15 0)
(3 -5.73168e-15 0)
(3 -5.03468e-15 0)
(3 -3.88255e-15 0)
(3 -2.51393e-15 0)
(3 -2.16772e-15 0)
(3 -2.21527e-15 0)
(3 -2.44847e-15 0)
(3 -2.39382e-15 0)
(3 -2.54141e-15 0)
(3 -2.05705e-15 0)
(3 6.33441e-18 0)
(3 -1.40014e-17 0)
(3 -7.36707e-17 0)
(3 -6.07052e-17 0)
(3 -7.77031e-17 0)
(3 -1.03809e-16 0)
(3 -2.28245e-16 0)
(3 -3.13872e-16 0)
(3 -3.86686e-16 0)
(3 -4.60775e-16 0)
(3 -2.49037e-16 0)
(3 -7.92946e-17 0)
(3 1.42045e-16 0)
(3 1.57699e-16 0)
(3 1.17924e-16 0)
(3 1.96469e-16 0)
(3 3.59669e-16 0)
(3 4.84868e-16 0)
(3 2.57267e-16 0)
(3 -2.01466e-17 0)
(3 -3.53381e-16 0)
(3 -5.09398e-16 0)
(3 -7.42984e-16 0)
(3 -5.05706e-16 0)
(3 -2.23989e-16 0)
(3 -3.86358e-16 0)
(3 -6.61097e-16 0)
(3 -1.46386e-15 0)
(3 -2.18591e-15 0)
(3 -1.38271e-15 0)
(3 -1.03901e-15 0)
(3 -7.24592e-16 0)
(3 -5.29121e-16 0)
(3 -3.1345e-16 0)
(3 -3.47569e-16 0)
(3 -4.09027e-16 0)
(3 -5.10974e-16 0)
(3 -6.19424e-16 0)
(3 -5.41095e-16 0)
(3 -4.8665e-16 0)
(3 -5.17849e-16 0)
(3 -4.50668e-16 0)
(3 -4.88957e-16 0)
(3 -4.70999e-16 0)
(3 -3.27494e-16 0)
(3 -8.58343e-17 0)
(3 2.15993e-16 0)
(3 5.63487e-16 0)
(3 7.5779e-16 0)
(3 7.72494e-16 0)
(3 6.9245e-16 0)
(3 5.48155e-16 0)
(3 6.0579e-16 0)
(3 6.33381e-16 0)
(3 5.28379e-16 0)
(3 -6.05313e-16 0)
(3 -1.69545e-15 0)
(3 -2.3853e-15 0)
(3 -1.3331e-15 0)
(3 -3.84837e-16 0)
(3 -3.21604e-16 0)
(3 -3.5178e-16 0)
(3 -2.40068e-16 0)
(3 -2.9947e-16 0)
(3 -9.27676e-16 0)
(3 -1.33366e-15 0)
(3 -2.59857e-15 0)
(3 -3.13658e-15 0)
(3 -2.97567e-15 0)
(3 -2.81333e-15 0)
(3 -2.68629e-15 0)
(3 -2.70669e-15 0)
(3 -2.50969e-15 0)
(3 -2.36733e-15 0)
(3 -1.64372e-15 0)
(3 -1.36987e-15 0)
(3 -1.07068e-15 0)
(3 -9.06754e-16 0)
(3 -7.3585e-16 0)
(3 2.67821e-16 0)
(3 6.00174e-16 0)
(3 1.34472e-16 0)
(3 1.73922e-16 0)
(3 6.49087e-16 0)
(3 1.85329e-15 0)
(3 2.11251e-15 0)
(3 9.4436e-16 0)
(3 -2.10537e-15 0)
(3 -2.73452e-15 0)
(3 -3.00343e-15 0)
(3 -3.40573e-15 0)
(3 -3.72149e-15 0)
(3 -3.61673e-15 0)
(3 -3.32457e-15 0)
(3 -2.69253e-15 0)
(3 -2.95732e-15 0)
(3 -3.0041e-15 0)
(3 -3.39444e-15 0)
(3 -3.61015e-15 0)
(3 -3.63035e-15 0)
(3 -3.70042e-15 0)
(3 -2.99574e-15 0)
(3 -2.73427e-15 0)
(3 -2.16492e-15 0)
(3 -1.99405e-15 0)
(3 -2.10409e-15 0)
(3 -3.26389e-15 0)
(3 -4.051e-15 0)
(3 -4.43904e-15 0)
(3 -2.87577e-15 0)
(3 -1.66533e-15 0)
(3 -1.12289e-15 0)
(3 -6.45607e-16 0)
(3 -6.60539e-16 0)
(3 -8.76806e-16 0)
(3 -7.90863e-16 0)
(3 -3.87899e-16 0)
(3 -1.0205e-16 0)
(3 1.10484e-15 0)
(3 1.54355e-15 0)
(3 1.89522e-15 0)
(3 1.95959e-15 0)
(3 2.21129e-15 0)
(3 2.15564e-15 0)
(3 2.06404e-15 0)
(3 1.51145e-15 0)
(3 -4.75218e-16 0)
(3 -1.12514e-15 0)
(3 -2.25139e-15 0)
(3 -3.07548e-15 0)
(3 -3.50562e-15 0)
(3 -3.67691e-15 0)
(3 -3.70261e-15 0)
(3 -5.00289e-15 0)
(3 -6.94953e-15 0)
(3 -8.13104e-15 0)
(3 -7.95225e-15 0)
(3 -6.11566e-15 0)
(3 -5.03269e-15 0)
(3 -3.69893e-15 0)
(3 -2.97039e-15 0)
(3 -3.47905e-15 0)
(3 -3.83488e-15 0)
(3 -3.8183e-15 0)
(3 -3.28696e-15 0)
(3 -2.99936e-15 0)
(3 -3.62966e-15 0)
(3 -4.25418e-15 0)
(3 -4.74157e-15 0)
(3 -5.19974e-15 0)
(3 -4.53948e-15 0)
(3 -2.67381e-15 0)
(3 -4.06703e-15 0)
(3 -4.67415e-15 0)
(3 -4.60479e-15 0)
(3 -2.369e-15 0)
(3 -1.90815e-15 0)
(3 -1.09522e-15 0)
(3 -5.13873e-16 0)
(3 1.57147e-16 0)
(3 -1.88161e-16 0)
(3 -8.38507e-16 0)
(3 -1.29746e-15 0)
(3 -1.57846e-15 0)
(3 -1.55637e-15 0)
(3 -1.1206e-15 0)
(3 -8.55389e-16 0)
(3 -1.21967e-15 0)
(3 -1.53369e-15 0)
(3 -1.44899e-15 0)
(3 9.63646e-18 0)
(3 2.87016e-16 0)
(3 1.7483e-16 0)
(3 1.50205e-16 0)
(3 -1.21401e-16 0)
(3 -4.03951e-16 0)
(3 -4.75585e-16 0)
(3 -6.45122e-16 0)
(3 -6.63368e-16 0)
(3 -5.29124e-16 0)
(3 -1.26729e-15 0)
(3 -2.30267e-15 0)
(3 -2.83658e-15 0)
(3 -3.9903e-15 0)
(3 -3.99218e-15 0)
(3 -3.94879e-15 0)
(3 -3.96609e-15 0)
(3 -2.41504e-15 0)
(3 -2.21658e-15 0)
(3 -2.35546e-15 0)
(3 -2.58946e-15 0)
(3 -3.09102e-15 0)
(3 -3.66328e-15 0)
(3 -3.84093e-15 0)
(3 -4.37023e-15 0)
(3 -4.556e-15 0)
(3 -4.46409e-15 0)
(3 -4.30779e-15 0)
(3 -4.28826e-15 0)
(3 -4.33302e-15 0)
(3 -3.75071e-15 0)
(3 -3.31783e-15 0)
(3 -2.59984e-15 0)
(3 -2.39271e-15 0)
(3 -2.01915e-15 0)
(3 -9.76921e-16 0)
(3 -9.37195e-16 0)
(3 3.59692e-16 0)
(3 1.45981e-15 0)
(3 1.61757e-15 0)
(3 1.68547e-15 0)
(3 1.51873e-15 0)
(3 1.73159e-15 0)
(3 1.83863e-15 0)
(3 1.91541e-15 0)
(3 1.95811e-15 0)
(3 2.29497e-15 0)
(3 1.95525e-15 0)
(3 1.47098e-15 0)
(3 8.80702e-16 0)
(3 8.92832e-16 0)
(3 1.34896e-15 0)
(3 2.05179e-15 0)
(3 2.31477e-15 0)
(3 1.74359e-15 0)
(3 8.32882e-16 0)
(3 1.0161e-15 0)
(3 6.29567e-16 0)
(3 2.39816e-16 0)
(3 5.85432e-17 0)
(3 2.01605e-17 0)
(3 2.93009e-16 0)
(3 3.04576e-16 0)
(3 -6.16375e-16 0)
(3 -1.26188e-15 0)
(3 -1.16696e-15 0)
(3 -2.11706e-15 0)
(3 -2.6139e-15 0)
(3 -3.08811e-15 0)
(3 -3.42738e-15 0)
(3 -2.85403e-15 0)
(3 -2.13243e-15 0)
(3 -1.91429e-15 0)
(3 -1.86948e-15 0)
(3 -2.21382e-15 0)
(3 -2.21741e-15 0)
(3 -2.30188e-15 0)
(3 -2.53047e-15 0)
(3 -2.32094e-15 0)
(3 -2.92326e-15 0)
(3 -3.35754e-15 0)
(3 -3.55962e-15 0)
(3 -3.54412e-15 0)
(3 -3.70149e-15 0)
(3 -3.78798e-15 0)
(3 -4.10627e-15 0)
(3 -4.1745e-15 0)
(3 -4.20508e-15 0)
(3 -3.50626e-15 0)
(3 -2.10986e-15 0)
(3 -1.86726e-15 0)
(3 -1.57463e-15 0)
(3 -9.38893e-16 0)
(3 -5.89462e-16 0)
(3 -5.59184e-16 0)
(3 -7.89263e-16 0)
(3 -8.92218e-16 0)
(3 -1.00261e-15 0)
(3 -6.77944e-16 0)
(3 -2.58525e-16 0)
(3 -6.37689e-17 0)
(3 -7.3813e-17 0)
(3 -2.91262e-16 0)
(3 -3.86401e-16 0)
(3 -3.54672e-16 0)
(3 -2.63219e-16 0)
(3 -3.10496e-16 0)
(3 -4.81313e-16 0)
(3 -4.89674e-16 0)
(3 -5.45586e-17 0)
(3 2.02411e-16 0)
(3 -1.15739e-15 0)
(3 -3.09722e-15 0)
(3 -2.82278e-15 0)
(3 -3.79649e-15 0)
(3 -5.44306e-15 0)
(3 -5.83932e-15 0)
(3 -5.79055e-15 0)
(3 -2.339e-15 0)
(3 -1.78643e-15 0)
(3 -1.76753e-15 0)
(3 -1.06483e-15 0)
(3 1.82058e-16 0)
(3 7.58046e-16 0)
(3 1.76601e-15 0)
(3 2.04115e-15 0)
(3 1.78609e-15 0)
(3 6.35175e-16 0)
(3 -7.46915e-16 0)
(3 -2.42997e-15 0)
(3 -2.52414e-15 0)
(3 -2.51544e-15 0)
(3 -2.13921e-15 0)
(3 -1.50925e-15 0)
(3 -1.09232e-15 0)
(3 -3.78045e-16 0)
(3 4.38315e-16 0)
(3 1.02737e-15 0)
(3 8.8765e-16 0)
(3 5.51713e-16 0)
(3 -8.09404e-18 0)
(3 4.38319e-17 0)
(3 3.37893e-16 0)
(3 1.57696e-16 0)
(3 -1.85807e-16 0)
(3 -4.09802e-16 0)
(3 -5.7681e-16 0)
(3 -6.06765e-16 0)
(3 -5.9535e-16 0)
(3 -8.94961e-16 0)
(3 -9.19617e-16 0)
(3 -8.46086e-16 0)
(3 -7.51198e-16 0)
(3 -4.91885e-16 0)
(3 -1.26796e-16 0)
(3 -3.29467e-16 0)
(3 2.27901e-16 0)
(3 1.166e-15 0)
(3 3.24913e-15 0)
(3 4.13905e-15 0)
(3 5.00636e-15 0)
(3 5.30335e-15 0)
(3 4.74966e-15 0)
(3 3.41732e-15 0)
(3 3.09233e-15 0)
(3 2.71491e-15 0)
(3 2.25534e-15 0)
(3 2.09606e-15 0)
(3 1.90248e-15 0)
(3 1.86992e-15 0)
(3 1.93358e-15 0)
(3 1.91839e-15 0)
(3 1.90694e-15 0)
(3 1.53156e-15 0)
(3 1.47109e-15 0)
(3 6.07195e-16 0)
(3 3.44135e-16 0)
(3 3.2068e-16 0)
(3 -1.54231e-16 0)
(3 -4.51114e-16 0)
(3 -4.27095e-16 0)
(3 -4.52217e-16 0)
(3 -8.56957e-16 0)
(3 -1.09575e-15 0)
(3 -1.28853e-15 0)
(3 -1.50961e-15 0)
(3 -1.62429e-15 0)
(3 -1.55605e-15 0)
(3 -1.46639e-15 0)
(3 -1.52579e-15 0)
(3 -2.18792e-15 0)
(3 -3.52964e-15 0)
(3 -3.86573e-15 0)
(3 -2.91495e-15 0)
(3 -2.68776e-15 0)
(3 -2.5319e-15 0)
(3 -2.36533e-15 0)
(3 -2.19328e-15 0)
(3 -2.02096e-15 0)
(3 -1.75088e-15 0)
(3 -1.60667e-15 0)
(3 -1.69013e-15 0)
(3 -2.74908e-15 0)
(3 -2.94915e-15 0)
(3 -2.81548e-15 0)
(3 -2.24983e-15 0)
(3 -1.76945e-15 0)
(3 4.54818e-16 0)
(3 1.03919e-15 0)
(3 1.20382e-15 0)
(3 1.09278e-15 0)
(3 1.34041e-15 0)
(3 1.14982e-15 0)
(3 7.94236e-16 0)
(3 3.0286e-17 0)
(3 2.33298e-17 0)
(3 9.59871e-18 0)
(3 -4.43071e-17 0)
(3 1.33621e-16 0)
(3 1.97035e-16 0)
(3 2.46098e-16 0)
(3 4.04808e-16 0)
(3 4.52636e-16 0)
(3 5.52768e-16 0)
(3 4.96125e-16 0)
(3 2.83608e-16 0)
(3 2.315e-16 0)
(3 3.70386e-16 0)
(3 6.11943e-16 0)
(3 7.01857e-16 0)
(3 7.81978e-16 0)
(3 7.38555e-16 0)
(3 9.93039e-16 0)
(3 1.43096e-15 0)
(3 2.73216e-16 0)
(3 -3.27628e-16 0)
(3 -7.39312e-16 0)
(3 -8.42743e-16 0)
(3 -9.2865e-16 0)
(3 -1.18042e-15 0)
(3 -1.4374e-15 0)
(3 -1.38547e-15 0)
(3 -1.46036e-15 0)
(3 -1.17561e-15 0)
(3 -9.1273e-16 0)
(3 -8.02218e-16 0)
(3 -7.97727e-16 0)
(3 -3.22691e-16 0)
(3 7.3981e-17 0)
(3 1.07477e-16 0)
(3 3.69674e-17 0)
(3 4.68697e-17 0)
(3 1.46584e-16 0)
(3 4.58377e-17 0)
(3 -5.53926e-16 0)