/*--------------------------------*- C++ -*----------------------------------*\
  =========                 |
  \\      /  F ield         | OpenFOAM: The Open Source CFD Toolbox
   \\    /   O peration     | Website:  https://openfoam.org
    \\  /    A nd           | Version:  7
     \\/     M anipulation  |
\*---------------------------------------------------------------------------*/
FoamFile
{
    version     2.0;
    format      ascii;
    class       volScalarField;
    location    "0.424";
    object      p;
}
// * * * * * * * * * * * * * * * * * * * * * * * * * * * * * * * * * * * * * //

dimensions      [0 2 -2 0 0 0 0];

internalField   nonuniform List<scalar> 
12359
(
0.0645047
0.0739505
0.0482942
0.10713
0.0682089
0.156536
0.185589
0.169237
0.227017
0.142489
0.209767
0.277021
0.491039
0.114582
0.101694
0.394861
0.450852
0.0526852
0.0522793
0.0867896
0.122857
0.251076
0.0797632
0.0920426
0.0769005
0.0832154
0.0494003
0.0493218
0.0516069
0.0498872
0.0502695
0.0487981
0.0484565
0.049695
0.0483358
0.0504841
0.057849
0.0628394
0.0663864
0.0602909
0.0718037
0.061393
0.0553526
0.0546655
0.0510108
0.0512173
0.0507358
0.0501394
0.051907
0.049548
0.0491758
0.0490294
0.0487071
0.0531013
0.0486486
0.0485018
0.0541247
0.04845
0.0484334
0.0483764
0.0485568
0.0483206
0.0490385
0.511141
0.0535354
0.131628
0.0569911
0.0489375
0.05857
0.346697
0.53284
0.0696692
0.048285
0.0592468
0.0975364
0.0483239
0.0486664
0.0482965
0.0563162
0.314473
0.122462
0.0437946
0.0473505
0.0496384
-0.0605502
0.0244835
0.0435642
0.0459607
-0.0645602
-0.0549463
0.0480707
0.470909
0.0480424
0.0480869
0.0480911
0.0112373
0.0474444
0.0481694
0.0572065
0.0536695
0.109141
0.048185
0.0250463
-0.123044
0.0425868
0.0138408
0.0471042
-0.05809
0.0271554
0.0142972
0.0474809
0.0439005
0.109066
0.0918973
0.0486024
0.0444592
0.0930754
0.0427105
-0.0664561
0.0473874
0.0476381
0.175163
0.0458604
0.0069375
0.0424062
0.0441239
0.0366886
0.0494287
0.0482974
0.042257
0.0447447
-0.00185439
-0.00251889
-0.00222733
0.0471473
0.00819499
0.0445865
0.0083359
0.0482188
0.0365783
0.0475324
0.0659106
0.0154519
0.0471221
0.00890144
0.148074
0.0473542
-0.0478484
0.0425196
0.123549
0.00509296
0.0482018
0.0152562
0.0457122
0.0479799
-0.154562
0.110543
-0.00131275
0.0475251
0.0488866
0.0450418
0.0489414
0.00527654
0.0130361
0.0473183
0.0442673
0.0464099
0.17308
0.0145031
-0.0678572
0.0483047
0.0483207
0.0136794
0.0768209
0.0427423
0.040504
0.0516392
0.0514313
0.111736
0.0412617
0.11503
0.0479568
0.048303
0.0433948
0.0564369
0.208414
0.0429337
0.0476203
0.00745508
0.0427223
0.047846
0.0128947
0.0120015
0.0456322
0.012932
-0.128384
0.0323224
0.0437822
0.0159072
0.0428497
0.15176
0.0071745
0.0548846
0.0138922
0.0120357
0.047937
0.0109494
0.0555668
0.00294991
0.0417233
0.0476772
0.000143093
0.000557402
-0.569394
0.195311
0.0482185
0.0432661
0.0486572
0.0431795
0.0665771
0.10183
0.0417306
0.006945
0.471738
0.0422543
0.0476595
0.067269
0.0276952
0.0442611
0.0446109
0.0443042
0.0473354
0.00971895
0.0548883
0.0469164
0.0543404
0.0473836
0.0148408
0.0470813
0.304028
0.0472738
0.0228912
0.0472358
0.0534972
0.0445397
-0.0475746
0.0484001
0.00245078
0.0431682
0.0122758
0.00141952
0.0621415
0.0509994
0.0450511
0.317042
-0.610247
0.0473964
0.0416013
0.405847
-0.0327383
0.0545647
0.0450638
0.0442439
0.0129481
0.0749373
-0.490124
-0.0601807
0.0443279
0.0418414
0.00861512
0.0137287
0.0599836
0.0146012
0.0451637
0.0416724
0.0472984
0.0417544
-0.113703
0.0427786
0.0469947
0.0481799
0.0124858
0.0387187
0.0570728
0.0237434
0.0474639
0.0460897
0.0481954
0.0481786
0.0488199
0.00504424
0.0432922
-0.472687
0.0471362
0.0470607
0.0252174
0.0433252
0.101123
0.0483803
0.0492183
0.048088
-0.103545
0.0441164
0.0480888
0.0434882
0.0479875
0.0433043
0.0446474
0.0443023
0.0433266
0.0526013
0.201181
0.0429504
0.0503491
0.0627219
0.0225028
-0.0484791
0.0427233
0.0580276
0.371466
0.0481665
0.0198674
0.0469251
0.0326268
0.0470921
0.0425354
0.222192
0.0190933
0.205127
0.0566991
0.0469542
0.0119721
0.00931671
0.0468829
0.0122795
0.0113476
0.0466979
0.0486002
0.0485938
0.0486541
0.0486354
0.304037
0.0474467
0.105973
0.00182613
0.055219
0.0141928
0.0190906
0.0259004
0.0333041
0.0183118
0.0339445
0.0569632
0.0204392
0.0216908
0.0927994
0.0667462
0.0146105
0.0648561
0.0646968
0.0168729
0.106198
0.0442832
0.048671
0.0311014
0.0486435
0.0439095
-0.218671
0.500306
0.0441304
0.0482543
0.047172
0.0478418
0.0180382
0.0479853
0.0479676
-0.0719968
0.0136227
-0.0499922
0.0461349
0.0111233
0.0390071
0.047545
0.0159358
0.0308012
0.109906
0.0310523
0.0445044
0.0469311
0.0131157
0.0104979
0.041581
0.295064
0.0160014
0.0109519
0.0500024
0.0465122
0.0482352
0.401643
0.0126375
0.0462525
0.0610313
0.0638851
0.0475541
0.0475229
0.0477888
-0.0588863
0.0979253
0.0590594
0.0189802
0.00646294
0.0482276
0.115135
0.0492373
-0.000258617
-0.0533769
0.29605
0.0538789
0.0922856
0.0277156
0.0225391
0.0350142
0.0307094
0.0499914
0.0348733
0.0159306
0.0479919
-0.0325437
0.0576537
-0.00484635
0.00945988
0.0545367
0.0962371
-0.150243
0.0176691
0.0389262
0.0104093
0.00927699
0.0188946
0.0427287
0.047726
0.0523614
0.0471107
-0.00177996
0.0447987
0.0828082
0.0850272
0.0348386
-0.0553389
0.105578
0.053417
0.0465768
0.390774
0.0468019
0.0461141
0.00555492
0.0482564
0.0464192
0.0460873
0.238557
0.21314
0.0492255
0.0460291
0.108598
0.0482423
0.0190578
0.0154488
0.0142441
0.0466553
0.0478264
0.0475738
0.0481002
0.0845083
0.0195643
0.022696
0.0511918
0.0504368
0.00334681
0.0500782
0.0460726
0.0413366
0.119737
0.00518819
0.0481946
0.0472609
0.0128188
0.0296749
0.0483675
0.0445034
0.114003
0.0182519
0.00822485
0.0208583
0.0465955
0.0461915
-0.00508081
-0.0031466
0.0480905
0.036281
0.0496864
0.00763215
0.284879
0.0477618
0.0449446
0.0467504
0.0146991
0.0532009
0.0522775
0.0442971
0.0492326
0.0297814
0.0755547
0.0365446
-0.0350333
0.0470299
-0.04103
0.0460569
-0.0995048
0.0177501
-0.00224651
0.0484165
0.0510067
0.0218812
0.0434598
0.0491382
0.0557927
0.0533738
0.0535273
0.0725157
0.0143054
0.0141506
0.0473651
0.0430412
0.0194135
-0.00281136
0.0473707
0.0469892
0.0129447
0.0467245
0.225368
-0.158688
-0.0594341
0.0473696
0.0403913
0.0017607
0.0525508
0.0431764
0.45649
0.047057
0.115897
0.0880008
0.0402388
0.0433863
0.0493007
0.0350814
0.00147199
0.0299689
0.0509209
0.0474027
0.0482965
0.0530967
0.051653
0.0551691
0.0146298
0.048891
0.0470271
0.0207007
-0.0458563
0.0502746
-0.000176686
0.0471951
0.0513929
0.0956587
0.00240812
0.00174923
0.0965736
0.0452228
0.00210555
0.047596
0.048382
0.00588507
0.0361707
0.0447135
0.0359976
0.0479031
0.0469798
0.0436533
0.0486309
0.00246283
0.103558
0.0580842
0.11859
0.0159622
0.0389776
0.111945
0.0621967
-0.00349223
0.0142596
0.0634219
0.053709
0.0483732
0.037894
0.0211842
0.0473592
0.0482669
0.0467058
0.0484155
-0.0152181
0.0367212
0.0323341
0.104817
0.0560038
0.236756
0.00792316
0.00239873
0.0434795
-0.00100486
0.0478879
0.0495348
0.047023
0.106196
0.115029
0.0455805
0.03008
0.234835
0.0160347
0.00566535
0.0378437
0.0654838
-0.134682
0.046383
0.0494584
0.0479189
-0.00968976
0.0493336
0.0307215
-0.0553002
0.0470229
0.077186
0.0560614
0.0407216
0.0505033
0.0458185
0.0487067
0.0528048
0.0487641
0.0486387
0.0521804
0.00759329
0.0113003
0.0407174
0.341935
0.00274013
0.417082
0.0172965
0.0243557
0.052612
0.0187652
0.0560439
0.0122802
0.325741
0.0979154
0.0554198
0.0430275
0.0529481
0.0515747
0.0215243
0.0477206
-0.00449477
0.0487919
0.0989986
0.0478381
-0.0131798
0.00816383
0.0121892
0.0551988
0.0383358
0.0088478
0.0770076
0.00546852
0.0397901
0.00364489
0.0424952
0.0474155
0.0494732
-0.22507
0.0709868
0.0406649
0.0473075
0.0489542
0.0534126
0.0821344
0.0112812
0.0174491
0.0467015
0.0422722
0.0546787
0.0405394
0.0370988
0.00265955
0.0545389
0.0570128
0.00969192
0.0420364
0.0389622
0.104298
0.0473668
0.0546242
-0.272744
0.0484095
0.00757627
0.0507892
0.0394298
0.0886451
0.010514
0.050263
0.0187267
0.0479877
0.111039
0.0421277
0.0133241
0.0119301
0.110837
0.047846
0.00170509
-0.00433002
0.0556044
0.0414996
0.0428214
0.0364382
0.246644
0.0523834
0.048232
0.0541808
0.0480067
-0.128063
0.0411692
0.00986735
0.0309127
0.0172329
0.528069
0.0411759
-0.0605423
0.0116497
-0.0608298
0.0187336
0.0508289
0.0410375
0.0299063
-0.0479679
-0.035639
0.0461167
0.0461523
0.118025
0.0450492
0.211843
0.0200123
0.070311
0.0429818
0.408359
-0.106146
0.0418245
0.0474254
0.0476712
0.0929422
0.0534785
0.0582628
0.0507674
0.0152975
0.0765316
-0.0146872
0.358119
0.0467145
0.0818494
0.01432
0.117926
0.0428067
0.116388
0.00828578
0.0944502
0.0508021
0.0473096
0.00965914
0.00736139
0.018133
0.115859
0.0125701
0.0239944
0.0505316
0.0471507
0.0371875
0.248939
0.0373644
0.0120784
0.0659958
0.0200883
0.0340648
0.0514393
-0.0039508
0.0316972
0.0423155
-0.00783005
0.05695
0.0267673
0.200587
0.0474031
0.0314785
0.0491899
0.0555096
0.044423
0.0497542
0.0473625
0.000853275
0.0415122
0.0766847
0.0123153
0.0946159
0.0302705
0.0306839
0.0105702
-0.212377
0.0483904
0.0549558
0.0247954
-0.0737862
0.00764602
0.047734
0.521429
0.0473297
0.0424254
-0.176932
0.0534014
0.0480975
0.0481438
0.0648243
0.0888169
0.0484142
0.0545282
0.11029
0.0499225
0.0521381
0.051194
0.046394
0.0903209
-0.0158594
0.0531702
0.115655
0.0118263
0.0119056
0.00472264
0.0154959
0.0510702
0.0421978
-0.0405981
0.00620177
0.0724568
0.0467471
0.0484419
0.117003
-0.000590448
0.0323506
0.037233
0.0321189
0.0507991
0.0415427
0.083277
-0.243195
0.378722
0.0815505
0.0488466
0.0414983
0.079215
0.36142
0.110821
0.0477547
0.00109812
-0.0118315
-0.246241
0.0342688
-0.171552
0.0484116
0.0513259
0.0484595
0.00591564
0.0739047
-0.179154
0.042587
-0.0896569
0.0448474
0.0494153
0.0110994
0.0527533
0.00148055
-0.0367122
0.0541855
0.033933
0.0245101
0.0345869
0.0540195
0.073948
0.0720794
0.030205
0.0778266
0.0542127
0.0484973
0.051818
0.0490059
0.105745
0.0222705
-0.00686741
0.00255539
0.0851886
0.0241474
0.0225882
0.0414889
-0.0110496
0.033112
0.0535172
0.0479342
0.000166848
0.10805
0.0428228
0.0395661
0.0552884
0.0233117
0.101787
0.115631
0.0229338
0.243695
0.0221888
0.0864184
-0.0340722
0.0524155
0.0169744
0.0115251
0.0455615
0.0328874
0.035588
0.0429282
0.0475897
0.0438955
-0.0130565
-0.00104264
0.0429893
-0.132186
0.0996619
0.0489172
0.0492506
0.00256235
0.0488261
0.0777807
0.0136448
0.00422598
0.0487655
0.0512182
0.0476543
0.0488271
0.11755
-0.139414
0.048966
0.0543537
0.0473774
-0.148437
0.021206
0.0148792
0.0471057
0.0488598
0.0511728
0.0246854
0.0840187
0.0275706
0.0462727
0.0513958
0.0487036
0.0209425
0.0839434
0.0361986
0.0482593
0.0300325
0.0247277
0.0745526
0.0438532
-0.0159452
0.145987
0.0455039
0.0321115
0.051113
0.0422322
-0.203601
0.0540434
0.0489765
0.0123421
0.103955
0.0815107
-0.145901
0.075549
0.0336985
0.0270581
0.0552438
0.0382716
0.0335142
0.0544572
0.147217
0.0489694
-0.32453
0.0824854
0.184835
0.038305
-0.00387481
0.0954883
-0.000871975
0.265899
0.00824769
0.0259747
0.0324244
0.0376808
0.0473487
0.0426057
0.0871532
0.00173332
0.0546493
0.0455172
0.00792156
0.0172129
0.00637743
0.0793271
0.00138631
0.00618988
0.046863
0.0700873
-0.0428349
0.0866516
0.0473156
0.0330932
0.0519909
0.0473262
0.068608
0.0483981
0.0426539
0.244484
0.0908983
-0.0157947
0.0484386
0.0479177
0.0480257
0.0548046
0.0520979
-0.00110118
0.0522426
0.0478126
-0.0176105
0.0217472
0.0101155
0.067976
0.048501
0.0399535
0.0904157
0.0328378
0.0484672
-0.0411683
0.0121555
0.113369
0.0485574
-0.240465
0.0965118
0.0494282
0.00399704
0.0370311
-0.0125923
0.0344354
0.0018566
0.0933276
0.0484213
0.0501166
0.0216706
0.0392733
0.0534683
-0.00623427
0.0535656
0.0536991
0.0956206
0.0450099
0.0517874
0.0342286
0.0112491
0.0491305
0.0536096
0.0517058
0.0472335
0.0951523
-0.0401793
0.0258581
0.0548573
0.0525495
0.0397629
0.0474807
-0.202617
0.0782475
0.048187
0.0704258
0.0397666
0.0983798
0.152754
0.00209887
0.0536979
0.00581434
-0.00123964
0.0470681
0.039439
-0.000180622
0.0431524
0.0482415
0.0717433
0.0268767
0.0524661
0.0482704
0.0404322
0.0825448
0.0488659
0.0309781
0.0484054
0.0352825
0.0660791
0.133668
0.0478114
-0.199896
0.0791054
0.0156767
-0.113194
0.0918209
0.0309581
-0.0324206
0.055331
0.143319
0.206742
0.0523457
0.0428657
0.0427138
0.0503695
0.0522245
0.00734868
-0.080748
-0.149237
0.0090959
0.149036
-0.0045814
0.0108763
-0.0408511
0.0477287
0.0506112
0.0458341
0.0245525
0.0476709
0.00860058
0.0349257
-0.00578084
0.0474349
0.0508877
0.0455277
-0.16217
0.119621
0.0772916
0.0602548
0.122351
0.0430803
0.0488924
-0.0170008
0.0347748
-0.0129507
0.00787955
0.0228313
0.00501661
0.0157717
0.055779
0.0471186
0.0475479
-0.127081
0.0398448
0.0372839
0.0513361
0.00884068
0.0180572
0.0478604
0.0197775
-0.0139496
-0.000368697
0.0935517
0.05206
0.0480009
0.00541433
0.0549731
0.0477362
-0.000657815
0.0076615
0.0517294
0.138375
0.00203076
0.0479775
0.0480669
0.047208
0.106391
-0.146586
0.038067
0.0103673
0.0510324
0.0517281
0.0121419
0.0481551
0.178237
0.015723
-0.0318262
0.154456
0.0293731
0.0473097
0.0475489
0.0316388
0.0551027
0.047141
-0.193196
0.00593527
0.0429294
0.21772
0.100345
0.0422202
0.0473695
0.0480633
0.0511972
-0.0720126
0.160081
0.0325227
0.0763651
0.065843
0.00639675
-0.0798623
0.0287003
0.0531855
0.0521359
0.0162933
0.0390775
0.0467103
0.0504086
0.0041425
0.0521135
0.0317233
0.0539785
0.0808303
-0.010542
0.0453486
0.0505188
-0.00291056
0.00376565
0.057647
0.0501607
0.0756999
-0.000549045
0.0380265
0.0172128
0.0730385
0.0169791
-0.028046
0.051981
0.157655
0.0471739
0.104215
0.000464366
0.0481321
0.0476558
0.383398
0.0483267
0.0549639
0.0259262
0.0533595
0.0534877
0.056529
0.04821
0.0480055
0.000310169
-0.0255338
0.0458226
0.342012
0.0355966
0.0501868
0.240237
0.0980576
0.0537529
0.0439635
0.04988
0.0874358
-0.285131
0.0531889
0.0457362
0.0472624
0.0504648
0.0627261
0.0162522
0.052715
0.0634488
0.0514355
-0.160994
-0.00661661
0.00952878
0.109222
0.0353966
0.0502809
0.00502772
-0.119047
0.051776
0.0474776
0.0502078
0.0451581
0.0532879
0.0468257
-0.00220637
0.0436023
0.0422214
0.324797
-0.000986986
-0.00505223
0.00427978
0.0531259
0.001115
0.0855325
-0.091412
0.0459913
0.0110166
0.048144
0.239834
0.0474362
0.0478688
0.0285126
0.0472978
0.0255593
0.0580993
0.0534087
0.0458444
-0.0874253
0.0857646
0.0116636
0.0504877
0.0350677
-0.038813
-0.00646402
0.077869
0.0738192
0.0485205
0.0541299
0.0443552
0.0503205
0.0458239
0.0504359
0.0891166
0.0726451
0.00751995
-0.10989
0.0209536
-0.00884306
0.0319393
-0.113817
0.0467667
-0.0296001
0.050297
-0.0152324
-0.00533356
0.0246839
0.0479488
0.028809
0.0108101
0.0309498
-0.00644975
0.233987
-0.108166
0.0502583
-0.00231995
0.045192
-0.00441729
0.0881042
0.00337053
0.0431334
0.0563097
0.0113108
0.0511333
0.0355896
0.0482679
0.0439489
0.0474893
0.05418
0.00679365
0.00189409
0.047759
0.0834533
-0.0824932
0.496907
0.0470899
0.0725276
0.0262656
0.192059
0.0307816
-0.190977
-0.0359335
0.0456646
0.0238512
0.0664686
0.178009
0.0469758
0.0664413
0.0773741
0.0455353
-0.090285
-0.00314909
0.0502435
0.0235928
-0.0287529
0.0756487
-0.0840209
0.0360954
0.0777282
0.0530024
0.0470785
0.0544322
0.0430869
-0.0763917
-0.000344808
-0.0644319
0.0487991
-0.0773293
0.0292428
0.00359645
0.109185
0.0239709
0.0270548
-0.0541456
0.0359989
0.0343679
0.00536294
0.0703801
0.025121
0.00910022
0.0686837
-0.092906
0.0842315
0.033726
0.0861662
0.0487219
0.113962
0.00057464
0.0991755
0.0520277
-0.0348363
0.0477858
0.032595
0.0101792
-0.00102143
0.0559965
0.00640906
0.044154
0.508873
0.0540351
0.00659237
0.0906428
-0.000584434
0.00756124
0.0482049
0.0306064
0.0474974
0.468354
0.0479274
0.0476531
0.04721
-0.0131036
0.0421422
0.0427179
-0.0072118
0.0272176
0.0630658
0.0421382
0.0475443
0.106708
0.0458832
0.102946
0.00714846
0.0849995
0.0397873
0.0400661
0.0250532
-0.0138503
0.00935752
0.041883
0.537801
0.0479062
0.0476118
0.0543376
-0.116874
0.0521314
0.0295357
0.0791393
0.0521026
0.0397683
0.00364624
-0.0221445
0.0322775
-0.0447373
0.0530528
0.0435614
0.0149002
0.0193331
-0.000303208
0.0502222
0.0248978
0.0707909
0.19703
0.0358475
0.0476882
0.0438859
0.177828
0.0482683
0.0482687
-0.0373851
0.031197
-0.0424271
0.0397213
0.0474378
0.191325
-0.012965
0.0424863
0.053413
0.0457621
-0.108993
0.0482786
0.0329142
-0.0262583
0.0482696
0.0475318
0.00941261
0.0470929
0.0482789
0.0140714
0.0486266
0.047545
0.0210538
0.0471962
-0.0136421
0.0474298
0.0552272
0.118476
0.00859319
0.0482838
0.00545874
-0.1832
0.0396795
0.0733015
0.0452863
0.0316707
0.0461167
-0.0177826
-0.00486634
0.0440866
0.0475294
0.129111
0.029001
0.01625
0.012493
0.13099
0.0471138
0.00634595
0.047513
-0.0182883
-0.00624488
-0.00339544
0.00832958
0.154451
-0.0783292
0.00578481
0.0117855
0.0460668
0.0505366
0.00170766
0.135357
0.0976
0.0317958
-0.0737592
0.0469725
-0.0630072
0.208597
0.0472095
-0.00685069
-0.0100801
0.0798293
0.00967111
0.00689016
0.0715414
0.047629
-0.0118727
-0.0664811
0.259472
0.0531847
0.00286495
-0.0293563
0.145254
0.049677
0.0475057
0.00695195
-0.0520296
0.0385656
0.0676472
0.0477906
0.0471027
0.05601
0.0529011
0.0246166
0.0537396
0.0474753
-0.0161763
0.0337964
-0.0242579
0.016228
0.0477974
0.047545
0.143486
0.0527004
0.0795846
0.0586935
-0.0397946
0.079976
0.0468407
-0.0241226
0.0570918
0.0475247
0.0269302
0.0364423
0.0392834
0.0931628
0.0248222
-0.148438
0.0391207
0.047354
-0.0258119
0.0471648
-0.00631619
0.0301027
-0.0274363
-0.0474127
0.0954138
-0.0309393
0.0478382
-0.00815837
0.0519035
0.0709898
-0.0221048
0.0191521
-0.0225067
-0.0652884
0.172403
-0.0106571
0.062014
0.0468124
0.047405
0.0471418
-0.0304298
0.137383
0.0468252
-0.0149335
-0.0176097
0.014792
0.00288584
0.026931
0.10903
-0.0258155
0.0529598
0.0123612
0.0244472
0.0481345
0.048155
0.0496055
0.053029
0.0125561
0.0477139
0.0506061
0.0543843
0.0726845
0.000524063
0.0473558
-0.0185362
0.0474287
0.00385467
0.0118632
0.0499978
0.0392827
0.00210153
-0.0190099
0.0353378
0.0769789
0.0527885
0.0258936
0.031355
0.0475607
0.0518673
0.0522832
0.0500672
0.047596
0.0682069
0.0475798
0.125058
0.012944
-0.0926746
0.0476325
0.0582732
0.0477499
0.0479011
0.123602
0.0572683
0.0470068
0.345111
0.134708
0.0364034
0.0634047
0.0375516
0.120505
0.01921
0.00862997
0.0544932
0.0542871
0.0475243
0.0489011
-0.0106608
0.0471557
0.0496675
0.11985
0.0501343
0.0518498
0.0270491
0.0476003
-0.0339498
0.0476674
0.0496076
0.00817447
0.0094316
-0.0614694
0.109594
0.0692464
0.0498579
0.00733274
0.0497935
0.0245066
0.00874264
0.0540694
-0.0290795
0.0483404
0.0254833
0.0688125
0.0502729
0.100902
0.0476192
0.0540646
0.0475088
0.0282496
0.0470654
0.0523826
0.0240301
0.0437902
0.0693893
0.0265615
0.0475616
0.0262973
0.0121961
0.0539774
0.0087485
-0.0135997
0.0475244
0.0302644
0.108377
0.00316252
0.0548707
0.0425919
0.0426527
0.0248876
0.0554568
0.151523
0.052951
0.0478316
0.0478641
-0.0161794
-0.00873126
-0.0199335
0.281238
0.099723
0.0496379
0.0255148
0.0106451
0.0481997
-0.0494729
0.0522403
0.101542
-0.000123975
0.0496634
0.141859
-0.0079198
-0.0150489
0.0225647
0.028468
0.0481081
0.0470748
0.0595536
0.0475512
0.0475142
0.135555
0.0502405
0.0625337
0.0468814
0.0364165
0.0433552
0.375586
0.039156
0.0419815
-0.00837107
0.102643
0.0928684
0.033954
0.109771
0.0478136
0.0453485
0.00495985
0.0721486
0.123535
0.0492913
-0.000107566
0.0379853
0.0486522
0.0505433
0.0476354
0.0629572
0.039178
0.0480654
0.0292608
0.259909
0.048177
0.0119162
0.031014
0.0472857
0.0616414
0.0504282
0.0263278
0.0477088
0.0475699
0.0150275
0.0280584
0.090278
0.141485
-0.240277
0.0538482
0.0630569
-0.0321265
0.0320838
0.050363
0.0389739
-0.000756297
0.047599
0.0514945
0.047518
0.0293907
0.063647
0.0184187
0.0475883
0.0596378
0.032974
0.0525736
0.118665
0.0437132
0.0473071
0.0475875
0.0286251
0.0223704
0.309881
0.0589511
0.0813119
0.00614349
0.00490359
0.0473718
0.100272
0.0475881
0.0475573
0.0481371
-0.00290199
0.0531215
0.0342473
0.00696046
0.0193109
0.00662041
0.0292759
0.0638694
0.114044
0.0452869
0.0119751
0.0909004
0.0318737
0.129928
0.0518505
-0.167992
0.143553
0.137201
0.046982
-0.11596
0.00604793
0.0078944
0.13602
-0.000246042
0.0573611
0.0546729
0.0365961
0.0334852
0.030601
0.211424
0.0731215
0.0522685
0.0141491
0.0524898
0.0341087
0.02348
0.0927987
0.0343761
0.0669973
0.0828589
0.00630262
0.0965696
0.0309453
0.0484506
0.0585978
0.0474689
0.0425183
0.0461004
0.0526985
0.0193107
-0.0402957
0.0473046
0.169994
0.0466689
0.0390255
0.010752
0.0292829
0.0325778
0.0458562
0.00731719
0.0119945
0.250361
0.0475871
0.00898037
0.0353529
0.013669
0.0481475
0.0478015
0.15144
0.0235052
0.0315192
-0.11525
0.0259356
0.037749
0.135658
0.014883
0.119169
0.0539504
0.0183966
0.0357919
0.0437833
-0.0240568
0.00711052
0.0190821
0.0323643
0.0469911
0.00638504
0.00621218
-0.000548372
0.0378519
0.0359504
0.413862
-0.0399169
0.0466642
-0.0110484
0.0203015
-0.0992444
0.0474927
0.0313748
0.0314431
0.0474739
0.0042054
0.0271688
0.0517128
-4.75686e-05
-0.0195639
-0.00150572
0.0541841
0.0231262
0.0481855
0.0427745
-0.0257845
0.0819035
0.0277439
0.00706363
0.145764
0.023802
0.01986
0.020837
0.00743111
-0.0242082
0.0459358
0.0213594
0.0162611
0.0919293
0.280599
0.0132108
0.0339826
0.0207753
0.0474885
0.0923786
0.0303862
0.00923789
0.0472979
0.0344832
0.00665878
0.0137246
0.145939
0.0107216
0.0287294
0.0286325
0.0528648
0.00370568
0.0260774
0.0733319
0.0578131
0.0543088
0.0104314
0.0350981
0.0405303
0.0369049
0.0476818
0.00655067
0.0617204
0.0287642
-0.00216282
-0.0432201
0.0418537
0.0282723
0.0168297
0.0235292
0.0476116
0.0988405
0.0980553
0.071531
0.0481243
0.235142
0.00693256
0.0511045
0.0888576
0.0470581
0.0560983
0.0316992
0.025827
0.0532993
-0.0990188
0.0489792
0.0580158
0.0413186
-0.0106097
-0.0282066
-0.000298152
0.0617616
0.00952291
0.0481608
0.0286159
0.0738458
0.0489992
0.147745
0.0174449
0.0270947
0.00844512
0.0655039
0.0218727
0.0365265
0.0472411
0.0473667
0.0459346
0.0620629
0.123974
0.0161802
0.144413
0.0808533
0.0889161
0.0496642
0.0685176
0.00726451
0.0475748
-0.0183355
-0.0145396
0.0508123
0.0475527
0.0381284
0.0456318
0.0473594
0.0637339
0.0331185
0.131226
0.0164609
0.0344552
0.0882376
-0.00831738
0.00566075
0.0861588
0.0138937
0.0236503
0.0700233
0.0471313
0.0614358
0.0272781
0.121302
0.130152
0.217507
0.0474017
0.128396
0.0318544
0.0311564
0.104919
0.106856
0.100135
-0.0207468
0.0210309
0.0672282
0.0211041
0.037975
0.04489
0.0903985
0.0469114
0.0170402
-0.0248551
0.0581598
-0.0230641
0.0465009
0.0835956
0.0533947
0.0295102
0.101816
0.162895
0.020972
0.0418462
0.0174792
0.032842
0.0710717
0.000107891
0.0817668
-0.00118573
0.0474152
0.0213052
-0.148723
0.0980776
0.034542
-0.035227
0.010269
0.0405634
0.046434
0.102992
0.0931081
0.0330889
0.0560882
0.049306
0.00599967
0.0422938
0.00483382
0.0802703
0.034841
0.141495
0.0474144
0.0439444
0.00702942
0.0358912
0.0364212
0.064994
0.0552074
0.0290194
0.168134
0.106482
0.0472273
0.00594014
0.0424946
0.0471728
0.133282
0.0469501
0.0218573
0.0244292
0.0468881
0.0470356
0.0509615
0.00766122
0.0600665
0.0976846
0.0276732
0.130667
0.0317602
0.0326982
0.0363221
0.0774899
0.0476367
0.038322
0.035906
0.0263496
-0.0158759
0.00934883
0.0654543
0.0438019
0.0540636
0.0306235
0.0413838
0.059841
0.0219487
0.105014
0.0314381
0.0472012
0.00884097
0.0863106
0.00746083
0.0473849
0.135749
-0.0217726
0.0441444
0.0975207
0.00633241
0.0518586
0.0962478
0.00388753
0.0884313
0.113273
0.00462651
0.0470033
0.0781049
0.0752959
0.0140479
0.04438
0.0301974
0.0473751
0.0471693
0.047128
0.0141942
0.0176767
0.019762
0.0816389
-0.0474815
0.167359
-0.0418784
0.027461
0.0402722
-0.0278987
0.0488159
-0.0897682
0.0321174
0.0226717
0.0187786
0.0281426
0.0639609
0.0393974
0.0319799
0.0527608
0.0473577
0.0769166
-0.0270178
0.0144568
0.00688463
0.0178714
0.0509648
0.0275808
0.0168281
0.0532927
0.0240563
0.0370585
0.118244
0.085039
0.0798034
0.0925118
-0.00175642
-0.000161099
0.00619189
0.0229216
-0.000921895
0.0156659
0.0575068
0.0423489
0.130567
0.0730712
0.00746527
0.0477155
0.0948614
0.126823
0.0730833
0.0786543
0.0557016
0.0173153
0.113728
0.0280926
0.0233494
0.0332276
0.0323607
0.0464995
0.0278505
0.0292286
0.0524765
0.0205003
0.0293327
0.0426352
0.103232
0.0423693
0.0392255
0.0752974
0.0542782
0.0468122
0.0496371
0.00302473
0.0164889
0.0482995
0.0709823
-0.0381297
0.00670596
0.0546032
0.0196724
-0.0143759
-0.0329761
-0.00215232
0.0310871
0.0331899
0.0538044
0.0327631
0.0253643
-0.000253814
-0.0013217
0.00325984
0.000869868
0.0334781
0.0463635
0.0460802
0.127909
0.0611068
0.0340939
0.0365395
8.94316e-05
0.0432273
0.0268126
0.149731
0.0863184
0.0115508
0.0528947
0.016934
0.0470235
0.00880564
0.000453662
0.027225
0.0471104
0.0578191
0.167137
0.040179
0.0879041
-0.0129467
0.0474818
0.0339236
0.0930355
0.100296
0.0691407
0.0483045
0.0438598
0.0449985
0.0480681
0.0471672
0.0401282
0.00756239
0.0470994
0.0552622
0.0524556
-0.372181
0.118209
0.0450436
0.0473959
0.0110436
0.0172469
0.0235316
0.0759873
0.0180657
0.0465705
0.0406965
0.00532865
0.0479842
0.0147481
0.0926559
0.0703064
0.0457319
0.0133585
0.0477323
0.0383839
0.0364601
0.0399707
-0.00183496
0.058749
0.0343808
0.0326784
0.109914
0.0805173
0.0470097
0.0475319
0.0347335
0.031473
0.0147813
0.0212851
0.0388264
0.00807156
0.0791185
0.0480989
0.0360971
0.00648825
0.0374131
0.084021
0.0625176
0.0503002
0.151045
0.0219798
0.123711
0.139972
0.0272829
-0.00168055
-5.68874e-05
0.123998
0.0377972
0.0065467
0.0733536
0.0351315
0.0224311
0.0892421
0.0710407
0.049648
0.00341834
0.0309327
0.027507
0.0396139
0.00681262
0.0492429
0.0794692
0.0490551
0.0562674
0.0851626
0.0536439
0.0411187
0.105044
0.00791875
0.0904627
0.0279562
0.0711836
0.00920634
0.0605152
0.0123082
0.0487517
0.0294306
0.0100536
0.0665373
0.0264609
0.0487085
0.0410136
0.0158186
0.0448777
0.0340932
0.055441
0.0356631
0.0224593
0.000215479
0.0943976
0.103681
0.0999852
0.0399433
0.0389712
0.0336541
0.0193225
0.0281772
0.0478254
0.0531264
0.0690096
0.0242925
0.0575516
0.00539562
0.0299497
0.0560085
0.0322388
0.031569
0.0428085
0.0291334
0.0362656
0.133639
0.256471
0.0226123
0.0256097
0.0272716
0.0302189
0.0343443
0.0342648
0.0324066
0.0231803
0.0140447
0.0460915
0.0473795
0.046362
0.00696007
0.0473809
0.0291741
0.0410646
0.0305228
0.058655
0.0329904
0.122731
-0.0057569
0.0470167
0.0343703
0.089992
0.0404951
0.0594921
0.0883235
0.0522742
0.047258
0.0294322
0.00845665
0.0858722
0.00427043
0.114048
0.0830512
0.00409393
0.0621446
0.0675339
0.0121635
0.0417743
0.0469896
0.0487321
0.0353004
0.0469013
0.0313743
-0.0259911
0.0460443
0.0788907
0.0421575
0.061263
0.0619996
0.161042
0.0535285
0.0408855
0.00600499
0.0145909
0.0860996
0.0304077
0.0825295
0.048627
0.0367136
0.0640222
0.0447329
0.0321859
0.0481105
0.0486595
0.0304781
0.0468588
0.0335924
0.0606758
0.0798126
0.0153576
0.0466157
0.00723396
0.00227052
0.066668
0.0593473
0.0496314
0.0672771
0.130949
0.0473644
0.0395187
0.0454991
0.0594291
0.0373642
0.0344434
0.0376368
0.0727397
0.0825283
0.0318186
0.0784228
0.0900507
0.0591447
0.107174
0.0566987
0.0772614
0.028055
0.0412419
0.0215571
0.0481962
0.0636371
0.0490112
0.0821649
0.00267688
0.0538844
-0.00998781
0.0429267
0.0268091
0.117091
0.00819169
0.0456482
0.0470417
0.00544587
0.106137
0.0272486
0.0292952
0.0161011
0.0435888
0.080508
0.0363586
0.0457129
0.0348159
0.00925982
0.0412237
0.0390891
0.400455
0.0375308
0.049057
0.0578405
0.0634806
0.0415706
0.0308422
0.0473901
0.101092
0.0414552
0.0473724
0.014404
0.0357442
0.0281954
0.0401003
0.0620856
0.0407996
0.0434059
0.0427026
0.0328024
0.0793229
0.0474118
0.0377011
0.0565232
0.0442569
0.0379622
0.0536948
0.0538634
0.0584684
0.0588675
0.047484
0.0418901
0.0495242
0.0286871
-0.00166543
-0.000913523
0.144175
0.0735921
-0.00862371
0.0296295
0.0468965
0.0502108
0.0571135
0.0729313
0.0478013
0.0273357
0.0751435
0.0554109
0.0260684
-0.00734441
0.0214459
0.0467832
0.0360132
0.0472449
0.0933987
0.236901
0.0377297
0.0558843
0.042203
0.00695787
0.0470426
0.0714388
0.0273504
0.0439894
0.0479629
0.0322876
0.0955619
0.0378787
0.0554138
0.0254644
0.0408503
0.0422088
0.086757
0.0596639
0.0386665
0.0496037
0.0374406
0.0532567
0.0368037
0.0477281
0.0382512
0.0471029
0.053274
0.011745
0.0673096
0.0171862
0.0729941
0.0726524
0.0515979
0.0372728
0.0341443
0.0762683
0.0909759
0.0108652
0.0402599
0.0561172
0.0569789
0.0390755
0.0459198
0.0424889
0.0362414
0.0278536
0.0278791
0.0429679
0.0152484
0.0376838
0.0784611
0.0394376
0.0417282
0.0381997
0.0239512
0.0829691
0.0524889
-0.000455074
0.0375704
0.0396257
0.0118644
0.0503564
0.000866904
0.0497859
0.0401344
0.0454235
0.0453593
0.0483596
0.0409677
0.00580883
0.0473862
0.0209944
0.0707652
0.049915
0.0565393
0.0318265
0.095291
0.0594216
0.0478241
0.0336833
-0.0555969
0.0475361
0.00661462
-0.0697686
0.0645833
0.0841845
0.0513174
0.0400593
0.0289827
0.0703422
0.0575006
0.047577
0.0916321
0.011407
0.0809956
0.0474229
0.0467984
0.0419913
0.0429234
0.0434831
0.0648042
0.0751644
0.0447969
-0.00107727
0.0444594
0.0517016
0.0403863
0.0318592
0.000497012
0.0468633
0.0406172
0.0236953
0.0414275
0.0450658
0.0499075
0.127035
0.0722423
0.0478995
0.0615475
0.0518855
0.0404408
0.074055
0.058358
0.042535
0.0616563
0.0352883
0.0614091
0.0840896
0.00200116
0.0234313
0.0479981
0.0689356
0.0456786
0.0500258
0.0488751
0.0408766
0.00216055
0.000298817
0.0573451
0.0304068
0.0333351
0.0276398
0.0465716
0.0460781
0.0479072
0.0703865
0.0332817
0.0474608
0.0402564
0.0529386
0.0231152
0.00917003
0.0474973
0.046978
0.0349049
0.0468493
0.0459512
0.0412055
0.0436578
0.0382976
0.064751
0.0604965
0.0334715
0.0453236
0.0512874
0.0568855
0.0406241
0.0474015
0.0415247
0.0301263
0.00147865
0.00624309
0.033871
0.123517
0.0409618
-0.055267
0.0876433
0.0403613
0.0389831
0.0520574
0.0469504
0.0475013
0.0529433
0.0552646
0.0399102
0.0491612
0.0466187
0.0963956
0.00602316
0.0329476
0.0476422
0.053398
0.061559
0.0690354
0.0316448
0.049843
0.047327
0.0458103
0.0413864
0.0284636
0.0265404
0.00602452
0.0604695
0.0457484
0.0369668
0.0545905
0.0519503
0.0513613
0.0446559
0.0567107
0.0474834
0.0158243
-0.00220106
0.0466123
0.0652095
0.0400524
0.0431583
0.0448852
0.0488159
-0.0338275
0.0621258
0.000381344
0.041891
0.0100488
0.0506482
0.0676632
0.126603
0.0536873
0.0476837
0.0298791
0.0223616
0.110246
0.0404717
0.0654872
0.0434794
0.0470127
0.0637787
0.0449826
0.120998
0.000361552
0.0778888
0.0508503
0.046212
0.0474518
0.0458627
-0.026344
0.0369412
0.0469095
0.0546027
0.0456715
0.0469986
0.0467808
0.0113317
0.00402771
0.0527817
0.0463538
0.0808062
0.0540409
0.100767