/*--------------------------------*- C++ -*----------------------------------*\
  =========                 |
  \\      /  F ield         | OpenFOAM: The Open Source CFD Toolbox
   \\    /   O peration     | Website:  https://openfoam.org
    \\  /    A nd           | Version:  7
     \\/     M anipulation  |
\*---------------------------------------------------------------------------*/
FoamFile
{
    version     2.0;
    format      ascii;
    class       volScalarField;
    location    "2.4";
    object      p;
}
// * * * * * * * * * * * * * * * * * * * * * * * * * * * * * * * * * * * * * //

dimensions      [1 -1 -2 0 0 0 0];

internalField   nonuniform List<scalar> 
1008
(
3.68283
7.19087
7.22551
6.91737
6.58937
6.25186
1
1
1
1
1
1
1
1
1
1
1
1
1
1
1
1
1
1.00026
1.48695
5.54643
7.27194
6.91804
6.6054
6.28834
1
1
1
1
1
1
1
1
1
1
1
1
1
1
1
1
1
1
1.01918
2.67676
6.36308
6.89475
6.60818
6.30599
1
1
1
1
1
1
1
1
1
1
1
1
1
1
1
1
1
1
1.00014
1.19918
4.24997
6.78276
6.66713
6.374
1
1
1
1
1
1
1
1
1
1
1
1
1
1
1
1
1
1
1
1.00423
1.77846
5.39528
6.64522
6.40644
1
1
1
1
1
1
1
1
1
1
1
1
1
1
1
1
1
1
1
1.00002
1.04727
2.71447
5.91637
6.43944
1
1
1
1
1
1
1
1
1
1
1
1
1
1
1
1
1
1
1
1
1.00058
1.21058
3.78567
6.10532
1
1
1
1
1
1
1
1
1
1
1
1
1
1
1
1
1
1
1
1
1
1.00533
1.58369
4.57519
1
1
1
1
1
1
1
1
1
1
1
1
1
1
1
1
1
1
1
1
1
1.00003
1.02946
2.10536
1
1
1
1
1
1
1
1
1
1
1
1
1
1
1
1
1
1
1
1
1
1
1.00034
1.09552
1
1
1
1
1
1
1
1
1
1
1
1
1
1
1
1
1
1
1
1
1
1
1
1.00177
1
1
1
1
1
1
1
1
1
1
1
1
1
1
1
1
1
1
1
1
1
1
1
1.00001
1
1
1
1
1
1
1
1
1
1
1
1
1
1
1
1
1
1
1
1
1
1
1
1
1
1
1
1
1
1
1
1
1
1
1
1
1
1
1
1
1
1
1
1
1
1
1
1
1
1
1
1
1
1
1
1
1
1
1
1
1
1
1
1
1
1
1
1
1
1
1
1
1
1
1
1
1
1
1
1
1
1
1
1
1
1
1
1
1
1
1
1
1
1
1
1
1
1
1
1
1
1
1
1
1
1
1
1
1
1
1
1
1
1
1
1
1
1
1
1
1
1
1
1
1
1
1
1
1
1
1
1
1
1
1
1
1
1
1
1
1
1
1
1
5.90071
5.54131
5.19078
4.86341
4.53974
4.21691
3.93429
3.6764
3.42837
3.18348
2.98089
2.79845
2.61941
2.45113
2.3021
2.18078
2.05462
1.94398
1.83252
1.74861
1.66627
1.57594
1.60749
2.03711
2.98631
3.5814
3.57285
3.43654
3.30459
3.20375
3.10262
2.98764
2.8676
5.95512
5.60776
5.28133
4.97098
4.65306
4.34434
4.08239
3.82451
3.57048
3.32964
3.14066
2.94406
2.7669
2.58517
2.44881
2.30885
2.18189
2.06724
1.96051
1.85696
1.76044
1.81106
2.32618
3.36766
3.92784
3.88632
3.74105
3.58855
3.47922
3.3723
3.25659
3.13626
3.01091
5.99203
5.67242
5.36381
5.05872
4.74891
4.47178
4.21244
3.95461
3.68894
3.47708
3.27896
3.08388
2.88655
2.72054
2.58448
2.43701
2.30927
2.18
2.07138
1.96203
2.02736
2.64841
3.80391
4.34607
4.23075
4.01659
3.8565
3.74313
3.63214
3.51368
3.39305
3.27067
3.14382
6.06465
5.75357
5.45392
5.15316
4.85152
4.58463
4.32927
4.07139
3.8207
3.6156
3.40692
3.21061
3.00915
2.86419
2.71337
2.56827
2.42142
2.29523
2.182
2.28033
3.01199
4.26106
4.82188
4.6849
4.39995
4.16055
4.00751
3.89151
3.77324
3.65359
3.5333
3.40857
3.27302
6.09807
5.80152
5.50767
5.21348
4.93577
4.68395
4.43363
4.16465
3.94023
3.73923
3.53637
3.3238
3.14119
2.995
2.8344
2.68756
2.53366
2.40842
2.55632
3.4596
4.75354
5.22438
5.0826
4.79017
4.52298
4.32312
4.17649
4.04495
3.92136
3.79772
3.67022
3.53352
3.38354
6.15731
5.84817
5.5723
5.29757
5.03187
4.78225
4.53593
4.27849
4.06683
3.86287
3.65518
3.43208
3.27696
3.11921
2.96041
2.79583
2.65954
2.87495
4.02525
5.27557
5.72624
5.56531
5.24836
4.9616
4.7173
4.49777
4.33024
4.18995
4.05828
3.92666
3.78826
3.63847
3.4786
6.21974
5.94877
5.65478
5.38222
5.12526
4.88444
4.63665
4.38665
4.17482
3.97625
3.762
3.5576
3.39449
3.21922
3.06248
2.93472
3.20952
4.57634
6.00275
6.07834
5.90872
5.64636
5.39953
5.16869
4.91746
4.67824
4.48723
4.32798
4.18203
4.03652
3.88554
3.7284
3.56947
6.09689
6.03457
5.75564
5.46869
5.21669
4.97677
4.72345
4.48997
4.28671
4.08492
3.85932
3.67484
3.4928
3.33362
3.21855
3.62995
5.14656
6.618
6.78453
6.47264
6.07219
5.7871
5.57074
5.34736
5.09013
4.83515
4.62831
4.45575
4.29629
4.14103
3.9854
3.82845
3.67128
5.05675
5.98224
5.85077
5.56232
5.30444
5.06579
4.82093
4.59403
4.39225
4.18085
3.97025
3.77212
3.59074
3.53143
4.09683
5.97935
7.25842
7.1117
6.8355
6.56568
6.28399
6.01779
5.76612
5.50864
5.24725
4.99395
4.76925
4.57724
4.40481
4.24186
4.08352
3.92714
3.77013
2.67546
5.32323
5.86553
5.68146
5.40712
5.15999
4.91074
4.69946
4.49266
4.29355
4.05979
3.85544
3.86539
4.69332
6.72631
8.08998
8.07263
7.47061
6.9546
6.66638
6.44282
6.19556
5.92755
5.65995
5.39532
5.13874
4.9061
4.70262
4.5196
4.34792
4.18169
4.01707
3.85243
1.21694
3.2205
5.42752
5.7368
5.53487
5.2556
5.01066
4.79791
4.59914
4.38574
4.14048
4.24661
5.41661
7.62439
8.72465
8.47881
8.13722
7.70177
7.25151
6.90917
6.61581
6.3343
6.0605
5.79624
5.5354
5.2802
5.04138
4.82347
4.62462
4.43946
4.26241
4.08963
3.92039
1.00612
1.39463
3.67972
5.42553
5.6003
5.38758
5.12225
4.88289
4.693
4.47381
4.71923
6.39969
8.61499
9.52241
9.28484
8.61718
8.19757
7.85456
7.47806
7.11244
6.7753
6.46884
6.18511
5.91575
5.65573
5.40484
5.16357
4.93464
4.72196
4.52471
4.33876
4.16019
3.98695
1.00004
1.01645
1.6124
4.0228
5.35495
5.46669
5.25779
5.00364
4.82209
5.31652
7.47618
9.8492
10.0749
9.83331
9.44012
8.88011
8.42189
8.03388
7.65122
7.2781
6.93111
6.61245
6.31572
6.03478
5.76571
5.50615
5.25518
5.01641
4.7951
4.59235
4.40429
4.22594
4.05288
1
1.00016
1.03533
1.8507
4.18404
5.3381
5.2823
5.20333
6.20644
8.66086
10.7517
11.1456
10.5339
9.89565
9.54963
9.1172
8.62737
8.17352
7.76572
7.39232
7.04623
6.72298
6.41821
6.12587
5.84257
5.5724
5.3201
5.08289
4.86197
4.6576
4.46697
4.28534
4.10913
1
1
1.00048
1.06301
2.05021
4.37588
5.0164
7.01413
10.232
11.4112
11.7046
11.4447
10.8331
10.1872
9.7715
9.35233
8.8316
8.36732
7.96198
7.57831
7.20934
6.85647
6.52932
6.23814
5.97841
5.72994
5.48042
5.24082
5.01646
4.80854
4.61466
4.42927
4.24669
1
1
1
1.00106
1.09696
2.16408
5.51773
11.5746
12.92
12.3178
11.8728
11.5426
11.0098
10.3875
9.87742
9.4173
8.95834
8.49727
8.0522
7.64122
7.2666
6.921
6.59648
6.28666
5.98673
5.70005
5.43535
5.19174
4.96803
4.76145
4.56702
4.37889
4.19174
1
1
1
1
1.00156
1.17638
7.74657
13.5288
13.136
12.3299
11.8134
11.42
10.9576
10.3933
9.8652
9.42482
9.00502
8.56912
8.13985
7.72628
7.33597
6.97767
6.64487
6.32787
6.0217
5.72887
5.45487
5.20427
4.9784
4.77276
4.5792
4.38958
4.1983
1
1
1
1
1.00001
1.56227
8.79675
12.9813
12.8484
12.6546
12.2837
11.7995
11.2588
10.6413
10.0597
9.56344
9.11482
8.66796
8.21963
7.78191
7.37525
7.00619
6.6677
6.34807
6.03949
5.74217
5.46333
5.21147
4.98807
4.78666
4.59717
4.40897
4.21235
)
;

boundaryField
{
    inlet
    {
        type            fixedValue;
        value           uniform 1;
    }
    outlet
    {
        type            zeroGradient;
    }
    bottom
    {
        type            symmetryPlane;
    }
    top
    {
        type            symmetryPlane;
    }
    obstacle
    {
        type            zeroGradient;
    }
    defaultFaces
    {
        type            empty;
    }
    procBoundary2to0
    {
        type            processor;
        value           nonuniform List<scalar> 
58
(
6.32766
7.63332
7.29513
6.96653
6.61044
6.23571
1
1
1
1
1
1
1
1
1
1
1
1
1
1
1
1
1
1.03835
1.03835
5.85727
5.48156
5.10009
4.74871
4.4195
4.09325
3.77937
3.51911
3.26859
3.0369
2.81043
2.63509
2.46475
2.31322
2.16116
2.03648
1.91946
1.8133
1.72814
1.64315
1.55558
1.46909
1.40086
1.43398
1.81999
2.69041
3.28403
3.28978
3.16194
3.02999
2.93347
2.83572
2.72498
)
;
    }
    procBoundary2to1
    {
        type            processor;
        value           nonuniform List<scalar> 2(2.75725 2.88698);
    }
    procBoundary2to3
    {
        type            processor;
        value           nonuniform List<scalar> 
16
(
3.01515
3.13159
3.23171
3.3248
3.41908
3.51712
3.61241
3.68952
3.75637
3.82084
3.88421
3.9353
4.06341
4.00478
4.00638
4.00554
)
;
    }
}


// ************************************************************************* //
