/*--------------------------------*- C++ -*----------------------------------*\
  =========                 |
  \\      /  F ield         | OpenFOAM: The Open Source CFD Toolbox
   \\    /   O peration     | Website:  https://openfoam.org
    \\  /    A nd           | Version:  7
     \\/     M anipulation  |
\*---------------------------------------------------------------------------*/
FoamFile
{
    version     2.0;
    format      ascii;
    class       surfaceScalarField;
    location    "0.791";
    object      phi;
}
// * * * * * * * * * * * * * * * * * * * * * * * * * * * * * * * * * * * * * //

dimensions      [0 3 -1 0 0 0 0];

internalField   nonuniform List<scalar> 
18389
(
-7.97163e-05
7.97163e-05
4.34641e-05
-4.34641e-05
-5.20445e-05
5.20445e-05
4.01608e-05
-4.01608e-05
-5.17952e-05
5.17952e-05
-4.00346e-05
4.00346e-05
-3.45834e-05
3.45834e-05
3.89888e-05
-3.89888e-05
-3.56489e-05
3.56489e-05
4.14134e-05
-4.14134e-05
4.47771e-05
-4.47771e-05
-3.45953e-05
3.45953e-05
-1.33317e-05
1.33317e-05
-4.28645e-05
4.28645e-05
4.34389e-05
-4.34389e-05
2.34242e-05
-2.34242e-05
1.7926e-05
-1.7926e-05
4.58869e-05
-4.58869e-05
4.59224e-05
-4.59224e-05
4.33381e-05
-4.33381e-05
-4.252e-05
4.252e-05
3.55841e-05
-3.55841e-05
4.29969e-05
-4.29969e-05
-5.84928e-05
5.84928e-05
-4.97259e-05
4.97259e-05
-4.1795e-05
4.1795e-05
-4.45378e-05
4.45378e-05
4.56209e-05
-4.56209e-05
4.58491e-05
-4.58491e-05
4.41347e-05
-4.41347e-05
-4.13345e-05
4.13345e-05
-6.30767e-05
6.30767e-05
4.31169e-05
-4.31169e-05
-4.47402e-05
4.47402e-05
4.08596e-05
-4.08596e-05
4.66908e-05
-4.66908e-05
-4.55555e-05
4.55555e-05
5.35796e-05
-5.35796e-05
-5.88854e-05
5.88854e-05
3.78703e-05
-3.78703e-05
4.48515e-05
-4.48515e-05
4.53899e-05
-4.53899e-05
-4.10102e-05
4.10102e-05
4.49068e-05
-4.49068e-05
4.58621e-05
-4.58621e-05
-4.58498e-05
4.58498e-05
-4.58465e-05
4.58465e-05
-4.06578e-05
4.06578e-05
-4.5878e-05
4.5878e-05
4.59341e-05
-4.59341e-05
4.59535e-05
-4.59535e-05
4.4619e-05
-4.4619e-05
3.77328e-05
-3.77328e-05
-4.5767e-05
4.5767e-05
-5.55455e-05
5.55455e-05
-4.38142e-05
4.38142e-05
4.57523e-05
-4.57523e-05
-4.59939e-05
4.59939e-05
4.32272e-05
-4.32272e-05
-5.93185e-05
5.93185e-05
-4.71469e-05
4.71469e-05
4.96058e-05
-4.96058e-05
4.57334e-05
-4.57334e-05
-9.29103e-06
9.29105e-06
4.57756e-05
-4.57756e-05
4.14074e-05
-4.14074e-05
5.12107e-05
-5.12107e-05
-4.58729e-05
4.58729e-05
4.23193e-05
-4.23193e-05
3.13729e-05
-3.13729e-05
8.59083e-07
-8.59083e-07
-4.40745e-05
4.40745e-05
3.28689e-05
-3.28689e-05
-3.65653e-05
3.65653e-05
3.97004e-05
-3.97004e-05
2.66263e-05
-2.66263e-05
2.61994e-05
-2.61994e-05
2.70486e-05
-2.70486e-05
2.43974e-05
-2.43974e-05
1.31563e-05
-1.31563e-05
0.0010765
-0.000883262
-0.000193235
0.00546667
-0.00207502
-0.00339165
-0.00594644
0.00594644
8.64653e-10
0.00335477
-0.00260059
-0.00075418
-0.0015551
0.00176477
-0.00020967
-0.00676114
0.0028413
0.00391985
0.0012146
0.00425207
0.0072553
-0.00587581
-0.00137949
0.00118558
-0.00191823
0.000732648
-0.000874562
-0.000680537
-0.00144218
-0.000314613
0.0017568
0.000138529
5.72303e-06
-0.000144252
0.000778529
-0.00222071
-0.00360317
0.000122391
0.00348076
-0.00320258
0.00289285
0.000309733
-0.00572405
0.00726173
-0.00153768
-0.00370909
0.00289736
0.000811721
-0.000563935
-0.00303923
-0.00174922
0.00238995
-0.000640723
-0.000464107
0.00255881
-0.0020947
-0.00160732
0.00111044
0.000496877
0.00058353
0.000581829
-0.00159575
-0.00516539
0.00126106
-0.0018099
0.00054884
0.00578072
-0.0038619
-0.00191881
-0.000663977
0.00331197
-0.00264799
-0.00583466
0.00583515
0.000471839
0.00129293
-0.00633114
0.000976049
0.0053551
0.00232332
-0.0029873
-0.00378989
0.003114
0.000675884
0.00214864
-0.00422366
0.00108679
-0.000202062
-0.000884728
0.00150608
-0.00129039
-0.000215684
-0.00280267
-0.000399904
0.00535065
-0.00535086
0.000371874
0.00113421
0.00522843
-0.00133638
-0.00389206
0.00200038
-0.000814793
0.00308569
0.00190869
-0.00499437
-0.000721425
-0.00306847
-8.83969e-05
-0.000155269
0.000243665
0.003936
0.0033193
0.00116374
-0.00488868
0.00372494
0.00162668
0.00360175
-0.00498261
0.0063214
-0.0013388
-0.00113652
-0.000593776
0.0017303
0.00133846
0.0020163
0.000135293
0.000103625
-0.000238919
0.00502238
-0.00339569
0.00645799
-0.000840334
-0.00561766
0.00321629
-0.00265952
-0.000556763
0.0022181
0.000451403
-0.00266951
0.00295134
-0.000733243
0.00650347
-0.00539838
-0.00110509
0.000501468
-0.00386456
0.0033631
6.88438e-05
0.00638915
0.0048022
-0.00430073
-0.000535787
0.00105939
-0.000523599
-0.00176108
0.000624558
0.00191708
0.00224908
-0.00416615
0.000253446
-0.000333595
8.01497e-05
-0.00126375
-0.00284772
0.00411147
-2.64387e-05
0.00652992
-0.00281623
0.00229667
0.000519566
0.000389348
-1.21253e-05
-0.000377222
-0.00569232
-0.000254121
0.00188029
-0.00140845
0.00082826
0.00495246
0.000892674
0.000183826
0.00266041
-0.00647082
0.00381042
-0.0011202
0.000584419
0.00263982
-0.00390358
0.00619693
-0.00226093
0.0010921
0.00117728
-0.000789621
0.00102785
-0.000238231
-0.00111044
-0.000496878
0.00188811
0.00132817
-0.000595086
0.00142979
-0.0012375
-0.000192287
-0.00265426
0.00198952
0.000664744
0.00116686
0.00026293
0.00113314
-0.00497282
0.00383968
-0.00475805
0.00141663
0.00334142
-0.00455432
0.00611804
-0.00156372
-0.00506307
8.04699e-05
-0.00201924
-0.000635018
-0.000215033
0.000126636
-0.00122397
0.00464813
-0.00342416
-0.00121575
-0.000702474
0.000103307
-0.000192023
8.87166e-05
0.000126286
-2.29794e-05
-0.00125915
0.00463765
-0.0033785
-0.000156167
2.4479e-05
0.000131688
-0.00556836
0.00170646
-0.00119588
-0.000565192
-0.000449441
-1.88986e-05
0.000468338
-0.00054325
9.38082e-05
0.00101078
7.60048e-05
-0.00181181
0.00061593
-0.000150245
1.72513e-05
0.000132994
0.00136799
-0.00234447
0.000976483
0.000271105
-0.000135811
-0.00392649
0.0051411
-0.00245722
0.000708004
-8.60806e-05
-0.000425304
0.000511385
0.00568626
-0.00216956
-0.0035167
7.82431e-05
0.00250654
-0.00258478
0.00445622
-0.00560906
0.00115285
0.00263495
0.0030513
0.00291389
-0.00283564
-0.00613803
0.000413978
-0.00645169
0.0036194
0.0028323
0.00229329
0.00390364
-0.00439022
0.00137759
0.00301262
0.00150451
-0.000243458
-0.0010249
0.00401999
-0.00299509
0.00463889
-0.00162538
-0.00301351
-0.00460468
0.0037492
0.000855482
0.00369406
-0.00503044
5.86049e-05
0.000330743
-0.00138547
0.00584169
-9.24017e-05
0.00214973
-0.00205732
-0.0020669
0.00261034
0.000170635
-0.00278098
-0.00127742
0.0026454
-0.000646698
0.00325704
0.00164159
-0.00173399
0.000904987
0.0039717
-0.0048767
-0.00504176
0.00384341
0.00119836
0.00255188
-0.00359409
0.00104222
-0.00332603
0.00411683
-0.00079079
0.000344476
-0.00367051
-0.000889788
0.000889788
-0.000447652
0.000361572
-0.000126963
-0.000973468
0.00110043
0.00507028
-0.0018425
-0.00322778
-0.00243323
-0.000369444
0.00290073
0.000157894
1.65089e-05
-0.000174403
-0.00147007
0.00112652
0.000343546
-0.000141669
-0.0049001
0.00505335
-0.00388962
0.0002259
-8.73716e-05
0.00444465
0.000577724
0.00406758
-0.0015157
0.000164984
-7.09027e-06
-0.00633241
-0.000987887
-0.000823928
0.00430054
-0.00190382
-0.00239672
0.00275695
0.0015436
0.00107766
-0.00563198
-0.00226184
-0.000554392
-0.00112087
-0.000957945
0.00207882
4.16186e-05
-0.00272348
0.00268186
-0.0023591
0.00123822
-0.00221809
0.00530378
-0.00461911
0.00160129
0.00301782
0.00254815
0.000663367
-0.000329752
-0.000333615
-0.00601516
0.000582872
0.00543229
-0.00419584
0.00583041
-0.00163457
0.00182555
0.00162966
-0.00345521
-0.00167429
0.000897898
0.000776389
-0.00271517
0.00207946
0.000635705
0.00110443
0.000775866
0.000247201
-0.000328942
8.17424e-05
0.00489969
-0.00399471
-0.00638603
0.00557605
0.000809988
-0.00477859
-0.0016731
0.00334654
0.000639506
-0.00398604
0.000153974
-0.000162164
8.18976e-06
0.000590444
-0.000125294
-0.00046515
-0.00451895
0.00261514
0.000370983
-0.000572965
0.000201983
5.56045e-05
-0.000945394
-0.00257575
0.00448444
-0.00530563
-0.000322513
0.00562814
0.000186251
0.000207363
-0.000393614
0.000838742
-0.000838742
0.00168562
-0.00072565
-0.00211211
0.00181291
0.000299204
0.00440087
-0.00302329
-0.000162428
6.26159e-06
-0.00120565
0.00126125
0.000694307
0.00130607
0.00234872
-0.000269252
-0.00401981
-0.00128581
0.00111785
-0.00498243
0.00321255
-0.00447169
0.000835163
-0.00213566
0.0013005
0.00335961
-0.00458359
-0.0027114
-0.00180756
-0.00483712
0.00469545
-0.000676353
-0.00533881
-0.00515963
0.00149732
-0.0014704
-2.69198e-05
0.00223455
0.000114166
-0.00601414
0.00204861
0.00396553
-0.00121933
0.000525999
0.000693327
0.00145257
0.0029483
-0.00462576
-0.00101484
0.00564062
-0.000212831
0.000138532
7.42986e-05
-0.00551782
0.00132197
0.0037531
-0.00493691
0.00118381
-0.00149589
-0.000616217
-0.000536678
-0.000637499
0.00013836
-0.000203836
6.5475e-05
0.00499326
-0.00386013
-0.00130019
0.00512554
-0.00382535
-0.000419393
-0.000786258
-0.0058611
0.000439555
0.00539559
-0.0061653
0.00456955
-0.000921532
-0.00546451
-0.00109332
-0.000376747
-0.0018174
0.00285739
-0.00103999
-0.000419162
0.000322034
9.71284e-05
-0.00173204
0.00141743
0.00161059
-0.000113263
0.000825021
-3.67401e-05
-0.00169531
0.00279638
0.00121767
-0.00303507
0.0060516
-0.00047555
0.00528002
7.06291e-05
-0.00528202
0.00439149
0.00114332
-0.00553482
0.000556465
-0.000768761
0.000212296
-3.97193e-05
-0.000407933
-1.47284e-05
0.00606632
-0.000162183
0.000156827
5.35608e-06
0.000133363
2.06107e-05
0.00253936
-0.00335785
0.000818493
-0.00191366
0.000714873
0.00119879
0.00792606
-0.0034554
-0.00447066
0.00117021
0.00126502
-0.00243524
0.000108537
-0.00017518
6.66436e-05
-0.000805882
0.00133188
0.00116116
0.0031827
-0.00434386
-0.00561393
0.000165841
0.00544809
-0.00401967
0.00299478
0.00173491
0.004795
0.00458683
0.00333922
-2.13726e-05
0.000190906
-0.000169533
-0.00130571
0.00439588
-0.00309017
0.000299825
-0.000339545
-0.000131347
-8.14833e-05
0.00410131
-0.00227577
0.00475682
-0.00501288
0.000256067
-0.00323661
0.00607674
-0.00284012
0.00252752
0.00157379
0.00575434
-0.000997521
-0.00139348
-0.00562103
0.00137258
0.00424844
0.00065482
0.000520564
-0.00117538
0.0012696
-0.000614781
0.000585522
-0.00111029
0.000524768
0.00110609
0.000277948
0.000385419
-0.000678255
0.00443135
0.00151868
-0.000392161
0.00353418
-0.00612501
0.00259085
0.00153433
-0.00258511
0.00105078
-0.00432047
0.00116407
0.0031564
0.00291544
-0.00422116
-0.00491271
-0.0012526
-0.00409971
0.00126746
0.00283225
0.00124762
0.00314826
-0.0032652
-0.000834523
0.0022266
-0.00105639
-0.000680104
-0.00253196
0.00321206
0.0024083
0.000617108
-0.0030254
-0.00158864
0.00120035
0.000388294
0.000269954
0.00149018
-0.00196615
0.000475967
-0.000110889
-0.000222707
-0.000264461
0.000153572
-0.00435405
-0.000250627
-0.000293375
0.00117369
-0.000880319
0.00435177
-0.00464535
0.000293582
-8.84237e-05
0.00011777
-2.93462e-05
0.000973019
0.00338178
-0.00435479
-0.000157005
6.85811e-05
-0.00475212
0.00071057
0.00404156
-0.000747255
0.000131767
0.000615485
8.56787e-05
-7.99556e-05
-0.00040034
0.000864674
-0.000347469
-0.000517206
-0.00603569
0.000637307
-0.00254968
-0.000128172
0.00267784
-0.00316962
0.00441724
0.00218083
-0.00108873
-0.00116719
-0.00117953
-3.62222e-05
-0.00352024
-0.00123781
0.00151018
-0.000405601
-0.00110458
0.00191933
0.00183841
-0.00375773
0.00504512
-0.00161335
-0.00343177
0.000793337
-0.0054191
-0.00137393
0.00300359
0.00195885
0.000783198
-0.00274204
-0.00349917
0.0044722
-0.000152949
2.70365e-06
0.000934828
-0.004434
-0.00449753
-0.000147838
-0.000997756
-0.00461618
0.00462917
0.0014889
0.00355621
0.00416122
0.00114124
-0.00530247
3.60269e-05
5.9257e-05
-9.52839e-05
-0.00140844
0.00336729
0.00370761
0.00355412
-0.00140109
0.00237117
-0.000970074
-0.00248204
0.000462807
-0.000878409
0.000751445
-0.000216171
0.000402422
-0.000211984
0.00170217
0.00376383
-0.0018445
-0.00106981
-0.000604484
-0.000107227
-0.000157234
0.00355045
-0.00163337
-0.00240372
0.0046528
0.000674489
-0.00309588
0.0024214
0.000635617
0.000763335
-0.00105671
0.00210018
-0.00131239
-0.00327577
0.00458815
-0.00215378
0.00481419
-0.000552147
0.00344499
0.000239389
-0.000222138
-0.00236321
0.000962126
0.00231903
-0.00386778
0.00154876
-0.00121936
5.74657e-05
-2.1439e-05
0.0021474
-0.00279717
0.000649778
-0.00116851
-0.000420126
-0.0035251
0.00450115
0.0011935
0.00167613
-0.00286963
-0.00169096
0.00366473
-0.00197376
0.00424089
-0.000859114
0.000234353
1.41091e-05
-0.000248462
-0.00372319
0.00203222
-0.0014281
0.00471819
-0.0032901
0.000878003
0.00130283
0.000165747
0.000672993
0.000253066
-0.000300753
4.76875e-05
0.00169476
0.000209673
-0.00190443
0.00302022
-0.00459006
0.00156984
-5.2852e-05
0.000374291
-0.000321439
0.0015623
-0.000361957
0.00140415
-0.000602821
-0.000801329
0.00282365
-0.00392616
0.00110251
0.00268012
-0.00374258
0.00106247
-0.00516549
0.00192888
0.00390263
-0.000882403
-0.000633913
-0.00237699
0.00301091
0.00140745
-0.00511779
0.00371034
0.00336053
-0.00145893
-0.00190161
-0.00068295
0.00172596
-0.00104301
0.00477139
-0.00303648
-0.00069865
-0.00196086
-0.00598211
0.00514178
3.93234e-06
0.000121761
-0.000125693
-0.00157797
0.00120012
0.000377848
-0.00491141
0.00631132
-0.00139992
-0.00188577
0.00071426
0.00117151
0.000408251
0.0026865
-0.00208811
-0.000598383
0.0034351
0.000489684
-0.00392479
0.000129142
-2.06047e-05
0.0051723
0.000336434
-0.00550873
-0.00194102
0.00379776
-0.00185674
0.00276934
-0.000638412
-0.00213093
0.000462545
0.000402129
-0.000437476
0.00387257
0.00202579
-0.00396681
0.000702608
-0.000266837
-0.00043577
-0.000650861
1.15212e-05
0.000639342
-0.00315275
-0.00576537
0.00576507
-0.000274296
0.000950961
-0.000676666
-0.002289
-0.000193049
-0.00455305
0.00324065
-0.00086991
0.00112789
0.00360837
-0.00501937
0.001411
0.000410675
-0.00296034
0.0023317
-0.00244098
0.00010928
-0.00157143
0.00148228
8.91485e-05
-0.00121046
-0.000367507
-0.00339189
0.00342853
-0.00223502
0.00045727
0.000133173
-0.00173546
0.00105251
-0.00279427
0.000743006
0.00205127
0.000242366
-8.0126e-06
-0.00347733
0.00102244
0.00245489
-0.00144415
0.00560537
0.000339163
-0.000955085
0.000615922
0.00212068
0.000648661
-0.00127775
0.000304281
0.00111405
0.00121765
-0.00142572
0.00495584
-0.00353012
-0.0048473
0.0057658
-0.000918508
-0.00117494
0.00228438
0.00410476
0.00107522
3.52113e-05
0.00586328
-0.00551639
-0.000346893
0.0035526
-0.004659
0.0011064
0.0030921
-0.000683802
0.00542682
-0.00181845
-0.00250369
-0.000973633
-0.00217775
-0.000316582
0.00249434
0.00241326
-0.00196187
-0.00160817
-0.0042419
0.00274808
0.00149382
-0.000329603
0.0012275
0.00121169
0.00365552
-0.00486721
-0.000309291
0.000680274
0.00305956
-0.00238507
-0.00472471
-0.00125741
0.00647082
-0.00129852
0.00424111
0.00206202
0.000496793
0.00285478
-0.00212579
-0.000728993
0.00473653
-0.00245215
-6.98201e-05
-0.00332808
-0.000866955
0.00419503
0.000388165
-8.65472e-05
-0.000301618
-0.00514327
0.00610762
-0.000964345
-0.000730209
0.00190683
-0.00117662
-0.000697173
0.00525255
-0.00455539
0.00118534
-0.00191555
-0.000113347
-0.00576246
-0.000789621
0.00202575
0.00383754
-0.000250686
-0.00192706
0.000251403
-4.20181e-06
0.000362563
-0.000487856
0.00336142
-0.000822064
-0.00522668
-0.000271604
-0.000147559
0.000150199
-0.000133586
-1.66129e-05
-0.00248388
0.000124778
-0.000421861
0.00159082
-0.00101619
-0.000574629
0.0024671
0.000598033
-0.00306514
-0.000718127
0.00318522
-0.00520293
-0.000271503
0.00547443
0.00375071
0.00137483
0.00440954
-0.00122684
-0.000130885
0.00254415
0.00540385
-0.000206668
-0.00519719
-0.00608731
0.00425256
0.00183476
0.00321193
-0.00126803
-0.004353
0.000203046
-0.000224418
0.00058125
0.000822898
0.00111569
0.000142896
-0.00125858
0.00421231
0.00119154
-0.0009609
0.00317215
-0.00221126
0.00473246
-0.00138592
-0.00217918
0.002793
-0.000613815
-0.00117687
-0.000105244
0.000301633
-0.000196389
0.00344635
-0.00414353
0.00134839
-0.000989612
-0.000358777
0.00159685
-0.000396725
-0.00325121
0.00229031
0.00548746
-0.00434414
-3.06339e-05
0.000352669
-0.00535777
0.00044636
0.00544347
-0.0019093
-0.0010009
-0.00361487
0.00461577
-0.00064614
0.00288331
-0.00223717
0.00549726
-0.00286246
-0.00263481
-8.83979e-05
0.000591801
-0.000677109
0.000660546
1.65624e-05
-0.000692567
0.00173183
-0.00103926
-0.00314912
-0.00117135
0.000155565
-1.72041e-05
-0.00122485
-0.00478929
-0.00307652
0.00239641
-0.000597934
-0.000240806
-7.26189e-05
-8.95638e-05
-0.0012124
-0.000805621
-0.00523007
-0.00283827
0.00219213
-0.000817195
0.00118907
0.00113
0.00437563
-0.00550562
0.00339413
-0.00275463
0.000468979
0.000773491
-0.00288478
0.0021113
0.00498585
-0.00493464
-5.12023e-05
-0.0032095
0.00361558
-0.000406071
0.000207793
-9.56081e-05
-0.000112186
-0.00498729
-0.00148354
-0.00175922
0.00369092
-0.0019317
0.00298204
-0.00220854
-0.00378417
0.00202496
0.00139503
-0.00258175
0.00118671
-0.00363278
0.00568139
0.00649878
-0.00219597
-0.00430282
-0.0024003
0.00237499
2.53206e-05
0.00560946
-0.00163776
0.00118503
-0.000923209
-0.000261821
-9.1082e-06
0.000262174
0.000250131
-0.000774884
0.000524752
-0.00304809
0.00365097
-0.000970849
0.000847059
-0.00104912
0.00236334
-0.000632751
-0.00173059
0.00219894
-0.000504175
0.00452368
0.000630804
0.00173254
-0.00175659
0.00106402
0.000408597
-0.000464694
5.60967e-05
0.00221306
-0.00174367
-0.000469387
0.000829461
-0.00514778
-0.000544535
0.000369491
-0.000588347
0.000218855
-0.00410129
0.00547387
0.000942167
-0.00111664
0.000174476
-0.00152986
0.00216607
-0.00063621
-0.00148997
-0.00275193
-0.00537776
-0.00015947
0.00553724
0.000300302
0.000108296
4.19028e-05
0.000127463
-0.000127398
-6.5049e-08
0.00411503
-0.00290334
-0.00380114
-0.00232386
0.0034656
0.00303318
-0.00259373
0.000725829
0.0018679
-0.000844666
0.00223969
-0.00229786
-0.000102445
0.00272932
-0.00377736
0.00104804
0.00130959
-0.000135898
0.000460648
0.000550137
-0.00327834
0.000964198
0.00231414
0.000912805
-0.000600268
-5.05945e-05
-0.00427581
0.00172218
0.000105033
-0.00182721
-0.00396539
0.00146414
0.00250125
0.000521017
0.00147211
-0.000890862
-0.000246269
-0.00466023
0.0049065
0.000784349
-0.00247676
0.00169241
0.00120221
0.00131231
-0.000466756
-0.00171937
0.00218613
0.00258007
-0.00179572
0.00446959
-0.00353476
-0.000781343
-0.00264097
-0.000227261
0.000251741
-0.000702894
0.00176335
-0.00106046
0.0026604
-0.0036668
0.00100639
0.000136433
2.03946e-05
-0.00236366
-0.000914681
0.00142122
-0.00163641
0.000215195
-0.00277477
0.000686661
0.00127625
-0.00141877
0.000142515
0.00161854
-0.00180788
0.000189343
0.000675605
-0.00372658
-0.0011621
0.00134709
-0.00489817
0.00355108
-0.00091384
0.00357422
0.000118418
-7.91685e-05
-3.92493e-05
0.00474868
-0.00361867
-0.000321414
-0.00153041
-0.00401993
-0.00149789
0.00209276
0.000700235
-0.00101071
-0.000922891
-0.00451922
-0.00161881
-0.000365602
0.00124206
-0.000930649
-0.000311414
-0.00149635
-0.00108877
0.000656352
0.00225784
-0.00291419
-0.000114282
0.000670745
-0.000715943
3.88348e-05
-0.00245941
0.00196648
0.00139405
-0.000701315
0.00161699
-0.000915673
-8.68736e-05
-0.000116962
0.000318856
-0.00194614
0.000450247
0.00160958
-0.00231036
0.000700781
-0.00334263
0.00258373
0.000758887
0.00119907
0.00241364
-0.00361271
-0.00175333
0.00105044
-0.00294176
-0.00102362
-0.000790806
-0.00255182
-0.00167734
0.00125319
0.000424158
0.00176626
-4.4084e-05
-0.000762373
-0.002435
0.00319737
-0.000673591
0.00291427
-0.00225791
-0.000858535
-0.00394759
0.00480614
-0.00234339
0.00233999
3.40626e-06
-0.000747255
-0.0015606
0.000544412
-0.0024064
0.00381997
-0.00141358
0.00323289
0.00288515
0.000194376
3.62335e-05
-0.00023061
0.0023403
-0.000602507
-0.0017378
0.000188039
-0.000184106
-0.00359025
0.00493734
-0.00328741
0.0052416
-0.00195419
-0.0035098
-0.00150957
-0.000914886
0.00323241
-0.00231753
0.00285542
0.00177433
-0.00418074
-0.00499778
-0.000145482
-0.00078939
0.00284833
-0.00205894
-0.000431692
0.00037884
-0.000530869
0.00167591
-0.00114504
-0.00403243
0.00334241
0.000690022
-0.00326955
0.00235466
-0.00386911
0.000674358
0.00319475
0.00141267
-0.00101423
-0.000398441
-0.00589958
0.000696649
0.0018467
-0.001411
-0.000435696
0.00141695
-0.000415536
-0.00100141
7.83766e-05
0.000129417
0.00293185
-0.000635183
-0.000220175
-0.00348816
-0.000380952
0.000428338
-0.00305435
-0.000978091
-0.00233726
-6.12629e-06
-0.00292549
0.00229157
0.000720434
0.00260199
-0.00332243
0.000585549
-0.000859845
0.00140994
-0.00671838
0.00530844
-0.0057716
0.000993009
-0.00234058
0.00353965
0.000692596
0.000258367
-0.00273313
0.00345356
-9.36624e-05
0.00507951
0.000614074
0.00170597
-0.00232005
-0.00177643
0.00124557
0.00274764
-0.00369578
0.000948144
0.0051015
0.000668831
0.00154422
0.000313555
0.000389052
-0.000364004
-0.000404757
0.000180981
-0.00174639
0.00176686
-0.000888854
0.000864114
0.000607994
-0.000583586
0.00301057
-0.00242698
-0.00150265
0.00184262
-0.000339964
-0.00489533
0.00380349
0.00109185
-0.00479769
0.00151028
-4.04437e-05
4.00125e-05
4.31192e-07
-0.00281111
-0.000855678
0.001085
-0.00129325
0.000208253
0.00135641
-0.00494666
0.00108985
2.58332e-05
0.00123991
0.000694998
0.00218831
-0.00366748
0.000856373
0.000189668
-0.00503697
0.0018996
0.00121917
0.000687657
-0.00527342
-0.000491954
0.00565173
0.00118622
0.00710734
-0.00218379
-0.00492355
0.000784883
-0.000373056
-0.000411829
0.000715102
-0.00138392
0.000779436
-0.00386136
-0.00125643
0.000301633
-0.000940525
-0.000413381
0.00135391
0.00233069
0.00400853
-0.00486706
0.0027029
0.000834352
-0.00353726
0.00124876
-0.000964668
-0.000284092
0.000745046
0.00159525
-0.000135079
0.000138315
-3.23607e-06
-0.000709317
0.00288372
-0.0021744
0.00362122
0.00109697
-0.0012628
-0.000414546
0.00140358
-0.00155728
0.000153696
4.6478e-05
7.19398e-05
-0.00447722
0.000967418
-0.00165465
0.000444178
-0.00364862
0.00293048
-0.000949157
6.58954e-05
0.000934607
0.0026805
-0.00361511
0.000851514
-0.0012672
0.00418978
-0.00292258
0.000318109
0.000279891
4.65715e-05
-0.000326463
7.83568e-05
-0.00539159
0.00531324
-0.0026336
-0.000779322
0.00341293
-0.00349171
0.00260985
0.000881862
-0.00277195
-0.000262489
-0.00171463
-0.00491182
0.000891893
-0.00145542
-0.000881842
-0.00106319
0.00379251
0.00170952
-0.00372651
0.00201699
0.00010535
2.21132e-05
0.00372651
-0.00201698
0.00286379
0.000956961
-0.00382074
-0.00130328
0.00174211
-0.000438819
0.00357427
0.00109977
-0.00467404
0.00718764
-0.00197365
-0.00521398
-0.00212738
-0.000710883
-0.00173152
0.00234559
0.00377333
-0.00492756
0.00115422
-0.00280276
0.00373737
0.00113945
-1.473e-05
-0.00112472
0.00148193
0.00090801
-0.00550726
0.000594547
0.000430144
0.000354739
0.00292152
-0.001122
-0.00252148
0.00248044
4.10416e-05
0.000504711
-0.00184061
0.0013359
-0.00387183
-0.00119124
0.00108977
-0.00254519
-0.00529911
0.000151328
-0.00125024
-0.000525703
0.00177595
0.00563478
-0.00449353
0.000104383
0.000283783
-0.0030179
0.00318854
0.00144129
-0.00107283
-0.000368459
0.00346869
0.00475839
-0.00095491
0.000641987
-0.00327558
0.00111924
-0.000987472
-5.28849e-05
0.000461481
0.000394025
-1.9734e-05
-0.00207051
-0.000455172
0.00154017
-0.000907988
-0.00349764
0.000764515
-2.77157e-05
-1.2728e-05
0.00599847
-0.00492079
0.0052222
-0.00439394
1.03246e-05
-0.000615485
0.00060516
0.00194901
-0.000458392
-0.00149062
0.00335884
-0.000756854
-0.00256817
0.00336102
-0.000792848
-0.00183283
0.000529552
0.00127918
-0.00095298
-0.000326204
-0.000118768
-0.000210174
0.00205925
-0.000548163
-0.00151109
-0.00138177
-0.00239409
-0.00012738
0.00208978
-0.00274543
0.000655646
0.00280635
-0.000750504
-0.00205585
0.00410326
-0.00434952
0.000314517
0.0022402
-0.000630624
-0.000682017
0.00083568
-0.00367551
0.00503191
0.00123511
0.000467961
-0.00171821
-0.00286541
0.00209703
0.00363338
0.00158882
-0.00113968
-0.00383166
-0.00114116
0.00130407
-0.00171773
0.000413661
0.00367565
-0.00318598
-0.000193821
0.00113599
-3.86117e-05
-0.000269511
0.000308123
-0.000695439
-0.00189829
0.00377197
-0.00490838
0.00113641
-0.00186369
0.00235106
-0.000487373
-0.00115559
0.00213272
0.000750993
-0.00226364
0.00375519
-0.00149155
0.00150684
-0.00114268
-0.000364159
-0.00103566
0.000288408
0.000215304
-0.0004411
0.000225796
-0.000427422
-0.00122722
-0.00247938
0.00250485
-2.54657e-05
0.0014474
-0.00371105
0.00162324
-0.000370048
0.000369846
-0.000435179
6.53333e-05
-0.000827087
0.000594925
0.000232163
-0.000794738
-0.0028489
0.000828077
0.00202082
-0.00199661
-0.000849911
-0.000728562
0.00157847
-0.00524262
0.00389507
0.00134755
-0.0012657
0.00127603
-0.000576404
-0.000115912
0.000692316
0.00286855
-0.000735841
-0.000770357
-0.000160202
0.000930559
0.00184152
-0.00137356
0.00169843
-0.000394357
-0.000146466
-0.000637911
-0.00420527
0.00484318
-0.0013957
0.00283112
0.00427622
-0.00239909
-8.02864e-05
0.0031222
-0.00473555
0.000732949
0.00158199
-0.00231494
0.00201121
-0.00280059
0.00199196
-0.000722588
-0.00126937
-0.00179601
0.000455777
0.00134023
0.00432294
0.0028647
-0.0055207
0.00133886
0.00418184
-0.00125245
-0.00399017
-0.000460026
-0.00133599
-0.000999865
-0.000560738
-0.00129281
-0.000424931
0.00114353
-0.000533347
0.00150933
-0.00097598
-0.00175715
0.00129712
-0.00094456
-0.000207135
0.0011517
0.00217151
-0.00286729
0.00069579
-1.17722e-05
0.000206148
0.00103593
0.00606872
-0.00140746
-0.00466127
-0.00203594
-0.00187392
0.00133993
0.000533991
0.00127129
-0.000978337
-0.000292955
-0.00229447
-0.00102554
0.00332002
-0.00267127
0.00358365
-0.000912384
-0.000919849
0.00111998
8.11507e-06
-0.0011281
0.0037613
-0.00493743
0.00117613
0.0017476
-0.00135554
-0.000392057
0.00242707
-0.00122486
0.00273704
-0.000635511
-0.000191576
-0.0040933
0.00229566
-0.00180087
-0.000494792
0.000560408
-0.00200912
0.00144871
-0.002515
-0.000842848
0.000860032
-0.000658296
-0.000201736
-0.000179959
-0.00364303
0.000971757
0.000680243
-0.000464938
0.00259299
0.000990664
0.000318313
0.0013067
0.000685254
-0.00160349
0.00233644
-0.00150068
0.000990784
0.00050989
0.00355139
-0.000687588
-0.00380888
0.00610217
-0.00114708
-0.00248671
0.00683395
-0.00434724
-0.000888477
0.00356899
-0.00414181
0.00093232
-0.00210124
0.00424988
-0.000691624
-0.00161873
-0.00245032
0.00171273
0.000737595
-0.00127973
0.000452158
-0.000480291
2.81344e-05
-0.00137619
-0.000776689
-0.000153634
0.000930323
-0.00156828
0.00136333
0.000204947
0.00203881
0.000809515
6.26661e-05
-0.00130016
-0.000552746
-0.000831173
-0.00241988
-0.00047929
-0.00139463
-0.000171326
0.00159254
-0.000180686
0.0034117
-0.000514335
0.00133892
0.000200778
-0.000821051
-0.000988846
-0.00193013
0.00247691
-0.00054678
-0.00104726
-0.0057289
0.00351082
0.00148462
-0.000620503
0.00288909
-0.00121297
0.000962359
-0.00135906
-0.00453018
0.00588924
0.000620266
-0.0025504
0.000741176
-0.00368825
0.00269894
0.000989299
0.000889568
-0.00142291
0.00222709
-0.00311917
0.000892069
0.00119571
-0.00342987
0.00223416
0.000860536
0.00168815
-0.00254868
-0.000174628
0.00179317
0.00274472
0.00107942
0.00362091
-0.000413525
0.000783015
0.00315897
-0.00402592
0.000981172
-0.00327563
0.000435632
0.00412543
0.00147444
-1.09057e-05
-0.000274719
0.000285624
-0.00619247
0.00385668
0.00233579
-0.00082919
-0.002615
0.0034442
0.00263971
-0.00177917
-0.00369717
0.00089441
-0.00132148
-0.000435672
-0.000152842
0.00131971
0.00372605
0.00122978
0.00022452
0.00130879
-0.000992239
-0.000316549
0.000901093
0.000583525
-0.000313809
0.00376889
-0.00493449
0.0011656
0.0030779
-0.000850817
-0.00139867
0.00190337
0.00125973
-0.00355555
0.00229582
-0.00116854
0.00145619
0.000678543
-0.00213473
0.000193025
-0.000203932
0.00219847
-0.000860006
-0.00126931
0.00033045
0.000928764
-0.000349654
-0.00057911
0.00353323
-0.0022735
-0.000508719
0.00229084
-0.00178212
0.00102116
-0.00296765
0.00208356
0.00088409
0.000106339
-9.88741e-07
0.00467045
0.000534861
-0.00570027
-0.00519749
0.00392879
0.0012687
-0.00107744
-0.00269522
0.00377265
0.00222133
0.00372511
0.0028278
-0.00375459
0.000926794
-0.00146901
0.00110151
-0.000955329
0.0033749
-0.00241957
0.00149692
0.000562333
-0.00378485
-0.00240762
0.00107562
-0.00230221
0.00321404
-0.000911836
0.0034351
-0.000825245
0.000396013
-0.000810092
0.00254348
0.000891617
-0.000635249
0.0043109
-0.00130895
0.0017164
-0.000407445
0.00199537
-0.00128049
-0.000389592
0.00607682
-0.00491647
-0.000461294
0.000858717
-0.00246221
-0.00539164
-0.00172258
0.00041363
-0.000678157
0.000101753
-0.000869367
0.000213019
-0.00146956
0.00066664
0.00157356
-0.000905445
0.000135088
0.000805054
0.0025162
-0.00332126
-0.00109512
0.00187365
-0.00194683
-0.000474263
0.00196116
-0.00148689
-0.000881971
-0.00208567
-0.00195173
0.00147747
-0.00265757
0.00346261
-0.0016416
0.000583815
0.00105778
-0.000979009
0.00357199
0.00602067
-0.00231306
-0.00130334
-0.000419244
-0.00173987
0.00110099
0.00063888
0.000905202
-0.00451998
0.00361478
-0.00131349
0.000544035
0.00076945
-0.00403609
-0.00116141
0.000191633
-0.00113619
0.00193965
-0.000720477
-0.00134857
-0.00380393
0.0051525
0.00100436
7.08594e-05
0.00329758
-0.00252837
-0.000769211
0.000148483
0.00126846
0.00087747
-0.000670466
-0.000207004
-0.00134726
-0.00101595
-0.00108048
0.00511912
-0.00403863
0.000634932
-0.00249862
0.000122448
0.00128113
0.0037724
-0.00496245
0.00119005
0.00287886
-0.00205078
0.000101991
-0.000168401
6.64106e-05
0.00102772
0.000138089
0.000104276
0.00235753
0.0037112
-0.00058356
-0.000806061
0.00138962
0.000653583
0.00177125
-0.00242483
0.00240263
-0.00170666
-0.000695972
0.000475654
0.00147335
0.00042612
-0.000512065
-0.000801422
0.000600353
-0.00532506
0.000690358
-2.9813e-05
-0.00116208
-0.00131385
-0.00379547
0.00510932
0.00103373
0.00143719
-0.00189558
0.00254687
-0.000394869
-0.00490868
0.00530355
0.000120783
-1.87923e-05
0.000655301
0.00128435
0.00272893
0.000945056
-0.00367398
0.0013752
0.000471497
0.00258658
-0.00364198
0.00454718
0.00277402
0.000843587
-0.00361761
0.00162778
-0.000838495
-0.000789287
0.00132796
-0.00101866
-0.000309296
0.000423592
0.0010585
-0.00470048
0.000219173
-6.61454e-06
0.00019964
0.00604444
-0.00129578
0.00152606
-0.00212856
0.00252788
-0.00182452
-0.000703359
0.000862328
-0.00254621
0.00168388
0.00523455
-0.00281639
-0.000926184
-0.001588
0.00501191
0.00148637
-0.00178138
0.000295008
0.000499859
-0.000103706
-0.000396151
-0.000994872
-0.00314171
0.00413659
0.000742187
0.00181953
-0.00256171
0.00176751
-0.000281143
0.00224819
0.0014058
-0.000861767