/*--------------------------------*- C++ -*----------------------------------*\
  =========                 |
  \\      /  F ield         | OpenFOAM: The Open Source CFD Toolbox
   \\    /   O peration     | Website:  https://openfoam.org
    \\  /    A nd           | Version:  7
     \\/     M anipulation  |
\*---------------------------------------------------------------------------*/
FoamFile
{
    version     2.0;
    format      ascii;
    class       volVectorField;
    location    "0.624";
    object      U;
}
// * * * * * * * * * * * * * * * * * * * * * * * * * * * * * * * * * * * * * //

dimensions      [0 1 -1 0 0 0 0];

internalField   nonuniform List<vector> 
12359
(
(0.981845 0.000970516 2.9595e-16)
(0.969317 -0.000429983 -2.79305e-17)
(0.999964 -1.30171e-05 -4.32763e-17)
(0.929585 -0.00191165 8.52186e-19)
(0.976625 -0.0015931 1.1653e-16)
(0.878335 -0.00523696 6.24519e-17)
(0.838474 0.00179753 -1.45681e-17)
(0.854707 -0.00071467 1.28789e-17)
(0.78785 0.0134471 -1.1525e-16)
(0.900129 -0.000995321 1.88298e-17)
(0.819825 0.00864984 -1.41662e-16)
(0.735412 0.0249526 1.0977e-16)
(0.323543 0.0748162 -5.38403e-17)
(0.92371 7.70889e-05 3.0391e-18)
(0.93638 -0.00137105 -6.46362e-17)
(0.519134 0.0066048 -4.08927e-17)
(0.398522 0.0185162 -1.40164e-17)
(0.994596 7.71608e-05 -8.41493e-17)
(0.995281 0.000124655 -1.18134e-16)
(0.95472 -0.001433 -5.69086e-17)
(0.918941 0.000747857 2.19744e-17)
(0.757823 0.0255924 9.59812e-17)
(0.961387 -0.00137713 -1.33224e-16)
(0.949561 0.00033882 1.2757e-17)
(0.966171 -0.000447807 -1.294e-16)
(0.958561 -0.00104876 -3.30313e-17)
(0.998375 -3.65375e-05 -2.0795e-17)
(0.998492 -5.80459e-05 -2.85896e-17)
(0.99567 -2.16559e-05 5.51232e-17)
(0.997785 -3.16466e-05 -4.04809e-17)
(0.997312 3.5961e-05 -3.66222e-17)
(0.999355 3.06254e-05 -1.39573e-17)
(0.999766 -4.85456e-06 -5.17186e-17)
(0.998076 -8.06966e-05 -2.52177e-17)
(0.999919 -1.15618e-06 2.15284e-17)
(0.997108 -4.63143e-05 4.09134e-17)
(0.988775 -0.000217488 -1.0887e-16)
(0.983051 -0.000128086 1.85509e-16)
(0.980134 -0.000651249 1.31708e-16)
(0.985938 -0.000151061 -2.04264e-16)
(0.972107 -0.00117186 -8.55886e-17)
(0.984544 -0.000348173 -6.23046e-17)
(0.991431 0.000147606 1.18027e-17)
(0.992456 -0.000306561 1.27146e-16)
(0.996497 -0.000142881 9.3458e-18)
(0.996161 -0.000114772 3.32953e-17)
(0.996819 -4.45783e-05 6.81927e-17)
(0.997495 -7.99157e-05 -7.41975e-17)
(0.995427 6.01873e-05 -9.12381e-17)
(0.998247 -3.31301e-05 -1.30362e-17)
(0.99876 -4.40942e-05 -2.15974e-17)
(0.998921 -7.24649e-05 -1.86972e-17)
(0.999447 3.28755e-05 -4.7021e-17)
(0.994169 -0.000187095 5.15805e-17)
(0.99954 3.22604e-05 6.38062e-17)
(0.999741 -1.97707e-05 -2.45846e-17)
(0.99293 -1.05772e-06 -1.05731e-16)
(0.999738 1.77538e-05 -1.13051e-18)
(0.999828 -3.2042e-05 4.38326e-17)
(0.999922 2.26911e-05 -2.29884e-17)
(0.999703 4.30295e-06 1.50842e-17)
(0.999934 -2.93566e-06 1.99941e-17)
(0.998919 -1.85565e-05 -2.25633e-17)
(0.209661 0.0909779 -9.44941e-16)
(0.993489 -0.000153861 5.9246e-17)
(0.911672 0.000810727 8.54174e-18)
(0.989834 0.000155719 1.56478e-16)
(0.999051 -7.39159e-05 -1.15506e-17)
(0.987704 -0.00052713 6.5257e-18)
(0.623025 0.0214125 2.66568e-17)
(-0.034842 -0.0610561 5.39331e-15)
(0.973489 -0.00128647 3.72595e-17)
(0.99998 -1.64758e-05 -3.08984e-17)
(0.98674 -0.000332009 1.78336e-16)
(0.940967 -0.00158158 -1.03543e-16)
(0.999862 -3.14198e-05 -4.11826e-18)
(0.999414 -3.08996e-06 -9.58729e-18)
(0.999973 -4.60638e-07 3.55052e-17)
(0.990174 -0.000277351 -5.68921e-17)
(0.658824 0.00245294 2.51599e-16)
(0.92479 0.0556968 2.47676e-18)
(1.00367 0.00261815 -4.31214e-18)
(1.00002 -1.66622e-05 3.73766e-18)
(0.998278 0.0119652 3.70483e-18)
(1.09837 0.145227 -5.89992e-18)
(1.0217 0.000992526 -6.75544e-18)
(1.0039 0.00252741 1.62621e-17)
(1.00141 7.96239e-05 -8.46604e-18)
(1.11558 0.0578042 1.1323e-17)
(1.0944 0.152637 9.72282e-18)
(0.999981 0.000118507 3.0639e-17)
(0.235631 0.162956 -5.21755e-16)
(1 -8.08562e-06 -4.99783e-18)
(0.999673 0.00587872 3.87248e-18)
(0.999482 0.0108412 9.95242e-18)
(1.03858 -0.000460841 -1.21863e-20)
(1.00013 0.00505582 3.40931e-20)
(0.999382 0.00610399 -1.36748e-17)
(0.990496 0.0295934 1.40545e-17)
(0.994478 0.0187414 6.6417e-18)
(0.942408 0.0743583 6.15198e-17)
(1 2.04166e-05 4.46551e-18)
(1.02244 0.000812866 -3.18175e-18)
(1.25043 0.100547 -1.9714e-18)
(1.00467 0.00116206 6.39711e-18)
(1.03269 0.0205212 -1.99819e-18)
(1.00028 -5.30465e-05 -4.44212e-18)
(1.09851 0.147065 1.98495e-17)
(1.01876 -0.00251068 -4.9169e-19)
(1.03332 0.0197762 -3.2509e-18)
(1.00009 0.00507349 -7.51769e-18)
(1.0035 0.00280319 -4.06564e-18)
(0.938112 0.0456556 -1.10094e-17)
(0.955769 0.0742277 3.72529e-17)
(0.999048 0.0103286 -1.09079e-17)
(1.00335 -0.00029217 4.83791e-18)
(0.958132 0.0814178 8.75163e-17)
(1.00442 0.00229207 9.70364e-18)
(1.12204 0.0402164 3.16469e-17)
(1 1.70173e-05 -2.04223e-19)
(1 0.00492299 -2.47837e-18)
(0.868988 0.0241474 3.29463e-16)
(1.00179 0.000147066 9.57684e-18)
(1.03749 0.00574473 -3.2355e-18)
(1.00485 0.00213124 -1.49538e-17)
(1.00327 0.000546732 -6.5831e-18)
(1.00982 0.0898403 7.73547e-18)
(0.997993 0.0127433 -5.05787e-18)
(0.999998 9.95812e-06 1.70599e-16)
(1.0047 0.00217542 9.71078e-19)
(1.00274 -0.000359141 -7.5897e-18)
(1.05072 0.0173289 2.43959e-18)
(1.05171 0.0168891 1.94182e-17)
(1.05182 0.0160662 1.85979e-17)
(1.00023 7.62162e-05 4.13919e-18)
(1.03602 0.00618308 -2.00393e-18)
(1.00287 0.000421169 2.14634e-17)
(1.03594 0.00591438 2.4249e-18)
(1.00001 9.11698e-05 -1.34545e-17)
(1.01075 0.0896615 8.0703e-18)
(1 2.90268e-05 -2.99672e-18)
(0.982564 0.00253313 1.13752e-16)
(1.03063 0.0122199 3.73848e-18)
(1.00028 2.64814e-05 1.67898e-18)
(1.03961 0.0379767 -4.10974e-18)
(0.902084 0.0263521 -1.65309e-16)
(1.00002 1.38036e-05 -5.03259e-20)
(1.09323 0.117001 -5.01485e-18)
(1.00513 0.00110216 1.03845e-17)
(0.916317 0.065258 7.47108e-17)
(1.03999 0.00140407 -1.5731e-18)
(1 2.56603e-05 1.9265e-17)
(1.03098 0.0133968 -1.01934e-18)
(1.00173 0.000214249 3.55258e-18)
(1.00001 -7.26765e-06 -5.84343e-19)
(0.587034 1.31876 -6.72098e-17)
(0.935505 0.0903161 1.23967e-17)
(1.05034 0.0177528 -1.56145e-18)
(1.00004 0.00514563 9.2798e-19)
(0.999105 0.000586427 -6.17471e-18)
(1.00424 0.0437937 -1.05136e-17)
(0.999071 0.00066534 6.8935e-19)
(1.03857 0.00547885 3.66914e-18)
(1.03303 0.0110137 2.05789e-18)
(1.00005 1.99648e-06 2.35827e-18)
(1.00332 0.000416907 1.95554e-17)
(1.00327 0.0435677 -1.97276e-17)
(0.870256 0.0122124 -1.34401e-16)
(1.03165 0.0106552 8.69545e-19)
(1.1205 0.0578987 1.86801e-17)
(0.999978 6.08829e-06 -6.36711e-17)
(0.999986 4.19805e-05 -6.66458e-17)
(1.03305 0.00850191 8.31384e-19)
(0.971574 0.00327752 -9.06993e-17)
(1.00495 0.00102655 3.25455e-18)
(1.00658 0.0893169 6.25889e-19)
(0.996445 0.000423952 -9.45396e-17)
(0.996515 0.000835581 -2.26505e-17)
(0.935578 0.048602 -7.81935e-17)
(1.00675 0.0858009 -8.30815e-18)
(0.937697 0.00621184 -3.01047e-16)
(1.00001 3.77125e-05 -7.12116e-19)
(0.999978 1.30153e-05 -7.61598e-17)
(1.00395 0.00269451 3.79479e-18)
(0.992027 0.0275826 -2.6144e-17)
(0.809187 0.100781 4.68597e-16)
(1.00433 0.00587691 2.71511e-18)
(1.00023 0.0103881 -1.27706e-17)
(1.03674 0.00272479 6.91669e-19)
(1.00477 0.00541009 1.37434e-17)
(0.999316 0.00980028 -2.4408e-17)
(1.03412 -0.000607999 1.95661e-18)
(1.0324 0.00160296 4.8781e-19)
(1.00168 0.00042399 8.16736e-19)
(1.03381 0.0189179 7.14653e-18)
(1.14854 0.063619 3.43083e-17)
(1.01494 0.0120983 -1.0261e-17)
(1.00357 0.00575638 -5.69253e-19)
(1.03062 0.01431 -3.75943e-18)
(1.00445 0.00242427 -5.38695e-18)
(0.893078 0.0270433 5.69609e-17)
(1.03735 0.0017159 7.93033e-19)
(0.993348 0.0186459 2.30818e-17)
(1.03323 0.0188399 2.45825e-18)
(1.03603 0.0358739 1.92285e-18)
(1.00001 1.98509e-05 -4.28844e-18)
(1.03713 0.0359933 4.42893e-18)
(0.99317 0.0171642 3.35824e-17)
(1.04025 0.00666766 1.15281e-18)
(1.00555 0.00411816 1.78022e-18)
(1.00001 3.24817e-05 -3.02088e-19)
(1.04576 0.0126065 -3.51172e-19)
(1.04515 0.0134997 -1.25357e-18)
(1.08117 0.115805 4.69083e-18)
(0.832352 0.0912064 1.78095e-16)
(0.999967 3.65157e-05 -3.96606e-17)
(1.00412 0.00582523 8.61933e-18)
(0.998889 0.00996426 2.03602e-17)
(1.00399 0.00570249 4.4496e-18)
(0.98223 0.00100815 1.42789e-16)
(0.946604 0.061369 -3.34266e-17)
(1.00545 0.0035192 -3.30698e-18)
(1.03724 0.00539164 -5.27239e-18)
(0.415071 0.325901 -6.04561e-17)
(1.00474 0.00261512 -1.75593e-17)
(1.00001 5.05022e-05 8.68542e-19)
(0.981401 0.00114856 5.61711e-16)
(1.01695 -0.000542648 -2.38666e-18)
(1.00128 0.0855546 -2.3602e-17)
(1.00297 0.00625005 1.54467e-17)
(1.00294 0.00616772 2.24962e-18)
(1.00003 9.44042e-06 -8.4389e-19)
(1.0385 0.037715 2.20598e-18)
(0.992693 0.0234393 -2.44907e-17)
(1.00048 0.00971065 -6.56355e-18)
(0.994663 0.0211983 1.2633e-18)
(1 2.03045e-05 -1.32646e-18)
(1.03171 0.0148073 -1.65078e-18)
(1.00041 0.010008 -1.31342e-17)
(0.638684 0.252731 -9.82544e-17)
(1.00009 4.06187e-05 5.38874e-19)
(1.02341 -0.00116922 -6.3631e-18)
(1.0004 0.008074 -2.42685e-17)
(0.989331 0.158996 1.13728e-17)
(1.0041 0.0476215 -1.06307e-17)
(1.09482 0.117119 1.93072e-18)
(0.999901 4.89952e-05 -3.57627e-17)
(1.03985 0.0050045 5.36556e-18)
(1.00441 0.00116808 -9.4778e-18)
(1.03353 0.000508659 -5.48888e-19)
(1.04241 0.0103783 3.61711e-18)
(0.985751 0.00017037 2.98713e-16)
(0.996894 0.000691378 -2.07481e-17)
(1.00225 0.00638687 1.55041e-18)
(0.475047 0.444053 3.02283e-18)
(1.23478 0.128237 9.97586e-17)
(0.99999 4.20388e-07 1.74283e-18)
(1.00567 0.00289203 -2.36347e-18)
(0.418296 0.296715 1.44751e-16)
(0.620349 -0.00551405 6.23082e-17)
(0.993355 0.0185262 -1.28302e-17)
(1.00328 0.0473031 -1.51725e-17)
(1.00265 0.0800274 -1.2237e-17)
(1.03406 0.0174261 3.51703e-18)
(0.97522 0.000627168 7.956e-17)
(1.37237 0.347039 1.44199e-17)
(1.11475 0.0421845 3.27885e-17)
(1.00542 0.0478574 -1.17233e-17)
(1.00515 0.00259497 4.47999e-18)
(1.03652 0.00556193 3.12162e-18)
(1.03212 0.00963589 -4.64842e-18)
(0.987979 0.0261995 -1.53652e-17)
(1.03178 0.0114443 -2.39388e-18)
(1.00228 0.00616408 8.96626e-18)
(1.00554 0.00314781 -9.44729e-19)
(1.00007 -2.59934e-05 -8.70925e-19)
(1.00525 0.00279444 7.54613e-18)
(1.1665 0.0763768 -1.49598e-19)
(1.0057 0.0516271 7.27621e-18)
(1.00044 0.000141585 1.14795e-19)
(1 5.19901e-05 -1.20918e-17)
(1.03377 0.0175911 5.64349e-19)
(1.00785 0.00114225 3.92234e-18)
(0.991204 0.000566087 2.70071e-16)
(1.02344 0.00133695 -4.39982e-18)
(1.00002 2.48103e-05 -5.4615e-18)
(1.00032 0.0762609 1.08413e-17)
(0.999998 1.62809e-05 -2.28562e-17)
(1 -1.22517e-05 -4.55072e-18)
(0.999352 0.000113539 7.79471e-17)
(1.03784 0.00433026 -1.31842e-19)
(1.00411 0.00230137 -6.77044e-18)
(1.42165 0.433431 2.27531e-17)
(1.00025 6.04838e-05 2.49988e-18)
(1.00035 1.48655e-05 -6.30346e-18)
(1.02144 0.000984411 -1.43784e-18)
(1.00435 0.00015117 -5.02459e-19)
(0.946557 0.0661097 2.73438e-17)
(0.999254 0.00943116 3.08632e-17)
(0.998838 0.000203479 6.66172e-17)
(0.999985 2.75684e-05 -1.60591e-18)
(1.16079 0.0708387 3.96358e-18)
(1.00567 0.0764972 -1.65008e-17)
(0.999984 4.13288e-05 -5.39329e-18)
(1.00356 0.00583075 2.22682e-18)
(0.999667 0.00835295 -1.56328e-17)
(1.00475 0.000252502 -1.04386e-17)
(1.00327 0.000336619 -9.59366e-19)
(1.00297 -0.000544793 -5.00875e-19)
(1.00417 0.000544992 1.29593e-18)
(0.995409 0.00118653 6.92885e-17)
(0.842423 0.0576179 2.98233e-16)
(1.00479 -5.97894e-06 4.84691e-18)
(0.997577 8.09166e-05 1.15282e-16)
(0.986408 0.000890844 4.3933e-16)
(1.02531 0.0261227 1.36948e-17)
(1.10458 0.0368756 -1.31601e-19)
(1.00529 0.0011226 3.30478e-18)
(0.990168 0.025278 1.72291e-17)
(0.578292 0.0912238 -3.79819e-16)
(0.99999 2.31454e-05 1.84181e-19)
(1.02749 0.0119348 -2.74926e-18)
(1.00051 4.06046e-05 4.85086e-19)
(1.01436 0.0125965 -7.66014e-18)
(1.00031 8.2629e-05 -7.44595e-18)
(1.00471 0.00089637 -6.2704e-19)
(0.812676 0.0434221 5.28821e-19)
(1.02781 0.0139841 -2.70464e-18)
(0.808197 0.0902264 -2.88969e-16)
(0.991389 0.000469718 1.18061e-16)
(1.00076 0.00782734 -7.07242e-18)
(1.0344 0.00123436 -5.42219e-19)
(1.03596 0.00249351 -4.58129e-19)
(1.00069 0.00768545 -6.9346e-18)
(1.03496 0.00119861 -2.67822e-18)
(1.03351 -0.00102685 1.8015e-19)
(1.00075 0.000154092 -3.13288e-18)
(0.999481 0.000629005 2.04287e-17)
(0.99945 0.000593648 2.32568e-17)
(0.99943 0.000591194 3.09842e-18)
(0.999418 0.000517341 -2.1726e-17)
(0.709438 0.291085 -7.47351e-17)
(1.00002 4.91497e-05 -3.76822e-18)
(0.942167 0.0783716 -3.36611e-17)
(1.03969 0.00287258 3.21821e-18)
(0.993345 0.0252859 1.78029e-17)
(1.03263 0.0130782 -5.03011e-18)
(1.02757 0.014168 5.20266e-18)
(1.02131 0.00101555 -8.42118e-19)
(1.01327 0.0119052 -3.93803e-18)
(1.02829 0.0136999 -1.46741e-19)
(1.01341 0.0122889 4.18148e-18)
(0.991375 0.0265445 2.63736e-17)
(1.02729 0.0275117 3.21684e-18)
(1.02632 0.0319907 1.81008e-17)
(0.956714 0.0498492 3.59193e-17)
(0.981097 0.00189525 1.76096e-16)
(1.03277 0.0771541 2.09994e-17)
(0.982394 0.0019536 -1.21409e-17)
(0.983642 0.00167349 3.57571e-16)
(1.0298 0.0142774 7.49842e-18)
(0.940896 0.0967133 3.41349e-17)
(1.00312 0.0026547 1.54045e-18)
(0.999576 0.000114558 4.40789e-17)
(1.01604 0.0110856 -5.7244e-18)
(0.999624 9.83809e-05 5.15682e-19)
(1.00333 0.00303864 5.90756e-18)
(0.789347 0.0214005 -3.97078e-17)
(0.197907 0.185083 -3.77754e-16)
(1.00321 0.00278745 -9.8712e-19)
(0.99998 -4.08452e-06 -8.606e-18)
(1.00022 7.10866e-05 4.1861e-18)
(0.999987 2.29917e-05 -7.15935e-18)
(1.02833 0.0128006 -1.67532e-18)
(1.00001 3.44735e-05 -3.18244e-18)
(0.999996 2.3021e-05 4.08693e-18)
(1.12286 0.0616594 2.61641e-17)
(1.03292 0.0106862 -2.36436e-18)
(1.08846 0.164566 2.35836e-17)
(1.00149 0.00311502 1.87748e-18)
(1.03438 0.0127861 -2.69984e-18)
(1.00684 0.0005429 -3.77559e-18)
(1.00013 0.00849951 -1.75246e-17)
(1.03173 0.0275577 -2.92605e-18)
(1.01636 0.0108011 -7.09574e-18)
(0.935342 0.00236004 1.85778e-16)
(1.016 0.00982148 -6.43048e-18)
(1.00289 0.00249619 -4.22365e-18)
(1.0005 0.000136938 -3.60695e-18)
(1.03316 0.00979833 2.29333e-18)
(1.03564 0.012365 6.44825e-19)
(1.0053 0.00115645 -4.68686e-18)
(0.719515 0.0285815 1.17804e-16)
(1.03174 0.0274556 1.4915e-17)
(1.03731 0.00109131 -6.05125e-19)
(0.99855 0.0339238 -1.501e-17)
(1.00183 0.0422909 1.4177e-19)
(0.999994 0.000107354 -1.28799e-17)
(0.432941 0.559997 -8.75504e-17)
(1.03521 0.0816376 1.96925e-17)
(1.00128 0.00354291 -8.86897e-18)
(0.97271 0.175601 -1.80302e-18)
(0.984782 0.000987335 3.5428e-16)
(0.999981 5.33806e-05 -9.57206e-19)
(1 3.07459e-05 -3.3013e-19)
(0.999995 3.75559e-05 3.91364e-19)
(1.09672 0.163607 3.15342e-17)
(0.948097 0.0957917 2.31697e-17)
(0.989249 0.0278037 -7.94758e-18)
(1.0275 0.0105161 1.82195e-18)
(1.04071 0.00207884 -2.47027e-18)
(0.999807 0.0108726 6.61024e-18)
(0.943352 0.0084393 -1.65397e-16)
(0.99923 0.0342777 5.5e-18)
(1.04717 0.0149709 8.66961e-18)
(1.1068 0.0370723 1.23984e-17)
(0.714033 0.0423264 2.28362e-16)
(0.994902 0.0260668 -1.0993e-17)
(0.954892 0.0511535 -1.82508e-17)
(1.01857 0.00023583 1.16321e-18)
(1.02616 0.0349985 5.38426e-18)
(1.01158 0.0107615 -3.78839e-19)
(1.01649 0.0122521 -3.86435e-18)
(0.998046 0.00021181 4.58146e-16)
(1.01223 0.0110699 3.57672e-18)
(1.02982 0.0112552 -6.61405e-18)
(0.999991 1.06122e-05 -1.38157e-18)
(0.82495 -0.0192914 4.66078e-17)
(0.990545 0.00120129 -9.73485e-17)
(1.05441 0.01056 -1.04512e-17)
(1.03595 0.00988887 4.00697e-18)
(0.993744 0.00107887 -2.08322e-17)
(0.951107 0.0598586 -1.85518e-17)
(1.17518 0.248826 -6.63383e-19)
(1.02952 0.0151932 -7.27984e-21)
(1.00854 0.0156189 1.65096e-17)
(1.03626 0.00327368 6.34344e-20)
(1.03593 0.00977588 4.61085e-18)
(1.02906 0.032019 5.82093e-18)
(1.00433 0.00264056 -1.67727e-17)
(1.00001 -9.83479e-07 -1.3624e-18)
(0.995973 0.0686995 1.29176e-17)
(1.0003 0.000135647 -4.17843e-18)
(1.05117 0.0179251 5.73918e-20)
(1.00262 -1.48916e-05 8.20225e-18)
(0.965653 0.00276733 -3.68377e-17)
(0.962449 0.0405882 6.97702e-17)
(1.01087 0.00114247 3.74106e-18)
(1.09864 0.115052 1.43738e-17)
(0.944219 0.0653513 -3.68032e-17)
(0.994328 0.0171765 1.70805e-17)
(1.00094 0.00370917 -6.45026e-18)
(0.593023 0.0844882 -5.38267e-16)
(1.00057 -0.000126375 -1.88816e-18)
(1.00141 0.00311855 1.07466e-17)
(1.04273 0.0404435 -1.66746e-17)
(0.999986 3.41229e-05 -2.24164e-17)
(1.00116 0.00396125 5.9652e-18)
(1.00155 0.00266612 6.31648e-18)
(0.736458 0.229596 -1.68262e-17)
(0.666457 0.486072 -1.07376e-16)
(0.99844 0.0119097 -1.20402e-17)
(1.00143 0.00019434 -6.37247e-18)
(0.937332 0.035116 1.19008e-16)
(1.00021 0.0419823 -1.94429e-17)
(1.02735 0.0108089 3.40406e-18)
(1.03098 0.014815 -4.29092e-18)
(1.03169 0.0106761 -8.56754e-19)
(1.00087 -0.000129222 -1.60737e-18)
(0.999998 4.39569e-05 -7.33027e-18)
(1.00011 0.0366679 -5.77967e-19)
(0.999988 1.01252e-05 -1.13497e-18)
(0.962474 0.0406007 6.57195e-18)
(1.02729 0.0111104 2.71814e-18)
(1.02579 0.0349231 -1.00139e-17)
(0.996658 0.000656428 9.85598e-17)
(0.996694 0.0668012 7.89269e-18)
(1.04548 0.0388746 -9.21905e-18)
(0.997855 4.11034e-05 -1.32972e-16)
(1.0015 0.0113093 1.98363e-17)
(1.00588 0.0013996 -2.85715e-17)
(0.924412 0.0461254 -3.11872e-17)
(1.04348 0.0407006 -3.58246e-18)
(0.999981 7.49829e-05 -1.67541e-17)
(1.00131 0.0378185 -1.22542e-18)
(1.03305 0.00774662 4.74405e-18)
(1.01574 -0.000525886 -3.85646e-18)
(0.999746 0.0395778 -1.76875e-17)
(1.00308 0.000360905 -1.84058e-17)
(0.929949 0.0898394 5.61445e-17)
(1.02635 -0.0014537 1.09672e-18)
(1.03718 0.00765544 -1.05871e-18)
(1.02734 0.0319042 -1.55904e-20)
(1.00083 -0.000173301 3.47684e-18)
(1.00155 0.0116785 1.66364e-18)
(1.05402 0.0591791 -4.5026e-18)
(1.05351 0.017262 1.89724e-18)
(1 3.33274e-05 -2.04346e-18)
(1.01111 0.0158972 -5.0439e-18)
(0.986427 0.176458 -5.45054e-19)
(1.03716 0.00228203 1.26306e-18)
(0.503053 0.484341 1.14512e-18)
(1 3.20527e-05 -3.57322e-18)
(1.00234 0.000355279 5.32185e-18)
(1.00075 -7.75023e-06 1.5119e-18)
(1.03155 0.0139582 1.05247e-19)
(0.994323 0.0187387 -1.6924e-17)
(0.995557 0.0134123 2.47531e-17)
(1.00314 0.000226732 7.18109e-18)
(0.999084 0.0364629 -1.1822e-17)
(1.01715 0.0120352 2.90336e-18)
(0.97243 0.00372412 -1.6935e-16)
(1.0095 0.00144708 -6.78705e-19)
(1.08366 0.0885709 -9.02067e-18)
(1.00041 8.33365e-05 6.73249e-18)
(1.08817 0.104589 3.15401e-18)
(1.00155 -1.57715e-05 1.57005e-18)
(0.642084 0.603709 -3.43964e-17)
(1.02626 -0.00162701 2.64864e-18)
(1.05179 0.0618628 -2.23811e-18)
(0.999804 3.53213e-05 -8.45075e-17)
(0.996978 0.00066562 -4.43403e-17)
(1.02585 0.0272722 7.57161e-18)
(1.00385 0.00217943 -3.32966e-18)
(0.998937 0.000255181 -5.08726e-17)
(0.992411 4.52397e-05 -2.20164e-16)
(0.994791 0.0201984 3.11047e-17)
(0.994851 0.0193509 4.57159e-17)
(0.967469 0.162404 -5.23756e-17)
(1.03314 0.0317903 4.27009e-20)
(1.03395 0.0312332 3.50858e-18)
(1.00001 8.3056e-06 1.81188e-18)
(1.0043 0.00202125 2.44455e-18)
(1.02699 0.0123877 -3.51269e-18)
(1.05219 0.0169515 -5.04047e-18)
(1 -5.25192e-07 -2.19221e-18)
(1.00044 2.62068e-05 -2.79138e-18)
(1.03261 0.0088244 -1.73096e-18)
(1.00074 5.1499e-05 1.65436e-18)
(0.79835 0.050878 -8.78417e-17)
(1.18025 0.238027 -2.48473e-17)
(1.11321 -0.0174776 9.56388e-17)
(1.00001 1.44044e-05 -3.86551e-18)
(1.00645 0.00922174 -2.26447e-19)
(1.04252 0.0105827 1.11349e-19)
(0.995628 0.0145677 -8.45699e-18)
(1.00427 0.0010764 -8.03056e-18)
(0.389277 0.655138 4.42016e-16)
(1.00036 4.45282e-05 -8.70464e-18)
(0.934154 0.0802421 -5.36884e-17)
(0.960693 0.0461948 -2.19646e-17)
(1.00717 0.00930137 3.17578e-18)
(1.00406 0.00103229 -3.69793e-18)
(0.99878 0.000251561 -6.66187e-17)
(1.01054 0.000152949 -1.17397e-17)
(1.04028 0.00256109 2.10747e-18)
(1.01698 0.00870828 1.60896e-17)
(0.997007 0.0118578 -2.32236e-18)
(0.999996 1.48398e-05 5.81401e-19)
(0.99999 2.61193e-05 1.74326e-17)
(0.995186 0.0165854 1.01748e-17)
(0.99638 0.00127446 6.46616e-17)
(0.993256 0.060268 2.65768e-17)
(1.03186 0.0131142 -3.31415e-18)
(0.999236 2.55302e-05 3.46741e-17)
(1.00041 0.000189661 1.82946e-18)
(1.02745 0.0289945 -5.86634e-18)
(0.815087 -0.0287767 5.46784e-17)
(0.99786 0.000208191 -2.23108e-16)
(1.04692 0.0142257 5.26563e-18)
(1.00019 -2.23623e-05 2.86209e-18)
(0.996699 0.0112772 2.05393e-17)
(0.950499 0.0808649 2.57519e-17)
(1.03864 0.00136018 3.84348e-19)
(1.04154 0.0108309 3.06926e-18)
(0.951708 0.0560196 -6.49557e-17)
(1.00241 0.0190013 -8.51698e-18)
(1.04063 0.0051122 2.44953e-18)
(1 3.37886e-05 -1.75949e-18)
(0.999916 7.4393e-06 3.87804e-17)
(1.03946 -0.00134582 -1.39645e-18)
(1.01062 0.00957473 3.52168e-18)
(1.00324 0.0189412 7.01977e-18)
(1.01079 0.00968559 1.7983e-18)
(0.999995 4.2055e-05 9.41646e-19)
(1.00047 0.000200454 1.31188e-18)
(1.00385 0.000601249 -1.60309e-17)
(0.999652 0.0299074 -7.22857e-18)
(1.0412 0.0066954 1.2572e-18)
(0.943009 0.0392971 3.25756e-18)
(0.990259 0.000842985 -1.76823e-16)
(0.92339 0.0416451 5.58727e-18)
(1.03014 0.0133563 5.3462e-19)
(1.00888 0.0171999 -6.97753e-19)
(0.931339 0.0440528 -6.09288e-17)
(0.985864 0.0212442 -3.74279e-17)
(1.05273 0.0105712 -9.7453e-18)
(1.03211 0.0120462 -4.13543e-18)
(0.98523 0.021237 -8.70529e-18)
(0.995045 0.0576056 -7.76134e-18)
(0.999888 7.29272e-05 -9.18215e-17)
(1.01162 0.0667879 -2.16292e-17)
(1.02659 0.0262981 -3.056e-19)
(1.00001 -2.09126e-05 6.29643e-19)
(0.999993 1.23369e-05 5.60858e-17)
(1.0008 -3.37892e-05 7.31029e-18)
(0.999769 0.000337666 -9.55491e-18)
(1.06374 0.0687474 4.31106e-18)
(1.01069 0.016564 -1.06136e-17)
(1.01293 -0.00141044 5.08096e-18)
(0.943252 0.0428586 7.00563e-17)
(0.992293 0.000412815 -3.04694e-17)
(0.794393 0.0222623 3.00415e-16)
(1.03673 0.00172251 -7.27036e-19)
(1.03975 0.0038055 1.28246e-18)
(1.00385 0.000427271 1.4886e-18)
(1.0492 0.0382418 -2.50279e-19)
(1 3.29651e-05 -1.1068e-17)
(0.998257 0.0296378 4.20402e-18)
(1.00053 0.00378941 -4.21578e-18)
(0.937644 0.117218 2.50215e-17)
(0.930676 0.0465483 8.26032e-17)
(1.00199 0.0162133 -3.67555e-17)
(1.01673 0.0116534 -2.62528e-18)
(0.428639 0.663536 2.87012e-17)
(1.03036 0.012884 -3.65822e-18)
(1.04374 0.0608648 7.78718e-19)
(1.00971 0.012391 -7.80587e-18)
(0.97977 0.144203 -2.31783e-17)
(1.16474 0.203098 7.28556e-19)
(1.00119 0.00020358 5.42604e-18)
(0.998292 0.00335214 -5.19117e-18)
(1 7.19001e-06 2.08586e-18)
(1.05835 0.063708 -5.03319e-18)
(0.998453 0.00310627 8.27606e-18)
(1.01623 0.00934799 3.05404e-18)
(1.09944 0.106342 2.12706e-17)
(1.0004 0.000129901 -4.04738e-18)
(0.971022 0.00388812 -2.06527e-16)
(0.991931 0.0517448 1.92072e-18)
(1.00659 0.0152362 1.55015e-17)
(0.997467 0.000247383 -1.96098e-17)
(1.00206 0.0169599 -4.50264e-17)
(0.999232 0.000867347 6.67955e-18)
(0.995114 0.0159417 -4.46972e-17)
(0.999239 0.000734367 -1.16907e-17)
(0.999259 0.000944675 -7.82645e-19)
(0.99567 0.013356 -8.25986e-18)
(1.03665 0.00641453 -3.47545e-18)
(1.03352 0.00812938 2.13416e-18)
(1.00706 0.016481 1.80017e-17)
(0.672077 0.0362638 1.20425e-16)
(1.03846 0.00219233 5.19866e-19)
(0.265775 0.23488 2.25039e-16)
(1.029 0.014342 7.28954e-18)
(1.02175 0.000780895 -3.66126e-18)
(0.995387 0.0146233 1.69734e-17)
(1.02791 0.0143011 1.11431e-20)
(0.991663 0.0265432 -2.22298e-17)
(1.03596 0.000219836 -1.14984e-18)
(0.579966 0.376245 -1.30933e-17)
(0.949893 0.0356777 -1.49643e-17)
(0.99311 0.0248035 2.92668e-18)
(1.00462 0.0227762 2.26743e-18)
(0.994979 0.0010044 -5.9481e-17)
(0.996393 0.000931135 4.9049e-17)
(1.02658 0.0292229 7.0691e-18)
(0.999995 1.45098e-05 3.35037e-18)
(1.0513 0.00499426 -1.2714e-17)
(0.999386 9.73115e-06 -1.53277e-17)
(0.949974 0.039216 1.48791e-17)
(0.999309 0.0744122 4.76474e-18)
(1.0628 0.0618733 -1.16504e-17)
(1.03915 0.0247247 3.67649e-18)
(1.03416 0.0141367 5.22746e-18)
(0.991803 0.0505392 1.26859e-17)
(1.0091 0.0129563 -1.42836e-17)
(1.03828 0.0248281 -6.07544e-19)
(0.970441 0.0304553 5.18772e-18)
(1.04377 0.0616623 1.19411e-17)
(1.00799 0.0221827 -6.29077e-19)
(1.04431 0.0388732 -1.59476e-17)
(1.00549 0.0230693 3.90439e-18)
(1.00001 1.45058e-05 -5.66665e-19)
(0.998779 0.0253909 3.38856e-18)
(0.662243 0.0546156 -9.40074e-18)
(0.972982 0.133007 -2.44373e-17)
(1.00654 0.00546455 -4.45014e-18)
(1.00005 3.00414e-05 -3.51362e-18)
(0.999129 0.000152833 -6.48604e-17)
(0.994578 0.00729189 -8.19215e-18)
(0.966255 0.00303356 -5.3639e-16)
(1.03407 0.00722456 3.18942e-18)
(1.02712 0.00232257 -6.52412e-18)
(1.0008 3.92831e-05 -4.21657e-18)
(1.00509 0.00670896 1.25032e-18)
(0.992373 0.0265836 -5.79475e-18)
(1.0062 0.00538429 -5.63693e-19)
(1.00885 0.000810303 1.91543e-19)
(1.04448 0.0345068 1.6167e-18)
(0.993722 0.0013569 6.32e-17)
(0.991734 0.0353307 1.32965e-17)
(1.03619 0.015019 9.2904e-18)
(1.00502 0.00641545 1.39429e-17)
(1.0081 0.0067499 -4.67387e-18)
(0.9446 0.0616668 3.15934e-17)
(1 -8.1816e-06 2.98125e-19)
(0.99349 0.00539349 7.00991e-18)
(1.29554 0.19285 5.6479e-17)
(0.999875 4.26724e-06 -2.81942e-16)
(1.04041 0.0385664 2.11626e-18)
(0.998812 0.0711338 1.86158e-17)
(1.00743 0.00652002 -4.69309e-18)
(0.960174 0.0447398 6.43752e-20)
(1.03627 0.0141649 1.90746e-18)
(0.997743 0.0254801 -4.72467e-18)
(1.02918 0.0337036 -1.27944e-17)
(0.999731 0.00318692 -2.31817e-18)
(0.934562 0.0405872 1.10576e-17)
(1.00536 0.000976769 5.84362e-18)
(1.03222 0.000573792 -1.70289e-18)
(1.03472 0.0142992 8.14162e-19)
(0.935933 0.0377562 -2.17197e-17)
(0.999855 0.00321044 7.18511e-18)
(1.04002 0.00538885 2.76147e-19)
(1.05434 0.02208 -3.44706e-18)
(0.992695 0.0342851 7.40748e-18)
(1.00584 0.0132974 -8.76549e-18)
(1.00453 0.00298269 -5.74325e-18)
(1.01119 0.065528 3.13578e-17)
(0.787957 0.207345 -6.28004e-18)
(0.995623 0.00100674 9.85914e-17)
(0.999975 4.83246e-05 -2.22808e-17)
(0.994029 0.0255247 2.66656e-17)
(0.999986 6.24087e-06 1.38206e-18)
(1.15411 0.209357 3.8141e-17)
(1.00668 0.0223922 -7.82811e-19)
(1.03707 0.0894803 -3.46217e-18)
(1.01588 0.00727198 -3.90603e-18)
(1.02906 0.00199387 -1.36312e-18)
(0.25547 0.111782 -8.30771e-16)
(1.00636 0.0158377 -8.29728e-18)
(1.08857 0.213129 -6.04146e-18)
(1.03385 0.00652816 -1.01229e-18)
(1.03768 -0.0165139 1.22294e-16)
(1.02798 0.0117955 -2.7307e-18)
(0.996708 0.0119373 6.62467e-18)
(1.00639 0.0140674 1.14659e-17)
(1.01533 -0.00109978 -1.20366e-18)
(1.0952 0.0933063 1.14668e-18)
(1.08402 0.0872558 -3.82468e-18)
(1.00158 -8.55326e-05 7.88854e-19)
(1.00126 -0.000136684 -3.98707e-18)
(0.936337 0.0450197 9.23702e-17)
(1.00202 2.1009e-05 1.10411e-17)
(0.686575 0.3999 -4.91572e-17)
(1.02739 0.0305742 3.49691e-18)
(0.969047 0.164305 5.36586e-17)
(1.00451 0.00297664 6.98886e-18)
(0.0555396 0.274821 -2.17828e-16)
(1.13314 0.220249 1.28929e-17)
(1.0061 0.0220844 1.86896e-19)
(0.999993 1.71611e-05 2.84714e-18)
(0.99998 0.00284198 -3.86489e-18)
(0.955935 0.031021 -2.20887e-17)
(0.994482 0.00823547 2.73722e-17)
(0.989767 0.000106074 -6.92501e-17)
(0.997355 0.00945354 -1.68221e-17)
(1.03149 0.0122236 1.61261e-18)
(0.973993 0.0293445 -3.83094e-17)
(1.06137 -0.00934077 9.62851e-18)
(0.618385 0.046678 4.20886e-16)
(1.00081 5.65165e-05 -1.2874e-17)
(0.967225 0.0373569 -1.46445e-18)
(1.03312 0.0278043 3.44122e-18)
(0.92511 0.0562983 -7.90969e-17)
(1.00459 0.0127747 -7.17104e-18)
(0.934254 0.0785663 5.28877e-17)
(1.03648 0.00872855 -1.79476e-18)
(0.951781 0.0346022 6.76928e-17)
(0.99726 0.000608802 7.33672e-17)
(1.00004 2.99307e-06 5.57051e-18)
(1.03764 0.0237943 -4.65138e-18)
(1.04022 0.0244637 -2.7584e-18)
(1.02755 -0.000175459 -3.97305e-18)
(0.930508 0.0412059 2.1612e-17)
(1.03514 0.0868069 1.48728e-17)
(1.02228 0.000731936 -5.34875e-18)
(0.997917 0.0241419 -1.39577e-17)
(1.00028 0.00394442 -6.03115e-18)
(1.00984 0.00843686 5.79192e-19)
(0.77393 0.0366733 -3.56314e-17)
(1.00966 0.00862991 -4.54422e-18)
(1.03437 0.0216782 4.48987e-18)
(0.98174 0.0412947 -1.34643e-17)
(1.02669 0.0100961 5.43284e-18)
(1.01135 0.000792109 -1.80986e-17)
(0.996374 0.0112951 1.8137e-17)
(1.05213 0.0204474 -2.53854e-18)
(1.01482 0.00700406 7.56427e-18)
(1.00528 0.0129663 4.98557e-18)
(1.0566 0.00395328 -1.81835e-17)
(0.991709 0.0296647 -1.77854e-17)
(1.02013 0.000787798 -2.01985e-18)
(0.80757 0.340096 4.6278e-17)
(1 1.76232e-05 -2.32079e-19)
(1.01545 0.00788121 -3.84983e-18)
(0.999284 0.0207926 -1.82316e-17)
(0.992494 0.00720246 5.37605e-18)
(1.00321 0.000159486 -8.51613e-18)
(0.998358 0.024115 2.58463e-17)
(1.00001 -1.9606e-06 -4.89744e-19)
(1.04401 0.106206 -1.84418e-17)
(1.00563 0.00089515 1.22456e-17)
(0.971632 0.00583399 -7.9716e-17)
(1.03514 0.0339973 -1.28116e-17)
(0.955918 0.0457394 7.34738e-18)
(1.01643 0.00905575 2.86454e-18)
(1.01612 0.00820844 8.49568e-19)
(1.03713 0.0245227 2.21556e-18)
(1.13956 0.106879 1.07235e-17)
(0.999859 5.5436e-05 4.51295e-17)
(0.992843 0.000890211 8.61065e-17)
(1.02286 0.00147195 -5.27889e-18)
(1.10814 0.194573 -9.81953e-18)
(1.04014 0.0240274 -1.06174e-18)
(0.999871 0.00293111 -1.41766e-18)
(0.256947 0.14314 -1.04193e-15)
(1.00004 -1.02088e-05 -1.2332e-18)
(1.00492 0.00169491 -1.97649e-18)
(0.748054 0.000721482 1.85169e-17)
(0.994635 0.00509882 1.42096e-17)
(0.999575 0.00318534 1.90903e-18)
(0.999599 0.00349517 -5.11139e-18)
(0.984401 0.0375845 -3.90091e-17)
(0.958408 0.0268905 7.38676e-17)
(0.99985 5.44376e-05 8.23135e-17)
(0.993644 0.00644213 5.3183e-18)
(0.93822 0.0655464 -2.0045e-17)
(0.998111 0.0210523 -1.70519e-17)
(0.995765 0.0175313 -4.22294e-18)
(0.996868 0.00956666 1.72057e-17)
(1.00102 6.01471e-05 5.87785e-18)
(0.957595 0.0322087 -4.1124e-17)
(1.06528 0.0558332 1.65396e-18)
(0.995376 0.0147109 2.51836e-17)
(0.933454 0.0306072 6.27896e-17)
(1.0334 0.00663481 -1.18855e-19)
(1.03665 0.00223998 -1.4354e-18)
(1.04205 0.10361 7.15888e-18)
(1.03198 0.029169 5.84764e-18)
(0.996608 0.00947363 -2.73196e-17)
(1.00506 0.00166258 -1.04886e-17)
(1.08821 0.0998898 1.84648e-17)
(1.0374 0.00533372 1.8155e-18)
(0.976158 0.0251091 5.15323e-17)
(1.00079 0.00399739 -4.31556e-18)
(0.999743 0.000309967 -7.01636e-18)
(0.923187 0.0135817 -1.86514e-16)
(1.05015 0.0396744 1.86414e-18)
(1.01438 0.00646562 1.60341e-18)
(1.01066 0.0484504 -7.30987e-18)
(1.01459 0.00739629 8.10011e-18)
(0.996996 0.00976965 -1.19137e-17)
(1.00518 0.00436266 -1.81414e-17)
(0.967026 0.032068 6.46633e-18)
(0.839837 0.0170853 -3.36641e-17)
(0.279617 0.446706 2.15416e-16)
(0.965984 0.0369741 -1.97186e-17)
(0.99925 0.017812 -1.22671e-18)
(1.00563 0.00443691 -1.28051e-17)
(0.971206 0.0333949 -4.31624e-17)
(0.56858 0.32104 -1.17841e-16)
(0.933172 0.0361212 -6.74056e-17)
(0.999845 0.00280809 1.99394e-18)
(1.04783 0.0329327 1.65674e-17)
(1.05984 0.0718302 2.11245e-18)
(1.24844 0.283962 1.01435e-17)