/*--------------------------------*- C++ -*----------------------------------*\
  =========                 |
  \\      /  F ield         | OpenFOAM: The Open Source CFD Toolbox
   \\    /   O peration     | Website:  https://openfoam.org
    \\  /    A nd           | Version:  7
     \\/     M anipulation  |
\*---------------------------------------------------------------------------*/
FoamFile
{
    version     2.0;
    format      ascii;
    class       volScalarField;
    location    "4.5";
    object      rho;
}
// * * * * * * * * * * * * * * * * * * * * * * * * * * * * * * * * * * * * * //

dimensions      [1 -3 0 0 0 0 0];

internalField   nonuniform List<scalar> 
2413
(
1.55687
1.57064
1.58237
1.5915
1.59991
1.60678
1.61238
1.61723
1.6198
1.61953
1.6156
1.60792
1.59508
1.57943
1.56089
1.54062
1.52005
1.49939
1.4796
1.46303
1.44746
1.43654
1.43013
1.42727
1.43355
1.44248
1.46149
1.48213
1.50732
1.54359
1.58962
1.64863
1.71115
1.76828
1.80394
1.82493
1.84139
1.8598
1.87985
1.90109
1.92264
1.94409
1.96404
1.98393
2.00562
2.02871
2.05038
2.06805
2.08153
2.09027
2.09569
2.09833
2.09824
2.09755
2.09558
2.09199
2.08707
2.07714
2.06117
2.03805
2.00506
1.96208
1.91437
1.86735
1.82419
1.78732
1.75833
1.73627
1.7207
1.70852
1.69777
1.68944
1.6822
1.6757
1.66874
1.66045
1.65159
1.64268
1.6331
1.6226
1.61004
1.59394
1.57508
1.55347
1.52903
1.50227
1.47419
1.44642
1.59216
1.60531
1.61615
1.62544
1.63488
1.63962
1.64196
1.64073
1.63816
1.63718
1.63673
1.63627
1.63393
1.62841
1.62037
1.60969
1.59704
1.58383
1.56972
1.55769
1.54644
1.53758
1.53368
1.53042
1.53636
1.54517
1.56187
1.57494
1.58856
1.60846
1.63576
1.6846
1.745
1.81203
1.86354
1.89603
1.91245
1.9195
1.92427
1.93174
1.94068
1.95137
1.9637
1.97534
1.98791
2.0035
2.02111
2.03938
2.05616
2.06913
2.07874
2.08407
2.08693
2.08829
2.08666
2.08492
2.08228
2.07889
2.07551
2.06865
2.05427
2.0321
2.00092
1.96037
1.91473
1.86765
1.82385
1.78495
1.75228
1.72643
1.70621
1.69116
1.6783
1.66769
1.65836
1.64937
1.64069
1.63106
1.61968
1.60762
1.59563
1.58307
1.56856
1.55138
1.53173
1.50945
1.48528
1.45983
1.61142
1.61278
1.61631
1.62286
1.63057
1.63987
1.6436
1.64514
1.64319
1.63841
1.63206
1.62565
1.62007
1.61439
1.60818
1.60171
1.59465
1.58817
1.5811
1.57423
1.56828
1.56353
1.56165
1.56136
1.56634
1.57812
1.59254
1.60502
1.61387
1.62506
1.64093
1.67115
1.7195
1.78685
1.8604
1.91358
1.94374
1.95554
1.96051
1.96174
1.96231
1.96484
1.96953
1.97606
1.98256
1.99006
1.99976
2.01257
2.02705
2.04126
2.05416
2.06296
2.06915
2.07229
2.07245
2.07232
2.06994
2.06732
2.06501
2.06119
2.05747
2.053
2.04115
2.02063
1.99111
1.95366
1.91057
1.86546
1.82033
1.77954
1.74447
1.71484
1.69151
1.67184
1.65673
1.64402
1.63308
1.62232
1.61128
1.60007
1.58791
1.57439
1.56005
1.5449
1.52831
1.51031
1.49026
1.46774
1.63622
1.62532
1.62145
1.62289
1.62759
1.63469
1.63958
1.64451
1.64577
1.64387
1.63809
1.62972
1.61989
1.61046
1.6004
1.59106
1.58453
1.57822
1.57153
1.56617
1.56265
1.56098
1.56155
1.5638
1.57112
1.58639
1.60507
1.62075
1.62774
1.63447
1.64031
1.65571
1.68046
1.72285
1.78788
1.8696
1.93173
1.9598
1.97276
1.97668
1.9772
1.97731
1.97794
1.98008
1.9833
1.98657
1.99037
1.99623
2.00451
2.01519
2.02716
2.03775
2.04673
2.05231
2.0548
2.05589
2.05445
2.052
2.04919
2.04549
2.0432
2.0413
2.03714
2.03232
2.02269
2.00402
1.97727
1.94352
1.90437
1.86164
1.8176
1.77474
1.73667
1.70416
1.67627
1.65415
1.63488
1.61939
1.60611
1.59419
1.58141
1.56781
1.55457
1.54111
1.52667
1.51086
1.49309
1.47339
1.66678
1.64597
1.6338
1.62814
1.62944
1.63289
1.63725
1.64247
1.64673
1.64875
1.64743
1.64271
1.63432
1.62484
1.61368
1.60231
1.59273
1.58454
1.57653
1.57025
1.56687
1.56639
1.56769
1.57159
1.57906
1.59297
1.61137
1.62828
1.63843
1.64317
1.64608
1.65174
1.66393
1.68484
1.71938
1.78011
1.86291
1.93288
1.96525
1.97753
1.98211
1.98354
1.98362
1.98399
1.98497
1.98632
1.98779
1.98989
1.99295
1.9981
2.0054
2.01402
2.02315
2.03059
2.03577
2.03846
2.03864
2.0372
2.03429
2.03036
2.02648
2.02329
2.02047
2.01772
2.01483
2.00934
2.00037
1.98427
1.9606
1.92998
1.89459
1.85577
1.81362
1.77105
1.73016
1.69403
1.66352
1.63706
1.61479
1.59566
1.57852
1.56382
1.55048
1.53723
1.52344
1.50919
1.49425
1.47777
1.69964
1.67314
1.65378
1.64051
1.63406
1.63453
1.63681
1.64075
1.64586
1.64986
1.65258
1.65204
1.64862
1.6415
1.63201
1.621
1.60912
1.59922
1.59089
1.58342
1.57838
1.57699
1.57757
1.5801
1.588
1.60167
1.62117
1.64034
1.65315
1.65941
1.66147
1.66279
1.66751
1.67622
1.69195
1.72166
1.77236
1.85036
1.92213
1.96281
1.97773
1.9833
1.98521
1.98591
1.98632
1.98668
1.98719
1.98792
1.98887
1.99054
1.99329
1.99758
2.00344
2.0099
2.01594
2.02054
2.02289
2.0231
2.02154
2.01837
2.01384
2.00913
2.00451
2.00001
1.9964
1.99326
1.99006
1.98495
1.97719
1.96339
1.94271
1.91522
1.88284
1.84746
1.80882
1.76748
1.72588
1.68641
1.65111
1.62142
1.59612
1.5742
1.55539
1.53876
1.52333
1.50893
1.49465
1.4797
1.73011
1.7027
1.67951
1.66053
1.6462
1.64023
1.6396
1.64149
1.64487
1.64931
1.65319
1.65599
1.65573
1.65376
1.64837
1.64009
1.63002
1.61875
1.60921
1.60069
1.5936
1.58974
1.59012
1.59086
1.59701
1.60952
1.62834
1.64933
1.66576
1.67531
1.67945
1.6801
1.6799
1.68254
1.69003
1.7028
1.72674
1.77034
1.83955
1.90961
1.95811
1.97706
1.98362
1.9855
1.98618
1.9863
1.98628
1.98632
1.98649
1.9868
1.98716
1.98787
1.98967
1.99298
1.99746
2.00241
2.00668
2.00903
2.00967
2.00868
2.0052
2.00041
1.99482
1.9886
1.98215
1.97638
1.97213
1.96865
1.96514
1.96044
1.95334
1.9422
1.92405
1.89973
1.87061
1.83829
1.80281
1.76419
1.72354
1.68276
1.64463
1.61061
1.5815
1.5569
1.53553
1.51646
1.49878
1.48247
1.75486
1.72981
1.70593
1.68401
1.66496
1.65191
1.64518
1.64328
1.64434
1.64719
1.65125
1.65518
1.65742
1.65786
1.65677
1.65365
1.64797
1.64014
1.63126
1.62238
1.61469
1.60812
1.60641
1.60652
1.60968
1.61936
1.63635
1.65776
1.6774
1.6909
1.69838
1.70129
1.70101
1.70023
1.70175
1.70731
1.71752
1.73506
1.77258
1.82975
1.89686
1.94991
1.97503
1.9825
1.98484
1.98535
1.98509
1.98459
1.98434
1.98423
1.98383
1.98297
1.98242
1.98279
1.98437
1.98728
1.99104
1.99452
1.99714
1.99831
1.99717
1.99384
1.98908
1.98304
1.97571
1.96792
1.96059
1.95406
1.94884
1.94499
1.94051
1.93647
1.92978
1.91988
1.90467
1.8837
1.85743
1.82779
1.79555
1.75956
1.72105
1.68098
1.64145
1.60436
1.57111
1.54207
1.51706
1.49573
1.77387
1.75099
1.72892
1.70635
1.6845
1.66778
1.65424
1.64725
1.64456
1.64497
1.64728
1.65093
1.65475
1.65729
1.65818
1.65806
1.65693
1.65426
1.64963
1.64346
1.63707
1.63099
1.62689
1.62552
1.62673
1.63228
1.64562
1.66548
1.68669
1.70408
1.71529
1.72078
1.72212
1.72103
1.71975
1.72007
1.72373
1.73247
1.7461
1.77608
1.82353
1.88679
1.93967
1.97096
1.98127
1.9839
1.98395
1.98322
1.98245
1.9818
1.98087
1.97943
1.9781
1.97714
1.9767
1.97697
1.97843
1.98076
1.98368
1.98611
1.98718
1.98635
1.98385
1.97931
1.97283
1.96527
1.9572
1.94915
1.94089
1.93314
1.9265
1.92196
1.91734
1.91272
1.90673
1.89736
1.88441
1.86642
1.84337
1.81689
1.78845
1.75609
1.72009
1.68143
1.6418
1.60342
1.56797
1.53607
1.78721
1.76715
1.74554
1.72471
1.70276
1.68325
1.66581
1.65399
1.64658
1.64351
1.64375
1.64523
1.64893
1.6528
1.656
1.65757
1.65825
1.65807
1.6572
1.65559
1.65309
1.65003
1.64685
1.64489
1.64507
1.64817
1.65716
1.67332
1.69411
1.71459
1.73005
1.73935
1.74355
1.74381
1.74215
1.73991
1.73859
1.74005
1.74623
1.75694
1.78029
1.81914
1.87545
1.92895
1.9656
1.97918
1.98201
1.98208
1.98145
1.98017
1.97829
1.97633
1.97514
1.97419
1.9729
1.97141
1.97079
1.97097
1.97193
1.97335
1.97495
1.97586
1.97583
1.974
1.96976
1.96383
1.95656
1.94875
1.93993
1.93052
1.92137
1.91334
1.90607
1.90034
1.89567
1.88912
1.88316
1.87496
1.86367
1.84883
1.8291
1.80542
1.77994
1.75137
1.71847
1.68256
1.64452
1.60578
1.79772
1.779
1.75934
1.73886
1.71827
1.69865
1.67991
1.66368
1.65272
1.64536
1.64279
1.6426
1.64335
1.64598
1.65018
1.65356
1.65611
1.65738
1.65801
1.65815
1.65794
1.65757
1.65727
1.65742
1.65856
1.66162
1.66829
1.681
1.7001
1.72126
1.73995
1.75379
1.76138
1.7643
1.76357
1.76135
1.7582
1.75587
1.75588
1.76009
1.76896
1.78548
1.81649
1.86474
1.91844
1.95636
1.97516
1.98052
1.98133
1.97961
1.97664
1.9742
1.97295
1.97179
1.96988
1.96766
1.96621
1.96492
1.96351
1.96268
1.96289
1.96362
1.96442
1.96461
1.96348
1.96054
1.95536
1.94885
1.94063
1.93169
1.9223
1.91269
1.90326
1.89453
1.8867
1.87918
1.8737
1.86709
1.86064
1.85361
1.84317
1.83016
1.81409
1.79365
1.77037
1.74529
1.71667
1.68421
1.80644
1.7893
1.77142
1.7526
1.73333
1.71432
1.69556
1.67825
1.66403
1.65244
1.6462
1.64313
1.64147
1.64235
1.64372
1.64644
1.64997
1.65298
1.65521
1.65658
1.65735
1.6579
1.65861
1.65985
1.66189
1.66538
1.67098
1.68128
1.6982
1.71977
1.74102
1.75907
1.77217
1.77949
1.78236
1.78197
1.77906
1.77553
1.77201
1.77052
1.77267
1.77951
1.79076
1.81553
1.85628
1.90581
1.9457
1.97214
1.97946
1.9783
1.97604
1.97433
1.97259
1.97003
1.96666
1.96408
1.96263
1.96073
1.95779
1.95525
1.95382
1.95301
1.95258
1.95277
1.95316
1.95263
1.95035
1.94648
1.94047
1.93312
1.92433
1.91492
1.90531
1.89551
1.88566
1.87581
1.86727
1.85951
1.85298
1.84661
1.83928
1.83217
1.8229
1.81156
1.7983
1.78168
1.76067
1.73796
1.81419
1.79805
1.78177
1.76511
1.74805
1.7306
1.71268
1.69559
1.67956
1.66533
1.65507
1.64788
1.64407
1.64245
1.64144
1.64231
1.64327
1.64557
1.64833
1.65084
1.65283
1.65438
1.65575
1.65738
1.65958
1.66283
1.66783
1.67613
1.68955
1.71041
1.73622
1.75854
1.77482
1.78606
1.79394
1.79701
1.79684
1.79442
1.79057
1.78651
1.78371
1.78426
1.78865
1.79607
1.81575
1.84796
1.89299
1.93668
1.96398
1.97394
1.97562
1.97554
1.97328
1.96912
1.96448
1.96171
1.95964
1.95676
1.95279
1.94967
1.94764
1.94557
1.94329
1.94202
1.94194
1.94164
1.94067
1.93902
1.93633
1.9318
1.92475
1.91688
1.90816
1.89894
1.88872
1.87804
1.86775
1.85793
1.84912
1.8408
1.83334
1.82668
1.81861
1.81089
1.80371
1.79366
1.78162
1.76821
1.82109
1.80613
1.79119
1.776
1.76068
1.74529
1.72945
1.71341
1.69734
1.68214
1.669
1.65807
1.65038
1.64569
1.64292
1.64182
1.64097
1.6415
1.64221
1.64345
1.6452
1.64693
1.64875
1.65074
1.65305
1.65591
1.65977
1.6653
1.67409
1.68966
1.71218
1.7408
1.76844
1.78728
1.79769
1.80371
1.80772
1.80789
1.8066
1.80312
1.79878
1.79525
1.79384
1.7962
1.80127
1.81568
1.84023
1.88146
1.92314
1.9505
1.96952
1.97554
1.97318
1.96825
1.96432
1.9616
1.95835
1.95377
1.94874
1.94543
1.94319
1.94022
1.93665
1.93407
1.93285
1.93137
1.92963
1.92821
1.92724
1.92526
1.92117
1.91567
1.90882
1.90121
1.89221
1.88229
1.87169
1.86101
1.85077
1.84074
1.83124
1.82246
1.814
1.80661
1.79939
1.79139
1.78367
1.77571
1.82906
1.81436
1.80015
1.78635
1.77243
1.75825
1.74367
1.72894
1.71433
1.69947
1.68546
1.67273
1.66167
1.65357
1.64747
1.64388
1.64187
1.64065
1.64019
1.6401
1.64022
1.64054
1.64132
1.6426
1.6443
1.64657
1.64958
1.65339
1.65887
1.66799
1.68381
1.70807
1.73808
1.76928
1.79222
1.80511
1.81076
1.81395
1.81593
1.81501
1.81234
1.80812
1.80396
1.80176
1.80246
1.80541
1.81483
1.83366
1.86781
1.90604
1.93893
1.96196
1.96911
1.96722
1.96528
1.96282
1.95856
1.95252
1.94696
1.94341
1.94032
1.93615
1.93157
1.92827
1.9262
1.92346
1.9203
1.91778
1.91651
1.91503
1.91269
1.90948
1.9055
1.9
1.89301
1.88463
1.87523
1.86558
1.85542
1.84466
1.83387
1.82334
1.81317
1.80395
1.79551
1.78747
1.78017
1.77234
1.83839
1.82456
1.81079
1.79711
1.78365
1.77039
1.75706
1.7435
1.72963
1.71559
1.70172
1.68843
1.67615
1.66571
1.65679
1.65016
1.64559
1.64246
1.64088
1.63964
1.63869
1.63816
1.63773
1.63766
1.63803
1.6391
1.64083
1.64315
1.64629
1.65082
1.65893
1.67351
1.69693
1.73019
1.76221
1.78782
1.80729
1.81649
1.81877
1.81939
1.81893
1.81692
1.81409
1.81075
1.80822
1.80721
1.80795
1.81337
1.82771
1.85366
1.8893
1.92502
1.94772
1.95892
1.96495
1.96386
1.95894
1.95273
1.94754
1.94371
1.9395
1.93399
1.92833
1.92428
1.92137
1.91754
1.91317
1.90955
1.90727
1.90485
1.9023
1.89967
1.89746
1.89411
1.88984
1.88343
1.87588
1.86766
1.85887
1.84938
1.83917
1.82782
1.81638
1.80596
1.7959
1.78626
1.77709
1.76873
1.84701
1.83483
1.82208
1.80906
1.79594
1.78289
1.76985
1.75677
1.74384
1.73093
1.7181
1.70527
1.6925
1.68063
1.66982
1.66069
1.6535
1.64791
1.64413
1.64147
1.6396
1.6382
1.63688
1.63588
1.63541
1.63543
1.63598
1.63705
1.6386
1.64067
1.64387
1.64992
1.66154
1.68297
1.71462
1.74816
1.7803
1.80331
1.81573
1.81947
1.82014
1.82087
1.82017
1.81779
1.81442
1.81104
1.80932
1.80964
1.81243
1.82237
1.8406
1.87217
1.90605
1.93185
1.94911
1.95903
1.95869
1.95383
1.94935
1.94547
1.94037
1.93374
1.92731
1.92263
1.91868
1.91363
1.9081
1.90371
1.90044
1.89677
1.89309
1.88985
1.88754
1.8848
1.88198
1.87779
1.87289
1.86641
1.85922
1.85123
1.84246
1.83252
1.82192
1.81144
1.80028
1.78943
1.77853
1.76845
1.85353
1.84272
1.83163
1.82008
1.80793
1.7954
1.78278
1.7702
1.75777
1.74527
1.73293
1.72079
1.70878
1.69711
1.68574
1.67517
1.66589
1.65792
1.6517
1.64692
1.64329
1.64051
1.63822
1.63641
1.63506
1.63422
1.6339
1.63411
1.63467
1.6356
1.63693
1.63917
1.64286
1.65092
1.66819
1.69524
1.73062
1.76767
1.79169
1.80745
1.81922
1.82246
1.822
1.82031
1.81757
1.81487
1.813
1.81147
1.81043
1.81049
1.81706
1.82963
1.85482
1.88598
1.91458
1.93611
1.94768
1.95047
1.95074
1.94769
1.94201
1.93471
1.92806
1.92305
1.9181
1.912
1.90559
1.90054
1.89619
1.89128
1.88639
1.88224
1.87896
1.87547
1.87231
1.86894
1.86569
1.86133
1.85611
1.84993
1.84255
1.83439
1.82526
1.81621
1.8064
1.79581
1.78419
1.77262
1.86124
1.85093
1.84008
1.82888
1.81746
1.80599
1.79446
1.78281
1.77108
1.75916
1.74733
1.73565
1.72406
1.7127
1.70146
1.69059
1.68044
1.67117
1.66324
1.65662
1.65111
1.64661
1.64283
1.56604
1.52857
1.49462
1.46526
1.4415
1.42343
1.40963
1.39773
1.389
1.38383
1.38224
1.38254
1.38279
1.38121
1.40034
1.38497
1.37401
1.36642
1.3599
1.35405
1.3499
1.34705
1.34504
1.34354
1.34201
1.34003
1.3376
1.33468
1.33143
1.32822
1.32528
1.32283
1.32133
1.32105
1.32235
1.32596
1.33179
1.33992
1.35055
1.36367
1.37934
1.3976
1.41924
1.44328
1.46859
1.49656
1.52626
1.55635
1.5851
1.61019
1.63151
1.64884
1.66277
1.67329
1.68151
1.68815
1.69396
1.69918
1.70428
1.71037
1.71817
1.72769
1.73738
1.74646
1.75336
1.75765
1.76015
1.76077
1.75933
1.75811
1.76012
1.76661
1.77966
1.79909
1.82106
1.83982
1.8519
1.85564
1.8537
1.84642
1.83404
1.81789
1.79748
1.77308
1.74458
1.71219
1.67586
1.63627
1.59488
1.55368
1.51558
1.48267
1.45523
1.43244
1.41554
1.40242
1.39185
1.38497
1.38249
1.38294
1.38402
1.38339
1.40362
1.38901
1.37785
1.37017
1.3639
1.35806
1.35366
1.35067
1.34863
1.34722
1.34607
1.34503
1.34386
1.34237
1.34055
1.33859
1.33668
1.33467
1.33302
1.33194
1.33145
1.33255
1.33563
1.34069
1.34787
1.35746
1.36993
1.386
1.40725
1.43357
1.46393
1.49853
1.53649
1.57599
1.6142
1.64997
1.6834
1.71238
1.73549
1.75187
1.76175
1.76616
1.76595
1.76273
1.75787
1.75392
1.75184
1.7515
1.75329
1.75723
1.76246
1.76637
1.76787
1.76722
1.76562
1.76296
1.76191
1.7639
1.76909
1.77868
1.79332
1.81096
1.82779
1.84003
1.84595
1.84537
1.83968
1.8288
1.81411
1.7951
1.77059
1.74144
1.70797
1.67054
1.62995
1.58764
1.54618
1.50762
1.47488
1.44807
1.4258
1.40961
1.39693
1.38733
1.3823
1.38144
1.38288
1.38389
1.40601
1.39299
1.38336
1.37626
1.37094
1.36599
1.36203
1.35944
1.358
1.35754
1.35772
1.35813
1.35845
1.3585
1.35814
1.35694
1.35466
1.35093
1.34617
1.34061
1.33468
1.32875
1.32367
1.31984
1.31816
1.32005
1.32692
1.3401
1.36059
1.3878
1.42152
1.46159
1.50705
1.55619
1.60679
1.65764
1.70675
1.75091
1.78826
1.81849
1.84063
1.85584
1.86241
1.86159
1.85429
1.84165
1.82659
1.81093
1.79841
1.79071
1.78627
1.7829
1.7808
1.77863
1.77481
1.76954
1.76493
1.76279
1.76354
1.76718
1.7749
1.78578
1.79909
1.81262
1.82401
1.83097
1.83287
1.82904
1.82055
1.80759
1.79009
1.76787
1.73992
1.70655
1.66873
1.62735
1.58443
1.54223
1.5034
1.46958
1.44288
1.4217
1.4054
1.39269
1.38374
1.37979
1.37966
1.38106
1.40658
1.39701
1.38969
1.38509
1.38193
1.37881
1.3761
1.3745
1.37409
1.37472
1.3761
1.37732
1.37796
1.37758
1.37613
1.37276
1.36735
1.35977
1.34998
1.33843
1.3262
1.31331
1.30099
1.29057
1.28276
1.27958
1.28285
1.29396
1.31391
1.34172
1.37709
1.41986
1.4698
1.52529
1.58454
1.64509
1.70412
1.75924
1.80904
1.85155
1.88561
1.91204
1.93056
1.94197
1.94592
1.94248
1.93151
1.91199
1.88857
1.86461
1.84235
1.82422
1.81118
1.80102
1.79225
1.78372
1.77476
1.76687
1.76152
1.76017
1.76201
1.76757
1.77629
1.78588
1.79605
1.80551
1.81224
1.81526
1.81353
1.80731
1.79728
1.78229
1.76217
1.73665
1.70496
1.66811
1.62756
1.58478
1.54239
1.50306
1.46821
1.44079
1.41893
1.40217
1.38922
1.38009
1.37636
1.37623
1.40647
1.40203
1.3988
1.39718
1.39658
1.39572
1.39455
1.39395
1.39403
1.39474
1.39551
1.39557
1.39451
1.39182
1.38718
1.38026
1.37119
1.35915
1.34554
1.33024
1.3137
1.2962
1.27958
1.26647
1.2576
1.25376
1.25603
1.26582
1.28406
1.31066
1.3452
1.38768
1.43816
1.49633
1.56035
1.62662
1.69288
1.75614
1.81402
1.86517
1.90927
1.94522
1.97215
1.99147
2.00269
2.0074
2.00693
2.00034
1.98778
1.96733
1.94026
1.90991
1.879
1.85
1.82705
1.80884
1.79509
1.78305
1.77134
1.76249
1.75653
1.75547
1.75765
1.76327
1.77096
1.77816
1.78449
1.79002
1.79307
1.79305
1.78958
1.78149
1.76924
1.75193
1.72918
1.701
1.66689
1.62863
1.58754
1.54584
1.50612
1.47061
1.44098
1.4181
1.40041
1.38667
1.37673
1.37176
1.40458
1.40692
1.40932
1.41167
1.41389
1.41528
1.41528
1.41506
1.41465
1.41434
1.4137
1.41231
1.40924
1.40448
1.39766
1.38824
1.37594
1.36089
1.34324
1.32324
1.30239
1.28164
1.26315
1.24796
1.23689
1.23197
1.23352
1.24292
1.2622
1.29143
1.33007
1.37825
1.43466
1.49658
1.56094
1.6254
1.69173
1.75399
1.81297
1.86743
1.91614
1.95757
1.9908
2.01726
2.03695
2.04947
2.05493
2.05461
2.04985
2.0394
2.02493
2.00386
1.97555
1.94139
1.90475
1.868
1.83601
1.81034
1.7913
1.77717
1.76509
1.75582
1.7494
1.74764
1.74936
1.75379
1.75931
1.76399
1.76671
1.76788
1.76786
1.7657
1.76023
1.75054
1.73658
1.71725
1.69257
1.66309
1.62863
1.59083
1.55124
1.51182
1.47544
1.44416
1.4198
1.40041
1.38515
1.37349
1.40998
1.42118
1.42988
1.43595
1.43963
1.44182
1.44222
1.44115
1.43914
1.43658
1.43312
1.4279
1.42068
1.41147
1.4004
1.38753
1.37283
1.35632
1.33766
1.31787
1.29781
1.27879
1.26191
1.24885
1.24182
1.24174
1.24794
1.26181
1.28518
1.31825
1.35966
1.40923
1.46413
1.52443
1.58699
1.64893
1.70955
1.76822
1.82221
1.87164
1.91648
1.9569
1.99231
2.02252
2.04673
2.06439
2.07625
2.08395
2.08639
2.08381
2.07655
2.06484
2.04929
2.02727
1.9971
1.95961
1.91848
1.87628
1.83837
1.80819
1.78531
1.76906
1.75704
1.74738
1.74031
1.737
1.73665
1.73893
1.74152
1.74313
1.74318
1.74154
1.7386
1.73412
1.72687
1.71561
1.70036
1.68011
1.65462
1.62478
1.5906
1.5542
1.51693
1.48116
1.44925
1.42302
1.4019
1.3851
1.43141
1.45211
1.46862
1.48059
1.48759
1.49041
1.49009
1.48626
1.4801
1.47184
1.46184
1.45032
1.43837
1.42565
1.41206
1.39744
1.38184
1.36482
1.34664
1.3282
1.31034
1.29482
1.28192
1.27443
1.27262
1.27566
1.28489
1.30218
1.33015
1.36753
1.41305
1.46647
1.52106
1.57877
1.6336
1.68741
1.74128
1.78939
1.83437
1.87623
1.91518
1.95133
1.98618
2.01771
2.04387
2.06393
2.07911
2.09006
2.09685
2.10022
2.10013
2.09708
2.08948
2.07767
2.06233
2.04015
2.00795
1.96662
1.92144
1.8755
1.83424
1.80049
1.7757
1.75807
1.74602
1.73615
1.72871
1.72405
1.72105
1.71992
1.71943
1.71774
1.71493
1.71115
1.70624
1.69971
1.69042
1.67736
1.66082
1.64013
1.61483
1.58546
1.55299
1.51882
1.48475
1.45307
1.4255
1.40329
1.48027
1.49963
1.51857
1.53557
1.54914
1.55816
1.56292
1.56291
1.55869
1.54984
1.53741
1.52204
1.50424
1.48541
1.46617
1.44675
1.4272
1.40787
1.38913
1.37139
1.35592
1.34244
1.33324
1.32882
1.33068
1.3377
1.35175
1.37522
1.40634
1.44805
1.49919
1.55722
1.61503
1.66736
1.70707
1.74185
1.77712
1.81346
1.84938
1.88359
1.91581
1.94477
1.97261
2.00132
2.02877
2.05302
2.07252
2.08572
2.09452
2.09965
2.10249
2.10413
2.10228
2.09865
2.09248
2.0815
2.0658
2.043
2.00915
1.96536
1.91741
1.87018
1.82737
1.79216
1.76579
1.74673
1.7335
1.7226
1.71404
1.7081
1.70324
1.69896
1.69479
1.69004
1.68424
1.67791
1.67077
1.66252
1.65183
1.63709
1.61915
1.59783
1.57274
1.54453
1.51415
1.48283
1.45266
1.42566
)
;

boundaryField
{
    inlet
    {
        type            calculated;
        value           nonuniform 0();
    }
    outlet
    {
        type            calculated;
        value           nonuniform 0();
    }
    bottom
    {
        type            symmetryPlane;
    }
    top
    {
        type            symmetryPlane;
    }
    obstacle
    {
        type            calculated;
        value           nonuniform 0();
    }
    front
    {
        type            empty;
    }
    back
    {
        type            empty;
    }
    procBoundary19to2
    {
        type            processor;
        value           nonuniform List<scalar> 
23
(
1.5429
1.58315
1.61793
1.65574
1.69387
1.72883
1.75725
1.77891
1.79467
1.8057
1.81482
1.82277
1.83004
1.83618
1.41937
1.42136
1.42183
1.41848
1.41156
1.40112
1.39714
1.40831
1.46157
)
;
    }
    procBoundary19to10
    {
        type            processor;
        value           nonuniform List<scalar> 5(1.84398 1.85207 1.85857 1.86429 1.87117);
    }
    procBoundary19to11
    {
        type            processor;
        value           nonuniform List<scalar> 
89
(
1.54561
1.51041
1.47921
1.45338
1.43339
1.41847
1.40575
1.39474
1.3869
1.38253
1.38088
1.38053
1.37983
1.37785
1.39458
1.3811
1.37157
1.36471
1.35849
1.35313
1.34966
1.34756
1.3462
1.34516
1.34387
1.34196
1.33906
1.33558
1.33185
1.32812
1.32459
1.3218
1.32021
1.32003
1.32134
1.32482
1.33079
1.33939
1.35051
1.36396
1.37929
1.39681
1.41672
1.43865
1.46177
1.48485
1.50748
1.52931
1.5498
1.56817
1.58477
1.59984
1.61391
1.62681
1.63898
1.65031
1.66147
1.67295
1.68437
1.69573
1.70723
1.71927
1.73096
1.74122
1.74855
1.75233
1.75268
1.75116
1.75018
1.75327
1.76209
1.779
1.80331
1.82894
1.84912
1.85957
1.86205
1.8582
1.84881
1.83517
1.818
1.79785
1.77472
1.74858
1.7186
1.68442
1.6462
1.60588
1.60588
)
;
    }
    procBoundary19to12
    {
        type            processor;
        value           uniform 1.37587;
    }
    procBoundary19to20
    {
        type            processor;
        value           nonuniform List<scalar> 
27
(
1.42045
1.43337
1.44361
1.45193
1.45965
1.46379
1.46664
1.47663
1.50772
1.56861
1.64943
1.71324
1.75126
1.76452
1.76372
1.76012
1.75845
1.76128
1.37845
1.38077
1.38079
1.37683
1.37037
1.36622
1.37181
1.38543
1.40314
)
;
    }
    procBoundary19to27
    {
        type            processor;
        value           nonuniform List<scalar> 
89
(
1.63964
1.63708
1.6352
1.63395
1.63336
1.63319
1.63341
1.6338
1.6343
1.6355
1.63807
1.64336
1.65523
1.67701
1.71076
1.74625
1.77592
1.80028
1.81421
1.81957
1.81875
1.81841
1.81801
1.81639
1.81369
1.81062
1.80852
1.80864
1.81289
1.82063
1.83854
1.8649
1.89421
1.91915
1.93282
1.9414
1.94626
1.94299
1.936
1.93018
1.92523
1.91926
1.91214
1.90525
1.89974
1.89457
1.88862
1.88265
1.87759
1.8732
1.86849
1.86409
1.86022
1.85701
1.85338
1.84938
1.8449
1.83959
1.83321
1.82571
1.81793
1.80961
1.80073
1.79074
1.77989
1.86831
1.85873
1.84864
1.83823
1.82753
1.81657
1.8053
1.7939
1.78264
1.77142
1.76035
1.74929
1.73828
1.72748
1.71672
1.70612
1.69584
1.68596
1.67695
1.66896
1.66199
1.65599
1.63964
1.6508
)
;
    }
}


// ************************************************************************* //
