/*--------------------------------*- C++ -*----------------------------------*\
  =========                 |
  \\      /  F ield         | OpenFOAM: The Open Source CFD Toolbox
   \\    /   O peration     | Website:  https://openfoam.org
    \\  /    A nd           | Version:  7
     \\/     M anipulation  |
\*---------------------------------------------------------------------------*/
FoamFile
{
    version     2.0;
    format      ascii;
    class       volVectorField;
    location    "0.8";
    object      U;
}
// * * * * * * * * * * * * * * * * * * * * * * * * * * * * * * * * * * * * * //

dimensions      [0 1 -1 0 0 0 0];

internalField   nonuniform List<vector> 
20000
(
(3.01469e-06 -2.96974e-06 0)
(1.71238e-05 -9.18958e-06 0)
(4.18663e-05 -1.15126e-05 0)
(6.74956e-05 -1.0834e-05 0)
(8.76395e-05 -8.45085e-06 0)
(9.89778e-05 -5.16164e-06 0)
(9.96157e-05 -1.42704e-06 0)
(8.85247e-05 2.48072e-06 0)
(6.52654e-05 6.40102e-06 0)
(2.97829e-05 1.02393e-05 0)
(-1.77255e-05 1.39387e-05 0)
(-7.68952e-05 1.74652e-05 0)
(-0.000147248 2.07987e-05 0)
(-0.000228233 2.39279e-05 0)
(-0.00031925 2.68476e-05 0)
(-0.000419671 2.95565e-05 0)
(-0.000528853 3.20562e-05 0)
(-0.00064615 3.43504e-05 0)
(-0.000770918 3.64441e-05 0)
(-0.000902522 3.83431e-05 0)
(-0.00104034 4.00544e-05 0)
(-0.00118378 4.15852e-05 0)
(-0.00133224 4.29432e-05 0)
(-0.00148517 4.41361e-05 0)
(-0.00164203 4.51716e-05 0)
(-0.0018023 4.60579e-05 0)
(-0.00196548 4.68027e-05 0)
(-0.00213111 4.7414e-05 0)
(-0.00229875 4.78995e-05 0)
(-0.00246796 4.82667e-05 0)
(-0.00263837 4.8523e-05 0)
(-0.00280959 4.86756e-05 0)
(-0.00298127 4.87316e-05 0)
(-0.00315309 4.86976e-05 0)
(-0.00332475 4.85802e-05 0)
(-0.00349596 4.83857e-05 0)
(-0.00366646 4.81201e-05 0)
(-0.00383601 4.77894e-05 0)
(-0.00400438 4.73988e-05 0)
(-0.00417137 4.69539e-05 0)
(-0.00433679 4.64596e-05 0)
(-0.00450048 4.59208e-05 0)
(-0.00466227 4.5342e-05 0)
(-0.00482204 4.47275e-05 0)
(-0.00497966 4.40813e-05 0)
(-0.00513502 4.34074e-05 0)
(-0.00528801 4.27093e-05 0)
(-0.00543857 4.19906e-05 0)
(-0.00558661 4.12543e-05 0)
(-0.00573207 4.05034e-05 0)
(-0.00587491 3.97407e-05 0)
(-0.00601507 3.89688e-05 0)
(-0.00615253 3.81901e-05 0)
(-0.00628726 3.74068e-05 0)
(-0.00641924 3.66211e-05 0)
(-0.00654847 3.58348e-05 0)
(-0.00667494 3.50495e-05 0)
(-0.00679866 3.42669e-05 0)
(-0.00691962 3.34885e-05 0)
(-0.00703785 3.27155e-05 0)
(-0.00715335 3.19491e-05 0)
(-0.00726616 3.11903e-05 0)
(-0.0073763 3.04401e-05 0)
(-0.00748379 2.96992e-05 0)
(-0.00758868 2.89683e-05 0)
(-0.00769098 2.82481e-05 0)
(-0.00779073 2.7539e-05 0)
(-0.00788798 2.68414e-05 0)
(-0.00798276 2.61558e-05 0)
(-0.00807511 2.54822e-05 0)
(-0.00816507 2.48208e-05 0)
(-0.00825269 2.41717e-05 0)
(-0.008338 2.35348e-05 0)
(-0.00842104 2.29101e-05 0)
(-0.00850186 2.22976e-05 0)
(-0.0085805 2.16969e-05 0)
(-0.00865699 2.11078e-05 0)
(-0.00873137 2.05299e-05 0)
(-0.00880369 1.99629e-05 0)
(-0.00887398 1.94064e-05 0)
(-0.00894226 1.88598e-05 0)
(-0.00900858 1.83226e-05 0)
(-0.00907297 1.77944e-05 0)
(-0.00913546 1.72745e-05 0)
(-0.00919606 1.67621e-05 0)
(-0.00925481 1.62565e-05 0)
(-0.00931173 1.57569e-05 0)
(-0.00936683 1.52626e-05 0)
(-0.00942014 1.4773e-05 0)
(-0.00947166 1.42872e-05 0)
(-0.00952141 1.3804e-05 0)
(-0.00956939 1.33224e-05 0)
(-0.00961561 1.28415e-05 0)
(-0.00966007 1.23606e-05 0)
(-0.00970276 1.18786e-05 0)
(-0.00974368 1.13945e-05 0)
(-0.00978282 1.09072e-05 0)
(-0.00982017 1.04154e-05 0)
(-0.0098557 9.91794e-06 0)
(-0.00988939 9.41384e-06 0)
(-0.00992122 8.90193e-06 0)
(-0.00995116 8.38103e-06 0)
(-0.00997918 7.84994e-06 0)
(-0.0100052 7.30743e-06 0)
(-0.0100293 6.75227e-06 0)
(-0.0100513 6.18322e-06 0)
(-0.0100712 5.59901e-06 0)
(-0.0100889 4.99841e-06 0)
(-0.0101044 4.38022e-06 0)
(-0.0101176 3.74324e-06 0)
(-0.0101285 3.0862e-06 0)
(-0.010137 2.40779e-06 0)
(-0.0101429 1.70673e-06 0)
(-0.0101463 9.81823e-07 0)
(-0.010147 2.31999e-07 0)
(-0.010145 -5.43787e-07 0)
(-0.0101401 -1.34662e-06 0)
(-0.0101323 -2.17765e-06 0)
(-0.0101214 -3.03801e-06 0)
(-0.0101074 -3.92872e-06 0)
(-0.0100902 -4.85065e-06 0)
(-0.0100696 -5.80457e-06 0)
(-0.0100455 -6.79116e-06 0)
(-0.0100179 -7.81113e-06 0)
(-0.00998653 -8.86511e-06 0)
(-0.00995139 -9.95366e-06 0)
(-0.00991231 -1.10772e-05 0)
(-0.00986919 -1.22359e-05 0)
(-0.0098219 -1.343e-05 0)
(-0.00977032 -1.46593e-05 0)
(-0.00971434 -1.59238e-05 0)
(-0.00965383 -1.72231e-05 0)
(-0.00958869 -1.85567e-05 0)
(-0.00951879 -1.99241e-05 0)
(-0.00944403 -2.13243e-05 0)
(-0.0093643 -2.27562e-05 0)
(-0.00927949 -2.42186e-05 0)
(-0.00918951 -2.57101e-05 0)
(-0.00909427 -2.72287e-05 0)
(-0.00899368 -2.87726e-05 0)
(-0.00888767 -3.03395e-05 0)
(-0.00877616 -3.19269e-05 0)
(-0.0086591 -3.3532e-05 0)
(-0.00853643 -3.51518e-05 0)
(-0.00840812 -3.67829e-05 0)
(-0.00827414 -3.84216e-05 0)
(-0.00813448 -4.0064e-05 0)
(-0.00798915 -4.17059e-05 0)
(-0.00783816 -4.33428e-05 0)
(-0.00768154 -4.49697e-05 0)
(-0.00751934 -4.65814e-05 0)
(-0.00735164 -4.81724e-05 0)
(-0.00717853 -4.9737e-05 0)
(-0.0070001 -5.12691e-05 0)
(-0.00681651 -5.27623e-05 0)
(-0.00662789 -5.42099e-05 0)
(-0.00643442 -5.56051e-05 0)
(-0.00623632 -5.69405e-05 0)
(-0.00603379 -5.82087e-05 0)
(-0.0058271 -5.94021e-05 0)
(-0.00561653 -6.05127e-05 0)
(-0.00540237 -6.15325e-05 0)
(-0.00518496 -6.24532e-05 0)
(-0.00496467 -6.32665e-05 0)
(-0.00474187 -6.39637e-05 0)
(-0.004517 -6.45362e-05 0)
(-0.0042905 -6.49753e-05 0)
(-0.00406285 -6.52723e-05 0)
(-0.00383454 -6.54185e-05 0)
(-0.00360612 -6.54051e-05 0)
(-0.00337816 -6.52234e-05 0)
(-0.00315123 -6.48647e-05 0)
(-0.00292596 -6.43207e-05 0)
(-0.002703 -6.35828e-05 0)
(-0.00248302 -6.26428e-05 0)
(-0.00226672 -6.14928e-05 0)
(-0.00205482 -6.01249e-05 0)
(-0.00184806 -5.85318e-05 0)
(-0.00164721 -5.67064e-05 0)
(-0.00145306 -5.46416e-05 0)
(-0.0012664 -5.2331e-05 0)
(-0.00108806 -4.97689e-05 0)
(-0.000918858 -4.69503e-05 0)
(-0.000759631 -4.38709e-05 0)
(-0.000611216 -4.05275e-05 0)
(-0.000474443 -3.69183e-05 0)
(-0.000350131 -3.30435e-05 0)
(-0.000239073 -2.89064e-05 0)
(-0.000142024 -2.45142e-05 0)
(-5.96754e-05 -1.98806e-05 0)
(7.36863e-06 -1.50292e-05 0)
(5.86405e-05 -9.99928e-06 0)
(9.38723e-05 -4.85616e-06 0)
(0.000113096 2.90062e-07 0)
(0.000116804 5.25023e-06 0)
(0.000106203 9.69498e-06 0)
(8.35599e-05 1.30543e-05 0)
(5.29342e-05 1.43208e-05 0)
(2.22929e-05 1.18107e-05 0)
(4.15424e-06 4.1545e-06 0)
(9.21274e-06 -1.70412e-05 0)
(3.98444e-05 -3.97804e-05 0)
(8.50587e-05 -4.64663e-05 0)
(0.000127415 -4.07887e-05 0)
(0.000154886 -2.70377e-05 0)
(0.000160143 -8.29237e-06 0)
(0.000138341 1.33659e-05 0)
(8.64659e-05 3.65365e-05 0)
(2.9122e-06 6.02802e-05 0)
(-0.000112909 8.39668e-05 0)
(-0.000260864 0.00010717 0)
(-0.000440303 0.000129599 0)
(-0.000650206 0.000151059 0)
(-0.000889296 0.000171419 0)
(-0.00115611 0.000190597 0)
(-0.00144908 0.000208543 0)
(-0.00176655 0.000225234 0)
(-0.00210682 0.000240665 0)
(-0.00246818 0.000254845 0)
(-0.00284893 0.000267793 0)
(-0.00324739 0.000279538 0)
(-0.0036619 0.000290113 0)
(-0.00409086 0.000299557 0)
(-0.00453271 0.000307912 0)
(-0.00498593 0.000315222 0)
(-0.00544909 0.000321533 0)
(-0.00592079 0.000326891 0)
(-0.00639971 0.000331345 0)
(-0.00688459 0.000334941 0)
(-0.00737423 0.000337727 0)
(-0.0078675 0.000339751 0)
(-0.00836334 0.000341058 0)
(-0.00886075 0.000341693 0)
(-0.00935877 0.0003417 0)
(-0.00985653 0.000341123 0)
(-0.0103532 0.000340003 0)
(-0.0108481 0.000338381 0)
(-0.0113404 0.000336294 0)
(-0.0118295 0.000333782 0)
(-0.0123148 0.00033088 0)
(-0.0127957 0.000327621 0)
(-0.0132718 0.000324039 0)
(-0.0137426 0.000320166 0)
(-0.0142077 0.000316031 0)
(-0.0146667 0.000311662 0)
(-0.0151193 0.000307086 0)
(-0.0155652 0.000302328 0)
(-0.0160041 0.000297413 0)
(-0.0164359 0.000292362 0)
(-0.0168602 0.000287196 0)
(-0.0172771 0.000281936 0)
(-0.0176863 0.0002766 0)
(-0.0180877 0.000271204 0)
(-0.0184812 0.000265765 0)
(-0.0188669 0.000260298 0)
(-0.0192446 0.000254815 0)
(-0.0196143 0.000249331 0)
(-0.019976 0.000243855 0)
(-0.0203298 0.000238398 0)
(-0.0206757 0.000232971 0)
(-0.0210136 0.000227581 0)
(-0.0213438 0.000222236 0)
(-0.0216661 0.000216943 0)
(-0.0219808 0.000211708 0)
(-0.0222878 0.000206537 0)
(-0.0225874 0.000201432 0)
(-0.0228795 0.0001964 0)
(-0.0231642 0.000191442 0)
(-0.0234418 0.000186561 0)
(-0.0237123 0.00018176 0)
(-0.0239757 0.000177038 0)
(-0.0242323 0.000172398 0)
(-0.0244821 0.000167838 0)
(-0.0247252 0.00016336 0)
(-0.0249619 0.000158962 0)
(-0.025192 0.000154643 0)
(-0.0254159 0.000150401 0)
(-0.0256336 0.000146235 0)
(-0.0258451 0.000142141 0)
(-0.0260507 0.000138117 0)
(-0.0262504 0.000134159 0)
(-0.0264442 0.000130265 0)
(-0.0266323 0.00012643 0)
(-0.0268148 0.000122649 0)
(-0.0269917 0.000118919 0)
(-0.0271632 0.000115235 0)
(-0.0273291 0.00011159 0)
(-0.0274897 0.00010798 0)
(-0.0276449 0.0001044 0)
(-0.0277949 0.000100843 0)
(-0.0279395 9.73029e-05 0)
(-0.0280789 9.37736e-05 0)
(-0.0282131 9.02481e-05 0)
(-0.028342 8.67197e-05 0)
(-0.0284656 8.31816e-05 0)
(-0.028584 7.96268e-05 0)
(-0.028697 7.60479e-05 0)
(-0.0288047 7.24369e-05 0)
(-0.028907 6.87859e-05 0)
(-0.0290038 6.50871e-05 0)
(-0.0290951 6.13326e-05 0)
(-0.0291807 5.75144e-05 0)
(-0.0292606 5.36244e-05 0)
(-0.0293347 4.96543e-05 0)
(-0.0294028 4.55957e-05 0)
(-0.0294648 4.14401e-05 0)
(-0.0295205 3.7179e-05 0)
(-0.0295698 3.28039e-05 0)
(-0.0296126 2.83063e-05 0)
(-0.0296486 2.36779e-05 0)
(-0.0296776 1.89106e-05 0)
(-0.0296995 1.39959e-05 0)
(-0.029714 8.92573e-06 0)
(-0.0297209 3.69195e-06 0)
(-0.0297199 -1.7132e-06 0)
(-0.0297108 -7.29721e-06 0)
(-0.0296933 -1.30673e-05 0)
(-0.0296672 -1.90304e-05 0)
(-0.0296322 -2.51934e-05 0)
(-0.029588 -3.15626e-05 0)
(-0.0295342 -3.81438e-05 0)
(-0.0294707 -4.49424e-05 0)
(-0.029397 -5.19629e-05 0)
(-0.0293128 -5.92097e-05 0)
(-0.0292178 -6.66862e-05 0)
(-0.0291118 -7.43954e-05 0)
(-0.0289943 -8.23393e-05 0)
(-0.028865 -9.05192e-05 0)
(-0.0287235 -9.89353e-05 0)
(-0.0285697 -0.000107587 0)
(-0.028403 -0.000116472 0)
(-0.0282233 -0.000125588 0)
(-0.0280301 -0.000134931 0)
(-0.0278231 -0.000144496 0)
(-0.0276021 -0.000154276 0)
(-0.0273667 -0.000164262 0)
(-0.0271167 -0.000174446 0)
(-0.0268518 -0.000184817 0)
(-0.0265717 -0.000195361 0)
(-0.0262762 -0.000206065 0)
(-0.0259651 -0.000216913 0)
(-0.0256383 -0.000227885 0)
(-0.0252955 -0.000238964 0)
(-0.0249366 -0.000250127 0)
(-0.0245616 -0.000261352 0)
(-0.0241704 -0.000272611 0)
(-0.0237629 -0.000283878 0)
(-0.0233393 -0.000295124 0)
(-0.0228995 -0.000306316 0)
(-0.0224436 -0.000317422 0)
(-0.0219719 -0.000328405 0)
(-0.0214846 -0.000339228 0)
(-0.0209819 -0.000349851 0)
(-0.0204641 -0.000360233 0)
(-0.0199317 -0.000370329 0)
(-0.0193851 -0.000380096 0)
(-0.0188247 -0.000389485 0)
(-0.0182514 -0.000398448 0)
(-0.0176655 -0.000406935 0)
(-0.017068 -0.000414894 0)
(-0.0164596 -0.000422271 0)
(-0.0158412 -0.000429013 0)
(-0.0152138 -0.000435065 0)
(-0.0145783 -0.00044037 0)
(-0.013936 -0.000444871 0)
(-0.013288 -0.000448513 0)
(-0.0126356 -0.000451236 0)
(-0.0119801 -0.000452984 0)
(-0.0113231 -0.000453701 0)
(-0.010666 -0.000453328 0)
(-0.0100104 -0.00045181 0)
(-0.0093581 -0.000449092 0)
(-0.00871071 -0.00044512 0)
(-0.00807011 -0.000439842 0)
(-0.0074382 -0.000433207 0)
(-0.00681694 -0.000425168 0)
(-0.00620835 -0.000415679 0)
(-0.0056145 -0.000404698 0)
(-0.00503754 -0.000392185 0)
(-0.00447964 -0.000378108 0)
(-0.00394301 -0.000362436 0)
(-0.00342988 -0.000345147 0)
(-0.00294252 -0.000326225 0)
(-0.00248316 -0.000305666 0)
(-0.00205405 -0.000283476 0)
(-0.00165736 -0.000259679 0)
(-0.00129523 -0.000234317 0)
(-0.000969653 -0.000207461 0)
(-0.00068248 -0.00017922 0)
(-0.000435327 -0.000149758 0)
(-0.000229492 -0.000119312 0)
(-6.58208e-05 -8.82286e-05 0)
(5.54695e-05 -5.7019e-05 0)
(0.00013504 -2.64396e-05 0)
(0.000174789 2.37231e-06 0)
(0.000178348 2.76944e-05 0)
(0.000151637 4.69255e-05 0)
(0.000103732 5.61456e-05 0)
(4.97282e-05 4.97336e-05 0)
(1.18032e-05 2.22847e-05 0)
(1.15507e-05 -4.18456e-05 0)
(4.66145e-05 -8.50311e-05 0)
(9.32253e-05 -9.29959e-05 0)
(0.000129836 -7.42926e-05 0)
(0.000141747 -3.6865e-05 0)
(0.000119492 1.3051e-05 0)
(5.63872e-05 7.08221e-05 0)
(-5.20061e-05 0.00013309 0)
(-0.000208269 0.000197449 0)
(-0.000413558 0.000262179 0)
(-0.000667961 0.000326055 0)
(-0.000970761 0.000388205 0)
(-0.00132064 0.00044801 0)
(-0.00171586 0.000505041 0)
(-0.00215434 0.000559004 0)
(-0.00263379 0.000609711 0)
(-0.00315177 0.000657049 0)
(-0.00370573 0.000700968 0)
(-0.00429311 0.000741459 0)
(-0.00491129 0.000778551 0)
(-0.00555768 0.000812299 0)
(-0.00622974 0.00084278 0)
(-0.00692495 0.000870085 0)
(-0.00764089 0.00089432 0)
(-0.00837518 0.000915596 0)
(-0.00912554 0.000934035 0)
(-0.00988979 0.000949761 0)
(-0.0106658 0.000962902 0)
(-0.0114516 0.000973586 0)
(-0.0122453 0.000981945 0)
(-0.013045 0.000988106 0)
(-0.0138491 0.000992198 0)
(-0.0146559 0.000994347 0)
(-0.0154639 0.000994677 0)
(-0.0162718 0.000993309 0)
(-0.0170781 0.000990361 0)
(-0.0178816 0.000985947 0)
(-0.0186813 0.000980178 0)
(-0.0194759 0.000973159 0)
(-0.0202647 0.000964995 0)
(-0.0210465 0.000955784 0)
(-0.0218208 0.000945619 0)
(-0.0225866 0.000934591 0)
(-0.0233433 0.000922786 0)
(-0.0240903 0.000910285 0)
(-0.0248271 0.000897167 0)
(-0.0255531 0.000883503 0)
(-0.026268 0.000869364 0)
(-0.0269714 0.000854815 0)
(-0.0276629 0.000839917 0)
(-0.0283423 0.000824727 0)
(-0.0290094 0.000809299 0)
(-0.0296639 0.000793684 0)
(-0.0303057 0.000777928 0)
(-0.0309348 0.000762074 0)
(-0.031551 0.000746163 0)
(-0.0321543 0.00073023 0)
(-0.0327447 0.000714311 0)
(-0.0333221 0.000698436 0)
(-0.0338867 0.000682632 0)
(-0.0344385 0.000666926 0)
(-0.0349776 0.00065134 0)
(-0.035504 0.000635894 0)
(-0.0360179 0.000620607 0)
(-0.0365194 0.000605494 0)
(-0.0370087 0.000590568 0)
(-0.0374858 0.000575842 0)
(-0.037951 0.000561324 0)
(-0.0384044 0.000547023 0)
(-0.0388462 0.000532943 0)
(-0.0392765 0.00051909 0)
(-0.0396956 0.000505466 0)
(-0.0401037 0.000492072 0)
(-0.0405008 0.000478907 0)
(-0.0408872 0.000465969 0)
(-0.0412631 0.000453255 0)
(-0.0416286 0.000440761 0)
(-0.0419839 0.00042848 0)
(-0.0423292 0.000416406 0)
(-0.0426646 0.00040453 0)
(-0.0429903 0.000392844 0)
(-0.0433064 0.000381337 0)
(-0.0436132 0.000369998 0)
(-0.0439106 0.000358814 0)
(-0.0441988 0.000347772 0)
(-0.044478 0.00033686 0)
(-0.0447481 0.000326061 0)
(-0.0450094 0.00031536 0)
(-0.0452619 0.000304741 0)
(-0.0455056 0.000294187 0)
(-0.0457405 0.00028368 0)
(-0.0459668 0.000273201 0)
(-0.0461843 0.000262732 0)
(-0.0463932 0.000252252 0)
(-0.0465934 0.000241741 0)
(-0.0467849 0.00023118 0)
(-0.0469675 0.000220545 0)
(-0.0471413 0.000209816 0)
(-0.0473061 0.00019897 0)
(-0.0474619 0.000187984 0)
(-0.0476085 0.000176835 0)
(-0.0477458 0.000165501 0)
(-0.0478736 0.000153957 0)
(-0.0479918 0.00014218 0)
(-0.0481001 0.000130145 0)
(-0.0481983 0.000117829 0)
(-0.0482862 0.000105207 0)
(-0.0483636 9.22556e-05 0)
(-0.04843 7.89494e-05 0)
(-0.0484854 6.52651e-05 0)
(-0.0485293 5.11789e-05 0)
(-0.0485614 3.66673e-05 0)
(-0.0485814 2.17073e-05 0)
(-0.0485889 6.27599e-06 0)
(-0.0485834 -9.64871e-06 0)
(-0.0485647 -2.60883e-05 0)
(-0.0485323 -4.30632e-05 0)
(-0.0484857 -6.05932e-05 0)
(-0.0484245 -7.86968e-05 0)
(-0.0483482 -9.73916e-05 0)
(-0.0482564 -0.000116694 0)
(-0.0481485 -0.000136618 0)
(-0.0480241 -0.000157178 0)
(-0.0478826 -0.000178385 0)
(-0.0477236 -0.000200248 0)
(-0.0475465 -0.000222774 0)
(-0.0473507 -0.000245969 0)
(-0.0471358 -0.000269835 0)
(-0.0469012 -0.000294373 0)
(-0.0466464 -0.000319578 0)
(-0.0463709 -0.000345447 0)
(-0.0460741 -0.000371968 0)
(-0.0457555 -0.000399131 0)
(-0.0454147 -0.000426918 0)
(-0.0450511 -0.00045531 0)
(-0.0446643 -0.000484282 0)
(-0.0442539 -0.000513807 0)
(-0.0438193 -0.000543851 0)
(-0.0433604 -0.000574378 0)
(-0.0428766 -0.000605345 0)
(-0.0423677 -0.000636705 0)
(-0.0418334 -0.000668406 0)
(-0.0412735 -0.00070039 0)
(-0.0406878 -0.000732596 0)
(-0.040076 -0.000764953 0)
(-0.0394383 -0.000797389 0)
(-0.0387746 -0.000829824 0)
(-0.0380848 -0.000862172 0)
(-0.0373692 -0.000894343 0)
(-0.0366279 -0.000926238 0)
(-0.0358613 -0.000957756 0)
(-0.0350697 -0.000988788 0)
(-0.0342535 -0.00101922 0)
(-0.0334133 -0.00104893 0)
(-0.0325497 -0.0010778 0)
(-0.0316636 -0.0011057 0)
(-0.0307556 -0.00113248 0)
(-0.0298269 -0.00115802 0)
(-0.0288785 -0.00118217 0)
(-0.0279115 -0.00120478 0)
(-0.0269273 -0.0012257 0)
(-0.0259273 -0.00124477 0)
(-0.0249131 -0.00126184 0)
(-0.0238863 -0.00127675 0)
(-0.0228488 -0.00128935 0)
(-0.0218024 -0.00129946 0)
(-0.0207492 -0.00130693 0)
(-0.0196914 -0.00131159 0)
(-0.0186314 -0.00131329 0)
(-0.0175714 -0.00131186 0)
(-0.0165142 -0.00130715 0)
(-0.0154623 -0.00129902 0)
(-0.0144186 -0.0012873 0)
(-0.013386 -0.00127186 0)
(-0.0123673 -0.00125255 0)
(-0.0113659 -0.00122926 0)
(-0.0103847 -0.00120187 0)
(-0.00942719 -0.00117025 0)
(-0.00849662 -0.00113432 0)
(-0.00759639 -0.001094 0)
(-0.00672996 -0.00104922 0)
(-0.00590079 -0.000999934 0)
(-0.00511235 -0.000946134 0)
(-0.00436809 -0.000887835 0)
(-0.00367139 -0.000825092 0)
(-0.00302555 -0.000758018 0)
(-0.00243371 -0.000686786 0)
(-0.00189879 -0.000611663 0)
(-0.00142344 -0.000533031 0)
(-0.00100988 -0.000451429 0)
(-0.000659777 -0.000367618 0)
(-0.000374082 -0.000282656 0)
(-0.000152745 -0.00019803 0)
(5.5959e-06 -0.000115826 0)
(0.000104051 -3.89949e-05 0)
(0.000148028 2.83051e-05 0)
(0.000145761 8.02542e-05 0)
(0.000109024 0.000108876 0)
(5.6199e-05 0.000103748 0)
(1.43179e-05 5.29162e-05 0)
(1.09178e-05 -6.76029e-05 0)
(4.11221e-05 -0.000127578 0)
(7.49023e-05 -0.000129693 0)
(8.93945e-05 -8.86791e-05 0)
(6.882e-05 -1.65147e-05 0)
(2.63965e-06 7.71958e-05 0)
(-0.000116815 0.000185013 0)
(-0.000294818 0.000301318 0)
(-0.000534593 0.000421916 0)
(-0.000837721 0.000543695 0)
(-0.0012045 0.000664358 0)
(-0.00163421 0.000782217 0)
(-0.00212538 0.000896043 0)
(-0.00267593 0.00100495 0)
(-0.00328334 0.00110832 0)
(-0.00394479 0.00120572 0)
(-0.00465721 0.00129689 0)
(-0.00541739 0.00138169 0)
(-0.00622202 0.00146005 0)
(-0.00706775 0.00153199 0)
(-0.00795122 0.00159759 0)
(-0.0088691 0.00165696 0)
(-0.00981813 0.00171027 0)
(-0.0107951 0.00175768 0)
(-0.0117968 0.00179941 0)
(-0.0128204 0.00183566 0)
(-0.0138628 0.00186667 0)
(-0.0149212 0.00189267 0)
(-0.0159931 0.0019139 0)
(-0.0170757 0.00193061 0)
(-0.0181668 0.00194304 0)
(-0.019264 0.00195143 0)
(-0.020365 0.00195602 0)
(-0.021468 0.00195705 0)
(-0.0225709 0.00195475 0)
(-0.0236719 0.00194935 0)
(-0.0247694 0.00194106 0)
(-0.0258618 0.0019301 0)
(-0.0269477 0.00191668 0)
(-0.0280257 0.00190099 0)
(-0.0290945 0.00188323 0)
(-0.0301531 0.00186358 0)
(-0.0312005 0.00184221 0)
(-0.0322356 0.0018193 0)
(-0.0332577 0.001795 0)
(-0.034266 0.00176946 0)
(-0.0352599 0.00174283 0)
(-0.0362386 0.00171524 0)
(-0.0372018 0.00168683 0)
(-0.0381489 0.0016577 0)
(-0.0390796 0.00162798 0)
(-0.0399935 0.00159778 0)
(-0.0408905 0.00156718 0)
(-0.0417702 0.00153629 0)
(-0.0426325 0.00150518 0)
(-0.0434773 0.00147394 0)
(-0.0443045 0.00144264 0)
(-0.0451141 0.00141135 0)
(-0.0459061 0.00138012 0)
(-0.0466805 0.00134902 0)
(-0.0474375 0.0013181 0)
(-0.048177 0.0012874 0)
(-0.0488993 0.00125695 0)
(-0.0496044 0.00122681 0)
(-0.0502926 0.00119699 0)
(-0.0509639 0.00116753 0)
(-0.0516187 0.00113844 0)
(-0.052257 0.00110976 0)
(-0.0528792 0.00108149 0)
(-0.0534855 0.00105365 0)
(-0.054076 0.00102624 0)
(-0.0546511 0.000999267 0)
(-0.0552109 0.00097274 0)
(-0.0557558 0.000946654 0)
(-0.0562858 0.000921007 0)
(-0.0568014 0.000895793 0)
(-0.0573027 0.000871002 0)
(-0.0577899 0.000846624 0)
(-0.0582633 0.000822646 0)
(-0.058723 0.00079905 0)
(-0.0591693 0.000775821 0)
(-0.0596025 0.000752938 0)
(-0.0600225 0.000730379 0)
(-0.0604297 0.00070812 0)
(-0.0608242 0.000686136 0)
(-0.0612062 0.000664399 0)
(-0.0615756 0.000642882 0)
(-0.0619328 0.000621554 0)
(-0.0622777 0.000600382 0)
(-0.0626105 0.000579333 0)
(-0.0629311 0.000558372 0)
(-0.0632397 0.000537464 0)
(-0.0635362 0.000516571 0)
(-0.0638206 0.000495655 0)
(-0.064093 0.000474676 0)
(-0.0643532 0.000453592 0)
(-0.0646012 0.000432363 0)
(-0.0648369 0.000410947 0)
(-0.0650602 0.000389299 0)
(-0.065271 0.000367375 0)
(-0.0654689 0.000345131 0)
(-0.065654 0.000322521 0)
(-0.0658259 0.000299499 0)
(-0.0659844 0.000276018 0)
(-0.0661293 0.000252033 0)
(-0.0662602 0.000227495 0)
(-0.0663768 0.000202358 0)
(-0.0664787 0.000176575 0)
(-0.0665657 0.000150099 0)
(-0.0666373 0.000122883 0)
(-0.0666931 9.48817e-05 0)
(-0.0667325 6.60491e-05 0)
(-0.0667553 3.63407e-05 0)
(-0.0667607 5.71275e-06 0)
(-0.0667485 -2.58772e-05 0)
(-0.0667179 -5.84704e-05 0)
(-0.0666684 -9.21065e-05 0)
(-0.0665994 -0.000126823 0)
(-0.0665104 -0.000162656 0)
(-0.0664007 -0.000199639 0)
(-0.0662696 -0.000237803 0)
(-0.0661165 -0.000277174 0)
(-0.0659408 -0.000317779 0)
(-0.0657417 -0.000359638 0)
(-0.0655185 -0.000402768 0)
(-0.0652706 -0.000447184 0)
(-0.0649973 -0.000492893 0)
(-0.0646978 -0.0005399 0)
(-0.0643714 -0.000588204 0)
(-0.0640174 -0.000637797 0)
(-0.0636351 -0.000688667 0)
(-0.0632239 -0.000740795 0)
(-0.0627831 -0.000794155 0)
(-0.0623119 -0.000848714 0)
(-0.0618099 -0.000904433 0)
(-0.0612762 -0.000961261 0)
(-0.0607105 -0.00101914 0)
(-0.0601121 -0.00107802 0)
(-0.0594805 -0.0011378 0)
(-0.0588153 -0.00119842 0)
(-0.0581161 -0.00125978 0)
(-0.0573824 -0.00132178 0)
(-0.0566141 -0.00138429 0)
(-0.0558108 -0.00144721 0)
(-0.0549724 -0.00151039 0)
(-0.0540989 -0.0015737 0)
(-0.0531903 -0.00163696 0)
(-0.0522466 -0.00170003 0)
(-0.051268 -0.00176271 0)
(-0.0502549 -0.00182483 0)
(-0.0492076 -0.00188617 0)
(-0.0481266 -0.00194654 0)
(-0.0470127 -0.0020057 0)
(-0.0458664 -0.00206342 0)
(-0.0446888 -0.00211947 0)
(-0.0434809 -0.00217358 0)
(-0.0422438 -0.00222551 0)
(-0.0409789 -0.00227497 0)
(-0.0396876 -0.0023217 0)
(-0.0383715 -0.0023654 0)
(-0.0370324 -0.00240578 0)
(-0.0356723 -0.00244254 0)
(-0.0342932 -0.00247539 0)
(-0.0328974 -0.00250402 0)
(-0.0314874 -0.00252811 0)
(-0.0300658 -0.00254736 0)
(-0.0286352 -0.00256146 0)
(-0.0271988 -0.00257009 0)
(-0.0257594 -0.00257296 0)
(-0.0243205 -0.00256976 0)
(-0.0228855 -0.00256019 0)
(-0.0214578 -0.00254396 0)
(-0.0200413 -0.0025208 0)
(-0.0186398 -0.00249044 0)
(-0.0172573 -0.00245262 0)
(-0.0158979 -0.00240711 0)
(-0.0145659 -0.00235369 0)
(-0.0132655 -0.00229217 0)
(-0.0120013 -0.00222238 0)
(-0.0107776 -0.00214419 0)
(-0.00959897 -0.0020575 0)
(-0.00846996 -0.00196225 0)
(-0.00739506 -0.00185847 0)
(-0.00637872 -0.00174621 0)
(-0.00542528 -0.00162565 0)
(-0.00453894 -0.00149705 0)
(-0.00372364 -0.00136082 0)
(-0.00298302 -0.00121753 0)
(-0.00232028 -0.00106801 0)
(-0.00173808 -0.000913365 0)
(-0.00123829 -0.000755121 0)
(-0.000821856 -0.000595343 0)
(-0.000488467 -0.000436837 0)
(-0.000236224 -0.000283407 0)
(-6.11982e-05 -0.000140216 0)
(4.30792e-05 -1.4245e-05 0)
(8.60829e-05 8.51549e-05 0)
(8.09261e-05 0.000145715 0)
(4.71862e-05 0.000151825 0)
(1.30852e-05 8.35902e-05 0)
(8.59777e-06 -8.79971e-05 0)
(2.76021e-05 -0.000155452 0)
(3.79009e-05 -0.000141908 0)
(1.7806e-05 -6.82082e-05 0)
(-4.8282e-05 4.95834e-05 0)
(-0.000171246 0.000198529 0)
(-0.000359117 0.000368397 0)
(-0.000617515 0.000551251 0)
(-0.000949975 0.000740998 0)
(-0.00135831 0.000932989 0)
(-0.00184292 0.0011237 0)
(-0.00240309 0.00131048 0)
(-0.00303722 0.00149135 0)
(-0.00374297 0.00166484 0)
(-0.00451752 0.00182991 0)
(-0.00535758 0.00198581 0)
(-0.00625961 0.00213205 0)
(-0.00721985 0.00226833 0)
(-0.00823438 0.00239452 0)
(-0.00929923 0.00251059 0)
(-0.0104104 0.00261661 0)
(-0.0115639 0.00271275 0)
(-0.0127557 0.00279922 0)
(-0.0139821 0.00287627 0)
(-0.0152391 0.0029442 0)
(-0.0165232 0.00300335 0)
(-0.0178307 0.00305406 0)
(-0.0191582 0.00309669 0)
(-0.0205025 0.00313162 0)
(-0.0218603 0.00315923 0)
(-0.0232288 0.00317991 0)
(-0.0246049 0.00319402 0)
(-0.0259862 0.00320197 0)
(-0.0273699 0.00320411 0)
(-0.0287538 0.00320082 0)
(-0.0301355 0.00319247 0)
(-0.031513 0.0031794 0)
(-0.0328844 0.00316197 0)
(-0.0342477 0.00314049 0)
(-0.0356014 0.0031153 0)
(-0.0369439 0.00308669 0)
(-0.0382737 0.00305498 0)
(-0.0395897 0.00302044 0)
(-0.0408905 0.00298334 0)
(-0.0421751 0.00294395 0)
(-0.0434427 0.00290251 0)
(-0.0446922 0.00285925 0)
(-0.045923 0.0028144 0)
(-0.0471344 0.00276816 0)
(-0.0483258 0.00272074 0)
(-0.0494967 0.00267231 0)
(-0.0506467 0.00262306 0)
(-0.0517755 0.00257314 0)
(-0.0528827 0.00252271 0)
(-0.0539682 0.0024719 0)
(-0.0550317 0.00242084 0)
(-0.0560733 0.00236966 0)
(-0.0570927 0.00231847 0)
(-0.0580901 0.00226737 0)
(-0.0590655 0.00221644 0)
(-0.0600189 0.00216578 0)
(-0.0609504 0.00211546 0)
(-0.0618602 0.00206554 0)
(-0.0627485 0.00201609 0)
(-0.0636154 0.00196716 0)
(-0.0644612 0.00191879 0)
(-0.0652861 0.00187103 0)
(-0.0660903 0.0018239 0)
(-0.0668742 0.00177743 0)
(-0.0676379 0.00173164 0)
(-0.0683818 0.00168655 0)
(-0.0691062 0.00164216 0)
(-0.0698113 0.00159848 0)
(-0.0704975 0.00155552 0)
(-0.071165 0.00151326 0)
(-0.0718142 0.0014717 0)
(-0.0724452 0.00143081 0)
(-0.0730585 0.0013906 0)
(-0.0736543 0.00135102 0)
(-0.0742327 0.00131207 0)
(-0.0747942 0.0012737 0)
(-0.0753389 0.00123589 0)
(-0.075867 0.0011986 0)
(-0.0763788 0.0011618 0)
(-0.0768744 0.00112544 0)
(-0.0773541 0.00108948 0)
(-0.077818 0.00105386 0)
(-0.0782661 0.00101855 0)
(-0.0786987 0.000983495 0)
(-0.0791159 0.000948632 0)
(-0.0795176 0.000913908 0)
(-0.0799039 0.000879264 0)
(-0.0802749 0.000844641 0)
(-0.0806305 0.000809975 0)
(-0.0809708 0.000775203 0)
(-0.0812955 0.000740257 0)
(-0.0816047 0.000705072 0)
(-0.0818983 0.000669576 0)
(-0.082176 0.0006337 0)
(-0.0824378 0.000597371 0)
(-0.0826833 0.000560518 0)
(-0.0829123 0.000523066 0)
(-0.0831247 0.000484941 0)
(-0.08332 0.000446067 0)
(-0.0834979 0.000406369 0)
(-0.0836581 0.000365771 0)
(-0.0838001 0.000324196 0)
(-0.0839236 0.000281568 0)
(-0.084028 0.000237813 0)
(-0.0841129 0.000192854 0)
(-0.0841778 0.000146618 0)
(-0.084222 9.90306e-05 0)
(-0.0842451 5.00202e-05 0)
(-0.0842463 -4.83526e-07 0)
(-0.084225 -5.25487e-05 0)
(-0.0841806 -0.000106241 0)
(-0.0841124 -0.000161625 0)
(-0.0840195 -0.00021876 0)
(-0.0839014 -0.000277703 0)
(-0.0837572 -0.000338508 0)
(-0.083586 -0.000401223 0)
(-0.0833872 -0.000465891 0)
(-0.0831599 -0.000532553 0)
(-0.0829032 -0.000601241 0)
(-0.0826163 -0.000671981 0)
(-0.0822983 -0.000744794 0)
(-0.0819483 -0.000819693 0)
(-0.0815656 -0.000896682 0)
(-0.0811492 -0.000975758 0)
(-0.0806982 -0.00105691 0)
(-0.0802118 -0.00114011 0)
(-0.0796892 -0.00122533 0)
(-0.0791295 -0.00131252 0)
(-0.0785319 -0.00140164 0)
(-0.0778958 -0.00149261 0)
(-0.0772202 -0.00158535 0)
(-0.0765046 -0.00167977 0)
(-0.0757482 -0.00177576 0)
(-0.0749505 -0.0018732 0)
(-0.0741109 -0.00197195 0)
(-0.0732289 -0.00207187 0)
(-0.0723042 -0.00217278 0)
(-0.0713362 -0.00227449 0)
(-0.0703249 -0.00237682 0)
(-0.06927 -0.00247953 0)
(-0.0681714 -0.00258239 0)
(-0.0670293 -0.00268514 0)
(-0.0658436 -0.00278753 0)
(-0.0646147 -0.00288924 0)
(-0.063343 -0.00298999 0)
(-0.062029 -0.00308944 0)
(-0.0606734 -0.00318726 0)
(-0.0592769 -0.00328307 0)
(-0.0578406 -0.00337651 0)
(-0.0563655 -0.00346718 0)
(-0.0548529 -0.00355468 0)
(-0.0533044 -0.00363859 0)
(-0.0517215 -0.00371846 0)
(-0.0501062 -0.00379385 0)
(-0.0484603 -0.00386429 0)
(-0.0467862 -0.00392933 0)
(-0.0450863 -0.00398848 0)
(-0.0433631 -0.00404125 0)
(-0.0416194 -0.00408715 0)
(-0.0398583 -0.00412568 0)
(-0.0380831 -0.00415636 0)
(-0.0362971 -0.00417868 0)
(-0.0345039 -0.00419215 0)
(-0.0327074 -0.00419628 0)
(-0.0309116 -0.00419059 0)
(-0.0291207 -0.00417462 0)
(-0.0273391 -0.0041479 0)
(-0.0255714 -0.00411 0)
(-0.0238222 -0.0040605 0)
(-0.0220966 -0.00399901 0)
(-0.0203995 -0.00392517 0)
(-0.0187361 -0.00383864 0)
(-0.0171117 -0.00373913 0)
(-0.0155315 -0.00362642 0)
(-0.0140011 -0.00350031 0)
(-0.0125258 -0.00336068 0)
(-0.0111111 -0.00320751 0)
(-0.0097624 -0.00304084 0)
(-0.00848497 -0.00286086 0)
(-0.00728395 -0.00266789 0)
(-0.00616427 -0.00246243 0)
(-0.00513052 -0.00224521 0)
(-0.0041869 -0.00201724 0)
(-0.00333705 -0.0017799 0)
(-0.00258393 -0.00153504 0)
(-0.00192958 -0.00128512 0)
(-0.00137494 -0.00103342 0)
(-0.000919543 -0.000784261 0)
(-0.000561195 -0.000543346 0)
(-0.000295555 -0.000318192 0)
(-0.000115701 -0.000118657 0)
(-1.17101e-05 4.24103e-05 0)
(2.99184e-05 0.000148566 0)
(2.83356e-05 0.000179068 0)
(9.79659e-06 0.000106431 0)
(5.37459e-06 -9.97202e-05 0)
(9.06053e-06 -0.000161298 0)
(-1.17261e-05 -0.00012009 0)
(-7.56674e-05 -2.187e-06 0)
(-0.000197175 0.000172538 0)
(-0.000386894 0.000387996 0)
(-0.000652728 0.00063128 0)
(-0.00100025 0.000892194 0)
(-0.00143299 0.00116274 0)
(-0.0019528 0.00143668 0)
(-0.00256005 0.00170919 0)
(-0.00325397 0.00197657 0)
(-0.00403279 0.00223598 0)
(-0.004894 0.00248531 0)
(-0.00583444 0.00272299 0)
(-0.00685051 0.00294788 0)
(-0.00793825 0.00315922 0)
(-0.00909343 0.00335652 0)
(-0.0103116 0.0035395 0)
(-0.0115884 0.00370807 0)
(-0.0129191 0.0038623 0)
(-0.0142992 0.00400236 0)
(-0.0157242 0.00412852 0)
(-0.0171896 0.00424112 0)
(-0.018691 0.00434055 0)
(-0.0202241 0.00442728 0)
(-0.0217849 0.00450176 0)
(-0.0233693 0.00456452 0)
(-0.0249735 0.00461607 0)
(-0.0265938 0.00465696 0)
(-0.0282267 0.00468772 0)
(-0.0298688 0.0047089 0)
(-0.031517 0.00472105 0)
(-0.0331684 0.00472471 0)
(-0.0348199 0.0047204 0)
(-0.0364691 0.00470864 0)
(-0.0381135 0.00468996 0)
(-0.0397506 0.00466484 0)
(-0.0413784 0.00463376 0)
(-0.0429949 0.0045972 0)
(-0.0445982 0.0045556 0)
(-0.0461866 0.0045094 0)
(-0.0477586 0.004459 0)
(-0.0493128 0.00440482 0)
(-0.0508479 0.00434722 0)
(-0.0523627 0.00428657 0)
(-0.0538563 0.00422321 0)
(-0.0553276 0.00415747 0)
(-0.0567759 0.00408965 0)
(-0.0582005 0.00402005 0)
(-0.0596007 0.00394894 0)
(-0.0609761 0.00387656 0)
(-0.0623263 0.00380317 0)
(-0.0636508 0.00372899 0)
(-0.0649494 0.00365422 0)
(-0.066222 0.00357905 0)
(-0.0674683 0.00350367 0)
(-0.0686882 0.00342823 0)
(-0.0698819 0.0033529 0)
(-0.0710493 0.00327779 0)
(-0.0721904 0.00320305 0)
(-0.0733054 0.00312877 0)
(-0.0743945 0.00305507 0)
(-0.0754578 0.00298203 0)
(-0.0764956 0.00290972 0)
(-0.077508 0.00283822 0)
(-0.0784955 0.00276759 0)
(-0.0794582 0.00269787 0)
(-0.0803965 0.0026291 0)
(-0.0813106 0.00256132 0)
(-0.082201 0.00249454 0)
(-0.083068 0.00242879 0)
(-0.0839118 0.00236406 0)