/*--------------------------------*- C++ -*----------------------------------*\
  =========                 |
  \\      /  F ield         | OpenFOAM: The Open Source CFD Toolbox
   \\    /   O peration     | Website:  https://openfoam.org
    \\  /    A nd           | Version:  7
     \\/     M anipulation  |
\*---------------------------------------------------------------------------*/
FoamFile
{
    version     2.0;
    format      ascii;
    class       surfaceScalarField;
    location    "15";
    object      phi;
}
// * * * * * * * * * * * * * * * * * * * * * * * * * * * * * * * * * * * * * //

dimensions      [0 3 -1 0 0 0 0];

internalField   nonuniform List<scalar> 
729
(
0.101781
-1.13388e-05
0.101792
-1.04435e-05
0.101801
-9.43757e-06
0.10181
-8.637e-06
0.101817
-7.71331e-06
-7.04549e-06
0.101825
0.100593
-2.25813e-05
0.100603
-2.07995e-05
0.100612
-1.88018e-05
0.100621
-1.72086e-05
0.100629
-1.5376e-05
-1.40468e-05
0.100636
0.0994179
-3.37598e-05
0.0994282
-3.11027e-05
0.0994375
-2.81199e-05
0.099446
-2.57421e-05
0.0994536
-2.30026e-05
-2.10139e-05
0.0994606
0.098257
-4.49066e-05
0.0982672
-4.13854e-05
0.0982765
-3.74217e-05
0.0982851
-3.42656e-05
0.0982927
-3.06183e-05
-2.79771e-05
0.0982996
0.0971097
-5.60525e-05
0.09712
-5.16783e-05
0.0971293
-4.67359e-05
0.0971378
-4.28072e-05
0.0971455
-3.82494e-05
-3.4958e-05
0.0971524
0.0959759
-6.72271e-05
0.0959862
-6.20112e-05
0.0959955
-5.60909e-05
0.0960041
-5.13944e-05
0.0960118
-4.592e-05
-4.19795e-05
0.0960188
0.0948553
-7.84594e-05
0.0948657
-7.24136e-05
0.0948752
-6.55143e-05
0.0948838
-6.00541e-05
0.0948916
-5.36542e-05
-4.90649e-05
0.0948986
0.0937479
-8.97775e-05
0.0937584
-8.29145e-05
0.093768
-7.50335e-05
0.0937767
-6.88134e-05
0.0937845
-6.14764e-05
-5.62376e-05
0.0937917
0.0926535
-0.000101209
0.0926642
-9.35429e-05
0.0926738
-8.46761e-05
0.0926827
-7.76998e-05
0.0926906
-6.94113e-05
-6.35217e-05
0.0926979
0.0915719
-0.000112782
0.0915827
-0.000104328
0.0915925
-9.44699e-05
0.0916015
-8.67413e-05
0.0916096
-7.7484e-05
-7.0942e-05
0.091617
0.090503
-0.000124523
0.0905139
-0.000115298
0.0905239
-0.000104443
0.0905331
-9.59665e-05
0.0905414
-8.57205e-05
-7.85243e-05
0.0905489
0.0894465
-0.00013646
0.0894577
-0.000126484
0.0894679
-0.000114623
0.0894773
-0.000105405
0.0894857
-9.41478e-05
-8.62954e-05
0.0894935
0.0884024
-0.000148619
0.0884138
-0.000137916
0.0884242
-0.000125041
0.0884339
-0.000115088
0.0884425
-0.000102794
-9.42838e-05
0.0884505
0.0873704
-0.000161027
0.0873821
-0.000149623
0.0873928
-0.000135726
0.0874027
-0.000125046
0.0874116
-0.000111687
-0.000102519
0.0874199
0.0863505
-0.000173712
0.0863625
-0.000161638
0.0863735
-0.000146709
0.0863837
-0.000135314
0.0863929
-0.000120859
-0.000111033
0.0864014
0.0853424
-0.0001867
0.0853548
-0.000173992
0.0853661
-0.000158022
0.0853767
-0.000145925
0.0853862
-0.000130342
-0.00011986
0.085395
0.0843461
-0.000200019
0.0843588
-0.000186718
0.0843705
-0.000169697
0.0843815
-0.000156917
0.0843913
-0.000140169
-0.000129035
0.0844005
0.0833613
-0.000213694
0.0833744
-0.00019985
0.0833865
-0.000181768
0.0833979
-0.000168329
0.0834081
-0.000150376
-0.000138597
0.0834177
0.0823879
-0.000227751
0.0824015
-0.000213421
0.082414
-0.000194271
0.0824259
-0.000180199
0.0824365
-0.000161001
-0.000148587
0.0824465
0.0814258
-0.000242218
0.0814399
-0.000227467
0.0814528
-0.000207241
0.0814652
-0.000192571
0.0814763
-0.000172083
-0.000159048
0.0814868
0.0804748
-0.000257117
0.0804894
-0.000242022
0.0805029
-0.000220715
0.0805158
-0.000205489
0.0805274
-0.000183664
-0.000170027
0.0805383
0.0795348
-0.000272474
0.0795499
-0.000257123
0.0795639
-0.000234729
0.0795774
-0.000218999
0.0795896
-0.000195789
0.0796011
0.0786056
0.0786213
0.0786359
0.07865
0.101467
0.000357794
0.101118
0.000348288
0.10078
0.000338284
0.100452
0.000328048
0.100135
0.000317586
0.0998276
0.000306905
0.0995316
0.000296013
0.0992467
0.000284916
0.0989731
0.000273624
0.000262142
0.100282
0.000711443
0.0999376
0.000692517
0.0996033
0.000672627
0.0992791
0.000652274
0.0989652
0.00063147
0.0986619
0.000610233
0.0983693
0.000588574
0.0980877
0.00056651
0.0978173
0.000544056
0.000521227
0.0991111
0.00106097
0.0987709
0.00103273
0.0984404
0.00100307
0.09812
0.000972716
0.0978098
0.000941691
0.09751
0.000910019
0.0972208
0.00087772
0.0969425
0.000844814
0.0966753
0.000811328
0.000777282
0.0979542
0.00140641
0.0976179
0.00136898
0.0972914
0.00132966
0.0969747
0.00128942
0.0966681
0.00124829
0.0963718
0.0012063
0.096086
0.00116349
0.095811
0.00111987
0.0955468
0.00107548
0.00103034
0.096811
0.00174783
0.0964787
0.0017013
0.0961559
0.00165243
0.0958429
0.00160242
0.0955399
0.00155131
0.0952471
0.00149913
0.0949647
0.00144591
0.0946928
0.0013917
0.0944318
0.00133653
0.00128044
0.0956814
0.00208526
0.095353
0.00202974
0.095034
0.00197143
0.0947246
0.00191176
0.0944251
0.00185078
0.0941357
0.00178852
0.0938566
0.00172503
0.093588
0.00166036
0.09333
0.00159453
0.0930828
0.00152761
0.00145964
0.0945652
0.00241875
0.0942406
0.00235434
0.0939253
0.0022867
0.0936196
0.00221749
0.0933236
0.00214675
0.0930376
0.00207453
0.0927617
0.00200089
0.0924962
0.00192586
0.0922412
0.00184951
0.091997
0.00177189
0.00169304
0.0934621
0.00274834
0.0931413
0.00267514
0.0928297
0.00259829
0.0925276
0.00251964
0.0922351
0.00243926
0.0919524
0.00235719
0.0916798
0.00227351
0.0914174
0.00218826
0.0911654
0.0021015
0.090924
0.0020133
0.00192371
0.0923722
0.00307407
0.0920551
0.00299219
0.0917472
0.00290622
0.0914486
0.00281825
0.0911595
0.00272834
0.0908801
0.00263654
0.0906107
0.00254294
0.0903514
0.00244758
0.0901024
0.00235054
0.0898638
0.00225187
0.00215166
0.0912951
0.00339598
0.0909818
0.00330553
0.0906775
0.00321055
0.0903823
0.00311336
0.0900967
0.00301403
0.0898206
0.00291262
0.0895543
0.0028092
0.089298
0.00270385
0.0890519
0.00259664
0.0888162
0.00248765
0.00237694
0.0902308
0.00371411
0.0899211
0.00361519
0.0896204
0.00351131
0.0893287
0.00340501
0.0890464
0.00329637
0.0887736
0.00318545
0.0885104
0.00307234
0.0882572
0.00295712
0.0880139
0.00283986
0.0877809
0.00272065
0.00259956
0.0891791
0.0040285
0.0888731
0.00392122
0.0885758
0.00380854
0.0882876
0.00369324
0.0880086
0.00357539
0.087739
0.00345508
0.0874789
0.00333239
0.0872286
0.0032074
0.0869883
0.00308021
0.086758
0.0029509
0.00281956
0.0881398
0.0043392
0.0878374
0.00422366
0.0875436
0.00410228
0.0872588
0.00397808
0.0869831
0.00385113
0.0867166
0.00372153
0.0864596
0.00358937
0.0862123
0.00345474
0.0859748
0.00331774
0.0857472
0.00317845
0.00303697
0.0871128
0.00464623
0.086814
0.00452254
0.0865237
0.00439256
0.0862422
0.00425956
0.0859697
0.00412363
0.0857064
0.00398485
0.0854524
0.00384333
0.085208
0.00369917
0.0849733
0.00355246
0.0847484
0.0034033
0.0032518
0.086098
0.00494965
0.0858026
0.00481791
0.0855158
0.00467943
0.0852376
0.00453774
0.0849683
0.00439291
0.0847081
0.00424506
0.0844571
0.00409429
0.0842156
0.0039407
0.0839837
0.0037844
0.0837615
0.0036255
0.0034641
0.0850952
0.00524947
0.0848033
0.00510979
0.0845198
0.00496292
0.0842449
0.00481263
0.0839788
0.00465902
0.0837217
0.0045022
0.0834737
0.00434228
0.083235
0.00417938
0.0830058
0.00401361
0.0827862
0.00384507
0.00367388
0.0841042
0.00554575
0.0838157
0.00539823
0.0835356
0.00524305
0.083264
0.00508427
0.083001
0.00492198
0.0827469
0.0047563
0.0825018
0.00458734
0.082266
0.00441524
0.0820395
0.00424009
0.0818225
0.00406203
0.00388117
0.0831249
0.00583851
0.0828399
0.00568326
0.0825631
0.00551987
0.0822946
0.0053527
0.0820348
0.00518183
0.0817837
0.00500738
0.0815415
0.0048295
0.0813085
0.00464829
0.0810847
0.00446389
0.0808703
0.00427641
0.00408599
0.0821572
0.0061278
0.0818755
0.00596491
0.081602
0.00579342
0.0813368
0.00561794
0.08108
0.00543859
0.0808319
0.00525549
0.0805926
0.00506877
0.0803623
0.00487857
0.0801412
0.00468502
0.0799294
0.00448824
0.00428837
0.0812009
0.00641363
0.0809226
0.00624321
0.0806523
0.00606371
0.0803902
0.00588003
0.0801365
0.0056923
0.0798914
0.00550064
0.0796549
0.0053052
0.0794274
0.00510611
0.0792089
0.00490351
0.0789996
0.00469753
0.00448833
0.0802559
0.00669604
0.0799809
0.00651821
0.0797139
0.00633078
0.0794549
0.006139
0.0792042
0.00594298
0.078962
0.00574286
0.0787284
0.0055388
0.0785036
0.00533092
0.0782877
0.00511938
0.0780809
0.00490432
0.00468588
0.0793221
0.00697507
0.0790504
0.00678992
0.0787865
0.00659467
0.0785306
0.00639488
0.0782829
0.00619067
0.0780436
0.00598219
0.0778128
0.0057696
0.0775907
0.00555304
0.0773774
0.00533266
0.0771731
0.00510862
0.00488106
0.0783992
0.0781308
0.0778701
0.0776172
0.0773725
0.0771361
0.0769081
0.0766886
0.0764779
0.0762761
)
;

boundaryField
{
    inlet
    {
        type            calculated;
        value           nonuniform 0();
    }
    outlet
    {
        type            calculated;
        value           nonuniform 0();
    }
    cylinder
    {
        type            calculated;
        value           nonuniform 0();
    }
    top
    {
        type            symmetryPlane;
        value           nonuniform 0();
    }
    bottom
    {
        type            symmetryPlane;
        value           uniform 0;
    }
    defaultFaces
    {
        type            empty;
        value           nonuniform 0();
    }
    procBoundary1to0
    {
        type            processor;
        value           nonuniform List<scalar> 
23
(
-0.10177
-0.100581
-0.0994067
-0.0982458
-0.0970985
-0.0959647
-0.0948441
-0.0937366
-0.0926421
-0.0915603
-0.0904912
-0.0894345
-0.0883902
-0.087358
-0.0863378
-0.0853294
-0.0843327
-0.0833476
-0.0823739
-0.0814114
-0.0804599
-0.0795195
-0.0785898
)
;
    }
    procBoundary1to2
    {
        type            processor;
        value           nonuniform List<scalar> 
24
(
0.0987109
0.0975582
0.0964192
0.0952937
0.0941817
-0.00122347
0.0928466
0.0917636
0.0906933
0.0896358
0.0885909
0.0875583
0.086538
0.0855298
0.0845336
0.0835492
0.0825764
0.0816153
0.0806655
0.079727
0.0787997
0.0778833
0.0769779
0.0760832
)
;
    }
    procBoundary1to9
    {
        type            processor;
        value           nonuniform List<scalar> 
19
(
-0.000181575
-0.000288311
-0.000272806
-0.000249324
-0.000233151
0.0786627
-0.000208505
-0.0786749
0.00725075
0.00705838
0.00685539
0.00664768
0.00643538
0.00621864
0.00599762
0.00577248
0.00554338
0.00531046
0.00507388
)
;
    }
}


// ************************************************************************* //
