/*--------------------------------*- C++ -*----------------------------------*\
  =========                 |
  \\      /  F ield         | OpenFOAM: The Open Source CFD Toolbox
   \\    /   O peration     | Website:  https://openfoam.org
    \\  /    A nd           | Version:  7
     \\/     M anipulation  |
\*---------------------------------------------------------------------------*/
FoamFile
{
    version     2.0;
    format      ascii;
    class       volScalarField;
    location    "20";
    object      p;
}
// * * * * * * * * * * * * * * * * * * * * * * * * * * * * * * * * * * * * * //

dimensions      [0 2 -2 0 0 0 0];

internalField   nonuniform List<scalar> 
390
(
0.000555397
0.000516104
0.000477202
0.000438794
0.00040103
0.000364041
0.000327959
0.00029293
0.000259104
0.000226635
0.000195667
0.000166364
0.000138852
0.000684671
0.000644599
0.00060471
0.000565111
0.000525914
0.000487255
0.000449249
0.000412018
0.000375693
0.000340415
0.000306311
0.000273527
0.000242176
0.000802947
0.000762209
0.000721486
0.000680854
0.000640411
0.000600271
0.000560557
0.000521368
0.000482813
0.000445016
0.000408091
0.000372168
0.000337345
0.00091102
0.000869717
0.000828268
0.000786752
0.000745231
0.000703796
0.000662556
0.000621618
0.00058107
0.000541015
0.000501554
0.000462799
0.000424838
0.00100963
0.000967851
0.000925776
0.000883477
0.000841027
0.000798489
0.00075589
0.000713377
0.000671043
0.000628965
0.000587224
0.000545918
0.000505122
0.00109948
0.00105729
0.00101468
0.000971688
0.000928381
0.000884813
0.00084109
0.000797207
0.00075328
0.000709394
0.00066561
0.000622009
0.000578654
0.00118123
0.0011387
0.00109563
0.00105205
0.001008
0.000963557
0.000918757
0.000873681
0.000828336
0.000782823
0.000737204
0.000691539
0.000645876
0.0012555
0.00121269
0.00116922
0.00112512
0.00108044
0.00103521
0.000989483
0.000943299
0.000896718
0.00084975
0.000802477
0.000754955
0.000707214
0.00132286
0.00127981
0.001236
0.00119146
0.00114622
0.0011003
0.00105375
0.0010066
0.000958879
0.000910642
0.000861887
0.000812687
0.000763075
0.00138385
0.00134059
0.0012965
0.00125157
0.00120584
0.00115933
0.00111205
0.00106403
0.00101531
0.000965904
0.000915854
0.000865152
0.00081385
0.00143896
0.00139555
0.00135121
0.00130595
0.00125979
0.00121274
0.00116482
0.00111604
0.00106642
0.00101599
0.000964747
0.000912735
0.000859916
0.00148868
0.00144512
0.00140058
0.00135503
0.0013085
0.00126099
0.0012125
0.00116305
0.00111264
0.00106128
0.00100898
0.000955758
0.000901625
0.00153342
0.00148976
0.00144504
0.00139925
0.0013524
0.00130448
0.00125549
0.00120544
0.00115432
0.00110214
0.0010489
0.000994604
0.000939249
0.00157361
0.00152986
0.00148499
0.00143899
0.00139185
0.00134358
0.00129415
0.00124357
0.00119183
0.00113892
0.00108483
0.00102956
0.000973095
0.00160961
0.00156579
0.00152079
0.00147462
0.00142724
0.00137866
0.00132885
0.0012778
0.00122551
0.00117196
0.00111713
0.00106102
0.0010036
0.00164177
0.00159789
0.0015528
0.00150647
0.00145889
0.00141004
0.0013599
0.00130845
0.00125567
0.00120155
0.00114607
0.00108921
0.00103093
0.00167042
0.0016265
0.00158133
0.00153487
0.00148712
0.00143803
0.0013876
0.00133579
0.00128259
0.00122798
0.00117192
0.00111438
0.00105535
0.00169585
0.0016519
0.00160666
0.0015601
0.0015122
0.00146291
0.00141223
0.00136011
0.00130654
0.00125149
0.00119491
0.00113679
0.00107709
0.00171833
0.00167437
0.00162908
0.00158243
0.00153439
0.00148494
0.00143404
0.00138165
0.00132776
0.00127232
0.0012153
0.00115666
0.00109637
0.00173812
0.00169415
0.00164881
0.00160209
0.00155395
0.00150435
0.00145326
0.00140065
0.00134647
0.0012907
0.00123329
0.0011742
0.00111339
0.00175544
0.00171146
0.00166609
0.00161931
0.00157108
0.00152136
0.00147011
0.00141729
0.00136288
0.00130681
0.00124906
0.00118958
0.00112832
0.00177049
0.0017265
0.00168112
0.00163429
0.00158598
0.00153616
0.00148477
0.00143179
0.00137716
0.00132085
0.00126281
0.00120299
0.00114134
0.00178345
0.00173947
0.00169406
0.0016472
0.00159883
0.00154892
0.00149742
0.00144429
0.00138949
0.00133297
0.00127468
0.00121457
0.00115258
0.00179448
0.00175051
0.00170509
0.0016582
0.00160978
0.0015598
0.0015082
0.00145495
0.0014
0.0013433
0.0012848
0.00122444
0.00116218
0.00180372
0.00175975
0.00171433
0.00166741
0.00161895
0.00156891
0.00151724
0.0014639
0.00140882
0.00135197
0.0012933
0.00123273
0.00117023
0.0018113
0.00176733
0.0017219
0.00167497
0.00162648
0.00157639
0.00152466
0.00147123
0.00141606
0.00135909
0.00130027
0.00123954
0.00117684
0.00181726
0.0017733
0.00172787
0.00168092
0.00163241
0.00158229
0.00153051
0.00147702
0.00142177
0.00136471
0.00130577
0.00124491
0.00118207
0.00182175
0.0017778
0.00173236
0.0016854
0.00163687
0.00158672
0.0015349
0.00148136
0.00142605
0.00136892
0.0013099
0.00124894
0.00118598
0.00182468
0.00178073
0.0017353
0.00168834
0.0016398
0.00158963
0.00153779
0.00148423
0.00142888
0.0013717
0.00131263
0.00125161
0.00118857
0.00182623
0.00178228
0.00173684
0.00168987
0.00164132
0.00159114
0.00153929
0.0014857
0.00143033
0.00137313
0.00131402
0.00125297
0.00118989
)
;

boundaryField
{
    inlet
    {
        type            zeroGradient;
    }
    outlet
    {
        type            fixedValue;
        value           nonuniform 0();
    }
    cylinder
    {
        type            zeroGradient;
    }
    top
    {
        type            symmetryPlane;
    }
    bottom
    {
        type            symmetryPlane;
    }
    defaultFaces
    {
        type            empty;
    }
    procBoundary54to45
    {
        type            processor;
        value           nonuniform List<scalar> 8(0.000594962 0.000724839 0.000843616 0.000952102 0.00105106 0.00114119 0.00122317 0.00129763);
    }
    procBoundary54to46
    {
        type            processor;
        value           nonuniform List<scalar> 
13
(
0.000414267
0.000375925
0.000338157
0.000301132
0.000264998
0.0002299
0.000195993
0.000163443
0.000132415
0.00010308
7.56005e-05
5.01555e-05
2.68863e-05
)
;
    }
    procBoundary54to47
    {
        type            processor;
        value           nonuniform List<scalar> 3(0.000113308 0.000212417 0.000303764);
    }
    procBoundary54to53
    {
        type            processor;
        value           nonuniform List<scalar> 
22
(
0.00136514
0.00142624
0.00148145
0.00153123
0.00157603
0.00161625
0.00165227
0.00168445
0.0017131
0.00173853
0.001761
0.00178077
0.00179807
0.0018131
0.00182604
0.00183706
0.00184628
0.00185384
0.00185978
0.00186427
0.00186719
0.00186875
)
;
    }
    procBoundary54to55
    {
        type            processor;
        value           nonuniform List<scalar> 
27
(
0.000387792
0.00046494
0.000535634
0.000600292
0.000659316
0.000713091
0.000761985
0.000806351
0.000846537
0.000882872
0.000915409
0.000944865
0.000971235
0.000994796
0.00101578
0.00103439
0.00105082
0.00106524
0.00107781
0.00108867
0.00109795
0.00110573
0.00111212
0.00111717
0.00112095
0.00112346
0.00112474
)
;
    }
}


// ************************************************************************* //
