/*--------------------------------*- C++ -*----------------------------------*\
  =========                 |
  \\      /  F ield         | OpenFOAM: The Open Source CFD Toolbox
   \\    /   O peration     | Website:  https://openfoam.org
    \\  /    A nd           | Version:  7
     \\/     M anipulation  |
\*---------------------------------------------------------------------------*/
FoamFile
{
    version     2.0;
    format      ascii;
    class       surfaceScalarField;
    location    "2";
    object      phi;
}
// * * * * * * * * * * * * * * * * * * * * * * * * * * * * * * * * * * * * * //

dimensions      [0 3 -1 0 0 0 0];

internalField   nonuniform List<scalar> 
39700
(
2.27177e-12
-6.39138e-12
6.08446e-11
-5.86045e-11
1.62227e-10
-1.01392e-10
2.87664e-10
-1.25431e-10
4.21698e-10
-1.34044e-10
5.52673e-10
-1.30978e-10
6.72016e-10
-1.19338e-10
7.73618e-10
-1.01588e-10
8.53218e-10
-7.95958e-11
9.07983e-10
-5.47645e-11
9.36136e-10
-2.81587e-11
9.36735e-10
-6.07908e-13
9.09426e-10
2.73047e-11
8.54365e-10
5.50607e-11
7.72056e-10
8.23135e-11
6.63273e-10
1.08786e-10
5.28992e-10
1.34278e-10
3.70333e-10
1.58655e-10
1.88508e-10
1.81825e-10
-1.52237e-11
2.03734e-10
-2.39584e-10
2.24361e-10
-4.83297e-10
2.43713e-10
-7.45117e-10
2.6182e-10
-1.02384e-09
2.78727e-10
-1.31834e-09
2.94494e-10
-1.62753e-09
3.09189e-10
-1.95042e-09
3.22891e-10
-2.28611e-09
3.35686e-10
-2.63377e-09
3.47661e-10
-2.99268e-09
3.58907e-10
-3.36219e-09
3.69515e-10
-3.74177e-09
3.79578e-10
-4.13096e-09
3.89186e-10
-4.52939e-09
3.98429e-10
-4.93678e-09
4.07394e-10
-5.35295e-09
4.16165e-10
-5.77777e-09
4.24822e-10
-6.21121e-09
4.33444e-10
-6.65332e-09
4.42103e-10
-7.10419e-09
4.5087e-10
-7.564e-09
4.59811e-10
-8.03299e-09
4.68988e-10
-8.51145e-09
4.7846e-10
-8.99973e-09
4.88284e-10
-9.49824e-09
4.9851e-10
-1.00074e-08
5.09186e-10
-1.05278e-08
5.2036e-10
-1.10599e-08
5.32072e-10
-1.16042e-08
5.44365e-10
-1.21615e-08
5.57274e-10
-1.27323e-08
5.70835e-10
-1.33174e-08
5.85082e-10
-1.39175e-08
6.00045e-10
-1.45332e-08
6.15754e-10
-1.51654e-08
6.32237e-10
-1.5815e-08
6.4952e-10
-1.64826e-08
6.6763e-10
-1.71692e-08
6.86589e-10
-1.78756e-08
7.06422e-10
-1.86028e-08
7.2715e-10
-1.93516e-08
7.48794e-10
-2.01229e-08
7.71374e-10
-2.09178e-08
7.94909e-10
-2.17373e-08
8.19418e-10
-2.25822e-08
8.44918e-10
-2.34536e-08
8.71426e-10
-2.43526e-08
8.98956e-10
-2.52801e-08
9.27522e-10
-2.62372e-08
9.57139e-10
-2.7225e-08
9.87817e-10
-2.82446e-08
1.01957e-09
-2.9297e-08
1.05239e-09
-3.03833e-08
1.08631e-09
-3.15046e-08
1.12131e-09
-3.2662e-08
1.1574e-09
-3.38566e-08
1.19458e-09
-3.50894e-08
1.23285e-09
-3.63616e-08
1.2722e-09
-3.76743e-08
1.31262e-09
-3.90284e-08
1.3541e-09
-4.0425e-08
1.39662e-09
-4.18651e-08
1.44015e-09
-4.33498e-08
1.48467e-09
-4.48799e-08
1.53014e-09
-4.64565e-08
1.57654e-09
-4.80803e-08
1.62381e-09
-4.97522e-08
1.67191e-09
-5.1473e-08
1.72077e-09
-5.32433e-08
1.77035e-09
-5.50639e-08
1.82056e-09
-5.69352e-08
1.87132e-09
-5.88577e-08
1.92255e-09
-6.08319e-08
1.97415e-09
-6.28579e-08
2.02602e-09
-6.49359e-08
2.07803e-09
-6.7066e-08
2.13008e-09
-6.9248e-08
2.182e-09
-7.14817e-08
2.23367e-09
-7.37666e-08
2.28492e-09
-7.61022e-08
2.33557e-09
-7.84876e-08
2.38546e-09
-8.0922e-08
2.43437e-09
-8.34041e-08
2.48211e-09
-8.59325e-08
2.52844e-09
-8.85057e-08
2.57315e-09
-9.11217e-08
2.61598e-09
-9.37783e-08
2.65667e-09
-9.64733e-08
2.69494e-09
-9.92038e-08
2.73052e-09
-1.01967e-07
2.76309e-09
-1.04759e-07
2.79235e-09
-1.07577e-07
2.81797e-09
-1.10417e-07
2.83963e-09
-1.13274e-07
2.85697e-09
-1.16143e-07
2.86963e-09
-1.19021e-07
2.87726e-09
-1.219e-07
2.87947e-09
-1.24776e-07
2.87589e-09
-1.27642e-07
2.86613e-09
-1.30492e-07
2.84981e-09
-1.33318e-07
2.82654e-09
-1.36114e-07
2.79592e-09
-1.38872e-07
2.75758e-09
-1.41583e-07
2.71114e-09
-1.44239e-07
2.65622e-09
-1.46832e-07
2.59247e-09
-1.49351e-07
2.51954e-09
-1.51788e-07
2.43711e-09
-1.54133e-07
2.34488e-09
-1.56376e-07
2.24257e-09
-1.58506e-07
2.12994e-09
-1.60513e-07
2.00678e-09
-1.62386e-07
1.87293e-09
-1.64114e-07
1.72826e-09
-1.65686e-07
1.5727e-09
-1.67093e-07
1.40623e-09
-1.68322e-07
1.2289e-09
-1.69362e-07
1.04081e-09
-1.70205e-07
8.42159e-10
-1.70838e-07
6.33192e-10
-1.71252e-07
4.1425e-10
-1.71438e-07
1.85763e-10
-1.71386e-07
-5.17973e-11
-1.71088e-07
-2.97749e-10
-1.70537e-07
-5.51456e-10
-1.69725e-07
-8.12095e-10
-1.68646e-07
-1.07877e-09
-1.67295e-07
-1.35048e-09
-1.65669e-07
-1.62612e-09
-1.63765e-07
-1.9045e-09
-1.6158e-07
-2.18434e-09
-1.59116e-07
-2.46423e-09
-1.56374e-07
-2.74273e-09
-1.53355e-07
-3.01828e-09
-1.50066e-07
-3.28928e-09
-1.46512e-07
-3.55405e-09
-1.42701e-07
-3.81089e-09
-1.38643e-07
-4.05806e-09
-1.34349e-07
-4.29379e-09
-1.29833e-07
-4.51634e-09
-1.25109e-07
-4.72396e-09
-1.20194e-07
-4.91495e-09
-1.15106e-07
-5.08769e-09
-1.09866e-07
-5.24061e-09
-1.04493e-07
-5.37226e-09
-9.90121e-08
-5.4813e-09
-9.34455e-08
-5.56653e-09
-8.78186e-08
-5.62692e-09
-8.2157e-08
-5.6616e-09
-7.64871e-08
-5.6699e-09
-7.08358e-08
-5.65138e-09
-6.523e-08
-5.60578e-09
-5.96969e-08
-5.53308e-09
-5.42634e-08
-5.43349e-09
-4.89559e-08
-5.30747e-09
-4.38003e-08
-5.15567e-09
-3.88213e-08
-4.97899e-09
-3.40427e-08
-4.77855e-09
-2.94871e-08
-4.55566e-09
-2.51753e-08
-4.31183e-09
-2.11265e-08
-4.04875e-09
-1.73583e-08
-3.76824e-09
-1.3886e-08
-3.47229e-09
-1.0723e-08
-3.16301e-09
-7.88033e-09
-2.84263e-09
-5.36685e-09
-2.51348e-09
-3.18882e-09
-2.17803e-09
-1.3499e-09
-1.83892e-09
1.49093e-10
-1.49899e-09
1.31053e-09
-1.16144e-09
2.14038e-09
-8.29854e-10
2.6491e-09
-5.08712e-10
2.85282e-09
-2.0371e-10
2.7753e-09
7.75128e-11
2.45135e-09
3.23946e-10
1.93182e-09
5.1952e-10
1.29153e-09
6.40295e-10
6.41764e-10
6.4979e-10
1.48341e-10
4.93455e-10
1.48369e-10
5.65286e-11
-6.29382e-11
2.17608e-10
-2.19671e-10
4.55438e-10
-3.3922e-10
7.38065e-10
-4.08049e-10
1.03558e-09
-4.31545e-10
1.32276e-09
-4.18153e-10
1.57948e-09
-3.76084e-10
1.79038e-09
-3.12492e-10
1.94403e-09
-2.33256e-10
2.03235e-09
-1.4308e-10
2.04989e-09
-4.57036e-11
1.99336e-09
5.59156e-11
1.86119e-09
1.5947e-10
1.65313e-09
2.63128e-10
1.36996e-09
3.65472e-10
1.01332e-09
4.65422e-10
5.8543e-10
5.62167e-10
8.89637e-11
6.55121e-10
-4.73093e-10
7.43881e-10
-1.09756e-09
8.28201e-10
-1.78116e-09
9.07954e-10
-2.52057e-09
9.83125e-10
-3.31254e-09
1.05378e-09
-4.15387e-09
1.12006e-09
-5.04155e-09
1.18216e-09
-5.97268e-09
1.24032e-09
-6.94459e-09
1.2948e-09
-7.95482e-09
1.34591e-09
-9.00113e-09
1.39397e-09
-1.00815e-08
1.43931e-09
-1.11943e-08
1.48225e-09
-1.23379e-08
1.52315e-09
-1.3511e-08
1.56234e-09
-1.47127e-08
1.60015e-09
-1.59422e-08
1.6369e-09
-1.7199e-08
1.67292e-09
-1.84827e-08
1.70851e-09
-1.97932e-08
1.74397e-09
-2.11307e-08
1.77956e-09
-2.24954e-08
1.81557e-09
-2.38878e-08
1.85225e-09
-2.53087e-08
1.88983e-09
-2.67587e-08
1.92855e-09
-2.82391e-08
1.96861e-09
-2.97508e-08
2.01022e-09
-3.12952e-08
2.05357e-09
-3.28737e-08
2.09884e-09
-3.44878e-08
2.14619e-09
-3.61392e-08
2.19577e-09
-3.78297e-08
2.24774e-09
-3.95611e-08
2.30224e-09
-4.13354e-08
2.35938e-09
-4.31546e-08
2.4193e-09
-4.5021e-08
2.48211e-09
-4.69367e-08
2.54792e-09
-4.8904e-08
2.61683e-09
-5.09253e-08
2.68894e-09
-5.3003e-08
2.76434e-09
-5.51397e-08
2.84313e-09
-5.7338e-08
2.92537e-09
-5.96003e-08
3.01116e-09
-6.19295e-08
3.10057e-09
-6.43283e-08
3.19367e-09
-6.67994e-08
3.29053e-09
-6.93457e-08
3.39121e-09
-7.197e-08
3.49576e-09
-7.46753e-08
3.60425e-09
-7.74645e-08
3.71672e-09
-8.03406e-08
3.83321e-09
-8.33065e-08
3.95375e-09
-8.63653e-08
4.07839e-09
-8.95201e-08
4.20713e-09
-9.27738e-08
4.34e-09
-9.61295e-08
4.477e-09
-9.95902e-08
4.61812e-09
-1.03159e-07
4.76335e-09
-1.06839e-07
4.91266e-09
-1.10633e-07
5.06601e-09
-1.14543e-07
5.22335e-09
-1.18574e-07
5.3846e-09
-1.22727e-07
5.54968e-09
-1.27005e-07
5.71849e-09
-1.31411e-07
5.8909e-09
-1.35948e-07
6.06678e-09
-1.40617e-07
6.24595e-09
-1.45422e-07
6.42823e-09
-1.50363e-07
6.6134e-09
-1.55444e-07
6.80122e-09
-1.60665e-07
6.99143e-09
-1.66028e-07
7.18372e-09
-1.71535e-07
7.37777e-09
-1.77185e-07
7.57321e-09
-1.82981e-07
7.76966e-09
-1.88921e-07
7.96667e-09
-1.95007e-07
8.16378e-09
-2.01237e-07
8.36047e-09
-2.07612e-07
8.5562e-09
-2.14128e-07
8.75038e-09
-2.20786e-07
8.94236e-09
-2.27582e-07
9.13147e-09
-2.34513e-07
9.31699e-09
-2.41577e-07
9.49814e-09
-2.48769e-07
9.6741e-09
-2.56085e-07
9.84402e-09
-2.63518e-07
1.0007e-08
-2.71064e-07
1.0162e-08
-2.78716e-07
1.03081e-08
-2.86465e-07
1.04442e-08
-2.94304e-07
1.05692e-08
-3.02223e-07
1.06819e-08
-3.10211e-07
1.07813e-08
-3.18259e-07
1.08659e-08
-3.26354e-07
1.09346e-08
-3.34484e-07
1.09861e-08
-3.42633e-07
1.1019e-08
-3.50788e-07
1.10319e-08
-3.58932e-07
1.10235e-08
-3.67048e-07
1.09924e-08
-3.75119e-07
1.0937e-08
-3.83125e-07
1.08561e-08
-3.91047e-07
1.07481e-08
-3.98863e-07
1.06118e-08
-4.06551e-07
1.04456e-08
-4.14088e-07
1.02482e-08
-4.2145e-07
1.00183e-08
-4.28612e-07
9.75471e-09
-4.35549e-07
9.45613e-09
-4.42233e-07
9.12147e-09
-4.48638e-07
8.74972e-09
-4.54735e-07
8.33994e-09
-4.60497e-07
7.89136e-09
-4.65893e-07
7.40332e-09
-4.70896e-07
6.87533e-09
-4.75474e-07
6.30706e-09
-4.796e-07
5.69839e-09
-4.83243e-07
5.0494e-09
-4.86375e-07
4.36042e-09
-4.88966e-07
3.63201e-09
-4.90989e-07
2.86498e-09
-4.92416e-07
2.06045e-09
-4.93222e-07
1.21983e-09
-4.93381e-07
3.44836e-10
-4.9287e-07
-5.62499e-10
-4.91668e-07
-1.49978e-09
-4.89755e-07
-2.46429e-09
-4.87114e-07
-3.45295e-09
-4.83731e-07
-4.46232e-09
-4.79593e-07
-5.4886e-09
-4.74691e-07
-6.52767e-09
-4.69021e-07
-7.57503e-09
-4.62579e-07
-8.62585e-09
-4.55368e-07
-9.67502e-09
-4.47394e-07
-1.07171e-08
-4.38666e-07
-1.17464e-08
-4.29198e-07
-1.27571e-08
-4.19009e-07
-1.37429e-08
-4.08122e-07
-1.46978e-08
-3.96565e-07
-1.56153e-08
-3.8437e-07
-1.6489e-08
-3.71573e-07
-1.73126e-08
-3.58217e-07
-1.80799e-08
-3.44348e-07
-1.87846e-08
-3.30015e-07
-1.9421e-08
-3.15272e-07
-1.99833e-08
-3.00178e-07
-2.04664e-08
-2.84793e-07
-2.08655e-08
-2.69184e-07
-2.11763e-08
-2.53416e-07
-2.1395e-08
-2.37559e-07
-2.15186e-08
-2.21684e-07
-2.15446e-08
-2.05864e-07
-2.14716e-08
-1.90171e-07
-2.12984e-08
-1.74679e-07
-2.10252e-08
-1.5946e-07
-2.06527e-08
-1.44585e-07
-2.01825e-08
-1.30123e-07
-1.9617e-08
-1.16143e-07
-1.89594e-08
-1.02708e-07
-1.82139e-08
-8.98781e-08
-1.73852e-08
-7.77111e-08
-1.64788e-08
-6.62589e-08
-1.5501e-08
-5.55687e-08
-1.44585e-08
-4.56823e-08
-1.33587e-08
-3.66357e-08
-1.22096e-08
-2.84587e-08
-1.10196e-08
-2.11745e-08
-9.79773e-09
-1.4799e-08
-8.55353e-09
-9.34054e-09
-7.29734e-09
-4.79906e-09
-6.04046e-09
-1.16497e-09
-4.79553e-09
1.58227e-09
-3.57711e-09
3.47619e-09
-2.40264e-09
4.56631e-09
-1.29383e-09
4.92258e-09
-2.78741e-10
4.64131e-09
6.05228e-10
3.8535e-09
1.30732e-09
2.73513e-09
1.75863e-09
1.51761e-09
1.86726e-09
4.90891e-10
1.52011e-09
6.39279e-10
1.00974e-10
-1.63922e-10
3.39111e-10
-4.57795e-10
6.67678e-10
-6.67788e-10
1.04467e-09
-7.85031e-10
1.43188e-09
-8.1875e-10
1.79635e-09
-7.82619e-10
2.11086e-09
-6.906e-10
2.35378e-09
-5.55412e-10
2.5085e-09
-3.87982e-10
2.5628e-09
-1.97387e-10
2.50814e-09
8.94511e-12
2.33909e-09
2.24969e-10
2.0527e-09
4.45859e-10
1.64809e-09
6.67744e-10
1.12598e-09
8.87577e-10
4.88409e-10
1.10299e-09
-2.61619e-10
1.31219e-09
-1.12035e-09
1.51385e-09
-2.08349e-09
1.70703e-09
-3.14641e-09
1.89112e-09
-4.30427e-09
2.06581e-09
-5.55214e-09
2.23099e-09
-6.88512e-09
2.38676e-09
-8.29842e-09
2.53336e-09
-9.78743e-09
2.67117e-09
-1.13478e-08
2.80066e-09
-1.29753e-08
2.92237e-09
-1.46664e-08
3.03694e-09
-1.64174e-08
3.14502e-09
-1.82254e-08
3.24729e-09
-2.00876e-08
3.34447e-09
-2.20018e-08
3.43727e-09
-2.39658e-08
3.52641e-09
-2.59783e-08
3.6126e-09
-2.80379e-08
3.69654e-09
-3.01439e-08
3.7789e-09
-3.22957e-08
3.86034e-09
-3.44933e-08
3.94151e-09
-3.67367e-08
4.023e-09
-3.90265e-08
4.10539e-09
-4.13635e-08
4.18925e-09
-4.37488e-08
4.27509e-09
-4.61836e-08
4.36341e-09
-4.86697e-08
4.45468e-09
-5.12088e-08
4.54935e-09
-5.38031e-08
4.64781e-09
-5.64547e-08
4.75047e-09
-5.91662e-08
4.8577e-09
-6.19403e-08
4.96982e-09
-6.47797e-08
5.08718e-09
-6.76875e-08
5.21008e-09
-7.06669e-08
5.33879e-09
-7.37212e-08
5.47359e-09
-7.68538e-08
5.61473e-09
-8.00684e-08
5.76245e-09
-8.33685e-08
5.91699e-09
-8.67581e-08
6.07854e-09
-9.02411e-08
6.24732e-09
-9.38215e-08
6.42351e-09
-9.75034e-08
6.6073e-09
-1.01291e-07
6.79885e-09
-1.05189e-07
6.99833e-09
-1.09201e-07
7.20589e-09
-1.13332e-07
7.42166e-09
-1.17587e-07
7.64578e-09
-1.21969e-07
7.87837e-09
-1.26485e-07
8.11952e-09
-1.31137e-07
8.36935e-09
-1.35932e-07
8.62791e-09
-1.40874e-07
8.89529e-09
-1.45967e-07
9.17153e-09
-1.51216e-07
9.45667e-09
-1.56627e-07
9.75071e-09
-1.62204e-07
1.00536e-08
-1.67951e-07
1.03654e-08
-1.73874e-07
1.06861e-08
-1.79976e-07
1.10154e-08
-1.86264e-07
1.13533e-08
-1.9274e-07
1.16998e-08
-1.9941e-07
1.20545e-08
-2.06278e-07
1.24172e-08
-2.13347e-07
1.27878e-08
-2.20622e-07
1.31659e-08
-2.28106e-07
1.35512e-08
-2.35804e-07
1.39432e-08
-2.43717e-07
1.43416e-08
-2.51849e-07
1.47458e-08
-2.60203e-07
1.51552e-08
-2.68781e-07
1.55692e-08
-2.77585e-07
1.59872e-08
-2.86615e-07
1.64084e-08
-2.95874e-07
1.68319e-08
-3.05361e-07
1.72568e-08
-3.15076e-07
1.76822e-08
-3.2502e-07
1.81069e-08
-3.35189e-07
1.85299e-08
-3.45583e-07
1.89499e-08
-3.56198e-07
1.93655e-08
-3.67031e-07
1.97753e-08
-3.78077e-07
2.01779e-08
-3.89332e-07
2.05715e-08
-4.00788e-07
2.09545e-08
-4.12439e-07
2.13251e-08
-4.24276e-07
2.16813e-08
-4.36291e-07
2.20211e-08
-4.48471e-07
2.23425e-08
-4.60806e-07
2.26431e-08
-4.73283e-07
2.29208e-08
-4.85887e-07
2.3173e-08
-4.98602e-07
2.33973e-08
-5.11412e-07
2.35911e-08
-5.24298e-07
2.37518e-08
-5.3724e-07
2.38766e-08
-5.50216e-07
2.39627e-08
-5.63204e-07
2.40072e-08
-5.7618e-07
2.40072e-08
-5.89116e-07
2.39598e-08
-6.01985e-07
2.3862e-08
-6.14759e-07
2.37107e-08
-6.27406e-07
2.35031e-08
-6.39894e-07
2.32361e-08
-6.52189e-07
2.29068e-08
-6.64256e-07
2.25123e-08
-6.76057e-07
2.20498e-08
-6.87556e-07
2.15166e-08
-6.98711e-07
2.09102e-08
-7.09483e-07
2.02282e-08
-7.1983e-07
1.94684e-08
-7.29709e-07
1.86286e-08
-7.39076e-07
1.77072e-08
-7.47888e-07
1.67027e-08
-7.56098e-07
1.5614e-08
-7.63663e-07
1.444e-08
-7.70537e-07
1.31806e-08
-7.76674e-07
1.18355e-08
-7.8203e-07
1.04053e-08
-7.8656e-07
8.89084e-09
-7.90222e-07
7.2936e-09
-7.92972e-07
5.61558e-09
-7.94771e-07
3.85939e-09
-7.9558e-07
2.02826e-09
-7.95361e-07
1.26086e-10
-7.94081e-07
-1.84259e-09
-7.91708e-07
-3.87248e-09
-7.88215e-07
-5.95762e-09
-7.83576e-07
-8.09129e-09
-7.77773e-07
-1.02661e-08
-7.70788e-07
-1.24738e-08
-7.6261e-07
-1.47055e-08
-7.53233e-07
-1.69517e-08
-7.42657e-07
-1.92022e-08
-7.30886e-07
-2.1446e-08
-7.17931e-07
-2.36717e-08
-7.0381e-07
-2.58673e-08
-6.88547e-07
-2.80204e-08
-6.72172e-07
-3.01181e-08
-6.54722e-07
-3.21476e-08
-6.36242e-07
-3.40954e-08
-6.16783e-07
-3.59483e-08
-5.96402e-07
-3.7693e-08
-5.75166e-07
-3.93166e-08
-5.53144e-07
-4.08063e-08
-5.30415e-07
-4.21499e-08
-5.07063e-07
-4.33357e-08
-4.83176e-07
-4.4353e-08
-4.5885e-07
-4.51918e-08
-4.34183e-07
-4.58432e-08
-4.09279e-07
-4.62995e-08
-3.84243e-07
-4.65545e-08
-3.59184e-07
-4.6603e-08
-3.34214e-07
-4.64418e-08
-3.09443e-07
-4.6069e-08
-2.84984e-07
-4.54845e-08
-2.60947e-07
-4.46898e-08
-2.37441e-07
-4.36884e-08
-2.14573e-07
-4.24852e-08
-1.92445e-07
-4.1087e-08
-1.71157e-07
-3.95023e-08
-1.50801e-07
-3.77412e-08
-1.31465e-07
-3.58152e-08
-1.13228e-07
-3.37374e-08
-9.61643e-08
-3.15223e-08
-8.03375e-08
-2.91855e-08
-6.5803e-08
-2.67441e-08
-5.26064e-08
-2.42162e-08
-4.07828e-08
-2.16214e-08
-3.03558e-08
-1.89805e-08
-2.13369e-08
-1.63163e-08
-1.37239e-08
-1.36534e-08
-7.49975e-09
-1.10197e-08
-2.62989e-09
-8.44696e-09
9.40129e-10
-5.97267e-09
3.28867e-09
-3.64238e-09
4.52287e-09
-1.51295e-09
4.78517e-09
3.42936e-10
4.26085e-09
1.83165e-09
3.18706e-09
2.83246e-09
1.86056e-09
3.19379e-09
6.43817e-10
2.73681e-09
1.2831e-09
1.26315e-10
-2.90235e-10
4.1067e-10
-7.42158e-10
7.88886e-10
-1.046e-09
1.20944e-09
-1.20558e-09
1.62793e-09
-1.23723e-09
2.00642e-09
-1.16109e-09
2.31327e-09
-9.97459e-10
2.52291e-09
-7.65058e-10
2.61527e-09
-4.80342e-10
2.57521e-09
-1.57332e-10
2.3919e-09
1.92244e-10
2.05818e-09
5.58687e-10
1.56997e-09
9.34071e-10
9.25737e-10
1.31198e-09
1.2602e-10
1.68729e-09
-8.26963e-10
2.05597e-09
-1.92969e-09
2.41492e-09
-3.17766e-09
2.76181e-09
-4.56561e-09
3.09498e-09
-6.08779e-09
3.41331e-09
-7.73815e-09
3.71617e-09
-9.51048e-09
4.00333e-09
-1.13986e-08
4.27485e-09
-1.33963e-08
4.5311e-09
-1.54978e-08
4.77266e-09
-1.76974e-08
5.00027e-09
-1.99899e-08
5.21485e-09
-2.23703e-08
5.41739e-09
-2.48343e-08
5.60899e-09
-2.73778e-08
5.79079e-09
-2.99973e-08
5.96398e-09
-3.26898e-08
6.12977e-09
-3.54528e-08
6.28936e-09
-3.82841e-08
6.44396e-09
-4.11823e-08
6.59475e-09
-4.41463e-08
6.74289e-09
-4.71755e-08
6.88949e-09
-5.02696e-08
7.03566e-09
-5.34291e-08
7.18242e-09
-5.66544e-08
7.33078e-09
-5.99469e-08
7.48169e-09
-6.33078e-08
7.63605e-09
-6.67391e-08
7.79472e-09
-7.0243e-08
7.95851e-09
-7.38218e-08
8.12819e-09
-7.74785e-08
8.30447e-09
-8.12161e-08
8.48804e-09
-8.50379e-08
8.67953e-09
-8.89476e-08
8.87954e-09
-9.29491e-08
9.08864e-09
-9.70463e-08
9.30735e-09
-1.01244e-07
9.53616e-09
-1.05546e-07
9.77556e-09
-1.09957e-07
1.0026e-08
-1.14482e-07
1.02878e-08
-1.19127e-07
1.05615e-08
-1.23896e-07
1.08474e-08
-1.28794e-07
1.11458e-08
-1.33828e-07
1.14571e-08
-1.39002e-07
1.17816e-08
-1.44323e-07
1.21195e-08
-1.49796e-07
1.24712e-08
-1.55426e-07
1.28368e-08
-1.61221e-07
1.32167e-08
-1.67187e-07
1.3611e-08
-1.73328e-07
1.402e-08
-1.79653e-07
1.44437e-08
-1.86166e-07
1.48823e-08
-1.92874e-07
1.53361e-08
-1.99783e-07
1.58049e-08
-2.06901e-07
1.6289e-08
-2.14232e-07
1.67883e-08
-2.21784e-07
1.73028e-08
-2.29563e-07
1.78325e-08
-2.37575e-07
1.83773e-08
-2.45826e-07
1.89371e-08
-2.54322e-07
1.95116e-08
-2.6307e-07
2.01007e-08
-2.72074e-07
2.0704e-08
-2.81341e-07
2.13212e-08
-2.90875e-07
2.19518e-08
-3.00683e-07
2.25955e-08
-3.10768e-07
2.32515e-08
-3.21136e-07
2.39193e-08
-3.31791e-07
2.4598e-08
-3.42736e-07
2.52869e-08
-3.53976e-07
2.59851e-08
-3.65512e-07
2.66914e-08
-3.77348e-07
2.74048e-08
-3.89484e-07
2.8124e-08
-4.01924e-07
2.88476e-08
-4.14666e-07
2.95741e-08
-4.27711e-07
3.03018e-08
-4.41058e-07
3.1029e-08
-4.54705e-07
3.17538e-08
-4.68649e-07
3.24742e-08
-4.82887e-07
3.31878e-08
-4.97414e-07
3.38923e-08
-5.12224e-07
3.45853e-08
-5.2731e-07
3.5264e-08
-5.42664e-07
3.59256e-08
-5.58276e-07
3.6567e-08
-5.74136e-07
3.71851e-08
-5.90231e-07
3.77766e-08
-6.06548e-07
3.83379e-08
-6.23071e-07
3.88654e-08
-6.39783e-07
3.93551e-08
-6.56666e-07
3.98033e-08
-6.73698e-07
4.02056e-08
-6.90859e-07
4.05578e-08
-7.08123e-07
4.08554e-08
-7.25465e-07
4.1094e-08
-7.42857e-07
4.12688e-08
-7.6027e-07
4.13751e-08
-7.77671e-07
4.14081e-08
-7.95026e-07
4.13627e-08
-8.123e-07
4.12341e-08
-8.29456e-07
4.10172e-08
-8.46452e-07
4.0707e-08
-8.63247e-07
4.02986e-08
-8.79798e-07
3.97871e-08
-8.96059e-07
3.91675e-08
-9.11982e-07
3.84353e-08
-9.27518e-07
3.75858e-08
-9.42616e-07
3.66147e-08
-9.57224e-07
3.55179e-08
-9.71287e-07
3.42916e-08
-9.84751e-07
3.29323e-08
-9.97559e-07
3.14368e-08
-1.00965e-06
2.98024e-08
-1.02098e-06
2.80271e-08
-1.03147e-06
2.61092e-08
-1.04108e-06
2.40475e-08
-1.04974e-06
2.18419e-08
-1.0574e-06
1.94924e-08
-1.064e-06
1.70004e-08
-1.06947e-06
1.43677e-08
-1.07378e-06
1.15972e-08
-1.07685e-06
8.6926e-09
-1.07865e-06
5.65873e-09
-1.07913e-06
2.5014e-09
-1.07823e-06
-7.72486e-10
-1.07591e-06
-4.15493e-09
-1.07215e-06
-7.63673e-09
-1.0669e-06
-1.12075e-08
-1.06014e-06
-1.48558e-08
-1.05183e-06
-1.85689e-08
-1.04197e-06
-2.23328e-08
-1.03055e-06
-2.61324e-08
-1.01755e-06
-2.99517e-08
-1.00298e-06
-3.37732e-08
-9.86843e-07
-3.75789e-08
-9.69165e-07
-4.13494e-08
-9.49968e-07
-4.50647e-08
-9.29284e-07
-4.87042e-08
-9.07155e-07
-5.22465e-08
-8.83633e-07
-5.56699e-08
-8.58776e-07
-5.89525e-08
-8.32652e-07
-6.20723e-08
-8.05338e-07
-6.50073e-08
-7.76918e-07
-6.77361e-08
-7.47487e-07
-7.02376e-08
-7.17145e-07
-7.24917e-08
-6.86001e-07
-7.44792e-08
-6.54172e-07
-7.61824e-08
-6.21779e-07
-7.75847e-08
-5.8895e-07
-7.86716e-08
-5.5582e-07
-7.94305e-08
-5.22523e-07
-7.98507e-08
-4.89202e-07
-7.99243e-08
-4.55998e-07
-7.96453e-08
-4.23056e-07
-7.9011e-08
-3.9052e-07
-7.8021e-08
-3.58532e-07
-7.66779e-08
-3.27233e-07
-7.49871e-08
-2.96761e-07
-7.29571e-08
-2.67249e-07
-7.05989e-08
-2.38825e-07
-6.79266e-08
-2.11609e-07
-6.49571e-08
-1.85715e-07
-6.17095e-08
-1.61246e-07
-5.82058e-08
-1.38299e-07
-5.44702e-08
-1.16955e-07
-5.05294e-08
-9.72867e-08
-4.6412e-08
-7.93538e-08
-4.21491e-08
-6.32011e-08
-3.77741e-08
-4.88588e-08
-3.33228e-08
-3.6341e-08
-2.88341e-08
-2.56435e-08
-2.43509e-08
-1.67427e-08
-1.99205e-08
-9.59267e-09
-1.5597e-08
-4.12205e-09
-1.14433e-08
-2.30504e-10
-7.53392e-09
2.21624e-09
-3.95971e-09
3.39187e-09
-8.32706e-10
3.51621e-09
1.70729e-09
2.8626e-09
3.48607e-09
1.76602e-09
4.29039e-09
6.35253e-10
3.86756e-09
1.91836e-09
1.36161e-10
-4.2639e-10
4.36939e-10
-1.04293e-09
8.26464e-10
-1.43551e-09
1.24559e-09
-1.62471e-09
1.64506e-09
-1.6367e-09
1.98349e-09
-1.49952e-09
2.22649e-09
-1.24046e-09
2.34603e-09
-8.84599e-10
2.31989e-09
-4.54206e-10
2.13108e-09
3.1475e-11
1.76724e-09
5.56086e-10
1.22002e-09
1.10591e-09
4.8451e-10
1.66958e-09
-4.41307e-10
2.23779e-09
-1.55705e-09
2.80303e-09
-2.86038e-09
3.35931e-09
-4.34742e-09
3.90197e-09
-6.01309e-09
4.42748e-09
-7.85141e-09
4.93329e-09
-9.85575e-09
5.41765e-09
-1.20191e-08
5.87952e-09
-1.43342e-08
6.31845e-09
-1.67938e-08
6.73448e-09
-1.93908e-08
7.12807e-09
-2.21181e-08
7.5e-09
-2.49692e-08
7.85135e-09
-2.79378e-08
8.18342e-09
-3.10181e-08
8.49765e-09
-3.42047e-08
8.79565e-09
-3.7493e-08
9.07911e-09
-4.08788e-08
9.34976e-09
-4.43585e-08
9.60941e-09
-4.79289e-08
9.85985e-09
-5.15878e-08
1.01029e-08
-5.53333e-08
1.03402e-08
-5.91641e-08
1.05737e-08
-6.30795e-08
1.08049e-08
-6.70794e-08
1.10356e-08
-7.11642e-08
1.12672e-08
-7.53347e-08
1.15013e-08
-7.95923e-08
1.17393e-08
-8.3939e-08
1.19827e-08
-8.83769e-08
1.22326e-08
-9.29088e-08
1.24904e-08
-9.75378e-08
1.27572e-08
-1.02267e-07
1.30341e-08
-1.07101e-07
1.33221e-08
-1.12044e-07
1.36223e-08
-1.171e-07
1.39354e-08
-1.22274e-07
1.42625e-08
-1.27571e-07
1.46042e-08
-1.32996e-07
1.49614e-08
-1.38555e-07
1.53348e-08
-1.44254e-07
1.5725e-08
-1.50099e-07
1.61327e-08
-1.56096e-07
1.65584e-08
-1.62251e-07
1.70028e-08
-1.68572e-07
1.74663e-08
-1.75064e-07
1.79495e-08
-1.81736e-07
1.84528e-08
-1.88593e-07
1.89766e-08
-1.95643e-07
1.95214e-08
-2.02894e-07
2.00874e-08
-2.10352e-07
2.06751e-08
-2.18026e-07
2.12847e-08
-2.25922e-07
2.19166e-08
-2.3405e-07
2.25709e-08
-2.42415e-07
2.32478e-08
-2.51026e-07
2.39474e-08
-2.59891e-07
2.467e-08
-2.69018e-07
2.54155e-08
-2.78414e-07
2.61839e-08
-2.88086e-07
2.69753e-08
-2.98043e-07
2.77893e-08
-3.08292e-07
2.8626e-08
-3.1884e-07
2.9485e-08
-3.29694e-07
3.0366e-08
-3.40862e-07
3.12686e-08
-3.5235e-07
3.21922e-08
-3.64165e-07
3.31362e-08
-3.76313e-07
3.41e-08
-3.888e-07
3.50827e-08
-4.01632e-07
3.60833e-08
-4.14814e-07
3.71008e-08
-4.2835e-07
3.81339e-08
-4.42244e-07
3.91814e-08
-4.56501e-07
4.02416e-08
-4.71122e-07
4.13129e-08
-4.86111e-07
4.23936e-08
-5.01468e-07
4.34815e-08
-5.17195e-07
4.45744e-08
-5.33291e-07
4.56701e-08
-5.49755e-07
4.67659e-08
-5.66585e-07
4.78589e-08
-5.83778e-07
4.89463e-08
-6.01328e-07
5.00247e-08
-6.19231e-07
5.10907e-08
-6.37479e-07
5.21406e-08
-6.56065e-07
5.31706e-08
-6.74977e-07
5.41764e-08
-6.94205e-07
5.51536e-08
-7.13736e-07
5.60976e-08
-7.33554e-07
5.70035e-08
-7.53644e-07
5.78662e-08
-7.73986e-07
5.86803e-08
-7.94561e-07
5.94402e-08
-8.15346e-07
6.01401e-08
-8.36316e-07
6.07738e-08
-8.57446e-07
6.13352e-08
-8.78706e-07
6.18176e-08
-9.00065e-07
6.22146e-08
-9.2149e-07
6.25192e-08
-9.42946e-07
6.27245e-08
-9.64394e-07
6.28232e-08
-9.85794e-07
6.28083e-08
-1.0071e-06
6.26724e-08
-1.02828e-06
6.24082e-08
-1.04927e-06
6.20082e-08
-1.07003e-06
6.14653e-08
-1.0905e-06
6.07721e-08
-1.11064e-06
5.99214e-08
-1.13037e-06
5.89063e-08
-1.14966e-06
5.77201e-08
-1.16843e-06
5.63561e-08
-1.18662e-06
5.48082e-08
-1.20418e-06
5.30707e-08
-1.22102e-06
5.11383e-08
-1.2371e-06
4.9006e-08
-1.25233e-06
4.66697e-08
-1.26665e-06
4.41259e-08
-1.28e-06
4.13718e-08
-1.29229e-06
3.84055e-08
-1.30347e-06
3.52259e-08
-1.31346e-06
3.1833e-08
-1.3222e-06
2.82278e-08
-1.32961e-06
2.44126e-08
-1.33563e-06
2.03907e-08
-1.3402e-06
1.61669e-08
-1.34326e-06
1.17474e-08
-1.34474e-06
7.13973e-09
-1.34459e-06
2.35308e-09
-1.34276e-06
-2.60187e-09
-1.3392e-06
-7.71277e-09
-1.33387e-06
-1.29656e-08
-1.32674e-06
-1.83447e-08
-1.31776e-06
-2.38326e-08
-1.30692e-06
-2.94102e-08
-1.29419e-06
-3.50567e-08
-1.27958e-06
-4.07497e-08
-1.26306e-06
-4.64651e-08
-1.24466e-06
-5.21773e-08
-1.22438e-06
-5.78594e-08
-1.20225e-06
-6.3483e-08
-1.17829e-06
-6.90188e-08
-1.15256e-06
-7.44363e-08
-1.1251e-06
-7.97044e-08
-1.09598e-06
-8.47912e-08
-1.06527e-06
-8.96648e-08
-1.03305e-06
-9.42929e-08
-9.99411e-07
-9.86437e-08
-9.64462e-07
-1.02686e-07
-9.2831e-07
-1.06389e-07
-8.91079e-07
-1.09723e-07
-8.52898e-07
-1.12661e-07
-8.13904e-07
-1.15176e-07
-7.74243e-07
-1.17245e-07
-7.34068e-07
-1.18847e-07
-6.93535e-07
-1.19963e-07
-6.52809e-07
-1.20577e-07
-6.12055e-07
-1.20678e-07
-5.71443e-07
-1.20258e-07
-5.31143e-07
-1.19311e-07
-4.91326e-07
-1.17838e-07
-4.52162e-07
-1.15842e-07
-4.13819e-07
-1.13331e-07
-3.76459e-07
-1.10316e-07
-3.40243e-07
-1.06816e-07
-3.05321e-07
-1.02849e-07
-2.71838e-07
-9.844e-08
-2.39929e-07
-9.36181e-08
-2.0972e-07
-8.84151e-08
-1.81323e-07
-8.2867e-08
-1.54839e-07
-7.70132e-08
-1.30355e-07
-7.08966e-08
-1.0794e-07
-6.45636e-08
-8.76499e-08
-5.80642e-08
-6.95203e-08
-5.14524e-08
-5.35678e-08
-4.47867e-08
-3.97874e-08
-3.81312e-08
-2.8151e-08
-3.1557e-08
-1.86041e-08
-2.51439e-08
-1.10635e-08
-1.89838e-08
-5.41364e-09
-1.31838e-08
-1.50229e-09
-7.87104e-09
8.63889e-10
-3.19889e-09
1.92485e-09
6.46309e-10
1.97353e-09
3.43737e-09
1.364e-09
4.89992e-09
5.25058e-10
4.70651e-09
2.44341e-09
1.34098e-10
-5.6048e-10
4.2538e-10
-1.33421e-09
7.91906e-10
-1.80204e-09
1.16955e-09
-2.00237e-09
1.50571e-09
-1.97286e-09
1.7567e-09
-1.75051e-09
1.88646e-09
-1.37021e-09
1.86559e-09
-8.6374e-10
1.67071e-09
-2.59333e-10
1.28381e-09
4.18375e-10
6.91665e-10
1.14823e-09
-1.14725e-10
1.9123e-09
-1.14074e-09
2.69559e-09
-2.38864e-09
3.48569e-09
-3.85808e-09
4.27247e-09
-5.5466e-09
5.04782e-09
-7.44998e-09
5.80534e-09
-9.56266e-09
6.54016e-09
-1.18781e-08
7.24869e-09
-1.43889e-08
7.92845e-09
-1.70872e-08
8.57792e-09
-1.99652e-08
9.19639e-09
-2.30145e-08
9.78383e-09
-2.62273e-08
1.03408e-08
-2.95955e-08
1.08683e-08
-3.31119e-08
1.13677e-08
-3.67693e-08
1.18408e-08
-4.05611e-08
1.22895e-08
-4.44815e-08
1.2716e-08
-4.8525e-08
1.31226e-08
-5.26868e-08
1.35116e-08
-5.6963e-08
1.38856e-08
-6.13502e-08
1.4247e-08
-6.58455e-08
1.45982e-08
-7.04469e-08
1.49417e-08
-7.51531e-08
1.52799e-08
-7.99634e-08
1.56152e-08
-8.48776e-08
1.59497e-08
-8.98962e-08
1.62858e-08
-9.50204e-08
1.66255e-08
-1.00252e-07
1.69707e-08
-1.05593e-07
1.73236e-08
-1.11046e-07
1.76857e-08
-1.16614e-07
1.8059e-08
-1.22302e-07
1.84449e-08
-1.28113e-07
1.88451e-08
-1.34052e-07
1.9261e-08
-1.40124e-07
1.9694e-08
-1.46334e-07
2.01454e-08
-1.52687e-07
2.06163e-08
-1.59191e-07
2.1108e-08
-1.65851e-07
2.16214e-08
-1.72674e-07
2.21576e-08
-1.79667e-07
2.27176e-08
-1.86836e-07
2.33021e-08
-1.9419e-07
2.39121e-08
-2.01735e-07
2.45484e-08
-2.09481e-07
2.52116e-08
-2.17434e-07
2.59024e-08
-2.25602e-07
2.66215e-08
-2.33995e-07
2.73695e-08
-2.42621e-07
2.81468e-08
-2.51487e-07
2.89541e-08
-2.60604e-07
2.97916e-08
-2.69979e-07
3.066e-08
-2.79622e-07
3.15593e-08
-2.89541e-07
3.24901e-08
-2.99746e-07
3.34524e-08
-3.10245e-07
3.44465e-08
-3.21047e-07
3.54725e-08
-3.32162e-07
3.65303e-08
-3.43598e-07
3.76199e-08
-3.55364e-07
3.87413e-08
-3.67469e-07
3.9894e-08
-3.79921e-07
4.1078e-08
-3.92728e-07
4.22925e-08
-4.05899e-07
4.35373e-08
-4.19442e-07
4.48114e-08
-4.33364e-07
4.61142e-08
-4.47673e-07
4.74448e-08
-4.62375e-07
4.88018e-08
-4.77476e-07
5.01842e-08
-4.92983e-07
5.15905e-08
-5.08902e-07
5.30191e-08
-5.25236e-07
5.4468e-08
-5.4199e-07
5.59354e-08
-5.59167e-07
5.74189e-08
-5.7677e-07
5.89162e-08
-5.94801e-07
6.04244e-08
-6.1326e-07
6.19407e-08
-6.32148e-07
6.34618e-08
-6.51462e-07
6.49842e-08
-6.712e-07
6.65042e-08
-6.91359e-07
6.80178e-08
-7.11933e-07
6.95205e-08
-7.32917e-07
7.10078e-08
-7.54301e-07
7.24747e-08
-7.76076e-07
7.39158e-08
-7.98231e-07
7.53256e-08
-8.20753e-07
7.66981e-08
-8.43626e-07
7.80272e-08
-8.66835e-07
7.93061e-08
-8.90359e-07
8.0528e-08
-9.14178e-07
8.16856e-08
-9.38269e-07
8.27713e-08
-9.62607e-07
8.37774e-08
-9.87162e-07
8.46955e-08
-1.01191e-06
8.55173e-08
-1.0368e-06
8.62339e-08
-1.06182e-06
8.68364e-08
-1.08692e-06
8.73155e-08
-1.11207e-06
8.76618e-08
-1.13721e-06
8.78657e-08
-1.1623e-06
8.79174e-08
-1.1873e-06
8.78069e-08
-1.21215e-06
8.75244e-08
-1.2368e-06
8.70598e-08
-1.2612e-06
8.64032e-08
-1.28528e-06
8.55447e-08
-1.30898e-06
8.44746e-08
-1.33224e-06
8.31832e-08
-1.355e-06
8.16614e-08
-1.37718e-06
7.99e-08
-1.39871e-06
7.78907e-08
-1.41953e-06
7.56253e-08
-1.43956e-06
7.30964e-08
-1.45871e-06
7.02972e-08
-1.47693e-06
6.72215e-08
-1.49412e-06
6.38644e-08
-1.51022e-06
6.02214e-08
-1.52514e-06
5.62895e-08
-1.5388e-06
5.20666e-08
-1.55112e-06
4.75521e-08
-1.56204e-06
4.27465e-08
-1.57146e-06
3.7652e-08
-1.57932e-06
3.22724e-08
-1.58554e-06
2.6613e-08
-1.59006e-06
2.0681e-08
-1.5928e-06
1.44856e-08
-1.59369e-06
8.03779e-09
-1.59269e-06
1.35074e-09
-1.58973e-06
-5.56036e-09
-1.58477e-06
-1.26781e-08
-1.57775e-06
-1.99827e-08
-1.56864e-06
-2.74524e-08
-1.55741e-06
-3.50631e-08
-1.54404e-06
-4.27882e-08
-1.52849e-06
-5.05992e-08
-1.51078e-06
-5.84652e-08
-1.49089e-06
-6.63534e-08
-1.46884e-06
-7.42289e-08
-1.44464e-06
-8.20549e-08
-1.41833e-06
-8.9793e-08
-1.38995e-06
-9.74034e-08
-1.35954e-06
-1.04845e-07
-1.32717e-06
-1.12075e-07
-1.29291e-06
-1.19052e-07
-1.25684e-06
-1.25731e-07
-1.21906e-06
-1.3207e-07
-1.17968e-06
-1.38025e-07
-1.13881e-06
-1.43555e-07
-1.09659e-06
-1.48618e-07
-1.05313e-06
-1.53174e-07
-1.00861e-06
-1.57188e-07
-9.63162e-07
-1.60622e-07
-9.16961e-07
-1.63446e-07
-8.70178e-07
-1.6563e-07
-8.2299e-07
-1.67151e-07
-7.75581e-07
-1.67986e-07
-7.2814e-07
-1.68119e-07
-6.80857e-07
-1.67541e-07
-6.33925e-07
-1.66243e-07
-5.87538e-07
-1.64225e-07
-5.41887e-07
-1.61493e-07
-4.97162e-07
-1.58055e-07
-4.53549e-07
-1.53929e-07