/*--------------------------------*- C++ -*----------------------------------*\
  =========                 |
  \\      /  F ield         | OpenFOAM: The Open Source CFD Toolbox
   \\    /   O peration     | Website:  https://openfoam.org
    \\  /    A nd           | Version:  7
     \\/     M anipulation  |
\*---------------------------------------------------------------------------*/
FoamFile
{
    version     2.0;
    format      ascii;
    class       volScalarField;
    location    "1";
    object      rho;
}
// * * * * * * * * * * * * * * * * * * * * * * * * * * * * * * * * * * * * * //

dimensions      [1 -3 0 0 0 0 0];

internalField   nonuniform List<scalar> 
2413
(
2.06401
2.08982
2.1151
2.13981
2.16405
2.18804
2.21197
2.23608
2.26044
2.28513
2.31014
2.33543
2.361
2.38682
2.41286
2.43902
2.46538
2.49193
2.51877
2.54579
2.57294
2.60026
2.62764
2.6554
2.68332
2.71152
2.73985
2.76837
2.79713
2.82619
2.85555
2.88514
2.9149
2.94481
2.97497
3.00553
3.03659
3.06812
3.09998
3.13201
3.16413
3.19644
3.22915
3.26243
3.29626
3.33027
3.36404
3.39722
3.42968
3.46159
3.49357
0.798709
0.800772
0.802964
0.8049
0.806254
0.807124
0.807919
0.809005
0.810439
0.811932
0.813016
0.81345
0.813331
0.81289
0.813326
0.899917
1.66091
2.23398
2.29574
2.27179
2.2505
2.23942
2.23511
2.22529
2.2089
2.18272
2.13918
2.08029
2.01758
1.96658
1.93905
1.93358
1.94434
1.9639
1.98637
2.01053
2.03532
2.06005
2.08455
2.10865
2.13246
2.15595
2.17931
2.20274
2.22644
2.25047
2.27491
2.29972
2.32483
2.35027
2.37595
2.4019
2.42796
2.45425
2.48072
2.50751
2.53448
2.56158
2.58887
2.6162
2.64392
2.67179
2.69995
2.72824
2.75671
2.78543
2.81446
2.84379
2.87335
2.90307
2.93293
2.96302
2.99351
3.02449
3.05594
3.08773
3.11971
3.1518
3.18413
3.21689
3.25026
3.28418
3.31831
3.35218
3.38543
3.41794
3.44985
3.48178
0.807879
0.809544
0.811527
0.813754
0.815775
0.817157
0.817949
0.818615
0.81962
0.821106
0.822801
0.824154
0.824776
0.824713
0.824139
0.833841
1.25657
2.09776
2.32386
2.31596
2.29125
2.26949
2.26087
2.25682
2.25223
2.24369
2.23195
2.20639
2.16556
2.11293
2.05779
2.01341
1.99005
1.98581
1.99604
2.01507
2.03687
2.0599
2.08305
2.10592
2.12838
2.15054
2.17274
2.19517
2.21802
2.24137
2.26526
2.28965
2.31442
2.33962
2.36509
2.39089
2.4168
2.44299
2.46936
2.49609
2.52297
2.55003
2.57726
2.60454
2.63223
2.66006
2.68818
2.71642
2.74486
2.77354
2.80254
2.83185
2.86139
2.89108
2.9209
2.95094
2.98137
3.01229
3.04366
3.07535
3.10723
3.13925
3.17154
3.20431
3.23772
3.27174
3.30598
3.33998
3.37335
3.40595
3.43792
3.46982
0.817382
0.818839
0.820297
0.822159
0.824376
0.826454
0.827847
0.828537
0.829031
0.829903
0.831385
0.833246
0.834881
0.835729
0.835605
0.835859
0.958742
1.78333
2.30383
2.35628
2.33492
2.30944
2.29256
2.28338
2.27649
2.27312
2.27011
2.2662
2.2522
2.22698
2.18995
2.14346
2.09649
2.06002
2.04166
2.03892
2.04842
2.06586
2.08577
2.10679
2.12777
2.14865
2.16954
2.19054
2.21198
2.23417
2.25704
2.2806
2.30471
2.3294
2.35447
2.38
2.40568
2.4317
2.45792
2.48454
2.51131
2.53829
2.56546
2.59268
2.62034
2.64812
2.67621
2.7044
2.7328
2.76145
2.79043
2.81972
2.84925
2.8789
2.90868
2.93869
2.96909
2.99995
3.03126
3.06286
3.09463
3.12654
3.15874
3.19145
3.22487
3.25892
3.29326
3.32739
3.36091
3.39365
3.42571
3.45763
0.826404
0.82835
0.82964
0.830901
0.832632
0.834834
0.836986
0.838419
0.839013
0.839301
0.839963
0.841357
0.843308
0.845184
0.84628
0.846292
0.859236
1.34174
2.17111
2.37683
2.37482
2.35357
2.33042
2.31713
2.30559
2.29782
2.29352
2.29288
2.29212
2.28536
2.27118
2.24732
2.21348
2.1734
2.13493
2.10635
2.09247
2.09077
2.09912
2.11422
2.1316
2.15038
2.16958
2.18912
2.20927
2.22995
2.2513
2.2736
2.29656
2.32036
2.34468
2.36965
2.39491
2.42061
2.44656
2.473
2.4996
2.52644
2.5535
2.58065
2.60825
2.63598
2.66404
2.69218
2.72055
2.74917
2.77813
2.8074
2.8369
2.86651
2.89626
2.92624
2.95661
2.98746
3.01872
3.05025
3.08191
3.11369
3.14578
3.17841
3.21177
3.24581
3.28018
3.31438
3.34803
3.38093
3.41314
3.44513
0.834103
0.836968
0.838933
0.840097
0.841194
0.842826
0.845055
0.84735
0.848895
0.849434
0.849492
0.849886
0.851107
0.853067
0.855099
0.856282
0.857273
0.995916
1.84751
2.35225
2.40731
2.39269
2.37176
2.3529
2.33973
2.3281
2.32051
2.31606
2.31516
2.3145
2.31167
2.30465
2.29056
2.26765
2.23712
2.20363
2.17327
2.1512
2.14037
2.13945
2.14643
2.15895
2.17425
2.19138
2.20961
2.22874
2.2488
2.26955
2.291
2.31345
2.3366
2.36061
2.38508
2.41017
2.43565
2.46172
2.48803
2.51463
2.5415
2.56851
2.59602
2.62368
2.65168
2.67977
2.7081
2.73669
2.76563
2.79488
2.82434
2.85391
2.88361
2.91356
2.94392
2.97476
3.00599
3.03745
3.06902
3.10069
3.13267
3.16521
3.19849
3.23247
3.2668
3.30101
3.33473
3.36775
3.40012
3.43222
0.840685
0.84394
0.846986
0.848982
0.850046
0.851021
0.852607
0.854928
0.857437
0.859161
0.859692
0.859566
0.859689
0.860708
0.862605
0.864731
0.866081
0.879568
1.37235
2.21132
2.42007
2.42757
2.411
2.3908
2.37404
2.36074
2.35063
2.34431
2.33982
2.33761
2.33637
2.33516
2.33239
2.32472
2.30983
2.28813
2.26157
2.23411
2.21013
2.19289
2.18436
2.18361
2.18957
2.20062
2.21472
2.23123
2.24919
2.26842
2.28854
2.30952
2.33113
2.35379
2.37705
2.40111
2.42575
2.45117
2.47696
2.50313
2.52967
2.55644
2.58377
2.61129
2.63917
2.66718
2.69545
2.724
2.75292
2.78214
2.81155
2.84106
2.87071
2.90064
2.93099
2.96182
2.99303
3.02444
3.05592
3.08749
3.11939
3.15186
3.18508
3.21898
3.25322
3.28734
3.32102
3.35409
3.38658
3.41883
0.847078
0.849844
0.853266
0.85646
0.858458
0.859425
0.860307
0.86189
0.864324
0.867054
0.868991
0.86961
0.869397
0.869323
0.870159
0.871967
0.874003
0.876317
1.00447
1.85965
2.38897
2.45052
2.44492
2.42853
2.41017
2.39393
2.38116
2.37282
2.36777
2.36322
2.36026
2.35881
2.35841
2.3576
2.35359
2.34428
2.32911
2.3088
2.28605
2.26379
2.24441
2.23023
2.22399
2.22411
2.22962
2.24048
2.25438
2.27086
2.28891
2.30837
2.32872
2.34987
2.3716
2.39424
2.41765
2.44198
2.46691
2.49235
2.51834
2.54468
2.57168
2.59895
2.62662
2.65447
2.68262
2.71109
2.73996
2.76914
2.79849
2.82793
2.85753
2.88743
2.91779
2.94862
2.97981
3.01116
3.04255
3.07405
3.1059
3.13834
3.17153
3.20536
3.23947
3.27345
3.30699
3.34001
3.37255
3.4049
0.854004
0.855867
0.858663
0.862216
0.865496
0.867443
0.86829
0.869073
0.870637
0.87316
0.876093
0.878269
0.879019
0.878807
0.878634
0.87937
0.881113
0.883115
0.894368
1.34943
2.22398
2.45847
2.47143
2.46138
2.44587
2.4294
2.41325
2.40127
2.39429
2.39004
2.38576
2.38295
2.38166
2.38171
2.38182
2.37991
2.37399
2.36311
2.34774
2.32964
2.31027
2.29134
2.2753
2.26496
2.2606
2.26175
2.26839
2.27971
2.29394
2.31063
2.32895
2.34864
2.36905
2.39012
2.41198
2.43486
2.45854
2.48286
2.50798
2.53361
2.56007
2.58691
2.61422
2.64177
2.6697
2.69802
2.72678
2.75587
2.78512
2.81447
2.84401
2.87389
2.90426
2.9351
2.96627
2.99756
3.02887
3.06032
3.09215
3.12462
3.15782
3.1916
3.22558
3.25936
3.2927
3.32557
3.35807
3.39046
0.861519
0.862745
0.864486
0.86731
0.870958
0.874259
0.876093
0.876775
0.87742
0.87894
0.881522
0.884614
0.886959
0.887818
0.887647
0.887477
0.888211
0.889795
0.892863
0.98985
1.82061
2.41512
2.48822
2.48806
2.47699
2.46348
2.448
2.43212
2.42103
2.41508
2.4113
2.40756
2.40519
2.40424
2.40489
2.40574
2.40505
2.40116
2.39277
2.38087
2.36626
2.34993
2.33284
2.31717
2.30486
2.29759
2.29555
2.29859
2.30669
2.31882
2.33357
2.35047
2.36898
2.38861
2.40904
2.43028
2.45243
2.47529
2.49916
2.52375
2.54935
2.57551
2.60225
2.62932
2.65687
2.68492
2.71347
2.74238
2.77147
2.80068
2.83013
2.85998
2.89035
2.92121
2.95235
2.98357
3.01482
3.04623
3.07809
3.11065
3.14392
3.17769
3.21155
3.24511
3.27819
3.31084
3.34321
3.37556
0.868713
0.870326
0.871347
0.873029
0.875903
0.879623
0.882886
0.88456
0.885047
0.885538
0.886998
0.889606
0.892763
0.895158
0.896039
0.895901
0.895789
0.8966
0.898054
0.905834
1.28124
2.20322
2.49481
2.50755
2.50197
2.49246
2.48116
2.46588
2.45039
2.44038
2.43532
2.43187
2.4287
2.42686
2.42661
2.42792
2.42958
2.42986
2.42685
2.42012
2.40999
2.39796
2.3841
2.36938
2.35499
2.34259
2.33375
2.32969
2.33004
2.33522
2.34492
2.35766
2.37283
2.38975
2.40844
2.4283
2.44887
2.47007
2.49243
2.51563
2.54006
2.56521
2.59109
2.61746
2.64444
2.67204
2.70024
2.72883
2.75765
2.78664
2.81593
2.8457
2.87606
2.90691
2.938
2.96914
3.00031
3.03171
3.06365
3.09635
3.12975
3.16356
3.19732
3.23066
3.26346
3.29587
3.32807
3.3603
0.874266
0.877375
0.878815
0.879761
0.881486
0.884457
0.888243
0.891428
0.892918
0.893224
0.893591
0.89502
0.897631
0.900761
0.903052
0.903841
0.903682
0.903618
0.904451
0.906768
0.965146
1.72732
2.42236
2.52813
2.52239
2.51441
2.50824
2.4982
2.48277
2.46839
2.45941
2.45494
2.45202
2.44957
2.44832
2.44859
2.45075
2.4532
2.45398
2.45182
2.44552
2.43682
2.42603
2.41425
2.40164
2.38915
2.37747
2.36833
2.36293
2.36164
2.36446
2.37164
2.38252
2.39555
2.41122
2.42864
2.44764
2.46738
2.4881
2.50972
2.53269
2.5565
2.5812
2.60657
2.63273
2.65969
2.68735
2.71548
2.74387
2.77251
2.80155
2.83118
2.86146
2.89223
2.92321
2.95422
2.98529
3.01668
3.04874
3.08163
3.11521
3.1491
3.18279
3.21593
3.24848
3.28064
3.31267
3.34478
0.877871
0.882471
0.885467
0.886841
0.887852
0.889732
0.892856
0.896709
0.899773
0.901082
0.90127
0.90164
0.903135
0.905774
0.908801
0.910846
0.911443
0.91117
0.91117
0.911772
0.916376
1.18369
2.13515
2.52254
2.54081
2.53737
2.53017
2.52341
2.51414
2.50001
2.48614
2.47776
2.47447
2.47246
2.4703
2.46944
2.47045
2.47313
2.47631
2.47775
2.47557
2.47013
2.46156
2.4518
2.44127
2.43072
2.41979
2.40939
2.40066
2.39477
2.39226
2.3935
2.39875
2.40724
2.41917
2.43288
2.44929
2.46694
2.48622
2.50625
2.52758
2.54982
2.57304
2.59711
2.62218
2.64825
2.67516
2.70263
2.73042
2.75856
2.78722
2.81659
2.84669
2.87728
2.90806
2.93884
2.96975
3.00112
3.0333
3.0664
3.10018
3.13418
3.16782
3.2008
3.23313
3.26511
3.29703
3.32903
0.880677
0.885469
0.890048
0.892916
0.894301
0.895497
0.897622
0.900946
0.904839
0.907703
0.908827
0.909018
0.909592
0.911298
0.914041
0.916919
0.918661
0.919008
0.918578
0.918616
0.919212
0.946011
1.57992
2.39546
2.55638
2.56218
2.54828
2.54171
2.5402
2.53171
2.51556
2.50252
2.49689
2.49435
2.49224
2.49086
2.49059
2.49179
2.49484
2.49858
2.50035
2.49874
2.4931
2.48489
2.4754
2.46622
2.45687
2.44758
2.43856
2.43068
2.42459
2.42174
2.42192
2.42517
2.43264
2.44251
2.4554
2.46972
2.48678
2.50508
2.5249
2.54541
2.56697
2.58948
2.61319
2.63809
2.664
2.69057
2.71757
2.74503
2.77318
2.80217
2.83196
2.86224
2.89267
2.92312
2.95379
2.98508
3.01733
3.0506
3.08456
3.11863
3.15222
3.18507
3.21727
3.24917
3.28108
3.31305
0.883875
0.887806
0.892655
0.897078
0.899778
0.901215
0.90267
0.905096
0.90864
0.912477
0.915015
0.915962
0.916313
0.917268
0.919324
0.922234
0.924979
0.926452
0.926574
0.92605
0.92586
0.927959
1.08152
2.00538
2.51983
2.59036
2.56287
2.55603
2.56201
2.55847
2.54362
2.53026
2.52194
2.51587
2.5129
2.51187
2.51119
2.51086
2.5121
2.51572
2.52008
2.52213
2.52026
2.51478
2.50647
2.49774
2.48905
2.48086
2.47296
2.46547
2.45829
2.45275
2.44958
2.44912
2.45167
2.4573
2.46646
2.47724
2.49108
2.50655
2.52445
2.54338
2.56317
2.58397
2.6061
2.62958
2.65421
2.67962
2.7056
2.73221
2.75969
2.78815
2.81748
2.84729
2.87723
2.90722
2.93756
2.96868
3.00093
3.03427
3.06829
3.10232
3.13581
3.16854
3.20069
3.23265
3.2647
3.29677
0.888034
0.890875
0.89488
0.899663
0.903784
0.90626
0.907768
0.909521
0.912274
0.915992
0.91958
0.921687
0.922496
0.923114
0.924521
0.926984
0.930096
0.932762
0.934045
0.934005
0.933573
0.933076
0.9416
1.39428
2.31742
2.59966
2.57118
2.57376
2.58282
2.57709
2.56619
2.55868
2.55017
2.5387
2.5327
2.53207
2.53178
2.53038
2.53005
2.53221
2.53628
2.54045
2.54228
2.54053
2.53499
2.52721
2.51844
2.5103
2.50318
2.49677
2.4901
2.48403
2.47891
2.47612
2.47548
2.47708
2.48207
2.48931
2.49985
2.51198
2.527
2.54354
2.56163
2.5807
2.60112
2.62298
2.64606
2.67004
2.69474
2.72029
2.74692
2.7747
2.80339
2.83257
2.86186
2.89129
2.92121
2.9521
2.98425
3.01753
3.05143
3.08526
3.11851
3.15108
3.18325
3.2154
3.24774
3.28004
0.892956
0.895146
0.898071
0.902134
0.906722
0.910395
0.912608
0.914219
0.916304
0.919385
0.923146
0.926299
0.927937
0.928645
0.929523
0.931352
0.934187
0.937482
0.940067
0.941194
0.941099
0.940836
0.941264
1.00426
1.81201
2.51267
2.58075
2.60779
2.6003
2.58569
2.5839
2.58541
2.57782
2.56239
2.55365
2.55206
2.55112
2.54909
2.54836
2.54949
2.55169
2.55536
2.55943
2.5615
2.55969
2.5545
2.54642
2.53793
2.53061
2.52461
2.5187
2.51321
2.50793
2.50384
2.50139
2.50065
2.50186
2.5055
2.5126
2.52148
2.53344
2.54675
2.5624
2.57957
2.59833
2.61842
2.63978
2.66207
2.68525
2.70951
2.73509
2.76199
2.78987
2.81822
2.84673
2.87549
2.90493
2.93553
2.96748
3.00055
3.03411
3.0675
3.10034
3.13269
3.16488
3.1973
3.23003
3.26267
0.897712
0.900182
0.902452
0.905585
0.909702
0.913947
0.917062
0.919032
0.9208
0.923256
0.926621
0.930281
0.932892
0.934099
0.934691
0.935769
0.937934
0.941043
0.94443
0.946803
0.947756
0.94778
0.947468
0.949853
1.20428
2.18099
2.56757
2.64459
2.61179
2.59328
2.60084
2.60923
2.6009
2.58568
2.57721
2.57301
2.56906
2.56658
2.56649
2.56717
2.56768
2.56964
2.57357
2.57817
2.58007
2.57831
2.57267
2.5649
2.55695
2.55047
2.54464
2.53945
2.53469
2.53069
2.5275
2.5254
2.5245
2.52524
2.52876
2.5345
2.54342
2.55367
2.56634
2.58084
2.59762
2.61601
2.63545
2.65589
2.67733
2.70006
2.72436
2.75014
2.77697
2.80429
2.83185
2.85985
2.88877
2.91902
2.95068
2.98337
3.0164
3.04918
3.08147
3.1135
3.14569
3.17838
3.21151
3.24449
0.90136
0.90482
0.907244
0.909831
0.913294
0.917427
0.921176
0.923741
0.925554
0.927571
0.930411
0.934019
0.937479
0.939593
0.940449
0.940902
0.942166
0.944541
0.947837
0.951044
0.953046
0.953731
0.954049
0.953892
0.970031
1.55291
2.41797
2.66075
2.61231
2.60493
2.62204
2.62686
2.61649
2.60711
2.60249
2.59546
2.58647
2.58343
2.58419
2.58442
2.58411
2.58473
2.58755
2.59225
2.59642
2.59814
2.59586
2.59041
2.58276
2.57547
2.56889
2.56332
2.55873
2.5554
2.55247
2.54984
2.54782
2.54699
2.54777
2.55057
2.5564
2.56372
2.57363
2.58522
2.5994
2.6156
2.63321
2.65162
2.67117
2.69221
2.71499
2.73939
2.7649
2.79097
2.81744
2.84459
2.8729
2.90272
2.93396
2.96609
2.99842
3.03044
3.06209
3.09375
3.12589
3.15876
3.19216
3.22534
0.903744
0.908249
0.91141
0.914014
0.917091
0.920926
0.924964
0.928153
0.930282
0.932063
0.934393
0.937599
0.941423
0.944652
0.946433
0.947002
0.947487
0.948946
0.951539
0.954802
0.957487
0.958943
0.959409
0.95991
0.961333
1.05924
1.95153
2.58895
2.6118
2.63509
2.64623
2.63491
2.62595
2.62661
2.62712
2.61706
2.60411
2.60053
2.60126
2.60122
2.60005
2.60041
2.60258
2.60584
2.60995
2.61405
2.61529
2.6129
2.60721
2.59984
2.59238
2.58603
2.58096
2.57794
2.57543
2.5729
2.57043
2.56883
2.56825
2.56896
2.5719
2.57651
2.5837
2.59254
2.60416
2.61762
2.63297
2.64945
2.66697
2.68616
2.7072
2.72994
2.75384
2.77842
2.8036
2.82975
2.85733
2.88655
2.91717
2.94855
2.98001
3.01121
3.04225
3.07359
3.10566
3.1386
3.17206
3.20523
0.905327
0.910458
0.914503
0.917489
0.920447
0.924041
0.928177
0.931988
0.93471
0.936552
0.938434
0.941066
0.944645
0.948591
0.951611
0.95311
0.953612
0.954426
0.956238
0.959055
0.961953
0.963919
0.964791
0.965232
0.965554
0.969103
1.28594
2.27722
2.59886
2.6799
2.66354
2.63481
2.63631
2.64747
2.64819
2.63525
2.62317
2.61954
2.61827
2.61657
2.61527
2.61622
2.61809
2.61973
2.62249
2.62724
2.63093
2.63153
2.6287
2.62297
2.61535
2.60823
2.60247
2.59888
2.59618
2.59372
2.59136
2.58966
2.58873
2.58849
2.5893
2.59154
2.59606
2.60235
2.61154
2.6224
2.63507
2.64925
2.66489
2.68206
2.7012
2.72202
2.74405
2.76691
2.79064
2.81564
2.84232
2.87073
2.90047
2.93085
2.9613
2.99165
3.02215
3.05324
3.08523
3.11807
3.1513
3.18415
0.906681
0.912024
0.916851
0.920387
0.923325
0.92664
0.930653
0.934927
0.938482
0.940845
0.942567
0.944613
0.94757
0.951461
0.955347
0.958035
0.959281
0.96012
0.961528
0.963898
0.966807
0.969157
0.970473
0.970839
0.971383
0.971696
0.992242
1.62811
2.46554
2.70219
2.65525
2.6381
2.65357
2.66813
2.66167
2.64975
2.64425
2.64125
2.6356
2.63069
2.63047
2.63233
2.63338
2.63363
2.63523
2.63921
2.64386
2.64661
2.64662
2.64358
2.63726
2.63019
2.62385
2.6191
2.6154
2.61252
2.61035
2.60911
2.60838
2.60787
2.6076
2.60804
2.61016
2.61416
2.62107
2.62954
2.63979
2.65133
2.66479
2.68007
2.69709
2.71581
2.73575
2.75669
2.77879
2.80246
2.828
2.85529
2.88381
2.91289
2.94214
2.97161
3.00161
3.03253
3.06442
3.09703
3.12979
3.16206
0.908253
0.913414
0.918782
0.923082
0.926185
0.929132
0.932718
0.936995
0.941279
0.94457
0.946683
0.948453
0.950747
0.954092
0.958052
0.961558
0.963689
0.964974
0.966415
0.968566
0.97148
0.974314
0.976222
0.97707
0.977188
0.977728
0.979282
1.08505
1.99857
2.63035
2.64029
2.6588
2.68249
2.67974
2.66612
2.66316
2.66636
2.66276
2.65129
2.6446
2.64555
2.64791
2.64782
2.64728
2.6484
2.65147
2.65524
2.65898
2.66126
2.66097
2.65718
2.65122
2.64477
2.63894
2.63368
2.62983
2.62763
2.62695
2.6267
2.62625
2.62546
2.62493
2.62543
2.62749
2.6323
2.63855
2.64653
2.65573
2.66677
2.67991
2.69491
2.71136
2.72909
2.74797
2.76829
2.79044
2.81458
2.84044
2.86742
2.89494
2.92283
2.95135
2.98087
3.01159
3.04331
3.07549
3.10753
3.139
0.910618
0.915163
0.920508
0.925631
0.929379
0.932184
0.935152
0.938919
0.943293
0.94744
0.950368
0.952409
0.954392
0.957177
0.960774
0.964444
0.967163
0.968885
0.970441
0.97252
0.975322
0.978593
0.981266
0.982919
0.983455
0.983733
0.984064
0.987539
1.30053
2.30087
2.61862
2.70337
2.70276
2.67641
2.67078
2.67987
2.68826
2.68019
2.66555
2.66019
2.66124
2.66218
2.661
2.66051
2.66181
2.66418
2.66631
2.66928
2.67319
2.67545
2.67411
2.67025
2.66463
2.65835
2.65191
2.64697
2.64433
2.64378
2.64371
2.64328
2.64222
2.64127
2.64101
2.64181
2.64483
2.6491
2.65491
2.66191
2.67085
2.68166
2.6945
2.7087
2.72413
2.74088
2.75929
2.77969
2.80213
2.82623
2.85135
2.87709
2.90348
2.93094
2.95985
2.99023
3.02155
3.05308
3.08418
3.11474
0.913898
0.917675
0.922358
0.927692
0.932412
0.935775
0.938465
0.941577
0.945462
0.94979
0.953449
0.956052
0.958198
0.960766
0.964062
0.967676
0.970599
0.972618
0.974077
0.976003
0.978495
0.981804
0.985132
0.98762
0.989046
0.989432
0.990269
0.990732
1.00655
1.60971
2.47105
2.72836
2.69097
2.66944
2.6825
2.70229
2.70296
2.69037
2.68055
2.67898
2.67813
2.67498
2.67294
2.67386
2.67566
2.67695
2.67718
2.67917
2.68336
2.6872
2.68808
2.68652
2.68264
2.67687
2.6701
2.66437
2.66085
2.65964
2.65911
2.65836
2.65726
2.65632
2.65597
2.6563
2.65802
2.66061
2.66443
2.66943
2.67641
2.68513
2.69571
2.70772
2.72087
2.73546
2.75183
2.77027
2.79072
2.81275
2.83582
2.85966
2.88448
2.9108
2.93893
2.96868
2.99929
3.02983
3.05976
3.08928
0.917258
0.920932
0.924822
0.929583
0.934689
0.939008
0.942194
0.945113
0.94852
0.952528
0.956356
0.959358
0.961724
0.964399
0.967567
0.971361
0.974507
0.976905
0.978259
0.97978
0.981849
0.984624
0.988231
0.991154
0.993527
0.994434
0.995277
0.996555
0.998037
1.07668
1.95317
2.64214
2.66701
2.68354
2.71218
2.71707
2.70512
2.69724
2.69825
2.69921
2.69323
2.6856
2.68455
2.68732
2.6895
2.68901
2.68796
2.68955
2.69327
2.6971
2.69926
2.70003
2.69832
2.69397
2.68766
2.68175
2.67721
2.67471
2.67313
2.6719
2.67089
2.67031
2.67027
2.67057
2.67144
2.67258
2.67468
2.67792
2.68317
2.68999
2.69845
2.70824
2.71927
2.73169
2.74594
2.76218
2.78033
2.8
2.82082
2.84268
2.86587
2.8909
2.91797
2.94673
2.97623
3.00548
3.03406
3.06246
0.918836
0.923844
0.927699
0.931804
0.936473
0.941194
0.945151
0.948556
0.952025
0.955968
0.95972
0.962856
0.965132
0.967813
0.970811
0.974738
0.978394
0.981385
0.983258
0.984334
0.986192
0.988074
0.991523
0.994381
0.997229
0.998812
0.999663
1.00117
1.0025
1.00611
1.24325
2.24612
2.63072
2.72745
2.73447
2.7122
2.70299
2.70914
2.71955
2.71655
2.70396
2.69592
2.69714
2.7007
2.70163
2.70002
2.69896
2.70063
2.70345
2.70596
2.70835
2.71109
2.71182
2.70923
2.70411
2.69868
2.6936
2.68957
2.68631
2.68426
2.68331
2.68315
2.68355
2.68393
2.68415
2.68419
2.68498
2.68684
2.69061
2.69576
2.7023
2.70998
2.71901
2.72942
2.74151
2.75539
2.77099
2.78809
2.80655
2.8264
2.84793
2.87155
2.89731
2.92473
2.95277
2.98045
3.00748
3.03461
0.918218
0.924894
0.930035
0.934293
0.938531
0.94295
0.947089
0.950948
0.954798
0.959154
0.963267
0.966746
0.968961
0.971284
0.973977
0.97749
0.981646
0.98505
0.988098
0.989167
0.991258
0.992637
0.995587
0.998391
1.00091
1.00319
1.00381
1.00549
1.00698
1.00866
1.01667
1.49225
2.42568
2.74579
2.71799
2.69974
2.71086
2.73116
2.73596
2.72526
2.71248
2.70965
2.71207
2.71312
2.71149
2.71014
2.71078
2.71246
2.71363
2.71422
2.7162
2.7207
2.72332
2.72226
2.71871
2.7144
2.70948
2.70422
2.69918
2.69617
2.69509
2.69523
2.69588
2.69613
2.69584
2.69529
2.69533
2.69618
2.69869
2.70228
2.707
2.71278
2.71992
2.72848
)
;

boundaryField
{
    inlet
    {
        type            calculated;
        value           nonuniform 0();
    }
    outlet
    {
        type            calculated;
        value           nonuniform 0();
    }
    bottom
    {
        type            symmetryPlane;
    }
    top
    {
        type            symmetryPlane;
    }
    obstacle
    {
        type            calculated;
        value           nonuniform 0();
    }
    front
    {
        type            empty;
    }
    back
    {
        type            empty;
    }
    procBoundary12to4
    {
        type            processor;
        value           nonuniform List<scalar> 
89
(
2.0715
2.09802
2.1238
2.14892
2.17347
2.19773
2.22187
2.24616
2.27067
2.2955
2.32063
2.34602
2.37169
2.3976
2.4237
2.44995
2.47635
2.50296
2.52984
2.55691
2.5841
2.61146
2.6389
2.66669
2.69467
2.72291
2.75128
2.77985
2.80865
2.83775
2.86715
2.89679
2.92659
2.95656
2.98679
3.01742
3.04855
3.08014
3.11205
3.14409
3.17618
3.20843
3.24105
3.27425
3.30799
3.34194
3.37566
3.40881
3.44126
3.47318
3.50519
0.789818
0.791918
0.793733
0.795037
0.795956
0.796847
0.797979
0.799335
0.800618
0.801458
0.801732
0.801577
0.801275
0.800911
0.806257
1.12583
1.97737
2.25572
2.25399
2.23645
2.21924
2.20356
2.18556
2.15703
2.10861
2.04361
1.9744
1.91857
1.88875
1.88319
1.8946
1.91414
1.93634
1.96067
1.98601
2.01176
2.03787
2.03787
)
;
    }
    procBoundary12to5
    {
        type            processor;
        value           nonuniform List<scalar> 
27
(
3.52586
3.51408
3.50209
3.4899
3.47744
3.46463
3.45138
3.4376
3.42325
3.40837
3.39302
3.37732
3.36136
3.3452
3.32879
3.31204
3.29473
3.27666
3.25755
3.23737
3.21602
3.19354
3.17
3.14526
3.11931
3.09199
3.06345
)
;
    }
    procBoundary12to11
    {
        type            processor;
        value           nonuniform List<scalar> 
26
(
0.796859
0.806219
0.81541
0.823716
0.831044
0.837974
0.845079
0.852496
0.859635
0.865482
0.869753
0.873253
0.87686
0.881045
0.88573
0.890237
0.893877
0.896523
0.898566
0.900249
0.901838
0.903848
0.906821
0.910193
0.912305
0.91196
)
;
    }
    procBoundary12to19
    {
        type            processor;
        value           uniform 0.911507;
    }
    procBoundary12to20
    {
        type            processor;
        value           nonuniform List<scalar> 
89
(
2.73848
2.74992
2.76279
2.77714
2.79309
2.8108
2.83051
2.85244
2.87649
2.90214
2.92836
2.95429
2.97972
3.0055
0.918184
0.924315
0.930592
0.936098
0.940827
0.945139
0.949006
0.952683
0.95655
0.961138
0.965951
0.970241
0.973139
0.975137
0.977604
0.980234
0.984445
0.987789
0.991776
0.993458
0.99573
0.997624
0.999959
1.00329
1.00519
1.00793
1.00849
1.00989
1.01139
1.01322
1.01531
1.05028
1.79843
2.60844
2.68902
2.71198
2.7409
2.74723
2.73818
2.72718
2.72503
2.72729
2.72666
2.72204
2.71933
2.72076
2.72346
2.72432
2.7233
2.72236
2.7244
2.72937
2.73263
2.73297
2.73127
2.72849
2.72429
2.71842
2.7121
2.70817
2.70675
2.70676
2.70707
2.70686
2.70612
2.70528
2.70505
2.70541
2.70687
2.70896
2.71195
2.71599
2.72149
2.73848
2.7284
)
;
    }
}


// ************************************************************************* //
