/*--------------------------------*- C++ -*----------------------------------*\
  =========                 |
  \\      /  F ield         | OpenFOAM: The Open Source CFD Toolbox
   \\    /   O peration     | Website:  https://openfoam.org
    \\  /    A nd           | Version:  7
     \\/     M anipulation  |
\*---------------------------------------------------------------------------*/
FoamFile
{
    version     2.0;
    format      ascii;
    class       volScalarField;
    location    "1.16";
    object      T;
}
// * * * * * * * * * * * * * * * * * * * * * * * * * * * * * * * * * * * * * //

dimensions      [0 2 -2 0 0 0 0];

internalField   nonuniform List<scalar> 
12359
(
2.38316e-74
1.7679e-61
1.79592e-199
-1.33719e-41
5.52621e-69
-4.1224e-27
2.68979e-22
-2.10355e-24
6.97457e-17
6.43382e-30
3.09103e-19
-9.87909e-13
0.262743
-3.18058e-37
-1.04468e-42
1.5408e-05
0.00268856
-1.17662e-109
2.21756e-112
3.20349e-51
-1.22274e-34
1.22956e-14
-3.31482e-56
7.42018e-48
1.8738e-58
-4.35284e-53
1.56694e-144
-5.61417e-147
-1.16926e-117
2.96623e-136
-2.54425e-131
-4.64835e-161
-1.78275e-177
-6.94482e-139
8.5062e-189
2.38233e-128
1.76221e-89
1.99892e-77
1.73932e-71
2.52344e-82
-1.33672e-63
-1.79577e-79
1.70286e-96
1.31286e-99
-3.37953e-124
2.40364e-120
-9.16162e-126
-3.54965e-134
6.6052e-116
4.85728e-142
7.86789e-150
-2.62591e-155
-2.943e-164
9.4718e-108
-5.60547e-169
-4.71478e-175
-1.06375e-101
5.92149e-180
-9.67777e-183
5.42922e-186
7.56534e-172
1.1247e-193
4.15078e-154
9.90033
1.74391e-104
5.17156e-33
5.88298e-92
6.41246e-158
-1.27181e-86
3.52654e-08
108.54
-2.2152e-66
9.99544e-202
2.72788e-84
5.21247e-46
-4.54418e-191
3.0323e-166
-2.07934e-196
-3.9471e-94
-1.36702e-10
-1.80459e-26
-2.72167e-111
-2.56988e-241
-6.05501e-72
0.00186166
1.33202e-65
-1.14988e-109
1.69355e-155
1.1842
0.000608637
5.75808e-213
3.14194
1.60155e-214
4.15602e-93
-2.34934e-75
2.02079e-43
3.45738e-98
1.85924e-93
5.32933e-47
1.68969e-59
4.68682e-22
-5.64198e-212
3.66524e-66
31.2202
-8.65114e-118
1.16815e-25
-2.94866e-206
0.00246072
6.35336e-74
1.16559e-26
3.65162e-102
-4.49874e-111
-2.1254e-30
1.99275e-25
-5.01348e-76
-5.68196e-139
1.54087e-24
-2.42413e-110
4.05459
-6.41235e-239
1.05429e-100
3.88288e-22
4.59904e-154
1.81155e-30
-1.81923e-109
-8.45612e-130
5.11952e-16
-2.99785e-71
1.15445e-197
-2.58863e-110
4.58661e-139
4.07087e-05
0.00108832
0.000795265
-6.38334e-207
3.36041e-31
-3.83385e-138
2.65466e-32
-4.24515e-208
7.45488e-17
-6.36723e-230
-2.02255e-71
1.48204e-33
4.84997e-206
5.72666e-17
5.57597e-27
6.43067e-241
0.000799373
-3.58614e-117
5.43295e-26
1.20294e-40
-3.12193e-209
5.36507e-33
1.72373e-152
6.67559e-220
117.851
9.33508e-23
4.11163e-05
2.08196e-98
-1.12501e-159
3.9992e-32
-1.7201e-158
4.64944e-30
2.05389e-32
9.95873e-228
-3.75286e-131
8.76175e-33
6.904e-23
4.0946e-34
1.05431
-1.44509e-194
-1.56851e-192
8.18806e-35
-1.33955e-58
-3.07049e-119
3.0365e-17
-4.75e-119
-1.56313e-120
-3.4782e-30
3.87838e-18
-1.11403e-36
2.47246e-217
8.94605e-197
-1.58886e-110
3.46341e-48
1.75131e-15
-4.6243e-93
-8.89664e-79
4.03407e-40
-7.26992e-93
-1.82522e-77
1.26391e-44
1.88638e-46
2.55254e-151
5.30808e-26
44.3347
8.19797e-56
-1.01343e-92
4.1711e-33
-1.91305e-109
8.23711e-26
1.8591e-40
-8.67492e-60
1.04988e-26
9.17688e-20
7.1784e-217
8.27343e-19
1.57177e-59
1.04162e-25
-6.37948e-100
5.66495e-224
4.13645e-12
6.24368e-12
157.294
4.9958e-15
-1.11062e-204
-7.73624e-93
-3.67606e-77
-2.41349e-92
-1.20224e-71
8.77596e-26
-2.99921e-101
3.04229e-31
3.10943
-2.43585e-110
1.76513e-223
-2.93121e-70
3.34732e-75
1.31298e-18
-1.05634e-90
-5.35839e-90
1.84602e-229
2.88096e-17
1.83361e-54
-5.23572e-79
1.29446e-55
-5.71804e-237
3.37877e-31
-8.81699e-78
0.000101003
-7.73765e-222
1.12822e-62
-8.13702e-86
6.29817e-10
2.02203e-30
0.00120592
-6.62688e-184
1.75591e-26
1.1643e-124
1.03655e-46
4.71813e-17
2.52961e-79
-1.62775e-123
-3.50861e-90
1.40195
129.391
-1.03862e-236
-1.51401e-104
1.48834
195.044
1.34265e-58
7.73165e-31
2.17365e-20
1.76444e-26
-3.94365e-60
61.5193
4.05099
4.03406e-29
-7.75046e-106
1.99068e-31
3.45749e-34
5.09378e-48
1.87895e-33
-1.52353e-91
-3.05928e-102
7.80426e-222
-1.32292e-103
9.30549
6.97304e-29
-2.11546e-189
-9.90915e-210
3.53124e-26
-1.51025e-104
1.18525e-92
6.43131e-64
7.5437e-233
1.50413e-20
-7.39865e-211
5.4943e-211
-1.55711e-162
7.98855e-31
-6.11437e-113
55.6065
1.49637e-208
9.03182e-205
2.60992e-65
-4.51241e-125
1.25284e-26
-4.46396e-80
-5.2248e-153
1.52252e-212
8.58048
1.41391e-19
1.20904e-213
-3.78629e-92
-2.5406e-81
-3.44799e-123
-2.43033e-137
3.37706e-141
-3.30416e-121
-2.60905e-111
-8.87862e-16
-1.34416e-123
1.3659e-131
1.96833e-79
1.1453e-31
1.95021
7.05311e-122
4.22685e-51
6.52695e-06
3.44925e-210
9.18174e-41
1.308e-189
4.70614e-55
1.81138e-204
3.24134e-120
1.09037e-15
8.89174e-38
4.10295e-16
1.00303e-93
-8.8832e-86
2.04014e-46
3.67852e-42
-1.05175e-84
1.13321e-46
7.43283e-47
-2.59356e-172
1.56286e-166
7.72497e-167
2.46502e-166
1.39325e-165
0.000402328
-2.79025e-232
1.08875e-24
3.07526e-31
2.41554e-50
1.23591e-31
3.0537e-37
9.55007e-66
5.0186e-57
2.98382e-37
8.94015e-58
1.10753e-50
3.32053e-29
1.52804e-28
9.12856e-30
-1.94568e-70
2.94376e-14
-8.53684e-73
-6.87865e-74
1.29715e-33
9.38696e-20
-2.45715e-114
7.74467e-168
2.15205e-55
1.90311e-169
-2.9345e-111
171.028
20.2887
-5.36385e-112
3.30527e-206
5.81533e-209
-5.79769e-218
8.8492e-38
1.54441e-218
2.64019e-218
1.45012
1.07719e-32
0.000460862
-2.56722e-114
8.60529e-28
-1.67954e-106
-9.2578e-85
1.12789e-25
4.43053e-56
-4.99766e-38
2.31947e-57
-6.47217e-115
-2.49503e-189
4.97781e-33
1.15215e-27
-1.1278e-112
2.37294e-11
6.87648e-26
3.20686e-43
3.77936e-40
5.17793e-34
1.18629e-204
10.1014
1.76016e-13
-4.19207e-113
2.07304e-10
-2.16393e-75
-3.16264e-228
6.32982e-229
-1.81632e-219
0.000860922
1.2852e-20
5.84652e-49
2.01182e-41
3.77711e-41
-5.11159e-74
-6.98902e-37
2.09975e-41
1.12475e-08
1.93112
7.30014e-11
6.93791e-50
9.96835e-31
1.53696e-72
8.75483e-27
5.32085e-61
4.22268e-54
4.10821e-140
2.40933e-62
2.02811e-35
7.64601e-218
185.26
-3.0078e-91
1.89568
2.12045e-28
1.68615e-100
1.08696e-28
1.08898
1.49123e-35
1.10902e-55
2.49031e-43
2.13152e-27
5.23913e-26
-4.03038e-107
-1.67487e-223
2.77915e-23
-1.90772e-203
1.70671e-05
8.81265e-138
-6.81327e-53
6.06916e-34
1.23122e-87
0.0104946
6.3991e-24
-9.00851e-62
-9.53555e-108
5.84403e-05
-1.17094e-177
-1.58521e-117
1.97723e-14
7.60634e-205
-1.31002e-107
-1.78242e-118
1.32195e-07
17.66
-3.14518e-73
6.39732e-160
-7.8635e-32
7.67949e-35
7.17352e-41
9.18581e-32
7.36399e-34
-2.48331e-171
-1.9398e-219
2.28745e-38
3.31346e-211
5.7464e-35
2.21856e-41
3.12742e-27
-4.31607e-122
2.53741e-24
5.63663e-13
-3.25997e-138
-1.5065e-74
-4.02953e-111
-1.9143e-28
3.64116e-14
-1.41285e-206
4.31224e-37
4.34952e-35
6.23717e-75
5.91444e-36
-2.12502e-136
8.10835e-21
3.1501e-57
7.79163e-30
1.511e-27
-9.57456e-170
-7.09845e-75
1.08102e-09
0.00356148
1.27953e-212
3.33964e-53
4.82323e-10
4.92004e-38
0.841952
-1.89786e-219
1.15397e-138
-6.34506e-176
9.80389e-32
2.10335e-58
3.07643e-69
-5.5645e-135
3.92574e-39
2.57984e-52
-2.4996e-58
8.21756e-96
0.000336924
-5.39747e-198
0.000761268
7.46244e-157
148.978
3.60998e-56
2.13276e-10
-6.76394e-183
-2.45555e-123
1.23177e-30
-4.51167e-112
-1.93099e-154
2.21362e-96
9.2822e-57
5.31499e-57
5.56053e-12
1.44151e-22
1.27337e-22
1.66919e-241
-7.37063e-112
1.47487e-39
0.00496176
3.62166e-241
3.13368e-194
1.8461e-34
-1.61384e-173
3.13764e-16
1.28382
109.605
9.32815e-240
-5.93254e-74
3.08349e-16
-1.36732e-66
-9.82439e-120
89.448
1.4052e-196
2.66878e-23
7.50105e-33
5.36218e-75
-4.05488e-122
-1.89822e-151
4.71298e-89
1.21687e-31
3.35533e-58
2.62084e-73
3.33004e-238
-2.06288e-197
5.55039e-61
-2.2798e-118
6.69223e-27
6.86175e-32
-3.00706e-161
-4.29692e-191
1.13829e-28
177.027
4.25691e-133
6.57617e-09
-3.54455e-210
3.27512e-72
2.0382e-23
1.44859e-37
1.01349e-17
9.39617e-28
1.06592e-57
2.3299e-28
-5.274e-225
8.74713e-189
9.5894e-41
1.72379e-65
7.31832e-59
5.52415e-67
-1.30647e-219
-3.98598e-190
-2.16916e-129
1.92732e-45
9.89398e-25
-2.31393e-32
-4.71186e-90
-9.7049e-31
6.58452e-34
2.05141e-54
-8.69508e-30
1.65533e-54
2.41065
2.83273e-32
4.05438e-52
5.21259e-28
-1.83334e-189
1.4764e-22
2.90295e-30
-3.78953e-242
7.12604e-206
-6.64616e-173
-3.09728e-180
6.37048e-07
6.24729e-54
5.89283e-81
-1.28311e-31
1.11378e-95
1.33529e-15
1.1282e-38
2.49069e-31
-1.84984e-128
1.67609e-10
-2.83229e-220
-8.76423e-46
-1.02221e-108
9.41659e-19
-3.88601e-29
1.27915e-62
1.38912e-53
8.80093
7.83299e-35
2.30547e-13
1.05288e-61
1.92177e-11
0.594737
-3.82864e-164
-3.29985e-114
4.9098e-221
2.96501e-08
-1.31906e-114
4.52395e-58
0.00859136
7.42391e-195
-3.04626e-58
8.34257e-31
1.46843e-58
7.84333e-131
1.08313e-63
-9.73618e-160
-3.35341e-63
7.43326e-163
-1.67787e-158
-9.17211e-68
1.33493e-30
1.49277e-33
2.89168e-57
2.87854e-08
2.48482e-38
16.3999
1.74311e-34
2.47871e-64
-2.1516e-65
4.38669e-36
3.9744e-49
1.03379e-44
0.597871
-1.89716e-34
1.87953e-51
3.94835e-49
-3.28821e-110
-1.56957e-119
4.13734e-29
-5.36219e-222
25.2999
-9.39666e-164
-1.56253e-33
9.88828e-22
4.72402e-07
3.89869e-18
1.61648e-27
6.35751e-32
1.63554e-62
2.29124e-18
1.74931e-40
2.99284e-13
1.16488e-48
3.33553e-13
8.43388e-50
1.10747e-233
3.81587e-50
176.695
4.86621e-13
-1.23673e-88
1.55505e-226
-8.359e-159
9.23496e-82
-1.02898e-52
3.27195e-34
5.03602e-53
-2.27876e-172
-5.75155e-87
1.20724e-48
-3.58869e-91
3.10978e-96
2.44418e-12
1.22999e-101
7.60773e-42
2.84187e-24
3.40277e-88
-5.57531e-80
2.13357e-27
4.21745e-243
-1.47836e-84
51.4854
-5.94354e-187
5.57866e-16
2.40824e-22
2.73706e-81
7.87215e-32
2.05143e-24
2.10197e-50
1.75083e-25
-5.08627e-116
-6.91091e-32
-7.80754e-120
5.53196e-48
1.70446e-26
-1.07385e-30
4.07784e-116
7.70222e-28
6.6877e-06
4.79563e-43
2.80318e-63
-5.74603e-108
5.29766e-22
7.70438e-07
-1.67258e-112
5.08792e-206
1.1188e-50
8.62148e-216
0.699718
3.2436e-49
3.79378e-12
2.46585e-61
3.25746e-54
14.6785
1.34944e-59
0.00171882
2.33863e-35
104.904
5.01573e-39
-5.16884e-72
6.56155e-61
3.0665e-76
0.00462384
0.000452374
8.08708e-161
3.01246e-158
-1.14949e-28
1.09327e-148
0.0037276
4.35295e-27
4.41789e-10
-5.98598e-108
127.672
0.0971882
1.38332e-48
3.6661e-233
-5.10726e-120
-1.41178e-36
3.10604e-80
-2.25115e-89
1.80924e-77
4.98907e-35
1.29269e-41
56.2574
2.6188e-07
-5.56451e-174
4.47002e-36
8.03262e-24
-1.50062e-27
7.93661e-67
2.55713e-22
5.33411e-29
-1.36372e-35
3.57485e-127
-3.18823e-231
6.53639e-20
5.50863e-17
8.00607e-55
-1.42413e-29
6.21739e-13
1.5175e-65
1.72994e-51
-1.31386e-107
4.97499e-72
1.44914e-14
2.15803e-70
3.13317e-24
3.12239e-38
2.14125e-44
1.10356e-87
6.93548e-73
2.5052e-06
3.36426e-63
6.28607e-67
58.1902
2.8788e-46
3.86422e-67
0.00993701
7.0638e-237
7.13934e-62
1.81337e-56
-1.15823e-80
-2.7271e-132
5.74742e-53
-3.21195e-244
1.57927e-09
-7.03285e-114
-4.89853e-57
1.28941e-20
1.08212e-31
1.63011e-57
4.93453e-60
6.6151e-21
93.5406
-4.9408e-188
2.92996e-99
4.58215e-66
0.008138
3.67519e-17
3.08564e-119
3.72323
9.92409e-231
-1.56129e-115
188.089
-1.0685e-88
-4.62969e-115
1.53214e-111
2.10149e-39
-9.23146e-39
-4.49365e-185
-2.06949e-82
2.32559e-24
1.0303e-56
9.90693e-61
3.93351e-78
-4.51366e-163
-1.06179e-37
2.88239e-06
-4.10944e-64
-1.22327e-30
5.16069e-36
5.14626e-46
2.39381e-10
1.30829e-24
6.17018e-77
-5.37091e-114
0.000541633
4.3385e-30
5.06754e-45
-3.08558e-106
-7.83051e-179
7.52559e-36
1.11915e-10
3.90664e-65
5.92689e-28
8.68623e-64
1.78447e-76
-1.80704e-95
2.17307e-38
149.458
19.115
3.65624e-37
-2.8225e-61
-1.79882e-97
2.32792e-39
0.0129769
-5.11476e-33
-7.99627e-119
3.79489e-11
9.47006e-08
9.86975
3.36383e-80
93.6606
2.76704e-184
3.95018e-75
4.11906e-181
8.26688e-11
6.75613e-44
85.4111
-3.92311e-120
0.0207445
1.31095e-147
-7.07186e-62
2.89926e-27
3.81235e-82
7.39363e-12
0.157905
-3.88995e-87
7.64066e-87
2.76665e-61
3.51974e-81
-1.72939e-88
1.26384e-13
3.34379e-46
1.69886e-59
2.51652e-15
-1.33104e-88
-5.63947e-174
-1.2254e-65
-2.12181e-157
2.18312e-26
7.31999e-61
4.88829e-09
8.12873e-11
-5.58324e-41
9.00176e-32
2.04417e-35
5.5915e-62
0.0149729
3.55118e-67
-1.4203e-92
2.76959e-219
5.49436e-11
-3.46924e-34
-2.18036e-121
2.2111e-25
-1.74529e-78
5.57868e-32
-2.03598e-36
-6.13926e-32
1.65658e-36
89.6952
5.08457e-35
-6.60077e-40
0.167685
6.24472e-82
2.57135e-07
3.89023e-23
1.28847e-151
8.28267e-66
1.23215e-94
1.75147e-65
-1.81694e-226
-1.50149e-109
3.39067e-07
4.71554e-11
-2.39155e-110
209.193
1.79477e-28
-1.4223e-158
9.92044e-12
3.72448e-12
-5.85627e-161
1.28795e-10
1.77106e-21
4.65181e-11
-2.87163e-158
-7.95525e-122
2.67239e-96
2.16102e-161
-1.0927e-35
30.9971
-3.68123e-123
7.43822e-12
2.85566e-239
2.71972
8.41847e-26
4.60386e-33
-7.69114e-198
-1.09796e-124
3.14921e-74
5.4709e-38
4.69481e-15
1.29818e-32
-2.0424e-89
9.78843e-86
-4.94706e-157
5.3287e-27
3.28602e-37
2.58632e-94
8.07268e-205
1.29287e-51
7.25332e-33
9.57958e-43
-9.55466e-129
9.36209e-07
6.06963e-28
5.06064e-148
8.10528e-43
3.87846e-85
2.7387e-68
196.998
-5.89776e-90
-3.43673e-157
6.79765e-35
-2.99326e-35
-3.01602e-43
2.90432
-2.77629e-59
2.36518e-69
1.58699e-31
-7.80391e-81
3.35731e-77
5.75203e-68
-1.81665e-80
-1.29628e-28
-2.0164e-71
16.6102
-3.96474e-42
6.86369e-10
2.29434e-75
0.0218145
1.31773e-30
9.21934e-09
1.78714e-13
4.98275e-30
1.40937e-67
1.55436e-73
3.89709e-54
-1.98896e-239
6.29047e-71
5.77515e-35
1.18025e-11
-3.93369e-81
3.26068e-149
7.08332e-32
4.89031e-33
4.70163e-16
2.91819e-38
2.72116e-11
6.68203e-16
-5.06237e-105
1.47098e-48
0.93317
4.19665e-36
-7.50783e-230
3.44106e-81
1.31882e-85
-7.33172e-233
1.00376e-49
1.16566e-185
1.52873e-69
1.43012e-14
8.96511e-33
3.73656e-06
3.55311e-182
-1.2006e-124
2.99611e-214
-3.31717e-82
-5.5751e-98
8.49486e-09
-8.13785e-98
-8.7829e-125
6.4566e-07
6.33283e-34
7.77475e-42
5.93338e-51
5.03589e-17
-2.08113e-88
5.46105e-12
3.0279e-74
-2.47568e-175
0.00243845
7.67482e-38
4.59153e-20
1.10935e-93
55.3583
-1.12351e-38
1.39331e-42
7.22305e-30
5.1943e-29
54.0292
1.07144e-71
1.30135e-11
-3.61696e-47
6.07792e-44
-1.35056e-136
6.85738e-60
1.79177e-07
2.68607e-74
8.49016e-09
-2.13341e-87
-2.92988e-91
1.19515e-12
3.57701e-140
-2.80556e-117
2.64314e-70
1.40442e-36
5.09533e-11
-1.56154e-88
1.92943e-83
4.71576e-214
4.66962e-46
0.00285183
1.5853e-39
-2.76787e-83
2.53862e-59
6.80623e-90
-2.38284e-121
14.1032
-1.54462e-45
-1.05191e-207
2.30394e-47
-3.90996e-91
-1.67792e-37
-2.73351e-27
1.31107e-38
4.28275e-82
3.02486e-14
6.04633e-11
1.14578e-202
1.26863e-56
2.4892e-11
-1.21758e-121
-2.71195e-183
-2.99694e-61
4.09072e-47
5.2671e-76
-8.96569e-182
4.21327e-48
2.91196e-12
-2.79128e-160
1.9246e-22
-8.73447e-187
1.10405e-93
2.01748e-53
5.30117e-05
-4.0947e-219
2.17142
-2.08039e-44
6.99821e-21
43.8861
-5.73955e-41
2.41134e-53
0.0390493
-5.45968e-82
1.75783e-05
1.92905e-18
1.06621e-61
3.68307e-72
1.46674e-73
-2.45337e-92
-1.14016e-96
5.26202e-20
0.0305997
199.476
2.61351e-23
-3.55359e-28
0.0537271
1.66069e-25
16.0797
-2.8768e-136
-6.31057e-91
2.00854e-18
2.94563e-40
6.34038e-112
3.72858e-23
4.2214e-74
50.209
1.65004e-228
4.75433e-126
-4.58071e-130
209.138
-2.11923e-35
4.03667e-43
-2.65889e-73
9.02792e-19
3.37799e-76
-1.84258e-126
4.41131e-07
1.08482e-72
4.10428e-07
3.83662e-20
3.69434e-62
6.6644e-14
5.70817e-39
-6.84624e-91
-6.43726e-122
-5.18288e-120
0.23599
3.50043e-13
6.58217e-98
1.60945e-17
6.99555e-42
7.86487e-24
-8.26062e-219
3.37504e-43
2.68706e-07
1.0279e-08
-8.64249e-40
-3.63757e-64
-3.66587e-123
5.1764e-15
-5.70949e-79
-3.00513e-126
5.96324e-10
3.09092e-16
-7.14427e-102
3.00504e-29
1.94934e-36
-1.65287e-215
4.63601e-113
-7.26399e-181
-7.28747e-39
91.4894
2.84151e-11
9.5449e-19
-4.16447e-106
8.15661e-78
3.58367e-37
4.91214e-211
3.93983e-09
1.32147e-39
101.066
-6.10548e-27
1.82732e-66
-2.30328e-103
-6.78468e-135
2.68596e-72
-8.30877e-80
-6.57544e-110
14.2282
1.16334e-14
2.3581e-34
1.23162e-16
-3.60508e-41
-1.44242e-120
1.52038e-238
6.04234e-110
2.12965e-25
1.02079
-1.64619e-21
3.19283e-42
-1.05043e-46
-2.44279e-73
3.87073e-15
0.0393416
0.0274716
2.57941e-80
-4.74858e-66
4.12784e-27
-1.2783e-90
-1.07402e-174
-1.7514e-110
1.76854e-13
-3.5518e-99
3.45423e-55
-3.54319e-87
1.73744e-39
4.70638e-08
-6.84569e-92
-2.86435e-110
3.99701e-10
6.3178e-14
1.82834e-91
-2.41814e-135
-7.25583e-48
0.00276253
8.25948e-25
1.07945e-21
-3.15677e-50
2.33919e-52
0.080699
2.30046e-76
-1.3768e-21
-1.90432e-120
2.09022e-12
1.97309e-11
-3.34144e-160
-7.17122e-132
90.8988
-2.84437e-112
4.05728e-70
1.67529e-26
-1.61518e-102
-1.78207e-100
-2.59617e-88
-1.12292e-113
-1.12556e-214
2.93947e-15
2.05979e-05
-7.68879e-133
0.0189515
1.35031e-76
-1.70975e-114
1.94212e-12
5.14701e-09
6.70913e-26
-1.59727e-80
-1.48403e-109
-2.70727e-43
151.634
-6.15881e-99
-1.39978e-133
-5.91586e-140
3.42811e-99
4.313e-57
4.18337e-27
-1.01678e-101
-7.23597e-77
-1.37078e-120
7.37965
1.09934e-08
5.32282e-36
-1.10326e-37
3.54839e-75
-1.66152e-114
7.01665e-15
1.41267
2.32396e-71
-2.24185e-139
-5.9264e-116
2.03058e-13
-6.04723e-102
-2.29658e-121
8.04839e-08
2.01671e-80
-3.01342e-109
115.804
2.97089e-05
16.87
1.90372e-14
-1.93058e-101
3.62098e-11
2.48584e-10
0.179252
1.44914e-90
4.19907e-26
-2.38377e-214
0.121932
4.35259e-233
2.15497e-92
3.4889e-75
-2.01949e-138
2.19601e-38
9.49499e-92
-5.46718e-100
9.86777e-92
8.13948
5.55833e-14
9.73338e-34
-3.76343e-109
5.32118e-28
22.1437
1.2759e-08
8.11385e-42
-4.67259e-49
1.90575e-92
1.37562e-80
-7.08328e-134
3.84408e-103
-2.56235e-131
-1.19162e-111
-4.25988e-42
1.10708e-14
6.51468e-16
0.332595
0.000124167
1.85762e-08
2.24761e-23
0.125067
-7.75844e-123
4.90017e-05
-2.98704e-116
0.00186697
6.61795e-09
2.21319e-33
6.5479e-101
5.09481e-33
1.62214e-21
2.29636e-59
103.255
2.30429e-12
0.388706
-4.40325e-113
1.5342e-09
3.74772e-07
1.10859e-09
1.84179e-07
1.35008e-10
-1.84483e-109
-9.55292e-93
6.71257e-36
-8.69068e-105
1.68022e-27
5.51886e-95
2.83607e-36
2.96089e-162
-7.0728e-86
4.34609e-19
1.29004e-26
-1.42399e-127
-1.17726e-45
1.04855
84.8497
-3.44912e-139
2.18566e-48
9.97029e-69
1.45871e-10
3.14643e-28
5.14555
5.00285e-05
1.29421e-92
7.21553e-37
2.89326e-07
-1.12342e-23
6.82099e-06
3.82468e-52
1.15588e-11
-1.57455e-128
0.208365
3.20207e-08
-1.09698e-134
1.61814e-07
0.205559
3.33198e-44
4.7054
4.14789e-79
9.44527e-09
1.37402e-74
-1.39273e-143
2.11592e-70
8.0354e-75
0.0916353
0.0015686
0.0452509
-4.24393e-128
8.10479
4.09713e-34
1.47729e-12
-8.49829e-31
1.56345e-38
1.77098e-46
0.0228527
1.15537e-77
7.55251e-87
5.31699e-18
4.83983e-09
5.61435e-27
2.16053e-17
-4.55031e-55
0.0526158
1.03006e-28
1.29029e-27
2.76284e-09
1.68904e-166
9.9056e-08
2.01952e-09
5.64012e-08
2.91384e-72
0.00117403
-9.95211e-135
4.09654e-28
4.33373e-37
7.3774e-05
1.40239e-68
5.5785e-19
1.9165e-08
82.4887
1.05893e-102
3.52181e-31
-9.37239e-46
1.18916e-07
1.59185e-17
2.39277e-91
1.2324e-35
-2.08843e-136
12.0686
1.4377e-217
-3.09358e-136
-2.77348e-179
1.36177e-06
-5.84217e-108
1.62662e-35
9.92712
2.43837e-48
6.31869e-56
-3.98398e-103
1.01513e-170
1.29566e-09
-1.12257e-137
-5.54119e-40
6.53025e-12
-1.87694e-44
3.45458e-06
-1.67473e-85
1.74573e-34
1.88149e-07
9.91511e-18
2.0759e-64
93.5899
-1.11784e-220
3.14553e-166
-1.17375e-81
230.764
3.21495e-73
1.01528e-65
1.00085e-07
-1.00082e-100
-5.92601e-84
6.27573e-13
1.16316e-05
1.17489e-29
0.010859
-7.51234e-101
6.93698e-82
1.9106e-37
1.10987e-42
7.85708e-05
-1.06101e-117
1.05813e-61
-1.26639e-52
1.80754e-17
1.04905e-55
-5.05899e-129
1.74245e-37
-1.13279e-18
-3.05144e-195
-2.50889e-188
5.11701e-05
2.8739e-29
9.52949e-05
8.66372e-83
3.54302e-228
-1.66162e-17
1.74128e-06
-3.9687e-120
-1.51644e-97
-4.09351e-135
16.7793
1.14023e-195
1.03346e-30
9.43361e-05
2.60929e-185
2.97248e-169
7.03846e-18
-1.81723e-146
-5.97276e-189
5.62312e-36
4.98497e-13
-1.19696e-130
7.07473e-21
-2.87778e-140
1.3242e-07
4.0548e-230
1.52242e-07
6.96624e-13
5.0898e-19
-1.03708e-184
1.89176e-14
5.41922
-1.06535e-91
1.12889e-46
1.1492e-147
2.62051e-13
-1.28361e-140
1.13244e-06
4.61411e-09
-2.83331e-79
9.52707e-177
2.0059e-13
1.07396e-13
1.72274e-41
5.06257e-39
3.71313e-16
-6.02056e-145
6.36586e-15
2.81658e-178
1.9454e-05
1.62936e-08
2.65695e-08
1.71482e-18
-1.17105e-22
13.3002
1.41948e-18
1.06749e-37
2.56323e-14
-1.27723e-94
1.77548e-11
4.59474e-16
-2.89322e-42
1.61358e-71
0.106106
1.41358e-193
0.0522058
107.014
-2.34724e-104
4.09006e-08
101.608
1.56467e-33
2.73687e-35
1.05872e-15
-1.99702e-51
-8.71012e-135
9.1472e-08
0.0145944
0.833415
-6.64746e-94
1.31647e-13
0.000532921
4.74328e-14
-4.2889e-111
1.34714e-163
1.51793e-27
0.0257889
9.26873e-09
4.8086e-16
-7.52572e-221
-4.70242e-142
2.90164e-14
-2.8168e-100
1.12043e-39
-3.26357e-96
6.75733e-174
3.20615e-07
7.41613e-78
0.000234473
7.71722e-41
5.53112e-157
2.33006e-163
6.70621e-15
-3.55245e-95
9.0605e-33
8.79008e-16
0.946577
-4.72333e-48
-2.63283e-128
3.02713e-06
-3.96373e-93
-7.84499e-138
7.43075e-61
1.42351e-13
-1.3865e-90
1.00474e-13
1.9916e-41
222.55
1.9327e-14
-1.47464e-121
0.000116847
-4.14294e-178
7.36489e-09
1.57819e-34
8.49619e-06
0.00555513
-1.88025e-43
0.000188494
-1.55659e-155
1.51205e-08
-6.70619e-116
2.90244e-49
4.32479e-05
4.89119e-26
1.61719e-05
0.0185803
-1.72161e-19
1.72351e-07
2.80652e-06
-1.48204e-125
-1.39066e-139
-1.21579e-176
0.000240875
-4.4942e-24
-4.37456e-124
2.29255e-07
2.35053e-05
8.72624e-34
1.87189e-12
5.5344e-49
-4.58671e-33
0.00351885
4.34868e-68
1.16862e-26
2.758e-31
1.37108e-213
7.90991e-213
-2.3342e-126
-7.70096e-94
1.04761e-39
1.09567e-157
6.60898e-80
5.68784e-102
-5.51069e-60
2.8713e-15
7.94564e-113
1.73742e-06
1.18395e-231
3.07353e-11
4.51695e-06
-1.39947e-120
6.08493e-05
4.785e-12
8.10758e-06
5.80721e-55
2.10986e-16
-2.46736e-102
6.89555e-35
4.1221e-44
8.41253e-165
-4.66798e-117
2.1223e-86
-3.89425e-119
3.54065e-183
-1.01703e-52
1.03058e-184
-4.5873e-30
7.81772e-22
0.0690196
5.53999e-159
4.93516e-59
2.14763e-156
1.25218e-99
3.39694e-21
3.94224e-61
-3.05552e-122
122.186
3.2198e-14
1.67376e-29
3.91892e-57
7.92261e-15
3.78555e-23
2.32718e-57
3.02477e-17
2.8263e-13
9.9115e-102
8.31349e-180
-6.38615e-78
2.36037e-07
-7.14636e-139
-1.12114e-126
1.2591e-13
7.29615e-105
-1.66864e-100
1.65051e-67
-3.30094e-129
0.00135469
1.44353e-157
-3.75441e-128
8.19491e-19
1.44819e-17
7.00842
4.10141e-13
-2.93734e-55
-5.27582e-122
4.19658e-16
-1.82609e-123
1.7794e-25
1.20004e-41
-6.62904e-104
6.83436e-06
-1.74713e-191
5.54302e-21
1.9003e-52
1.23202e-14
-7.67468e-42
1.27764e-189
1.56795e-103
1.69324e-230
7.95234e-24
-1.0179e-140
1.41312e-18
7.01677e-40
-1.86205e-84
-7.58151e-54
5.29269e-36
2.04711e-181
1.4615e-20
1.09135e-20
-8.12346e-95
1.03064e-18
1.55091e-07
3.03571e-172
3.56082e-36
2.46666e-11
1.25693e-12
2.58918e-71
3.99573e-39
6.40492e-38
5.03166e-42
8.72833e-69
9.02655e-15
8.58582e-69
-8.22104e-121
-4.77716e-122
0.0762763
2.70432e-08
0.000102172
1.82198e-06
-3.68471e-34
5.07016e-20
4.15147e-40
3.12115e-18
-1.57321e-121
3.77591
-2.38567e-99
3.27232e-06
8.78594e-07
-6.71571e-125
-6.23143e-25
1.25614e-08
8.69317e-06
2.41445e-38
2.64285e-25
-5.24171e-123
3.92721e-201
9.61537e-15
7.21313e-180
7.75103e-161
5.31353e-17
1.02247e-100
-1.1753e-62
-7.72942e-127
2.87968e-80
1.06516e-14
11.4178
-3.0603e-94
-9.32464e-102
2.38332e-08
-7.027e-37
6.28736e-11
9.96834e-24
2.51154e-25
3.03746e-102
7.66175e-36
2.80807e-15
1.0804e-16
-1.50696e-29
-9.10297e-151
1.20491e-05
1.64233e-29
6.00297e-19
8.33399e-79
-1.87833e-126
2.31429e-16
-3.71215e-92
-1.75963e-174
5.72494e-22
2.23931e-08
-1.27457e-158
2.77348e-20
6.28219e-43
3.69315e-111
-3.79533e-71
-4.12966e-108
5.64846e-22
-4.09166e-121
-6.68682e-128
2.85428e-39
2.293e-22
-1.11239e-38
-2.15791e-29
10.2089
7.99954e-104
1.78293e-58
0.46049
3.24976e-31
-1.97265e-109
1.35528e-30
0.0140712
9.16319e-165
-2.9453e-103
3.04107e-175
7.6573e-25
2.10552e-14
1.57144e-42
2.71954e-186
-1.29115e-74
8.29754e-60
8.80281e-86
2.23566e-09
-3.09353e-96
-2.54054e-187
1.31279e-181
8.43846e-27
6.32102e-39
1.83379e-05
-1.16977e-77
-7.78611e-47
2.39124e-26
2.73728e-14
-3.87488e-138
1.49991e-23
1.0062e-167
1.62621e-160
-2.88623e-187
1.01496e-09
-5.90707e-104
2.5935e-23
1.76068e-20
2.79791e-25
2.12228e-15
2.51226e-26
2.29573e-13
2.59595e-25
-6.93764e-96
2.33568e-26
-3.10345e-46
8.38907e-33
5.33418e-21
-4.16081e-102
41.8785
9.29417e-17
7.28358e-19
-8.01165e-157
1.52135
6.57028e-15
1.37077e-16
-1.45741e-30
5.99824e-06
2.7386e-60
-4.25409e-102
9.97536e-82
5.95848e-84
5.22473e-79
1.02689e-17
2.25325e-21
-1.47654e-109
6.84714e-24
3.6018e-87
9.50423e-79
6.74667e-48
-1.48374e-44
1.53633e-64
-3.83829e-54
-2.83929e-43
5.43326e-22
2.62666e-25
1.04457e-44
-1.90093e-181
-2.78655e-88
8.1124e-97
8.8381e-11
-4.52034e-139
-9.54389e-107
2.36563e-24
1.88387
-2.95766e-120
2.86551e-05
-2.36741e-123
-1.00282e-92
1.82012e-36
7.79849e-28
2.74395e-32
-3.92569e-136
7.18049e-18
8.8806e-21
2.31127e-11
4.60432e-159
1.23256e-22
3.1594e-39
3.11863e-48
-9.25329e-186
-1.86981e-220
8.88075e-27
9.7493e-39
6.31491e-56
58.2062
1.97929e-22
4.6013e-31
-1.35498e-24
6.36767e-40
4.19732e-11
4.09095e-103
4.11519e-43
2.28385e-69
-3.25354e-83
0.0120283
4.52058e-21
4.78709e-21
6.80456e-34
-4.38538e-132
8.38315e-17
2.8113e-16
0.000494431
1.56225e-79
4.53894e-31
0.000260734
9.13116e-05
-7.89593e-125
0.000111069
7.03949e-47
25.1936
2.25954e-172
8.10709e-24
2.03054e-34
2.07089e-192
4.85608e-14
3.80632e-60
1.51015e-74
6.28721e-08
0.00169159
0.000124486
7.28248e-74
1.21674e-25
-7.62526e-172
-1.62853e-94
5.36158e-06
7.78263e-30
3.2316e-71
2.41218e-17
5.79761e-22
1.21661e-26
4.02242e-37
4.0629e-35
1.29364e-20
0.00380942
-1.35589e-130
8.74231e-37
9.63711e-43
2.98111e-27
2.46607e-07
2.41218e-22
4.04231e-31
5.64208e-60
2.30781e-175
6.73496e-26
9.1554e-30
5.08029e-20
-1.72031e-135
4.90441e-53
4.56903e-22
2.05318e-23
-8.7288e-24
2.19086e-19
1.20245e-66
2.55033e-28
-2.64346e-105
2.87272e-13
3.75158e-49
3.01324e-25
1.16905e-60
1.14055e-72
6.97962e-22
1.12341e-53
3.2381e-61
1.826e-74
-2.8002e-133
2.09811e-26
1.28406e-48
1.55215e-50
25.2538
0.0120508
-5.88261e-104
1.39693e-72
3.19714e-35
3.76655e-38
3.90725e-187
1.63065e-29
-2.86278e-35
1.39458e-29
-4.87121e-173
1.9173e-13
1.05806e-17
1.21097e-15
2.66241e-29
-8.4263e-158
-1.52048e-89
3.14498e-57
5.11994e-28
7.64848e-09
16.8465
-2.17114e-128
1.25869e-64
4.6244e-66
6.34256e-07
0.000610614
0.000275293
1.41935e-49
1.4782e-20
-1.90695e-171
2.6917e-36
-2.27648e-50
-6.03224e-127
8.57166e-22
4.64659e-37
4.01078e-33
2.37136e-19
-3.21605e-68
1.65201e-38
1.40959e-30
-1.0329e-159
9.49455e-241
7.84911e-41
-8.85941e-63
2.50082e-08
2.07371e-43
-7.02352e-23
2.53219e-13
-7.95189e-40
-1.80709e-128
-1.76291e-56
3.05652e-18
-5.20521e-132
0.337266
0.0768852
-1.64325e-107
9.81955e-168
1.13898e-96
-4.83426e-131
5.31111e-194
-1.73843e-58
3.90229e-61
-9.33583e-32
1.00803e-36
1.48562e-29
-7.00049e-47
4.04056e-05
4.25573e-18
2.51561e-31
1.31266e-36
2.9249e-47
5.64289e-34
-7.72223e-159
-1.04912e-70
3.51515e-62
-3.00857e-31
-1.06605e-25
1.90782e-09
1.7298e-196
-1.67654e-26
1.58569e-35
6.62521e-46
2.40459e-22
-4.00377e-40
3.0184e-24
0.00492664
1.20181e-35
4.57907e-18
4.98696e-46
3.77242e-81
1.5252e-38
6.87967e-34
-1.94836e-132
1.30001e-38
0.0338721
-4.53653e-74
0.000268779
-2.04107e-125
2.19423e-33
-1.44575e-85
7.90394e-68
1.11374e-29
-1.30725e-20
2.50837e-21
9.71042e-66
1.6516e-40
2.60333e-46
9.10621e-18
4.53723e-11
-1.97205e-44
3.3818e-08
5.50347e-193
2.34104e-37
7.56669
1.98919e-14
5.5887e-66
0.453979
6.85329e-19
1.53357e-62
-1.43007e-146
1.13406e-10
2.97331e-34
1.5837e-47
5.62944e-35
-1.83104e-148
1.87318e-19
8.68669e-74
1.00063e-13
1.81644e-35
1.27424e-30
-9.19049e-30
2.98301e-235
-5.83036e-97
6.67289e-42
1.10951e-79
2.79578e-82
1.25342e-54
2.43563e-72
2.58463e-58
-1.71277e-24
1.66669e-27
-2.17337e-182
3.44306e-15
-2.16475e-95
-1.88569e-158
-3.29032e-27
-6.311e-121
7.99844e-46
4.78417e-47
-6.16401e-134
-1.33743e-130
1.73273e-79
1.23986e-22
9.78343e-60
6.55985e-32
3.17981e-34
-3.12342e-26
8.64231e-25
3.92296e-48
6.17364e-41
1.30464e-37
-1.03033e-208
1.64593e-53
7.90274e-71
1.63764e-48
0.33608
5.8106e-25
-1.04872e-67
4.44101e-40
-5.86464e-61
5.15353e-62
2.00683e-67
6.92457e-61
4.28318e-62
-6.26165e-32
4.60726e-36
-5.40268e-160
8.79964e-24
-4.31196e-48
4.99285e-22
-1.55729e-148
-8.24112e-28
5.27326e-05
-4.79899e-92
-3.495e-39
3.33647e-17
-2.27598e-112
4.14034e-26
2.97358e-13
9.74698e-37
3.17279e-37
4.03602e-14
1.27182e-40
-2.89611e-49
8.63928e-40
6.06007e-24
-2.3001e-119
1.2764e-67
3.7438e-200
-1.65373e-97
-7.32908e-148
8.8489e-38
5.07641e-36
1.80921e-25
-4.12149e-41
16.2927
-2.27456e-20
36.0248
9.26905e-35
5.3713e-10
12.5719
5.25899e-16
24.9226
8.1892e-66
4.4235e-40
2.08726e-44
4.7596e-50
4.51995e-44
-1.69075e-95
1.33394e-44
-1.25043e-88
-4.61113e-150
-1.71281e-50
4.7609
1.264e-39
5.88894e-21
2.01536e-42
1.12908e-80
2.0166e-36
9.25404e-36
-9.08668e-107
1.22499e-41
3.67183e-76
3.30337e-24
-2.56059e-40
1.03653e-40
-1.71614e-41
0.696413
4.90368e-07
4.87627e-20
1.83949e-47
83.415
3.84613e-41
2.46336e-52
6.3428e-28
-5.62624e-29
-3.90557e-57
2.44964e-16
-2.18443e-130
-2.10511e-36
-2.99529e-27
5.10243e-42
-4.38772e-43
3.1232e-72
1.47982e-37
-1.73036e-33
4.96287e-64
3.91118e-27
1.0371e-45
7.67369e-58
-6.62279e-127
1.0654e-50
2.02086e-37
3.1289e-77
3.06995e-46
1.22387e-57
-1.00475e-96
-5.38271e-33
3.41776e-75
9.79314e-16
1.31724e-45
-2.20657e-62
-2.21064e-134
2.46714e-94
4.29226e-14
2.48348e-37
-1.41715e-196
2.78068e-44
9.03723
1.49007e-21
1.15723e-73
2.36611e-46
0.150793
0.888155
50.7776
7.24734e-81
1.8465e-82
-2.35018e-104
3.89591e-57
1.63724e-28
0.00810681
0.0690884
8.80159e-13
1.19981e-17
5.31146e-70
-8.64098e-144
-2.35076e-141
-4.02378e-27
-1.8827e-72
1.13377e-24
9.47022e-84
4.10047e-05
6.0747e-82
4.06861e-41
3.61867e-12
-5.76255e-41
2.05618e-20
-3.50117e-109
3.16357e-39
-2.41598e-156
1.42951e-17
5.59267e-18
6.69295e-63
-2.23144e-149
7.87456e-66
8.96911e-25
-1.09169e-97
-7.94469e-44
0.149859
5.47437e-168
5.76041e-62
-1.65856e-37
-4.50197e-38
1.3979e-46
-3.50868e-111
-2.27532e-98
-6.97072e-98
5.541e-191
-8.47694e-142
7.11115e-59
2.42236e-25
-2.50276e-157
4.09712e-71
-4.15491e-108
150.235
-5.69122e-28
-2.29442e-96
4.20889e-198
7.00669e-23
3.9241e-41
1.03618e-20
-3.27294e-45
3.08922e-41
-1.11768e-150
1.71476e-94
8.35559e-16
-1.11091e-212
1.65358e-41
4.11642e-28
-6.37267e-51
-1.76261e-137
2.77133e-36
-6.46394e-185
3.10749e-56
7.48401e-58
-3.52151e-96
8.87865e-08
1.41415e-52
2.35759e-61
3.78197e-59
6.47595e-39
-1.4072e-48
-2.08111e-161
1.42581e-195
1.06945e-74
9.70441e-28
4.46498e-38
2.66395e-61
2.06419e-58
2.17228e-16
-2.15396e-53
-6.89464e-173
3.90122e-81