/*--------------------------------*- C++ -*----------------------------------*\
  =========                 |
  \\      /  F ield         | OpenFOAM: The Open Source CFD Toolbox
   \\    /   O peration     | Website:  https://openfoam.org
    \\  /    A nd           | Version:  7
     \\/     M anipulation  |
\*---------------------------------------------------------------------------*/
FoamFile
{
    version     2.0;
    format      ascii;
    class       surfaceScalarField;
    location    "69";
    object      phi;
}
// * * * * * * * * * * * * * * * * * * * * * * * * * * * * * * * * * * * * * //

dimensions      [0 3 -1 0 0 0 0];

internalField   nonuniform List<scalar> 
53160
(
-0.000162849
0.000341865
-0.000179015
-0.000319983
0.000374631
-0.000217498
-0.000502246
0.000414091
-0.000231827
-0.000673473
0.0003514
-0.000180173
-0.000852277
0.000204994
-2.61901e-05
-0.00103022
-8.37085e-05
0.000261657
-0.00120771
-0.00047629
0.000653774
-0.00138141
-0.000898665
0.00107237
-0.0015476
-0.00121659
0.00138277
-0.00170395
-0.00127571
0.00143206
-0.00183366
-0.000960578
0.00109029
-0.00193845
-0.000218532
0.000323322
-0.0019889
0.00084572
-0.000795274
-0.00199413
0.0019829
-0.00197767
-0.00193213
0.00290352
-0.00296552
-0.00173935
0.00313057
-0.00332334
-0.00144104
0.0026274
-0.00292571
-0.00094448
0.00114647
-0.00164303
-0.000417273
-0.00077447
0.000247262
-0.00255396
0.0019571
0.000179583
-0.000161364
0.000503228
-0.000316082
0.000529349
-0.000495301
0.00059331
-0.000662867
0.000518965
-0.000837344
0.000379471
-0.00101008
8.90294e-05
-0.00118086
-0.000305507
-0.0013458
-0.000733726
-0.00150086
-0.00106153
-0.0016431
-0.00113347
-0.00175512
-0.00084855
-0.00183391
-0.000139745
-0.00184093
0.000852735
-0.00177186
0.00191383
-0.00158456
0.00271623
-0.00122504
0.00277105
-0.000668676
0.00207103
6.20531e-05
0.000415742
0.000852482
-0.0015649
-0.00335738
0.00165591
-0.00015913
0.000662358
-0.000309743
0.000679963
-0.000483209
0.000766776
-0.000642905
0.000678661
-0.0008068
0.000543366
-0.000965528
0.000247758
-0.00111757
-0.000153461
-0.00125774
-0.000593565
-0.00138074
-0.000938526
-0.00148166
-0.00103255
-0.00154153
-0.000788684
-0.00155123
-0.00013004
-0.00146356
0.000765061
-0.00126673
0.001717
-0.000889286
0.00233878
-0.000327497
0.00220926
0.000527125
0.00121641
0.00154537
-0.000602504
0.00259748
-0.00261701
-0.00443615
0.00367625
-0.000156174
0.000818532
-0.000301014
0.000824802
-0.000466024
0.000931787
-0.000613643
0.00082628
-0.000760698
0.000690421
-0.000896649
0.000383709
-0.00101811
-3.20044e-05
-0.00111804
-0.000493631
-0.00118943
-0.000867137
-0.00122436
-0.000997622
-0.00120202
-0.000811024
-0.00110663
-0.000225427
-0.000883728
0.00054216
-0.000524002
0.00135727
8.46127e-05
0.00173017
0.000886503
0.00140737
0.00200141
0.000101504
0.0032821
-0.0018832
0.00457458
-0.00390949
-0.00573456
0.00587299
-0.000152534
0.000971066
-0.000289969
0.000962237
-0.000443847
0.00108567
-0.000575211
0.000957645
-0.00069919
0.0008144
-0.00080365
0.000488168
-0.000882864
4.7209e-05
-0.000927732
-0.000448763
-0.000929544
-0.000865324
-0.000876911
-0.00105025
-0.000748161
-0.000939773
-0.000520287
-0.000453301
-0.000135034
0.000156908
0.000414251
0.000807986
0.00125769
0.000886734
0.002318
0.000347058
0.00365694
-0.00123743
0.00513793
-0.00336419
0.00661165
-0.00538321
-0.00713597
0.00801306
-0.00014826
0.00111933
-0.000276709
0.00109069
-0.000416818
0.00122577
-0.000527795
0.00106862
-0.000622492
0.000909097
-0.000686782
0.000552459
-0.000712239
7.26661e-05
-0.000687688
-0.000473314
-0.000603302
-0.000949711
-0.000444392
-0.00120916
-0.000190714
-0.00119345
0.000187953
-0.000831968
0.000752182
-0.000407321
0.00150961
5.05549e-05
0.00257035
-0.000174
0.00387446
-0.000957058
0.00540247
-0.00276545
0.00700048
-0.0049622
0.00856674
-0.00694946
-0.00852495
0.00995572
-0.000143413
0.00126274
-0.000261357
0.00120863
-0.000385107
0.00134952
-0.000471621
0.00115514
-0.000530852
0.000968328
-0.000546302
0.000567909
-0.000506527
3.28913e-05
-0.000398573
-0.000581268
-0.000212197
-0.00113609
7.00503e-05
-0.00149141
0.00046019
-0.00158359
0.000999596
-0.00137137
0.0017467
-0.00115443
0.00271332
-0.000916063
0.00396911
-0.00142979
0.00547337
-0.00246132
0.00713227
-0.00442434
0.00875624
-0.00658617
0.0103003
-0.00849349
-0.00980754
0.0115829
-0.000138063
0.0014008
-0.00024406
0.00131463
-0.000348911
0.00145437
-0.000406937
0.00121316
-0.000424519
0.00098591
-0.000382422
0.000525812
-0.00026601
-8.35204e-05
-6.07795e-05
-0.000786499
0.000240994
-0.00143786
0.000653952
-0.00190437
0.00119608
-0.00212572
0.00190139
-0.00207668
0.00282206
-0.00207509
0.00398197
-0.00207598
0.00540062
-0.00284845
0.00703187
-0.00409256
0.00872861
-0.00612108
0.0102846
-0.00814211
0.0116951
-0.00990404
-0.0109247
0.0128123
-0.00013229
0.00153309
-0.00022498
0.00140732
-0.000308435
0.00153783
-0.000333984
0.00123871
-0.000303702
0.000955628
-0.000195353
0.000417463
9.33029e-06
-0.000288204
0.000322713
-0.00109988
0.000752101
-0.00186725
0.00130681
-0.00245907
0.00200258
-0.0028215
0.00286912
-0.00294322
0.00394534
-0.00315132
0.00526142
-0.00339206
0.00678803
-0.00437506
0.00845258
-0.00575711
0.0100784
-0.00774694
0.011483
-0.00954665
0.0126899
-0.0111109
-0.0118659
0.013631
-0.00012618
0.00165927
-0.00020429
0.00148543
-0.00026388
0.00159742
-0.000252956
0.00122779
-0.000168505
0.000871177
1.41803e-05
0.000234778
0.000317408
-0.000591432
0.00075007
-0.00153254
0.00131444
-0.00243162
0.00201209
-0.00315673
0.0028544
-0.0036638
0.00386464
-0.00395345
0.00506451
-0.00435119
0.00647958
-0.00480713
0.00803569
-0.00593117
0.00963323
-0.00735465
0.0110976
-0.00921131
0.0123038
-0.0107529
0.0132994
-0.0121064
-0.0126633
0.0140968
-0.000119821
0.00177909
-0.00018217
0.00154777
-0.000215413
0.00163066
-0.000163964
0.00117634
-1.87903e-05
0.000726004
0.000248239
-3.22517e-05
0.000658049
-0.00100124
0.00121581
-0.0020903
0.0019149
-0.00313071
0.0027464
-0.00398823
0.00371426
-0.00463167
0.00483462
-0.00507381
0.00610943
-0.005626
0.00755076
-0.00624846
0.00905103
-0.00743143
0.010501
-0.00880461
0.0117611
-0.0104715
0.0127733
-0.011765
0.0136017
-0.0129349
-0.0133695
0.0143079
-0.000113305
0.0018924
-0.000158795
0.00159326
-0.00016314
0.00163501
-6.7047e-05
0.00108025
0.000145511
0.000513445
0.000504569
-0.00039131
0.00102818
-0.00152485
0.00171135
-0.00277348
0.00253495
-0.00395431
0.00347862
-0.0049319
0.0045369
-0.00568994
0.00571923
-0.00625614
0.007009
-0.00691578
0.00840233
-0.00764179
0.00977957
-0.00880867
0.0110458
-0.0100708
0.0121127
-0.0115384
0.0129741
-0.0126264
0.0136983
-0.0136591
-0.0140316
0.0143604
-0.000106721
0.00199912
-0.000134325
0.00162087
-0.000107055
0.00160774
3.82534e-05
0.000934937
0.000325153
0.000226546
0.000783408
-0.000849565
0.00142328
-0.00216472
0.00222425
-0.00357445
0.00315123
-0.00488128
0.00417359
-0.00595426
0.00527747
-0.00679382
0.00646734
-0.00744601
0.00771409
-0.00816253
0.00900373
-0.00893143
0.0102275
-0.0100324
0.0113201
-0.0111635
0.012238
-0.0124563
0.0130024
-0.0133907
0.0136746
-0.0143314
-0.0146805
0.0143235
-0.000100149
0.00209927
-0.000108885
0.0016296
-4.69307e-05
0.00154578
0.00015324
0.000734767
0.000520797
-0.000141011
0.00108351
-0.00141228
0.00183616
-0.00291737
0.00273804
-0.00447633
0.00373763
-0.00588088
0.00479795
-0.00701458
0.0059011
-0.00789696
0.00704997
-0.00859488
0.00821219
-0.00932476
0.00937366
-0.0100929
0.0104497
-0.0111084
0.0114055
-0.0121193
0.0122234
-0.0132742
0.0129334
-0.0141008
0.0135857
-0.0149836
-0.0153317
0.0142369
-9.36571e-05
0.00219293
-8.25557e-05
0.0016185
1.7587e-05
0.00144564
0.000277952
0.000474402
0.000733052
-0.000596111
0.00140197
-0.0020812
0.00225633
-0.00377173
0.00323327
-0.00545327
0.00426902
-0.00691662
0.00532651
-0.00807207
0.00639004
-0.00896049
0.00746518
-0.00967002
0.0085249
-0.0103845
0.00956195
-0.0111299
0.0105162
-0.0120627
0.0113751
-0.0129782
0.0121305
-0.0140296
0.0128128
-0.0147831
0.0134614
-0.0156321
-0.0159915
0.0141211
-8.72911e-05
0.00228022
-5.53491e-05
0.00158656
8.60305e-05
0.00130426
0.000413903
0.00014653
0.000961917
-0.00114413
0.00173331
-0.00285259
0.00267012
-0.00470855
0.00369012
-0.00647327
0.00472559
-0.00795209
0.00574654
-0.00909302
0.00674511
-0.00995906
0.00773268
-0.0106576
0.00869195
-0.0113438
0.00962363
-0.0120616
0.0104856
-0.0129246
0.0112791
-0.0137717
0.0119957
-0.0147462
0.012665
-0.0154525
0.0133166
-0.0162838
-0.016661
0.0139861
-8.10695e-05
0.00236129
-2.72268e-05
0.00153272
0.000160475
0.00111656
0.000562447
-0.000255443
0.001206
-0.00178768
0.00206909
-0.00371568
0.00306214
-0.0057016
0.00409172
-0.00750285
0.00509627
-0.00895664
0.00605848
-0.0100552
0.00698132
-0.0108819
0.00788253
-0.0115588
0.00875436
-0.0122156
0.00960299
-0.0129102
0.0103975
-0.0137191
0.0111467
-0.0145209
0.0118384
-0.0154379
0.0125024
-0.0161165
0.0131589
-0.0169402
-0.017339
0.0138369
-7.49695e-05
0.00243626
1.15239e-06
0.0014566
0.000241727
0.000875985
0.000724507
-0.000738222
0.00146174
-0.00252491
0.00239833
-0.00465227
0.00341773
-0.00672099
0.0044271
-0.00851223
0.00537956
-0.0099091
0.00627278
-0.0109484
0.00712044
-0.0117296
0.00794487
-0.0123832
0.00874539
-0.0130161
0.00953048
-0.0136953
0.0102758
-0.0144644
0.0109942
-0.0152393
0.0116688
-0.0161125
0.012331
-0.0167787
0.0129913
-0.0176006
-0.0180234
0.0136757
-6.8914e-05
0.00250517
3.4349e-05
0.00135333
0.000331091
0.000579243
0.000899966
-0.0013071
0.00172302
-0.00334796
0.00270896
-0.00563822
0.00372559
-0.00773761
0.0046924
-0.00947904
0.00558166
-0.0107984
0.00640508
-0.0117719
0.00718468
-0.0125092
0.00794474
-0.0131433
0.00868889
-0.0137602
0.00942557
-0.014432
0.0101345
-0.0151733
0.0108301
-0.0159349
0.0114918
-0.0167742
0.0121532
-0.01744
0.0128155
-0.0182629
-0.0187115
0.0135036
-6.27721e-05
0.00256794
6.91525e-05
0.00122141
0.00042986
0.000218536
0.00108707
-0.00196431
0.00198155
-0.00424244
0.00298997
-0.00664663
0.00397946
-0.0087271
0.00489001
-0.0103896
0.00571329
-0.0116216
0.00647192
-0.0125305
0.00719318
-0.0132304
0.00790092
-0.013851
0.00860097
-0.0144603
0.0093002
-0.0151313
0.0099813
-0.0158544
0.0106589
-0.0166125
0.0113098
-0.0174252
0.0119702
-0.0181004
0.0126319
-0.0189246
-0.0194011
0.0133215
-5.63277e-05
0.00262427
0.000107755
0.00105732
0.000539013
-0.000212722
0.00128209
-0.00270739
0.0022281
-0.00518845
0.00323325
-0.00765178
0.00417821
-0.00967206
0.00502661
-0.011238
0.00578666
-0.0123817
0.00648829
-0.0132321
0.00716104
-0.0139032
0.00782677
-0.0145168
0.0084921
-0.0151256
0.00916149
-0.0158007
0.00982043
-0.0165134
0.0104824
-0.0172745
0.0111235
-0.0180663
0.0117818
-0.0187588
0.0124405
-0.0195833
-0.0200903
0.0131298
-4.92667e-05
0.00267354
0.000151612
0.000856447
0.000658748
-0.000719858
0.00147946
-0.0035281
0.00245407
-0.00616306
0.00343455
-0.00863226
0.00432476
-0.0105623
0.00511085
-0.0120241
0.00581348
-0.0130843
0.00646653
-0.0138852
0.00709954
-0.0145362
0.00773146
-0.0151487
0.00836889
-0.015763
0.00901359
-0.0164454
0.00965404
-0.0171538
0.0103016
-0.0179221
0.0109333
-0.0186979
0.0115881
-0.0194136
0.0122416
-0.0202367
-0.0207778
0.012929
-4.11587e-05
0.0027147
0.000202192
0.000613096
0.000788097
-0.00130576
0.00167254
-0.00441255
0.0026529
-0.00714341
0.00359327
-0.00957263
0.00442452
-0.0113935
0.00515175
-0.0127513
0.00580392
-0.0137365
0.00641631
-0.0144976
0.0070168
-0.0151367
0.00762114
-0.015753
0.00823544
-0.0163773
0.00885889
-0.0170688
0.00948318
-0.0177781
0.0101168
-0.0185558
0.0107391
-0.0193201
0.0113888
-0.0200633
0.012035
-0.020883
-0.0214622
0.0127195
-3.14358e-05
0.00274613
0.000260741
0.000320919
0.000924767
-0.00196979
0.00185467
-0.00534246
0.0028208
-0.00810954
0.00371157
-0.0104634
0.00448392
-0.0121659
0.00515762
-0.013425
0.00576636
-0.0143452
0.00634492
-0.0150761
0.00691854
-0.0157103
0.00749987
-0.0163344
0.00809425
-0.0169717
0.00869874
-0.0176733
0.00930832
-0.0183877
0.009928
-0.0191755
0.0105407
-0.0199328
0.0111836
-0.0207062
0.011821
-0.0215204
-0.0221428
0.0125016
-1.9359e-05
0.00276549
0.000327959
-2.63986e-05
0.00106524
-0.00270707
0.00202019
-0.0062974
0.00295663
-0.00904597
0.00379326
-0.0113
0.00450948
-0.0128821
0.00513564
-0.0140512
0.00570737
-0.0149169
0.00625772
-0.0156265
0.00680872
-0.0162613
0.0073703
-0.016896
0.00794684
-0.0175483
0.00853395
-0.0182604
0.00912958
-0.0189833
0.009735
-0.0197809
0.0103381
-0.0205359
0.0109725
-0.0213406
0.0115995
-0.0221475
-0.0228188
0.0122755
-3.63921e-06
0.00276913
0.000403755
-0.000433793
0.00120515
-0.00350847
0.00216516
-0.00725742
0.00306132
-0.00994213
0.00384289
-0.0120816
0.00450721
-0.0135464
0.00509174
-0.0146357
0.00563202
-0.0154572
0.00615859
-0.0161531
0.00669005
-0.0167927
0.00723412
-0.01744
0.00779412
-0.0181083
0.00836494
-0.0188312
0.00894694
-0.0195653
0.00953774
-0.0203717
0.0101311
-0.0211292
0.0107552
-0.0219646
0.0113707
-0.022763
-0.0234896
0.0120415
1.43079e-05
0.00275482
0.000487203
-0.000906687
0.00133981
-0.00436108
0.00228754
-0.00820515
0.00313713
-0.0107917
0.00386509
-0.0128096
0.00448233
-0.0141637
0.0050307
-0.0151841
0.00554413
-0.0159707
0.00605027
-0.0166592
0.00656439
-0.0173069
0.00709242
-0.017968
0.00763669
-0.0186525
0.00819199
-0.0193865
0.0087603
-0.0201336
0.00933627
-0.0209477
0.00991985
-0.0217128
0.0105314
-0.0225762
0.0111346
-0.0233661
-0.0241545
0.0117995
3.66971e-05
0.00271812
0.000576697
-0.00144669
0.00146488
-0.00524926
0.00238691
-0.00912717
0.00318697
-0.0115918
0.0038642
-0.0134868
0.00443926
-0.0147387
0.00495626
-0.0157011
0.00544655
-0.016461
0.00593472
-0.0171474
0.00643298
-0.0178051
0.00694591
-0.018481
0.0074749
-0.0191815
0.00801522
-0.0199269
0.00856958
-0.020688
0.00913078
-0.0215089
0.00970424
-0.0222863
0.0103008
-0.0231727
0.0108915
-0.0239568
-0.0248122
0.0115491
6.3632e-05
0.00265449
0.000670127
-0.00205318
0.00157699
-0.00615612
0.00246404
-0.0100142
0.00321399
-0.0123417
0.0038441
-0.0141169
0.00438162
-0.0152763
0.00487131
-0.0161907
0.00534134
-0.016931
0.0058133
-0.0176193
0.00629667
-0.0182885
0.00679505
-0.0189794
0.00730905
-0.0196955
0.00783469
-0.0204525
0.00837474
-0.021228
0.00892144
-0.0220556
0.00948423
-0.0228491
0.0100632
-0.0237517
0.0106411
-0.0245347
-0.0254609
0.0112898
9.45436e-05
0.00255995
0.000765015
-0.00272365
0.00167405
-0.00706516
0.00252043
-0.0108606
0.00322129
-0.0130426
0.00380813
-0.0147037
0.00431233
-0.0157805
0.00477807
-0.0166565
0.00523003
-0.0173829
0.00568697
-0.0180763
0.00615605
-0.0187576
0.00664017
-0.0194635
0.00713931
-0.0201947
0.00765042
-0.0209636
0.00817581
-0.0217534
0.00870834
-0.0225881
0.00925934
-0.0234001
0.0098192
-0.0243115
0.0103819
-0.0250974
-0.0261042
0.0110253
0.000128452
0.0024315
0.000858582
-0.00345378
0.00175519
-0.00796177
0.00255791
-0.0116633
0.00321164
-0.0136963
0.00375904
-0.0152512
0.00423362
-0.016255
0.00467812
-0.017101
0.00511359
-0.0178184
0.00555626
-0.0185189
0.00601136
-0.0192127
0.00648131
-0.0199334
0.00696564
-0.020679
0.00746219
-0.0214602
0.00797262
-0.0222638
0.00849116
-0.0231066
0.0090289
-0.0239378
0.00957176
-0.0248544
0.0101315
-0.0256571
-0.026696
0.0107233
0.000164109
0.00226739
0.000947955
-0.00423763
0.00182058
-0.00883439
0.00257855
-0.0124213
0.00318772
-0.0143055
0.00369934
-0.0157628
0.00414752
-0.0167032
0.00457293
-0.0175264
0.00499307
-0.0182386
0.00542196
-0.0189478
0.00586324
-0.0196539
0.00631904
-0.0203892
0.00678857
-0.0211485
0.00727047
-0.0219421
0.00776579
-0.0227592
0.0082703
-0.0236111
0.00879341
-0.0244609
0.00932078
-0.0253818
0.00987893
-0.0262153
-0.0272523
0.0104352
0.000200348
0.00206704
0.00103041
-0.00506769
0.00187089
-0.00967487
0.00258427
-0.0131347
0.00315171
-0.0148729
0.0036309
-0.0162419
0.00405538
-0.0171277
0.00446333
-0.0179343
0.00486892
-0.0186441
0.00528427
-0.0193632
0.00571175
-0.0200814
0.00615331
-0.0208308
0.006608
-0.0216032
0.00707509
-0.0224092
0.00755516
-0.0232392
0.00804532
-0.0241013
0.00855302
-0.0249686
0.00906821
-0.025897
0.00960979
-0.0267568
-0.0277929
0.0101504
0.000236435
0.0018306
0.00110379
-0.00593505
0.00190722
-0.0104783
0.00257691
-0.0138044
0.00310553
-0.0154016
0.00355529
-0.0166917
0.00395832
-0.0175307
0.00435004
-0.0183261
0.00474157
-0.0190357
0.00514346
-0.0197651
0.00555708
-0.0204951
0.00598428
-0.021258
0.00642403
-0.022043
0.00687613
-0.0228613
0.00734079
-0.0237039
0.00781621
-0.0245767
0.00830868
-0.0254611
0.00880879
-0.0263971
0.00933655
-0.0272846
-0.0283258
0.00986946
0.000272278
0.00155833
0.00116677
-0.00682955
0.00193077
-0.0112423
0.00255818
-0.0144318
0.00305082
-0.0158942
0.00347381
-0.0171147
0.00385719
-0.0179141
0.00423359
-0.0187025
0.00461134
-0.0194134
0.00499974
-0.0201535
0.00539937
-0.0208947
0.00581206
-0.0216707
0.00623675
-0.0224676
0.00667367
-0.0232982
0.00712273
-0.024153
0.00758316
-0.0250371
0.00805954
-0.0259375
0.00854588
-0.0268834
0.00905723
-0.027796
-0.0288425
0.00957397
0.000308406
0.00124992
0.00121889
-0.00774004
0.00194285
-0.0119663
0.0025296
-0.0150185
0.00298897
-0.0163536
0.0033875
-0.0175132
0.00375268
-0.0182793
0.00411437
-0.0190642
0.00447847
-0.0197775
0.00485328
-0.0205283
0.00523877
-0.0212802
0.00563677
-0.0220687
0.00604627
-0.0228771
0.00646778
-0.0237197
0.00690109
-0.0245863
0.00734605
-0.0254821
0.00780659
-0.026398
0.00827721
-0.027354
0.00877202
-0.0282908
-0.0293462
0.0092757
0.000345745
0.000904175
0.00126042
-0.00865471
0.00194473
-0.0126506
0.00249253
-0.0155663
0.00292114
-0.0167822
0.00329717
-0.0178893
0.0036453
-0.0186274
0.00399268
-0.0194115
0.00434316
-0.020128
0.00470423
-0.0208894
0.0050754
-0.0216513
0.00545854
-0.0224518
0.00585268
-0.0232713
0.00625858
-0.0241256
0.00667591
-0.0250036
0.00710518
-0.0259114
0.00754909
-0.0268419
0.00800426
-0.0278092
0.00848238
-0.0287689
-0.0298321
0.00896828
0.000385286
0.000518889
0.00129205
-0.00956148
0.00193757
-0.0132961
0.00244819
-0.0160769
0.0028483
-0.0171823
0.0032035
-0.0182445
0.00353544
-0.0189594
0.00386877
-0.0197449
0.00420556
-0.0204648
0.00455272
-0.0212365
0.00490937
-0.022008
0.00527748
-0.0228199
0.00565609
-0.0236499
0.00604615
-0.0245156
0.00644732
-0.0254048
0.00686044
-0.0263245
0.00728775
-0.0272692
0.00772651
-0.028248
0.00818675
-0.0292291
-0.0303018
0.00865642
0.000427717
9.11716e-05
0.00131471
-0.0104485
0.00192243
-0.0139038
0.0023976
-0.0165521
0.00277127
-0.0175559
0.00310701
-0.0185802
0.00342342
-0.0192758
0.00374282
-0.0200643
0.00406582
-0.0207878
0.00439887
-0.0215696
0.00474082
-0.0223499
0.00509369
-0.0231728
0.00545659
-0.0240128
0.00583061
-0.0248897
0.00621537
-0.0257895
0.00661211
-0.0267212
0.00702223
-0.0276794
0.00744431
-0.02867
0.00788685
-0.0296717
-0.0307529
0.00833803
0.000473125
-0.000381954
0.00132927
-0.0113046
0.00190022
-0.0144748
0.00234167
-0.0169936
0.00269073
-0.017905
0.00300813
-0.0188976
0.00330949
-0.0195771
0.00361498
-0.0203698
0.00392405
-0.0210968
0.0042428
-0.0218883
0.00456984
-0.022677
0.0049073
-0.0235103
0.00525431
-0.0243598
0.00561205
-0.0252474
0.00598021
-0.0261577
0.00636015
-0.0271012
0.00675295
-0.0280722
0.00715782
-0.0290749
0.00758155
-0.0300954
-0.0311862
0.00801476
0.000520791
-0.000902745
0.0013365
-0.0121203
0.00187171
-0.01501
0.00228115
-0.017403
0.00260723
-0.0182311
0.0029072
-0.0191976
0.00319384
-0.0198638
0.00348538
-0.0206613
0.00378037
-0.0213918
0.00408461
-0.0221926
0.00439656
-0.0229889
0.00471842
-0.0238321
0.00504934
-0.0246907
0.00539061
-0.0255887
0.00574191
-0.026509
0.0061048
-0.0274641
0.00647985
-0.0284472
0.00686705
-0.0294621
0.00727205
-0.0305004
-0.0316003
0.00768616
0.000569172
-0.00147192
0.00133702
-0.0128882
0.00183758
-0.0155105
0.00221671
-0.0177821
0.00252123
-0.0185356
0.00280449
-0.0194808
0.00307664
-0.0201359
0.00335415
-0.0209388
0.00363489
-0.0216726
0.00392442
-0.0224821
0.00422109
-0.0232856
0.00452716
-0.0241382
0.00484182
-0.0250054
0.00516639
-0.0259132
0.00550063
-0.0268432
0.0058461
-0.0278095
0.00620318
-0.0288043
0.00657234
-0.0298313
0.00695781
-0.0308859
-0.0319952
0.00735278
0.000616054
-0.00208797
0.00133131
-0.0136034
0.00179838
-0.0159776
0.00214889
-0.0181326
0.00243311
-0.0188198
0.00270023
-0.0197479
0.00295802
-0.0203937
0.00322138
-0.0212022
0.0034877
-0.0219389
0.00376233
-0.0227567
0.00404354
-0.0235668
0.00433364
-0.0244283
0.00463184
-0.0253036
0.00493952
-0.0262209
0.00525646
-0.0271601
0.00558426
-0.0281373
0.00592303
-0.0291431
0.00627368
-0.0301819
0.00663957
-0.0312517
-0.0323704
0.00701475
0.000658892
-0.00274686
0.00131975
-0.0142643
0.00175464
-0.0164125
0.00207817
-0.0184562
0.0023432
-0.0190849
0.00259459
-0.0199993
0.0028381
-0.0206372
0.00308718
-0.0214513
0.0033389
-0.0221906
0.00359845
-0.0230163
0.00386402
-0.0238324
0.00413798
-0.0247023
0.00441954
-0.0255851
0.00471013
-0.0265115
0.00500954
-0.0274596
0.00531936
-0.0284472
0.00563958
-0.0294633
0.00597142
-0.0305138
0.00631716
-0.0315975
-0.0327256
0.0066723
0.000695277
-0.00344214
0.00130272
-0.0148717
0.00170682
-0.0168166
0.00200497
-0.0187543
0.00225176
-0.0193316
0.00248773
-0.0202353
0.00271698
-0.0208665
0.00295163
-0.0216859
0.00318861
-0.0224276
0.00343288
-0.0232605
0.00368265
-0.0240822
0.0039403
-0.0249599
0.00420505
-0.0258499
0.00447834
-0.0267848
0.00476001
-0.0277412
0.0050516
-0.0287388
0.005353
-0.0297647
0.00566559
-0.0308264
0.00599104
-0.0319229
-0.0330602
0.00632572
0.000723403
-0.00416554
0.00128059
-0.0154289
0.00165539
-0.0171914
0.00192964
-0.0190286
0.00215901
-0.019561
0.00237978
-0.0204561
0.00259476
-0.0210814
0.00281483
-0.021906
0.0030369
-0.0226496
0.00326573
-0.0234894
0.00349955
-0.024316
0.00374072
-0.0252011
0.00398848
-0.0260977
0.0042443
-0.0270406
0.00450802
-0.028005
0.00478111
-0.0290118
0.00506343
-0.030047
0.0053565
-0.0311194
0.00566126
-0.0322277
-0.0333741
0.00597516
0.000742373
-0.00490792
0.0012538
-0.0159403
0.0016008
-0.0175384
0.00185248
-0.0192803
0.00206514
-0.0197737
0.00227086
-0.0206618
0.00247153
-0.0212821
0.00267688
-0.0221113
0.00288389
-0.0228567
0.00309712
-0.0237026
0.00331483
-0.0245337
0.00353937
-0.0254256
0.00376998
-0.0263283
0.00400813
-0.0272788
0.00425369
-0.0282505
0.00450806
-0.0292662
0.00477106
-0.03031
0.00504426
-0.0313926
0.00532814
-0.0325116
-0.0336669
0.00562095
0.00075225
-0.00566017
0.00122282
-0.0164109
0.00154346
-0.017859
0.00177379
-0.0195106
0.0019703
-0.0199702
0.00216107
-0.0208526
0.00234737
-0.0214684
0.00253785
-0.0223018
0.00272968
-0.0230485
0.00292715
-0.0239001
0.00312861
-0.0247351
0.00333636
-0.0256334
0.00354966
-0.0265416
0.00376998
-0.0274991
0.00399719
-0.0284777
0.0042326
-0.0295016
0.00447606
-0.0305534
0.00472912
-0.0316457
0.00499185
-0.0327743
-0.0339384
0.00526325
0.00075386
-0.00641402
0.00118815
-0.0168452
0.00148377
-0.0181547
0.00169378
-0.0197206
0.00187465
-0.0201511
0.0020505
-0.0210284
0.00222237
-0.0216403
0.00239784
-0.0224773
0.00257435
-0.023225
0.00275592
-0.0240816
0.00294101
-0.0249202
0.00313183
-0.0258242
0.00332768
-0.0267374
0.00353
-0.0277014
0.00373867
-0.0286864
0.00395493
-0.0297179
0.00417862
-0.0307771
0.00441125
-0.0318783
0.00465263
-0.0330157
-0.0341881
0.00490237
0.000748469
-0.00716249
0.00115029
-0.017247
0.00142207
-0.0184264
0.00161269
-0.0199112
0.00177829
-0.0203167
0.00193925
-0.0211894
0.00209661
-0.0217976
0.00225693
-0.0226376
0.00241802
-0.0233861
0.00258355
-0.0242472
0.00275214
-0.0250888
0.00292589
-0.0259979
0.00310415
-0.0269157
0.00328833
-0.0278856
0.00347829
-0.0288764
0.00367519
-0.0299148
0.00387892
-0.0309809
0.00409089
-0.0320903
0.00431068
-0.0332355
-0.0344159
0.00453849
0.000737456
-0.00789995
0.00110965
-0.0176192
0.00135871
-0.0186755
0.00153069
-0.0200832
0.00168133
-0.0204673
0.00182739
-0.0213354
0.00197017
-0.0219404
0.00211523
-0.0227827
0.00226078
-0.0235317
0.00241016
-0.0243965
0.00256212
-0.0252408
0.00271869
-0.0261545
0.00287923
-0.0270762
0.00304512
-0.0280515
0.0032162
-0.0290474
0.00339358
-0.0300922
0.00357716
-0.0311644
0.00376823
-0.0322814
0.00396628
-0.0334335
-0.0346215
0.00417192
0.000722068
-0.00862202
0.00106666
-0.0179638
0.00129394
-0.0189028
0.00144795
-0.0202372
0.00158389
-0.0206032
0.001715
-0.0214665
0.00184314
-0.0220686
0.00197281
-0.0229123
0.00210273
-0.0236616
0.00223584
-0.0245297
0.00237109
-0.025376
0.00251035
-0.0262938
0.00265306
-0.0272189
0.00280052
-0.0281989
0.00295258
-0.0291995
0.00311028
-0.0302499
0.00327352
-0.0313277
0.00344351
-0.0324513
0.00361964
-0.0336097
-0.0348048
0.00380288
0.000703313
-0.00932533
0.00102166
-0.0182821
0.00122804
-0.0191092
0.00136461
-0.0203738
0.00148603
-0.0207247
0.00160216
-0.0215827
0.00171559
-0.022182
0.00182977
-0.0230265
0.00194398
-0.0237758
0.00206071
-0.0246464
0.00217915
-0.0254945
0.00230101
-0.0264156
0.00242577
-0.0273437
0.00255468
-0.0283278
0.00268759
-0.0293324
0.00282546
-0.0303877
0.00296822
-0.0314704
0.00311693
-0.0326001
0.003271
-0.0337637
-0.0349654
0.00343163
0.000681953
-0.0100073
0.000974972
-0.0185751
0.00116122
-0.0192954
0.00128081
-0.0204934
0.00138785
-0.0208317
0.00148895
-0.0216838
0.00158761
-0.0222807
0.00168621
-0.0231251
0.00178462
-0.0238742
0.00188489
-0.0247467
0.00198644
-0.025596
0.00209079
-0.02652
0.00219751
-0.0274504
0.00230776
-0.0284381
0.0024214
-0.029446
0.00253931
-0.0305056
0.00266143
-0.0315926
0.00278873
-0.0327274
0.0029206
-0.0338956
-0.0351032
0.00305842
0.000658546
-0.0106658
0.000926889
-0.0188435
0.00109367
-0.0194622
0.00119667
-0.0205964
0.00128943
-0.0209245
0.00137544
-0.0217698
0.00145928
-0.0223645
0.0015422
-0.023208
0.00162476
-0.0239567
0.00170848
-0.0248304
0.00179307
-0.0256806
0.00187983
-0.0266067
0.00196843
-0.027539
0.00205993
-0.0285296
0.00215418
-0.0295403
0.00225202
-0.0306035
0.00235338
-0.0316939
0.00245913
-0.0328331
0.0025687
-0.0340052
-0.035218
0.00268351
0.000633503
-0.0112993
0.000877657
-0.0190876
0.00102557
-0.0196101
0.00111228
-0.0206831
0.00119084
-0.021003
0.0012617
-0.0218407
0.00133068
-0.0224335
0.00139785
-0.0232752
0.0014645
-0.0240234
0.0015316
-0.0248975
0.00159917
-0.0257482
0.00166828
-0.0266759
0.00173867
-0.0276094
0.00181133
-0.0286022
0.00188611
-0.0296151
0.00196376
-0.0306811
0.00204425
-0.0317744
0.00212834
-0.0329172
0.00221554
-0.0340924
-0.0353097
0.00230717
0.000607135
-0.0119065
0.0008275
-0.019308
0.000957073
-0.0197397
0.00102774
-0.0207537
0.00109215
-0.0210674
0.00114782
-0.0218963
0.00120189
-0.0224876
0.00125325
-0.0233266
0.00130394
-0.0240741
0.00135437
-0.0249479
0.00140486
-0.0257987
0.00145625
-0.0267272
0.00150839
-0.0276615
0.00156213
-0.028656
0.00161736
-0.0296703
0.00167474
-0.0307385
0.00173425
-0.0318339
0.00179658
-0.0329795
0.00186136
-0.0341571
-0.035378
0.00192969
0.000579686
-0.0124862
0.000776613
-0.0195049
0.000888314
-0.0198514
0.000943147
-0.0208086
0.000993433
-0.0211177
0.00103386
-0.0219367
0.001073
-0.0225267
0.00110849
-0.023362
0.00114319
-0.0241088
0.0011769
-0.0249816
0.00121027
-0.025832
0.00124389
-0.0267609
0.00127772
-0.0276954
0.00131249
-0.0286908
0.00134811
-0.0297059
0.00138515
-0.0307756
0.00142359
-0.0318723
0.00146405
-0.03302
0.00150631
-0.0341994
-0.0354229
0.00155117
0.000551359
-0.0130375
0.000725173
-0.0196788
0.000819414
-0.0199456
0.000858565
-0.0208477
0.000894764
-0.0211539
0.000919886
-0.0219619
0.000944084
-0.0225509
0.000963659
-0.0233816
0.000982349
-0.0241275
0.000999291
-0.0249986
0.00101553
-0.0258483
0.00103134
-0.0267767
0.00104683
-0.0277109
0.00106258
-0.0287065
0.00107853
-0.0297219
0.00109518
-0.0307922
0.0011125
-0.0318897
0.00113103
-0.0330385
0.00115053
-0.0342189
-0.0354443
0.00117194
0.000522324
-0.0135598
0.000673336
-0.0198298
0.000750484
-0.0200228
0.000774069
-0.0208713
0.000796209
-0.021176
0.000805975
-0.0219716
0.000815241
-0.0225602
0.000818835
-0.0233852
0.00082154
-0.0241302
0.000821659
-0.0249987
0.000820766
-0.0258474
0.000818724
-0.0267746
0.000815855
-0.027708
0.000812554
-0.0287032
0.000808811
-0.0297181
0.000805014
-0.0307884
0.000801206
-0.0318859
0.000797839
-0.0330352
0.000794245
-0.0342153
-0.0354422
0.000792131
0.000492706
-0.0140525
0.000621194
-0.0199583
0.000681559
-0.0200831
0.00068964
-0.0208794
0.000697736
-0.0211841
0.00069206
-0.021966
0.000686419
-0.0225545
0.000673936
-0.0233727
0.000660673
-0.0241169
0.000643909
-0.0249819
0.00062585
-0.0258293
0.00060594
-0.0267547
0.000584658
-0.0276867
0.000562277
-0.0286808
0.000538762
-0.0296946
0.000514492
-0.0307641
0.000489493
-0.0318609
0.000464252
-0.0330099
0.000437649
-0.0341887
-0.0354155
0.000411025
0.00046268
-0.0145152
0.00056896
-0.0200645
0.000612857
-0.020127
0.000605501
-0.020872
0.000599633
-0.0211783
0.000578442
-0.0219448
0.000558003
-0.0225341
0.000529392
-0.0233441
0.000500207
-0.0240877
0.000466606
-0.0249483
0.00043136
-0.0257941
0.000393657
-0.026717
0.000353954
-0.027647
0.000312537
-0.0286394
0.000269252
-0.0296513
0.000224564
-0.0307195
0.000178357
-0.0318147
0.000130953
-0.0329625
8.32576e-05
-0.034141
-0.0353602
2.79716e-05
0.000432339
-0.0149476
0.000516696
-0.0201489
0.000544399
-0.0201547
0.000521612
-0.0208492
0.000501878
-0.0211585
0.00046505
-0.0219079
0.000429924
-0.022499
0.000385144
-0.0232993
0.000340024
-0.0240426
0.000289639
-0.0248979
0.000237205
-0.0257417
0.000181686
-0.0266615
0.000123642
-0.027589
6.30346e-05
-0.0285788
4.41308e-07
-0.0295887
-6.49831e-05
-0.030654
-0.000132334
-0.0317473
-0.00020144
-0.0328934
-0.000273383
-0.0340691
-0.0352848
-0.000348845
0.000401785
-0.0153493
0.000464494
-0.0202116
0.000476267
-0.0201665
0.000438006
-0.020811
0.000404551
-0.0211251
0.000351947
-0.0218553
0.000302263
-0.0224493
0.000241224
-0.0232383
0.000180361
-0.0239817
0.000112842
-0.0248304
4.39216e-05
-0.0256727
-3.01362e-05
-0.0265874
-0.00010615
-0.0275129
-0.000185635
-0.0284993
-0.000268336
-0.029506
-0.000353843
-0.0305685
-0.000442241
-0.0316589
-0.000533298
-0.0328024
-0.000629078
-0.0339733
-0.0351875
-0.000726387
0.000371107
-0.0157205
0.000412433
-0.0202529
0.000408542
-0.0201626
0.000354709
-0.0207571
0.000307728
-0.0210781
0.000239149
-0.0217868
0.000175259
-0.0223854
9.72301e-05
-0.0231603
2.24161e-05
-0.0239069
-6.33088e-05
-0.0247447
-0.000149554
-0.0255865
-0.000240382
-0.0264966
-0.000335275
-0.027418
-0.000433686
-0.0284009
-0.000536044
-0.0294037
-0.00064194
-0.0304626
-0.00075141
-0.0315494
-0.000864708
-0.0326891
-0.000983136
-0.0338549