/*--------------------------------*- C++ -*----------------------------------*\
  =========                 |
  \\      /  F ield         | OpenFOAM: The Open Source CFD Toolbox
   \\    /   O peration     | Website:  https://openfoam.org
    \\  /    A nd           | Version:  7
     \\/     M anipulation  |
\*---------------------------------------------------------------------------*/
FoamFile
{
    version     2.0;
    format      ascii;
    class       volScalarField;
    location    "17.5";
    object      p;
}
// * * * * * * * * * * * * * * * * * * * * * * * * * * * * * * * * * * * * * //

dimensions      [1 -1 -2 0 0 0 0];

internalField   nonuniform List<scalar> 
2413
(
1.21896
1.21877
1.21927
1.21587
1.21141
1.20663
1.20225
1.19725
1.19375
1.1913
1.18884
1.18911
1.18726
1.18085
1.17157
1.15668
1.13664
1.11251
1.08949
1.07099
1.05649
1.04507
1.03452
1.02004
0.99886
0.958732
0.851059
0.668691
0.578561
0.551425
0.533515
0.520362
0.511609
0.505202
0.499291
0.493874
0.490391
0.489273
0.489952
0.492878
0.497182
0.503604
0.514582
0.533412
0.561948
0.601447
0.651562
0.708804
0.748557
0.763573
0.775753
0.797706
0.828613
0.863587
0.89676
0.924824
0.944944
0.955628
0.956742
0.951394
0.938387
0.919576
0.901501
0.888895
0.884025
0.890783
0.914168
0.946057
0.979628
1.01233
1.04397
1.0754
1.10306
1.1297
1.15692
1.18158
1.2018
1.21733
1.22855
1.23594
1.24007
1.24146
1.24098
1.23943
1.23781
1.23678
1.23688
1.23806
1.21836
1.21804
1.21848
1.21506
1.21076
1.206
1.2017
1.19663
1.19303
1.18954
1.1871
1.18655
1.18441
1.17788
1.16887
1.15475
1.13475
1.11102
1.08801
1.06977
1.05645
1.04658
1.03826
1.02779
1.01211
0.980613
0.884074
0.692904
0.582347
0.553797
0.536612
0.524275
0.51532
0.508454
0.502203
0.496738
0.493093
0.491866
0.4925
0.495451
0.50028
0.50752
0.519148
0.538007
0.565762
0.603385
0.6512
0.706508
0.743741
0.760163
0.772001
0.789018
0.813026
0.840904
0.867709
0.890959
0.909328
0.922328
0.929316
0.928953
0.923375
0.913743
0.902675
0.893807
0.890259
0.895552
0.918003
0.948952
0.982623
1.01512
1.04495
1.0717
1.093
1.11404
1.13519
1.15431
1.17044
1.18349
1.19376
1.20155
1.20717
1.21093
1.21316
1.21434
1.21502
1.21567
1.21684
1.21875
1.21762
1.21713
1.21765
1.21464
1.21069
1.20598
1.20175
1.19639
1.19261
1.18759
1.18527
1.18257
1.17983
1.17317
1.16357
1.15058
1.13072
1.10811
1.08488
1.06499
1.04994
1.03896
1.0302
1.02277
1.01366
0.996702
0.927434
0.74248
0.58962
0.552443
0.537423
0.527151
0.519126
0.512265
0.505773
0.500369
0.496617
0.495196
0.49605
0.498681
0.503953
0.51228
0.525159
0.544492
0.571647
0.606013
0.649361
0.697875
0.735248
0.757386
0.774653
0.792982
0.814136
0.836684
0.857873
0.87537
0.887349
0.894298
0.896907
0.896904
0.896455
0.896851
0.898164
0.897907
0.901031
0.911956
0.936972
0.967365
0.996167
1.02179
1.04484
1.06194
1.07468
1.08722
1.09998
1.11214
1.12318
1.13345
1.14332
1.15296
1.16219
1.17116
1.1795
1.18726
1.19445
1.20096
1.20676
1.21188
1.2157
1.21524
1.21499
1.21286
1.20934
1.20486
1.20089
1.19566
1.19118
1.18531
1.18191
1.17737
1.17449
1.16668
1.1567
1.14402
1.12538
1.10397
1.08148
1.06045
1.04374
1.03185
1.0235
1.01911
1.01698
1.00971
0.973956
0.836709
0.634526
0.55888
0.541499
0.532378
0.525127
0.518416
0.511694
0.506108
0.502014
0.499588
0.499993
0.502877
0.508539
0.517753
0.531692
0.551131
0.576736
0.607196
0.642573
0.68012
0.712946
0.737294
0.757486
0.777169
0.79676
0.816083
0.834137
0.848805
0.858743
0.863903
0.866081
0.867532
0.870151
0.875633
0.883684
0.891357
0.903918
0.926764
0.957441
0.985116
1.00595
1.02345
1.03727
1.04377
1.04827
1.05346
1.05943
1.06604
1.07335
1.08164
1.09086
1.1009
1.11159
1.12286
1.13441
1.14588
1.15694
1.16716
1.17633
1.18446
1.21351
1.21299
1.21178
1.211
1.20744
1.20352
1.1994
1.19476
1.18938
1.18366
1.17859
1.1725
1.16731
1.1599
1.14878
1.13554
1.1186
1.09814
1.07678
1.05547
1.03709
1.02319
1.01467
1.01099
1.01098
1.01014
0.993672
0.926683
0.744995
0.59607
0.554739
0.541554
0.533449
0.52677
0.520322
0.514807
0.5105
0.507631
0.507522
0.510487
0.516533
0.526247
0.54021
0.559216
0.583423
0.611847
0.642225
0.673034
0.700857
0.7241
0.743693
0.761261
0.777717
0.793277
0.80725
0.818871
0.827379
0.833397
0.837989
0.842642
0.848533
0.856981
0.868106
0.880243
0.904765
0.942301
0.980121
1.00349
1.01096
1.01613
1.01637
1.01538
1.01739
1.02086
1.02469
1.02882
1.03392
1.04054
1.04865
1.05802
1.06833
1.08002
1.09256
1.10543
1.11794
1.12986
1.14077
1.15061
1.21091
1.21002
1.20854
1.20754
1.20438
1.20117
1.19713
1.19328
1.18729
1.18184
1.17505
1.16794
1.15965
1.15195
1.14048
1.12727
1.11119
1.09224
1.07203
1.05129
1.03221
1.01735
1.00674
1.00097
1.00013
1.0014
0.997525
0.965508
0.865104
0.702921
0.601814
0.567075
0.551586
0.542088
0.534865
0.529306
0.52478
0.521926
0.521261
0.523386
0.528349
0.537143
0.550009
0.566889
0.587279
0.610522
0.63607
0.662583
0.687193
0.709058
0.728042
0.744706
0.759619
0.77276
0.784101
0.793563
0.801366
0.80788
0.813904
0.8202
0.827514
0.837279
0.851054
0.869633
0.90697
0.95486
0.993352
1.00923
1.0057
0.999561
0.987774
0.982144
0.983535
0.988749
0.995897
1.00372
1.01169
1.01987
1.02833
1.03721
1.04694
1.05784
1.06971
1.08195
1.09375
1.10459
1.11432
1.12309
1.20781
1.20691
1.20544
1.20315
1.20152
1.1983
1.19459
1.19026
1.18529
1.1796
1.17123
1.16375
1.15355
1.14385
1.1313
1.11847
1.10365
1.08592
1.06709
1.04843
1.02937
1.01335
1.00001
0.990835
0.98605
0.985662
0.984092
0.968575
0.921351
0.822234
0.708224
0.634485
0.597764
0.57754
0.56483
0.556218
0.549801
0.545565
0.543435
0.544542
0.548151
0.555246
0.565762
0.579735
0.596628
0.615452
0.637008
0.659748
0.680694
0.699026
0.714671
0.727956
0.739386
0.749224
0.757827
0.765751
0.773709
0.781967
0.790556
0.799458
0.80901
0.820355
0.83561
0.862613
0.911963
0.963898
0.99657
1.00435
0.996043
0.979558
0.95942
0.948336
0.947254
0.952815
0.963653
0.977379
0.991674
1.00506
1.0172
1.02844
1.0396
1.05096
1.06241
1.07346
1.08376
1.09293
1.10113
1.10833
1.20415
1.20338
1.20208
1.19969
1.19754
1.1947
1.19141
1.1868
1.18203
1.17568
1.16803
1.15906
1.14849
1.13668
1.12438
1.1101
1.09605
1.08013
1.06271
1.04572
1.02751
1.01074
0.995845
0.982545
0.97275
0.966908
0.96318
0.953527
0.925132
0.875421
0.801283
0.730098
0.677811
0.643523
0.62134
0.606783
0.596521
0.589446
0.584754
0.583068
0.583297
0.585913
0.591307
0.599536
0.610596
0.624302
0.640428
0.657629
0.674309
0.688608
0.701147
0.712104
0.721706
0.730195
0.738048
0.745908
0.7544
0.763756
0.773876
0.784308
0.795138
0.807673
0.825831
0.863395
0.919926
0.967868
0.993384
0.995878
0.985689
0.963709
0.938562
0.921984
0.916479
0.919692
0.930442
0.946225
0.9646
0.983209
1.00061
1.01647
1.03131
1.04502
1.05707
1.06773
1.07745
1.08626
1.09413
1.10077
1.20102
1.19976
1.19847
1.19651
1.19369
1.1912
1.18733
1.18297
1.17746
1.17148
1.16377
1.15446
1.14395
1.13123
1.11815
1.10425
1.08945
1.07515
1.05951
1.0435
1.02736
1.01029
0.993857
0.977983
0.9633
0.951092
0.941543
0.929957
0.910074
0.877641
0.835123
0.789573
0.746959
0.712733
0.687967
0.670483
0.657801
0.648624
0.642026
0.637959
0.635101
0.633844
0.634279
0.635989
0.640009
0.646676
0.655506
0.665681
0.676626
0.686633
0.694925
0.702215
0.708894
0.715373
0.72222
0.730054
0.739231
0.749751
0.761208
0.772915
0.785127
0.79985
0.82414
0.872084
0.929657
0.970053
0.989861
0.99101
0.979049
0.955598
0.928646
0.909143
0.899839
0.899298
0.906432
0.919758
0.937077
0.95657
0.976595
0.995731
1.01376
1.0297
1.0424
1.05349
1.0641
1.07397
1.08277
1.09028
1.19862
1.1972
1.1952
1.19332
1.19072
1.18727
1.18349
1.1785
1.1727
1.1658
1.15839
1.14936
1.13837
1.12669
1.1134
1.09986
1.0853
1.07033
1.05596
1.0413
1.02577
1.00937
0.99229
0.974615
0.956978
0.940133
0.924368
0.907916
0.888737
0.864308
0.836557
0.807894
0.779171
0.754455
0.73436
0.719266
0.708408
0.70078
0.695752
0.692632
0.690841
0.689656
0.689272
0.689095
0.689356
0.690457
0.691404
0.692234
0.693659
0.696123
0.69847
0.700332
0.702815
0.706695
0.712175
0.719794
0.729583
0.741216
0.753768
0.766522
0.78044
0.79833
0.830376
0.886088
0.940646
0.973624
0.99031
0.990261
0.977123
0.953576
0.926464
0.906274
0.895214
0.892508
0.896976
0.905964
0.917076
0.930123
0.945484
0.961888
0.978439
0.993899
1.00749
1.02017
1.03264
1.04449
1.05501
1.06367
1.19639
1.19518
1.19305
1.19032
1.18778
1.18403
1.17926
1.17396
1.16777
1.16023
1.15181
1.14307
1.13316
1.12151
1.10935
1.09606
1.08239
1.0675
1.05273
1.03761
1.02259
1.0067
0.989217
0.970895
0.951993
0.932768
0.912923
0.891954
0.870649
0.849292
0.827905
0.807772
0.788145
0.769886
0.754597
0.743084
0.735094
0.730373
0.728347
0.728103
0.729436
0.731271
0.733467
0.735581
0.737199
0.737877
0.736407
0.73228
0.726564
0.720273
0.714765
0.710503
0.708628
0.708651
0.711534
0.718134
0.727963
0.739839
0.752371
0.765169
0.780718
0.801821
0.84369
0.904547
0.95532
0.981262
0.995687
0.993352
0.978551
0.955459
0.927936
0.907879
0.896882
0.893844
0.897498
0.904713
0.91276
0.919805
0.926662
0.934824
0.944091
0.955049
0.967122
0.97897
0.990215
1.00025
1.00809
1.01276
1.19563
1.19374
1.19156
1.18824
1.18534
1.18116
1.176
1.16977
1.1628
1.15481
1.14566
1.13621
1.12675
1.11648
1.10454
1.09212
1.07943
1.06534
1.05062
1.03531
1.01919
1.00328
0.986552
0.968266
0.948603
0.927965
0.906116
0.882955
0.859659
0.838025
0.818963
0.80191
0.78615
0.772848
0.762479
0.754743
0.749734
0.747428
0.747187
0.748383
0.75096
0.754565
0.759003
0.763998
0.768786
0.772569
0.774487
0.772899
0.767332
0.758357
0.747097
0.735973
0.726647
0.720546
0.719621
0.724111
0.732434
0.742817
0.753979
0.766499
0.784071
0.809951
0.862341
0.924698
0.970039
0.990146
1.00045
0.995739
0.979522
0.958171
0.930878
0.90963
0.899143
0.897649
0.901713
0.907082
0.9112
0.914343
0.917793
0.919502
0.920342
0.924252
0.929239
0.933746
0.936775
0.937232
0.933463
0.923654
1.19521
1.19296
1.19076
1.18673
1.18278
1.17921
1.17277
1.16607
1.15838
1.14977
1.13999
1.13009
1.12028
1.11024
1.09962
1.08802
1.07576
1.06288
1.0486
1.03376
1.0177
1.00105
0.983646
0.965434
0.9461
0.925488
0.903454
0.880164
0.856755
0.834754
0.815174
0.798116
0.784381
0.773977
0.766041
0.760013
0.756543
0.755263
0.755686
0.757505
0.760764
0.765492
0.771385
0.778348
0.785752
0.792633
0.798221
0.801751
0.800192
0.794829
0.786094
0.774104
0.760288
0.748302
0.740909
0.739556
0.744537
0.7529
0.761712
0.773049
0.790966
0.824005
0.884192
0.944317
0.982314
0.999584
1.00504
0.997962
0.980721
0.960315
0.933189
0.911936
0.90051
0.899804
0.903513
0.907387
0.909617
0.911352
0.910451
0.908401
0.907566
0.904005
0.898152
0.889917
0.87781
0.860574
0.838646
0.813464
1.19634
1.19339
1.19017
1.18656
1.18084
1.17698
1.17126
1.1631
1.15463
1.146
1.13589
1.12504
1.11467
1.10463
1.09411
1.08317
1.07176
1.0596
1.0463
1.03186
1.01605
0.9996
0.982256
0.964104
0.944594
0.923781
0.901802
0.879033
0.856536
0.835345
0.816211
0.799585
0.786272
0.776085
0.768883
0.76445
0.762206
0.761493
0.762304
0.764506
0.767902
0.772714
0.778836
0.786239
0.79456
0.803014
0.810849
0.817536
0.821032
0.820868
0.817374
0.810258
0.800135
0.788205
0.776467
0.767356
0.763563
0.76611
0.770504
0.780655
0.798598
0.841246
0.906883
0.962289
0.992709
1.0087
1.00913
1.00002
0.983297
0.961452
0.93374
0.911813
0.900402
0.900697
0.904608
0.905297
0.90446
0.902071
0.898832
0.893744
0.884012
0.869053
0.849399
0.826898
0.802817
0.778807
0.758306
0.742245
1.19658
1.19388
1.19075
1.1866
1.18105
1.17475
1.16914
1.1614
1.15321
1.14288
1.13249
1.12218
1.11094
1.09988
1.08909
1.07819
1.06686
1.05529
1.04282
1.02929
1.01448
0.998683
0.981843
0.964143
0.945098
0.924673
0.903332
0.881089
0.859022
0.838066
0.819227
0.803204
0.79046
0.780743
0.773946
0.769819
0.767958
0.767643
0.768845
0.77128
0.774616
0.779156
0.785062
0.792426
0.801065
0.810176
0.819411
0.82789
0.834242
0.837317
0.83756
0.835218
0.83092
0.824938
0.817395
0.807693
0.795788
0.785576
0.781865
0.787505
0.807619
0.860622
0.927766
0.976769
1.00377
1.0171
1.01553
1.0032
0.987831
0.961621
0.931166
0.908448
0.899486
0.896637
0.895929
0.891373
0.885402
0.8803
0.869208
0.850979
0.827049
0.800868
0.774855
0.75278
0.737372
0.726729
0.71945
0.714421
1.19699
1.19366
1.19027
1.18602
1.18077
1.17421
1.16735
1.15957
1.15161
1.14188
1.13136
1.12022
1.10884
1.0978
1.08588
1.07384
1.06222
1.05084
1.03856
1.02554
1.01152
0.996679
0.980868
0.964382
0.946731
0.927763
0.907844
0.887319
0.866767
0.84683
0.828442
0.812401
0.7993
0.78934
0.782368
0.777945
0.775681
0.775405
0.776674
0.778999
0.782061
0.786288
0.791978
0.799296
0.80795
0.817236
0.827514
0.837012
0.844174
0.849153
0.851983
0.852808
0.852465
0.851799
0.850614
0.846134
0.834495
0.816567
0.801291
0.799211
0.820134
0.882374
0.947271
0.989176
1.01379
1.02391
1.02234
1.00826
0.989189
0.95856
0.923476
0.896585
0.884477
0.879056
0.870771
0.860877
0.84765
0.827512
0.80206
0.774071
0.747799
0.727823
0.715786
0.708921
0.705907
0.705815
0.706192
0.704426
1.19622
1.19297
1.189
1.18517
1.17997
1.1736
1.1665
1.15937
1.15052
1.14133
1.1316
1.12075
1.10921
1.09681
1.08434
1.07221
1.0594
1.04663
1.03399
1.02145
1.00821
0.99411
0.979504
0.964281
0.948382
0.931985
0.914801
0.896791
0.878325
0.860294
0.843519
0.828463
0.815399
0.804613
0.796337
0.790697
0.787564
0.78648
0.786866
0.788259
0.790472
0.794086
0.799586
0.806964
0.815582
0.825263
0.836104
0.845566
0.853647
0.859516
0.863443
0.865849
0.867895
0.870955
0.874754
0.875818
0.868629
0.851067
0.830851
0.822265
0.842597
0.908284
0.966255
1.00143
1.02525
1.03422
1.02798
1.01407
0.983663
0.937191
0.896569
0.871562
0.855374
0.840182
0.822659
0.800241
0.774663
0.748866
0.726306
0.709196
0.697797
0.691809
0.690929
0.692282
0.695027
0.697118
0.697166
0.695881
1.19404
1.19132
1.18719
1.18306
1.17857
1.17281
1.16635
1.15939
1.15153
1.14201
1.13319
1.12269
1.11075
1.09842
1.08628
1.07292
1.05894
1.0454
1.03195
1.01806
1.00459
0.991019
0.977495
0.963683
0.94961
0.934586
0.918341
0.902682
0.887734
0.873151
0.858899
0.845272
0.832813
0.822301
0.814231
0.808671
0.805363
0.80347
0.802656
0.80255
0.803085
0.805042
0.809514
0.816018
0.824101
0.833454
0.843408
0.852939
0.861331
0.867858
0.872779
0.876542
0.880572
0.886135
0.892771
0.897087
0.893995
0.880953
0.864079
0.857234
0.87936
0.940823
0.986801
1.0171
1.03715
1.04224
1.03082
1.0071
0.952927
0.893308
0.849302
0.821044
0.798317
0.773979
0.748967
0.726263
0.709431
0.697084
0.686596
0.679048
0.677006
0.678549
0.681013
0.684515
0.68778
0.689126
0.689083
0.688827
1.19173
1.18848
1.1847
1.18022
1.17616
1.17104
1.16545
1.15922
1.15223
1.14382
1.13539
1.12487
1.1144
1.10303
1.0895
1.07514
1.06192
1.04767
1.0327
1.01827
1.00418
0.989862
0.976133
0.962592
0.949756
0.936842
0.924017
0.911014
0.897204
0.883529
0.870929
0.859747
0.849682
0.840857
0.833481
0.827924
0.824239
0.821722
0.81979
0.818238
0.817096
0.817456
0.820785
0.826616
0.833896
0.842559
0.851441
0.860322
0.868324
0.874997
0.880369
0.885345
0.891549
0.899476
0.908136
0.913892
0.912711
0.903386
0.894074
0.898387
0.92997
0.980658
1.00934
1.03403
1.04326
1.03815
1.01612
0.96433
0.888237
0.820597
0.779102
0.75149
0.728427
0.709097
0.69603
0.686584
0.678127
0.671746
0.668267
0.667983
0.669473
0.671607
0.673952
0.676218
0.677739
0.67949
0.680049
0.677297
1.18913
1.18555
1.18167
1.17739
1.17311
1.16864
1.16355
1.15827
1.15224
1.14545
1.13796
1.1292
1.11912
1.10738
1.09497
1.08182
1.06706
1.05127
1.03674
1.02208
1.00711
0.992284
0.978345
0.965113
0.952341
0.939945
0.928677
0.917456
0.906977
0.897135
0.887615
0.877802
0.867945
0.85908
0.85219
0.847497
0.844519
0.842395
0.840265
0.83799
0.835777
0.834792
0.836235
0.840354
0.846295
0.853608
0.861434
0.869208
0.876246
0.882112
0.88734
0.893426
0.901593
0.911714
0.921926
0.927891
0.926294
0.919246
0.919834
0.940926
0.986228
1.02526
1.038
1.04236
1.03679
1.01009
0.960943
0.874243
0.788678
0.738736
0.713734
0.69852
0.687789
0.678857
0.671455
0.666867
0.664274
0.662526
0.661932
0.662461
0.663507
0.664284
0.665061
0.666352
0.668071
0.667442
0.666224
0.66488
1.18642
1.18295
1.17895
1.17467
1.17005
1.16586
1.16116
1.15635
1.15163
1.14603
1.13975
1.13235
1.12359
1.11357
1.10211
1.08874
1.07431
1.06009
1.04493
1.02826
1.01229
0.997779
0.983415
0.969789
0.956936
0.945042
0.934157
0.924408
0.915854
0.907932
0.900043
0.892025
0.884719
0.877924
0.872143
0.867683
0.864386
0.862034
0.859763
0.857181
0.854444
0.8526
0.852898
0.855735
0.860781
0.867154
0.873835
0.880028
0.885485
0.890299
0.895371
0.902104
0.911846
0.923767
0.935127
0.94093
0.938193
0.93379
0.943294
0.983312
1.04036
1.07172
1.06523
1.03781
1.00164
0.945823
0.854349
0.762155
0.712377
0.693414
0.684321
0.675929
0.668622
0.664354
0.662118
0.660601
0.659432
0.658282
0.657511
0.657288
0.655937
0.654715
0.654277
0.654689
0.652599
0.652607
0.654071
0.650419
1.18441
1.18033
1.17634
1.1722
1.16784
1.16338
1.15908
1.15454
1.15008
1.14549
1.14017
1.13395
1.12674
1.11814
1.10797
1.09681
1.0848
1.07014
1.05386
1.03802
1.02305
1.00767
0.991764
0.977164
0.96408
0.952959
0.94329
0.93459
0.926949
0.920245
0.913863
0.907368
0.900875
0.894877
0.889801
0.885858
0.883047
0.881006
0.878899
0.876454
0.873812
0.871714
0.871438
0.873183
0.876807
0.881655
0.886868
0.891556
0.895707
0.899455
0.904068
0.910907
0.92159
0.934462
0.946003
0.951354
0.947914
0.947276
0.966117
1.02392
1.08946
1.11547
1.07933
1.01316
0.93226
0.831647
0.743559
0.699651
0.683992
0.676367
0.670276
0.66564
0.662881
0.661342
0.659372
0.657615
0.656225
0.654514
0.652861
0.650193
0.645821
0.642882
0.640988
0.638033
0.63825
0.6393
0.635435
0.633674
1.18195
1.17832
1.17434
1.17012
1.1658
1.16154
1.1573
1.15309
1.14888
1.14443
1.13968
1.13437
1.12831
1.12121
1.11276
1.10309
1.092
1.07945
1.06659
1.052
1.03587
1.01842
1.00251
0.988199
0.975324
0.963781
0.953296
0.944809
0.937956
0.932181
0.92731
0.922588
0.917123
0.911392
0.906313
0.902629
0.900177
0.898473
0.896576
0.894458
0.892343
0.890696
0.890202
0.891174
0.893739
0.897341
0.901129
0.904219
0.906708
0.909249
0.913068
0.91996
0.931029
0.943968
0.954788
0.959813
0.957206
0.960959
0.99172
1.06367
1.13152
1.14484
1.07425
0.955012
0.820592
0.730167
0.692833
0.679358
0.673697
0.670133
0.66687
0.664279
0.662416
0.660217
0.657185
0.65499
0.652795
0.649726
0.646103
0.640084
0.633871
0.628996
0.625813
0.62201
0.621509
0.619822
0.619017
0.617084
1.18046
1.17689
1.17288
1.16872
1.16442
1.16016
1.15587
1.15165
1.14755
1.14327
1.13869
1.13389
1.1288
1.1226
1.11558
1.10768
1.09839
1.08776
1.07576
1.06223
1.04792
1.03326
1.01837
1.00346
0.988839
0.975498
0.964404
0.955913
0.949569
0.944597
0.940051
0.935482
0.93012
0.924495
0.919782
0.916468
0.914048
0.911978
0.909897
0.908135
0.906799
0.906174
0.906531
0.90782
0.91004
0.912623
0.915108
0.916981
0.918302
0.919947
0.923245
0.930057
0.941102
0.95379
0.964388
0.969646
0.970126
0.979853
1.0218
1.09921
1.16071
1.15218
1.04551
0.863488
0.730912
0.688054
0.676063
0.674177
0.672871
0.67028
0.667342
0.664806
0.66212
0.658569
0.654972
0.651935
0.648303
0.644043
0.6383
0.629281
0.621903
0.616028
0.608965
0.60601
0.60515
0.605434
0.60557
0.606932
1.18005
1.17609
1.17211
1.16798
1.16364
1.15926
1.1549
1.15067
1.14638
1.14219
1.13792
1.13327
1.12848
1.12301
1.11711
1.11038
1.1026
1.09383
1.08366
1.07231
1.05961
1.04608
1.03171
1.01739
1.00329
0.990698
0.980215
0.971416
0.964347
0.95853
0.953225
0.947739
0.942697
0.937765
0.933364
0.92959
0.926355
0.923792
0.921541
0.919764
0.918629
0.918496
0.919834
0.921526
0.923051
0.92453
0.92597
0.926941
0.927559
0.928934
0.932499
0.93997
0.951812
0.96431
0.975317
0.980216
0.983077
0.997579
1.04349
1.11708
1.16969
1.13657
0.991675
0.789176
0.694511
0.672781
0.673659
0.677177
0.676058
0.672334
0.668539
0.664778
0.661001
0.656181
0.652309
0.648535
0.642996
0.637295
0.627924
0.618699
0.609936
0.602007
0.594379
0.591138
0.589962
0.590208
0.591818
0.590125
1.18054
1.1761
1.17204
1.16779
1.16347
1.15896
1.15442
1.15002
1.14565
1.14135
1.13712
1.13275
1.12816
1.12306
1.11783
1.11188
1.1052
1.09775
1.08915
1.07968
1.06893
1.05728
1.0447
1.03163
1.01855
1.00635
0.995364
0.986106
0.978587
0.972488
0.967131
0.961983
0.956663
0.950813
0.944722
0.938897
0.933777
0.929763
0.926471
0.924119
0.922632
0.922036
0.92285
0.925242
0.928074
0.930824
0.933093
0.934249
0.935053
0.937149
0.941702
0.949964
0.962146
0.974605
0.985079
0.988376
0.990356
1.00802
1.05389
1.12194
1.16299
1.10573
0.948191
0.762357
0.683456
0.668931
0.676428
0.680379
0.678072
0.672974
0.667935
0.663368
0.658495
0.653324
0.648897
0.644124
0.637939
0.630798
0.619668
0.609376
0.599481
0.588852
0.581833
0.5779
0.575622
0.577563
0.57604
0.575215
1.18185
1.17707
1.1724
1.16811
1.16351
1.15894
1.15443
1.14995
1.14549
1.14111
1.13685
1.13257
1.12796
1.12324
1.11843
1.1129
1.10694
1.10035
1.09287
1.08475
1.07556
1.0655
1.05472
1.0433
1.03186
1.02106
1.01118
1.00273
0.99574
0.989953
0.984439
0.978458
0.971549
0.963839
0.955981
0.948832
0.942675
0.937546
0.933189
0.929997
0.927846
0.926773
0.927095
0.928765
0.93097
0.932718
0.934433
0.936876
0.939479
0.943041
0.949058
0.958698
0.971663
0.984615
0.993011
0.993237
0.993297
1.01124
1.05621
1.11365
1.13825
1.07328
0.931947
0.763101
0.68541
0.669704
0.677307
0.680574
0.677346
0.671784
0.666213
0.660857
0.654964
0.649944
0.645503
0.639613
0.633953
0.623758
0.613524
0.602697
0.589364
0.578014
0.572031
0.566486
0.565681
0.566279
0.564411
0.565431
1.1842
1.17871
1.17373
1.16902
1.16455
1.15987
1.15526
1.15058
1.14605
1.14159
1.13729
1.13303
1.1284
1.12386
1.11921
1.114
1.10851
1.10244
1.0957
1.08849
1.08041
1.0716
1.06228
1.05232
1.04245
1.03328
1.02516
1.01835
1.01241
1.00684
1.00101
0.994428
0.986703
0.97803
0.968992
0.960219
0.952249
)
;

boundaryField
{
    inlet
    {
        type            fixedValue;
        value           nonuniform 0();
    }
    outlet
    {
        type            zeroGradient;
    }
    bottom
    {
        type            symmetryPlane;
    }
    top
    {
        type            symmetryPlane;
    }
    obstacle
    {
        type            zeroGradient;
    }
    front
    {
        type            empty;
    }
    back
    {
        type            empty;
    }
    procBoundary4to3
    {
        type            processor;
        value           nonuniform List<scalar> 
27
(
1.21826
1.21787
1.21713
1.2155
1.21363
1.21118
1.20771
1.20433
1.20203
1.1994
1.19806
1.19745
1.19777
1.19861
1.19909
1.19906
1.1979
1.19666
1.19467
1.19225
1.18983
1.1879
1.18578
1.1842
1.1839
1.18514
1.18712
)
;
    }
    procBoundary4to5
    {
        type            processor;
        value           nonuniform List<scalar> 
27
(
1.24011
1.22146
1.21656
1.19169
1.15936
1.13092
1.11456
1.10609
1.0954
1.06965
1.01353
0.906814
0.787593
0.729304
0.710464
0.701043
0.694752
0.686468
0.674135
0.660415
0.648214
0.630846
0.617972
0.607734
0.590364
0.578551
0.568802
)
;
    }
    procBoundary4to11
    {
        type            processor;
        value           uniform 1.19039;
    }
    procBoundary4to12
    {
        type            processor;
        value           nonuniform List<scalar> 
89
(
0.945131
0.93916
0.934654
0.931377
0.929414
0.928768
0.929257
0.930394
0.932037
0.934218
0.936663
0.940369
0.945957
0.953493
0.964554
0.978185
0.990782
0.996432
0.992967
0.990937
1.01034
1.05242
1.09655
1.10382
1.0488
0.937397
0.786673
0.695456
0.670547
0.674368
0.67751
0.67492
0.669152
0.663117
0.657134
0.651159
0.646044
0.641047
0.634647
0.629337
0.618452
0.607653
0.596645
0.581477
0.569919
0.56114
0.554309
0.554788
0.553
0.553555
0.552557
1.18758
1.18094
1.17542
1.17037
1.16569
1.16112
1.15651
1.15186
1.14729
1.14283
1.13852
1.13427
1.12969
1.12529
1.12075
1.11579
1.11066
1.10501
1.09879
1.09208
1.08454
1.07635
1.06784
1.05903
1.0507
1.04334
1.03707
1.0321
1.02794
1.02403
1.01943
1.01305
1.00439
0.993866
0.982816
0.97207
0.945131
0.962408
)
;
    }
}


// ************************************************************************* //
