/*--------------------------------*- C++ -*----------------------------------*\
  =========                 |
  \\      /  F ield         | OpenFOAM: The Open Source CFD Toolbox
   \\    /   O peration     | Website:  https://openfoam.org
    \\  /    A nd           | Version:  7
     \\/     M anipulation  |
\*---------------------------------------------------------------------------*/
FoamFile
{
    version     2.0;
    format      ascii;
    class       volScalarField;
    location    "144";
    object      p;
}
// * * * * * * * * * * * * * * * * * * * * * * * * * * * * * * * * * * * * * //

dimensions      [0 2 -2 0 0 0 0];

internalField   nonuniform List<scalar> 
15200
(
-0.698966
-0.593942
-0.449373
-0.430795
-0.361034
-0.325576
-0.262602
-0.22117
-0.209002
-0.226653
-0.22405
-0.206653
-0.168614
-0.148997
-0.175893
-0.717614
-0.607462
-0.438883
-0.400245
-0.33549
-0.314964
-0.25997
-0.223405
-0.221105
-0.244267
-0.229159
-0.202294
-0.165701
-0.152174
-0.183675
-0.735947
-0.61987
-0.425616
-0.370714
-0.307076
-0.30158
-0.253955
-0.222155
-0.228878
-0.257935
-0.230417
-0.193214
-0.156459
-0.145522
-0.179695
-0.753878
-0.631246
-0.410511
-0.343502
-0.277329
-0.286319
-0.24451
-0.216024
-0.229714
-0.263567
-0.22599
-0.17964
-0.14024
-0.128742
-0.161635
-0.771315
-0.641723
-0.394206
-0.319662
-0.247267
-0.270056
-0.231321
-0.20401
-0.224665
-0.261376
-0.215925
-0.163074
-0.118645
-0.104449
-0.130428
-0.788156
-0.651454
-0.377326
-0.299443
-0.219524
-0.253096
-0.213895
-0.186443
-0.21669
-0.252721
-0.201453
-0.145447
-0.095269
-0.0776628
-0.0902394
-0.804272
-0.660574
-0.360749
-0.282064
-0.194101
-0.234633
-0.191929
-0.164086
-0.206871
-0.238119
-0.183826
-0.128177
-0.0749485
-0.0548003
-0.0507734
-0.819497
-0.669156
-0.345357
-0.265924
-0.171147
-0.212543
-0.165144
-0.137714
-0.194195
-0.217983
-0.164372
-0.111531
-0.0609522
-0.0397305
-0.0234673
-0.833625
-0.677167
-0.331756
-0.248946
-0.149301
-0.183588
-0.132757
-0.109995
-0.17763
-0.193851
-0.144653
-0.0957747
-0.0519322
-0.0300202
-0.0103737
-0.846412
-0.684417
-0.320211
-0.229651
-0.12546
-0.145557
-0.0940015
-0.0859209
-0.157878
-0.167886
-0.125712
-0.0820802
-0.0461629
-0.0232808
-0.00726489
-0.857563
-0.690555
-0.310847
-0.208452
-0.0976012
-0.0996801
-0.0506878
-0.0684773
-0.136478
-0.142276
-0.108157
-0.0709548
-0.042065
-0.0193838
-0.00670844
-0.866762
-0.695032
-0.303777
-0.187703
-0.0678946
-0.0438873
-0.0102683
-0.0560515
-0.115288
-0.118825
-0.0927106
-0.0620401
-0.0387636
-0.0179744
-0.0073253
-0.873713
-0.697103
-0.299048
-0.170495
-0.043723
-0.00974145
0.0170149
-0.0455825
-0.0956343
-0.0987143
-0.079762
-0.0549992
-0.0360942
-0.0177888
-0.00858996
-0.878198
-0.695891
-0.29662
-0.158624
-0.0299567
0.0102508
0.0275731
-0.0360795
-0.0785877
-0.082495
-0.0692556
-0.0495391
-0.034015
-0.0182227
-0.00984872
-0.88017
-0.690576
-0.296405
-0.151951
-0.0264176
0.0172709
0.0273107
-0.0284422
-0.0649523
-0.0700502
-0.0609597
-0.0453321
-0.0324112
-0.018985
-0.0111001
-0.879841
-0.680667
-0.29823
-0.149336
-0.0299234
0.0157545
0.021072
-0.0237203
-0.054931
-0.0608297
-0.0545227
-0.0421379
-0.0311828
-0.019753
-0.0123888
-0.877713
-0.666216
-0.301796
-0.149496
-0.0375169
0.0093758
0.0122016
-0.0220604
-0.0481116
-0.0541631
-0.0496028
-0.0397648
-0.0302122
-0.0204732
-0.0135935
-0.874535
-0.647864
-0.30673
-0.151453
-0.0474305
0.000296733
0.00238797
-0.0228174
-0.043854
-0.049447
-0.045949
-0.0380152
-0.0294314
-0.0211977
-0.0144211
-0.871172
-0.6267
-0.312642
-0.154549
-0.0586081
-0.01018
-0.00755016
-0.0252188
-0.0415623
-0.0462304
-0.0433388
-0.0367121
-0.0289188
-0.0218701
-0.0146255
-0.868439
-0.604024
-0.319125
-0.158369
-0.0703308
-0.0211975
-0.0172087
-0.0286491
-0.0407353
-0.0441781
-0.0415588
-0.0357564
-0.0287463
-0.0223534
-0.0149495
-0.86698
-0.581102
-0.325736
-0.162638
-0.0820951
-0.0321878
-0.0263852
-0.032656
-0.0409668
-0.0430269
-0.0404211
-0.0351217
-0.0288034
-0.0227278
-0.0164853
-0.867209
-0.558936
-0.332081
-0.16716
-0.093527
-0.0427906
-0.0349858
-0.0369257
-0.0419349
-0.0425658
-0.0397766
-0.0347674
-0.0289689
-0.0232971
-0.0180639
-0.869327
-0.538072
-0.338013
-0.171718
-0.104378
-0.0527831
-0.0429779
-0.0412451
-0.0433895
-0.04262
-0.0395078
-0.0346322
-0.0292329
-0.0238936
-0.0191769
-0.873363
-0.518736
-0.343507
-0.176114
-0.114495
-0.0620339
-0.0503595
-0.0454713
-0.0451398
-0.0430439
-0.0395174
-0.0346754
-0.0295241
-0.0244707
-0.0201151
-0.879219
-0.501013
-0.348546
-0.180208
-0.123795
-0.0704662
-0.0571359
-0.0495077
-0.0470423
-0.0437172
-0.0397307
-0.0348354
-0.0298364
-0.0250089
-0.0208486
-0.8867
-0.484893
-0.353101
-0.1839
-0.132237
-0.0780413
-0.0633116
-0.0532881
-0.0489895
-0.0445424
-0.0400802
-0.0350726
-0.0301472
-0.0254928
-0.0214543
-0.895543
-0.470305
-0.357137
-0.187125
-0.139804
-0.0847509
-0.0688912
-0.0567674
-0.0509007
-0.0454405
-0.0405109
-0.0353474
-0.0304484
-0.0259079
-0.0219607
-0.905436
-0.45713
-0.360618
-0.189837
-0.146497
-0.0906054
-0.0738808
-0.0599141
-0.0527151
-0.0463486
-0.0409743
-0.0356295
-0.0307233
-0.0262675
-0.0223583
-0.916031
-0.445217
-0.36351
-0.192003
-0.152327
-0.0956268
-0.0782878
-0.0627058
-0.0543869
-0.0472166
-0.0414297
-0.0358933
-0.030964
-0.0265461
-0.0226796
-0.926964
-0.434391
-0.365783
-0.193597
-0.157311
-0.0998431
-0.0821213
-0.065127
-0.0558819
-0.0480046
-0.0418432
-0.0361164
-0.031152
-0.0267615
-0.022903
-0.937861
-0.424464
-0.367407
-0.194599
-0.161471
-0.103285
-0.0853926
-0.0671679
-0.0571743
-0.0486814
-0.0421864
-0.0362806
-0.0312817
-0.02689
-0.0230505
-0.948349
-0.415238
-0.368359
-0.194988
-0.164836
-0.105982
-0.0881153
-0.0688226
-0.0582447
-0.0492211
-0.0424369
-0.0363704
-0.0313384
-0.0269438
-0.0231055
-0.958066
-0.406509
-0.36862
-0.194739
-0.16744
-0.107959
-0.0903054
-0.0700877
-0.059078
-0.0496029
-0.0425753
-0.0363732
-0.0313174
-0.0269066
-0.0230814
-0.966664
-0.398071
-0.368182
-0.193825
-0.169322
-0.109237
-0.0919808
-0.070962
-0.0596629
-0.0498111
-0.0425877
-0.0362777
-0.0312072
-0.0267849
-0.0229727
-0.973818
-0.389721
-0.367042
-0.192227
-0.170509
-0.109844
-0.0931571
-0.0714503
-0.05999
-0.049835
-0.0424622
-0.0360748
-0.0310013
-0.0265713
-0.0227904
-0.979227
-0.381274
-0.365182
-0.189949
-0.171005
-0.109825
-0.0938385
-0.0715643
-0.0600525
-0.0496639
-0.0421915
-0.0357547
-0.0306905
-0.026268
-0.0225316
-0.982618
-0.372566
-0.362568
-0.187004
-0.170811
-0.109216
-0.0940273
-0.0713121
-0.0598523
-0.0492868
-0.0417707
-0.0353089
-0.0302692
-0.0258696
-0.0221952
-0.983756
-0.363424
-0.359176
-0.183336
-0.170016
-0.107981
-0.0937858
-0.0706691
-0.059411
-0.0486913
-0.0412021
-0.0347266
-0.0297374
-0.0253719
-0.0217687
-0.982435
-0.353592
-0.355106
-0.178733
-0.168891
-0.105946
-0.0932973
-0.0695533
-0.0587701
-0.0478635
-0.0404907
-0.0339984
-0.0291018
-0.024767
-0.0212377
-0.978482
-0.342675
-0.350705
-0.172869
-0.16781
-0.102895
-0.0927533
-0.0678828
-0.0579598
-0.0467972
-0.039634
-0.0331218
-0.0283694
-0.0240472
-0.0205898
-0.971738
-0.330273
-0.346453
-0.165601
-0.166837
-0.0988608
-0.0920497
-0.0657564
-0.0569193
-0.0455351
-0.0386013
-0.0321191
-0.0275253
-0.0232148
-0.0198362
-0.962077
-0.316432
-0.342349
-0.157391
-0.165274
-0.0944523
-0.0906669
-0.0635487
-0.0554467
-0.044191
-0.037335
-0.0310342
-0.026526
-0.0222877
-0.0190174
-0.94945
-0.30202
-0.337175
-0.149113
-0.162067
-0.0905361
-0.0883526
-0.0614259
-0.0535229
-0.0427468
-0.0358725
-0.0298394
-0.0253878
-0.0212669
-0.0181265
-0.93397
-0.28736
-0.329581
-0.14155
-0.157397
-0.0869145
-0.0852002
-0.0593093
-0.051241
-0.0411384
-0.0342583
-0.028511
-0.0241282
-0.0201502
-0.0171548
-0.915893
-0.272182
-0.319798
-0.134431
-0.151478
-0.083407
-0.0813704
-0.0570823
-0.0487079
-0.0393159
-0.0325182
-0.0270411
-0.0227575
-0.0189371
-0.0160927
-0.895312
-0.256322
-0.308115
-0.127513
-0.144531
-0.0798426
-0.077027
-0.054642
-0.0460004
-0.0372629
-0.0306573
-0.0254341
-0.0212837
-0.0176298
-0.014938
-0.871653
-0.240113
-0.29479
-0.120594
-0.136745
-0.0760933
-0.0723074
-0.0519183
-0.0431585
-0.0349912
-0.0286707
-0.0237012
-0.0197143
-0.0162385
-0.013701
-0.843853
-0.224185
-0.28004
-0.113528
-0.128285
-0.0720628
-0.0673129
-0.0488786
-0.0401924
-0.0325282
-0.0265542
-0.0218536
-0.0180571
-0.0147754
-0.0123993
-0.812221
-0.208269
-0.264048
-0.106198
-0.119287
-0.0676873
-0.0621174
-0.0455195
-0.0370961
-0.0299029
-0.0243098
-0.0198998
-0.016317
-0.0132454
-0.0110408
-0.777123
-0.192133
-0.246984
-0.0985194
-0.109866
-0.0629304
-0.0567677
-0.0418594
-0.0338608
-0.0271386
-0.0219457
-0.0178475
-0.014495
-0.0116415
-0.00961822
-0.73889
-0.175598
-0.229004
-0.0904333
-0.100118
-0.057779
-0.0512919
-0.0379299
-0.0304824
-0.0242519
-0.0194734
-0.0157044
-0.0125943
-0.00995786
-0.00811803
-0.697828
-0.158557
-0.210254
-0.0819022
-0.0901213
-0.0522385
-0.0457048
-0.0337674
-0.0269633
-0.0212542
-0.016904
-0.0134798
-0.010626
-0.00820727
-0.00654316
-0.654233
-0.140943
-0.19087
-0.0729087
-0.0799387
-0.0463286
-0.040014
-0.0294089
-0.0233124
-0.0181545
-0.0142467
-0.0111828
-0.00860771
-0.00642171
-0.00492805
-0.608402
-0.122727
-0.170979
-0.0634528
-0.0696228
-0.0400798
-0.0342247
-0.0248883
-0.0195425
-0.014961
-0.0115095
-0.00882141
-0.00655234
-0.00462987
-0.0033327
-0.560635
-0.103903
-0.150698
-0.0535497
-0.0592169
-0.0335299
-0.0283433
-0.0202358
-0.0156686
-0.0116834
-0.00870214
-0.00640428
-0.00446312
-0.00283621
-0.00180841
-0.511236
-0.084491
-0.130142
-0.0432278
-0.0487576
-0.0267213
-0.0223788
-0.0154776
-0.0117069
-0.00833301
-0.00583738
-0.00394409
-0.0023437
-0.00103407
-0.000352111
-0.460513
-0.0645294
-0.109413
-0.0325264
-0.0382768
-0.0196986
-0.0163435
-0.0106369
-0.00767315
-0.00492265
-0.00292925
-0.00145461
-0.000207463
0.000760536
0.0010813
-0.408775
-0.0440734
-0.0886134
-0.0214936
-0.0278038
-0.0125076
-0.010253
-0.0057348
-0.00358391
-0.00146645
1.02564e-05
0.00105714
0.00193585
0.00252613
0.00255203
-0.356334
-0.023193
-0.0678358
-0.010185
-0.0173663
-0.00519311
-0.00412559
-0.000791286
0.000543937
0.00202007
0.00297032
0.00358992
0.0040949
0.0043023
0.00414695
-0.303501
-0.0019707
-0.0471702
0.00133866
-0.00699182
0.00220087
0.00201827
0.00417427
0.00469294
0.00552073
0.00593876
0.00613558
0.00627473
0.00616561
0.00607231
-0.250585
0.0195001
-0.0267024
0.0130128
0.0032917
0.00963229
0.00815672
0.00914256
0.00884563
0.00902057
0.00890406
0.00867834
0.00845497
0.00809444
0.00844565
-0.19789
0.0411173
-0.00651421
0.0247704
0.0134554
0.017061
0.0142669
0.0140941
0.0129847
0.0125062
0.0118582
0.0112118
0.0106344
0.0100988
0.0106784
-0.145717
0.0627712
0.0133157
0.0365431
0.0234692
0.024449
0.0203253
0.0190093
0.0170929
0.015964
0.0147922
0.0137388
0.0128456
0.0121647
0.0126694
-0.0943564
0.0843464
0.0327116
0.0482622
0.0333021
0.0317598
0.0263085
0.0238687
0.0211539
0.019381
0.0176943
0.0162456
0.0150616
0.0142251
0.0145336
-0.0440937
0.105723
0.0516009
0.0598598
0.0429223
0.0389592
0.0321927
0.0286528
0.0251522
0.0227465
0.0205582
0.0187288
0.0172651
0.0162389
0.0162913
0.00479822
0.12678
0.0699133
0.0712694
0.0522974
0.0460143
0.037955
0.0333428
0.0290723
0.0260484
0.0233747
0.0211809
0.0194451
0.0182069
0.0179844
0.0520576
0.147393
0.0875817
0.0824265
0.0613949
0.0528942
0.0435726
0.0379204
0.0328999
0.029275
0.0261319
0.0235867
0.0215813
0.0201177
0.0196152
0.097436
0.16744
0.104542
0.0932694
0.0701825
0.0595693
0.0490239
0.0423682
0.0366214
0.0324163
0.0288218
0.0259374
0.023664
0.0219689
0.021189
0.1407
0.186798
0.120732
0.103739
0.0786285
0.0660118
0.0542878
0.0466691
0.0402233
0.0354608
0.0314343
0.0282238
0.0256863
0.0237581
0.0227026
0.181631
0.20535
0.136093
0.113781
0.0867023
0.0721953
0.0593446
0.0508074
0.043693
0.038398
0.0339585
0.0304345
0.0276383
0.0254798
0.0241547
0.220028
0.222982
0.150571
0.123343
0.0943746
0.0780952
0.0641756
0.0547684
0.0470189
0.0412182
0.0363865
0.0325625
0.0295149
0.0271309
0.025542
0.255707
0.239584
0.164115
0.132377
0.101618
0.0836885
0.0687632
0.0585378
0.0501894
0.0439116
0.038709
0.034599
0.0313086
0.0287064
0.0268628
0.288505
0.255055
0.176677
0.140841
0.108406
0.0889542
0.0730916
0.062103
0.053194
0.0464693
0.0409182
0.0365374
0.0330143
0.0302026
0.0281149
0.318281
0.269298
0.188214
0.148694
0.114715
0.093873
0.0771458
0.0654521
0.0560231
0.0488831
0.0430066
0.0383707
0.0346261
0.0316157
0.0292972
0.344913
0.282224
0.198688
0.155903
0.120525
0.0984275
0.0809127
0.0685744
0.0586678
0.0511455
0.0449675
0.0400932
0.0361392
0.0329424
0.0304088
0.368298
0.293756
0.208066
0.162437
0.125817
0.102603
0.0843805
0.0714604
0.06112
0.0532496
0.0467949
0.0416994
0.0375489
0.0341798
0.0314491
0.388346
0.303833
0.216322
0.168271
0.130574
0.106385
0.087539
0.0741017
0.0633729
0.0551895
0.0484834
0.0431843
0.0388512
0.0353255
0.0324175
0.404989
0.312402
0.223434
0.173385
0.134783
0.109764
0.0903794
0.0764911
0.0654203
0.0569599
0.0500282
0.0445439
0.0400431
0.0363776
0.0333119
0.418176
0.319425
0.229386
0.177761
0.138434
0.112731
0.0928946
0.0786226
0.067257
0.0585563
0.0514252
0.0457745
0.0411211
0.0373333
0.0341333
0.42788
0.324875
0.234169
0.18139
0.14152
0.115278
0.0950791
0.0804914
0.0688789
0.0599752
0.0526714
0.0468733
0.0420825
0.0381892
0.0348731
0.434094
0.328741
0.237779
0.184265
0.144035
0.117403
0.0969287
0.082094
0.0702829
0.0612139
0.0537645
0.0478391
0.0429272
0.0389477
0.0355433
0.436831
0.33102
0.24022
0.186384
0.145978
0.119101
0.0984413
0.0834283
0.071467
0.0622705
0.0547029
0.0486702
0.0436544
0.0396095
0.0361431
0.436133
0.331726
0.241498
0.187749
0.147351
0.120374
0.099616
0.0844931
0.0724298
0.0631437
0.0554854
0.0493658
0.0442627
0.0401724
0.0366703
0.432055
0.330883
0.241629
0.188368
0.148156
0.121222
0.100454
0.0852885
0.073171
0.0638331
0.0561116
0.0499257
0.0447522
0.0406348
0.037121
0.42468
0.328526
0.240633
0.188253
0.148402
0.121651
0.100956
0.0858158
0.0736915
0.0643393
0.0565822
0.0503512
0.0451237
0.0409964
0.0374929
0.414111
0.324706
0.238536
0.187418
0.148097
0.121665
0.101128
0.0860776
0.0739928
0.0646635
0.0568985
0.0506437
0.0453789
0.0412571
0.0377841
0.40047
0.319482
0.235368
0.185886
0.147253
0.121274
0.100974
0.0860774
0.0740775
0.0648075
0.0570621
0.0508053
0.0455193
0.0414173
0.0379932
0.3839
0.312925
0.231168
0.183679
0.145885
0.120486
0.100501
0.0858199
0.0739489
0.0647741
0.0570755
0.0508383
0.0455467
0.0414777
0.0381193
0.364564
0.305116
0.225976
0.180826
0.14401
0.119313
0.099717
0.085311
0.073611
0.0645668
0.0569418
0.0507457
0.0454633
0.0414391
0.0381616
0.342641
0.296147
0.219838
0.177358
0.141647
0.117769
0.0986306
0.0845571
0.0730687
0.0641891
0.0566644
0.0505307
0.0452717
0.0413027
0.0381198
0.318325
0.286119
0.212807
0.17331
0.138817
0.115868
0.0972523
0.0835661
0.0723275
0.0636463
0.0562484
0.0501984
0.0449753
0.0410702
0.0379937
0.291825
0.27514
0.204936
0.168722
0.135542
0.113627
0.0955933
0.0823463
0.0713935
0.0629425
0.0556974
0.0497516
0.0445764
0.0407439
0.0377847
0.263371
0.263326
0.196284
0.163633
0.131847
0.111063
0.0936657
0.0809068
0.0702731
0.0620833
0.0550181
0.0491988
0.0440818
0.0403268
0.0374923
0.233208
0.250791
0.186911
0.158089
0.127756
0.108194
0.0914827
0.0792581
0.0689742
0.0610745
0.0542153
0.0485436
0.0434919
0.0398186
0.0371195
0.2016
0.237655
0.176882
0.152135
0.123297
0.105041
0.0890577
0.0774105
0.067504
0.0599199
0.0532929
0.0477951
0.0428191
0.0392273
0.036666
0.168823
0.224038
0.16626
0.145819
0.118495
0.101625
0.0864049
0.0753753
0.0658714
0.0586269
0.0522586
0.0469639
0.0420703
0.0385487
0.0361322
0.135166
0.21006
0.155112
0.139191
0.113378
0.0979652
0.0835388
0.0731641
0.0640859
0.0572004
0.0511123
0.046052
0.0412557
0.0377908
0.0355163
0.100927
0.19584
0.143506
0.132301
0.107972
0.0940855
0.0804741
0.0707886
0.062157
0.055647
0.049857
0.0450701
0.0404011
0.0369711
0.0348265
0.0664138
0.181492
0.131508
0.125201
0.102302
0.0900083
0.0772254
0.0682607
0.0600951
0.0539755
0.048495
0.0440178
0.0395162
0.0360956
0.034032
0.0319401
0.167127
0.119188
0.117941
0.0963941
0.0857573
0.0738074
0.0655922
0.0579105
0.0521957
0.0470271
0.042887
0.038611
0.0352157
0.0331876
-0.00217553
0.15285
0.106615
0.110572
0.090271
0.0813567
0.070234
0.062795
0.0556129
0.0503182
0.0454585
0.0416718
0.0376947
0.0343771
0.0322296
-0.0356127
0.138754
0.0938574
0.103142
0.0839543
0.0768315
0.0665188
0.0598813
0.0532113
0.0483542
0.043799
0.0403613
0.0367366
0.0335431
0.0310903
-0.0680512
0.124926
0.0809845
0.0956968
0.0774639
0.0722072
0.0626739
0.0568638
0.0507141
0.0463137
0.0420615
0.0389499
0.0357011
0.0327672
0.0301649
-0.0991734
0.111437
0.0680664
0.0882792
0.0708179
0.06751
0.0587098
0.053756
0.048129
0.0442041
0.0402611
0.0374522
0.0345718
0.0320138
0.0295714
-0.128667
0.0983445
0.0551742
0.0809256
0.0640325
0.0627665
0.0546347
0.0505726
0.0454637
0.042031
0.0384118
0.0358939
0.0333497
0.031176
0.029029
-0.156227
0.085687
0.0423805
0.0736662
0.0571234
0.0580031
0.050454
0.0473299
0.0427258
0.0397992
0.0365215
0.0342949
0.0320461
0.0301924
0.0283015
-0.181557
0.0734803
0.0297607
0.066522
0.0501062
0.0532454
0.0461708
0.0440456
0.0399216
0.0375141
0.034593
0.0326626
0.0306789
0.0290846
0.0273794
-0.20437
0.0617115
0.017394
0.0595035
0.042998
0.0485167
0.0417855
0.0407395
0.0370558
0.0351831
0.0326278
0.0309982
0.0292686
0.02791
0.0263696
-0.224386
0.0503296
0.00536526
0.0526071
0.0358194
0.0438363
0.0372973
0.0374332
0.0341292
0.0328166
0.0306306
0.029304
0.0278303
0.0267046
0.0253441
-0.241324
0.0392322
-0.00623239
0.0458127
0.0285969
0.0392165
0.032706
0.0341493
0.0311391
0.0304293
0.0286094
0.0275841
0.0263696
0.0254724
0.024307
-0.254902
0.0282671
-0.0172935
0.0390802
0.0213658
0.0346594
0.0280149
0.0309094
0.0280792
0.0280399
0.0265719
0.0258429
0.0248883
0.0242094
0.0232442
-0.265044
0.0173983
-0.0276961
0.032344
0.0141742
0.0301527
0.0232351
0.0277304
0.0249422
0.0256703
0.0245213
0.0240846
0.023392
0.0229236
0.0221608
-0.272342
0.00702029
-0.0372877
0.0255096
0.00708589
0.0256652
0.0183906
0.0246193
0.0217248
0.0233436
0.0224541
0.0223162
0.0218935
0.0216322
0.0210749
-0.276915
-0.0028418
-0.0458959
0.0184414
0.000186671
0.0211417
0.0135233
0.021566
0.0184341
0.0210793
0.0203614
0.0205504
0.0204073
0.0203498
0.019998
-0.278627
-0.0123958
-0.053379
0.0109661
-0.00641458
0.0164998
0.0087004
0.0185371
0.0150957
0.0188851
0.0182317
0.0188081
0.0189425
0.0190799
0.0189314
-0.277395
-0.0212968
-0.0601066
0.00290089
-0.0125796
0.0116256
0.00401409
0.0154703
0.0117614
0.0167481
0.0160606
0.0171153
0.0174994
0.0178205
0.0178737
-0.273277
-0.0292631
-0.0668177
-0.00556215
-0.0181604
0.00638624
-0.000413879
0.0122695
0.00851392
0.0146272
0.0138687
0.0154911
0.0160709
0.0165717
0.0168299
-0.266444
-0.0364366
-0.0738844
-0.0142535
-0.0230493
0.000670821
-0.00445776
0.00882447
0.00546311
0.0124502
0.0117129
0.0139312
0.0146534
0.0153428
0.0158091
-0.257135
-0.0431384
-0.0812672
-0.0225618
-0.02792
-0.00541427
-0.00805185
0.00503558
0.00272492
0.0101289
0.00967871
0.0124007
0.0132596
0.0141504
0.0148197
-0.245647
-0.049681
-0.0888218
-0.0304117
-0.0331404
-0.0115201
-0.0114255
0.000951547
0.000355279
0.00760826
0.00784407
0.0108512
0.01192
0.0130085
0.0138613
-0.232346
-0.0563366
-0.0964725
-0.0379832
-0.0387504
-0.0174167
-0.0148599
-0.00310602
-0.00189804
0.00503135
0.00616918
0.00928639
0.0106572
0.0119383
0.0129096
-0.21767
-0.0633751
-0.10423
-0.045466
-0.044668
-0.0230574
-0.0185215
-0.00693294
-0.00418399
0.00254381
0.00457087
0.00776374
0.00946181
0.0109197
0.012015
-0.202141
-0.0710974
-0.112151
-0.0529825
-0.0508028
-0.0285117
-0.0224088
-0.010519
-0.00653516
0.000217962
0.00300228
0.00633138
0.00832665
0.00995744
0.0111819
-0.186365
-0.079849
-0.120299
-0.0606025
-0.0570985
-0.0338871
-0.0264147
-0.0139317
-0.00892853
-0.00193115
0.00145954
0.00500617
0.00725995
0.00905522
0.0104068
-0.171033
-0.090023
-0.128729
-0.0683762
-0.0635459
-0.0392636
-0.0304455
-0.017219
-0.0113209
-0.00391965
-2.80437e-05
0.00378206
0.00627151
0.00821925
0.00968769
-0.156927
-0.102063
-0.137473
-0.0763542
-0.0701714
-0.0446756
-0.0344674
-0.0204033
-0.0136661
-0.00577274
-0.00142215
0.00265814
0.00536541
0.00745488
0.00902736
-0.144922
-0.116471
-0.146543
-0.0845925
-0.0770154
-0.0501337
-0.0384801
-0.0234981
-0.0159244
-0.00750587
-0.00269511
0.00164377
0.00454836
0.00676832
0.00842376
-0.135994
-0.133813
-0.155917
-0.0931524
-0.0841167
-0.0556478
-0.0424846
-0.0265111
-0.018068
-0.00911486
-0.00383477
0.00075149
0.00383288
0.00615964
0.0078822
-0.131227
-0.154709
-0.165525
-0.102102
-0.0915108
-0.0612318
-0.046476
-0.0294415
-0.0200826
-0.0105827
-0.00483112
-8.55335e-06
0.00322679
0.00564067
0.007403
-0.131831
-0.179692
-0.175242
-0.111522
-0.0992339
-0.0669002
-0.0504494
-0.0322812
-0.02196
-0.0118902
-0.00567005
-0.000625311
0.00274122
0.00520895
0.00700015
-0.139061
-0.208794
-0.184873
-0.121512
-0.107324
-0.0726665
-0.0544048
-0.0350212
-0.0236901
-0.0130214
-0.0063325
-0.00108579
0.00238053
0.00488159
0.0066674
-0.153788
-0.240689
-0.194213
-0.13219
-0.115816
-0.0785458
-0.0583458
-0.0376557
-0.0252578
-0.0139599
-0.00680054
-0.00137568
0.00216049
0.00464679
0.00641841
-0.175652
-0.27177
-0.203112
-0.143688
-0.12474
-0.0845554
-0.0622769
-0.040182
-0.0266456
-0.0146873
-0.00705577
-0.0014782
0.00208578
0.0045245
0.00623194
-0.20256
-0.296319
-0.211488
-0.156132
-0.134115
-0.0907178
-0.0662032
-0.0425984
-0.0278371
-0.0151833
-0.00707874
-0.00137464
0.00217351
0.00449331
0.00612069
-0.231508
-0.308662
-0.219446
-0.169612
-0.143952
-0.0970627
-0.0701329
-0.044903
-0.0288185
-0.0154275
-0.00684708
-0.00104278
0.00242653
0.00457094
0.00604566
-0.259058
-0.306338
-0.227456
-0.184157
-0.154264
-0.103629
-0.0740793
-0.0470958
-0.0295774
-0.0154009
-0.00633451
-0.000458811
0.00285852
0.00473539
0.00599459
-0.284127
-0.2916
-0.236409
-0.199723
-0.165076
-0.110468
-0.0780617
-0.0491799
-0.0301048
-0.0150849
-0.00551489
0.000408929
0.00346834
0.00499237
0.00591163
-0.306725
-0.270262
-0.247339
-0.216255
-0.176446
-0.117638
-0.0821051
-0.0511643
-0.030399
-0.0144647
-0.00435347
0.00158712
0.00427162
0.00533011
0.00569679
-0.327538
-0.248841
-0.260993
-0.233716
-0.188473
-0.125211
-0.0862422
-0.0530653
-0.0304692
-0.0135261
-0.0028187
0.00311443
0.00527168
0.00574009
0.00535145
-0.347208
-0.232377
-0.277313
-0.252118
-0.201296
-0.133261
-0.0905152
-0.0549107
-0.0303374
-0.0122658
-0.000870605
0.00499932
0.00653753
0.00620426
0.00465053
-0.365921
-0.223735
-0.295168
-0.271531
-0.215078
-0.141858
-0.094977
-0.0567447
-0.0300381
-0.0106946
0.00153221
0.00725665
0.00809999
0.00681728
0.00409322
-0.383367
-0.223695
-0.312567
-0.292066
-0.229975
-0.15106
-0.099695
-0.0586335
-0.0296258
-0.00885139
0.00441428
0.00986407
0.0100823
0.00735908
0.00442004
-0.39894
-0.231492
-0.326921
-0.313871
-0.246091
-0.160907
-0.104752
-0.0606723
-0.0291861
-0.00680884
0.00778693
0.0127997
0.0125344
0.00774825
0.00462171
-0.412184
-0.245403
-0.335518
-0.337175
-0.263427
-0.171413
-0.110246
-0.0629897
-0.0288468
-0.00467223
0.0115617
0.0161043
0.0152938
0.00798416
0.00397723
-0.423183
-0.263295
-0.336523
-0.362359
-0.281846
-0.182573
-0.1163
-0.0657526
-0.0288044
-0.00260564
0.0155107
0.0198728
0.0181701
0.00784511
0.00251345
-0.432436
-0.283896
-0.330358
-0.390018
-0.301054
-0.194375
-0.123046
-0.0691763
-0.0293425
-0.000817134
0.019308
0.0241228
0.0210215
0.00695668
0.000285122
-0.442142
-0.305822
-0.320282
-0.420857
-0.320619
-0.206797
-0.130636
-0.0735086
-0.0308392
0.000311576
0.0223238
0.0286263
0.0235296
0.00487934
-0.00300344
-0.453963
-0.328936
-0.311528
-0.454987
-0.340007
-0.219812
-0.139214
-0.0790256
-0.0338105
5.13199e-05
0.0236829
0.0329832
0.0251093
0.000990445
-0.00780824
-0.468628
-0.353083
-0.308701
-0.490944
-0.358622
-0.233407
-0.148824
-0.0861089
-0.0388317
-0.00264176
0.0223736
0.036024
0.0246252
-0.00586635
-0.014801
-0.485864
-0.377853
-0.315466
-0.525691
-0.375876
-0.247509
-0.159513
-0.0949797
-0.0464692
-0.0104813
0.0144739
0.0337275
0.0202847
-0.0163604
-0.0248389
-0.504821
-0.402467
-0.330562
-0.555421
-0.391237
-0.261882
-0.171438
-0.105278
-0.0580632
-0.0284931
-0.00929446
0.0166959
0.00932049
-0.0296389
-0.0384157
-0.524605
-0.426266
-0.351489
-0.57686
-0.404247
-0.276241
-0.184477
-0.116867
-0.0755324
-0.0585806
-0.051612
-0.021912
-0.0110189
-0.0442503
-0.0552369
-0.544581
-0.448956
-0.375097
-0.588237
-0.414509
-0.290345
-0.197995
-0.130426
-0.0983057
-0.0933753
-0.102199
-0.0695469
-0.0405085
-0.0592716
-0.0741356
-0.56443
-0.470515
-0.398575
-0.589461
-0.421678
-0.303859
-0.211188
-0.146
-0.122322
-0.122751
-0.145326
-0.112405
-0.0751492
-0.0755135
-0.0938409
-0.584055
-0.491023
-0.419735
-0.581605
-0.425472
-0.316141
-0.223433
-0.162344
-0.143831
-0.144387
-0.175159
-0.144884
-0.107349
-0.0927088
-0.112849
-0.603478
-0.510554
-0.436987
-0.566213
-0.425574
-0.326296
-0.234399
-0.177768
-0.160263
-0.160497
-0.192918
-0.167741
-0.129708
-0.106219
-0.127111
-0.622758
-0.529156
-0.44935
-0.54493
-0.42159
-0.333426
-0.243967
-0.190992
-0.171459
-0.173766
-0.199945
-0.183917
-0.143265
-0.114269
-0.135223
-0.641948
-0.546839
-0.456505
-0.519277
-0.413176
-0.336949
-0.252021
-0.201652
-0.179512
-0.185549
-0.2064
-0.195697
-0.152719
-0.120451
-0.140937
-0.661066
-0.563575
-0.458654
-0.491065
-0.400202
-0.33673
-0.258199
-0.210046
-0.187314
-0.196949
-0.211918
-0.203372
-0.160645
-0.128947
-0.149644
-0.680091
-0.579298
-0.456157
-0.461311
-0.382751
-0.332896
-0.261911
-0.216549
-0.197006
-0.210235
-0.217735
-0.206932
-0.16642
-0.139527
-0.162301
-0.193416
-0.151645
-0.131148
-0.163675
-0.173759
-0.130201
-0.129261
-0.155758
-0.153608
-0.136812
-0.136299
-0.0933708
-0.0594407
-0.0436343
-0.0268415
-0.0210568
-0.0161648
-0.0133225
-0.0114515
-0.00954295
-0.00816985
-0.00719182
-0.00600855
-0.00537607
-0.00506579
-0.00349214
-0.00410468
-0.00318548
-0.00242645
-0.00256787
-0.00242396
-0.00139422
-0.000657316
-0.00366076
-0.000140789
-1.87542e-05
-0.00296199
-0.000861087
0.00156311
0.00105348
-0.198942
-0.14832
-0.119893
-0.148465
-0.15796
-0.123053
-0.125727
-0.154565
-0.151302
-0.125388
-0.123826
-0.0886954
-0.057884
-0.0432004
-0.0275018
-0.0211841
-0.0158635
-0.0132037
-0.0117246
-0.00957376
-0.00810464
-0.00742174
-0.00593974
-0.00534484
-0.00533032
-0.00330674
-0.00404716
-0.0035318
-0.00222021
-0.00236875
-0.00276963
-0.00140306
-0.000201213
-0.00374711
-0.000589509
0.000478089
-0.00256312
-0.00114149
0.00132549
0.00109576
-0.191156
-0.13707
-0.104097
-0.129472
-0.138678
-0.111
-0.114653
-0.145231
-0.139648
-0.10941
-0.107373
-0.0807936
-0.0545841
-0.042093
-0.0279234
-0.0211681
-0.0154888
-0.0130425
-0.0119784
-0.00959761
-0.00802881
-0.00780179
-0.00587012
-0.00530191
-0.00559014
-0.00311735
-0.00397908
-0.00386871
-0.00200506
-0.00216514
-0.00310132
-0.00138393
0.000269404
-0.00383059
-0.00100307
0.000995781
-0.00219867
-0.00142056
0.00112522
0.00114344
-0.168741
-0.119395
-0.0866769
-0.109791
-0.119052
-0.0959212
-0.0973767
-0.128985
-0.12029
-0.0911769
-0.0892517
-0.0702319
-0.0493529
-0.0402851
-0.0281117
-0.0210083
-0.0150476
-0.0128383
-0.0122104
-0.00961733
-0.00793557
-0.0080026
-0.00579872
-0.00524638
-0.0058415
-0.0029304
-0.00390245
-0.00418974
-0.00178844
-0.00196158
-0.00341096
-0.00134201
0.000710544
-0.0039119
-0.00137687
0.00151548
-0.00188084
-0.00169974
0.000964767
0.00119494
-0.133795
-0.0978216
-0.0699043
-0.0917928
-0.101136
-0.0798229
-0.0767298
-0.107954
-0.0961021
-0.0727044
-0.0715229
-0.0582107
-0.0425926
-0.0378481
-0.0280843
-0.0207055
-0.0145519
-0.0125945
-0.012417
-0.00963503
-0.00782613
-0.00819144
-0.00573155
-0.00517968
-0.00608023
-0.00275254
-0.00381935
-0.00448819
-0.00157865
-0.00176271
-0.00369228
-0.00128424
0.00111873
-0.00399183
-0.00170969
0.00201974
-0.00161835
-0.00197937
0.000843604
0.00124831
-0.0886909
-0.0743808
-0.0552991
-0.0768165
-0.0858911
-0.0640067
-0.0559463
-0.0848726
-0.0707039
-0.0555933
-0.0557828
-0.0457682
-0.0347282
-0.0349681
-0.0278345
-0.0202592
-0.0140166
-0.012316
-0.0125912
-0.0096516
-0.0077033
-0.00836824
-0.00567431
-0.00510396
-0.00630233
-0.00259024
-0.00373237
-0.00475895
-0.0013838
-0.00157394
-0.00394056
-0.00121844
0.00148518
-0.00407018
-0.00200193
0.00249226
-0.00141601
-0.00225872
0.000758799
0.00130145
-0.0421354
-0.0496506
-0.043266
-0.0646393
-0.0726433
-0.0494178
-0.0375143
-0.0623647
-0.0474298
-0.040583
-0.0427012
-0.0337496
-0.0262394
-0.0317482
-0.027329
-0.0196738
-0.0134587
-0.0120101
-0.0127247
-0.00966774
-0.00757147
-0.00852874
-0.00563183
-0.0050215
-0.0065036
-0.00244959
-0.00364482
-0.00499828
-0.00121144
-0.00140086
-0.00415226
-0.00115232
0.00180267
-0.0041456
-0.00225545
0.002919
-0.00127472
-0.00253592
0.000705555
0.00135228
-0.00536116
-0.0262755
-0.0334731
-0.0541415
-0.060748
-0.0368882
-0.0224271
-0.0422206
-0.0280869
-0.0278001
-0.032235
-0.0228882
-0.0180172
-0.028298
-0.0265441
-0.0189633
-0.012897
-0.0116862
-0.0128083
-0.0096833
-0.00743584
-0.00866715
-0.00560788
-0.00493558
-0.00667953
-0.00233663
-0.00356033
-0.00520302
-0.00106828
-0.00124823
-0.00432473
-0.00109305
0.00206594
-0.00421539
-0.00247377
0.00328881
-0.00119171
-0.00280777
0.000678038
0.00139891
0.0112613
-0.00823342
-0.0251165
-0.0441389
-0.0496628
-0.0266894
-0.0108912
-0.0252355
-0.0127354
-0.0172051
-0.0242376
-0.0137383
-0.0105603
-0.0248512
-0.025461
-0.0181515
-0.0123468
-0.011355
-0.012833
-0.00969745
-0.00730165
-0.00877706
-0.00560559
-0.00485027
-0.00682542
-0.00225707
-0.00348201
-0.00537061
-0.000959739
-0.00111931
-0.00445596
-0.0010468
0.0022719
-0.00427559
-0.0026612
0.00359321
-0.00116104
-0.00306965
0.000670035
0.00143996
0.0109135
0.00156332
-0.0170686
-0.033983
-0.0390206
-0.0188518
-0.00300727
-0.0118074
-0.000988111
-0.00869098
-0.0183152
-0.006517
-0.00426324
-0.0214507
-0.0240975
-0.0172633
-0.0118098
-0.0110271
-0.0127912
-0.0097081
-0.00717368
-0.00885217
-0.00562683
-0.00476955
-0.0069365
-0.00221556
-0.00341173
-0.00549892
-0.000889869
-0.00101549
-0.00454448
-0.00101859
0.00241962
-0.00432117
-0.00282168
0.00382683
-0.0011741
-0.00331571
0.000675315
0.00147373
0.00788784
0.00572895
-0.00951175
-0.0243251
-0.0294149
-0.0132063
0.00145639
-0.0024325
0.00690958
-0.00204911
-0.0136014
-0.00106759
0.000617551
-0.0181009
-0.0225299
-0.0163323
-0.0112716
-0.0107063
-0.0126785
-0.00971325