/*--------------------------------*- C++ -*----------------------------------*\
  =========                 |
  \\      /  F ield         | OpenFOAM: The Open Source CFD Toolbox
   \\    /   O peration     | Website:  https://openfoam.org
    \\  /    A nd           | Version:  7
     \\/     M anipulation  |
\*---------------------------------------------------------------------------*/
FoamFile
{
    version     2.0;
    format      ascii;
    class       volScalarField;
    location    "2.5";
    object      T;
}
// * * * * * * * * * * * * * * * * * * * * * * * * * * * * * * * * * * * * * //

dimensions      [0 2 -2 0 0 0 0];

internalField   nonuniform List<scalar> 
19392
(
2.15668e-06
0.00506838
3.67458e-33
6.53927e-155
6.6492e-146
-6.79417e-172
1.03132e-07
1.3061e-35
3.62052e-38
0.229474
0.0943637
1.6088e-133
5.0983e-120
8.61892e-113
6.18125e-106
7.06397e-99
6.06703e-86
2.34243
8.35555
24.0008
0.529855
81.1912
149.322
0.0366208
0.001283
3.52536e-05
-2.56512e-167
4.8691e-07
3.68123e-158
3.48853e-09
1.83332e-11
3.55141e-13
234.214
2.1447e-152
5.75e-15
-9.91277e-176
6.23361e-18
4.93e-20
3.45389e-22
1.66633e-24
-2.33204e-148
5.13855e-27
1.64359e-29
5.86009e-32
-6.03522e-181
2.30226e-34
7.2529e-37
1.72244e-39
1.84955e-42
4.54711
14.5537
1.14764
1.26971e-10
2.63386e-12
189.549
4.5155e-14
5.42889e-19
1.45506e-150
4.45225e-21
5.16067e-141
2.48947e-23
9.8114e-26
-4.41437e-178
2.45675e-45
1.04211e-30
0.000130633
8.85089e-06
1.79969e-48
-1.27692e-135
-4.12008e-129
1.91376e-122
9.70561e-52
4.05976e-138
7.23135e-115
7.41074e-47
2.70831e-28
8.75398e-109
1.64256e-131
5.06375e-101
4.30232e-50
1.02851e-56
6.07662e-95
3.63565e-91
1.73492e-59
1.17109e-87
1.54831e-62
6.75737e-111
1.81424e-82
7.63446e-66
1.69588e-78
8.69567e-75
2.37156e-103
2.797e-69
6.78668e-97
4.63069e-58
5.44527e-61
3.47162e-64
2.28286e-80
0.000436942
1.34342e-163
1.85282e-08
2.86827e-117
-1.22707e-124
112.691
1.39498e-67
1.77282e-53
2.04736e-89
0.0138639
4.34729e-93
-1.74667e-126
6.5731e-41
56.442
1.30193e-143
37.5191
4.03998e-71
4.57076e-161
-2.04557e-183
8.34019e-16
6.92446e-73
6.10616e-44
9.29413e-77
7.19058e-10
-6.57564e-170
5.60429e-17
2.78194e-55
2.17053e-84
275.572
234.238
1.91566e-08
2.21824e-79
287.267
35.3923
2.09486e-08
8.83668
94.6601
1.30168e-25
-2.39041e-100
1.43392e-11
9.3294e-06
251.86
8.99986
1.0479e-34
58.0243
3.9933e-30
266.995
70.7485
4.20819e-84
22.642
248.423
1.83863e-11
5.59727e-11
4.43368e-102
36.0731
3.12221e-43
2.91523e-31
1.61849e-40
2.96384e-16
13.6071
1.21295e-112
1.09996e-79
174.548
4.03513e-34
200.668
0.0124611
5.1921e-41
241.132
4.0384
116.247
12.6007
0.000657555
4.21891e-78
178.236
5.65371e-05
-4.30274e-141
0.382484
247.035
14.6068
43.8361
2.72358e-08
1.36212e-16
230.778
1.57455e-58
92.0338
2.27968e-111
2.34066e-06
0.032461
-2.7002e-167
111.465
26.0256
102.28
0.00201695
2.10244e-05
8.23287e-40
61.2858
228.261
2.61546e-89
3.85115e-39
216.442
1.93447e-41
1.64278e-05
149.807
0.00716711
3.20331e-24
225.442
1.13322e-06
-1.20566e-101
229.73
168.622
1.03295e-11
271.77
230.365
8.19699e-14
185.786
245.208
282.031
4.85639e-11
7.65491
1.46387e-109
-2.7449e-175
1.81884e-66
4.44355e-16
2.90966e-15
176.757
285.056
1.4344
222.144
3.99056e-44
9.30377e-37
48.1827
4.41424e-54
1.25517e-77
-3.25497e-54
0.0345039
260.598
20.6708
256.654
0.273464
190.584
24.102
1.69932e-08
0.0297957
0.180346
113.062
7.35957e-36
4.49894e-26
1.96873e-05
21.6211
138.865
5.0361e-85
3.2969e-29
19.7738
278.832
5.76234e-51
229.887
149.089
29.104
2.46057e-61
101.872
0.0164404
0.00132282
5.47771e-39
214.263
1.19619e-38
155.313
-3.72395e-140
4.49753e-89
273.756
120.112
5.51554
4.68936e-86
45.6164
2.61173e-26
155.082
224.088
105.145
201.842
8.43099e-71
1.76309e-44
-3.51348e-148
44.0388
72.2801
7.03114e-20
233.956
110.443
4.22113
43.9835
-1.09236e-150
271.777
6.68632e-08
47.255
-1.5338e-98
-5.87417e-53
2.64827e-10
129.836
29.9405
12.5483
7.46775
-4.2265e-141
43.0084
1.67565e-12
26.5599
49.189
35.9891
2.75072e-32
4.63353e-45
43.1737
247.038
170.062
2.19052e-11
2.63009e-20
114.569
-7.02352e-169
9.2251e-49
287.201
28.6165
256.924
71.6013
5.14366e-08
7.74321
0.00304551
15.2675
202.229
224.847
134.713
9.57124e-68
-7.49865e-142
152.33
0.00106367
1.02606e-39
236.962
8.18549e-37
0.000103576
1.7071e-69
1.12232e-57
57.8491
-2.13749e-54
192.383
271.547
146.169
4.69087e-13
147.015
8.52773e-17
3.19959e-56
0.00106533
9.00208
23.7896
227.85
1.35404e-30
1.28208e-24
247.73
9.66997e-17
0.0200972
113.596
1.49714e-151
1.64221e-19
9.90611e-09
5.49165e-77
21.0465
2.15244
1.28446e-07
7.97592e-27
97.2734
240.909
6.96153e-165
13.7769
-9.09754e-149
0.00104596
9.857e-05
268.198
110.258
130.117
1.50758e-05
8.41762e-18
4.37385e-91
135.407
9.0077e-46
1.89666e-17
143.264
1.93021e-50
244.56
0.00690223
1.93576e-12
255.045
6.49698
2.76624e-46
4.00246
1.10785e-06
264.563
2.20784e-24
225.313
1.08629e-18
0.000775845
1.17371e-10
35.8638
204.655
146.449
104.366
1.17485e-31
168.328
8.87836e-16
2.8654e-16
3.9364e-70
-1.60787e-67
278.828
2.27148e-18
175.088
268.324
21.8221
245.701
5.30672e-99
3.2696
5.72714e-13
1.56548e-18
1.40736e-10
7.83974e-111
5.18894e-07
1.26488e-05
1.36334e-05
133.01
197.392
1.14117e-10
245.453
7.99181
5.35579
254.624
2.00296
191.041
-1.42265e-40
2.49728e-20
1.08261e-08
204.514
8.31585e-63
7.96957e-09
5.21998e-06
1.88777e-24
7.4549e-19
2.48825e-12
6.68771e-23
2.20537e-150
2.94872e-26
294.911
9.87664e-57
209.684
0.00138489
17.9728
1.86709e-47
220.758
210.066
206.695
176.345
8.49118
254.668
7.36345
0.422794
4.04116e-05
4.97899e-11
1.77295e-64
63.9526
-5.67751e-61
58.2687
2.2118e-100
-5.7714e-83
204.346
-4.9442e-99
108.244
246.026
291.556
1.09019e-42
281.889
185.388
-9.87348e-174
8.36235e-79
0.585911
-8.13375e-67
280.108
6.86442e-17
3.632e-25
3.72414
0.0028575
2.08128e-12
166.244
6.00943e-06
184.452
278.622
4.24254e-06
3.72308e-07
0.0110751
288.506
1.38104
168.64
5.90499e-09
7.58494e-37
8.68973e-26
5.19646e-27
2.01989e-12
0.0161241
238.373
4.40131e-113
9.11198e-19
163.113
13.7079
97.402
1.08772e-41
5.56179e-46
8.66557
-5.4866e-100
2.94264e-13
230.186
124.778
36.2853
132.78
69.4658
-6.26289e-136
29.3343
20.4553
1.1793e-82
1.63843e-25
39.0251
3.89223e-87
119.474
281.841
105.449
3.43696e-35
2.2222
1.76626e-78
1.49298e-25
17.7644
93.3435
69.9352
3.13557
3.52978e-34
5.80791e-53
1.06092e-68
7.17387
2.30945e-37
1.71177e-59
5.22307e-07
1.93154e-70
232.148
6.13685e-06
195.664
5.72519e-67
1.25914e-81
291.152
3.75628e-07
5.72929
1.73177e-71
1.02392
208.61
288.838
165.478
0.0355872
117.599
4.50786e-148
1.35676e-60
115.961
4.07507e-62
0.000702455
-3.09528e-100
2.69552e-57
100.055
6.10601e-65
19.3121
-2.50139e-102
-8.19814e-65
2.43261e-43
3.06647e-25
118.838
151.681
7.9453
1.73698e-30
7.02947e-59
0.745926
77.6004
2.27342e-10
1.20414e-14
5.35974e-35
4.99218e-09
5.42701e-19
21.4153
1.08226e-25
3.21482e-73
189.059
4.74247e-06
192.695
-1.06491e-81
0.0175593
1.94568e-40
1.28698e-33
236.593
3.58839
5.45014
-1.05613e-134
0.0101726
1.8766e-30
55.0393
1.76324e-06
106.501
2.89483e-06
7.84608e-41
21.3519
175.731
232.804
218.185
3.5323e-41
9.31597e-45
0.0110413
25.1744
24.5078
189.384
2.55805
4.35971e-06
2.00887
-1.85649e-152
222.76
0.0116546
227.551
171.707
0.12814
1.2745e-73
295.462
0.101908
1.2333e-24
106.416
263.728
9.95054e-73
5.76753e-15
3.42204e-71
57.9663
202.438
95.6708
-4.98258e-66
3.32355e-133
176.668
11.9318
2.11857e-25
74.5719
3.58651
4.32518
0.00434248
2.68358e-06
0.251455
8.33152e-11
5.10674
230.004
1.42715e-105
3.94216
126.587
1.72473e-11
32.0462
113.563
141.146
0.000175617
1.68729e-23
0.010617
8.03676e-32
0.195118
92.5914
173.789
-6.47946e-59
233.763
3.19454e-171
12.9555
274.979
3.41062e-149
28.7021
0.117633
6.93217e-47
44.781
8.50744e-06
22.0482
-4.95003e-135
4.47217e-129
3.1164e-06
7.96698e-112
3.55533e-11
86.6795
10.8658
2.52782e-42
226.049
267.842
280.337
0.380993
1.02641e-36
190.054
254.261
25.7935
254.059
287.325
99.813
103.909
3.62878e-05
4.14084e-124
92.8831
205.5
176.508
121.555
93.0867
10.0868
126.864
189.146
262.163
5.68518e-74
-1.7678e-164
145.32
153.478
163.729
274.358
2.1506
0.00774005
5.3245e-17
0.00958152
228.359
6.42418e-11
1.07505e-46
2.52099e-45
200.382
263.499
9.64328e-68
149.952
9.9118
2.32862e-27
2.05868e-163
2.98177e-24
0.211593
1.14692e-25
19.2527
0.000871172
139.5
43.1304
103.642
0.00545334
89.2851
-1.42155e-129
233.048
5.83434
4.22033e-14
285.295
0.000384501
155.283
9.38849e-06
0.00412872
114.485
4.20205e-14
2.75763
2.28099e-41
8.44351e-35
2.26988e-106
-5.84177e-69
1.28751e-68
0.0178519
176.221
101.562
1.17543e-16
3.16486e-05
0.000286553
188.205
9.37768e-42
1.92795
1.33937e-05
3.66456
7.38417e-101
59.0472
1.54537e-92
0.0433355
82.6289
128.609
-3.70937e-108
1.60128e-05
1.2161e-65
0.512693
7.60852e-79
8.95681
5.0869
0.015757
2.74571e-30
207.774
3.33341e-25
0.125228
2.16772e-36
5.68861e-108
2.33656e-12
1.07119e-82
15.9802
165.231
25.2146
227.524
0.00523483
1.38822e-169
1.66229e-56
192.012
-9.93068e-63
3.77443e-125
1.00558e-161
148.086
230.175
8.88582e-60
95.4268
277.427
1.68636e-58
3.47443e-18
1.06824e-08
0.0226264
3.8739e-31
2.42162e-35
238.514
237.144
1.88771e-43
176.95
1.858e-15
4.19419e-105
250.507
3.65423e-13
278.157
-6.42876e-68
65.5362
1.81577e-10
284.967
6.77271e-39
3.35124e-25
88.0367
6.05286e-163
267.744
4.24347e-17
1.10637e-88
182.502
284.084
192.849
0.000912889
-1.99686e-106
3.41757e-58
116.004
8.311e-06
1.90671e-32
2.36972
2.59017e-139
283.148
101.105
4.45481e-28
2.67157e-36
256.545
215.929
150.393
3.96889e-16
2.3794
233.566
266.281
51.7142
184.145
3.82173e-72
2.59273e-07
127.748
1.24742e-32
-3.415e-81
94.4279
265.66
238.744
1.47927e-06
265.2
9.39473e-63
1.33581
1.53938e-33
0.666827
85.0849
0.507739
0.000159804
80.605
0.00292684
2.75279e-07
1.5206e-28
0.424953
0.0145243
0.149721
3.79043e-58
1.37412e-12
2.65356e-37
0.0802414
5.35982
5.43567
229.633
279.399
5.23395e-09
162.604
231.399
1.43419e-150
1.43635e-34
97.5597
198.611
249.107
148.793
0.00189157
2.92162e-10
0.92499
91.8028
3.21386e-14
2.7376e-140
281.154
4.39651e-08
6.02063e-56
222.695
0.186518
4.02521e-104
0.564059
0.000384376
133.26
0.591925
3.63872e-13
289.317
4.93921e-118
1.19978e-19
207.838
4.55053e-93
3.88395e-06
22.8679
-1.73615e-121
9.347e-15
-1.1935e-74
25.9101
2.98808
3.93376e-12
24.5418
3.45074e-54
1.00604e-11
3.22078e-30
7.75755e-69
8.63631e-64
103.35
3.35716e-17
-1.06613e-104
162.368
149.223
4.05915e-07
4.17559e-33
3.02312e-15
3.5874e-85
2.20795e-92
-9.99017e-74
33.2864
84.6894
204.352
1.3712e-06
24.0935
1.37277e-16
39.7809
3.62231e-14
109.706
2.65664e-32
5.14357e-36
0.397837
132.032
-1.61431e-179
6.08931e-08
9.07191e-05
242.222
0.00344658
164.729
5.88513e-109
43.2815
206.851
5.6376e-07
0.000213858
9.9282e-131
199.103
8.34925
-5.39414e-82
3.37828e-16
115.57
65.6772
114.523
0.184065
98.3785
61.0823
146.909
237.159
0.000302243
9.28331e-06
287.231
208.396
-2.32298e-62
2.52002e-41
-7.90294e-101
120.325
1.63941e-148
283.954
203.865
29.2961
0.618178
10.3697
99.7373
1.12958e-16
53.8105
179.25
0.245346
8.25994e-15
254.605
7.01984e-58
1.76586e-09
22.668
4.76055e-29
1.17814e-06
241.459
114.113
1.43669e-65
114.638
287.054
2.35555e-112
1.14699e-132
1.72096e-60
1.66604e-05
1.9043e-64
1.15575e-49
1.48811e-07
2.28433e-146
1.98853e-15
0.818625
1.57796e-06
53.8352
116.204
8.44423e-20
5.3947e-43
4.07045
1.06974e-07
7.84347e-119
7.3806e-05
153.411
0.00136397
6.10416e-07
264.014
131.936
268.611
153.82
59.7281
2.06949e-11
35.2962
121.05
7.33185e-99
257.534
-1.72797e-103
9.00082e-166
1.32972e-59
0.152262
279.491
240.756
1.74528e-24
-2.6069e-60
5.95156e-09
2.1537e-30
1.19558e-16
28.5347
1.32831e-07
1.67082e-32
5.73804e-71
-4.77484e-178
0.000979376
0.000237021
1.5947e-07
3.10776e-29
2.80329e-28
3.0183e-08
5.69229e-27
3.18714e-22
112.664
-3.427e-80
239.771
102.266
10.6981
114.438
285.09
6.78538e-11
1.33768e-37
30.9735
0.388061
271.318
246.063
0.0275906
2.4539e-07
0.105716
245.418
-1.02953e-99
2.51133e-75
1.69817e-47
223.271
6.67804e-42
16.517
4.91439e-70
4.52948e-174
0.0498789
223.054
151.342
1.2763e-41
1.03538e-89
-1.94566e-51
135.356
8.8033
0.246404
10.4857
139.5
37.3366
95.7708
9.26555e-60
6.64798e-102
7.93192e-75
234.116
6.04839e-72
217.529
1.33709e-05
5.91177e-63
1.4167e-12
1.67435e-12
1.25036e-11
6.66548e-09
2.72103e-16
189.955
115.149
0.0590596
252.804
0.0561943
282.924
6.59242e-17
268.125
0.00215615
170.519
3.16635e-145
199.036
6.99579e-87
0.327365
1.63655e-24
1.6098e-07
34.903
2.52022e-18
4.85553e-42
218.273
85.993
-3.16465e-71
41.6741
122.601
229.554
5.1275e-29
92.9844
80.4155
237.318
190.384
4.24735e-10
3.21531e-09
2.75875e-108
0.873367
228.178
5.23564e-40
47.6215
5.90512e-69
0.000647772
6.05921e-29
290.192
34.2332
1.71071e-67
9.03732e-147
33.1191
4.87903e-12
5.2381e-25
6.02548e-24
240.505
1.37592e-102
282.37
3.75128e-25
5.57981e-84
1.21939
0.0224508
291.056
1.86853
17.2901
4.77206e-76
1.5563
206.293
129.002
2.29211e-07
98.461
6.40726e-31
244.702
5.40355
2.33018e-07
2.92777e-77
4.43208e-32
1.47497
90.7125
169.94
2.86952
0.0920915
0.0405716
8.61624e-48
4.89362e-18
9.10477
-2.6993e-51
6.65364e-20
2.87814e-115
7.93679e-117
0.938042
16.7031
1.50824e-13
34.5105
3.58116e-33
93.7173
231.594
23.1767
1.31312e-13
2.08007e-17
171.161
2.08024e-37
147.144
4.74801e-06
0.00237736
1.19998
1.05909
9.57598e-76
31.7437
7.23468e-41
144.625
4.89794e-42
3.73121e-06
9.66809e-09
1.58488e-16
5.91383
115.415
278.75
2.32975e-61
114.101
4.54089
24.0656
92.5779
218.655
1.64782e-70
159.744
139.064
43.4328
4.68811
1.63079
136.964
7.0293e-50
1.07391e-27
5.93657e-134
4.47467e-64
21.8028
2.23456e-84
3.18962
1.86797e-25
-1.57973e-40
161.844
1.80242e-103
5.49082e-73
0.650295
241.695
17.8734
162.118
6.59395e-78
185.8
160.832
2.63872e-86
182.451
110.762
181.483
25.8202
223.437
0.613586
97.8632
22.9821
247.985
5.51853e-07
159.151
120.921
3.51392e-24
4.8162e-12
3.11406e-53
119.212
2.90608e-51
9.40201e-23
1.1275e-112
64.8295
0.000572379
5.60957e-07
5.32706e-115
103.661
2.10487e-08
228.131
2.25508e-14
0.00996383
3.54207e-66
1.86053e-34
1.47073e-25
-1.59164e-119
3.58787
20.0704
9.61245e-06
0.00249646
90.7878
3.37206e-88
228.205
154.199
131.353
240.884
97.3367
46.704
11.1248
6.19459e-15
74.0968
253.79
19.9927
276.88
180.362
32.874
2.79901e-26
6.38556e-59
23.5207
0.0922739
5.23129e-130
257.608
0.00926822
173.424
3.7468e-41
98.8524
43.8339
63.4678
267.925
-1.40417e-75
53.7225
1.98911e-64
6.87498e-75
1.84228
6.68081e-23
288.361
2.38926e-37
284.316
249.953
5.01115e-08
6.32181e-79
2.27634e-44
16.8823
0.0441481
139.107
9.92317e-12
-9.02829e-62
5.0341e-50
233.79
6.11152e-29
4.66782e-94
51.9064
1.93187e-05
0.0931793
4.93832e-06
109.423
7.79014e-07
208.166
27.1445
282.089
271.865
4.97875e-69
2.85276e-172
284.228
60.9265
4.42086e-29
6.39227
1.44397
5.03122
2.05207e-42
1.99249e-42
229.696
0.00259758
0.971435
1.32066e-07
1.85519e-26
2.32146e-07
1.33134e-17
3.06115e-31
50.7769
8.18849e-57
238.255
0.000449346
5.99417e-12
8.54923e-74
0.0514245
5.83109e-53
8.43492e-48
89.7042
6.51449e-116
0.00353803
115.949
228.451
183.975
9.94152e-110
214.031
241.856
1.653e-58
27.0255
0.00219669
193.6
-3.36079e-61
1.16531e-46
6.25003e-08
170.954
210.743
5.65453e-27
4.99329e-10
109.533
2.74906e-07
219.782
1.06136e-08
98.8116
-5.15194e-62
1.19888e-59
27.3147
7.65317e-08
11.0723
24.3715
0.0532773
5.45991e-62
83.7953
1.72095e-172
207.561
0.00852305
250.149
2.33852e-12
264.21
1.01609e-31
7.23717e-06
136.576
1.68823e-09
6.92457e-26
95.6837
284.604
1.64805e-36
7.24421e-30
0.0877083
2.62505e-68
6.9784e-26
72.4853
149.553
54.2858
121.337
2.12892e-145
233.224
207.219
75.2443
-3.30607e-107
1.0315e-84
1.1441e-48
158.563
-4.42186e-127
106.268
1.34143e-40
13.1471
183.781
8.32297e-26
278.737
5.57318e-62
8.09443e-08
261.271
154.325
0.00807521
0.160379
28.1888
237.94
206.728
183.9
0.312881
91.0204
-2.9775e-164
9.57677e-31
4.5966
9.34443e-07
1.91699e-56
-4.09978e-81
4.54088e-150
1.73575e-08
1.79025e-24
8.2296e-29
1.71664e-46
195.468
4.47747e-36
5.09327e-162
128.868
1.10315e-148
249.694
-1.34719e-41
1.34534e-163
2.16046e-32
33.1508
0.0377249
2.86758e-44
6.97513e-129
154.524
9.03257e-39
4.50826e-45
8.2877e-36
6.84586e-34
9.76159e-51
-1.44136e-108
1.19542e-94
7.57582
3.30188
0.117824
102.473
239.59
8.28215e-43
111.112
4.5726e-104
110.006
1.19332e-13
2.58654e-18
0.0473739
153.335
272.731
212.499
165.869
8.8639e-14
0.000114795
5.21768e-09
283.111
227.158
1.27787e-06
4.00301e-62
278.708
4.60969
182.288
237.797
8.62605e-14
-5.81401e-110
282.273
4.05525e-20
3.82309e-23
237.465
3.5586e-16
4.67268e-08
9.80072e-64
0.228334
1.26623e-06
152.527
268.167
1.09065e-57
1.1826e-81
2.97412e-100
5.79082e-26
1.13878e-52
212.427
194.192
1.08599e-12
131.869
0.0136022
175.891
14.277
1.33276e-23
108.373
2.61972e-164
288.066
1.01251e-05
24.8965
2.29101e-25
0.0586417
1.72702e-26
1.44087e-66
230.436
110.238
5.58598e-141
1.41688e-43
265.318
2.14551e-167
1.29672e-34
0.00089118
-1.17092e-134
2.27506e-61
22.4021
2.06205e-19
129.67
46.3516
2.71878e-08
4.57404e-06
79.8953
1.45839e-40
174.556
71.3364
5.14907e-08
260.712
11.0735
2.92443
274.57
154.272
137.965
4.21757e-08
-4.67906e-173
3.66429e-09
4.51556e-13
265.125
265.582
137.215
65.1693
174.255
88.0763
235.278
112.88
6.23136e-08
145.821
2.16606e-37
227.434
122.395
248.326
2.65246e-21
260.737
2.16786e-38
0.00346653
2.25806e-05
1.03122
7.72425e-15
9.84518e-49
8.89186e-07
238.714
2.34856e-30
212.085
21.9084
-4.57782e-77
1.55595e-10
2.49933
5.13238e-49
2.09516e-39
1.57222e-32
4.62423e-76
125.667
1.34194e-10
142.236
2.02112e-12
9.27878e-05
2.94034e-23
0.228663
3.21628e-30
2.10651e-45
4.51793
1.367
8.8963e-64
2.48186e-12
114.328
7.75808e-06
0.00984402
125.725
1.97523e-44
1.89846e-65
1.13146e-07
0.00648664
2.87987e-15
1.4494e-66
4.31869e-90
1.73284e-22
1.86822e-08
263.307
8.42872e-06
78.6199
272.128
230.261
1.35202e-12
1.66693e-11
6.68298
7.7665e-30
9.99999e-15
1.67164e-12
283.041
0.0959269
-1.00255e-165
2.29384e-13
22.0133
268.797
106.685
7.02309e-75
0.000146157
2.19377e-08
5.51728e-28
1.08376e-07
1.11142e-09
5.49935e-12
0.00386978
2.15482e-12
229.907
191.562
2.47511e-08
38.5756
3.64623
6.51159e-05
3.0202e-59
1.27602
4.78549e-11
7.93034e-144
106.906
8.06079e-13
266.099
211.624
1.31008e-05
1.02514e-64
112.528
9.69129e-07
196.492
89.1559
9.45967e-08
161.322
175.58
6.36748
250.34
3.91819e-112
0.123776
5.17932e-09
123.412
0.00121437
2.93902e-101
0.104658
122.025
0.0217076
1.11343e-52
260.726
215.323
9.36631e-15
249.696
272.618
258.843
178.795
2.5232e-35
219.776
4.16854e-10
181.45
237.085
66.3501
0.00779709
170.236
254.835
5.27473e-06
168.974
15.403
7.76977e-08
-6.77448e-80
2.16906e-05
272.001
4.79461e-76
11.7337
2.5337e-105
0.566554
-7.41446e-63
3.03013e-38
89.2248
3.29361
106.374
103.032
271.691
5.42091e-08
23.1339
5.27026e-170
3.44261e-66
1.01481e-66
254.244
33.0129
129.59
131.259
0.00127034
68.1526
1.78424e-07
8.53105e-50
2.2924e-61
0.0104487
1.7034e-145
18.9868
5.56346e-135
26.9608
0.0136694
95.1536
138.734
103.552
153.697
1.3336e-139
59.9314
265.409
0.00396743
0.00936317
0.229564
9.40772e-126
0.00646326
147.671
154.948
-1.2712e-59
279.371
10.3872
156.386
147.456
7.41672e-135
130.738
2.60752e-142
119.077
106.27
1.76973e-12
9.51945e-17
4.76368
236.082
-1.62216e-78
1.60879e-71
1.63163e-90
-2.98596e-135
7.75537e-62
63.9524
65.5127
7.8804e-28
3.10702e-14
0.168494
-6.02649e-167
4.23341e-62
45.5068
199.92
2.69221
0.0182397
2.09238
1.65901e-137
1.96079e-82
253.997
1.69746e-175
58.2787
3.98273
155.522
7.59868e-79
6.07069e-54
1.29506e-05
261.492
5.37389e-17
0.00104585
2.66419e-12
6.69217e-50
2.53512e-173
1.86012
17.4271
213.003
143.593
76.353
6.42351e-63
282.593
2.02569
83.8468
27.0946
-3.36902e-166
0.0135155
6.80888
2.25708
19.343
0.000804443
158.315
2.2505e-06
8.12156e-15
1.36382e-10
17.0989
90.7685
0.00199562
54.0266
1.82457e-48
230.458
-3.18474e-139
184.834
137.746
7.98086e-08
271.005
4.93277e-15
1.3872e-11
258.577
5.21008e-63
9.67376e-11
273.087
198.693
8.10963e-08
20.5553
4.29926e-09
0.941581
22.6077
0.00578844
1.01721e-113
0.0108532
240.855
24.6221
1.05369e-31
62.3434
6.95236e-07
150.729
2.09218e-64
212.938
1.15574e-64
5.07672e-10
2.736e-32
198.621
165.95
199.431
0.00760418
8.48114e-84
2.56064e-18
265.744
224.981
207.252
0.00981902
179.756
2.48405
63.6272
1.9342e-07
216.262
109.544
0.00230473
155.815
1.62707e-69
231.01
29.8251
2.86911e-80
3.45192e-68
3.04761
7.10853e-05
164.75
106.376
-1.19071e-140
5.31161e-07
273.175
113.442
0.0159136
2.235e-09
98.9241
179.489
15.5125
1.76656e-46
0.112165
3.72093e-38
241.172
24.7995
7.98986e-147
1.17067e-32
39.6956
9.763e-15
113.771
0.229536
53.9528
0.00229888
0.229462
5.57614e-49
6.52694
30.9415
9.60664e-114
222.477
186.275
21.3185
258.269
4.45645e-59
2.57529e-05
3.60874e-24
31.8611
254.469
1.98487e-08
1.10852e-31
1.45923e-06
4.05609e-131
1.24716e-08
42.134
54.9518
1.12347e-09
3.43116e-92
3.95833e-97
3.15799e-09
2.25826e-114
5.32093e-16
214.031
59.613
4.15574e-17
1.08845e-15
50.3568
3.70368e-152
176.432
253.708
9.43697e-21
113.626
0.0510528
264.62
2.33241e-29
220.967
48.0669
3.9437e-27
149.187
4.76307e-06
1.44791e-127
0.0259918
1.58762e-28
3.64715
2.08065e-93
279.651
9.28428
2.00027e-45
1.49149e-10
227.812
70.7231
203.914
0.00435245
98.1302
89.52
1.11359e-06
1.23397e-09
6.9481e-45
246.73
8.99583e-08
3.85608e-11
0.00550337
0.00735746
2.68404
-1.02271e-79
4.43683e-60
12.804
268.508
2.65471e-06
6.20143e-162
4.02822e-09
268.655
0.361204
0.653125
3.21122e-25
76.085
175.043
1.6312e-09
162.889
5.36233e-70
-8.28284e-60
8.24879e-09
87.6532
188.848
0.0623094
209.27
64.561
-2.9727e-139
67.4199
44.0469
1.02047e-09
86.8434
277.782
6.78518e-12
1.11486e-23
7.06784e-61
164.44
288.145
2.46022
198.528
-2.35374e-64
0.0573009
7.65577e-09
245.6
1.20872e-27
2.98872e-67
0.0384183
24.7108
2.33205e-104
9.24309e-51
1.8002e-101
1.27521e-42
183.119
6.89597e-72
96.843
12.7078
234.921
-7.33645e-61
158.434
0.023738
1.12528e-09
48.4321
1.62296e-05
179.804
10.9715
0.00102091
2.19211e-55
0.000279033
1.53051e-111
6.96077e-38
3.86561e-14
34.2211
1.3025e-94
5.32245
174.9
16.866
7.86292e-09
3.95787e-22
266.806
56.1556
1.64718e-32
3.72013e-101
23.3374
29.8902
271.696
1.72232e-06
258.347
229.827
240.455
114.458
225.959
77.7769
149.995
6.90858e-09
6.79484e-50
83.2469
184.973
196.885
94.6432
149.397
0.197349
0.00278144
0.0624902
-5.44028e-152
33.3086
4.8078e-58
1.01911e-90
0.00067503
218.154
1.05944e-08
2.2895e-22
107.98
18.8812
4.57537
3.00217e-25
5.72618e-25
47.1258
6.78397e-11
4.40032e-127
25.6317
2.57944e-16
265.424
0.00324206
1.4175e-21
82.1447
9.26687e-30
207.309
9.72665e-09
1.04469e-103
8.24721e-86
105.81
208.397
87.3868
39.5149
17.6804
1.67421e-05
5.36474e-22
4.0044e-05
3.37721e-40
172.3
80.1973
1.7125e-93
7.4233e-60
4.49724e-43
75.2765
277.734
-5.19252e-82
3.02746e-10
40.8406
21.5587
0.00141055
-1.2743e-105
-1.11343e-80
-3.996e-127
93.7668
-4.43572e-107
181.678
9.85525e-12
161.225
118.243
0.0115667
269.736
146.542
166.594
10.3546
29.9259
6.27775e-17
221.816
0.00741637
1.13404e-24
1.56646e-07
270.582
181.868
0.147397
138.958
278.246
9.96776e-87
146.676
169.304
1.50723e-12
0.10796
259.866
61.185
117.992
0.0230667
1.22761e-46
32.818
144.052
157.367
47.5507
187.257
9.05474e-81
0.0323383
1.51331e-20
1.00764e-30
10.0643
-1.69559e-65
0.00116366
57.8523
3.20562
0.000829963
241.287
2.00075e-110
1.38679e-119
7.25741e-37
73.0217
3.37479e-84
191.144
17.2639
6.29105
164.963
3.47868e-18
7.21168
1.34387e-12
1.76145e-10
251.971
22.1399
15.333
218.292
0.58095
281.827
2.14199e-07
17.7959
3.30285e-12
212.857
146.795
245.63
33.4614
1.83503e-10
49.2478
1.80662e-35
0.392027
1.16253e-78
249.665
234.125
0.00276267
2.27232e-15
2.26483e-66
93.4803
4.2642e-116
197.998
4.65706e-47
276.56
0.00877774
4.09884e-57
1.76372e-15
2.31783e-134
62.738
3.32101e-64
245.269
186.551
1.47025e-26
1.55647e-07
16.7757
199.38
5.68793e-78
-2.92371e-124
4.50852e-11
1.45248e-12
9.0097e-08
13.2157
0.15239
8.42264e-09
3.88018e-06
266.554
232.634
0.0474695
7.69103
0.446487
-7.38931e-58
8.71201e-07
-1.90003e-104
262.579
2.24033e-12
26.0773
32.2297
1.28117e-15
274.801
2.26915e-110
0.000888029
268.528
1.96789
258.178
87.3942
1.92316
233.656
66.2241
226.567
144.97
2.90421e-127
1.52307e-26
0.000472513
65.304
76.2256
87.9376
8.6525e-16
5.71329e-14
272.495
228.098
1.23466e-08
41.121
1.31974e-142
0.594591
182.472
8.37e-42
286.213
1.42789e-21
252.218
6.08917e-76
6.42083e-19
161.121
1.21919e-74
217.916
3.78631e-09
66.543
278.413
14.8811
2.86935e-22
8.8519e-103
3.64247e-20
1.48116
107.051
0.0833366
143.821
2.62009e-42
179.847
129.419
225.142
0.0464843
237.559
7.40223e-61
237.792
4.20535e-22
241.415
35.4624
18.6144
16.5258
2.16963e-84
26.4259
1.43906e-59
144.944
1.9278e-32
226.54
6.42954e-50
0.00564691
0.000261747
0.00080272
275.256
52.9281
0.0857862
54.7867
41.3418
284.539
92.1977
-8.6991e-102
0.691176
-5.31055e-147
2.42536
1.41237e-91
3.61394e-135
29.8188
56.4684
4.94148
288.802
3.60294e-48
0.0502882
7.21336e-10
188.055
63.9495
0.000595922
1.36072e-133
9.44986e-06
24.287
0.000400762
7.27705e-07
130.894
2.88521e-13
5.10788
244.724
-6.25828e-136
79.6446
1.76854e-56
-1.32585e-105
1.50272e-25
260.188
240.329
0.136838
138.709
3.65594e-81
1.13554e-27
177.845
32.2538
191.534
127.636
192.34
5.84766e-53
97.8094
172.876
0.251212
4.72556
1.26153e-05
16.4745
217.946
218.034
2.2397e-06
101.814
2.7382e-129
3.32068e-06
219.054
0.630737
2.20983e-26
239.11
6.7952e-34
148.915
26.2547
194.62
4.90434e-26
24.9516
0.854901
5.59119
18.2632
7.70718e-05
196.417
-6.20887e-103
11.9149
3.66863e-05
1.09489e-80
8.32963e-63
1.02833e-07
1.73818e-18
0.102838
4.18061e-77
4.88666e-10
68.0482
4.99451e-09
1.63822e-97
2.91691e-28
3.37841e-139
154.585
24.1013
5.54788
168.601
134.214
3.161e-73
144.023
6.00224e-11
276.584
5.69581e-13
3.14378e-09
0.0631325
193.053
178.053
3.33606e-46
154.846
1.16037e-36
9.76881e-27
1.79062e-25
0.126318
153.182
5.75376
195.488
2.71014e-05
12.4557
0.000772102
3.44794e-138
1.40291e-16
3.33765e-33
0.360331
0.000474862
1.95747e-16
1.07577e-98
1.5623e-18
234.359
9.19991e-11
61.6598
1.40748e-34
1.94949e-11
1.14835e-06
3.48262e-05
131.974
87.9782
0.0277296
3.40003
78.55
4.55154e-68
214.248
4.6938
7.21611
104.295
229.447
117.221
68.8226
2.14576e-28
175.567
169.26
29.3339
148.843
153.612
180.156
140.806
0.00579444
50.4504
2.22351e-61
1.08025e-07
23.7805
253.023
2.29704e-66
4.53979e-06
8.07375
9.98975e-26
4.19374e-30
152.11
124.291
78.784
36.8008
3.79505e-80
13.3575
13.3928
5.20416
3.09255e-09
9.30281
247.529
96.8054
1.14938e-09
0.327006
47.6073
152.854
195.106
3.278e-29
29.6902
5.50748e-17
147.504
106.256
1.21292e-164
-1.01636e-142
140.081
-7.46836e-141
1.35494e-25
0.417693
3.43374
5.60019e-08
262.149
261.796
1.39751
34.6163
2.86558e-08
4.15212e-18
6.13952e-56
138.868
0.0107952
3.46411e-12
2.72326e-31
159.11
212.526
194.756
3.69716e-48
152.886
1.58131e-06
6.794e-162
29.8215
173.974
4.2472e-38
1.9673e-28
2.17653e-91
11.9078
1.48152e-08
51.461
0.00372274
1.09474e-05
1.65645
41.7921
4.91306e-26
235.281
158.968
23.9194
220.867
215.589
5.80437
71.7246
260.371
0.983758
9.64605e-25
1.66212e-29
1.40962
246.727
5.81016e-54
0.00201331
0.94602
123.851
105.562
44.5694
1.22722e-46
1.21421e-98
3.61587e-36
144.374
15.775
194.403
3.47102e-26
224.209
0.167211
5.57755
6.43166e-13
258.296
2.57517e-98
0.010155
44.9705
255.462
181.724
0.578109
1.80309e-35
1.91827e-44
243.584
4.86179e-32
2.02262e-34
2.10621e-30
43.4019
4.58103e-126
0.00164681
-1.82926e-107
3.71444e-45
53.8054
157.339
237.09
1.12631e-06
8.09068e-29
7.44808e-121
0.00118852
105.894
4.73303e-22
120.932
251.271
4.09522e-23
252.22
3.21472e-31
2.36232e-51
0.584645
9.84978e-172
2.21729e-05
245.877
1.9067e-32
1.33145
0.000573861
3.96704
0.000724991
5.53924e-12
3.63954e-09
5.16625e-41
1.3294e-37
9.55896
0.961668
1.05727e-29
7.82644e-05
5.58135e-61
149.473
-1.9822e-101
73.0937
2.46001
4.22086
12.9172
8.33901
233.828
9.64244e-80
39.6838
5.89384e-11
275.887
246.7
5.09224
3.56588e-32
18.7388
205.711
295.179
49.7676
54.2027
-2.12836e-90
1.24248e-15
32.8837
189.034
204.725
4.92634e-103
134.467
8.85216e-42
7.987e-83
224.213
69.6337
30.4208
3.22096e-21
159.188
121.998
-5.73453e-52
31.3328
270.439
4.13146e-17
91.1417
156.285
206.384
1.21329
253.932
136.238
3.86774e-28
-2.03938e-143
88.1656
115.506
2.0282e-24
2.87468e-59
1.73185e-93
1.89721e-93
13.991
160.238
1.11734e-19
86.2713
1.72369e-14
163.986
3.51426e-43
222.967
7.24902e-27
2.07617e-94
106.964
44.8653
8.30763e-13
8.67108e-43
24.099
6.01946e-28
8.44367e-05
2.5847e-149
-1.79826e-103
1.1851e-74
5.83768e-143
6.86669e-71
4.49826e-130
246.759
3.0147e-05
6.00414e-131
2.14908e-77
6.87054e-28
0.0853817
0.00721319
185.309
0.00443363
2.62785
12.4114
0.0100406
3.21576e-53
239.002
-1.52954e-150
3.3195e-155
1.05211e-140
77.2969
257.947
1.25177e-17
4.30727e-16
7.27534e-39
70.989
-4.17563e-56
0.0951311
8.17574e-73
0.0586795
213.792
-3.7909e-67
-4.42751e-90
0.00528617
4.98086e-127
-4.01093e-125
-3.28997e-41
233.99
40.4196
7.41563e-69
189.007
135.027
176.648
155.506
3.0073e-11
1.7078e-35
9.79984e-38
7.91933e-43
9.68575e-24
1.81848e-06
0.00188905
-1.63473e-84
3.56936e-28
186.206
84.6321
4.87051e-31
1.43592e-16
236.843
227.814
5.43322e-115
37.9219
3.95394e-12
0.11549
-1.17266e-86
56.4871
75.1532
2.66983e-24
0.103887
24.9768
4.27874e-28
0.0984596
132.576
6.07536e-18
7.77197e-33
46.4797
2.14825e-35
157.29
1.1647e-105
186.59
1.65407e-41
277.374
125.731
94.3601
-7.0557e-55
72.3068
-6.16643e-75
1.92693e-17
0.0208617
226.687
1.57644e-07
148.379
251.852
5.58052e-45
224.268
1.39076e-23
3.57289
4.44489e-12
229.135
214.151
220.997
7.74585e-88
0.00325421
9.30254e-21
12.8685
147.576
99.0201
1.66755
2.7173e-29
271.758
5.82973e-09
1.81994e-33
2.72911e-70
5.74101e-52
3.70975e-27
169.152
1.16188
265.271
214.343
9.93664e-108
6.19164e-05
210.969
2.90028e-148
208.41
4.08187e-10
7.74975e-13
246.772
163.319
78.8499
140.806
0.14363
224.337
3.34647e-09
168.333
5.03112
-1.21575e-125
215.742
0.0544588
205.469
5.50604e-30
244.442
189.31
230.406
1.01804e-79
182.158
1.0666e-10
104.41
4.8999
1.08396e-30
150.13
0.015366
1.56529e-18
7.02598e-28
92.7451
1.94903e-28
168.058
4.31228e-139
147.059
159.926
265.852
247.847
6.57572e-79
8.77007
-6.46456e-129
198.707
109.906
1.61188e-23
2.47472
6.47672e-72
33.1076
9.31961
96.4611
8.84136e-23
204.414
220.096
92.359
0.660686
269.537
3.20074e-08
6.03667e-13
239.671
0.372692
1.5957e-45
1.37773e-65
-2.03865e-110
52.1228
1.03227e-45
90.2845
2.24412e-61
5.59216e-39
0.0532638
2.4624e-150
4.68659e-28
4.58896e-47
5.4367e-80
209.132
17.0848
211.105
52.0835
1.15734e-128
1.66125e-16
168.195
180.792
2.06732
253.45