/*--------------------------------*- C++ -*----------------------------------*\
  =========                 |
  \\      /  F ield         | OpenFOAM: The Open Source CFD Toolbox
   \\    /   O peration     | Website:  https://openfoam.org
    \\  /    A nd           | Version:  7
     \\/     M anipulation  |
\*---------------------------------------------------------------------------*/
FoamFile
{
    version     2.0;
    format      ascii;
    class       volVectorField;
    location    "14";
    object      U;
}
// * * * * * * * * * * * * * * * * * * * * * * * * * * * * * * * * * * * * * //

dimensions      [0 1 -1 0 0 0 0];

internalField   nonuniform List<vector> 
2413
(
(2.05303 -0.140025 0)
(2.05234 -0.14348 0)
(2.05128 -0.146207 0)
(2.04991 -0.148048 0)
(2.0493 -0.151767 0)
(2.04765 -0.15405 0)
(2.04585 -0.155105 0)
(2.04495 -0.158387 0)
(2.04245 -0.161361 0)
(2.03901 -0.162405 0)
(2.03676 -0.165 0)
(2.03392 -0.167495 0)
(2.03146 -0.170429 0)
(2.02893 -0.174067 0)
(2.02573 -0.175426 0)
(2.02235 -0.177594 0)
(2.02086 -0.180999 0)
(2.01814 -0.18331 0)
(2.01648 -0.186821 0)
(2.01377 -0.189348 0)
(2.01053 -0.191085 0)
(2.00846 -0.194595 0)
(2.0051 -0.196355 0)
(2.00277 -0.199174 0)
(2.00002 -0.20213 0)
(1.99627 -0.204406 0)
(1.99302 -0.207848 0)
(1.98959 -0.209805 0)
(1.98672 -0.212401 0)
(1.98463 -0.215849 0)
(1.98185 -0.217594 0)
(1.97789 -0.217935 0)
(1.97537 -0.217536 0)
(1.9719 -0.216543 0)
(1.96777 -0.21484 0)
(1.96208 -0.209638 0)
(1.95079 -0.194889 0)
(1.92468 -0.156425 0)
(1.89246 -0.0995602 0)
(1.85069 -0.0315733 0)
(1.80752 0.0442877 0)
(1.79852 0.0606862 0)
(1.78697 0.0840522 0)
(1.77267 0.107792 0)
(1.76889 0.114366 0)
(1.77284 0.112105 0)
(1.77784 0.109511 0)
(1.78275 0.106571 0)
(1.78971 0.102726 0)
(1.79808 0.0967059 0)
(1.80728 0.088452 0)
(1.81591 0.0797234 0)
(1.82361 0.0712916 0)
(1.82963 0.0671846 0)
(1.83563 0.0638614 0)
(1.84186 0.0588394 0)
(1.84703 0.0558266 0)
(1.85487 0.0486987 0)
(1.86173 0.0414481 0)
(1.86754 0.0379537 0)
(1.87364 0.0322553 0)
(1.87778 0.0296431 0)
(1.88036 0.0285648 0)
(1.88543 0.0230992 0)
(1.89034 0.0161661 0)
(2.05222 -0.050705 0)
(2.05443 -0.0549254 0)
(2.05602 -0.0591811 0)
(2.05658 -0.0608228 0)
(2.05742 -0.0636763 0)
(2.05922 -0.0692955 0)
(2.05944 -0.072911 0)
(2.0592 -0.0740866 0)
(2.0596 -0.0775521 0)
(2.05978 -0.08215 0)
(2.05891 -0.0843555 0)
(2.05818 -0.087099 0)
(2.05767 -0.091427 0)
(2.05616 -0.0939798 0)
(2.05468 -0.0959466 0)
(2.05451 -0.100292 0)
(2.05336 -0.103063 0)
(2.0521 -0.104623 0)
(2.05231 -0.109304 0)
(2.05131 -0.112384 0)
(2.05044 -0.114249 0)
(2.05011 -0.118155 0)
(2.04938 -0.121841 0)
(2.04846 -0.124058 0)
(2.04721 -0.126039 0)
(2.04707 -0.130289 0)
(2.04574 -0.132594 0)
(2.0446 -0.135021 0)
(2.04377 -0.138992 0)
(2.04203 -0.140726 0)
(2.04117 -0.14367 0)
(2.03863 -0.14684 0)
(2.03657 -0.150332 0)
(2.03437 -0.153553 0)
(2.03091 -0.155364 0)
(2.02832 -0.15839 0)
(2.02652 -0.162426 0)
(2.02336 -0.164062 0)
(2.02074 -0.166306 0)
(2.01846 -0.169566 0)
(2.01513 -0.170883 0)
(2.01334 -0.173743 0)
(2.01098 -0.176323 0)
(2.00777 -0.177399 0)
(2.00553 -0.180161 0)
(2.00212 -0.181889 0)
(1.99889 -0.183261 0)
(1.99594 -0.185155 0)
(1.9924 -0.187172 0)
(1.98909 -0.190011 0)
(1.98539 -0.191742 0)
(1.9826 -0.193922 0)
(1.98041 -0.197549 0)
(1.97742 -0.199272 0)
(1.9749 -0.201381 0)
(1.97313 -0.204267 0)
(1.97147 -0.206062 0)
(1.9681 -0.20773 0)
(1.96571 -0.206813 0)
(1.96263 -0.205449 0)
(1.95804 -0.20284 0)
(1.94947 -0.191471 0)
(1.93124 -0.166237 0)
(1.89565 -0.110929 0)
(1.86626 -0.0539984 0)
(1.82273 0.0204719 0)
(1.79683 0.0681001 0)
(1.79613 0.0726865 0)
(1.79008 0.0883417 0)
(1.78648 0.103194 0)
(1.78216 0.107661 0)
(1.78766 0.106007 0)
(1.79309 0.105298 0)
(1.79861 0.10269 0)
(1.80537 0.0989906 0)
(1.8134 0.0930619 0)
(1.82157 0.0857053 0)
(1.82987 0.0777428 0)
(1.83747 0.0699935 0)
(1.84335 0.0654723 0)
(1.84978 0.0602597 0)
(1.8555 0.0552393 0)
(1.85951 0.0539158 0)
(1.86533 0.0485412 0)
(1.87153 0.0417658 0)
(1.87696 0.0360382 0)
(1.88227 0.0296254 0)
(1.88511 0.0255248 0)
(2.04837 -0.0429949 0)
(2.05019 -0.0468803 0)
(2.0516 -0.0494184 0)
(2.05227 -0.0511848 0)
(2.05345 -0.0544351 0)
(2.05489 -0.0589956 0)
(2.05533 -0.0623903 0)
(2.05532 -0.064025 0)
(2.05525 -0.0664886 0)
(2.05565 -0.0705807 0)
(2.0551 -0.0740876 0)
(2.05406 -0.0756791 0)
(2.05338 -0.0783904 0)
(2.05277 -0.0821931 0)
(2.05119 -0.0842568 0)
(2.0502 -0.0866865 0)
(2.04978 -0.0903379 0)
(2.04847 -0.0920485 0)
(2.04788 -0.0949668 0)
(2.04759 -0.099321 0)
(2.04659 -0.101122 0)
(2.04586 -0.103502 0)
(2.0456 -0.107537 0)
(2.04487 -0.110992 0)
(2.04369 -0.112378 0)
(2.04318 -0.11532 0)
(2.04232 -0.119079 0)
(2.04066 -0.120731 0)
(2.03977 -0.123932 0)
(2.03851 -0.127232 0)
(2.03675 -0.128733 0)
(2.03434 -0.131024 0)
(2.0321 -0.134587 0)
(2.02982 -0.13805 0)
(2.02674 -0.139398 0)
(2.02253 -0.141289 0)
(2.02091 -0.144979 0)
(2.01798 -0.147423 0)
(2.01585 -0.14995 0)
(2.01418 -0.153963 0)
(2.01097 -0.155428 0)
(2.0089 -0.158286 0)
(2.00673 -0.161065 0)
(2.00342 -0.162553 0)
(2.00196 -0.165586 0)
(1.9986 -0.167532 0)
(1.99525 -0.169237 0)
(1.99346 -0.171765 0)
(1.98964 -0.173472 0)
(1.98654 -0.175702 0)
(1.98283 -0.17729 0)
(1.97963 -0.178816 0)
(1.97693 -0.18168 0)
(1.97428 -0.183677 0)
(1.97132 -0.185 0)
(1.97 -0.188786 0)
(1.96833 -0.191735 0)
(1.96686 -0.195051 0)
(1.96605 -0.1983 0)
(1.96321 -0.199868 0)
(1.96152 -0.198704 0)
(1.95865 -0.197425 0)
(1.95481 -0.195561 0)
(1.94752 -0.186997 0)
(1.93367 -0.166463 0)
(1.90723 -0.126967 0)
(1.87096 -0.0647469 0)
(1.84705 -0.0129896 0)
(1.81118 0.0563632 0)
(1.79869 0.0803587 0)
(1.80037 0.0797666 0)
(1.80096 0.0912075 0)
(1.79938 0.099947 0)
(1.79893 0.102737 0)
(1.80383 0.102472 0)
(1.80876 0.10185 0)
(1.81382 0.0990981 0)
(1.81978 0.0960831 0)
(1.82731 0.0907838 0)
(1.83507 0.0839898 0)
(1.84295 0.0764183 0)
(1.85015 0.0685644 0)
(1.85517 0.0642386 0)
(1.8614 0.0577159 0)
(1.86653 0.052072 0)
(1.8697 0.0512617 0)
(1.87326 0.0472398 0)
(1.87681 0.0412709 0)
(2.04386 -0.035489 0)
(2.04547 -0.0393159 0)
(2.04648 -0.0403164 0)
(2.04738 -0.0422541 0)
(2.04955 -0.0465338 0)
(2.0506 -0.0501782 0)
(2.05098 -0.0523415 0)
(2.05126 -0.0545637 0)
(2.0512 -0.0567476 0)
(2.05099 -0.0595805 0)
(2.05107 -0.0631723 0)
(2.0504 -0.0659229 0)
(2.04919 -0.0671746 0)
(2.04845 -0.0696361 0)
(2.04777 -0.0729013 0)
(2.04619 -0.0743862 0)
(2.04547 -0.0768373 0)
(2.04496 -0.0798209 0)
(2.04386 -0.0818519 0)
(2.04355 -0.0853777 0)
(2.0427 -0.0878837 0)
(2.04184 -0.0896542 0)
(2.04146 -0.0928244 0)
(2.04083 -0.0962199 0)
(2.03998 -0.0985119 0)
(2.03903 -0.100337 0)
(2.03835 -0.103726 0)
(2.03695 -0.106211 0)
(2.0357 -0.10886 0)
(2.03468 -0.112594 0)
(2.03301 -0.115139 0)
(2.03094 -0.117145 0)
(2.02821 -0.12041 0)
(2.02665 -0.124453 0)
(2.02372 -0.127069 0)
(2.02014 -0.128785 0)
(2.01815 -0.13286 0)
(2.01552 -0.135937 0)
(2.01318 -0.13835 0)
(2.01165 -0.142189 0)
(2.00864 -0.143639 0)
(2.00691 -0.146912 0)
(2.0047 -0.149711 0)
(2.00146 -0.150644 0)
(1.99957 -0.153377 0)
(1.9965 -0.155218 0)
(1.99301 -0.156867 0)
(1.99136 -0.15969 0)
(1.9875 -0.161105 0)
(1.98461 -0.163258 0)
(1.98094 -0.164727 0)
(1.9776 -0.166119 0)
(1.97461 -0.168664 0)
(1.97139 -0.169568 0)
(1.96884 -0.171107 0)
(1.96694 -0.174019 0)
(1.96455 -0.175925 0)
(1.96285 -0.178532 0)
(1.96168 -0.181555 0)
(1.96091 -0.184846 0)
(1.95975 -0.186491 0)
(1.9588 -0.190157 0)
(1.9565 -0.189658 0)
(1.95382 -0.188512 0)
(1.95075 -0.186437 0)
(1.94599 -0.180933 0)
(1.93526 -0.164898 0)
(1.91718 -0.134678 0)
(1.88654 -0.0826391 0)
(1.8594 -0.0295309 0)
(1.83792 0.0181956 0)
(1.81315 0.0766386 0)
(1.80706 0.0847914 0)
(1.81148 0.082724 0)
(1.81422 0.0903344 0)
(1.81379 0.0969771 0)
(1.81437 0.0986522 0)
(1.81892 0.0992536 0)
(1.82367 0.0984313 0)
(1.82826 0.0959385 0)
(1.83376 0.0933609 0)
(1.84051 0.0885488 0)
(1.84732 0.0823512 0)
(1.85433 0.075118 0)
(1.86023 0.06843 0)
(1.86424 0.0637151 0)
(1.86944 0.0557676 0)
(1.87252 0.0494322 0)
(2.0403 -0.0303844 0)
(2.04161 -0.0338176 0)
(2.04263 -0.0344788 0)
(2.04402 -0.0366281 0)
(2.04637 -0.0413221 0)
(2.047 -0.0444431 0)
(2.04716 -0.0450482 0)
(2.04804 -0.0474813 0)
(2.04881 -0.0510991 0)
(2.04853 -0.0531761 0)
(2.04814 -0.0553461 0)
(2.04782 -0.05815 0)
(2.04681 -0.0601832 0)
(2.04548 -0.0615479 0)
(2.04509 -0.0643386 0)
(2.04392 -0.0665471 0)
(2.04232 -0.0678029 0)
(2.04215 -0.0705255 0)
(2.04131 -0.0728741 0)
(2.0403 -0.0747601 0)
(2.03977 -0.0774792 0)
(2.03878 -0.0789515 0)
(2.03813 -0.081107 0)
(2.03761 -0.0842394 0)
(2.03645 -0.0860076 0)
(2.0355 -0.0876207 0)
(2.03498 -0.0907498 0)
(2.03352 -0.0932834 0)
(2.03171 -0.0947725 0)
(2.03074 -0.0979833 0)
(2.02912 -0.101195 0)
(2.02709 -0.103306 0)
(2.02414 -0.104936 0)
(2.02143 -0.10788 0)
(2.01951 -0.111435 0)
(2.01624 -0.113238 0)
(2.01362 -0.11663 0)
(2.01103 -0.120024 0)
(2.00804 -0.121844 0)
(2.00661 -0.125726 0)
(2.00386 -0.127468 0)
(2.00188 -0.13022 0)
(2.00027 -0.133643 0)
(1.99759 -0.135014 0)
(1.99564 -0.138071 0)
(1.99271 -0.140095 0)
(1.98928 -0.141665 0)
(1.98745 -0.144842 0)
(1.98363 -0.146139 0)
(1.9804 -0.147997 0)
(1.9775 -0.150196 0)
(1.97372 -0.151225 0)
(1.97097 -0.153619 0)
(1.96803 -0.155468 0)
(1.96525 -0.156682 0)
(1.96358 -0.159915 0)
(1.96123 -0.161989 0)
(1.95895 -0.163612 0)
(1.95801 -0.167358 0)
(1.95657 -0.168864 0)
(1.95597 -0.171841 0)
(1.95565 -0.175683 0)
(1.95485 -0.178136 0)
(1.95447 -0.18093 0)
(1.95202 -0.181285 0)
(1.95081 -0.180141 0)
(1.94879 -0.178412 0)
(1.94555 -0.174986 0)
(1.93847 -0.1637 0)
(1.9246 -0.138829 0)
(1.90423 -0.102322 0)
(1.87479 -0.046332 0)
(1.85799 -0.00694419 0)
(1.83683 0.0389763 0)
(1.82118 0.0843812 0)
(1.81755 0.0862161 0)
(1.82325 0.0842529 0)
(1.8274 0.0892033 0)
(1.82776 0.093876 0)
(1.82883 0.0952791 0)
(1.83298 0.0960849 0)
(1.83707 0.0955242 0)
(1.84102 0.0930442 0)
(1.84565 0.0908927 0)
(1.85128 0.0870171 0)
(1.85672 0.0812051 0)
(1.86136 0.0744425 0)
(1.86538 0.0674053 0)
(2.03576 -0.0233234 0)
(2.03759 -0.0275986 0)
(2.03884 -0.0290495 0)
(2.0399 -0.0301411 0)
(2.04181 -0.0340571 0)
(2.04258 -0.0375715 0)
(2.04308 -0.0383699 0)
(2.04389 -0.0403334 0)
(2.04498 -0.0438867 0)
(2.04486 -0.0463921 0)
(2.04442 -0.0475692 0)
(2.04363 -0.0495734 0)
(2.0434 -0.0520915 0)
(2.04257 -0.0541541 0)
(2.0415 -0.0558862 0)
(2.04036 -0.0577196 0)
(2.03882 -0.0589791 0)
(2.03816 -0.0609732 0)
(2.03777 -0.0634144 0)
(2.03676 -0.0649867 0)
(2.03609 -0.0668602 0)
(2.03558 -0.0688272 0)
(2.03473 -0.0701406 0)
(2.03415 -0.0723378 0)
(2.03341 -0.0749468 0)
(2.03215 -0.0759997 0)
(2.03096 -0.077545 0)
(2.03017 -0.0807736 0)
(2.02849 -0.0828106 0)
(2.02722 -0.0850539 0)
(2.02538 -0.0872757 0)
(2.02316 -0.0891001 0)
(2.02113 -0.0918574 0)
(2.01872 -0.0947822 0)
(2.01629 -0.0975645 0)
(2.0128 -0.0994811 0)
(2.01005 -0.102717 0)
(2.00763 -0.107108 0)
(2.00462 -0.108691 0)
(2.00284 -0.111727 0)
(2.00039 -0.113959 0)
(1.99857 -0.11682 0)
(1.99732 -0.120718 0)
(1.9951 -0.122189 0)
(1.99328 -0.125274 0)
(1.9908 -0.128157 0)
(1.98739 -0.129757 0)
(1.98541 -0.133075 0)
(1.98178 -0.134674 0)
(1.97846 -0.136561 0)
(1.97609 -0.139041 0)
(1.97236 -0.140323 0)
(1.96967 -0.142933 0)
(1.96645 -0.144626 0)
(1.96367 -0.145626 0)
(1.96154 -0.148598 0)
(1.95874 -0.149789 0)
(1.95625 -0.151038 0)
(1.9547 -0.153691 0)
(1.95301 -0.154901 0)
(1.95171 -0.156407 0)
(1.95116 -0.159534 0)
(1.95059 -0.162403 0)
(1.95003 -0.164287 0)
(1.95042 -0.168438 0)
(1.95045 -0.170252 0)
(1.94931 -0.172356 0)
(1.94843 -0.170254 0)
(1.94756 -0.169271 0)
(1.94584 -0.167153 0)
(1.94201 -0.160484 0)
(1.9325 -0.14419 0)
(1.91659 -0.113735 0)
(1.89538 -0.0727322 0)
(1.87168 -0.0213593 0)
(1.86212 0.00917842 0)
(1.84145 0.0532886 0)
(1.83242 0.0865727 0)
(1.82969 0.0851301 0)
(1.83578 0.0834387 0)
(1.8396 0.0875167 0)
(1.84025 0.0912725 0)
(1.84133 0.0921658 0)
(1.8455 0.0919686 0)
(1.84885 0.0919656 0)
(1.85109 0.0903293 0)
(1.85357 0.0882974 0)
(1.85722 0.0845428 0)
(2.03217 -0.017536 0)
(2.03416 -0.0215867 0)
(2.0354 -0.0236046 0)
(2.0364 -0.025115 0)
(2.03853 -0.0289138 0)
(2.03974 -0.032861 0)
(2.04048 -0.0340658 0)
(2.04094 -0.0354001 0)
(2.04199 -0.0384782 0)
(2.04234 -0.0416553 0)
(2.04216 -0.0433634 0)
(2.04177 -0.0448764 0)
(2.04108 -0.0469915 0)
(2.04093 -0.0493489 0)
(2.04013 -0.0513932 0)
(2.03867 -0.0524603 0)
(2.03753 -0.0542343 0)
(2.03716 -0.0568492 0)
(2.0362 -0.0583235 0)
(2.0351 -0.0592697 0)
(2.03448 -0.0607862 0)
(2.03402 -0.0625079 0)
(2.03347 -0.0642364 0)
(2.03263 -0.0657743 0)
(2.03163 -0.0674186 0)
(2.03046 -0.0688456 0)
(2.02894 -0.0696627 0)
(2.0276 -0.0713919 0)
(2.02648 -0.0739924 0)
(2.0245 -0.0751692 0)
(2.02287 -0.076924 0)
(2.02114 -0.0788546 0)
(2.01813 -0.0802449 0)
(2.01601 -0.0823595 0)
(2.01298 -0.0844135 0)
(2.00943 -0.0860609 0)
(2.00594 -0.0881939 0)
(2.00316 -0.0918523 0)
(2.00044 -0.0944466 0)
(1.99815 -0.096714 0)
(1.99623 -0.0991882 0)
(1.99432 -0.101558 0)
(1.99303 -0.105166 0)
(1.99091 -0.106882 0)
(1.98964 -0.110088 0)
(1.98717 -0.113135 0)
(1.98367 -0.114379 0)
(1.98137 -0.117592 0)
(1.9781 -0.119573 0)
(1.97436 -0.120904 0)
(1.97218 -0.12371 0)
(1.96854 -0.125002 0)
(1.96594 -0.127523 0)
(1.96306 -0.130208 0)
(1.96004 -0.131369 0)
(1.95816 -0.134552 0)
(1.95582 -0.137119 0)
(1.95305 -0.138006 0)
(1.9521 -0.141506 0)
(1.95048 -0.14286 0)
(1.94908 -0.144114 0)
(1.94878 -0.147614 0)
(1.94758 -0.149148 0)
(1.94726 -0.151722 0)
(1.94714 -0.154514 0)
(1.94758 -0.157929 0)
(1.94815 -0.160826 0)
(1.94886 -0.162935 0)
(1.94892 -0.16609 0)
(1.94889 -0.164705 0)
(1.94835 -0.163171 0)
(1.94734 -0.161254 0)
(1.94503 -0.156173 0)
(1.93992 -0.145618 0)
(1.92893 -0.12413 0)
(1.91306 -0.0912968 0)
(1.89224 -0.0495568 0)
(1.87568 -0.00933256 0)
(1.86669 0.0190361 0)
(1.84772 0.0606692 0)
(1.84296 0.0838976 0)
(1.84242 0.0802103 0)
(1.84824 0.0795905 0)
(1.85099 0.0827396 0)
(1.85216 0.0864871 0)
(1.85219 0.0883488 0)
(1.85418 0.0888225 0)
(1.85517 0.0887675 0)
(2.02868 -0.0115404 0)
(2.02999 -0.0142805 0)
(2.03094 -0.0154283 0)
(2.03278 -0.0181014 0)
(2.03514 -0.0226732 0)
(2.03597 -0.0258459 0)
(2.03653 -0.0267826 0)
(2.03736 -0.0283695 0)
(2.03838 -0.0314307 0)
(2.03874 -0.0344682 0)
(2.03874 -0.0367015 0)
(2.03847 -0.0384222 0)
(2.038 -0.040122 0)
(2.03727 -0.0417143 0)
(2.03612 -0.043202 0)
(2.03545 -0.0453842 0)
(2.03491 -0.0479215 0)
(2.03367 -0.0492817 0)
(2.03229 -0.0501288 0)
(2.03172 -0.0516436 0)
(2.03139 -0.053513 0)
(2.03053 -0.0546316 0)
(2.02978 -0.0560108 0)
(2.0293 -0.0579376 0)
(2.02845 -0.0594686 0)
(2.02741 -0.0603772 0)
(2.02601 -0.0612299 0)
(2.02466 -0.0628915 0)
(2.02387 -0.0646014 0)
(2.022 -0.0657693 0)
(2.02005 -0.0672185 0)
(2.01875 -0.0682891 0)
(2.01583 -0.0695339 0)
(2.01306 -0.0708818 0)
(2.01007 -0.0724805 0)
(2.00634 -0.0739512 0)
(2.00285 -0.0758118 0)
(1.99945 -0.078275 0)
(1.99644 -0.0807574 0)
(1.99417 -0.0828275 0)
(1.99285 -0.0859632 0)
(1.99075 -0.0878593 0)
(1.98931 -0.0907287 0)
(1.98755 -0.0932017 0)
(1.98631 -0.0962808 0)
(1.98417 -0.0996855 0)
(1.98097 -0.101299 0)
(1.97867 -0.104434 0)
(1.97569 -0.1068 0)
(1.97207 -0.108289 0)
(1.97011 -0.111257 0)
(1.96663 -0.112975 0)
(1.96377 -0.115198 0)
(1.9607 -0.117632 0)
(1.95724 -0.118566 0)
(1.95519 -0.121669 0)
(1.95267 -0.124211 0)
(1.94992 -0.125106 0)
(1.94881 -0.128229 0)
(1.94723 -0.129691 0)
(1.94575 -0.130537 0)
(1.94508 -0.133542 0)
(1.94382 -0.135259 0)
(1.9426 -0.136024 0)
(1.94253 -0.139058 0)
(1.94249 -0.141653 0)
(1.9427 -0.143231 0)
(1.9441 -0.147052 0)
(1.94515 -0.1495 0)
(1.94684 -0.152712 0)
(1.94807 -0.154144 0)
(1.94754 -0.154856 0)
(1.94831 -0.153318 0)
(1.94828 -0.152167 0)
(1.94717 -0.149712 0)
(1.94446 -0.144499 0)
(1.9376 -0.132214 0)
(1.92563 -0.108394 0)
(1.91009 -0.0738077 0)
(1.89301 -0.0351298 0)
(1.88197 -0.00348019 0)
(1.87275 0.0243855 0)
(1.85698 0.0636808 0)
(1.85415 0.081527 0)
(1.85345 0.076836 0)
(1.85851 0.0759145 0)
(1.85973 0.0796757 0)
(1.85823 0.0836943 0)
(2.02319 -0.00127081 0)
(2.02604 -0.00613034 0)
(2.02788 -0.0102474 0)
(2.02916 -0.0116181 0)
(2.03063 -0.0139881 0)
(2.03225 -0.0176365 0)
(2.03314 -0.019866 0)
(2.03463 -0.0229176 0)
(2.03561 -0.0262682 0)
(2.03555 -0.0276229 0)
(2.03519 -0.0289745 0)
(2.03592 -0.032188 0)
(2.03606 -0.0357662 0)
(2.03525 -0.0375493 0)
(2.03434 -0.0383575 0)
(2.03343 -0.0400421 0)
(2.03301 -0.0426941 0)
(2.03232 -0.0450295 0)
(2.03119 -0.0461981 0)
(2.03084 -0.0480458 0)
(2.03047 -0.0500518 0)
(2.02954 -0.0510476 0)
(2.02885 -0.052361 0)
(2.02863 -0.0544049 0)
(2.02799 -0.0558692 0)
(2.02716 -0.0568954 0)
(2.0259 -0.0578182 0)
(2.0242 -0.0590457 0)
(2.02339 -0.0599756 0)
(2.02162 -0.0607228 0)
(2.01967 -0.0617581 0)
(2.01783 -0.0622003 0)
(2.01509 -0.0628638 0)
(2.01197 -0.0636473 0)
(2.00871 -0.0645193 0)
(2.00478 -0.0657613 0)
(2.00108 -0.0669067 0)
(1.99744 -0.0683085 0)
(1.99369 -0.0700365 0)
(1.99126 -0.0713833 0)
(1.98923 -0.0731263 0)
(1.9875 -0.0752914 0)
(1.98577 -0.0775689 0)
(1.98422 -0.0801161 0)
(1.98249 -0.0822997 0)
(1.98064 -0.0852976 0)
(1.97776 -0.0871812 0)
(1.975 -0.0894237 0)
(1.97242 -0.0920422 0)
(1.96895 -0.0935292 0)
(1.96701 -0.0964679 0)
(1.96349 -0.0985413 0)
(1.96021 -0.100398 0)
(1.95769 -0.103763 0)
(1.95441 -0.105162 0)
(1.9519 -0.107723 0)
(1.94971 -0.111111 0)
(1.94674 -0.112007 0)
(1.94588 -0.115238 0)
(1.94475 -0.118078 0)
(1.94323 -0.119063 0)
(1.94319 -0.122825 0)
(1.94207 -0.125041 0)
(1.94109 -0.126067 0)
(1.9411 -0.129332 0)
(1.94072 -0.131063 0)
(1.94102 -0.132916 0)
(1.94151 -0.134746 0)
(1.94287 -0.138205 0)
(1.94419 -0.140521 0)
(1.94603 -0.143598 0)
(1.94761 -0.145885 0)
(1.94904 -0.14869 0)
(1.94972 -0.151004 0)
(1.95035 -0.149571 0)
(1.95006 -0.147988 0)
(1.94919 -0.146075 0)
(1.94766 -0.142032 0)
(1.94472 -0.13456 0)
(1.938 -0.120642 0)
(1.92647 -0.0960577 0)
(1.91174 -0.0637189 0)
(1.89794 -0.0300292 0)
(1.88827 -0.000350673 0)
(1.88021 0.0235172 0)
(1.86593 0.0596586 0)
(1.86316 0.074401 0)
(1.86267 0.0698405 0)
(2.01993 0.0054475 0)
(2.02154 0.00270576 0)
(2.02249 0.000905009 0)
(2.02468 -0.0024759 0)
(2.02734 -0.00727989 0)
(2.0286 -0.0104745 0)
(2.02919 -0.0112435 0)
(2.02972 -0.0126134 0)
(2.03162 -0.0166 0)
(2.03275 -0.0209834 0)
(2.03277 -0.0229824 0)
(2.0321 -0.0235942 0)
(2.03162 -0.0256659 0)
(2.03209 -0.0291129 0)
(2.03185 -0.0320406 0)
(2.03082 -0.0331937 0)
(2.02949 -0.0342557 0)
(2.02918 -0.0366241 0)
(2.02868 -0.0391276 0)
(2.02759 -0.0401198 0)
(2.02673 -0.0414897 0)
(2.02648 -0.0434394 0)
(2.02628 -0.0454363 0)
(2.02571 -0.0472047 0)
(2.02473 -0.0482373 0)
(2.0238 -0.0491339 0)
(2.02254 -0.0504561 0)
(2.0219 -0.0519135 0)
(2.02098 -0.0530172 0)
(2.01911 -0.0536341 0)
(2.01721 -0.054611 0)
(2.01535 -0.0550246 0)
(2.01273 -0.0553688 0)
(2.00958 -0.0558526 0)
(2.00612 -0.0564547 0)
(2.00239 -0.0570776 0)
(1.9987 -0.0576152 0)
(1.99546 -0.0586108 0)
(1.99191 -0.0602699 0)
(1.98848 -0.0610701 0)
(1.98617 -0.0620312 0)
(1.9843 -0.0635482 0)
(1.98209 -0.0649948 0)
(1.98088 -0.0675704 0)
(1.97923 -0.0698441 0)
(1.97692 -0.071328 0)
(1.97501 -0.0739215 0)
(1.9725 -0.0761938 0)
(1.96994 -0.0785006 0)
(1.96682 -0.0801274 0)
(1.96389 -0.0821585 0)
(1.96037 -0.0841049 0)
(1.95667 -0.0855603 0)
(1.95399 -0.0887743 0)
(1.95107 -0.0913872 0)
(1.94829 -0.0934882 0)
(1.94603 -0.096455 0)
(1.94321 -0.0976576 0)
(1.94176 -0.100378 0)
(1.94067 -0.103555 0)
(1.93921 -0.104757 0)
(1.93903 -0.108256 0)
(1.93813 -0.111301 0)
(1.93706 -0.111902 0)
(1.93711 -0.11494 0)
(1.93683 -0.117343 0)
(1.93662 -0.117763 0)
(1.93742 -0.120364 0)
(1.93803 -0.12215 0)
(1.93904 -0.12403 0)
(1.94057 -0.12662 0)
(1.9422 -0.128708 0)
(1.9444 -0.13252 0)
(1.94617 -0.135586 0)
(1.94773 -0.136884 0)
(1.94898 -0.137974 0)
(1.94892 -0.139334 0)
(1.95003 -0.13834 0)
(1.94984 -0.137166 0)
(1.94914 -0.135553 0)
(1.94757 -0.133015 0)
(1.94378 -0.125604 0)
(1.93725 -0.111161 0)
(1.92699 -0.0875431 0)
(1.91533 -0.0593555 0)
(1.90332 -0.029369 0)
(1.8941 -0.00187713 0)
(1.88506 0.022052 0)
(2.01458 0.0163338 0)
(2.01732 0.0121349 0)
(2.01951 0.00747036 0)
(2.021 0.00529581 0)
(2.02208 0.00389987 0)
(2.02365 0.00093562 0)
(2.02562 -0.00291553 0)
(2.02727 -0.00670872 0)
(2.02818 -0.00916384 0)
(2.02817 -0.0100545 0)
(2.02832 -0.012149 0)
(2.02967 -0.0164259 0)
(2.02963 -0.0202216 0)
(2.02886 -0.0210792 0)
(2.02774 -0.021807 0)
(2.02791 -0.0245487 0)
(2.02794 -0.0284261 0)
(2.02695 -0.030627 0)
(2.02566 -0.0312314 0)
(2.02487 -0.0327874 0)
(2.02515 -0.035993 0)
(2.02506 -0.0391919 0)
(2.02433 -0.0403477 0)
(2.02375 -0.0415463 0)
(2.02346 -0.0434998 0)
(2.02355 -0.0462202 0)
(2.0227 -0.0476173 0)
(2.0215 -0.0487335 0)
(2.02081 -0.0492137 0)
(2.01937 -0.0503698 0)
(2.01738 -0.0513821 0)
(2.01554 -0.0525248 0)
(2.01326 -0.0528787 0)
(2.01019 -0.0531712 0)
(2.00673 -0.0531979 0)
(2.00288 -0.0531082 0)
(1.99883 -0.0529655 0)
(1.9951 -0.0527967 0)
(1.99191 -0.0534783 0)
(1.98839 -0.0548199 0)
(1.98526 -0.0556687 0)
(1.98291 -0.0566011 0)
(1.98082 -0.0574596 0)
(1.97866 -0.0582882 0)
(1.97711 -0.0596536 0)
(1.97476 -0.0606002 0)
(1.97264 -0.0620464 0)
(1.97014 -0.0635837 0)
(1.96729 -0.0650285 0)
(1.96435 -0.0666692 0)
(1.96122 -0.0684369 0)
(1.95794 -0.0705156 0)
(1.95431 -0.0721397 0)
(1.9509 -0.0744109 0)
(1.94784 -0.0773481 0)
(1.94461 -0.0787594 0)
(1.94253 -0.081515 0)
(1.94049 -0.0842973 0)
(1.93841 -0.08667 0)
(1.93757 -0.0906001 0)
(1.93605 -0.0923555 0)
(1.93578 -0.0956403 0)
(1.93539 -0.0996739 0)
(1.93453 -0.100991 0)
(1.93504 -0.104294 0)
(1.93522 -0.107493 0)
(1.93538 -0.10867 0)
(1.9362 -0.110832 0)
(1.93709 -0.113324 0)
(1.93785 -0.114661 0)
(1.93903 -0.116562 0)
(1.94049 -0.118582 0)
(1.94202 -0.120869 0)
(1.94391 -0.124382 0)
(1.94556 -0.126239 0)
(1.94768 -0.129201 0)
(1.94965 -0.133217 0)
(1.95075 -0.135201 0)
(1.95142 -0.135724 0)
(1.95159 -0.135732 0)
(1.95118 -0.134926 0)
(1.95103 -0.133676 0)
(1.95062 -0.131402 0)
(1.94901 -0.126646 0)
(1.94562 -0.118892 0)
(1.93924 -0.105575 0)
(1.9298 -0.0846383 0)
(1.91815 -0.0593881 0)
(2.01127 0.0239114 0)
(2.0135 0.0204906 0)
(2.01461 0.0182393 0)
(2.01626 0.0156088 0)
(2.01887 0.0111671 0)
(2.02035 0.00819949 0)
(2.02116 0.00716965 0)
(2.02217 0.00506901 0)
(2.02425 0.000901912 0)
(2.02543 -0.00313966 0)
(2.0257 -0.0047271 0)
(2.02529 -0.00571218 0)
(2.02544 -0.00852774 0)
(2.02597 -0.0121592 0)
(2.02581 -0.0150462 0)
(2.02503 -0.0162809 0)
(2.02362 -0.017253 0)
(2.02326 -0.0199 0)
(2.02328 -0.0235306 0)
(2.0226 -0.0258887 0)
(2.02159 -0.0267661 0)
(2.02051 -0.0279981 0)
(2.02081 -0.0309231 0)
(2.02144 -0.0344862 0)
(2.02125 -0.0367951 0)
(2.02061 -0.0381445 0)
(2.01969 -0.0386585 0)
(2.0189 -0.0394763 0)
(2.01836 -0.0413029 0)
(2.01681 -0.0426345 0)
(2.01479 -0.0444251 0)
(2.01362 -0.0456537 0)
(2.01147 -0.0462052 0)
(2.00859 -0.0468403 0)
(2.00545 -0.0471172 0)
(2.00188 -0.0469614 0)
(1.9978 -0.0467387 0)
(1.99351 -0.0465801 0)
(1.98944 -0.0466487 0)
(1.98594 -0.0471357 0)
(1.98314 -0.0480951 0)
(1.98105 -0.049148 0)
(1.97916 -0.0496892 0)
(1.97734 -0.0499731 0)
(1.97555 -0.0502254 0)
(1.97344 -0.0507162 0)
(1.97107 -0.0513993 0)
(1.96835 -0.0522003 0)
(1.96544 -0.0532683 0)
(1.96207 -0.0542552 0)
(1.95871 -0.055722 0)
(1.9551 -0.0570992 0)
(1.95166 -0.0586849 0)
(1.94802 -0.0603121 0)
(1.94438 -0.0624121 0)
(1.94139 -0.064662 0)
(1.93848 -0.066117 0)
(1.93692 -0.0694126 0)
(1.93463 -0.0717011 0)
(1.93278 -0.0743217 0)
(1.93187 -0.0779696 0)
(1.93104 -0.0807048 0)
(1.93085 -0.0847792 0)
(1.9303 -0.0871241 0)
(1.93076 -0.090021 0)
(1.93114 -0.0932294 0)
(1.93135 -0.0946194 0)
(1.93247 -0.0972962 0)
(1.93315 -0.0988859 0)
(1.93389 -0.100483 0)
(1.93501 -0.102676 0)
(1.93609 -0.103656 0)
(1.93749 -0.10586 0)
(1.93875 -0.108344 0)
(1.9403 -0.109952 0)
(1.94229 -0.11237 0)
(1.9442 -0.115821 0)
(1.94587 -0.118611 0)
(1.94766 -0.12134 0)
(1.94903 -0.122892 0)
(1.95004 -0.12448 0)
(1.95044 -0.126217 0)
(1.95094 -0.125112 0)
(1.95075 -0.124427 0)
(1.95041 -0.123728 0)
(1.94966 -0.122398 0)
(1.94804 -0.120113 0)
(1.94408 -0.113647 0)
(2.00727 0.0323591 0)
(2.00932 0.029631 0)
(2.01154 0.025214 0)
(2.01291 0.0231222 0)
(2.01412 0.0216346 0)
(2.01572 0.0187825 0)
(2.01779 0.0150262 0)
(2.01949 0.0114845 0)
(2.02038 0.00993608 0)
(2.02068 0.00858623 0)
(2.02158 0.00579336 0)
(2.02288 0.0018037 0)
(2.02315 -0.00146126 0)
(2.02255 -0.00235811 0)
(2.02143 -0.00318097 0)
(2.02175 -0.00602262 0)
(2.0218 -0.00996187 0)
(2.02089 -0.0120786 0)
(2.01948 -0.0126681 0)
(2.01824 -0.0141683 0)
(2.01867 -0.0175835 0)
(2.01884 -0.0217682 0)
(2.01835 -0.02386 0)
(2.01756 -0.0242803 0)
(2.01701 -0.0258468 0)
(2.01764 -0.0292027 0)
(2.01823 -0.0329128 0)
(2.01795 -0.0356579 0)
(2.01704 -0.0367287 0)
(2.0158 -0.0373199 0)
(2.01422 -0.0385387 0)
(2.01212 -0.0403841 0)
(2.01082 -0.0408974 0)
(2.0085 -0.0421896 0)
(2.00589 -0.0436943 0)
(2.00273 -0.0444693 0)
(1.99891 -0.0445294 0)
(1.99467 -0.0443892 0)
(1.99046 -0.0444124 0)
(1.98679 -0.0445219 0)
(1.98376 -0.0448621 0)
(1.98136 -0.045343 0)
(1.97932 -0.0452125 0)
(1.97755 -0.0449926 0)
(1.97574 -0.0447106 0)
(1.9737 -0.0444327 0)
(1.97119 -0.0446729 0)
(1.96842 -0.0448586 0)
(1.96508 -0.0452167 0)
(1.96147 -0.0453741 0)
(1.95769 -0.045828 0)
(1.95373 -0.0463502 0)
(1.94995 -0.0468572 0)
(1.94618 -0.0474911 0)
(1.94245 -0.0486993 0)
(1.93851 -0.0503143 0)
(1.9356 -0.051795 0)
(1.93324 -0.0542474 0)
(1.93112 -0.0572869 0)
(1.92841 -0.059225 0)
(1.92771 -0.0636224 0)
(1.92661 -0.0667015 0)
(1.92616 -0.0699823 0)
(1.92654 -0.0746061 0)
(1.92687 -0.0771454 0)
(1.92804 -0.0809271 0)
(1.92873 -0.0837933 0)
(1.93006 -0.0863771 0)
(1.93138 -0.0888175 0)
(1.93233 -0.0906717 0)
(1.93376 -0.09369 0)
(1.93501 -0.0948894 0)
(1.93616 -0.0960795 0)
(1.93761 -0.0995336 0)
(1.93884 -0.100739 0)
(1.94034 -0.101811 0)
(1.94223 -0.10547 0)
(1.94351 -0.107488 0)
(1.94528 -0.109596 0)
(1.9473 -0.112994 0)
(1.94881 -0.115775 0)
(1.95048 -0.119431 0)
(1.95148 -0.121741 0)
(1.95173 -0.122074 0)
(1.95225 -0.124096 0)
(1.95188 -0.123799 0)
(1.95122 -0.122403 0)
(1.95021 -0.120729 0)
(2.00417 0.038827 0)
(2.00589 0.0369575 0)
(2.00782 0.0334953 0)
(2.00892 0.0315735 0)
(2.01079 0.0289638 0)
(2.01266 0.0257164 0)
(2.01373 0.0240668 0)
(2.01515 0.0217099 0)
(2.0167 0.0186652 0)
(2.01796 0.0158057 0)
(2.01877 0.0136771 0)
(2.01904 0.0119304 0)
(2.0193 0.00949813 0)
(2.01963 0.0067378 0)
(2.01947 0.0045391 0)
(2.01914 0.00257503 0)
(2.0182 0.000950274 0)
(2.01701 -0.000612536 0)
(2.01685 -0.0034144 0)
(2.01647 -0.00659368 0)
(2.01547 -0.00791853 0)
(2.01413 -0.00890889 0)
(2.01405 -0.0116204 0)
(2.01484 -0.0156128 0)
(2.01499 -0.0191789 0)
(2.01453 -0.0204137 0)
(2.01353 -0.0206547 0)
(2.01281 -0.0227223 0)
(2.01344 -0.026413 0)
(2.01367 -0.0301304 0)
(2.01275 -0.0327059 0)
(2.01086 -0.0334881 0)
(2.00863 -0.0332935 0)
(2.00545 -0.0337465 0)
(2.00317 -0.0348516 0)
(2.00016 -0.0360667 0)
(1.99671 -0.0372328 0)
(1.99317 -0.0379425 0)
(1.98947 -0.0386255 0)
(1.9859 -0.0389075 0)
(1.9827 -0.0391052 0)
(1.98009 -0.0393024 0)
(1.97815 -0.0392 0)
(1.97652 -0.0388275 0)
(1.9748 -0.0384489 0)
(1.97273 -0.0381068 0)
(1.97022 -0.0380005 0)
(1.9673 -0.0380178 0)
(1.96409 -0.0382796 0)
(1.96071 -0.0380734 0)
(1.95724 -0.0384649 0)
(1.95339 -0.0382223 0)
(1.94954 -0.0381437 0)
(1.94566 -0.0374054 0)
(1.94192 -0.0376162 0)
(1.93759 -0.0382073 0)
(1.93362 -0.0390881 0)
(1.92984 -0.0402538 0)
(1.92725 -0.0429111 0)
(1.92455 -0.0449021 0)
(1.92266 -0.047864 0)
(1.92185 -0.0522378 0)
(1.92063 -0.0544614 0)
(1.92141 -0.0594206 0)
(1.92207 -0.0633209 0)
(1.92271 -0.0651978 0)
(1.92445 -0.0696845 0)
(1.92596 -0.0727924 0)
(1.92733 -0.0744847 0)
(1.92875 -0.077212 0)
(1.93029 -0.080354 0)
(1.9317 -0.0818483 0)
(1.93279 -0.0828798 0)
(1.93411 -0.0858546 0)
(1.93531 -0.0877146 0)
(1.9365 -0.0880789 0)
(1.93797 -0.0906101 0)
(1.93924 -0.0933871 0)
(1.9407 -0.0947069 0)
(1.94217 -0.0966833 0)
(1.94396 -0.10039 0)
(1.94514 -0.102412 0)
(1.94672 -0.105537 0)
(1.94793 -0.107724 0)
(1.94938 -0.111092 0)
(1.9495 -0.112322 0)
(1.95017 -0.112715 0)
(1.94895 -0.113594 0)
(2.00118 0.0447298 0)
(2.00265 0.0434345 0)
(2.00486 0.0400971 0)
(2.00606 0.0378077 0)
(2.00717 0.0366934 0)
(2.00908 0.0338674 0)
(2.01063 0.0309784 0)
(2.01198 0.0290255 0)
(2.01323 0.0270158 0)
(2.01421 0.0250434 0)
(2.01528 0.0226568 0)
(2.01637 0.0197597 0)
(2.01683 0.0173844 0)
(2.01661 0.0161429 0)
(2.01632 0.0145372 0)
(2.01605 0.012361 0)
(2.01582 0.00972776 0)
(2.01511 0.0076803 0)
(2.014 0.0067193 0)
(2.01286 0.00521508 0)
(2.01237 0.00277994 0)
(2.01214 -0.000420932 0)
(2.01172 -0.00309627 0)
(2.01088 -0.00384434 0)
(2.00993 -0.00528306 0)
(2.01095 -0.00908576 0)
(2.01152 -0.0134922 0)
(2.01126 -0.016403 0)
(2.01044 -0.0168087 0)
(2.00915 -0.0176777 0)
(2.00861 -0.0207816 0)
(2.00847 -0.0240171 0)
(2.00759 -0.0268282 0)
(2.00519 -0.0285625 0)
(2.00222 -0.0303366 0)
(2.00021 -0.0314578 0)
(1.99679 -0.0325061 0)
(1.99308 -0.0330794 0)
(1.98934 -0.0337853 0)
(1.98599 -0.0344925 0)
(1.98325 -0.035135 0)
(1.98115 -0.0360736 0)
(1.97945 -0.0366844 0)
(1.97773 -0.0366245 0)
(1.97607 -0.0364405 0)
(1.97408 -0.0361086 0)
(1.97161 -0.035725 0)
(1.96865 -0.0353199 0)
(1.96534 -0.0348506 0)
(1.96178 -0.0339999 0)
(1.95822 -0.0329121 0)
(1.95428 -0.0316287 0)
(1.95037 -0.0306849 0)
(1.94608 -0.0288816 0)
(1.9419 -0.0284451 0)
(1.93714 -0.0275187 0)
(1.93292 -0.0274811 0)
(1.92823 -0.0281856 0)
(1.92373 -0.02923 0)
(1.92094 -0.0311456 0)
(1.91847 -0.0334117 0)
(1.91708 -0.0369975 0)
(1.9159 -0.0399803 0)
(1.91597 -0.0438183 0)
(1.9169 -0.04854 0)
(1.91779 -0.0509932 0)
(1.92 -0.0556631 0)
(1.92185 -0.0598002 0)
(1.92332 -0.0612178 0)
(1.92553 -0.0648829 0)
(1.9275 -0.0690758 0)
(1.92894 -0.0703139 0)
(1.93025 -0.0718457 0)
(1.93229 -0.0758536 0)
(1.93369 -0.0782294 0)
(1.9348 -0.0784983 0)
(1.93639 -0.0810426 0)
(1.93757 -0.0838887 0)
(1.93877 -0.084708 0)
(1.94025 -0.0866813 0)
(1.94139 -0.0892053 0)
(1.94267 -0.0918709 0)
(1.94386 -0.0935978 0)
(1.94538 -0.0965586 0)
(1.94671 -0.0994987 0)
(1.94765 -0.102162 0)
(1.94897 -0.105425 0)
(1.94974 -0.108744 0)
(1.99842 0.0495814 0)
(1.99982 0.0487445 0)
(2.00187 0.0462488 0)
(2.00322 0.0438372 0)
(2.00429 0.0427576 0)
(2.00611 0.0403665 0)
(2.00758 0.0377311 0)
(2.00871 0.0363795 0)
(2.01017 0.0344531 0)
(2.01146 0.0322226 0)
(2.01254 0.0302058 0)
(2.01333 0.02831 0)
(2.01391 0.0262166 0)
(2.01398 0.024596 0)
(2.01399 0.0228305 0)
(2.01384 0.0208543 0)
(2.01322 0.0193338 0)