/*--------------------------------*- C++ -*----------------------------------*\
  =========                 |
  \\      /  F ield         | OpenFOAM: The Open Source CFD Toolbox
   \\    /   O peration     | Website:  https://openfoam.org
    \\  /    A nd           | Version:  7
     \\/     M anipulation  |
\*---------------------------------------------------------------------------*/
FoamFile
{
    version     2.0;
    format      ascii;
    class       volVectorField;
    location    "100";
    object      U;
}
// * * * * * * * * * * * * * * * * * * * * * * * * * * * * * * * * * * * * * //

dimensions      [0 1 -1 0 0 0 0];

internalField   nonuniform List<vector> 
41600
(
(-0.0600968 -0.18003 -3.23038e-20)
(-0.148479 -0.075563 -4.52097e-20)
(-0.203545 0.115911 3.10309e-23)
(-0.189668 0.364811 -3.61341e-20)
(-0.163092 0.556994 4.40993e-20)
(-0.14067 0.653915 -8.53985e-20)
(-0.0922902 0.620612 -1.11385e-20)
(0.0354211 0.419356 8.3202e-20)
(0.208532 0.11482 -1.71135e-20)
(0.377134 -0.18065 -2.44784e-20)
(0.507536 -0.399782 -8.16006e-21)
(0.584525 -0.531151 2.03725e-20)
(0.616764 -0.591067 -9.89033e-21)
(0.621253 -0.597006 -8.79829e-21)
(0.581485 -0.60287 -8.01876e-21)
(0.501703 -0.588903 1.87908e-21)
(0.479405 -0.452287 4.21353e-22)
(0.546755 -0.188796 -1.31009e-20)
(0.649148 0.093967 2.59255e-21)
(0.722391 0.305626 3.31181e-21)
(0.775519 0.419408 -1.39285e-20)
(0.799192 0.462906 1.16298e-20)
(0.780291 0.505736 -3.54356e-21)
(0.716127 0.530404 1.06638e-21)
(0.658999 0.449405 4.39009e-21)
(-0.0583877 -0.171753 -1.46859e-19)
(-0.150207 -0.0688409 2.2611e-19)
(-0.210395 0.11798 -4.62093e-20)
(-0.201797 0.361593 2.05091e-20)
(-0.175297 0.552588 -1.27339e-19)
(-0.145753 0.64673 1.31766e-19)
(-0.0796878 0.604049 -1.96121e-20)
(0.0645443 0.390852 -1.09427e-19)
(0.248819 0.0815818 2.69372e-20)
(0.421479 -0.211066 -8.51786e-20)
(0.548529 -0.421766 1.16344e-20)
(0.620438 -0.542634 3.45326e-20)
(0.644972 -0.594298 2.76914e-20)
(0.64264 -0.591705 4.94681e-20)
(0.60601 -0.585799 1.48189e-20)
(0.524174 -0.572583 1.64165e-20)
(0.483608 -0.457384 2.51382e-21)
(0.532717 -0.214071 3.95003e-20)
(0.622783 0.0646574 3.13113e-21)
(0.698098 0.281991 -1.14408e-20)
(0.75841 0.403799 -1.15255e-20)
(0.785652 0.461394 -2.31201e-20)
(0.7672 0.519331 -1.0468e-20)
(0.704823 0.552072 -8.7069e-22)
(0.658306 0.455812 -9.86354e-21)
(-0.0567044 -0.163301 3.41899e-20)
(-0.151185 -0.0620078 -7.78123e-20)
(-0.215474 0.120042 -9.97575e-20)
(-0.210944 0.357959 6.14206e-20)
(-0.183254 0.54707 1.17174e-19)
(-0.145107 0.637494 -1.51667e-19)
(-0.0609336 0.585495 8.19587e-20)
(0.0986198 0.361676 5.18046e-21)
(0.293665 0.0491013 1.22424e-19)
(0.469139 -0.239375 1.49257e-19)
(0.591677 -0.441095 9.09327e-20)
(0.657243 -0.551462 5.93217e-21)
(0.674722 -0.594938 5.15422e-22)
(0.664489 -0.585514 -4.59548e-20)
(0.63047 -0.568562 -4.39577e-20)
(0.548862 -0.553439 -2.13733e-20)
(0.493191 -0.45761 3.33549e-21)
(0.523516 -0.236299 -3.94662e-20)
(0.601659 0.0351249 9.85286e-21)
(0.678333 0.255365 -1.28812e-20)
(0.744935 0.385788 1.47881e-20)
(0.774449 0.458692 4.12233e-20)
(0.755365 0.531662 3.04862e-20)
(0.696594 0.570883 -1.00518e-20)
(0.665963 0.45991 -1.09254e-20)
(-0.0550624 -0.15472 -2.39772e-19)
(-0.151419 -0.0551092 3.17324e-20)
(-0.218761 0.122064 3.37148e-19)
(-0.217039 0.353886 -1.86588e-19)
(-0.186875 0.540435 1.013e-19)
(-0.138785 0.626356 3.99095e-19)
(-0.0365648 0.565221 -2.17169e-19)
(0.137494 0.33225 3.63646e-19)
(0.342648 0.0177011 1.83264e-19)
(0.519507 -0.265292 1.88887e-19)
(0.636536 -0.45752 4.45329e-20)
(0.694516 -0.557641 -1.39732e-19)
(0.705485 -0.592993 -6.48438e-20)
(0.686868 -0.578269 3.39369e-20)
(0.654456 -0.551481 3.9074e-20)
(0.574982 -0.532171 2.81395e-21)
(0.507816 -0.453051 -1.95455e-20)
(0.52006 -0.255158 2.59058e-20)
(0.58697 0.00574638 -6.72047e-20)
(0.66368 0.22622 -3.9918e-20)
(0.735403 0.365804 3.19949e-20)
(0.765334 0.455097 -1.11933e-20)
(0.744782 0.542463 1.17656e-20)
(0.691525 0.585733 2.26092e-20)
(0.681424 0.461252 1.13911e-20)
(-0.0534773 -0.146069 3.65787e-20)
(-0.150923 -0.0481974 -4.72822e-19)
(-0.220252 0.124008 3.68854e-19)
(-0.220049 0.349355 -3.63229e-20)
(-0.186143 0.532693 -3.91713e-19)
(-0.126936 0.613526 -3.34757e-19)
(-0.00714881 0.543554 1.01531e-19)
(0.180931 0.302872 -3.21797e-19)
(0.395258 -0.0122814 -2.05741e-19)
(0.571947 -0.288575 -3.04426e-19)
(0.68254 -0.470861 -2.03501e-20)
(0.731934 -0.561174 5.52277e-20)
(0.736641 -0.588567 1.02452e-19)
(0.709859 -0.569795 -5.28247e-20)
(0.677621 -0.534784 6.15968e-20)
(0.601846 -0.509537 -4.73034e-20)
(0.526946 -0.444127 -4.25206e-20)
(0.523099 -0.270485 -2.0681e-20)
(0.579617 -0.022847 -8.6851e-21)
(0.65462 0.195256 5.11736e-20)
(0.729807 0.344398 -5.21929e-20)
(0.757911 0.450899 2.36757e-20)
(0.735521 0.551472 -3.80203e-20)
(0.689163 0.595631 -2.98338e-20)
(0.703066 0.459289 -5.05628e-21)
(-0.0519664 -0.1374 1.18186e-19)
(-0.149723 -0.0413243 4.29038e-19)
(-0.219965 0.125835 -9.75065e-19)
(-0.219982 0.34435 4.8712e-19)
(-0.1811 0.523871 2.37077e-19)
(-0.109817 0.599222 -6.01653e-20)
(0.0267297 0.52082 2.93081e-19)
(0.228595 0.273817 -4.04235e-20)
(0.450898 -0.0405188 1.03094e-19)
(0.625816 -0.309019 3.11546e-19)
(0.729046 -0.481015 1.57878e-19)
(0.769226 -0.56206 -7.79239e-21)
(0.767562 -0.581844 -5.69453e-20)
(0.733499 -0.559932 1.75665e-19)
(0.699724 -0.518604 -3.10087e-20)
(0.628833 -0.486318 7.04108e-20)
(0.549926 -0.431484 2.5868e-20)
(0.532567 -0.282324 6.34877e-20)
(0.579764 -0.0501311 1.63034e-20)
(0.651247 0.163348 -4.33651e-20)
(0.727655 0.322194 3.58346e-20)
(0.751803 0.446307 -4.93664e-20)
(0.727749 0.558562 -1.43319e-20)
(0.688505 0.599865 -5.08386e-20)
(0.728718 0.453278 -1.45073e-20)
(-0.0505486 -0.128767 -2.06294e-19)
(-0.147855 -0.0345449 -5.71724e-19)
(-0.217938 0.127504 3.64931e-19)
(-0.216887 0.338853 -7.61798e-19)
(-0.17186 0.514006 -2.50002e-19)
(-0.0877409 0.583599 8.13427e-20)
(0.0645669 0.497343 -4.69642e-19)
(0.280033 0.245341 3.16181e-19)
(0.508892 -0.0667341 -2.32952e-19)
(0.680466 -0.326463 -1.08273e-19)
(0.775409 -0.487961 -1.25093e-19)
(0.806113 -0.560308 1.91295e-19)
(0.79771 -0.573065 -1.63014e-19)
(0.757692 -0.548567 -7.8997e-20)
(0.720697 -0.502953 -2.80543e-20)
(0.655327 -0.463286 -5.4575e-20)
(0.576043 -0.415827 4.23595e-20)
(0.547378 -0.290821 -2.00112e-20)
(0.586462 -0.0757582 1.03284e-20)
(0.652983 0.131402 4.4624e-20)
(0.727957 0.299755 3.2279e-20)
(0.746762 0.441373 -6.20501e-20)
(0.721596 0.563886 7.74882e-20)
(0.68847 0.598188 9.95535e-20)
(0.756822 0.44246 -1.13711e-20)
(-0.0492438 -0.120219 9.2374e-19)
(-0.145365 -0.0279155 5.88525e-19)
(-0.214232 0.12897 1.78116e-19)
(-0.210855 0.332852 7.95706e-19)
(-0.158597 0.503147 3.61061e-19)
(-0.0611018 0.566849 6.62147e-19)
(0.10593 0.473388 -3.80408e-19)
(0.334692 0.217668 1.0589e-19)
(0.568503 -0.090693 2.82247e-20)
(0.73524 -0.340792 -1.7619e-19)
(0.821027 -0.491747 -5.55874e-20)
(0.842266 -0.555954 -2.03918e-19)
(0.826708 -0.562484 1.9475e-19)
(0.782154 -0.535682 1.80854e-20)
(0.740686 -0.48772 -8.45567e-20)
(0.680702 -0.441162 -7.99034e-21)
(0.604474 -0.397818 -4.21846e-20)
(0.565885 -0.296057 -1.88947e-20)
(0.59765 -0.0995794 5.40004e-20)
(0.658534 0.100159 3.8953e-20)
(0.729404 0.277425 5.14241e-21)
(0.74255 0.435933 8.68682e-20)
(0.71695 0.567843 1.25725e-20)
(0.689005 0.590846 2.93409e-21)
(0.787331 0.426339 4.84622e-20)
(-0.0480732 -0.111806 -7.96606e-19)
(-0.142311 -0.0214951 4.20163e-19)
(-0.208925 0.130188 -3.66021e-20)
(-0.202014 0.326332 1.32518e-19)
(-0.141537 0.491353 1.60865e-19)
(-0.0303911 0.549201 -9.5636e-19)
(0.15041 0.449151 6.09804e-19)
(0.39194 0.190998 -8.50736e-19)
(0.628966 -0.112216 -2.29952e-19)
(0.789476 -0.351955 -2.69383e-19)
(0.865373 -0.492473 -3.70084e-19)
(0.877306 -0.549088 4.15374e-21)
(0.85436 -0.550331 -3.41577e-20)
(0.806428 -0.521379 -1.13573e-19)
(0.760015 -0.472675 1.60097e-19)
(0.704406 -0.420538 1.00244e-19)
(0.634153 -0.378119 -3.38174e-20)
(0.586687 -0.2979 -2.50351e-20)
(0.610715 -0.121604 -2.54208e-20)
(0.666094 0.0700485 -7.10033e-20)
(0.730591 0.255275 -5.57104e-20)
(0.738522 0.429557 1.36098e-21)
(0.713367 0.570654 -1.29345e-19)
(0.69202 0.578361 -2.34565e-20)
(0.821667 0.404958 -1.33176e-19)
(-0.047059 -0.103573 9.02945e-19)
(-0.138761 -0.015343 -1.1845e-18)
(-0.202117 0.131109 -7.27429e-19)
(-0.190529 0.319278 -8.40034e-19)
(-0.120951 0.478685 1.81013e-19)
(0.0038223 0.530838 1.56198e-19)
(0.197581 0.424822 2.9493e-19)
(0.451086 0.165505 7.25353e-20)
(0.689516 -0.131181 1.44288e-19)
(0.842524 -0.359963 -2.4733e-19)
(0.907994 -0.490281 3.65651e-19)
(0.910836 -0.539862 -4.96871e-20)
(0.880601 -0.53679 2.05496e-19)
(0.829978 -0.505878 -3.96126e-20)
(0.779056 -0.457524 4.53782e-20)
(0.726111 -0.40176 -1.68426e-19)
(0.663748 -0.357516 -2.55382e-20)
(0.609145 -0.295978 -6.945e-20)
(0.623412 -0.141795 -2.97816e-20)
(0.673607 0.0411019 -2.70535e-20)
(0.730102 0.233199 4.44957e-20)
(0.733258 0.421492 -2.5913e-20)
(0.710117 0.571761 3.07345e-20)
(0.700817 0.561132 1.0468e-20)
(0.861411 0.379121 3.99125e-20)
(-0.0462244 -0.0955633 8.95602e-20)
(-0.134789 -0.0095197 1.27763e-18)
(-0.193927 0.131683 -6.95509e-20)
(-0.176596 0.311673 3.71419e-19)
(-0.097149 0.465212 -1.11011e-18)
(0.0409117 0.511892 -5.23364e-20)
(0.246967 0.400568 -4.92684e-19)
(0.511405 0.141334 4.98522e-19)
(0.749421 -0.147523 6.21281e-19)
(0.893779 -0.364892 5.5343e-20)
(0.948499 -0.485344 8.74789e-20)
(0.942498 -0.528488 -6.89158e-20)
(0.905423 -0.522002 -1.30262e-19)
(0.852341 -0.489479 -1.71645e-19)
(0.798048 -0.441998 -2.92e-20)
(0.745834 -0.384847 4.83508e-20)
(0.691842 -0.336971 1.32426e-19)
(0.633167 -0.289889 5.75459e-21)
(0.63463 -0.159711 2.98236e-20)
(0.678894 0.0130939 4.06446e-20)
(0.726488 0.211036 -8.86967e-20)
(0.724676 0.410725 -1.2088e-20)
(0.706138 0.569374 5.6187e-20)
(0.718016 0.539084 -7.60623e-20)
(0.90641 0.350016 3.04976e-20)
(-0.0455927 -0.0878134 -2.04781e-18)
(-0.13048 -0.00408673 -1.05629e-18)
(-0.184486 0.131857 8.52817e-19)
(-0.160438 0.303496 -3.91675e-19)
(-0.070484 0.451014 1.43953e-18)
(0.0802104 0.492452 -3.79651e-19)
(0.298037 0.376512 9.72426e-19)
(0.572175 0.118596 2.28589e-19)
(0.807998 -0.161231 -5.72609e-19)
(0.942702 -0.366873 5.69344e-19)
(0.986552 -0.477868 1.98353e-19)
(0.97202 -0.515217 -3.91319e-21)
(0.928794 -0.506091 -2.04629e-19)
(0.873243 -0.472486 1.05831e-19)
(0.816958 -0.425955 -1.39366e-19)
(0.76397 -0.369467 6.63498e-20)
(0.717255 -0.31748 -5.77936e-20)
(0.658523 -0.279567 1.3615e-20)
(0.644713 -0.174189 -1.37975e-20)
(0.679932 -0.0140561 -9.92622e-21)
(0.718194 0.188652 4.51559e-20)
(0.71065 0.396211 1.31933e-20)
(0.700104 0.560707 -4.35985e-21)
(0.74396 0.511452 -2.31903e-20)
(0.954531 0.319007 -1.37395e-20)
(-0.0451877 -0.0803563 1.86078e-18)
(-0.125925 0.000894213 4.26807e-19)
(-0.173945 0.131574 -1.91937e-19)
(-0.142293 0.294705 3.47578e-19)
(-0.0413542 0.436185 -1.18708e-18)
(0.121031 0.472577 8.96227e-19)
(0.350225 0.352729 -3.64395e-19)
(0.632712 0.0973646 -4.69473e-19)
(0.864631 -0.172348 -1.72521e-19)
(0.988834 -0.366083 -5.90959e-19)
(1.02187 -0.468089 -3.1905e-19)
(0.999226 -0.500318 2.18422e-19)
(0.950632 -0.4892 3.12779e-19)
(0.892638 -0.455141 3.72207e-19)
(0.835486 -0.409438 -1.03961e-19)
(0.781143 -0.355049 4.42463e-20)
(0.739359 -0.299817 5.59428e-20)
(0.684338 -0.265595 7.65132e-20)
(0.655074 -0.183412 3.03817e-20)
(0.675679 -0.0398076 5.77867e-20)
(0.703606 0.165852 2.00956e-20)
(0.689824 0.377167 6.67847e-20)
(0.691408 0.542802 -7.03846e-20)
(0.777447 0.477322 1.26864e-19)
(1.00262 0.287288 1.23007e-20)
(-0.045033 -0.0732195 -3.10638e-19)
(-0.121219 0.00536205 -6.82708e-19)
(-0.162463 0.130778 -6.49023e-19)
(-0.122426 0.2853 3.0656e-19)
(-0.0101954 0.420784 1.01486e-18)
(0.162682 0.45229 -2.16919e-19)
(0.402972 0.32925 -3.27402e-19)
(0.692406 0.0776742 -5.12935e-19)
(0.918785 -0.180955 -3.49289e-19)
(1.0318 -0.362735 -1.16684e-20)
(1.05424 -0.456269 -8.38025e-20)
(1.02403 -0.484055 -5.89488e-19)
(0.970832 -0.471502 -2.80847e-19)
(0.910632 -0.437594 4.01134e-20)
(0.853221 -0.392659 8.02343e-20)
(0.797939 -0.340971 -1.06762e-19)
(0.758252 -0.284287 -9.31164e-20)
(0.70921 -0.249229 -4.59376e-20)
(0.667288 -0.185581 7.42405e-21)
(0.66712 -0.0622105 -3.90201e-20)
(0.681753 0.142581 -4.59645e-20)
(0.662656 0.353163 -1.12214e-19)
(0.682389 0.513592 5.48795e-20)
(0.817611 0.436525 -4.9875e-20)
(1.04761 0.256184 2.548e-20)
(-0.0451518 -0.0664244 8.84979e-19)
(-0.116459 0.00925709 6.24855e-19)
(-0.150209 0.12941 7.87981e-19)
(-0.101125 0.275275 -4.81797e-19)
(0.0224836 0.404843 -1.20678e-18)
(0.204499 0.431581 -8.32665e-19)
(0.455793 0.306074 3.11299e-19)
(0.750743 0.059538 6.17295e-20)
(0.970009 -0.18717 1.28135e-18)
(1.07132 -0.357064 4.21219e-19)
(1.0835 -0.442687 2.13106e-19)
(1.0464 -0.466686 6.03615e-19)
(0.989313 -0.453203 -1.47115e-19)
(0.927367 -0.419922 -1.70536e-19)
(0.869859 -0.375893 8.25527e-20)
(0.81463 -0.326793 7.10943e-20)
(0.774715 -0.27064 3.72821e-20)
(0.731785 -0.232109 2.39017e-20)
(0.682237 -0.179908 -1.40709e-20)
(0.657914 -0.0779333 1.01768e-20)
(0.654152 0.119611 3.54833e-20)
(0.633213 0.324018 8.48465e-20)
(0.680067 0.472858 -4.83924e-20)
(0.864554 0.390272 2.90446e-20)
(1.08683 0.226473 -6.92913e-20)
(-0.0455663 -0.0599861 -1.30905e-18)
(-0.111743 0.0125222 7.87714e-19)
(-0.137357 0.127408 8.22327e-19)
(-0.0786753 0.26459 3.82405e-20)
(0.0560892 0.388412 3.86023e-19)
(0.245874 0.410399 3.14279e-19)
(0.508344 0.283187 -9.91484e-19)
(0.807315 0.0429543 6.85415e-19)
(1.01794 -0.191131 -1.11288e-18)
(1.10719 -0.349329 -3.25444e-19)
(1.1096 -0.427632 1.11013e-20)
(1.06636 -0.448458 3.49193e-19)
(1.00606 -0.434507 4.07575e-19)
(0.942935 -0.402187 -6.59047e-20)
(0.885323 -0.359363 1.08741e-19)
(0.831094 -0.312392 4.12152e-20)
(0.789892 -0.258213 2.80917e-20)
(0.751379 -0.215754 8.55398e-21)
(0.699794 -0.167392 -1.00808e-20)
(0.653742 -0.0837506 -1.53496e-20)
(0.627488 0.0992886 -3.14093e-20)
(0.61156 0.290408 2.85666e-20)
(0.694824 0.422882 1.40979e-20)
(0.917157 0.341498 2.47093e-20)
(1.11785 0.199053 -4.06102e-20)
(-0.0462976 -0.0539133 6.87282e-19)
(-0.107168 0.015104 -7.26538e-19)
(-0.124082 0.124701 -1.31147e-18)
(-0.0553767 0.253234 8.04199e-20)
(0.0899487 0.371486 3.54261e-19)
(0.286331 0.388666 -1.83065e-19)
(0.560469 0.260587 1.63554e-19)
(0.8618 0.0279214 4.31306e-19)
(1.06229 -0.192992 -3.11312e-19)
(1.13928 -0.339793 1.51368e-18)
(1.13253 -0.411391 -6.02258e-20)
(1.08396 -0.429609 -2.24181e-19)
(1.02111 -0.415604 -2.69798e-19)
(0.957357 -0.384467 -7.42127e-21)
(0.899732 -0.343171 -1.40807e-19)
(0.846992 -0.297932 -7.14764e-20)
(0.804774 -0.246254 -3.11372e-20)
(0.768265 -0.201066 -3.35145e-21)
(0.719101 -0.150772 -8.79835e-21)
(0.66006 -0.0785564 2.26279e-20)
(0.61417 0.0850638 -1.66679e-20)
(0.612975 0.255093 8.98559e-21)
(0.734522 0.368822 -1.58596e-20)
(0.971268 0.294504 -1.28087e-20)
(1.13799 0.175275 7.72835e-20)
(-0.0473648 -0.0482081 -9.25439e-19)
(-0.102823 0.0169546 3.31255e-19)
(-0.110555 0.121213 5.47019e-19)
(-0.031548 0.241219 -1.04549e-19)
(0.123329 0.353995 3.11081e-19)
(0.325634 0.366293 7.26249e-19)
(0.612208 0.238313 1.19729e-19)
(0.913943 0.0144486 -8.50659e-19)
(1.10285 -0.192915 9.52493e-19)
(1.16755 -0.328729 -1.25563e-18)
(1.15235 -0.39424 -2.57499e-19)
(1.09928 -0.410365 -2.54434e-19)
(1.03456 -0.396656 4.28332e-20)
(0.970635 -0.36687 2.58888e-20)
(0.913262 -0.327327 3.24601e-20)
(0.86205 -0.283689 1.78742e-20)
(0.819788 -0.234279 -1.20057e-21)
(0.783525 -0.188093 3.02573e-21)
(0.739085 -0.133477 3.2611e-20)
(0.679052 -0.0651194 3.6067e-21)
(0.626485 0.0787903 8.98893e-21)
(0.648661 0.222822 2.86611e-20)
(0.796266 0.317341 8.43398e-22)
(1.01904 0.253064 -1.31604e-20)
(1.14528 0.155481 -4.52187e-20)
(-0.0487852 -0.0428659 5.93912e-19)
(-0.0987862 0.0180341 6.88223e-19)
(-0.096944 0.116918 -3.01095e-19)
(-0.00750758 0.228542 4.12272e-20)
(0.155505 0.335807 4.51566e-19)
(0.363922 0.343232 3.56679e-19)
(0.663751 0.216464 1.33298e-18)
(0.963512 0.00256019 6.43754e-19)
(1.13946 -0.191068 -1.17352e-19)
(1.19202 -0.316404 4.30395e-19)
(1.16918 -0.376444 7.57033e-19)
(1.11245 -0.390936 6.48908e-20)
(1.04651 -0.377803 4.52082e-20)
(0.982796 -0.349505 8.54444e-20)
(0.926025 -0.311823 -9.64925e-20)
(0.876226 -0.269853 6.02307e-21)
(0.834781 -0.222254 -3.10702e-20)
(0.798439 -0.176284 -4.76102e-20)
(0.758967 -0.118173 -1.10147e-20)
(0.707838 -0.0492875 -1.41279e-20)
(0.666083 0.078329 -1.10794e-20)
(0.713128 0.196603 -4.80915e-20)
(0.863969 0.272759 3.49079e-20)
(1.05161 0.218571 -5.23264e-21)
(1.13958 0.138966 7.75095e-21)
(-0.0505732 -0.0378758 -9.34474e-20)
(-0.0951217 0.0183136 -1.52762e-18)
(-0.0834192 0.111796 3.29685e-19)
(0.0164013 0.21518 2.72734e-19)
(0.185909 0.316753 -1.05038e-18)
(0.401804 0.319541 3.07758e-19)
(0.715335 0.195212 -1.76165e-19)
(1.01027 -0.00770739 1.11488e-18)
(1.17203 -0.187626 -6.00472e-19)
(1.21279 -0.303082 -1.44287e-18)
(1.18319 -0.358247 -5.60034e-21)
(1.1236 -0.371508 -1.90664e-19)
(1.05706 -0.359167 -2.17909e-19)
(0.993908 -0.332463 -1.18272e-19)
(0.938055 -0.29668 1.49122e-20)
(0.889639 -0.256472 -2.37437e-20)
(0.849397 -0.210447 1.29221e-20)
(0.813769 -0.165107 2.60678e-20)
(0.778648 -0.105797 2.15386e-21)
(0.740476 -0.0363521 2.09455e-20)
(0.720025 0.0784699 6.59696e-22)
(0.784002 0.174799 7.09622e-20)
(0.917689 0.234826 -1.90442e-20)
(1.06444 0.189701 -6.7231e-21)
(1.1238 0.124322 -1.35221e-20)
(-0.0527399 -0.0332215 -9.74796e-19)
(-0.0918708 0.0177774 5.21088e-19)
(-0.0701025 0.105818 1.21175e-19)
(0.0398331 0.201164 -2.60448e-19)
(0.214324 0.296673 8.98953e-19)
(0.440354 0.295438 -8.09542e-19)
(0.767101 0.1748 -1.19999e-18)
(1.05395 -0.0163176 -8.4083e-19)
(1.20051 -0.182771 7.26379e-19)
(1.23 -0.289015 1.19712e-18)
(1.19457 -0.339874 1.61617e-19)
(1.13292 -0.352245 5.32377e-19)
(1.06633 -0.340855 3.3937e-19)
(1.00405 -0.31581 4.0193e-20)
(0.94936 -0.281945 1.69798e-20)
(0.902408 -0.243525 1.29589e-19)
(0.863441 -0.199122 8.19249e-20)
(0.829507 -0.154465 4.25478e-20)
(0.798404 -0.0959703 7.39222e-22)
(0.772193 -0.0284226 -2.16268e-20)
(0.771011 0.0745672 1.15631e-20)
(0.83934 0.153371 -5.14299e-20)
(0.947586 0.20074 -4.06028e-20)
(1.06093 0.164178 -8.53912e-23)
(1.10331 0.110477 1.06819e-20)
(-0.0552926 -0.0288815 6.59027e-19)
(-0.08905 0.0164252 1.47972e-19)
(-0.0570663 0.0989708 8.44708e-20)
(0.062512 0.186536 -7.01907e-19)
(0.241111 0.275514 -1.59882e-18)
(0.480944 0.271326 9.41934e-22)
(0.818965 0.15552 1.6779e-18)
(1.09425 -0.0232515 -6.43816e-19)
(1.22494 -0.176694 1.1747e-18)
(1.24387 -0.274439 6.96528e-20)
(1.20354 -0.321522 -5.32326e-19)
(1.14058 -0.333286 -7.47988e-19)
(1.07442 -0.322955 -3.18284e-19)
(1.01331 -0.299599 4.30446e-20)
(0.959961 -0.26766 1.37501e-19)
(0.91457 -0.231009 -1.13558e-21)
(0.876929 -0.188379 1.70674e-20)
(0.845227 -0.144569 -1.97883e-20)
(0.818089 -0.0880951 -3.87739e-22)
(0.80081 -0.0247058 3.06977e-21)
(0.810094 0.0658303 2.66042e-20)
(0.873453 0.130652 -1.36604e-20)
(0.958687 0.169144 6.27823e-20)
(1.0497 0.141014 2.68615e-20)
(1.08327 0.0972528 1.25616e-21)
(-0.0582336 -0.0248304 -7.00614e-19)
(-0.0866442 0.0142746 9.74439e-19)
(-0.0443252 0.0912875 2.0908e-19)
(0.0843383 0.171332 4.16282e-19)
(0.26736 0.253441 7.59561e-19)
(0.524913 0.247757 -4.13114e-19)
(0.870537 0.137678 -1.02955e-18)
(1.13088 -0.0285241 8.99631e-19)
(1.2454 -0.169593 -1.3023e-18)
(1.25464 -0.259575 -6.22673e-19)
(1.21035 -0.303361 6.90319e-20)
(1.14675 -0.314745 5.58522e-19)
(1.08145 -0.305539 3.74699e-19)
(1.02174 -0.283871 -1.35881e-19)
(0.969895 -0.253848 1.51473e-20)
(0.926118 -0.218951 -9.42408e-20)
(0.889921 -0.178215 9.24159e-20)
(0.860535 -0.135578 3.70655e-21)
(0.83709 -0.0818059 -2.80834e-21)
(0.825853 -0.0234438 -1.37263e-20)
(0.838472 0.0547556 -3.61753e-20)
(0.893741 0.108522 -3.6833e-20)
(0.961752 0.140939 -4.10101e-20)
(1.03796 0.120421 -3.12077e-20)
(1.06634 0.0849605 1.45784e-21)
(-0.0615599 -0.0210402 1.62034e-18)
(-0.0846004 0.011363 5.35085e-19)
(-0.031811 0.0828449 7.17932e-20)
(0.105513 0.155622 1.35164e-18)
(0.294862 0.230927 2.83883e-19)
(0.573159 0.225328 -5.41228e-19)
(0.921126 0.121539 -1.53076e-18)
(1.16358 -0.0321969 -1.88023e-18)
(1.26205 -0.161672 -4.85001e-19)
(1.26259 -0.24462 -3.71177e-19)
(1.21524 -0.285536 1.3559e-19)
(1.15161 -0.296713 2.81928e-19)
(1.08753 -0.28866 -1.25022e-19)
(1.02943 -0.268659 5.11571e-19)
(0.979196 -0.240523 -3.84963e-19)
(0.937052 -0.207377 8.53034e-21)
(0.90241 -0.168613 -7.38462e-20)
(0.875211 -0.127474 2.24204e-20)
(0.854901 -0.0768276 2.08317e-21)
(0.847695 -0.0234318 2.83803e-20)
(0.860639 0.0437894 4.02637e-20)
(0.908217 0.0889962 8.27289e-20)
(0.963471 0.116913 2.31756e-21)
(1.02842 0.102565 1.4504e-20)
(1.05279 0.0738072 1.54706e-21)
(-0.065262 -0.0174818 -6.72596e-19)
(-0.0828221 0.00774875 -2.37161e-18)
(-0.0193449 0.0737598 -9.41277e-19)
(0.126655 0.139553 -1.56688e-18)
(0.325837 0.208755 1.36499e-19)
(0.625812 0.204566 -1.20812e-19)
(0.969839 0.107297 -2.19878e-19)
(1.19216 -0.03438 1.52885e-18)
(1.27511 -0.153131 1.03649e-19)
(1.26803 -0.229744 -3.51494e-19)
(1.21847 -0.268162 -2.47861e-19)
(1.15534 -0.279259 -5.30859e-19)
(1.09278 -0.272358 -5.00016e-19)
(1.03642 -0.253984 -2.50342e-19)
(0.987893 -0.227694 -2.58885e-20)
(0.947387 -0.196298 3.49907e-20)
(0.914352 -0.159554 6.44958e-20)
(0.889139 -0.120159 2.47692e-20)
(0.871386 -0.0728615 -4.7954e-21)
(0.866884 -0.0240826 -1.80731e-20)
(0.879279 0.0338967 -3.87711e-20)
(0.920227 0.0725003 -3.33762e-20)
(0.965535 0.096803 3.51936e-21)
(1.0211 0.0871946 -7.23793e-22)
(1.04205 0.0637947 -9.28317e-21)
(-0.0693228 -0.0141265 -1.50075e-19)
(-0.0811652 0.00351057 -1.40929e-18)
(-0.00661079 0.0641875 1.11413e-19)
(0.148856 0.123406 9.58359e-19)
(0.362415 0.187905 -4.33047e-19)
(0.682106 0.185836 1.30628e-18)
(1.01573 0.0950368 -1.19207e-18)
(1.21656 -0.0352268 -5.74223e-19)
(1.28487 -0.144161 1.06052e-18)
(1.27126 -0.215095 1.0912e-18)
(1.22027 -0.251328 5.95601e-20)
(1.15808 -0.262433 2.40716e-19)
(1.09728 -0.256659 1.3877e-19)
(1.04279 -0.23986 -2.83749e-19)
(0.996013 -0.215362 -4.09564e-19)
(0.957136 -0.185711 -3.12489e-20)
(0.925705 -0.151013 -7.92206e-21)
(0.90226 -0.113525 -1.67722e-20)
(0.886591 -0.0696266 4.2077e-21)
(0.883828 -0.0250859 9.4979e-21)
(0.895325 0.0251724 2.49725e-20)
(0.930541 0.0586205 -2.11922e-20)
(0.967894 0.0799308 5.80847e-21)
(1.0155 0.0739437 -1.1975e-20)
(1.03355 0.0548643 -2.725e-21)
(-0.0737169 -0.0109482 2.48988e-18)
(-0.0794342 -0.00125375 3.34522e-18)
(0.00686745 0.05432 7.81371e-19)
(0.173607 0.10763 2.91528e-19)
(0.406041 0.169325 1.08794e-18)
(0.740533 0.169302 -6.11777e-20)
(1.05796 0.0847364 6.47092e-19)
(1.23682 -0.0349196 -1.11831e-19)
(1.29165 -0.13494 -1.02114e-18)
(1.27261 -0.200787 -3.1044e-19)
(1.22087 -0.235099 -2.31994e-19)
(1.16 -0.246268 7.83065e-19)
(1.10112 -0.241578 2.72189e-19)
(1.04858 -0.22629 1.27982e-19)
(1.00358 -0.203527 6.19835e-20)
(0.966312 -0.175608 3.65998e-20)
(0.936442 -0.142955 -5.24388e-22)
(0.914553 -0.107476 -3.13986e-20)
(0.900584 -0.0669068 -4.47594e-21)
(0.89883 -0.0262396 6.42449e-22)
(0.909251 0.0175367 -3.89265e-20)
(0.93948 0.0469022 -2.5978e-21)
(0.970417 0.0657098 -1.25425e-20)
(1.01128 0.0625068 3.64668e-20)
(1.02686 0.0469463 8.55992e-21)
(-0.0784098 -0.00792508 -2.69399e-18)
(-0.0773807 -0.00643088 -2.77733e-18)
(0.0217354 0.0443869 -1.87884e-18)
(0.202586 0.0928511 -2.35092e-19)
(0.457008 0.153684 -1.70079e-18)
(0.799189 0.154957 -1.17671e-19)
(1.09589 0.0762785 -6.73627e-19)
(1.25315 -0.0336532 3.8901e-20)
(1.29582 -0.12562 1.03457e-18)
(1.27237 -0.186912 4.20282e-20)
(1.22048 -0.219519 3.74013e-19)
(1.16121 -0.23078 -7.42707e-19)
(1.10439 -0.227119 -2.504e-19)
(1.05383 -0.213275 -7.12825e-20)
(1.01062 -0.192181 2.13447e-19)
(0.97493 -0.165974 -6.21749e-20)
(0.946551 -0.135341 -6.01511e-21)
(0.926024 -0.101924 7.8898e-20)
(0.913433 -0.0645429 -1.08639e-20)
(0.912155 -0.027406 1.52651e-22)
(0.921454 0.0109095 2.2613e-20)
(0.94731 0.0369941 3.37107e-20)
(0.973042 0.0536884 3.57789e-20)
(1.00818 0.052633 -3.15465e-20)
(1.02162 0.0399571 1.4944e-20)
(-0.0833577 -0.00504162 1.6657e-18)
(-0.074704 -0.0118964 1.77306e-18)
(0.0387943 0.0346603 9.82672e-20)
(0.237319 0.0797921 -1.90383e-19)
(0.514333 0.141208 8.65008e-19)
(0.85617 0.142674 8.6615e-19)
(1.12919 0.0694833 1.25758e-18)
(1.26582 -0.0316187 3.89011e-19)
(1.29773 -0.11633 -4.57685e-19)
(1.27082 -0.173535 4.61038e-19)
(1.21928 -0.204613 -7.21313e-20)
(1.16183 -0.215976 4.50393e-19)
(1.10715 -0.213281 -2.2155e-19)
(1.0586 -0.200808 4.74064e-20)
(1.01715 -0.181315 8.9787e-21)
(0.983001 -0.15679 3.49482e-20)
(0.956029 -0.128135 -1.09782e-19)
(0.936697 -0.0967887 -7.15512e-20)
(0.925208 -0.0624169 1.44128e-21)
(0.924035 -0.0284952 3.8893e-21)
(0.932245 0.00520784 4.96677e-21)
(0.954224 0.0286084 -3.93383e-21)
(0.975727 0.0435058 -2.73205e-21)
(1.00596 0.0441064 -1.12634e-20)
(1.01755 0.0338153 -1.66836e-20)
(-0.0885067 -0.00229063 6.80308e-19)
(-0.0710537 -0.0175185 -1.53439e-18)
(0.0589541 0.0254641 8.12471e-19)
(0.278806 0.0691392 -3.00728e-19)
(0.576022 0.131684 4.43743e-19)
(0.909885 0.132254 -1.30331e-19)
(1.15779 0.0641406 -9.60569e-19)
(1.27519 -0.0289912 4.18529e-20)
(1.29774 -0.10717 -1.0005e-19)
(1.26821 -0.160699 -1.90491e-20)
(1.21743 -0.190391 3.24388e-19)
(1.16197 -0.201851 -3.80001e-19)
(1.10947 -0.200053 2.47041e-19)
(1.06292 -0.188878 3.22874e-20)
(1.02321 -0.170915 1.43775e-19)
(0.990543 -0.148035 7.062e-20)
(0.964885 -0.1213 5.79391e-20)
(0.946605 -0.0920037 -1.22171e-20)
(0.93598 -0.0604419 2.40556e-20)
(0.934672 -0.0294488 -8.79174e-22)
(0.941852 0.000347082 -7.6397e-21)
(0.960363 0.0215059 -1.11329e-20)
(0.978455 0.0348727 -1.52401e-20)
(1.00445 0.0367441 5.33144e-21)
(1.01441 0.0284413 1.19746e-20)
(-0.093794 0.000324917 -1.02965e-18)
(-0.0660355 -0.0231601 3.54286e-19)
(0.083151 0.0171775 1.63144e-18)
(0.327224 0.0613646 1.20766e-18)
(0.639596 0.124613 -6.84276e-19)
(0.959218 0.123473 -7.25136e-19)
(1.18183 0.0600373 -7.75655e-20)
(1.28168 -0.0259227 -2.76218e-19)
(1.29619 -0.098217 6.91057e-19)
(1.26478 -0.148427 5.22689e-20)
(1.21508 -0.17685 1.98145e-19)
(1.1617 -0.188393 1.09698e-19)
(1.1114 -0.187423 7.11767e-20)
(1.06682 -0.177471 -3.33981e-19)
(1.02881 -0.160967 -1.9715e-19)
(0.99757 -0.139685 -2.15683e-19)
(0.973136 -0.114803 -5.07674e-20)
(0.955784 -0.0875113 6.26705e-21)
(0.945822 -0.0585549 -3.93022e-20)
(0.944241 -0.0302306 -2.70898e-21)
(0.950447 -0.00375558 1.70512e-21)
(0.96585 0.0154899 7.47695e-21)
(0.981217 0.0275572 -5.86448e-22)
(1.00349 0.0303887 2.47296e-21)
(1.01203 0.0237584 6.82549e-22)
(-0.0991479 0.00279016 -1.2467e-18)
(-0.0592183 -0.0286788 8.15956e-19)
(0.112226 0.0102255 -4.23542e-20)
(0.381821 0.0565917 -6.34974e-19)
(0.702646 0.119406 5.28417e-19)
(1.00355 0.116106 5.01286e-19)
(1.20162 0.0569761 -2.1744e-19)
(1.28567 -0.022539 -6.13975e-19)
(1.29339 -0.0895256 -2.38376e-19)
(1.26072 -0.136728 -1.0778e-18)
(1.21234 -0.163978 -7.5965e-19)
(1.16111 -0.175583 1.10414e-19)
(1.11298 -0.175373 2.60317e-19)
(1.07034 -0.16657 2.03264e-19)
(1.03397 -0.151453 -1.81059e-19)
(1.0041 -0.131719 1.19467e-19)
(0.980802 -0.108614 3.13766e-20)
(0.964272 -0.0832634 -1.23365e-21)
(0.954809 -0.0567107 2.77818e-20)
(0.952887 -0.0308206 -4.49153e-21)
(0.958156 -0.00717989 -7.31147e-22)
(0.970797 0.0103992 -7.80797e-21)
(0.984002 0.0213707 3.7036e-21)
(1.00294 0.0249028 -1.09702e-20)
(1.01026 0.0196963 4.02332e-21)
(-0.104489 0.00507674 4.84636e-19)
(-0.0501408 -0.0339258 -1.89976e-18)
(0.146786 0.00504331 -1.55572e-18)
(0.44106 0.0545657 -8.08338e-19)
(0.763219 0.115547 8.00834e-19)
(1.04268 0.109953 -6.10648e-19)
(1.21758 0.0547851 1.02283e-18)
(1.28758 -0.0189408 6.9864e-19)
(1.2896 -0.0811307 -1.90866e-19)
(1.25619 -0.125599 1.7919e-19)
(1.20931 -0.151754 4.62598e-19)
(1.16025 -0.163399 -7.38054e-20)
(1.11426 -0.163883 -7.90605e-20)
(1.0735 -0.156157 -3.8441e-20)
(1.03872 -0.142357 7.36741e-20)
(1.01016 -0.124114 -1.57702e-19)
(0.987908 -0.102705 -7.09824e-20)
(0.972107 -0.0792202 5.63902e-20)
(0.963013 -0.0548773 -1.24168e-20)
(0.96073 -0.0312101 -3.79923e-21)
(0.965083 -0.0100009 2.09255e-21)
(0.975309 0.00610284 1.39965e-21)
(0.986784 0.0161566 5.83901e-21)
(1.00267 0.0201663 8.73958e-21)
(1.00901 0.0161922 -6.62341e-21)
(-0.109731 0.00714134 5.84879e-20)
(-0.0383247 -0.0387346 5.46258e-19)
(0.18706 0.00200348 4.93877e-19)
(0.50296 0.0547501 1.34879e-18)
(0.819971 0.112652 -1.28118e-18)
(1.07674 0.104841 4.71193e-19)
(1.23015 0.0533198 -6.27236e-19)
(1.28775 -0.0152059 1.76819e-19)
(1.28505 -0.0730525 -4.19959e-19)
(1.25134 -0.115028 -2.7289e-19)
(1.20608 -0.140155 -3.89378e-19)
(1.15917 -0.151817 -1.6259e-19)
(1.11527 -0.152931 1.77806e-19)
(1.07633 -0.146214 -1.66238e-19)
(1.04308 -0.133661 -1.25498e-19)
(1.01575 -0.116847 2.64018e-19)
(0.994479 -0.097052 1.80758e-19)
(0.979329 -0.0753488 -1.48276e-20)
(0.970505 -0.0530331 4.73191e-21)
(0.967861 -0.0313992 5.33017e-21)
(0.971318 -0.0122873 -3.62054e-21)
(0.979473 0.00249461 -1.67196e-22)
(0.989519 0.0117804 -6.47792e-21)
(1.00261 0.0160769 3.43083e-21)
(1.0082 0.0131937 2.04127e-21)
(-0.114782 0.00892476 5.72803e-19)
(-0.0232955 -0.0429051 1.12008e-18)
(0.232814 0.00132418 -1.50852e-18)
(0.565489 0.0565006 -7.73373e-19)
(0.872133 0.110471 6.26088e-19)
(1.10603 0.100626 6.24515e-19)
(1.23978 0.0524611 8.96927e-19)
(1.28652 -0.0113932 -5.9443e-19)
(1.27995 -0.0652989 3.26296e-19)
(1.24628 -0.104994 1.99696e-19)
(1.20271 -0.129153 -5.29295e-20)
(1.15791 -0.140808 -4.61809e-19)
(1.11603 -0.142494 -6.49437e-19)
(1.07885 -0.136719 -2.3004e-19)
(1.04706 -0.125345 3.27183e-19)
(1.02092 -0.109897 -4.36989e-20)
(1.00054 -0.0916333 -1.41721e-21)
(0.985975 -0.0716221 3.142e-20)
(0.977348 -0.0511648 -7.31545e-22)
(0.974358 -0.0313937 1.16544e-20)
(0.976944 -0.0141006 -8.8046e-21)
(0.983359 -0.000513582 3.62971e-21)
(0.992156 0.0081227 8.43547e-22)
(1.00271 0.0125527 -2.8795e-21)
(1.00777 0.0106575 -1.70493e-21)
(-0.119543 0.0103519 -1.5852e-18)
(-0.00460896 -0.0461931 -1.02883e-18)
(0.283328 0.00299731 9.12435e-19)
(0.62689 0.0592306 -6.34683e-19)
(0.919395 0.108847 3.47824e-19)
(1.13097 0.0971933 -1.14868e-18)
(1.24689 0.0521121 -9.64663e-19)
(1.28417 -0.00754633 -2.19036e-20)
(1.27446 -0.0578694 2.90716e-19)
(1.24109 -0.095476 -1.11956e-19)