/*--------------------------------*- C++ -*----------------------------------*\
  =========                 |
  \\      /  F ield         | OpenFOAM: The Open Source CFD Toolbox
   \\    /   O peration     | Website:  https://openfoam.org
    \\  /    A nd           | Version:  7
     \\/     M anipulation  |
\*---------------------------------------------------------------------------*/
FoamFile
{
    version     2.0;
    format      ascii;
    class       volVectorField;
    location    "0.165";
    object      U;
}
// * * * * * * * * * * * * * * * * * * * * * * * * * * * * * * * * * * * * * //

dimensions      [0 1 -1 0 0 0 0];

internalField   nonuniform List<vector> 
40000
(
(-1.46723e-07 1.951e-08 0)
(9.29915e-07 -7.90427e-07 0)
(4.22448e-06 -1.45901e-06 0)
(8.77289e-06 -1.81986e-06 0)
(1.38383e-05 -1.93805e-06 0)
(1.89027e-05 -1.88471e-06 0)
(2.3576e-05 -1.71265e-06 0)
(2.75689e-05 -1.45965e-06 0)
(3.0671e-05 -1.15168e-06 0)
(3.27301e-05 -8.06397e-07 0)
(3.36372e-05 -4.36173e-07 0)
(3.33156e-05 -4.99801e-08 0)
(3.17135e-05 3.45536e-07 0)
(2.87981e-05 7.45403e-07 0)
(2.4552e-05 1.14587e-06 0)
(1.89696e-05 1.54406e-06 0)
(1.20551e-05 1.93769e-06 0)
(3.82027e-06 2.32497e-06 0)
(-5.71653e-06 2.70444e-06 0)
(-1.6532e-05 3.07496e-06 0)
(-2.85987e-05 3.43563e-06 0)
(-4.18856e-05 3.78575e-06 0)
(-5.6359e-05 4.12473e-06 0)
(-7.19829e-05 4.45211e-06 0)
(-8.87192e-05 4.76752e-06 0)
(-0.000106529 5.07067e-06 0)
(-0.00012537 5.36138e-06 0)
(-0.000145203 5.6395e-06 0)
(-0.000165984 5.90491e-06 0)
(-0.000187671 6.15756e-06 0)
(-0.00021022 6.39741e-06 0)
(-0.000233588 6.62448e-06 0)
(-0.000257731 6.83878e-06 0)
(-0.000282604 7.04037e-06 0)
(-0.000308166 7.22931e-06 0)
(-0.000334371 7.40569e-06 0)
(-0.000361176 7.5696e-06 0)
(-0.000388539 7.72115e-06 0)
(-0.000416416 7.86047e-06 0)
(-0.000444765 7.98769e-06 0)
(-0.000473544 8.10294e-06 0)
(-0.00050271 8.20638e-06 0)
(-0.000532223 8.29816e-06 0)
(-0.000562041 8.37842e-06 0)
(-0.000592125 8.44734e-06 0)
(-0.000622434 8.50509e-06 0)
(-0.00065293 8.55182e-06 0)
(-0.000683573 8.58773e-06 0)
(-0.000714326 8.61298e-06 0)
(-0.000745151 8.62775e-06 0)
(-0.000776011 8.63222e-06 0)
(-0.000806869 8.62659e-06 0)
(-0.000837691 8.61103e-06 0)
(-0.00086844 8.58573e-06 0)
(-0.000899083 8.55086e-06 0)
(-0.000929586 8.50663e-06 0)
(-0.000959915 8.45323e-06 0)
(-0.000990039 8.39083e-06 0)
(-0.00101992 8.31963e-06 0)
(-0.00104954 8.23982e-06 0)
(-0.00107886 8.15159e-06 0)
(-0.00110785 8.05512e-06 0)
(-0.00113648 7.95061e-06 0)
(-0.00116472 7.83826e-06 0)
(-0.00119255 7.71824e-06 0)
(-0.00121993 7.59076e-06 0)
(-0.00124685 7.45599e-06 0)
(-0.00127327 7.31415e-06 0)
(-0.00129918 7.1654e-06 0)
(-0.00132454 7.00995e-06 0)
(-0.00134933 6.84799e-06 0)
(-0.00137353 6.67969e-06 0)
(-0.00139712 6.50526e-06 0)
(-0.00142008 6.3249e-06 0)
(-0.00144238 6.13878e-06 0)
(-0.001464 5.94712e-06 0)
(-0.00148493 5.75008e-06 0)
(-0.00150514 5.54787e-06 0)
(-0.00152462 5.34067e-06 0)
(-0.00154335 5.12869e-06 0)
(-0.00156131 4.91212e-06 0)
(-0.00157849 4.69116e-06 0)
(-0.00159487 4.46599e-06 0)
(-0.00161044 4.23682e-06 0)
(-0.00162518 4.00383e-06 0)
(-0.00163907 3.76724e-06 0)
(-0.00165212 3.52723e-06 0)
(-0.0016643 3.28401e-06 0)
(-0.0016756 3.03779e-06 0)
(-0.00168602 2.78875e-06 0)
(-0.00169554 2.53711e-06 0)
(-0.00170415 2.28307e-06 0)
(-0.00171185 2.02684e-06 0)
(-0.00171863 1.76863e-06 0)
(-0.00172448 1.50863e-06 0)
(-0.00172939 1.24707e-06 0)
(-0.00173337 9.84157e-07 0)
(-0.0017364 7.20103e-07 0)
(-0.00173849 4.55128e-07 0)
(-0.00173963 1.89448e-07 0)
(-0.00173981 -7.6719e-08 0)
(-0.00173904 -3.43153e-07 0)
(-0.00173732 -6.09632e-07 0)
(-0.00173464 -8.75932e-07 0)
(-0.00173102 -1.14183e-06 0)
(-0.00172644 -1.40709e-06 0)
(-0.00172091 -1.67149e-06 0)
(-0.00171444 -1.93479e-06 0)
(-0.00170703 -2.19677e-06 0)
(-0.00169868 -2.45718e-06 0)
(-0.00168941 -2.7158e-06 0)
(-0.00167922 -2.97238e-06 0)
(-0.00166811 -3.22669e-06 0)
(-0.0016561 -3.47849e-06 0)
(-0.00164319 -3.72753e-06 0)
(-0.0016294 -3.97357e-06 0)
(-0.00161473 -4.21637e-06 0)
(-0.00159921 -4.45568e-06 0)
(-0.00158283 -4.69126e-06 0)
(-0.00156562 -4.92286e-06 0)
(-0.00154759 -5.15023e-06 0)
(-0.00152876 -5.37312e-06 0)
(-0.00150914 -5.59129e-06 0)
(-0.00148875 -5.80449e-06 0)
(-0.00146761 -6.01246e-06 0)
(-0.00144574 -6.21496e-06 0)
(-0.00142315 -6.41173e-06 0)
(-0.00139988 -6.60254e-06 0)
(-0.00137593 -6.78712e-06 0)
(-0.00135134 -6.96524e-06 0)
(-0.00132612 -7.13665e-06 0)
(-0.00130031 -7.30111e-06 0)
(-0.00127392 -7.45837e-06 0)
(-0.00124699 -7.60819e-06 0)
(-0.00121954 -7.75032e-06 0)
(-0.00119159 -7.88453e-06 0)
(-0.00116318 -8.01059e-06 0)
(-0.00113434 -8.12826e-06 0)
(-0.0011051 -8.23732e-06 0)
(-0.00107548 -8.33753e-06 0)
(-0.00104552 -8.42867e-06 0)
(-0.00101526 -8.51052e-06 0)
(-0.000984721 -8.58287e-06 0)
(-0.000953943 -8.64549e-06 0)
(-0.000922961 -8.69819e-06 0)
(-0.000891811 -8.74077e-06 0)
(-0.000860528 -8.77302e-06 0)
(-0.000829149 -8.79475e-06 0)
(-0.000797713 -8.80578e-06 0)
(-0.000766257 -8.80592e-06 0)
(-0.00073482 -8.79499e-06 0)
(-0.000703443 -8.77284e-06 0)
(-0.000672165 -8.73929e-06 0)
(-0.000641026 -8.6942e-06 0)
(-0.000610067 -8.63742e-06 0)
(-0.000579331 -8.56881e-06 0)
(-0.000548859 -8.48824e-06 0)
(-0.000518694 -8.39559e-06 0)
(-0.000488877 -8.29076e-06 0)
(-0.000459452 -8.17364e-06 0)
(-0.000430463 -8.04413e-06 0)
(-0.000401953 -7.90215e-06 0)
(-0.000373965 -7.74765e-06 0)
(-0.000346544 -7.58058e-06 0)
(-0.000319732 -7.4009e-06 0)
(-0.000293575 -7.20858e-06 0)
(-0.000268116 -7.00363e-06 0)
(-0.000243398 -6.78604e-06 0)
(-0.000219464 -6.55585e-06 0)
(-0.000196359 -6.31311e-06 0)
(-0.000174125 -6.05791e-06 0)
(-0.000152804 -5.79036e-06 0)
(-0.000132437 -5.51061e-06 0)
(-0.000113065 -5.21886e-06 0)
(-9.47286e-05 -4.91533e-06 0)
(-7.74656e-05 -4.60025e-06 0)
(-6.13135e-05 -4.27397e-06 0)
(-4.6308e-05 -3.93689e-06 0)
(-3.24827e-05 -3.58953e-06 0)
(-1.9869e-05 -3.2325e-06 0)
(-8.49563e-06 -2.86647e-06 0)
(1.61184e-06 -2.49227e-06 0)
(1.04319e-05 -2.11093e-06 0)
(1.79475e-05 -1.72378e-06 0)
(2.41474e-05 -1.33244e-06 0)
(2.90266e-05 -9.38827e-07 0)
(3.25885e-05 -5.45275e-07 0)
(3.48463e-05 -1.54786e-07 0)
(3.58259e-05 2.28705e-07 0)
(3.55683e-05 6.00055e-07 0)
(3.41339e-05 9.5255e-07 0)
(3.16079e-05 1.27715e-06 0)
(2.81081e-05 1.56127e-06 0)
(2.37951e-05 1.78707e-06 0)
(1.8887e-05 1.92872e-06 0)
(1.3679e-05 1.9492e-06 0)
(8.56479e-06 1.79708e-06 0)
(4.06628e-06 1.40267e-06 0)
(9.04188e-07 7.01509e-07 0)
(-1.18714e-07 -1.17227e-07 0)
(7.16651e-07 -1.12087e-06 0)
(4.61739e-06 -4.75373e-06 0)
(1.25523e-05 -7.55071e-06 0)
(2.27907e-05 -9.09207e-06 0)
(3.39188e-05 -9.54984e-06 0)
(4.48632e-05 -9.15644e-06 0)
(5.47315e-05 -8.1154e-06 0)
(6.28072e-05 -6.59108e-06 0)
(6.85348e-05 -4.71012e-06 0)
(7.14904e-05 -2.56841e-06 0)
(7.13545e-05 -2.38855e-07 0)
(6.78919e-05 2.22235e-06 0)
(6.09349e-05 4.7714e-06 0)
(5.03698e-05 7.37385e-06 0)
(3.61268e-05 1.00024e-05 0)
(1.81711e-05 1.26352e-05 0)
(-3.50249e-06 1.52548e-05 0)
(-2.88758e-05 1.78468e-05 0)
(-5.79107e-05 2.03996e-05 0)
(-9.0553e-05 2.29037e-05 0)
(-0.000126735 2.53513e-05 0)
(-0.000166378 2.7736e-05 0)
(-0.000209395 3.00526e-05 0)
(-0.000255689 3.22968e-05 0)
(-0.000305159 3.44651e-05 0)
(-0.000357697 3.65546e-05 0)
(-0.000413192 3.85631e-05 0)
(-0.00047153 4.04888e-05 0)
(-0.000532592 4.23304e-05 0)
(-0.000596258 4.40867e-05 0)
(-0.000662407 4.57571e-05 0)
(-0.000730916 4.73411e-05 0)
(-0.000801662 4.88384e-05 0)
(-0.000874519 5.02491e-05 0)
(-0.000949365 5.1573e-05 0)
(-0.00102607 5.28106e-05 0)
(-0.00110452 5.39623e-05 0)
(-0.00118458 5.50284e-05 0)
(-0.00126614 5.60097e-05 0)
(-0.00134906 5.69069e-05 0)
(-0.00143323 5.77206e-05 0)
(-0.00151853 5.84517e-05 0)
(-0.00160484 5.91012e-05 0)
(-0.00169204 5.967e-05 0)
(-0.00178001 6.01591e-05 0)
(-0.00186864 6.05695e-05 0)
(-0.00195781 6.09023e-05 0)
(-0.00204741 6.11587e-05 0)
(-0.00213734 6.13398e-05 0)
(-0.00222747 6.14467e-05 0)
(-0.00231771 6.14807e-05 0)
(-0.00240795 6.1443e-05 0)
(-0.00249808 6.13349e-05 0)
(-0.002588 6.11575e-05 0)
(-0.00267762 6.09121e-05 0)
(-0.00276682 6.06001e-05 0)
(-0.00285553 6.02227e-05 0)
(-0.00294363 5.97812e-05 0)
(-0.00303104 5.92769e-05 0)
(-0.00311766 5.87111e-05 0)
(-0.00320341 5.80852e-05 0)
(-0.0032882 5.74005e-05 0)
(-0.00337195 5.66583e-05 0)
(-0.00345456 5.586e-05 0)
(-0.00353597 5.50069e-05 0)
(-0.00361608 5.41003e-05 0)
(-0.00369482 5.31416e-05 0)
(-0.00377212 5.21322e-05 0)
(-0.0038479 5.10733e-05 0)
(-0.0039221 4.99664e-05 0)
(-0.00399463 4.88128e-05 0)
(-0.00406544 4.76139e-05 0)
(-0.00413445 4.6371e-05 0)
(-0.00420161 4.50855e-05 0)
(-0.00426684 4.37589e-05 0)
(-0.0043301 4.23923e-05 0)
(-0.00439133 4.09873e-05 0)
(-0.00445046 3.95452e-05 0)
(-0.00450745 3.80674e-05 0)
(-0.00456225 3.65553e-05 0)
(-0.00461479 3.50103e-05 0)
(-0.00466505 3.34338e-05 0)
(-0.00471296 3.18272e-05 0)
(-0.0047585 3.0192e-05 0)
(-0.00480161 2.85294e-05 0)
(-0.00484226 2.6841e-05 0)
(-0.00488041 2.51283e-05 0)
(-0.00491602 2.33926e-05 0)
(-0.00494907 2.16353e-05 0)
(-0.00497953 1.98581e-05 0)
(-0.00500735 1.80623e-05 0)
(-0.00503253 1.62494e-05 0)
(-0.00505503 1.44208e-05 0)
(-0.00507484 1.25782e-05 0)
(-0.00509192 1.0723e-05 0)
(-0.00510628 8.85668e-06 0)
(-0.00511788 6.98084e-06 0)
(-0.00512673 5.09699e-06 0)
(-0.0051328 3.20669e-06 0)
(-0.00513609 1.31151e-06 0)
(-0.00513659 -5.86986e-07 0)
(-0.0051343 -2.4872e-06 0)
(-0.00512922 -4.38755e-06 0)
(-0.00512136 -6.2864e-06 0)
(-0.0051107 -8.18216e-06 0)
(-0.00509727 -1.00732e-05 0)
(-0.00508106 -1.19578e-05 0)
(-0.00506209 -1.38344e-05 0)
(-0.00504037 -1.57012e-05 0)
(-0.00501592 -1.75567e-05 0)
(-0.00498875 -1.93991e-05 0)
(-0.00495889 -2.12267e-05 0)
(-0.00492636 -2.30379e-05 0)
(-0.00489119 -2.48308e-05 0)
(-0.00485339 -2.66038e-05 0)
(-0.00481301 -2.83552e-05 0)
(-0.00477008 -3.00831e-05 0)
(-0.00472463 -3.1786e-05 0)
(-0.00467671 -3.34619e-05 0)
(-0.00462634 -3.51092e-05 0)
(-0.00457358 -3.6726e-05 0)
(-0.00451847 -3.83107e-05 0)
(-0.00446107 -3.98615e-05 0)
(-0.00440141 -4.13765e-05 0)
(-0.00433956 -4.28541e-05 0)
(-0.00427558 -4.42925e-05 0)
(-0.00420951 -4.56898e-05 0)
(-0.00414143 -4.70444e-05 0)
(-0.00407139 -4.83546e-05 0)
(-0.00399947 -4.96185e-05 0)
(-0.00392574 -5.08344e-05 0)
(-0.00385025 -5.20006e-05 0)
(-0.0037731 -5.31155e-05 0)
(-0.00369435 -5.41773e-05 0)
(-0.00361409 -5.51842e-05 0)
(-0.00353239 -5.61348e-05 0)
(-0.00344934 -5.70272e-05 0)
(-0.00336503 -5.786e-05 0)
(-0.00327955 -5.86314e-05 0)
(-0.00319298 -5.934e-05 0)
(-0.00310543 -5.99841e-05 0)
(-0.00301698 -6.05622e-05 0)
(-0.00292773 -6.10729e-05 0)
(-0.00283779 -6.15146e-05 0)
(-0.00274725 -6.1886e-05 0)
(-0.00265622 -6.21857e-05 0)
(-0.00256481 -6.24123e-05 0)
(-0.00247312 -6.25645e-05 0)
(-0.00238127 -6.26411e-05 0)
(-0.00228935 -6.26408e-05 0)
(-0.0021975 -6.25624e-05 0)
(-0.00210581 -6.2405e-05 0)
(-0.00201442 -6.21673e-05 0)
(-0.00192343 -6.18484e-05 0)
(-0.00183297 -6.14474e-05 0)
(-0.00174315 -6.09634e-05 0)
(-0.0016541 -6.03957e-05 0)
(-0.00156593 -5.97433e-05 0)
(-0.00147878 -5.90059e-05 0)
(-0.00139277 -5.81826e-05 0)
(-0.00130802 -5.72732e-05 0)
(-0.00122465 -5.62772e-05 0)
(-0.0011428 -5.51943e-05 0)
(-0.00106258 -5.40244e-05 0)
(-0.000984128 -5.27675e-05 0)
(-0.000907564 -5.14236e-05 0)
(-0.000833015 -4.9993e-05 0)
(-0.000760605 -4.8476e-05 0)
(-0.000690456 -4.68732e-05 0)
(-0.000622692 -4.51854e-05 0)
(-0.000557433 -4.34136e-05 0)
(-0.000494798 -4.1559e-05 0)
(-0.000434903 -3.96231e-05 0)
(-0.000377863 -3.76078e-05 0)
(-0.000323787 -3.55152e-05 0)
(-0.000272782 -3.33478e-05 0)
(-0.00022495 -3.11088e-05 0)
(-0.000180387 -2.88018e-05 0)
(-0.000139184 -2.64311e-05 0)
(-0.000101422 -2.4002e-05 0)
(-6.71763e-05 -2.15204e-05 0)
(-3.65098e-05 -1.89937e-05 0)
(-9.47386e-06 -1.64301e-05 0)
(1.38948e-05 -1.38402e-05 0)
(3.35768e-05 -1.12364e-05 0)
(4.95732e-05 -8.63368e-06 0)
(6.19095e-05 -6.05036e-06 0)
(7.06411e-05 -3.50872e-06 0)
(7.58594e-05 -1.03655e-06 0)
(7.77001e-05 1.33131e-06 0)
(7.63529e-05 3.55083e-06 0)
(7.20742e-05 5.5659e-06 0)
(6.52035e-05 7.30409e-06 0)
(5.61836e-05 8.67085e-06 0)
(4.55852e-05 9.54233e-06 0)
(3.41334e-05 9.75933e-06 0)
(2.27183e-05 9.12801e-06 0)
(1.2395e-05 7.43186e-06 0)
(4.52024e-06 4.52561e-06 0)
(6.96199e-07 9.0501e-07 0)
(1.42679e-06 -4.31487e-06 0)
(7.47822e-06 -1.26591e-05 0)
(1.85604e-05 -1.86381e-05 0)
(3.22098e-05 -2.18602e-05 0)
(4.65928e-05 -2.26187e-05 0)
(6.03315e-05 -2.1337e-05 0)
(7.22292e-05 -1.84259e-05 0)
(8.12824e-05 -1.42433e-05 0)
(8.66834e-05 -9.08453e-06 0)
(8.77943e-05 -3.1869e-06 0)
(8.41192e-05 3.26032e-06 0)
(7.52813e-05 1.01061e-05 0)
(6.1003e-05 1.72296e-05 0)
(4.10883e-05 2.45332e-05 0)
(1.54092e-05 3.19381e-05 0)
(-1.6106e-05 3.938e-05 0)
(-5.34826e-05 4.68067e-05 0)
(-9.67068e-05 5.41749e-05 0)
(-0.000145732 6.14491e-05 0)
(-0.000200486 6.86001e-05 0)
(-0.000260872 7.56033e-05 0)
(-0.000326774 8.24387e-05 0)
(-0.000398062 8.90894e-05 0)
(-0.000474591 9.55418e-05 0)
(-0.000556205 0.000101784 0)
(-0.000642739 0.000107808 0)
(-0.000734019 0.000113604 0)
(-0.000829868 0.000119167 0)
(-0.000930099 0.000124493 0)
(-0.00103452 0.000129577 0)
(-0.00114295 0.000134416 0)
(-0.00125518 0.000139008 0)
(-0.00137103 0.000143352 0)
(-0.00149028 0.000147448 0)
(-0.00161275 0.000151295 0)
(-0.00173824 0.000154893 0)
(-0.00186653 0.000158243 0)
(-0.00199745 0.000161346 0)
(-0.00213078 0.000164204 0)
(-0.00226633 0.000166818 0)
(-0.00240391 0.00016919 0)
(-0.00254331 0.000171323 0)
(-0.00268435 0.000173218 0)
(-0.00282684 0.000174879 0)
(-0.00297058 0.000176308 0)
(-0.0031154 0.000177507 0)
(-0.00326109 0.000178481 0)
(-0.00340749 0.000179232 0)
(-0.00355441 0.000179762 0)
(-0.00370168 0.000180077 0)
(-0.00384911 0.000180178 0)
(-0.00399654 0.000180069 0)
(-0.0041438 0.000179755 0)
(-0.00429071 0.000179238 0)
(-0.00443713 0.000178522 0)
(-0.00458287 0.00017761 0)
(-0.0047278 0.000176508 0)
(-0.00487175 0.000175217 0)
(-0.00501456 0.000173742 0)
(-0.0051561 0.000172087 0)
(-0.00529621 0.000170256 0)
(-0.00543476 0.000168252 0)
(-0.0055716 0.000166079 0)
(-0.00570659 0.000163742 0)
(-0.00583961 0.000161244 0)
(-0.00597051 0.000158589 0)
(-0.00609918 0.00015578 0)
(-0.0062255 0.000152823 0)
(-0.00634933 0.000149721 0)
(-0.00647057 0.000146477 0)
(-0.0065891 0.000143096 0)
(-0.0067048 0.000139582 0)
(-0.00681758 0.000135939 0)
(-0.00692732 0.000132171 0)
(-0.00703392 0.000128281 0)
(-0.0071373 0.000124274 0)
(-0.00723734 0.000120155 0)
(-0.00733397 0.000115926 0)
(-0.00742709 0.000111593 0)
(-0.00751662 0.000107158 0)
(-0.00760249 0.000102627 0)
(-0.0076846 9.80037e-05 0)
(-0.00776289 9.32917e-05 0)
(-0.00783728 8.84955e-05 0)
(-0.00790772 8.36193e-05 0)
(-0.00797413 7.86672e-05 0)
(-0.00803645 7.36435e-05 0)
(-0.00809463 6.85524e-05 0)
(-0.00814862 6.33983e-05 0)
(-0.00819835 5.81854e-05 0)
(-0.0082438 5.2918e-05 0)
(-0.00828491 4.76006e-05 0)
(-0.00832165 4.22375e-05 0)
(-0.00835398 3.68331e-05 0)
(-0.00838187 3.13919e-05 0)
(-0.00840529 2.59183e-05 0)
(-0.00842421 2.04169e-05 0)
(-0.00843862 1.48922e-05 0)
(-0.0084485 9.34875e-06 0)
(-0.00845383 3.79119e-06 0)
(-0.00845461 -1.77586e-06 0)
(-0.00845082 -7.34772e-06 0)
(-0.00844248 -1.29197e-05 0)
(-0.00842957 -1.8487e-05 0)
(-0.00841211 -2.40449e-05 0)
(-0.00839011 -2.95887e-05 0)
(-0.00836358 -3.51134e-05 0)
(-0.00833253 -4.06141e-05 0)
(-0.00829699 -4.60861e-05 0)
(-0.00825699 -5.15243e-05 0)
(-0.00821256 -5.69238e-05 0)
(-0.00816372 -6.22796e-05 0)
(-0.00811052 -6.75868e-05 0)
(-0.008053 -7.28402e-05 0)
(-0.00799121 -7.80348e-05 0)
(-0.00792519 -8.31655e-05 0)
(-0.007855 -8.82273e-05 0)
(-0.00778071 -9.3215e-05 0)
(-0.00770236 -9.81235e-05 0)
(-0.00762004 -0.000102948 0)
(-0.00753381 -0.000107682 0)
(-0.00744375 -0.000112322 0)
(-0.00734993 -0.000116862 0)
(-0.00725245 -0.000121298 0)
(-0.00715138 -0.000125623 0)
(-0.00704683 -0.000129832 0)
(-0.00693889 -0.000133922 0)
(-0.00682765 -0.000137886 0)
(-0.00671324 -0.000141719 0)
(-0.00659574 -0.000145416 0)
(-0.00647528 -0.000148973 0)
(-0.00635198 -0.000152384 0)
(-0.00622595 -0.000155644 0)
(-0.00609732 -0.000158749 0)
(-0.00596622 -0.000161693 0)
(-0.00583279 -0.000164472 0)
(-0.00569716 -0.00016708 0)
(-0.00555947 -0.000169514 0)
(-0.00541987 -0.000171768 0)
(-0.0052785 -0.000173838 0)
(-0.00513552 -0.000175719 0)
(-0.00499108 -0.000177407 0)
(-0.00484535 -0.000178898 0)
(-0.00469848 -0.000180188 0)
(-0.00455065 -0.000181272 0)
(-0.00440201 -0.000182146 0)
(-0.00425275 -0.000182807 0)
(-0.00410304 -0.000183251 0)
(-0.00395305 -0.000183473 0)
(-0.00380297 -0.000183472 0)
(-0.00365298 -0.000183243 0)
(-0.00350328 -0.000182784 0)
(-0.00335403 -0.000182091 0)
(-0.00320545 -0.000181161 0)
(-0.00305772 -0.000179992 0)
(-0.00291103 -0.000178582 0)
(-0.00276559 -0.000176929 0)
(-0.00262158 -0.00017503 0)
(-0.00247922 -0.000172883 0)
(-0.00233869 -0.000170488 0)
(-0.00220021 -0.000167843 0)
(-0.00206397 -0.000164948 0)
(-0.00193018 -0.000161801 0)
(-0.00179904 -0.000158403 0)
(-0.00167074 -0.000154754 0)
(-0.0015455 -0.000150855 0)
(-0.00142351 -0.000146706 0)
(-0.00130498 -0.000142308 0)
(-0.00119009 -0.000137666 0)
(-0.00107904 -0.00013278 0)
(-0.000972035 -0.000127654 0)
(-0.000869249 -0.000122293 0)
(-0.000770871 -0.000116701 0)
(-0.00067708 -0.000110885 0)
(-0.000588048 -0.000104852 0)
(-0.000503942 -9.86098e-05 0)
(-0.000424919 -9.21688e-05 0)
(-0.000351128 -8.55405e-05 0)
(-0.000282705 -7.87386e-05 0)
(-0.000219775 -7.17794e-05 0)
(-0.000162447 -6.46818e-05 0)
(-0.000110812 -5.74683e-05 0)
(-6.4941e-05 -5.01652e-05 0)
(-2.48798e-05 -4.2804e-05 0)
(9.35366e-06 -3.54222e-05 0)
(3.77755e-05 -2.80647e-05 0)
(6.04419e-05 -2.07859e-05 0)
(7.74566e-05 -1.3651e-05 0)
(8.89798e-05 -6.73985e-06 0)
(9.52397e-05 -1.50187e-07 0)
(9.65462e-05 5.99713e-06 0)
(9.33068e-05 1.15523e-05 0)
(8.60457e-05 1.63293e-05 0)
(7.54259e-05 2.00964e-05 0)
(6.22734e-05 2.2568e-05 0)
(4.76007e-05 2.34009e-05 0)
(3.25986e-05 2.22097e-05 0)
(1.86179e-05 1.86143e-05 0)
(7.42914e-06 1.23921e-05 0)
(1.39846e-06 4.06362e-06 0)
(1.80518e-06 -8.81457e-06 0)
(9.05875e-06 -2.28721e-05 0)
(2.1828e-05 -3.22845e-05 0)
(3.70187e-05 -3.70431e-05 0)
(5.24658e-05 -3.76613e-05 0)
(6.6587e-05 -3.47845e-05 0)
(7.7992e-05 -2.90484e-05 0)
(8.54895e-05 -2.10242e-05 0)
(8.80979e-05 -1.12001e-05 0)
(8.50221e-05 1.73594e-08 0)
(7.563e-05 1.22937e-05 0)
(5.94291e-05 2.53549e-05 0)
(3.60472e-05 3.89768e-05 0)
(5.21426e-06 5.29758e-05 0)
(-3.32537e-05 6.72007e-05 0)
(-7.94675e-05 8.15269e-05 0)
(-0.000133476 9.58512e-05 0)
(-0.000195277 0.000110088 0)
(-0.000264823 0.000124166 0)
(-0.000342029 0.000138026 0)
(-0.00042678 0.000151619 0)
(-0.000518932 0.000164902 0)
(-0.00061832 0.000177841 0)
(-0.000724758 0.000190408 0)
(-0.000838046 0.000202578 0)
(-0.000957969 0.000214331 0)
(-0.0010843 0.000225651 0)
(-0.0012168 0.000236524 0)
(-0.00135523 0.00024694 0)
(-0.00149934 0.000256889 0)
(-0.00164887 0.000266366 0)
(-0.00180356 0.000275365 0)
(-0.00196315 0.000283883 0)
(-0.00212738 0.000291917 0)
(-0.00229596 0.000299466 0)
(-0.00246865 0.000306531 0)
(-0.00264516 0.000313111 0)
(-0.00282523 0.000319209 0)
(-0.00300859 0.000324827 0)
(-0.00319498 0.000329968 0)
(-0.00338412 0.000334634 0)
(-0.00357576 0.000338831 0)
(-0.00376963 0.000342562 0)
(-0.00396547 0.000345831 0)
(-0.00416302 0.000348645 0)
(-0.00436203 0.000351008 0)
(-0.00456224 0.000352927 0)
(-0.00476341 0.000354406 0)
(-0.0049653 0.000355452 0)
(-0.00516765 0.000356071 0)
(-0.00537022 0.000356271 0)
(-0.00557279 0.000356056 0)
(-0.00577512 0.000355435 0)
(-0.00597699 0.000354414 0)
(-0.00617815 0.000353001 0)
(-0.00637841 0.000351201 0)
(-0.00657753 0.000349024 0)
(-0.00677532 0.000346474 0)
(-0.00697155 0.000343562 0)
(-0.00716602 0.000340292 0)
(-0.00735854 0.000336674 0)
(-0.0075489 0.000332715 0)
(-0.00773692 0.000328422 0)
(-0.0079224 0.000323802 0)
(-0.00810517 0.000318865 0)
(-0.00828504 0.000313616 0)
(-0.00846184 0.000308065 0)
(-0.0086354 0.000302218 0)
(-0.00880556 0.000296084 0)
(-0.00897215 0.000289671 0)
(-0.00913501 0.000282986 0)
(-0.00929399 0.000276037 0)
(-0.00944895 0.000268832 0)
(-0.00959974 0.000261379 0)
(-0.00974622 0.000253687 0)
(-0.00988826 0.000245762 0)
(-0.0100257 0.000237613 0)
(-0.0101585 0.000229249 0)
(-0.0102864 0.000220677 0)
(-0.0104095 0.000211905 0)
(-0.0105274 0.000202942 0)
(-0.0106402 0.000193795 0)
(-0.0107478 0.000184474 0)
(-0.01085 0.000174986 0)
(-0.0109468 0.000165339 0)
(-0.011038 0.000155542 0)
(-0.0111236 0.000145603 0)
(-0.0112035 0.000135531 0)
(-0.0112777 0.000125334 0)
(-0.011346 0.000115021 0)
(-0.0114084 0.000104601 0)
(-0.0114648 9.40813e-05 0)
(-0.0115153 8.34714e-05 0)
(-0.0115597 7.278e-05 0)
(-0.0115979 6.2016e-05 0)
(-0.0116301 5.11882e-05 0)
(-0.011656 4.03055e-05 0)
(-0.0116758 2.9377e-05 0)
(-0.0116893 1.84117e-05 0)
(-0.0116965 7.41878e-06 0)
(-0.0116976 -3.59255e-06 0)
(-0.0116923 -1.4613e-05 0)
(-0.0116808 -2.56334e-05 0)
(-0.011663 -3.66441e-05 0)
(-0.0116389 -4.76359e-05 0)
(-0.0116086 -5.85991e-05 0)
(-0.0115721 -6.95242e-05 0)
(-0.0115294 -8.04015e-05 0)
(-0.0114805 -9.12213e-05 0)
(-0.0114255 -0.000101974 0)
(-0.0113644 -0.00011265 0)
(-0.0112972 -0.000123238 0)
(-0.0112241 -0.00013373 0)
(-0.011145 -0.000144115 0)
(-0.0110601 -0.000154383 0)
(-0.0109693 -0.000164525 0)
(-0.0108728 -0.000174529 0)
(-0.0107707 -0.000184387 0)
(-0.010663 -0.000194087 0)
(-0.0105499 -0.00020362 0)
(-0.0104314 -0.000212976 0)
(-0.0103076 -0.000222144 0)
(-0.0101787 -0.000231114 0)
(-0.0100448 -0.000239876 0)
(-0.0099059 -0.00024842 0)
(-0.00976226 -0.000256736 0)
(-0.00961395 -0.000264813 0)
(-0.00946114 -0.000272642 0)
(-0.00930395 -0.000280212 0)
(-0.00914255 -0.000287514 0)
(-0.00897708 -0.000294537 0)
(-0.0088077 -0.000301272 0)
(-0.00863459 -0.000307708 0)
(-0.00845792 -0.000313837 0)
(-0.00827786 -0.000319648 0)
(-0.00809459 -0.000325133 0)
(-0.00790831 -0.000330281 0)
(-0.00771921 -0.000335084 0)
(-0.00752749 -0.000339532 0)
(-0.00733335 -0.000343616 0)
(-0.00713699 -0.000347328 0)
(-0.00693864 -0.000350659 0)
(-0.00673851 -0.000353601 0)
(-0.00653683 -0.000356145 0)
(-0.00633382 -0.000358284 0)
(-0.0061297 -0.000360009 0)
(-0.00592473 -0.000361314 0)
(-0.00571914 -0.00036219 0)
(-0.00551317 -0.000362631 0)
(-0.00530707 -0.000362631 0)
(-0.00510109 -0.000362183 0)
(-0.00489549 -0.000361281 0)
(-0.00469052 -0.000359919 0)
(-0.00448644 -0.000358091 0)
(-0.00428352 -0.000355794 0)
(-0.00408202 -0.000353023 0)
(-0.00388221 -0.000349773 0)
(-0.00368437 -0.000346042 0)
(-0.00348875 -0.000341825 0)
(-0.00329563 -0.00033712 0)
(-0.0031053 -0.000331927 0)
(-0.00291801 -0.000326242 0)
(-0.00273405 -0.000320066 0)
(-0.00255369 -0.000313399 0)
(-0.0023772 -0.000306241 0)
(-0.00220485 -0.000298594 0)
(-0.00203692 -0.000290461 0)
(-0.00187367 -0.000281846 0)
(-0.00171537 -0.000272753 0)
(-0.00156227 -0.000263189 0)
(-0.00141464 -0.000253161 0)
(-0.00127273 -0.000242678 0)
(-0.00113678 -0.00023175 0)
(-0.00100702 -0.000220392 0)
(-0.000883697 -0.000208617 0)
(-0.000767015 -0.000196444 0)
(-0.000657184 -0.000183893 0)
(-0.000554396 -0.00017099 0)
(-0.000458829 -0.000157761 0)
(-0.000370639 -0.000144241 0)
(-0.000289962 -0.000130469 0)
(-0.000216912 -0.000116489 0)
(-0.000151569 -0.000102356 0)
(-9.39836e-05 -8.81326e-05 0)
(-4.41655e-05 -7.38936e-05 0)
(-2.07901e-06 -5.97278e-05 0)
(3.23651e-05 -4.5741e-05 0)
(5.93186e-05 -3.20599e-05 0)
(7.90063e-05 -1.88369e-05 0)
(9.17391e-05 -6.25563e-06 0)
(9.79291e-05 5.46119e-06 0)
(9.81066e-05 1.60432e-05 0)
(9.29387e-05 2.5163e-05 0)
(8.32495e-05 3.24256e-05 0)
(7.0042e-05 3.73614e-05 0)
(5.45166e-05 3.94281e-05 0)
(3.80593e-05 3.80335e-05 0)
(2.22265e-05 3.26001e-05 0)
(9.13073e-06 2.27175e-05 0)
(1.79494e-06 8.55924e-06 0)
(1.93317e-06 -1.38673e-05 0)
(9.54991e-06 -3.40004e-05 0)
(2.26494e-05 -4.66824e-05 0)
(3.77318e-05 -5.24999e-05 0)
(5.23884e-05 -5.22953e-05 0)
(6.48841e-05 -4.69789e-05 0)
(7.36973e-05 -3.74264e-05 0)
(7.75137e-05 -2.44291e-05 0)
(7.52343e-05 -8.67573e-06 0)
(6.59543e-05 9.24707e-06 0)
(4.89409e-05 2.88459e-05 0)
(2.36133e-05 4.97087e-05 0)
(-1.04767e-05 7.14918e-05 0)
(-5.36615e-05 9.39095e-05 0)
(-0.000106174 0.000116723 0)
(-0.000168162 0.000139734 0)
(-0.000239697 0.000162776 0)
(-0.000320791 0.000185708 0)
(-0.000411399 0.000208415 0)
(-0.000511432 0.000230797 0)
(-0.000620758 0.000252771 0)
(-0.000739213 0.000274269 0)
(-0.000866605 0.00029523 0)
(-0.00100271 0.000315606 0)
(-0.0011473 0.000335356 0)
(-0.00130011 0.000354443 0)
(-0.00146087 0.000372841 0)
(-0.00162928 0.000390525 0)
(-0.00180507 0.000407475 0)
(-0.00198791 0.000423676 0)
(-0.0021775 0.000439116 0)
(-0.00237351 0.000453785 0)
(-0.00257563 0.000467675 0)
(-0.00278352 0.000480783 0)
(-0.00299686 0.000493106 0)
(-0.00321531 0.000504641 0)
(-0.00343854 0.00051539 0)
(-0.00366621 0.000525355 0)
(-0.003898 0.000534537 0)
(-0.00413356 0.000542942 0)
(-0.00437257 0.000550573 0)
(-0.0046147 0.000557438 0)
(-0.00485963 0.000563542 0)
(-0.00510701 0.000568892 0)
(-0.00535654 0.000573497 0)
(-0.00560789 0.000577365 0)
(-0.00586075 0.000580504 0)
(-0.0061148 0.000582924 0)
(-0.00636974 0.000584634 0)
(-0.00662526 0.000585645 0)
(-0.00688106 0.000585968 0)
(-0.00713685 0.000585611 0)
(-0.00739232 0.000584588 0)
(-0.0076472 0.000582907 0)
(-0.0079012 0.000580582 0)
(-0.00815405 0.000577623 0)
(-0.00840546 0.000574043 0)
(-0.00865518 0.000569852 0)
(-0.00890294 0.000565064 0)
(-0.00914848 0.000559689 0)
(-0.00939155 0.000553741 0)
(-0.00963189 0.000547231 0)
(-0.00986928 0.000540173 0)
(-0.0101035 0.000532578 0)
(-0.0103342 0.000524459 0)
(-0.0105613 0.000515828 0)
(-0.0107846 0.000506699 0)
(-0.0110037 0.000497084 0)
(-0.0112185 0.000486996 0)
(-0.0114289 0.000476448 0)
(-0.0116345 0.000465452 0)
(-0.0118352 0.000454022 0)
(-0.0120309 0.000442171 0)
(-0.0122212 0.000429912 0)
(-0.0124062 0.000417257 0)
(-0.0125855 0.000404221 0)
(-0.012759 0.000390816 0)
(-0.0129267 0.000377055 0)
(-0.0130882 0.000362952 0)
(-0.0132435 0.000348521 0)
(-0.0133924 0.000333774 0)
(-0.0135348 0.000318725 0)
(-0.0136706 0.000303388 0)
(-0.0137996 0.000287777 0)
(-0.0139218 0.000271905 0)
(-0.0140369 0.000255785 0)
(-0.014145 0.000239433 0)
(-0.0142458 0.000222861 0)
(-0.0143394 0.000206084 0)
(-0.0144256 0.000189116 0)
(-0.0145044 0.00017197 0)
(-0.0145756 0.000154662 0)
(-0.0146392 0.000137206 0)
(-0.0146952 0.000119616 0)
(-0.0147435 0.000101907 0)
(-0.014784 8.40927e-05 0)
(-0.0148167 6.61888e-05 0)
(-0.0148416 4.82099e-05 0)
(-0.0148586 3.01709e-05 0)
(-0.0148677 1.20869e-05 0)
(-0.0148689 -6.0269e-06 0)
(-0.0148622 -2.41553e-05 0)
(-0.0148476 -4.22828e-05 0)
(-0.014825 -6.0394e-05 0)
(-0.0147946 -7.84733e-05 0)
(-0.0147563 -9.6505e-05 0)
(-0.0147101 -0.000114473 0)
(-0.0146561 -0.000132363 0)
(-0.0145943 -0.000150156 0)
(-0.0145248 -0.000167839 0)
(-0.0144476 -0.000185394 0)
(-0.0143627 -0.000202806 0)
(-0.0142703 -0.000220057 0)
(-0.0141704 -0.000237132 0)
(-0.0140631 -0.000254015 0)
(-0.0139485 -0.000270688 0)
(-0.0138266 -0.000287135 0)
(-0.0136977 -0.000303339 0)
(-0.0135617 -0.000319285 0)
(-0.0134188 -0.000334955 0)
(-0.0132692 -0.000350332 0)
(-0.0131129 -0.0003654 0)
(-0.0129502 -0.000380141 0)
(-0.0127811 -0.000394541 0)
(-0.0126057 -0.000408581 0)
(-0.0124244 -0.000422245 0)
(-0.0122372 -0.000435516 0)
(-0.0120443 -0.000448379 0)
(-0.0118459 -0.000460816 0)
(-0.0116421 -0.000472811 0)
(-0.0114333 -0.000484348 0)
(-0.0112195 -0.00049541 0)
(-0.011001 -0.000505983 0)
(-0.010778 -0.000516049 0)
(-0.0105508 -0.000525594 0)
(-0.0103195 -0.000534601 0)
(-0.0100844 -0.000543055 0)
(-0.00984572 -0.000550942 0)
(-0.00960376 -0.000558246 0)
(-0.00935876 -0.000564953 0)
(-0.00911096 -0.000571049 0)
(-0.00886065 -0.000576519 0)
(-0.0086081 -0.00058135 0)
(-0.00835358 -0.000585529 0)
(-0.00809738 -0.000589042 0)
(-0.0078398 -0.000591878 0)
(-0.00758113 -0.000594024 0)
(-0.00732167 -0.000595467 0)
(-0.00706173 -0.000596198 0)
(-0.00680162 -0.000596206 0)
(-0.00654165 -0.000595479 0)
(-0.00628214 -0.000594009 0)
(-0.00602342 -0.000591787 0)
(-0.00576581 -0.000588804 0)
(-0.00550965 -0.000585052 0)
(-0.00525525 -0.000580525 0)
(-0.00500297 -0.000575215 0)
(-0.00475313 -0.000569119 0)
(-0.00450608 -0.000562231 0)
(-0.00426215 -0.000554547 0)
(-0.00402169 -0.000546065 0)
(-0.00378504 -0.000536784 0)
(-0.00355253 -0.000526702 0)
(-0.00332452 -0.000515821 0)
(-0.00310134 -0.000504143 0)
(-0.00288332 -0.000491671 0)
(-0.0026708 -0.00047841 0)
(-0.00246412 -0.000464367 0)
(-0.00226359 -0.000449552 0)
(-0.00206955 -0.000433975 0)
(-0.00188231 -0.00041765 0)
(-0.00170217 -0.000400592 0)
(-0.00152944 -0.000382821 0)
(-0.00136441 -0.000364359 0)
(-0.00120734 -0.000345232 0)
(-0.00105852 -0.000325471 0)
(-0.000918178 -0.000305112 0)
(-0.000786552 -0.000284197 0)
(-0.00066385 -0.000262773 0)
(-0.000550258 -0.000240897 0)
(-0.000445934 -0.000218634 0)
(-0.000351004 -0.00019606 0)
(-0.000265557 -0.000173264 0)
(-0.000189642 -0.000150351 0)
(-0.000123258 -0.000127443 0)
(-6.63487e-05 -0.000104684 0)
(-1.87937e-05 -8.22442e-05 0)
(1.96026e-05 -6.03251e-05 0)
(4.91213e-05 -3.91665e-05 0)
(7.01427e-05 -1.90535e-05 0)
(8.31607e-05 -3.26176e-07 0)
(8.87999e-05 1.66103e-05 0)
(8.78329e-05 3.12742e-05 0)
(8.11981e-05 4.30976e-05 0)
(7.0019e-05 5.142e-05 0)
(5.56229e-05 5.54927e-05 0)
(3.95297e-05 5.45026e-05 0)
(2.34557e-05 4.7627e-05 0)
(9.77547e-06 3.41505e-05 0)
(1.94955e-06 1.36755e-05 0)
(1.88808e-06 -1.89393e-05 0)
(9.1934e-06 -4.49801e-05 0)
(2.14517e-05 -6.04768e-05 0)
(3.49955e-05 -6.66754e-05 0)
(4.7273e-05 -6.48145e-05 0)
(5.6439e-05 -5.61072e-05 0)
(6.08839e-05 -4.16854e-05 0)
(5.92142e-05 -2.25672e-05 0)
(5.0255e-05 3.53957e-07 0)
(3.3028e-05 2.63068e-05 0)
(6.73058e-06 5.46323e-05 0)
(-2.92824e-05 8.47716e-05 0)
(-7.5516e-05 0.000116252 0)
(-0.000132352 0.000148674 0)
(-0.000200062 0.000181702 0)
(-0.000278824 0.000215052 0)
(-0.000368734 0.000248483 0)
(-0.000469814 0.000281793 0)
(-0.000582024 0.00031481 0)
(-0.000705272 0.000347388 0)
(-0.000839416 0.000379404 0)
(-0.000984275 0.000410753 0)
(-0.00113963 0.000441347 0)
(-0.00130525 0.00047111 0)
(-0.00148084 0.000499979 0)
(-0.00166612 0.0005279 0)
(-0.00186077 0.00055483 0)
(-0.00206446 0.00058073 0)
(-0.00227686 0.00060557 0)
(-0.00249759 0.000629325 0)
(-0.00272631 0.000651974 0)
(-0.00296263 0.000673503 0)
(-0.00320618 0.000693898 0)