/*--------------------------------*- C++ -*----------------------------------*\
  =========                 |
  \\      /  F ield         | OpenFOAM: The Open Source CFD Toolbox
   \\    /   O peration     | Website:  https://openfoam.org
    \\  /    A nd           | Version:  7
     \\/     M anipulation  |
\*---------------------------------------------------------------------------*/
FoamFile
{
    version     2.0;
    format      ascii;
    class       volScalarField;
    location    "18";
    object      rho;
}
// * * * * * * * * * * * * * * * * * * * * * * * * * * * * * * * * * * * * * //

dimensions      [1 -3 0 0 0 0 0];

internalField   nonuniform List<scalar> 
2413
(
1.15056
1.14981
1.14857
1.14688
1.14481
1.14243
1.13957
1.13631
1.13281
1.12919
1.12564
1.12222
1.1189
1.11555
1.1121
1.10882
1.10576
1.10259
1.09918
1.09556
1.09191
1.08839
1.08524
1.08267
1.08093
1.0798
1.07893
1.07817
1.07753
1.07725
1.07786
1.07897
1.08055
1.08267
1.08532
1.0885
1.09212
1.09587
1.09905
1.10151
1.10344
1.10435
1.10376
1.10179
1.09971
1.09924
1.10042
1.10192
1.10348
1.1053
1.10765
1.11072
1.1145
1.11871
1.12307
1.12744
1.13177
1.13595
1.13991
1.14375
1.1475
1.15119
1.15485
1.15847
1.16201
1.16543
1.16876
1.17212
1.17564
1.17936
1.18318
1.18702
1.19084
1.19451
1.19793
1.20107
1.20386
1.20627
1.20851
1.21078
1.213
1.21505
1.21715
1.21971
1.22286
1.22637
1.23003
1.23382
1.2375
1.24075
1.24371
1.24679
1.25027
1.2543
1.2591
1.26488
1.27173
1.27959
1.28825
1.29679
1.30421
1.31
1.3141
1.31654
1.31747
1.31754
1.31766
1.3181
1.31892
1.32011
1.32161
1.32319
1.32462
1.3258
1.32682
1.32786
1.32904
1.33023
1.33121
1.33184
1.33212
1.33208
1.33152
1.33066
1.32969
1.32868
1.32778
1.327
1.32629
1.32552
1.32459
1.32348
1.15767
1.15462
1.15105
1.1472
1.14339
1.13952
1.13556
1.13186
1.12846
1.12535
1.12258
1.12012
1.11784
1.11548
1.11305
1.11077
1.1085
1.10603
1.10327
1.10021
1.09697
1.0938
1.09091
1.08849
1.08682
1.08579
1.08504
1.08447
1.08394
1.08349
1.08362
1.0843
1.08524
1.08651
1.08814
1.0901
1.09219
1.09436
1.09673
1.09907
1.10088
1.10192
1.10213
1.10145
1.1006
1.10131
1.10274
1.10419
1.10581
1.10778
1.11016
1.11297
1.11618
1.11972
1.12347
1.1274
1.13151
1.1358
1.14021
1.14467
1.14911
1.15346
1.15766
1.16171
1.16563
1.16939
1.17295
1.17628
1.17941
1.1825
1.18565
1.18885
1.19219
1.19569
1.19926
1.20287
1.20638
1.20956
1.21228
1.21471
1.21709
1.21954
1.22186
1.22403
1.22631
1.22886
1.23167
1.23464
1.23781
1.24104
1.24432
1.24785
1.25161
1.25539
1.25935
1.26372
1.26909
1.27595
1.28387
1.29215
1.3
1.30693
1.31236
1.31619
1.31889
1.3203
1.32032
1.32031
1.32065
1.32149
1.32278
1.32432
1.32586
1.32722
1.32836
1.32939
1.3304
1.33124
1.33176
1.33192
1.33192
1.33205
1.3321
1.33163
1.33101
1.33032
1.32948
1.32858
1.32774
1.32688
1.32583
1.32456
1.1651
1.16024
1.15565
1.15144
1.14794
1.14513
1.14273
1.14079
1.13926
1.13803
1.13707
1.13642
1.13579
1.13481
1.13351
1.13205
1.13034
1.12836
1.1261
1.12356
1.12077
1.11793
1.11523
1.11285
1.11092
1.10952
1.10849
1.10761
1.10686
1.10633
1.10631
1.10658
1.10712
1.10774
1.10831
1.10871
1.10877
1.10833
1.10738
1.10613
1.10481
1.10364
1.10259
1.10189
1.10239
1.10369
1.10528
1.10727
1.10981
1.11291
1.11654
1.12057
1.1248
1.12913
1.13359
1.13817
1.14288
1.14775
1.15283
1.15802
1.16318
1.16825
1.17314
1.1778
1.18221
1.18634
1.19007
1.19342
1.19654
1.1996
1.20276
1.2061
1.20976
1.21384
1.21832
1.22311
1.22796
1.23225
1.23549
1.23793
1.23991
1.24161
1.24323
1.24492
1.24681
1.24889
1.25095
1.25287
1.25478
1.25606
1.25633
1.25637
1.25748
1.25935
1.26128
1.26347
1.26612
1.26948
1.27463
1.28175
1.29006
1.29857
1.3063
1.31276
1.31811
1.32276
1.32548
1.32565
1.32542
1.3254
1.32588
1.32692
1.32836
1.33003
1.33178
1.33355
1.33526
1.33669
1.33753
1.33776
1.33773
1.33798
1.33792
1.33698
1.33632
1.33562
1.33461
1.33356
1.33258
1.33161
1.33049
1.32905
1.19679
1.19354
1.19076
1.18823
1.18598
1.18395
1.18179
1.17921
1.17627
1.17316
1.16979
1.1663
1.16295
1.15978
1.15671
1.15371
1.15087
1.14826
1.14589
1.14371
1.14148
1.13913
1.13677
1.13463
1.13276
1.13115
1.1298
1.12863
1.12765
1.12701
1.12673
1.12675
1.12705
1.1274
1.12766
1.12796
1.12813
1.12787
1.12714
1.12604
1.12478
1.12349
1.12214
1.1215
1.12165
1.12217
1.12311
1.12452
1.12653
1.12923
1.13267
1.13679
1.14143
1.1464
1.15157
1.15696
1.16266
1.16872
1.17509
1.18166
1.18824
1.1947
1.20088
1.20669
1.21209
1.21709
1.22156
1.22524
1.22809
1.23061
1.23323
1.23616
1.23958
1.24363
1.24843
1.2541
1.26042
1.26678
1.2719
1.2753
1.27798
1.27984
1.28039
1.2806
1.28118
1.282
1.28274
1.28357
1.28432
1.2844
1.28325
1.2806
1.27687
1.27268
1.26921
1.26677
1.26646
1.26737
1.26788
1.27008
1.27578
1.28377
1.29304
1.30281
1.31198
1.32051
1.32821
1.33135
1.3317
1.33099
1.33078
1.33111
1.33222
1.33403
1.33628
1.33876
1.34121
1.34337
1.34506
1.34613
1.34667
1.34726
1.34723
1.34666
1.34632
1.34574
1.34468
1.3434
1.34205
1.34086
1.33963
1.338
1.25336
1.24932
1.2451
1.24066
1.23604
1.23142
1.22672
1.22179
1.21674
1.21173
1.20671
1.20181
1.19738
1.1937
1.19066
1.18809
1.18599
1.18419
1.18304
1.18236
1.18152
1.18026
1.17896
1.17787
1.17677
1.17569
1.17471
1.17376
1.17282
1.17216
1.17156
1.17094
1.17026
1.16934
1.16808
1.1667
1.16526
1.16363
1.16199
1.16056
1.1596
1.15902
1.15881
1.15904
1.15968
1.1606
1.16191
1.16381
1.16624
1.16919
1.17277
1.177
1.18177
1.18694
1.19247
1.19835
1.20459
1.21116
1.21805
1.22515
1.23228
1.23921
1.24582
1.25208
1.25796
1.26342
1.26838
1.27259
1.27581
1.27827
1.28044
1.28274
1.28547
1.28874
1.29272
1.29763
1.30349
1.31025
1.31715
1.32223
1.32505
1.3271
1.32873
1.3297
1.33002
1.33019
1.3303
1.33027
1.32973
1.32813
1.32492
1.31972
1.31195
1.3016
1.29035
1.28051
1.2739
1.27058
1.26768
1.26563
1.26644
1.27
1.2774
1.28788
1.30034
1.31313
1.32457
1.33459
1.34087
1.3421
1.342
1.34205
1.34261
1.34396
1.34603
1.3486
1.35129
1.35379
1.35614
1.35822
1.35948
1.3601
1.35986
1.35939
1.35934
1.35894
1.3579
1.35657
1.35507
1.35353
1.35187
1.34984
1.3111
1.30722
1.30309
1.29876
1.29427
1.28976
1.28528
1.28074
1.27616
1.27157
1.26701
1.26244
1.25802
1.25398
1.25058
1.24788
1.24573
1.24384
1.2424
1.24151
1.24099
1.24049
1.23981
1.23917
1.23858
1.2379
1.2374
1.2369
1.23639
1.23617
1.23613
1.23587
1.23552
1.23518
1.23415
1.23289
1.23174
1.23027
1.22838
1.22631
1.2244
1.22282
1.22161
1.22079
1.22035
1.22031
1.22072
1.22157
1.22282
1.22465
1.22717
1.23042
1.23429
1.23871
1.24355
1.24876
1.25435
1.2603
1.26659
1.27311
1.27972
1.28626
1.29256
1.29856
1.30423
1.30949
1.31434
1.31874
1.32228
1.32478
1.32681
1.32879
1.3309
1.33327
1.33616
1.33973
1.34417
1.34962
1.35605
1.36277
1.36708
1.36968
1.37255
1.37514
1.37563
1.37558
1.37579
1.37612
1.37569
1.37384
1.37073
1.36585
1.35775
1.34573
1.33017
1.31165
1.29294
1.27957
1.27216
1.26859
1.26526
1.26369
1.26626
1.27328
1.28418
1.29818
1.31361
1.32847
1.34239
1.35237
1.35484
1.3552
1.35557
1.35637
1.35781
1.35982
1.36211
1.36451
1.36702
1.36952
1.37163
1.37249
1.37247
1.37238
1.37264
1.37248
1.37178
1.37082
1.36957
1.3679
1.36608
1.36408
1.36406
1.36196
1.35947
1.35659
1.35336
1.3499
1.34627
1.34252
1.33865
1.33465
1.33053
1.32634
1.32208
1.31761
1.31346
1.31
1.30697
1.30416
1.30175
1.30048
1.29961
1.2987
1.29782
1.29737
1.29685
1.29595
1.29524
1.29448
1.29372
1.29346
1.29336
1.2927
1.29234
1.29261
1.29205
1.29101
1.29066
1.2902
1.28877
1.28747
1.28686
1.28579
1.28479
1.28421
1.28411
1.28428
1.28412
1.28418
1.28513
1.28645
1.2877
1.2895
1.29225
1.2955
1.29906
1.30312
1.30744
1.31184
1.31646
1.32126
1.32617
1.33109
1.33586
1.34048
1.34499
1.34929
1.35338
1.35726
1.36073
1.36341
1.36543
1.36717
1.36896
1.37114
1.37355
1.37602
1.37908
1.38291
1.38732
1.39265
1.39717
1.39976
1.40237
1.40499
1.40664
1.40794
1.40875
1.40878
1.40799
1.40754
1.40675
1.40317
1.39612
1.38574
1.37159
1.35329
1.33131
1.30729
1.28646
1.27415
1.26867
1.26528
1.26212
1.26429
1.27111
1.28276
1.29953
1.31898
1.33757
1.35508
1.36626
1.36915
1.3698
1.37028
1.37106
1.37232
1.37375
1.37548
1.3776
1.37979
1.38194
1.3833
1.38377
1.38385
1.38405
1.3842
1.38395
1.38318
1.38198
1.38054
1.37897
1.37692
1.40268
1.40159
1.40013
1.39823
1.39646
1.39465
1.3926
1.39062
1.38862
1.38638
1.38388
1.38128
1.37862
1.37541
1.37199
1.36903
1.36614
1.36328
1.36082
1.35916
1.3578
1.35638
1.35531
1.35462
1.35353
1.3523
1.35124
1.35006
1.34925
1.3491
1.34866
1.34794
1.34778
1.34815
1.34778
1.3471
1.34709
1.34692
1.34569
1.34486
1.34487
1.34437
1.34354
1.34341
1.34387
1.34421
1.34388
1.34345
1.3442
1.34505
1.34491
1.34472
1.34609
1.34713
1.34867
1.35122
1.3536
1.35604
1.35885
1.36185
1.36498
1.36822
1.37131
1.37429
1.3772
1.38004
1.38288
1.38572
1.3886
1.39121
1.39331
1.39518
1.39718
1.39943
1.40109
1.40225
1.40391
1.40624
1.40898
1.41209
1.41495
1.4163
1.41741
1.419
1.4209
1.42199
1.42188
1.42129
1.42172
1.42245
1.42149
1.41857
1.4159
1.41127
1.40163
1.3865
1.36699
1.34387
1.31751
1.2918
1.27535
1.26821
1.26412
1.26117
1.2641
1.27189
1.28448
1.30234
1.32439
1.34697
1.36902
1.38144
1.38328
1.38369
1.38428
1.38512
1.38549
1.3862
1.38742
1.38858
1.38983
1.39123
1.39221
1.39258
1.39294
1.39346
1.39332
1.39257
1.39185
1.39113
1.3895
1.38726
1.43215
1.43012
1.42819
1.42643
1.42474
1.42316
1.42178
1.42062
1.41955
1.41844
1.41703
1.41556
1.41396
1.41185
1.40947
1.40741
1.40515
1.40245
1.40055
1.39945
1.3982
1.39713
1.39651
1.39618
1.39587
1.39568
1.39563
1.3956
1.39563
1.396
1.39581
1.39517
1.39507
1.3951
1.39421
1.39339
1.393
1.39217
1.39078
1.38972
1.38886
1.38784
1.38666
1.38577
1.38512
1.38419
1.38293
1.38146
1.38031
1.37953
1.37844
1.37665
1.37525
1.37489
1.37572
1.37733
1.37901
1.38073
1.38249
1.38438
1.38638
1.38848
1.39054
1.39253
1.39452
1.39651
1.39853
1.40054
1.40261
1.40461
1.40643
1.40828
1.41027
1.41207
1.41362
1.41548
1.41749
1.41964
1.42212
1.42456
1.42574
1.42606
1.42641
1.42748
1.42862
1.42851
1.42771
1.42876
1.42991
1.42989
1.42905
1.4293
1.42882
1.42493
1.41733
1.40634
1.39177
1.37291
1.34897
1.32033
1.29256
1.27536
1.26769
1.2624
1.26177
1.26641
1.27527
1.2902
1.31268
1.34078
1.36965
1.38875
1.39348
1.39452
1.39539
1.39604
1.3962
1.39631
1.39653
1.39668
1.39686
1.39761
1.39844
1.39898
1.39956
1.3998
1.39925
1.399
1.3991
1.3984
1.39641
1.39537
1.45656
1.45423
1.45188
1.44983
1.44782
1.44588
1.4441
1.44255
1.44115
1.43961
1.43781
1.43589
1.43391
1.43171
1.42928
1.42708
1.4248
1.42202
1.41961
1.41846
1.41718
1.41541
1.41422
1.41348
1.41286
1.41236
1.41199
1.41166
1.41131
1.41074
1.40979
1.40868
1.40788
1.40697
1.40562
1.40459
1.40382
1.40281
1.40162
1.40061
1.39957
1.39829
1.39692
1.39559
1.39426
1.39286
1.39132
1.38985
1.38842
1.38706
1.38587
1.38452
1.38272
1.38233
1.38355
1.38501
1.38632
1.38791
1.3897
1.39142
1.39308
1.39472
1.39649
1.39831
1.40017
1.4021
1.40407
1.406
1.40785
1.40954
1.41111
1.41276
1.41443
1.41597
1.41766
1.41969
1.42173
1.42384
1.42621
1.42798
1.42845
1.4287
1.42994
1.43167
1.43198
1.43139
1.4325
1.43419
1.4348
1.43547
1.43651
1.4363
1.43401
1.43144
1.42714
1.41893
1.4063
1.38884
1.36781
1.34214
1.31252
1.28693
1.27345
1.26637
1.26264
1.26519
1.27195
1.28346
1.30172
1.32743
1.35809
1.38487
1.39815
1.40208
1.40399
1.40477
1.4048
1.40472
1.40437
1.40397
1.40352
1.40298
1.40319
1.40383
1.40439
1.40393
1.40345
1.40415
1.40416
1.40285
1.40209
1.40212
1.46824
1.46659
1.46476
1.46311
1.46162
1.45996
1.45798
1.4561
1.45436
1.45254
1.45077
1.44897
1.44708
1.44513
1.44316
1.4411
1.4389
1.43629
1.4337
1.43205
1.43019
1.42751
1.42524
1.42314
1.42118
1.41951
1.418
1.41691
1.41599
1.415
1.41379
1.41266
1.41171
1.41068
1.40956
1.40872
1.40793
1.40696
1.40588
1.40486
1.40377
1.40245
1.40103
1.39974
1.39852
1.39725
1.39587
1.39453
1.39326
1.39188
1.3905
1.38933
1.38821
1.38755
1.38824
1.38947
1.39039
1.3918
1.39383
1.39572
1.39728
1.39863
1.40017
1.40186
1.4036
1.4055
1.40753
1.40954
1.41146
1.41329
1.41507
1.41667
1.41802
1.41941
1.42098
1.42254
1.42386
1.42537
1.42726
1.42837
1.42882
1.4296
1.43045
1.43034
1.42869
1.4279
1.42924
1.42994
1.42978
1.43122
1.43274
1.43199
1.4296
1.42883
1.42633
1.41887
1.40758
1.3944
1.37689
1.35452
1.32656
1.29822
1.28008
1.27149
1.26635
1.26729
1.27198
1.28091
1.29579
1.31837
1.34877
1.38051
1.39985
1.40699
1.41008
1.41158
1.41175
1.41166
1.4111
1.4101
1.409
1.40783
1.40748
1.40788
1.40792
1.40702
1.40718
1.40791
1.4071
1.40623
1.40676
1.40617
1.47416
1.4726
1.47101
1.46962
1.4684
1.4668
1.46484
1.46294
1.46105
1.45909
1.45729
1.45549
1.45345
1.45118
1.44887
1.44667
1.44441
1.4419
1.43963
1.43808
1.43637
1.4342
1.43226
1.43033
1.42824
1.42625
1.42446
1.42308
1.42189
1.42072
1.41947
1.41846
1.4176
1.41661
1.41574
1.41504
1.41426
1.4133
1.41222
1.41107
1.40986
1.40847
1.40696
1.40564
1.40458
1.40355
1.40235
1.40113
1.40004
1.39897
1.39777
1.39684
1.39625
1.39584
1.3962
1.39724
1.39784
1.39812
1.39954
1.4013
1.40247
1.40324
1.40441
1.4058
1.40734
1.40886
1.41047
1.4122
1.41407
1.41601
1.41794
1.41976
1.42136
1.42282
1.42427
1.42545
1.42654
1.42769
1.42851
1.42856
1.42794
1.42774
1.42748
1.42575
1.4239
1.42431
1.42492
1.42452
1.42455
1.42609
1.42714
1.42608
1.4242
1.42427
1.42212
1.41505
1.40452
1.39124
1.37504
1.35532
1.33188
1.30593
1.28722
1.27812
1.27304
1.27272
1.27552
1.28241
1.2949
1.31459
1.34137
1.37173
1.39623
1.4091
1.41465
1.41683
1.41712
1.41704
1.41639
1.415
1.41318
1.41163
1.41132
1.41135
1.41058
1.41003
1.41082
1.41067
1.40948
1.40979
1.41003
1.40812
1.47827
1.47671
1.47527
1.4741
1.47309
1.47146
1.46945
1.46739
1.46519
1.46282
1.46036
1.45793
1.4553
1.45237
1.44938
1.44693
1.44461
1.44199
1.43973
1.43818
1.43641
1.43466
1.43331
1.4318
1.4299
1.42793
1.4261
1.42456
1.4232
1.42196
1.42084
1.41996
1.41918
1.41829
1.41751
1.41708
1.4168
1.4165
1.41607
1.41551
1.41477
1.41374
1.4125
1.41132
1.41026
1.40915
1.40788
1.40647
1.40497
1.4033
1.40152
1.39992
1.39879
1.39795
1.39714
1.39691
1.39727
1.39704
1.39755
1.39922
1.40048
1.40145
1.403
1.40462
1.40624
1.40808
1.41006
1.41206
1.41407
1.41615
1.41824
1.42044
1.42288
1.4246
1.42546
1.42605
1.42656
1.42681
1.42682
1.42634
1.42558
1.42505
1.42386
1.4212
1.41955
1.41937
1.41846
1.41711
1.41701
1.41744
1.41787
1.41729
1.41519
1.41486
1.41417
1.40944
1.39995
1.38727
1.3721
1.35392
1.33221
1.30927
1.29295
1.28526
1.28133
1.28087
1.28231
1.2872
1.29753
1.31426
1.33739
1.36514
1.39178
1.41016
1.41839
1.42042
1.4206
1.42051
1.4198
1.41821
1.41597
1.41475
1.41464
1.41418
1.4132
1.41336
1.41397
1.41282
1.41234
1.413
1.41183
1.40956
1.48183
1.48015
1.47879
1.47768
1.47632
1.4743
1.47219
1.47001
1.46757
1.4647
1.46148
1.45834
1.45515
1.45183
1.44839
1.44586
1.44356
1.44102
1.43906
1.43746
1.4358
1.43417
1.43276
1.43117
1.42927
1.42731
1.42547
1.42393
1.42258
1.42132
1.42023
1.41941
1.41864
1.41777
1.41701
1.41639
1.41594
1.41558
1.41516
1.41457
1.41379
1.4128
1.4116
1.4104
1.40929
1.40811
1.40674
1.40512
1.40329
1.4013
1.39934
1.39771
1.39653
1.39561
1.39494
1.39465
1.39479
1.39472
1.39444
1.39557
1.39707
1.39868
1.40044
1.4023
1.40425
1.40628
1.40839
1.4106
1.41279
1.41495
1.4169
1.41868
1.42073
1.42279
1.42372
1.42429
1.42476
1.4249
1.42481
1.42412
1.42274
1.42113
1.41882
1.4154
1.41288
1.41142
1.40948
1.4076
1.40654
1.40607
1.40608
1.40591
1.40354
1.40245
1.40271
1.39947
1.3912
1.38015
1.36697
1.35085
1.3316
1.31223
1.29922
1.2927
1.29011
1.28983
1.29067
1.29464
1.30322
1.31719
1.33703
1.36147
1.38748
1.40982
1.42079
1.42237
1.42247
1.42236
1.42163
1.41995
1.41796
1.41737
1.4173
1.41647
1.41595
1.41669
1.41631
1.41519
1.41566
1.41527
1.41269
1.41218
1.48399
1.48216
1.48076
1.47969
1.47796
1.47581
1.47365
1.47142
1.46887
1.46581
1.46217
1.45881
1.4557
1.45244
1.44903
1.44624
1.44378
1.4414
1.43938
1.43745
1.43541
1.4334
1.43162
1.42964
1.42742
1.42522
1.42312
1.42127
1.41968
1.41824
1.41701
1.41617
1.41543
1.41474
1.41417
1.41375
1.41349
1.41333
1.41309
1.41259
1.41178
1.41075
1.4095
1.40811
1.40678
1.40542
1.40383
1.40196
1.3998
1.39748
1.39521
1.3933
1.39201
1.39101
1.38999
1.38964
1.39
1.39014
1.39041
1.39171
1.39349
1.39548
1.39765
1.4
1.40234
1.40453
1.40668
1.40878
1.41078
1.41277
1.41458
1.41621
1.41796
1.41975
1.42095
1.42167
1.42207
1.42211
1.42169
1.42055
1.41851
1.41575
1.41216
1.40773
1.40441
1.40226
1.39972
1.39712
1.39528
1.3943
1.3941
1.39419
1.39219
1.38984
1.39078
1.38954
1.38305
1.37315
1.36136
1.34719
1.33073
1.31529
1.3054
1.3002
1.29874
1.2984
1.29921
1.30306
1.31073
1.32262
1.33935
1.36046
1.38475
1.40889
1.42201
1.42353
1.42359
1.42344
1.42279
1.42126
1.41988
1.41958
1.4195
1.41872
1.41874
1.4194
1.41829
1.41791
1.4184
1.4164
1.4142
1.41444
1.48423
1.48238
1.48094
1.47988
1.47829
1.47617
1.47401
1.47184
1.46933
1.46629
1.4626
1.45914
1.45605
1.45289
1.4497
1.44682
1.44421
1.44164
1.43918
1.43688
1.43447
1.43201
1.42978
1.42744
1.42496
1.42249
1.42003
1.41764
1.41548
1.4136
1.41189
1.41049
1.40941
1.40861
1.40809
1.40783
1.40785
1.40808
1.40813
1.40796
1.40737
1.40636
1.40495
1.40328
1.40162
1.39998
1.39826
1.39637
1.39428
1.39205
1.38984
1.38799
1.38671
1.38553
1.38479
1.38557
1.38675
1.38751
1.38854
1.39011
1.39202
1.39409
1.39629
1.39862
1.40098
1.40327
1.40549
1.40752
1.40938
1.41114
1.41271
1.41415
1.41566
1.4171
1.41801
1.41855
1.41888
1.4188
1.41791
1.41602
1.41293
1.40898
1.40432
1.39906
1.39559
1.39332
1.39027
1.38733
1.38544
1.38464
1.38463
1.38522
1.3839
1.38126
1.38308
1.38288
1.37695
1.3673
1.35648
1.3443
1.3306
1.31878
1.31112
1.30684
1.30575
1.30555
1.30661
1.31049
1.31763
1.3283
1.34285
1.36156
1.3839
1.40766
1.42231
1.42453
1.42461
1.42445
1.42403
1.4228
1.42174
1.4216
1.42146
1.42088
1.42138
1.42136
1.42018
1.42049
1.42021
1.41718
1.41621
1.41596
1.48465
1.4825
1.48076
1.47947
1.47795
1.47583
1.4735
1.47116
1.46867
1.46568
1.46213
1.45881
1.45595
1.45301
1.44993
1.44696
1.44415
1.44131
1.43841
1.43566
1.43297
1.43027
1.42763
1.42488
1.42205
1.41923
1.41646
1.41377
1.41123
1.40884
1.40648
1.40438
1.40292
1.40207
1.40151
1.4013
1.40186
1.4027
1.40309
1.40312
1.40298
1.40228
1.40086
1.39904
1.39717
1.3954
1.39373
1.39206
1.39035
1.38857
1.38685
1.38534
1.38402
1.38314
1.38349
1.38472
1.38596
1.38668
1.38769
1.38932
1.39138
1.39364
1.39592
1.39826
1.4007
1.40315
1.40544
1.40744
1.40929
1.41066
1.41169
1.4128
1.41401
1.41478
1.41499
1.41495
1.41495
1.41439
1.41272
1.41009
1.40633
1.4018
1.39639
1.391
1.38798
1.38527
1.38158
1.37867
1.37727
1.37685
1.37725
1.37849
1.37793
1.37564
1.3776
1.37787
1.37257
1.36377
1.35422
1.34325
1.3315
1.32266
1.31666
1.31274
1.3116
1.31147
1.31261
1.31637
1.32309
1.33303
1.34645
1.36352
1.38405
1.40627
1.4222
1.42551
1.42585
1.42578
1.42562
1.42471
1.42379
1.4237
1.4235
1.42302
1.42358
1.42294
1.42191
1.42241
1.42136
1.41833
1.41799
1.41675
1.48703
1.48453
1.48199
1.4801
1.47847
1.47618
1.47339
1.47072
1.46826
1.46539
1.46205
1.45877
1.45601
1.45312
1.44996
1.44682
1.44381
1.44074
1.43748
1.43425
1.43111
1.42803
1.42499
1.42191
1.41887
1.41582
1.41274
1.4097
1.40683
1.40426
1.40183
1.39953
1.39804
1.39716
1.39635
1.39632
1.39766
1.39914
1.39998
1.40039
1.40058
1.40046
1.39949
1.39776
1.39582
1.3941
1.39268
1.39138
1.39003
1.38854
1.38693
1.38531
1.38371
1.38278
1.3834
1.38477
1.38613
1.38717
1.38848
1.39028
1.39249
1.39481
1.39702
1.39939
1.40189
1.40424
1.40641
1.40854
1.41034
1.41151
1.41227
1.41262
1.41272
1.41248
1.41172
1.41122
1.4109
1.40969
1.40735
1.40418
1.40006
1.39495
1.38909
1.38451
1.38176
1.37852
1.37472
1.37233
1.37143
1.37122
1.37224
1.37399
1.37375
1.37263
1.37515
1.37589
1.37135
1.36293
1.35359
1.34332
1.33365
1.32707
1.32198
1.31825
1.31692
1.3167
1.31774
1.32129
1.3277
1.33715
1.34965
1.36556
1.38473
1.40516
1.42172
1.42651
1.42712
1.42723
1.42727
1.42672
1.42589
1.42584
1.4255
1.42491
1.42528
1.42429
1.42334
1.42379
1.42235
1.41966
1.41942
1.41752
1.49147
1.48883
1.48553
1.48288
1.48083
1.47817
1.47485
1.4715
1.46876
1.46582
1.46254
1.45914
1.45617
1.45322
1.44997
1.44654
1.44328
1.43993
1.4363
1.43267
1.42917
1.42567
1.42215
1.41871
1.41541
1.41215
1.40888
1.40573
1.40293
1.40042
1.39807
1.39587
1.39452
1.39365
1.39343
1.39429
1.39585
)
;

boundaryField
{
    inlet
    {
        type            calculated;
        value           nonuniform 0();
    }
    outlet
    {
        type            calculated;
        value           nonuniform 0();
    }
    bottom
    {
        type            symmetryPlane;
    }
    top
    {
        type            symmetryPlane;
    }
    obstacle
    {
        type            calculated;
        value           nonuniform List<scalar> 
132
(
1.15056
1.14981
1.14857
1.14688
1.14481
1.14243
1.13957
1.13631
1.13281
1.12919
1.12564
1.12222
1.1189
1.11555
1.1121
1.10882
1.10576
1.10259
1.09918
1.09556
1.09191
1.08839
1.08524
1.08267
1.08093
1.0798
1.07893
1.07817
1.07753
1.07725
1.07786
1.07897
1.08055
1.08267
1.08532
1.0885
1.09212
1.09587
1.09905
1.10151
1.10344
1.10435
1.10376
1.10179
1.09971
1.09924
1.10042
1.10192
1.10348
1.1053
1.10765
1.11072
1.1145
1.11871
1.12307
1.12744
1.13177
1.13595
1.13991
1.14375
1.1475
1.15119
1.15485
1.15847
1.16201
1.16543
1.16876
1.17212
1.17564
1.17936
1.18318
1.18702
1.19084
1.19451
1.19793
1.20107
1.20386
1.20627
1.20851
1.21078
1.213
1.21505
1.21715
1.21971
1.22286
1.22637
1.23003
1.23382
1.2375
1.24075
1.24371
1.24679
1.25027
1.2543
1.2591
1.26488
1.27173
1.27959
1.28825
1.29679
1.30421
1.31
1.3141
1.31654
1.31747
1.31754
1.31766
1.3181
1.31892
1.32011
1.32161
1.32319
1.32462
1.3258
1.32682
1.32786
1.32904
1.33023
1.33121
1.33184
1.33212
1.33208
1.33152
1.33066
1.32969
1.32868
1.32778
1.327
1.32629
1.32552
1.32459
1.32348
)
;
    }
    front
    {
        type            empty;
    }
    back
    {
        type            empty;
    }
    procBoundary6to5
    {
        type            processor;
        value           nonuniform List<scalar> 
14
(
1.15091
1.16024
1.17011
1.20057
1.25726
1.3147
1.3658
1.40404
1.43419
1.45822
1.4694
1.47546
1.47986
1.48378
)
;
    }
    procBoundary6to7
    {
        type            processor;
        value           nonuniform List<scalar> 
18
(
1.32216
1.32315
1.32738
1.33607
1.34747
1.36157
1.37438
1.38555
1.39447
1.40017
1.40305
1.40614
1.40974
1.4121
1.41268
1.41271
1.41323
1.41422
)
;
    }
    procBoundary6to13
    {
        type            processor;
        value           nonuniform List<scalar> 5(1.48607 1.4863 1.48691 1.48932 1.49367);
    }
    procBoundary6to14
    {
        type            processor;
        value           nonuniform List<scalar> 
133
(
1.39749
1.39858
1.39925
1.39959
1.39961
1.39893
1.39735
1.39549
1.39383
1.39248
1.39127
1.38998
1.38853
1.38701
1.38539
1.38395
1.38387
1.38467
1.38596
1.38717
1.38847
1.39024
1.3924
1.39471
1.39683
1.39875
1.40084
1.40323
1.40549
1.40756
1.40916
1.41009
1.41043
1.41052
1.41052
1.41024
1.40944
1.40863
1.40804
1.40695
1.4047
1.40171
1.39828
1.39385
1.38837
1.3836
1.38087
1.37853
1.37511
1.37136
1.36911
1.3682
1.36773
1.36913
1.37137
1.37135
1.37137
1.37476
1.37576
1.37164
1.36383
1.35485
1.34546
1.33794
1.33279
1.32797
1.32432
1.32275
1.32231
1.32307
1.32637
1.3326
1.3415
1.35313
1.36812
1.38621
1.40508
1.42152
1.42756
1.42842
1.42872
1.42902
1.42868
1.42793
1.42786
1.42727
1.42644
1.42662
1.42556
1.42455
1.42494
1.42349
1.42094
1.4206
1.41852
1.49654
1.49385
1.49019
1.48671
1.48422
1.48117
1.47747
1.47356
1.47024
1.46711
1.46358
1.45949
1.45624
1.45326
1.44969
1.44582
1.44221
1.4386
1.43466
1.43072
1.427
1.42335
1.4196
1.41588
1.41223
1.40864
1.40519
1.40204
1.39928
1.39684
1.39467
1.39313
1.39213
1.3914
1.39155
1.39232
1.39749
1.39358
)
;
    }
}


// ************************************************************************* //
