/*--------------------------------*- C++ -*----------------------------------*\
  =========                 |
  \\      /  F ield         | OpenFOAM: The Open Source CFD Toolbox
   \\    /   O peration     | Website:  https://openfoam.org
    \\  /    A nd           | Version:  7
     \\/     M anipulation  |
\*---------------------------------------------------------------------------*/
FoamFile
{
    version     2.0;
    format      ascii;
    class       volScalarField;
    location    "15";
    object      p;
}
// * * * * * * * * * * * * * * * * * * * * * * * * * * * * * * * * * * * * * //

dimensions      [0 2 -2 0 0 0 0];

internalField   nonuniform List<scalar> 
385
(
-0.0143002
-0.0135224
-0.0127154
-0.0119753
-0.0112646
-0.0105522
-0.00983607
-0.00912197
-0.0139689
-0.013182
-0.0124519
-0.011745
-0.0110343
-0.0103191
-0.00960534
-0.00889535
-0.00818948
-0.00748837
-0.0067935
-0.00610681
-0.00543055
-0.0047673
-0.00412009
-0.0034923
-0.00288775
-0.00231061
-0.00176535
-0.00125665
-0.0143401
-0.013583
-0.0128702
-0.0121724
-0.0114682
-0.0107584
-0.0100489
-0.00934177
-0.00863773
-0.00793763
-0.00724305
-0.00655592
-0.00587839
-0.00521295
-0.00456246
-0.00393013
-0.00331956
-0.0027347
-0.00217977
-0.00165926
-0.0146529
-0.0139291
-0.0132372
-0.0125519
-0.0118577
-0.0111567
-0.0104544
-0.00975295
-0.00905317
-0.00835626
-0.00766393
-0.00697815
-0.00630105
-0.00563504
-0.00498286
-0.00434758
-0.00373263
-0.00314174
-0.00257894
-0.00204849
-0.0142335
-0.0135627
-0.0128915
-0.0122091
-0.0115191
-0.010826
-0.0101322
-0.00943846
-0.00874643
-0.00805791
-0.00737491
-0.00669957
-0.00603425
-0.00538162
-0.00474465
-0.00412659
-0.00353102
-0.00296177
-0.0024229
-0.014508
-0.0138566
-0.0131993
-0.0125293
-0.0118509
-0.0111683
-0.0104832
-0.00979678
-0.00911082
-0.00842725
-0.0077481
-0.00707552
-0.00641187
-0.00575974
-0.00512202
-0.00450184
-0.00390262
-0.00332804
-0.00278197
-0.0141267
-0.0134819
-0.012824
-0.0121573
-0.0114853
-0.0108095
-0.0101311
-0.00945197
-0.00877412
-0.00809957
-0.0074305
-0.00676923
-0.00611832
-0.00548057
-0.00485903
-0.00425697
-0.00367793
-0.00312565
-0.00260403
-0.0143782
-0.0137445
-0.0130977
-0.0124422
-0.0117806
-0.011114
-0.0104439
-0.00977204
-0.00910037
-0.00843093
-0.00776588
-0.00710752
-0.00645838
-0.00582117
-0.00519884
-0.00459459
-0.00401182
-0.00345412
-0.00292527
-0.0139903
-0.0133536
-0.0127084
-0.0120566
-0.0113991
-0.0107373
-0.0100728
-0.0094075
-0.00874349
-0.00808282
-0.00742777
-0.00678079
-0.00614456
-0.00552194
-0.00491602
-0.00433011
-0.00376768
-0.00323237
-0.014221
-0.0135935
-0.0129578
-0.0123152
-0.0116664
-0.0110126
-0.0103555
-0.00969673
-0.00903832
-0.00838227
-0.0077308
-0.00708632
-0.00645143
-0.00582892
-0.00522179
-0.00463325
-0.00406668
-0.00352559
-0.0138183
-0.0131915
-0.0125576
-0.0119171
-0.0112711
-0.0106212
-0.009969
-0.00931627
-0.00866501
-0.00801735
-0.00737563
-0.00674238
-0.00612033
-0.0055124
-0.0049217
-0.00435151
-0.00380527
-0.0140284
-0.01341
-0.0127844
-0.012152
-0.0115136
-0.0108708
-0.0102251
-0.00957809
-0.00893172
-0.00828805
-0.00764932
-0.007018
-0.00639673
-0.00578836
-0.00519593
-0.00462262
-0.00407178
-0.0136137
-0.0129961
-0.0123715
-0.0117406
-0.0111048
-0.0104656
-0.00982436
-0.00918301
-0.00854348
-0.00790796
-0.00727881
-0.00665863
-0.00605017
-0.00545639
-0.00488042
-0.00432552
-0.00379501
-0.0138023
-0.0131928
-0.0125759
-0.0119525
-0.0113238
-0.010691
-0.0100556
-0.00941939
-0.00878417
-0.00815205
-0.00752533
-0.00690651
-0.0062983
-0.00570358
-0.00512538
-0.00456692
-0.00403143
-0.0133745
-0.0127655
-0.0121496
-0.011528
-0.0109017
-0.0102723
-0.00964135
-0.0090106
-0.00838209
-0.00775804
-0.00714089
-0.00653325
-0.00593794
-0.00535794
-0.00479639
-0.00425646
-0.0135413
-0.0129403
-0.0123322
-0.0117178
-0.0110982
-0.0104749
-0.00984931
-0.00922323
-0.00859855
-0.00797743
-0.00736222
-0.00675548
-0.00615996
-0.00557856
-0.00501437
-0.0044705
-0.0131005
-0.0125003
-0.0118934
-0.0112807
-0.0106636
-0.0100437
-0.00942249
-0.00880188
-0.00818395
-0.00757098
-0.00696545
-0.00637007
-0.00578766
-0.00522127
-0.00467395
-0.0126543
-0.012055
-0.0114494
-0.0108389
-0.0102249
-0.00960879
-0.00899252
-0.00837806
-0.00776763
-0.00716366
-0.00656876
-0.00598575
-0.00541757
-0.00486726
-0.00433799
-0.0127944
-0.0122032
-0.0116051
-0.0110014
-0.0103934
-0.00978278
-0.00917111
-0.0085604
-0.00795279
-0.00735065
-0.00675656
-0.00617326
-0.00560366
-0.00505075
-0.00451768
-0.0123377
-0.0117472
-0.0111505
-0.0105489
-0.00994378
-0.00933694
-0.00873019
-0.00812566
-0.00752564
-0.00693268
-0.00634945
-0.00577883
-0.00522378
-0.00468739
-0.0124561
-0.011874
-0.0112851
-0.0106905
-0.0100917
-0.00949033
-0.00888821
-0.00828737
-0.0076901
-0.00709886
-0.00651631
-0.00594528
-0.00538868
-0.00484957
-0.0120098
-0.011428
-0.01084
-0.010247
-0.00965073
-0.0090528
-0.00845523
-0.00786023
-0.00727023
-0.00668785
-0.00611587
-0.00555717
-0.0050148
-0.0120857
-0.0115142
-0.0109355
-0.0103509
-0.00976197
-0.00917037
-0.00857808
-0.0079873
-0.00740045
-0.00682012
-0.00624912
-0.00569031
-0.00514671
-0.00462124
-0.0114055
-0.0108428
-0.0102747
-0.00970229
-0.00912731
)
;

boundaryField
{
    inlet
    {
        type            zeroGradient;
    }
    outlet
    {
        type            fixedValue;
        value           nonuniform 0();
    }
    cylinder
    {
        type            zeroGradient;
    }
    top
    {
        type            symmetryPlane;
    }
    bottom
    {
        type            symmetryPlane;
    }
    defaultFaces
    {
        type            empty;
    }
    procBoundary38to29
    {
        type            processor;
        value           nonuniform List<scalar> 
27
(
-0.0147148
-0.0147269
-0.0147269
-0.0150711
-0.0153561
-0.0149253
-0.0149253
-0.0151722
-0.0147615
-0.0147615
-0.0149996
-0.0146144
-0.0146144
-0.0148366
-0.0144373
-0.0144373
-0.0146391
-0.0142237
-0.0142237
-0.014404
-0.0139759
-0.0139759
-0.0141344
-0.0136932
-0.0136932
-0.0132463
-0.0132463
)
;
    }
    procBoundary38to30
    {
        type            processor;
        value           nonuniform List<scalar> 
22
(
-0.0137753
-0.0129913
-0.01218
-0.01144
-0.0107322
-0.0100237
-0.00931155
-0.00860146
-0.00841242
-0.00841242
-0.00770761
-0.00700805
-0.0063152
-0.00563109
-0.00495811
-0.00429903
-0.00365703
-0.00303576
-0.00243924
-0.00187188
-0.00133841
-0.000843741
)
;
    }
    procBoundary38to31
    {
        type            processor;
        value           nonuniform List<scalar> 2(-0.000789337 -0.00117777);
    }
    procBoundary38to37
    {
        type            processor;
        value           nonuniform List<scalar> 9(-0.0133778 -0.0129208 -0.0129208 -0.0130303 -0.0125841 -0.0125841 -0.0126489 -0.0119615 -0.0119615);
    }
    procBoundary38to39
    {
        type            processor;
        value           nonuniform List<scalar> 
24
(
-0.0015548
-0.00191865
-0.00226849
-0.00226849
-0.00211697
-0.00242903
-0.00272784
-0.00301356
-0.00328644
-0.00354681
-0.00354681
-0.0032923
-0.00352228
-0.00374147
-0.00395023
-0.00414893
-0.00414893
-0.00383274
-0.00400739
-0.00417261
-0.00433088
-0.00449166
-0.00449166
-0.00411702
)
;
    }
    procBoundary38to46
    {
        type            processor;
        value           nonuniform List<scalar> 
14
(
-0.00855145
-0.0079767
-0.00740526
-0.00683954
-0.00628214
-0.00573579
-0.00520334
-0.0046876
-0.0106272
-0.0101496
-0.00966298
-0.00916878
-0.00855145
-0.00866845
)
;
    }
}


// ************************************************************************* //
