/*--------------------------------*- C++ -*----------------------------------*\
  =========                 |
  \\      /  F ield         | OpenFOAM: The Open Source CFD Toolbox
   \\    /   O peration     | Website:  https://openfoam.org
    \\  /    A nd           | Version:  7
     \\/     M anipulation  |
\*---------------------------------------------------------------------------*/
FoamFile
{
    version     2.0;
    format      ascii;
    class       volScalarField;
    location    "0.103";
    object      p;
}
// * * * * * * * * * * * * * * * * * * * * * * * * * * * * * * * * * * * * * //

dimensions      [0 2 -2 0 0 0 0];

internalField   nonuniform List<scalar> 
12359
(
0.0725624
0.0800135
0.057846
0.111149
0.0745023
0.155608
0.190736
0.17134
0.230757
0.14539
0.214556
0.284455
0.505113
0.120268
0.106255
0.407576
0.452481
0.0614876
0.0611521
0.092658
0.12807
0.259156
0.0867438
0.0986989
0.0832677
0.0891274
0.0587255
0.0586316
0.0605458
0.0591498
0.0594294
0.058311
0.0579873
0.0588685
0.0578634
0.0596066
0.0657622
0.0704042
0.0735474
0.067767
0.078091
0.069355
0.0639633
0.0631614
0.0599867
0.0602571
0.0598221
0.0592834
0.0608431
0.0587997
0.058535
0.0583836
0.0581422
0.0618589
0.0581266
0.0579921
0.0626371
0.0579533
0.0579479
0.0579367
0.0580075
0.0578559
0.0584361
0.521853
0.0622406
0.135892
0.0657126
0.0583692
0.0662513
0.356275
0.557255
0.0764915
0.0578358
0.0671014
0.10193
0.0578602
0.0581196
0.0578319
0.0648003
0.322272
0.129377
0.053799
0.0571288
0.0580773
-0.0565037
0.0337241
0.0534191
0.0561331
-0.0543874
-0.0517726
0.0576691
0.475895
0.0576508
0.0569443
0.0564987
0.0138615
0.0567195
0.0570588
0.0644681
0.0608647
0.108889
0.0577625
0.034453
-0.10123
0.0531093
0.0179514
0.0570163
-0.0544488
0.03647
0.0176864
0.0567702
0.0542363
0.114461
0.0900564
0.0571595
0.0550436
0.0947623
0.0530586
-0.0580469
0.0571562
0.0569264
0.177332
0.0560283
0.0092871
0.0527094
0.0545022
0.0415547
0.0576514
0.0578446
0.0527331
0.0551745
-0.00540896
-0.004984
-0.00368342
0.0569922
0.00864598
0.0550508
0.00939007
0.0577961
0.0412531
0.0572658
0.0732056
0.0208994
0.0569719
0.0132056
0.150808
0.0571296
-0.0453378
0.05282
0.126392
0.0048191
0.0577779
0.020775
0.0560148
0.0575997
-0.126877
0.110285
-0.0053536
0.0567332
0.0583039
0.0511467
0.05833
0.00654409
0.0170632
0.0571176
0.0546925
0.0521726
0.181032
0.0193306
-0.0569115
0.0578593
0.0578685
0.0181067
0.0843089
0.0532586
0.0443321
0.0607493
0.0605294
0.113758
0.0447506
0.121135
0.057582
0.0578388
0.0535416
0.0634254
0.209738
0.0528411
0.0561537
0.00965384
0.0524674
0.0561909
0.0150578
0.0172099
0.0559341
0.0171674
-0.104017
0.0406674
0.0534314
0.0205354
0.0531446
0.156071
0.00783186
0.0623464
0.0187654
0.0169772
0.0575587
0.016058
0.0627217
0.00288256
0.0515455
0.0573612
-0.0014241
-0.00110736
-0.661652
0.203491
0.0577948
0.0530828
0.0570813
0.0529449
0.0734548
0.105897
0.0517758
0.00901729
0.479681
0.0525931
0.0573444
0.0741686
0.0374179
0.0460871
0.0539483
0.0538411
0.057116
0.0140176
0.0615136
0.0557782
0.0605386
0.0571526
0.0199055
0.0559929
0.293346
0.0570887
0.0315709
0.0561462
0.0516192
0.0491205
-0.0426861
0.0579502
0.00301319
0.0541351
0.0177121
0.00247173
0.070332
0.0600561
0.054072
0.320703
-0.638693
0.0571666
0.0517733
0.400553
-0.0467597
0.0616183
0.0507497
0.0466825
0.0166343
0.0823849
-0.553754
-0.0516847
0.048705
0.0523629
0.00966265
0.0181168
0.0660298
0.019014
0.0544847
0.0516799
0.0570975
0.0518192
-0.103938
0.0483453
0.0568464
0.0577596
0.0162344
0.0501506
0.0658681
0.0319533
0.0572123
0.0491753
0.0577702
0.0577559
0.0582902
0.00680398
0.0536056
-0.520218
0.056999
0.0570002
0.034316
0.0540789
0.105888
0.0572444
0.0586437
0.0576877
-0.0922572
0.0460934
0.0576953
0.0531884
0.0566853
0.0539621
0.054817
0.0551484
0.0537284
0.0616458
0.208427
0.0538862
0.0595526
0.0710235
0.028876
-0.0418811
0.0528789
0.0647931
0.382645
0.0577509
0.0261957
0.0568527
0.0408825
0.0569574
0.0517168
0.234172
0.025202
0.212482
0.0649959
0.0558881
0.0184596
0.0107761
0.0557294
0.0177536
0.0172212
0.0567074
0.0580659
0.0580495
0.0581081
0.0580748
0.274444
0.0571977
0.109173
0.000602886
0.0614842
0.0182444
0.0248905
0.0347494
0.0419564
0.0239615
0.0421148
0.063621
0.0266529
0.0283843
0.0966213
0.0738615
0.0185027
0.0725605
0.0728278
0.0217459
0.108306
0.05422
0.0581724
0.0395616
0.0581506
0.0541002
-0.182185
0.529212
0.0542305
0.0578108
0.057008
0.0574962
0.0238355
0.0575951
0.0575933
-0.06267
0.0179925
-0.0476137
0.0559044
0.0141835
0.0500909
0.0564239
0.0196366
0.0393828
0.115862
0.0398224
0.0545896
0.056861
0.0172996
0.0139426
0.052206
0.307489
0.0202999
0.0123122
0.0555454
0.053217
0.0577971
0.394005
0.0166351
0.056055
0.0585209
0.0707796
0.0572861
0.0572536
0.0574643
-0.05387
0.105057
0.0651642
0.0251335
0.00530763
0.0567413
0.120738
0.0559236
-0.00249298
-0.0456351
0.316572
0.0596514
0.0963898
0.0366386
0.0287322
0.0433934
0.0390743
0.0593004
0.0436885
0.0212244
0.0575997
-0.040988
0.065884
-0.00545538
0.0118573
0.0631653
0.101721
-0.144549
0.0236009
0.0470785
0.0124023
0.0121822
0.0254813
0.053009
0.0574101
0.0563598
0.0569619
-0.00391433
0.0551289
0.0892617
0.0905843
0.045962
-0.0527042
0.108663
0.0610996
0.0560901
0.402334
0.0567703
0.0558709
0.00992511
0.057811
0.0558735
0.0557875
0.237404
0.191714
0.0577955
0.0563119
0.114589
0.0543133
0.0251488
0.0203275
0.0189494
0.0566552
0.0574854
0.0544564
0.0576977
0.0901583
0.0259434
0.0276218
0.0603208
0.055332
0.00720324
0.0594193
0.054598
0.0520684
0.12548
0.00926545
0.0577758
0.0539768
0.0171989
0.0398896
0.0549109
0.0547734
0.117745
0.0270901
0.0110166
0.0270759
0.0566167
0.0547195
-0.00291922
-0.0044799
0.0576769
0.0443057
0.0468587
0.0091105
0.267403
0.0574273
0.0552202
0.0567295
0.0202673
0.0599192
0.0601924
0.0546965
0.0557288
0.0378762
0.0820958
0.048549
-0.0312868
0.0568858
-0.0379252
0.056241
-0.0546908
0.0256171
0.000504151
0.0579964
0.0600582
0.0286745
0.0536857
0.0585314
0.064132
0.0602185
0.0602857
0.0738448
0.0183496
0.0182717
0.0571341
0.0534253
0.0255766
-0.00468213
0.0571347
0.0568662
0.0172651
0.0567177
0.227699
-0.160655
-0.0593917
0.0571341
0.0491782
0.000826297
0.0603642
0.0535449
0.460977
0.0569044
0.119119
0.0932967
0.0492551
0.0538322
0.0587115
0.0465719
0.000384979
0.0386186
0.0591168
0.0571671
0.0578451
0.0607477
0.060756
0.0588291
0.0193436
0.0583867
0.0568967
0.026823
-0.0463784
0.0592339
-0.00122276
0.0570259
0.0596388
0.10095
0.00282253
0.0025026
0.10218
0.0532575
0.0020831
0.0573094
0.057879
0.00693231
0.0448729
0.0527459
0.0453731
0.0575425
0.0568364
0.0541032
0.0553511
0.00150951
0.108074
0.0660408
0.122605
0.0201968
0.0470423
0.118227
0.0682174
-0.00406477
0.0184152
0.0701606
0.0585914
0.0579152
0.0405538
0.0275337
0.0571308
0.0578198
0.0566918
0.0579451
-0.0120618
0.0446324
0.0438732
0.108859
0.064389
0.237882
0.00958826
0.00213877
0.0538966
0.00284904
0.0575247
0.0563309
0.056609
0.111792
0.118
0.0537452
0.0383302
0.217559
0.0211817
0.0105913
0.0458829
0.065219
-0.131051
0.0564465
0.0586028
0.0575614
-0.0062124
0.0585064
0.0395546
-0.0513009
0.0569192
0.0846118
0.0614434
0.0489826
0.0598252
0.0540909
0.0581731
0.0605722
0.0582185
0.0581237
0.0599488
0.00988379
0.0145894
0.0488923
0.347583
0.00315482
0.455547
0.0229681
0.033534
0.0603413
0.0245244
0.0628883
0.014285
0.350428
0.103203
0.0614828
0.0511112
0.0619916
0.0607725
0.0280714
0.0574125
-0.00720426
0.0581782
0.104822
0.0512033
-0.0104894
0.0122882
0.0148093
0.0608545
0.046396
0.0127773
0.0824206
0.00960676
0.0475917
0.00780215
0.0503284
0.0571721
0.0566581
-0.197175
0.0732153
0.0507721
0.0571044
0.0583755
0.0616897
0.0879454
0.0152411
0.0256974
0.0567231
0.0515139
0.0608583
0.0508797
0.0486957
0.00654532
0.0631366
0.0630285
0.0134374
0.0515876
0.0485891
0.109573
0.0571343
0.062981
-0.28379
0.0579324
0.0122786
0.0547494
0.0493083
0.0931245
0.0139519
0.0577471
0.025856
0.057401
0.115656
0.0525834
0.0174433
0.0146595
0.117324
0.0572906
0.000535476
-0.00148909
0.0623779
0.0499721
0.0529455
0.0402879
0.232219
0.0612083
0.0578022
0.0603792
0.0576216
-0.128017
0.0492333
0.0138613
0.0399193
0.0268676
0.534722
0.0494955
-0.0609983
0.0157739
-0.0539532
0.0246008
0.0590027
0.0494505
0.0403527
-0.0447199
-0.0309863
0.05629
0.0564094
0.122288
0.0555465
0.208581
0.0262943
0.0700288
0.053324
0.426705
-0.106197
0.0495968
0.0571903
0.0571769
0.0984291
0.0617354
0.0661414
0.0591984
0.0205343
0.082043
-0.0175057
0.365065
0.0567889
0.0874442
0.0183093
0.122674
0.0513601
0.119556
0.0103393
0.100027
0.0597977
0.0571063
0.0140981
0.010824
0.0252335
0.12246
0.0158251
0.0346745
0.0573897
0.0565512
0.0468945
0.250171
0.0464585
0.016297
0.0713292
0.0266776
0.0447928
0.0596811
-0.00123738
0.040832
0.0509117
-0.00783324
0.064252
0.0353262
0.208113
0.0571666
0.0404813
0.056349
0.0636554
0.0548755
0.0572712
0.0571348
0.00387731
0.0520412
0.0832572
0.0170108
0.0990214
0.0389094
0.0396312
0.0150415
-0.154176
0.0579257
0.0637656
0.0341786
-0.0719146
0.0114372
0.0572206
0.52596
0.0571126
0.0529478
-0.142706
0.0618805
0.0574708
0.0574853
0.0700714
0.0943824
0.0579154
0.062755
0.112611
0.0570573
0.0588046
0.0595583
0.0564723
0.0954863
-0.0126818
0.060817
0.120225
0.0159048
0.0164056
0.00887502
0.0192694
0.0595056
0.052868
-0.035972
0.00750698
0.0779964
0.0562082
0.0579689
0.121889
0.003087
0.0417037
0.0443468
0.0413676
0.0591311
0.0519037
0.0882694
-0.257582
0.344178
0.0870999
0.05702
0.0521761
0.0845285
0.370113
0.115467
0.057245
0.00447538
-0.00886023
-0.238741
0.0448792
-0.131039
0.057944
0.0594186
0.0579796
0.00989788
0.0797712
-0.143538
0.0533742
-0.0842282
0.0552155
0.0574185
0.0142629
0.0610684
0.00544891
-0.0317557
0.0625839
0.0439269
0.0327864
0.0452195
0.0624309
0.0777951
0.0777223
0.0389908
0.0809506
0.0626172
0.0580078
0.0594115
0.0584041
0.109303
0.0310948
-0.0042909
0.00465576
0.090686
0.0305016
0.0292203
0.0499538
-0.0274628
0.0425558
0.062075
0.0575648
0.00403745
0.113353
0.0532781
0.0461069
0.0634009
0.0294401
0.107285
0.12015
0.0298341
0.316983
0.0282134
0.0917982
-0.0290557
0.0607115
0.0143835
0.0156043
0.0559859
0.0422195
0.0485644
0.0513484
0.0573021
0.0542709
-0.0100343
0.00355332
0.0533209
-0.0876779
0.105668
0.0583462
0.0522459
0.00622217
0.0582759
0.0791018
0.0175792
0.00755192
0.0582248
0.0602255
0.0569115
0.0582774
0.121629
-0.116058
0.0582703
0.0595084
0.0571501
-0.150609
0.0272647
0.0201468
0.0569738
0.0581851
0.0592879
0.0312683
0.0870904
0.0342383
0.0553407
0.0598639
0.058185
0.0263015
0.0887855
0.0478445
0.0578137
0.0380201
0.0310883
0.0801989
0.0541956
-0.0127334
0.149344
0.0557026
0.0396653
0.0596202
0.0508962
-0.170476
0.0624838
0.0583717
0.0163376
0.109404
0.0874029
-0.143706
0.082747
0.0433769
0.0335665
0.0633741
0.0480196
0.043067
0.062633
0.148083
0.0569501
-0.330239
0.0883093
0.182311
0.0476492
-0.00550693
0.0994861
0.00146918
0.271003
0.00915492
0.0355972
0.042533
0.0454801
0.0571261
0.0513562
0.092058
0.00331259
0.0628253
0.0557751
0.0103847
0.0221918
0.00998264
0.0848982
0.00491025
0.00945581
0.0564449
0.0758762
-0.0373376
0.0911682
0.057103
0.043981
0.0603903
0.0571056
0.0746294
0.0579354
0.0513401
0.250776
0.0957609
-0.011833
0.0579673
0.0574115
0.0576289
0.0630103
0.0608444
0.00150925
0.0609813
0.0573274
-0.0135316
0.0276602
0.0108895
0.0743277
0.0509184
0.0500674
0.0937686
0.0429184
0.0579822
-0.036509
0.0161991
0.113952
0.0576612
-0.259698
0.101937
0.0561221
0.00515334
0.0452285
-0.0161422
0.0441847
0.00528205
0.100295
0.0551939
0.0591761
0.0299848
0.0391223
0.0613751
-0.0021987
0.0620459
0.0622108
0.0995996
0.0553258
0.0605792
0.0438668
0.0145785
0.0490807
0.0620454
0.0600835
0.0570493
0.101816
-0.0359293
0.0327165
0.0631427
0.0592012
0.0499641
0.057038
-0.19189
0.0844585
0.0577672
0.0763129
0.0502134
0.103887
0.155412
0.00183887
0.0619649
0.00996221
0.000901191
0.056965
0.0476031
0.00332868
0.0535497
0.0578062
0.0784526
0.034326
0.0605907
0.0578303
0.0483646
0.0869532
0.0583234
0.0383864
0.0579351
0.047838
0.0726045
0.133099
0.0574685
-0.216033
0.085333
0.0201943
-0.0871643
0.0972962
0.0392805
-0.0566915
0.0635426
0.148195
0.215942
0.0593963
0.0517354
0.0517009
0.0591659
0.060931
0.0104253
-0.0787969
-0.109166
0.0124406
0.150849
-0.00709829
0.0146189
-0.0372962
0.0573168
0.0593523
0.0486265
0.0313366
0.0570773
0.0118276
0.0449122
-0.00649109
0.0571867
0.059891
0.0555641
-0.124442
0.123253
0.0829761
0.067986
0.12666
0.0520192
0.0582548
-0.0152545
0.0446336
-0.0102962
0.0110388
0.0303698
0.00903103
0.021057
0.0641066
0.0567562
0.0570899
-0.121178
0.0397699
0.0492207
0.054501
0.00764673
0.0235117
0.0575236
0.0262046
-0.0124734
-0.00186741
0.0990649
0.0596878
0.0574689
0.00855011
0.0630367
0.0572793
0.00153141
0.0120065
0.0605607
0.141807
0.000758449
0.0575932
0.0574211
0.0570122
0.111402
-0.110474
0.0428985
0.0145236
0.0599778
0.0599048
0.0164588
0.0577435
0.181312
0.0210502
-0.0407707
0.156211
0.0387139
0.0565721
0.0571672
0.0415731
0.0632405
0.0567025
-0.183763
0.0097413
0.0503999
0.223785
0.105629
0.0529403
0.057147
0.0574252
0.0565232
-0.0638615
0.162563
0.0400787
0.0825793
0.0737954
0.0103126
-0.0762752
0.0112386
0.0614065
0.0597065
0.020722
0.0495795
0.0567064
0.0594613
0.00812816
0.0608736
0.0401649
0.0624046
0.0860374
-0.0069551
0.0546948
0.0595617
0.00231589
0.00687768
0.0662644
0.0592092
0.081824
-0.000503497
0.0455454
0.0209581
0.0794689
0.0237481
-0.0237332
0.0602106
0.160606
0.0567976
0.107865
0.00430005
0.0577026
0.0572416
0.394985
0.057657
0.0626961
0.0317581
0.0620216
0.0621195
0.0648369
0.057582
0.057618
0.000215784
-0.022104
0.0558306
0.338325
0.0456421
0.0592961
0.2567
0.100618
0.0584101
0.0529988
0.0589833
0.0931455
-0.324324
0.0618592
0.0557751
0.0569697
0.0593504
0.0696155
0.0211359
0.0614423
0.0702039
0.0604762
-0.156493
-0.00405478
0.0122934
0.114433
0.0453631
0.0593804
0.0081206
-0.116939
0.0600097
0.0571337
0.0593253
0.0478899
0.0619529
0.0564996
0.000360095
0.0527022
0.052431
0.280455
-0.00478266
-0.00788198
0.00727894
0.061815
0.00299047
0.0882391
-0.0887991
0.0551751
0.0136041
0.0577367
0.212252
0.0571791
0.057166
0.0386757
0.0569915
0.0321444
0.0660225
0.0620498
0.0547909
-0.0723889
0.0899479
0.0154008
0.0595178
0.0424802
-0.0361133
-0.00321317
0.0834717
0.0802067
0.0575883
0.0623153
0.0549378
0.0592772
0.0558049
0.0595001
0.0947194
0.0765307
0.011577
-0.107354
0.0202213
-0.00646895
0.0388449
-0.112993
0.0564875
-0.0262936
0.0594026
-0.031002
-0.00152744
0.0309218
0.0571683
0.0353766
0.0150781
0.0397957
-0.00665
0.24863
-0.103934
0.0593517
-7.44656e-05
0.0457549
0.000452415
0.0896642
0.0065116
0.0534205
0.0647953
0.0149731
0.0600545
0.0434978
0.0573811
0.0505803
0.0571951
0.0626135
0.00977697
0.00108679
0.057307
0.0894666
-0.0723201
0.495835
0.0568243
0.0783401
0.0370976
0.195469
0.03729
-0.185767
-0.0329095
0.0546809
0.0306044
0.0632987
0.178351
0.0476026
0.0728589
0.0804775
0.0555335
-0.0861731
-0.000227721
0.0592078
0.0218915
-0.02442
0.0810495
-0.0692801
0.0463237
0.0793178
0.0609496
0.0568381
0.0622646
0.0520384
-0.0720291
8.21852e-05
-0.0601884
0.0581666
-0.065077
0.0359788
0.00819219
0.11525
0.0310711
0.0345288
-0.0480014
0.0460687
0.045146
0.00797928
0.0681608
0.0315229
0.0130776
0.0753189
-0.0927139
0.0884836
0.0402821
0.0894426
0.0581406
0.117713
7.29481e-06
0.102411
0.0601515
-0.0304604
0.0573567
0.0394543
0.0131661
0.000905626
0.0636772
0.00920935
0.0442694
0.531322
0.0625896
0.0085794
0.0961634
-0.000740808
0.0110934
0.0575861
0.0375813
0.0571358
0.471499
0.0575577
0.0572552
0.0570118
-0.00940378
0.0523281
0.0499593
-0.00975973
0.0347928
0.069953
0.0523003
0.0572504
0.109041
0.0559127
0.108086
0.0120986
0.0909035
0.0388585
0.0495374
0.0316536
-0.0112973
0.0137206
0.0503857
0.552372
0.0575494
0.0572957
0.0625654
-0.0789721
0.060223
0.0387874
0.0764102
0.0608748
0.0495891
0.00706445
-0.0191158
0.0393416
-0.0400289
0.0617358
0.0527057
0.0198192
0.0256393
-6.86897e-05
0.0593492
0.0332988
0.077258
0.204077
0.0441008
0.0572566
0.0509812
0.181101
0.0578252
0.0578266
-0.0364492
0.0380434
-0.0403005
0.0493452
0.057198
0.194319
-0.00913594
0.0529997
0.0620701
0.0558064
-0.0886068
0.0578315
0.0398512
-0.0221665
0.0578263
0.0572386
0.0136584
0.0568566
0.0578367
0.018708
0.0532819
0.0571378
0.0268638
0.0569166
-0.0108056
0.0571819
0.0573944
0.121955
0.012211
0.0578387
0.00963705
-0.177101
0.0500376
0.0788238
0.0556633
0.0334349
0.0561193
-0.0142458
-0.00164552
0.0529989
0.0572443
0.134599
0.0300464
0.0216196
0.0168096
0.130596
0.0568686
0.0105135
0.0572333
-0.0140311
-0.00437787
-0.000247514
0.0119351
0.157604
-0.0638297
0.00813336
0.0153475
0.0508176
0.059376
0.00492968
0.14032
0.102916
0.0416383
-0.0689248
0.056839
-0.0570412
0.248474
0.0566231
-0.00321263
-0.0114533
0.0849776
0.0121304
0.0113414
0.077986
0.0572287
-0.00937821
-0.0635145
0.230974
0.0618085
0.00480773
-0.0246216
0.144912
0.0587956
0.0572098
0.00788541
-0.0469474
0.0371884
0.0713307
0.0574718
0.0568503
0.0591196
0.0616008
0.0316496
0.0623498
0.0572017
-0.0137877
0.0441366
-0.0197147
0.0216766
0.057426
0.0572385
0.146383
0.0613739
0.0838525
0.0605322
-0.0341828
0.0861634
0.0565662
-0.0210428
0.0657454
0.0571632
0.0355651
0.0377112
0.0497057
0.0972032
0.0317922
-0.0978084
0.0409723
0.0569459
-0.0216496
0.0569776
-0.00428686
0.037072
-0.0262676
-0.0424536
0.100798
-0.0268647
0.0574571
-0.00542697
0.06064
0.0767946
-0.0180768
0.0259747
-0.0189136
-0.0630691
0.174296
-0.0077558
0.060701
0.0565297
0.0570787
0.0569599
-0.0266562
0.143338
0.0565482
-0.0121668
-0.0138094
0.0196588
0.00642896
0.0345483
0.113208
-0.0213623
0.0607748
0.0166184
0.0309017
0.0577246
0.0577394
0.0588565
0.0616636
0.0166621
0.0573621
0.0590054
0.0628879
0.0795128
0.000134389
0.0568816
-0.0152327
0.0571859
0.0058829
0.00903935
0.0591681
0.0396504
0.00577499
-0.0156715
0.0435552
0.0801447
0.0615135
0.0326192
0.0388327
0.0572536
0.0608934
0.0607853
0.0592215
0.0572998
0.0746996
0.0572884
0.129361
0.0179975
-0.0932177
0.0573045
0.0657492
0.0573902
0.0571296
0.130302
0.0645667
0.0566612
0.345189
0.135543
0.0441171
0.0704388
0.03767
0.124011
0.0275254
0.0131441
0.058622
0.0627627
0.0572432
0.0572071
-0.00763483
0.0568798
0.0589086
0.126041
0.0591054
0.0606535
0.0358664
0.0571797
-0.0290868
0.0573283
0.058863
0.0116822
0.013338
-0.0516263
0.112697
0.0758821
0.0590522
0.0114819
0.0590054
0.0308571
0.01058
0.0626393
-0.0275633
0.057866
0.0304134
0.0752092
0.0554085
0.106078
0.0573194
0.062627
0.0572499
0.0342457
0.0568111
0.0554167
0.0305002
0.0530172
0.0759307
0.0332987
0.0572721
0.0314864
0.0169949
0.0625264
0.0125158
-0.0105987
0.0572372
0.0370453
0.111972
0.00692853
0.0626644
0.0501419
0.0501267
0.031543
0.0632148
0.153984
0.0608836
0.0573133
0.0573463
-0.0139503
-0.00640199
-0.0158518
0.288777
0.104531
0.0525731
0.032408
0.0154327
0.0576283
-0.0423452
0.0609826
0.110846
-0.00247889
0.058901
0.1473
-0.00567435
-0.0112116
0.0291589
0.0346154
0.0575603
0.0569481
0.0617287
0.057263
0.0572139
0.140671
0.0591914
0.0697681
0.0565844
0.0467371
0.0470898
0.361871
0.049798
0.0522229
-0.00523888
0.107895
0.0957305
0.0392676
0.11299
0.0571085
0.0515758
0.00806463
0.0749303
0.127921
0.0587155
-0.00151115
0.0479389
0.0515845
0.0589463
0.0571975
0.0651998
0.0497525
0.0576609
0.0351083
0.266282
0.0577374
0.0171003
0.0384558
0.0568217
0.0692163
0.0594548
0.0317516
0.0572143
0.0571503
0.0204046
0.0342829
0.0957259
0.144157
-0.228389
0.0623887
0.0700678
-0.0274012
0.0390476
0.0594052
0.047006
-0.00100759
0.057283
0.06037
0.0572346
0.0351812
0.0666688
0.0245793
0.0572956
0.0674635
0.0418881
0.0610456
0.120579
0.0534988
0.0570861
0.0572919
0.03492
0.0288442
0.318542
0.0668191
0.0874562
0.00822432
0.00867289
0.0570483
0.102828
0.0572799
0.0572471
0.0577238
-0.000468156
0.0618454
0.0412126
0.00987515
0.0267046
0.0102092
0.0355236
0.0655441
0.116674
0.0547446
0.0153511
0.0959855
0.0388389
0.135252
0.0606642
-0.140346
0.145565
0.137775
0.0568063
-0.109216
0.00971803
0.0119985
0.140122
-0.00226387
0.0648719
0.0634695
0.0469868
0.0453465
0.0418116
0.217986
0.0770118
0.0610991
0.019547
0.0609965
0.0445351
0.0307147
0.0982717
0.0437295
0.0734182
0.0884537
0.00815026
0.0983504
0.0383757
0.0579775
0.0664013
0.0567578
0.04524
0.0560953
0.0614541
0.0254746
-0.0345533
0.0569
0.169828
0.056422
0.0496259
0.013783
0.0358458
0.0395251
0.0558848
0.0109547
0.0172292
0.257718
0.0572707
0.0125387
0.0426992
0.0179543
0.0577316
0.0574566
0.15655
0.0299145
0.0401178
-0.0847455
0.0313992
0.0458948
0.141992
0.020291
0.122201
0.062397
0.0243939
0.0454806
0.0529999
-0.0197897
0.0099725
0.0238294
0.0393005
0.0567194
0.00963575
0.00934405
-0.000271751
0.0479963
0.0434331
0.427122
-0.0377798
0.0564031
-0.00774496
0.0270448
-0.0767661
0.0572131
0.03737
0.0386859
0.0572137
0.00727401
0.0356731
0.0598487
-0.000853358
-0.0159456
-0.000921202
0.0622104
0.0296241
0.0577554
0.0526582
-0.0226407
0.0851805
0.0369243
0.0106614
0.14532
0.0293575
0.0257686
0.0272128
0.0104295
-0.020017
0.0558624
0.027832
0.0222251
0.0929345
0.284296
0.0180252
0.0411188
0.0287884
0.0572127
0.0942553
0.037271
0.0129325
0.0569798
0.0425473
0.00883542
0.01896
0.151508
0.0149523
0.0381039
0.03539
0.0616198
0.00719923
0.0336745
0.0770765
0.0651403
0.0622093
0.0144915
0.0433161
0.0489739
0.0468633
0.0572665
0.00866849
0.0676997
0.0366609
-0.00136153
-0.0371999
0.0521865
0.036382
0.0211427
0.0301886
0.057313
0.104003
0.103233
0.0759391
0.0577073
0.251545
0.0104378
0.0543895
0.0929297
0.0568653
0.0644243
0.0404292
0.0321872
0.0525221
-0.0794636
0.0583171
0.0654464
0.0499912
-0.00688979
-0.023352
-4.16712e-05
0.0678341
0.013121
0.0577347
0.0356053
0.0801433
0.0583272
0.14942
0.0226449
0.0338043
0.0119262
0.0728268
0.0280799
0.0444791
0.0570052
0.0571426
0.0531332
0.0693019
0.12651
0.0221605
0.147137
0.0855636
0.0944357
0.0589123
0.075266
0.0106698
0.0571714
-0.0157233
-0.0120704
0.0597996
0.0572531
0.0492684
0.0556555
0.0571308
0.070684
0.0421624
0.135368
0.0217781
0.0416723
0.0939015
-0.00547485
0.00854155
0.0904536
0.0184756
0.0308546
0.0742572
0.0569213
0.0690244
0.0360579
0.125876
0.132907
0.224829
0.0571627
0.129488
0.0391326
0.0387142
0.103851
0.111965
0.101202
-0.0170695
0.0270314
0.0691923
0.0278936
0.0481285
0.0522974
0.0951331
0.0566541
0.0225251
-0.0207885
0.0660038
-0.0187958
0.0563137
0.0882289
0.0617984
0.0391474
0.107256
0.166166
0.026632
0.0504333
0.0230923
0.0404882
0.0736629
-0.000179357
0.0873737
0.000905735
0.057171
0.0275505
-0.139097
0.101139
0.0438348
-0.0300959
0.0148078
0.0490199
0.0563762
0.105586
0.0964107
0.0408097
0.0623431
0.0586244
0.00880482
0.0513993
0.00850921
0.0852203
0.0420893
0.143938
0.0571708
0.0537003
0.00662668
0.0461732
0.0468412
0.0717168
0.0630573
0.037468
0.173882
0.112291
0.0570274
0.00965302
0.0523408
0.0569513
0.136906
0.0565975
0.0286973
0.031722
0.056641
0.0567386
0.0593029
0.0108066
0.0671702
0.1021
0.0344717
0.132723
0.0381902
0.0404823
0.0437825
0.0831085
0.057344
0.0463072
0.0455241
0.0338908
-0.0137474
0.0139523
0.0727225
0.0511212
0.0617222
0.0395757
0.0500195
0.0670275
0.0292976
0.10972
0.0385721
0.0569754
0.0120441
0.09197
0.010654
0.0570871
0.139083
-0.0171153
0.0536504
0.102599
0.00930536
0.0607786
0.0983811
0.00773946
0.0927639
0.118286
0.00815765
0.0543674
0.0844138
0.0808246
0.0194963
0.0543754
0.0397186
0.0571449
0.0562523
0.0568875
0.0189495
0.0228961
0.0257804
0.0870026
-0.040541
0.171509
-0.0394843
0.033985
0.0399688
-0.0256516
0.0508789
-0.069771
0.0414359
0.0294027
0.0250192
0.0360412
0.0694626
0.0500746
0.0395633
0.0612307
0.0570701
0.0832885
-0.0243959
0.0195583
0.00945429
0.0236943
0.0593787
0.0342151
0.0215719
0.0620349
0.0307747
0.0469014
0.121045
0.0899736
0.0854583
0.0979204
-0.00355394
-0.000271124
0.0088402
0.0300362
-0.00395087
0.0209072
0.0637023
0.0478855
0.134352
0.0797618
0.0113028
0.0572843
0.100045
0.13073
0.0786841
0.0842297
0.0634623
0.0226847
0.118053
0.037107
0.0300404
0.0408456
0.0408044
0.0563038
0.0357519
0.036081
0.0606511
0.0271103
0.0378198
0.0524651
0.107788
0.0513781
0.0429676
0.080477
0.0618823
0.0565802
0.0585299
0.00432156
0.0216789
0.057836
0.0768695
-0.03379
0.00951591
0.062612
0.0264015
-0.0121381
-0.0277632
-0.00521825
0.0429637
0.0442688
0.0624373
0.0410496
0.0309927
-0.000422785
-0.000261432
0.00716939
-0.000112043
0.0431629
0.0563023
0.056079
0.133359
0.0687476
0.0411897
0.0471115
-0.000717847
0.0524001
0.0339239
0.151651
0.0918793
0.0158772
0.0616539
0.0223322
0.0568365
0.0130691
0.00185659
0.0359502
0.0568806
0.0653318
0.175373
0.050584
0.0937186
-0.010292
0.0571988
0.0424505
0.0985041
0.105553
0.0752181
0.0576145
0.0537062
0.0545899
0.0576704
0.0568989
0.0483724
0.00929291
0.0568954
0.0631042
0.0612533
-0.394212
0.121529
0.0545101
0.0571591
0.0156618
0.0230301
0.02847
0.0816288
0.0239648
0.0564905
0.0509275
0.00832429
0.0576003
0.0201066
0.0950357
0.0764099
0.0557906
0.0177147
0.0574052
0.0463801
0.0446694
0.050448
0.00020156
0.0655235
0.0427163
0.0411662
0.115485
0.0866524
0.0568385
0.0572582
0.0447465
0.0379712
0.019766
0.0289741
0.0470959
0.0120118
0.0854641
0.0576866
0.0464334
0.00834716
0.0499091
0.0899891
0.0698499
0.059185
0.151644
0.0285995
0.129727
0.144934
0.0349803
-0.00331847
-0.000298415
0.127275
0.0489875
0.010657
0.0793319
0.0441582
0.0287929
0.0933693
0.0773191
0.0582907
0.00493203
0.0377949
0.0364441
0.0478865
0.00757523
0.0585476
0.0853602
0.0583854
0.0624979
0.0906457
0.0622648
0.0511613
0.109983
0.0114387
0.096083
0.0370418
0.0777655
0.0127092
0.067377
0.0165927
0.0581697
0.0391044
0.0138942
0.0730565
0.0324711
0.0581193
0.0494972
0.0214695
0.0520416
0.0429082
0.0628079
0.0446384
0.0294347
0.00197204
0.0997038
0.108852
0.104399
0.0485807
0.0500203
0.0440416
0.0258227
0.0361274
0.0574756
0.0615439
0.0754685
0.0315497
0.0641738
0.00852395
0.0396142
0.0633613
0.0410324
0.0403331
0.0508724
0.0386265
0.0456932
0.138024
0.266433
0.0292223
0.0373097
0.03666
0.04116
0.0471234
0.0450059
0.043781
0.0286414
0.018878
0.0561079
0.0571474
0.056284
0.010071
0.0570412
0.0371467
0.050807
0.0374946
0.065744
0.0419568
0.126257
-0.00251302
0.0567901
0.0414881
0.0954832
0.0490418
0.0668731
0.0907617
0.0611183
0.056956
0.0354163
0.0105538
0.0907827
0.00804343
0.11862
0.0877265
0.0065257
0.0697279
0.0730867
0.0159904
0.0504409
0.0562258
0.0581924
0.0446489
0.0567491
0.0405212
-0.0240103
0.0560732
0.085319
0.0508924
0.0689126
0.0695673
0.155209
0.062217
0.0495699
0.00859215
0.019459
0.09165
0.0376197
0.0885322
0.0580834
0.0459983
0.0711298
0.0529714
0.0398477
0.057703
0.058092
0.0400401
0.0567033
0.0427465
0.0670941
0.0852345
0.0208258
0.0565202
0.0100523
0.00562349
0.0735871
0.0613446
0.0584892
0.0738003
0.135188
0.0571336
0.0476427
0.0544364
0.066727
0.0470389
0.0436934
0.0478863
0.0794875
0.0882442
0.0394731
0.0843427
0.0952584
0.0662781
0.112175
0.0637086
0.0828591
0.0352062
0.0500451
0.03024
0.0577651
0.0692789
0.0583814
0.0883639
0.00476364
0.061313
-0.00693799
0.0527806
0.0336077
0.121321
0.0117025
0.0544699
0.0568671
0.00886475
0.111294
0.0331917
0.0360581
0.0222767
0.0517588
0.0835316
0.0461006
0.0557566
0.0443744
0.0123849
0.0512593
0.0482712
0.40804
0.0478904
0.0584084
0.0651219
0.0707052
0.0505832
0.0398992
0.0571537
0.106422
0.0490132
0.057141
0.0193472
0.0452999
0.0375205
0.0484822
0.0694601
0.0509438
0.052344
0.0517174
0.0423239
0.0851658
0.0571719
0.0472624
0.0632563
0.0526582
0.0485499
0.0623194
0.0617899
0.0656418
0.0661321
0.0572205
0.0511248
0.0582223
0.0358822
-0.00107264
-0.000131712
0.14926
0.0799841
-0.00516747
0.0394467
0.0566183
0.0593721
0.0647218
0.0793202
0.0574446
0.035195
0.0805505
0.0630595
0.0328448
-0.00494396
0.0278086
0.0565723
0.0459126
0.0570498
0.0981284
0.246617
0.0480648
0.0634947
0.0493159
0.00756983
0.0568649
0.0778679
0.0335873
0.0533994
0.0575787
0.041764
0.101288
0.0456686
0.0627506
0.0325605
0.0495187
0.0514181
0.0926404
0.0663208
0.0483668
0.0588665
0.0473503
0.06191
0.0466991
0.057401
0.0465175
0.0569685
0.0617187
0.0155698
0.0741438
0.0237145
0.078537
0.0791457
0.0603913
0.0471988
0.0439923
0.082438
0.0967093
0.0156844
0.0505751
0.0585002
0.0646191
0.0472079
0.0558435
0.0517704
0.0436393
0.0346303
0.0347403
0.0528964
0.0200178
0.0481047
0.0842858
0.0479761
0.0503475
0.0457372
0.0300268
0.0890208
0.060463
1.02805e-05
0.0479756
0.0501776
0.0153269
0.0596091
0.000526247
0.059012
0.0504511
0.0539727
0.0550165
0.0579026
0.0507077
0.00776755
0.0571532
0.027764
0.0765612
0.0591415
0.0639119
0.0420162
0.100589
0.0666844
0.0574737
0.0434721
-0.0476062
0.0572474
0.00875557
-0.0573705
0.071395
0.090228
0.0603058
0.0485557
0.0360873
0.07703
0.0649086
0.0570018
0.0952736
0.0155456
0.0862424
0.0571758
0.0567153
0.0510514
0.0521244
0.052705
0.0716282
0.0793067
0.0533544
-0.00120691
0.0545482
0.0604691
0.0490725
0.0389496
0.000822707
0.0567231
0.0507831
0.0305468
0.0523359
0.0538287
0.0591346
0.131404
0.0769973
0.0575337
0.0679193
0.0600658
0.0505887
0.0785388
0.0658503
0.0517383
0.0685313
0.0454762
0.0683505
0.089318
0.00423002
0.0302318
0.0576142
0.0750917
0.0551047
0.0592155
0.0582952
0.0496432
0.00338562
0.00138414
0.0650848
0.0423561
0.0453009
0.0342516
0.056364
0.0561067
0.057532
0.0751203
0.043628
0.0572081
0.050543
0.0610395
0.0307383
0.0129448
0.0572123
0.056808
0.0450273
0.0557388
0.0558371
0.0500778
0.0532008
0.0484046
0.0721663
0.0675472
0.0414227
0.0552768
0.0596998
0.0630146
0.050912
0.0571641
0.0506915
0.0389993
0.00276982
0.00805202
0.044394
0.12639
0.0511577
-0.0467172
0.0922787
0.0508123
0.0498073
0.0603482
0.0559518
0.0572115
0.0553802
0.0629689
0.050432
0.0584785
0.0565419
0.100033
0.0090864
0.0407608
0.0573369
0.0614122
0.0692147
0.0757935
0.040876
0.0590624
0.0571132
0.0558671
0.0519638
0.0338981
0.0328947
0.0100628
0.0674495
0.0556641
0.0501138
0.0622401
0.060487
0.0603462
0.0548982
0.0642354
0.0572255
0.0211243
-0.00413306
0.0565815
0.0715751
0.0504934
0.0525906
0.0547322
0.058248
-0.0301628
0.069079
-0.000334301
0.0510758
0.0131383
0.0591397
0.0716076
0.13123
0.0618146
0.0573681
0.0385973
0.0291065
0.116326
0.0513167
0.0722813
0.0528806
0.0568366
0.0696399
0.0551173
0.123721
0.00075262
0.0835
0.0599141
0.0556859
0.0572014
0.0553537
-0.0226955
0.0474929
0.0567693
0.0631089
0.0557467
0.0567811
0.0567059
0.016006
0.00604864
0.0613046
0.0562743
0.0871455
0.0617021
0.105812
0.396452
0.0296345
0.0514433
0.0797058
0.0560696
-0.0304775
0.0571902
0.055865
0.123061
0.362269
0.0122907
0.0569693
0.16032