/*--------------------------------*- C++ -*----------------------------------*\
  =========                 |
  \\      /  F ield         | OpenFOAM: The Open Source CFD Toolbox
   \\    /   O peration     | Website:  https://openfoam.org
    \\  /    A nd           | Version:  7
     \\/     M anipulation  |
\*---------------------------------------------------------------------------*/
FoamFile
{
    version     2.0;
    format      ascii;
    class       volVectorField;
    location    "19.5";
    object      U;
}
// * * * * * * * * * * * * * * * * * * * * * * * * * * * * * * * * * * * * * //

dimensions      [0 1 -1 0 0 0 0];

internalField   nonuniform List<vector> 
2413
(
(1.91545 0.0170303 0)
(1.91479 0.0188682 0)
(1.91439 0.0209511 0)
(1.91421 0.022138 0)
(1.915 0.0216359 0)
(1.91639 0.0202744 0)
(1.91779 0.0193092 0)
(1.91915 0.018469 0)
(1.9199 0.0175548 0)
(1.9201 0.0171842 0)
(1.92047 0.017227 0)
(1.92069 0.0173154 0)
(1.92086 0.0172985 0)
(1.92102 0.0169004 0)
(1.92124 0.0163858 0)
(1.92154 0.0160193 0)
(1.92201 0.0154455 0)
(1.92267 0.0142203 0)
(1.92343 0.0128035 0)
(1.92438 0.011977 0)
(1.92562 0.0108027 0)
(1.92609 0.00988935 0)
(1.9272 0.00859941 0)
(1.92848 0.00753051 0)
(1.92929 0.00622865 0)
(1.9312 0.00530282 0)
(1.93307 0.00420951 0)
(1.935 0.00291464 0)
(1.93632 0.00204092 0)
(1.93755 0.00166396 0)
(1.93828 0.000545838 0)
(1.93887 -0.000508495 0)
(1.93928 -0.00103797 0)
(1.93898 -0.00214765 0)
(1.93815 -0.00333713 0)
(1.93627 -0.00403568 0)
(1.93251 -0.00503425 0)
(1.92649 -0.00583224 0)
(1.91904 -0.00543345 0)
(1.91366 -0.0049737 0)
(1.91191 -0.00542822 0)
(1.9119 -0.00584471 0)
(1.91199 -0.0060358 0)
(1.91246 -0.00616984 0)
(1.91361 -0.006602 0)
(1.91545 -0.00758071 0)
(1.9177 -0.00818764 0)
(1.9202 -0.00853001 0)
(1.92297 -0.00960919 0)
(1.92573 -0.0114538 0)
(1.92728 -0.0134963 0)
(1.92907 -0.0152811 0)
(1.93048 -0.0170424 0)
(1.93106 -0.0193585 0)
(1.93169 -0.0217808 0)
(1.93218 -0.0244198 0)
(1.93121 -0.0278613 0)
(1.93094 -0.0317345 0)
(1.98749 -0.0388275 0)
(1.9879 -0.0406465 0)
(1.98794 -0.0421265 0)
(1.98779 -0.0427112 0)
(1.98773 -0.042117 0)
(1.98744 -0.0407104 0)
(1.98661 -0.0392374 0)
(1.9855 -0.0382884 0)
(1.98447 -0.0378615 0)
(1.98384 -0.0380105 0)
(1.98335 -0.0385402 0)
(1.98297 -0.0383061 0)
(1.98271 -0.036926 0)
(1.982 -0.0354374 0)
(1.98116 -0.0338181 0)
(1.98056 -0.0318455 0)
(1.97976 -0.0301687 0)
(1.97871 -0.0296361 0)
(1.97784 -0.0292265 0)
(1.97723 -0.0284598 0)
(1.97641 -0.0278506 0)
(1.97567 -0.0270365 0)
(1.97465 -0.0260488 0)
(1.97311 -0.02532 0)
(1.97129 -0.0239551 0)
(1.97078 -0.0226899 0)
(1.96978 -0.0212149 0)
(1.96877 -0.0198349 0)
(1.96828 -0.018474 0)
(1.96785 -0.017458 0)
(1.96747 -0.0168868 0)
(1.96711 -0.0164841 0)
(1.96664 -0.016285 0)
(1.96598 -0.0160568 0)
(1.96553 -0.0155622 0)
(1.96513 -0.015048 0)
(1.96432 -0.0147733 0)
(1.96347 -0.0141223 0)
(1.96298 -0.0129587 0)
(1.962 -0.0117884 0)
(1.96137 -0.0109169 0)
(1.96096 -0.0105643 0)
(1.9605 -0.0100622 0)
(1.96016 -0.0096232 0)
(1.95984 -0.00938497 0)
(1.95957 -0.00933779 0)
(1.9594 -0.00914855 0)
(1.95893 -0.0085912 0)
(1.9586 -0.00809499 0)
(1.95833 -0.00772391 0)
(1.95779 -0.00709562 0)
(1.95739 -0.00638728 0)
(1.95721 -0.00593696 0)
(1.95711 -0.00559232 0)
(1.95708 -0.00519872 0)
(1.95713 -0.00476069 0)
(1.95734 -0.00441583 0)
(1.95769 -0.00436908 0)
(1.95809 -0.00415496 0)
(1.9581 -0.00316681 0)
(1.95816 -0.00219155 0)
(1.95823 -0.0017934 0)
(1.95794 -0.00105087 0)
(1.9568 4.33507e-05 0)
(1.95573 0.00119694 0)
(1.95401 0.00144176 0)
(1.9511 0.00214767 0)
(1.94584 0.0051806 0)
(1.93851 0.00709921 0)
(1.92888 0.0111961 0)
(1.91988 0.0135241 0)
(1.91735 0.0148589 0)
(1.91559 0.0160993 0)
(1.91371 0.0172757 0)
(1.91282 0.0193975 0)
(1.91243 0.0216268 0)
(1.91216 0.0230354 0)
(1.91235 0.0233153 0)
(1.91343 0.0221521 0)
(1.91486 0.0207632 0)
(1.91653 0.0199796 0)
(1.91813 0.0190501 0)
(1.9189 0.0178354 0)
(1.91938 0.0173046 0)
(1.91982 0.0173303 0)
(1.9201 0.0174467 0)
(1.92043 0.0173599 0)
(1.9208 0.0168659 0)
(1.9213 0.016327 0)
(1.92193 0.0158785 0)
(1.92276 0.0149787 0)
(1.92373 0.0133354 0)
(1.92478 0.0118561 0)
(1.92602 0.0110106 0)
(1.92732 0.00977944 0)
(1.92793 0.00900201 0)
(1.92928 0.00790426 0)
(1.93053 0.00666119 0)
(1.93124 0.00541578 0)
(1.93312 0.00449567 0)
(1.9349 0.00335369 0)
(1.93666 0.00192648 0)
(1.93791 0.00111898 0)
(1.93923 0.000718288 0)
(1.93985 -0.000596361 0)
(1.94041 -0.00165371 0)
(1.94081 -0.00207044 0)
(1.94048 -0.00303702 0)
(1.93961 -0.00404108 0)
(1.93773 -0.00465228 0)
(1.934 -0.0056904 0)
(1.92794 -0.00642503 0)
(1.92035 -0.00539397 0)
(1.91483 -0.00460674 0)
(1.91224 -0.00541526 0)
(1.9117 -0.00610092 0)
(1.91187 -0.00660732 0)
(1.91224 -0.00723774 0)
(1.91286 -0.007937 0)
(1.91436 -0.00928217 0)
(1.91602 -0.0106389 0)
(1.91788 -0.0120473 0)
(1.92024 -0.0141572 0)
(1.92213 -0.0168454 0)
(1.92351 -0.0194517 0)
(1.92479 -0.0223338 0)
(1.92508 -0.0258498 0)
(1.92648 -0.0276444 0)
(1.92739 -0.0298475 0)
(1.92733 -0.0332491 0)
(1.92712 -0.0363234 0)
(1.92798 -0.038793 0)
(1.9873 -0.0374149 0)
(1.98765 -0.0387925 0)
(1.98768 -0.0400127 0)
(1.98729 -0.0405507 0)
(1.98674 -0.0397817 0)
(1.98596 -0.0380985 0)
(1.98495 -0.0366922 0)
(1.98414 -0.0362317 0)
(1.98371 -0.0364884 0)
(1.98364 -0.0370094 0)
(1.98354 -0.0375641 0)
(1.98344 -0.0372043 0)
(1.98343 -0.0356862 0)
(1.98266 -0.0341976 0)
(1.98184 -0.0324941 0)
(1.98128 -0.0305688 0)
(1.98052 -0.0292739 0)
(1.97985 -0.0290283 0)
(1.97905 -0.0288301 0)
(1.97844 -0.028111 0)
(1.9777 -0.0275207 0)
(1.97671 -0.0267986 0)
(1.97565 -0.0252951 0)
(1.97403 -0.0244043 0)
(1.97247 -0.0231674 0)
(1.97209 -0.0219944 0)
(1.97081 -0.0206544 0)
(1.9698 -0.0194835 0)
(1.96938 -0.0183261 0)
(1.96893 -0.0175575 0)
(1.96854 -0.0172291 0)
(1.96822 -0.0167786 0)
(1.96779 -0.0163839 0)
(1.96722 -0.0161754 0)
(1.96661 -0.0156818 0)
(1.9664 -0.015116 0)
(1.96577 -0.0144048 0)
(1.96489 -0.0138252 0)
(1.96403 -0.0129672 0)
(1.9636 -0.0120602 0)
(1.96301 -0.0113118 0)
(1.96257 -0.011091 0)
(1.96215 -0.0108403 0)
(1.96181 -0.0104876 0)
(1.96153 -0.0103569 0)
(1.96126 -0.0103435 0)
(1.96092 -0.00999021 0)
(1.96032 -0.00941908 0)
(1.95995 -0.0088379 0)
(1.95958 -0.00839706 0)
(1.95892 -0.00768844 0)
(1.9585 -0.00699357 0)
(1.95828 -0.00662166 0)
(1.95816 -0.00630097 0)
(1.95816 -0.00592839 0)
(1.95833 -0.00561613 0)
(1.95865 -0.00540186 0)
(1.95901 -0.00520238 0)
(1.95939 -0.00475869 0)
(1.95936 -0.00377886 0)
(1.9593 -0.00289772 0)
(1.9593 -0.0024181 0)
(1.9588 -0.00148115 0)
(1.95774 -0.000582073 0)
(1.95667 0.000866683 0)
(1.95515 0.00146705 0)
(1.95233 0.00263401 0)
(1.94673 0.00598248 0)
(1.93953 0.00890874 0)
(1.92984 0.0118174 0)
(1.91864 0.0158155 0)
(1.91489 0.0168039 0)
(1.91295 0.0178045 0)
(1.91147 0.0193631 0)
(1.91088 0.0216957 0)
(1.91044 0.023345 0)
(1.9105 0.023971 0)
(1.91109 0.0237323 0)
(1.91226 0.0224036 0)
(1.91364 0.0209855 0)
(1.9154 0.0202479 0)
(1.91725 0.0194097 0)
(1.91847 0.0179278 0)
(1.91934 0.0172978 0)
(1.91977 0.0172965 0)
(1.92015 0.0173491 0)
(1.92067 0.0171259 0)
(1.9213 0.0165247 0)
(1.92207 0.0159673 0)
(1.92302 0.0154166 0)
(1.92412 0.0141816 0)
(1.92531 0.0122878 0)
(1.92649 0.0108962 0)
(1.9279 0.00998885 0)
(1.92915 0.00885396 0)
(1.92992 0.00803903 0)
(1.93136 0.00710882 0)
(1.93257 0.0058395 0)
(1.93342 0.00468659 0)
(1.93522 0.00378082 0)
(1.93675 0.00254557 0)
(1.93822 0.000884974 0)
(1.93934 -1.79138e-05 0)
(1.94063 -0.000451945 0)
(1.94109 -0.00184661 0)
(1.94153 -0.00288439 0)
(1.94181 -0.00342281 0)
(1.94131 -0.00442266 0)
(1.94029 -0.00547641 0)
(1.93829 -0.00606788 0)
(1.93466 -0.00623334 0)
(1.92866 -0.00713131 0)
(1.92109 -0.00672639 0)
(1.91533 -0.00536591 0)
(1.91224 -0.00635631 0)
(1.9108 -0.00814071 0)
(1.91048 -0.00955836 0)
(1.91048 -0.0109859 0)
(1.91098 -0.0125058 0)
(1.91225 -0.0145549 0)
(1.91269 -0.0167149 0)
(1.91424 -0.0190773 0)
(1.91631 -0.021761 0)
(1.91689 -0.0252242 0)
(1.91829 -0.0281108 0)
(1.92024 -0.0308175 0)
(1.92036 -0.033952 0)
(1.92147 -0.0362361 0)
(1.92306 -0.0375131 0)
(1.92439 -0.0395876 0)
(1.92464 -0.0417208 0)
(1.92556 -0.0441678 0)
(1.98711 -0.0364207 0)
(1.9876 -0.0375342 0)
(1.98777 -0.0382347 0)
(1.98729 -0.0382155 0)
(1.98643 -0.0369389 0)
(1.98533 -0.035177 0)
(1.98434 -0.0342639 0)
(1.98385 -0.0345032 0)
(1.98374 -0.0353324 0)
(1.98375 -0.0360957 0)
(1.9837 -0.0365396 0)
(1.98355 -0.0360541 0)
(1.98348 -0.0344017 0)
(1.98284 -0.0326419 0)
(1.98212 -0.0310891 0)
(1.98168 -0.0297964 0)
(1.98134 -0.0291433 0)
(1.98102 -0.0289496 0)
(1.9804 -0.0286606 0)
(1.97972 -0.0279481 0)
(1.9789 -0.0272151 0)
(1.97742 -0.0263082 0)
(1.97634 -0.0245659 0)
(1.97505 -0.0234539 0)
(1.97357 -0.0224189 0)
(1.97305 -0.0212224 0)
(1.97181 -0.0202027 0)
(1.97091 -0.0194169 0)
(1.97052 -0.0186668 0)
(1.97019 -0.0180959 0)
(1.96977 -0.0177489 0)
(1.96938 -0.017194 0)
(1.96899 -0.0166212 0)
(1.96846 -0.0162918 0)
(1.96778 -0.0157703 0)
(1.96753 -0.0151171 0)
(1.96702 -0.0142463 0)
(1.96629 -0.0135976 0)
(1.9655 -0.0130551 0)
(1.96502 -0.0124125 0)
(1.96467 -0.0119633 0)
(1.96426 -0.0118146 0)
(1.96386 -0.0117249 0)
(1.96346 -0.0114538 0)
(1.96314 -0.0113185 0)
(1.9628 -0.0112801 0)
(1.96237 -0.0108922 0)
(1.96179 -0.0103457 0)
(1.96142 -0.00974843 0)
(1.96103 -0.00929383 0)
(1.96044 -0.00857673 0)
(1.96009 -0.00791369 0)
(1.95991 -0.0075067 0)
(1.95976 -0.0071207 0)
(1.95971 -0.00675235 0)
(1.9598 -0.00651216 0)
(1.95999 -0.00627965 0)
(1.96017 -0.0059035 0)
(1.96039 -0.00519966 0)
(1.96034 -0.00425695 0)
(1.9602 -0.00352595 0)
(1.96023 -0.00294129 0)
(1.95964 -0.00195161 0)
(1.95858 -0.00114734 0)
(1.95729 0.000614675 0)
(1.95621 0.00187125 0)
(1.9531 0.00406016 0)
(1.94724 0.00734696 0)
(1.9404 0.0111413 0)
(1.93046 0.0132933 0)
(1.91896 0.0177735 0)
(1.91281 0.018629 0)
(1.91104 0.01956 0)
(1.91027 0.0215828 0)
(1.90941 0.0235841 0)
(1.90888 0.0242556 0)
(1.90931 0.0239023 0)
(1.90998 0.0234811 0)
(1.91098 0.0225499 0)
(1.91275 0.0210493 0)
(1.9146 0.0201305 0)
(1.91678 0.019313 0)
(1.91867 0.017825 0)
(1.91974 0.0172651 0)
(1.92028 0.0171074 0)
(1.92086 0.0168829 0)
(1.92154 0.0163637 0)
(1.92235 0.0156103 0)
(1.92332 0.0150132 0)
(1.92448 0.0143929 0)
(1.92571 0.0129815 0)
(1.92699 0.0111168 0)
(1.92823 0.00990963 0)
(1.92978 0.00892347 0)
(1.93089 0.0078834 0)
(1.93182 0.00691956 0)
(1.93332 0.00595709 0)
(1.93439 0.00480115 0)
(1.93548 0.00370287 0)
(1.93715 0.00287332 0)
(1.93846 0.00162362 0)
(1.93962 -9.16738e-05 0)
(1.94046 -0.00149599 0)
(1.94147 -0.00216987 0)
(1.942 -0.00323034 0)
(1.94208 -0.00452585 0)
(1.942 -0.00540995 0)
(1.94152 -0.00606697 0)
(1.94025 -0.00696137 0)
(1.93792 -0.00796336 0)
(1.9342 -0.00852351 0)
(1.92853 -0.00927829 0)
(1.92111 -0.00977911 0)
(1.9148 -0.00945305 0)
(1.91111 -0.0108536 0)
(1.90905 -0.0133839 0)
(1.90816 -0.0156743 0)
(1.90758 -0.0182478 0)
(1.90765 -0.0202239 0)
(1.90828 -0.0224016 0)
(1.90854 -0.025241 0)
(1.90975 -0.0277564 0)
(1.91204 -0.0306118 0)
(1.91224 -0.0333683 0)
(1.91396 -0.0358888 0)
(1.91599 -0.0382604 0)
(1.91669 -0.0400595 0)
(1.91793 -0.0418761 0)
(1.92006 -0.0433052 0)
(1.92174 -0.0435295 0)
(1.92336 -0.0445236 0)
(1.92551 -0.0451802 0)
(1.98633 -0.034686 0)
(1.98638 -0.0355241 0)
(1.98595 -0.035741 0)
(1.98498 -0.0352334 0)
(1.98402 -0.0341038 0)
(1.98341 -0.0331385 0)
(1.9832 -0.0329712 0)
(1.98333 -0.0335637 0)
(1.98352 -0.0344463 0)
(1.98366 -0.0350878 0)
(1.98361 -0.0352812 0)
(1.98338 -0.0344987 0)
(1.9833 -0.032635 0)
(1.98289 -0.0308463 0)
(1.98255 -0.0299452 0)
(1.98248 -0.0296518 0)
(1.98246 -0.0293845 0)
(1.98227 -0.0289671 0)
(1.98172 -0.0283929 0)
(1.98094 -0.0276525 0)
(1.97995 -0.0268292 0)
(1.97828 -0.0256176 0)
(1.97686 -0.0237993 0)
(1.97603 -0.0225154 0)
(1.97455 -0.0215976 0)
(1.97384 -0.0207509 0)
(1.97302 -0.0201718 0)
(1.97226 -0.0197756 0)
(1.97183 -0.0192959 0)
(1.97147 -0.0187427 0)
(1.97106 -0.0181259 0)
(1.97062 -0.0174245 0)
(1.97012 -0.0168301 0)
(1.96954 -0.0164241 0)
(1.96896 -0.0158025 0)
(1.96866 -0.0150541 0)
(1.96814 -0.0142191 0)
(1.96765 -0.0136214 0)
(1.96711 -0.0133562 0)
(1.96667 -0.0130891 0)
(1.96643 -0.0129794 0)
(1.96609 -0.0128797 0)
(1.96571 -0.0128378 0)
(1.96525 -0.0126124 0)
(1.96487 -0.0124513 0)
(1.96448 -0.0123904 0)
(1.96394 -0.0119293 0)
(1.96323 -0.0112301 0)
(1.9628 -0.0104898 0)
(1.96235 -0.0099035 0)
(1.96182 -0.00919603 0)
(1.9615 -0.0085816 0)
(1.96129 -0.00812255 0)
(1.96111 -0.00772701 0)
(1.96102 -0.00746201 0)
(1.96108 -0.00727832 0)
(1.96115 -0.00695296 0)
(1.96125 -0.00640204 0)
(1.9612 -0.00543086 0)
(1.96131 -0.00466359 0)
(1.96106 -0.00409468 0)
(1.9608 -0.00325213 0)
(1.96044 -0.00203577 0)
(1.95922 -0.00116184 0)
(1.9575 0.000785272 0)
(1.9567 0.00290176 0)
(1.95332 0.00594299 0)
(1.94751 0.00947221 0)
(1.9413 0.0132894 0)
(1.93166 0.0156729 0)
(1.92089 0.0185443 0)
(1.91169 0.020118 0)
(1.90961 0.0209766 0)
(1.90902 0.0229906 0)
(1.90808 0.0243405 0)
(1.90768 0.0246698 0)
(1.90836 0.0239043 0)
(1.90898 0.0232389 0)
(1.90992 0.0223008 0)
(1.9121 0.021111 0)
(1.9143 0.019851 0)
(1.91672 0.0190324 0)
(1.91922 0.0177791 0)
(1.92053 0.0173227 0)
(1.92129 0.0168633 0)
(1.92207 0.0163196 0)
(1.92289 0.0155097 0)
(1.92373 0.0143933 0)
(1.92474 0.0136983 0)
(1.92603 0.0131901 0)
(1.92737 0.0118159 0)
(1.92859 0.0100271 0)
(1.92987 0.00891118 0)
(1.93152 0.00782524 0)
(1.93232 0.0066569 0)
(1.93359 0.00561927 0)
(1.93506 0.0045647 0)
(1.93588 0.00353256 0)
(1.93711 0.00241956 0)
(1.93863 0.0015151 0)
(1.9398 0.00035193 0)
(1.94054 -0.00144828 0)
(1.94117 -0.00315832 0)
(1.9419 -0.00398936 0)
(1.94215 -0.0051058 0)
(1.94183 -0.00675906 0)
(1.94132 -0.00820891 0)
(1.94041 -0.00935044 0)
(1.93869 -0.0107377 0)
(1.93599 -0.0123838 0)
(1.93214 -0.0138644 0)
(1.92679 -0.0151004 0)
(1.91989 -0.0158259 0)
(1.91311 -0.0171096 0)
(1.90861 -0.0189726 0)
(1.90667 -0.020481 0)
(1.90515 -0.0234793 0)
(1.90406 -0.0268681 0)
(1.90389 -0.0284847 0)
(1.90433 -0.0306962 0)
(1.90441 -0.0329283 0)
(1.90592 -0.0348422 0)
(1.90793 -0.0374606 0)
(1.90865 -0.038815 0)
(1.91073 -0.0409653 0)
(1.91268 -0.0425898 0)
(1.91457 -0.0436436 0)
(1.9166 -0.0444175 0)
(1.91864 -0.0453655 0)
(1.92071 -0.0455195 0)
(1.92255 -0.0466876 0)
(1.9254 -0.0464563 0)
(1.98547 -0.032625 0)
(1.98505 -0.0330128 0)
(1.98417 -0.0326726 0)
(1.9832 -0.0321562 0)
(1.98263 -0.0317899 0)
(1.98255 -0.0317562 0)
(1.98279 -0.032131 0)
(1.98307 -0.0327592 0)
(1.98326 -0.0334762 0)
(1.98328 -0.034044 0)
(1.98301 -0.0339939 0)
(1.98309 -0.0326334 0)
(1.98331 -0.0306821 0)
(1.98327 -0.0293249 0)
(1.98349 -0.0290937 0)
(1.98371 -0.0292743 0)
(1.98367 -0.0292219 0)
(1.98343 -0.0287351 0)
(1.98288 -0.027939 0)
(1.982 -0.027033 0)
(1.98085 -0.0260301 0)
(1.97917 -0.0248436 0)
(1.97744 -0.0231971 0)
(1.97681 -0.0220748 0)
(1.97565 -0.021318 0)
(1.97494 -0.0208893 0)
(1.97433 -0.0206739 0)
(1.97369 -0.0203336 0)
(1.97318 -0.0198954 0)
(1.97277 -0.0192863 0)
(1.97234 -0.0183851 0)
(1.97176 -0.0174453 0)
(1.9712 -0.0168891 0)
(1.97064 -0.0164478 0)
(1.9702 -0.0158351 0)
(1.96976 -0.0151925 0)
(1.96936 -0.0146939 0)
(1.96908 -0.0143652 0)
(1.96872 -0.0141818 0)
(1.96824 -0.0140707 0)
(1.96801 -0.0140333 0)
(1.96767 -0.0139604 0)
(1.96724 -0.0138339 0)
(1.9667 -0.0135847 0)
(1.9662 -0.0133193 0)
(1.96573 -0.013163 0)
(1.96514 -0.0126119 0)
(1.96446 -0.0117147 0)
(1.96407 -0.0109481 0)
(1.9637 -0.0104234 0)
(1.96334 -0.00988487 0)
(1.9631 -0.00933124 0)
(1.9629 -0.00883969 0)
(1.96269 -0.00846323 0)
(1.96255 -0.0082467 0)
(1.96242 -0.0079445 0)
(1.96229 -0.00743322 0)
(1.96222 -0.00657244 0)
(1.96202 -0.00563404 0)
(1.96203 -0.00487266 0)
(1.96172 -0.00422325 0)
(1.96117 -0.00344947 0)
(1.96089 -0.00195205 0)
(1.9596 -0.000661441 0)
(1.95737 0.00138217 0)
(1.95662 0.00449938 0)
(1.95307 0.00809059 0)
(1.94769 0.0117894 0)
(1.94223 0.0149427 0)
(1.93346 0.017615 0)
(1.92272 0.0187482 0)
(1.91318 0.0212525 0)
(1.90894 0.0220433 0)
(1.90808 0.0239051 0)
(1.9072 0.0247559 0)
(1.90702 0.0246497 0)
(1.90758 0.0242595 0)
(1.90829 0.0236096 0)
(1.90934 0.0223049 0)
(1.91174 0.020728 0)
(1.91432 0.0188772 0)
(1.91689 0.018101 0)
(1.92 0.0172283 0)
(1.92168 0.0168609 0)
(1.92266 0.0162486 0)
(1.9236 0.0154408 0)
(1.92449 0.0143683 0)
(1.92534 0.0132602 0)
(1.92629 0.0125303 0)
(1.92747 0.0116957 0)
(1.9288 0.0101877 0)
(1.92996 0.00865674 0)
(1.93132 0.00786247 0)
(1.93278 0.00669046 0)
(1.93354 0.00510435 0)
(1.9349 0.0039607 0)
(1.93633 0.00303605 0)
(1.93708 0.00183228 0)
(1.93816 0.000488425 0)
(1.93928 -0.000581739 0)
(1.94042 -0.00161211 0)
(1.94073 -0.00370164 0)
(1.94104 -0.00577403 0)
(1.94117 -0.00739935 0)
(1.94083 -0.00925201 0)
(1.94015 -0.011268 0)
(1.93906 -0.013375 0)
(1.93761 -0.0153087 0)
(1.93561 -0.017154 0)
(1.93281 -0.0192657 0)
(1.92902 -0.0215683 0)
(1.92404 -0.0230301 0)
(1.91788 -0.0238597 0)
(1.91127 -0.0255919 0)
(1.90599 -0.0271905 0)
(1.9031 -0.0290572 0)
(1.90171 -0.0318128 0)
(1.90114 -0.0331443 0)
(1.90098 -0.0342438 0)
(1.90155 -0.0360956 0)
(1.90155 -0.0375933 0)
(1.90302 -0.0398263 0)
(1.90458 -0.0418921 0)
(1.90613 -0.0428352 0)
(1.90848 -0.0442165 0)
(1.91086 -0.0448672 0)
(1.91331 -0.0452609 0)
(1.91577 -0.0451265 0)
(1.91807 -0.0454871 0)
(1.92051 -0.044978 0)
(1.92261 -0.0455153 0)
(1.92598 -0.044945 0)
(1.98294 -0.0304127 0)
(1.98233 -0.0302937 0)
(1.98179 -0.0298732 0)
(1.98153 -0.0299271 0)
(1.9816 -0.0303597 0)
(1.98193 -0.0308465 0)
(1.98234 -0.0313169 0)
(1.98266 -0.0317275 0)
(1.9828 -0.0321317 0)
(1.98269 -0.0324969 0)
(1.98234 -0.0322432 0)
(1.98254 -0.0308344 0)
(1.98283 -0.029226 0)
(1.98323 -0.028427 0)
(1.98388 -0.0286117 0)
(1.98428 -0.0289889 0)
(1.98436 -0.0288757 0)
(1.98416 -0.0282145 0)
(1.98357 -0.0273097 0)
(1.98267 -0.0262593 0)
(1.98152 -0.0250379 0)
(1.98013 -0.0239003 0)
(1.97855 -0.0228155 0)
(1.97754 -0.0220616 0)
(1.97701 -0.0217441 0)
(1.97632 -0.0214067 0)
(1.9757 -0.0211981 0)
(1.97505 -0.0208253 0)
(1.97442 -0.020243 0)
(1.97391 -0.019425 0)
(1.97344 -0.0182644 0)
(1.97286 -0.0171811 0)
(1.97227 -0.0167456 0)
(1.97178 -0.0164622 0)
(1.97142 -0.0160538 0)
(1.97103 -0.0157079 0)
(1.97064 -0.0155158 0)
(1.97033 -0.015311 0)
(1.96999 -0.015147 0)
(1.96957 -0.0151166 0)
(1.96938 -0.0151131 0)
(1.96906 -0.015045 0)
(1.9686 -0.0148287 0)
(1.96809 -0.0145355 0)
(1.96752 -0.0142434 0)
(1.96697 -0.0139259 0)
(1.96638 -0.0132769 0)
(1.96583 -0.0122952 0)
(1.96551 -0.0114869 0)
(1.96526 -0.0110185 0)
(1.96499 -0.0105771 0)
(1.96471 -0.010052 0)
(1.96443 -0.00958933 0)
(1.96418 -0.00928064 0)
(1.96398 -0.00899054 0)
(1.96367 -0.0084763 0)
(1.96341 -0.00776031 0)
(1.96314 -0.00671697 0)
(1.96286 -0.00578253 0)
(1.96264 -0.0048706 0)
(1.96216 -0.00422092 0)
(1.96129 -0.00321383 0)
(1.96086 -0.00126928 0)
(1.95967 0.000658281 0)
(1.95723 0.00249501 0)
(1.95575 0.00635917 0)
(1.95227 0.0102912 0)
(1.94813 0.0135418 0)
(1.94332 0.0160768 0)
(1.93571 0.0186065 0)
(1.92534 0.0190067 0)
(1.91604 0.0207903 0)
(1.90916 0.0234762 0)
(1.90737 0.0247644 0)
(1.90656 0.0250329 0)
(1.90645 0.0246739 0)
(1.90716 0.0244436 0)
(1.90796 0.0236213 0)
(1.90929 0.0218375 0)
(1.9119 0.0199637 0)
(1.91469 0.0177031 0)
(1.91729 0.0169995 0)
(1.92094 0.0163496 0)
(1.9231 0.0161578 0)
(1.92423 0.0154066 0)
(1.9253 0.0144507 0)
(1.9263 0.0134476 0)
(1.92712 0.0123725 0)
(1.92798 0.0114584 0)
(1.92896 0.0101432 0)
(1.92998 0.00832988 0)
(1.93116 0.00734444 0)
(1.93242 0.00658884 0)
(1.93334 0.00492446 0)
(1.93444 0.00306606 0)
(1.93564 0.00184297 0)
(1.93687 0.00096399 0)
(1.93769 -0.000585584 0)
(1.93812 -0.0029011 0)
(1.93903 -0.00438204 0)
(1.93957 -0.00613169 0)
(1.93935 -0.00896879 0)
(1.93929 -0.0112961 0)
(1.93873 -0.0136857 0)
(1.93801 -0.0160236 0)
(1.93689 -0.0184888 0)
(1.93532 -0.0211403 0)
(1.93381 -0.0229654 0)
(1.93186 -0.0248851 0)
(1.92919 -0.0273292 0)
(1.92589 -0.0293281 0)
(1.9215 -0.0307948 0)
(1.91565 -0.0328129 0)
(1.9092 -0.0340476 0)
(1.90425 -0.0333705 0)
(1.90148 -0.0348928 0)
(1.89936 -0.0372648 0)
(1.89829 -0.0379222 0)
(1.89848 -0.0386785 0)
(1.89907 -0.0395067 0)
(1.89998 -0.0402868 0)
(1.90142 -0.0412225 0)
(1.90304 -0.0419029 0)
(1.90513 -0.0425016 0)
(1.90766 -0.0436239 0)
(1.91031 -0.0442582 0)
(1.91309 -0.0449917 0)
(1.91583 -0.0449027 0)
(1.9182 -0.0451434 0)
(1.92061 -0.044496 0)
(1.92262 -0.0443832 0)
(1.92637 -0.0433194 0)
(1.98048 -0.0277017 0)
(1.98005 -0.0277604 0)
(1.98002 -0.0279058 0)
(1.98042 -0.0284959 0)
(1.98091 -0.0292712 0)
(1.98135 -0.029909 0)
(1.98172 -0.0303232 0)
(1.982 -0.0304953 0)
(1.98218 -0.0305569 0)
(1.98219 -0.0305713 0)
(1.98226 -0.0301151 0)
(1.98269 -0.0290921 0)
(1.98315 -0.0281717 0)
(1.98378 -0.0277575 0)
(1.98445 -0.0279475 0)
(1.98477 -0.0282821 0)
(1.98476 -0.0281955 0)
(1.98446 -0.0276047 0)
(1.98387 -0.0266942 0)
(1.98301 -0.025554 0)
(1.982 -0.0243967 0)
(1.98096 -0.0235527 0)
(1.97983 -0.022979 0)
(1.97889 -0.0225513 0)
(1.97848 -0.0224113 0)
(1.9778 -0.0220856 0)
(1.97709 -0.0216785 0)
(1.9763 -0.0210979 0)
(1.97557 -0.0203351 0)
(1.97498 -0.0193252 0)
(1.97443 -0.0180205 0)
(1.97387 -0.0169982 0)
(1.97338 -0.0167146 0)
(1.973 -0.0167023 0)
(1.9727 -0.016626 0)
(1.97235 -0.0165181 0)
(1.97195 -0.0165335 0)
(1.97154 -0.0165488 0)
(1.97117 -0.0163916 0)
(1.97078 -0.0162197 0)
(1.9706 -0.0161629 0)
(1.97024 -0.0160115 0)
(1.96975 -0.0156315 0)
(1.96931 -0.0152558 0)
(1.96875 -0.0149449 0)
(1.96813 -0.014416 0)
(1.96757 -0.0136166 0)
(1.96717 -0.0127107 0)
(1.96696 -0.0120277 0)
(1.96682 -0.0116292 0)
(1.96664 -0.0112533 0)
(1.96641 -0.0107959 0)
(1.96615 -0.0103958 0)
(1.96587 -0.0100642 0)
(1.96545 -0.00958183 0)
(1.96492 -0.00890211 0)
(1.96448 -0.00799368 0)
(1.96403 -0.00680025 0)
(1.96362 -0.00573282 0)
(1.96318 -0.0048503 0)
(1.96233 -0.0039824 0)
(1.96117 -0.0024038 0)
(1.96051 -8.36273e-05 0)
(1.95944 0.00252676 0)
(1.95734 0.00477785 0)
(1.95428 0.00800168 0)
(1.95129 0.0119242 0)
(1.94896 0.0140219 0)
(1.94471 0.0162808 0)
(1.93829 0.0186324 0)
(1.92885 0.0190485 0)
(1.9184 0.020591 0)
(1.91106 0.0242716 0)
(1.90693 0.0252643 0)
(1.90628 0.0253528 0)
(1.90623 0.0248619 0)
(1.90702 0.0244215 0)
(1.90792 0.0229539 0)
(1.90971 0.0206983 0)
(1.91238 0.0189519 0)
(1.91535 0.0166651 0)
(1.91766 0.0159663 0)
(1.92171 0.0151508 0)
(1.92456 0.0149673 0)
(1.92587 0.0143145 0)
(1.92696 0.0130875 0)
(1.92793 0.0119629 0)
(1.9289 0.0112484 0)
(1.92954 0.00997016 0)
(1.93016 0.00810877 0)
(1.93098 0.00645016 0)
(1.93194 0.00531607 0)
(1.93286 0.00407466 0)
(1.93375 0.00227759 0)
(1.93443 -0.000234816 0)
(1.93518 -0.00256148 0)
(1.93616 -0.00394102 0)
(1.93654 -0.00629238 0)
(1.93664 -0.00919197 0)
(1.93703 -0.0113065 0)
(1.93664 -0.0142951 0)
(1.93643 -0.017043 0)
(1.93617 -0.0190701 0)
(1.93489 -0.0222236 0)
(1.93391 -0.0248676 0)
(1.933 -0.0263822 0)
(1.93176 -0.0281746 0)
(1.93001 -0.0305287 0)
(1.92816 -0.0327746 0)
(1.92601 -0.0345439 0)
(1.92321 -0.0363778 0)
(1.91953 -0.0378384 0)
(1.91465 -0.0382222 0)
(1.90906 -0.0378881 0)
(1.90341 -0.0392795 0)
(1.89965 -0.0412904 0)
(1.89709 -0.040838 0)
(1.89635 -0.0397492 0)
(1.89715 -0.0397428 0)
(1.8978 -0.0400603 0)
(1.89899 -0.0406919 0)
(1.90051 -0.0417173 0)
(1.90228 -0.0427518 0)
(1.90444 -0.0431003 0)
(1.907 -0.0436577 0)
(1.90991 -0.0441028 0)
(1.91307 -0.0443024 0)
(1.9162 -0.0437589 0)
(1.91889 -0.0438887 0)
(1.92149 -0.0432328 0)
(1.92359 -0.0427486 0)
(1.92743 -0.0407527 0)
(1.97813 -0.0254499 0)
(1.97837 -0.0260213 0)
(1.97894 -0.0267377 0)
(1.97969 -0.0275468 0)
(1.98036 -0.0282671 0)
(1.98086 -0.0288124 0)
(1.98122 -0.0291186 0)
(1.98152 -0.0291924 0)
(1.98178 -0.0290937 0)
(1.982 -0.0288195 0)
(1.98219 -0.0283644 0)
(1.9825 -0.0278321 0)
(1.98307 -0.0274039 0)
(1.98376 -0.027188 0)
(1.98433 -0.0272943 0)
(1.9846 -0.0275136 0)
(1.98458 -0.0274102 0)
(1.98433 -0.0268823 0)
(1.98387 -0.0260832 0)
(1.98322 -0.0251485 0)
(1.98252 -0.024325 0)
(1.98185 -0.023768 0)
(1.98109 -0.0233855 0)
(1.98039 -0.0231183 0)
(1.98001 -0.0229863 0)
(1.97925 -0.0225768 0)
(1.97845 -0.0219966 0)
(1.97752 -0.0212337 0)
(1.97669 -0.0203517 0)
(1.97606 -0.0192192 0)
(1.9755 -0.017833 0)
(1.97491 -0.0171092 0)
(1.97458 -0.0170619 0)
(1.97434 -0.0172312 0)
(1.97405 -0.0174629 0)
(1.97366 -0.0175914 0)
(1.97318 -0.0176787 0)
(1.97267 -0.0177103 0)
(1.97226 -0.0175541 0)
(1.9719 -0.017241 0)
(1.97174 -0.0171011 0)
(1.97134 -0.0168196 0)
(1.97082 -0.0162706 0)
(1.97046 -0.0158395 0)
(1.96996 -0.0154634 0)
(1.96937 -0.0148241 0)
(1.96891 -0.0140198 0)
(1.96864 -0.0132721 0)
(1.96852 -0.0127492 0)
(1.96842 -0.0123689 0)
(1.96822 -0.0119409 0)
(1.96795 -0.0114891 0)
(1.96765 -0.0111052 0)
(1.96731 -0.0106893 0)
(1.96676 -0.0100354 0)
(1.9661 -0.00915953 0)
(1.96551 -0.0079813 0)
(1.96492 -0.00666552 0)
(1.96435 -0.00561105 0)
(1.96349 -0.0046989 0)
(1.96226 -0.00318801 0)
(1.96101 -0.000867263 0)
(1.96006 0.00171191 0)
(1.9589 0.00457762 0)
(1.95688 0.0072549 0)
(1.9538 0.0100286 0)
(1.95126 0.0130083 0)
(1.94959 0.0139385 0)
(1.9463 0.0154784 0)
(1.94097 0.0183032 0)
(1.93282 0.0186688 0)
(1.92165 0.0205964 0)
(1.91306 0.0243722 0)
(1.90766 0.025813 0)
(1.90642 0.0257615 0)
(1.90635 0.025169 0)
(1.90722 0.0239372 0)
(1.90827 0.021561 0)
(1.91015 0.0189206 0)
(1.91274 0.017409 0)
(1.91598 0.01569 0)
(1.91825 0.0146027 0)
(1.92226 0.0136505 0)
(1.92577 0.01333 0)
(1.92719 0.0124786 0)
(1.92831 0.0110456 0)
(1.92936 0.0101327 0)
(1.93017 0.00920111 0)
(1.93069 0.00754845 0)
(1.93096 0.00524823 0)
(1.93132 0.00291508 0)
(1.93176 0.000842612 0)
(1.93234 -0.00104489 0)
(1.93276 -0.0036271 0)
(1.93281 -0.00736937 0)
(1.93335 -0.00980038 0)
(1.93399 -0.0117472 0)
(1.93338 -0.0156599 0)
(1.9335 -0.0185009 0)
(1.93398 -0.0200411 0)
(1.93298 -0.0236216 0)
(1.93258 -0.0263454 0)
(1.93225 -0.0275729 0)
(1.93104 -0.0300135 0)
(1.93045 -0.0314611 0)
(1.92942 -0.0331725 0)
(1.92777 -0.0358589 0)
(1.92675 -0.0370743 0)
(1.9259 -0.037335 0)
(1.92409 -0.038919 0)
(1.92161 -0.0411209 0)
(1.91847 -0.0421753 0)
(1.91402 -0.0433628 0)
(1.90894 -0.043024 0)
(1.904 -0.0417948 0)
(1.89987 -0.0417753 0)
(1.89656 -0.0409583 0)
(1.89615 -0.0407401 0)
(1.89631 -0.0407545 0)
(1.89689 -0.0408125 0)
(1.89807 -0.0409377 0)
(1.8998 -0.0410668 0)
(1.90205 -0.0415692 0)
(1.90468 -0.0415943 0)
(1.90738 -0.0419678 0)
(1.91025 -0.0423484 0)
(1.91341 -0.0422846 0)
(1.91678 -0.0416542 0)
(1.92005 -0.0412001 0)
(1.92324 -0.0399997 0)
(1.92563 -0.03922 0)
(1.92978 -0.0365476 0)
(1.97646 -0.0239826 0)
(1.97721 -0.0248393 0)
(1.97792 -0.025733 0)
(1.97861 -0.0264657 0)
(1.97915 -0.0269878 0)
(1.97952 -0.0273405 0)
(1.97983 -0.0275231 0)
(1.98021 -0.0275749 0)
(1.98072 -0.027539 0)
(1.98132 -0.0273585 0)
(1.98198 -0.0271561 0)
(1.98264 -0.0269974 0)
(1.98325 -0.0268563 0)
(1.98382 -0.0265898 0)
(1.98418 -0.026502 0)
(1.98422 -0.0266893 0)
(1.98407 -0.026652 0)
(1.9839 -0.0262918 0)
(1.98371 -0.0257558 0)
(1.98346 -0.025169 0)
(1.98314 -0.0246587 0)
(1.98275 -0.0242239 0)
(1.98215 -0.0237905 0)
(1.98177 -0.0235544 0)
(1.98133 -0.0233198 0)
(1.9805 -0.0228243 0)
(1.97972 -0.0221358 0)
(1.9788 -0.021299 0)
(1.97794 -0.0203554 0)
(1.97732 -0.0192371 0)
(1.97674 -0.0180686 0)
(1.97624 -0.0177523 0)
(1.97596 -0.0178033 0)
(1.97573 -0.0181057 0)
(1.97536 -0.0185182 0)
(1.97489 -0.0188179 0)
(1.97434 -0.0188919 0)
(1.97382 -0.0187705 0)
(1.9734 -0.0185431 0)
(1.97302 -0.0181871 0)
(1.9729 -0.0179448 0)
(1.97247 -0.0175318 0)
(1.97201 -0.0168896 0)
(1.9717 -0.0164378 0)
(1.97127 -0.0159342 0)
(1.97078 -0.0152053 0)
(1.97042 -0.0144335 0)
(1.97021 -0.0138236 0)
(1.97011 -0.0134648 0)
(1.97004 -0.0131637 0)
(1.96987 -0.0127039 0)
(1.96957 -0.0122052 0)
(1.96918 -0.0117277 0)
(1.96862 -0.0110714 0)
(1.96792 -0.010196 0)
(1.96721 -0.00907958 0)
(1.96647 -0.00772877 0)
(1.96575 -0.00641331 0)
(1.96492 -0.00534426 0)
(1.96347 -0.00398951 0)
(1.96197 -0.00162457 0)
(1.96081 0.00112237 0)
(1.95964 0.00380035 0)
(1.95824 0.0065292 0)
(1.95623 0.00900183 0)
(1.95376 0.0112759 0)
(1.95186 0.0130969 0)
(1.95061 0.0136181 0)
(1.9481 0.0145703 0)
(1.94369 0.0171771 0)
(1.93659 0.0189859 0)
(1.92631 0.0196287 0)
(1.91552 0.0240619 0)
(1.90957 0.0263682 0)
(1.90683 0.0258402 0)
(1.907 0.0247562 0)
(1.90781 0.0227963 0)
(1.90901 0.0199595 0)
(1.91075 0.0171402 0)
(1.9131 0.0156341 0)
(1.91613 0.0142825 0)
(1.9191 0.0125929 0)
(1.92259 0.0116811 0)
(1.92629 0.0109495 0)
(1.92773 0.00947321 0)
(1.92902 0.00790314 0)
(1.92986 0.00632506 0)
(1.93039 0.00454422 0)
(1.93052 0.00190249 0)
(1.93052 -0.00102196 0)
(1.93034 -0.00414842 0)
(1.93003 -0.00773902 0)
(1.93031 -0.00998049 0)
(1.93019 -0.0132613 0)
(1.93002 -0.0172172 0)
(1.93037 -0.0194027 0)
(1.93 -0.022574 0)
(1.93006 -0.0253427 0)
(1.93058 -0.0266945 0)
(1.92981 -0.0295769 0)
(1.92932 -0.0327471 0)
(1.92924 -0.0333674 0)
(1.92872 -0.0344229 0)
(1.92758 -0.036564 0)
(1.927 -0.0378925 0)
(1.92642 -0.0380024 0)
(1.92602 -0.0385847 0)
(1.92487 -0.0399694 0)
(1.92338 -0.0419418 0)
(1.92213 -0.043736 0)
(1.92063 -0.0442797 0)
(1.91826 -0.0443968 0)
(1.91496 -0.0446416 0)
(1.91051 -0.0443515 0)
(1.90514 -0.0441744 0)
(1.89993 -0.0434765 0)
(1.89664 -0.0416641 0)
(1.89656 -0.0406695 0)
(1.89664 -0.0405626 0)
(1.89711 -0.0405542 0)
(1.89808 -0.0405241 0)
(1.89974 -0.0403367 0)
(1.90213 -0.0404283 0)
(1.90526 -0.0401865 0)
(1.90886 -0.0394263 0)
(1.91222 -0.0388748 0)
(1.91539 -0.0382402 0)
(1.9184 -0.0371499 0)
(1.92124 -0.0364917 0)
(1.92423 -0.0352103 0)
(1.92662 -0.0345907 0)
(1.93071 -0.0322813 0)
(1.97522 -0.022905 0)
(1.97603 -0.0236989 0)
(1.97674 -0.0245816 0)
(1.97746 -0.0252088 0)
(1.97812 -0.025527 0)
(1.97865 -0.0256505 0)
(1.97911 -0.0257904 0)
(1.97966 -0.0260653 0)
(1.98034 -0.0263428 0)
(1.9811 -0.0263939 0)
(1.98183 -0.0262781 0)
(1.98243 -0.026221 0)
(1.98289 -0.0261991 0)
(1.98323 -0.0259762 0)
(1.98347 -0.0256949 0)
(1.98353 -0.0256807 0)
(1.98347 -0.0258977 0)
(1.98348 -0.0258611 0)
(1.98359 -0.0257024 0)
(1.98368 -0.0253816 0)
(1.98368 -0.0249573 0)
(1.98343 -0.0245002 0)
(1.98299 -0.023914 0)
(1.98282 -0.023672 0)
(1.98237 -0.0232995 0)
(1.98163 -0.0228552 0)
(1.98094 -0.0222077 0)
(1.98017 -0.0214359 0)
(1.97942 -0.0205568 0)
(1.97887 -0.0195891 0)
(1.97828 -0.0188701 0)
(1.97782 -0.0187817 0)
(1.97746 -0.0188868 0)
(1.97708 -0.0192388 0)
(1.97656 -0.0196847 0)
(1.97604 -0.0200469 0)
(1.97551 -0.0200413 0)
(1.97499 -0.0197026 0)
(1.97448 -0.0193103 0)
(1.97414 -0.0189408 0)
(1.974 -0.0185974 0)