/*--------------------------------*- C++ -*----------------------------------*\
  =========                 |
  \\      /  F ield         | OpenFOAM: The Open Source CFD Toolbox
   \\    /   O peration     | Website:  https://openfoam.org
    \\  /    A nd           | Version:  7
     \\/     M anipulation  |
\*---------------------------------------------------------------------------*/
FoamFile
{
    version     2.0;
    format      ascii;
    class       volVectorField;
    location    "88";
    object      U;
}
// * * * * * * * * * * * * * * * * * * * * * * * * * * * * * * * * * * * * * //

dimensions      [0 1 -1 0 0 0 0];

internalField   nonuniform List<vector> 
41600
(
(-0.052455 0.176208 -2.76601e-20)
(-0.129696 0.28621 -3.845e-20)
(-0.179122 0.377234 1.6772e-23)
(-0.175488 0.421738 -3.42154e-20)
(-0.130253 0.373532 4.91927e-20)
(-0.0486384 0.198115 -1.08138e-19)
(0.0674602 -0.0499991 -1.4127e-20)
(0.188356 -0.291264 9.19446e-20)
(0.28608 -0.469491 -1.62417e-20)
(0.344034 -0.573373 -2.0594e-20)
(0.363885 -0.618551 -6.5617e-21)
(0.331543 -0.638962 1.73174e-20)
(0.266724 -0.617579 -9.37488e-21)
(0.276823 -0.463767 -9.62662e-21)
(0.380297 -0.194929 -9.7757e-21)
(0.509328 0.087706 2.32032e-21)
(0.611876 0.303335 4.81182e-22)
(0.668679 0.43777 -1.1949e-20)
(0.705118 0.492973 2.1561e-21)
(0.701673 0.517824 2.80048e-21)
(0.642231 0.546399 -1.29272e-20)
(0.576965 0.516276 1.23572e-20)
(0.583841 0.350512 -4.33077e-21)
(0.638849 0.0769918 1.43884e-21)
(0.714748 -0.167084 5.1774e-21)
(-0.0509468 0.182785 -1.28308e-19)
(-0.122701 0.291956 1.94875e-19)
(-0.165824 0.379557 -4.08302e-20)
(-0.156034 0.418261 1.87218e-20)
(-0.10409 0.364569 -1.4583e-19)
(-0.016246 0.183082 1.69107e-19)
(0.106073 -0.0693481 -2.52896e-20)
(0.230252 -0.310466 -1.20897e-19)
(0.327066 -0.483813 2.54942e-20)
(0.381414 -0.580546 -6.86565e-20)
(0.397666 -0.616312 9.43842e-21)
(0.367661 -0.626048 2.68631e-20)
(0.294714 -0.608345 2.51684e-20)
(0.278945 -0.477105 5.11204e-20)
(0.361885 -0.226766 1.76114e-20)
(0.480143 0.053422 1.91801e-20)
(0.579631 0.277246 2.69004e-21)
(0.642962 0.420576 3.72718e-20)
(0.687119 0.486273 2.83376e-21)
(0.683276 0.527712 -1.01285e-20)
(0.622938 0.566502 -1.26005e-20)
(0.566148 0.524332 -2.60379e-20)
(0.596549 0.338902 -1.43406e-20)
(0.666842 0.0548387 -1.19288e-21)
(0.743383 -0.191897 -1.16704e-20)
(-0.0495461 0.188679 2.76397e-20)
(-0.115377 0.297061 -6.57657e-20)
(-0.151629 0.381312 -9.15498e-20)
(-0.135136 0.414382 6.16315e-20)
(-0.0761511 0.355602 1.37872e-19)
(0.0182701 0.168436 -2.02741e-19)
(0.147354 -0.0877927 1.05928e-19)
(0.274735 -0.328175 6.21108e-21)
(0.37017 -0.496257 1.10605e-19)
(0.4207 -0.585831 1.20775e-19)
(0.432385 -0.613176 6.83654e-20)
(0.404548 -0.61199 2.3004e-21)
(0.328036 -0.594622 -8.4016e-22)
(0.288597 -0.484792 -4.69135e-20)
(0.350059 -0.255596 -4.73211e-20)
(0.4558 0.0195306 -2.50931e-20)
(0.551735 0.249019 3.50121e-21)
(0.621777 0.400236 -3.81868e-20)
(0.67143 0.478084 9.62664e-21)
(0.66576 0.536937 -1.37743e-20)
(0.606088 0.584643 1.42015e-20)
(0.560323 0.527246 5.09931e-20)
(0.614513 0.322385 4.23905e-20)
(0.70063 0.0326884 -1.41942e-20)
(0.778352 -0.213273 -1.2482e-20)
(-0.0482594 0.193871 -2.18039e-19)
(-0.107788 0.301497 2.99397e-20)
(-0.136658 0.382485 3.10559e-19)
(-0.112976 0.410125 -1.9571e-19)
(-0.0466727 0.346663 1.30124e-19)
(0.0547345 0.154215 5.53924e-19)
(0.191109 -0.105265 -2.84143e-19)
(0.321514 -0.344269 3.92301e-19)
(0.415053 -0.50674 1.60013e-19)
(0.461514 -0.589124 1.45483e-19)
(0.468029 -0.609018 3.02531e-20)
(0.4414 -0.597355 -1.0427e-19)
(0.3654 -0.577118 -5.15915e-20)
(0.30559 -0.48653 3.01831e-20)
(0.344927 -0.280663 4.16868e-20)
(0.436967 -0.0135532 3.26093e-21)
(0.529315 0.21881 -2.0743e-20)
(0.605468 0.377274 2.58098e-20)
(0.65785 0.468878 -6.79718e-20)
(0.64951 0.545235 -4.58946e-20)
(0.592257 0.600327 3.77087e-20)
(0.559773 0.525174 -1.20786e-20)
(0.63663 0.30118 1.96304e-20)
(0.738935 0.0101504 3.33138e-20)
(0.81864 -0.230858 1.30862e-20)
(-0.0470947 0.198332 2.7642e-20)
(-0.1 0.305234 -4.28433e-19)
(-0.121034 0.383065 3.58461e-19)
(-0.089736 0.405517 -4.57365e-20)
(-0.0158856 0.337727 -5.08645e-19)
(0.0929736 0.140456 -4.69874e-19)
(0.237102 -0.121704 1.30071e-19)
(0.370256 -0.358643 -3.48922e-19)
(0.461355 -0.515187 -1.83933e-19)
(0.503403 -0.590381 -2.34934e-19)
(0.504556 -0.603667 -1.74833e-20)
(0.477663 -0.582583 4.09132e-20)
(0.405352 -0.55674 7.73404e-20)
(0.329642 -0.482281 -4.47881e-20)
(0.346739 -0.301317 5.59346e-20)
(0.424426 -0.0452771 -4.68078e-20)
(0.513271 0.186995 -4.29244e-20)
(0.59398 0.352406 -2.15812e-20)
(0.646074 0.45905 -1.32117e-20)
(0.634933 0.552284 5.55418e-20)
(0.581938 0.613156 -6.73521e-20)
(0.565402 0.518707 3.64556e-20)
(0.663607 0.275932 -5.88062e-20)
(0.781288 -0.0129335 -4.33434e-20)
(0.863118 -0.244387 -2.96009e-21)
(-0.04606 0.202047 1.04716e-19)
(-0.0920808 0.308247 3.92104e-19)
(-0.104873 0.383037 -9.45019e-19)
(-0.0656023 0.400569 5.49405e-19)
(0.0159679 0.32879 3.13077e-19)
(0.132809 0.127161 -9.05525e-20)
(0.285062 -0.137057 3.88737e-19)
(0.420587 -0.371206 -4.41722e-20)
(0.508697 -0.521535 8.70279e-20)
(0.545902 -0.589616 2.33473e-19)
(0.541822 -0.596953 1.06003e-19)
(0.513054 -0.567942 -4.89177e-21)
(0.446368 -0.534541 -4.15016e-20)
(0.360224 -0.472299 1.33331e-19)
(0.355579 -0.317002 -3.03609e-20)
(0.418495 -0.0752885 6.75452e-20)
(0.503853 0.154144 2.79042e-20)
(0.586735 0.32643 6.77639e-20)
(0.635816 0.448866 1.56152e-20)
(0.622294 0.557721 -5.67696e-20)
(0.57544 0.622655 4.77719e-20)
(0.578973 0.508529 -7.54532e-20)
(0.697684 0.247742 -2.74345e-20)
(0.827756 -0.0363261 -8.0542e-20)
(0.91052 -0.253585 -1.66668e-20)
(-0.0451636 0.205004 -1.98702e-19)
(-0.0840956 0.310507 -5.37654e-19)
(-0.0882931 0.382383 3.58907e-19)
(-0.0407538 0.39526 -8.91794e-19)
(0.0486342 0.319876 -3.56956e-19)
(0.174051 0.114306 1.20396e-19)
(0.334692 -0.151279 -6.27504e-19)
(0.472104 -0.38189 3.32466e-19)
(0.556678 -0.525737 -2.04349e-19)
(0.58857 -0.586882 -8.35646e-20)
(0.579543 -0.588753 -8.81526e-20)
(0.547546 -0.553506 1.24265e-19)
(0.48701 -0.511621 -1.0627e-19)
(0.396386 -0.457152 -6.32818e-20)
(0.371217 -0.327201 -2.33013e-20)
(0.418682 -0.103318 -4.74857e-20)
(0.500478 0.120911 4.14776e-20)
(0.58266 0.300046 -2.10269e-20)
(0.626895 0.438455 1.06056e-20)
(0.611492 0.561143 5.8757e-20)
(0.572891 0.62801 4.93929e-20)
(0.602138 0.49488 -1.08993e-19)
(0.741006 0.218221 1.38806e-19)
(0.878214 -0.0590008 1.52432e-19)
(0.959287 -0.258128 -1.296e-20)
(-0.044415 0.207195 8.81611e-19)
(-0.0761121 0.31199 5.56011e-19)
(-0.071412 0.381085 1.83984e-19)
(-0.0153669 0.389578 9.59622e-19)
(0.0818627 0.310973 5.21738e-19)
(0.216496 0.101862 1.03327e-18)
(0.385671 -0.164332 -5.16602e-19)
(0.524385 -0.390648 1.0886e-19)
(0.604876 -0.527771 2.39317e-20)
(0.63102 -0.582251 -1.30222e-19)
(0.617303 -0.579031 -3.82971e-20)
(0.581281 -0.539176 -1.32624e-19)
(0.526095 -0.488998 1.26295e-19)
(0.436664 -0.437749 7.94636e-21)
(0.393325 -0.331416 -5.74565e-20)
(0.423927 -0.128835 -3.07218e-21)
(0.501777 0.0879327 -3.54473e-20)
(0.580362 0.273684 -2.08833e-20)
(0.619208 0.427818 6.9408e-20)
(0.602054 0.562122 5.75686e-20)
(0.574224 0.628001 1.11359e-20)
(0.635092 0.477314 1.51853e-19)
(0.793892 0.189053 3.09564e-20)
(0.931725 -0.0795096 9.49575e-21)
(1.00753 -0.257762 5.50779e-20)
(-0.0438239 0.208618 -7.70501e-19)
(-0.0681982 0.312678 4.11144e-19)
(-0.054345 0.379126 -3.56156e-20)
(0.0103728 0.383528 1.83661e-19)
(0.115406 0.302021 2.52839e-19)
(0.259948 0.0897935 -1.49925e-18)
(0.437665 -0.176188 8.23183e-19)
(0.577004 -0.397455 -8.96719e-19)
(0.652858 -0.527645 -1.93832e-19)
(0.67291 -0.575799 -1.93175e-19)
(0.654625 -0.567846 -2.4278e-19)
(0.614442 -0.524735 2.14259e-21)
(0.562848 -0.467455 -2.10685e-20)
(0.47915 -0.415343 -7.10766e-20)
(0.421519 -0.329262 1.04131e-19)
(0.433351 -0.1511 6.85395e-20)
(0.506048 0.0557824 -2.27272e-20)
(0.578455 0.247449 -2.63553e-20)
(0.61255 0.416828 -3.41568e-20)
(0.59346 0.560275 -1.05017e-19)
(0.579314 0.621281 -9.08784e-20)
(0.676336 0.454906 2.24198e-21)
(0.854427 0.16129 -2.63186e-19)
(0.986533 -0.096463 -4.03188e-20)
(1.05321 -0.252435 -1.5005e-19)
(-0.0434 0.209274 8.90804e-19)
(-0.0604206 0.312546 -1.16461e-18)
(-0.0372071 0.376487 -7.95283e-19)
(0.0362711 0.377111 -1.09393e-18)
(0.149022 0.292952 3.03055e-19)
(0.304218 0.0780576 2.46862e-19)
(0.49033 -0.186829 4.00715e-19)
(0.629533 -0.402304 7.48683e-20)
(0.700196 -0.5254 1.22468e-19)
(0.713931 -0.567602 -1.72848e-19)
(0.691051 -0.555334 2.38358e-19)
(0.647115 -0.509937 -3.03947e-20)
(0.596992 -0.447436 1.17116e-19)
(0.521744 -0.391442 -2.02486e-20)
(0.455168 -0.320733 2.01378e-20)
(0.446883 -0.169044 -1.00054e-19)
(0.511846 0.0250657 -1.09402e-20)
(0.575934 0.221243 -6.50114e-20)
(0.606424 0.405184 -3.93243e-20)
(0.585517 0.555312 -3.93436e-20)
(0.588583 0.60697 7.5246e-20)
(0.724074 0.426885 -5.02815e-20)
(0.919417 0.135422 5.75552e-20)
(1.0404 -0.108778 1.674e-20)
(1.09433 -0.242353 4.42536e-20)
(-0.0431554 0.209175 9.88124e-20)
(-0.0528432 0.311566 1.27398e-18)
(-0.02011 0.373154 -9.62887e-20)
(0.0621235 0.370315 4.89622e-19)
(0.182485 0.283689 -1.81549e-18)
(0.349137 0.0666079 -9.42291e-20)
(0.543325 -0.196243 -6.75045e-19)
(0.681553 -0.405212 5.2518e-19)
(0.746486 -0.521112 5.18001e-19)
(0.753784 -0.557744 3.99248e-20)
(0.726219 -0.541674 5.54225e-20)
(0.679197 -0.494604 -4.06354e-20)
(0.628717 -0.428996 -7.57856e-20)
(0.562522 -0.367604 -8.52421e-20)
(0.493095 -0.30647 -2.1707e-20)
(0.465247 -0.181365 3.18294e-20)
(0.518414 -0.00337175 8.50214e-20)
(0.572423 0.195023 1.04922e-20)
(0.599946 0.392376 3.87463e-20)
(0.578441 0.546883 6.13345e-20)
(0.603759 0.584938 -1.44507e-19)
(0.777637 0.393588 -2.69721e-20)
(0.985441 0.111909 1.25531e-19)
(1.09093 -0.115758 -1.28365e-19)
(1.12917 -0.227989 4.21772e-20)
(-0.0431037 0.208345 -2.07879e-18)
(-0.0455296 0.309711 -1.06754e-18)
(-0.00316114 0.369103 9.63975e-19)
(0.0877119 0.363117 -5.55975e-19)
(0.215601 0.274142 2.42439e-18)
(0.39456 0.0553974 -6.4841e-19)
(0.596311 -0.204424 1.33993e-18)
(0.732658 -0.406211 2.44298e-19)
(0.791356 -0.514878 -4.68775e-19)
(0.792178 -0.546331 4.06687e-19)
(0.759885 -0.527041 1.25779e-19)
(0.71041 -0.478683 -1.91427e-21)
(0.658506 -0.411867 -1.10656e-19)
(0.600102 -0.345154 5.94976e-20)
(0.533463 -0.287851 -6.57205e-20)
(0.489287 -0.186873 3.11618e-20)
(0.525877 -0.0283002 -2.97347e-20)
(0.568092 0.169073 1.83663e-20)
(0.591978 0.37776 -1.28628e-20)
(0.572682 0.534184 -1.06142e-20)
(0.627792 0.555626 7.40022e-20)
(0.837242 0.356358 2.61567e-20)
(1.0492 0.0913285 -7.80711e-21)
(1.13576 -0.117134 -5.43494e-20)
(1.15644 -0.210053 -2.30608e-20)
(-0.043258 0.206802 1.90452e-18)
(-0.0385438 0.306963 4.34846e-19)
(0.0135338 0.364316 -2.21326e-19)
(0.112802 0.355481 4.89421e-19)
(0.248225 0.264212 -2.05644e-18)
(0.440376 0.0443843 1.53429e-18)
(0.64896 -0.211372 -5.01032e-19)
(0.782463 -0.405357 -4.93954e-19)
(0.834476 -0.50682 -1.44678e-19)
(0.828847 -0.53349 -4.21081e-19)
(0.791903 -0.511588 -2.03409e-19)
(0.740394 -0.46226 1.27642e-19)
(0.686885 -0.3956 1.65734e-19)
(0.633875 -0.324939 1.75163e-19)
(0.574002 -0.266822 -3.73396e-20)
(0.519099 -0.184983 1.34473e-20)
(0.535228 -0.0481173 2.09962e-20)
(0.563326 0.144135 4.88692e-20)
(0.581566 0.360744 3.34989e-20)
(0.569251 0.51572 7.01982e-20)
(0.66345 0.519544 3.10402e-20)
(0.90211 0.317345 1.58314e-19)
(1.10739 0.0744653 -2.19653e-19)
(1.1727 -0.113064 2.62048e-19)
(1.1754 -0.189445 1.30081e-20)
(-0.043631 0.204571 -3.18503e-19)
(-0.0319474 0.303307 -7.14948e-19)
(0.02987 0.358778 -7.79845e-19)
(0.137145 0.347353 4.58449e-19)
(0.280283 0.253796 1.81819e-18)
(0.486504 0.0335387 -3.71281e-19)
(0.700956 -0.217087 -4.51149e-19)
(0.830613 -0.402722 -5.39597e-19)
(0.875559 -0.497073 -2.97255e-19)
(0.863559 -0.519375 -1.17516e-20)
(0.822183 -0.495436 -5.31898e-20)
(0.768838 -0.445505 -3.41866e-19)
(0.714179 -0.379762 -1.4529e-19)
(0.664038 -0.307187 1.32895e-20)
(0.612492 -0.24551 3.28955e-20)
(0.553567 -0.176136 -2.82448e-20)
(0.548053 -0.0609999 -2.45518e-20)
(0.558717 0.121467 -2.19849e-20)
(0.568816 0.340959 4.43203e-21)
(0.570957 0.489898 -4.11553e-20)
(0.712255 0.477261 -7.0038e-20)
(0.969321 0.279213 -2.93203e-19)
(1.15673 0.0619832 1.2882e-19)
(1.19998 -0.104186 -1.06085e-19)
(1.18601 -0.167206 4.3667e-20)
(-0.0442356 0.201683 9.39124e-19)
(-0.0257978 0.298726 6.53812e-19)
(0.0457416 0.35248 9.51141e-19)
(0.160478 0.338657 -7.34962e-19)
(0.311798 0.242798 -2.22843e-18)
(0.532895 0.0228487 -1.48255e-18)
(0.751993 -0.22157 4.39459e-19)
(0.876782 -0.398394 6.05177e-20)
(0.91436 -0.485789 1.07178e-18)
(0.896139 -0.504153 3.01041e-19)
(0.850651 -0.478702 1.37613e-19)
(0.795572 -0.428603 3.4811e-19)
(0.740413 -0.364093 -7.55778e-20)
(0.691358 -0.291571 -7.53029e-20)
(0.64733 -0.225728 2.686e-20)
(0.590522 -0.161942 1.57802e-20)
(0.56597 -0.0654018 7.03106e-21)
(0.555897 0.1029 7.1725e-21)
(0.556516 0.318417 -8.03548e-21)
(0.583751 0.456141 9.82942e-21)
(0.774062 0.430318 4.87611e-20)
(1.03429 0.243814 2.83669e-19)
(1.19436 0.0540523 -2.09969e-19)
(1.21653 -0.0915836 7.63997e-20)
(1.18893 -0.144425 -8.91337e-20)
(-0.0450848 0.198174 -1.3885e-18)
(-0.0201474 0.293208 8.42432e-19)
(0.0610394 0.345415 1.02721e-18)
(0.182545 0.329286 5.27014e-20)
(0.342912 0.231137 7.0631e-19)
(0.579516 0.0123271 5.51825e-19)
(0.801779 -0.224822 -1.40267e-18)
(0.920685 -0.392475 7.28112e-19)
(0.950684 -0.473132 -9.33079e-19)
(0.926463 -0.487998 -2.38443e-19)
(0.87724 -0.461502 8.06191e-21)
(0.820565 -0.411694 2.03578e-19)
(0.765402 -0.348546 2.05783e-19)
(0.716745 -0.277448 -2.78469e-20)
(0.677936 -0.208563 2.8253e-20)
(0.627349 -0.144912 2.16152e-21)
(0.589908 -0.0609598 -5.40013e-21)
(0.558678 0.0905793 -2.14104e-21)
(0.552072 0.293883 6.75898e-21)
(0.615889 0.415875 2.12335e-21)
(0.846085 0.381702 -5.98855e-20)
(1.09155 0.212654 6.65022e-20)
(1.21847 0.050428 2.37769e-19)
(1.22232 -0.0766548 1.10318e-19)
(1.18542 -0.12213 -6.67155e-20)
(-0.046191 0.194086 7.4054e-19)
(-0.0150425 0.286742 -7.76482e-19)
(0.0756453 0.337581 -1.64023e-18)
(0.203121 0.319109 1.24061e-19)
(0.373903 0.218764 6.83396e-19)
(0.626338 0.0020158 -3.41922e-19)
(0.85003 -0.226843 2.2966e-19)
(0.962077 -0.385081 4.60688e-19)
(0.984382 -0.459275 -2.66264e-19)
(0.954462 -0.471086 1.10643e-18)
(0.901908 -0.443966 -3.92737e-20)
(0.843867 -0.394868 -1.30129e-19)
(0.788938 -0.333225 -1.37818e-19)
(0.740835 -0.264196 -3.03419e-21)
(0.704769 -0.194191 -3.74742e-20)
(0.661789 -0.127791 -4.01916e-21)
(0.619483 -0.0493228 1.99309e-21)
(0.5727 0.0859988 -1.75181e-21)
(0.566917 0.269384 2.54511e-20)
(0.672994 0.372798 -9.02159e-21)
(0.921831 0.335263 -6.18364e-20)
(1.13567 0.18699 6.24305e-20)
(1.22845 0.0502931 -1.03448e-19)
(1.21843 -0.0609365 -1.9382e-21)
(1.17711 -0.101195 1.29437e-19)
(-0.0475662 0.189467 -1.0054e-18)
(-0.0105218 0.279325 3.60076e-19)
(0.0894285 0.328973 6.94818e-19)
(0.222055 0.307973 -1.77907e-19)
(0.405186 0.205676 6.28057e-19)
(0.673306 -0.00801102 1.35196e-18)
(0.896475 -0.227637 1.77593e-19)
(1.00075 -0.376339 -9.01833e-19)
(1.01536 -0.444397 8.13166e-19)
(0.980109 -0.453587 -9.23841e-19)
(0.924645 -0.426227 -1.71101e-19)
(0.865543 -0.378182 -1.51262e-19)
(0.810937 -0.31826 2.13914e-20)
(0.763828 -0.251456 1.04893e-20)
(0.728903 -0.182059 6.57249e-21)
(0.692619 -0.112694 2.00882e-23)
(0.65282 -0.0341133 5.74956e-22)
(0.602438 0.0881583 -7.96679e-21)
(0.609815 0.247567 -7.67547e-20)
(0.751049 0.331617 -2.38246e-20)
(0.991054 0.29418 8.23897e-21)
(1.16257 0.166824 -4.95291e-20)
(1.22527 0.0523237 -4.46437e-20)
(1.20695 -0.0458506 -8.6259e-20)
(1.16568 -0.0822653 -8.11567e-20)
(-0.049221 0.184366 6.49501e-19)
(-0.00661518 0.270963 7.57543e-19)
(0.102241 0.319579 -3.91127e-19)
(0.23933 0.295719 6.25055e-20)
(0.437292 0.191932 9.37521e-19)
(0.720324 -0.0176479 6.83756e-19)
(0.940851 -0.227213 1.93546e-18)
(1.03656 -0.366385 6.97568e-19)
(1.04356 -0.428679 -1.00072e-19)
(1.00342 -0.435665 3.29966e-19)
(0.945482 -0.40841 5.08054e-19)
(0.88565 -0.361692 3.92062e-20)
(0.83145 -0.303724 2.3726e-20)
(0.785634 -0.239154 3.31925e-20)
(0.751377 -0.171382 -2.34705e-20)
(0.719908 -0.100521 1.44842e-22)
(0.687098 -0.0196234 1.72674e-20)
(0.646924 0.0932671 7.19618e-20)
(0.677361 0.229547 3.08776e-20)
(0.834479 0.295145 -2.21866e-20)
(1.04285 0.259414 1.14671e-20)
(1.17111 0.150951 9.14337e-20)
(1.21158 0.0549647 -8.38391e-20)
(1.19062 -0.0324692 1.45623e-20)
(1.15265 -0.0657145 1.97241e-20)
(-0.051165 0.178839 -1.02604e-19)
(-0.00334315 0.261672 -1.68229e-18)
(0.113924 0.309371 4.33679e-19)
(0.255133 0.282213 4.70392e-19)
(0.470815 0.177656 -2.14913e-18)
(0.767226 -0.0267626 6.04093e-19)
(0.982913 -0.225589 -2.4552e-19)
(1.06939 -0.355362 1.21792e-18)
(1.069 -0.4123 -5.32954e-19)
(1.02444 -0.417478 -1.09908e-18)
(0.964483 -0.390631 -1.65345e-21)
(0.904241 -0.345461 -1.15905e-19)
(0.85059 -0.289634 -1.1408e-19)
(0.806137 -0.227356 -4.79072e-20)
(0.772758 -0.161597 1.85217e-21)
(0.744629 -0.0910629 1.07697e-21)
(0.720053 -0.00892065 -6.4259e-21)
(0.698854 0.0966576 -4.37519e-20)
(0.752499 0.213054 -2.37033e-20)
(0.903834 0.262659 7.34932e-20)
(1.07107 0.229599 -3.85766e-21)
(1.16404 0.137513 -6.93284e-20)
(1.19131 0.0568902 4.08215e-20)
(1.17221 -0.0213479 1.18494e-20)
(1.13913 -0.0516479 -5.39851e-20)
(-0.0534062 0.172943 -1.08966e-18)
(-0.000716247 0.251479 5.76083e-19)
(0.124318 0.298292 1.62656e-19)
(0.269914 0.267388 -4.55233e-19)
(0.50634 0.163036 1.88681e-18)
(0.813766 -0.0352055 -1.55098e-18)
(1.02243 -0.222796 -1.7484e-18)
(1.09918 -0.343421 -9.07299e-19)
(1.09171 -0.395433 6.39968e-19)
(1.04325 -0.399172 9.2467e-19)
(0.98173 -0.37299 1.1923e-19)
(0.921384 -0.329546 3.31725e-19)
(0.86846 -0.275989 1.8187e-19)
(0.825339 -0.216118 1.4815e-20)
(0.793164 -0.152513 3.03342e-21)
(0.767819 -0.0836511 -7.48492e-21)
(0.750801 -0.00287733 -5.31467e-20)
(0.748782 0.0951001 -8.04994e-20)
(0.816024 0.194498 -5.16343e-20)
(0.947894 0.231843 -5.10645e-20)
(1.07779 0.202698 -6.28306e-22)
(1.14729 0.125028 4.37302e-20)
(1.16861 0.05741 5.15994e-20)
(1.15384 -0.0125371 -1.58111e-20)
(1.12588 -0.0399507 5.18738e-20)
(-0.055951 0.166739 7.34834e-19)
(0.00126453 0.240429 1.65318e-19)
(0.133296 0.286258 1.13156e-19)
(0.284433 0.251283 -1.2565e-18)
(0.544344 0.148308 -3.39003e-18)
(0.859622 -0.0428218 -7.17367e-21)
(1.05921 -0.218882 2.45714e-18)
(1.12592 -0.330716 -7.0412e-19)
(1.11178 -0.378242 1.06769e-18)
(1.05995 -0.38088 6.01087e-20)
(0.997321 -0.355577 -3.76402e-19)
(0.937163 -0.314 -4.72742e-19)
(0.885137 -0.262792 -1.73779e-19)
(0.843332 -0.205439 1.72428e-20)
(0.812544 -0.144137 3.39156e-20)
(0.789972 -0.0777373 1.94736e-21)
(0.779165 -0.000652837 -1.32987e-20)
(0.790441 0.0883649 4.08154e-20)
(0.859447 0.172795 7.7779e-20)
(0.968839 0.201776 5.81072e-21)
(1.07131 0.177766 8.95576e-21)
(1.12722 0.11295 7.36943e-21)
(1.14659 0.056495 -6.5095e-20)
(1.13675 -0.00576389 -6.61686e-20)
(1.11333 -0.0303721 2.75399e-21)
(-0.0588036 0.16029 -7.95223e-19)
(0.00260793 0.228579 1.09713e-18)
(0.140812 0.273154 2.89403e-19)
(0.299751 0.234085 7.27561e-19)
(0.585096 0.133737 1.61312e-18)
(0.9044 -0.0494666 -8.24254e-19)
(1.0931 -0.213912 -1.51893e-18)
(1.14963 -0.317399 1.00513e-18)
(1.12931 -0.36088 -1.18311e-18)
(1.07468 -0.362722 -4.97728e-19)
(1.01137 -0.338471 4.6896e-20)
(0.951669 -0.29886 3.61639e-19)
(0.900688 -0.250051 2.11418e-19)
(0.860218 -0.19529 -6.03104e-20)
(0.830876 -0.136485 5.80326e-21)
(0.811049 -0.0730137 3.62121e-21)
(0.804909 -0.000890353 -5.44909e-20)
(0.822734 0.0784154 -1.15727e-20)
(0.886224 0.149761 5.76393e-20)
(0.976356 0.173478 -2.5626e-20)
(1.06018 0.154987 -1.1837e-20)
(1.10809 0.101395 1.21672e-20)
(1.12681 0.0544749 3.83816e-20)
(1.12136 -0.000656946 6.1918e-20)
(1.10171 -0.022606 -2.88639e-20)
(-0.0619662 0.153659 1.83842e-18)
(0.00333411 0.215997 6.08579e-19)
(0.146968 0.258861 1.06224e-19)
(0.317161 0.216151 2.44702e-18)
(0.628587 0.119594 6.13475e-19)
(0.947671 -0.05502 -1.0717e-18)
(1.12396 -0.207973 -2.24921e-18)
(1.1704 -0.303623 -2.10691e-18)
(1.14446 -0.343489 -4.62514e-19)
(1.08758 -0.3448 -3.10074e-19)
(1.02398 -0.321736 1.00994e-19)
(0.964993 -0.284157 1.86805e-19)
(0.915182 -0.237773 -6.77017e-20)
(0.876074 -0.185643 2.37565e-19)
(0.84818 -0.129511 -1.11905e-19)
(0.830827 -0.0692715 -1.82274e-21)
(0.827879 -0.00252987 3.85948e-20)
(0.847863 0.0674469 -4.01957e-20)
(0.903672 0.127836 -7.43199e-20)
(0.978831 0.148204 6.13191e-20)
(1.04928 0.134698 1.80205e-20)
(1.0915 0.0906031 -2.45493e-20)
(1.10963 0.0517199 -4.58801e-21)
(1.10766 0.00312195 -2.84191e-20)
(1.09114 -0.0163508 7.33993e-21)
(-0.0654382 0.146909 -7.66007e-19)
(0.00347956 0.202762 -2.67693e-18)
(0.152081 0.243282 -1.28383e-18)
(0.338042 0.197985 -2.85027e-18)
(0.674494 0.106128 2.99629e-19)
(0.989 -0.0593992 -2.42219e-19)
(1.15174 -0.201166 -3.27327e-19)
(1.18835 -0.289534 1.72204e-18)
(1.15739 -0.326193 8.81229e-20)
(1.09878 -0.327202 -3.04604e-19)
(1.03528 -0.305424 -1.88764e-19)
(0.977227 -0.269912 -3.63264e-19)
(0.928687 -0.225958 -2.99879e-19)
(0.890958 -0.176474 -1.17149e-19)
(0.864477 -0.123137 -1.80448e-21)
(0.84918 -0.066305 3.18217e-21)
(0.848266 -0.00490441 -2.6462e-20)
(0.868338 0.056804 -3.30872e-20)
(0.916771 0.108304 3.4056e-20)
(0.980203 0.126349 -3.88248e-20)
(1.0401 0.116897 -1.76551e-20)
(1.0776 0.0806886 8.31024e-21)
(1.09489 0.0485176 -3.7922e-21)
(1.09555 0.00584956 1.99261e-22)
(1.08163 -0.0113403 4.25309e-20)
(-0.0692163 0.140105 -1.72685e-19)
(0.00310701 0.188952 -1.59971e-18)
(0.156749 0.226402 1.5134e-19)
(0.363654 0.180182 1.75406e-18)
(0.72221 0.0935604 -9.42137e-19)
(1.02798 -0.0625662 2.57588e-18)
(1.17642 -0.193604 -1.74814e-18)
(1.20363 -0.275268 -6.51576e-19)
(1.16827 -0.309101 1.02052e-18)
(1.10845 -0.310002 9.2801e-19)
(1.04538 -0.289576 4.25484e-20)
(0.988456 -0.25614 1.6302e-19)
(0.941269 -0.214602 7.90181e-20)
(0.904919 -0.167757 -1.44857e-19)
(0.879783 -0.117277 -1.43337e-19)
(0.866122 -0.0639134 -1.95541e-21)
(0.866436 -0.00760391 9.61987e-21)
(0.885683 0.0470143 2.92e-20)
(0.927611 0.0913501 -4.43534e-20)
(0.98157 0.107646 1.76595e-20)
(1.03271 0.101343 1.02189e-20)
(1.06605 0.0716652 5.68006e-21)
(1.08232 0.0450752 -3.00934e-21)
(1.08486 0.00775119 1.78226e-20)
(1.07313 -0.00734997 5.0461e-21)
(-0.0732938 0.133306 2.86691e-18)
(0.00232127 0.174639 3.79408e-18)
(0.161885 0.208343 1.08188e-18)
(0.394911 0.163336 5.41031e-19)
(0.770909 0.082071 2.38091e-18)
(1.06428 -0.0645282 -1.25825e-19)
(1.19806 -0.185409 9.47521e-19)
(1.21641 -0.26095 -1.33374e-19)
(1.17729 -0.292305 -1.00115e-18)
(1.11674 -0.293256 -2.68081e-19)
(1.0544 -0.274222 -1.87521e-19)
(0.998763 -0.242849 5.64759e-19)
(0.952988 -0.203696 1.71477e-19)
(0.918003 -0.159464 7.33899e-20)
(0.89412 -0.111852 1.70579e-20)
(0.881736 -0.0619274 8.2195e-21)
(0.88272 -0.010373 4.63323e-21)
(0.900674 0.0382018 2.63235e-20)
(0.936952 0.0767222 2.02375e-20)
(0.983099 0.091645 -4.16316e-21)
(1.02683 0.087749 -1.93553e-20)
(1.05652 0.063506 1.93946e-23)
(1.07162 0.0415416 8.66027e-21)
(1.07548 0.00901163 -5.02654e-20)
(1.06559 -0.00419532 -3.11346e-20)
(-0.0776603 0.12657 -3.10408e-18)
(0.00129037 0.159889 -3.15694e-18)
(0.1687 0.189422 -2.60441e-18)
(0.432193 0.147931 -4.33799e-19)
(0.819654 0.0717984 -3.71273e-18)
(1.09763 -0.0653343 -2.2537e-19)
(1.21675 -0.176708 -9.96824e-19)
(1.22689 -0.24669 4.43628e-20)
(1.18463 -0.275882 1.03141e-18)
(1.12379 -0.277009 3.75209e-20)
(1.06245 -0.259381 2.97651e-19)
(1.00822 -0.230042 -5.41885e-19)
(0.963902 -0.193228 -1.64589e-19)
(0.930251 -0.151564 -3.28184e-20)
(0.907522 -0.106794 8.84663e-20)
(0.896118 -0.0602166 -1.39929e-20)
(0.897374 -0.0130521 5.41957e-21)
(0.913782 0.0303558 -4.62978e-20)
(0.945164 0.0641083 1.66238e-20)
(0.984772 0.0779317 -7.55676e-21)
(1.02222 0.0758619 1.01892e-20)
(1.04867 0.0561665 -8.66885e-21)
(1.06254 0.0380227 -2.72036e-20)
(1.06727 0.00978127 4.34773e-20)
(1.05892 -0.00172448 -4.82611e-20)
(-0.0823 0.119948 1.92596e-18)
(0.000269241 0.144759 2.0146e-18)
(0.178615 0.170174 1.30804e-19)
(0.475249 0.134265 -3.53286e-19)
(0.867502 0.0628347 1.87865e-18)
(1.12787 -0.0650667 1.66452e-18)
(1.23262 -0.167621 1.84423e-18)
(1.23528 -0.232587 4.56737e-19)
(1.19049 -0.25989 -4.61983e-19)
(1.12974 -0.261292 4.24088e-19)
(1.06961 -0.245066 -5.97058e-20)
(1.01691 -0.217714 3.42129e-19)
(0.97406 -0.183182 -1.46904e-19)
(0.941704 -0.144029 3.44154e-20)
(0.920024 -0.102041 5.78481e-21)
(0.909362 -0.0586824 9.52358e-21)
(0.910605 -0.0155417 -5.56769e-21)
(0.925346 0.0234252 2.98664e-20)
(0.952484 0.0532307 -1.22078e-20)
(0.986551 0.0661567 2.9429e-20)
(1.01867 0.0654631 2.97556e-21)
(1.04222 0.0495921 -1.17394e-22)
(1.05483 0.0345926 -6.61323e-23)
(1.06011 0.0101819 1.80242e-20)
(1.05305 0.000188798 5.80548e-20)
(-0.0871911 0.113482 7.89662e-19)
(-0.000378407 0.129309 -1.74683e-18)
(0.193105 0.151331 1.12935e-18)
(0.523236 0.122421 -5.43364e-19)
(0.9136 0.0552225 9.4493e-19)
(1.15495 -0.0638309 -2.63368e-19)
(1.24587 -0.158265 -1.40628e-18)
(1.2418 -0.218719 5.58149e-20)
(1.19504 -0.244377 -9.75324e-20)
(1.13473 -0.246126 -8.4583e-21)
(1.07599 -0.23128 2.74123e-19)
(1.02488 -0.205859 -2.93241e-19)
(0.983511 -0.173543 1.75213e-19)
(0.952401 -0.13683 2.7421e-20)
(0.931669 -0.097541 7.68089e-20)
(0.921555 -0.0572509 2.67588e-20)
(0.922583 -0.0177815 1.10892e-21)
(0.935628 0.0173448 -4.1553e-21)
(0.959078 0.0438527 -1.62069e-20)
(0.988397 0.0560291 -9.89999e-21)
(1.01599 0.0563664 -1.96771e-21)
(1.03694 0.0437232 4.2736e-21)
(1.04832 0.0313024 1.43835e-20)
(1.05389 0.0103115 -8.39283e-21)
(1.04789 0.00164994 -4.14126e-20)
(-0.0923032 0.107199 -1.19203e-18)
(-0.000165579 0.113614 4.03637e-19)
(0.213488 0.133739 2.26345e-18)
(0.57487 0.112304 2.18046e-18)
(0.957253 0.0489554 -1.45692e-18)
(1.17888 -0.0617451 -1.35628e-18)
(1.25668 -0.148743 -1.06061e-19)
(1.24665 -0.205152 -3.23313e-19)
(1.19845 -0.229374 7.26453e-19)
(1.13887 -0.231521 5.86808e-20)
(1.08167 -0.218022 1.77339e-19)
(1.0322 -0.194468 8.63597e-20)
(0.992297 -0.164292 4.83941e-20)
(0.96238 -0.12994 -2.09962e-19)
(0.9425 -0.0932506 -1.01566e-19)
(0.93278 -0.0558666 -8.82669e-20)
(0.933454 -0.0197374 -1.58985e-20)
(0.944831 0.0120452 -4.63625e-21)
(0.965062 0.0357745 1.23282e-20)
(0.990284 0.0473076 2.34587e-21)
(1.01405 0.0484133 -1.3322e-22)
(1.03262 0.0384987 -8.17708e-21)
(1.04284 0.0281872 2.25046e-21)
(1.04851 0.0102486 -4.687e-21)
(1.04337 0.00274652 -2.42968e-21)
(-0.0975953 0.101112 -1.44506e-18)
(0.00152003 0.0977924 9.29676e-19)
(0.240687 0.118216 -6.07257e-20)
(0.628652 0.10372 -1.14776e-18)
(0.997954 0.0439832 1.09947e-18)
(1.19976 -0.0589319 9.10408e-19)
(1.26529 -0.139148 -3.19602e-19)
(1.25004 -0.191938 -7.4488e-19)
(1.20086 -0.214901 -2.44291e-19)
(1.14228 -0.217482 -1.03556e-18)
(1.08672 -0.205285 -6.71128e-19)
(1.03891 -0.183526 9.19152e-20)
(1.00046 -0.155412 1.95996e-19)
(0.971678 -0.123333 1.36531e-19)
(0.952561 -0.0891333 -1.05912e-19)
(0.943116 -0.0544887 5.16018e-20)
(0.943342 -0.021394 5.86425e-21)
(0.953119 0.00745755 -4.62525e-21)
(0.970528 0.0288271 -3.92424e-21)
(0.992196 0.0397913 -1.25339e-21)
(1.0127 0.0414679 -1.78987e-21)
(1.02909 0.0338583 8.06847e-21)
(1.03827 0.0252711 -5.53806e-21)
(1.04385 0.0100549 2.96112e-20)
(1.03943 0.00355018 -2.67674e-20)
(-0.103013 0.0952106 5.6164e-19)
(0.00540147 0.0820407 -2.15854e-18)
(0.275038 0.105392 -2.14927e-18)
(0.683083 0.0964574 -1.43949e-18)
(1.03539 0.0402236 1.63765e-18)
(1.21773 -0.0555099 -1.10302e-18)
(1.27191 -0.129559 1.48914e-18)
(1.25216 -0.179114 8.5391e-19)
(1.20244 -0.20097 -2.04041e-19)
(1.14504 -0.204004 1.65007e-19)
(1.0912 -0.193058 4.15585e-19)
(1.04507 -0.17302 -5.79053e-20)
(1.00803 -0.146883 -5.57588e-20)
(0.98033 -0.116987 -2.22243e-20)
(0.961897 -0.0851594 4.06763e-20)
(0.952632 -0.0530876 -8.54151e-20)
(0.952353 -0.0227482 -3.26888e-20)
(0.960619 0.00351637 1.40799e-20)
(0.975543 0.0228672 -2.03221e-21)
(0.994119 0.0333124 -2.76534e-21)
(1.01184 0.0354128 7.21453e-21)
(1.02622 0.0297458 -6.1296e-21)
(1.03448 0.0225699 -2.32324e-20)
(1.03983 0.009777 -2.50396e-20)
(1.036 0.00411933 4.53126e-20)
(-0.108483 0.0894591 6.75413e-20)
(0.0122787 0.066661 6.22284e-19)
(0.316203 0.0955783 6.8151e-19)
(0.736837 0.0903429 2.36798e-18)
(1.06941 0.0375745 -2.55999e-18)
(1.233 -0.0515901 8.29557e-19)
(1.27677 -0.120041 -9.09248e-19)
(1.25319 -0.166706 2.23734e-19)
(1.2033 -0.187584 -4.58662e-19)
(1.14726 -0.191078 -2.81411e-19)
(1.09518 -0.181326 -3.60556e-19)
(1.05072 -0.162934 -1.40116e-19)
(1.01505 -0.138689 1.45686e-19)
(0.988369 -0.110879 -1.19301e-19)
(0.970549 -0.0813045 -8.68827e-20)
(0.961394 -0.0516423 1.47722e-19)
(0.96058 -0.0238058 8.45266e-20)
(0.967438 0.00016048 -5.64032e-21)
(0.980165 0.0177729 1.90327e-21)
(0.996046 0.0277301 2.84853e-21)
(1.01136 0.0301462 -6.62087e-21)
(1.0239 0.0261096 1.25991e-20)
(1.03138 0.0200931 1.61939e-20)
(1.03633 0.00944942 -2.85068e-20)
(1.03304 0.00450412 -3.91746e-20)
(-0.113915 0.0837959 6.62129e-19)
(0.0229749 0.0520795 1.27216e-18)
(0.363214 0.0887144 -2.05743e-18)
(0.788844 0.0852578 -1.35304e-18)
(1.10002 0.035925 1.25212e-18)
(1.24576 -0.0472719 1.07129e-18)
(1.28008 -0.110646 1.29407e-18)
(1.25331 -0.154729 -7.36854e-19)
(1.20355 -0.174736 3.61121e-19)
(1.149 -0.178691 1.94131e-19)
(1.09871 -0.170075 -5.38355e-20)
(1.05588 -0.15325 -4.11293e-19)
(1.02155 -0.13081 -5.2852e-19)
(0.99583 -0.10499 -1.76558e-19)
(0.97856 -0.0775491 2.22476e-19)
(0.969463 -0.0501387 -2.22821e-20)
(0.968104 -0.0245783 3.99661e-21)
(0.973659 -0.0026662 1.55357e-20)
(0.984438 0.013439 -1.19377e-22)
(0.997966 0.0229254 8.61367e-21)
(1.0112 0.0255804 -1.2563e-20)
(1.02206 0.0229032 1.06852e-20)
(1.02886 0.0178423 3.89638e-20)
(1.03328 0.00909877 2.85186e-20)
(1.03052 0.00475332 1.28452e-21)
(-0.119198 0.0781355 -1.83169e-18)
(0.038265 0.038832 -1.16403e-18)
(0.414651 0.0844177 1.2433e-18)
(0.83832 0.0811225 -1.08782e-18)
(1.1273 0.0351628 6.65395e-19)
(1.25626 -0.0426426 -1.97801e-18)
(1.28205 -0.101413 -1.39133e-18)
(1.25265 -0.143192 -2.45974e-20)
(1.2033 -0.162418 3.32835e-19)
(1.15032 -0.166827 -1.23499e-19)
(1.10183 -0.159286 3.90138e-19)
(1.06061 -0.143952 2.28197e-19)
(1.02755 -0.12323 3.38438e-19)
(1.00274 -0.0993039 -1.85137e-19)
(0.985971 -0.0738774 -9.42818e-20)