/*--------------------------------*- C++ -*----------------------------------*\
  =========                 |
  \\      /  F ield         | OpenFOAM: The Open Source CFD Toolbox
   \\    /   O peration     | Website:  https://openfoam.org
    \\  /    A nd           | Version:  7
     \\/     M anipulation  |
\*---------------------------------------------------------------------------*/
FoamFile
{
    version     2.0;
    format      ascii;
    class       surfaceScalarField;
    location    "93";
    object      phi;
}
// * * * * * * * * * * * * * * * * * * * * * * * * * * * * * * * * * * * * * //

dimensions      [0 3 -1 0 0 0 0];

internalField   nonuniform List<scalar> 
30080
(
-0.00012456
-0.0142137
0.0143382
0.000909592
-0.00188658
0.000852425
0.00178497
0.0132914
-0.0141668
0.00234479
0.0183166
-0.0188764
0.00233492
0.0217349
-0.0217251
0.00373469
0.0164116
-0.0178114
0.00595343
5.69446e-05
-0.00227569
0.00814811
-0.0127867
0.010592
0.00954691
-0.019015
0.0176162
0.00974718
-0.0235459
0.0233456
0.0107135
-0.0247561
0.0237899
0.01297
-0.0166655
0.014409
0.0154323
-0.00086564
-0.0015967
0.0169855
0.0136738
-0.015227
0.0262124
-0.0276202
0.0183933
-0.000212596
-0.0140011
0.00076357
-0.00286274
0.00168661
0.0123683
0.00225595
0.0177473
0.00238915
0.0216017
0.00418795
0.0146128
0.00648147
-0.00223657
0.00845181
-0.014757
0.00974978
-0.0203129
0.0098347
-0.0236308
0.0105022
-0.0254236
0.0126808
-0.0188441
0.0147614
-0.00294626
0.0162473
0.0121879
0.0240131
0.0184466
-0.000299071
-0.013702
0.000625364
-0.00378718
0.00159286
0.0114008
0.00216892
0.0171712
0.00249786
0.0212728
0.00466367
0.012447
0.0070318
-0.00460471
0.00876799
-0.0164932
0.00991143
-0.0214564
0.0099753
-0.0236947
0.0102725
-0.0257208
0.0122053
-0.0207769
0.0139728
-0.00471379
0.0153065
0.0108542
0.0213203
0.0179994
-0.000385828
-0.0133162
0.000493885
-0.00466689
0.00150287
0.0103919
0.00207825
0.0165958
0.00265929
0.0206918
0.00513926
0.00996701
0.00755468
-0.00702012
0.00907942
-0.018018
0.0100381
-0.022415
0.0101466
-0.0238032
0.0100307
-0.0256049
0.0115523
-0.0222985
0.0131339
-0.0062954
0.0142254
0.00976269
0.0183863
0.0171594
-0.00047527
-0.0128409
0.00036574
-0.0055079
0.00141547
0.00934213
0.00198614
0.0160251
0.00289148
0.0197864
0.00564913
0.00720936
0.00804392
-0.00941492
0.00937559
-0.0193496
0.0101336
-0.023173
0.010279
-0.0239487
0.00973741
-0.0250633
0.01065
-0.0232111
0.0121258
-0.0077712
0.0132111
0.00867737
0.0150522
0.0165452
-0.000569509
-0.0122714
0.000236334
-0.00631374
0.00132912
0.00824935
0.00190338
0.0154509
0.00320576
0.018484
0.00621295
0.00420218
0.00850052
-0.0117025
0.00965063
-0.0204997
0.0102042
-0.0237266
0.0103328
-0.0240773
0.00946871
-0.0241992
0.00953798
-0.0232803
0.0108019
-0.00903515
0.0125036
0.00697569
0.0108005
0.0167553
-0.000668563
-0.0116029
0.000102317
-0.00708462
0.00124092
0.00711075
0.00184883
0.014843
0.00360183
0.016731
0.00679609
0.00100792
0.00891133
-0.0138177
0.00989388
-0.0214823
0.010264
-0.0240967
0.0103426
-0.0241559
0.00940853
-0.023265
0.00854544
-0.0224173
0.00932439
-0.00981409
0.012139
0.00416113
0.00534021
0.0175993
-0.00076836
-0.0108345
-3.48531e-05
-0.00781813
0.00114507
0.00593082
0.00184318
0.0141449
0.00408532
0.0144889
0.00735029
-0.00225705
0.00925921
-0.0157267
0.0100882
-0.0223113
0.0103276
-0.024336
0.0103608
-0.0241891
0.00965303
-0.0225573
0.00817353
-0.0209378
0.0085518
-0.0101924
0.0125689
0.000144058
-0.000837056
0.0187461
-0.000859974
-0.00997452
-0.000154536
-0.00852357
0.00103257
0.00474372
0.0018987
0.0132787
0.00465986
0.0117277
0.00784856
-0.00544575
0.00953335
-0.0174115
0.0102149
-0.0229929
0.0103936
-0.0245147
0.010401
-0.0241966
0.0100958
-0.0222521
0.00887524
-0.0197172
0.00957924
-0.0108964
0.014298
-0.00457469
-0.00662619
0.0200871
-0.000930625
-0.00904389
-0.000269186
-0.00918501
0.000895937
0.0035786
0.00201885
0.0121558
0.00529945
0.00844713
0.00827431
-0.00842061
0.00972496
-0.0188621
0.010268
-0.023536
0.0104358
-0.0246825
0.0104555
-0.0242163
0.0104977
-0.0222943
0.0102575
-0.019477
0.0119422
-0.0125811
0.0164823
-0.00911477
-0.0112286
0.0210847
-0.000967404
-0.00807649
-0.000360381
-0.00979203
0.000736129
0.00248209
0.00221697
0.010675
0.00594256
0.00472154
0.00860968
-0.0110877
0.00982491
-0.0200773
0.0102581
-0.0239692
0.0104322
-0.0248565
0.0105329
-0.024317
0.0107795
-0.0225409
0.0113777
-0.0200752
0.0138036
-0.0150069
0.0176097
-0.0129209
-0.0146887
0.0210698
-0.000961431
-0.00711506
-0.000425903
-0.0103276
0.000592873
0.00146331
0.00253713
0.00873071
0.00651424
0.000744432
0.00883775
-0.0134112
0.0098316
-0.0210712
0.0101944
-0.0243319
0.0103861
-0.0250483
0.0106081
-0.024539
0.0110374
-0.0229702
0.0119125
-0.0209504
0.0143041
-0.0173986
0.0174074
-0.0160241
-0.0175407
0.0202594
-0.000910315
-0.00620474
-0.000466901
-0.010771
0.000540533
0.000455877
0.00303739
0.00623385
0.00695868
-0.00317686
0.00894781
-0.0154004
0.0097549
-0.0218783
0.0100809
-0.0246579
0.0103121
-0.0252794
0.0106308
-0.0248577
0.0112274
-0.0235667
0.0122014
-0.0219244
0.0142837
-0.0194809
0.0169489
-0.0186893
-0.0200649
0.019473
-0.00081776
-0.00538698
-0.000459777
-0.011129
0.0006512
-0.0006551
0.00371548
0.00316957
0.00726453
-0.00672591
0.00894029
-0.0170761
0.00960806
-0.022546
0.00992326
-0.0249731
0.0102066
-0.0255628
0.0106119
-0.025263
0.0113129
-0.0242677
0.0124036
-0.0230151
0.014324
-0.0214013
0.0166827
-0.021048
-0.0222912
0.018909
-0.000691382
-0.0046956
-0.000340734
-0.0114796
0.000953641
-0.00194947
0.00443657
-0.000313359
0.00743056
-0.0097199
0.00882747
-0.018473
0.00940324
-0.0231218
0.00973041
-0.0253003
0.0100678
-0.0259001
0.0105541
-0.0257493
0.0113216
-0.0250353
0.0124604
-0.024154
0.0142316
-0.0231724
0.0163321
-0.0231485
-0.0243066
0.0183475
-0.000542308
-0.00415329
-3.93429e-05
-0.0119826
0.00142343
-0.00341225
0.00499571
-0.00388563
0.00745544
-0.0121796
0.00863063
-0.0196482
0.00915497
-0.0236461
0.00951005
-0.0256554
0.0098998
-0.0262899
0.0104488
-0.0262983
0.011263
-0.0258494
0.0124114
-0.0253024
0.0140377
-0.0247988
0.0159391
-0.0250499
-0.0261743
0.0178068
-0.000384364
-0.00376893
0.000354446
-0.0127214
0.00198868
-0.00504649
0.00530635
-0.0072033
0.00735783
-0.0142311
0.00837596
-0.0206664
0.00887805
-0.0241482
0.00926708
-0.0260444
0.00970349
-0.0267263
0.0103016
-0.0268965
0.0111435
-0.0266912
0.0122909
-0.0264498
0.0138091
-0.026317
0.0155489
-0.0267897
-0.0279173
0.0172919
-0.000225386
-0.00354354
0.000785243
-0.013732
0.00253273
-0.00679398
0.00541818
-0.0100887
0.00717391
-0.0159868
0.00808646
-0.0215789
0.00858253
-0.0246443
0.0090053
-0.0264672
0.00948108
-0.0272021
0.0101166
-0.027532
0.0109706
-0.0275452
0.0120954
-0.0275745
0.0135132
-0.0277349
0.0151199
-0.0283963
-0.0295586
0.0167613
-6.09937e-05
-0.00348255
0.00115437
-0.0149474
0.00294657
-0.00858618
0.00540407
-0.0125462
0.00693563
-0.0175184
0.00777703
-0.0224203
0.00827486
-0.0251421
0.0087279
-0.0269202
0.00923485
-0.027709
0.00989477
-0.028192
0.0107513
-0.0284018
0.011847
-0.0286702
0.0131768
-0.0290647
0.0146772
-0.0298967
-0.0311041
0.0162227
0.000107805
-0.00359035
0.00143109
-0.0162707
0.00320278
-0.0103579
0.0053118
-0.0146553
0.00666666
-0.0188733
0.00745661
-0.0232103
0.00795936
-0.0256449
0.00843663
-0.0273975
0.00896632
-0.0282387
0.00964099
-0.0288666
0.0104909
-0.0292517
0.0115499
-0.0297292
0.0128023
-0.0303171
0.0142114
-0.0313059
-0.0325563
0.0156637
0.000292469
-0.00388282
0.00163274
-0.0176109
0.00334025
-0.0120654
0.00517204
-0.016487
0.00638231
-0.0200835
0.00713034
-0.0239583
0.00763786
-0.0261524
0.00813269
-0.0278923
0.00867709
-0.0287831
0.0093573
-0.0295468
0.0101931
-0.0300875
0.01121
-0.0307462
0.0123923
-0.0314993
0.0137085
-0.0326221
-0.0339269
0.0150791
0.000498757
-0.00438158
0.00178277
-0.0188949
0.00340247
-0.0136851
0.00500405
-0.0180886
0.00609116
-0.0211707
0.00680213
-0.0246693
0.00731206
-0.0266623
0.00781759
-0.0283979
0.00836925
-0.0293348
0.00904712
-0.0302247
0.00986254
-0.0309029
0.0108363
-0.0317199
0.0119551
-0.0326182
0.0131819
-0.0338489
-0.0352231
0.0144781
0.000718408
-0.00509999
0.00189428
-0.0200708
0.00341308
-0.0152039
0.00481742
-0.019493
0.0057974
-0.0221506
0.0064737
-0.0253456
0.00698238
-0.027171
0.0074918
-0.0289073
0.00804402
-0.029887
0.0087126
-0.0308933
0.00950197
-0.0316923
0.010431
-0.0326489
0.0114857
-0.0336729
0.0126413
-0.0350046
-0.0364433
0.0138615
0.00093464
-0.00603463
0.00197202
-0.0211082
0.00338303
-0.0166149
0.00461773
-0.0207277
0.00550343
-0.0230363
0.00614601
-0.0259881
0.00664915
-0.0276742
0.00715608
-0.0294142
0.00770266
-0.0304336
0.00835565
-0.0315463
0.00911501
-0.0324516
0.00999792
-0.0335319
0.0109924
-0.0346673
0.0120761
-0.0360883
-0.0375945
0.0132273
0.00112457
-0.0071592
0.00201759
-0.0220012
0.00331896
-0.0179163
0.00440898
-0.0218177
0.00521064
-0.023838
0.00581933
-0.0265968
0.00631249
-0.0281673
0.00681097
-0.0299127
0.00734643
-0.030969
0.00797848
-0.0321783
0.00870395
-0.0331771
0.00954003
-0.0343679
0.0104743
-0.0356016
0.0114896
-0.0371037
-0.0386769
0.012572
0.00126737
-0.00842657
0.00203262
-0.0227665
0.00322647
-0.0191101
0.00419434
-0.0227856
0.00491965
-0.0245633
0.00549361
-0.0271708
0.00597241
-0.0286461
0.00645709
-0.0303974
0.00697645
-0.0314884
0.00758275
-0.0327846
0.00827147
-0.0338658
0.00905957
-0.035156
0.00993361
-0.0364756
0.0108839
-0.038054
-0.0396893
0.0118964
0.00135342
-0.00977999
0.00202026
-0.0234333
0.00311081
-0.0202006
0.0039741
-0.0236489
0.00463057
-0.0252198
0.00516861
-0.0277088
0.00562891
-0.0291064
0.00609499
-0.0308634
0.00659379
-0.0319872
0.00717024
-0.0333611
0.00781969
-0.0345153
0.00855826
-0.0358946
0.00937352
-0.0372909
0.0102567
-0.0389371
-0.0406329
0.0112002
0.00138731
-0.0111673
0.00198508
-0.0240311
0.00297674
-0.0211923
0.00374743
-0.0244195
0.00434314
-0.0258155
0.00484406
-0.0282097
0.00528204
-0.0295444
0.00572522
-0.0313066
0.00619949
-0.0324614
0.00674247
-0.033904
0.00735028
-0.0351231
0.00803845
-0.0365828
0.00879331
-0.0380457
0.00961243
-0.0397562
-0.0415064
0.0104859
0.0013826
-0.0125499
0.00193187
-0.0245803
0.00282831
-0.0220887
0.00351644
-0.0251077
0.00405702
-0.026356
0.0045197
-0.0286724
0.00493189
-0.0299566
0.00534838
-0.0317231
0.00579451
-0.0329076
0.00630084
-0.0344104
0.00686519
-0.0356874
0.00750114
-0.0372187
0.00819681
-0.0387414
0.0089493
-0.0405087
-0.0423109
0.00975383
0.00135346
-0.0139034
0.00186476
-0.0250916
0.00266873
-0.0228927
0.00328253
-0.0257215
0.00377194
-0.0268455
0.00419527
-0.0290957
0.00457861
-0.0303399
0.00496504
-0.0321095
0.0053798
-0.0333223
0.00584674
-0.0348773
0.00636568
-0.0362064
0.00694857
-0.0378016
0.00758349
-0.0393763
0.00827129
-0.0411965
-0.0430455
0.00900587
0.00130971
-0.0152131
0.0017871
-0.025569
0.0025004
-0.023606
0.00304658
-0.0262677
0.00348767
-0.0272865
0.00387059
-0.0294787
0.0042224
-0.0306918
0.00457579
-0.0324629
0.00495627
-0.0337028
0.0053814
-0.0353025
0.00585343
-0.0366784
0.00638169
-0.0383299
0.00695633
-0.039951
0.00757769
-0.0418179
-0.0437109
0.00824308
0.00125663
-0.0164697
0.00169746
-0.0260099
0.00232473
-0.0242333
0.00280927
-0.0267522
0.00320406
-0.0276813
0.00354555
-0.0298201
0.00386348
-0.0310097
0.00418119
-0.0327806
0.00452481
-0.0340464
0.00490604
-0.0356837
0.00532958
-0.0371019
0.00580235
-0.0388026
0.00631575
-0.0404644
0.00687148
-0.0423736
-0.044306
0.00746657
0.00119684
-0.0176665
0.00159647
-0.0264095
0.00214665
-0.0247835
0.00257122
-0.0271768
0.002921
-0.0280311
0.00322009
-0.0301192
0.00350213
-0.0312917
0.00378182
-0.0330603
0.00408629
-0.0343509
0.00442172
-0.0360191
0.00479552
-0.0374757
0.00521172
-0.0392189
0.00566374
-0.0409164
0.00615289
-0.0428628
-0.0448312
0.00667815
0.0011318
-0.0187983
0.00148697
-0.0267647
0.00196835
-0.0252648
0.00233293
-0.0275414
0.00263841
-0.0283366
0.00289421
-0.030375
0.00313863
-0.0315362
0.00337822
-0.0332999
0.00364157
-0.0346142
0.00392955
-0.0363071
0.00425243
-0.0377986
0.0046112
-0.0395776
0.00500139
-0.0413066
0.00542406
-0.0432854
-0.0452856
0.00587842
0.00106257
-0.0198609
0.00137094
-0.0270731
0.00178914
-0.025683
0.00209472
-0.0278469
0.00235628
-0.0285982
0.00256797
-0.0305867
0.0027733
-0.0317415
0.00297097
-0.0334976
0.00319146
-0.0348347
0.00343054
-0.0365462
0.00370151
-0.0380696
0.0040021
-0.0398782
0.00432997
-0.0416344
0.00468579
-0.0436413
-0.0456695
0.0050697
0.000990009
-0.0208509
0.00124983
-0.0273329
0.00160903
-0.0260422
0.00185681
-0.0280947
0.0020747
-0.0288161
0.00224145
-0.0307535
0.00240651
-0.0319065
0.00256063
-0.0336517
0.00273679
-0.0350109
0.00292578
-0.0367352
0.00314388
-0.0382877
0.0033855
-0.0401198
0.00365095
-0.0418999
0.00393971
-0.04393
-0.0459822
0.00425237
0.000914853
-0.0217658
0.00112484
-0.0275429
0.00142827
-0.0263457
0.00161935
-0.0282858
0.00179382
-0.0289905
0.00191479
-0.0308744
0.00203866
-0.0320304
0.0021478
-0.0337609
0.00227834
-0.0351414
0.00241632
-0.0368731
0.00258045
-0.0384518
0.00276285
-0.0403022
0.00296528
-0.0421023
0.00318681
-0.0441515
-0.046224
0.00342868
0.000837722
-0.0226035
0.000996879
-0.027702
0.00124717
-0.026596
0.00138246
-0.0284211
0.00151384
-0.0291219
0.00158817
-0.0309488
0.00167011
-0.0321123
0.00173321
-0.033824
0.00181678
-0.035225
0.00190318
-0.0369596
0.00201225
-0.0385609
0.00213523
-0.0404252
0.00227436
-0.0422414
0.00242833
-0.0443055
-0.0463946
0.0025989
0.000759164
-0.0233626
0.0008667
-0.0278096
0.00106612
-0.0267954
0.00114621
-0.0285012
0.001235
-0.0292107
0.00126189
-0.0309757
0.00130115
-0.0321516
0.0013176
-0.0338404
0.00135274
-0.0352601
0.00138729
-0.0369941
0.00144046
-0.0386141
0.00150396
-0.0404887
0.00157903
-0.0423165
0.00166533
-0.0443918
-0.0464942
0.00176493
0.000679658
-0.0240423
0.000734866
-0.0278648
0.000885499
-0.026946
0.000910689
-0.0285264
0.000957469
-0.0292575
0.000936298
-0.0309545
0.000932187
-0.0321475
0.00090136
-0.0338096
0.000887376
-0.0352461
0.000869081
-0.0369758
0.000866842
-0.0386118
0.000869506
-0.0404914
0.000881412
-0.0423284
0.000899705
-0.0444101
-0.0465214
0.00092694
0.000599583
-0.0246419
0.000601717
-0.0278669
0.000705552
-0.0270499
0.000675849
-0.0284967
0.000681302
-0.0292629
0.000611166
-0.0308843
0.000563987
-0.0321003
0.000483612
-0.0337292
0.000422582
-0.0351851
0.000347427
-0.0369007
0.000293413
-0.0385578
0.000231035
-0.040429
0.000182827
-0.0422802
0.000133905
-0.0443612
-0.0464718
8.42665e-05
0.000519418
-0.0251613
0.000467741
-0.0278152
0.000526908
-0.027109
0.000441809
-0.0284116
0.000407793
-0.0292289
0.000285772
-0.0307623
0.000199772
-0.0320143
6.17095e-05
-0.0335912
-3.70887e-05
-0.0350863
-0.000173089
-0.0367647
-0.000282719
-0.0384482
-0.000403305
-0.0403084
-0.000517218
-0.0421663
-0.000633638
-0.0442448
-0.0463541
-0.000751373
0.00043945
-0.0256008
0.000332897
-0.0277087
0.000350134
-0.0271263
0.000206767
-0.0282682
0.000139589
-0.0291617
-4.24534e-05
-0.0305803
-0.000166108
-0.0318907
-0.00034573
-0.0334115
-0.000510138
-0.0349219
-0.000685503
-0.0365893
-0.000861621
-0.0382721
-0.00103618
-0.0401339
-0.0012159
-0.0419866
-0.00139942
-0.0440612
-0.0461665
-0.00158693
0.000360013
-0.0259608
0.000196418
-0.0275451
0.000176952
-0.0271068
-3.21656e-05
-0.0280591
-0.000132316
-0.0290616
-0.00034933
-0.0303633
-0.000536768
-0.0317032
-0.000753289
-0.033195
-0.000976206
-0.034699
-0.0011996
-0.0363659
-0.00143611
-0.0380356
-0.00166948
-0.0399005
-0.00191203
-0.041744
-0.00216237
-0.0438109
-0.0459085
-0.00242041
0.000281512
-0.0262423
5.3587e-05
-0.0273172
1.45234e-05
-0.0270677
-0.000241438
-0.0278031
-0.000410987
-0.028892
-0.000658917
-0.0301153
-0.000901614
-0.0314605
-0.00116085
-0.0329358
-0.00143762
-0.0344222
-0.00171312
-0.0360904
-0.0020064
-0.0377423
-0.00230106
-0.0396058
-0.00260543
-0.0414397
-0.00292174
-0.0434946
-0.04558
-0.00325024
0.000204498
-0.0264468
-7.11461e-05
-0.0270415
-0.000178197
-0.0269607
-0.000455062
-0.0275263
-0.000683029
-0.0286641
-0.000967738
-0.0298306
-0.00126157
-0.0311667
-0.00156692
-0.0326304
-0.00189445
-0.0340947
-0.00222436
-0.0357605
-0.00257228
-0.0373944
-0.0029289
-0.0392492
-0.00329507
-0.0410735
-0.00367664
-0.043113
-0.0451817
-0.00407497
0.000129751
-0.0265765
-0.000184342
-0.0267274
-0.000360858
-0.0267842
-0.000668234
-0.0272189
-0.000950071
-0.0283822
-0.00127464
-0.0295061
-0.00161675
-0.0308246
-0.00197035
-0.0322768
-0.00234664
-0.0337184
-0.00273186
-0.0353753
-0.00313359
-0.0369926
-0.00355133
-0.0388314
-0.00397966
-0.0406452
-0.00442611
-0.0426666
-0.0447143
-0.00489345
5.87686e-05
-0.0266353
-0.000299869
-0.0263688
-0.000538114
-0.0265459
-0.000879893
-0.0268771
-0.00121236
-0.0280498
-0.00157886
-0.0291396
-0.00196714
-0.0304363
-0.00237
-0.031874
-0.00279402
-0.0332944
-0.00323429
-0.034935
-0.00368987
-0.0365371
-0.00416745
-0.0383539
-0.00465789
-0.0401547
-0.00516889
-0.0421556
-0.0441789
-0.0057043
-7.21614e-06
-0.0266281
-0.000415493
-0.0259605
-0.000711264
-0.0262501
-0.00108942
-0.0264989
-0.00147001
-0.0276692
-0.00187963
-0.0287299
-0.00231267
-0.0300033
-0.00276492
-0.0314217
-0.00323626
-0.032823
-0.00373063
-0.0344406
-0.00424025
-0.0360275
-0.00477642
-0.0378177
-0.00532855
-0.0396026
-0.00590385
-0.0415803
-0.0435764
-0.00650632
-0.000102127
-0.0265259
-0.000530506
-0.0255321
-0.000880541
-0.0259001
-0.00129627
-0.0260832
-0.00172297
-0.0272425
-0.00217629
-0.0282766
-0.00265316
-0.0295264
-0.00315423
-0.0309207
-0.00367285
-0.0323044
-0.00422005
-0.0338934
-0.00478361
-0.0354639
-0.00537739
-0.0372239
-0.00599047
-0.0389895
-0.00662965
-0.0409411
-0.042908
-0.00729809
-0.000184218
-0.0263417
-0.000643897
-0.0250724
-0.00104596
-0.025498
-0.00150004
-0.0256291
-0.00197117
-0.0267714
-0.00246823
-0.0277796
-0.00298832
-0.0290063
-0.00353728
-0.0303717
-0.00410314
-0.0317386
-0.00470186
-0.0332947
-0.00531891
-0.0348468
-0.00596941
-0.0365734
-0.00664251
-0.0383164
-0.00734497
-0.0402386
-0.042175
-0.00807794
-0.000261967
-0.0260798
-0.000755621
-0.0245788
-0.00120751
-0.0250462
-0.00170031
-0.0251363
-0.00221447
-0.0262572
-0.00275491
-0.0272391
-0.00331779
-0.0284434
-0.00391345
-0.029776
-0.0045264
-0.0311256
-0.00517541
-0.0326457
-0.0058452
-0.0341771
-0.00655146
-0.0358671
-0.0072834
-0.0375845
-0.00804807
-0.039474
-0.041379
-0.00884415
-0.000336499
-0.0257433
-0.000865337
-0.0240499
-0.00136513
-0.0245464
-0.00189673
-0.0246047
-0.0024527
-0.0257012
-0.00303584
-0.026656
-0.00364112
-0.0278381
-0.00428227
-0.0291349
-0.00494188
-0.030466
-0.00564007
-0.0319475
-0.00636162
-0.0334555
-0.00712249
-0.0351063
-0.00791187
-0.0367951
-0.00873718
-0.0386487
-0.0405204
-0.00959576
-0.000408257
-0.025335
-0.000972838
-0.0234854
-0.00151874
-0.0240005
-0.00208895
-0.0240345
-0.00268565
-0.0251045
-0.0033106
-0.026031
-0.00395781
-0.0271909
-0.00464324
-0.0284495
-0.00534889
-0.0297603
-0.0060952
-0.0312012
-0.00686743
-0.0326833
-0.00768156
-0.0342921
-0.00852679
-0.0359498
-0.00941131
-0.0377641
-0.0395978
-0.0103339
-0.000477425
-0.0248576
-0.00107792
-0.0228849
-0.00166825
-0.0234101
-0.00227665
-0.0234261
-0.00291307
-0.0244681
-0.0035788
-0.0253653
-0.00426737
-0.0265024
-0.00499588
-0.027721
-0.00574674
-0.0290095
-0.00654014
-0.0304078
-0.00736198
-0.0318615
-0.00822797
-0.0334261
-0.00912753
-0.0350503
-0.0100706
-0.036821
-0.038608
-0.0110604
-0.000544091
-0.0243135
-0.00118039
-0.0222486
-0.00181356
-0.022777
-0.00245953
-0.0227802
-0.0031347
-0.0237929
-0.00384007
-0.0246599
-0.00456929
-0.0257731
-0.00533971
-0.0269505
-0.00613483
-0.0282144
-0.00697425
-0.0295684
-0.00784462
-0.0309911
-0.0087612
-0.0325096
-0.00971386
-0.0340976
-0.0107156
-0.0358194
-0.0375554
-0.0117681
-0.000608293
-0.0237052
-0.0012801
-0.0215768
-0.00195455
-0.0221025
-0.00263733
-0.0220974
-0.00335027
-0.02308
-0.00409407
-0.0239161
-0.00486308
-0.0250041
-0.00567424
-0.0261394
-0.00651254
-0.0273761
-0.00739687
-0.028684
-0.00831459
-0.0300734
-0.00928055
-0.0315436
-0.0102851
-0.0330931
-0.0113421
-0.0347623
-0.0364587
-0.0124388
-0.000670042
-0.0230352
-0.00137689
-0.0208699
-0.00209109
-0.0213883
-0.00280977
-0.0213787
-0.00355948
-0.0223303
-0.00434046
-0.0231351
-0.00514829
-0.0241963
-0.00599898
-0.0252887
-0.00687933
-0.0264957
-0.00780732
-0.027756
-0.00877103
-0.0291097
-0.00978486
-0.0305298
-0.0108395
-0.0320384
-0.0119457
-0.0336561
-0.0353234
-0.013081
-0.00072933
-0.0223058
-0.0014706
-0.0201286
-0.00222306
-0.0206359
-0.00297661
-0.0206251
-0.00376206
-0.0215448
-0.00457892
-0.0223183
-0.00542448
-0.0233507
-0.00631346
-0.0243997
-0.00723465
-0.0255745
-0.00820498
-0.0267857
-0.00921313
-0.0281015
-0.0102729
-0.02947
-0.0113754
-0.0309359
-0.0125306
-0.0325009
-0.034131
-0.0137231
-0.000786143
-0.0215197
-0.00156111
-0.0193537
-0.00235034
-0.0198466
-0.00313762
-0.0198379
-0.0039577
-0.0207248
-0.00480913
-0.0214668
-0.00569123
-0.0224686
-0.00661721
-0.0234737
-0.00757796
-0.0246138
-0.00858916
-0.0257745
-0.0096402
-0.0270505
-0.0107443
-0.0283659
-0.0118942
-0.029786
-0.0131146
-0.0312805
-0.0328401
-0.0144055
-0.000840488
-0.0206792
-0.00164834
-0.0185458
-0.00247285
-0.0190221
-0.00329269
-0.019018
-0.00414625
-0.0198712
-0.00503093
-0.0205822
-0.00594834
-0.0215512
-0.00691001
-0.0225121
-0.00790895
-0.0236148
-0.00895947
-0.024724
-0.0100519
-0.0259581
-0.0111994
-0.0272184
-0.0123965
-0.0285889
-0.0136567
-0.0300203
-0.0315031
-0.0149937
-0.00089228
-0.0197869
-0.00173205
-0.0177061
-0.00259031
-0.0181639
-0.00344138
-0.018167
-0.00432718
-0.0189854
-0.00524369
-0.0196657
-0.00619503
-0.0205999
-0.00719097
-0.0215161
-0.00822658
-0.0225792
-0.00931469
-0.0236359
-0.0104468
-0.0248259
-0.0116364
-0.0260288
-0.0128794
-0.027346
-0.0141909
-0.0287088
-0.0301282
-0.0155657
-0.000941523
-0.0188454
-0.00181219
-0.0168354
-0.00270267
-0.0172734
-0.00358361
-0.017286
-0.00450035
-0.0180686
-0.00544728
-0.0187187
-0.00643115
-0.019616
-0.0074599
-0.0204874
-0.00853062
-0.0215085
-0.00965464
-0.0225119
-0.010825
-0.0236556
-0.012055
-0.0247987
-0.0133416
-0.0260594
-0.0146977
-0.0273527
-0.0287105
-0.0161154
-0.00098819
-0.0178572
-0.00188863
-0.015935
-0.00280979
-0.0163522
-0.0037192
-0.0163766
-0.00466551
-0.0171223
-0.00564142
-0.0177428
-0.00665634
-0.0186011
-0.00771637
-0.0194273
-0.00882055
-0.0204043
-0.00997879
-0.0213536
-0.0111858
-0.0224486
-0.0124547
-0.0235297
-0.0137825
-0.0247316
-0.0151802
-0.0259551
-0.0272497
-0.016641
-0.00103226
-0.0168249
-0.00196128
-0.0150059
-0.00291154
-0.0154019
-0.00384796
-0.0154402
-0.00482242
-0.0161479
-0.00582582
-0.0167394
-0.00687028
-0.0175566
-0.00796001
-0.0183376
-0.00909594
-0.0192684
-0.0102866
-0.0201629
-0.0115285
-0.0212068
-0.0128341
-0.0222241
-0.0142006
-0.0233651
-0.0156369
-0.0245188
-0.025747
-0.0171396
-0.0010737
-0.0157513
-0.00203003
-0.0140496
-0.00300778
-0.0144242
-0.00396973
-0.0144782
-0.00497086
-0.0151467
-0.00600024
-0.0157101
-0.00707263
-0.0164842
-0.00819044
-0.0172198
-0.00935641
-0.0181024
-0.0105779
-0.0189415
-0.0118528
-0.0199319
-0.0131927
-0.0208842
-0.0145949
-0.0219628
-0.0160685
-0.0230452
-0.0242047
-0.0176108
-0.00111249
-0.0146388
-0.00209479
-0.0130673
-0.00309841
-0.0134206
-0.00408434
-0.0134923
-0.0051106
-0.0141205
-0.00616442
-0.0146562
-0.00726311
-0.0153855
-0.0084073
-0.0160756
-0.00960153
-0.0169082
-0.0108519
-0.0176911
-0.0121581
-0.0186257
-0.0135305
-0.0195118
-0.0149665
-0.0205268
-0.0164746
-0.0215372
-0.0226252
-0.018054
-0.00114862
-0.0134901
-0.00215546
-0.0120604
-0.00318328
-0.0123928
-0.00419164
-0.012484
-0.00524144
-0.0130707
-0.00631813
-0.0135795
-0.00744144
-0.0142622
-0.00861029
-0.0149068
-0.00983095
-0.0156875
-0.0111084
-0.0164136
-0.0124434
-0.0172907
-0.0138455
-0.0181097
-0.0153131
-0.0190593
-0.0168543
-0.019996
-0.0210113
-0.0184683
-0.00118207
-0.0123081
-0.00221196
-0.0110306
-0.0032623
-0.0113424
-0.00429149
-0.0114548
-0.00536321
-0.011999
-0.00646114
-0.0124816
-0.00760733
-0.013116
-0.00879909
-0.013715
-0.0100444
-0.0144422
-0.0113471
-0.0151109
-0.0127093
-0.0159285
-0.0141392
-0.0166798
-0.0156357
-0.0175627
-0.017207
-0.0184247
-0.0193651
-0.0188532
-0.00121283
-0.0110952
-0.0022642
-0.00997919
-0.00333536
-0.0102713
-0.00438376
-0.0104064
-0.00547572
-0.010907
-0.00659326
-0.0113641
-0.00776056
-0.0119487
-0.00897341
-0.0125022
-0.0102414
-0.0131743
-0.0115671
-0.0137851
-0.0129542
-0.0145414
-0.0144095
-0.0152245
-0.0159332
-0.0160391
-0.0175325
-0.0168253
-0.0176894
-0.0192082
-0.00124102
-0.00985423
-0.00231211
-0.00890809
-0.00340235
-0.00918102
-0.00446832
-0.0093404
-0.00557881
-0.00979651
-0.00671428
-0.0102286
-0.0079009
-0.0107621
-0.00913306
-0.01127
-0.0104218
-0.0118855
-0.0117688
-0.0124381
-0.0131785
-0.0131317
-0.014657
-0.013746
-0.0162052
-0.0144909
-0.0178301
-0.0152005
-0.0159867
-0.0195328
-0.00126671
-0.00858752
-0.00235564
-0.00781916
-0.00346319
-0.00807347
-0.00454507
-0.00825851
-0.00567235
-0.00866923
-0.00682403
-0.00907692
-0.00802812
-0.00955803
-0.00927771
-0.0100204
-0.0105852
-0.010578
-0.0119514
-0.011072
-0.0133816
-0.0117015
-0.0148811
-0.0122465
-0.0164515
-0.0129205
-0.0180994
-0.0135526
-0.0142597
-0.0198264
-0.00128981
-0.00729771
-0.00239471
-0.00671427
-0.00351779
-0.00695039
-0.0046139
-0.0071624
-0.0057562
-0.00752693
-0.00692238
-0.00791074
-0.00814208
-0.00833833
-0.00940725
-0.00875523
-0.0107315
-0.00925372
-0.0121148
-0.00968876
-0.0135633
-0.010253
-0.0150814
-0.0107284
-0.0166717
-0.0113302
-0.01834
-0.0118843
-0.0125108
-0.0200888
-0.00131027
-0.00598743
-0.00242927
-0.00559527
-0.00356607
-0.0058136
-0.00467472
-0.00605375
-0.00583025
-0.0063714
-0.00700917
-0.00673182
-0.00824259
-0.00710491
-0.00952142
-0.0074764
-0.0108605
-0.00791469
-0.0122586
-0.00829059
-0.0137232
-0.00878844
-0.0152577
-0.0091939
-0.0168653
-0.00972252
-0.0185516
-0.0101981
-0.0107429
-0.0203195
-0.00132804
-0.0046594
-0.00245927
-0.00446403
-0.00360797
-0.0046649
-0.00472745
-0.00493427
-0.00589438
-0.00520447
-0.00708429
-0.00554191
-0.0083295
-0.0058597
-0.00962009
-0.00618581
-0.0109718
-0.006563
-0.0123828
-0.00687957
-0.0138612
-0.00731007
-0.0154097
-0.0076454
-0.0170323
-0.0080999
-0.0187339
-0.00849649
-0.00895857
-0.0205182
-0.00134306
-0.00331633
-0.00248467
-0.00332242
-0.00364344
-0.00350613
-0.00477203
-0.00380568
-0.00594853
-0.00402797
-0.00714764
-0.0043428
-0.00840271
-0.00460464
-0.00970311
-0.00488541
-0.0110654
-0.00520073
-0.0124871
-0.00545786
-0.013977
-0.00582016
-0.0155372
-0.00608523
-0.0171723
-0.0064648
-0.0188866
-0.00678213
-0.00716052
-0.0206847
-0.00135533
-0.001961
-0.00250544
-0.00217231
-0.00367242
-0.00233915
-0.0048084
-0.0026697
-0.00599262
-0.00284374
-0.00719914
-0.00313628
-0.00846211
-0.00334167
-0.00977037
-0.00357714
-0.0111411
-0.00383001
-0.0125714
-0.0040276
-0.0140705
-0.00432102
-0.01564
-0.00451574
-0.0172851
-0.00481971
-0.0190096
-0.0050576
-0.00535152
-0.0208186
-0.00136482
-0.000596187
-0.00252154
-0.00101559
-0.00369489
-0.0011658
-0.00483651
-0.00152809
-0.00602659
-0.00165366
-0.00723872
-0.00192415
-0.00850761
-0.00207278
-0.00982177
-0.00226298
-0.0111988
-0.00245295
-0.0126355
-0.00259096
-0.0141416
-0.00281494
-0.015718
-0.0029393
-0.0173706
-0.00316711
-0.0191027
-0.00332547
-0.0035341
-0.0209201
-0.00137151
0.000775319
-0.00253297
0.000145872
-0.00371082
1.20488e-05
-0.00485633
-0.000382568
-0.00605041
-0.000459583
-0.00726633
-0.000708236
-0.00853916
-0.000799944
-0.00985725
-0.000944896
-0.0112385
-0.00107168
-0.0126794
-0.0011501
-0.0141901
-0.00130425
-0.0157711
-0.00135829
-0.0174287
-0.00150949
-0.0191658
-0.00158832
-0.00171166
-0.0209883
-0.0013754
0.00215072
-0.0025397
0.00131018
-0.00372019
0.00119253
-0.00486786
0.000765103
-0.00606405
0.000736606
-0.00728193
0.00050965
-0.00855673
0.000474855
-0.00987676
0.00037513
-0.0112601
0.00031165
-0.012703
0.0002928
-0.014216
0.00020874
-0.0157992
0.000224914
-0.0174593
0.000150655
-0.019199
0.000151318
0.000113833
-0.0210245
-0.00137649
0.00352721
-0.00254175
0.00247543
-0.003723
0.00237378
-0.00487106
0.00191317
-0.00606749
0.00193303
-0.00728552
0.00172768
-0.00856029
0.00174963
-0.00988027
0.00169511
-0.0112635
0.0016949
-0.0127063
0.00173555
-0.0142192
0.00172169
-0.0158022
0.00180792
-0.0174624
0.00181085
-0.019202
0.00189088
0.00193952
-0.0210277
-0.00137481
0.00490202
-0.00253912
0.00363974
-0.00371926
0.00355392
-0.00486597
0.00305988
-0.00606075
0.00312781
-0.00727709
0.00294402
-0.00854984
0.00302238
-0.00986779
0.00301305
-0.0112488
0.00307591
-0.0126892
0.00317595
-0.0141998
0.00323228
-0.0157802
0.00338836
-0.017438
0.00346858
-0.0191749
0.00362779
0.00376249
-0.0209978
-0.00137037
0.00627239
-0.00253182
0.00480119
-0.003709
0.0047311
-0.0048526
0.00420348
-0.00604386
0.00431908
-0.00725668
0.00415683
-0.00852543
0.00429114
-0.00983935
0.00432697
-0.011216
0.00445255
-0.0126519
0.00461184
-0.0141578
0.00473817
-0.0157333
0.00496384
-0.017386
0.00512132
-0.0191176
0.00535944
0.00558019
-0.0209353
-0.0013632
0.0076356
-0.00251989
0.00595787
-0.00369224
0.00590345
-0.00483097
0.00534221
-0.00601685
0.00550496
-0.00722432
0.00536429
-0.0084871
0.00555392
-0.00979501
0.00563488
-0.0111651
0.00582268
-0.0125943
0.00604103
-0.0140932
0.00623706
-0.0156613
0.00653198
-0.0173066
0.00676657
-0.0190305
0.00708331
0.00738968
-0.02084
-0.00135336
0.00898895
-0.00250336
0.00710788
-0.00366903
0.00706913
-0.00480114
0.00647431
-0.00597979
0.00668361
-0.00718008
0.00656458
-0.00843492
0.00680877
-0.00973485
0.0069348
-0.0110963
0.00718417
-0.0125166
0.00746133
-0.0140062
0.00772661
-0.0155646
0.0080904
-0.0171999
0.00840181
-0.0189133
0.00879675
0.00918823
-0.0207119
-0.00134089
0.0103298
-0.00248226
0.00824925
-0.00363942
0.00822629
-0.00476316
0.00759806
-0.00593274
0.00785319
-0.00712405
0.00775589
-0.00836899
0.00805371
-0.00965896
0.00822477
-0.0110097
0.0085349
-0.0124189
0.00887059
-0.0138969
0.00920453
-0.0154432
0.00963674
-0.017066
0.0100246
-0.0187664
0.0104972
0.0109731
-0.0205513
-0.00132588
0.0116557
-0.00245665
0.00938002
-0.00360347
0.00937311
-0.00471711
0.00871169
-0.0058758
0.00901187
-0.00705632
0.00893641
-0.00828942
0.00928682
-0.00956747
0.00950281
-0.0109053
0.00987277
-0.0123014
0.0102667
-0.0137654
0.0106685
-0.0152973
0.0111686
-0.016905
0.0116323
-0.0185898
0.012182
0.0127415
-0.0203583
-0.0013083
0.012964
-0.00242658
0.0104983
-0.00356125
0.0105078