/*--------------------------------*- C++ -*----------------------------------*\
  =========                 |
  \\      /  F ield         | OpenFOAM: The Open Source CFD Toolbox
   \\    /   O peration     | Website:  https://openfoam.org
    \\  /    A nd           | Version:  7
     \\/     M anipulation  |
\*---------------------------------------------------------------------------*/
FoamFile
{
    version     2.0;
    format      ascii;
    class       surfaceScalarField;
    location    "0.314";
    object      phi;
}
// * * * * * * * * * * * * * * * * * * * * * * * * * * * * * * * * * * * * * //

dimensions      [0 3 -1 0 0 0 0];

internalField   nonuniform List<scalar> 
18389
(
-7.9778e-05
7.9778e-05
4.34363e-05
-4.34363e-05
-5.2044e-05
5.2044e-05
4.01262e-05
-4.01262e-05
-5.18765e-05
5.18765e-05
-3.98175e-05
3.98175e-05
-3.4327e-05
3.4327e-05
3.87993e-05
-3.87993e-05
-3.53958e-05
3.53958e-05
4.15058e-05
-4.15058e-05
4.50503e-05
-4.50503e-05
-3.36944e-05
3.36944e-05
-1.0716e-05
1.0716e-05
-4.28169e-05
4.28169e-05
4.33831e-05
-4.33831e-05
2.49312e-05
-2.49312e-05
1.83461e-05
-1.83461e-05
4.58919e-05
-4.58919e-05
4.59201e-05
-4.59201e-05
4.33544e-05
-4.33544e-05
-4.24574e-05
4.24574e-05
3.49049e-05
-3.49049e-05
4.29893e-05
-4.29892e-05
-5.85754e-05
5.85754e-05
-4.97358e-05
4.97358e-05
-4.18324e-05
4.18324e-05
-4.45282e-05
4.45282e-05
4.56101e-05
-4.56101e-05
4.58481e-05
-4.58481e-05
4.41286e-05
-4.41286e-05
-4.13299e-05
4.13299e-05
-6.30566e-05
6.30566e-05
4.31106e-05
-4.31106e-05
-4.47331e-05
4.47331e-05
4.08604e-05
-4.08604e-05
4.66844e-05
-4.66844e-05
-4.55527e-05
4.55527e-05
5.3607e-05
-5.3607e-05
-5.88671e-05
5.88671e-05
3.7911e-05
-3.7911e-05
4.48919e-05
-4.48919e-05
4.53996e-05
-4.53996e-05
-4.10164e-05
4.10164e-05
4.49079e-05
-4.49079e-05
4.58613e-05
-4.58613e-05
-4.58449e-05
4.58449e-05
-4.58447e-05
4.58447e-05
-4.06523e-05
4.06523e-05
-4.58774e-05
4.58774e-05
4.5926e-05
-4.5926e-05
4.59427e-05
-4.59427e-05
4.46073e-05
-4.46073e-05
3.7721e-05
-3.7721e-05
-4.57677e-05
4.57677e-05
-5.55305e-05
5.55305e-05
-4.38057e-05
4.38057e-05
4.57523e-05
-4.57523e-05
-4.59917e-05
4.59917e-05
4.3226e-05
-4.3226e-05
-5.93173e-05
5.93173e-05
-4.71386e-05
4.71386e-05
4.96053e-05
-4.96053e-05
4.57232e-05
-4.57232e-05
-8.86794e-06
8.86797e-06
4.5773e-05
-4.5773e-05
4.15111e-05
-4.15111e-05
5.12111e-05
-5.12111e-05
-4.58574e-05
4.58574e-05
4.23123e-05
-4.23123e-05
3.13504e-05
-3.13504e-05
6.46907e-07
-6.46908e-07
-4.41943e-05
4.41943e-05
3.28689e-05
-3.28689e-05
-3.65841e-05
3.65841e-05
3.96947e-05
-3.96947e-05
2.66266e-05
-2.66266e-05
2.61917e-05
-2.61917e-05
2.70494e-05
-2.70494e-05
2.44018e-05
-2.44018e-05
1.23147e-05
-1.23147e-05
0.0010722
-0.000881862
-0.000190332
0.00546584
-0.0020741
-0.00339174
-0.00594646
0.00594646
-2.44556e-09
0.00335452
-0.00260173
-0.000752785
-0.00157272
0.00176961
-0.000196895
-0.00675048
0.00283287
0.00391762
0.00121416
0.00425169
0.00725548
-0.00587574
-0.00137974
0.00119953
-0.0019018
0.000702277
-0.000863356
-0.000709365
-0.00144207
-0.000314626
0.00175669
0.000147217
1.61552e-06
-0.000148832
0.000778585
-0.00222065
-0.00360179
0.000120364
0.00348142
-0.00320204
0.00289283
0.000309219
-0.00569967
0.00723371
-0.00153404
-0.00370868
0.00289736
0.000811305
-0.000562072
-0.00303972
-0.00175034
0.00238892
-0.000638579
-0.000462405
0.00255875
-0.00209634
-0.00161303
0.00111616
0.000496868
0.000583523
0.000581836
-0.00159607
-0.00515442
0.00134185
-0.00180086
0.000459016
0.00577855
-0.00386088
-0.00191766
-0.000675366
0.00331112
-0.00263575
-0.00583518
0.00583521
0.000462868
0.00130675
-0.00632488
0.000974209
0.00535067
0.00231399
-0.00298936
-0.00378928
0.00311434
0.00067494
0.0021482
-0.00422229
0.00108742
-0.00020034
-0.000887081
0.00150878
-0.00128997
-0.000218811
-0.00280298
-0.000399056
0.00535263
-0.00534948
0.000372444
0.00113634
0.00522634
-0.00133489
-0.00389145
0.00196122
-0.000761685
0.00308568
0.00190872
-0.00499439
-0.000720978
-0.00306831
-9.00959e-05
-0.000156046
0.000246142
0.00393563
0.00331985
0.00114923
-0.00486944
0.0037202
0.00162532
0.00360102
-0.00498104
0.00631999
-0.00133895
-0.00115471
-0.000578593
0.0017333
0.00133765
0.00201686
0.000135294
0.000103622
-0.000238916
0.00502008
-0.00339476
0.00645933
-0.000841827
-0.0056175
0.00321943
-0.00267247
-0.000546956
0.00221507
0.000460428
-0.00267551
0.00296102
-0.000745949
0.00650412
-0.00539879
-0.00110532
0.000491311
-0.00384899
0.00335768
6.81253e-05
0.00639121
0.00478809
-0.00429678
-0.00053578
0.00105939
-0.000523608
-0.00176446
0.000609746
0.0019171
0.00224909
-0.00416618
0.000253536
-0.000333797
8.02609e-05
-0.00125377
-0.00284991
0.00410368
-2.62087e-05
0.00653034
-0.00281336
0.00230157
0.000511786
0.00038975
-1.20196e-05
-0.00037773
-0.00569231
-0.000254144
0.00187935
-0.00141648
0.00082745
0.0049511
0.000898767
0.000173431
0.0026264
-0.00643363
0.00380724
-0.0011202
0.000584419
0.00264108
-0.00389485
0.00619669
-0.00226105
0.0010921
0.00117728
-0.00076762
0.000993395
-0.000225775
-0.00111586
-0.000497171
0.00187782
0.0013416
-0.000594332
0.00142949
-0.00123737
-0.000192116
-0.0026564
0.0019936
0.000662802
0.00116678
0.000262714
0.00111768
-0.00495322
0.00383553
-0.00474401
0.00140532
0.00333868
-0.00455427
0.00611819
-0.00156392
-0.00506147
8.0426e-05
-0.00202663
-0.000629766
-0.000216178
0.000126082
-0.00121384
0.00463744
-0.0034236
-0.00118602
-0.000715783
0.000103304
-0.000192021
8.8717e-05
0.000126283
-2.29787e-05
-0.00124755
0.00462494
-0.00337739
-0.000156164
2.43152e-05
0.000131849
-0.00556559
0.00170472
-0.00120101
-0.000563446
-0.000449368
-1.8913e-05
0.00046828
-0.000543219
9.38502e-05
0.00101586
7.15608e-05
-0.00181457
0.000613564
-0.000150543
1.70074e-05
0.000133535
0.00136803
-0.00234447
0.000976445
0.000271105
-0.000135811
-0.00392538
0.00513954
-0.00245795
0.000707619
-9.90427e-05
-0.000418196
0.000517239
0.0056852
-0.00216736
-0.00351784
7.8632e-05
0.00250699
-0.00258562
0.00444062
-0.00559264
0.00115202
0.00263538
0.00304982
0.00291408
-0.00283545
-0.00613442
0.000434758
-0.00643804
0.00361679
0.00282126
0.00229217
0.00390451
-0.004386
0.00136978
0.00301621
0.00149778
-0.000155931
-0.00102083
0.00401665
-0.00299582
0.00463822
-0.00162456
-0.00301366
-0.00459323
0.00374848
0.000844755
0.00369429
-0.00502919
5.90738e-05
0.000330676
-0.00136627
0.0058069
-9.11398e-05
0.00214981
-0.00205866
-0.00207201
0.00261437
0.000162604
-0.00277696
-0.00127743
0.00264545
-0.000636037
0.0032504
0.0016428
-0.00173393
0.000886562
0.00397387
-0.00486044
-0.00504166
0.0038418
0.00119987
0.0025519
-0.00359408
0.00104219
-0.0033058
0.00411392
-0.000808119
0.000363334
-0.00366913
-0.000933225
0.000933225
-0.00045515
0.000356108
-0.000126966
-0.00097345
0.00110041
0.00506855
-0.0018406
-0.00322795
-0.002433
-0.000369984
0.00290119
0.000157904
1.66261e-05
-0.00017453
-0.00147182
0.00112903
0.000342797
-0.000144061
-0.0048976
0.00503278
-0.00388356
0.000232582
-8.53651e-05
0.00444489
0.000575185
0.00406759
-0.00151569
0.000164894
-6.99065e-06
-0.00633352
-0.000995064
-0.000819509
0.00429948
-0.00190195
-0.00239753
0.00275747
0.00154201
0.00107785
-0.00563211
-0.00226787
-0.000545488
-0.00112144
-0.000958319
0.00207976
4.23487e-05
-0.00272458
0.00268223
-0.00236034
0.0012389
-0.00221809
0.00530377
-0.00461128
0.00158936
0.00302192
0.00254934
0.000678808
-0.000331058
-0.00034775
-0.00601585
0.000582919
0.00543293
-0.00418031
0.00581857
-0.00163826
0.00182472
0.00163118
-0.0034559
-0.00167629
0.000891317
0.000784974
-0.00271622
0.00208373
0.000632495
0.00112529
0.000754052
0.000247175
-0.000328926
8.17527e-05
0.00487392
-0.00398736
-0.00638363
0.00557552
0.000808118
-0.00477311
-0.00166493
0.00335371
0.000616729
-0.00397044
0.00015405
-0.000162258
8.20759e-06
0.000590473
-0.000125256
-0.000465216
-0.00451811
0.00261616
0.000391175
-0.000592279
0.000201104
6.88864e-05
-0.00100211
-0.00257574
0.00448446
-0.00530575
-0.000320953
0.00562671
0.000223917
0.000203576
-0.000427493
0.00128989
-0.00128989
0.0016874
-0.000722624
-0.00211196
0.0018193
0.000292657
0.00439576
-0.00302599
-0.000162463
6.29928e-06
-0.00124857
0.00131745
0.000667231
0.00129398
0.0023476
-0.000263861
-0.0040193
-0.00128645
0.00112059
-0.00496959
0.00321302
-0.00446056
0.000834762
-0.00213734
0.00130258
0.00335987
-0.00457371
-0.00271072
-0.00180739
-0.00483701
0.00469295
-0.000676881
-0.00533896
-0.00515796
0.00146207
-0.00147576
1.36859e-05
0.0022364
0.000111195
-0.00601447
0.00204857
0.0039659
-0.00121934
0.000526
0.000693338
0.00144169
0.00295407
-0.00462803
-0.00101212
0.00564016
-0.000212907
0.000138647
7.42597e-05
-0.00549754
0.00131724
0.00375316
-0.00493689
0.00118374
-0.00149986
-0.000612097
-0.000536677
-0.000637503
0.000138327
-0.000203777
6.54495e-05
0.00496791
-0.00385024
-0.00129945
0.00512391
-0.00382447
-0.000433493
-0.000815077
-0.00586139
0.000439712
0.0053955
-0.00615732
0.00456125
-0.000921612
-0.00546203
-0.00109572
-0.000376098
-0.00181933
0.00285682
-0.00103749
-0.000419051
0.000321974
9.70774e-05
-0.00173206
0.00141743
0.00161144
-0.000149369
0.000824233
-3.67334e-05
-0.00169533
0.00279762
0.00121626
-0.00303558
0.00605341
-0.000477892
0.00528483
6.7794e-05
-0.00528135
0.00438988
0.00114324
-0.00553312
0.000556597
-0.000768961
0.000212365
-4.38878e-05
-0.000411262
-1.15625e-05
0.00606497
-0.00016217
0.000156816
5.35438e-06
0.000133447
2.06029e-05
0.00254425
-0.00335509
0.000810835
-0.00189042
0.000692274
0.00119814
0.00791686
-0.00345105
-0.0044658
0.00117002
0.00126629
-0.00243631
0.000104203
-0.000172497
6.82942e-05
-0.000805872
0.00133187
0.00115304
0.00318325
-0.00433628
-0.00561435
0.000165821
0.00544853
-0.00401639
0.00299557
0.001735
0.00479533
0.00458139
0.00333546
-2.10388e-05
0.000191712
-0.000170673
-0.00129888
0.00439045
-0.00309157
0.000300093
-0.000343981
-0.000131387
-8.15199e-05
0.00410187
-0.00227716
0.00473459
-0.00500036
0.000265767
-0.00322711
0.00604845
-0.00282134
0.00252859
0.00157328
0.00573729
-0.0010027
-0.00138356
-0.00562104
0.00137242
0.00424862
0.00065461
0.000520497
-0.00117511
0.0012693
-0.000614693
0.000585332
-0.00111002
0.000524686
0.00110583
0.000273586
0.000405222
-0.000678229
0.00443139
0.00152076
-0.000391737
0.00351032
-0.00610312
0.0025928
0.00153678
-0.00258604
0.00104927
-0.00430996
0.0011513
0.00315866
0.00291718
-0.00421606
-0.00490242
-0.00125489
-0.00409703
0.00126443
0.00283259
0.00123883
0.00315162
-0.00326566
-0.000831374
0.00222902
-0.00105901
-0.000671069
-0.00253691
0.00320798
0.00241454
0.000607103
-0.00302164
-0.00159319
0.00120594
0.000387253
0.000270161
0.00150018
-0.00196967
0.000469487
-0.000110938
-0.000222859
-0.000264558
0.000153619
-0.00434943
-0.000243798
-0.000296724
0.00117381
-0.000877089
0.00435109
-0.00464397
0.000292874
-8.83995e-05
0.000117739
-2.9339e-05
0.000968534
0.00338365
-0.00435218
-0.000156965
6.85661e-05
-0.0047511
0.000709434
0.00404168
-0.000834301
9.98643e-05
0.000734435
7.94915e-05
-7.78759e-05
-0.0004
0.000864673
-0.000347485
-0.000517189
-0.00603641
0.000637615
-0.0025497
-0.000128156
0.00267785
-0.0031701
0.00440893
0.00218086
-0.00108876
-0.00116719
-0.00118656
5.41628e-07
-0.00351924
-0.00122477
0.0015253
-0.000422643
-0.00110266
0.00192002
0.00183742
-0.00375744
0.00503666
-0.00160266
-0.003434
0.000792905
-0.00542093
-0.00137297
0.00300415
0.00195029
0.000791273
-0.00274155
-0.00349983
0.00446836
-0.000153233
2.69069e-06
0.000931622
-0.00443145
-0.00449666
-0.000147324
-0.000997961
-0.00461639
0.00461834
0.00147737
0.00355929
0.0041617
0.00114083
-0.00530253
3.72314e-05
5.94327e-05
-9.66641e-05
-0.00141122
0.00336151
0.00370219
0.00353151
-0.00140622
0.00237407
-0.000967841
-0.00248115
0.000454515
-0.000878396
0.000751429
-0.000191624
0.000415541
-0.000201459
0.00170165
0.00376403
-0.00184401
-0.00107746
-0.000598838
-0.000107276
-0.000157281
0.0035505
-0.0016334
-0.00240371
0.00465281
0.000674435
-0.00309589
0.00242146
0.000661947
0.000764317
-0.00106104
0.00210105
-0.00130452
-0.00327638
0.00458089
-0.0021756
0.004802
-0.000551332
0.00344415
0.000238451
-0.000221443
-0.00236413
0.000957916
0.00230038
-0.00386913
0.00156877
-0.00122319
5.8611e-05
-2.13797e-05
0.00215138
-0.00279783
0.00064645
-0.00117316
-0.000420028
-0.00352898
0.00450319
0.00118965
0.00168045
-0.0028701
-0.0016928
0.00366374
-0.00197094
0.00423725
-0.000853602
0.000234328
1.41027e-05
-0.000248431
-0.00372191
0.0020291
-0.00141904
0.00470808
-0.00328904
0.000877993
0.00130287
0.00021386
0.00107603
0.000253019
-0.000300706
4.76867e-05
0.00169995
0.00021509
-0.00191504
0.003021
-0.00457871
0.00155771
-5.2923e-05
0.000374397
-0.000321474
0.00156523
-0.000359298
0.00140453
-0.000573467
-0.000831066
0.00282829
-0.00392066
0.00109237
0.00268295
-0.00374203
0.00105908
-0.0051499
0.00192279
0.00389437
-0.000873361
-0.000627195
-0.00238067
0.00300787
0.0014052
-0.00511558
0.00371037
0.00336053
-0.00145893
-0.00190161
-0.000690593
0.00173073
-0.00104014
0.00477171
-0.00303671
-0.000710394
-0.00196207
-0.00598269
0.00514086
3.88315e-06
0.00012183
-0.000125713
-0.00158233
0.0012035
0.00037884
-0.00490551
0.00629954
-0.00139404
-0.0018863
0.000702507
0.0011838
0.000404902
0.00268659
-0.00209068
-0.000595912
0.00343438
0.000489862
-0.00392425
0.000122535
-1.83318e-05
0.00517214
0.000337052
-0.00550919
-0.00194092
0.00379789
-0.00185697
0.00276449
-0.000629567
-0.00213492
0.000462563
0.00040211
-0.000437974
0.00387236
0.00202556
-0.00396648
0.000709984
-0.000270743
-0.000439241
-0.000668888
3.76465e-05
0.000631244
-0.00315307
-0.00576524
0.00576522
-0.000274646
0.000951801
-0.000677156
-0.00228845
-0.000192704
-0.00454531
0.00324078
-0.000862806
0.0011182
0.00360758
-0.0050192
0.00141162
0.00041066
-0.00296035
0.0023307
-0.00243932
0.000108615
-0.00157146
0.00148228
8.91801e-05
-0.00121322
-0.000369113
-0.00339227
0.00342742
-0.00223777
0.000457291
0.000133182
-0.00173817
0.00104757
-0.00278962
0.000732607
0.00205701
0.000242323
-7.99404e-06
-0.00347723
0.00102156
0.00245567
-0.00143962
0.00560132
0.000339375
-0.000958044
0.000618671
0.00212632
0.000638165
-0.00127776
0.00030431
0.00111643
0.00121427
-0.00141288
0.00494132
-0.00352844
-0.00484757
0.00576716
-0.000919589
-0.00117201
0.00228461
0.00410659
0.00107278
4.33809e-05
0.00584852
-0.00550543
-0.000343088
0.00353756
-0.0046494
0.00111184
0.00308772
-0.000673177
0.00542661
-0.00181903
-0.00250523
-0.000971997
-0.00218689
-0.000304154
0.00249105
0.0024255
-0.00196508
-0.00160819
-0.00423922
0.0027494
0.00148982
-0.000340818
0.00123213
0.00120253
0.0036513
-0.00485383
-0.000296908
0.000688084
0.00305952
-0.00238508
-0.00472493
-0.00125776
0.00647067
-0.00129854
0.00423043
0.00206246
0.000496292
0.00285598
-0.00212783
-0.00072815
0.00473612
-0.00245151
-6.52634e-05
-0.00332824
-0.000862444
0.00419068
0.000388648
-8.6591e-05
-0.000302057
-0.00514066
0.00610457
-0.000963907
-0.000715776
0.00190456
-0.00118878
-0.000697172
0.00525289
-0.00455573
0.00119661
-0.00191239
-0.000113573
-0.00576216
-0.00076762
0.00202631
0.00382221
-0.000262013
-0.00192487
0.000251385
-4.20969e-06
0.000362566
-0.000487822
0.00335904
-0.000814787
-0.00522483
-0.000271546
-0.000147505
0.000150225
-0.00013361
-1.66148e-05
-0.00248109
0.000120741
-0.000418627
0.00159798
-0.00102486
-0.000573117
0.00245966
0.000601573
-0.00306123
-0.000725523
0.00318517
-0.00520294
-0.000271472
0.00547441
0.00375023
0.00137368
0.00440225
-0.001219
-0.000123755
0.00254925
0.00540386
-0.000206659
-0.0051972
-0.00608761
0.00425293
0.00183468
0.00321206
-0.00126811
-0.00435294
0.000203977
-0.000225015
0.000564849
0.000839681
0.0011809
0.000160563
-0.00134147
0.0042123
0.00119156
-0.000962867
0.00317211
-0.00220925
0.00472184
-0.00136812
-0.00218099
0.00279279
-0.000611791
-0.00117572
-0.000104094
0.000286678
-0.000182585
0.00344668
-0.00414386
0.00134746
-0.000990439
-0.000357015
0.00159891
-0.000395417
-0.00325054
0.00228767
0.00548614
-0.00434291
-3.06245e-05
0.000352599
-0.00535057
0.000445059
0.0054178
-0.00190748
-0.000996681
-0.00361555
0.00461223
-0.000645264
0.0028832
-0.00223794
0.00549724
-0.00286244
-0.00263481
-8.83991e-05
0.000590253
-0.000677148
0.000660631
1.6517e-05
-0.000695781
0.00173619
-0.00104041
-0.00315013
-0.00115983
0.000155527
-1.71994e-05
-0.0012248
-0.00478967
-0.00307285
0.00240178
-0.00103074
-0.00025915
-7.26203e-05
-8.955e-05
-0.00123361
-0.000806076
-0.00523034
-0.00283852
0.00219326
-0.00082041
0.00119285
0.00110952
0.00436168
-0.00547119
0.00337561
-0.00275888
0.000469509
0.000770419
-0.00288388
0.00211346
0.00497617
-0.00491163
-6.45385e-05
-0.00320951
0.00361558
-0.000406062
0.000207784
-9.56059e-05
-0.000112178
-0.00496014
-0.00147351
-0.00176072
0.00368986
-0.00192915
0.00298105
-0.00221063
-0.00378401
0.0020233
0.00139503
-0.00258173
0.00118669
-0.00363315
0.00568172
0.00649677
-0.00219502
-0.00430174
-0.00239787
0.00237637
2.15099e-05
0.00559126
-0.0016174
0.00118972
-0.000927344
-0.000262382
-9.16833e-06
0.000262187
0.000249749
-0.000775768
0.000526019
-0.00305009
0.00365025
-0.000967303
0.000848973
-0.00104931
0.00236615
-0.000633575
-0.00173258
0.00222058
-0.000520631
0.00451116
0.000633392
0.00173276
-0.00175824
0.00106246
0.000408561
-0.000464698
5.61367e-05
0.00221964
-0.00174462
-0.000475024
0.000822126
-0.00514775
-0.000544558
0.000369494
-0.000588351
0.000218857
-0.00410176
0.00547418
0.000941903
-0.00111652
0.000174614
-0.00154035
0.00216302
-0.000622674
-0.00148589
-0.00275333
-0.00537767
-0.000156868
0.00553454
0.000302645
0.000108329
4.18961e-05
0.00012803
-0.000127538
-4.9116e-07
0.00409877
-0.00289624
-0.00379409
-0.00230902
0.00346528
0.00303149
-0.00259029
0.000715354
0.00187494
-0.000844655
0.00223968
-0.00229984
-9.80369e-05
0.00272919
-0.00377684
0.00104764
0.00130838
-0.000134566
0.000463025
0.000552835
-0.00327682
0.000961286
0.00231553
0.000909005
-0.000602637
-6.62529e-05
-0.00426896
0.00171732
0.000111865
-0.00182918
-0.00396282
0.00146192
0.0025009
0.000520521
0.00147777
-0.000912928
-0.000246449
-0.00466042
0.00490687
0.000783982
-0.00247676
0.00169278
0.00120221
0.00131231
-0.000454137
-0.0017291
0.00218324
0.00258005
-0.00179607
0.00446628
-0.00353466
-0.000761011
-0.00264093
-0.000227607
0.000251922
-0.00070878
0.00176809
-0.00105931
0.00266287
-0.00366683
0.00100394
0.00013642
2.0396e-05
-0.00236543
-0.00091139
0.00142119
-0.00163611
0.00021492
-0.00277578
0.000685106
0.00127616
-0.00141847
0.000142304
0.00161854
-0.00180758
0.000189035
0.000674998
-0.00372261
-0.00114682
0.00133827
-0.00488547
0.0035472
-0.000910289
0.00357315
0.000118598
-7.90227e-05
-3.95753e-05
0.00472978
-0.00362025
-0.000295717
-0.00152114
-0.00400197
-0.00149558
0.00209418
0.000698592
-0.00100348
-0.000921171
-0.00450928
-0.00162515
-0.000388703
0.00124339
-0.000932427
-0.000310967
-0.00149839
-0.00108767
0.00065283
0.0022612
-0.00291403
-0.000114273
0.00067087
-0.000715965
3.88165e-05
-0.00246574
0.00196645
0.00139408
-0.000688001
0.00163843
-0.000950433
-8.6847e-05
-0.00011693
0.000316052
-0.00194556
0.000445701
0.00162105
-0.00230754
0.000686486
-0.00333452
0.00258642
0.000748079
0.00120753
0.00240295
-0.00361047
-0.00175645
0.00104767
-0.00294247
-0.00102035
-0.000779573
-0.00255494
-0.00167888
0.00125649
0.000422392
0.00176864
-5.13185e-05
-0.000758543
-0.00243729
0.00319582
-0.000663297
0.00291323
-0.00226039
-0.00085848
-0.00394762
0.00480611
-0.00234262
0.00234069
1.93121e-06
-0.000834301
-0.00156709
0.000542229
-0.00240761
0.00381909
-0.00141149
0.00323317
0.00288502
0.000194322
3.62256e-05
-0.000230548
0.00234073
-0.000602105
-0.00173862
0.000187982
-0.000184099
-0.00358674
0.00492501
-0.00328694
0.00522974
-0.0019428
-0.00350957
-0.00150963
-0.00091606
0.00323171
-0.00231566
0.00285901
0.0017721
-0.00417971
-0.00499477
-0.000145883
-0.000776775
0.00284205
-0.00206527
-0.000431795
0.000378871
-0.000534465
0.00167759
-0.00114312
-0.00402522
0.00334556
0.000679661
-0.00326948
0.00235341
-0.00386656
0.000671107
0.00319545
0.00141259
-0.00101751
-0.000395087
-0.00589958
0.000696646
0.0018471
-0.00141162
-0.000435476
0.00146671
-0.000431634
-0.00103507
7.83745e-05
0.00012941
0.00292869
-0.000627114
-0.000214823
-0.0034868
-0.000379765
0.000425753
-0.00305836
-0.000966866
-0.00233893
-3.68321e-06
-0.00292241
0.00229521
0.000719961
0.00260241
-0.00332237
0.000586455
-0.000861101
0.00140569
-0.00671297
0.00530729
-0.00575842
0.000985301
-0.00233001
0.00353754
0.000695193
0.000256609
-0.0027335
0.00345346
-8.3803e-05
0.00505997
0.000600994
0.00171497
-0.00231597
-0.00177677
0.00124231
0.00274926
-0.00369485
0.000945588
0.00509949
0.000671047
0.00154859
0.000306186
0.000403798
-0.000364098
-0.000404863
0.000180995
-0.00174856
0.00176684
-0.000888848
0.000884639
0.000593132
-0.000579992
0.00300957
-0.00242958
-0.0015126
0.00184295
-0.000330349
-0.00489156
0.00380389
0.00108768
-0.00478973
0.00150279
-3.99211e-05
3.62476e-05
3.67351e-06
-0.00281382
-0.000853001
0.00110388
-0.00130257
0.000198689
0.00134667
-0.00493342
0.00115515
2.57567e-05
0.00123214
0.000693017
0.00219018
-0.0036667
0.000852889
0.000193554
-0.00504112
0.00189912
0.0012344
0.000670162
-0.00527334
-0.00049191
0.00565165
0.00118835
0.00710788
-0.00218416
-0.00492371
0.000804262
-0.000382098
-0.000422166
0.000707046
-0.00139021
0.000791371
-0.00386059
-0.00125499
0.000286678
-0.000960861
-0.000401149
0.00136201
0.00233324
0.00400857
-0.00486704
0.0027032
0.000833938
-0.00353714
0.00125074
-0.000965922
-0.000284821
0.000744592
0.00159613
-0.000135137
0.000138377
-3.24015e-06
-0.000708425
0.00288371
-0.00217529
0.00362015
0.00108793
-0.0012645
-0.000414383
0.00142089
-0.00151573
9.48409e-05
4.7663e-05
7.09351e-05
-0.00447739
0.000967819
-0.00165647
0.000443243
-0.00364982
0.00292428
-0.000950597
6.87342e-05
0.000932024
0.00268225
-0.00361428
0.000850286
-0.00127452
0.00418045
-0.00290593
0.000318314
0.000279905
4.65498e-05
-0.000326455
7.83052e-05
-0.00539164
0.00531333
-0.00263749
-0.000769829
0.00340733
-0.00348444
0.00261478
0.000869669
-0.00276343
-0.000262851
-0.00171406
-0.00490029
0.000898319
-0.00145916
-0.000879774
-0.00106273
0.00379193
0.00171293
-0.00372719
0.00201426
0.000105061
2.29686e-05
0.00372776
-0.00201484
0.0028666
0.000946063
-0.00381265
-0.00130606
0.00174293
-0.000436867
0.00357384
0.00109362
-0.00466746
0.00717272
-0.00196543
-0.00520728
-0.00212878
-0.00070974
-0.00174235
0.00234334
0.00377356
-0.00492467
0.0011511
-0.00280453
0.00373655
0.00116934
-5.64063e-05
-0.00111294
0.00148198
0.000906928
-0.00550119
0.000598758
0.000436368
0.000367893
0.00292151
-0.001118
-0.00251953
0.00248082
3.87083e-05
0.000504416
-0.001841
0.00133658
-0.00386901
-0.00119245
0.0010859
-0.00254506
-0.00529909
0.000151343
-0.00126419
-0.000511199
0.00177539
0.00563348
-0.00449265
0.000104552
0.000284097
-0.00302096
0.00318357
0.00144324
-0.00107486
-0.000368384
0.0034696
0.00475552
-0.000951642
0.00063261
-0.0032701
0.00115938
-0.00105952
-5.29088e-05
0.000461469
0.00039409
-1.96924e-05
-0.00206741
-0.000432815
0.0015367
-0.000898027
-0.00349734
0.000763846
-2.9135e-05
-1.07862e-05
0.0059986
-0.00492074
0.0052196
-0.00439215
-5.1873e-05
-0.000734435
0.000786307
0.00194916
-0.000458013
-0.00149114
0.00335869
-0.000756286
-0.00256861
0.00336094
-0.000792325
-0.00183513
0.000529074
0.0012794
-0.000954053
-0.000325346
-0.000118765
-0.000210162
0.0020596
-0.000547858
-0.00151174
-0.00138218
-0.0023958
-0.000123723
0.00209145
-0.00274664
0.000655191
0.00280663
-0.00074958
-0.00205705
0.00410336
-0.0043498
0.000313478
0.00223798
-0.000616926
-0.000681601
0.000836204
-0.00367373
0.0050204
0.001228
0.00045534
-0.00171953
-0.00285854
0.0020982
0.00363042
0.00158918
-0.00115834
-0.00382519
-0.00112803
0.00130596
-0.00171945
0.00041349
0.00367532
-0.00318547
-0.00019393
0.00113583
-3.88235e-05
-0.000271277
0.000310101
-0.000684205
-0.00190609
0.0037728
-0.00490586
0.00113307
-0.00186741
0.00235168
-0.000484273
-0.00115187
0.00213409
0.000749613
-0.00226466
0.00375507
-0.00149041
0.00150891
-0.00114426
-0.000364647
-0.00112111
0.000286816
0.000195047
-0.000450187
0.00025514
-0.000425582
-0.00123089
-0.00247836
0.00250521
-2.68559e-05
0.00144682
-0.00371148
0.00162627
-0.000369775
0.000366413
-0.000426773
6.03604e-05
-0.000827803
0.000594958
0.000232845
-0.000794147
-0.00284367
0.000816121
0.00202755
-0.00199448
-0.000820355
-0.000758955
0.00157931
-0.00523974
0.00389555
0.00134419
-0.00139407
0.0013422
-0.000576275
-0.000115978
0.000692252
0.00286882
-0.000734729
-0.000770166
-0.000160269
0.000930436
0.00184094
-0.0013856
0.00169921
-0.000393253
-0.000234691
-0.000638278
-0.00420208
0.00484037
-0.00139368
0.00283166
0.00427622
-0.00240016
-7.81898e-05
0.00312565
-0.00472831
0.000732513
0.00158263
-0.00231515
0.00201765
-0.00279442
0.00197494
-0.000699264
-0.00127568
-0.00179632
0.000455525
0.0013408
0.00430737
0.00286534
-0.00551202
0.00133615
0.00417587
-0.00124883
-0.0039909
-0.000459843
-0.00133648
-0.00100565
-0.000561435
-0.00129605
-0.000423402
0.00113998
-0.000531957
0.00151263
-0.000980669
-0.00175748
0.00129763
-0.000944215
-0.000207273
0.00115149
0.00217307
-0.00286861
0.000695544
-1.17661e-05
0.000206088
0.0010365
0.00605188
-0.0014028
-0.00464909
-0.00203325
-0.0018726
0.00134876
0.000523843
0.00127256
-0.000980336
-0.000292228
-0.00229692
-0.00101936
0.00331629
-0.00267169
0.00357795
-0.000906266
-0.000917449
0.00112355
2.08574e-05
-0.00114441
0.00376186
-0.00493448
0.00117261
0.00174783
-0.00135596
-0.000391867
0.00242707
-0.00122486
0.002733
-0.000636771
-0.000191031
-0.00408933
0.00229848
-0.00180317
-0.000495311
0.000560146
-0.0020096
0.00144945
-0.00252045
-0.000834636
0.000860827
-0.000659507
-0.000201321
-0.00018081
-0.00363923
0.000967539
0.000648184
-0.000453137
0.00259672
0.000981233
0.000318512
0.00130747
0.000667471
-0.00160436
0.00233687
-0.00150746
0.00100271
0.00050475
0.00354585
-0.00067924
-0.00380972
0.0061019
-0.001144
-0.0024891
0.00682494
-0.00433585
-0.000886045
0.0035683
-0.00414184
0.000932333
-0.00210134
0.00424954
-0.000678297
-0.00162924
-0.00244534
0.00172236
0.000722982
-0.00127895
0.00081663
-0.000741605
-7.50229e-05
-0.00137681
-0.000776622
-0.000153505
0.000930128
-0.00157666
0.00137548
0.000201175
0.0020452
0.000796846
6.2497e-05
-0.00129987
-0.000554407
-0.000835802
-0.00241939
-0.000468902
-0.0014037
-0.000171072
0.00159226
-0.000180653
0.00341112
-0.000513759
0.00133866
0.000199628
-0.000754389
-0.00104647
-0.00193039
0.00247681
-0.000546417
-0.00105614
-0.00572889
0.00351081
0.00151019
-0.000625552
0.00288833
-0.00120788
0.000953557
-0.00135905
-0.00453071
0.00588976
0.000619886
-0.00255028
0.000740042
-0.00368762
0.00270375
0.000983867
0.000895716
-0.00142767
0.00223258
-0.00311761
0.000885019
0.00119379
-0.00342966
0.00223587
0.000860072
0.00168894
-0.00254901
-0.000174345
0.00179289
0.00275424
0.00108332
0.00361548
-0.000413513
0.000783006
0.00315962
-0.00402206
0.000976456
-0.00327338
0.000434708
0.00412496
0.00148473
-1.07957e-05
-0.000276214
0.000287009
-0.00619186
0.00385582
0.00233605
-0.000823805
-0.00261813
0.00344194
0.00264001
-0.00177994
-0.003696
0.000891466
-0.00132198
-0.000435504
-0.00015268
0.00131946
0.00372296
0.00121835
0.000224056
0.00131049
-0.000993848
-0.000316638
0.000943821
0.000566371
-0.000314198
0.00376922
-0.00493206
0.00116284
0.00307687
-0.000844298
-0.00139938
0.00190379
0.0012616
-0.00355479
0.00229319
-0.00116526
0.00145697
0.000677978
-0.00213495
0.000192715
-0.000203511
0.00219897
-0.000861312
-0.00125385
0.00033015
0.000930873
-0.000342191
-0.000588681
0.00353292
-0.00227132
-0.00050753
0.00229658
-0.00178905
0.00102322
-0.00296322
0.00209196
0.000871266
0.000106271
-1.21042e-06
0.00465814
0.000540298
-0.00569473
-0.00519303
0.00392794
0.0012651
-0.00107479
-0.00269614
0.00377093
0.00222129
0.00372517
0.00282842
-0.00375313
0.000924713
-0.00147248
0.00110337
-0.000938497
0.00336628
-0.00242778
0.00149774
0.000561858
-0.00378513
-0.00240674
0.00106548
-0.00230578
0.00320708
-0.000901308
0.00342782
-0.000813034
0.000395383
-0.000798482
0.00254992
0.000877898
-0.000634502
0.00430983
-0.00131058
0.00171794
-0.000407367
0.00197619
-0.00128392
-0.000389154
0.00607691
-0.00492603
-0.000451637
0.000857976
-0.00246234
-0.00539164
-0.00172326
0.000412679
-0.000678115
0.00010184
-0.000867571
0.000214681
-0.00147028
0.00065497
0.00158301
-0.00090534
0.000135174
0.000804582
0.00251645
-0.00332104
-0.00109513
0.00187372
-0.00194724
-0.000474022
0.00196133
-0.0014873
-0.000869833
-0.00209338
-0.00195189
0.00147787
-0.00265796
0.00346253
-0.00164557
0.000575423
0.00107014
-0.000973801
0.00357051
0.00600017
-0.00229797
-0.00130453
-0.000418728
-0.00174205
0.0011134
0.000628651
0.000904694
-0.00451951
0.00361481
-0.00131821
0.000542105
0.000776102
-0.00403506
-0.00115798
0.000191825
-0.00113604
0.00193166
-0.000697255
-0.00133759
-0.00380027
0.00513786
0.00100747
6.53109e-05
0.00329698
-0.00252869
-0.000768281
0.000196699
0.00127001
0.000877661
-0.000670704
-0.000206957
-0.00135015
-0.00101398
-0.00106855
0.00509719
-0.00402863
0.000630956
-0.00249836
0.000171097
0.00124979
0.00377367
-0.00495981
0.00118615
0.00287399
-0.00205787
0.000101812
-0.000168264
6.64519e-05
0.00102622
0.000138086
0.000104236
0.00235273
0.00369916
-0.000581544
-0.000816475
0.00139802
0.000652454
0.00177256
-0.00242501
0.00239808
-0.00171392
-0.000684162
0.000475265
0.00147389
0.000425858
-0.000509722
-0.000808485
0.000599174
-0.00532411
0.000690402
-2.97719e-05
-0.00115839
-0.001304
-0.00378878
0.00509277
0.00103467
0.00143773
-0.00189574
0.00254691
-0.000395109
-0.00490893
0.00530404
0.000120693
-1.88806e-05
0.000637861
0.00129379
0.00273334
0.000936294
-0.00366962
0.00137584
0.000471258
0.00258774
-0.00364087
0.00454556
0.00277445
0.000842968
-0.00361741
0.00165299
-0.000852201
-0.00080079
0.00132945
-0.00102042
-0.000309032
0.000421897
0.00105679
-0.00469767
0.000218154
-7.33266e-06
0.000200048
0.00601076
-0.00128099
0.00152693
-0.00212904
0.00252655
-0.00183275
-0.000693799
0.000848627
-0.00254234
0.00169371
0.00523504
-0.00281859
-0.000923433
-0.00159671
0.00500825
0.00148595
-0.00178127
0.000295321
0.000500231
-0.000103699
-0.000396531
-0.000990378
-0.00314175
0.00413213
0.000741563
0.00182066
-0.00256222
0.00176739
-0.000281437
0.00225102