/*--------------------------------*- C++ -*----------------------------------*\
  =========                 |
  \\      /  F ield         | OpenFOAM: The Open Source CFD Toolbox
   \\    /   O peration     | Website:  https://openfoam.org
    \\  /    A nd           | Version:  7
     \\/     M anipulation  |
\*---------------------------------------------------------------------------*/
FoamFile
{
    version     2.0;
    format      ascii;
    class       surfaceScalarField;
    location    "2.8";
    object      phi;
}
// * * * * * * * * * * * * * * * * * * * * * * * * * * * * * * * * * * * * * //

dimensions      [0 3 -1 0 0 0 0];

internalField   nonuniform List<scalar> 
79600
(
1.72165e-12
-1.75378e-12
2.10416e-11
-1.93273e-11
5.52806e-11
-3.42397e-11
9.80312e-11
-4.2754e-11
1.43977e-10
-4.59441e-11
1.89088e-10
-4.51016e-11
2.30376e-10
-4.12854e-11
2.6569e-10
-3.53187e-11
2.93512e-10
-2.78241e-11
3.1278e-10
-1.9269e-11
3.22787e-10
-1.00056e-11
3.23092e-10
-3.04603e-13
3.13459e-10
9.63325e-12
2.93811e-10
1.96481e-11
2.64192e-10
2.96183e-11
2.24742e-10
3.94505e-11
1.75668e-10
4.90744e-11
1.17231e-10
5.84375e-11
4.97269e-11
6.75044e-11
-2.65192e-11
7.62464e-11
-1.11169e-10
8.46497e-11
-2.03876e-10
9.27065e-11
-3.04291e-10
1.00415e-10
-4.12071e-10
1.0778e-10
-5.26878e-10
1.14807e-10
-6.48388e-10
1.21508e-10
-7.76285e-10
1.27897e-10
-9.10274e-10
1.33989e-10
-1.05007e-09
1.39798e-10
-1.19541e-09
1.45342e-10
-1.34605e-09
1.50638e-10
-1.50175e-09
1.55702e-10
-1.6623e-09
1.60551e-10
-1.82751e-09
1.65201e-10
-1.99717e-09
1.69665e-10
-2.17113e-09
1.73959e-10
-2.34923e-09
1.78095e-10
-2.53131e-09
1.82084e-10
-2.71725e-09
1.85936e-10
-2.90691e-09
1.89659e-10
-3.10017e-09
1.93262e-10
-3.29692e-09
1.96749e-10
-3.49704e-09
2.00124e-10
-3.70043e-09
2.03392e-10
-3.90698e-09
2.06552e-10
-4.11659e-09
2.09606e-10
-4.32914e-09
2.12551e-10
-4.54453e-09
2.15386e-10
-4.76263e-09
2.18107e-10
-4.98334e-09
2.20709e-10
-5.20653e-09
2.23185e-10
-5.43206e-09
2.2553e-10
-5.65979e-09
2.27736e-10
-5.88959e-09
2.29794e-10
-6.12128e-09
2.31694e-10
-6.35471e-09
2.33428e-10
-6.58969e-09
2.34983e-10
-6.82604e-09
2.3635e-10
-7.06356e-09
2.37517e-10
-7.30203e-09
2.38472e-10
-7.54123e-09
2.39203e-10
-7.78093e-09
2.39697e-10
-8.02088e-09
2.39943e-10
-8.2608e-09
2.39928e-10
-8.50044e-09
2.39639e-10
-8.73951e-09
2.39065e-10
-8.9777e-09
2.38192e-10
-9.21471e-09
2.3701e-10
-9.45022e-09
2.35505e-10
-9.68388e-09
2.33668e-10
-9.91537e-09
2.31486e-10
-1.01443e-08
2.2895e-10
-1.03704e-08
2.26049e-10
-1.05931e-08
2.22775e-10
-1.08123e-08
2.19118e-10
-1.10273e-08
2.15071e-10
-1.1238e-08
2.10626e-10
-1.14437e-08
2.05777e-10
-1.16443e-08
2.00519e-10
-1.18391e-08
1.94848e-10
-1.20279e-08
1.88759e-10
-1.22101e-08
1.8225e-10
-1.23854e-08
1.7532e-10
-1.25534e-08
1.67969e-10
-1.27136e-08
1.60198e-10
-1.28656e-08
1.52009e-10
-1.3009e-08
1.43406e-10
-1.31434e-08
1.34395e-10
-1.32684e-08
1.2498e-10
-1.33836e-08
1.15171e-10
-1.34885e-08
1.04976e-10
-1.35829e-08
9.44062e-11
-1.36664e-08
8.34737e-11
-1.37386e-08
7.21922e-11
-1.37992e-08
6.05768e-11
-1.38478e-08
4.86444e-11
-1.38842e-08
3.6413e-11
-1.39081e-08
2.39026e-11
-1.39193e-08
1.11341e-11
-1.39174e-08
-1.86954e-12
-1.39023e-08
-1.50844e-11
-1.38738e-08
-2.84849e-11
-1.38318e-08
-4.20443e-11
-1.37761e-08
-5.57344e-11
-1.37065e-08
-6.9526e-11
-1.36231e-08
-8.33884e-11
-1.35259e-08
-9.72901e-11
-1.34147e-08
-1.11199e-10
-1.32896e-08
-1.2508e-10
-1.31507e-08
-1.38901e-10
-1.2998e-08
-1.52626e-10
-1.28318e-08
-1.66219e-10
-1.26522e-08
-1.79645e-10
-1.24593e-08
-1.92867e-10
-1.22535e-08
-2.05848e-10
-1.20349e-08
-2.18553e-10
-1.1804e-08
-2.30945e-10
-1.1561e-08
-2.42986e-10
-1.13063e-08
-2.54643e-10
-1.10405e-08
-2.65879e-10
-1.07638e-08
-2.7666e-10
-1.04768e-08
-2.86952e-10
-1.01801e-08
-2.96722e-10
-9.87419e-09
-3.05939e-10
-9.55962e-09
-3.14573e-10
-9.23702e-09
-3.22595e-10
-8.90704e-09
-3.29977e-10
-8.57035e-09
-3.36695e-10
-8.22762e-09
-3.42725e-10
-7.87958e-09
-3.48046e-10
-7.52694e-09
-3.52637e-10
-7.17046e-09
-3.56483e-10
-6.81089e-09
-3.59568e-10
-6.44901e-09
-3.61881e-10
-6.0856e-09
-3.6341e-10
-5.72145e-09
-3.6415e-10
-5.35735e-09
-3.64095e-10
-4.99411e-09
-3.63244e-10
-4.63251e-09
-3.61598e-10
-4.27335e-09
-3.5916e-10
-3.91741e-09
-3.55936e-10
-3.56548e-09
-3.51935e-10
-3.21831e-09
-3.47169e-10
-2.87666e-09
-3.41653e-10
-2.54126e-09
-3.35402e-10
-2.21282e-09
-3.28436e-10
-1.89204e-09
-3.20778e-10
-1.57959e-09
-3.1245e-10
-1.27611e-09
-3.03479e-10
-9.82221e-10
-2.93893e-10
-6.98498e-10
-2.83723e-10
-4.25498e-10
-2.73e-10
-1.6374e-10
-2.61758e-10
8.6293e-11
-2.50033e-10
3.24153e-10
-2.3786e-10
5.49432e-10
-2.25278e-10
7.61758e-10
-2.12326e-10
9.60801e-10
-1.99043e-10
1.14627e-09
-1.8547e-10
1.31792e-09
-1.71649e-10
1.47554e-09
-1.5762e-10
1.61897e-09
-1.43427e-10
1.74808e-09
-1.29111e-10
1.86279e-09
-1.14715e-10
1.96308e-09
-1.00283e-10
2.04894e-09
-8.58579e-11
2.12042e-09
-7.14819e-11
2.17762e-09
-5.71987e-11
2.22067e-09
-4.3052e-11
2.24975e-09
-2.90854e-11
2.2651e-09
-1.53431e-11
2.26697e-09
-1.86983e-12
2.25568e-09
1.12885e-11
2.23159e-09
2.40859e-11
2.19512e-09
3.6474e-11
2.14671e-09
4.8403e-11
2.08689e-09
5.98206e-11
2.01622e-09
7.06717e-11
1.93532e-09
8.08981e-11
1.84489e-09
9.0437e-11
1.74567e-09
9.922e-11
1.63849e-09
1.07173e-10
1.52428e-09
1.14214e-10
1.40403e-09
1.20252e-10
1.27884e-09
1.25188e-10
1.14994e-09
1.28906e-10
1.01866e-09
1.3128e-10
8.8649e-10
1.32165e-10
7.55092e-10
1.31398e-10
6.26299e-10
1.28793e-10
5.02159e-10
1.2414e-10
3.84957e-10
1.17203e-10
2.77234e-10
1.07723e-10
1.81802e-10
9.54312e-11
1.01725e-10
8.00763e-11
4.02156e-11
6.15102e-11
1.78352e-13
4.00387e-11
-1.73777e-11
1.75567e-11
-1.35069e-11
-3.86823e-12
-1.35006e-11
1.93066e-11
-2.10662e-11
7.42986e-11
-7.43021e-11
1.55456e-10
-1.15392e-10
2.52135e-10
-1.39439e-10
3.5425e-10
-1.48071e-10
4.53201e-10
-1.44054e-10
5.42035e-10
-1.30115e-10
6.1534e-10
-1.08622e-10
6.69026e-10
-8.15117e-11
7.00086e-10
-5.03316e-11
7.06382e-10
-1.63051e-11
6.86495e-10
1.95828e-11
6.39547e-10
5.65822e-11
5.65115e-10
9.40808e-11
4.63128e-10
1.31605e-10
3.33794e-10
1.68785e-10
1.77534e-10
2.05336e-10
-5.06721e-12
2.4104e-10
-2.13296e-10
2.75734e-10
-4.46361e-10
3.09311e-10
-7.03404e-10
3.41692e-10
-9.8353e-10
3.72832e-10
-1.28583e-09
4.02713e-10
-1.60939e-09
4.31336e-10
-1.9533e-09
4.58719e-10
-2.31668e-09
4.84894e-10
-2.69869e-09
5.09901e-10
-3.09849e-09
5.33789e-10
-3.5153e-09
5.56611e-10
-3.94838e-09
5.78423e-10
-4.39703e-09
5.99284e-10
-4.86058e-09
6.19253e-10
-5.33842e-09
6.38386e-10
-5.82996e-09
6.56741e-10
-6.33466e-09
6.74369e-10
-6.85202e-09
6.91319e-10
-7.38156e-09
7.07637e-10
-7.92284e-09
7.23365e-10
-8.47544e-09
7.38536e-10
-9.03897e-09
7.53184e-10
-9.61304e-09
7.67332e-10
-1.01973e-08
7.81003e-10
-1.07914e-08
7.94209e-10
-1.13949e-08
8.06963e-10
-1.20077e-08
8.19268e-10
-1.26292e-08
8.31123e-10
-1.32592e-08
8.42525e-10
-1.38972e-08
8.53461e-10
-1.4543e-08
8.6392e-10
-1.51962e-08
8.7388e-10
-1.58563e-08
8.83322e-10
-1.6523e-08
8.92217e-10
-1.71958e-08
9.00536e-10
-1.78743e-08
9.08248e-10
-1.85579e-08
9.15317e-10
-1.92462e-08
9.21704e-10
-1.99386e-08
9.2737e-10
-2.06345e-08
9.32273e-10
-2.13334e-08
9.3637e-10
-2.20345e-08
9.39615e-10
-2.27373e-08
9.41964e-10
-2.34409e-08
9.43369e-10
-2.41448e-08
9.43785e-10
-2.4848e-08
9.43163e-10
-2.55498e-08
9.41457e-10
-2.62494e-08
9.38622e-10
-2.69458e-08
9.3461e-10
-2.76382e-08
9.29376e-10
-2.83255e-08
9.22879e-10
-2.90069e-08
9.15074e-10
-2.96814e-08
9.05921e-10
-3.03478e-08
8.95382e-10
-3.10052e-08
8.83421e-10
-3.16524e-08
8.70001e-10
-3.22884e-08
8.55094e-10
-3.2912e-08
8.38668e-10
-3.35221e-08
8.207e-10
-3.41174e-08
8.01166e-10
-3.4697e-08
7.80047e-10
-3.52595e-08
7.57329e-10
-3.58037e-08
7.33e-10
-3.63285e-08
7.07054e-10
-3.68327e-08
6.79486e-10
-3.7315e-08
6.503e-10
-3.77743e-08
6.19502e-10
-3.82094e-08
5.87103e-10
-3.86191e-08
5.53119e-10
-3.90023e-08
5.17572e-10
-3.93578e-08
4.80488e-10
-3.96845e-08
4.41901e-10
-3.99814e-08
4.01846e-10
-4.02474e-08
3.60369e-10
-4.04814e-08
3.17516e-10
-4.06825e-08
2.73344e-10
-4.08499e-08
2.27913e-10
-4.09825e-08
1.81287e-10
-4.10797e-08
1.3354e-10
-4.11405e-08
8.47477e-11
-4.11644e-08
3.49935e-11
-4.11506e-08
-1.56344e-11
-4.10986e-08
-6.70425e-11
-4.1008e-08
-1.19132e-10
-4.08782e-08
-1.71799e-10
-4.0709e-08
-2.24936e-10
-4.05001e-08
-2.78429e-10
-4.02514e-08
-3.32161e-10
-3.99626e-08
-3.8601e-10
-3.9634e-08
-4.39853e-10
-3.92655e-08
-4.93561e-10
-3.88574e-08
-5.47003e-10
-3.841e-08
-6.00046e-10
-3.79236e-08
-6.52554e-10
-3.73989e-08
-7.04391e-10
-3.68363e-08
-7.55418e-10
-3.62367e-08
-8.05496e-10
-3.56008e-08
-8.54488e-10
-3.49294e-08
-9.02255e-10
-3.42238e-08
-9.48659e-10
-3.34849e-08
-9.93566e-10
-3.27139e-08
-1.03684e-09
-3.19122e-08
-1.07835e-09
-3.10812e-08
-1.11798e-09
-3.02223e-08
-1.15559e-09
-2.93372e-08
-1.19107e-09
-2.84274e-08
-1.22431e-09
-2.74948e-08
-1.25519e-09
-2.65412e-08
-1.28361e-09
-2.55684e-08
-1.30949e-09
-2.45784e-08
-1.33272e-09
-2.35732e-08
-1.35324e-09
-2.25549e-08
-1.37096e-09
-2.15255e-08
-1.38582e-09
-2.04873e-08
-1.39778e-09
-1.94425e-08
-1.40677e-09
-1.83931e-08
-1.41276e-09
-1.73415e-08
-1.41574e-09
-1.62899e-08
-1.41567e-09
-1.52406e-08
-1.41256e-09
-1.41958e-08
-1.4064e-09
-1.31578e-08
-1.39721e-09
-1.21287e-08
-1.38501e-09
-1.11108e-08
-1.36984e-09
-1.01062e-08
-1.35174e-09
-9.11713e-09
-1.33076e-09
-8.14557e-09
-1.30696e-09
-7.19358e-09
-1.28043e-09
-6.26312e-09
-1.25123e-09
-5.35611e-09
-1.21947e-09
-4.47435e-09
-1.18523e-09
-3.61962e-09
-1.14863e-09
-2.79356e-09
-1.10978e-09
-1.99776e-09
-1.0688e-09
-1.23371e-09
-1.02581e-09
-5.02778e-10
-9.80962e-10
1.93742e-10
-9.3438e-10
8.54676e-10
-8.86212e-10
1.47896e-09
-8.36606e-10
2.06563e-09
-7.85713e-10
2.61384e-09
-7.33689e-10
3.12289e-09
-6.80691e-10
3.59215e-09
-6.26879e-10
4.02113e-09
-5.72416e-10
4.40949e-09
-5.17464e-10
4.75696e-09
-4.6219e-10
5.06344e-09
-4.06758e-10
5.32892e-09
-3.51336e-10
5.55352e-09
-2.96091e-10
5.73752e-09
-2.41192e-10
5.88128e-09
-1.86809e-10
5.9853e-09
-1.33113e-10
6.05024e-09
-8.02767e-11
6.07684e-09
-2.84758e-11
6.06602e-09
2.21077e-11
6.01881e-09
7.12966e-11
5.93639e-09
1.18897e-10
5.82008e-09
1.64715e-10
5.67135e-09
2.08546e-10
5.49185e-09
2.50175e-10
5.28337e-09
2.89374e-10
5.04791e-09
3.259e-10
4.78764e-09
3.5949e-10
4.50495e-09
3.89862e-10
4.20246e-09
4.16706e-10
3.88303e-09
4.39683e-10
3.54979e-09
4.58421e-10
3.20619e-09
4.72505e-10
2.85599e-09
4.81481e-10
2.50332e-09
4.84842e-10
2.15269e-09
4.8203e-10
1.80904e-09
4.72434e-10
1.47779e-09
4.55391e-10
1.16479e-09
4.30208e-10
8.7632e-10
3.96192e-10
6.19013e-10
3.52739e-10
3.99589e-10
2.995e-10
2.24354e-10
2.36743e-10
9.82205e-11
1.66169e-10
2.36419e-11
9.21307e-11
-3.89134e-12
2.36569e-11
-1.73902e-11
3.43408e-11
-5.54078e-11
1.15667e-10
-1.55629e-10
2.28071e-10
-2.27789e-10
3.5736e-10
-2.68722e-10
4.9058e-10
-2.81294e-10
6.16453e-10
-2.69934e-10
7.25558e-10
-2.39221e-10
8.10271e-10
-1.93334e-10
8.64614e-10
-1.35855e-10
8.8404e-10
-6.97588e-11
8.65198e-10
2.53606e-12
8.05773e-10
7.90079e-11
7.04249e-10
1.58106e-10
5.59801e-10
2.3853e-10
3.72148e-10
3.19258e-10
1.41451e-10
3.99483e-10
-1.31783e-10
4.7857e-10
-4.46773e-10
5.56031e-10
-8.02536e-10
6.31498e-10
-1.19793e-09
7.04703e-10
-1.6317e-09
7.75462e-10
-2.10253e-09
8.43658e-10
-2.60904e-09
9.0923e-10
-3.14987e-09
9.72163e-10
-3.72363e-09
1.03248e-09
-4.32897e-09
1.09023e-09
-4.96456e-09
1.14549e-09
-5.62912e-09
1.19835e-09
-6.32143e-09
1.24892e-09
-7.0403e-09
1.2973e-09
-7.78463e-09
1.34361e-09
-8.55336e-09
1.38798e-09
-9.34548e-09
1.43051e-09
-1.01601e-08
1.47133e-09
-1.09962e-08
1.51053e-09
-1.18531e-08
1.54823e-09
-1.273e-08
1.58451e-09
-1.36261e-08
1.61946e-09
-1.45407e-08
1.65315e-09
-1.54732e-08
1.68565e-09
-1.64228e-08
1.717e-09
-1.73891e-08
1.74726e-09
-1.83713e-08
1.77644e-09
-1.9369e-08
1.80458e-09
-2.03814e-08
1.83168e-09
-2.1408e-08
1.85773e-09
-2.24482e-08
1.88272e-09
-2.35013e-08
1.90664e-09
-2.45669e-08
1.92945e-09
-2.56441e-08
1.9511e-09
-2.67323e-08
1.97156e-09
-2.78309e-08
1.99075e-09
-2.8939e-08
2.00863e-09
-3.00558e-08
2.02511e-09
-3.11806e-08
2.04012e-09
-3.23125e-08
2.05358e-09
-3.34505e-08
2.0654e-09
-3.45937e-08
2.07549e-09
-3.57411e-08
2.08375e-09
-3.68916e-08
2.0901e-09
-3.80441e-08
2.09443e-09
-3.91973e-08
2.09664e-09
-4.03502e-08
2.09663e-09
-4.15013e-08
2.0943e-09
-4.26494e-08
2.08955e-09
-4.37931e-08
2.08228e-09
-4.49309e-08
2.07239e-09
-4.60613e-08
2.05979e-09
-4.71828e-08
2.04438e-09
-4.82938e-08
2.02607e-09
-4.93926e-08
2.00478e-09
-5.04777e-08
1.98042e-09
-5.15472e-08
1.95291e-09
-5.25994e-08
1.9222e-09
-5.36325e-08
1.8882e-09
-5.46447e-08
1.85086e-09
-5.56341e-08
1.81013e-09
-5.65989e-08
1.76596e-09
-5.75372e-08
1.71831e-09
-5.8447e-08
1.66716e-09
-5.93265e-08
1.61249e-09
-6.01737e-08
1.55427e-09
-6.09867e-08
1.49252e-09
-6.17636e-08
1.42723e-09
-6.25026e-08
1.35843e-09
-6.32016e-08
1.28614e-09
-6.38589e-08
1.2104e-09
-6.44726e-08
1.13128e-09
-6.50409e-08
1.04881e-09
-6.55621e-08
9.63094e-10
-6.60345e-08
8.742e-10
-6.64563e-08
7.8223e-10
-6.68261e-08
6.87296e-10
-6.71423e-08
5.89518e-10
-6.74034e-08
4.89032e-10
-6.76081e-08
3.85985e-10
-6.77551e-08
2.80535e-10
-6.78432e-08
1.72853e-10
-6.78713e-08
6.31225e-11
-6.78385e-08
-4.84627e-11
-6.77438e-08
-1.61697e-10
-6.75866e-08
-2.76362e-10
-6.73662e-08
-3.92233e-10
-6.7082e-08
-5.09071e-10
-6.67338e-08
-6.2663e-10
-6.63213e-08
-7.44654e-10
-6.58445e-08
-8.62879e-10
-6.53033e-08
-9.81034e-10
-6.4698e-08
-1.09884e-09
-6.4029e-08
-1.21601e-09
-6.32968e-08
-1.33226e-09
-6.2502e-08
-1.4473e-09
-6.16456e-08
-1.56082e-09
-6.07285e-08
-1.67253e-09
-5.97519e-08
-1.78214e-09
-5.8717e-08
-1.88933e-09
-5.76255e-08
-1.99381e-09
-5.64788e-08
-2.09529e-09
-5.52789e-08
-2.19348e-09
-5.40277e-08
-2.28808e-09
-5.27272e-08
-2.37882e-09
-5.13798e-08
-2.46542e-09
-4.99877e-08
-2.54761e-09
-4.85537e-08
-2.62515e-09
-4.70802e-08
-2.69778e-09
-4.55701e-08
-2.76528e-09
-4.40263e-08
-2.82742e-09
-4.24518e-08
-2.884e-09
-4.08497e-08
-2.93482e-09
-3.92232e-08
-2.97973e-09
-3.75756e-08
-3.01855e-09
-3.59103e-08
-3.05115e-09
-3.42306e-08
-3.07742e-09
-3.25402e-08
-3.09725e-09
-3.08424e-08
-3.11056e-09
-2.91408e-08
-3.1173e-09
-2.74391e-08
-3.11742e-09
-2.57407e-08
-3.11092e-09
-2.40493e-08
-3.0978e-09
-2.23684e-08
-3.07809e-09
-2.07016e-08
-3.05183e-09
-1.90523e-08
-3.0191e-09
-1.74241e-08
-2.98e-09
-1.58202e-08
-2.93462e-09
-1.4244e-08
-2.88312e-09
-1.26988e-08
-2.82565e-09
-1.11877e-08
-2.76238e-09
-9.71363e-09
-2.6935e-09
-8.27963e-09
-2.61923e-09
-6.88846e-09
-2.5398e-09
-5.54279e-09
-2.45545e-09
-4.24515e-09
-2.36644e-09
-2.99792e-09
-2.27305e-09
-1.80332e-09
-2.17556e-09
-6.63424e-10
-2.07428e-09
4.19874e-10
-1.96951e-09
1.44485e-09
-1.86158e-09
2.40995e-09
-1.75081e-09
3.31381e-09
-1.63755e-09
4.15525e-09
-1.52213e-09
4.93327e-09
-1.4049e-09
5.64707e-09
-1.28622e-09
6.29605e-09
-1.16644e-09
6.87978e-09
-1.04592e-09
7.39805e-09
-9.25033e-10
7.85085e-09
-8.04137e-10
8.23837e-09
-6.83602e-10
8.56097e-09
-5.638e-10
8.81927e-09
-4.45105e-10
9.01405e-09
-3.27895e-10
9.14633e-09
-2.12552e-10
9.21732e-09
-9.94654e-11
9.22846e-09
1.09659e-11
9.18141e-09
1.18345e-10
9.07806e-09
2.22245e-10
8.92054e-09
3.22238e-10
8.71121e-09
4.17873e-10
8.45271e-09
5.08677e-10
8.14794e-09
5.94151e-10
7.80007e-09
6.73764e-10
7.41261e-09
7.46949e-10
6.98938e-09
8.13096e-10
6.53454e-09
8.71542e-10
6.05266e-09
9.21571e-10
5.54868e-09
9.624e-10
5.02801e-09
9.93174e-10
4.49653e-09
1.01296e-09
3.96062e-09
1.02075e-09
3.4272e-09
1.01544e-09
2.90376e-09
9.95873e-10
2.39834e-09
9.60818e-10
1.91948e-09
9.09066e-10
1.47616e-09
8.39508e-10
1.07757e-09
7.51325e-10
7.32739e-10
6.44336e-10
4.49853e-10
5.19634e-10
2.35278e-10
3.80749e-10
9.20091e-11
2.354e-10
1.74902e-11
9.81722e-11
9.89333e-14
4.3055e-11
-9.84626e-11
1.40217e-10
-2.52799e-10
2.69824e-10
-3.57392e-10
4.14405e-10
-4.13294e-10
5.58823e-10
-4.25709e-10
6.90042e-10
-4.01156e-10
7.97071e-10
-3.46252e-10
8.70854e-10
-2.67119e-10
9.04124e-10
-1.69126e-10
8.91218e-10
-5.68514e-11
8.27882e-10
6.58713e-11
7.11031e-10
1.95859e-10
5.38626e-10
3.30511e-10
3.09458e-10
4.67698e-10
2.30184e-11
6.05698e-10
-3.20629e-10
7.43131e-10
-7.20962e-10
8.78905e-10
-1.17709e-09
1.01216e-09
-1.68785e-09
1.14225e-09
-2.25184e-09
1.26869e-09
-2.86752e-09
1.39114e-09
-3.53322e-09
1.50936e-09
-4.24721e-09
1.62322e-09
-5.00773e-09
1.73269e-09
-5.81301e-09
1.83776e-09
-6.66129e-09
1.93851e-09
-7.55084e-09
2.03504e-09
-8.47997e-09
2.12749e-09
-9.44708e-09
2.21602e-09
-1.04506e-08
2.30081e-09
-1.1489e-08
2.38205e-09
-1.2561e-08
2.45992e-09
-1.36651e-08
2.53461e-09
-1.48e-08
2.6063e-09
-1.59647e-08
2.67518e-09
-1.71579e-08
2.7414e-09
-1.83785e-08
2.80512e-09
-1.96255e-08
2.86648e-09
-2.0898e-08
2.9256e-09
-2.21949e-08
2.98257e-09
-2.35154e-08
3.0375e-09
-2.48586e-08
3.09043e-09
-2.62235e-08
3.14143e-09
-2.76095e-08
3.19052e-09
-2.90155e-08
3.23772e-09
-3.04408e-08
3.28301e-09
-3.18845e-08
3.32638e-09
-3.33456e-08
3.36778e-09
-3.48233e-08
3.40715e-09
-3.63166e-08
3.44443e-09
-3.78246e-08
3.47953e-09
-3.93462e-08
3.51235e-09
-4.08804e-08
3.54278e-09
-4.2426e-08
3.57069e-09
-4.39818e-08
3.59596e-09
-4.55467e-08
3.61844e-09
-4.71192e-08
3.63798e-09
-4.86982e-08
3.65443e-09
-5.02821e-08
3.66763e-09
-5.18694e-08
3.67741e-09
-5.34585e-08
3.6836e-09
-5.50479e-08
3.68603e-09
-5.66358e-08
3.68453e-09
-5.82205e-08
3.67893e-09
-5.98e-08
3.66905e-09
-6.13724e-08
3.65473e-09
-6.29358e-08
3.6358e-09
-6.44881e-08
3.6121e-09
-6.60272e-08
3.58346e-09
-6.75509e-08
3.54974e-09
-6.90569e-08
3.5108e-09
-7.0543e-08
3.46649e-09
-7.20067e-08
3.41669e-09
-7.34458e-08
3.36127e-09
-7.48577e-08
3.30013e-09
-7.624e-08
3.23317e-09
-7.75902e-08
3.1603e-09
-7.89057e-08
3.08146e-09
-8.0184e-08
2.99658e-09
-8.14224e-08
2.90561e-09
-8.26185e-08
2.80853e-09
-8.37695e-08
2.70533e-09
-8.4873e-08
2.596e-09
-8.59263e-08
2.48056e-09
-8.6927e-08
2.35906e-09
-8.78724e-08
2.23154e-09
-8.87601e-08
2.09809e-09
-8.95876e-08
1.9588e-09
-9.03526e-08
1.81378e-09
-9.10526e-08
1.66316e-09
-9.16855e-08
1.5071e-09
-9.22491e-08
1.34577e-09
-9.27411e-08
1.17937e-09
-9.31597e-08
1.00812e-09
-9.3503e-08
8.32252e-10
-9.3769e-08
6.52025e-10
-9.39562e-08
4.67719e-10
-9.4063e-08
2.79632e-10
-9.40879e-08
8.80843e-11
-9.40298e-08
-1.06586e-10
-9.38875e-08
-3.0402e-10
-9.366e-08
-5.03842e-10
-9.33466e-08
-7.05658e-10
-9.29466e-08
-9.09057e-10
-9.24596e-08
-1.11361e-09
-9.18854e-08
-1.31888e-09
-9.12238e-08
-1.52441e-09
-9.04752e-08
-1.72972e-09
-8.96396e-08
-1.93435e-09
-8.87178e-08
-2.13781e-09
-8.77105e-08
-2.33958e-09
-8.66186e-08
-2.53918e-09
-8.54434e-08
-2.7361e-09
-8.41861e-08
-2.92981e-09
-8.28484e-08
-3.11981e-09
-8.14322e-08
-3.30559e-09
-7.99393e-08
-3.48663e-09
-7.83722e-08
-3.66244e-09
-7.67332e-08
-3.8325e-09
-7.50249e-08
-3.99634e-09
-7.32503e-08
-4.15346e-09
-7.14123e-08
-4.30341e-09
-6.95142e-08
-4.44573e-09
-6.75593e-08
-4.57998e-09
-6.55514e-08
-4.70575e-09
-6.3494e-08
-4.82264e-09
-6.13912e-08
-4.93027e-09
-5.92469e-08
-5.02831e-09
-5.70653e-08
-5.11641e-09
-5.48507e-08
-5.1943e-09
-5.26076e-08
-5.2617e-09
-5.03403e-08
-5.31837e-09
-4.80536e-08
-5.36412e-09
-4.57521e-08
-5.39878e-09
-4.34404e-08
-5.42221e-09
-4.11234e-08
-5.4343e-09
-3.88059e-08
-5.43501e-09
-3.64925e-08
-5.42429e-09
-3.41881e-08
-5.40216e-09
-3.18975e-08
-5.36867e-09
-2.96255e-08
-5.32391e-09
-2.73766e-08
-5.26798e-09
-2.51555e-08
-5.20105e-09
-2.29668e-08
-5.12332e-09
-2.0815e-08
-5.03501e-09
-1.87042e-08
-4.93639e-09
-1.66388e-08
-4.82775e-09
-1.46229e-08
-4.70943e-09
-1.26604e-08
-4.58178e-09
-1.0755e-08
-4.4452e-09
-8.91031e-09
-4.30011e-09
-7.12981e-09
-4.14694e-09
-5.41668e-09
-3.98618e-09
-3.77394e-09
-3.8183e-09
-2.20438e-09
-3.64384e-09
-7.10584e-10
-3.46331e-09
7.051e-10
-3.27726e-09
2.04056e-09
-3.08627e-09
3.29393e-09
-2.89092e-09
4.46358e-09
-2.69178e-09
5.54814e-09
-2.48946e-09
6.5465e-09
-2.28458e-09
7.45781e-09
-2.07775e-09
8.28148e-09
-1.86959e-09
9.01717e-09
-1.66073e-09
9.66485e-09
-1.45181e-09
1.02247e-08
-1.24347e-09
1.06973e-08
-1.03636e-09
1.10833e-08
-8.31125e-10
1.13838e-08
-6.28428e-10
1.16002e-08
-4.28936e-10
1.17341e-08
-2.33329e-10
1.17873e-08
-4.22977e-11
1.17622e-08
1.43451e-10
1.16613e-08
3.23186e-10
1.14874e-08
4.96156e-10
1.12437e-08
6.61577e-10
1.09337e-08
8.1863e-10
1.05614e-08
9.66453e-10
1.0131e-08
1.10413e-09
9.6473e-09
1.2307e-09
9.11527e-09
1.34512e-09
8.54054e-09
1.44627e-09
7.92916e-09
1.53296e-09
7.28767e-09
1.60388e-09
6.6232e-09
1.65765e-09
5.94341e-09
1.69275e-09
5.2566e-09
1.70757e-09
4.57164e-09
1.7004e-09
3.89805e-09
1.66947e-09
3.24589e-09
1.61297e-09
2.62576e-09
1.5292e-09
2.04858e-09
1.4167e-09
1.52535e-09
1.27456e-09
1.06674e-09
1.10294e-09
6.82474e-10
9.03894e-10
3.80494e-10
6.82727e-10
1.65938e-10
4.49961e-10
3.9918e-11
2.24191e-10
4.0018e-11
4.64859e-11
-1.44944e-10
1.49416e-10
-3.5574e-10
2.83218e-10
-4.91201e-10
4.27815e-10
-5.57891e-10
5.66367e-10
-5.64257e-10
6.84598e-10
-5.19386e-10
7.70491e-10
-4.32148e-10
8.14074e-10
-3.10705e-10
8.07246e-10
-1.62299e-10
7.43591e-10
6.80405e-12
6.18197e-10
1.91266e-10
4.27453e-10
3.86603e-10
1.68884e-10
5.8908e-10
-1.59024e-10
7.95607e-10
-5.56984e-10
1.00366e-09
-1.02504e-09
1.21118e-09
-1.56267e-09
1.41654e-09
-2.16894e-09
1.61843e-09
-2.84254e-09
1.81586e-09
-3.5819e-09
2.00805e-09
-4.38523e-09
2.19447e-09
-5.25062e-09
2.37474e-09
-6.17602e-09
2.54863e-09
-7.15937e-09
2.71604e-09
-8.19856e-09
2.87695e-09
-9.29149e-09
3.03143e-09
-1.04361e-08
3.17963e-09
-1.16303e-08
3.32172e-09
-1.28722e-08
3.45792e-09
-1.41599e-08
3.58848e-09
-1.54915e-08
3.71366e-09
-1.68653e-08
3.83372e-09
-1.82796e-08
3.94893e-09
-1.97329e-08
4.05956e-09
-2.12235e-08
4.16585e-09
-2.27502e-08
4.26805e-09
-2.43114e-08
4.36637e-09
-2.5906e-08
4.46101e-09
-2.75325e-08
4.55214e-09
-2.91898e-08
4.63991e-09
-3.08768e-08
4.72445e-09
-3.25922e-08
4.80585e-09
-3.43349e-08
4.88417e-09
-3.61039e-08
4.95946e-09
-3.78979e-08
5.03173e-09
-3.97158e-08
5.10096e-09
-4.15566e-08
5.16712e-09
-4.34189e-08
5.23013e-09
-4.53017e-08
5.28992e-09
-4.72036e-08
5.34638e-09
-4.91235e-08
5.39936e-09
-5.10598e-08
5.44871e-09
-5.30113e-08
5.49428e-09
-5.49765e-08
5.53586e-09
-5.69538e-08
5.57327e-09
-5.89417e-08
5.60628e-09
-6.09383e-08
5.63468e-09
-6.29421e-08
5.65821e-09
-6.49511e-08
5.67665e-09
-6.69635e-08
5.68975e-09
-6.89771e-08
5.69723e-09
-7.099e-08
5.69886e-09
-7.29998e-08
5.69438e-09
-7.50044e-08
5.68351e-09
-7.70013e-08
5.66601e-09
-7.89882e-08
5.64162e-09
-8.09625e-08
5.61009e-09
-8.29216e-08
5.57119e-09
-8.48628e-08
5.52467e-09
-8.67834e-08
5.47032e-09
-8.86805e-08
5.40791e-09
-9.05512e-08
5.33724e-09
-9.23927e-08
5.25812e-09
-9.42018e-08
5.17039e-09
-9.59756e-08
5.07388e-09
-9.77108e-08
4.96845e-09
-9.94045e-08
4.85397e-09
-1.01053e-07
4.73035e-09
-1.02654e-07
4.5975e-09
-1.04204e-07
4.45537e-09
-1.05699e-07
4.30391e-09
-1.07137e-07
4.14311e-09
-1.08514e-07
3.97299e-09
-1.09827e-07
3.79359e-09
-1.11073e-07
3.60497e-09
-1.12249e-07
3.40723e-09
-1.13351e-07
3.20049e-09
-1.14377e-07
2.98489e-09
-1.15324e-07
2.76064e-09
-1.16189e-07
2.52792e-09
-1.16969e-07
2.287e-09
-1.17661e-07
2.03814e-09
-1.18264e-07
1.78164e-09
-1.18773e-07
1.51785e-09
-1.19188e-07
1.24714e-09
-1.19506e-07
9.69895e-10
-1.19725e-07
6.86554e-10
-1.19843e-07
3.97577e-10
-1.19858e-07
1.03453e-10
-1.19769e-07
-1.95298e-10
-1.19575e-07
-4.98129e-10
-1.19275e-07
-8.04465e-10
-1.18867e-07
-1.1137e-09
-1.1835e-07
-1.42522e-09
-1.17726e-07
-1.73836e-09
-1.16992e-07
-2.05246e-09
-1.1615e-07
-2.36682e-09
-1.15199e-07
-2.68074e-09
-1.1414e-07
-2.99349e-09
-1.12973e-07
-3.30433e-09
-1.117e-07
-3.6125e-09
-1.10322e-07
-3.91726e-09
-1.0884e-07
-4.21782e-09
-1.07257e-07
-4.51341e-09
-1.05573e-07
-4.80327e-09
-1.03792e-07
-5.08663e-09
-1.01916e-07
-5.3627e-09
-9.99479e-08
-5.63073e-09
-9.78904e-08
-5.88998e-09
-9.5747e-08
-6.1397e-09
-9.35213e-08
-6.37917e-09
-9.1217e-08
-6.60769e-09
-8.88382e-08
-6.82459e-09
-8.6389e-08
-7.02919e-09
-8.38738e-08
-7.22089e-09
-8.12974e-08
-7.39909e-09
-7.86644e-08
-7.56321e-09
-7.598e-08
-7.71275e-09
-7.32492e-08
-7.84721e-09
-7.04773e-08
-7.96615e-09
-6.76699e-08
-8.06918e-09
-6.48323e-08
-8.15593e-09
-6.19703e-08
-8.22612e-09
-5.90896e-08
-8.27947e-09
-5.6196e-08
-8.31579e-09
-5.32954e-08
-8.33493e-09
-5.03936e-08
-8.33678e-09
-4.74966e-08
-8.32132e-09
-4.46102e-08
-8.28855e-09
-4.17403e-08
-8.23855e-09
-3.88928e-08
-8.17143e-09
-3.60734e-08
-8.08737e-09
-3.32879e-08
-7.98662e-09
-3.05417e-08
-7.86946e-09
-2.78405e-08
-7.73624e-09
-2.51895e-08
-7.58735e-09
-2.2594e-08
-7.42323e-09
-2.00591e-08
-7.24438e-09
-1.75895e-08
-7.05135e-09
-1.519e-08
-6.84471e-09
-1.2865e-08
-6.62509e-09
-1.06188e-08
-6.39318e-09
-8.45529e-09
-6.14966e-09
-6.37831e-09
-5.89528e-09
-4.39132e-09
-5.63082e-09
-2.49755e-09
-5.35708e-09
-6.99932e-10
-5.07489e-09
9.98887e-10
-4.78509e-09
2.59655e-09
-4.48858e-09
4.09101e-09
-4.18624e-09
5.48053e-09
-3.87898e-09
6.76369e-09
-3.56774e-09
7.93939e-09
-3.25344e-09
9.00684e-09
-2.93704e-09
9.96561e-09
-2.6195e-09
1.08156e-08
-2.30179e-09
1.1557e-08
-1.98489e-09
1.21904e-08
-1.66979e-09
1.27168e-08
-1.35748e-09
1.31373e-08
-1.04898e-09
1.34537e-08
-7.45309e-10
1.36679e-08
-4.4751e-10
1.37822e-08
-1.56643e-10
1.37995e-08
1.26206e-10
1.37228e-08
3.99924e-10
1.35556e-08
6.63357e-10
1.33018e-08
9.15312e-10
1.29659e-08
1.15454e-09
1.25526e-08
1.37975e-09
1.20672e-08
1.58954e-09
1.15154e-08
1.78248e-09
1.09035e-08
1.95701e-09
1.02383e-08
2.11147e-09
9.52718e-09
2.24412e-09
8.77801e-09
2.35306e-09
7.99938e-09
2.43628e-09
7.20049e-09
2.49163e-09
6.39119e-09
2.51687e-09
5.58196e-09
2.50963e-09
4.78391e-09
2.46751e-09
4.00873e-09
2.38816e-09
3.26853e-09
2.26939e-09
2.57574e-09
2.10949e-09
1.9428e-09
1.9075e-09
1.3818e-09
1.66394e-09
9.04052e-10
1.38164e-09
5.19543e-10
1.06723e-09
2.36518e-10
7.32989e-10
6.13531e-11
3.99354e-10
1.01373e-10
4.58478e-11
-1.90784e-10
1.45793e-10
-4.55683e-10
2.72207e-10
-6.1762e-10
4.03308e-10
-6.88995e-10
5.21067e-10
-6.82015e-10
6.10368e-10
-6.08687e-10
6.58542e-10
-4.80322e-10
6.55057e-10
-3.07223e-10
5.91309e-10
-9.85522e-11
4.60422e-10
1.37691e-10
2.57063e-10
3.94624e-10
-2.27263e-11
6.66393e-10
-3.81712e-10
9.48066e-10
-8.21633e-10
1.23553e-09
-1.34335e-09
1.52537e-09
-1.94697e-09
1.81481e-09
-2.63202e-09
2.10159e-09
-3.3975e-09
2.38391e-09
-4.24199e-09
2.66035e-09
-5.16379e-09
2.92985e-09
-6.16094e-09
3.19161e-09
-7.23128e-09
3.44508e-09
-8.37256e-09
3.6899e-09
-9.58242e-09
3.9259e-09
-1.08585e-08
4.15301e-09
-1.21984e-08
4.37131e-09
-1.35997e-08
4.58095e-09
-1.50601e-08
4.78215e-09
-1.65774e-08
4.97519e-09
-1.81493e-08
5.16037e-09
-1.97737e-08
5.33805e-09
-2.14485e-08
5.50855e-09
-2.31718e-08
5.67225e-09
-2.49417e-08
5.82947e-09
-2.67564e-08
5.98056e-09
-2.86142e-08
6.12583e-09
-3.05134e-08
6.26556e-09
-3.24524e-08
6.40002e-09
-3.44297e-08
6.52944e-09
-3.64438e-08
6.65401e-09
-3.84933e-08
6.77388e-09
-4.05766e-08
6.88919e-09
-4.26925e-08
7.00003e-09
-4.48394e-08
7.10642e-09
-4.70161e-08
7.2084e-09
-4.92211e-08
7.30593e-09
-5.14529e-08
7.39895e-09
-5.37101e-08
7.48737e-09
-5.59913e-08
7.57105e-09
-5.82947e-08
7.64985e-09
-6.06189e-08
7.72357e-09
-6.29622e-08
7.79199e-09
-6.53228e-08
7.85488e-09
-6.7699e-08
7.91198e-09
-7.00887e-08
7.96301e-09
-7.24901e-08
8.00766e-09
-7.4901e-08
8.04562e-09
-7.73194e-08
8.07656e-09
-7.97429e-08
8.10015e-09
-8.21691e-08
8.11602e-09
-8.45957e-08
8.12384e-09
-8.70201e-08
8.12324e-09
-8.94396e-08
8.11387e-09
-9.18515e-08
8.09536e-09
-9.42528e-08
8.06736e-09
-9.66407e-08
8.02953e-09
-9.90122e-08
7.98151e-09
-1.01364e-07
7.92297e-09
-1.03693e-07
7.8536e-09
-1.05996e-07
7.77309e-09
-1.08269e-07
7.68113e-09
-1.10509e-07
7.57746e-09
-1.12713e-07
7.46182e-09
-1.14876e-07
7.33397e-09
-1.16996e-07
7.1937e-09
-1.19069e-07
7.04083e-09
-1.2109e-07
6.87519e-09
-1.23056e-07
6.69666e-09
-1.24964e-07
6.50512e-09
-1.26809e-07
6.3005e-09
-1.28588e-07
6.08278e-09
-1.30297e-07
5.85193e-09
-1.31932e-07
5.608e-09
-1.33489e-07
5.35105e-09
-1.34965e-07
5.08118e-09
-1.36357e-07
4.79855e-09
-1.37659e-07
4.50333e-09
-1.3887e-07
4.19575e-09
-1.39986e-07
3.87608e-09
-1.41002e-07
3.54463e-09
-1.41917e-07
3.20175e-09
-1.42727e-07
2.84784e-09
-1.43428e-07
2.48333e-09
-1.44019e-07
2.10871e-09
-1.44497e-07
1.7245e-09
-1.44858e-07
1.33128e-09
-1.45101e-07
9.29653e-10
-1.45224e-07
5.20271e-10
-1.45224e-07
1.0383e-10
-1.45101e-07
-3.18937e-10
-1.44851e-07
-7.47256e-10
-1.44476e-07
-1.18032e-09
-1.43972e-07
-1.61728e-09
-1.4334e-07
-2.05725e-09
-1.42579e-07
-2.49934e-09
-1.41689e-07
-2.94258e-09
-1.4067e-07
-3.38603e-09
-1.39522e-07
-3.82868e-09
-1.38246e-07
-4.26953e-09
-1.36843e-07
-4.70753e-09
-1.35313e-07
-5.14165e-09
-1.3366e-07
-5.57081e-09
-1.31884e-07
-5.99396e-09
-1.29987e-07
-6.41001e-09
-1.27973e-07
-6.81789e-09
-1.25843e-07
-7.21653e-09
-1.236e-07
-7.60486e-09
-1.21249e-07
-7.98183e-09
-1.18793e-07
-8.34639e-09
-1.16235e-07
-8.69751e-09
-1.1358e-07
-9.03421e-09
-1.10832e-07
-9.35551e-09
-1.07996e-07
-9.66046e-09
-1.05077e-07
-9.94816e-09
-1.02081e-07
-1.02177e-08
-9.90113e-08
-1.04684e-08
-9.58752e-08
-1.06993e-08
-9.26782e-08
-1.09098e-08
-8.94263e-08
-1.10991e-08
-8.61256e-08
-1.12668e-08
-8.27827e-08
-1.14121e-08
-7.94039e-08
-1.15347e-08
-7.5996e-08
-1.16341e-08
-7.25655e-08
-1.17099e-08
-6.91193e-08
-1.17619e-08
-6.56643e-08
-1.17899e-08
-6.22074e-08
-1.17937e-08
-5.87554e-08
-1.17733e-08
-5.53154e-08
-1.17286e-08
-5.1894e-08
-1.16599e-08
-4.84983e-08
-1.15672e-08
-4.51349e-08
-1.14507e-08
-4.18106e-08
-1.13109e-08
-3.85319e-08
-1.11481e-08
-3.53053e-08
-1.09629e-08
-3.21371e-08
-1.07556e-08
-2.90333e-08
-1.0527e-08
-2.6e-08
-1.02777e-08
-2.30429e-08
-1.00085e-08
-2.01674e-08
-9.7202e-09
-1.73788e-08
-9.41366e-09
-1.46822e-08
-9.08981e-09
-1.20822e-08
-8.74963e-09
-9.58332e-09
-8.39415e-09
-7.1897e-09
-8.02444e-09
-4.90515e-09
-7.64163e-09
-2.73318e-09
-7.24686e-09
-6.76947e-10
-6.84133e-09
1.26073e-09
-6.42625e-09
3.07738e-09
-6.00289e-09
4.77091e-09
-5.57252e-09
6.3396e-09
-5.13642e-09
7.78208e-09
-4.69592e-09
9.0974e-09
-4.25236e-09
1.0285e-08
-3.80707e-09
1.13446e-08
-3.36144e-09
1.22765e-08
-2.91682e-09
1.30814e-08
-2.47463e-09
1.37602e-08
-2.03626e-09
1.43143e-08
-1.60315e-09
1.47458e-08
-1.17673e-09
1.50567e-08
-7.58485e-10
1.525e-08
-3.49906e-10
1.53287e-08
4.74755e-11
1.52966e-08
4.32089e-10
1.51576e-08
8.02314e-10
1.49164e-08
1.15648e-09
1.45782e-08
1.49283e-09
1.41483e-08