/*--------------------------------*- C++ -*----------------------------------*\
  =========                 |
  \\      /  F ield         | OpenFOAM: The Open Source CFD Toolbox
   \\    /   O peration     | Website:  https://openfoam.org
    \\  /    A nd           | Version:  7
     \\/     M anipulation  |
\*---------------------------------------------------------------------------*/
FoamFile
{
    version     2.0;
    format      ascii;
    class       volScalarField;
    location    "1.5";
    object      rho;
}
// * * * * * * * * * * * * * * * * * * * * * * * * * * * * * * * * * * * * * //

dimensions      [1 -3 0 0 0 0 0];

internalField   nonuniform List<scalar> 
2413
(
1.41636
1.41144
1.4059
1.40174
1.4002
1.40001
1.40001
1.40001
1.40001
1.40001
1.40001
1.40001
1.40001
1.40001
1.40001
1.40001
1.40001
1.40001
1.40001
1.40001
1.40001
1.40001
1.40001
1.40001
1.40001
1.40001
1.40001
1.40001
1.40001
1.40001
1.40001
1.40001
1.40001
1.40001
1.40001
1.40001
1.40001
1.40001
1.40001
1.40001
1.40001
1.40001
1.40001
1.40001
1.40001
1.40001
1.40001
1.40001
1.40001
1.40001
1.40001
1.40001
1.40001
1.40001
1.40001
1.40001
1.40001
1.40001
1.42232
1.42279
1.42313
1.42325
1.42351
1.424
1.42446
1.42489
1.42538
1.42579
1.42601
1.42617
1.42634
1.42651
1.4267
1.42694
1.42724
1.42763
1.42806
1.42842
1.42864
1.4288
1.42897
1.42915
1.42937
1.42964
1.42997
1.43038
1.43085
1.43128
1.43151
1.43161
1.43165
1.43158
1.43135
1.43092
1.43029
1.42955
1.42881
1.42838
1.42842
1.42856
1.42874
1.42899
1.42935
1.42986
1.43055
1.43133
1.43182
1.43195
1.43199
1.43195
1.43174
1.43125
1.43031
1.42885
1.42685
1.42468
1.42302
1.42227
1.4223
1.42245
1.42273
1.42319
1.42382
1.42448
1.42481
1.42488
1.42487
1.42468
1.42398
1.42267
1.42038
1.41674
1.41167
1.40601
1.40177
1.40021
1.40001
1.40001
1.40001
1.40001
1.40001
1.40001
1.40001
1.40001
1.40001
1.40001
1.40001
1.40001
1.40001
1.40001
1.40001
1.40001
1.40001
1.40001
1.40001
1.40001
1.40001
1.40001
1.40001
1.40001
1.40001
1.40001
1.40001
1.40001
1.40001
1.40001
1.40001
1.40001
1.40001
1.40001
1.40001
1.40001
1.40001
1.40001
1.40001
1.40001
1.40001
1.40001
1.40001
1.40001
1.40001
1.40001
1.40001
1.40001
1.40001
1.40001
1.40001
1.40001
1.40001
1.40001
1.42329
1.42375
1.42394
1.42418
1.42471
1.42521
1.42547
1.42592
1.42653
1.42684
1.42693
1.42708
1.42728
1.42745
1.42765
1.42791
1.42824
1.42865
1.42903
1.4293
1.42949
1.42969
1.4299
1.43014
1.43042
1.43077
1.4312
1.43167
1.43204
1.43223
1.43233
1.43237
1.43233
1.43216
1.43175
1.43109
1.43028
1.42946
1.429
1.42905
1.4292
1.4294
1.42969
1.43007
1.4306
1.4313
1.43207
1.43256
1.43271
1.43276
1.43277
1.43264
1.43213
1.43116
1.42975
1.42786
1.4258
1.42411
1.42322
1.4232
1.42335
1.42363
1.42408
1.42471
1.42535
1.42565
1.42571
1.42569
1.42545
1.42468
1.42326
1.42081
1.41697
1.4117
1.40592
1.40171
1.40019
1.40001
1.40001
1.40001
1.40001
1.40001
1.40001
1.40001
1.40001
1.40001
1.40001
1.40001
1.40001
1.40001
1.40001
1.40001
1.40001
1.40001
1.40001
1.40001
1.40001
1.40001
1.40001
1.40001
1.40001
1.40001
1.40001
1.40001
1.40001
1.40001
1.40001
1.40001
1.40001
1.40001
1.40001
1.40001
1.40001
1.40001
1.40001
1.40001
1.40001
1.40001
1.40001
1.40001
1.40001
1.40001
1.40001
1.40001
1.40001
1.40001
1.40001
1.40001
1.40001
1.40001
1.40001
1.40001
1.42419
1.42467
1.42489
1.42527
1.42601
1.42654
1.42666
1.427
1.42761
1.42786
1.42786
1.42797
1.4282
1.4284
1.42862
1.4289
1.42927
1.42967
1.43002
1.43027
1.4305
1.43074
1.431
1.43131
1.43167
1.43209
1.43253
1.43285
1.433
1.43307
1.43308
1.43297
1.4327
1.43223
1.43161
1.4309
1.43019
1.42976
1.42982
1.43
1.43023
1.43054
1.43095
1.4315
1.43219
1.43291
1.43333
1.43345
1.43348
1.43342
1.43317
1.43266
1.43184
1.43059
1.42886
1.42693
1.42527
1.42426
1.42418
1.42433
1.42462
1.42507
1.4257
1.42629
1.42655
1.42661
1.42657
1.42626
1.42537
1.4238
1.42113
1.41702
1.41151
1.40565
1.40156
1.40017
1.40001
1.40001
1.40001
1.40001
1.40001
1.40001
1.40001
1.40001
1.40001
1.40001
1.40001
1.40001
1.40001
1.40001
1.40001
1.40001
1.40001
1.40001
1.40001
1.40001
1.40001
1.40001
1.40001
1.40001
1.40001
1.40001
1.40001
1.40001
1.40001
1.40001
1.40001
1.40001
1.40001
1.40001
1.40001
1.40001
1.40001
1.40001
1.40001
1.40001
1.40001
1.40001
1.40001
1.40001
1.40001
1.40001
1.40001
1.40001
1.40001
1.40001
1.40001
1.40001
1.40001
1.40001
1.40001
1.40001
1.42543
1.42601
1.42623
1.42659
1.4273
1.42782
1.42785
1.42798
1.4285
1.42877
1.42877
1.42889
1.42915
1.42939
1.42966
1.42999
1.43038
1.43076
1.43107
1.43133
1.43159
1.43188
1.4322
1.43258
1.43299
1.43338
1.43362
1.43375
1.4338
1.43379
1.43366
1.43343
1.43304
1.43243
1.43167
1.4309
1.43054
1.43063
1.43083
1.43109
1.43144
1.43187
1.43243
1.43311
1.43377
1.43415
1.43426
1.43431
1.43431
1.43411
1.43357
1.43266
1.43141
1.42981
1.42805
1.42646
1.42538
1.42525
1.4254
1.4257
1.42616
1.42678
1.42732
1.42753
1.42757
1.42751
1.42709
1.42605
1.42427
1.42131
1.41686
1.41107
1.40519
1.40133
1.40013
1.40001
1.40001
1.40001
1.40001
1.40001
1.40001
1.40001
1.40001
1.40001
1.40001
1.40001
1.40001
1.40001
1.40001
1.40001
1.40001
1.40001
1.40001
1.40001
1.40001
1.40001
1.40001
1.40001
1.40001
1.40001
1.40001
1.40001
1.40001
1.40001
1.40001
1.40001
1.40001
1.40001
1.40001
1.40001
1.40001
1.40001
1.40001
1.40001
1.40001
1.40001
1.40001
1.40001
1.40001
1.40001
1.40001
1.40001
1.40001
1.40001
1.40001
1.40001
1.40001
1.40001
1.40001
1.40001
1.40001
1.40001
1.42681
1.42749
1.42768
1.42794
1.42856
1.42903
1.42909
1.42908
1.42946
1.42972
1.42972
1.42984
1.43012
1.43042
1.43076
1.43115
1.43157
1.43194
1.43225
1.43253
1.43283
1.43317
1.43355
1.43394
1.43424
1.43442
1.43452
1.43456
1.43454
1.43438
1.43409
1.43364
1.43306
1.4324
1.43174
1.43145
1.43157
1.43179
1.43208
1.43245
1.43292
1.4335
1.43415
1.43468
1.43492
1.435
1.43501
1.43489
1.43457
1.43404
1.4333
1.43223
1.43081
1.4292
1.4277
1.42658
1.42641
1.42657
1.42687
1.42735
1.42796
1.42844
1.42859
1.42862
1.42851
1.42791
1.42669
1.42463
1.4213
1.41644
1.41037
1.40454
1.40105
1.40009
1.40001
1.40001
1.40001
1.40001
1.40001
1.40001
1.40001
1.40001
1.40001
1.40001
1.40001
1.40001
1.40001
1.40001
1.40001
1.40001
1.40001
1.40001
1.40001
1.40001
1.40001
1.40001
1.40001
1.40001
1.40001
1.40001
1.40001
1.40001
1.40001
1.40001
1.40001
1.40001
1.40001
1.40001
1.40001
1.40001
1.40001
1.40001
1.40001
1.40001
1.40001
1.40001
1.40001
1.40001
1.40001
1.40001
1.40001
1.40001
1.40001
1.40001
1.40001
1.40001
1.40001
1.40001
1.40001
1.40001
1.40001
1.40001
1.42824
1.42884
1.42898
1.42911
1.42963
1.43006
1.43012
1.43008
1.43043
1.43073
1.43083
1.431
1.43132
1.4317
1.4321
1.43253
1.43292
1.43326
1.43357
1.43388
1.43422
1.43458
1.43491
1.43514
1.43527
1.43534
1.43536
1.4353
1.43514
1.4349
1.43452
1.43393
1.4332
1.43255
1.43239
1.43255
1.4328
1.43313
1.43355
1.43404
1.43461
1.43519
1.43559
1.43574
1.43579
1.43579
1.4357
1.43545
1.43494
1.43416
1.43312
1.43182
1.43037
1.42897
1.42786
1.42767
1.42784
1.42816
1.42866
1.42925
1.42964
1.42975
1.42975
1.42953
1.42871
1.42726
1.42483
1.42104
1.41572
1.40939
1.40376
1.40076
1.40005
1.40001
1.40001
1.40001
1.40001
1.40001
1.40001
1.40001
1.40001
1.40001
1.40001
1.40001
1.40001
1.40001
1.40001
1.40001
1.40001
1.40001
1.40001
1.40001
1.40001
1.40001
1.40001
1.40001
1.40001
1.40001
1.40001
1.40001
1.40001
1.40001
1.40001
1.40001
1.40001
1.40001
1.40001
1.40001
1.40001
1.40001
1.40001
1.40001
1.40001
1.40001
1.40001
1.40001
1.40001
1.40001
1.40001
1.40001
1.40001
1.40001
1.40001
1.40001
1.40001
1.40001
1.40001
1.40001
1.40001
1.40001
1.40001
1.40001
1.42972
1.43023
1.43034
1.43037
1.43079
1.43112
1.43114
1.43108
1.43135
1.43164
1.43187
1.43217
1.43256
1.43303
1.43349
1.4339
1.43426
1.43458
1.4349
1.43524
1.43558
1.43586
1.43605
1.43618
1.43626
1.4363
1.43626
1.43608
1.43577
1.4353
1.43472
1.43407
1.43356
1.4335
1.43369
1.43395
1.4343
1.43472
1.43522
1.43577
1.43624
1.4365
1.4366
1.43663
1.43661
1.43645
1.43612
1.43561
1.43491
1.434
1.43287
1.43157
1.43026
1.4292
1.42902
1.42921
1.42956
1.43009
1.43064
1.43092
1.431
1.43096
1.43055
1.42947
1.4277
1.42482
1.42047
1.41464
1.40815
1.4029
1.40049
1.40003
1.40001
1.40001
1.40001
1.40001
1.40001
1.40001
1.40001
1.40001
1.40001
1.40001
1.40001
1.40001
1.40001
1.40001
1.40001
1.40001
1.40001
1.40001
1.40001
1.40001
1.40001
1.40001
1.40001
1.40001
1.40001
1.40001
1.40001
1.40001
1.40001
1.40001
1.40001
1.40001
1.40001
1.40001
1.40001
1.40001
1.40001
1.40001
1.40001
1.40001
1.40001
1.40001
1.40001
1.40001
1.40001
1.40001
1.40001
1.40001
1.40001
1.40001
1.40001
1.40001
1.40001
1.40001
1.40001
1.40001
1.40001
1.40001
1.40001
1.40001
1.43097
1.43141
1.43149
1.43156
1.43199
1.4323
1.43235
1.43243
1.43272
1.43305
1.43337
1.43374
1.43418
1.43464
1.43506
1.43541
1.43573
1.43605
1.43636
1.43664
1.43685
1.43699
1.43708
1.43713
1.43714
1.43709
1.43696
1.43674
1.43634
1.43572
1.43502
1.43462
1.4347
1.43493
1.43523
1.43561
1.43606
1.43654
1.437
1.43732
1.43746
1.43752
1.43754
1.43751
1.4374
1.43717
1.43671
1.43598
1.43508
1.43401
1.43281
1.43156
1.43061
1.4305
1.43071
1.4311
1.43164
1.43212
1.43231
1.43235
1.43223
1.43152
1.43015
1.42795
1.42449
1.41951
1.41318
1.40667
1.40204
1.40027
1.40002
1.40001
1.40001
1.40001
1.40001
1.40001
1.40001
1.40001
1.40001
1.40001
1.40001
1.40001
1.40001
1.40001
1.40001
1.40001
1.40001
1.40001
1.40001
1.40001
1.40001
1.40001
1.40001
1.40001
1.40001
1.40001
1.40001
1.40001
1.40001
1.40001
1.40001
1.40001
1.40001
1.40001
1.40001
1.40001
1.40001
1.40001
1.40001
1.40001
1.40001
1.40001
1.40001
1.40001
1.40001
1.40001
1.40001
1.40001
1.40001
1.40001
1.40001
1.40001
1.40001
1.40001
1.40001
1.40001
1.40001
1.40001
1.40001
1.40001
1.40001
1.40001
1.43223
1.43253
1.4325
1.43259
1.43301
1.43323
1.43334
1.43364
1.43403
1.43445
1.43491
1.43537
1.43581
1.43622
1.43658
1.4369
1.43721
1.43752
1.43778
1.43798
1.43813
1.43825
1.43834
1.43837
1.4383
1.43806
1.43766
1.43713
1.43654
1.43603
1.43585
1.43599
1.43625
1.43657
1.43697
1.43742
1.43788
1.43827
1.4385
1.43861
1.43867
1.43868
1.43858
1.43834
1.43795
1.4374
1.43673
1.43597
1.43507
1.43404
1.43291
1.43212
1.43209
1.43235
1.43279
1.43333
1.4337
1.43382
1.43381
1.43347
1.43239
1.43066
1.42791
1.42376
1.41808
1.41134
1.40508
1.40128
1.40013
1.40001
1.40001
1.40001
1.40001
1.40001
1.40001
1.40001
1.40001
1.40001
1.40001
1.40001
1.40001
1.40001
1.40001
1.40001
1.40001
1.40001
1.40001
1.40001
1.40001
1.40001
1.40001
1.40001
1.40001
1.40001
1.40001
1.40001
1.40001
1.40001
1.40001
1.40001
1.40001
1.40001
1.40001
1.40001
1.40001
1.40001
1.40001
1.40001
1.40001
1.40001
1.40001
1.40001
1.40001
1.40001
1.40001
1.40001
1.40001
1.40001
1.40001
1.40001
1.40001
1.40001
1.40001
1.40001
1.40001
1.40001
1.40001
1.40001
1.40001
1.40001
1.40001
1.40001
1.43376
1.434
1.43399
1.43421
1.43466
1.43487
1.43508
1.43547
1.43589
1.43629
1.43673
1.43714
1.43749
1.43781
1.43812
1.4384
1.43865
1.43886
1.43902
1.43913
1.43922
1.43929
1.43933
1.43934
1.43922
1.43889
1.43835
1.4377
1.43726
1.43727
1.43748
1.43777
1.43812
1.43851
1.4389
1.43924
1.43946
1.43958
1.43964
1.43967
1.4397
1.43971
1.43957
1.43918
1.43858
1.43785
1.43706
1.43621
1.43527
1.4343
1.43376
1.43383
1.43414
1.43464
1.43514
1.43539
1.43545
1.43535
1.43462
1.43315
1.43092
1.42746
1.42251
1.41611
1.40916
1.40349
1.40069
1.40005
1.40001
1.40001
1.40001
1.40001
1.40001
1.40001
1.40001
1.40001
1.40001
1.40001
1.40001
1.40001
1.40001
1.40001
1.40001
1.40001
1.40001
1.40001
1.40001
1.40001
1.40001
1.40001
1.40001
1.40001
1.40001
1.40001
1.40001
1.40001
1.40001
1.40001
1.40001
1.40001
1.40001
1.40001
1.40001
1.40001
1.40001
1.40001
1.40001
1.40001
1.40001
1.40001
1.40001
1.40001
1.40001
1.40001
1.40001
1.40001
1.40001
1.40001
1.40001
1.40001
1.40001
1.40001
1.40001
1.40001
1.40001
1.40001
1.40001
1.40001
1.40001
1.40001
1.40001
1.40001
1.43503
1.43517
1.43527
1.43565
1.43618
1.43646
1.43683
1.43738
1.43783
1.4382
1.4386
1.43895
1.43925
1.43954
1.43983
1.44008
1.44029
1.44046
1.4406
1.44069
1.44072
1.44065
1.44044
1.4401
1.43966
1.43917
1.43875
1.43861
1.43876
1.43902
1.43934
1.43972
1.44011
1.44048
1.44077
1.44095
1.44106
1.44111
1.44107
1.44089
1.44059
1.4402
1.43973
1.43925
1.43877
1.43822
1.43753
1.43666
1.43585
1.43557
1.43574
1.43613
1.43667
1.43707
1.43722
1.43721
1.4368
1.43558
1.43368
1.43076
1.42646
1.42062
1.41362
1.4068
1.4021
1.4003
1.40002
1.40001
1.40001
1.40001
1.40001
1.40001
1.40001
1.40001
1.40001
1.40001
1.40001
1.40001
1.40001
1.40001
1.40001
1.40001
1.40001
1.40001
1.40001
1.40001
1.40001
1.40001
1.40001
1.40001
1.40001
1.40001
1.40001
1.40001
1.40001
1.40001
1.40001
1.40001
1.40001
1.40001
1.40001
1.40001
1.40001
1.40001
1.40001
1.40001
1.40001
1.40001
1.40001
1.40001
1.40001
1.40001
1.40001
1.40001
1.40001
1.40001
1.40001
1.40001
1.40001
1.40001
1.40001
1.40001
1.40001
1.40001
1.40001
1.40001
1.40001
1.40001
1.40001
1.40001
1.40001
1.40001
1.437
1.43712
1.43729
1.43778
1.43834
1.43859
1.43891
1.43938
1.43971
1.43996
1.44025
1.44055
1.4408
1.44104
1.44127
1.44146
1.44163
1.44176
1.44187
1.44194
1.44194
1.44179
1.44147
1.44103
1.44055
1.44024
1.44029
1.44051
1.44078
1.44109
1.4414
1.44169
1.44192
1.44207
1.44216
1.44224
1.44232
1.44238
1.44233
1.44206
1.44159
1.44106
1.44052
1.43997
1.43936
1.4387
1.43804
1.43757
1.43757
1.43785
1.43833
1.43884
1.43911
1.43917
1.43901
1.43807
1.43635
1.43382
1.43004
1.42474
1.41802
1.41069
1.40449
1.40106
1.40011
1.40001
1.40001
1.40001
1.40001
1.40001
1.40001
1.40001
1.40001
1.40001
1.40001
1.40001
1.40001
1.40001
1.40001
1.40001
1.40001
1.40001
1.40001
1.40001
1.40001
1.40001
1.40001
1.40001
1.40001
1.40001
1.40001
1.40001
1.40001
1.40001
1.40001
1.40001
1.40001
1.40001
1.40001
1.40001
1.40001
1.40001
1.40001
1.40001
1.40001
1.40001
1.40001
1.40001
1.40001
1.40001
1.40001
1.40001
1.40001
1.40001
1.40001
1.40001
1.40001
1.40001
1.40001
1.40001
1.40001
1.40001
1.40001
1.40001
1.40001
1.40001
1.40001
1.40001
1.40001
1.40001
1.40001
1.40001
1.43877
1.43893
1.43924
1.43983
1.44032
1.44057
1.44094
1.44138
1.44167
1.44192
1.44219
1.44244
1.44265
1.44282
1.44296
1.44304
1.44308
1.44305
1.44294
1.44278
1.44257
1.44232
1.44205
1.44186
1.44188
1.44207
1.44234
1.44265
1.44297
1.44328
1.44354
1.44375
1.44388
1.44395
1.44391
1.44371
1.44338
1.44299
1.4426
1.44225
1.44199
1.44176
1.44145
1.44096
1.44032
1.43976
1.43961
1.43981
1.44023
1.44076
1.44115
1.44129
1.44126
1.4406
1.43903
1.43676
1.43337
1.42853
1.42217
1.41474
1.40757
1.40253
1.40043
1.40003
1.40001
1.40001
1.40001
1.40001
1.40001
1.40001
1.40001
1.40001
1.40001
1.40001
1.40001
1.40001
1.40001
1.40001
1.40001
1.40001
1.40001
1.40001
1.40001
1.40001
1.40001
1.40001
1.40001
1.40001
1.40001
1.40001
1.40001
1.40001
1.40001
1.40001
1.40001
1.40001
1.40001
1.40001
1.40001
1.40001
1.40001
1.40001
1.40001
1.40001
1.40001
1.40001
1.40001
1.40001
1.40001
1.40001
1.40001
1.40001
1.40001
1.40001
1.40001
1.40001
1.40001
1.40001
1.40001
1.40001
1.40001
1.40001
1.40001
1.40001
1.40001
1.40001
1.40001
1.40001
1.40001
1.40001
1.40001
1.40001
1.44101
1.44115
1.44149
1.44207
1.44237
1.4425
1.44282
1.44317
1.44338
1.4436
1.44385
1.44407
1.44426
1.44443
1.44455
1.44463
1.44465
1.44458
1.44443
1.44422
1.444
1.44379
1.44374
1.44388
1.44409
1.44432
1.44455
1.44476
1.44494
1.44508
1.4452
1.44531
1.44541
1.44548
1.44542
1.44511
1.44466
1.44422
1.44384
1.44348
1.44306
1.44259
1.44213
1.44179
1.44171
1.44188
1.44225
1.44282
1.44334
1.44357
1.44361
1.44322
1.44184
1.43968
1.43657
1.43208
1.42605
1.4187
1.41098
1.40464
1.40115
1.40013
1.40001
1.40001
1.40001
1.40001
1.40001
1.40001
1.40001
1.40001
1.40001
1.40001
1.40001
1.40001
1.40001
1.40001
1.40001
1.40001
1.40001
1.40001
1.40001
1.40001
1.40001
1.40001
1.40001
1.40001
1.40001
1.40001
1.40001
1.40001
1.40001
1.40001
1.40001
1.40001
1.40001
1.40001
1.40001
1.40001
1.40001
1.40001
1.40001
1.40001
1.40001
1.40001
1.40001
1.40001
1.40001
1.40001
1.40001
1.40001
1.40001
1.40001
1.40001
1.40001
1.40001
1.40001
1.40001
1.40001
1.40001
1.40001
1.40001
1.40001
1.40001
1.40001
1.40001
1.40001
1.40001
1.40001
1.40001
1.40001
1.40001
1.40001
1.443
1.44316
1.44353
1.444
1.44418
1.44438
1.44477
1.44506
1.44525
1.44543
1.44558
1.44566
1.44569
1.44569
1.44569
1.4457
1.44569
1.44568
1.44565
1.44564
1.44568
1.44583
1.44605
1.44631
1.44657
1.44682
1.44703
1.44719
1.44731
1.44734
1.44722
1.44695
1.44656
1.44612
1.4457
1.4454
1.44525
1.44519
1.44512
1.44491
1.44453
1.44413
1.44401
1.44418
1.44455
1.44511
1.44571
1.44605
1.44614
1.44592
1.44472
1.44264
1.43971
1.43547
1.4297
1.42246
1.41445
1.40716
1.40232
1.40039
1.40003
1.40001
1.40001
1.40001
1.40001
1.40001
1.40001
1.40001
1.40001
1.40001
1.40001
1.40001
1.40001
1.40001
1.40001
1.40001
1.40001
1.40001
1.40001
1.40001
1.40001
1.40001
1.40001
1.40001
1.40001
1.40001
1.40001
1.40001
1.40001
1.40001
1.40001
1.40001
1.40001
1.40001
1.40001
1.40001
1.40001
1.40001
1.40001
1.40001
1.40001
1.40001
1.40001
1.40001
1.40001
1.40001
1.40001
1.40001
1.40001
1.40001
1.40001
1.40001
1.40001
1.40001
1.40001
1.40001
1.40001
1.40001
1.40001
1.40001
1.40001
1.40001
1.40001
1.40001
1.40001
1.40001
1.40001
1.40001
1.40001
1.40001
1.40001
1.40001
1.44488
1.44506
1.44549
1.44586
1.44597
1.44623
1.44665
1.4469
1.44705
1.44723
1.44741
1.44754
1.44764
1.44771
1.44776
1.44778
1.44777
1.44774
1.44775
1.44783
1.44798
1.44816
1.44834
1.44851
1.44866
1.4488
1.44893
1.44906
1.44916
1.44916
1.44894
1.44853
1.44808
1.44767
1.44737
1.44712
1.44682
1.44645
1.4461
1.44594
1.44601
1.44624
1.44671
1.44744
1.44822
1.44868
1.44884
1.44878
1.44777
1.44572
1.44287
1.43878
1.43317
1.42601
1.41782
1.40985
1.40386
1.40088
1.4001
1.40001
1.40001
1.40001
1.40001
1.40001
1.40001
1.40001
1.40001
1.40001
1.40001
1.40001
1.40001
1.40001
1.40001
1.40001
1.40001
1.40001
1.40001
1.40001
1.40001
1.40001
1.40001
1.40001
1.40001
1.40001
1.40001
1.40001
1.40001
1.40001
1.40001
1.40001
1.40001
1.40001
1.40001
1.40001
1.40001
1.40001
1.40001
1.40001
1.40001
1.40001
1.40001
1.40001
1.40001
1.40001
1.40001
1.40001
1.40001
1.40001
1.40001
1.40001
1.40001
1.40001
1.40001
1.40001
1.40001
1.40001
1.40001
1.40001
1.40001
1.40001
1.40001
1.40001
1.40001
1.40001
1.40001
1.40001
1.40001
1.40001
1.40001
1.40001
1.40001
1.40001
1.44709
1.44738
1.44784
1.44814
1.4483
1.44863
1.44898
1.44913
1.4492
1.4493
1.44939
1.44944
1.4495
1.44964
1.4498
1.44995
1.45008
1.45024
1.45044
1.45066
1.45089
1.4511
1.45128
1.45141
1.45143
1.45129
1.45099
1.45058
1.45011
1.44962
1.4492
1.44896
1.44892
1.44898
1.44906
1.44904
1.44883
1.44862
1.44866
1.4489
1.44937
1.45009
1.45093
1.45155
1.45177
1.45178
1.45089
1.44884
1.44603
1.44204
1.4365
1.42936
1.42101
1.41253
1.40561
1.4016
1.40024
1.40002
1.40001
1.40001
1.40001
1.40001
1.40001
1.40001
1.40001
1.40001
1.40001
1.40001
1.40001
1.40001
1.40001
1.40001
1.40001
1.40001
1.40001
1.40001
1.40001
1.40001
1.40001
1.40001
1.40001
1.40001
1.40001
1.40001
1.40001
1.40001
1.40001
1.40001
1.40001
1.40001
1.40001
1.40001
1.40001
1.40001
1.40001
1.40001
1.40001
1.40001
1.40001
1.40001
1.40001
1.40001
1.40001
1.40001
1.40001
1.40001
1.40001
1.40001
1.40001
1.40001
1.40001
1.40001
1.40001
1.40001
1.40001
1.40001
1.40001
1.40001
1.40001
1.40001
1.40001
1.40001
1.40001
1.40001
1.40001
1.40001
1.40001
1.40001
1.40001
1.40001
1.40001
1.40001
1.44937
1.44987
1.4504
1.4507
1.45097
1.45127
1.45145
1.45144
1.45146
1.45168
1.45186
1.45197
1.45208
1.45219
1.45228
1.45237
1.45251
1.45267
1.45284
1.45302
1.45321
1.45341
1.45359
1.45371
1.45367
1.45336
1.45288
1.4524
1.45197
1.45165
1.45142
1.4512
1.45091
1.45059
1.45035
1.45035
1.45052
1.45091
1.45166
1.45271
1.45382
1.4546
1.4549
1.45498
1.45417
1.45209
1.44926
1.44527
1.43971
1.43252
1.42399
1.41508
1.40739
1.40247
1.40047
1.40004
1.40001
1.40001
1.40001
1.40001
1.40001
1.40001
1.40001
1.40001
1.40001
1.40001
1.40001
1.40001
1.40001
1.40001
1.40001
1.40001
1.40001
1.40001
1.40001
1.40001
1.40001
1.40001
1.40001
1.40001
1.40001
1.40001
1.40001
1.40001
1.40001
1.40001
1.40001
1.40001
1.40001
1.40001
1.40001
1.40001
1.40001
1.40001
1.40001
1.40001
1.40001
1.40001
1.40001
1.40001
1.40001
1.40001
1.40001
1.40001
1.40001
1.40001
1.40001
1.40001
1.40001
1.40001
1.40001
)
;

boundaryField
{
    inlet
    {
        type            calculated;
        value           nonuniform 0();
    }
    outlet
    {
        type            calculated;
        value           nonuniform List<scalar> 
18
(
1.40001
1.40001
1.40001
1.40001
1.40001
1.40001
1.40001
1.40001
1.40001
1.40001
1.40001
1.40001
1.40001
1.40001
1.40001
1.40001
1.40001
1.40001
)
;
    }
    bottom
    {
        type            symmetryPlane;
    }
    top
    {
        type            symmetryPlane;
    }
    obstacle
    {
        type            calculated;
        value           nonuniform 0();
    }
    front
    {
        type            empty;
    }
    back
    {
        type            empty;
    }
    procBoundary23to15
    {
        type            processor;
        value           nonuniform List<scalar> 
133
(
1.41928
1.41586
1.41104
1.40563
1.40161
1.40018
1.40001
1.40001
1.40001
1.40001
1.40001
1.40001
1.40001
1.40001
1.40001
1.40001
1.40001
1.40001
1.40001
1.40001
1.40001
1.40001
1.40001
1.40001
1.40001
1.40001
1.40001
1.40001
1.40001
1.40001
1.40001
1.40001
1.40001
1.40001
1.40001
1.40001
1.40001
1.40001
1.40001
1.40001
1.40001
1.40001
1.40001
1.40001
1.40001
1.40001
1.40001
1.40001
1.40001
1.40001
1.40001
1.40001
1.40001
1.40001
1.40001
1.40001
1.40001
1.40001
1.42153
1.42204
1.42254
1.42263
1.42269
1.42307
1.42362
1.42392
1.42426
1.4247
1.42504
1.42525
1.42541
1.42558
1.42578
1.42601
1.4263
1.42665
1.42708
1.42755
1.42788
1.42805
1.42818
1.42832
1.42849
1.42869
1.42893
1.42923
1.42961
1.43008
1.43054
1.43081
1.43092
1.43098
1.43097
1.43084
1.43046
1.4298
1.42896
1.42816
1.42776
1.42781
1.42793
1.4281
1.42833
1.42867
1.42918
1.42988
1.43066
1.43112
1.43123
1.43127
1.43125
1.43106
1.43053
1.42949
1.42791
1.42578
1.42356
1.42198
1.42142
1.42147
1.42163
1.42192
1.42237
1.42302
1.4237
1.42404
1.4241
1.4241
1.42393
1.42328
1.42205
1.41987
1.41987
)
;
    }
    procBoundary23to22
    {
        type            processor;
        value           nonuniform List<scalar> 
17
(
1.42219
1.42296
1.42371
1.42488
1.42618
1.42763
1.42914
1.43041
1.43172
1.43324
1.43455
1.43656
1.43839
1.44069
1.44274
1.44472
1.44693
)
;
    }
    procBoundary23to30
    {
        type            processor;
        value           uniform 1.449;
    }
    procBoundary23to31
    {
        type            processor;
        value           nonuniform List<scalar> 
133
(
1.40001
1.40001
1.40001
1.40001
1.40001
1.40001
1.40001
1.40001
1.40001
1.40001
1.40001
1.40001
1.40001
1.40001
1.40001
1.40001
1.40001
1.40001
1.40001
1.40001
1.40001
1.45238
1.45296
1.45342
1.45369
1.45397
1.45423
1.45437
1.45433
1.45435
1.45452
1.45468
1.45485
1.45507
1.45528
1.45548
1.45569
1.45591
1.45609
1.45621
1.45622
1.45604
1.45568
1.45521
1.45467
1.45413
1.45368
1.45344
1.4534
1.4535
1.45365
1.45377
1.45376
1.45361
1.45358
1.45375
1.45411
1.45476
1.45574
1.45693
1.4579
1.4583
1.45836
1.4575
1.45533
1.45244
1.44841
1.44278
1.43546
1.42671
1.4174
1.40909
1.40339
1.40076
1.40009
1.40001
1.40001
1.40001
1.40001
1.40001
1.40001
1.40001
1.40001
1.40001
1.40001
1.40001
1.40001
1.40001
1.40001
1.40001
1.40001
1.40001
1.40001
1.40001
1.40001
1.40001
1.40001
1.40001
1.40001
1.40001
1.40001
1.40001
1.40001
1.40001
1.40001
1.40001
1.40001
1.40001
1.40001
1.40001
1.40001
1.40001
1.40001
1.40001
1.40001
1.40001
1.40001
1.40001
1.40001
1.40001
1.40001
1.40001
1.40001
1.40001
1.40001
1.40001
1.40001
1.40001
1.40001
1.40001
1.40001
1.40001
1.40001
)
;
    }
}


// ************************************************************************* //
