/*--------------------------------*- C++ -*----------------------------------*\
  =========                 |
  \\      /  F ield         | OpenFOAM: The Open Source CFD Toolbox
   \\    /   O peration     | Website:  https://openfoam.org
    \\  /    A nd           | Version:  7
     \\/     M anipulation  |
\*---------------------------------------------------------------------------*/
FoamFile
{
    version     2.0;
    format      ascii;
    class       surfaceScalarField;
    location    "65";
    object      phi;
}
// * * * * * * * * * * * * * * * * * * * * * * * * * * * * * * * * * * * * * //

dimensions      [0 3 -1 0 0 0 0];

internalField   nonuniform List<scalar> 
82640
(
-6.92092e-05
-0.000126926
0.000196135
-0.00015481
-0.000132169
0.00021777
-0.000251176
-9.26405e-05
0.000189006
-0.000344967
-2.07583e-05
0.00011455
-0.000442025
0.000116355
-1.92972e-05
-0.000538593
0.000330811
-0.000234243
-0.000635311
0.000624443
-0.000527724
-0.000730239
0.000977765
-0.000882837
-0.000822426
0.00134827
-0.00125608
-0.00091096
0.00167057
-0.00158204
-0.000995137
0.00186191
-0.00177774
-0.00107312
0.00182999
-0.001752
-0.00114215
0.00149432
-0.00142529
-0.00119608
0.000796363
-0.000742432
-0.0012337
-0.000244102
0.000281718
-0.00125375
-0.00156049
0.00158054
-0.00126785
-0.00294705
0.00296115
-0.00127854
-0.00423926
0.00424994
-0.00127445
-0.00514203
0.00513794
-0.00123784
-0.0054719
0.00543529
-0.00108699
-0.00497245
0.00482161
-0.000838311
-0.00357981
0.00333113
-0.000463648
-0.0014678
0.00109314
-8.25595e-05
0.00120113
-0.00158221
0.00375289
-0.00408693
0.000251478
-6.93165e-05
-5.76092e-05
-0.000154748
-4.67382e-05
-0.000250497
3.10879e-06
-0.00034293
7.16747e-05
-0.000437568
0.000210993
-0.000530333
0.000423576
-0.000621598
0.000715708
-0.0007092
0.00106537
-0.000791988
0.00143106
-0.000868791
0.00174737
-0.000938554
0.00193168
-0.000999006
0.00189044
-0.00104717
0.00154249
-0.00107717
0.000826364
-0.00108944
-0.000231832
-0.0010864
-0.00156353
-0.00108687
-0.00294658
-0.00110139
-0.00422474
-0.00113161
-0.00511181
-0.0011596
-0.00544391
-0.00110439
-0.00502767
-0.000975847
-0.00370835
-0.000706964
-0.00173669
-0.000415947
0.000910109
0.00343171
-9.47663e-05
-6.92167e-05
1.16075e-05
-0.000154069
3.8114e-05
-0.000248594
9.76342e-05
-0.000338779
0.000161859
-0.000429747
0.000301961
-0.000517016
0.000510845
-0.000600577
0.000799268
-0.000677918
0.00114271
-0.000747509
0.00150065
-0.000807718
0.00180758
-0.000856912
0.00198087
-0.000892184
0.00192571
-0.000910092
0.0015604
-0.000904801
0.000821073
-0.000877761
-0.000258872
-0.000834512
-0.00160678
-0.000800152
-0.00298094
-0.000792542
-0.00423235
-0.000827894
-0.00507645
-0.000887273
-0.00538453
-0.000898541
-0.0050164
-0.00085525
-0.00375164
-0.0006602
-0.00193174
-0.000412562
0.000662471
0.00307904
-5.98961e-05
-6.89146e-05
8.05221e-05
-0.000152786
0.000121986
-0.000245494
0.000190342
-0.000332564
0.000248929
-0.000418651
0.000388049
-0.000498789
0.000590983
-0.000572478
0.000872957
-0.000636732
0.00120696
-0.000689476
0.00155339
-0.000728444
0.00184655
-0.000751237
0.00200366
-0.000754197
0.00192867
-0.000733198
0.0015394
-0.000682377
0.000770251
-0.000603517
-0.000337732
-0.000504843
-0.00170545
-0.000416323
-0.00306946
-0.000361525
-0.00428715
-0.000372771
-0.00506521
-0.000426974
-0.00533033
-0.000471867
-0.0049715
-0.000469831
-0.00375368
-0.000311709
-0.00208986
-5.81657e-05
0.000408927
0.00265254
0.000368333
-6.84163e-05
0.000148938
-0.000150915
0.000204484
-0.000241226
0.000280653
-0.000324342
0.000332044
-0.000404382
0.000468088
-0.000475822
0.000662423
-0.000537565
0.0009347
-0.000586044
0.00125544
-0.000618491
0.00158584
-0.000631866
0.00185992
-0.000622873
0.00199467
-0.000587067
0.00189286
-0.000519464
0.00147179
-0.00041432
0.000665107
-0.000273079
-0.000478973
-0.000106403
-0.00187213
5.39259e-05
-0.00322979
0.000175492
-0.00440871
0.000214077
-0.00510379
0.00020325
-0.0053195
0.00015575
-0.00492401
0.000164966
-0.00376289
0.000322317
-0.00224721
0.000612583
0.000118661
0.00211625
0.00114888
-6.77301e-05
0.000216669
-0.000148473
0.000285228
-0.000235826
0.000368006
-0.000314177
0.000410395
-0.000387049
0.00054096
-0.000448295
0.000723669
-0.000496133
0.000982538
-0.000526312
0.00128562
-0.000535254
0.00159478
-0.00051905
0.00184372
-0.000473425
0.00194905
-0.000393214
0.00181265
-0.000272423
0.001351
-0.000106186
0.000498871
0.000106351
-0.000691511
0.000348679
-0.00211446
0.000585322
-0.00346643
0.000788631
-0.00461202
0.000906129
-0.00522129
0.000960147
-0.00537352
0.000965719
-0.00492958
0.00100272
-0.0037999
0.00120383
-0.00244831
0.001559
-0.000236505
0.00145702
0.00221823
-6.68654e-05
0.000283534
-0.000145483
0.000363845
-0.000229333
0.000451856
-0.000302137
0.0004832
-0.000366767
0.00060559
-0.000416403
0.000773304
-0.000448493
0.00101463
-0.000458034
0.00129516
-0.000440542
0.00157729
-0.000391188
0.00179437
-0.000304685
0.00186254
-0.000175421
0.00168339
2.27042e-06
0.00117331
0.00023847
0.000262671
0.000525847
-0.000978887
0.000849134
-0.00243774
0.00116883
-0.00378613
0.00145977
-0.00490296
0.00166674
-0.00542826
0.00181425
-0.00552103
0.00189879
-0.00501412
0.00200852
-0.00390962
0.0022745
-0.00271429
0.0027144
-0.000676412
0.000670753
0.00350067
-6.58336e-05
0.000349368
-0.000141967
0.000439979
-0.000221787
0.000531676
-0.000288293
0.000549706
-0.000343655
0.000660951
-0.000380339
0.000809989
-0.000394965
0.00102925
-0.000381724
0.00128192
-0.000335168
0.00153073
-0.000249536
0.00170873
-0.00011859
0.0017316
6.35682e-05
0.00150123
0.000307049
0.00092983
0.00061339
-4.36696e-05
0.000978773
-0.00134427
0.00138379
-0.00284276
0.00178554
-0.00418788
0.00216111
-0.00527853
0.00245961
-0.00572676
0.00271191
-0.00577333
0.00289879
-0.00520099
0.0031164
-0.00412723
0.00347033
-0.00306823
0.00400505
-0.00121113
-0.000233795
0.0049096
-6.46469e-05
0.000414014
-0.000137952
0.000513284
-0.000213232
0.000606955
-0.000272713
0.000609188
-0.000317823
0.000706061
-0.000340289
0.000832455
-0.000335856
0.00102482
-0.000297883
0.00124395
-0.000219933
0.00145278
-9.53549e-05
0.00158415
8.31523e-05
0.00155309
0.000322888
0.0012615
0.000632086
0.000620632
0.00101298
-0.000424563
0.00145745
-0.00178874
0.0019414
-0.00332672
0.00241933
-0.0046658
0.00286854
-0.00572774
0.00325076
-0.00610898
0.00360055
-0.00612313
0.00389968
-0.00550012
0.00424545
-0.004473
0.00470596
-0.00352874
0.00535119
-0.00185636
-0.00123049
0.00634789
-6.3319e-05
0.000477333
-0.000133466
0.000583431
-0.000203711
0.0006772
-0.000255464
0.000660941
-0.000289373
0.000739969
-0.000296415
0.000839497
-0.000271433
0.000999839
-0.000206957
0.00117947
-9.55518e-05
0.00134138
7.02951e-05
0.00141831
0.000299113
0.00132427
0.000598175
0.000962434
0.000975883
0.000242925
0.00143269
-0.000881374
0.00195462
-0.00231067
0.00251097
-0.00388306
0.00305477
-0.00520961
0.00356135
-0.00623431
0.00401212
-0.00655975
0.00443766
-0.00654867
0.00484059
-0.00590305
0.00531125
-0.00494366
0.0058813
-0.00409879
0.00664579
-0.00262085
-0.00229506
0.00771036
-6.18645e-05
0.000539198
-0.000128537
0.000650104
-0.000193266
0.000741929
-0.000236605
0.00070428
-0.000258387
0.000761751
-0.000248842
0.000829952
-0.000201898
0.000952896
-0.000109282
0.00108686
3.74164e-05
0.00119468
0.00024661
0.00120911
0.000527568
0.00104331
0.000888065
0.000601936
0.0013357
-0.000204706
0.00186796
-0.00141364
0.00246282
-0.00290552
0.00308115
-0.00450139
0.0036763
-0.00580476
0.00422138
-0.0067794
0.00472071
-0.00705909
0.00519492
-0.00702288
0.00567858
-0.00638671
0.00624717
-0.00551225
0.00690807
-0.00475969
0.0077811
-0.00349388
-0.00339506
0.0088811
-6.02986e-05
0.000599497
-0.000123194
0.000712999
-0.000181935
0.000800671
-0.000216182
0.000738527
-0.000224917
0.000770485
-0.000197633
0.000802669
-0.000127349
0.000882611
-4.99248e-06
0.000964499
0.000178656
0.00101103
0.000432935
0.000954836
0.000767778
0.000708472
0.00119127
0.000178445
0.00170917
-0.000722604
0.00231401
-0.00201848
0.00297371
-0.00356522
0.00363975
-0.00516744
0.00426806
-0.00643307
0.00483223
-0.00734356
0.0053576
-0.00758446
0.00585596
-0.00752124
0.00639089
-0.00692164
0.00701855
-0.00613991
0.00773685
-0.00547799
0.0086798
-0.00443683
-0.00448997
0.00977471
-5.86373e-05
0.000658134
-0.000117465
0.000771826
-0.000169754
0.00085296
-0.000194227
0.000763
-0.000188977
0.000765235
-0.00014278
0.000756473
-4.77365e-05
0.000787568
0.000105831
0.000810932
0.000328186
0.000788677
0.000629248
0.000653774
0.00101947
0.000318252
0.00150692
-0.000309008
0.00209398
-0.00130966
0.00276536
-0.00268987
0.00347762
-0.00427747
0.00417367
-0.00586349
0.00481482
-0.00707422
0.00537956
-0.0079083
0.00590892
-0.00811382
0.00641264
-0.00802495
0.00696997
-0.00747897
0.00762038
-0.00679032
0.00836116
-0.00621877
0.00932141
-0.00539708
-0.00554037
0.0103718
-5.68969e-05
0.000715031
-0.00011138
0.000826309
-0.000156749
0.00089833
-0.000170749
0.000777
-0.000150533
0.000745018
-8.41749e-05
0.000690115
3.71024e-05
0.00066629
0.00022362
0.000624414
0.000486399
0.000525899
0.000835964
0.000304209
0.00128285
-0.000128633
0.00183431
-0.000860472
0.00248719
-0.00196254
0.00321513
-0.00341781
0.0039634
-0.00502575
0.00466945
-0.00656954
0.00530323
-0.007708
0.00585234
-0.00845741
0.00636755
-0.00862903
0.0068634
-0.0085208
0.00741958
-0.00803515
0.00806664
-0.00743738
0.00880238
-0.00695451
0.00973454
-0.00632924
-0.00652117
0.0107153
-5.50938e-05
0.000770125
-0.000104964
0.000876179
-0.00014294
0.000936305
-0.000145733
0.000779793
-0.000109489
0.000708775
-2.15979e-05
0.000602223
0.000127543
0.00051715
0.000348919
0.000403038
0.000654051
0.000220767
0.00105386
-9.56033e-05
0.00155831
-0.000633083
0.00217228
-0.00147444
0.00288432
-0.00267457
0.00365447
-0.00418796
0.00441881
-0.0057901
0.00511454
-0.00726526
0.00572334
-0.0083168
0.00624436
-0.00897843
0.00673346
-0.00911813
0.00721287
-0.00900021
0.00775261
-0.0085749
0.00838091
-0.00806568
0.00909401
-0.00766761
0.00997201
-0.00720724
-0.00742564
0.0108765
-5.32442e-05
0.000823369
-9.82422e-05
0.000921177
-0.000128332
0.000966395
-0.000119129
0.00077059
-6.56808e-05
0.000655326
4.52952e-05
0.000491247
0.000224223
0.000338222
0.00048257
0.000144691
0.000832159
-0.000128822
0.00128382
-0.000547263
0.00184585
-0.00119511
0.00251832
-0.00214691
0.00327863
-0.00343489
0.00407265
-0.00498197
0.0048317
-0.00654914
0.0054989
-0.00793246
0.00606972
-0.00888762
0.0065551
-0.00946381
0.00701269
-0.00957573
0.00747129
-0.0094588
0.00798778
-0.0090914
0.00859062
-0.00866851
0.00927218
-0.00834917
0.0100888
-0.00802382
-0.00825953
0.0109226
-5.1364e-05
0.000874733
-9.12355e-05
0.000961049
-0.00011292
0.000988079
-9.08559e-05
0.000748526
-1.8838e-05
0.000583308
0.000116975
0.000355434
0.000327875
0.000127322
0.000625575
-0.000153009
0.00102176
-0.000525008
0.00152632
-0.00105182
0.00214421
-0.00181301
0.00286768
-0.00287038
0.00366091
-0.00422811
0.00445797
-0.00577904
0.00519161
-0.00728278
0.00581648
-0.00855733
0.00634204
-0.00941319
0.00678938
-0.00991114
0.00721548
-0.0100018
0.00765262
-0.00989594
0.00814536
-0.00958414
0.00872157
-0.00924472
0.00936973
-0.00899732
0.0101291
-0.00878315
-0.0090333
0.0109028
-4.94683e-05
0.000924201
-8.39611e-05
0.000995542
-9.66803e-05
0.0010008
-6.07873e-05
0.000712633
3.12506e-05
0.000491271
0.000194026
0.000192659
0.000439355
-0.000118008
0.000778926
-0.00049258
0.00122355
-0.000969634
0.00178081
-0.00160908
0.0024501
-0.0024823
0.00321288
-0.00363316
0.00402012
-0.00503536
0.00479945
-0.00655837
0.0054915
-0.00797483
0.00606599
-0.00913181
0.00654469
-0.00989189
0.00695595
-0.0103224
0.00735425
-0.0104001
0.00777205
-0.0103137
0.00824393
-0.010056
0.00879545
-0.00979624
0.00941266
-0.00961453
0.0101231
-0.00949359
-0.00975735
0.0108471
-4.75714e-05
0.000971773
-7.64311e-05
0.0010244
-7.95714e-05
0.00100394
-2.87562e-05
0.000661818
8.50466e-05
0.000377468
0.000277117
5.89013e-07
0.000559526
-0.000400417
0.00094335
-0.000876404
0.0014374
-0.00146368
0.00204508
-0.00221675
0.00275766
-0.00319488
0.00354415
-0.00441965
0.0043451
-0.00583631
0.00508876
-0.00730203
0.00572875
-0.00861483
0.00625066
-0.00965372
0.00668552
-0.0103267
0.00706566
-0.0107025
0.0074417
-0.0107762
0.00784371
-0.0107157
0.00829883
-0.0105111
0.00882896
-0.0103264
0.00941925
-0.0102048
0.0100892
-0.0101635
-0.0104403
0.0107722
-4.56859e-05
0.00101746
-6.86515e-05
0.00104737
-6.15282e-05
0.000996815
5.42563e-06
0.000594864
0.000143029
0.000239865
0.00036695
-0.000223332
0.0006891
-0.000722567
0.001119
-0.0013063
0.00166187
-0.00200655
0.00231474
-0.00286963
0.0030587
-0.00393883
0.00385079
-0.00521174
0.00462648
-0.006612
0.00532157
-0.00799712
0.00590525
-0.0091985
0.00637728
-0.0101257
0.0067743
-0.0107238
0.00712967
-0.0110579
0.00748941
-0.0111359
0.00787947
-0.0111058
0.00832181
-0.0109535
0.008834
-0.0108386
0.00940137
-0.0107722
0.0100378
-0.0108
-0.011089
0.0106865
-4.3823e-05
0.00106128
-6.0621e-05
0.00106416
-4.24596e-05
0.000978654
4.21714e-05
0.000510233
0.000205698
7.63378e-05
0.000464179
-0.000481813
0.000828446
-0.00108683
0.00130512
-0.00178298
0.00189389
-0.00259533
0.00258335
-0.00355908
0.00334364
-0.00469912
0.00412302
-0.00599113
0.00485837
-0.00734734
0.00549803
-0.00863678
0.00602651
-0.00972699
0.00645461
-0.0105538
0.00682116
-0.0110903
0.00715826
-0.011395
0.00750702
-0.0114847
0.00788857
-0.0114874
0.0083214
-0.0113863
0.00881863
-0.0113358
0.0093664
-0.01132
0.00997459
-0.0114081
-0.0117088
0.0105944
-4.19918e-05
0.00110327
-5.2329e-05
0.0010745
-2.22412e-05
0.000948566
8.1658e-05
0.000406334
0.000273585
-0.000115589
0.000569302
-0.00077753
0.000977369
-0.0014949
0.00149976
-0.00230536
0.00212866
-0.00322423
0.00284294
-0.00427336
0.00360313
-0.00545931
0.00435379
-0.00674179
0.00503905
-0.00803261
0.00562204
-0.00921977
0.00610029
-0.0102052
0.00649199
-0.0109455
0.00683543
-0.0114338
0.00716006
-0.0117196
0.00750212
-0.0118267
0.00787782
-0.0118631
0.00830358
-0.0118121
0.00878809
-0.0118203
0.00931885
-0.0118507
0.00990285
-0.0119922
-0.0123036
0.0104977
-4.01989e-05
0.00114347
-4.37552e-05
0.00107806
-4.23534e-07
0.000905235
0.000124298
0.000281612
0.000347197
-0.000338488
0.000682533
-0.00111287
0.0011349
-0.00194727
0.00169968
-0.00287014
0.00236001
-0.00388457
0.00308525
-0.00499861
0.00382964
-0.00620369
0.00453969
-0.00745184
0.00517066
-0.00866358
0.00570006
-0.00974916
0.00613516
-0.0106403
0.00649819
-0.0113086
0.00682505
-0.0117606
0.0071419
-0.0120365
0.00748033
-0.0121652
0.00785209
-0.0122348
0.0082724
-0.0122324
0.00874577
-0.0122937
0.00926149
-0.0123664
0.00982442
-0.0125551
-0.0128764
0.0103972
-3.84477e-05
0.00118192
-3.48691e-05
0.00107448
2.22152e-05
0.00084815
0.000170492
0.000133335
0.000426955
-0.000594951
0.000803655
-0.00148957
0.00129916
-0.00244277
0.00190045
-0.00347143
0.00258113
-0.00456524
0.003303
-0.00572049
0.00401856
-0.00691924
0.00468099
-0.00811427
0.00525813
-0.00924073
0.0057397
-0.0102307
0.00613934
-0.01104
0.00648074
-0.01165
0.00679637
-0.0120762
0.00710891
-0.012349
0.00744571
-0.012502
0.00781474
-0.0126039
0.00823059
-0.0126482
0.00869385
-0.0127569
0.00919609
-0.0128687
0.00974043
-0.0130994
-0.0134299
0.0102939
-3.6738e-05
0.00121866
-2.56226e-05
0.00106336
4.68435e-05
0.000775684
0.000220662
-4.04834e-05
0.000513105
-0.000887394
0.000931884
-0.00190834
0.00146732
-0.00297821
0.00209687
-0.00410098
0.00278552
-0.00525388
0.00349096
-0.00642593
0.00416848
-0.00759676
0.00478087
-0.00872666
0.00530787
-0.00976773
0.00574857
-0.0106714
0.00612007
-0.0114115
0.00644574
-0.0119756
0.00675418
-0.0123847
0.00706482
-0.0126597
0.00740111
-0.0128382
0.00776812
-0.0129709
0.00817999
-0.0130601
0.00863379
-0.0132107
0.00912385
-0.0133587
0.00965159
-0.0136272
-0.0139662
0.010188
-3.50653e-05
0.00125372
-1.59568e-05
0.00104426
7.34204e-05
0.000686307
0.000275206
-0.000242269
0.000605631
-0.00121782
0.00106578
-0.0023685
0.0016358
-0.00354822
0.00228357
-0.00474875
0.0029679
-0.00593822
0.00364643
-0.00710446
0.0042808
-0.00823112
0.00484426
-0.00929013
0.00532666
-0.0102501
0.00573354
-0.0110783
0.00608329
-0.0117612
0.00639789
-0.0122902
0.00670201
-0.0126888
0.00701224
-0.0129699
0.00734852
-0.0131745
0.00771381
-0.0133362
0.00812184
-0.0134681
0.00856661
-0.0136555
0.00904559
-0.0138377
0.0095583
-0.0141399
-0.0144873
0.0100794
-3.34202e-05
0.00128714
-5.8256e-06
0.00101666
0.000102222
0.000578259
0.000334458
-0.000474504
0.00070415
-0.00158751
0.00120325
-0.0028676
0.00180051
-0.00414548
0.00245566
-0.00540391
0.00312479
-0.00660736
0.00376919
-0.00774886
0.00435884
-0.00882077
0.00487688
-0.00980817
0.00532086
-0.0106941
0.0057004
-0.0114579
0.00603366
-0.0120945
0.00634065
-0.0125972
0.00664236
-0.0129905
0.00695298
-0.0132805
0.00728929
-0.0135108
0.00765292
-0.0136998
0.00805699
-0.0138722
0.00849308
-0.0140916
0.00896194
-0.0143066
0.0094608
-0.0146387
-0.0149945
0.009968
-3.17876e-05
0.00131893
4.97744e-06
0.000979896
0.000133556
0.000449681
0.000398629
-0.000739578
0.000807837
-0.00199672
0.00134162
-0.00340138
0.00195736
-0.00476122
0.00260935
-0.0060559
0.00325466
-0.00725267
0.00386093
-0.00835513
0.00440698
-0.00936681
0.00488434
-0.0102855
0.00529602
-0.0111058
0.00565379
-0.0118156
0.00597467
-0.0124154
0.00627652
-0.0128991
0.00657698
-0.013291
0.00688826
-0.0135918
0.0072244
-0.013847
0.00758624
-0.0140616
0.00798609
-0.014272
0.0084138
-0.0145193
0.00887332
-0.0147661
0.00935927
-0.0151247
-0.015489
0.0098538
-3.01458e-05
0.00134908
1.66486e-05
0.000933102
0.000167741
0.000298588
0.000467742
-0.00103958
0.000915392
-0.00244437
0.00147787
-0.00396386
0.0021027
-0.00538605
0.0027422
-0.0066954
0.00335771
-0.00786818
0.00392459
-0.00892201
0.00442991
-0.00987213
0.00487177
-0.0107274
0.00525671
-0.0114907
0.00559728
-0.0121562
0.00590888
-0.012727
0.00620724
-0.0131975
0.00650703
-0.0135908
0.00681894
-0.0139037
0.00715451
-0.0141825
0.00751434
-0.0144215
0.00790964
-0.0146673
0.00832927
-0.0149389
0.00878005
-0.0152169
0.00925379
-0.0155984
-0.015972
0.00973673
-2.84662e-05
0.00137754
2.91967e-05
0.000875439
0.000205082
0.000122703
0.000541557
-0.00137605
0.00102507
-0.00292788
0.00160893
-0.00454771
0.00223365
-0.00601076
0.00285321
-0.00731497
0.00343545
-0.00845041
0.00396372
-0.00945029
0.00443213
-0.0103405
0.00484355
-0.0111388
0.00520655
-0.0118537
0.00553354
-0.0124832
0.00583811
-0.0130315
0.006134
-0.0134933
0.00643333
-0.0138901
0.00674559
-0.014216
0.00708011
-0.0145171
0.00743764
-0.014779
0.00782803
-0.0150577
0.0082399
-0.0153508
0.00868238
-0.0156594
0.00914441
-0.0160605
-0.0164442
0.00961663
-2.67106e-05
0.00140425
4.28729e-05
0.000805855
0.00024584
-8.02637e-05
0.000619525
-0.00174974
0.00113481
-0.00344317
0.00173198
-0.00514489
0.00234831
-0.0066271
0.00294257
-0.00790923
0.0034902
-0.00899804
0.003982
-0.00994209
0.00441766
-0.0107762
0.00480328
-0.0115244
0.00514832
-0.0121988
0.00546453
-0.0127994
0.00576363
-0.0133306
0.00605761
-0.0137873
0.00635641
-0.0141889
0.00666861
-0.0145282
0.00700158
-0.01485
0.00735649
-0.0151339
0.00774163
-0.0154429
0.00814602
-0.0157552
0.00858049
-0.0160938
0.00903118
-0.0165112
-0.0169065
0.00949349
-2.48305e-05
0.00142908
5.7919e-05
0.000723106
0.000290188
-0.000312533
0.000700765
-0.00216032
0.00124236
-0.00398476
0.0018447
-0.00574723
0.0024458
-0.0072282
0.00301138
-0.00847481
0.00352469
-0.00951134
0.00398292
-0.0104003
0.00438993
-0.0111832
0.00475381
-0.0118883
0.00508413
-0.0125291
0.00539161
-0.0131069
0.0056863
-0.0136253
0.00597858
-0.0140796
0.00627664
-0.0144869
0.00658829
-0.0148398
0.00691921
-0.015181
0.00727116
-0.0154859
0.00765074
-0.0158225
0.00804792
-0.0161524
0.0084745
-0.0165204
0.00891414
-0.0169508
-0.0173597
0.00936733
-2.27651e-05
0.00145185
7.45973e-05
0.000625743
0.000338166
-0.000576102
0.000784091
-0.00260624
0.00134555
-0.00454622
0.00194542
-0.0063471
0.00252607
-0.00780885
0.00306132
-0.00901007
0.0035417
-0.00999172
0.0039696
-0.0108282
0.00435179
-0.0115654
0.00469737
-0.0122339
0.00501552
-0.0128472
0.00531578
-0.0134071
0.00560669
-0.0139162
0.00589728
-0.0143702
0.00619425
-0.0147839
0.00650484
-0.0151504
0.00683324
-0.0155094
0.0071819
-0.0158345
0.00755563
-0.0161962
0.00794582
-0.0165425
0.00836452
-0.0169391
0.00879336
-0.0173796
-0.0178044
0.00923813
-2.04391e-05
0.00147229
9.3181e-05
0.000512123
0.000389642
-0.000872563
0.000868077
-0.00308468
0.0014424
-0.00512054
0.00203315
-0.00693785
0.00258975
-0.00836545
0.00309436
-0.00951468
0.00354389
-0.0104412
0.00394474
-0.0112291
0.00430553
-0.0119262
0.00463565
-0.012564
0.00494359
-0.0131552
0.00523769
-0.0137012
0.00552519
-0.0142037
0.00581391
-0.0146589
0.00610944
-0.0150795
0.00641843
-0.0154594
0.00674389
-0.0158348
0.00708891
-0.0161795
0.00745653
-0.0165638
0.00783992
-0.0169259
0.00825065
-0.0173498
0.00866888
-0.0177979
-0.0182416
0.00910603
-1.77596e-05
0.00149005
0.000113932
0.000380431
0.000444283
-0.00120291
0.00095117
-0.00359156
0.00153135
-0.00570073
0.00210755
-0.00751405
0.00263793
-0.00889582
0.00311256
-0.00998931
0.00353367
-0.0108624
0.0039106
-0.011606
0.00425295
-0.0122686
0.00456993
-0.012881
0.00486913
-0.0134544
0.00515778
-0.0139899
0.00544202
-0.014488
0.00572863
-0.0149455
0.00602232
-0.0153731
0.0063292
-0.0157663
0.00665133
-0.0161569
0.00699238
-0.0165206
0.00735364
-0.0169251
0.00773041
-0.0173027
0.00813297
-0.0177524
0.00854087
-0.0182058
-0.0186717
0.00897099
-1.4614e-05
0.00150466
0.000137075
0.000228743
0.000501547
-0.00156739
0.00103181
-0.00412183
0.00161126
-0.00628017
0.0021688
-0.00807159
0.00267193
-0.00939896
0.00311791
-0.0104353
0.00351318
-0.0112576
0.00386904
-0.0119619
0.00419548
-0.012595
0.00450114
-0.0131866
0.0047927
-0.0137459
0.00507636
-0.0142735
0.00535734
-0.014769
0.00564154
-0.0152297
0.005933
-0.0156646
0.00623727
-0.0160705
0.00655572
-0.0164754
0.00689246
-0.0168573
0.00724717
-0.0172798
0.00761746
-0.017673
0.00801155
-0.0181465
0.00840947
-0.0186037
-0.0190952
0.00883292
-1.08657e-05
0.00151553
0.00016276
5.51169e-05
0.000560706
-0.00196533
0.00110856
-0.00466968
0.00168145
-0.00685307
0.00221743
-0.00860756
0.00269323
-0.00987477
0.00311227
-0.0108543
0.00348422
-0.0116296
0.00382158
-0.0122992
0.0041342
-0.0129076
0.00442997
-0.0134824
0.00471468
-0.0140306
0.00499361
-0.0145525
0.00527124
-0.0150466
0.00555271
-0.0155112
0.00584154
-0.0159534
0.00614274
-0.0163717
0.00645722
-0.0167899
0.0067893
-0.0171894
0.00713731
-0.0176278
0.00750122
-0.0180369
0.00788641
-0.0185317
0.00827476
-0.018992
-0.0195121
0.00869169
-6.34464e-06
0.00152187
0.000191042
-0.000142269
0.000620871
-0.00239516
0.00118019
-0.005229
0.00174167
-0.00741455
0.00225425
-0.00912014
0.00270328
-0.0103238
0.00309732
-0.0112484
0.00344834
-0.0119806
0.00376942
-0.0126203
0.00406992
-0.0132081
0.00435691
-0.0137694
0.00463533
-0.0143091
0.00490966
-0.0148268
0.00518378
-0.0153207
0.00546219
-0.0157896
0.00574801
-0.0162392
0.00604572
-0.0166695
0.00635596
-0.0171001
0.00668304
-0.0175165
0.0070243
-0.0179691
0.00738183
-0.0183944
0.00775756
-0.0189074
0.00813687
-0.0193713
-0.0199225
0.00854724
-6.33975e-07
0.00152251
0.000221859
-0.000364762
0.000681047
-0.00285435
0.00124575
-0.00579371
0.00179199
-0.00796079
0.00228021
-0.00960836
0.00270348
-0.0107471
0.0030745
-0.0116194
0.0034068
-0.0123129
0.00371351
-0.012927
0.00400327
-0.0134979
0.00428231
-0.0140484
0.0045548
-0.0145816
0.00482456
-0.0150966
0.00509499
-0.0155911
0.00537002
-0.0160646
0.00565246
-0.0165217
0.0059463
-0.0169633
0.00625205
-0.0174059
0.00657379
-0.0178382
0.00690835
-0.0183036
0.00725943
-0.0187455
0.00762508
-0.019273
0.0079956
-0.0197419
-0.0203258
0.00839889
5.54389e-06
0.00151696
0.00025503
-0.000614248
0.000740195
-0.00333951
0.0013046
-0.00635812
0.00183272
-0.00848891
0.00229632
-0.010072
0.00269512
-0.0111459
0.00304511
-0.0119694
0.00336066
-0.0126285
0.00365459
-0.0132209
0.00393471
-0.013778
0.00420642
-0.0143202
0.00447322
-0.0148483
0.00473838
-0.0153617
0.00500489
-0.0158577
0.00527623
-0.016336
0.00555496
-0.0168004
0.00584458
-0.0172529
0.00614558
-0.0177069
0.00646169
-0.0181543
0.00678965
-0.0186316
0.00713408
-0.01909
0.00748942
-0.0196284
0.0078501
-0.0201025
-0.0207268
0.00825111
1.31745e-05
0.00150379
0.000290276
-0.00089135
0.00079729
-0.00384653
0.00135635
-0.00691717
0.00186434
-0.0089969
0.00230355
-0.0105112
0.00267934
-0.0115216
0.00301015
-0.0123002
0.00331067
-0.012929
0.00359316
-0.0135034
0.00386448
-0.0140493
0.0041293
-0.014585
0.00439052
-0.0151096
0.00465099
-0.0156222
0.00491336
-0.01612
0.0051807
-0.0166033
0.00545538
-0.0170751
0.00574046
-0.017538
0.00603646
-0.0180029
0.00634668
-0.0184645
0.00666807
-0.018953
0.00700551
-0.0194274
0.00735155
-0.0199744
0.00770852
-0.0204595
-0.0210984
0.00808016
2.22153e-05
0.00148157
0.000327241
-0.00119638
0.00085143
-0.00437072
0.00140091
-0.00746666
0.00188751
-0.0094835
0.00230295
-0.0109266
0.00265727
-0.011876
0.00297066
-0.0126136
0.00325768
-0.013216
0.00352982
-0.0137756
0.00379302
-0.0143125
0.00405128
-0.0148432
0.004307
-0.0153653
0.00456268
-0.0158779
0.00482069
-0.016378
0.00508377
-0.0168664
0.0053541
-0.0173454
0.00563437
-0.0178183
0.00592515
-0.0182937
0.00622929
-0.0187687
0.00654414
-0.0192678
0.00687422
-0.0197575
0.00721169
-0.0203119
0.00756471
-0.0208125
-0.0214521
0.0079184
3.2706e-05
0.00144887
0.000365499
-0.00152917
0.000901832
-0.00490705
0.00143835
-0.00800318
0.00190286
-0.00994801
0.00229541
-0.0113192
0.00262979
-0.0122103
0.00292735
-0.0129111
0.00320216
-0.0134908
0.00346483
-0.0140382
0.00372043
-0.0145681
0.00397233
-0.0150951
0.00422256
-0.0156155
0.00447332
-0.0161286
0.00472675
-0.0166315
0.00498531
-0.017125
0.00525102
-0.0176111
0.00552622
-0.0180935
0.00581154
-0.018579
0.00610944
-0.0190666
0.00641765
-0.019576
0.00674018
-0.02008
0.00707042
-0.0206421
0.00741503
-0.0211571
-0.0217979
0.0077608
4.46348e-05
0.00140423
0.000404576
-0.00188911
0.000947907
-0.00545038
0.00146888
-0.00852414
0.00191107
-0.0103902
0.00228176
-0.0116899
0.0025977
-0.0125263
0.00288085
-0.0131943
0.00314455
-0.0137545
0.00339846
-0.0142921
0.00364682
-0.0148165
0.00389251
-0.0153408
0.00413722
-0.0158602
0.00438293
-0.0163743
0.00463157
-0.0168801
0.00488536
-0.0173788
0.00514617
-0.0178719
0.00541607
-0.0183634
0.00569572
-0.0188586
0.00598723
-0.0193581
0.00628868
-0.0198775
0.00660374
-0.0203951
0.00692617
-0.0209646
0.00726318
-0.0214942
-0.0221386
0.00760389
5.79095e-05
0.00134632
0.000443956
-0.00227516
0.000989264
-0.00599569
0.00149281
-0.00902769
0.0019128
-0.0108102
0.00226277
-0.0120398
0.00256169
-0.0128252
0.00283169
-0.0134643
0.00308519
-0.014008
0.0033309
-0.0145378
0.00357229
-0.0150578
0.00381185
-0.0155804
0.004051
-0.0160994
0.0042915
-0.0166148
0.00453515
-0.0171237
0.00478394
-0.0176276
0.00503961
-0.0181276
0.00530399
-0.0186277
0.00557776
-0.0191324
0.00586274
-0.0196431
0.00615734
-0.0201721
0.00646477
-0.0207025
0.0067798
-0.0212796
0.00710872
-0.0218231
-0.0224717
0.00744186
7.23593e-05
0.00127396
0.00048308
-0.00268588
0.00102569
-0.0065383
0.00151053
-0.00951253
0.0019087
-0.0112084
0.00223912
-0.0123702
0.00252234
-0.0131084
0.0027803
-0.0137222
0.00302435
-0.0142521
0.00326229
-0.0147758
0.00349692
-0.0152925
0.00373039
-0.0158138
0.00396389
-0.0163329
0.00419905
-0.01685
0.00443751
-0.0173622
0.00468109
-0.0178711
0.00493139
-0.0183779
0.00519004
-0.0188864
0.00545774
-0.0194001
0.00573606
-0.0199214
0.00602368
-0.0204597
0.00632355
-0.0210024
0.00663082
-0.0215869
0.00695165
-0.0221439
-0.0227979
0.00727781
8.77538e-05
0.00118621
0.000521361
-0.00311948
0.00105712
-0.00707405
0.00152245
-0.00997787
0.00189938
-0.0115853
0.00221142
-0.0126823
0.00248016
-0.0133772
0.00272702
-0.0139691
0.00296224
-0.0144873
0.00319275
-0.0150063
0.00342076
-0.0155205
0.00364813
-0.0160412
0.00387591
-0.0165607
0.00410559
-0.0170797
0.00433867
-0.0175953
0.00457683
-0.0181093
0.00482156
-0.0186227
0.00507429
-0.0191391
0.00533574
-0.0196615
0.00560725
-0.0201929
0.00588781
-0.0207403
0.00617997
-0.0212945
0.00647957
-0.0218864
0.00679231
-0.0224566
-0.0231158
0.00711022
0.000103835
0.00108237
0.000558212
-0.00357386
0.0010836
-0.00759944
0.00152901
-0.0104233
0.0018854
-0.0119417
0.00218021
-0.0129771
0.00243557
-0.0136325
0.00267215
-0.0142057
0.00289903
-0.0147142
0.00312236
-0.0152296
0.00334383
-0.015742
0.00356511
-0.0162625
0.00378706
-0.0167826
0.00401112
-0.0173038
0.00423865
-0.0178228
0.00447121
-0.0183419
0.00471016
-0.0188616
0.00495678
-0.0193858
0.00521182
-0.0199166
0.00547641
-0.0204575
0.00574978
-0.0210136
0.00603421
-0.021579
0.00632596
-0.0221782
0.00663038
-0.0227611
-0.0234257
0.00694026
0.000120355
0.000962019
0.000593076
-0.00404658
0.00110528
-0.00811164
0.00153061
-0.0108486
0.00186726
-0.0122783
0.00214596
-0.0132558
0.00238892
-0.0138755
0.00261591
-0.0144327
0.00283486
-0.0149331
0.0030512
-0.015446
0.00326618
-0.015957
0.00348132
-0.0164776
0.00369736
-0.0169987
0.00391567
-0.0175221
0.00413748
-0.0180446
0.00436425
-0.0185686
0.00459723
-0.0190946
0.00483759
-0.0196261
0.00508605
-0.020165
0.00534359
-0.020715
0.00560967
-0.0212797
0.00588626
-0.0218556
0.0061701
-0.022462
0.0064662
-0.0230572
-0.023727
0.00676753
0.000137111
0.000824907
0.000625468
-0.00453494
0.00112233
-0.00860851
0.00152769
-0.011254
0.00184546
-0.0125961
0.00210908
-0.0135194
0.00234052
-0.0141069
0.0025585
-0.0146507
0.00276983
-0.0151444
0.0029793
-0.0156554
0.00318783
-0.0161655
0.00339678
-0.0166866
0.00360682
-0.0172087
0.00381924
-0.0177345
0.00403518
-0.0182605
0.004256
-0.0187894
0.00448283
-0.0193214
0.00471676
-0.01986
0.00495849
-0.0204068
0.00520887
-0.0209654
0.00546753
-0.0215384
0.00573621
-0.0221242
0.00601204
-0.0227379
0.0062996
-0.0233447
-0.0240198
0.00659242
0.000153968
0.00067094
0.000655004
-0.00503597
0.00113501
-0.00908851
0.00152063
-0.0116396
0.0018204
-0.0128959
0.00206992
-0.0137689
0.00229062
-0.0143276
0.00250006
-0.0148601
0.00270402
-0.0153484
0.00290673
-0.0158581
0.0031088
-0.0163676
0.00331151
-0.0168893
0.00351545
-0.0174127
0.00372186
-0.0179409
0.00393178
-0.0184705
0.00414648
-0.0190041
0.00436701
-0.019542
0.00459436
-0.0200874
0.00482921
-0.0206416
0.0050723
-0.0212085
0.00532345
-0.0217895
0.00558411
-0.0223849
0.00585183
-0.0230056
0.00613079