/*--------------------------------*- C++ -*----------------------------------*\
  =========                 |
  \\      /  F ield         | OpenFOAM: The Open Source CFD Toolbox
   \\    /   O peration     | Website:  https://openfoam.org
    \\  /    A nd           | Version:  7
     \\/     M anipulation  |
\*---------------------------------------------------------------------------*/
FoamFile
{
    version     2.0;
    format      ascii;
    class       surfaceScalarField;
    location    "0.076";
    object      phi;
}
// * * * * * * * * * * * * * * * * * * * * * * * * * * * * * * * * * * * * * //

dimensions      [0 3 -1 0 0 0 0];

internalField   nonuniform List<scalar> 
79600
(
1.10504e-12
-1.11599e-12
1.2322e-11
-1.12156e-11
3.13399e-11
-1.90182e-11
5.44637e-11
-2.31217e-11
7.87613e-11
-2.42991e-11
1.02035e-10
-2.32731e-11
1.22654e-10
-2.06196e-11
1.39431e-10
-1.67766e-11
1.51503e-10
-1.20709e-11
1.58248e-10
-6.74478e-12
1.59226e-10
-9.76867e-13
1.54131e-10
5.09528e-12
1.42763e-10
1.1367e-11
1.25005e-10
1.77568e-11
1.00805e-10
2.41998e-11
7.01629e-11
3.0644e-11
3.31176e-11
3.70456e-11
-1.02556e-11
4.33723e-11
-5.98534e-11
4.95975e-11
-1.15553e-10
5.56989e-11
-1.7721e-10
6.16579e-11
-2.4467e-10
6.74596e-11
-3.17762e-10
7.30915e-11
-3.9631e-10
7.85452e-11
-4.80121e-10
8.38116e-11
-5.69006e-10
8.88847e-11
-6.62764e-10
9.37588e-11
-7.61193e-10
9.84297e-11
-8.64087e-10
1.02894e-10
-9.71238e-10
1.0715e-10
-1.08243e-09
1.11197e-10
-1.19747e-09
1.15034e-10
-1.31612e-09
1.18658e-10
-1.43819e-09
1.22071e-10
-1.56347e-09
1.25272e-10
-1.69173e-09
1.28265e-10
-1.82278e-09
1.31048e-10
-1.9564e-09
1.33623e-10
-2.09239e-09
1.35991e-10
-2.23055e-09
1.38156e-10
-2.37067e-09
1.40119e-10
-2.51255e-09
1.4188e-10
-2.65599e-09
1.43444e-10
-2.80081e-09
1.44812e-10
-2.94679e-09
1.45987e-10
-3.09377e-09
1.46973e-10
-3.24154e-09
1.47769e-10
-3.38992e-09
1.4838e-10
-3.53873e-09
1.48809e-10
-3.68779e-09
1.49058e-10
-3.83692e-09
1.49132e-10
-3.98595e-09
1.49033e-10
-4.13471e-09
1.48762e-10
-4.28303e-09
1.48324e-10
-4.43075e-09
1.47721e-10
-4.57771e-09
1.46957e-10
-4.72375e-09
1.46034e-10
-4.8687e-09
1.44958e-10
-5.01243e-09
1.43729e-10
-5.15478e-09
1.42352e-10
-5.29561e-09
1.4083e-10
-5.43478e-09
1.39166e-10
-5.57214e-09
1.37363e-10
-5.70757e-09
1.35425e-10
-5.84092e-09
1.33354e-10
-5.97208e-09
1.31155e-10
-6.10091e-09
1.28829e-10
-6.22729e-09
1.26381e-10
-6.3511e-09
1.23814e-10
-6.47223e-09
1.2113e-10
-6.59057e-09
1.18335e-10
-6.706e-09
1.15429e-10
-6.81841e-09
1.12418e-10
-6.92772e-09
1.09305e-10
-7.03381e-09
1.06092e-10
-7.13659e-09
1.02782e-10
-7.23597e-09
9.93806e-11
-7.33186e-09
9.58895e-11
-7.42418e-09
9.23126e-11
-7.51283e-09
8.86529e-11
-7.59774e-09
8.49138e-11
-7.67884e-09
8.10989e-11
-7.75605e-09
7.72113e-11
-7.82931e-09
7.32542e-11
-7.89854e-09
6.92318e-11
-7.96369e-09
6.51472e-11
-8.02469e-09
6.10034e-11
-8.08149e-09
5.68043e-11
-8.13405e-09
5.25536e-11
-8.1823e-09
4.82546e-11
-8.22621e-09
4.39107e-11
-8.26574e-09
3.95255e-11
-8.30084e-09
3.51022e-11
-8.33149e-09
3.06446e-11
-8.35764e-09
2.61567e-11
-8.37928e-09
2.16414e-11
-8.39639e-09
1.71028e-11
-8.40893e-09
1.25453e-11
-8.4169e-09
7.97246e-12
-8.42029e-09
3.38736e-12
-8.41908e-09
-1.20703e-12
-8.41328e-09
-5.80627e-12
-8.40287e-09
-1.04054e-11
-8.38787e-09
-1.50009e-11
-8.36828e-09
-1.95896e-11
-8.34412e-09
-2.41675e-11
-8.31539e-09
-2.87304e-11
-8.28211e-09
-3.32745e-11
-8.24432e-09
-3.77955e-11
-8.20203e-09
-4.22896e-11
-8.15527e-09
-4.67531e-11
-8.10409e-09
-5.11815e-11
-8.04852e-09
-5.55702e-11
-7.98861e-09
-5.99153e-11
-7.9244e-09
-6.42128e-11
-7.85594e-09
-6.84588e-11
-7.78329e-09
-7.2649e-11
-7.70651e-09
-7.67794e-11
-7.62567e-09
-8.08454e-11
-7.54082e-09
-8.4843e-11
-7.45205e-09
-8.87684e-11
-7.35944e-09
-9.26167e-11
-7.26306e-09
-9.63831e-11
-7.16299e-09
-1.00064e-10
-7.05934e-09
-1.03655e-10
-6.95219e-09
-1.07152e-10
-6.84164e-09
-1.1055e-10
-6.72779e-09
-1.13846e-10
-6.61076e-09
-1.17035e-10
-6.49064e-09
-1.20113e-10
-6.36757e-09
-1.23075e-10
-6.24165e-09
-1.25917e-10
-6.11301e-09
-1.28636e-10
-5.98179e-09
-1.31228e-10
-5.8481e-09
-1.33688e-10
-5.71209e-09
-1.36012e-10
-5.57389e-09
-1.38195e-10
-5.43366e-09
-1.40234e-10
-5.29153e-09
-1.42125e-10
-5.14767e-09
-1.43865e-10
-5.00222e-09
-1.45448e-10
-4.85535e-09
-1.46873e-10
-4.70721e-09
-1.48135e-10
-4.55798e-09
-1.4923e-10
-4.40783e-09
-1.50155e-10
-4.25692e-09
-1.50905e-10
-4.10545e-09
-1.51479e-10
-3.95357e-09
-1.51873e-10
-3.80149e-09
-1.52083e-10
-3.64938e-09
-1.52107e-10
-3.49744e-09
-1.51942e-10
-3.34585e-09
-1.51585e-10
-3.19482e-09
-1.51033e-10
-3.04454e-09
-1.50284e-10
-2.8952e-09
-1.49336e-10
-2.74702e-09
-1.48186e-10
-2.60018e-09
-1.46832e-10
-2.45491e-09
-1.45273e-10
-2.3114e-09
-1.43507e-10
-2.16987e-09
-1.41532e-10
-2.03052e-09
-1.39347e-10
-1.89357e-09
-1.36951e-10
-1.75923e-09
-1.34343e-10
-1.62771e-09
-1.31522e-10
-1.49922e-09
-1.28489e-10
-1.37397e-09
-1.25243e-10
-1.25219e-09
-1.21786e-10
-1.13407e-09
-1.18116e-10
-1.01984e-09
-1.14236e-10
-9.09688e-10
-1.10148e-10
-8.03835e-10
-1.05853e-10
-7.02481e-10
-1.01355e-10
-6.05824e-10
-9.66569e-11
-5.14062e-10
-9.17624e-11
-4.27385e-10
-8.6677e-11
-3.45979e-10
-8.14064e-11
-2.70023e-10
-7.59573e-11
-1.99684e-10
-7.03384e-11
-1.35123e-10
-6.45608e-11
-7.64856e-11
-5.86368e-11
-2.39068e-11
-5.25798e-11
2.24976e-11
-4.64057e-11
6.26318e-11
-4.01346e-11
9.64239e-11
-3.37916e-11
1.23831e-10
-2.74065e-11
1.44845e-10
-2.10148e-11
1.59505e-10
-1.46594e-11
1.67899e-10
-8.39365e-12
1.70185e-10
-2.28424e-12
1.66599e-10
3.58548e-12
1.5749e-10
9.1089e-12
1.43341e-10
1.41489e-11
1.24814e-10
1.85265e-11
1.02811e-10
2.20032e-11
7.85521e-11
2.42586e-11
5.36868e-11
2.48646e-11
3.04112e-11
2.32742e-11
1.16024e-11
1.88083e-11
7.98224e-13
1.08041e-11
7.97991e-13
1.1227e-11
-1.23408e-11
4.1413e-11
-4.14071e-11
8.51423e-11
-6.27461e-11
1.36236e-10
-7.42158e-11
1.88967e-10
-7.70283e-11
2.38512e-10
-7.28197e-11
2.80995e-10
-6.31018e-11
3.13371e-10
-4.91524e-11
3.33296e-10
-3.19987e-11
3.38996e-10
-1.24457e-11
3.29148e-10
8.87151e-12
3.02792e-10
3.14514e-11
2.59262e-10
5.48993e-11
1.98121e-10
7.88977e-11
1.19128e-10
1.03193e-10
2.21947e-11
1.27578e-10
-9.26428e-11
1.51884e-10
-2.25242e-10
1.75973e-10
-3.75377e-10
1.99734e-10
-5.42749e-10
2.23071e-10
-7.27001e-10
2.45911e-10
-9.27729e-10
2.68188e-10
-1.14448e-09
2.89851e-10
-1.37679e-09
3.10854e-10
-1.62414e-09
3.31163e-10
-1.88601e-09
3.50751e-10
-2.16185e-09
3.69593e-10
-2.45109e-09
3.87669e-10
-2.75315e-09
4.04964e-10
-3.06747e-09
4.21468e-10
-3.39345e-09
4.3717e-10
-3.73048e-09
4.52068e-10
-4.07798e-09
4.66155e-10
-4.43534e-09
4.7943e-10
-4.80196e-09
4.91893e-10
-5.17724e-09
5.03546e-10
-5.56059e-09
5.14391e-10
-5.9514e-09
5.24433e-10
-6.34908e-09
5.33676e-10
-6.75305e-09
5.42126e-10
-7.16272e-09
5.49789e-10
-7.57752e-09
5.56676e-10
-7.99687e-09
5.62791e-10
-8.4202e-09
5.68144e-10
-8.84695e-09
5.72745e-10
-9.27658e-09
5.76601e-10
-9.70854e-09
5.79724e-10
-1.01423e-08
5.82125e-10
-1.05773e-08
5.83812e-10
-1.1013e-08
5.84797e-10
-1.1449e-08
5.85091e-10
-1.18847e-08
5.84706e-10
-1.23195e-08
5.83655e-10
-1.27532e-08
5.81946e-10
-1.3185e-08
5.79594e-10
-1.36147e-08
5.7661e-10
-1.40417e-08
5.73005e-10
-1.44655e-08
5.68792e-10
-1.48858e-08
5.63985e-10
-1.5302e-08
5.58594e-10
-1.57138e-08
5.52633e-10
-1.61208e-08
5.46115e-10
-1.65224e-08
5.39051e-10
-1.69185e-08
5.31455e-10
-1.73084e-08
5.23338e-10
-1.7692e-08
5.14714e-10
-1.80688e-08
5.05595e-10
-1.84384e-08
4.95994e-10
-1.88005e-08
4.85925e-10
-1.91548e-08
4.754e-10
-1.95009e-08
4.64432e-10
-1.98385e-08
4.53034e-10
-2.01673e-08
4.41218e-10
-2.0487e-08
4.28998e-10
-2.07973e-08
4.16388e-10
-2.10979e-08
4.034e-10
-2.13885e-08
3.90047e-10
-2.1669e-08
3.76342e-10
-2.1939e-08
3.62298e-10
-2.21983e-08
3.4793e-10
-2.24466e-08
3.3325e-10
-2.26838e-08
3.18272e-10
-2.29096e-08
3.03008e-10
-2.31238e-08
2.87472e-10
-2.33262e-08
2.71678e-10
-2.35167e-08
2.55638e-10
-2.36951e-08
2.39367e-10
-2.38612e-08
2.22878e-10
-2.40148e-08
2.06186e-10
-2.41558e-08
1.89304e-10
-2.42842e-08
1.72245e-10
-2.43997e-08
1.55024e-10
-2.45022e-08
1.37654e-10
-2.45917e-08
1.20151e-10
-2.46681e-08
1.02529e-10
-2.47313e-08
8.48009e-11
-2.47811e-08
6.69817e-11
-2.48177e-08
4.90864e-11
-2.48408e-08
3.113e-11
-2.48506e-08
1.31275e-11
-2.48469e-08
-4.90692e-12
-2.48297e-08
-2.2959e-11
-2.47991e-08
-4.10134e-11
-2.47551e-08
-5.90541e-11
-2.46976e-08
-7.70662e-11
-2.46267e-08
-9.50343e-11
-2.45425e-08
-1.12943e-10
-2.4445e-08
-1.30775e-10
-2.43343e-08
-1.48517e-10
-2.42104e-08
-1.66152e-10
-2.40735e-08
-1.83664e-10
-2.39237e-08
-2.01037e-10
-2.3761e-08
-2.18255e-10
-2.35856e-08
-2.35301e-10
-2.33977e-08
-2.52159e-10
-2.31973e-08
-2.68814e-10
-2.29847e-08
-2.85248e-10
-2.276e-08
-3.01445e-10
-2.25235e-08
-3.17389e-10
-2.22753e-08
-3.33062e-10
-2.20156e-08
-3.48449e-10
-2.17447e-08
-3.63533e-10
-2.14628e-08
-3.78297e-10
-2.11701e-08
-3.92723e-10
-2.0867e-08
-4.06795e-10
-2.05536e-08
-4.20497e-10
-2.02304e-08
-4.33812e-10
-1.98975e-08
-4.46723e-10
-1.95553e-08
-4.59215e-10
-1.92041e-08
-4.71269e-10
-1.88444e-08
-4.8287e-10
-1.84763e-08
-4.94001e-10
-1.81003e-08
-5.04647e-10
-1.77167e-08
-5.1479e-10
-1.7326e-08
-5.24415e-10
-1.69285e-08
-5.33507e-10
-1.65246e-08
-5.4205e-10
-1.61148e-08
-5.50028e-10
-1.56995e-08
-5.57426e-10
-1.52792e-08
-5.64228e-10
-1.48542e-08
-5.7042e-10
-1.44251e-08
-5.75988e-10
-1.39923e-08
-5.80917e-10
-1.35563e-08
-5.85194e-10
-1.31177e-08
-5.88805e-10
-1.26768e-08
-5.91736e-10
-1.22343e-08
-5.93975e-10
-1.17907e-08
-5.9551e-10
-1.13465e-08
-5.96328e-10
-1.09021e-08
-5.96419e-10
-1.04583e-08
-5.9577e-10
-1.00155e-08
-5.94373e-10
-9.57435e-09
-5.92215e-10
-9.13534e-09
-5.89289e-10
-8.69909e-09
-5.85585e-10
-8.26618e-09
-5.81096e-10
-7.8372e-09
-5.75814e-10
-7.41274e-09
-5.69733e-10
-6.9934e-09
-5.62845e-10
-6.57979e-09
-5.55146e-10
-6.1725e-09
-5.46634e-10
-5.77215e-09
-5.37303e-10
-5.37934e-09
-5.2715e-10
-4.99469e-09
-5.16176e-10
-4.6188e-09
-5.0438e-10
-4.25228e-09
-4.91763e-10
-3.89574e-09
-4.78329e-10
-3.54977e-09
-4.64081e-10
-3.21498e-09
-4.49026e-10
-2.89196e-09
-4.33172e-10
-2.58128e-09
-4.1653e-10
-2.28352e-09
-3.99112e-10
-1.99924e-09
-3.80934e-10
-1.72899e-09
-3.62014e-10
-1.47329e-09
-3.42374e-10
-1.23266e-09
-3.22041e-10
-1.00757e-09
-3.01045e-10
-7.98488e-10
-2.79423e-10
-6.05831e-10
-2.57219e-10
-4.29986e-10
-2.34483e-10
-2.71289e-10
-2.11275e-10
-1.30028e-10
-1.87667e-10
-6.42091e-12
-1.63742e-10
9.9387e-11
-1.396e-10
1.87342e-10
-1.15362e-10
2.57497e-10
-9.11712e-11
3.10039e-10
-6.72019e-11
3.45311e-10
-4.36657e-11
3.63847e-10
-2.08213e-11
3.66421e-10
1.01151e-12
3.54097e-10
2.14346e-11
3.28297e-10
3.99494e-11
2.90895e-10
5.59289e-11
2.44315e-10
6.85822e-11
1.91662e-10
7.6911e-11
1.36842e-10
7.9685e-11
8.46409e-11
7.54765e-11
4.06561e-11
6.27936e-11
1.07996e-11
4.06597e-11
1.1598e-11
1.90058e-11
-3.13472e-11
6.27513e-11
-8.51498e-11
1.22066e-10
-1.22064e-10
1.88873e-10
-1.41021e-10
2.55842e-10
-1.43997e-10
3.16622e-10
-1.336e-10
3.65901e-10
-1.12378e-10
3.99341e-10
-8.25925e-11
4.13483e-10
-4.61388e-11
4.05609e-10
-4.57236e-12
3.73637e-10
4.08421e-11
3.16007e-10
8.90811e-11
2.31594e-10
1.39313e-10
1.1963e-10
1.90863e-10
-2.0356e-11
2.43178e-10
-1.88585e-10
2.95806e-10
-3.85073e-10
3.48373e-10
-6.09668e-10
4.00569e-10
-8.62075e-10
4.5214e-10
-1.14188e-09
5.02874e-10
-1.44856e-09
5.52592e-10
-1.78152e-09
6.01149e-10
-2.14009e-09
6.48422e-10
-2.52355e-09
6.94307e-10
-2.9311e-09
7.38721e-10
-3.36194e-09
7.81593e-10
-3.81522e-09
8.22865e-10
-4.29004e-09
8.62493e-10
-4.78551e-09
9.00439e-10
-5.30072e-09
9.3667e-10
-5.83471e-09
9.71166e-10
-6.38655e-09
1.00391e-09
-6.95529e-09
1.03489e-09
-7.53996e-09
1.0641e-09
-8.13961e-09
1.09154e-09
-8.75327e-09
1.11721e-09
-9.37998e-09
1.1411e-09
-1.00188e-08
1.16324e-09
-1.06687e-08
1.18362e-09
-1.13289e-08
1.20226e-09
-1.19983e-08
1.21918e-09
-1.2676e-08
1.23438e-09
-1.3361e-08
1.24788e-09
-1.40526e-08
1.25971e-09
-1.47497e-08
1.26987e-09
-1.54515e-08
1.2784e-09
-1.61571e-08
1.2853e-09
-1.68656e-08
1.29061e-09
-1.75761e-08
1.29435e-09
-1.82879e-08
1.29653e-09
-1.9e-08
1.29718e-09
-1.97116e-08
1.29634e-09
-2.0422e-08
1.29401e-09
-2.11302e-08
1.29024e-09
-2.18357e-08
1.28503e-09
-2.25375e-08
1.27843e-09
-2.32349e-08
1.27045e-09
-2.39273e-08
1.26113e-09
-2.46138e-08
1.25048e-09
-2.52937e-08
1.23854e-09
-2.59664e-08
1.22534e-09
-2.66312e-08
1.2109e-09
-2.72874e-08
1.19525e-09
-2.79344e-08
1.17842e-09
-2.85715e-08
1.16043e-09
-2.91981e-08
1.14132e-09
-2.98136e-08
1.12111e-09
-3.04174e-08
1.09983e-09
-3.1009e-08
1.07751e-09
-3.15878e-08
1.05418e-09
-3.21532e-08
1.02986e-09
-3.27048e-08
1.00459e-09
-3.3242e-08
9.78392e-10
-3.37643e-08
9.51296e-10
-3.42712e-08
9.23332e-10
-3.47623e-08
8.94528e-10
-3.52372e-08
8.64914e-10
-3.56954e-08
8.34519e-10
-3.61364e-08
8.03372e-10
-3.656e-08
7.71503e-10
-3.69657e-08
7.38941e-10
-3.73531e-08
7.05715e-10
-3.7722e-08
6.71857e-10
-3.80719e-08
6.37394e-10
-3.84026e-08
6.02358e-10
-3.87137e-08
5.66778e-10
-3.90051e-08
5.30684e-10
-3.92763e-08
4.94108e-10
-3.95272e-08
4.57079e-10
-3.97575e-08
4.19628e-10
-3.9967e-08
3.81787e-10
-4.01556e-08
3.43586e-10
-4.0323e-08
3.05056e-10
-4.04691e-08
2.66229e-10
-4.05937e-08
2.27138e-10
-4.06967e-08
1.87815e-10
-4.0778e-08
1.48292e-10
-4.08375e-08
1.08599e-10
-4.08752e-08
6.87709e-11
-4.08909e-08
2.88403e-11
-4.08846e-08
-1.11596e-11
-4.08564e-08
-5.11957e-11
-4.08062e-08
-9.12348e-11
-4.0734e-08
-1.31243e-10
-4.06399e-08
-1.71187e-10
-4.05239e-08
-2.1103e-10
-4.03861e-08
-2.5074e-10
-4.02266e-08
-2.90281e-10
-4.00455e-08
-3.29618e-10
-3.98429e-08
-3.68716e-10
-3.9619e-08
-4.0754e-10
-3.9374e-08
-4.46054e-10
-3.91081e-08
-4.84222e-10
-3.88213e-08
-5.22007e-10
-3.85141e-08
-5.59374e-10
-3.81867e-08
-5.96287e-10
-3.78392e-08
-6.3271e-10
-3.7472e-08
-6.68605e-10
-3.70855e-08
-7.03936e-10
-3.66799e-08
-7.38666e-10
-3.62556e-08
-7.72759e-10
-3.58129e-08
-8.06176e-10
-3.53523e-08
-8.38882e-10
-3.48742e-08
-8.7084e-10
-3.4379e-08
-9.02012e-10
-3.38672e-08
-9.32361e-10
-3.33391e-08
-9.6185e-10
-3.27954e-08
-9.90442e-10
-3.22365e-08
-1.0181e-09
-3.1663e-08
-1.04479e-09
-3.10754e-08
-1.07048e-09
-3.04743e-08
-1.09512e-09
-2.98602e-08
-1.11869e-09
-2.92339e-08
-1.14114e-09
-2.85958e-08
-1.16244e-09
-2.79468e-08
-1.18256e-09
-2.72874e-08
-1.20147e-09
-2.66183e-08
-1.21912e-09
-2.59402e-08
-1.23548e-09
-2.52539e-08
-1.25053e-09
-2.45601e-08
-1.26423e-09
-2.38596e-08
-1.27655e-09
-2.3153e-08
-1.28745e-09
-2.24413e-08
-1.29691e-09
-2.17252e-08
-1.30489e-09
-2.10056e-08
-1.31137e-09
-2.02832e-08
-1.31632e-09
-1.9559e-08
-1.31972e-09
-1.88338e-08
-1.32153e-09
-1.81085e-08
-1.32174e-09
-1.7384e-08
-1.32031e-09
-1.66611e-08
-1.31723e-09
-1.59409e-08
-1.31247e-09
-1.52241e-08
-1.30601e-09
-1.45119e-08
-1.29785e-09
-1.3805e-08
-1.28795e-09
-1.31045e-08
-1.2763e-09
-1.24114e-08
-1.26289e-09
-1.17265e-08
-1.24771e-09
-1.10509e-08
-1.23075e-09
-1.03855e-08
-1.212e-09
-9.7314e-09
-1.19144e-09
-9.08946e-09
-1.16909e-09
-8.4607e-09
-1.14494e-09
-7.8461e-09
-1.11898e-09
-7.24663e-09
-1.09123e-09
-6.66327e-09
-1.06169e-09
-6.09697e-09
-1.03038e-09
-5.54869e-09
-9.97308e-10
-5.01936e-09
-9.62498e-10
-4.50992e-09
-9.25975e-10
-4.02126e-09
-8.87771e-10
-3.55427e-09
-8.47924e-10
-3.1098e-09
-8.06478e-10
-2.68869e-09
-7.63485e-10
-2.29173e-09
-7.19008e-10
-1.91965e-09
-6.73121e-10
-1.57316e-09
-6.2591e-10
-1.25291e-09
-5.77475e-10
-9.59456e-10
-5.27934e-10
-6.93304e-10
-4.77427e-10
-4.54854e-10
-4.26116e-10
-2.44401e-10
-3.74194e-10
-6.2114e-11
-3.21886e-10
9.19896e-11
-2.69464e-10
2.18068e-10
-2.17249e-10
3.16492e-10
-1.65624e-10
3.8788e-10
-1.15054e-10
4.33154e-10
-6.60949e-11
4.53594e-10
-1.94287e-11
4.50913e-10
2.41161e-11
4.27339e-10
6.35235e-11
3.85719e-10
9.75494e-11
3.29627e-10
1.24674e-10
2.63475e-10
1.43062e-10
1.92604e-10
1.50555e-10
1.23318e-10
1.44764e-10
6.27863e-11
1.23325e-10
1.87982e-11
8.46476e-11
3.03966e-11
2.31277e-11
-5.44734e-11
7.42834e-11
-1.36306e-10
1.41163e-10
-1.88942e-10
2.13927e-10
-2.13787e-10
2.84064e-10
-2.14133e-10
3.44219e-10
-1.93754e-10
3.88153e-10
-1.56314e-10
4.10666e-10
-1.05106e-10
4.07502e-10
-4.29736e-11
3.75242e-10
2.76889e-11
3.11195e-10
1.04888e-10
2.13299e-10
1.86975e-10
8.00273e-11
2.72585e-10
-8.96984e-11
3.6059e-10
-2.96573e-10
4.50053e-10
-5.40968e-10
5.402e-10
-8.22981e-10
6.30386e-10
-1.14248e-09
7.20069e-10
-1.49914e-09
8.08798e-10
-1.89246e-09
8.96197e-10
-2.32182e-09
9.81948e-10
-2.78645e-09
1.06579e-09
-3.28552e-09
1.14749e-09
-3.81807e-09
1.22686e-09
-4.38311e-09
1.30376e-09
-4.97957e-09
1.37805e-09
-5.60631e-09
1.44962e-09
-6.2622e-09
1.51838e-09
-6.94602e-09
1.58426e-09
-7.65655e-09
1.6472e-09
-8.39256e-09
1.70717e-09
-9.15277e-09
1.76412e-09
-9.9359e-09
1.81802e-09
-1.07407e-08
1.86888e-09
-1.15658e-08
1.91666e-09
-1.241e-08
1.96138e-09
-1.32719e-08
2.00303e-09
-1.41503e-08
2.04162e-09
-1.50438e-08
2.07717e-09
-1.59512e-08
2.10969e-09
-1.68713e-08
2.13921e-09
-1.78026e-08
2.16574e-09
-1.87441e-08
2.18932e-09
-1.96943e-08
2.20997e-09
-2.06522e-08
2.22772e-09
-2.16164e-08
2.24261e-09
-2.25858e-08
2.25467e-09
-2.35591e-08
2.26394e-09
-2.45352e-08
2.27046e-09
-2.55129e-08
2.27427e-09
-2.64912e-08
2.27541e-09
-2.74687e-08
2.27391e-09
-2.84446e-08
2.26983e-09
-2.94175e-08
2.26321e-09
-3.03866e-08
2.25409e-09
-3.13507e-08
2.24251e-09
-3.23088e-08
2.22853e-09
-3.32598e-08
2.21219e-09
-3.42029e-08
2.19353e-09
-3.51369e-08
2.1726e-09
-3.60611e-08
2.14946e-09
-3.69743e-08
2.12414e-09
-3.78758e-08
2.09671e-09
-3.87645e-08
2.06719e-09
-3.96397e-08
2.03565e-09
-4.05006e-08
2.00214e-09
-4.13461e-08
1.9667e-09
-4.21757e-08
1.92938e-09
-4.29884e-08
1.89023e-09
-4.37835e-08
1.8493e-09
-4.45603e-08
1.80665e-09
-4.5318e-08
1.76232e-09
-4.6056e-08
1.71636e-09
-4.67735e-08
1.66882e-09
-4.747e-08
1.61976e-09
-4.81447e-08
1.56923e-09
-4.8797e-08
1.51727e-09
-4.94264e-08
1.46394e-09
-5.00323e-08
1.40928e-09
-5.06142e-08
1.35337e-09
-5.11715e-08
1.29623e-09
-5.17037e-08
1.23793e-09
-5.22104e-08
1.17851e-09
-5.2691e-08
1.11804e-09
-5.31452e-08
1.05655e-09
-5.35725e-08
9.94117e-10
-5.39726e-08
9.30779e-10
-5.43451e-08
8.66593e-10
-5.46897e-08
8.01613e-10
-5.50059e-08
7.35893e-10
-5.52936e-08
6.69488e-10
-5.55525e-08
6.02452e-10
-5.57823e-08
5.34842e-10
-5.59828e-08
4.66711e-10
-5.61537e-08
3.98116e-10
-5.6295e-08
3.29114e-10
-5.64065e-08
2.59763e-10
-5.6488e-08
1.90117e-10
-5.65395e-08
1.20235e-10
-5.65608e-08
5.01738e-11
-5.6552e-08
-2.00075e-11
-5.65129e-08
-9.02503e-11
-5.64437e-08
-1.60496e-10
-5.63442e-08
-2.30685e-10
-5.62146e-08
-3.00758e-10
-5.6055e-08
-3.70653e-10
-5.58655e-08
-4.40311e-10
-5.56461e-08
-5.0967e-10
-5.5397e-08
-5.78669e-10
-5.51185e-08
-6.47246e-10
-5.48107e-08
-7.15338e-10
-5.44739e-08
-7.82885e-10
-5.41083e-08
-8.49821e-10
-5.37142e-08
-9.16084e-10
-5.32919e-08
-9.81611e-10
-5.28419e-08
-1.04634e-09
-5.23644e-08
-1.1102e-09
-5.18599e-08
-1.17314e-09
-5.13287e-08
-1.23508e-09
-5.07714e-08
-1.29597e-09
-5.01885e-08
-1.35573e-09
-4.95803e-08
-1.41431e-09
-4.89476e-08
-1.47164e-09
-4.82908e-08
-1.52765e-09
-4.76105e-08
-1.58228e-09
-4.69074e-08
-1.63547e-09
-4.61821e-08
-1.68715e-09
-4.54353e-08
-1.73725e-09
-4.46677e-08
-1.78571e-09
-4.388e-08
-1.83248e-09
-4.3073e-08
-1.87748e-09
-4.22475e-08
-1.92065e-09
-4.14042e-08
-1.96193e-09
-4.05441e-08
-2.00126e-09
-3.96679e-08
-2.03857e-09
-3.87767e-08
-2.07382e-09
-3.78712e-08
-2.10692e-09
-3.69525e-08
-2.13784e-09
-3.60215e-08
-2.1665e-09
-3.50792e-08
-2.19285e-09
-3.41266e-08
-2.21683e-09
-3.31647e-08
-2.2384e-09
-3.21947e-08
-2.25749e-09
-3.12175e-08
-2.27405e-09
-3.02344e-08
-2.28804e-09
-2.92464e-08
-2.2994e-09
-2.82546e-08
-2.30808e-09
-2.72603e-08
-2.31403e-09
-2.62646e-08
-2.31722e-09
-2.52687e-08
-2.3176e-09
-2.42739e-08
-2.31513e-09
-2.32814e-08
-2.30977e-09
-2.22924e-08
-2.30149e-09
-2.13081e-08
-2.29024e-09
-2.033e-08
-2.276e-09
-1.93592e-08
-2.25874e-09
-1.83971e-08
-2.23844e-09
-1.74449e-08
-2.21507e-09
-1.6504e-08
-2.18861e-09
-1.55757e-08
-2.15904e-09
-1.46613e-08
-2.12636e-09
-1.37622e-08
-2.09056e-09
-1.28797e-08
-2.05163e-09
-1.2015e-08
-2.00957e-09
-1.11696e-08
-1.96438e-09
-1.03448e-08
-1.91609e-09
-9.54175e-09
-1.86471e-09
-8.76188e-09
-1.81025e-09
-8.00642e-09
-1.75276e-09
-7.27664e-09
-1.69228e-09
-6.57377e-09
-1.62884e-09
-5.89903e-09
-1.56252e-09
-5.25357e-09
-1.49338e-09
-4.63854e-09
-1.42151e-09
-4.05503e-09
-1.347e-09
-3.50407e-09
-1.26997e-09
-2.98663e-09
-1.19056e-09
-2.50362e-09
-1.10892e-09
-2.05587e-09
-1.02523e-09
-1.64408e-09
-9.39717e-10
-1.26889e-09
-8.52622e-10
-9.3077e-10
-7.64237e-10
-6.30057e-10
-6.74906e-10
-3.66913e-10
-5.8503e-10
-1.41294e-10
-4.95083e-10
4.70797e-11
-4.05623e-10
1.9877e-10
-3.17314e-10
3.14665e-10
-2.30947e-10
3.96035e-10
-1.47464e-10
4.44604e-10
-6.79971e-11
4.62622e-10
6.09699e-12
4.52959e-10
7.31872e-11
4.19192e-10
1.31318e-10
3.65709e-10
1.78157e-10
2.97806e-10
2.10966e-10
2.21755e-10
2.26606e-10
1.44867e-10
2.21652e-10
7.55161e-11
1.92676e-10
2.32718e-11
1.36892e-10
5.36681e-11
2.4344e-11
-7.88188e-11
7.72487e-11
-1.89208e-10
1.44451e-10
-2.56144e-10
2.14769e-10
-2.84106e-10
2.78786e-10
-2.78146e-10
3.28446e-10
-2.43415e-10
3.56899e-10
-1.84767e-10
3.58365e-10
-1.06574e-10
3.28046e-10
-1.26538e-11
2.62016e-10
9.37196e-11
1.57132e-10
2.09772e-10
1.09392e-11
3.33168e-10
-1.78422e-10
4.61947e-10
-4.12297e-10
5.94463e-10
-6.9158e-10
7.29336e-10
-1.01679e-09
8.65407e-10
-1.3881e-09
1.0017e-09
-1.80543e-09
1.1374e-09
-2.26844e-09
1.2718e-09
-2.77658e-09
1.40434e-09
-3.32913e-09
1.5345e-09
-3.92523e-09
1.66188e-09
-4.56386e-09
1.78612e-09
-5.24393e-09
1.90693e-09
-5.96422e-09
2.02405e-09
-6.72346e-09
2.13728e-09
-7.52028e-09
2.24644e-09
-8.35327e-09
2.35137e-09
-9.22099e-09
2.45198e-09
-1.01219e-08
2.54815e-09
-1.10546e-08
2.63981e-09
-1.20174e-08
2.7269e-09
-1.30087e-08
2.80938e-09
-1.40271e-08
2.88721e-09
-1.50708e-08
2.96038e-09
-1.61383e-08
3.02887e-09
-1.72279e-08
3.09269e-09
-1.83382e-08
3.15184e-09
-1.94673e-08
3.20634e-09
-2.06139e-08
3.25621e-09
-2.17761e-08
3.30149e-09
-2.29526e-08
3.34219e-09
-2.41416e-08
3.37836e-09
-2.53417e-08
3.41005e-09
-2.65513e-08
3.43729e-09
-2.77688e-08
3.46014e-09
-2.89928e-08
3.47864e-09
-3.02217e-08
3.49286e-09
-3.14541e-08
3.50285e-09
-3.26885e-08
3.50867e-09
-3.39235e-08
3.51038e-09
-3.51576e-08
3.50804e-09
-3.63895e-08
3.50173e-09
-3.76178e-08
3.49149e-09
-3.88411e-08
3.47741e-09
-4.00581e-08
3.45955e-09
-4.12676e-08
3.43798e-09
-4.24682e-08
3.41277e-09
-4.36586e-08
3.38399e-09
-4.48377e-08
3.35172e-09
-4.60043e-08
3.31602e-09
-4.71571e-08
3.27698e-09
-4.82951e-08
3.23466e-09
-4.9417e-08
3.18914e-09
-5.05219e-08
3.14049e-09
-5.16085e-08
3.08879e-09
-5.26759e-08
3.03412e-09
-5.37231e-08
2.97655e-09
-5.47491e-08
2.91616e-09
-5.57528e-08
2.85302e-09
-5.67333e-08
2.78722e-09
-5.76899e-08
2.71882e-09
-5.86214e-08
2.64792e-09
-5.95272e-08
2.57458e-09
-6.04063e-08
2.49888e-09
-6.1258e-08
2.4209e-09
-6.20814e-08
2.34073e-09
-6.28759e-08
2.25844e-09
-6.36408e-08
2.17411e-09
-6.43752e-08
2.08781e-09
-6.50786e-08
1.99964e-09
-6.57504e-08
1.90967e-09
-6.63898e-08
1.81799e-09
-6.69965e-08
1.72466e-09
-6.75697e-08
1.62978e-09
-6.8109e-08
1.53343e-09
-6.86139e-08
1.43568e-09
-6.9084e-08
1.33663e-09
-6.95187e-08
1.23635e-09
-6.99177e-08
1.13493e-09
-7.02807e-08
1.03246e-09
-7.06073e-08
9.29011e-10
-7.08971e-08
8.24677e-10
-7.11499e-08
7.19542e-10
-7.13655e-08
6.13693e-10
-7.15436e-08
5.07216e-10
-7.16841e-08
4.00201e-10
-7.17867e-08
2.92735e-10
-7.18513e-08
1.84906e-10
-7.1878e-08
7.68042e-11
-7.18665e-08
-3.14808e-11
-7.18169e-08
-1.39858e-10
-7.17291e-08
-2.48237e-10
-7.16033e-08
-3.56525e-10
-7.14394e-08
-4.6463e-10
-7.12376e-08
-5.72458e-10
-7.0998e-08
-6.79916e-10
-7.07208e-08
-7.8691e-10
-7.04061e-08
-8.93344e-10
-7.00542e-08
-9.99124e-10
-6.96654e-08
-1.10415e-09
-6.924e-08
-1.20833e-09
-6.87782e-08
-1.31157e-09
-6.82805e-08
-1.41376e-09
-6.77473e-08
-1.51482e-09
-6.7179e-08
-1.61464e-09
-6.65761e-08
-1.71312e-09
-6.59391e-08
-1.81016e-09
-6.52685e-08
-1.90567e-09
-6.45649e-08
-1.99955e-09
-6.3829e-08
-2.09169e-09
-6.30613e-08
-2.182e-09
-6.22625e-08
-2.27038e-09
-6.14335e-08
-2.35672e-09
-6.05748e-08
-2.44094e-09
-5.96873e-08
-2.52292e-09
-5.87719e-08
-2.60257e-09
-5.78294e-08
-2.67979e-09
-5.68606e-08
-2.75448e-09
-5.58665e-08
-2.82655e-09
-5.48481e-08
-2.8959e-09
-5.38064e-08
-2.96242e-09
-5.27422e-08
-3.02603e-09
-5.16569e-08
-3.08663e-09
-5.05513e-08
-3.14413e-09
-4.94267e-08
-3.19842e-09
-4.82842e-08
-3.24943e-09
-4.7125e-08
-3.29705e-09
-4.59503e-08
-3.34121e-09
-4.47613e-08
-3.38181e-09
-4.35594e-08
-3.41877e-09
-4.23458e-08
-3.452e-09
-4.11219e-08
-3.48142e-09
-3.9889e-08
-3.50694e-09
-3.86485e-08
-3.5285e-09
-3.74019e-08
-3.54602e-09
-3.61505e-08
-3.55942e-09
-3.48959e-08
-3.56864e-09
-3.36396e-08
-3.5736e-09
-3.23829e-08
-3.57424e-09
-3.11276e-08
-3.5705e-09
-2.9875e-08
-3.56232e-09
-2.86268e-08
-3.54965e-09
-2.73846e-08
-3.53243e-09
-2.615e-08
-3.51063e-09
-2.49246e-08
-3.48419e-09
-2.37099e-08
-3.45308e-09
-2.25077e-08
-3.41727e-09
-2.13196e-08
-3.37674e-09
-2.01472e-08
-3.33144e-09
-1.89922e-08
-3.28138e-09
-1.78562e-08
-3.22655e-09
-1.67409e-08
-3.16693e-09
-1.56479e-08
-3.10254e-09
-1.45789e-08
-3.03338e-09
-1.35355e-08
-2.95948e-09
-1.25194e-08
-2.88088e-09
-1.1532e-08
-2.7976e-09
-1.05751e-08
-2.70972e-09
-9.65005e-09
-2.61728e-09
-8.75851e-09
-2.52039e-09
-7.9019e-09
-2.41912e-09
-7.08167e-09
-2.31361e-09
-6.2992e-09
-2.20398e-09
-5.55581e-09
-2.09039e-09
-4.85274e-09
-1.97304e-09
-4.19118e-09
-1.85212e-09
-3.57219e-09
-1.72791e-09
-2.99674e-09
-1.60068e-09
-2.46569e-09
-1.47077e-09
-1.97973e-09
-1.33858e-09
-1.53941e-09
-1.20456e-09
-1.14508e-09
-1.06924e-09
-7.96874e-10
-9.33233e-10
-4.94683e-10
-7.97274e-10
-2.38101e-10
-6.62205e-10
-2.63894e-11
-5.29026e-10
1.41577e-10
-3.98914e-10
2.6737e-10
-2.73257e-10
3.53075e-10
-1.53701e-10
4.01366e-10
-4.21938e-11
4.1559e-10
5.89625e-11
3.99855e-10
1.47052e-10
3.59115e-10
2.18897e-10
2.99258e-10
2.70823e-10
2.27192e-10
2.98671e-10
1.50953e-10
2.97891e-10
7.98593e-11
2.6377e-10
2.48933e-11
1.91858e-10
7.85607e-11
2.33906e-11
-1.02209e-10
7.32908e-11
-2.39109e-10
1.34564e-10
-3.17416e-10
1.95206e-10
-3.44747e-10
2.4519e-10
-3.28131e-10
2.76001e-10
-2.74225e-10
2.80383e-10
-1.89148e-10
2.52185e-10
-7.8377e-11
1.86248e-10
5.32819e-11
7.8305e-11
2.01661e-10
-7.51074e-11
3.63185e-10
-2.76738e-10
5.34799e-10
-5.28697e-10
7.13908e-10
-8.32542e-10
8.98307e-10
-1.18934e-09
1.08613e-09
-1.59972e-09
1.27579e-09
-2.06395e-09
1.46594e-09
-2.58199e-09
1.65543e-09
-3.15348e-09
1.8433e-09
-3.77786e-09
2.02872e-09
-4.45434e-09
2.21098e-09
-5.18195e-09
2.38949e-09
-5.95956e-09
2.56374e-09
-6.78592e-09
2.73329e-09
-7.65966e-09
2.89779e-09
-8.57929e-09
3.05691e-09
-9.54326e-09
3.21041e-09
-1.055e-08
3.35806e-09
-1.15977e-08
3.49969e-09
-1.26846e-08
3.63514e-09
-1.38091e-08
3.7643e-09
-1.49693e-08
3.88707e-09
-1.61633e-08
4.00339e-09
-1.73893e-08
4.11319e-09
-1.86454e-08
4.21645e-09
-1.99296e-08
4.31314e-09
-2.12402e-08
4.40326e-09
-2.25752e-08
4.48681e-09
-2.39326e-08
4.56381e-09
-2.53107e-08
4.63428e-09
-2.67075e-08
4.69826e-09
-2.81211e-08
4.7558e-09
-2.95497e-08
4.80693e-09
-3.09913e-08
4.85172e-09
-3.24443e-08
4.89023e-09
-3.39066e-08
4.92251e-09
-3.53767e-08
4.94866e-09
-3.68525e-08
4.96873e-09
-3.83325e-08
4.98281e-09
-3.98148e-08
4.99097e-09
-4.12977e-08
4.99331e-09
-4.27796e-08
4.98992e-09
-4.42587e-08
4.98087e-09
-4.57335e-08
4.96627e-09
-4.72023e-08
4.9462e-09
-4.86635e-08
4.92077e-09
-5.01156e-08
4.89007e-09
-5.1557e-08
4.85419e-09
-5.29863e-08
4.81325e-09
-5.44019e-08
4.76734e-09
-5.58025e-08
4.71657e-09
-5.71865e-08
4.66103e-09
-5.85527e-08
4.60084e-09
-5.98996e-08
4.53609e-09
-6.1226e-08
4.4669e-09
-6.25306e-08
4.39337e-09
-6.38121e-08
4.31561e-09
-6.50693e-08
4.23372e-09
-6.63009e-08
4.14782e-09
-6.75059e-08
4.05801e-09
-6.86831e-08
3.96441e-09
-6.98314e-08
3.86712e-09
-7.09498e-08
3.76625e-09
-7.20371e-08
3.66192e-09
-7.30925e-08
3.55423e-09
-7.41149e-08
3.44331e-09
-7.51034e-08
3.32925e-09
-7.60571e-08
3.21218e-09
-7.69752e-08
3.0922e-09
-7.78568e-08
2.96944e-09
-7.87012e-08
2.844e-09
-7.95075e-08
2.716e-09
-8.02751e-08
2.58555e-09
-8.10032e-08
2.45278e-09
-8.16912e-08
2.31779e-09
-8.23385e-08
2.1807e-09
-8.29444e-08
2.04164e-09
-8.35085e-08
1.90071e-09
-8.40302e-08
1.75804e-09
-8.4509e-08
1.61375e-09
-8.49445e-08
1.46796e-09
-8.53363e-08
1.32079e-09
-8.5684e-08
1.17235e-09
-8.59872e-08
1.02278e-09
-8.62457e-08
8.72196e-10
-8.64592e-08
7.20722e-10
-8.66275e-08
5.68482e-10
-8.67504e-08
4.15604e-10
-8.68277e-08
2.62213e-10
-8.68593e-08
1.08438e-10
-8.68452e-08
-4.5595e-11
-8.67853e-08
-1.99755e-10
-8.66796e-08
-3.53913e-10
-8.65282e-08
-5.07938e-10
-8.63311e-08
-6.61698e-10
-8.60885e-08
-8.1506e-10
-8.58006e-08
-9.67891e-10
-8.54674e-08
-1.12006e-09
-8.50893e-08
-1.27142e-09
-8.46666e-08
-1.42185e-09
-8.41996e-08
-1.5712e-09
-8.36885e-08
-1.71935e-09
-8.3134e-08
-1.86615e-09
-8.25363e-08
-2.01146e-09
-8.1896e-08
-2.15514e-09
-8.12135e-08
-2.29706e-09
-8.04896e-08
-2.43707e-09
-7.97247e-08
-2.57504e-09
-7.89196e-08
-2.71082e-09
-7.80748e-08
-2.84427e-09
-7.71913e-08
-2.97525e-09
-7.62697e-08
-3.10362e-09
-7.53108e-08
-3.22924e-09
-7.43156e-08
-3.35196e-09
-7.32849e-08
-3.47165e-09
-7.22196e-08
-3.58816e-09
-7.11208e-08
-3.70136e-09
-6.99895e-08
-3.8111e-09
-6.88268e-08
-3.91724e-09
-6.76337e-08
-4.01965e-09
-6.64114e-08
-4.11819e-09
-6.51611e-08
-4.21271e-09
-6.3884e-08
-4.30309e-09
-6.25815e-08
-4.3892e-09
-6.12547e-08
-4.47089e-09
-5.99051e-08
-4.54803e-09
-5.8534e-08
-4.6205e-09
-5.71429e-08
-4.68817e-09
-5.57332e-08
-4.75091e-09
-5.43064e-08
-4.8086e-09
-5.2864e-08
-4.86112e-09
-5.14077e-08
-4.90835e-09
-4.99389e-08
-4.95017e-09
-4.84594e-08
-4.98647e-09
-4.69708e-08
-5.01714e-09
-4.54747e-08
-5.04208e-09
-4.3973e-08
-5.06118e-09
-4.24673e-08
-5.07435e-09
-4.09594e-08
-5.08148e-09
-3.94511e-08
-5.0825e-09
-3.79443e-08
-5.07731e-09
-3.64408e-08
-5.06583e-09
-3.49424e-08
-5.048e-09
-3.34511e-08
-5.02373e-09
-3.19688e-08
-4.99298e-09
-3.04973e-08
-4.95567e-09
-2.90386e-08
-4.91176e-09
-2.75947e-08
-4.86121e-09
-2.61675e-08
-4.80397e-09
-2.47589e-08
-4.74003e-09
-2.33709e-08
-4.66936e-09
-2.20055e-08
-4.59196e-09
-2.06646e-08
-4.50782e-09
-1.93502e-08
-4.41696e-09
-1.80642e-08
-4.31939e-09
-1.68085e-08
-4.21516e-09
-1.5585e-08
-4.10432e-09
-1.43957e-08
-3.98694e-09