/*--------------------------------*- C++ -*----------------------------------*\
  =========                 |
  \\      /  F ield         | OpenFOAM: The Open Source CFD Toolbox
   \\    /   O peration     | Website:  https://openfoam.org
    \\  /    A nd           | Version:  7
     \\/     M anipulation  |
\*---------------------------------------------------------------------------*/
FoamFile
{
    version     2.0;
    format      ascii;
    class       volScalarField;
    location    "6";
    object      rho;
}
// * * * * * * * * * * * * * * * * * * * * * * * * * * * * * * * * * * * * * //

dimensions      [1 -3 0 0 0 0 0];

internalField   nonuniform List<scalar> 
2413
(
1.46751
1.46671
1.46602
1.46492
1.46346
1.4616
1.4595
1.45767
1.45621
1.45485
1.45311
1.45173
1.4507
1.44904
1.44715
1.44678
1.44639
1.44439
1.44301
1.44394
1.44419
1.44404
1.44492
1.44659
1.44589
1.44354
1.44024
1.43645
1.43256
1.42875
1.42464
1.4201
1.41496
1.40908
1.4023
1.39413
1.38451
1.37413
1.36444
1.35742
1.35276
1.34889
1.34509
1.34129
1.33871
1.33736
1.33655
1.33582
1.33426
1.332
1.32951
1.32609
1.32124
1.3148
1.30637
1.29556
1.28202
1.26547
1.24616
1.2249
1.20266
1.17971
1.15701
1.13557
1.11532
1.09651
1.07996
1.06754
1.06244
1.06151
1.06138
1.06194
1.06386
1.06736
1.0726
1.07979
1.08875
1.09888
1.10967
1.12105
1.13321
1.14661
1.16165
1.17876
1.1978
1.2185
1.24023
1.26167
1.28127
1.29772
1.3102
1.31869
1.32361
1.32506
1.32485
1.45508
1.45248
1.44946
1.446
1.44384
1.44316
1.4429
1.44298
1.44354
1.44421
1.44504
1.44648
1.44847
1.45079
1.4533
1.45604
1.45911
1.46229
1.46559
1.46884
1.47082
1.47184
1.4727
1.47366
1.47387
1.47373
1.47404
1.47411
1.47359
1.47281
1.47193
1.47111
1.47038
1.46917
1.46767
1.46789
1.46833
1.46785
1.46738
1.46726
1.46722
1.46708
1.46605
1.46452
1.46344
1.46235
1.46091
1.4595
1.45869
1.45789
1.45657
1.45549
1.45528
1.45463
1.45228
1.4509
1.45136
1.45022
1.44925
1.44984
1.44958
1.4476
1.445
1.44191
1.43838
1.43476
1.43127
1.42762
1.4235
1.41903
1.41443
1.4089
1.40185
1.3938
1.38531
1.37693
1.37
1.36489
1.36069
1.35684
1.35306
1.34997
1.34837
1.3473
1.34666
1.34602
1.34494
1.34363
1.34184
1.33923
1.3356
1.33064
1.32408
1.31547
1.30428
1.29023
1.27381
1.2558
1.23636
1.21669
1.19848
1.18277
1.17018
1.16038
1.15523
1.15423
1.15403
1.15429
1.15552
1.15793
1.16155
1.16666
1.17351
1.18182
1.19065
1.19935
1.20799
1.21691
1.22649
1.2369
1.24818
1.26035
1.27329
1.28628
1.29841
1.30884
1.31697
1.32261
1.32606
1.32717
1.32694
1.32607
1.45667
1.45353
1.45022
1.4468
1.444
1.44304
1.4428
1.44277
1.44289
1.44338
1.44393
1.44492
1.44663
1.44897
1.45135
1.45377
1.45671
1.46013
1.46341
1.46643
1.46885
1.46942
1.46947
1.47003
1.47092
1.47089
1.47109
1.47114
1.47021
1.469
1.46791
1.46726
1.467
1.46664
1.4667
1.46776
1.4686
1.46856
1.46825
1.46818
1.46821
1.46775
1.46625
1.46447
1.46336
1.46266
1.46148
1.46035
1.4605
1.46087
1.46099
1.46118
1.46117
1.46018
1.45745
1.45651
1.45623
1.454
1.45243
1.45224
1.451
1.4486
1.44606
1.44327
1.44008
1.43671
1.43362
1.43044
1.42669
1.42277
1.41894
1.41408
1.40794
1.40127
1.39417
1.38677
1.37984
1.37408
1.36941
1.36544
1.36189
1.35858
1.35645
1.35522
1.35417
1.35353
1.35277
1.35154
1.35042
1.34896
1.34653
1.34308
1.33882
1.33338
1.32641
1.31783
1.30758
1.29564
1.28233
1.26866
1.25589
1.24586
1.23904
1.23488
1.23408
1.23439
1.23483
1.23543
1.2366
1.23828
1.24042
1.24368
1.24853
1.25444
1.26035
1.26595
1.27155
1.27734
1.28313
1.28889
1.29502
1.30171
1.30872
1.31539
1.32123
1.32589
1.32918
1.33107
1.33133
1.33078
1.3296
1.32796
1.45801
1.45494
1.45129
1.44727
1.44414
1.44215
1.44129
1.44093
1.44056
1.4405
1.44071
1.44116
1.44207
1.44395
1.44647
1.44861
1.4509
1.4542
1.45814
1.46131
1.46348
1.46415
1.46416
1.46442
1.46451
1.46438
1.46515
1.46539
1.4639
1.46293
1.46292
1.46289
1.46306
1.4628
1.46177
1.46321
1.46662
1.46964
1.47069
1.47106
1.47111
1.47029
1.46846
1.46649
1.46493
1.46407
1.46344
1.46285
1.46251
1.46256
1.46312
1.4641
1.4642
1.46328
1.46134
1.46016
1.45866
1.45629
1.45457
1.45345
1.45151
1.4491
1.44669
1.44412
1.44127
1.43831
1.43558
1.43268
1.42927
1.42584
1.42261
1.41824
1.41274
1.40686
1.4004
1.39368
1.38719
1.38124
1.37612
1.37204
1.36872
1.36559
1.36308
1.36091
1.35932
1.35844
1.35745
1.35583
1.35433
1.35289
1.351
1.34863
1.34575
1.34218
1.33801
1.3333
1.3278
1.3209
1.31259
1.30361
1.29647
1.29234
1.28933
1.28806
1.28858
1.28966
1.29035
1.29103
1.29204
1.29269
1.29344
1.29511
1.29807
1.30178
1.30527
1.30832
1.31142
1.31458
1.31727
1.31983
1.32295
1.32651
1.33
1.33304
1.33536
1.3369
1.33743
1.3371
1.33609
1.33451
1.33248
1.33029
1.45686
1.45294
1.44884
1.4451
1.44239
1.4402
1.4391
1.43861
1.43801
1.4376
1.43749
1.43764
1.43808
1.43898
1.44082
1.44308
1.44495
1.44738
1.45066
1.45373
1.45556
1.45568
1.45564
1.45634
1.45624
1.45597
1.45666
1.45531
1.4538
1.4543
1.45416
1.4538
1.45583
1.45691
1.4558
1.45684
1.46095
1.46306
1.46405
1.46498
1.46574
1.46609
1.46622
1.46575
1.4642
1.46266
1.46247
1.46284
1.46363
1.46435
1.46507
1.46611
1.46618
1.46508
1.46343
1.46175
1.45978
1.45767
1.45566
1.45366
1.45132
1.4488
1.44628
1.44386
1.44156
1.43904
1.43643
1.43372
1.43066
1.4275
1.42423
1.42005
1.41527
1.41002
1.40413
1.39817
1.39235
1.38691
1.38204
1.37793
1.3746
1.3717
1.36904
1.36624
1.36357
1.36205
1.36038
1.35828
1.35619
1.35408
1.35184
1.34987
1.34832
1.34692
1.34547
1.34385
1.3423
1.34039
1.33738
1.33435
1.33229
1.33088
1.33011
1.33067
1.3321
1.33304
1.33339
1.33386
1.33455
1.33408
1.33306
1.33319
1.33445
1.33614
1.3377
1.33893
1.34019
1.34118
1.34075
1.34036
1.34117
1.34276
1.34398
1.34468
1.34462
1.34405
1.34315
1.34185
1.34006
1.3378
1.33522
1.33277
1.4559
1.45191
1.44816
1.44485
1.44224
1.43985
1.43812
1.43782
1.43723
1.43582
1.43483
1.43452
1.43458
1.43501
1.43599
1.43777
1.43962
1.44138
1.44349
1.44538
1.44662
1.44656
1.44605
1.44649
1.44667
1.4465
1.44561
1.44274
1.44136
1.44238
1.44238
1.44209
1.44473
1.44768
1.44759
1.4475
1.45081
1.45525
1.45864
1.4608
1.46259
1.46399
1.46485
1.46512
1.46488
1.4639
1.46343
1.46368
1.46383
1.46409
1.46476
1.4661
1.46693
1.46589
1.4643
1.46252
1.46054
1.45845
1.45601
1.45293
1.45035
1.44796
1.44536
1.44331
1.44139
1.43902
1.43665
1.43416
1.43089
1.42786
1.42454
1.42036
1.41618
1.4114
1.40597
1.40082
1.3958
1.39092
1.38658
1.38279
1.37939
1.37648
1.37371
1.37077
1.3677
1.36525
1.36282
1.36006
1.35746
1.3547
1.35163
1.3495
1.34837
1.34779
1.34741
1.34695
1.34696
1.3476
1.34731
1.34649
1.34597
1.34632
1.34758
1.34793
1.3472
1.34667
1.34666
1.34699
1.34727
1.3468
1.34656
1.34732
1.34858
1.34977
1.35088
1.3517
1.35224
1.35207
1.35129
1.35098
1.35133
1.35181
1.35149
1.35068
1.34952
1.34807
1.34643
1.34455
1.34232
1.33981
1.33714
1.3347
1.45588
1.45215
1.4489
1.44615
1.44385
1.4413
1.43884
1.4384
1.43785
1.43631
1.43504
1.43435
1.43408
1.43412
1.4342
1.43451
1.43569
1.43686
1.43759
1.43859
1.4394
1.43896
1.43811
1.43827
1.4387
1.43729
1.43464
1.43117
1.42905
1.42979
1.43052
1.42993
1.43157
1.43481
1.43522
1.43506
1.43826
1.4437
1.44862
1.45344
1.45667
1.45904
1.46092
1.46198
1.46235
1.46289
1.46341
1.4639
1.46457
1.46551
1.46659
1.46812
1.46852
1.46716
1.4653
1.46333
1.46117
1.45866
1.45569
1.45207
1.4495
1.44712
1.44459
1.44281
1.44102
1.43878
1.43665
1.43407
1.43059
1.42782
1.42448
1.42006
1.41645
1.41211
1.40711
1.4027
1.39833
1.39399
1.3902
1.38674
1.3834
1.3804
1.3775
1.37438
1.37114
1.36822
1.36523
1.36184
1.35873
1.35563
1.35215
1.34945
1.34818
1.34781
1.34757
1.34674
1.34659
1.34751
1.34696
1.34553
1.34498
1.34571
1.34731
1.34752
1.34672
1.34601
1.34597
1.34633
1.34645
1.34648
1.34734
1.3488
1.35031
1.3517
1.35301
1.35406
1.35463
1.35477
1.35479
1.35498
1.3553
1.35483
1.3539
1.35274
1.35128
1.3496
1.34774
1.34572
1.34341
1.34082
1.33814
1.33574
1.45801
1.45449
1.45117
1.44851
1.44631
1.44382
1.44097
1.44007
1.43992
1.43858
1.43665
1.43535
1.43472
1.43445
1.43419
1.4337
1.43397
1.43412
1.43358
1.4338
1.43423
1.43388
1.43329
1.43265
1.43134
1.42861
1.42538
1.4217
1.41817
1.41797
1.41858
1.41791
1.41887
1.42179
1.42258
1.42281
1.42586
1.43115
1.43705
1.44299
1.44792
1.45207
1.45535
1.45765
1.45911
1.46021
1.46123
1.46203
1.46282
1.46383
1.46526
1.4675
1.46897
1.46776
1.46569
1.46344
1.46094
1.45822
1.45517
1.45183
1.44908
1.44641
1.44419
1.44268
1.44085
1.43882
1.437
1.43425
1.4307
1.42801
1.42464
1.42026
1.41717
1.41337
1.40889
1.4049
1.40081
1.39683
1.39335
1.39012
1.38699
1.38407
1.38109
1.37791
1.37455
1.37128
1.36784
1.3639
1.36036
1.35716
1.35345
1.35013
1.34881
1.34864
1.34829
1.34726
1.34708
1.34798
1.34755
1.34594
1.34541
1.34636
1.3475
1.34706
1.3459
1.3456
1.34599
1.34672
1.34737
1.34809
1.34934
1.35094
1.35259
1.3542
1.35566
1.35675
1.35731
1.35745
1.35764
1.35778
1.35717
1.35615
1.35509
1.35379
1.35217
1.35035
1.34834
1.34619
1.34376
1.34112
1.33847
1.33607
1.46131
1.458
1.45483
1.45203
1.44961
1.44734
1.44491
1.44271
1.44163
1.44066
1.43916
1.43771
1.43668
1.43589
1.43517
1.43471
1.4344
1.43352
1.43252
1.43222
1.43207
1.43152
1.4303
1.42845
1.4262
1.42318
1.41987
1.41567
1.41076
1.40893
1.40805
1.40672
1.40724
1.40981
1.41089
1.41106
1.41434
1.4199
1.42586
1.43196
1.43774
1.44309
1.44761
1.45115
1.45395
1.45615
1.45814
1.45992
1.46162
1.46324
1.46488
1.4672
1.46856
1.46713
1.46494
1.46282
1.46037
1.45759
1.45453
1.45144
1.44859
1.44599
1.44407
1.44274
1.44083
1.43889
1.43719
1.4343
1.43087
1.42846
1.42518
1.42106
1.41817
1.41468
1.41055
1.40668
1.40271
1.39882
1.39525
1.39198
1.38889
1.38594
1.38286
1.37975
1.37649
1.37312
1.36963
1.36551
1.36169
1.35866
1.35519
1.35163
1.35041
1.3501
1.34916
1.34813
1.3482
1.34914
1.34861
1.34703
1.34723
1.34873
1.34866
1.34742
1.347
1.34778
1.34909
1.35058
1.35206
1.3535
1.35509
1.35675
1.35857
1.36028
1.36127
1.3616
1.36177
1.3616
1.36116
1.36048
1.35932
1.3579
1.35642
1.35485
1.35299
1.35098
1.34876
1.34643
1.34374
1.34103
1.33842
1.33593
1.46551
1.46211
1.45933
1.45674
1.45406
1.45155
1.44918
1.44691
1.44561
1.44485
1.44363
1.44193
1.4402
1.43871
1.4376
1.43657
1.43534
1.43412
1.43322
1.43261
1.43178
1.43047
1.42859
1.42605
1.42323
1.42006
1.41627
1.41187
1.40751
1.40432
1.40071
1.39796
1.39821
1.4002
1.4011
1.40116
1.40411
1.40953
1.4156
1.42195
1.4283
1.43449
1.43999
1.44454
1.44845
1.45177
1.45492
1.45795
1.46066
1.46289
1.46495
1.46767
1.46862
1.46665
1.46415
1.46191
1.45947
1.45673
1.4538
1.45087
1.44814
1.44585
1.44407
1.44283
1.44084
1.43887
1.43711
1.43413
1.43077
1.4284
1.42516
1.42126
1.4184
1.41506
1.41114
1.40741
1.40358
1.3997
1.3959
1.39248
1.38938
1.38637
1.38325
1.38031
1.37722
1.37391
1.37041
1.36645
1.36242
1.35938
1.35654
1.35325
1.35152
1.3503
1.34859
1.34742
1.34754
1.34785
1.34668
1.34655
1.34752
1.34766
1.34806
1.34905
1.35056
1.3522
1.35419
1.35645
1.35848
1.36017
1.36182
1.36347
1.3652
1.36671
1.36672
1.36639
1.36611
1.36557
1.36459
1.36312
1.36125
1.35942
1.35762
1.35579
1.35377
1.35159
1.34931
1.34672
1.34395
1.34107
1.33874
1.33607
1.47018
1.46679
1.4643
1.46179
1.45913
1.45668
1.45447
1.45221
1.45021
1.44904
1.44794
1.44629
1.44421
1.44216
1.44038
1.43873
1.43722
1.43599
1.43491
1.43371
1.43227
1.43046
1.42823
1.42549
1.42236
1.41907
1.41546
1.41139
1.40716
1.40258
1.397
1.39286
1.39303
1.39416
1.39383
1.39361
1.3965
1.40133
1.40683
1.41309
1.41999
1.42708
1.43338
1.43884
1.44394
1.44873
1.45338
1.45762
1.46109
1.4637
1.46625
1.46928
1.46892
1.46631
1.46355
1.461
1.45841
1.45559
1.4526
1.44997
1.4479
1.44585
1.44409
1.44294
1.44089
1.43877
1.43678
1.4336
1.43016
1.42776
1.42469
1.42096
1.418
1.41475
1.41105
1.4074
1.40372
1.39992
1.39592
1.39233
1.38915
1.38596
1.38278
1.37992
1.37696
1.37375
1.37051
1.36685
1.36279
1.35938
1.35624
1.35329
1.3515
1.34958
1.34723
1.34603
1.34612
1.34545
1.34403
1.34419
1.34534
1.3458
1.3465
1.34804
1.35048
1.35331
1.3559
1.35846
1.36093
1.36308
1.36493
1.36643
1.36782
1.36887
1.36876
1.36812
1.36726
1.36607
1.36461
1.36291
1.361
1.35911
1.35721
1.3552
1.35321
1.35103
1.34894
1.34658
1.34435
1.34172
1.34201
1.34547
1.47537
1.47213
1.46943
1.46692
1.46434
1.46195
1.45983
1.45771
1.45561
1.4541
1.45288
1.45115
1.44872
1.446
1.4436
1.44167
1.43995
1.43836
1.43687
1.43535
1.4336
1.43149
1.42899
1.42609
1.42281
1.41939
1.41584
1.41198
1.40783
1.40344
1.39725
1.39122
1.39002
1.38972
1.38826
1.38842
1.39167
1.39614
1.40122
1.40726
1.41418
1.42144
1.42822
1.43461
1.44087
1.4472
1.45327
1.45839
1.46216
1.46502
1.46823
1.471
1.46947
1.46648
1.46344
1.46047
1.45742
1.45407
1.4513
1.44938
1.44755
1.4456
1.44401
1.44304
1.44101
1.43867
1.43638
1.43301
1.42916
1.42644
1.42336
1.41959
1.41656
1.41362
1.41024
1.40671
1.40328
1.39973
1.39564
1.39203
1.38892
1.38555
1.38231
1.37948
1.37643
1.37322
1.37002
1.36664
1.36295
1.35925
1.35577
1.35289
1.35051
1.34791
1.34477
1.34337
1.34288
1.34156
1.34035
1.34054
1.34146
1.34242
1.34403
1.34655
1.34964
1.35276
1.35593
1.35919
1.36205
1.36444
1.36631
1.36762
1.3688
1.3694
1.36899
1.36821
1.36715
1.36574
1.36389
1.36197
1.3602
1.35827
1.35644
1.35446
1.35264
1.35095
1.34914
1.34712
1.34819
1.35486
1.37358
1.40939
1.48062
1.4774
1.47483
1.4723
1.46971
1.46739
1.46544
1.46337
1.46103
1.459
1.45737
1.45535
1.45253
1.44924
1.44657
1.44473
1.44297
1.44109
1.43928
1.43752
1.43556
1.43322
1.43046
1.4274
1.42409
1.42063
1.41707
1.41333
1.40945
1.40484
1.39816
1.39202
1.38928
1.38741
1.38513
1.38553
1.38885
1.39297
1.39746
1.40286
1.40944
1.41681
1.42409
1.43149
1.43881
1.44602
1.45336
1.46007
1.46507
1.46893
1.47249
1.47214
1.46942
1.46644
1.46354
1.46046
1.45688
1.45307
1.45061
1.44884
1.44708
1.4453
1.44399
1.44316
1.44098
1.43835
1.43585
1.43233
1.42805
1.42497
1.4217
1.41759
1.41445
1.41175
1.40851
1.4051
1.40207
1.39888
1.39494
1.39152
1.38871
1.38543
1.38218
1.37918
1.37593
1.37257
1.36922
1.36563
1.36203
1.3584
1.35444
1.35092
1.34828
1.34559
1.34219
1.34017
1.33909
1.33777
1.33674
1.33675
1.33773
1.33948
1.34195
1.34527
1.34887
1.35246
1.35628
1.36003
1.36313
1.3655
1.36711
1.36837
1.36934
1.36927
1.36861
1.36767
1.36637
1.3648
1.36291
1.36102
1.35924
1.35762
1.35593
1.35449
1.35278
1.35173
1.35394
1.3643
1.3881
1.4344
1.49945
1.57204
1.48644
1.48304
1.48013
1.47758
1.47513
1.4729
1.47089
1.46865
1.46605
1.46369
1.46176
1.45951
1.45639
1.45272
1.45001
1.44827
1.44643
1.44439
1.44236
1.44033
1.43815
1.43564
1.43273
1.42956
1.42629
1.4229
1.41938
1.41574
1.41178
1.40693
1.40027
1.39391
1.39032
1.38749
1.38444
1.38448
1.38747
1.39136
1.39561
1.40068
1.40696
1.41404
1.42132
1.42941
1.43799
1.44678
1.45579
1.46337
1.46875
1.47316
1.4763
1.47471
1.47152
1.46828
1.46493
1.4613
1.4571
1.45276
1.45021
1.44852
1.44676
1.44499
1.44384
1.44271
1.44009
1.43723
1.43468
1.43096
1.42643
1.42303
1.41946
1.4149
1.41171
1.40917
1.406
1.4027
1.4002
1.39743
1.39384
1.39063
1.3878
1.3845
1.38131
1.37818
1.37474
1.37117
1.36755
1.36373
1.35981
1.35586
1.35182
1.34809
1.34512
1.34239
1.33946
1.33709
1.33564
1.33453
1.33403
1.3345
1.33621
1.3388
1.34206
1.34599
1.35018
1.35444
1.35861
1.36217
1.36489
1.36684
1.36842
1.36984
1.37004
1.36944
1.36849
1.36736
1.36592
1.36428
1.36239
1.36065
1.35855
1.35767
1.35619
1.35575
1.35953
1.37372
1.40398
1.46034
1.52759
1.60725
1.66979
1.70974
1.49191
1.48855
1.48556
1.48298
1.48056
1.47826
1.47611
1.4738
1.471
1.46806
1.46561
1.46309
1.4598
1.45607
1.45351
1.45185
1.45008
1.44807
1.44592
1.4436
1.44111
1.43839
1.43535
1.43207
1.42884
1.42559
1.4223
1.41883
1.41484
1.40998
1.40371
1.39733
1.39265
1.38887
1.38546
1.38513
1.38751
1.3911
1.39509
1.39986
1.40577
1.41257
1.41989
1.4283
1.43772
1.44743
1.45708
1.46545
1.47184
1.47739
1.47925
1.4765
1.47271
1.46883
1.46459
1.46034
1.45607
1.45205
1.4495
1.44791
1.44632
1.44483
1.44375
1.44187
1.43871
1.43579
1.43301
1.42891
1.42429
1.42067
1.41675
1.41193
1.4087
1.40605
1.40281
1.39971
1.39752
1.39498
1.39177
1.3888
1.38604
1.38293
1.37961
1.37606
1.37233
1.36852
1.3646
1.36052
1.35629
1.35201
1.3479
1.34447
1.34171
1.33911
1.3366
1.33451
1.3332
1.33279
1.33306
1.33448
1.33705
1.34054
1.34483
1.34924
1.35358
1.35799
1.36227
1.3659
1.3685
1.37015
1.37134
1.37211
1.37162
1.37059
1.36941
1.36789
1.36614
1.3641
1.3621
1.3609
1.35967
1.36024
1.3664
1.38407
1.4233
1.48498
1.55679
1.6382
1.68798
1.72741
1.75887
1.7727
1.49766
1.49431
1.49116
1.4884
1.48591
1.48351
1.48112
1.47848
1.47535
1.47209
1.46937
1.46672
1.46346
1.45994
1.45739
1.45568
1.45397
1.45198
1.44967
1.44712
1.44441
1.44153
1.43838
1.43508
1.43187
1.4287
1.42563
1.42246
1.41865
1.41382
1.408
1.40194
1.39644
1.39143
1.38738
1.38698
1.38892
1.39238
1.39636
1.40095
1.40646
1.41262
1.41947
1.42783
1.43746
1.4475
1.45759
1.46675
1.4736
1.47915
1.48097
1.4782
1.47443
1.47081
1.4669
1.46275
1.45869
1.45478
1.45155
1.44962
1.44765
1.4455
1.44373
1.44133
1.43781
1.4347
1.4314
1.42674
1.42201
1.41826
1.41414
1.40956
1.40637
1.40346
1.40019
1.39732
1.39502
1.39236
1.38916
1.38621
1.38357
1.38056
1.37694
1.37288
1.36869
1.36446
1.36012
1.35574
1.35134
1.34704
1.34334
1.34055
1.33816
1.33582
1.33367
1.33244
1.33221
1.33254
1.33385
1.33633
1.33985
1.34414
1.34868
1.35324
1.35789
1.36266
1.36698
1.37029
1.37243
1.37387
1.3751
1.37489
1.37388
1.3723
1.37068
1.3686
1.36696
1.36494
1.36301
1.36454
1.37377
1.39659
1.44453
1.50778
1.58849
1.65899
1.70658
1.74751
1.77129
1.77863
1.78049
1.78021
1.50332
1.50005
1.49685
1.4939
1.49126
1.48868
1.48602
1.48314
1.47986
1.4763
1.47314
1.47035
1.46731
1.46414
1.46157
1.45977
1.45808
1.45603
1.4535
1.45067
1.44772
1.44468
1.44151
1.43833
1.43522
1.43214
1.42928
1.42634
1.42284
1.41839
1.41315
1.40752
1.40161
1.39578
1.39089
1.38938
1.39065
1.39375
1.39774
1.40234
1.40765
1.41351
1.42015
1.42816
1.43748
1.44739
1.45743
1.46689
1.47413
1.47952
1.482
1.47977
1.47587
1.47192
1.46792
1.46411
1.46051
1.45661
1.45364
1.45137
1.44875
1.44632
1.44405
1.44102
1.43712
1.43367
1.42977
1.42456
1.4198
1.416
1.41183
1.40774
1.40461
1.40152
1.39832
1.39549
1.39281
1.38978
1.38651
1.38367
1.38081
1.37732
1.37328
1.36902
1.36465
1.36005
1.35525
1.35047
1.34589
1.34187
1.33898
1.33679
1.33465
1.33295
1.33218
1.33196
1.33226
1.33361
1.33596
1.33897
1.34288
1.34752
1.35233
1.3571
1.36211
1.36693
1.37085
1.37365
1.37551
1.37688
1.37749
1.37664
1.37519
1.37323
1.37162
1.36933
1.36745
1.37038
1.38144
1.41046
1.46375
1.53161
1.61696
1.67716
1.72511
1.76609
1.78214
1.78432
1.78512
1.78407
1.78271
1.78192
1.50911
1.50584
1.50256
1.49945
1.49658
1.49378
1.49082
1.48763
1.48415
1.48047
1.47713
1.47433
1.47159
1.46875
1.46609
1.46408
1.4623
1.46011
1.45735
1.45425
1.45106
1.44784
1.44463
1.44153
1.43846
1.43554
1.43275
1.43002
1.42692
1.42291
1.41837
1.41339
1.40762
1.40162
1.3964
1.39315
1.39358
1.3959
1.39976
1.40438
1.4096
1.41525
1.42165
1.42925
1.43788
1.44715
1.45677
1.46628
1.4739
1.47879
1.48204
1.48106
1.47775
1.47395
1.47024
1.46666
1.46301
1.45912
1.4563
1.4535
1.45024
1.44737
1.44438
1.4404
1.43632
1.43267
1.42821
1.42273
1.4182
1.41434
1.41032
1.40676
1.40374
1.40059
1.3974
1.39436
1.39119
1.38777
1.38448
1.38144
1.37814
1.37429
1.37001
1.36548
1.36077
1.35586
1.35087
1.34598
1.34159
1.33834
1.33595
1.33372
1.33219
1.33135
1.33102
1.33113
1.33211
1.3342
1.33696
1.34071
1.34556
1.35049
1.355
1.35982
1.36477
1.36908
1.37259
1.3752
1.3769
1.3784
1.37852
1.37725
1.37538
1.37301
1.37188
1.37611
1.38959
1.42518
1.4805
1.55921
1.63601
1.69278
1.7477
1.78111
1.78733
1.78919
1.79143
1.79114
1.78999
1.78843
1.78583
1.78219
1.51491
1.51164
1.50832
1.50507
1.50187
1.49878
1.49559
1.4922
1.48864
1.48498
1.48151
1.47864
1.47612
1.47352
1.47077
1.46851
1.46653
1.46417
1.46124
1.45796
1.45462
1.45131
1.44814
1.44504
1.44196
1.43915
1.43622
1.43356
1.43071
1.42723
1.42336
1.41916
1.41439
1.40877
1.40328
1.39897
1.39802
1.39957
1.4029
1.40735
1.41234
1.41761
1.42363
1.43062
1.43841
1.44681
1.45575
1.46488
1.47281
1.47791
1.48128
1.48194
1.47949
1.47605
1.47267
1.46916
1.46538
1.46177
1.45871
1.45521
1.45163
1.44838
1.44462
1.43999
1.43562
1.43159
1.42656
1.42113
1.41674
1.41281
1.40921
1.40624
1.40335
1.4002
)
;

boundaryField
{
    inlet
    {
        type            calculated;
        value           nonuniform 0();
    }
    outlet
    {
        type            calculated;
        value           nonuniform 0();
    }
    bottom
    {
        type            symmetryPlane;
    }
    top
    {
        type            symmetryPlane;
    }
    obstacle
    {
        type            calculated;
        value           nonuniform 0();
    }
    front
    {
        type            empty;
    }
    back
    {
        type            empty;
    }
    procBoundary14to6
    {
        type            processor;
        value           nonuniform List<scalar> 
133
(
1.46672
1.46543
1.46409
1.46232
1.46035
1.45808
1.45526
1.45211
1.449
1.44621
1.44362
1.44159
1.44033
1.43846
1.43582
1.43519
1.4348
1.43255
1.43171
1.43356
1.4347
1.43574
1.43765
1.44
1.44161
1.44019
1.43687
1.43306
1.42909
1.42504
1.42048
1.41507
1.40905
1.40228
1.39431
1.3848
1.37362
1.36139
1.34986
1.34132
1.33598
1.33193
1.32794
1.3243
1.32233
1.32108
1.31996
1.31795
1.31492
1.31127
1.30663
1.30041
1.29218
1.28162
1.26843
1.25275
1.23477
1.21431
1.19176
1.16831
1.1448
1.12144
1.09866
1.07657
1.05502
1.03472
1.01703
1.00253
0.990316
0.982262
0.980281
0.980021
0.980707
0.982964
0.986896
0.992763
1.00082
1.01102
1.0228
1.03555
1.04916
1.06403
1.08098
1.10072
1.1239
1.15026
1.17943
1.21024
1.24062
1.26817
1.29082
1.30735
1.31773
1.32278
1.32372
1.45261
1.45097
1.44823
1.44523
1.44371
1.44305
1.44258
1.44263
1.44294
1.44334
1.44408
1.44553
1.44756
1.44999
1.45271
1.45563
1.45885
1.46225
1.46583
1.46894
1.47114
1.47281
1.47396
1.47455
1.47463
1.47483
1.47561
1.47591
1.47539
1.47457
1.4736
1.47252
1.47131
1.46947
1.46779
1.46805
1.46826
1.46826
)
;
    }
    procBoundary14to7
    {
        type            processor;
        value           uniform 1.32397;
    }
    procBoundary14to13
    {
        type            processor;
        value           nonuniform List<scalar> 
14
(
1.45724
1.45946
1.46079
1.46056
1.46001
1.45977
1.46121
1.46438
1.46878
1.47395
1.47881
1.48445
1.48987
1.49529
)
;
    }
    procBoundary14to15
    {
        type            processor;
        value           nonuniform List<scalar> 
17
(
1.32467
1.32632
1.32865
1.33096
1.33265
1.33351
1.33343
1.33365
1.33591
1.35924
1.4698
1.64742
1.74307
1.77648
1.77891
1.78128
1.77797
)
;
    }
    procBoundary14to21
    {
        type            processor;
        value           nonuniform List<scalar> 4(1.50087 1.50647 1.51216 1.518);
    }
    procBoundary14to22
    {
        type            processor;
        value           nonuniform List<scalar> 
133
(
1.39699
1.39377
1.39025
1.38673
1.3836
1.38039
1.37667
1.37253
1.36824
1.36383
1.35911
1.35406
1.34879
1.34368
1.33954
1.33652
1.33379
1.33171
1.33066
1.33006
1.3299
1.33032
1.33189
1.33444
1.3378
1.34215
1.3472
1.35208
1.35689
1.36194
1.36616
1.36917
1.37195
1.37442
1.37639
1.37816
1.37811
1.37637
1.37713
1.3826
1.40002
1.43992
1.49943
1.58353
1.6509
1.71479
1.7686
1.78436
1.79074
1.79667
1.80049
1.8004
1.79907
1.7964
1.79221
1.78666
1.78089
1.77626
1.52085
1.51757
1.51414
1.51069
1.50716
1.50375
1.50035
1.49681
1.49321
1.48965
1.48622
1.4833
1.48088
1.47842
1.47563
1.47302
1.4707
1.46817
1.46515
1.46174
1.45828
1.45494
1.45181
1.44863
1.44554
1.44271
1.43964
1.43688
1.43418
1.4314
1.428
1.42434
1.42088
1.41623
1.41082
1.40608
1.40358
1.40433
1.40697
1.41104
1.41578
1.42042
1.42558
1.43188
1.43898
1.44651
1.45453
1.46281
1.47067
1.47657
1.48042
1.4824
1.48102
1.47819
1.47502
1.47142
1.46756
1.46408
1.46048
1.45641
1.45272
1.44906
1.44482
1.44001
1.43539
1.4305
1.42503
1.41985
1.41547
1.41157
1.40833
1.40544
1.40239
1.39699
1.39918
)
;
    }
}


// ************************************************************************* //
