/*--------------------------------*- C++ -*----------------------------------*\
  =========                 |
  \\      /  F ield         | OpenFOAM: The Open Source CFD Toolbox
   \\    /   O peration     | Website:  https://openfoam.org
    \\  /    A nd           | Version:  7
     \\/     M anipulation  |
\*---------------------------------------------------------------------------*/
FoamFile
{
    version     2.0;
    format      ascii;
    class       volVectorField;
    location    "128";
    object      U;
}
// * * * * * * * * * * * * * * * * * * * * * * * * * * * * * * * * * * * * * //

dimensions      [0 1 -1 0 0 0 0];

internalField   nonuniform List<vector> 
15200
(
(-0.267423 -0.637487 -1.83131e-19)
(-0.191188 -0.53596 -9.84964e-20)
(0.270943 0.0734579 -1.56927e-19)
(0.457751 0.525622 -9.03117e-20)
(0.544484 0.665632 6.53077e-20)
(0.485205 0.767558 -5.57953e-20)
(0.409721 0.64454 -2.16926e-20)
(0.576757 0.158891 5.1155e-20)
(0.753241 -0.257444 1.20389e-20)
(0.864464 -0.471854 -3.51103e-21)
(0.8147 -0.601536 -5.65502e-21)
(0.749011 -0.635424 -7.0313e-21)
(0.778031 -0.402273 2.27185e-20)
(0.880154 0.000566442 -9.37838e-21)
(0.88859 0.361277 -1.87037e-20)
(-0.264678 -0.615613 -2.97681e-19)
(-0.200105 -0.576334 -4.43538e-19)
(0.218294 0.016735 4.06343e-19)
(0.406844 0.493789 -1.50283e-19)
(0.506651 0.65875 -2.89584e-20)
(0.432778 0.782812 1.23902e-19)
(0.406669 0.624687 -1.28588e-20)
(0.647364 0.115988 6.66647e-20)
(0.807892 -0.295877 -1.73366e-20)
(0.897659 -0.479578 6.88492e-21)
(0.866862 -0.575084 1.8812e-20)
(0.768371 -0.629869 1.91097e-21)
(0.787492 -0.426405 -3.87216e-21)
(0.840828 -0.0184247 5.96208e-21)
(0.830329 0.369113 -3.36654e-20)
(-0.261567 -0.591698 8.56263e-19)
(-0.191973 -0.612882 6.27849e-19)
(0.171043 -0.0431794 -8.04775e-20)
(0.365821 0.458064 4.11979e-19)
(0.467118 0.649363 -3.03857e-19)
(0.379605 0.790124 1.12364e-19)
(0.420573 0.591511 3.96866e-20)
(0.7276 0.0748698 -5.38178e-21)
(0.876 -0.319736 -1.04348e-19)
(0.929099 -0.484014 -7.61224e-20)
(0.915636 -0.543057 8.62664e-20)
(0.784526 -0.615813 2.22844e-20)
(0.781295 -0.443129 -2.40251e-20)
(0.789956 -0.0327518 -3.00539e-20)
(0.764793 0.362631 3.51369e-20)
(-0.257847 -0.56665 -9.02508e-19)
(-0.164751 -0.643534 4.06567e-19)
(0.131034 -0.105069 3.9722e-20)
(0.33561 0.41981 -2.95329e-19)
(0.426338 0.6383 3.78562e-19)
(0.327057 0.786811 -1.41426e-19)
(0.449698 0.544593 -5.3203e-20)
(0.803998 0.0337715 3.39994e-19)
(0.949195 -0.330087 2.57631e-19)
(0.961424 -0.48198 8.84416e-20)
(0.953064 -0.506213 -3.8119e-20)
(0.800941 -0.5889 -6.10391e-20)
(0.759537 -0.454131 4.27264e-20)
(0.733792 -0.0448676 8.28049e-20)
(0.696887 0.340365 -1.084e-19)
(-0.253425 -0.541451 1.65848e-18)
(-0.118969 -0.666939 -8.24311e-19)
(0.0996896 -0.16727 -7.68905e-19)
(0.315489 0.380078 -1.21568e-19)
(0.384535 0.626179 -3.90317e-19)
(0.279559 0.771524 -1.76287e-19)
(0.497611 0.488882 1.4009e-19)
(0.877508 -0.00581643 -3.64096e-19)
(1.01911 -0.329702 -1.81142e-19)
(0.997327 -0.470044 -1.85578e-20)
(0.974543 -0.467622 -9.7676e-20)
(0.825309 -0.543831 4.65158e-20)
(0.72637 -0.453749 -1.22434e-19)
(0.663611 -0.0580074 -7.73795e-20)
(0.627873 0.307735 2.3809e-19)
(-0.248343 -0.517036 -1.13368e-18)
(-0.0574374 -0.682308 1.94672e-19)
(0.0765035 -0.227932 7.43249e-19)
(0.303167 0.339509 3.15337e-19)
(0.341267 0.612838 1.10848e-19)
(0.242354 0.744254 2.27589e-19)
(0.570056 0.431055 -4.63589e-20)
(0.955193 -0.0388559 -1.12699e-19)
(1.07947 -0.321355 -9.62715e-20)
(1.03729 -0.446317 6.98149e-20)
(0.982584 -0.431112 1.04856e-19)
(0.858839 -0.481888 7.74781e-20)
(0.693164 -0.429415 6.76276e-20)
(0.574169 -0.0738457 -4.77468e-21)
(0.568869 0.262959 -4.27684e-20)
(-0.242703 -0.494177 -7.81769e-19)
(0.0152827 -0.689437 -2.23374e-19)
(0.058173 -0.286006 -5.5826e-19)
(0.29512 0.298209 2.37032e-19)
(0.294686 0.596999 -1.73583e-19)
(0.222554 0.704977 1.55663e-19)
(0.664259 0.37367 9.1191e-20)
(1.03707 -0.061579 1.29088e-19)
(1.1284 -0.306835 2.4993e-19)
(1.07725 -0.411869 1.45416e-21)
(0.985496 -0.397763 -6.07993e-20)
(0.892963 -0.41256 -2.35701e-20)
(0.678951 -0.374689 8.62588e-20)
(0.495747 -0.0877748 -5.09324e-20)
(0.544691 0.195368 -4.05437e-20)
(-0.236531 -0.473376 -3.7476e-19)
(0.0939614 -0.688531 3.53798e-19)
(0.0401492 -0.341223 1.00437e-19)
(0.286863 0.255626 2.54157e-19)
(0.241437 0.575513 1.84088e-19)
(0.230795 0.654336 -5.40819e-19)
(0.770768 0.317402 9.97253e-20)
(1.11488 -0.0734804 1.32214e-19)
(1.16803 -0.286685 -3.19776e-19)
(1.11008 -0.370537 -4.49545e-20)
(0.99265 -0.364846 -5.60733e-20)
(0.918201 -0.348356 6.02464e-21)
(0.700114 -0.29685 -2.27467e-20)
(0.493728 -0.0838578 4.59781e-21)
(0.5981 0.125113 2.05477e-20)
(-0.22962 -0.454815 -1.243e-19)
(0.174004 -0.679953 -1.94609e-19)
(0.0204711 -0.392909 7.10896e-19)
(0.272987 0.210619 -2.17473e-19)
(0.178546 0.542883 8.47738e-20)
(0.278542 0.595879 2.79798e-19)
(0.881748 0.265913 -1.97814e-19)
(1.18052 -0.0760308 -8.47081e-20)
(1.20052 -0.260496 4.00043e-20)
(1.13026 -0.327966 1.25276e-19)
(1.00914 -0.32707 2.56539e-20)
(0.932371 -0.298447 -6.3937e-20)
(0.755506 -0.221209 -8.70787e-22)
(0.603606 -0.0575946 -2.64886e-21)
(0.728181 0.0839802 3.55716e-20)
(-0.221406 -0.438339 -2.49877e-18)
(0.252466 -0.664138 -1.15822e-18)
(0.00271173 -0.437792 -3.28504e-19)
(0.247688 0.161843 2.17931e-19)
(0.108705 0.493028 -1.16357e-19)
(0.372263 0.534339 9.26628e-20)
(0.989991 0.22391 1.74354e-19)
(1.23082 -0.070931 1.14764e-19)
(1.22436 -0.22884 3.01667e-19)
(1.13988 -0.287878 -1.33035e-19)
(1.02979 -0.284085 -7.27129e-20)
(0.941727 -0.258499 3.53013e-20)
(0.813925 -0.172015 -2.77987e-21)
(0.756708 -0.0272553 -2.53444e-20)
(0.852017 0.0657316 -2.74421e-20)
(-0.210879 -0.423485 4.74891e-18)
(0.328344 -0.641819 -2.04869e-19)
(-0.00508809 -0.469184 -1.78113e-19)
(0.208676 0.107457 -5.75254e-19)
(0.0506731 0.425526 1.80084e-19)
(0.507755 0.472518 3.35782e-19)
(1.086 0.193032 -4.67057e-19)
(1.26556 -0.0593541 2.82714e-19)
(1.23646 -0.195084 -2.11448e-19)
(1.14547 -0.248827 -2.19071e-19)
(1.04463 -0.244171 8.83687e-20)
(0.958766 -0.218052 2.85987e-21)
(0.859299 -0.147389 -1.44593e-20)
(0.854684 -0.0159738 2.43481e-20)
(0.90325 0.0441042 1.66665e-20)
(-0.196556 -0.409482 -1.22014e-18)
(0.402031 -0.614455 9.80883e-19)
(0.0057604 -0.480675 2.35588e-21)
(0.164465 0.0496663 2.40909e-20)
(0.0465537 0.354125 -1.10312e-19)
(0.666819 0.413731 -2.70577e-19)
(1.16163 0.172196 5.29359e-19)
(1.28428 -0.0430996 -2.14331e-19)
(1.23767 -0.162378 -9.1156e-20)
(1.14861 -0.210223 2.29161e-20)
(1.05286 -0.210535 -2.34564e-20)
(0.979851 -0.181053 1.69402e-20)
(0.898158 -0.127842 6.13219e-21)
(0.890206 -0.0225899 -2.31306e-20)
(0.916736 0.016104 -3.1313e-20)
(-0.176532 -0.395212 1.59272e-18)
(0.474172 -0.584296 -1.11482e-19)
(0.0418535 -0.468407 2.6627e-19)
(0.14295 -0.00175125 2.07499e-20)
(0.13929 0.30291 -8.06118e-20)
(0.823273 0.361928 2.50531e-19)
(1.21283 0.159395 -7.9686e-20)
(1.28732 -0.0252282 -2.88643e-22)
(1.23168 -0.131367 3.59964e-19)
(1.14718 -0.175371 9.96278e-20)
(1.06087 -0.179004 2.72039e-20)
(0.994298 -0.152797 7.6287e-21)
(0.930788 -0.108207 1.92655e-20)
(0.916304 -0.026398 1.61401e-20)
(0.939803 0.00147769 6.88032e-21)
(-0.148602 -0.379144 2.21985e-18)
(0.544634 -0.55331 1.80155e-18)
(0.104612 -0.433589 -2.21086e-19)
(0.183053 -0.031758 2.08881e-19)
(0.321541 0.283676 -1.12122e-20)
(0.952827 0.321741 -2.66039e-19)
(1.23938 0.15201 -3.79884e-19)
(1.27784 -0.00822245 1.53048e-19)
(1.22084 -0.102918 -3.74644e-20)
(1.1427 -0.144945 -3.19297e-20)
(1.06745 -0.150254 -9.66882e-20)
(1.00569 -0.129062 -6.02216e-20)
(0.956057 -0.0933923 -1.8608e-20)
(0.943151 -0.0271682 4.84654e-21)
(0.960863 -0.00469977 -7.41066e-22)
(-0.110392 -0.359332 -5.54948e-18)
(0.613031 -0.523053 -3.1492e-18)
(0.189837 -0.385425 2.54582e-20)
(0.296919 -0.0299293 -1.57355e-19)
(0.528958 0.283136 1.56969e-19)
(1.04091 0.292221 2.1258e-19)
(1.24397 0.146595 6.91751e-20)
(1.26051 0.00668003 8.2237e-20)
(1.20674 -0.0781845 1.1091e-20)
(1.1373 -0.117969 -1.89326e-21)
(1.07085 -0.125619 1.64226e-19)
(1.01629 -0.108189 5.7631e-20)
(0.975643 -0.0801381 2.14384e-20)
(0.960444 -0.0284188 -1.48771e-21)
(0.972624 -0.0103973 -5.8761e-21)
(-0.0597036 -0.333579 -7.4699e-19)
(0.679449 -0.494622 2.49326e-18)
(0.289596 -0.332569 -7.15473e-20)
(0.449506 -0.00423857 1.52954e-19)
(0.697306 0.280259 -1.75801e-19)
(1.08729 0.266304 -1.7838e-19)
(1.23326 0.140963 -1.66643e-20)
(1.23936 0.0187817 -1.27049e-19)
(1.19145 -0.0570809 -1.62396e-21)
(1.13097 -0.0947003 -1.73766e-20)
(1.07276 -0.103842 -9.47356e-20)
(1.02469 -0.0908007 -5.27112e-20)
(0.991184 -0.0680706 -3.22812e-20)
(0.974816 -0.0281446 -4.95547e-21)
(0.984329 -0.0124041 4.45298e-21)
(0.00491103 -0.299611 3.86394e-18)
(0.743998 -0.468019 1.18672e-18)
(0.393681 -0.28109 -5.10446e-20)
(0.5905 0.0214189 -2.2543e-19)
(0.807591 0.265131 5.11462e-20)
(1.10337 0.240312 -2.99331e-20)
(1.21482 0.13455 -4.58773e-20)
(1.21738 0.0280621 -6.75321e-20)
(1.17629 -0.0392071 -2.99051e-20)
(1.12414 -0.0748639 -5.83939e-21)
(1.07354 -0.0847064 7.07017e-22)
(1.03164 -0.0758138 2.47098e-20)
(1.00277 -0.0577237 2.02543e-20)
(0.986929 -0.0268955 3.41568e-21)
(0.993352 -0.0129454 -1.3146e-21)
(0.0832505 -0.255932 -3.96799e-18)
(0.806225 -0.442284 -8.98637e-19)
(0.493643 -0.234175 3.29839e-19)
(0.69753 0.0346239 6.47635e-20)
(0.874757 0.240232 -8.10146e-20)
(1.10393 0.214561 1.0853e-19)
(1.1941 0.12769 2.77501e-19)
(1.19643 0.0350418 -4.2364e-20)
(1.1618 -0.0242856 2.45185e-19)
(1.1173 -0.0578352 -1.79176e-20)
(1.07329 -0.0681767 -6.58688e-20)
(1.03709 -0.062769 3.5388e-20)
(1.01117 -0.0481833 1.10621e-20)
(0.996403 -0.0252803 1.16404e-20)
(0.999886 -0.012741 3.81812e-21)
(0.173338 -0.202821 8.57927e-19)
(0.865013 -0.416095 -4.57425e-19)
(0.584437 -0.192693 4.13194e-19)
(0.776207 0.0380758 1.30418e-19)
(0.918554 0.213165 5.43256e-20)
(1.09871 0.190573 3.05689e-20)
(1.17392 0.120867 -2.34762e-19)
(1.1772 0.0401809 3.95e-20)
(1.14828 -0.0118764 -1.96107e-19)
(1.11057 -0.0432761 7.55517e-20)
(1.07237 -0.0538527 5.20816e-20)
(1.04106 -0.0513929 -2.47872e-20)
(1.01757 -0.0396337 -3.41852e-20)
(1.00496 -0.0230882 3.85499e-21)
(1.00475 -0.0112156 2.54487e-21)
(0.271032 -0.142757 -4.29484e-19)
(0.919058 -0.388777 -1.05325e-18)
(0.664946 -0.156004 -9.16934e-19)
(0.836596 0.0375025 -1.67611e-19)
(0.950096 0.188671 9.86025e-21)
(1.092 0.169055 -1.76651e-19)
(1.15539 0.114353 1.19281e-19)
(1.15984 0.0438294 -6.46179e-21)
(1.13591 -0.00151232 1.03425e-19)
(1.10405 -0.0308886 -1.01621e-19)
(1.07099 -0.0414777 1.50572e-20)
(1.04375 -0.0411923 -2.18048e-20)
(1.0224 -0.0322365 -3.62665e-21)
(1.0116 -0.0203611 -4.20274e-21)
(1.00725 -0.00918049 2.81384e-21)
(0.370349 -0.0805074 4.12868e-19)
(0.967061 -0.360461 1.05869e-18)
(0.735626 -0.123238 5.29778e-19)
(0.884178 0.0356755 1.96121e-19)
(0.973876 0.167949 1.31625e-20)
(1.08543 0.150135 4.42652e-20)
(1.13891 0.108239 -1.45284e-19)
(1.14441 0.0463531 3.36388e-20)
(1.12467 0.00712352 -1.09846e-19)
(1.09785 -0.0203173 1.07197e-19)
(1.06916 -0.0307622 4.35048e-20)
(1.04539 -0.0321886 -5.05536e-20)
(1.02627 -0.0257153 1.17943e-20)
(1.01639 -0.0167657 -9.73678e-21)
(1.00865 -0.00823319 -2.06431e-21)
(0.464858 -0.0221618 -7.51905e-19)
(1.00831 -0.33191 4.3018e-19)
(0.796993 -0.0939489 -1.40361e-18)
(0.921864 0.0334124 -2.30656e-19)
(0.992056 0.150859 -7.84985e-20)
(1.07964 0.133717 1.17865e-19)
(1.12456 0.102624 1.98954e-19)
(1.13079 0.0480243 -6.16328e-20)
(1.11451 0.014358 1.90229e-19)
(1.09198 -0.0113212 -5.95036e-20)
(1.06705 -0.0214381 -5.14819e-20)
(1.04627 -0.0242456 4.18784e-20)
(1.02913 -0.0197337 -4.87434e-21)
(1.01946 -0.0132858 -1.16154e-20)
(1.01261 -0.00697769 -1.48086e-20)
(0.549694 0.0269133 -8.74299e-19)
(1.0429 -0.304088 8.26445e-19)
(0.849705 -0.0678475 3.61621e-19)
(0.951865 0.0310471 2.45435e-19)
(1.00606 0.137061 2.71623e-19)
(1.07486 0.11966 6.21621e-20)
(1.11223 0.0975825 -1.93405e-19)
(1.11882 0.0490654 3.53643e-20)
(1.10535 0.0204538 -6.36919e-20)
(1.08645 -0.00366265 -7.90495e-20)
(1.06472 -0.0133125 -5.4012e-20)
(1.04651 -0.0171887 -1.49604e-20)
(1.03102 -0.0143139 -9.35219e-21)
(1.02221 -0.0100151 1.00605e-20)
(1.01463 -0.00456409 1.99302e-20)
(0.622993 0.0641164 9.06866e-19)
(1.07161 -0.277716 -1.02518e-18)
(0.894661 -0.0445552 7.85282e-20)
(0.976009 0.0288246 -3.49939e-19)
(1.01687 0.126177 -1.57564e-19)
(1.07107 0.107768 7.4586e-20)
(1.10172 0.093148 2.19144e-20)
(1.10835 0.0496738 4.07682e-20)
(1.0971 0.0256088 -7.69732e-20)
(1.08125 0.00287526 1.46566e-19)
(1.06223 -0.00619723 1.11401e-19)
(1.04626 -0.0109541 4.85199e-20)
(1.03239 -0.00941666 4.9909e-20)
(1.02395 -0.00638648 1.22242e-20)
(1.01662 -0.00285227 -1.57845e-21)
(0.685806 0.0902322 6.14883e-19)
(1.09557 -0.253103 -2.37122e-19)
(0.932823 -0.0236158 7.666e-19)
(0.995684 0.0269529 3.24934e-19)
(1.02523 0.117787 6.13938e-20)
(1.06815 0.0978175 -2.25058e-19)
(1.09279 0.0893409 -7.00063e-22)
(1.09919 0.0499885 -7.20984e-20)
(1.08967 0.0300084 8.15531e-21)
(1.07639 0.00846242 7.95036e-21)
(1.05964 5.30199e-05 5.40491e-20)
(1.04567 -0.00543864 -9.10454e-21)
(1.03308 -0.00478011 5.55516e-21)
(1.02517 -0.00342145 9.49269e-21)
(1.01823 -0.000438952 8.43664e-21)
(0.740687 0.10828 5.23749e-18)
(1.11591 -0.230246 6.61723e-19)
(0.965054 -0.00455132 -6.58726e-19)
(1.01189 0.0255978 2.41111e-19)
(1.03172 0.111468 -6.18997e-20)
(1.0659 0.0895897 1.57024e-20)
(1.08519 0.0861529 1.83842e-19)
(1.09118 0.0501332 9.44268e-20)
(1.08295 0.0337905 8.36637e-20)
(1.07182 0.0132572 -4.92489e-20)
(1.057 0.00555288 -2.14204e-20)
(1.04477 -0.000496266 -4.6437e-20)
(1.03331 -0.000694011 -1.14193e-21)
(1.02606 -0.000232124 -2.21624e-20)
(1.01917 0.00160138 -1.54205e-20)
(0.790137 0.121677 -2.1249e-18)
(1.13355 -0.20899 3.43789e-19)
(0.992068 0.0130978 -3.17843e-19)
(1.02538 0.0248512 -7.5022e-20)
(1.03677 0.106864 -3.14971e-19)
(1.06416 0.0828747 2.10264e-19)
(1.07869 0.0835641 -4.2361e-20)
(1.08417 0.0501993 -4.23953e-20)
(1.07688 0.0370711 -8.56861e-20)
(1.06755 0.0173882 1.98508e-20)
(1.05433 0.0104245 -6.28191e-20)
(1.04365 0.00386329 -2.0992e-22)
(1.03321 0.00318889 4.67486e-20)
(1.02633 0.00245942 -3.87509e-20)
(1.02002 0.00383783 4.31288e-21)
(0.835814 0.133024 -1.55117e-18)
(1.14906 -0.189075 4.87919e-20)
(1.0145 0.0297097 2.11581e-19)
(1.03672 0.0247291 3.39524e-21)
(1.04067 0.103689 1.15195e-19)
(1.06278 0.0774759 -2.31323e-19)
(1.07308 0.0815422 -1.75561e-19)
(1.07801 0.0502531 1.54398e-19)
(1.07137 0.0399474 7.87463e-20)
(1.06353 0.020966 2.407e-20)
(1.05167 0.0147354 -2.12813e-20)
(1.04236 0.00780266 -1.83703e-20)
(1.03269 0.00660963 -4.70771e-20)
(1.02652 0.00515596 5.76039e-20)
(1.02033 0.00594238 -1.48843e-20)
(0.878555 0.143897 1.10902e-18)
(1.16273 -0.170193 1.94817e-18)
(1.03293 0.0455263 -1.79489e-20)
(1.04639 0.0251973 -3.38951e-19)
(1.04366 0.101715 2.50865e-20)
(1.06163 0.0732149 -5.10802e-20)
(1.06819 0.0800451 1.78486e-19)
(1.07257 0.0503437 -2.14787e-19)
(1.06633 0.0424925 3.79637e-20)
(1.05975 0.0240831 -8.12493e-20)
(1.04904 0.0185834 1.71829e-20)
(1.0409 0.0112869 5.2128e-20)
(1.03203 0.00981003 -2.21862e-20)
(1.02623 0.00756316 -2.95299e-20)
(1.02052 0.00801191 -6.66582e-21)
(0.918696 0.155156 -4.65076e-18)
(1.17476 -0.152068 1.37288e-19)
(1.04794 0.0606527 2.35161e-19)
(1.05467 0.0262341 3.35765e-19)
(1.04591 0.100768 2.71973e-19)
(1.06062 0.0699358 1.32714e-19)
(1.06387 0.0790279 -2.43525e-19)
(1.06773 0.0505013 5.34664e-20)
(1.06171 0.0447716 -1.17469e-19)
(1.05617 0.0268192 -1.38746e-21)
(1.04642 0.0220086 -2.79803e-21)
(1.03937 0.0144389 -8.40775e-21)
(1.03104 0.0126636 -5.7346e-20)
(1.02588 0.00986725 9.02358e-22)
(1.02041 0.0100024 1.82182e-20)
(0.956328 0.167276 2.41158e-18)
(1.18526 -0.13446 -8.083e-19)
(1.06005 0.0751407 -5.37344e-19)
(1.06168 0.0278514 -1.19613e-19)
(1.04752 0.100706 -1.23043e-19)
(1.05966 0.0675036 -5.72201e-20)
(1.05998 0.0784421 1.08328e-19)
(1.06339 0.0507469 1.29376e-19)
(1.05745 0.0468339 3.18457e-20)
(1.05279 0.0292343 2.18542e-20)
(1.04386 0.0250856 -2.9724e-21)
(1.03769 0.0172434 -2.88106e-20)
(1.02998 0.0152947 2.49296e-20)
(1.02524 0.0119917 6.88346e-21)
(1.02012 0.0118924 -1.17754e-20)
(0.99144 0.180532 2.46235e-18)
(1.19435 -0.117166 1.00489e-19)
(1.06972 0.0890387 7.46097e-20)
(1.06752 0.030042 6.63472e-20)
(1.04858 0.101399 -2.82457e-20)
(1.0587 0.0657998 -1.03088e-19)
(1.05642 0.078239 -5.84e-20)
(1.05945 0.0510909 -7.78711e-20)
(1.05347 0.0487182 -1.39721e-20)
(1.04957 0.0313861 -3.10327e-20)
(1.04132 0.0278425 4.74022e-20)
(1.03599 0.0197764 3.05925e-20)
(1.02871 0.0176693 -3.34857e-21)
(1.02451 0.0139906 1.27964e-20)
(1.01967 0.0136781 9.59672e-21)
(1.02397 0.195074 4.00525e-19)
(1.20208 -0.100016 5.07399e-19)
(1.07729 0.102397 8.06463e-19)
(1.07227 0.0327685 -4.57352e-19)
(1.04914 0.102727 1.62253e-19)
(1.05766 0.0647212 6.79136e-20)
(1.0531 0.0783701 6.82155e-20)
(1.05582 0.0515359 -1.87565e-20)
(1.04974 0.0504549 1.22361e-20)
(1.04649 0.0333136 9.23831e-21)
(1.03883 0.0303323 -2.60227e-20)
(1.03419 0.0220433 -8.09812e-21)
(1.02739 0.0198394 2.33478e-21)
(1.02362 0.0158478 -1.66307e-20)
(1.01906 0.0153596 3.13224e-22)
(1.05383 0.210967 -1.5269e-18)
(1.20849 -0.0828773 -6.01671e-19)
(1.08304 0.11526 -3.58816e-19)
(1.07599 0.0359876 2.68952e-19)
(1.04922 0.104583 -1.69662e-19)
(1.05652 0.0641786 -5.56342e-20)
(1.04995 0.0787882 -2.68823e-20)
(1.05244 0.0520788 -1.38141e-20)
(1.04622 0.0520656 6.05815e-21)
(1.04354 0.0350583 2.52783e-20)
(1.03636 0.0325767 -2.78886e-20)
(1.03238 0.0240832 2.27257e-21)
(1.02595 0.0218125 5.333e-21)
(1.02264 0.017591 4.11831e-21)
(1.01835 0.0169091 -1.29441e-21)
(1.08092 0.228205 1.19678e-18)
(1.21357 -0.0656507 -1.12197e-19)
(1.08718 0.127663 -1.01464e-19)
(1.07875 0.03965 6.83846e-20)
(1.04887 0.106868 -4.06291e-20)
(1.05522 0.0640936 6.93809e-20)
(1.04692 0.0794472 1.40699e-20)
(1.04926 0.052712 1.89465e-20)
(1.04285 0.0535696 1.0512e-20)
(1.04069 0.0366461 1.20794e-20)
(1.03393 0.0346077 2.12781e-20)
(1.03052 0.0259143 -1.44629e-20)
(1.02446 0.0236124 -1.92728e-20)
(1.02157 0.0192049 -3.58972e-21)
(1.01751 0.018367 1.01573e-20)
(1.10515 0.246732 -1.71697e-18)
(1.21732 -0.0482701 -2.52946e-19)
(1.08991 0.139631 -3.3195e-19)
(1.08058 0.043702 -1.42158e-19)
(1.0481 0.109495 1.55404e-19)
(1.05374 0.0643972 3.10308e-20)
(1.04395 0.0803037 -2.21366e-20)
(1.04621 0.0534274 -1.75986e-20)
(1.0396 0.0549785 2.62736e-20)
(1.03792 0.038102 -1.69265e-21)
(1.03151 0.0364426 1.26244e-20)
(1.02865 0.0275573 9.62825e-21)
(1.02291 0.0252561 1.38385e-20)
(1.02041 0.0207155 5.80575e-22)
(1.01661 0.0196802 -4.48622e-21)
(1.12643 0.266449 9.39247e-19)
(1.21971 -0.0307021 4.6719e-19)
(1.09139 0.151183 1.77709e-19)
(1.08151 0.0480887 8.56342e-20)
(1.04694 0.112382 1.21765e-21)
(1.05205 0.0650291 -2.92238e-20)
(1.041 0.0813173 6.61794e-21)
(1.04324 0.0542137 4.09973e-20)
(1.03645 0.0562998 -1.22305e-20)
(1.03522 0.0394407 3.74714e-21)
(1.02913 0.0380983 7.76843e-22)
(1.02675 0.0290356 -2.74931e-21)
(1.02132 0.0267536 -1.4585e-21)
(1.01921 0.0220933 3.08169e-21)
(1.01563 0.0209115 3.00606e-21)
(1.14468 0.287224 -8.6777e-19)
(1.22068 -0.0129447 2.65908e-20)
(1.09172 0.162329 3.22518e-20)
(1.08158 0.052756 -1.17255e-19)
(1.04538 0.115458 -7.97434e-20)
(1.05013 0.065935 2.59468e-21)
(1.03804 0.0824493 -1.27367e-20)
(1.04032 0.0550563 -1.95875e-20)
(1.03339 0.0575355 -5.26217e-21)
(1.03256 0.0406766 -1.57773e-20)
(1.02677 0.0395899 -1.35621e-20)
(1.02482 0.0303625 -9.87731e-22)
(1.0197 0.0281149 1.56158e-21)
(1.01794 0.0233661 -4.58595e-21)
(1.0146 0.0220039 -1.1801e-21)
(1.15984 0.308897 3.06036e-19)
(1.22022 0.00497694 4.75932e-20)
(1.09101 0.173077 -2.15467e-21)
(1.08081 0.0576519 9.32013e-20)
(1.04345 0.118652 4.24234e-20)
(1.04793 0.0670642 1.70532e-20)
(1.0351 0.0836604 1.22091e-20)
(1.03738 0.05594 5.29909e-21)
(1.03041 0.0586881 3.46938e-21)
(1.02991 0.0418206 1.55323e-20)
(1.02444 0.0409271 1.32841e-22)
(1.02287 0.0315592 -4.24417e-22)
(1.01805 0.0293421 5.11487e-22)
(1.01663 0.024509 6.01869e-22)
(1.01348 0.023015 -1.42734e-21)
(1.17187 0.331288 1.78421e-19)
(1.21828 0.0230148 -1.07846e-19)
(1.08933 0.183425 7.49869e-20)
(1.07918 0.0627212 -1.6751e-20)
(1.04126 0.121907 8.46082e-21)
(1.04534 0.0683655 -2.58738e-21)
(1.03223 0.0849132 -6.95879e-21)
(1.03436 0.0568542 5.55579e-21)
(1.02753 0.0597577 -8.60367e-22)
(1.02723 0.0428793 -5.20213e-21)
(1.02215 0.0421184 1.90786e-22)
(1.02089 0.0326329 7.56018e-22)
(1.0164 0.0304383 -1.31433e-21)
(1.01525 0.0255543 -8.1382e-22)
(1.01228 0.0238944 4.51684e-22)
(1.18074 0.354203 1.83209e-19)
(1.21477 0.0410995 -9.7633e-20)
(1.08685 0.193373 7.18983e-20)
(1.0765 0.0678868 -1.50526e-20)
(1.03906 0.125178 1.01265e-20)
(1.04219 0.069786 -3.02748e-21)
(1.02951 0.0861723 -5.74325e-21)
(1.03116 0.0577929 4.76228e-21)
(1.02475 0.0607345 -1.53587e-21)
(1.02456 0.0438616 -4.5977e-21)
(1.01987 0.0431663 7.03168e-22)
(1.01889 0.0335963 6.06759e-22)
(1.01474 0.0314074 -1.28823e-21)
(1.01384 0.0264865 -5.04919e-22)
(1.01101 0.0246838 4.66992e-22)
(1.18646 0.37744 2.98302e-19)
(1.20946 0.0591209 4.66812e-20)
(1.08397 0.202947 9.62777e-21)
(1.07246 0.07303 7.2024e-20)
(1.03716 0.128446 3.63511e-20)
(1.03839 0.0712905 1.56197e-20)
(1.02689 0.0873898 1.41107e-20)
(1.02782 0.0587565 2.9983e-21)
(1.022 0.0615882 2.50602e-21)
(1.02195 0.0447872 1.26638e-20)
(1.01752 0.0440756 -1.58777e-21)
(1.01693 0.0344506 -6.26802e-22)
(1.01304 0.0322571 6.98763e-22)
(1.01239 0.0273241 1.14971e-22)
(1.0097 0.0253518 -7.8345e-22)
(1.18901 0.400808 -8.72253e-19)
(1.20206 0.0768938 1.64912e-20)
(1.08116 0.212211 2.82199e-20)
(1.06697 0.0780257 -1.01569e-19)
(1.0355 0.131652 -7.14099e-20)
(1.03419 0.0729151 1.90501e-22)
(1.02405 0.0884691 -5.03956e-21)
(1.02462 0.0597659 -1.60203e-20)
(1.01906 0.0622714 -5.46107e-21)
(1.01946 0.0456745 -1.20572e-20)
(1.01509 0.0448523 -7.20131e-21)
(1.01501 0.0351972 -8.04059e-22)
(1.0113 0.0330039 6.16584e-22)
(1.01091 0.0280365 -1.19865e-21)
(1.00837 0.025923 -6.40741e-22)
(1.18841 0.424117 9.05155e-19)
(1.19266 0.0942014 3.30598e-19)
(1.07827 0.221148 1.41083e-19)
(1.06085 0.0829069 7.2975e-20)
(1.03301 0.134525 -2.61371e-21)
(1.03015 0.0747765 -2.18351e-20)
(1.0208 0.0893093 8.33365e-21)
(1.02162 0.0608377 2.6908e-20)
(1.01593 0.0628223 -7.17116e-21)
(1.01703 0.0464828 1.36201e-21)
(1.01261 0.045515 3.23809e-21)
(1.01309 0.0358272 -8.36845e-22)
(1.00955 0.0336567 -1.50152e-21)
(1.00941 0.0286307 2.79961e-21)
(1.00703 0.0263857 4.47736e-22)
(1.18478 0.447167 -1.59486e-18)
(1.18205 0.110953 -1.95652e-19)
(1.07405 0.229382 -2.82423e-19)
(1.05486 0.087972 -8.22054e-20)
(1.02931 0.137032 1.15489e-19)
(1.02636 0.0768081 2.61716e-20)
(1.01723 0.0899661 -1.73885e-20)
(1.01866 0.0619153 -1.22576e-20)
(1.01276 0.0632432 1.10179e-20)
(1.0146 0.0471985 1.36834e-21)
(1.01013 0.0460723 7.03251e-21)
(1.01116 0.0363409 3.91493e-21)
(1.00777 0.0342195 4.17203e-21)
(1.00791 0.0290965 -1.80858e-22)
(1.00567 0.0267525 -1.62991e-22)
(1.17835 0.469734 1.09532e-18)
(1.17029 0.127337 -8.37636e-20)
(1.06793 0.237021 -9.48522e-20)
(1.04895 0.093205 4.41195e-20)
(1.02492 0.139143 -2.76901e-20)
(1.02257 0.0789327 3.5666e-20)
(1.01341 0.0904208 7.37255e-21)
(1.01567 0.0629579 4.01837e-21)
(1.00956 0.0635617 5.75937e-21)
(1.01213 0.0477996 6.85857e-21)
(1.00766 0.0465357 6.72169e-21)
(1.00919 0.0367381 -4.40246e-21)
(1.00598 0.034689 -4.62428e-21)
(1.0064 0.0294488 8.08324e-23)
(1.00428 0.0270227 -3.27326e-22)
(1.16932 0.491641 -1.38253e-18)
(1.15715 0.143181 -3.11473e-19)
(1.06046 0.243844 -2.67993e-19)
(1.04292 0.0985193 1.37525e-19)
(1.01988 0.140845 -1.26005e-19)
(1.01872 0.0810847 -3.28353e-20)
(1.00943 0.0907075 -7.87831e-21)
(1.01259 0.0639107 -1.02367e-20)
(1.0064 0.0637861 1.54408e-21)
(1.00959 0.0482743 3.42156e-21)
(1.00521 0.0469024 -6.60314e-21)
(1.00719 0.0370284 1.68697e-21)
(1.00418 0.0350642 9.17697e-22)
(1.00489 0.0296895 1.99303e-22)
(1.00288 0.0272043 -8.56022e-22)
(1.15756 0.512626 3.71566e-19)
(1.14283 0.158482 2.55565e-19)
(1.05174 0.24976 6.3243e-19)
(1.03669 0.103822 -2.36132e-19)
(1.01438 0.142144 1.00958e-19)
(1.01472 0.0831895 2.89185e-20)
(1.00536 0.0908336 3.68127e-20)
(1.00939 0.0647367 -1.10008e-20)
(1.00326 0.0639225 3.07699e-21)
(1.007 0.0486201 -9.16866e-24)
(1.00278 0.0471697 -5.05836e-21)
(1.00515 0.037219 5.22697e-22)
(1.00236 0.0353438 2.05238e-22)
(1.00337 0.029839 2.13025e-21)
(1.00147 0.0273076 6.57307e-22)
(1.14254 0.532245 2.09667e-18)
(1.12778 0.173285 4.12634e-20)
(1.04203 0.254732 5.29142e-20)
(1.03015 0.109033 4.3406e-20)
(1.00849 0.14304 -3.23492e-20)
(1.01052 0.0851807 -4.99665e-20)
(1.00122 0.0908164 -1.15876e-20)
(1.00606 0.0654027 -2.61157e-20)
(1.00016 0.063964 -1.9381e-21)
(1.00435 0.0488377 -7.57906e-21)
(1.00036 0.0473267 3.94673e-21)
(1.0031 0.0373182 -8.89671e-23)
(1.00053 0.0355294 5.2998e-22)
(1.00185 0.0299038 -6.4395e-22)
(1.00009 0.0273478 -7.0841e-21)
(1.12429 0.550351 1.86387e-18)
(1.11209 0.187793 -2.80989e-19)
(1.03143 0.25877 -3.46531e-19)
(1.02324 0.114058 -4.66949e-20)
(1.0023 0.143543 -7.20935e-20)
(1.0061 0.0869956 -1.20355e-20)
(0.997047 0.0906577 3.32072e-20)
(1.00262 0.0658917 2.5841e-20)
(0.997073 0.0638983 1.83774e-21)
(1.00167 0.0489316 5.16982e-22)
(0.99795 0.0473672 -4.83402e-22)
(1.00104 0.0373268 1.07621e-21)
(0.998689 0.0356191 -5.39778e-21)
(1.00034 0.0298958 -2.32725e-21)
(0.998725 0.0273365 5.98835e-21)
(1.10325 0.566626 -3.66066e-18)
(1.09553 0.201618 8.04543e-20)
(1.02009 0.261866 1.28646e-19)
(1.01595 0.118815 1.16881e-19)
(0.995882 0.14366 1.31045e-19)
(1.00145 0.0885819 3.36422e-20)
(0.992842 0.0903562 -5.72144e-20)
(0.999079 0.0661915 6.18576e-21)
(0.993994 0.0637098 -9.9103e-21)
(0.998969 0.0489046 -3.05938e-21)
(0.995544 0.0472845 -1.87579e-21)
(0.998969 0.0372452 3.38271e-21)
(0.996837 0.0356101 -7.65254e-21)
(0.99882 0.029808 -3.07578e-21)
(0.997372 0.0272731 -7.06605e-21)
(1.07967 0.580878 8.80459e-19)
(1.07809 0.214661 -1.12964e-19)
(1.00811 0.264013 1.61693e-20)
(1.00824 0.123216 -8.52765e-20)
(0.989286 0.143397 -9.71134e-21)
(0.996585 0.0898948 -1.89586e-20)
(0.988611 0.0899011 3.42594e-20)
(0.995464 0.0662989 -1.16774e-20)
(0.990916 0.0633839 3.62866e-21)
(0.996264 0.0487568 4.08631e-21)
(0.993149 0.0470771 -2.30399e-22)
(0.996898 0.0370722 -1.63685e-20)
(0.994972 0.0355032 8.06017e-21)
(0.997258 0.0296427 1.85761e-20)
(0.995985 0.0271472 -1.72131e-21)
(1.05384 0.59292 -9.59617e-19)
(1.05974 0.226751 9.51937e-20)
(0.995621 0.265206 9.81225e-20)
(1.00013 0.127185 2.34352e-20)
(0.982554 0.142759 6.29594e-21)
(0.991517 0.0908997 -1.74608e-20)
(0.984352 0.0892784 -1.00621e-20)
(0.991795 0.0662107 2.39093e-21)
(0.987841 0.0629084 -8.14535e-21)
(0.99356 0.0484861 -3.30163e-21)
(0.990773 0.0467427 4.66161e-21)
(0.994834 0.0368083 4.9571e-21)
(0.993106 0.0353054 2.0768e-20)
(0.995664 0.0294106 -3.39575e-20)
(0.994555 0.0269683 1.1469e-20)
(1.02602 0.602592 -1.16098e-18)
(1.04052 0.237756 1.0336e-19)
(0.982704 0.26544 -1.51451e-19)
(0.991627 0.130649 1.15418e-20)
(0.975722 0.141747 -8.69115e-20)
(0.986276 0.0915697 1.74202e-20)
(0.980071 0.0884712 1.12823e-20)
(0.988092 0.065926 3.97497e-21)
(0.984772 0.0622742 1.54772e-20)
(0.990864 0.0480884 -6.6695e-21)
(0.988421 0.0462788 1.99589e-20)
(0.992787 0.0364484 4.94257e-21)
(0.991265 0.0350216 -2.967e-20)
(0.994079 0.029139 1.70195e-20)
(0.993126 0.0267801 5.25591e-21)
(0.996445 0.609755 2.92763e-18)
(1.02048 0.247544 8.20304e-20)
(0.969456 0.264714 -2.34021e-19)
(0.982771 0.133544 3.73454e-20)
(0.96882 0.140359 1.88231e-22)
(0.980893 0.0918853 -6.63492e-21)
(0.975771 0.0874623 -8.92592e-21)
(0.984371 0.0654424 -1.71945e-20)
(0.981717 0.0614757 -2.28956e-20)
(0.988178 0.0475595 1.4374e-20)
(0.986094 0.0456819 1.53727e-20)
(0.990765 0.035983 2.47798e-20)
(0.989474 0.0346414 -2.66015e-20)
(0.99255 0.0288322 -5.99329e-21)
(0.991781 0.0266349 2.04289e-20)
(0.96539 0.614294 1.79201e-19)
(0.99968 0.255995 6.15775e-21)
(0.955962 0.263029 2.55831e-19)
(0.973599 0.135812 -1.99981e-20)
(0.961875 0.13859 9.70855e-21)
(0.975402 0.0918327 5.24858e-20)
(0.971463 0.086236 9.42019e-22)
(0.980648 0.0647579 8.59141e-21)
(0.978683 0.060509 -1.55317e-21)
(0.985508 0.0468959 -7.55591e-22)
(0.983798 0.0449515 -2.60982e-20)
(0.988779 0.0354041 6.38708e-21)
(0.987747 0.034143 3.35328e-20)
(0.991098 0.0284493 5.4987e-21)
(0.990572 0.0265113 -1.77536e-20)
(0.933108 0.616115 2.11838e-19)
(0.978222 0.263 2.61978e-20)
(0.942305 0.260387 -2.86259e-21)
(0.964162 0.137407 5.29331e-20)
(0.954911 0.136436 4.76735e-20)
(0.969836 0.0914028 9.2924e-21)
(0.967159 0.0847787 -1.17613e-20)
(0.976937 0.0638693 -1.56485e-20)
(0.975677 0.0593723 2.8543e-20)
(0.98286 0.0460948 -7.12379e-20)
(0.981541 0.04409 -5.55833e-20)
(0.986843 0.0347159 -2.69295e-20)
(0.986098 0.0335188 -3.27169e-20)
(0.989724 0.0279325 1.84429e-21)
(0.98945 0.0262976 7.75148e-21)
(0.899857 0.615144 -4.70754e-19)
(0.956208 0.268461 -3.29638e-21)
(0.928562 0.256793 -4.2374e-21)
(0.954515 0.138289 -8.98513e-20)
(0.947955 0.133889 -1.02234e-19)
(0.964229 0.0905902 -6.05029e-21)
(0.962872 0.0830796 6.57166e-20)
(0.973253 0.0627739 -1.78912e-20)
(0.972709 0.0580636 2.95555e-20)
(0.980239 0.0451528 4.7642e-20)
(0.979333 0.0430988 3.77842e-21)
(0.984972 0.0339259 -1.34035e-20)
(0.984541 0.0327863 5.19472e-21)
(0.988438 0.0272824 -2.76732e-21)
(0.988319 0.0259311 -4.89069e-20)
(0.865893 0.611331 -3.65378e-19)
(0.933758 0.272293 -2.27311e-20)
(0.914808 0.252252 3.84783e-20)
(0.944717 0.138428 1.08768e-19)
(0.941032 0.130942 8.6574e-20)
(0.958616 0.0893923 -9.77023e-20)
(0.95862 0.0811306 -7.35919e-20)
(0.96961 0.0614693 6.63979e-21)
(0.969785 0.0565824 -7.12759e-20)
(0.977657 0.0440668 3.33661e-20)
(0.977183 0.0419754 2.82606e-20)
(0.983166 0.0330295 -6.90513e-20)
(0.983064 0.0319487 2.09794e-21)
(0.987238 0.0265267 1.76744e-21)
(0.987186 0.0255181 4.44431e-20)
(0.831472 0.604644 -3.53762e-20)
(0.910999 0.274426 -1.53918e-19)
(0.901115 0.246775 -1.53011e-19)
(0.934834 0.137801 -1.44885e-19)
(0.934169 0.127588 -9.47406e-20)
(0.95303 0.0878091 -4.62975e-20)
(0.95442 0.0789267 4.41639e-20)
(0.96602 0.0599541 -6.76112e-21)
(0.966915 0.0549293 5.11057e-20)
(0.975125 0.0428366 -6.90924e-20)
(0.975098 0.040721 2.36791e-20)
(0.981409 0.0320175 3.13201e-20)
(0.981611 0.0309775 -7.3986e-21)
(0.986048 0.0255985 2.9382e-20)