/*--------------------------------*- C++ -*----------------------------------*\
  =========                 |
  \\      /  F ield         | OpenFOAM: The Open Source CFD Toolbox
   \\    /   O peration     | Website:  https://openfoam.org
    \\  /    A nd           | Version:  7
     \\/     M anipulation  |
\*---------------------------------------------------------------------------*/
FoamFile
{
    version     2.0;
    format      ascii;
    class       volVectorField;
    location    "20";
    object      U;
}
// * * * * * * * * * * * * * * * * * * * * * * * * * * * * * * * * * * * * * //

dimensions      [0 1 -1 0 0 0 0];

internalField   nonuniform List<vector> 
385
(
(1.01454 0.02474 3.68146e-22)
(1.01319 0.0221054 1.44869e-22)
(1.01584 0.0329861 -9.09636e-22)
(1.01437 0.0292748 -1.71424e-23)
(1.01359 0.0250338 2.30776e-22)
(1.01233 0.0223911 -3.14765e-22)
(1.01736 0.0443215 2.74598e-21)
(1.01536 0.0398237 -4.09904e-21)
(1.01463 0.0332941 -8.57521e-22)
(1.01328 0.0295579 -7.28834e-22)
(1.01264 0.0252981 1.03885e-22)
(1.01146 0.0226478 -1.18823e-21)
(1.01644 0.0557856 -6.12326e-22)
(1.0158 0.044659 -4.53157e-21)
(1.01395 0.040118 1.35905e-21)
(1.01341 0.033564 4.06027e-22)
(1.01219 0.0298073 5.11257e-22)
(1.01168 0.0255326 1.07367e-21)
(1.01058 0.0228754 1.91537e-22)
(1.01733 0.0611754 1.17916e-22)
(1.01456 0.0560929 -3.47199e-21)
(1.01422 0.044949 2.9583e-21)
(1.01253 0.0403692 -3.67597e-22)
(1.01219 0.0337958 -7.94375e-22)
(1.01109 0.0300228 1.42313e-21)
(1.01071 0.0257372 1.04462e-21)
(1.0097 0.0230737 -2.52052e-22)
(1.01536 0.0819973 -3.37226e-21)
(1.01522 0.0615219 1.34306e-21)
(1.01267 0.056342 4.2537e-21)
(1.01264 0.0451907 -2.09929e-21)
(1.0111 0.0405769 -1.28715e-21)
(1.01096 0.0339891 -1.18473e-21)
(1.00999 0.0302041 -2.02977e-21)
(1.00975 0.0259115 1.9327e-21)
(1.00882 0.0232429 5.51202e-21)
(1.01273 0.0822621 1.49916e-21)
(1.01309 0.0618054 -7.95098e-21)
(1.01078 0.0565324 1.05661e-23)
(1.01105 0.0453836 -4.29216e-21)
(1.00968 0.0407407 5.16653e-22)
(1.00972 0.0341439 -1.02582e-21)
(1.00888 0.0303509 -3.61523e-21)
(1.00877 0.0260554 -6.8986e-21)
(1.00794 0.0233828 1.2561e-21)
(1.01356 0.0885539 1.39758e-20)
(1.0101 0.0824434 1.03675e-20)
(1.01095 0.0620247 4.79752e-21)
(1.00888 0.056664 -1.11092e-21)
(1.00945 0.0455274 4.16834e-21)
(1.00825 0.0408602 -3.33541e-21)
(1.00849 0.03426 -6.10529e-21)
(1.00778 0.0304631 1.02602e-20)
(1.0078 0.0261687 5.5539e-21)
(1.00706 0.0234934 -6.26542e-21)
(1.01049 0.0888626 1.57282e-20)
(1.00745 0.0825405 -1.87385e-21)
(1.0088 0.0621789 1.56752e-20)
(1.00698 0.0567363 -1.4522e-21)
(1.00785 0.0456216 1.30409e-20)
(1.00682 0.0409353 5.96604e-21)
(1.00725 0.0343373 -1.19657e-21)
(1.00667 0.0305405 -5.54761e-21)
(1.00682 0.0262511 -5.97648e-21)
(1.00618 0.0235749 5.2584e-21)
(1.00582 0.128844 6.31069e-20)
(1.00741 0.089081 -7.21097e-21)
(1.0048 0.082553 9.91197e-22)
(1.00665 0.0622673 -2.53272e-20)
(1.00508 0.0567489 8.92564e-21)
(1.00625 0.045666 -1.38466e-20)
(1.00539 0.0409655 7.13976e-21)
(1.00601 0.0343757 1.12991e-20)
(1.00556 0.030583 -9.92664e-21)
(1.00585 0.0263026 -4.10479e-21)
(1.00531 0.0236271 -8.95374e-21)
(1.00187 0.128841 3.35347e-21)
(1.00431 0.0892073 -1.15962e-20)
(1.00215 0.0824804 1.2734e-20)
(1.00449 0.0622891 2.95411e-20)
(1.00318 0.0567017 -4.71884e-21)
(1.00464 0.0456603 5.16009e-22)
(1.00396 0.0409507 -3.2291e-20)
(1.00477 0.0343752 -7.08394e-21)
(1.00446 0.0305906 6.25561e-21)
(1.00487 0.0263229 2.16047e-20)
(1.00443 0.0236502 1.76432e-20)
(0.997898 0.128707 -4.83651e-21)
(1.0012 0.08924 1.63806e-20)
(0.999505 0.0823223 2.18708e-21)
(1.00232 0.0622438 -1.57593e-20)
(1.00128 0.0565943 -2.40765e-20)
(1.00304 0.0456045 2.26968e-20)
(1.00253 0.0408906 2.58675e-20)
(1.00354 0.0343358 2.11983e-21)
(1.00335 0.0305631 9.75467e-23)
(1.0039 0.0263122 -2.28823e-20)
(1.00356 0.0236443 -1.65442e-20)
(0.99392 0.128439 6.20555e-21)
(0.998079 0.0891776 -7.64579e-20)
(0.99686 0.0820783 -1.45032e-20)
(1.00015 0.0621309 -3.97206e-20)
(0.999391 0.0564264 2.03113e-21)
(1.00143 0.0454982 2.27756e-20)
(1.00111 0.0407853 -2.6194e-20)
(1.0023 0.0342574 -8.96299e-21)
(1.00225 0.0305007 -1.08293e-20)
(1.00293 0.0262702 1.03247e-20)
(1.00269 0.0236095 -1.53634e-21)
(0.989878 0.14151 -1.6455e-19)
(0.989938 0.128036 1.96866e-20)
(0.99495 0.0890188 7.79317e-20)
(0.99422 0.0817481 3.16914e-20)
(0.997989 0.0619499 5.20741e-20)
(0.997508 0.0561981 2.6239e-20)
(0.999836 0.0453416 -5.59128e-20)
(0.9997 0.0406347 3.54637e-20)
(1.00108 0.0341401 1.33499e-20)
(1.00116 0.0304035 3.80746e-20)
(1.00196 0.026197 1.63785e-20)
(1.00183 0.0235458 3.1972e-22)
(0.984789 0.141402 5.56577e-21)
(0.985956 0.127497 1.01858e-21)
(0.991819 0.0887624 -6.50773e-20)
(0.991589 0.0813314 -5.9903e-20)
(0.995827 0.0617005 -5.83409e-21)
(0.995633 0.0559092 4.22489e-20)
(0.998244 0.0451345 -3.78712e-20)
(0.998294 0.0404387 2.95739e-21)
(0.999853 0.0339841 4.80812e-20)
(1.00006 0.0302714 -2.84394e-20)
(1.00099 0.0260926 -1.06506e-20)
(1.00097 0.0234536 1.33937e-20)
(0.97968 0.141136 4.60463e-20)
(0.981978 0.126821 -8.77157e-22)
(0.988687 0.0884073 5.983e-21)
(0.98897 0.0808281 3.06446e-20)
(0.993671 0.0613826 -1.54943e-20)
(0.993769 0.0555596 -3.67491e-20)
(0.99666 0.0448771 -2.64429e-20)
(0.996896 0.0401973 1.13852e-20)
(0.998639 0.0337894 -5.27568e-20)
(0.99898 0.0301048 -1.16097e-20)
(1.00003 0.025957 1.08123e-20)
(0.974558 0.140708 2.10782e-19)
(0.97801 0.126008 1.20989e-20)
(0.985559 0.0879527 8.42926e-20)
(0.986365 0.0802382 4.00873e-21)
(0.991523 0.0609958 3.89333e-20)
(0.991917 0.0551495 -1.02052e-19)
(0.995085 0.0445692 3.37269e-20)
(0.995509 0.0399108 -3.83623e-20)
(0.997433 0.0335561 3.23529e-20)
(0.997902 0.0299037 2.19409e-20)
(0.999077 0.0257905 -2.77604e-20)
(0.969429 0.140116 -2.58362e-19)
(0.974056 0.125057 -3.01883e-20)
(0.982439 0.0873977 -1.28579e-19)
(0.983777 0.0795616 -4.0979e-20)
(0.989386 0.0605402 -3.04465e-20)
(0.99008 0.054679 7.66351e-20)
(0.99352 0.0442112 -3.22195e-20)
(0.994134 0.0395793 -3.20143e-20)
(0.996237 0.0332846 -4.0436e-20)
(0.996834 0.0296684 -3.0676e-20)
(0.9643 0.139356 -1.06505e-19)
(0.970119 0.123967 -1.42542e-19)
(0.97933 0.0867418 7.91055e-20)
(0.981208 0.0787985 6.01317e-20)
(0.987262 0.0600157 1.7245e-19)
(0.988258 0.0541482 3.33922e-20)
(0.991969 0.0438032 1.02471e-19)
(0.992771 0.0392029 5.98963e-20)
(0.995052 0.0329751 2.38745e-20)
(0.995775 0.0293993 -1.70967e-20)
(0.959176 0.138427 1.10285e-19)
(0.966206 0.122738 1.06223e-19)
(0.976236 0.0859845 -1.30538e-19)
(0.978661 0.0779491 2.21919e-20)
(0.985154 0.0594225 -2.81839e-19)
(0.986456 0.0535574 -1.07415e-19)
(0.990432 0.0433454 -1.03096e-19)
(0.991424 0.038782 -3.04488e-20)
(0.993881 0.0326277 -2.77539e-20)
(0.994727 0.0290965 2.70607e-20)
(0.954066 0.137327 3.11163e-20)
(0.96232 0.121371 1.17199e-19)
(0.973161 0.0851255 2.36452e-19)
(0.97614 0.0770138 -1.31441e-19)
(0.983064 0.0587608 -5.02127e-20)
(0.984673 0.0529071 1.8375e-19)
(0.988911 0.0428381 3.0447e-20)
(0.990093 0.0383169 1.56491e-20)
(0.992723 0.0322428 1.97166e-20)
(0.958467 0.119866 -1.45709e-19)
(0.970109 0.0841646 4.65582e-20)
(0.973647 0.0759929 1.05127e-19)
(0.980995 0.0580309 7.80141e-20)
(0.982912 0.0521975 6.57548e-21)
(0.987408 0.0422817 1.88699e-20)
(0.98878 0.0378079 8.01851e-20)
(0.99158 0.0318209 2.22871e-20)
(0.954652 0.118222 2.02499e-19)
(0.967084 0.083102 -1.42282e-19)
(0.971184 0.0748872 -9.06145e-20)
(0.97895 0.057233 3.10129e-20)
(0.981175 0.0514294 -5.63834e-20)
(0.985925 0.0416766 -3.60693e-20)
(0.987485 0.0372555 -3.44778e-20)
(0.95088 0.116441 -3.07776e-19)
(0.964091 0.0819378 -4.37677e-20)
(0.968756 0.0736972 4.83715e-21)
(0.97693 0.0563679 1.97879e-20)
(0.979464 0.0506031 -1.87477e-19)
(0.984463 0.0410232 7.72155e-20)
(0.986212 0.0366602 -8.62707e-21)
(0.947154 0.114524 -1.02983e-19)
(0.961133 0.0806724 2.36551e-19)
(0.966364 0.0724238 1.10179e-19)
(0.974939 0.0554359 -1.21971e-19)
(0.977781 0.0497195 1.41909e-19)
(0.983023 0.0403221 2.54406e-20)
(0.98496 0.0360225 2.90003e-20)
(0.943482 0.112471 7.93157e-20)
(0.958214 0.0793064 -2.63717e-19)
(0.964011 0.071068 -6.71131e-20)
(0.972979 0.0544378 3.57307e-19)
(0.976128 0.0487792 6.45418e-20)
(0.981609 0.0395739 1.12867e-19)
(0.983732 0.0353431 -7.61905e-20)
(0.939867 0.110284 2.25405e-19)
(0.955339 0.0778404 1.08589e-20)
(0.9617 0.0696306 -9.83365e-20)
(0.971052 0.0533743 -1.02177e-19)
(0.974506 0.0477831 -6.02241e-20)
(0.980221 0.0387792 -1.03858e-19)
(0.936314 0.107964 -2.39211e-19)
(0.952512 0.0762755 1.20508e-20)
(0.959435 0.068113 2.52182e-19)
(0.969162 0.0522464 -1.59992e-19)
(0.972918 0.0467321 2.79072e-20)
(0.978861 0.0379389 -1.60577e-20)
(0.932829 0.105514 3.38052e-20)
(0.949736 0.0746126 6.44978e-20)
(0.957217 0.0665163 -2.07121e-19)
(0.967309 0.0510549 2.74017e-19)
(0.971365 0.0456271 -1.92738e-19)
(0.977531 0.0370537 -1.03179e-19)
(0.947016 0.0728532 -1.16989e-19)
(0.95505 0.0648421 1.4863e-19)
(0.965498 0.0498011 -3.64554e-19)
(0.969849 0.0444693 3.08415e-19)
(0.976232 0.0361244 4.60244e-20)
(0.944356 0.0709987 2.8124e-19)
(0.952936 0.0630919 -1.93614e-19)
(0.96373 0.0484861 -1.37189e-19)
(0.968372 0.0432598 -2.13368e-19)
(0.974965 0.0351521 -3.21647e-20)
(0.941761 0.0690508 -3.86534e-19)
(0.950879 0.0612674 -5.35885e-21)
(0.962008 0.0471111 6.21552e-20)
(0.966936 0.0419998 -7.98105e-20)
(0.939233 0.0670113 -1.13495e-19)
(0.94888 0.0593703 -3.70904e-20)
(0.960333 0.0456776 5.27223e-19)
(0.965542 0.0406907 1.89183e-19)
(0.936777 0.0648823 1.80398e-19)
(0.946943 0.0574026 8.63567e-20)
(0.958709 0.0441871 -3.43607e-19)
(0.964192 0.0393338 -7.08137e-20)
(0.945069 0.0553662 1.0456e-19)
(0.957138 0.0426411 7.29587e-20)
(0.962888 0.0379305 -1.95933e-19)
(0.943262 0.0532633 -7.58408e-21)
(0.955622 0.0410413 -9.50671e-20)
(0.961631 0.0364824 -5.73522e-21)
(0.941524 0.0510963 1.23647e-19)
(0.954162 0.0393896 -1.46098e-19)
(0.960423 0.034991 3.92328e-19)
(0.939858 0.0488673 1.87965e-20)
(0.952762 0.0376877 2.20525e-19)
(0.959266 0.0334581 -2.72967e-19)
(0.951423 0.0359377 -1.2131e-20)
(0.95816 0.0318853 1.91924e-19)
(0.950146 0.0341416 -4.18916e-20)
(0.948935 0.0323015 -1.05468e-19)
(1.00261 0.0202469 5.23943e-21)
(1.00336 0.0202958 6.77885e-22)
(1.00412 0.0203247 -3.19787e-21)
(1.00488 0.0203331 -5.08885e-22)
(1.00564 0.0203205 -8.29283e-22)
(1.0064 0.0202867 -1.01741e-21)
(1.00716 0.0202314 1.32961e-21)
(1.00793 0.0201543 -6.7682e-22)
(1.0087 0.0200552 -3.55951e-22)
(1.00946 0.019934 2.85879e-23)
(1.01023 0.0197905 1.59346e-22)
(1.01099 0.0196246 3.38586e-22)
(1.01175 0.019436 -1.41108e-23)
(1.0125 0.0192247 9.32551e-24)
(1.00329 0.0194658 -4.89957e-21)
(1.00398 0.0194646 -2.52085e-21)
(1.00466 0.0194429 1.15425e-21)
(1.00534 0.0194011 -2.05623e-21)
(1.00603 0.0193397 4.96671e-22)
(1.00671 0.0192589 1.1645e-21)
(1.0074 0.0191588 7.16187e-23)
(1.00808 0.0190397 3.26395e-22)
(1.00876 0.0189015 6.18236e-22)
(1.00944 0.0187444 2.2686e-22)
(1.01012 0.0185684 4.55793e-22)
(1.01079 0.0183736 -1.71953e-22)
(1.01146 0.01816 -7.00688e-24)
(1.01212 0.0179277 5.30613e-24)
(1.00392 0.0179711 4.16731e-21)
(1.00454 0.0179393 5.00192e-22)
(1.00516 0.0178938 1.73329e-22)
(1.00578 0.0178341 1.87089e-21)
(1.00639 0.0177597 1.56753e-21)
(1.00701 0.0176705 -1.06175e-21)
(1.00762 0.0175662 -1.21822e-22)
(1.00823 0.0174464 4.4543e-22)
(1.00884 0.0173109 1.2535e-22)
(1.00944 0.0171597 -9.11236e-23)
(1.01004 0.0169925 -4.16869e-22)
(1.01063 0.0168094 8.6489e-23)
(1.01123 0.0166102 5.41448e-23)
(1.01181 0.016395 -1.11202e-23)
(1.00438 0.0169075 -2.26203e-21)
(1.00494 0.01686 1.91926e-21)
(1.00549 0.0167981 -6.10324e-22)
(1.00604 0.0167217 5.67274e-22)
(1.0066 0.0166309 -1.3677e-21)
(1.00714 0.0165258 -2.39781e-22)
(1.00769 0.0164066 -8.40821e-22)
(1.00824 0.0162734 -3.60423e-22)
(1.00878 0.0161263 -6.13946e-22)
(1.00932 0.0159655 -5.55233e-24)
(1.00985 0.015791 4.73806e-23)
(1.01038 0.0156032 1.20355e-22)
(1.01091 0.0154019 1.64503e-23)
(1.01144 0.0151875 -1.25641e-23)
(1.00477 0.015777 2.16668e-21)
(1.00527 0.0157069 -6.33168e-22)
(1.00577 0.0156257 -4.46206e-22)
(1.00627 0.0155333 8.36137e-22)
(1.00677 0.0154298 -2.09408e-22)
(1.00726 0.0153152 7.84422e-22)
(1.00775 0.0151896 3.25735e-22)
(1.00824 0.0150529 -2.09379e-22)
(1.00872 0.0149052 4.82118e-23)
(1.00921 0.0147465 -1.26776e-22)
(1.00968 0.0145768 -5.56448e-24)
(1.01016 0.0143961 -1.15603e-22)
(1.01063 0.0142044 -4.98261e-23)
(1.0111 0.0140017 3.40022e-23)
(1.00507 0.0147589 -8.20813e-22)
(1.00552 0.0146796 -1.47932e-23)
(1.00597 0.0145906 -5.54897e-22)
(1.00642 0.0144918 7.92924e-22)
(1.00687 0.0143832 4.28903e-22)
(1.00731 0.0142649 -5.33912e-22)
(1.00775 0.0141368 -1.6304e-22)
(1.00819 0.0139989 1.58979e-22)
(1.00862 0.0138514 3.59776e-22)
(1.00905 0.0136943 -1.37326e-22)
(1.00948 0.0135276 -2.06922e-23)
(1.0099 0.0133515 -1.58384e-22)
(1.01032 0.013166 4.32787e-23)
(1.01074 0.0129712 -1.10388e-23)
(1.0053 0.0137989 -2.67049e-21)
(1.00571 0.01371 1.73572e-21)
(1.00612 0.013613 1.31869e-21)
(1.00652 0.0135077 -2.85895e-21)
(1.00692 0.0133941 -3.49622e-22)
(1.00732 0.0132724 6.39418e-22)
(1.00771 0.0131425 -1.7712e-22)
(1.00811 0.0130046 -1.04696e-22)
(1.0085 0.0128587 -3.0377e-22)
(1.00888 0.0127049 1.98005e-22)
(1.00927 0.0125431 5.10954e-22)
(1.00965 0.0123736 2.26112e-23)
(1.00548 0.0129033 2.72877e-21)
(1.00585 0.0128093 1.38521e-21)
(1.00621 0.0127083 8.14722e-22)
)
;

boundaryField
{
    inlet
    {
        type            uniformFixedValue;
        uniformValue    constant (1 0 0);
        value           nonuniform 0();
    }
    outlet
    {
        type            pressureInletOutletVelocity;
        value           nonuniform 0();
    }
    cylinder
    {
        type            fixedValue;
        value           nonuniform 0();
    }
    top
    {
        type            symmetryPlane;
    }
    bottom
    {
        type            symmetryPlane;
    }
    defaultFaces
    {
        type            empty;
    }
    procBoundary34to25
    {
        type            processor;
        value           nonuniform List<vector> 10((0.972537 0.0330825 -2.60422e-19) (0.971378 0.0319874 -2.02169e-20) (0.970258 0.0308536 7.27148e-20) (0.969179 0.0296825 1.14214e-19) (0.96814 0.0284753 5.68856e-20) (0.967145 0.0272334 1.09987e-19) (0.966194 0.0259583 -2.06389e-20) (0.957108 0.0302744 8.88556e-20) (0.957108 0.0302744 8.88556e-20) (0.95611 0.0286272 -1.70396e-19));
    }
    procBoundary34to26
    {
        type            processor;
        value           nonuniform List<vector> 
28
(
(0.953108 0.22299 -3.77717e-20)
(0.946056 0.221305 -1.32341e-19)
(0.939012 0.21935 3.52874e-19)
(0.948975 0.136054 -1.68449e-19)
(0.948975 0.136054 -1.68449e-19)
(0.943913 0.134606 2.38756e-19)
(0.938885 0.132983 -2.38921e-19)
(0.933899 0.131184 -3.4359e-20)
(0.928964 0.129209 7.37667e-19)
(0.924087 0.127057 -7.65019e-19)
(0.919275 0.12473 6.85831e-19)
(0.914538 0.122227 -3.49634e-19)
(0.929417 0.102934 1.99792e-19)
(0.929417 0.102934 1.99792e-19)
(0.926081 0.100228 -1.3761e-19)
(0.922829 0.0973976 -2.37838e-19)
(0.919663 0.0944458 -2.90227e-19)
(0.916589 0.0913754 4.10011e-19)
(0.934396 0.062666 -3.87861e-19)
(0.934396 0.062666 -3.87861e-19)
(0.932096 0.0603648 5.38542e-19)
(0.929878 0.0579813 -4.22708e-19)
(0.927747 0.0555183 2.13119e-19)
(0.938264 0.046579 -9.71922e-20)
(0.938264 0.046579 -9.71922e-20)
(0.936746 0.0442339 -1.62693e-19)
(0.935307 0.0418346 4.26845e-21)
(0.94779 0.0304198 -2.01234e-19)
)
;
    }
    procBoundary34to33
    {
        type            processor;
        value           nonuniform List<vector> 
32
(
(1.00012 0.0233328 1.35018e-20)
(1.00187 0.0201788 -4.35173e-21)
(1.00012 0.0233328 1.35018e-20)
(0.999281 0.0231839 6.88861e-21)
(0.998129 0.0255932 -1.32964e-20)
(0.998129 0.0255932 -1.32964e-20)
(0.997188 0.0253652 -1.0747e-20)
(0.996257 0.0251065 -2.24494e-20)
(0.993692 0.0287603 2.62117e-20)
(0.993692 0.0287603 2.62117e-20)
(0.99267 0.0283909 2.26816e-21)
(0.990454 0.0313622 2.3745e-20)
(0.990454 0.0313622 2.3745e-20)
(0.989346 0.0308673 2.42286e-20)
(0.988257 0.0303364 -1.63787e-20)
(0.987187 0.0297699 3.34584e-20)
(0.982529 0.0346227 -3.72295e-20)
(0.982529 0.0346227 -3.72295e-20)
(0.981351 0.0338619 -3.01587e-20)
(0.980201 0.0330616 1.36366e-19)
(0.979079 0.0322226 5.40017e-20)
(0.977986 0.0313457 -1.24167e-19)
(0.973733 0.0341378 -2.1928e-19)
(0.973733 0.0341378 -2.1928e-19)
(1.00187 0.0201788 -4.35173e-21)
(1.00261 0.0194461 7.7453e-21)
(1.0033 0.0179896 -5.4128e-21)
(1.00382 0.016941 8.97918e-22)
(1.00426 0.0158358 -5.40237e-22)
(1.00461 0.0148287 1.83511e-21)
(1.00489 0.0138793 -2.02638e-21)
(1.00511 0.0129903 8.79865e-22)
)
;
    }
    procBoundary34to35
    {
        type            processor;
        value           nonuniform List<vector> 
28
(
(1.01704 0.0326406 1.17573e-21)
(1.01545 0.0289583 -2.19359e-21)
(1.01545 0.0289583 -2.19359e-21)
(1.01891 0.0439372 -3.82693e-21)
(1.01677 0.0394866 -6.03229e-21)
(1.01677 0.0394866 -6.03229e-21)
(1.01831 0.0554203 5.94462e-22)
(1.01831 0.0554203 5.94462e-22)
(1.01943 0.0607668 4.60489e-21)
(1.01943 0.0607668 4.60489e-21)
(1.01798 0.0816493 1.69328e-20)
(1.01798 0.0816493 1.69328e-20)
(1.01962 0.0876731 7.97865e-21)
(1.0166 0.0881568 -4.61378e-21)
(1.0166 0.0881568 -4.61378e-21)
(1.01368 0.128457 4.31438e-20)
(1.00976 0.128715 6.6067e-20)
(1.00976 0.128715 6.6067e-20)
(1.00993 0.140423 8.50333e-21)
(1.00497 0.140915 3.69464e-20)
(0.999975 0.141262 -1.54266e-19)
(0.994942 0.141462 2.99408e-20)
(0.994942 0.141462 2.99408e-20)
(0.988088 0.227429 7.47021e-20)
(0.981165 0.227063 3.71303e-20)
(0.974195 0.226439 -4.52202e-20)
(0.967188 0.225555 1.38168e-20)
(0.960156 0.224406 -8.66848e-20)
)
;
    }
    procBoundary34to42
    {
        type            processor;
        value           nonuniform List<vector> 
16
(
(1.01002 0.0121962 1.29201e-22)
(1.0104 0.0120111 -9.09956e-23)
(1.00658 0.0126003 -1.05514e-21)
(1.00694 0.0124854 -8.32635e-22)
(1.0073 0.0123636 1.13194e-21)
(1.00765 0.0122348 -8.36886e-22)
(1.008 0.0120993 6.48976e-22)
(1.00835 0.0119569 3.50124e-23)
(1.0087 0.0118078 -2.64925e-22)
(1.00904 0.011652 6.36612e-22)
(1.01002 0.0121962 1.29201e-22)
(1.00939 0.0114895 -1.40071e-22)
(1.00561 0.0120689 2.46686e-21)
(1.00594 0.0119717 7.43155e-22)
(1.00658 0.0126003 -1.05514e-21)
(1.00627 0.0118685 7.50797e-22)
)
;
    }
    procBoundary34to43
    {
        type            processor;
        value           nonuniform List<vector> 8((1.01548 0.024417 1.10162e-21) (1.01406 0.0217908 3.02382e-22) (1.01325 0.0189905 -1.15214e-23) (1.01278 0.0176766 -5.32655e-25) (1.0124 0.0161635 1.21394e-23) (1.01196 0.0149598 -1.02208e-23) (1.01156 0.013788 -1.81755e-23) (1.01116 0.0127671 4.1149e-23));
    }
}


// ************************************************************************* //
