/*--------------------------------*- C++ -*----------------------------------*\
  =========                 |
  \\      /  F ield         | OpenFOAM: The Open Source CFD Toolbox
   \\    /   O peration     | Website:  https://openfoam.org
    \\  /    A nd           | Version:  7
     \\/     M anipulation  |
\*---------------------------------------------------------------------------*/
FoamFile
{
    version     2.0;
    format      ascii;
    class       volVectorField;
    location    "38.5";
    object      U;
}
// * * * * * * * * * * * * * * * * * * * * * * * * * * * * * * * * * * * * * //

dimensions      [0 1 -1 0 0 0 0];

internalField   nonuniform List<vector> 
135168
(
(3 5.15442e-17 0)
(3 -4.46969e-17 0)
(3 -6.33527e-17 0)
(3 -6.95101e-17 0)
(3 -3.61898e-17 0)
(3 3.31233e-17 0)
(3 3.86372e-17 0)
(3 3.76456e-17 0)
(3 8.03407e-17 0)
(3 -1.68975e-16 0)
(3 -5.8228e-16 0)
(3 -6.81258e-16 0)
(3 -5.33176e-16 0)
(3 -4.49521e-16 0)
(3 -3.58967e-16 0)
(3 -3.87281e-16 0)
(3 -3.78102e-16 0)
(3 -2.66738e-16 0)
(3 -5.44599e-17 0)
(3 1.85166e-16 0)
(3 1.31057e-16 0)
(3 -2.81314e-16 0)
(3 -6.64574e-16 0)
(3 -8.51572e-16 0)
(3 -5.77603e-16 0)
(3 -4.65416e-16 0)
(3 -8.39502e-17 0)
(3 2.26666e-16 0)
(3 6.05742e-16 0)
(3 6.68096e-16 0)
(3 7.30997e-16 0)
(3 6.91954e-16 0)
(3 2.0324e-16 0)
(3 2.03182e-16 0)
(3 -1.60541e-17 0)
(3 -3.97235e-16 0)
(3 -5.611e-16 0)
(3 -8.15631e-16 0)
(3 -7.87571e-16 0)
(3 -3.70415e-16 0)
(3 -7.81101e-16 0)
(3 -1.33404e-15 0)
(3 -1.63024e-15 0)
(3 -1.68345e-15 0)
(3 -1.45484e-15 0)
(3 -1.01696e-15 0)
(3 -8.90555e-16 0)
(3 -9.2475e-16 0)
(3 -1.12323e-15 0)
(3 -1.05092e-15 0)
(3 -8.65568e-16 0)
(3 -7.38971e-16 0)
(3 -8.17018e-16 0)
(3 -1.22047e-15 0)
(3 -1.7504e-15 0)
(3 -1.84364e-15 0)
(3 -2.4744e-15 0)
(3 -3.28092e-15 0)
(3 -2.18954e-15 0)
(3 5.08277e-16 0)
(3 8.62604e-16 0)
(3 9.48837e-16 0)
(3 8.59913e-16 0)
(3 5.4275e-16 0)
(3 8.44511e-17 0)
(3 -2.34961e-16 0)
(3 -4.49611e-16 0)
(3 6.8331e-17 0)
(3 1.93552e-15 0)
(3 2.26849e-15 0)
(3 2.04409e-15 0)
(3 1.76363e-15 0)
(3 1.57118e-15 0)
(3 1.54899e-15 0)
(3 1.81705e-15 0)
(3 3.4825e-15 0)
(3 5.04443e-15 0)
(3 4.66027e-15 0)
(3 2.77358e-15 0)
(3 2.06367e-15 0)
(3 1.81484e-15 0)
(3 1.75743e-15 0)
(3 1.74582e-15 0)
(3 1.60752e-15 0)
(3 1.58379e-15 0)
(3 1.65807e-15 0)
(3 1.83274e-15 0)
(3 2.41469e-15 0)
(3 2.46275e-15 0)
(3 2.44624e-15 0)
(3 2.42147e-15 0)
(3 2.79767e-15 0)
(3 2.97134e-15 0)
(3 3.02282e-15 0)
(3 2.97284e-15 0)
(3 2.83231e-15 0)
(3 2.46881e-15 0)
(3 3.07788e-15 0)
(3 2.54151e-15 0)
(3 2.33929e-15 0)
(3 2.21739e-15 0)
(3 2.32475e-15 0)
(3 2.47455e-15 0)
(3 2.46407e-15 0)
(3 2.26397e-15 0)
(3 2.45234e-15 0)
(3 2.69952e-15 0)
(3 2.73442e-15 0)
(3 2.86318e-15 0)
(3 2.81497e-15 0)
(3 2.46818e-15 0)
(3 2.40137e-15 0)
(3 2.46618e-15 0)
(3 2.40308e-15 0)
(3 2.35861e-15 0)
(3 2.58072e-15 0)
(3 2.67763e-15 0)
(3 2.43608e-15 0)
(3 2.73167e-15 0)
(3 3.10249e-15 0)
(3 3.3995e-15 0)
(3 4.01341e-15 0)
(3 4.0361e-15 0)
(3 3.82589e-15 0)
(3 2.97937e-15 0)
(3 2.5548e-15 0)
(3 2.1133e-15 0)
(3 1.34619e-15 0)
(3 1.60886e-15 0)
(3 1.96592e-15 0)
(3 1.98943e-15 0)
(3 2.08105e-15 0)
(3 8.77492e-16 0)
(3 4.00526e-17 0)
(3 -7.86841e-16 0)
(3 -5.9219e-16 0)
(3 -5.4879e-17 0)
(3 7.93174e-17 0)
(3 2.18088e-16 0)
(3 1.23239e-16 0)
(3 -8.47889e-17 0)
(3 -4.3222e-17 0)
(3 -6.33012e-17 0)
(3 -6.62282e-16 0)
(3 -1.00937e-15 0)
(3 -1.52983e-15 0)
(3 -1.97832e-15 0)
(3 -8.82628e-16 0)
(3 -4.57106e-16 0)
(3 -3.57465e-16 0)
(3 -2.67384e-16 0)
(3 -6.89562e-16 0)
(3 -9.18022e-16 0)
(3 -1.34885e-15 0)
(3 -1.05853e-15 0)
(3 -9.44021e-16 0)
(3 -9.62059e-16 0)
(3 -1.34866e-15 0)
(3 -1.3548e-15 0)
(3 -3.55774e-16 0)
(3 -6.13891e-16 0)
(3 -2.53866e-15 0)
(3 -3.01579e-15 0)
(3 -2.8812e-15 0)
(3 -2.83426e-15 0)
(3 -2.44038e-15 0)
(3 -1.393e-15 0)
(3 -1.17329e-15 0)
(3 -1.46004e-15 0)
(3 -2.49355e-15 0)
(3 -3.88773e-15 0)
(3 -3.94234e-15 0)
(3 -2.96933e-15 0)
(3 -2.06349e-15 0)
(3 -1.56269e-15 0)
(3 -7.37494e-16 0)
(3 -2.25071e-16 0)
(3 -2.51181e-16 0)
(3 -1.03188e-16 0)
(3 -5.94514e-16 0)
(3 2.28331e-16 0)
(3 2.71005e-15 0)
(3 3.59432e-15 0)
(3 3.60652e-15 0)
(3 2.52538e-15 0)
(3 1.42503e-15 0)
(3 2.83089e-15 0)
(3 4.63316e-15 0)
(3 4.83189e-15 0)
(3 4.78786e-15 0)
(3 4.08028e-15 0)
(3 2.49829e-15 0)
(3 1.69573e-15 0)
(3 1.22008e-15 0)
(3 1.15518e-15 0)
(3 1.32739e-15 0)
(3 6.29192e-16 0)
(3 -4.40968e-16 0)
(3 -5.80835e-16 0)
(3 -6.71411e-16 0)
(3 -1.32634e-15 0)
(3 -1.67338e-15 0)
(3 -1.76656e-15 0)
(3 -1.44101e-15 0)
(3 -1.04285e-15 0)
(3 -1.306e-15 0)
(3 -1.49341e-15 0)
(3 -1.00053e-15 0)
(3 -6.82789e-16 0)
(3 -6.70364e-16 0)
(3 -6.92539e-16 0)
(3 -8.39935e-16 0)
(3 -9.6784e-16 0)
(3 -9.02305e-16 0)
(3 -2.0046e-16 0)
(3 -2.81075e-16 0)
(3 8.56996e-16 0)
(3 2.27008e-15 0)
(3 2.59745e-15 0)
(3 1.95114e-15 0)
(3 9.74581e-16 0)
(3 4.22932e-16 0)
(3 7.8816e-18 0)
(3 3.79354e-16 0)
(3 1.63857e-15 0)
(3 1.69652e-15 0)
(3 1.20693e-15 0)
(3 8.00409e-16 0)
(3 -3.79414e-17 0)
(3 -3.94625e-16 0)
(3 -2.27873e-16 0)
(3 -7.20486e-17 0)
(3 1.64084e-16 0)
(3 3.66041e-16 0)
(3 6.00777e-16 0)
(3 1.11028e-15 0)
(3 1.82432e-15 0)
(3 1.57773e-15 0)
(3 1.35115e-15 0)
(3 1.16749e-15 0)
(3 4.92333e-16 0)
(3 -3.0114e-16 0)
(3 -5.72626e-16 0)
(3 -8.5705e-16 0)
(3 -9.6071e-16 0)
(3 -1.05083e-15 0)
(3 -1.17386e-15 0)
(3 -1.15926e-15 0)
(3 -9.38395e-16 0)
(3 -1.38254e-15 0)
(3 -2.23366e-15 0)
(3 -2.43149e-15 0)
(3 -1.8119e-15 0)
(3 -1.01964e-15 0)
(3 -7.85367e-16 0)
(3 -1.29508e-15 0)
(3 -1.93949e-15 0)
(3 -2.447e-15 0)
(3 -2.49188e-15 0)
(3 -2.614e-15 0)
(3 -2.22657e-15 0)
(3 -3.50617e-15 0)
(3 -4.43449e-15 0)
(3 -4.76492e-15 0)
(3 -3.06278e-15 0)
(3 -2.92866e-15 0)
(3 -1.61101e-15 0)
(3 -9.53969e-16 0)
(3 -6.12356e-16 0)
(3 -4.06094e-16 0)
(3 -4.95927e-16 0)
(3 -7.59834e-16 0)
(3 -7.09268e-16 0)
(3 -6.24077e-16 0)
(3 -1.39031e-15 0)
(3 -1.96346e-15 0)
(3 -1.78697e-15 0)
(3 -1.67461e-15 0)
(3 -1.73217e-15 0)
(3 -1.77324e-15 0)
(3 -7.71481e-16 0)
(3 -4.30375e-16 0)
(3 -2.45308e-17 0)
(3 2.50768e-16 0)
(3 2.29837e-16 0)
(3 2.43292e-16 0)
(3 3.93959e-16 0)
(3 3.27742e-16 0)
(3 1.28108e-16 0)
(3 -1.01321e-16 0)
(3 -1.93952e-16 0)
(3 -7.13893e-16 0)
(3 -7.77842e-16 0)
(3 -7.98169e-16 0)
(3 -6.06307e-16 0)
(3 -4.33546e-16 0)
(3 -5.63517e-16 0)
(3 -5.38361e-16 0)
(3 1.29905e-16 0)
(3 -3.49649e-16 0)
(3 -5.19318e-16 0)
(3 -1.20015e-15 0)
(3 -2.14556e-15 0)
(3 -2.37121e-15 0)
(3 -2.2767e-15 0)
(3 -2.35123e-15 0)
(3 -2.59288e-15 0)
(3 -2.50535e-15 0)
(3 -4.12723e-15 0)
(3 -3.50564e-15 0)
(3 -1.6064e-15 0)
(3 -1.22843e-15 0)
(3 -1.03165e-15 0)
(3 -7.06003e-16 0)
(3 -1.43429e-15 0)
(3 -2.47897e-15 0)
(3 -3.35648e-15 0)
(3 -1.07276e-15 0)
(3 2.69218e-15 0)
(3 1.45253e-15 0)
(3 -9.69864e-16 0)
(3 -3.02044e-15 0)
(3 -3.68735e-15 0)
(3 -3.8546e-15 0)
(3 -4.12893e-15 0)
(3 -5.31213e-15 0)
(3 -5.5974e-15 0)
(3 -5.00173e-15 0)
(3 -3.9844e-15 0)
(3 -3.51598e-15 0)
(3 -2.57163e-15 0)
(3 -9.20051e-16 0)
(3 3.62253e-16 0)
(3 4.54026e-16 0)
(3 4.78849e-16 0)
(3 4.60261e-16 0)
(3 4.86423e-16 0)
(3 3.38345e-16 0)
(3 -1.4157e-17 0)
(3 -2.86278e-16 0)
(3 -3.84442e-16 0)
(3 -4.28987e-16 0)
(3 -4.05748e-16 0)
(3 -4.06945e-16 0)
(3 -3.08994e-16 0)
(3 -2.56616e-16 0)
(3 -7.57552e-17 0)
(3 -2.82762e-17 0)
(3 -9.17419e-17 0)
(3 -2.45726e-16 0)
(3 -3.30929e-16 0)
(3 5.8066e-16 0)
(3 1.54433e-15 0)
(3 1.58171e-15 0)
(3 1.80336e-15 0)
(3 1.67179e-15 0)
(3 -3.58917e-16 0)
(3 -1.84806e-15 0)
(3 -2.58203e-15 0)
(3 -2.88166e-15 0)
(3 -2.82323e-15 0)
(3 -2.8427e-15 0)
(3 -3.13149e-15 0)
(3 -3.32836e-15 0)
(3 -1.54035e-15 0)
(3 -6.41126e-16 0)
(3 -5.03265e-16 0)
(3 2.78586e-16 0)
(3 1.136e-15 0)
(3 1.49246e-15 0)
(3 1.98579e-15 0)
(3 2.14824e-15 0)
(3 2.37853e-15 0)
(3 2.73941e-15 0)
(3 3.12376e-15 0)
(3 3.43646e-15 0)
(3 3.49895e-15 0)
(3 1.95626e-15 0)
(3 1.60011e-15 0)
(3 1.20986e-15 0)
(3 7.94861e-16 0)
(3 -2.53791e-16 0)
(3 -4.45344e-16 0)
(3 -4.88888e-16 0)
(3 -3.37815e-18 0)
(3 -1.03282e-17 0)
(3 -4.14476e-17 0)
(3 -8.01576e-17 0)
(3 -7.79337e-17 0)
(3 -4.21377e-17 0)
(3 -1.45099e-16 0)
(3 -2.52458e-16 0)
(3 -3.96777e-16 0)
(3 -4.21545e-16 0)
(3 -7.86213e-16 0)
(3 -8.51118e-16 0)
(3 -8.37638e-16 0)
(3 -8.42659e-16 0)
(3 -8.4648e-16 0)
(3 -7.70981e-16 0)
(3 -2.84303e-16 0)
(3 1.95473e-16 0)
(3 2.70772e-16 0)
(3 1.87178e-16 0)
(3 1.39544e-16 0)
(3 -5.53581e-17 0)
(3 -4.27159e-16 0)
(3 -5.12284e-16 0)
(3 -5.64713e-16 0)
(3 -4.75007e-16 0)
(3 -1.8795e-16 0)
(3 -6.65809e-17 0)
(3 9.8674e-17 0)
(3 3.89133e-16 0)
(3 6.2812e-16 0)
(3 6.94799e-16 0)
(3 4.19056e-16 0)
(3 1.12501e-16 0)
(3 -1.0644e-17 0)
(3 -3.4466e-16 0)
(3 -8.71682e-16 0)
(3 -1.08986e-15 0)
(3 -1.45622e-15 0)
(3 -1.70505e-15 0)
(3 -1.56854e-15 0)
(3 -1.33422e-15 0)
(3 -1.44869e-15 0)
(3 -1.61728e-15 0)
(3 -9.05991e-16 0)
(3 -8.09483e-16 0)
(3 -2.12734e-16 0)
(3 2.45701e-17 0)
(3 4.96123e-17 0)
(3 1.111e-16 0)
(3 2.49904e-16 0)
(3 1.17714e-16 0)
(3 -2.52229e-16 0)
(3 -8.12536e-16 0)
(3 -1.11652e-15 0)
(3 -1.30754e-15 0)
(3 -1.86377e-15 0)
(3 -2.10196e-15 0)
(3 -2.10067e-15 0)
(3 -1.39326e-15 0)
(3 -2.06323e-16 0)
(3 3.86174e-16 0)
(3 8.03158e-16 0)
(3 7.96864e-16 0)
(3 6.40257e-16 0)
(3 4.50215e-16 0)
(3 1.11622e-15 0)
(3 1.23794e-15 0)
(3 1.29062e-15 0)
(3 2.65377e-15 0)
(3 3.63372e-15 0)
(3 3.91589e-15 0)
(3 3.78818e-15 0)
(3 3.74591e-15 0)
(3 3.86324e-15 0)
(3 4.12756e-15 0)
(3 4.35936e-15 0)
(3 4.44566e-15 0)
(3 4.32227e-15 0)
(3 3.41316e-15 0)
(3 3.02466e-15 0)
(3 2.68999e-15 0)
(3 2.52462e-15 0)
(3 2.70873e-15 0)
(3 3.33397e-15 0)
(3 3.91541e-15 0)
(3 4.11268e-15 0)
(3 4.36021e-15 0)
(3 4.12718e-15 0)
(3 3.88982e-15 0)
(3 3.92591e-15 0)
(3 3.8959e-15 0)
(3 3.72052e-15 0)
(3 3.52785e-15 0)
(3 2.70466e-15 0)
(3 1.17772e-15 0)
(3 7.48503e-16 0)
(3 2.01362e-15 0)
(3 2.85843e-15 0)
(3 3.06541e-15 0)
(3 3.72247e-15 0)
(3 3.81338e-15 0)
(3 4.13301e-15 0)
(3 4.32689e-15 0)
(3 4.12326e-15 0)
(3 4.90897e-15 0)
(3 5.66019e-15 0)
(3 6.03854e-15 0)
(3 6.31058e-15 0)
(3 6.28974e-15 0)
(3 6.27444e-15 0)
(3 6.60138e-15 0)
(3 7.06257e-15 0)
(3 7.21945e-15 0)
(3 5.30302e-15 0)
(3 4.99934e-15 0)
(3 4.46328e-15 0)
(3 3.90127e-15 0)
(3 3.87179e-15 0)
(3 3.97831e-15 0)
(3 4.14352e-15 0)
(3 4.30997e-15 0)
(3 4.20692e-15 0)
(3 4.09666e-15 0)
(3 3.03865e-15 0)
(3 2.66218e-15 0)
(3 2.27802e-15 0)
(3 2.0479e-15 0)
(3 1.83692e-15 0)
(3 1.55666e-15 0)
(3 1.45252e-15 0)
(3 1.13506e-15 0)
(3 9.28293e-16 0)
(3 2.83527e-16 0)
(3 -3.86537e-16 0)
(3 -1.05152e-15 0)
(3 -8.44289e-16 0)
(3 -5.3947e-16 0)
(3 -3.49377e-16 0)
(3 -4.89828e-16 0)
(3 -9.83365e-16 0)
(3 -1.62757e-15 0)
(3 -1.6011e-15 0)
(3 -1.99682e-15 0)
(3 -2.18659e-15 0)
(3 -2.90531e-15 0)
(3 -2.8258e-15 0)
(3 -1.84783e-15 0)
(3 -1.17843e-15 0)
(3 -7.44583e-16 0)
(3 -3.80616e-16 0)
(3 -4.57041e-16 0)
(3 -1.61431e-15 0)
(3 -2.11611e-15 0)
(3 -1.78148e-15 0)
(3 -1.68979e-15 0)
(3 -1.7093e-15 0)
(3 -1.88147e-15 0)
(3 -1.8811e-15 0)
(3 -2.15872e-15 0)
(3 -2.47165e-15 0)
(3 -2.96505e-15 0)
(3 -3.17682e-15 0)
(3 -3.40828e-15 0)
(3 -3.4399e-15 0)
(3 -3.71381e-15 0)
(3 -3.50524e-15 0)
(3 -1.88843e-15 0)
(3 -1.16214e-15 0)
(3 -1.05332e-15 0)
(3 -1.06477e-15 0)
(3 -1.2367e-15 0)
(3 -1.6205e-15 0)
(3 -2.13104e-15 0)
(3 -2.21541e-15 0)
(3 -2.26001e-15 0)
(3 -1.90203e-15 0)
(3 -2.84679e-15 0)
(3 -4.59813e-15 0)
(3 -5.29539e-15 0)
(3 -2.47179e-16 0)
(3 2.76399e-15 0)
(3 3.53137e-15 0)
(3 3.8046e-15 0)
(3 2.8067e-15 0)
(3 2.41308e-15 0)
(3 1.60488e-15 0)
(3 2.51077e-16 0)
(3 -4.34349e-16 0)
(3 8.17278e-16 0)
(3 1.6512e-15 0)
(3 4.87343e-16 0)
(3 -2.55699e-15 0)
(3 -4.445e-15 0)
(3 -5.51175e-15 0)
(3 -5.69881e-15 0)
(3 -6.1861e-15 0)
(3 -5.96876e-15 0)
(3 -5.76625e-15 0)
(3 -5.7738e-15 0)
(3 -5.71351e-15 0)
(3 -5.39583e-15 0)
(3 -4.90468e-15 0)
(3 -5.81223e-15 0)
(3 -7.74162e-15 0)
(3 -8.48628e-15 0)
(3 -6.64234e-15 0)
(3 -4.96346e-15 0)
(3 -4.50614e-15 0)
(3 -4.26696e-15 0)
(3 -3.92032e-15 0)
(3 -3.76997e-15 0)
(3 -3.68532e-15 0)
(3 -3.615e-15 0)
(3 -3.27914e-15 0)
(3 -3.31536e-15 0)
(3 -2.55681e-15 0)
(3 -1.30004e-15 0)
(3 -9.90194e-16 0)
(3 -6.26176e-16 0)
(3 -2.42909e-16 0)
(3 -4.34723e-16 0)
(3 -1.13138e-15 0)
(3 -9.53837e-16 0)
(3 -5.10114e-16 0)
(3 -2.16463e-16 0)
(3 -7.96342e-16 0)
(3 -9.40056e-16 0)
(3 -8.61963e-16 0)
(3 -1.35913e-15 0)
(3 -2.03309e-15 0)
(3 -2.40594e-15 0)
(3 -2.74893e-15 0)
(3 -2.77679e-15 0)
(3 -2.35165e-15 0)
(3 -1.81794e-15 0)
(3 -1.22194e-15 0)
(3 -1.44555e-15 0)
(3 -2.0866e-15 0)
(3 -2.56472e-15 0)
(3 -2.34439e-15 0)
(3 -2.36365e-15 0)
(3 -2.36767e-15 0)
(3 -2.44564e-15 0)
(3 -2.476e-15 0)
(3 -2.60853e-15 0)
(3 -2.85345e-15 0)
(3 -2.92669e-15 0)
(3 -3.41283e-15 0)
(3 -3.96052e-15 0)
(3 -4.39678e-15 0)
(3 -4.92936e-15 0)
(3 -4.73906e-15 0)
(3 -3.58238e-15 0)
(3 -3.65241e-15 0)
(3 -3.86354e-15 0)
(3 -3.68941e-15 0)
(3 -4.13317e-15 0)
(3 -4.87017e-15 0)
(3 -5.28796e-15 0)
(3 -5.98787e-15 0)
(3 -7.30387e-15 0)
(3 -7.13532e-15 0)
(3 -5.44728e-15 0)
(3 -4.86735e-15 0)
(3 -4.28366e-15 0)
(3 -3.33942e-15 0)
(3 -2.80012e-15 0)
(3 -2.64604e-15 0)
(3 -2.8507e-15 0)
(3 -3.48225e-15 0)
(3 -4.01399e-15 0)
(3 -3.88146e-15 0)
(3 -3.47369e-15 0)
(3 -3.12265e-15 0)
(3 -3.01505e-15 0)
(3 -2.69521e-15 0)
(3 -1.15371e-15 0)
(3 -9.58828e-16 0)
(3 -9.93229e-16 0)
(3 1.33435e-15 0)
(3 2.31945e-15 0)
(3 2.56462e-15 0)
(3 2.48965e-15 0)
(3 2.30313e-15 0)
(3 1.93028e-15 0)
(3 1.81664e-15 0)
(3 1.86071e-15 0)
(3 1.81063e-15 0)
(3 1.2852e-15 0)
(3 9.93775e-16 0)
(3 5.93135e-16 0)
(3 2.1849e-16 0)
(3 2.48919e-16 0)
(3 6.63023e-16 0)
(3 9.10965e-16 0)
(3 6.78297e-16 0)
(3 9.08824e-16 0)
(3 1.16231e-15 0)
(3 9.35752e-16 0)
(3 1.61829e-16 0)
(3 -1.02925e-15 0)
(3 -1.15545e-15 0)
(3 -1.40716e-15 0)
(3 -1.87739e-15 0)
(3 -2.17721e-15 0)
(3 -2.19055e-15 0)
(3 -1.93783e-15 0)
(3 -1.91419e-15 0)
(3 -2.20986e-15 0)
(3 -1.50875e-15 0)
(3 -7.36161e-16 0)
(3 2.29245e-16 0)
(3 2.31601e-15 0)
(3 2.71704e-15 0)
(3 1.91034e-15 0)
(3 1.7404e-15 0)
(3 5.66369e-15 0)
(3 7.03425e-15 0)
(3 3.67075e-15 0)
(3 4.24468e-16 0)
(3 -1.91032e-15 0)
(3 -3.40962e-15 0)
(3 -4.70664e-15 0)
(3 -5.17651e-15 0)
(3 -5.65993e-15 0)
(3 -5.8121e-15 0)
(3 -6.78945e-15 0)
(3 -7.66986e-15 0)
(3 -5.0221e-15 0)
(3 -2.09295e-15 0)
(3 -8.59673e-16 0)
(3 5.4397e-16 0)
(3 1.66705e-16 0)
(3 -7.18934e-16 0)
(3 -1.02957e-15 0)
(3 -3.7523e-16 0)
(3 -5.84718e-17 0)
(3 3.85608e-16 0)
(3 5.76694e-16 0)
(3 7.97262e-16 0)
(3 6.73302e-16 0)
(3 2.14588e-15 0)
(3 2.63757e-15 0)
(3 2.45644e-15 0)
(3 2.05238e-15 0)
(3 1.75197e-15 0)
(3 1.62027e-15 0)
(3 1.07121e-15 0)
(3 9.27011e-16 0)
(3 8.24455e-16 0)
(3 1.10094e-15 0)
(3 1.22626e-15 0)
(3 1.62948e-15 0)
(3 1.0351e-15 0)
(3 7.31631e-16 0)
(3 5.01995e-16 0)
(3 -6.34226e-16 0)
(3 -1.56298e-15 0)
(3 -2.15026e-15 0)
(3 -2.77201e-15 0)
(3 -3.10363e-15 0)
(3 -4.60504e-15 0)
(3 -3.40999e-15 0)
(3 -9.02217e-16 0)
(3 -7.24244e-17 0)
(3 3.80593e-16 0)
(3 9.11164e-16 0)
(3 1.79312e-15 0)
(3 2.83584e-15 0)
(3 3.03108e-15 0)
(3 3.22872e-15 0)
(3 3.4527e-15 0)
(3 4.32113e-15 0)
(3 6.06466e-15 0)
(3 6.83308e-15 0)
(3 5.0741e-15 0)
(3 3.70553e-15 0)
(3 3.69651e-15 0)
(3 2.29646e-15 0)
(3 9.91703e-16 0)
(3 2.94203e-16 0)
(3 3.42044e-16 0)
(3 -3.57102e-16 0)
(3 -1.93689e-17 0)
(3 7.18017e-18 0)
(3 1.93046e-17 0)
(3 6.83391e-17 0)
(3 6.5832e-17 0)
(3 4.18029e-17 0)
(3 6.88133e-17 0)
(3 1.12335e-16 0)
(3 3.04623e-18 0)
(3 -2.09268e-16 0)
(3 -1.93029e-16 0)
(3 -6.55549e-17 0)
(3 4.01872e-17 0)
(3 8.71214e-17 0)
(3 8.43409e-17 0)
(3 -2.259e-17 0)
(3 -2.60858e-16 0)
(3 -3.8577e-16 0)
(3 -3.5173e-16 0)
(3 -2.97402e-16 0)
(3 -3.10925e-16 0)
(3 -3.40487e-16 0)
(3 -3.59034e-16 0)
(3 -3.04089e-16 0)
(3 -4.31794e-16 0)
(3 -4.95903e-16 0)
(3 -5.47686e-16 0)
(3 -6.66634e-16 0)
(3 -8.92422e-16 0)
(3 -9.83186e-16 0)
(3 -1.07794e-15 0)
(3 -1.0939e-15 0)
(3 -9.20657e-16 0)
(3 -9.22238e-16 0)
(3 -8.03592e-16 0)
(3 -6.39451e-16 0)
(3 -3.16401e-16 0)
(3 -1.48664e-16 0)
(3 -2.29287e-16 0)
(3 -3.92284e-16 0)
(3 -4.13612e-16 0)
(3 -1.88649e-16 0)
(3 3.2008e-16 0)
(3 3.86111e-16 0)
(3 4.03211e-16 0)
(3 2.44091e-16 0)
(3 2.83037e-17 0)
(3 3.7713e-17 0)
(3 6.37707e-16 0)
(3 7.76847e-16 0)
(3 6.87224e-16 0)
(3 5.02078e-16 0)
(3 6.36278e-16 0)
(3 8.43386e-16 0)
(3 8.20077e-16 0)
(3 2.95905e-16 0)
(3 -5.54836e-17 0)
(3 -6.65038e-16 0)
(3 -1.18311e-15 0)
(3 -1.50326e-15 0)
(3 -1.65858e-15 0)
(3 -2.32492e-15 0)
(3 -2.78298e-15 0)
(3 -1.47346e-15 0)
(3 -5.66188e-16 0)
(3 -3.11409e-16 0)
(3 -2.72349e-16 0)
(3 -5.25972e-16 0)
(3 -5.01398e-16 0)
(3 7.55971e-16 0)
(3 1.08224e-15 0)
(3 9.09161e-16 0)
(3 5.36997e-16 0)
(3 4.10099e-17 0)
(3 5.02042e-16 0)
(3 8.84075e-16 0)
(3 1.03292e-15 0)
(3 9.23851e-16 0)
(3 2.0072e-16 0)
(3 -4.76099e-16 0)
(3 -3.30799e-16 0)
(3 1.33259e-16 0)
(3 5.43473e-16 0)
(3 1.07485e-15 0)
(3 1.40815e-15 0)
(3 2.38649e-15 0)
(3 2.62254e-15 0)
(3 2.79262e-15 0)
(3 2.87242e-15 0)
(3 3.12752e-15 0)
(3 2.05811e-15 0)
(3 1.25708e-15 0)
(3 -4.57464e-16 0)
(3 -1.55571e-15 0)
(3 -2.25585e-15 0)
(3 -2.26514e-15 0)
(3 -2.32287e-15 0)
(3 -1.19928e-15 0)
(3 -4.1247e-16 0)
(3 -3.35997e-16 0)
(3 8.09885e-16 0)
(3 1.36901e-15 0)
(3 1.73626e-15 0)
(3 2.6909e-15 0)
(3 2.68158e-15 0)
(3 3.09417e-15 0)
(3 3.90713e-15 0)
(3 3.92739e-15 0)
(3 3.70126e-15 0)
(3 3.51455e-15 0)
(3 3.39278e-15 0)
(3 3.48011e-15 0)
(3 3.66542e-15 0)
(3 3.74187e-15 0)
(3 3.8156e-15 0)
(3 2.89864e-15 0)
(3 2.11331e-15 0)
(3 1.94968e-15 0)
(3 1.67427e-15 0)
(3 1.77643e-15 0)
(3 3.15673e-16 0)
(3 -3.81128e-16 0)
(3 -5.60128e-16 0)
(3 -3.31674e-16 0)
(3 -1.67358e-16 0)
(3 -3.60137e-16 0)
(3 -4.55795e-16 0)
(3 -5.66335e-16 0)
(3 -6.45749e-16 0)
(3 -7.45475e-16 0)
(3 -6.41515e-16 0)
(3 -3.19246e-16 0)
(3 -3.31846e-16 0)
(3 -9.36229e-16 0)
(3 -1.19473e-15 0)
(3 -1.62141e-15 0)
(3 -2.18827e-15 0)
(3 -1.51914e-15 0)
(3 -1.52123e-15 0)
(3 -1.65145e-15 0)
(3 -1.86055e-15 0)
(3 -1.29096e-15 0)
(3 -3.50241e-16 0)
(3 2.6259e-16 0)
(3 4.68213e-16 0)
(3 1.42945e-16 0)
(3 1.21871e-15 0)
(3 1.64984e-15 0)
(3 1.33758e-15 0)
(3 1.01299e-15 0)
(3 5.38909e-16 0)
(3 1.43774e-17 0)
(3 1.58183e-16 0)
(3 5.14802e-16 0)
(3 6.77242e-16 0)
(3 5.59868e-16 0)
(3 4.10578e-16 0)
(3 4.70503e-17 0)
(3 -4.73984e-16 0)
(3 -8.49254e-16 0)
(3 -1.11787e-15 0)
(3 -1.63681e-15 0)
(3 -2.08812e-15 0)
(3 -2.27305e-15 0)
(3 -2.19059e-15 0)
(3 -1.89485e-15 0)
(3 -2.364e-15 0)
(3 -1.58859e-15 0)
(3 2.79359e-16 0)
(3 1.16996e-15 0)
(3 -2.24538e-16 0)
(3 -1.06671e-15 0)
(3 -1.50024e-15 0)
(3 -2.0552e-15 0)
(3 -2.30977e-15 0)
(3 -2.87473e-15 0)
(3 -2.41065e-15 0)
(3 -1.02624e-15 0)
(3 -3.34107e-16 0)
(3 1.29361e-15 0)
(3 1.66737e-15 0)
(3 1.16029e-15 0)
(3 9.8451e-16 0)
(3 1.13959e-15 0)
(3 9.69374e-16 0)
(3 9.31122e-16 0)
(3 9.1275e-16 0)
(3 -3.93622e-16 0)
(3 -8.5115e-16 0)
(3 -1.29902e-15 0)
(3 -1.35189e-15 0)
(3 -1.08192e-15 0)
(3 -2.17179e-15 0)
(3 -3.72355e-15 0)
(3 -3.88043e-15 0)
(3 -2.98894e-15 0)
(3 -8.42171e-16 0)
(3 -2.42375e-17 0)
(3 -3.36253e-15 0)
(3 -6.8158e-15 0)
(3 -6.90461e-15 0)
(3 -6.24469e-15 0)
(3 -7.77524e-15 0)
(3 -1.00325e-14 0)
(3 -1.09422e-14 0)
(3 -1.03218e-14 0)
(3 -9.39243e-15 0)
(3 -9.2639e-15 0)
(3 -9.02207e-15 0)
(3 -8.4482e-15 0)
(3 -8.29293e-15 0)
(3 -7.70286e-15 0)
(3 -7.39379e-15 0)
(3 -6.16875e-15 0)
(3 -5.79399e-15 0)
(3 -5.4063e-15 0)
(3 -4.76479e-15 0)
(3 -3.61118e-15 0)
(3 -2.56386e-15 0)
(3 -2.21257e-15 0)
(3 -1.35585e-15 0)
(3 -9.84342e-16 0)
(3 -3.67956e-16 0)
(3 -4.9193e-16 0)
(3 -1.03314e-15 0)
(3 -1.76176e-15 0)
(3 -2.01306e-15 0)
(3 -1.35813e-15 0)
(3 -9.03289e-16 0)
(3 -1.17647e-15 0)
(3 -1.31819e-15 0)
(3 -1.41982e-15 0)
(3 -1.13857e-15 0)
(3 -1.03194e-15 0)
(3 -2.59286e-15 0)
(3 -4.09289e-15 0)
(3 -4.17865e-15 0)
(3 -4.54292e-15 0)
(3 -5.59254e-15 0)
(3 -6.7245e-15 0)
(3 -6.51306e-15 0)
(3 -5.51829e-15 0)
(3 -5.00617e-15 0)
(3 -4.66855e-15 0)
(3 -4.35923e-15 0)
(3 -3.96476e-15 0)
(3 -4.13561e-15 0)
(3 -3.98001e-15 0)
(3 -4.21732e-15 0)
(3 -5.15096e-15 0)
(3 -4.07289e-15 0)
(3 -2.28759e-15 0)
(3 3.53822e-16 0)
(3 8.00274e-16 0)
(3 -1.47313e-15 0)
(3 -4.85362e-15 0)
(3 -5.50104e-15 0)
(3 -6.09439e-15 0)
(3 -6.91857e-15 0)
(3 -7.48847e-15 0)
(3 -8.36794e-15 0)
(3 -8.45268e-15 0)
(3 -6.51283e-15 0)
(3 -5.88215e-15 0)
(3 -4.81907e-15 0)
(3 -3.15828e-15 0)
(3 -2.96156e-15 0)
(3 -3.15989e-15 0)
(3 -3.42366e-15 0)
(3 -3.52581e-15 0)
(3 -3.31419e-15 0)
(3 -2.84155e-15 0)
(3 -3.0198e-15 0)
(3 -3.26394e-15 0)
(3 -2.73634e-15 0)
(3 -2.23153e-15 0)
(3 -2.27855e-15 0)
(3 -2.32018e-15 0)
(3 -1.2989e-15 0)
(3 -6.25081e-16 0)
(3 -4.12708e-16 0)
(3 -5.2969e-17 0)
(3 9.12253e-16 0)
(3 1.04446e-15 0)
(3 1.01605e-15 0)
(3 8.09131e-16 0)
(3 2.22496e-16 0)
(3 1.3528e-16 0)
(3 2.29296e-16 0)
(3 7.20948e-16 0)
(3 1.10812e-15 0)
(3 2.04311e-15 0)
(3 2.67815e-15 0)
(3 2.79477e-15 0)
(3 2.96541e-15 0)
(3 2.77382e-15 0)
(3 2.47255e-15 0)
(3 1.81874e-15 0)
(3 2.03527e-15 0)
(3 1.69661e-15 0)
(3 1.18531e-16 0)
(3 -1.49678e-15 0)
(3 -1.55823e-15 0)
(3 -1.39624e-15 0)
(3 -1.34309e-15 0)
(3 -1.28877e-15 0)
(3 -1.50219e-15 0)
(3 -2.30852e-15 0)
(3 -2.63573e-15 0)
(3 -2.09626e-16 0)
(3 1.33364e-15 0)
(3 1.75634e-15 0)
(3 2.03453e-15 0)
(3 2.66093e-15 0)
(3 2.66785e-15 0)
(3 2.18831e-15 0)
(3 3.05881e-15 0)
(3 7.31851e-15 0)
(3 6.63318e-15 0)
(3 3.10883e-15 0)
(3 -2.0264e-15 0)
(3 -3.56027e-15 0)
(3 -3.50747e-15 0)
(3 -3.05106e-15 0)
(3 -3.23716e-15 0)
(3 -5.8191e-15 0)
(3 -6.183e-15 0)
(3 -7.00784e-15 0)
(3 -6.9934e-15 0)
(3 -5.25893e-15 0)
(3 -4.90334e-15 0)
(3 -4.60867e-15 0)
(3 -2.60246e-15 0)
(3 -1.66178e-15 0)
(3 -1.83429e-15 0)
(3 -1.98279e-15 0)
(3 -1.62177e-15 0)
(3 -1.67564e-15 0)
(3 -7.323e-16 0)
(3 5.44799e-16 0)
(3 1.16296e-15 0)
(3 1.24563e-15 0)
(3 1.42156e-15 0)
(3 1.3255e-15 0)
(3 1.38594e-15 0)
(3 1.60267e-15 0)
(3 1.45477e-15 0)
(3 1.70081e-15 0)
(3 1.81617e-15 0)
(3 1.81787e-15 0)
(3 1.95261e-15 0)
(3 2.04929e-15 0)
(3 2.08203e-15 0)
(3 2.03885e-15 0)
(3 2.00426e-15 0)
(3 2.6939e-15 0)
(3 2.92076e-15 0)
(3 2.91611e-15 0)
(3 2.75212e-15 0)
(3 2.7737e-15 0)
(3 3.0162e-16 0)
(3 -2.55801e-15 0)
(3 -2.80745e-15 0)
(3 -2.41109e-15 0)
(3 -1.55082e-15 0)
(3 -1.18695e-15 0)
(3 -8.79792e-16 0)
(3 -8.5848e-16 0)
(3 -6.50645e-16 0)
(3 4.09795e-16 0)
(3 1.4372e-15 0)
(3 2.26157e-15 0)
(3 2.35218e-15 0)
(3 3.26275e-15 0)
(3 4.81588e-15 0)
(3 5.38198e-15 0)
(3 4.8373e-15 0)
(3 3.95721e-15 0)
(3 3.67737e-15 0)
(3 2.9684e-15 0)
(3 2.77977e-15 0)
(3 2.35685e-15 0)
(3 1.70217e-15 0)
(3 1.02265e-15 0)
(3 3.62522e-17 0)
(3 2.42524e-17 0)
(3 9.0172e-17 0)
(3 3.50736e-16 0)
(3 4.3986e-16 0)
(3 3.93593e-16 0)
(3 3.1245e-16 0)
(3 3.07577e-16 0)
(3 3.19197e-16 0)
(3 4.45081e-17 0)
(3 -5.6308e-18 0)
(3 8.46322e-17 0)
(3 1.988e-16 0)
(3 4.34705e-16 0)
(3 4.48045e-16 0)
(3 -1.37498e-17 0)
(3 -3.0223e-16 0)
(3 -5.27716e-16 0)
(3 -4.08403e-16 0)
(3 -3.05412e-16 0)
(3 -2.13864e-16 0)
(3 -7.26687e-17 0)
(3 -3.64846e-17 0)
(3 -2.56196e-16 0)
(3 -1.86261e-16 0)
(3 -5.3156e-17 0)
(3 -1.5114e-16 0)
(3 -1.92746e-16 0)
(3 -8.7283e-17 0)
(3 -4.76921e-17 0)
(3 -3.55214e-16 0)
(3 -6.37539e-16 0)
(3 -7.36853e-16 0)
(3 -8.86571e-16 0)
(3 -9.11116e-16 0)
(3 -1.03925e-15 0)
(3 -9.17831e-16 0)
(3 -5.9512e-16 0)
(3 -4.13519e-16 0)
(3 -2.18315e-16 0)
(3 6.45501e-17 0)
(3 1.15254e-16 0)
(3 5.18443e-16 0)
(3 1.04026e-15 0)
(3 9.23112e-16 0)
(3 3.92547e-16 0)
(3 1.86693e-16 0)
(3 -3.15824e-17 0)
(3 -3.48524e-16 0)
(3 -5.63637e-16 0)
(3 -1.02526e-15 0)
(3 -1.67102e-15 0)
(3 -1.72566e-15 0)
(3 -1.63979e-15 0)
(3 -1.44133e-15 0)
(3 -1.16909e-15 0)
(3 4.92699e-18 0)
(3 -3.69381e-16 0)
(3 -1.11632e-15 0)
(3 -1.65153e-15 0)
(3 -1.89156e-15 0)
(3 -1.97785e-15 0)
(3 -1.77785e-15 0)
(3 -1.64773e-15 0)
(3 -1.67089e-15 0)
(3 -1.51231e-15 0)
(3 -1.07696e-15 0)
(3 -1.17569e-15 0)
(3 -1.50902e-15 0)
(3 -1.85718e-15 0)
(3 -2.11794e-15 0)
(3 -1.96297e-15 0)
(3 -1.76952e-15 0)
(3 -1.41189e-15 0)
(3 -1.0363e-15 0)
(3 -8.69255e-16 0)
(3 -9.94181e-16 0)
(3 -1.04243e-15 0)
(3 -1.13233e-15 0)
(3 -1.19381e-15 0)
(3 -1.13674e-15 0)
(3 -8.33378e-16 0)
(3 1.32476e-16 0)
(3 4.77844e-16 0)
(3 2.36078e-16 0)
(3 -3.53813e-16 0)
(3 -6.87089e-16 0)
(3 -5.56621e-16 0)
(3 -1.88388e-17 0)
(3 2.29856e-16 0)
(3 3.49712e-16 0)
(3 5.46247e-16 0)
(3 6.19696e-16 0)
(3 1.19679e-15 0)
(3 1.91148e-15 0)
(3 5.2181e-16 0)
(3 3.00358e-17 0)
(3 -6.93307e-16 0)
(3 -1.3929e-15 0)
(3 -1.88464e-15 0)
(3 -2.14528e-15 0)
(3 -2.28213e-15 0)
(3 -2.38297e-15 0)
(3 -2.10852e-15 0)
(3 -1.6504e-15 0)
(3 -1.46331e-15 0)
(3 -1.85105e-15 0)
(3 -2.04879e-15 0)
(3 -2.12021e-15 0)
(3 -1.30359e-15 0)
(3 -1.27085e-15 0)
(3 -1.33525e-15 0)
(3 -9.46126e-16 0)
(3 -8.69561e-16 0)
(3 -8.60896e-16 0)
(3 -1.07088e-15 0)
(3 -1.46472e-15 0)
(3 -1.90328e-15 0)
(3 -2.73885e-15 0)
(3 -3.1849e-15 0)
(3 -3.5391e-15 0)
(3 -3.63344e-15 0)
(3 -4.05791e-15 0)
(3 -4.48139e-15 0)
(3 -4.16562e-15 0)
(3 -4.4244e-15 0)
(3 -3.45629e-15 0)
(3 -2.36321e-15 0)
(3 -2.072e-15 0)
(3 -1.45493e-15 0)
(3 -1.39668e-15 0)
(3 -1.6745e-15 0)
(3 -1.89431e-15 0)
(3 -2.09803e-15 0)
(3 -2.31288e-15 0)
(3 -2.39379e-15 0)
(3 -2.46714e-15 0)
(3 -2.28961e-15 0)
(3 -2.21534e-15 0)
(3 -2.02077e-15 0)
(3 -2.07436e-15 0)
(3 -1.25022e-15 0)
(3 -8.95292e-16 0)
(3 -7.33305e-16 0)
(3 -2.62153e-15 0)
(3 -2.71249e-15 0)
(3 -4.5552e-16 0)
(3 2.96719e-15 0)
(3 3.15976e-15 0)
(3 3.09482e-15 0)
(3 3.24128e-15 0)
(3 3.30032e-15 0)
(3 3.86641e-15 0)
(3 4.1212e-15 0)
(3 4.65095e-15 0)
(3 5.32732e-15 0)
(3 4.3007e-15 0)
(3 3.61567e-15 0)
(3 2.98108e-15 0)
(3 2.41708e-15 0)
(3 2.10288e-15 0)
(3 2.17028e-15 0)
(3 2.6633e-15 0)
(3 3.39018e-15 0)
(3 3.6926e-15 0)
(3 2.83813e-15 0)
(3 1.08511e-15 0)
(3 9.52757e-16 0)
(3 2.81247e-15 0)
(3 3.41819e-15 0)
(3 2.6966e-15 0)
(3 2.25196e-15 0)
(3 1.23404e-15 0)
(3 4.43889e-16 0)
(3 6.31373e-16 0)
(3 9.26963e-16 0)
(3 1.22226e-15 0)
(3 1.40164e-15 0)
(3 1.49232e-15 0)
(3 1.56476e-15 0)
(3 8.95473e-16 0)
(3 1.0411e-15 0)
(3 6.2986e-16 0)
(3 4.10836e-16 0)
(3 1.2458e-15 0)
(3 1.74431e-15 0)
(3 2.05154e-15 0)
(3 1.76342e-15 0)
(3 1.0475e-15 0)
(3 1.75729e-16 0)
(3 -1.58618e-15 0)
(3 -2.70533e-15 0)
(3 -2.72176e-15 0)
(3 -2.03437e-15 0)
(3 -1.44246e-15 0)
(3 -7.97793e-16 0)
(3 -1.24918e-15 0)
(3 -1.53887e-15 0)
(3 -1.65349e-15 0)
(3 -3.14243e-15 0)
(3 -4.06021e-15 0)
(3 -4.26616e-15 0)
(3 -5.13931e-15 0)
(3 -5.5087e-15 0)
(3 -5.42838e-15 0)
(3 -4.83696e-15 0)
(3 -4.54406e-15 0)
(3 -6.48191e-15 0)
(3 -8.13416e-15 0)
(3 -7.43323e-15 0)
(3 -6.13917e-15 0)
(3 -5.99562e-15 0)
(3 -5.98458e-15 0)
(3 -5.9798e-15 0)
(3 -5.42858e-15 0)
(3 -5.14904e-15 0)
(3 -5.10454e-15 0)
(3 -4.01294e-15 0)
(3 -3.99424e-15 0)
(3 -3.85382e-15 0)
(3 -4.12232e-15 0)
(3 -4.77446e-15 0)
(3 -3.90772e-15 0)
(3 -3.10816e-15 0)
(3 -2.48683e-15 0)
(3 -2.40367e-15 0)
(3 -2.91454e-15 0)
(3 -3.42494e-15 0)
(3 -2.60072e-15 0)
(3 -1.98012e-15 0)
(3 -1.81163e-15 0)
(3 -1.10973e-15 0)
(3 -9.24714e-16 0)
(3 -2.12313e-15 0)
(3 -3.19098e-15 0)
(3 -3.38712e-15 0)
(3 -4.03259e-15 0)
(3 -7.88804e-15 0)
(3 -9.87929e-15 0)
(3 -1.00346e-14 0)
(3 -9.13172e-15 0)
(3 -8.0129e-15 0)
(3 -7.64989e-15 0)
(3 -7.39136e-15 0)
(3 -6.96251e-15 0)
(3 -6.24461e-15 0)
(3 -5.47162e-15 0)
(3 -5.07814e-15 0)
(3 -3.85211e-15 0)
(3 -4.33542e-15 0)
(3 -7.47571e-15 0)
(3 -4.89301e-15 0)
(3 3.17047e-16 0)
(3 2.38929e-15 0)
(3 1.02505e-15 0)
(3 -7.35477e-16 0)
(3 -8.02453e-16 0)
(3 -5.60615e-16 0)
(3 -2.73807e-15 0)
(3 -4.32852e-15 0)
(3 -4.62609e-15 0)
(3 -4.86039e-15 0)
(3 -5.60182e-15 0)
(3 -5.88482e-15 0)
(3 -5.82211e-15 0)
(3 -5.77355e-15 0)
(3 -4.52876e-15 0)
(3 -3.39964e-15 0)
(3 -3.14584e-15 0)
(3 -3.08481e-15 0)
(3 -3.12661e-15 0)
(3 -2.6264e-15 0)
(3 -1.92338e-15 0)
(3 -1.77409e-15 0)
(3 -1.28241e-15 0)
(3 -6.97948e-16 0)
(3 -2.9892e-16 0)
(3 5.21231e-16 0)
(3 3.68657e-16 0)
(3 2.86409e-16 0)
(3 -2.86604e-16 0)
(3 -3.46473e-16 0)
(3 -5.37056e-16 0)
(3 -1.11492e-15 0)
(3 -1.60551e-15 0)
(3 -1.71862e-15 0)
(3 -1.52893e-15 0)
(3 -1.04436e-15 0)
(3 -6.6011e-16 0)
(3 -1.04229e-16 0)
(3 5.16884e-16 0)
(3 1.21402e-15 0)
(3 7.49367e-16 0)
(3 5.06463e-16 0)
(3 4.77604e-16 0)
(3 1.37451e-15 0)
(3 2.28898e-15 0)
(3 2.53482e-15 0)
(3 2.3855e-15 0)
(3 1.4925e-15 0)
(3 6.98555e-16 0)
(3 -1.29962e-16 0)
(3 -6.42517e-16 0)
(3 -1.21555e-16 0)
(3 3.47884e-17 0)
(3 6.38997e-16 0)
(3 1.02989e-15 0)
(3 1.24751e-15 0)
(3 2.31943e-15 0)
(3 2.79088e-15 0)
(3 4.09664e-15 0)
(3 4.0822e-15 0)
(3 3.42491e-15 0)
(3 3.83586e-15 0)
(3 4.59276e-15 0)
(3 5.21656e-15 0)
(3 6.22426e-15 0)
(3 5.08e-15 0)
(3 3.15301e-15 0)
(3 1.78269e-15 0)
(3 7.5605e-16 0)
(3 -1.37188e-17 0)
(3 2.21634e-17 0)
(3 4.04175e-16 0)
(3 1.28117e-15 0)
(3 -6.59511e-16 0)
(3 -1.15332e-15 0)
(3 -1.01326e-15 0)
(3 -2.73612e-15 0)
(3 -3.61382e-15 0)
(3 -4.38504e-15 0)
(3 -5.13864e-15 0)
(3 -5.01372e-15 0)
(3 -4.41844e-15 0)
(3 -4.22576e-15 0)
(3 -3.69832e-15 0)
(3 -7.84391e-16 0)
(3 -4.41264e-16 0)
(3 -2.79621e-16 0)
(3 1.81651e-16 0)
(3 3.20467e-16 0)
(3 4.24788e-16 0)
(3 4.76393e-18 0)
(3 -6.87936e-16 0)
(3 -8.51402e-16 0)
(3 -8.00617e-16 0)
(3 1.40535e-16 0)
(3 1.57076e-15 0)
(3 2.3355e-15 0)
(3 3.02858e-15 0)
(3 3.54598e-15 0)
(3 2.43274e-15 0)
(3 3.00486e-16 0)
(3 -1.49005e-15 0)
(3 -9.21972e-16 0)
(3 2.16287e-16 0)
(3 1.33997e-15 0)
(3 1.6646e-15 0)
(3 1.95811e-15 0)
(3 2.27274e-15 0)
(3 8.47968e-16 0)
(3 -1.03893e-15 0)
(3 -1.14662e-15 0)
(3 -1.2551e-15 0)
(3 -1.13112e-15 0)
(3 -5.84788e-16 0)
(3 -4.04167e-16 0)
(3 2.4767e-17 0)
(3 2.02925e-16 0)
(3 1.95232e-16 0)
(3 -5.29515e-17 0)
(3 -3.26927e-16 0)
(3 -6.35094e-16 0)
(3 -3.55196e-16 0)
(3 1.66673e-16 0)
(3 3.63229e-16 0)
(3 7.26952e-16 0)
(3 6.53279e-16 0)
(3 1.41253e-15 0)
(3 4.18929e-15 0)
(3 5.83437e-15 0)
(3 5.47646e-15 0)
(3 1.19489e-15 0)
(3 7.80928e-17 0)
(3 4.42566e-17 0)
(3 5.61164e-17 0)
(3 8.05344e-18 0)
(3 -8.69049e-17 0)
(3 -6.80884e-18 0)
(3 2.94311e-17 0)
(3 1.12397e-16 0)
(3 3.44963e-17 0)
(3 -1.15706e-16 0)
(3 6.51484e-17 0)
(3 -7.10598e-17 0)
(3 -2.69741e-16 0)
(3 -3.49107e-16 0)
(3 -5.12855e-16 0)
(3 -6.5435e-16 0)
(3 -5.14753e-16 0)
(3 -4.00969e-16 0)
(3 -3.30569e-16 0)
(3 -5.45066e-16 0)
(3 -6.80459e-16 0)
(3 -6.76161e-16 0)
(3 -2.95197e-16 0)
(3 9.49115e-17 0)
(3 1.3347e-16 0)
(3 -1.18357e-16 0)
(3 -3.03631e-16 0)
(3 -5.62369e-16 0)
(3 -6.08963e-16 0)
(3 -6.39748e-16 0)
(3 -9.60022e-16 0)
(3 -2.86752e-16 0)
(3 2.7109e-16 0)
(3 6.14607e-16 0)
(3 6.76662e-16 0)
(3 7.11147e-16 0)
(3 7.68539e-16 0)
(3 4.36653e-16 0)
(3 1.79378e-16 0)
(3 3.91718e-16 0)
(3 3.4301e-16 0)
(3 5.07133e-16 0)
(3 4.68538e-16 0)
(3 7.89381e-16 0)
(3 1.38589e-15 0)
(3 1.77985e-15 0)
(3 1.08248e-15 0)
(3 2.59341e-16 0)
(3 4.34915e-17 0)
(3 -1.59848e-15 0)
(3 -2.01601e-15 0)