/*--------------------------------*- C++ -*----------------------------------*\
  =========                 |
  \\      /  F ield         | OpenFOAM: The Open Source CFD Toolbox
   \\    /   O peration     | Website:  https://openfoam.org
    \\  /    A nd           | Version:  7
     \\/     M anipulation  |
\*---------------------------------------------------------------------------*/
FoamFile
{
    version     2.0;
    format      ascii;
    class       volScalarField;
    location    "1.33";
    object      T;
}
// * * * * * * * * * * * * * * * * * * * * * * * * * * * * * * * * * * * * * //

dimensions      [0 2 -2 0 0 0 0];

internalField   nonuniform List<scalar> 
12359
(
-8.51269e-74
-4.80216e-61
9.88455e-197
-5.26683e-40
-8.81093e-69
-8.66139e-27
5.62057e-22
-3.21658e-24
8.9889e-17
7.63579e-30
4.64915e-19
-1.16539e-12
0.234272
-8.49097e-37
-2.10112e-42
1.65723e-05
0.00255228
6.57891e-109
-4.72628e-112
-1.14737e-50
-2.10236e-34
1.40295e-14
-1.28615e-55
1.55401e-47
-1.10405e-58
-1.19998e-52
-6.28219e-143
4.14084e-146
8.84582e-117
-4.43817e-135
-4.35166e-130
-2.4796e-159
9.52608e-176
-1.45297e-138
-6.22517e-187
-9.03808e-128
-5.29922e-89
-2.89692e-76
-2.83213e-71
-6.9001e-82
-2.14588e-63
-7.08641e-79
-4.75747e-96
-6.64274e-99
-4.04735e-122
-5.01996e-120
1.1571e-124
2.14702e-132
-2.86762e-114
2.63833e-140
1.97858e-148
7.07271e-154
5.85439e-162
-1.42428e-106
-2.23904e-167
-1.39946e-172
4.14212e-101
1.95108e-178
-1.08271e-180
1.46874e-183
8.11781e-170
1.86693e-191
-6.39296e-151
8.83174
-4.39315e-104
2.11417e-32
-1.27283e-91
3.37829e-157
2.04703e-86
5.15283e-08
100.378
-3.30413e-66
2.34915e-199
2.61531e-84
3.47673e-45
-4.52121e-189
-5.09666e-165
-6.24337e-194
1.03012e-93
-7.05259e-11
-1.78245e-26
-2.29323e-108
7.73808e-235
-6.67512e-71
0.00202929
2.67852e-63
-7.52856e-107
-6.89982e-151
1.19093
0.000663448
-2.94676e-208
3.51117
-9.0183e-210
9.37039e-91
-4.15087e-74
3.07838e-41
3.78462e-95
3.2419e-91
3.00475e-46
2.82295e-58
5.80229e-22
-4.85953e-208
7.7342e-64
31.2442
-2.39801e-114
3.06816e-25
-1.33243e-198
0.00263347
2.32735e-71
3.27022e-26
2.82568e-97
-3.46891e-108
-2.96345e-30
2.73434e-25
-8.4652e-75
-1.43334e-134
2.05416e-24
-2.31204e-107
4.04673
-5.60069e-232
6.73243e-98
5.74355e-22
-3.69554e-150
4.48052e-29
-1.43076e-106
-7.56594e-126
5.88195e-16
-1.99181e-70
2.1078e-195
-2.45201e-107
-1.05596e-134
5.77564e-05
0.00144762
0.00108581
-1.68431e-199
6.63739e-30
-1.11168e-133
6.30574e-31
-1.23305e-204
8.78638e-17
-7.49719e-223
-5.05731e-70
9.74627e-33
4.68565e-199
7.94838e-17
9.25033e-27
-3.20218e-234
0.000841884
-9.41483e-114
8.16032e-26
2.63335e-38
-2.00374e-207
3.17323e-32
-3.61618e-148
6.70194e-214
117.677
1.18622e-22
5.96787e-05
1.03677e-95
-3.86249e-156
8.44925e-32
-1.0271e-154
1.46303e-28
1.86581e-31
-1.20363e-220
-3.75939e-127
1.91107e-32
1.08458e-22
3.67469e-33
1.05926
2.39031e-192
-1.90224e-190
1.0435e-33
-1.55318e-57
-1.00437e-115
3.56968e-17
1.16583e-117
3.74177e-119
-4.63242e-30
4.68434e-18
-2.30429e-36
4.03202e-212
2.37015e-194
-1.24294e-107
2.1305e-47
2.00035e-15
-6.41566e-92
-2.05062e-77
6.06164e-38
7.21936e-90
-4.0679e-76
2.18923e-42
2.42664e-44
2.18139e-148
1.55257e-25
43.0417
2.71417e-54
-1.14187e-90
2.32965e-32
-1.51649e-106
1.2945e-25
3.18959e-38
-8.48831e-59
3.10992e-26
1.45727e-19
-2.25001e-211
1.24798e-18
3.48853e-58
2.16309e-24
-4.40402e-97
1.3609e-217
1.34977e-11
1.88387e-11
155.808
5.67155e-15
1.2551e-201
-9.61774e-91
-6.74794e-76
-1.75504e-90
-3.53667e-70
1.18269e-25
-2.23623e-98
8.59584e-30
3.24188
-2.0729e-107
3.89039e-217
-5.37312e-69
1.46614e-72
1.58661e-18
-8.00034e-89
-4.05563e-88
-2.21903e-222
4.01429e-17
2.04608e-53
-1.45549e-77
1.61168e-54
-3.20546e-230
1.65227e-30
-2.37745e-76
9.84766e-05
-5.41517e-213
1.82351e-60
5.88599e-85
6.88168e-10
3.93033e-30
0.00124325
-1.56338e-181
4.15418e-25
4.26698e-121
1.25817e-44
2.53225e-16
-3.91265e-77
1.60413e-122
-2.342e-88
1.35355
126.811
-3.78565e-230
1.17459e-101
1.40965
198.696
1.79752e-57
1.51829e-30
2.77176e-20
5.53812e-26
-6.59043e-59
59.6382
4.09126
7.19597e-29
4.01246e-103
3.49535e-30
3.92401e-33
2.62884e-47
1.49713e-32
-1.15272e-89
-6.06208e-100
-7.43992e-215
-3.19058e-101
9.76742
1.25327e-28
-5.57794e-183
4.49417e-206
1.15502e-25
-2.84929e-100
2.19205e-92
1.2014e-61
3.6911e-226
1.89501e-20
-7.09894e-207
-2.07866e-207
-1.20285e-160
2.86948e-29
-6.5806e-110
52.9861
-2.09419e-200
-4.6878e-198
4.74022e-63
-2.66915e-121
1.71916e-26
-3.45651e-79
2.17884e-151
-7.33453e-208
8.86396
1.75488e-19
-5.94598e-209
-4.32064e-90
-1.83193e-80
-2.06371e-119
-5.30332e-133
-8.97717e-136
-1.12009e-117
-9.32062e-109
-9.19621e-16
-1.02851e-119
1.17714e-131
-6.71815e-76
4.049e-31
2.04079
-1.12838e-117
8.7819e-50
7.68498e-06
2.30031e-206
1.01432e-39
2.87265e-182
1.36227e-53
-2.20635e-198
-2.89458e-116
1.43978e-15
7.15692e-37
4.82415e-16
-3.89091e-95
-1.68928e-84
3.11588e-44
6.7485e-40
-2.8083e-83
1.96456e-44
1.09828e-44
-2.17394e-166
-1.21823e-163
-7.85101e-164
-1.69245e-163
-1.23718e-162
0.000395368
-1.73669e-226
1.43483e-24
1.80969e-29
1.71697e-49
7.99747e-31
2.22516e-36
1.72804e-63
1.73488e-55
2.37661e-36
3.37737e-56
1.12811e-49
9.44728e-29
4.06158e-28
1.35364e-29
-5.01172e-69
3.49808e-14
-2.54719e-71
-2.95111e-72
7.05773e-33
1.09312e-19
-6.97899e-111
-1.02341e-166
7.40339e-54
-1.7294e-167
-2.40527e-108
172.814
22.9175
-5.86847e-109
-3.86647e-203
-2.98791e-202
-1.22546e-211
7.9246e-37
3.63622e-213
1.12264e-212
1.45488
9.3001e-32
0.000510309
-7.07898e-112
4.60244e-27
-1.03783e-101
1.96181e-83
2.63211e-25
1.69936e-54
-1.10409e-37
1.00315e-55
-2.30338e-111
-1.46974e-182
5.10025e-32
6.68888e-27
9.09964e-110
3.25492e-11
1.67518e-25
5.43551e-41
1.34281e-39
1.2024e-33
5.05919e-202
9.55542
2.04899e-13
-8.68716e-111
2.26446e-10
-1.54232e-73
-2.47061e-221
-3.71657e-222
-4.04009e-213
0.000950495
1.51466e-20
4.30935e-48
2.83217e-40
9.38632e-39
-7.74417e-73
-8.11178e-37
8.29247e-41
2.5327e-08
1.98595
1.2214e-10
4.85393e-49
1.51826e-30
4.98845e-70
1.9041e-26
2.72925e-59
1.28755e-52
4.90991e-138
1.45981e-60
1.62489e-34
-9.45357e-212
188.592
-1.13519e-89
2.25427
1.72502e-27
-3.75704e-99
1.56897e-28
1.08857
9.55758e-35
2.18648e-54
5.19758e-41
1.57726e-26
1.13252e-25
-2.34409e-104
-5.22277e-217
3.78327e-23
-1.12954e-195
2.43146e-05
-1.16691e-133
-3.25843e-52
1.01788e-33
1.52244e-84
0.0107313
8.28906e-24
-9.83921e-61
1.86975e-105
6.8668e-05
-2.80444e-171
-5.77971e-115
2.50267e-14
-5.20554e-202
2.02996e-105
-7.00529e-116
1.30253e-07
18.9936
-4.06367e-72
-8.5742e-156
-1.20565e-31
1.86642e-34
8.94796e-40
4.48282e-31
7.0854e-33
-2.82501e-165
-4.52418e-213
7.08275e-38
-1.49728e-206
9.97585e-35
2.72771e-40
7.20724e-27
8.39416e-121
3.59737e-24
7.04283e-13
3.52383e-136
1.22596e-72
1.41069e-107
-2.56714e-28
4.62163e-14
3.75349e-203
1.22566e-36
6.54393e-34
2.29197e-72
1.54549e-35
-4.65007e-132
9.82107e-21
4.34384e-55
1.08899e-28
3.71233e-27
-8.08864e-164
-2.30016e-73
1.25709e-09
0.00466994
-5.97986e-208
6.03563e-52
5.28413e-10
4.99845e-36
0.803807
-4.40575e-213
-1.25438e-135
-1.05799e-169
5.34725e-31
2.98631e-57
1.35322e-67
-1.08521e-130
1.3124e-38
6.80789e-51
-1.44323e-57
2.95817e-92
0.000336736
-1.25895e-191
0.000764364
-1.26127e-152
150.288
4.48167e-54
2.51814e-10
-3.1498e-180
3.86654e-122
3.98184e-30
-4.03618e-109
9.08042e-153
-6.29781e-96
1.26332e-55
6.59121e-56
6.09291e-12
2.67247e-22
2.432e-22
5.54859e-235
-7.14579e-109
1.46533e-38
0.00658875
2.86954e-234
1.28858e-187
2.46124e-33
-1.46331e-167
4.00914e-16
1.32043
114.075
6.39412e-233
-6.63003e-72
1.54243e-15
-9.25638e-66
-2.89414e-116
87.1247
1.72388e-189
3.38376e-23
1.21718e-32
5.63506e-73
-1.60915e-118
8.19545e-150
6.69631e-86
8.13949e-30
1.72726e-56
1.72756e-71
3.31341e-231
1.42916e-193
1.0883e-59
-2.38321e-116
1.03253e-26
4.18839e-31
-3.17848e-159
-1.45526e-184
3.06748e-28
180.276
-5.38174e-132
1.5761e-08
-2.10928e-202
9.86015e-71
2.60306e-23
2.44599e-35
6.04461e-17
1.32422e-27
7.7013e-57
7.6886e-27
-2.75791e-218
1.69915e-186
1.89424e-38
1.47755e-63
-9.73658e-58
6.05052e-65
4.23654e-213
-1.55149e-183
-1.7968e-125
1.29277e-44
1.84163e-23
-3.52238e-32
-2.89745e-89
-1.37538e-30
4.27565e-33
3.64863e-53
-1.17101e-29
3.06902e-53
2.88706
2.04513e-31
1.153e-51
8.47846e-28
2.57284e-187
2.16811e-22
9.06319e-30
2.15346e-235
-2.81132e-205
-7.26647e-167
1.32766e-176
6.89197e-07
1.21795e-52
3.7036e-78
-1.87503e-31
-2.49907e-95
1.86203e-15
1.28796e-36
1.38223e-29
-1.36111e-124
2.00622e-10
-3.60903e-213
-2.73173e-45
9.46004e-106
1.08395e-18
-4.72563e-29
4.48961e-61
4.13107e-52
9.3216
5.59985e-34
2.85026e-13
4.56784e-60
2.10557e-11
0.631478
-1.31022e-158
-3.53294e-111
1.35761e-214
3.33375e-08
-1.6591e-111
2.17996e-56
0.00894537
6.23811e-188
-2.6287e-57
1.51749e-30
3.76632e-57
5.39598e-129
4.20942e-62
-2.52132e-155
-3.5461e-62
-3.01284e-158
-2.88292e-154
-8.16499e-67
2.98506e-29
2.332e-32
6.65975e-56
3.53589e-08
4.7841e-36
15.6503
1.0108e-33
4.6691e-62
-2.48992e-64
2.8575e-35
2.61602e-48
1.55828e-42
0.568281
-3.17371e-34
1.52029e-50
3.40544e-48
-1.71503e-107
-1.37498e-117
1.16539e-28
-1.48052e-215
28.6546
-2.5243e-162
-2.48103e-33
1.28896e-21
5.31589e-07
6.91583e-18
7.00627e-27
1.23722e-31
7.76554e-61
3.96866e-18
3.7206e-40
3.71314e-13
1.11586e-47
4.13792e-13
8.69186e-49
7.0535e-227
6.71455e-50
179.576
5.3454e-13
-1.24355e-85
-1.88802e-219
3.38062e-157
2.08106e-80
-4.04389e-52
5.7789e-33
4.89175e-51
-2.90664e-166
-1.86325e-84
7.76513e-48
-8.46895e-88
1.32213e-92
3.09009e-12
-3.8251e-99
2.09857e-41
1.15026e-23
1.64058e-85
-1.1114e-77
2.9235e-27
2.24922e-236
-7.96638e-83
53.1482
3.50273e-185
7.45136e-16
3.18156e-22
2.60972e-79
1.23604e-31
7.75485e-24
1.17856e-49
3.59651e-25
2.30148e-112
-1.05784e-31
-2.83216e-116
7.6473e-46
6.75522e-26
-1.56365e-30
2.81116e-112
2.37544e-26
8.6677e-06
1.63155e-42
1.1172e-61
-3.95596e-105
7.58281e-22
7.54659e-07
-3.94836e-110
-1.43325e-203
8.47048e-50
-2.32184e-210
0.755705
3.18291e-48
4.22553e-12
1.67937e-59
3.57686e-52
14.7802
3.86872e-58
0.00190292
4.62054e-34
109.409
4.98849e-38
-1.05155e-71
2.11451e-59
1.28618e-73
0.00465803
0.000453567
-4.19882e-156
-5.09156e-154
-1.5061e-28
1.50805e-144
0.00385024
1.02012e-26
4.78437e-10
-3.75144e-105
125.198
0.102532
1.18551e-47
2.01663e-226
2.06991e-116
-2.59385e-36
6.40811e-79
8.29674e-88
5.71608e-76
4.19991e-34
2.8659e-41
60.2845
3.16382e-07
-9.98549e-168
8.05611e-36
1.61865e-23
-1.54688e-27
4.14381e-65
3.18681e-22
5.77756e-28
-2.37426e-35
-3.15607e-125
-5.05766e-224
1.24384e-19
9.6281e-17
8.79605e-53
-2.01491e-29
7.06346e-13
3.26648e-63
1.27367e-50
2.23623e-104
1.03068e-69
1.99636e-14
3.24709e-68
7.96227e-24
9.00081e-38
3.67846e-43
1.44197e-84
1.74689e-71
3.34711e-06
2.70105e-61
3.49485e-65
63.4422
1.56645e-45
8.19207e-65
0.0104015
6.25375e-230
5.03303e-60
2.74487e-55
-4.57023e-79
-3.38705e-128
6.25666e-52
5.11634e-237
1.64708e-09
-2.6632e-110
-2.53143e-56
2.13856e-20
1.64717e-31
7.56032e-56
2.95953e-58
1.3242e-20
95.5868
9.8301e-187
-7.56418e-98
1.04221e-63
0.00892451
6.24556e-17
1.01438e-113
3.77525
-1.69805e-223
-3.27922e-112
187.866
-8.54911e-87
6.17361e-111
3.17018e-108
6.48116e-39
-1.88255e-38
-9.09658e-183
-1.12332e-80
3.00169e-24
1.36512e-55
1.97e-59
1.20662e-76
-1.16879e-157
-2.03277e-37
3.20659e-06
-4.4424e-63
-1.78243e-30
1.15109e-34
8.84607e-44
2.52543e-10
2.84833e-24
1.69279e-75
-7.87526e-111
0.000550869
1.21973e-28
1.28761e-44
8.05109e-104
3.22675e-175
3.3184e-35
1.33339e-10
3.73843e-63
1.11397e-27
7.31561e-62
5.46614e-75
-5.48206e-93
3.99365e-38
152.668
18.9222
6.86651e-37
8.43684e-61
-1.40974e-94
4.73746e-39
0.0124843
-7.78796e-33
5.31008e-115
4.82889e-11
1.04188e-07
9.41046
1.69958e-77
92.289
1.89614e-181
1.09023e-73
-2.15342e-177
8.85516e-11
1.63132e-43
86.0158
-2.37865e-116
0.022309
1.39484e-143
-3.95856e-61
1.41274e-26
1.43341e-80
9.14287e-12
0.170481
-2.43021e-85
8.77757e-84
3.18495e-59
2.06172e-78
-1.21506e-86
1.39322e-13
8.77359e-46
9.86811e-58
2.79663e-15
-9.2533e-87
2.36973e-170
1.29187e-64
6.48336e-156
2.92625e-26
1.0125e-58
5.58557e-09
9.03485e-11
-1.26921e-40
3.00509e-31
1.06278e-34
1.99611e-60
0.0141347
4.07469e-65
-1.34025e-90
3.99035e-213
6.68314e-11
-5.48848e-34
-1.69307e-117
3.59458e-25
-6.9475e-77
1.97927e-31
-3.48917e-36
-9.02139e-32
9.51249e-36
89.3677
2.54783e-34
-1.4087e-39
0.183443
2.20734e-80
2.82977e-07
9.2642e-23
1.06716e-147
8.37975e-64
3.5637e-91
8.07406e-64
-1.03741e-219
-9.42551e-107
3.78012e-07
5.60297e-11
-2.04586e-107
210.501
2.51581e-28
1.04466e-155
1.08409e-11
4.76829e-12
-1.88122e-157
1.39352e-10
3.09691e-21
5.11435e-11
-6.52202e-154
1.76614e-120
1.15383e-93
-8.06557e-157
-9.58451e-36
31.6804
-7.45654e-120
8.15179e-12
1.40624e-233
2.89689
1.70348e-25
3.08704e-32
-7.09611e-191
-2.47258e-121
8.92968e-73
3.52128e-37
5.20609e-15
4.31547e-32
-4.33576e-88
1.06344e-83
-7.52206e-153
1.23797e-26
5.91238e-37
7.46214e-91
-1.35749e-202
3.0757e-50
2.64911e-32
2.22665e-42
-7.01145e-125
1.02411e-06
1.10158e-27
3.12158e-144
6.36672e-42
2.00138e-83
1.72643e-66
197.975
-4.5901e-88
-1.96421e-153
1.10707e-33
-4.91276e-35
-7.74642e-43
3.14161
-2.20905e-58
3.33169e-67
4.8246e-31
-3.38819e-79
1.28411e-74
7.14699e-66
-1.26413e-78
-9.43458e-29
-2.02121e-70
15.6316
-9.47686e-42
7.06195e-10
5.77103e-73
0.0275858
1.94655e-30
1.33164e-08
2.43829e-13
7.81418e-29
3.43599e-65
3.96723e-71
7.15141e-53
5.53119e-232
5.16519e-69
9.68035e-35
2.49429e-11
-1.92658e-79
2.01846e-145
1.78027e-30
2.37086e-32
7.88271e-16
5.69598e-38
3.41573e-11
1.15499e-15
1.70516e-102
4.16969e-48
0.996773
7.24308e-36
-1.58218e-222
2.13603e-78
2.06536e-82
-1.16899e-225
3.03239e-49
5.00702e-183
1.09774e-67
1.85309e-14
1.40676e-32
4.19979e-06
-3.93954e-179
-8.94273e-122
-3.81402e-209
-1.5994e-80
-8.75503e-96
1.19225e-08
-1.16534e-95
-8.87492e-123
6.70701e-07
2.86202e-33
1.14712e-39
1.78678e-50
5.7004e-17
6.79592e-86
5.91268e-12
8.26994e-72
9.29495e-172
0.00245032
2.17344e-36
5.40801e-20
1.70704e-91
57.7724
-2.10178e-38
6.23039e-42
2.62157e-28
1.01655e-28
58.3086
1.95178e-69
1.70007e-11
-1.13262e-46
3.19906e-43
8.6678e-135
8.4912e-58
1.93322e-07
5.09721e-73
9.85653e-09
-1.53227e-85
-2.49498e-89
1.29926e-12
-5.82625e-137
-3.06138e-115
4.2529e-68
3.88671e-35
5.57181e-11
-1.13867e-86
7.98665e-82
-1.55615e-205
1.04676e-45
0.00286775
1.15171e-38
-1.3421e-81
4.30546e-58
2.53796e-86
5.46429e-118
14.8616
-4.50734e-45
2.72136e-204
6.40815e-47
8.09024e-88
-2.99203e-37
-2.50763e-27
2.82202e-36
-4.69061e-81
3.78681e-14
7.17794e-11
1.16687e-195
2.77657e-55
2.97047e-11
-5.45757e-118
-2.27013e-178
-2.08059e-60
6.74219e-46
1.20338e-74
-8.0626e-177
3.60913e-47
3.18174e-12
2.16472e-157
2.93392e-22
-2.64919e-184
2.70082e-90
6.22995e-53
5.27026e-05
-8.55241e-213
2.10745
-5.637e-44
1.0628e-20
42.626
-1.18408e-40
6.53991e-52
0.0362033
-2.43035e-80
1.77338e-05
2.7608e-18
2.48428e-60
3.43047e-70
1.57394e-71
-6.70795e-91
-1.60889e-94
1.55905e-19
0.033703
199.325
9.81367e-23
-5.81933e-28
0.0662638
6.77065e-25
17.551
-1.0734e-132
-1.25757e-89
2.36786e-18
2.46289e-39
1.68138e-108
1.49981e-22
1.00859e-71
55.299
6.38599e-222
-5.73287e-124
-2.16803e-126
208.796
-4.21725e-35
7.62272e-43
-4.7356e-72
1.05523e-18
4.86621e-74
-4.31156e-123
4.51004e-07
2.27283e-70
4.31847e-07
1.07394e-19
5.71482e-60
8.28783e-14
8.85261e-38
-5.61043e-89
4.96797e-119
1.53139e-116
0.241381
3.79416e-13
3.69149e-94
1.83366e-17
1.35649e-39
1.44575e-23
-3.20813e-212
5.15887e-42
2.76719e-07
2.20415e-08
-1.69183e-39
2.76788e-65
-2.29574e-120
8.62199e-15
-3.44141e-77
-5.70609e-124
6.50357e-10
4.26961e-16
-1.40154e-99
5.90379e-29
2.88131e-34
-7.52395e-210
1.34654e-109
-2.3401e-175
-8.28837e-39
89.6445
3.09597e-11
1.48262e-18
-1.22129e-103
2.31926e-76
8.96989e-36
-1.50059e-207
4.04316e-09
2.31124e-38
105.193
-9.56885e-27
2.56571e-64
3.28282e-100
-5.8486e-132
6.48188e-70
-3.70692e-78
8.82396e-107
15.2882
1.58867e-14
6.04229e-34
1.65726e-16
-4.56898e-41
-5.95348e-117
8.2935e-232
6.67431e-107
3.12965e-25
1.02973
-1.85351e-21
2.28058e-41
-3.2451e-46
-1.57398e-71
5.45312e-15
0.0429731
0.025842
6.86534e-79
-4.54856e-65
1.07808e-26
-1.16503e-87
-1.60371e-168
-7.8696e-108
2.26286e-13
-5.6949e-97
1.08169e-53
-2.33738e-85
3.35027e-39
5.32899e-08
-4.98838e-90
-1.15319e-107
4.71032e-10
1.08473e-13
1.35567e-90
6.03145e-134
-2.42924e-47
0.00391942
1.31302e-24
1.73345e-21
-1.22172e-49
2.28015e-50
0.0900221
5.76041e-75
-1.54078e-21
1.66786e-117
2.24922e-12
2.37247e-11
-7.9282e-156
-7.63305e-129
87.0751
3.77412e-110
5.28053e-69
3.33975e-26
-3.69111e-100
-3.15311e-98
-1.7496e-86
1.39365e-111
-1.20029e-208
1.58236e-14
2.0848e-05
-3.35484e-129
0.0182038
4.49935e-74
-9.65273e-112
2.02516e-12
5.33661e-09
1.00012e-25
3.88803e-78
-9.31587e-107
-6.23064e-43
154.628
-8.28581e-97
-7.98975e-130
-7.61478e-137
8.28408e-97
1.95909e-56
1.11119e-26
-1.70846e-99
-1.28438e-74
3.2474e-119
8.03343
1.1525e-08
1.88382e-34
-1.31374e-37
1.03307e-72
-8.80477e-112
1.2062e-14
1.53988
5.53671e-69
-4.94435e-136
-3.55519e-113
2.20835e-13
-1.21912e-99
5.77237e-119
1.08762e-07
6.18648e-78
-1.42629e-106
116.162
4.44394e-05
19.2773
3.43414e-14
-3.59177e-99
7.19351e-11
2.65575e-10
0.196112
1.30613e-88
1.87766e-25
-5.39966e-210
0.126248
2.43379e-226
6.85929e-90
1.38126e-72
-1.79265e-135
1.43824e-37
2.40722e-89
-8.92854e-98
7.53041e-90
7.98508
6.12999e-14
1.40899e-32
-1.52375e-106
1.04964e-27
24.1287
1.47979e-08
1.65368e-41
-1.66492e-48
2.62239e-90
-1.36752e-79
-1.18704e-129
-2.9185e-101
-9.16117e-128
-5.36651e-109
-9.24201e-42
1.22345e-14
9.06987e-16
0.363809
0.000123535
1.95093e-08
3.56619e-23
0.134877
1.24539e-120
4.91915e-05
-1.87773e-113
0.001793
7.69941e-09
8.65809e-33
2.77364e-98
1.73487e-32
3.43149e-21
1.248e-57
109.45
2.39215e-12
0.426258
-2.21015e-110
1.63401e-09
3.97236e-07
1.2989e-09
1.87407e-07
1.45599e-10
-1.32035e-106
-2.66499e-90
1.6401e-34
-2.30384e-102
3.16067e-27
9.575e-93
8.05509e-36
-2.07061e-157
-4.18299e-84
1.21309e-18
3.39163e-25
-6.30055e-125
-3.05424e-45
1.07331
86.6132
-5.28753e-136
-4.65071e-48
2.80969e-66
1.49979e-10
6.81561e-28
5.21397
5.41448e-05
1.01559e-90
4.20041e-36
2.99791e-07
-1.12756e-23
6.93673e-06
1.23921e-51
1.26193e-11
-5.85109e-125
0.225724
3.92075e-08
-1.17651e-132
1.77668e-07
0.22887
6.89319e-44
4.64946
1.94868e-76
9.93611e-09
2.80607e-73
-4.41567e-140
2.96426e-69
1.01218e-72
0.0978419
0.00229447
0.046508
-1.16211e-124
7.97493
1.52669e-33
1.80375e-12
-1.21214e-30
1.0856e-37
2.66183e-45
0.023079
4.67967e-75
8.4436e-84
1.58116e-17
5.18016e-09
1.17482e-26
3.22349e-17
-2.43179e-54
0.0579214
1.60433e-28
2.55144e-27
2.9108e-09
5.49395e-165
1.00139e-07
4.29185e-09
5.76579e-08
6.0894e-71
0.00119163
-3.06749e-131
8.50907e-28
1.68226e-35
0.000112332
1.54516e-67
1.65286e-18
2.09106e-08
88.225
-1.41604e-100
1.10666e-29
-1.81629e-45
2.38893e-07
2.9208e-17
5.94701e-89
5.08641e-35
-2.38948e-133
12.0682
1.60955e-211
-7.52656e-133
-7.63981e-174
1.54866e-06
-1.46953e-105
4.44873e-35
11.3083
4.52088e-47
2.80286e-55
-8.01237e-101
-2.18596e-166
1.35064e-09
-9.98358e-134
-6.91789e-40
7.33958e-12
-4.57044e-44
3.58726e-06
-1.60045e-84
7.51087e-34
1.9266e-07
1.47102e-17
9.18029e-63
96.6017
1.58939e-214
-8.18968e-162
-7.845e-80
232.617
6.87998e-72
1.27027e-63
1.03494e-07
-1.79507e-98
-1.08375e-82
8.64077e-13
1.21246e-05
2.7269e-29
0.01088
-1.24149e-98
2.61971e-79
2.82827e-36
1.73423e-41
0.000123395
-7.53872e-115
1.22846e-59
-5.72556e-52
3.13003e-17
2.73476e-54
-2.80835e-126
5.2976e-37
-1.14941e-18
-3.16561e-194
1.39249e-184
5.37565e-05
6.64233e-29
0.000101984
1.59034e-80
1.22183e-221
-1.68925e-17
1.9876e-06
-1.51574e-116
-1.81874e-95
-2.86078e-131
16.6196
-1.33534e-191
2.555e-30
9.81841e-05
7.00326e-182
-7.07698e-165
1.08919e-17
-8.61602e-143
3.16125e-185
7.96258e-35
5.43186e-13
1.54821e-128
1.02857e-20
-4.3882e-137
1.36523e-07
1.7735e-223
1.60758e-07
7.49478e-13
1.02987e-18
7.72505e-181
2.48225e-14
5.64583
5.76848e-89
2.06548e-46
1.11418e-143
2.82738e-13
-1.29884e-136
1.18215e-06
5.37591e-09
9.47236e-77
-1.11612e-172
2.16035e-13
1.17043e-13
3.81952e-40
1.61529e-37
4.16025e-16
-2.32484e-141
8.59409e-15
-2.44029e-174
2.17167e-05
1.68475e-08
3.21297e-08
3.28993e-18
-1.3447e-22
13.2537
4.58492e-18
3.30607e-36
2.80172e-14
-3.83363e-93
2.35935e-11
5.12503e-16
-4.21026e-42
3.4245e-69
0.111263
6.17711e-187
0.0529773
110.264
1.23725e-101
4.73209e-08
107.416
2.94944e-33
8.50254e-34
1.42037e-15
-8.25801e-51
-1.57499e-131
9.68797e-08
0.0157539
0.854427
-6.92866e-92
2.98678e-13
0.000560265
5.13911e-14
-3.10039e-108
-7.15489e-159
1.92727e-26
0.0258379
1.01761e-08
5.33387e-16
-1.83936e-214
-1.17533e-138
3.17378e-14
-4.18383e-98
8.61423e-39
-3.54791e-94
-1.70985e-169
3.27559e-07
2.86576e-75
0.000255693
1.51302e-39
-1.49648e-151
-7.71211e-159
7.36484e-15
-4.18418e-93
1.69909e-32
9.69943e-16
1.02612
-1.39966e-47
-4.56453e-126
3.10096e-06
-2.12369e-91
-1.36383e-134
6.27433e-59
1.54961e-13
-1.84762e-87
1.10206e-13
1.8507e-40
222.997
2.12185e-14
2.12537e-118
0.000123599
-1.03557e-172
7.85737e-09
5.96749e-34
9.06127e-06
0.00556472
-2.91144e-43
0.000191276
-4.65844e-150
1.73639e-08
-9.97906e-114
1.41363e-49
4.67742e-05
1.04701e-25
1.70593e-05
0.0196977
-1.83828e-19
1.96445e-07
2.85188e-06
3.70116e-124
-2.23163e-136
-2.57442e-171
0.000246516
-3.07892e-24
6.20654e-122
2.37639e-07
2.64435e-05
6.54745e-33
2.50043e-12
1.12806e-47
-7.36555e-33
0.0039043
8.91093e-67
4.13552e-26
8.62086e-31
-2.58641e-209
-8.95281e-209
-3.30266e-123
-8.23557e-92
3.79348e-38
-7.13762e-153
2.50304e-78
-3.85258e-101
-3.44507e-59
1.42834e-14
1.48987e-107
1.83646e-06
5.91324e-225
3.5119e-11
4.87845e-06
-1.25331e-117
6.039e-05
5.8681e-12
8.85778e-06
1.40079e-53
2.35763e-16
-4.70117e-100
3.02524e-34
3.91358e-43
-2.5077e-160
1.18871e-115
1.2072e-84
-3.09416e-116
-7.79783e-179
-8.71275e-52
-1.52076e-180
-5.82905e-30
1.44909e-21
0.0762347
-2.4193e-154
3.62441e-58
-2.19674e-151
4.63714e-97
4.15157e-21
3.00725e-60
1.43598e-119
119.336
3.50962e-14
3.44943e-29
1.29281e-56
8.79491e-15
4.69911e-23
2.97341e-55
4.33999e-17
3.09062e-13
-1.82937e-100
-3.69938e-176
-9.51368e-77
2.70202e-07
-7.62957e-136
-1.62776e-123
1.3666e-13
-1.56171e-102
-2.92421e-98
3.30919e-65
7.49128e-127
0.00139373
-7.80114e-153
-6.16135e-125
1.71637e-18
2.07426e-17
7.20808
4.44628e-13
-1.63506e-54
-5.2579e-119
6.10688e-16
-2.05655e-120
3.32501e-25
1.9327e-39
4.35269e-103
7.07401e-06
-3.90249e-189
8.0181e-21
-4.41807e-51
1.35051e-14
1.07736e-41
-1.37542e-182
-9.21854e-103
-6.52001e-224
1.30408e-23
-2.07371e-137
1.64262e-18
5.75682e-39
3.30059e-82
-3.68467e-53
2.56139e-35
-3.84464e-178
2.07392e-20
1.87085e-20
-7.83968e-93
1.91981e-18
1.65232e-07
-5.96596e-168
1.58807e-35
2.62435e-11
1.6528e-12
3.7126e-70
1.40761e-38
2.0926e-37
5.09559e-41
1.03043e-67
9.82377e-15
1.51496e-67
4.32015e-118
9.41529e-120
0.0854187
2.79331e-08
0.000114356
1.76756e-06
-5.99216e-34
6.18936e-20
3.27198e-39
4.55377e-18
-1.04158e-118
4.02648
-3.82443e-97
3.24755e-06
1.62232e-06
-8.42652e-122
-7.49413e-25
1.35434e-08
9.87567e-06
1.71641e-37
4.72442e-25
-4.08709e-120
3.09771e-194
1.05598e-14
-3.92186e-176
-6.40569e-156
6.0249e-17
3.17059e-98
-1.13552e-61
-1.68933e-125
1.71934e-77
1.17035e-14
10.7905
-4.51631e-91
-1.49223e-99
2.74427e-08
-1.15438e-36
6.73042e-11
1.59528e-23
3.30063e-25
1.54065e-99
2.03593e-35
5.25644e-15
1.20862e-16
-2.04946e-29
-3.91488e-149
2.0033e-05
3.17767e-29
7.12809e-19
2.91468e-77
1.2856e-123
2.57275e-16
-4.17456e-89
-1.18364e-169
8.55815e-22
2.20344e-08
-2.66623e-154
4.70043e-20
5.3852e-42
2.30217e-106
-5.80829e-70
-1.70477e-105
8.48083e-22
9.29248e-118
3.83425e-125
5.31657e-38
3.5073e-22
-2.23672e-38
-3.62458e-29
10.0248
-5.46722e-102
3.74255e-58
0.509724
8.54184e-31
-9.02663e-107
2.77289e-30
0.0190721
-2.56884e-160
-6.40107e-101
-4.51826e-171
1.32198e-24
2.31294e-14
2.69564e-41
-6.20861e-182
-2.56077e-73
4.20292e-58
2.62882e-84
2.30608e-09
-5.06033e-94
-1.55008e-179
-2.23061e-177
1.67114e-26
4.85735e-38
1.78012e-05
-2.95679e-76
-2.1522e-46
3.03724e-25
4.00534e-14
-3.76175e-135
1.93891e-23
-2.43079e-163
-6.66187e-156
-4.9839e-182
1.11082e-09
-1.50923e-101
4.0297e-23
6.02786e-20
5.68256e-25
3.14397e-15
4.77074e-26
2.51909e-13
3.35444e-25
-8.32331e-94
8.50391e-26
-3.96339e-46
2.53269e-32
6.3945e-21
-8.3151e-100
43.3477
1.04122e-16
8.45739e-19
-2.10503e-152
1.65954
9.40043e-15
2.06673e-16
-2.5279e-30
1.0452e-05
2.19299e-59
-2.95587e-98
6.99102e-79
4.79607e-81
2.83753e-76
1.41363e-17
2.70434e-21
-5.54666e-107
1.42227e-23
9.93367e-86
4.21514e-76
1.45216e-46
-2.64311e-44
1.34584e-62
-4.60436e-53
-7.29803e-43
3.10263e-21
3.56972e-25
1.09101e-43
-6.18934e-179
1.65313e-86
5.39032e-93
9.6456e-11
-3.79237e-135
-2.96298e-104
4.46982e-24
2.06377
4.3221e-117
2.9311e-05
-8.91599e-122
-1.20267e-89
5.52007e-35
1.65384e-27
7.74061e-32
-2.87402e-132
1.43502e-17
1.56877e-20
2.38885e-11
-2.16784e-154
4.24092e-22
1.4612e-38
3.93646e-46
-1.51296e-180
-4.28108e-214
1.52649e-26
7.17776e-38
2.23785e-54
57.5084
3.04792e-22
9.92862e-31
-1.42495e-24
1.34067e-38
4.41945e-11
-6.75238e-102
7.91357e-42
3.7156e-67
9.40225e-81
0.0135059
1.68788e-20
7.1084e-21
2.21996e-33
-8.31314e-130
1.66178e-16
5.28012e-16
0.000734357
8.7157e-77
1.0437e-30
0.000291017
9.44311e-05
-1.28491e-122
0.000127603
1.71184e-45
24.5563
-6.17297e-168
1.32157e-23
7.13153e-34
1.40895e-187
8.06717e-14
2.87495e-58
3.55184e-73
1.33571e-07
0.00190784
0.000182862
1.26935e-72
2.35957e-25
-4.32093e-167
6.77313e-93
5.44526e-06
1.28274e-29
9.73249e-69
4.56881e-17
8.93331e-22
2.52654e-26
2.72851e-36
2.06348e-34
4.15826e-20
0.00425528
-3.8021e-127
5.31048e-36
2.40361e-41
4.25618e-27
2.41223e-07
4.67937e-22
9.9226e-31
9.45266e-58
-4.87324e-171
9.42665e-26
2.24029e-29
1.08076e-19
-2.96464e-133
9.95039e-52
2.39975e-21
4.20427e-23
-1.02705e-23
3.68702e-19
1.80579e-64
5.68019e-28
-7.37916e-103
4.17475e-13
8.08745e-48
3.98471e-25
7.68169e-60
1.8141e-71
1.61613e-21
2.41313e-52
1.10059e-59
6.18396e-72
-4.19451e-130
2.41708e-25
6.53424e-48
3.52091e-49
28.7541
0.0121694
-1.45334e-101
4.86123e-70
2.27936e-34
2.56906e-37
-3.6769e-181
2.34316e-29
-4.94611e-35
2.1892e-29
-2.89985e-168
2.03779e-13
2.19444e-17
1.33677e-15
4.03611e-29
-2.12589e-153
-1.11158e-87
1.25614e-55
1.15181e-27
8.29779e-09
16.5008
-5.04521e-125
9.79778e-64
2.50653e-64
7.28052e-07
0.000652646
0.000423787
7.29257e-49
3.33638e-20
-9.98949e-167
1.27485e-35
-9.05156e-50
-1.22848e-123
1.31179e-21
4.11766e-36
1.42422e-32
5.27163e-19
-4.22882e-67
1.21272e-37
3.05724e-30
-2.75877e-155
4.2974e-234
3.1476e-40
-9.24741e-62
2.551e-08
5.8648e-42
-4.90318e-23
2.78265e-13
-1.71387e-39
-2.97031e-125
-1.0753e-55
6.72909e-18
-1.26035e-129
0.374517
0.0863339
-5.35588e-105
-2.51065e-163
1.71188e-92
-2.18506e-127
-2.51753e-189
-1.7832e-57
2.21624e-59
-1.65616e-31
8.99259e-36
3.2461e-29
-1.54669e-46
4.75225e-05
1.19011e-17
4.0494e-31
2.09605e-35
5.71488e-46
1.19004e-33
-1.95779e-154
-1.53071e-69
3.37246e-60
-3.8764e-31
-1.13909e-25
1.91335e-09
1.60566e-191
-1.99375e-26
6.05328e-35
7.6945e-45
3.0118e-22
5.15047e-39
3.9754e-24
0.00555669
6.54305e-35
5.20178e-18
9.6814e-45
2.93255e-78
5.07999e-38
1.11474e-33
-1.15955e-129
1.46159e-37
0.0380045
-1.02417e-72
0.000296535
-8.27399e-123
3.77051e-33
-1.25684e-83
1.26476e-65
1.57978e-29
-1.41562e-20
3.74063e-21
4.82965e-64
2.35566e-39
2.82196e-45
1.02723e-17
1.43523e-10
-5.46484e-44
4.85657e-08
2.83223e-188
1.53574e-36
8.27856
2.19309e-14
5.8351e-64
0.499936
1.10777e-18
5.86563e-61
-2.36871e-142
1.19793e-10
4.69886e-34
1.91551e-46
1.27886e-34
-6.94469e-147
6.4313e-19
1.01084e-71
1.32972e-13
3.35284e-35
2.94563e-30
-7.61082e-30
2.16481e-228
-9.4062e-95
1.48304e-39
5.59447e-77
2.06992e-79
4.23754e-54
3.5009e-71
1.41054e-56
-2.38179e-24
2.25671e-27
-8.60239e-177
5.19816e-15
1.5262e-93
-4.14941e-154
-4.18132e-27
2.90741e-118
1.4276e-44
8.7231e-46
-5.35966e-131
5.95598e-130
5.85441e-78
5.44591e-22
5.58759e-59
9.83529e-32
1.24076e-33
-3.87111e-26
1.47761e-24
5.24948e-47
3.24001e-40
2.61703e-37
-1.48486e-202
2.65212e-52
1.59992e-68
3.20934e-47
0.374071
2.58084e-24
-1.32035e-66
1.69353e-39
-6.7426e-60
3.89411e-60
1.23076e-65
4.23127e-60
7.23294e-60
-9.23118e-32
1.90428e-35
-1.49672e-155
3.88677e-23
-1.04417e-47
1.99914e-21
-1.20425e-144
-9.82315e-28
5.78649e-05
-4.70043e-90
-6.42866e-39
7.31772e-17
-1.02856e-109
5.72871e-26
3.84505e-13
1.50949e-36
1.97458e-36
6.0357e-14
5.00301e-40
-9.22377e-49
1.8947e-39
1.3036e-23
-1.8509e-114
1.9065e-65
4.19947e-195
1.52506e-93
-4.23299e-144
1.57506e-36
3.63811e-35
3.62336e-25
-1.15251e-40
17.7497
-2.50609e-20
38.9525
3.88206e-34
5.88652e-10
13.6417
5.86128e-16
24.5194
8.72128e-64
3.80602e-39
4.51376e-43
1.03564e-48
1.67008e-43
-2.44163e-92
1.27788e-43
-1.41843e-85
-4.22705e-146
-5.87621e-50
5.23756
2.84777e-38
2.36011e-20
3.66877e-41
4.24699e-79
1.00282e-35
7.35211e-35
9.02283e-106
1.21831e-40
2.05029e-73
4.1745e-24
-3.14057e-39
1.98866e-40
-3.55293e-41
0.865438
9.51451e-07
1.82791e-19
3.82635e-46
89.9022
9.07631e-40
2.03645e-51
1.0839e-27
-6.69796e-29
-2.14228e-56
3.75316e-16
-1.91007e-127
-3.78819e-36
-3.88651e-27
1.23145e-41
-1.28303e-42
3.89988e-71
1.45166e-36
-2.40908e-33
5.60257e-62
8.56003e-27
1.01801e-44
3.26339e-56
-3.89977e-124
2.55266e-49
1.05466e-36
8.02636e-76
6.63845e-45
6.02588e-56
-6.20153e-96
-8.40634e-33
4.574e-73
1.10629e-15
1.89636e-45
-1.87394e-61
-3.00205e-131
4.39817e-92
1.10931e-13
2.49164e-36
-3.81227e-194
7.40786e-44
9.93504
6.55587e-21
1.84228e-72
5.85474e-45
0.169646
0.983777
56.162
4.64505e-78
1.34996e-79
1.77477e-103
1.45327e-55
3.89219e-28
0.0112971
0.0902842
1.07824e-12
8.11771e-17
8.36055e-68
-1.05805e-139
-2.97093e-137
-5.19853e-27
-3.18065e-71
1.89031e-24
8.23014e-81
6.7065e-05
1.90029e-79
3.385e-40
3.82958e-12
-1.30377e-40
3.63142e-20
3.38217e-108
4.00688e-38
-5.1462e-152
2.23667e-17
4.17158e-17
7.19095e-61
-1.54922e-145
6.48379e-65
1.75173e-24
-1.34824e-94
-1.86677e-43
0.169903
-2.09967e-163
3.57945e-60
-3.1727e-37
-7.72087e-38
4.15914e-46
1.58037e-108
-4.1306e-96
-1.19436e-95
-2.86681e-185
-1.7275e-138
1.92934e-57
1.8482e-24
-5.18736e-153
5.42591e-70
-1.41076e-105
149.972
-6.89706e-28
-3.24506e-94
5.09852e-193
1.72324e-22
6.32743e-40
1.48485e-20
-1.06156e-44
4.72785e-40
-2.85862e-146
7.60701e-92
1.6523e-15
-1.9151e-207
4.74566e-40
6.01942e-28
-9.86068e-50
-2.1465e-133
4.66167e-35
-1.53708e-179
6.88462e-55
2.45016e-56
-3.56199e-93
1.23188e-07
9.88898e-52
1.30994e-59
1.80676e-57
1.04573e-37
-4.36245e-48
-8.89177e-157
1.20282e-190
2.81068e-72
1.99985e-27
7.43357e-37
5.10334e-59
5.62706e-57
3.12442e-16