/*--------------------------------*- C++ -*----------------------------------*\
  =========                 |
  \\      /  F ield         | OpenFOAM: The Open Source CFD Toolbox
   \\    /   O peration     | Website:  https://openfoam.org
    \\  /    A nd           | Version:  7
     \\/     M anipulation  |
\*---------------------------------------------------------------------------*/
FoamFile
{
    version     2.0;
    format      ascii;
    class       volScalarField;
    location    "19.5";
    object      p;
}
// * * * * * * * * * * * * * * * * * * * * * * * * * * * * * * * * * * * * * //

dimensions      [1 -1 -2 0 0 0 0];

internalField   nonuniform List<scalar> 
2413
(
1.21119
1.20368
1.19795
1.19347
1.18761
1.18123
1.17691
1.17259
1.22221
1.21491
1.20825
1.2032
1.19721
1.19026
1.18577
1.18195
1.23495
1.2268
1.21842
1.21251
1.20719
1.20091
1.19555
1.19135
1.24913
1.24082
1.23176
1.22321
1.21678
1.21052
1.20481
1.20062
1.26215
1.25506
1.24613
1.2362
1.22832
1.22204
1.21553
1.20962
1.26633
1.26426
1.25876
1.25069
1.24175
1.23485
1.22775
1.22065
1.26184
1.26619
1.26517
1.2612
1.2553
1.24877
1.2416
1.23236
1.24437
1.26226
1.26586
1.26643
1.26534
1.26212
1.25634
1.24751
1.19089
1.23385
1.24977
1.26067
1.26401
1.26569
1.26422
1.25959
1.10521
1.15953
1.21173
1.2477
1.25787
1.26348
1.26703
1.26625
1.03541
1.07424
1.12892
1.18675
1.22134
1.24798
1.26277
1.2664
1.00641
1.02028
1.04719
1.09664
1.15016
1.19916
1.23818
1.24968
1.00061
1.00289
1.00992
1.02883
1.06568
1.11098
1.16748
1.22044
1.00003
1.0002
1.00112
1.00462
1.01546
1.03954
1.07794
1.13763
1
1.00001
1.00006
1.00039
1.00185
1.00746
1.02123
1.05151
1
1
1
1.00002
1.00011
1.00069
1.00298
1.0104
1
1
1
1
1
1.00003
1.0002
1.00109
1
1
1
1
1
1
1.00001
1.00006
1
1
1
1
1
1
1
1
1.05947
1.05494
1.05197
1.04952
1.04568
1.04245
1.04027
1.03687
1.03281
1.03023
1.02729
1.02317
1.0208
1.01871
1.01523
1.01263
1.01072
1.00743
1.00408
1.00204
0.999244
0.995786
0.993899
0.991846
0.98845
0.986176
0.984321
0.981059
0.978071
0.97629
0.973718
0.970493
0.968768
0.966911
0.963676
0.961287
0.959558
0.956686
0.953555
0.95192
0.949985
0.946992
0.945145
0.943714
0.941194
0.938314
0.936646
0.934569
0.931297
0.929256
0.927655
0.924903
0.922047
0.92006
0.917209
0.913357
0.910613
0.907722
0.903534
0.900686
0.89872
0.895497
0.893118
0.892046
0.890301
0.888267
0.887032
0.886013
0.88514
0.884857
0.885001
0.886317
0.890743
0.902951
0.930879
0.970348
1.02868
1.10094
1.15295
1.19951
1.23533
1.24267
1.24356
1.24337
1.24144
1.23799
1.23307
1.22795
1.22281
1.21694
1.21315
1.20934
1.20438
1.19854
1.19206
1.16739
1.16237
1.15813
1.154
1.14914
1.14472
1.14061
1.13603
1.13172
1.12871
1.1249
1.12088
1.11716
1.11243
1.10802
1.1047
1.10069
1.09635
1.0932
1.08997
1.08595
1.08279
1.07965
1.07498
1.07089
1.06832
1.0646
1.06066
1.05828
1.05538
1.05137
1.04864
1.04594
1.04162
1.03824
1.03591
1.0323
1.02908
1.02727
1.02453
1.02111
1.01897
1.01642
1.01247
1.00993
1.00782
1.00439
1.00197
1.00032
0.997434
0.994391
0.992482
0.989878
0.986247
0.984227
0.982275
0.979016
0.976843
0.975254
0.972421
0.969398
0.967538
0.96514
0.961665
0.959711
0.958064
0.955234
0.952853
0.951406
0.949203
0.94608
0.944161
0.94237
0.939417
0.937113
0.935769
0.933603
0.93078
0.929005
0.926913
0.923567
0.920793
0.918486
0.915056
0.91151
0.909176
0.906259
0.902241
0.899476
0.897304
0.893911
0.891142
0.890233
0.888728
0.887247
0.886391
0.885716
0.884746
0.884862
0.887364
0.895791
0.914677
0.95674
1.0132
1.07476
1.15076
1.19195
1.21811
1.2364
1.23979
1.23862
1.2366
1.23102
1.22387
1.21902
1.21597
1.21306
1.21005
1.20687
1.20321
1.17749
1.17284
1.16842
1.16383
1.15905
1.15457
1.1504
1.14563
1.14093
1.1382
1.13479
1.13003
1.12608
1.12238
1.11761
1.11373
1.11037
1.10607
1.10189
1.09933
1.09578
1.09155
1.08833
1.08464
1.07979
1.07675
1.07403
1.06996
1.06686
1.06451
1.06074
1.05696
1.05437
1.05083
1.04665
1.04422
1.04162
1.03785
1.03555
1.03343
1.02981
1.02693
1.02481
1.02135
1.01808
1.01622
1.01358
1.01039
1.00856
1.00632
1.00272
1.00039
0.998299
0.994846
0.992332
0.990702
0.987999
0.985122
0.983421
0.981084
0.977532
0.975384
0.973417
0.97017
0.967823
0.966319
0.963874
0.960954
0.959219
0.957194
0.953884
0.951597
0.949991
0.947421
0.94479
0.943436
0.941644
0.938738
0.936838
0.935141
0.932295
0.929658
0.927832
0.925294
0.922048
0.91969
0.917196
0.913445
0.910029
0.907527
0.904277
0.900371
0.898097
0.895892
0.892544
0.890062
0.88828
0.887067
0.886022
0.884623
0.884677
0.885909
0.892231
0.910052
0.942444
0.998653
1.07568
1.1324
1.18389
1.21421
1.22219
1.22677
1.22663
1.22355
1.21813
1.21484
1.21292
1.21092
1.20864
1.20571
1.18704
1.18241
1.1776
1.1728
1.16863
1.16435
1.16014
1.15569
1.15105
1.14786
1.14473
1.14016
1.13483
1.13124
1.12707
1.12249
1.11929
1.11596
1.11144
1.10839
1.10558
1.10127
1.097
1.0937
1.08914
1.08505
1.08269
1.0794
1.0755
1.07312
1.0703
1.06607
1.06285
1.05996
1.05564
1.0525
1.05043
1.04705
1.04383
1.04185
1.03888
1.03517
1.0329
1.0303
1.02656
1.02447
1.02253
1.01922
1.01679
1.01484
1.01154
1.00843
1.00649
1.00373
1.0006
0.998971
0.996887
0.993639
0.991559
0.989526
0.986067
0.983323
0.981552
0.978818
0.975917
0.974415
0.972408
0.969251
0.967193
0.965337
0.962246
0.9595
0.957892
0.955674
0.952667
0.951019
0.949351
0.946433
0.944135
0.942584
0.940171
0.937456
0.93592
0.934024
0.931107
0.928969
0.926926
0.923756
0.920498
0.918022
0.915182
0.911311
0.908458
0.906119
0.902754
0.899179
0.896609
0.893885
0.890825
0.887448
0.88551
0.885098
0.885215
0.886402
0.89118
0.905831
0.941463
0.99613
1.05684
1.13101
1.17946
1.20061
1.21386
1.21542
1.21177
1.20814
1.20696
1.20612
1.20555
1.2038
1.19694
1.1929
1.18805
1.18235
1.17807
1.17395
1.16938
1.16492
1.16076
1.1571
1.1539
1.15001
1.14466
1.14037
1.13693
1.13238
1.12829
1.1253
1.12117
1.11693
1.11417
1.11059
1.10573
1.10238
1.09899
1.09464
1.09166
1.08899
1.08494
1.08154
1.079
1.07497
1.07094
1.06841
1.06504
1.06132
1.0592
1.05665
1.05287
1.0503
1.04779
1.04371
1.04081
1.03875
1.03541
1.03274
1.03109
1.02835
1.02525
1.02321
1.02047
1.01671
1.01462
1.01244
1.00914
1.00718
1.00542
1.00239
0.99976
0.997831
0.994867
0.99154
0.989734
0.987489
0.984243
0.982419
0.980654
0.977588
0.975074
0.973336
0.970695
0.967659
0.966001
0.964079
0.961021
0.958919
0.957212
0.954396
0.951523
0.949917
0.947829
0.944906
0.943335
0.941773
0.939092
0.936909
0.935224
0.932633
0.929581
0.927474
0.925156
0.921691
0.918882
0.916671
0.913496
0.90992
0.907159
0.904058
0.900331
0.896691
0.893345
0.89017
0.887217
0.88658
0.886938
0.888416
0.893422
0.908972
0.939946
0.993268
1.06577
1.11914
1.15819
1.18276
1.19721
1.20097
1.20058
1.19977
1.19781
1.19579
1.20559
1.20161
1.19673
1.19134
1.18752
1.18395
1.1796
1.17492
1.1712
1.16726
1.16313
1.15913
1.15401
1.14852
1.14556
1.14212
1.13763
1.13456
1.13154
1.12713
1.12328
1.11995
1.115
1.11038
1.10768
1.1039
1.10023
1.09792
1.09458
1.09063
1.08788
1.0846
1.08003
1.07701
1.07431
1.07024
1.06752
1.06539
1.06178
1.05857
1.05633
1.05297
1.04944
1.0474
1.04475
1.04134
1.03941
1.03707
1.03343
1.03111
1.02886
1.02534
1.02294
1.02111
1.01816
1.01561
1.01383
1.01104
1.00781
1.00584
1.00338
1.00002
0.998061
0.996154
0.993032
0.990648
0.988852
0.985953
0.9829
0.981168
0.978967
0.975885
0.974125
0.97244
0.969569
0.967064
0.965264
0.962647
0.959388
0.957536
0.955628
0.952613
0.95066
0.949192
0.946691
0.944182
0.942633
0.940516
0.937579
0.935653
0.933789
0.930829
0.928021
0.92607
0.923502
0.919927
0.917474
0.915038
0.911627
0.907805
0.904247
0.900113
0.895362
0.892439
0.89
0.88956
0.890466
0.893074
0.899392
0.91538
0.951063
1.00165
1.05615
1.11097
1.14226
1.1591
1.16884
1.17706
1.18462
1.18637
1.21584
1.21163
1.20653
1.20054
1.19616
1.19269
1.1886
1.18383
1.18034
1.1772
1.17304
1.16865
1.16419
1.15885
1.1548
1.15168
1.14746
1.14299
1.14029
1.1365
1.13182
1.12861
1.12484
1.11994
1.11691
1.11385
1.10961
1.10657
1.10366
1.09924
1.09589
1.09318
1.08901
1.08562
1.08337
1.08001
1.07659
1.07429
1.07118
1.06706
1.06452
1.06172
1.05784
1.05574
1.05363
1.05028
1.04791
1.04578
1.04228
1.03927
1.03711
1.03386
1.03094
1.02931
1.02681
1.02394
1.02215
1.01975
1.01637
1.01413
1.01192
1.00856
1.00625
1.00448
1.00157
0.998828
0.997026
0.994487
0.991213
0.989318
0.987353
0.984239
0.982154
0.980523
0.977837
0.975071
0.973259
0.970967
0.967708
0.965635
0.963798
0.960837
0.958351
0.956725
0.954327
0.951413
0.949757
0.947922
0.945085
0.943134
0.941517
0.938982
0.93621
0.934299
0.932105
0.9288
0.926437
0.924552
0.921829
0.918335
0.915624
0.912369
0.90758
0.902659
0.898291
0.894146
0.893078
0.893861
0.896254
0.900466
0.909301
0.928751
0.960747
1.00941
1.0574
1.09215
1.11489
1.12988
1.14272
1.15191
1.22548
1.22106
1.21559
1.21018
1.20626
1.20257
1.1989
1.1948
1.19006
1.18615
1.18205
1.177
1.17266
1.16868
1.16434
1.16108
1.15767
1.15308
1.14953
1.14624
1.14136
1.13704
1.1338
1.12925
1.12563
1.12305
1.11915
1.1153
1.11257
1.10862
1.10451
1.10176
1.09837
1.09428
1.09191
1.08911
1.0851
1.08257
1.0799
1.07586
1.07304
1.07066
1.06711
1.06443
1.06239
1.05914
1.05609
1.05398
1.05082
1.04749
1.04545
1.04271
1.03947
1.03762
1.03537
1.03213
1.03008
1.02799
1.02472
1.02241
1.0205
1.01747
1.01483
1.01295
1.01019
1.00696
1.005
1.0027
0.999433
0.997474
0.995729
0.99286
0.99045
0.988747
0.986211
0.983094
0.981201
0.979109
0.975946
0.973763
0.971991
0.969236
0.966422
0.964593
0.962319
0.959108
0.957187
0.955433
0.952607
0.950394
0.948841
0.946533
0.943707
0.941845
0.939882
0.936883
0.934473
0.932785
0.930483
0.927426
0.925153
0.922795
0.919037
0.914461
0.910375
0.90562
0.901141
0.898218
0.898358
0.90006
0.904216
0.910901
0.923058
0.946779
0.981879
1.01524
1.0444
1.0669
1.08423
1.09761
1.23904
1.23279
1.22623
1.21926
1.21524
1.21119
1.20742
1.20405
1.19978
1.19548
1.19168
1.18694
1.18165
1.17829
1.17445
1.17012
1.16685
1.16276
1.1581
1.15497
1.15093
1.14617
1.14305
1.13947
1.13519
1.13218
1.12862
1.12387
1.1207
1.11743
1.11299
1.11018
1.10746
1.1034
1.10059
1.09805
1.09416
1.09096
1.08845
1.08468
1.08138
1.07928
1.07613
1.07302
1.07095
1.06796
1.06449
1.06224
1.05945
1.05597
1.05386
1.05156
1.04823
1.04605
1.04392
1.04052
1.03808
1.03612
1.03304
1.03058
1.02883
1.02615
1.02332
1.02136
1.01881
1.01541
1.01324
1.01111
1.00791
1.00573
1.00403
1.00128
0.998558
0.996792
0.994426
0.99126
0.989293
0.987376
0.984409
0.982033
0.980233
0.977582
0.974434
0.972454
0.97027
0.96706
0.964964
0.963247
0.960581
0.958035
0.956339
0.954123
0.951034
0.949056
0.947221
0.944402
0.942005
0.940375
0.938307
0.93546
0.933358
0.931379
0.928576
0.924979
0.921501
0.917331
0.912421
0.907896
0.904727
0.904411
0.905904
0.909595
0.916173
0.927645
0.947235
0.97111
0.995015
1.01676
1.0303
1.03983
1.25258
1.24635
1.2392
1.23191
1.2268
1.22198
1.21758
1.21366
1.20906
1.20362
1.19948
1.19544
1.1907
1.18757
1.1846
1.18004
1.17587
1.17225
1.16728
1.16318
1.15997
1.15547
1.15188
1.14903
1.14482
1.14122
1.1379
1.13318
1.12927
1.1262
1.12199
1.11882
1.11638
1.11277
1.10933
1.10677
1.10299
1.0991
1.09672
1.09346
1.09
1.08794
1.08525
1.08185
1.07952
1.07674
1.07295
1.0705
1.06802
1.06458
1.06235
1.06024
1.05696
1.05446
1.05238
1.04912
1.04638
1.04445
1.04163
1.03895
1.03718
1.03467
1.03159
1.0295
1.02709
1.02367
1.02144
1.01948
1.01651
1.0142
1.01246
1.00984
1.00687
1.00489
1.00259
0.999292
0.997258
0.995489
0.992702
0.990298
0.988503
0.985998
0.982767
0.980553
0.978372
0.975104
0.972772
0.971089
0.968543
0.965856
0.964096
0.961946
0.958805
0.956577
0.954719
0.951947
0.949266
0.947674
0.945695
0.942859
0.940939
0.939099
0.936614
0.93371
0.930892
0.92779
0.923403
0.91871
0.914614
0.91139
0.910896
0.912193
0.915741
0.923219
0.935272
0.952324
0.972082
0.99344
1.00603
1.01018
1.26357
1.25998
1.2544
1.24707
1.24026
1.23308
1.22725
1.22286
1.21831
1.2136
1.20895
1.20476
1.20006
1.19596
1.19312
1.18938
1.18472
1.18117
1.17698
1.17189
1.16877
1.16501
1.16069
1.15794
1.15441
1.15028
1.14699
1.14265
1.1383
1.13527
1.13158
1.12799
1.12546
1.12194
1.11794
1.11518
1.11175
1.10777
1.10531
1.10259
1.09898
1.09669
1.09415
1.09038
1.08766
1.085
1.08127
1.0788
1.07666
1.07355
1.0712
1.06914
1.06594
1.06298
1.06071
1.05744
1.05444
1.05262
1.05012
1.04744
1.04568
1.04336
1.04019
1.03788
1.03547
1.03196
1.02956
1.02766
1.02482
1.02242
1.02071
1.01826
1.01525
1.0132
1.01095
1.00766
1.00545
1.00364
1.00088
0.998334
0.996537
0.994184
0.991016
0.988793
0.986657
0.983424
0.980853
0.979056
0.976553
0.973656
0.971841
0.969828
0.966766
0.964419
0.962559
0.959848
0.956812
0.955037
0.953126
0.950139
0.94811
0.946589
0.944183
0.941458
0.939274
0.936593
0.932983
0.928657
0.924662
0.920719
0.91775
0.917654
0.918946
0.922889
0.930946
0.942922
0.95977
0.98082
0.997212
1.00499
1.26744
1.26739
1.26621
1.26194
1.25563
1.2476
1.2401
1.23395
1.22733
1.22267
1.21825
1.21391
1.21008
1.2057
1.2018
1.19822
1.19333
1.18925
1.18593
1.18156
1.17816
1.17506
1.17054
1.16693
1.16356
1.15889
1.15542
1.15174
1.14738
1.14434
1.14106
1.13746
1.13476
1.13147
1.12733
1.12415
1.12078
1.11628
1.11366
1.11118
1.10765
1.10529
1.103
1.09946
1.09644
1.09376
1.08989
1.08707
1.08498
1.08191
1.07947
1.07755
1.07461
1.07166
1.06941
1.06636
1.06313
1.06112
1.05862
1.05564
1.05376
1.05152
1.04842
1.04617
1.04396
1.04069
1.03817
1.03619
1.03329
1.0306
1.02876
1.02633
1.02332
1.02134
1.01926
1.01616
1.01385
1.01196
1.00914
1.00636
1.0045
1.00219
0.999116
0.996981
0.994949
0.991914
0.989191
0.987218
0.984656
0.981504
0.979583
0.977642
0.974704
0.97235
0.970546
0.968052
0.964848
0.96277
0.960783
0.957706
0.955271
0.953836
0.951763
0.948859
0.94699
0.944866
0.941566
0.937798
0.93421
0.930197
0.926034
0.923876
0.92412
0.92576
0.930246
0.938162
0.950772
0.969742
0.989013
1.00245
1.25908
1.26406
1.26623
1.2669
1.26486
1.26033
1.2539
1.24727
1.24013
1.23491
1.23
1.22458
1.2203
1.21576
1.2107
1.20699
1.20286
1.19832
1.19514
1.19129
1.18716
1.18396
1.17971
1.1756
1.17265
1.16856
1.16474
1.16143
1.1571
1.15357
1.15017
1.14619
1.14317
1.14002
1.13599
1.13301
1.12995
1.1259
1.12297
1.12045
1.11675
1.11376
1.11132
1.10767
1.10459
1.10216
1.09875
1.09591
1.09381
1.09081
1.088
1.08589
1.08291
1.07978
1.07762
1.07485
1.07173
1.06972
1.06734
1.06429
1.06218
1.05992
1.05669
1.05435
1.05219
1.04906
1.04657
1.04461
1.04184
1.03903
1.03707
1.03465
1.03152
1.02951
1.02748
1.02445
1.02215
1.02022
1.01744
1.01456
1.01258
1.01026
1.00713
1.00502
1.00307
1.00016
0.997498
0.995479
0.992941
0.989728
0.987607
0.985593
0.982631
0.980149
0.978386
0.97605
0.972908
0.970784
0.968803
0.965787
0.963025
0.96137
0.959357
0.956312
0.95431
0.952555
0.949721
0.946125
0.943155
0.939681
0.935219
0.931371
0.929963
0.930359
0.932246
0.936762
0.944923
0.9595
0.978268
0.99571
1.24202
1.25443
1.26401
1.26624
1.26715
1.26685
1.26471
1.26121
1.25597
1.2494
1.24289
1.23574
1.23064
1.2261
1.22065
1.21618
1.21203
1.20736
1.20432
1.20129
1.19741
1.19378
1.18968
1.18434
1.18086
1.17707
1.17325
1.17038
1.1667
1.16316
1.15991
1.1556
1.15195
1.14859
1.14463
1.14165
1.13884
1.13495
1.13175
1.12908
1.12531
1.12223
1.11987
1.11662
1.11352
1.11111
1.1078
1.10455
1.10219
1.09905
1.09608
1.09404
1.09136
1.08839
1.08629
1.0837
1.08051
1.07826
1.07574
1.07243
1.07022
1.06803
1.06499
1.06274
1.0607
1.05777
1.05519
1.05311
1.05022
1.04723
1.04521
1.04279
1.03977
1.03778
1.03579
1.03284
1.03047
1.02848
1.02567
1.02275
1.02074
1.01843
1.01531
1.01315
1.01117
1.00824
1.00554
1.00353
1.00105
0.997943
0.995832
0.993818
0.990888
0.988261
0.986353
0.984006
0.980783
0.978594
0.976683
0.973894
0.971016
0.969291
0.967287
0.964234
0.961948
0.960202
0.957706
0.954203
0.951482
0.948659
0.944454
0.940214
0.937135
0.935687
0.936072
0.938041
0.942843
0.952072
0.966871
0.984481
1.18484
1.21245
1.23593
1.25232
1.26293
1.26635
1.26783
1.26795
1.26725
1.26376
1.25783
1.2502
1.24349
1.23735
1.23158
1.22678
1.22266
1.21803
1.21379
1.20985
1.20551
1.20171
1.19793
1.19331
1.19
1.18679
1.18288
1.17985
1.17628
1.17216
1.16862
1.16418
1.16023
1.15706
1.15338
1.15062
1.14807
1.14453
1.14123
1.13821
1.13412
1.13023
1.12772
1.12451
1.12176
1.11976
1.11696
1.11395
1.11142
1.10816
1.10459
1.10218
1.0993
1.09632
1.09444
1.09213
1.08925
1.08704
1.08456
1.08119
1.07868
1.07632
1.07309
1.07081
1.06883
1.06598
1.06354
1.06151
1.05874
1.0558
1.05368
1.05123
1.04813
1.04607
1.04402
1.041
1.03863
1.03662
1.03381
1.03098
1.02898
1.0267
1.02366
1.02148
1.01942
1.01644
1.01365
1.01154
1.00902
1.00591
1.00385
1.00189
0.99909
0.996542
0.994583
0.992211
0.988934
0.986615
0.984647
0.98185
0.9789
0.977144
0.975218
0.972249
0.969845
0.968081
0.965731
0.962464
0.959839
0.957248
0.953548
0.949093
0.945664
0.942541
0.9411
0.941554
0.943736
0.94926
0.958405
0.971923
1.09321
1.13467
1.18232
1.213
1.23665
1.24946
1.25803
1.26518
1.26751
1.26714
1.26509
1.26117
1.25646
1.251
1.24507
1.2397
1.23454
1.22968
1.22485
1.22009
1.21538
1.211
1.20675
1.20147
1.19789
1.19509
1.19126
1.18836
1.18537
1.18159
1.17817
1.17414
1.16971
1.16613
1.16227
1.15921
1.15651
1.15306
1.14996
1.1471
1.14307
1.13933
1.13662
1.13337
1.13033
1.12817
1.12522
1.12211
1.11972
1.11664
1.11335
1.11093
1.10817
1.10509
1.10298
1.10051
1.0974
1.09516
1.09271
1.08952
1.08713
1.08483
1.08175
1.07942
1.07733
1.0744
1.07183
1.06973
1.06688
1.06395
1.06191
1.05946
1.05652
1.05449
1.05241
1.04945
1.04705
1.04497
1.04207
1.03917
1.03713
1.03474
1.03173
1.02963
1.02759
1.02469
1.02205
1.0199
1.01728
1.01411
1.01192
1.00984
1.00696
1.00449
1.00258
1.0003
0.997239
0.994903
0.992824
0.990043
0.986956
0.985049
0.983101
0.980155
0.977733
0.976075
0.973871
0.97063
0.968225
0.965859
0.962475
0.958163
0.95456
0.950953
0.947426
0.94657
0.947116
0.949529
0.954999
0.96306
1.02791
1.05141
1.08951
1.13419
1.17521
1.21535
1.23675
1.25417
1.2634
1.26355
1.26413
1.26483
1.26383
1.26087
1.25716
1.25315
1.24776
1.24179
1.23603
1.23007
1.22483
1.22032
1.21609
1.21162
1.20807
1.20511
1.20146
1.19775
1.19416
1.18928
1.18549
1.18229
1.17869
1.17557
1.17231
1.16906
1.166
1.1621
1.1585
1.15537
1.15143
1.14795
1.14538
1.1422
1.1392
1.13695
1.13396
1.13075
1.12816
1.12499
1.12154
1.1192
1.11651
1.11362
1.11154
1.10907
1.10601
1.10361
1.10107
1.09777
1.09535
1.09307
1.09005
1.0878
1.08572
1.08281
1.0803
1.07815
1.0753
1.07246
1.07033
1.06782
1.06477
1.06267
1.0605
1.05752
1.05527
1.05326
1.05046
1.04773
1.04562
1.04311
1.03995
1.03774
1.0356
1.03264
1.03018
1.02812
1.02556
1.02257
1.02032
1.01809
1.01502
1.01251
1.01054
1.00816
1.00523
1.00308
1.00101
0.998231
0.995229
0.993159
0.99106
0.988176
0.985654
0.983935
0.981871
0.978831
0.976453
0.97434
0.971146
0.967137
0.963779
0.960205
0.955483
0.952544
0.951958
0.952519
0.954865
0.960024
1.00409
1.01066
1.02427
1.05192
1.08577
1.13265
1.17492
1.2072
1.23508
1.24867
1.25931
1.26501
1.26495
1.26441
1.26479
1.26429
1.26152
1.25628
1.2499
1.24308
1.23676
1.23104
1.22536
1.22058
1.21674
1.21374
1.21059
1.20686
1.20322
1.19899
1.19483
1.19148
1.18778
1.1841
1.18073
1.17751
1.17442
1.17094
1.16752
1.16439
1.16049
1.15685
1.1541
1.1508
1.14787
1.14556
1.14261
1.13937
1.13671
1.13343
1.13003
1.1276
1.1249
1.12203
1.11992
1.11745
1.11446
1.11209
1.10947
1.10618
1.10373
1.10135
1.09835
1.09613
1.09404
1.09116
1.0887
1.08655
1.08366
1.08087
1.07874
1.07611
1.07318
1.07105
1.0688
1.06582
1.06357
1.06153
1.05868
1.05605
1.05397
1.05137
1.04831
1.04607
1.04382
1.04077
1.03836
1.03629
1.03365
1.03081
1.02864
1.02636
1.02332
1.02082
1.01871
1.01618
1.01326
1.01113
1.00901
1.00621
1.00347
1.00138
0.999192
0.996136
0.993752
0.991943
0.989733
0.986673
0.984424
0.982418
0.979628
0.975684
0.972665
0.969518
0.965073
0.960666
0.957752
0.9572
0.957912
0.960526
1.00028
1.00104
1.00328
1.01011
1.02336
1.04745
1.08441
1.12324
1.1719
1.20392
1.22809
1.24747
1.25403
1.26007
1.2646
1.26577
1.26559
1.26452
1.26152
1.25674
1.25098
1.2446
1.23852
1.2333
1.22851
1.22354
1.21914
1.21482
1.21084
1.20722
1.20334
1.19998
1.19673
1.19336
1.19009
1.18674
1.18335
1.17966
1.17617
1.17297
1.16933
1.16585
1.16283
1.15932
1.15621
1.15386
1.15094
1.14804
1.14553
1.14246
1.13912
1.13643
1.13329
1.13014
1.12792
1.12537
1.12264
1.12049
1.11803
1.11496
1.11249
1.10994
1.10677
1.10445
1.10222
1.09929
1.09696
1.09483
1.09198
1.08935
1.08719
1.08452
1.08164
1.07948
1.07714
1.07415
1.07192
1.0698
1.06687
1.06434
1.06224
1.0596
1.05668
1.05448
1.05218
1.04915
1.04676
1.0446
1.04174
1.03892
1.03677
1.03442
1.03144
1.0292
1.02712
1.02445
1.02163
1.01943
1.0171
1.01405
1.01143
1.00935
1.0071
1.00419
1.00187
0.999962
0.997668
0.994482
0.992142
0.990194
0.987567
0.983879
0.981071
0.978667
0.974987
0.970555
0.966968
0.965147
0.965503
0.967568
1.00001
1.00004
1.0002
1.00089
1.00294
1.00853
)
;

boundaryField
{
    inlet
    {
        type            fixedValue;
        value           nonuniform 0();
    }
    outlet
    {
        type            zeroGradient;
    }
    bottom
    {
        type            symmetryPlane;
    }
    top
    {
        type            symmetryPlane;
    }
    obstacle
    {
        type            zeroGradient;
    }
    front
    {
        type            empty;
    }
    back
    {
        type            empty;
    }
    procBoundary45to37
    {
        type            processor;
        value           nonuniform List<scalar> 
129
(
1.2007
1.19412
1.18919
1.18451
1.17789
1.17128
1.16696
1.16244
1.04994
1.04595
1.04346
1.04027
1.03629
1.03397
1.0315
1.02741
1.02431
1.02191
1.01806
1.01462
1.01262
1.00975
1.00641
1.00448
1.00219
0.998503
0.996012
0.993882
0.990279
0.98746
0.985751
0.982985
0.979928
0.978205
0.976034
0.972532
0.970155
0.968196
0.964886
0.962094
0.960608
0.958303
0.955224
0.953468
0.95165
0.948471
0.945846
0.94426
0.941872
0.93892
0.937506
0.935928
0.93305
0.930618
0.928904
0.926267
0.922715
0.920566
0.918276
0.914715
0.911983
0.90956
0.905785
0.902561
0.900406
0.897011
0.894283
0.892839
0.891143
0.88915
0.888055
0.887276
0.886451
0.886023
0.885755
0.885602
0.886446
0.890136
0.900237
0.919187
0.949007
0.99962
1.05678
1.10698
1.17429
1.21197
1.2283
1.24062
1.24486
1.24712
1.24833
1.24682
1.2411
1.23392
1.2278
1.22236
1.21631
1.20976
1.20358
1.19712
1.19051
1.18349
1.17659
1.15704
1.15223
1.14856
1.14464
1.13978
1.13512
1.13078
1.1265
1.1224
1.11865
1.11508
1.11166
1.10743
1.10256
1.09917
1.09553
1.09099
1.08742
1.08424
1.07999
1.07661
1.074
1.07022
1.06558
1.0626
1.0626
)
;
    }
    procBoundary45to38
    {
        type            processor;
        value           nonuniform List<scalar> 2(1.18562 1.19879);
    }
    procBoundary45to44
    {
        type            processor;
        value           nonuniform List<scalar> 9(1.21661 1.22808 1.24281 1.25657 1.26557 1.26588 1.25372 1.21393 1.13984);
    }
    procBoundary45to46
    {
        type            processor;
        value           nonuniform List<scalar> 
17
(
1.20248
1.20144
1.19533
1.18906
1.16304
1.11018
1.04987
1.01407
1.00863
1.00858
1.00832
1.00239
0.990569
0.976589
0.968278
0.966136
0.972884
)
;
    }
    procBoundary45to52
    {
        type            processor;
        value           nonuniform List<scalar> 10(1.05738 1.01282 1.00155 1.0001 1 1 1 1 1 1);
    }
    procBoundary45to53
    {
        type            processor;
        value           nonuniform List<scalar> 
129
(
1
1
1
1
1
1
1
1
1.02199
1.04293
1.07826
1.12012
1.16022
1.20285
1.22703
1.24322
1.25551
1.25884
1.26124
1.26348
1.2643
1.26336
1.26113
1.25763
1.25264
1.24698
1.24093
1.23526
1.2299
1.225
1.22027
1.21646
1.21288
1.20925
1.20561
1.2018
1.19828
1.19493
1.19147
1.18812
1.18491
1.18185
1.17851
1.17512
1.17206
1.16854
1.16531
1.16251
1.15907
1.15585
1.15341
1.15051
1.14775
1.14538
1.14251
1.13943
1.1369
1.13391
1.13075
1.12843
1.1258
1.12295
1.12075
1.11832
1.11542
1.11312
1.1108
1.10787
1.10553
1.10331
1.10031
1.09765
1.09539
1.09252
1.0898
1.08778
1.08547
1.08275
1.08061
1.07842
1.07542
1.07279
1.07051
1.06756
1.06473
1.06263
1.06032
1.05754
1.05535
1.05319
1.0503
1.04745
1.04513
1.0425
1.03934
1.03722
1.0352
1.03248
1.02996
1.02788
1.0255
1.02221
1.01961
1.01745
1.01492
1.01163
1.00955
1.00774
1.00544
1.00231
0.999926
0.998178
0.995958
0.992738
0.989924
0.988678
0.987153
0.984555
0.982883
0.984398
0.988856
0.997436
1
1
1
1.00003
1.00015
1.02199
1.00068
)
;
    }
}


// ************************************************************************* //
