/*--------------------------------*- C++ -*----------------------------------*\
  =========                 |
  \\      /  F ield         | OpenFOAM: The Open Source CFD Toolbox
   \\    /   O peration     | Website:  https://openfoam.org
    \\  /    A nd           | Version:  7
     \\/     M anipulation  |
\*---------------------------------------------------------------------------*/
FoamFile
{
    version     2.0;
    format      ascii;
    class       volScalarField;
    location    "2";
    object      T;
}
// * * * * * * * * * * * * * * * * * * * * * * * * * * * * * * * * * * * * * //

dimensions      [0 0 0 1 0 0 0];

internalField   nonuniform List<scalar> 
2413
(
1.28308
1.28571
1.28809
1.29024
1.29209
1.29366
1.2949
1.29593
1.29674
1.29736
1.29773
1.29788
1.29775
1.29742
1.29679
1.29597
1.2949
1.29362
1.29209
1.29033
1.28831
1.28609
1.28374
1.28131
1.27887
1.27647
1.27418
1.27202
1.27001
1.26812
1.26635
1.26465
1.263
1.26136
1.25972
1.25803
1.25626
1.25439
1.2524
1.2503
1.24807
1.2457
1.24313
1.2403
1.23717
1.2337
1.22994
1.22597
1.22187
1.2177
1.21348
1.20921
1.20484
1.20024
1.19534
1.1902
1.185
1.17985
1.17487
1.17009
1.16545
1.16061
1.15536
1.14957
1.14328
1.13684
1.13064
1.12478
1.11893
1.1127
1.10559
1.09688
1.08514
1.06974
1.05156
1.03158
1.01051
0.989503
0.97032
0.954681
0.943491
0.93643
0.932292
0.930046
0.928752
0.927846
0.927162
0.926755
1.27997
1.28248
1.28479
1.28691
1.2888
1.29051
1.292
1.29324
1.29419
1.2949
1.29542
1.29576
1.29588
1.29581
1.29548
1.29497
1.2942
1.29321
1.29195
1.29043
1.28865
1.28661
1.28433
1.2819
1.27939
1.27689
1.27448
1.2722
1.27009
1.26811
1.26626
1.2645
1.26278
1.26107
1.25937
1.25763
1.25585
1.25395
1.25193
1.24975
1.24741
1.24491
1.24223
1.23937
1.23632
1.23305
1.22953
1.22574
1.2217
1.21744
1.21301
1.20848
1.2039
1.19928
1.19458
1.18972
1.18461
1.17923
1.17374
1.16818
1.16268
1.15731
1.15191
1.14624
1.1401
1.13327
1.1259
1.11839
1.11065
1.10228
1.09279
1.08141
1.0679
1.05306
1.0378
1.023
1.00936
0.996779
0.984737
0.97285
0.961262
0.950735
0.942225
0.936251
0.932519
0.930346
0.929094
0.92821
1.27567
1.27801
1.28025
1.28239
1.28439
1.28625
1.28789
1.28933
1.29051
1.29148
1.29219
1.29272
1.29305
1.29325
1.29325
1.2931
1.29273
1.29218
1.29136
1.29026
1.28884
1.28713
1.28514
1.28287
1.28041
1.27787
1.27536
1.27295
1.27069
1.26859
1.26663
1.26477
1.26295
1.26115
1.25932
1.25747
1.25562
1.25372
1.25173
1.24959
1.24724
1.24463
1.24179
1.23876
1.23562
1.23241
1.2291
1.22563
1.22187
1.21777
1.21332
1.20859
1.20368
1.19878
1.19402
1.1894
1.1847
1.17965
1.17428
1.16856
1.16239
1.15598
1.14974
1.14389
1.13828
1.13253
1.12599
1.1178
1.10739
1.09437
1.07871
1.06202
1.04662
1.03389
1.02377
1.01619
1.00976
1.00393
0.997817
0.990677
0.982085
0.972114
0.961473
0.951394
0.943101
0.937224
0.933517
0.931301
1.27024
1.2723
1.27433
1.2763
1.27821
1.28003
1.28174
1.28338
1.28487
1.28624
1.2874
1.28836
1.2891
1.28966
1.29003
1.29027
1.29033
1.29023
1.28993
1.2894
1.28854
1.2873
1.28564
1.28364
1.28137
1.2789
1.27635
1.27383
1.27141
1.26915
1.26704
1.26503
1.26309
1.26116
1.25919
1.25717
1.25514
1.25308
1.25099
1.2488
1.24644
1.24386
1.24104
1.238
1.23481
1.23156
1.22825
1.22486
1.22127
1.21739
1.21313
1.20841
1.20335
1.19824
1.19326
1.18847
1.18372
1.1788
1.17355
1.16779
1.16127
1.15407
1.14667
1.13952
1.13238
1.12442
1.11451
1.10181
1.08641
1.06957
1.05365
1.04083
1.0315
1.02511
1.0203
1.01657
1.01341
1.0103
1.0067
1.00234
0.997001
0.990391
0.982345
0.972989
0.962924
0.953185
0.944907
0.9388
1.2647
1.26636
1.26804
1.26971
1.27138
1.27305
1.2747
1.27635
1.27797
1.27955
1.28107
1.28253
1.28387
1.28509
1.28609
1.28689
1.28744
1.28775
1.28782
1.28769
1.28731
1.28658
1.28546
1.2839
1.28193
1.27972
1.27736
1.27489
1.27242
1.27001
1.26771
1.26552
1.26342
1.26136
1.2593
1.25716
1.25488
1.25247
1.24998
1.24749
1.24503
1.24257
1.24004
1.23733
1.23435
1.23104
1.22745
1.22366
1.21981
1.21594
1.21201
1.20788
1.20344
1.19859
1.19326
1.18754
1.18171
1.17588
1.17011
1.16427
1.15822
1.15174
1.14437
1.13531
1.12382
1.10954
1.09293
1.0756
1.05999
1.04792
1.03971
1.03414
1.02994
1.02637
1.02329
1.0207
1.01832
1.01576
1.01292
1.00976
1.00616
1.0019
0.996756
0.990444
0.982792
0.973888
0.964249
0.954803
1.25953
1.26076
1.26205
1.26339
1.2648
1.26626
1.26776
1.26931
1.27088
1.27249
1.27412
1.27578
1.27743
1.27903
1.28055
1.28193
1.28314
1.28413
1.28483
1.28519
1.28522
1.28491
1.28422
1.28315
1.28175
1.28001
1.27796
1.27574
1.27341
1.27099
1.26854
1.26612
1.26375
1.26143
1.25915
1.25684
1.2544
1.25181
1.24907
1.24629
1.24359
1.24105
1.23859
1.23607
1.23332
1.23021
1.22667
1.22276
1.21865
1.21456
1.21062
1.20676
1.20271
1.19815
1.19281
1.18689
1.18029
1.17317
1.16587
1.15837
1.15026
1.14078
1.12897
1.11422
1.09714
1.07981
1.06495
1.05403
1.04708
1.04237
1.03898
1.03597
1.0333
1.03094
1.0286
1.02618
1.02362
1.02096
1.01823
1.01544
1.01249
1.00926
1.00563
1.00139
0.996354
0.990277
0.983005
0.974597
1.25494
1.25592
1.25692
1.25791
1.259
1.2602
1.2615
1.2629
1.26437
1.26593
1.26756
1.26923
1.27094
1.27266
1.27437
1.27602
1.2776
1.27904
1.28026
1.28121
1.28181
1.28205
1.28191
1.28134
1.28035
1.27909
1.27765
1.27597
1.274
1.27178
1.26937
1.26682
1.26418
1.26152
1.25888
1.25628
1.25375
1.25121
1.24859
1.24581
1.24288
1.23987
1.23689
1.23404
1.23125
1.22839
1.22533
1.22196
1.21819
1.21399
1.20946
1.20476
1.19993
1.19486
1.18944
1.18356
1.17695
1.16931
1.16009
1.14877
1.13492
1.11854
1.10062
1.08344
1.06955
1.05985
1.05388
1.04991
1.04704
1.04449
1.04233
1.04045
1.03857
1.03655
1.03431
1.03183
1.02916
1.02639
1.02357
1.02073
1.01787
1.01494
1.0119
1.00863
1.00502
1.0009
0.99607
0.99033
1.25177
1.25221
1.25279
1.25357
1.25444
1.25532
1.2563
1.25743
1.2587
1.2601
1.26162
1.26322
1.26488
1.26656
1.26826
1.26995
1.27161
1.27319
1.27465
1.27592
1.27695
1.27769
1.27809
1.27816
1.27788
1.2772
1.27619
1.27498
1.27357
1.27188
1.2698
1.26734
1.2646
1.2617
1.25873
1.2558
1.25301
1.25038
1.24782
1.24515
1.24224
1.23904
1.23567
1.23234
1.22924
1.22638
1.22359
1.22066
1.21738
1.21352
1.2089
1.20337
1.19723
1.19059
1.18333
1.17505
1.16515
1.15299
1.13809
1.12085
1.1028
1.08653
1.07411
1.06599
1.06083
1.05754
1.05487
1.05253
1.05061
1.04895
1.04734
1.04566
1.04381
1.04178
1.03955
1.03716
1.03461
1.03193
1.02913
1.02625
1.02333
1.02041
1.01749
1.01455
1.01155
1.00838
1.00494
1.00109
1.25044
1.25042
1.25052
1.2507
1.25106
1.25163
1.2524
1.25321
1.25414
1.25523
1.25653
1.25793
1.25944
1.26099
1.26257
1.26413
1.2657
1.26721
1.26866
1.26998
1.27115
1.27212
1.27287
1.27338
1.27364
1.27363
1.27332
1.27265
1.27168
1.27046
1.26894
1.26703
1.26471
1.26197
1.25898
1.25585
1.25268
1.24957
1.24663
1.24386
1.24112
1.23826
1.23515
1.23174
1.22812
1.22451
1.22104
1.21768
1.21418
1.21031
1.20554
1.19961
1.19235
1.18318
1.17168
1.15745
1.14066
1.12229
1.1044
1.08952
1.07883
1.07215
1.06785
1.06507
1.0626
1.06051
1.05881
1.05727
1.05575
1.05417
1.05247
1.05064
1.04867
1.0466
1.04443
1.04216
1.03978
1.03729
1.03468
1.03196
1.02915
1.02628
1.0234
1.02055
1.01774
1.01498
1.01224
1.00948
1.2505
1.25009
1.24981
1.24967
1.24963
1.24966
1.24983
1.25022
1.2509
1.2517
1.25258
1.25362
1.25484
1.25614
1.25751
1.25888
1.26025
1.26155
1.2628
1.26396
1.26503
1.26598
1.26682
1.26753
1.26812
1.26857
1.26883
1.26887
1.2686
1.26794
1.26689
1.26553
1.2638
1.26164
1.25906
1.25602
1.25268
1.24919
1.24575
1.24255
1.23967
1.23701
1.23427
1.23122
1.22769
1.22368
1.21924
1.21451
1.20922
1.20314
1.19561
1.18595
1.17365
1.15834
1.1407
1.12228
1.10554
1.09268
1.08404
1.07849
1.0751
1.07254
1.07023
1.06833
1.0668
1.06535
1.06392
1.06242
1.06081
1.05909
1.05726
1.05535
1.05336
1.05131
1.0492
1.04702
1.04479
1.04249
1.04012
1.03766
1.03513
1.03252
1.02987
1.02721
1.02461
1.02216
1.01997
1.01814
1.25248
1.25156
1.25077
1.2501
1.24962
1.24927
1.24913
1.24909
1.24916
1.24938
1.24991
1.25058
1.25133
1.25219
1.25322
1.25432
1.25541
1.25644
1.25738
1.25823
1.259
1.25972
1.26042
1.26111
1.2618
1.26247
1.26309
1.26358
1.26386
1.26387
1.26353
1.26271
1.26144
1.25982
1.25783
1.25547
1.25268
1.24947
1.24598
1.24228
1.23863
1.23523
1.232
1.22877
1.22532
1.22127
1.21606
1.20932
1.20044
1.18887
1.17435
1.1572
1.13868
1.12091
1.10629
1.09601
1.08933
1.08503
1.08239
1.07999
1.07786
1.07616
1.07468
1.07328
1.07187
1.07039
1.06882
1.06717
1.06544
1.06366
1.06182
1.05995
1.05804
1.05608
1.05407
1.05201
1.04991
1.04778
1.04562
1.04344
1.04123
1.03901
1.03681
1.03467
1.03272
1.03112
1.03004
1.02973
1.25598
1.25493
1.25381
1.25267
1.25162
1.2507
1.24999
1.24943
1.2491
1.24889
1.2488
1.24878
1.24898
1.24939
1.24994
1.25051
1.2512
1.25189
1.25247
1.25294
1.25335
1.25373
1.25416
1.25468
1.2553
1.25601
1.25677
1.25751
1.25814
1.2586
1.2588
1.2587
1.2582
1.25716
1.25564
1.2538
1.25173
1.24934
1.24644
1.24288
1.23875
1.23419
1.22942
1.2242
1.21823
1.21077
1.20084
1.18785
1.17172
1.15339
1.13486
1.11874
1.10682
1.09923
1.09416
1.09135
1.0892
1.08714
1.08535
1.0839
1.08252
1.08115
1.07972
1.07821
1.07663
1.07498
1.07329
1.07157
1.06983
1.06809
1.06634
1.06458
1.06279
1.06098
1.05913
1.05724
1.05533
1.05339
1.05147
1.04957
1.04774
1.04605
1.04458
1.04349
1.04287
1.04295
1.04363
1.04496
1.25932
1.25851
1.25758
1.25652
1.25538
1.25416
1.25296
1.25179
1.25078
1.24994
1.24929
1.24877
1.2483
1.24787
1.24757
1.24754
1.2477
1.2479
1.24806
1.24821
1.24831
1.24842
1.24857
1.24884
1.24925
1.24982
1.2505
1.25126
1.25202
1.25268
1.25317
1.25342
1.25341
1.25303
1.2521
1.25066
1.24883
1.24664
1.24405
1.24094
1.23694
1.23144
1.22419
1.21463
1.20208
1.18632
1.16792
1.14857
1.13088
1.11726
1.1082
1.10241
1.09914
1.0971
1.09519
1.09347
1.09213
1.09105
1.08993
1.08874
1.0874
1.08593
1.08434
1.08268
1.08097
1.07925
1.07754
1.07586
1.07419
1.07256
1.07093
1.06932
1.0677
1.06608
1.06444
1.06279
1.06113
1.05948
1.0579
1.05645
1.05527
1.05452
1.05428
1.05463
1.05555
1.05703
1.05894
1.0611
1.26203
1.26151
1.26087
1.2601
1.25918
1.2581
1.25691
1.25561
1.25427
1.25288
1.25151
1.25022
1.24908
1.24807
1.24711
1.24613
1.24521
1.24458
1.24423
1.244
1.24384
1.24373
1.24368
1.24369
1.24383
1.24412
1.24455
1.24511
1.24582
1.24661
1.24734
1.24789
1.24824
1.24834
1.24794
1.24665
1.24451
1.24158
1.23765
1.2322
1.22455
1.2139
1.19974
1.18229
1.16287
1.14399
1.12854
1.11767
1.11082
1.10664
1.10431
1.10243
1.10061
1.09918
1.09816
1.09729
1.09643
1.0955
1.09439
1.09313
1.09171
1.09016
1.08852
1.08683
1.08513
1.08345
1.0818
1.08021
1.07866
1.07716
1.0757
1.07427
1.07286
1.07147
1.07009
1.06873
1.06743
1.06624
1.0653
1.06478
1.0647
1.06511
1.06604
1.06751
1.06934
1.07138
1.07347
1.07548
1.26427
1.2639
1.26346
1.26291
1.26224
1.26142
1.26047
1.25935
1.25806
1.25659
1.25495
1.2532
1.25139
1.24957
1.24784
1.24617
1.24455
1.24298
1.24154
1.24045
1.23977
1.2394
1.2392
1.23911
1.23915
1.23932
1.23958
1.23993
1.2404
1.24106
1.24183
1.2424
1.24255
1.24221
1.24125
1.23934
1.23578
1.22989
1.22111
1.20891
1.19328
1.17522
1.15673
1.14038
1.12826
1.1203
1.11511
1.1122
1.11007
1.10801
1.10629
1.10497
1.10397
1.1031
1.10231
1.10145
1.10049
1.09942
1.09821
1.09691
1.0955
1.09402
1.09248
1.09089
1.0893
1.08773
1.08619
1.08472
1.08331
1.08198
1.08071
1.0795
1.07834
1.07722
1.07618
1.07525
1.07454
1.07422
1.0743
1.07475
1.07565
1.077
1.07867
1.08052
1.08243
1.08427
1.08597
1.08748
1.26629
1.26595
1.26557
1.26511
1.26458
1.26394
1.26317
1.26224
1.26112
1.2598
1.25825
1.25645
1.25442
1.25217
1.24978
1.24734
1.24495
1.24267
1.2406
1.23881
1.23731
1.23622
1.23565
1.23549
1.23551
1.23565
1.23583
1.23594
1.23593
1.23574
1.23525
1.23437
1.23287
1.23024
1.22582
1.21895
1.20893
1.19554
1.1795
1.16265
1.14736
1.1356
1.128
1.12329
1.12047
1.11836
1.11633
1.11438
1.11273
1.11137
1.11018
1.10915
1.1082
1.10722
1.10621
1.10512
1.104
1.10282
1.1016
1.10035
1.09906
1.09773
1.09636
1.09496
1.09354
1.09213
1.09076
1.08944
1.0882
1.08706
1.08601
1.08505
1.08419
1.08346
1.08294
1.08276
1.08298
1.08348
1.08439
1.08566
1.0872
1.08891
1.09065
1.09235
1.09393
1.09535
1.0966
1.09767
1.26827
1.26788
1.26745
1.26698
1.26644
1.26582
1.2651
1.26424
1.26321
1.26199
1.26054
1.25885
1.25689
1.25466
1.25216
1.24944
1.24659
1.24378
1.24112
1.23871
1.2367
1.23514
1.23398
1.2331
1.23245
1.23198
1.23156
1.231
1.23003
1.22826
1.22526
1.22066
1.21396
1.20458
1.19227
1.17759
1.16211
1.14797
1.13698
1.12994
1.1262
1.12435
1.12334
1.12241
1.12136
1.12034
1.1194
1.11829
1.1171
1.11588
1.11465
1.11341
1.11215
1.11089
1.10965
1.10841
1.10721
1.10602
1.10486
1.10371
1.10256
1.10142
1.10025
1.09906
1.09786
1.09666
1.0955
1.09439
1.09337
1.09245
1.09165
1.09101
1.09058
1.09047
1.09075
1.09131
1.09225
1.09347
1.09496
1.09659
1.09825
1.09986
1.10137
1.10274
1.10397
1.10505
1.106
1.10682
1.27026
1.26979
1.26927
1.26871
1.26809
1.26739
1.26659
1.26567
1.2646
1.26335
1.2619
1.26024
1.25835
1.25624
1.2539
1.25138
1.24873
1.24601
1.24323
1.24049
1.23794
1.23563
1.23362
1.23176
1.22989
1.2278
1.22519
1.22163
1.21655
1.20936
1.19964
1.18737
1.17313
1.15831
1.14477
1.13411
1.12717
1.12359
1.12217
1.12159
1.12124
1.12132
1.12167
1.12214
1.12257
1.12284
1.12281
1.12229
1.12136
1.12012
1.11872
1.11724
1.11575
1.1143
1.11293
1.11162
1.11042
1.10926
1.10818
1.10713
1.10613
1.10515
1.10418
1.10322
1.10226
1.10132
1.10041
1.09956
1.0988
1.09817
1.09772
1.09757
1.09777
1.09835
1.09922
1.10044
1.1019
1.10352
1.10518
1.10679
1.10831
1.10969
1.11094
1.11205
1.11304
1.11392
1.1147
1.1154
1.27214
1.27158
1.27095
1.27027
1.26952
1.2687
1.26776
1.26669
1.26549
1.26416
1.26269
1.26104
1.25923
1.25726
1.25514
1.25285
1.25043
1.2479
1.2453
1.24258
1.23964
1.23635
1.2326
1.22821
1.22287
1.21617
1.20768
1.19706
1.18429
1.16984
1.15494
1.14127
1.13039
1.12319
1.11939
1.11802
1.11764
1.11757
1.11798
1.11898
1.12023
1.12137
1.12234
1.1232
1.12396
1.12452
1.12484
1.12484
1.12443
1.12349
1.12223
1.12076
1.11924
1.11774
1.1163
1.11498
1.11376
1.11264
1.11163
1.11067
1.1098
1.10897
1.10819
1.10746
1.10676
1.1061
1.10548
1.10495
1.10452
1.10431
1.10438
1.10481
1.10559
1.10668
1.10807
1.10967
1.11135
1.11302
1.11462
1.1161
1.11743
1.11864
1.11971
1.12068
1.12154
1.12232
1.12302
1.12364
1.27391
1.27332
1.27264
1.27188
1.27101
1.27006
1.269
1.2678
1.26639
1.26483
1.26314
1.26138
1.25951
1.25754
1.25546
1.25323
1.25078
1.24801
1.24482
1.24098
1.23618
1.22998
1.22188
1.21166
1.19926
1.18487
1.16913
1.15334
1.13937
1.12856
1.12135
1.11732
1.11559
1.1149
1.11461
1.1147
1.1155
1.11677
1.1181
1.11938
1.1206
1.12177
1.12285
1.12381
1.12457
1.12513
1.12554
1.12583
1.12594
1.12571
1.12505
1.12396
1.12267
1.12127
1.11987
1.11855
1.11733
1.11622
1.11525
1.11436
1.1136
1.11292
1.11233
1.11181
1.11138
1.11102
1.11073
1.11058
1.1106
1.11089
1.11154
1.11246
1.1137
1.1152
1.11685
1.11855
1.12023
1.12183
1.12331
1.12466
1.12589
1.12699
1.12799
1.12889
1.1297
1.13043
1.13108
1.13165
1.27564
1.27509
1.27441
1.27362
1.27265
1.2715
1.27019
1.26872
1.2671
1.26528
1.26329
1.26114
1.25881
1.25622
1.2533
1.24994
1.24592
1.24093
1.23451
1.22626
1.21584
1.20314
1.18849
1.17272
1.15716
1.14355
1.13293
1.12537
1.12046
1.1176
1.11606
1.11526
1.11485
1.11484
1.11526
1.11607
1.11703
1.11805
1.11907
1.12007
1.12104
1.12198
1.12285
1.12367
1.1244
1.12505
1.1256
1.12606
1.12645
1.12673
1.12682
1.12651
1.1258
1.12474
1.12355
1.12231
1.12111
1.12002
1.11906
1.11823
1.11756
1.117
1.1166
1.1163
1.11614
1.1161
1.11619
1.11647
1.11701
1.11786
1.11894
1.12027
1.12184
1.1235
1.12519
1.12687
1.12849
1.13001
1.13142
1.13272
1.1339
1.13497
1.13595
1.13683
1.13761
1.13831
1.13892
1.13944
1.27677
1.27628
1.27555
1.27462
1.2735
1.27217
1.27062
1.26882
1.26678
1.2644
1.2616
1.25826
1.25424
1.24934
1.24328
1.23577
1.22657
1.21555
1.20283
1.18879
1.17432
1.16068
1.14916
1.14029
1.1338
1.12918
1.12584
1.12326
1.12118
1.11968
1.11866
1.11801
1.11775
1.11784
1.11821
1.11867
1.11914
1.11964
1.1202
1.12081
1.12145
1.1221
1.12275
1.12339
1.12405
1.12473
1.12541
1.12605
1.12664
1.1272
1.12769
1.12803
1.12811
1.12775
1.12705
1.12608
1.12504
1.12402
1.12309
1.12231
1.12169
1.12126
1.12102
1.12096
1.12107
1.12135
1.12186
1.12263
1.12371
1.12498
1.12636
1.128
1.12968
1.13135
1.13302
1.13466
1.13623
1.13772
1.13912
1.14041
1.1416
1.14268
1.14366
1.14453
1.1453
1.14597
1.14655
1.14705
1.27677
1.27608
1.27516
1.27397
1.27246
1.27058
1.26822
1.26522
1.26142
1.25665
1.25071
1.24339
1.23456
1.22416
1.21231
1.19932
1.18581
1.17275
1.16125
1.15203
1.1452
1.1404
1.13699
1.13441
1.13225
1.1303
1.12869
1.12733
1.12616
1.12503
1.12398
1.12313
1.12251
1.12209
1.1218
1.12161
1.12151
1.1215
1.12159
1.12178
1.12205
1.1224
1.12283
1.12334
1.12392
1.12456
1.12525
1.12599
1.12672
1.12746
1.12818
1.12887
1.12948
1.12985
1.1299
1.12952
1.12888
1.12809
1.12729
1.1266
1.12606
1.12575
1.12567
1.1258
1.12617
1.1268
1.12776
1.12899
1.13046
1.132
1.13367
1.13539
1.13707
1.13875
1.14039
1.14201
1.14357
1.14507
1.1465
1.14783
1.14906
1.15017
1.15116
1.15203
1.15278
1.15343
1.15399
1.15446
1.27373
1.27221
1.27032
1.26787
1.26462
1.26036
1.25483
1.24786
1.23937
1.22939
1.21813
1.20598
1.19346
1.18133
1.17048
1.16157
1.15473
1.14974
1.14612
1.14344
1.14132
1.13955
1.13804
1.13687
1.13595
1.13519
1.13437
1.13347
1.13247
1.13136
1.13019
1.12901
1.12785
1.12675
1.12577
1.12495
1.12433
1.12387
1.12355
1.12336
1.12329
1.12332
1.12349
1.12379
1.1242
1.12471
1.12532
1.12603
1.12682
1.12766
1.12853
1.12942
1.1303
1.13114
1.13184
1.13222
1.13226
1.13195
1.1315
1.13103
1.13065
1.13049
1.13053
1.13085
1.13149
1.13248
1.1338
1.13535
1.13707
1.13883
1.1406
1.14234
1.14405
1.14574
1.14739
1.14901
1.1506
1.15214
1.15362
1.155
1.15628
1.15742
1.15843
1.15931
1.16007
1.16071
1.16125
1.1617
1.26251
1.25802
1.25248
1.24572
1.23765
1.22835
1.21796
1.20688
1.1957
1.18504
1.1756
1.1679
1.16204
1.15775
1.15458
1.15212
1.15013
1.14841
1.14687
1.14559
1.14455
1.14368
1.14297
1.14228
1.14159
1.14085
1.14
1.13904
1.13798
1.13682
1.13559
1.1343
1.13298
1.13166
1.13036
1.12914
1.12805
1.1271
1.12634
1.12576
1.12535
1.12509
1.12497
1.12497
1.12511
1.12539
1.12583
1.1264
1.12712
1.12796
1.12889
1.1299
1.13094
1.13202
1.13307
1.13406
1.13486
1.13529
1.13543
1.13539
1.13535
1.1354
1.13564
1.1362
1.13707
1.13832
1.13986
1.14159
1.14343
1.14531
1.14712
1.14888
1.15064
1.15237
1.15407
1.15573
1.15737
1.15896
1.16049
1.16193
1.16326
1.16444
1.16549
1.16638
1.16714
1.16778
1.16831
1.16875
1.23126
1.22151
1.21131
1.20101
1.19113
1.1822
1.1747
1.16884
1.16468
1.16188
1.15997
1.1584
1.15705
1.15585
1.15471
1.15373
1.15292
1.15223
1.15164
1.15103
1.15036
1.14965
1.14886
1.14797
1.14701
1.14599
1.14491
1.14379
1.14262
1.14141
1.14016
1.13889
1.13761
1.13633
1.13505
1.13378
1.13254
1.13133
1.1302
1.1292
1.12838
1.12773
1.12725
1.12694
1.12681
1.12682
1.12698
1.12733
1.12786
1.12857
1.12944
1.13046
1.13158
1.13279
1.13405
1.13535
1.13663
1.13783
1.13881
1.13943
1.13988
1.14035
1.14095
1.14178
1.14285
1.14424
1.14585
1.14761
1.14947
1.15138
1.15325
1.15507
1.1569
1.1587
1.16048
1.16221
1.16391
1.16556
1.16714
1.16863
1.17
1.17123
1.17231
1.17323
1.17401
1.17465
1.17518
1.17561
1.18551
1.17737
1.17105
1.16647
1.16347
1.16167
1.16059
1.15992
1.15944
1.15911
1.15888
1.15876
1.15867
1.15861
1.15857
1.15846
1.15821
1.15786
1.15738
1.15675
1.15599
1.1551
1.1541
1.153
1.15184
1.15064
1.14942
1.14818
1.14694
1.14568
1.14443
1.14319
1.14195
1.14074
1.13956
1.13838
1.1372
1.136
1.1348
1.13359
1.13243
1.13137
1.13048
1.12977
1.12927
1.12898
1.1289
1.12898
1.12925
1.12973
1.13042
1.13132
1.13239
1.13363
1.135
1.13649
1.13806
1.1397
1.14132
1.14284
1.14412
1.14516
1.1462
1.14739
1.14868
1.15013
1.15172
1.15341
1.15522
1.15712
1.15905
1.16094
1.16284
1.16474
1.16662
1.16845
1.17022
1.17193
1.17355
1.17508
1.17649
1.17776
1.17888
1.17984
1.18064
1.18131
1.18185
1.18228
1.16576
1.1633
1.16154
1.16032
1.15953
1.15913
1.15908
1.15937
1.15986
1.16045
1.16112
1.16179
1.16236
1.1628
1.16306
1.16315
1.16304
1.16271
1.16219
1.1615
1.16068
1.15974
1.15869
1.15756
1.15636
1.15512
1.15385
1.15258
1.1513
1.15002
1.14875
1.14749
1.14626
1.14506
1.1439
1.14278
1.14169
)
;

boundaryField
{
    inlet
    {
        type            fixedValue;
        value           nonuniform 0();
    }
    outlet
    {
        type            inletOutlet;
        inletValue      nonuniform 0();
        value           nonuniform 0();
    }
    bottom
    {
        type            symmetryPlane;
    }
    top
    {
        type            symmetryPlane;
    }
    obstacle
    {
        type            zeroGradient;
    }
    front
    {
        type            empty;
    }
    back
    {
        type            empty;
    }
    procBoundary4to3
    {
        type            processor;
        value           nonuniform List<scalar> 
27
(
1.28024
1.27728
1.27324
1.26816
1.26304
1.25833
1.25401
1.25146
1.2505
1.25101
1.25348
1.25694
1.26
1.26246
1.26458
1.2666
1.26864
1.2707
1.27265
1.27444
1.27608
1.27707
1.27728
1.27497
1.26615
1.24027
1.19507
)
;
    }
    procBoundary4to5
    {
        type            processor;
        value           nonuniform List<scalar> 
27
(
0.92654
0.927579
0.929917
0.934797
0.94661
0.965479
0.983531
0.996662
1.00667
1.01678
1.03026
1.04689
1.06334
1.07729
1.08874
1.09857
1.10752
1.11601
1.1242
1.13215
1.1399
1.14747
1.15487
1.16208
1.16912
1.17596
1.18263
)
;
    }
    procBoundary4to11
    {
        type            processor;
        value           uniform 1.16918;
    }
    procBoundary4to12
    {
        type            processor;
        value           nonuniform List<scalar> 
89
(
1.1406
1.13948
1.13832
1.13712
1.13589
1.1347
1.1336
1.13268
1.13198
1.13154
1.13136
1.13138
1.13158
1.13202
1.13269
1.1336
1.13475
1.13612
1.13771
1.13946
1.14139
1.14341
1.14551
1.14757
1.14953
1.15121
1.15275
1.15428
1.15583
1.15739
1.15902
1.16076
1.16263
1.1646
1.16656
1.16854
1.17054
1.17252
1.17444
1.17629
1.17805
1.17972
1.18128
1.18273
1.18404
1.18519
1.18618
1.18702
1.1877
1.18826
1.1887
1.16586
1.16409
1.16273
1.16184
1.16135
1.16121
1.16145
1.16196
1.16267
1.16344
1.16422
1.16493
1.16555
1.16602
1.16635
1.16649
1.16648
1.16628
1.16589
1.16534
1.16464
1.16382
1.16288
1.16186
1.16075
1.15957
1.15835
1.15709
1.15582
1.15454
1.15325
1.15196
1.15069
1.14945
1.14825
1.14711
1.1406
1.14602
)
;
    }
}


// ************************************************************************* //
