/*--------------------------------*- C++ -*----------------------------------*\
  =========                 |
  \\      /  F ield         | OpenFOAM: The Open Source CFD Toolbox
   \\    /   O peration     | Website:  https://openfoam.org
    \\  /    A nd           | Version:  7
     \\/     M anipulation  |
\*---------------------------------------------------------------------------*/
FoamFile
{
    version     2.0;
    format      ascii;
    class       surfaceScalarField;
    location    "10";
    object      phi;
}
// * * * * * * * * * * * * * * * * * * * * * * * * * * * * * * * * * * * * * //

dimensions      [0 3 -1 0 0 0 0];

internalField   nonuniform List<scalar> 
728
(
0.0196583
0.000350331
2.60739e-05
0.0193065
0.000273302
7.85118e-05
0.0189782
0.000216613
0.000111664
0.0186722
0.000174295
0.000131725
0.0183869
0.000136071
0.000149249
0.0181206
9.75099e-05
0.000168767
0.0178718
5.4099e-05
0.000194677
0.0176389
9.12506e-06
0.000223755
0.0174207
-4.65678e-05
0.000264839
0.0172153
-9.87029e-05
0.000304066
0.0170218
-0.000174455
0.000367905
0.016839
-0.000239083
0.000421939
0.0166641
-0.000324796
0.000499692
0.0165001
-0.000450981
0.000614961
-0.000487718
0.000648099
0.0196951
0.000689973
0.0193774
0.000590937
0.0190809
0.00051313
0.0188044
0.000450806
0.0185465
0.000393974
0.0183057
0.000338304
0.0180806
0.000279194
0.0178697
0.000220032
0.0176718
0.000151315
0.0174854
8.77054e-05
0.0173095
1.4485e-06
0.0171433
-7.28372e-05
0.0169832
-0.000164728
0.0168331
-0.000300887
-0.000340449
0.0197308
0.000993873
0.0194464
0.000875338
0.0191808
0.000778758
0.018933
0.00069861
0.0187017
0.000625194
0.0184858
0.000554291
0.0182837
0.000481235
0.0180943
0.000409472
0.0179163
0.000329256
0.0177486
0.000255397
0.0175897
0.000160345
0.0174398
7.71227e-05
0.0172948
-1.97297e-05
0.0171585
-0.000164598
-0.000206458
0.0197655
0.00126308
0.0195133
0.00112748
0.0192777
0.0010144
0.0190578
0.000918552
0.0188524
0.000830521
0.0186605
0.00074621
0.0184808
0.000660914
0.0183122
0.000578096
0.0181536
0.000487839
0.018004
0.000405021
0.0178618
0.000302509
0.0177277
0.000211285
0.0175969
0.000111053
0.0174743
-4.20067e-05
-8.54449e-05
0.0197991
0.00149867
0.0195782
0.00134837
0.0193716
0.001221
0.0191787
0.00111149
0.0189985
0.00101075
0.0188299
0.000914797
0.0186719
0.000818901
0.0185234
0.000726539
0.0183836
0.000627694
0.0182514
0.000537168
0.0181254
0.00042853
0.0180065
0.000330173
0.01789
0.000227627
0.01778
6.79458e-05
2.2721e-05
0.0198316
0.00170174
0.019641
0.00153901
0.0194625
0.00139949
0.0192957
0.00127831
0.0191397
0.0011667
0.0189937
0.00106081
0.0188567
0.000955902
0.0187278
0.000855453
0.0186061
0.000749419
0.0184909
0.000652361
0.0183805
0.000538933
0.0182763
0.000434375
0.0181733
0.000330562
0.018076
0.000165294
0.00011888
0.019863
0.00187341
0.0197016
0.00170046
0.0195502
0.00155084
0.0194086
0.00141991
0.0192761
0.00129921
0.0191519
0.00118503
0.0190352
0.00107264
0.0189251
0.000965508
0.0188209
0.000853635
0.0187221
0.000751191
0.0186268
0.000634223
0.0185368
0.00052439
0.018447
0.000420291
0.0183615
0.000250794
0.000203089
0.0198933
0.00201482
0.01976
0.00183377
0.0196348
0.00167603
0.0195175
0.00153721
0.0194076
0.00140913
0.0193043
0.00128824
0.0192071
0.00116985
0.0191153
0.00105739
0.0190279
0.000940975
0.0189449
0.000834256
0.0188642
0.000714928
0.0187878
0.000600776
0.0187108
0.000497231
0.0186368
0.000324841
0.000275968
0.0199224
0.00212714
0.0198161
0.00194003
0.0197161
0.00177609
0.0196221
0.00163113
0.019534
0.00149732
0.0194509
0.00137125
0.0193725
0.00124828
0.0192981
0.00113179
0.019227
0.00101209
0.0191591
0.000902167
0.0190924
0.000781588
0.0190291
0.000664091
0.0189645
0.000561821
0.0189015
0.000387843
0.000337888
0.0199503
0.00221155
0.01987
0.00202033
0.0197941
0.00185201
0.0197226
0.00170263
0.0196552
0.00156467
0.0195916
0.00143488
0.0195312
0.0013087
0.0194735
0.00118942
0.019418
0.00106762
0.0193646
0.000955546
0.0193114
0.000834754
0.0192606
0.000714898
0.0192079
0.000614521
0.0191555
0.000440258
0.000389457
0.019977
0.00226924
0.0199215
0.00207579
0.0198687
0.00190486
0.0198187
0.00175267
0.0197712
0.00161208
0.0197262
0.00147997
0.019683
0.00135187
0.0196414
0.00123101
0.0196008
0.00110826
0.0195613
0.000995026
0.019521
0.000874987
0.0194822
0.000753768
0.0194409
0.000655815
0.0193986
0.000482556
0.000431153
0.0200025
0.00230144
0.0199707
0.00210755
0.0199399
0.00193566
0.0199104
0.00178224
0.019882
0.00164046
0.0198546
0.00150735
0.0198279
0.0013786
0.0198016
0.00125728
0.0197752
0.00113466
0.019749
0.00102125
0.0197211
0.000902862
0.0196936
0.000781272
0.0196632
0.000686202
0.0196306
0.00051519
0.000463443
0.0200267
0.0023094
0.0200175
0.00211676
0.0200077
0.00194551
0.0199976
0.00179232
0.0199873
0.00165072
0.0199768
0.00151791
0.0199657
0.00138967
0.019954
0.00126898
0.0199411
0.00114753
0.0199275
0.00103487
0.0199114
0.000918961
0.0198947
0.000797983
0.0198747
0.000706199
0.0198513
0.000538621
0.0198279
0.000486824
0.000273449
0.0200497
0.00229435
0.0200619
0.00210458
0.020072
0.00193548
0.0200803
0.00178393
0.0200872
0.00164382
0.0200927
0.00151249
0.0200964
0.00138589
0.0200986
0.00126687
0.0200985
0.00114756
0.0200968
0.00103655
0.0200919
0.000923881
0.0200854
0.000804478
0.0200753
0.000716336
0.0200606
0.000553307
0.0200456
0.000501798
0.000298409
0.0200715
0.00225757
0.0201039
0.00207219
0.0201327
0.00190667
0.0201585
0.00175809
0.0201816
0.00162069
0.0202021
0.00149198
0.0202199
0.0013681
0.0202351
0.00125171
0.0202472
0.00113545
0.0202568
0.00102695
0.0202625
0.000918225
0.0202656
0.000801336
0.0202648
0.000717156
0.0202584
0.000559717
0.0202513
0.000508852
0.000315973
0.0200919
0.00220035
0.0201433
0.00202079
0.0201898
0.00186019
0.0202321
0.00171582
0.0202705
0.00158229
0.0203052
0.00145729
0.0203361
0.0013371
0.0203636
0.00122426
0.0203871
0.00111192
0.0204073
0.00100674
0.0204229
0.000902608
0.0204351
0.000789139
0.0204431
0.00070921
0.0204445
0.000558322
0.0204448
0.000508483
0.000326603
0.0201111
0.00212399
0.0201803
0.00195159
0.0202433
0.00179716
0.0203009
0.00165817
0.0203536
0.00152961
0.0204016
0.0014093
0.020445
0.00129376
0.0204839
0.00118532
0.0205181
0.0010777
0.0205483
0.000976616
0.0205732
0.000877654
0.0205939
0.000768469
0.02061
0.00069306
0.0206188
0.000549601
0.0206261
0.000501182
0.000330735
0.0201289
0.0202147
0.00186581
0.0202931
0.00171872
0.0203651
0.0015862
0.0204311
0.0014636
0.0204915
0.00134892
0.0205463
0.0012389
0.020596
0.00113567
0.0206402
0.00103351
0.0206795
0.000937253
0.0207132
0.000843994
0.0207417
0.000739913
0.0207655
0.000669272
0.0207811
0.000534043
0.0207948
0.00048744
0.000328815
0.0202465
0.0203392
0.0204245
0.0205028
0.0205746
0.0206402
0.0206997
0.0207531
0.0208011
0.0208428
0.0208786
0.0209095
0.0209314
0.0209511
0.054389
-0.0005308
0.0543831
-0.000587874
0.0543841
-0.00069708
-0.000721243
0.0538552
-3.58545e-05
0.0538497
-0.000107723
0.053842
-0.000152555
0.0538332
-0.000179288
0.0538235
-0.000201622
0.0538132
-0.000226547
0.0538022
-0.000257551
0.0537903
-0.000294244
0.0537783
-0.000339262
0.0537654
-0.000389723
0.0537542
-0.000449023
0.0537426
-0.000519203
0.0537343
-0.000579607
0.0537318
-0.00069456
-0.000718498
0.0532262
-3.39633e-05
0.0532205
-0.000102074
0.0532126
-0.000144666
0.0532035
-0.000170175
0.0531936
-0.00019168
0.0531828
-0.000215735
0.0531712
-0.000245966
0.0531585
-0.000281559
0.0531455
-0.000326256
0.053131
-0.000375272
0.0531182
-0.000436186
0.0531037
-0.000504727
0.0530931
-0.000568993
0.0530865
-0.000687995
-0.000711506
0.0526045
-3.20353e-05
0.0525987
-9.63134e-05
0.0525906
-0.00013661
0.0525813
-0.000160834
0.0525711
-0.000181437
0.0525598
-0.000204508
0.0525477
-0.000233835
0.0525342
-0.000268091
0.0525202
-0.00031227
0.0525043
-0.000359319
0.0524899
-0.000421779
0.0524725
-0.00048737
0.0524595
-0.000556016
0.0524484
-0.000676877
-0.000700409
0.05199
-3.00747e-05
0.0519841
-9.04548e-05
0.0519759
-0.000128407
0.0519664
-0.000151291
0.0519559
-0.000170924
0.0519443
-0.000192902
0.0519316
-0.000221203
0.0519175
-0.000253899
0.0519025
-0.000297334
0.0518852
-0.000341983
0.0518691
-0.000405707
0.0518491
-0.000467372
0.0518336
-0.000540481
0.0518175
-0.000660821
-0.000685747
0.0513827
-2.80868e-05
0.0513768
-8.45147e-05
0.0513685
-0.000120083
0.0513588
-0.000141576
0.051348
-0.000160179
0.0513361
-0.000180966
0.051323
-0.000208129
0.0513082
-0.000239074
0.0512923
-0.000281489
0.0512738
-0.00032346
0.0512559
-0.000387804
0.0512338
-0.000445276
0.0512152
-0.00052191
0.0511943
-0.000639917
-0.000668146
0.0507826
0.0507766
0.0507681
0.0507583
0.0507474
0.0507352
0.0507217
0.0507064
0.0506897
0.0506703
0.0506504
0.0506271
0.0506049
0.0505799
)
;

boundaryField
{
    inlet
    {
        type            calculated;
        value           nonuniform List<scalar> 
24
(
-0.0200347
-0.0200347
-0.0200347
-0.0200347
-0.0200347
-0.0200347
-0.0200347
-0.0200347
-0.0200347
-0.0200347
-0.0200347
-0.0200347
-0.0200347
-0.0200347
-0.0200347
-0.0200347
-0.0200347
-0.0200347
-0.0538571
-0.0532281
-0.0526064
-0.051992
-0.0513847
-0.0507846
)
;
    }
    outlet
    {
        type            calculated;
        value           nonuniform 0();
    }
    cylinder
    {
        type            calculated;
        value           nonuniform 0();
    }
    top
    {
        type            symmetryPlane;
        value           nonuniform 0();
    }
    bottom
    {
        type            symmetryPlane;
        value           nonuniform 0();
    }
    defaultFaces
    {
        type            empty;
        value           nonuniform 0();
    }
    procBoundary16to8
    {
        type            processor;
        value           nonuniform List<scalar> 
16
(
0.00053965
0.000593749
0.000696057
0.000719921
3.77043e-05
0.000113245
0.000160254
0.000188146
0.000211233
0.000236911
0.000268552
0.000306101
0.000351254
0.000402612
-0.0543978
0.000460296
)
;
    }
    procBoundary16to17
    {
        type            processor;
        value           nonuniform List<scalar> 
22
(
0.0163397
0.0166858
0.0170245
0.0173533
0.0176718
0.0179798
0.0182773
0.0185639
0.0188396
0.019104
0.0193569
0.0195983
-0.000240707
0.0197952
0.0200207
0.0543855
0.053729
0.0530796
0.0524373
0.0518029
0.0511767
0.0505599
)
;
    }
    procBoundary16to24
    {
        type            processor;
        value           nonuniform List<scalar> 
17
(
0.00202979
-0.0201454
0.00176467
0.001626
0.00150097
0.00138527
0.00127709
0.00117338
0.00107611
0.000980084
0.000889345
0.000802269
0.000704062
0.000638422
0.00051214
0.000467751
0.000321288
)
;
    }
    procBoundary16to25
    {
        type            processor;
        value           nonuniform List<scalar> 5(0.0202338 0.0204342 0.0206219 0.0207968 0.0209586);
    }
}


// ************************************************************************* //
