/*--------------------------------*- C++ -*----------------------------------*\
  =========                 |
  \\      /  F ield         | OpenFOAM: The Open Source CFD Toolbox
   \\    /   O peration     | Website:  https://openfoam.org
    \\  /    A nd           | Version:  7
     \\/     M anipulation  |
\*---------------------------------------------------------------------------*/
FoamFile
{
    version     2.0;
    format      ascii;
    class       volVectorField;
    location    "4";
    object      U;
}
// * * * * * * * * * * * * * * * * * * * * * * * * * * * * * * * * * * * * * //

dimensions      [0 1 -1 0 0 0 0];

internalField   nonuniform List<vector> 
2413
(
(2 -1.14774e-15 0)
(2 -1.49815e-15 0)
(2 -1.88355e-15 0)
(2 -2.17848e-15 0)
(2 -2.26931e-15 0)
(2 -1.81629e-15 0)
(2 -9.20275e-16 0)
(2 -1.43495e-15 0)
(2 -2.03797e-15 0)
(2 -2.20893e-15 0)
(2 -2.07119e-15 0)
(2 -1.99616e-15 0)
(2 -1.85302e-15 0)
(2 -1.99248e-15 0)
(2 -2.53355e-15 0)
(2 -2.66405e-15 0)
(2 -2.77457e-15 0)
(2 -3.15501e-15 0)
(2 -2.94721e-15 0)
(2 -2.87542e-15 0)
(2 -2.99367e-15 0)
(2 -3.13219e-15 0)
(2 -3.36404e-15 0)
(2 -3.28511e-15 0)
(2 -3.28885e-15 0)
(2 -3.14632e-15 0)
(2 -3.27634e-15 0)
(2 -2.87167e-15 0)
(2 -2.60439e-15 0)
(2 -2.2638e-15 0)
(2 -2.24976e-15 0)
(2 -1.85815e-15 0)
(2 -1.18201e-15 0)
(2 -9.68145e-16 0)
(2 -6.59751e-16 0)
(2 -6.3513e-16 0)
(2 -5.91595e-16 0)
(2 -5.96382e-16 0)
(2 -6.46821e-16 0)
(2 -5.70896e-16 0)
(2 -9.99097e-17 0)
(2 2.83831e-16 0)
(2 2.41471e-16 0)
(2 6.67218e-17 0)
(2 2.57599e-16 0)
(2 7.02036e-16 0)
(2 -5.60766e-17 0)
(2 -2.54418e-16 0)
(2 -6.38338e-16 0)
(2 -8.29848e-16 0)
(2 -7.86391e-16 0)
(2 -6.40732e-17 0)
(2 8.38926e-17 0)
(2 -5.75378e-17 0)
(2 -2.77303e-16 0)
(2 -3.85097e-16 0)
(2 -9.81075e-16 0)
(2 -1.29977e-15 0)
(2 -2.11886e-15 0)
(2 -2.75616e-15 0)
(2 -3.334e-15 0)
(2 -3.56786e-15 0)
(2 -3.31431e-15 0)
(2 -3.37035e-15 0)
(2 -3.17522e-15 0)
(2 -2.94449e-15 0)
(2 -2.95419e-15 0)
(2 -3.16791e-15 0)
(2 -3.6243e-15 0)
(2 -3.25642e-15 0)
(2 -2.16334e-15 0)
(2 -1.54329e-15 0)
(2 4.59102e-16 0)
(2 4.12341e-16 0)
(2 2.81092e-16 0)
(2 3.67337e-17 0)
(2 -8.22019e-17 0)
(2 -4.44416e-16 0)
(2 -5.44082e-16 0)
(2 -5.73915e-16 0)
(2 -5.78116e-16 0)
(2 -4.13609e-16 0)
(2 -4.69414e-16 0)
(2 -9.9855e-16 0)
(2 -1.12534e-15 0)
(2 -1.48917e-15 0)
(2 -1.6466e-15 0)
(2 -1.65346e-15 0)
(2 -1.41065e-15 0)
(2 -7.65273e-16 0)
(2 -2.86292e-16 0)
(2 8.10051e-17 0)
(2 1.43052e-17 0)
(2 5.90347e-16 0)
(2 7.66124e-16 0)
(2 8.99577e-16 0)
(2 9.21741e-16 0)
(2 8.53926e-16 0)
(2 5.8685e-16 0)
(2 -1.39273e-16 0)
(2 -4.68965e-16 0)
(2 -1.87863e-16 0)
(2 4.75737e-17 0)
(2 3.12732e-16 0)
(2 6.23043e-16 0)
(2 5.96876e-16 0)
(2 3.4406e-16 0)
(2 -5.97134e-18 0)
(2 -1.69201e-16 0)
(2 -4.81214e-17 0)
(2 -1.61245e-17 0)
(2 8.67937e-17 0)
(2 1.83666e-16 0)
(2 -5.58813e-16 0)
(2 -8.40249e-16 0)
(2 -9.99888e-16 0)
(2 -1.00825e-15 0)
(2 -8.39419e-16 0)
(2 -6.87367e-16 0)
(2 -3.96983e-16 0)
(2 1.90587e-17 0)
(2 4.95179e-16 0)
(2 -4.49946e-16 0)
(2 -1.47405e-15 0)
(2 -1.64334e-15 0)
(2 -1.94358e-15 0)
(2 -2.10434e-15 0)
(2 -2.06445e-15 0)
(2 -1.97854e-15 0)
(2 -1.78079e-15 0)
(2 -1.83587e-15 0)
(2 -1.97487e-15 0)
(2 -2.33953e-15 0)
(2 -2.62021e-15 0)
(2 -2.2728e-15 0)
(2 -1.9194e-15 0)
(2 -1.71428e-15 0)
(2 -1.69748e-15 0)
(2 -1.82639e-15 0)
(2 -1.50458e-15 0)
(2 -1.3897e-15 0)
(2 -1.34908e-15 0)
(2 -1.42156e-15 0)
(2 -1.23376e-15 0)
(2 -9.98742e-16 0)
(2 -8.96055e-16 0)
(2 -7.71053e-16 0)
(2 -5.9806e-16 0)
(2 -7.38724e-16 0)
(2 -8.39945e-16 0)
(2 -6.39054e-16 0)
(2 -4.62753e-16 0)
(2 -1.99464e-16 0)
(2 9.6072e-18 0)
(2 2.18415e-16 0)
(2 2.751e-16 0)
(2 3.41763e-16 0)
(2 5.39655e-16 0)
(2 5.41051e-16 0)
(2 5.98763e-16 0)
(2 5.55455e-16 0)
(2 4.17616e-16 0)
(2 7.19237e-16 0)
(2 5.70371e-16 0)
(2 -9.19668e-16 0)
(2 -1.48335e-15 0)
(2 -1.25643e-15 0)
(2 -8.79772e-16 0)
(2 -4.47768e-16 0)
(2 -2.13164e-16 0)
(2 -1.7511e-16 0)
(2 -3.6451e-16 0)
(2 -4.75835e-16 0)
(2 -6.27141e-16 0)
(2 -6.57161e-16 0)
(2 -5.79181e-16 0)
(2 -1.52736e-15 0)
(2 -2.28415e-15 0)
(2 -2.42782e-15 0)
(2 -2.81644e-15 0)
(2 -3.36807e-15 0)
(2 -3.18611e-15 0)
(2 -2.9864e-15 0)
(2 -3.13477e-15 0)
(2 -3.19717e-15 0)
(2 -3.29881e-15 0)
(2 -2.76483e-15 0)
(2 -2.37781e-15 0)
(2 -2.11665e-15 0)
(2 -2.1897e-15 0)
(2 -2.3798e-15 0)
(2 -2.59485e-15 0)
(2 3.58622e-17 0)
(2 -1.0599e-16 0)
(2 -2.12082e-16 0)
(2 -3.30402e-16 0)
(2 -5.01265e-16 0)
(2 -5.89723e-16 0)
(2 -5.95229e-16 0)
(2 -5.5506e-16 0)
(2 -5.74503e-16 0)
(2 -4.09481e-16 0)
(2 -7.55846e-17 0)
(2 6.894e-16 0)
(2 8.40188e-16 0)
(2 9.24709e-16 0)
(2 9.29008e-16 0)
(2 8.56749e-16 0)
(2 8.00627e-16 0)
(2 5.5628e-16 0)
(2 2.60765e-16 0)
(2 1.03695e-16 0)
(2 5.6827e-16 0)
(2 2.12154e-15 0)
(2 2.28173e-15 0)
(2 2.15924e-15 0)
(2 2.45477e-15 0)
(2 2.69768e-15 0)
(2 2.62951e-15 0)
(2 2.10133e-15 0)
(2 1.50892e-15 0)
(2 5.97476e-16 0)
(2 8.89172e-17 0)
(2 -3.0402e-16 0)
(2 -8.85215e-16 0)
(2 -9.40165e-16 0)
(2 -9.22222e-16 0)
(2 -9.69242e-16 0)
(2 -9.90105e-16 0)
(2 -9.79286e-16 0)
(2 -9.67594e-16 0)
(2 -7.80435e-16 0)
(2 -7.46842e-16 0)
(2 -7.94372e-16 0)
(2 -1.02411e-15 0)
(2 -1.20298e-15 0)
(2 -1.38084e-15 0)
(2 -1.4937e-15 0)
(2 -1.38642e-15 0)
(2 -1.16671e-15 0)
(2 -1.2453e-15 0)
(2 -9.33631e-16 0)
(2 -6.30831e-16 0)
(2 -7.86015e-16 0)
(2 -8.27029e-16 0)
(2 -8.37531e-16 0)
(2 -1.29809e-15 0)
(2 -1.93334e-15 0)
(2 -2.14046e-15 0)
(2 -2.40856e-15 0)
(2 -2.93474e-15 0)
(2 -3.09667e-15 0)
(2 -3.50934e-15 0)
(2 -3.54117e-15 0)
(2 -3.35083e-15 0)
(2 -3.21607e-15 0)
(2 -2.68623e-15 0)
(2 -2.03812e-15 0)
(2 -1.60731e-15 0)
(2 -1.15827e-15 0)
(2 -8.33773e-16 0)
(2 -3.53296e-16 0)
(2 1.09714e-16 0)
(2 3.26129e-16 0)
(2 3.72196e-16 0)
(2 2.14533e-16 0)
(2 1.09478e-16 0)
(2 2.77911e-17 0)
(2 1.27678e-16 0)
(2 1.26839e-16 0)
(2 1.67126e-16 0)
(2 1.02604e-16 0)
(2 1.35365e-16 0)
(2 -7.86019e-17 0)
(2 -2.07686e-16 0)
(2 -2.27054e-16 0)
(2 -1.79129e-16 0)
(2 -5.48163e-17 0)
(2 2.37051e-17 0)
(2 2.58382e-17 0)
(2 -2.74644e-16 0)
(2 -4.90004e-16 0)
(2 -7.74952e-16 0)
(2 -7.3842e-16 0)
(2 -9.59396e-16 0)
(2 -8.52556e-16 0)
(2 -8.16973e-16 0)
(2 -2.76995e-16 0)
(2 -8.56676e-17 0)
(2 -8.30249e-18 0)
(2 1.04598e-16 0)
(2 -9.86732e-16 0)
(2 -1.45503e-15 0)
(2 -1.72022e-15 0)
(2 -2.08577e-15 0)
(2 -2.39482e-15 0)
(2 -2.75628e-15 0)
(2 -2.84373e-15 0)
(2 -3.01517e-15 0)
(2 -3.27896e-15 0)
(2 -2.70929e-15 0)
(2 -1.94216e-15 0)
(2 -1.48475e-15 0)
(2 -1.53038e-15 0)
(2 -2.17308e-15 0)
(2 -2.43318e-15 0)
(2 -2.32994e-15 0)
(2 -1.76089e-15 0)
(2 -1.55711e-15 0)
(2 -1.64596e-15 0)
(2 -1.5667e-15 0)
(2 -1.78392e-15 0)
(2 3.45308e-16 0)
(2 4.06362e-16 0)
(2 4.01173e-16 0)
(2 4.76825e-16 0)
(2 6.06333e-16 0)
(2 6.00889e-16 0)
(2 5.91373e-16 0)
(2 6.67675e-16 0)
(2 1.11065e-15 0)
(2 1.22954e-15 0)
(2 1.49815e-15 0)
(2 1.67508e-15 0)
(2 2.07187e-15 0)
(2 2.49587e-15 0)
(2 2.59254e-15 0)
(2 2.75002e-15 0)
(2 2.67626e-15 0)
(2 2.35649e-15 0)
(2 1.98548e-15 0)
(2 1.7903e-15 0)
(2 1.91001e-15 0)
(2 1.63601e-15 0)
(2 1.95989e-15 0)
(2 1.44331e-15 0)
(2 4.95587e-16 0)
(2 -3.42309e-16 0)
(2 -6.20645e-16 0)
(2 -4.23069e-16 0)
(2 -4.02776e-16 0)
(2 -5.33934e-16 0)
(2 -5.815e-16 0)
(2 -5.50429e-16 0)
(2 -5.5227e-16 0)
(2 -4.8345e-16 0)
(2 -3.88315e-16 0)
(2 -1.91873e-16 0)
(2 -1.34773e-16 0)
(2 1.28404e-16 0)
(2 -2.21752e-16 0)
(2 -6.39804e-16 0)
(2 -8.23162e-16 0)
(2 -9.09069e-16 0)
(2 -4.12894e-16 0)
(2 -1.51726e-16 0)
(2 -1.85269e-16 0)
(2 -2.88629e-17 0)
(2 6.94302e-16 0)
(2 9.45296e-16 0)
(2 1.62165e-15 0)
(2 2.39165e-15 0)
(2 2.06857e-15 0)
(2 1.37135e-15 0)
(2 1.1865e-15 0)
(2 1.81441e-16 0)
(2 -4.1291e-16 0)
(2 -8.81757e-16 0)
(2 -9.53756e-16 0)
(2 -9.93367e-16 0)
(2 -7.74911e-16 0)
(2 -1.76917e-15 0)
(2 -2.2659e-15 0)
(2 -2.44559e-15 0)
(2 -2.26793e-15 0)
(2 -1.69958e-15 0)
(2 -1.1135e-15 0)
(2 -4.86575e-16 0)
(2 -2.87657e-16 0)
(2 -3.39559e-16 0)
(2 -3.06913e-16 0)
(2 -2.65578e-16 0)
(2 -2.24401e-16 0)
(2 -1.15252e-16 0)
(2 -2.25283e-16 0)
(2 -4.8992e-16 0)
(2 -6.7658e-16 0)
(2 -8.05714e-16 0)
(2 -8.25313e-16 0)
(2 -9.46645e-16 0)
(2 -1.17857e-15 0)
(2 -1.17149e-15 0)
(2 -9.84146e-16 0)
(2 -8.88538e-16 0)
(2 -1.05563e-15 0)
(2 -9.54669e-16 0)
(2 -8.42108e-16 0)
(2 -8.14727e-16 0)
(2 -9.20146e-16 0)
(2 -1.00503e-15 0)
(2 -1.32713e-15 0)
(2 -1.51671e-15 0)
(2 -1.55146e-15 0)
(2 -1.49612e-15 0)
(2 -9.76159e-16 0)
(2 -8.36783e-16 0)
(2 -4.62038e-16 0)
(2 -3.29518e-16 0)
(2 -1.36008e-16 0)
(2 4.08367e-17 0)
(2 3.34267e-16 0)
(2 3.8488e-16 0)
(2 2.95509e-16 0)
(2 1.61908e-17 0)
(2 -1.1864e-16 0)
(2 -4.95202e-16 0)
(2 -6.76496e-16 0)
(2 -1.13565e-15 0)
(2 -1.51862e-15 0)
(2 -1.44877e-15 0)
(2 -6.94165e-16 0)
(2 -4.30985e-16 0)
(2 3.30744e-16 0)
(2 7.45302e-16 0)
(2 9.903e-16 0)
(2 1.11248e-15 0)
(2 1.14221e-15 0)
(2 1.18702e-15 0)
(2 1.03398e-15 0)
(2 9.72382e-16 0)
(2 1.02194e-15 0)
(2 1.03518e-15 0)
(2 4.94639e-16 0)
(2 6.2565e-16 0)
(2 8.64609e-16 0)
(2 1.1178e-15 0)
(2 1.43349e-15 0)
(2 1.78148e-15 0)
(2 1.87961e-15 0)
(2 1.82873e-15 0)
(2 2.16355e-15 0)
(2 2.43904e-15 0)
(2 2.30769e-15 0)
(2 2.09372e-15 0)
(2 1.8606e-15 0)
(2 1.95871e-15 0)
(2 1.95117e-15 0)
(2 2.06441e-15 0)
(2 2.06772e-15 0)
(2 2.14791e-15 0)
(2 2.45111e-15 0)
(2 2.36809e-15 0)
(2 1.719e-15 0)
(2 1.38526e-15 0)
(2 7.94246e-16 0)
(2 6.00057e-16 0)
(2 2.3407e-16 0)
(2 -3.35771e-18 0)
(2 -1.95134e-16 0)
(2 -2.92303e-16 0)
(2 -3.05821e-16 0)
(2 6.32318e-17 0)
(2 9.37772e-17 0)
(2 4.4387e-16 0)
(2 6.52957e-16 0)
(2 6.5912e-16 0)
(2 1.13974e-15 0)
(2 1.30081e-15 0)
(2 1.65484e-15 0)
(2 1.7549e-15 0)
(2 1.85451e-15 0)
(2 1.64193e-15 0)
(2 1.6204e-15 0)
(2 1.44635e-15 0)
(2 1.23997e-15 0)
(2 7.24696e-16 0)
(2 -6.58472e-17 0)
(2 -8.80761e-16 0)
(2 -1.07535e-15 0)
(2 -9.69253e-16 0)
(2 -6.13279e-16 0)
(2 -6.97068e-16 0)
(2 -7.01821e-16 0)
(2 -7.02261e-16 0)
(2 -9.30451e-16 0)
(2 -1.76088e-15 0)
(2 -2.43536e-15 0)
(2 -2.60528e-15 0)
(2 -2.84067e-15 0)
(2 -3.10011e-15 0)
(2 -2.64125e-15 0)
(2 -1.66076e-15 0)
(2 -5.90583e-16 0)
(2 1.82788e-16 0)
(2 2.80549e-16 0)
(2 4.77753e-16 0)
(2 6.44861e-16 0)
(2 8.54505e-16 0)
(2 8.10061e-16 0)
(2 1.93172e-16 0)
(2 8.61494e-17 0)
(2 -2.431e-16 0)
(2 -4.90012e-16 0)
(2 -6.30981e-16 0)
(2 -5.14132e-16 0)
(2 -2.92351e-16 0)
(2 -1.77788e-16 0)
(2 -1.53918e-16 0)
(2 -5.54347e-16 0)
(2 -5.99134e-16 0)
(2 -1.04249e-15 0)
(2 -1.1403e-15 0)
(2 -1.29426e-15 0)
(2 -1.34159e-15 0)
(2 -1.04521e-15 0)
(2 -1.01721e-15 0)
(2 -1.09836e-15 0)
(2 -1.13608e-15 0)
(2 -1.10577e-15 0)
(2 -9.56016e-16 0)
(2 -1.17558e-15 0)
(2 -1.56437e-15 0)
(2 -1.73661e-15 0)
(2 -1.99706e-15 0)
(2 -1.92469e-15 0)
(2 -1.77647e-15 0)
(2 -1.72231e-15 0)
(2 -1.68409e-15 0)
(2 -1.60578e-15 0)
(2 -1.4575e-15 0)
(2 -1.29889e-15 0)
(2 -1.20994e-15 0)
(2 -1.18781e-15 0)
(2 -9.59768e-16 0)
(2 -8.92484e-16 0)
(2 -8.03015e-16 0)
(2 -5.9765e-16 0)
(2 -3.86265e-16 0)
(2 -5.73622e-17 0)
(2 3.67305e-16 0)
(2 5.44782e-16 0)
(2 8.15195e-16 0)
(2 1.01612e-15 0)
(2 1.186e-15 0)
(2 1.38258e-15 0)
(2 1.87447e-15 0)
(2 2.06153e-15 0)
(2 2.0752e-15 0)
(2 1.96633e-15 0)
(2 2.27245e-15 0)
(2 2.20379e-15 0)
(2 2.26478e-15 0)
(2 4.10273e-16 0)
(2 4.00306e-16 0)
(2 2.24749e-16 0)
(2 -9.61534e-18 0)
(2 -8.01283e-18 0)
(2 -1.93574e-17 0)
(2 6.36861e-17 0)
(2 2.27021e-16 0)
(2 3.01965e-16 0)
(2 4.26738e-16 0)
(2 4.65759e-16 0)
(2 6.37471e-16 0)
(2 8.0461e-16 0)
(2 9.553e-16 0)
(2 1.06314e-15 0)
(2 1.06597e-15 0)
(2 9.53898e-16 0)
(2 4.58368e-16 0)
(2 3.68385e-16 0)
(2 7.61938e-17 0)
(2 -3.04097e-16 0)
(2 -6.40811e-16 0)
(2 -7.33439e-16 0)
(2 -5.70223e-16 0)
(2 -4.45191e-16 0)
(2 -4.93021e-16 0)
(2 -5.01947e-16 0)
(2 -2.24631e-16 0)
(2 1.3398e-16 0)
(2 2.11427e-16 0)
(2 2.4983e-16 0)
(2 6.56597e-16 0)
(2 6.12966e-16 0)
(2 7.61894e-16 0)
(2 8.06336e-16 0)
(2 7.06216e-16 0)
(2 6.10351e-16 0)
(2 6.73718e-16 0)
(2 8.21478e-16 0)
(2 1.04198e-15 0)
(2 1.34494e-15 0)
(2 1.46331e-15 0)
(2 9.68941e-16 0)
(2 -2.91318e-17 0)
(2 -5.39745e-16 0)
(2 -2.72639e-16 0)
(2 -5.50132e-16 0)
(2 -1.23576e-15 0)
(2 -1.92279e-15 0)
(2 -2.3018e-15 0)
(2 -2.6087e-15 0)
(2 -2.61656e-15 0)
(2 -1.9873e-15 0)
(2 -1.70962e-15 0)
(2 -1.45106e-15 0)
(2 -1.44322e-15 0)
(2 -1.52254e-15 0)
(2 -1.37631e-15 0)
(2 -1.10023e-15 0)
(2 -1.12045e-15 0)
(2 -6.78754e-16 0)
(2 4.60503e-16 0)
(2 8.20007e-16 0)
(2 9.55114e-16 0)
(2 9.07786e-16 0)
(2 6.01228e-16 0)
(2 5.71134e-16 0)
(2 6.0077e-16 0)
(2 2.12314e-16 0)
(2 -7.2818e-17 0)
(2 -1.92213e-16 0)
(2 -5.29657e-16 0)
(2 -8.18949e-16 0)
(2 -1.03947e-15 0)
(2 -1.24128e-15 0)
(2 -1.08884e-15 0)
(2 -1.02206e-15 0)
(2 -1.10772e-15 0)
(2 -1.15379e-15 0)
(2 -1.43142e-15 0)
(2 -1.5068e-15 0)
(2 -1.49409e-15 0)
(2 -1.40944e-15 0)
(2 -1.29445e-15 0)
(2 -1.13982e-15 0)
(2 -1.03089e-15 0)
(2 -9.54495e-16 0)
(2 -9.71713e-16 0)
(2 -8.31193e-16 0)
(2 -8.25336e-16 0)
(2 -7.63173e-16 0)
(2 -7.34895e-16 0)
(2 -7.9877e-16 0)
(2 -9.33053e-16 0)
(2 -1.07744e-15 0)
(2 -1.14578e-15 0)
(2 -1.36849e-15 0)
(2 -1.58837e-15 0)
(2 -1.66747e-15 0)
(2 -1.66571e-15 0)
(2 -1.55672e-15 0)
(2 -1.46651e-15 0)
(2 -1.44759e-15 0)
(2 -1.47548e-15 0)
(2 -1.05237e-15 0)
(2 -9.79768e-16 0)
(2 -8.05374e-16 0)
(2 -8.16013e-16 0)
(2 -8.45609e-16 0)
(2 -7.88994e-16 0)
(2 -6.32383e-16 0)
(2 -5.71346e-16 0)
(2 -2.24178e-16 0)
(2 1.12457e-16 0)
(2 8.5971e-16 0)
(2 1.36287e-15 0)
(2 1.59648e-15 0)
(2 1.59888e-15 0)
(2 1.62083e-15 0)
(2 1.72064e-15 0)
(2 -7.72189e-16 0)
(2 -9.37918e-16 0)
(2 -1.23565e-15 0)
(2 -1.39382e-15 0)
(2 -1.85141e-15 0)
(2 -2.28891e-15 0)
(2 -2.61697e-15 0)
(2 -2.67719e-15 0)
(2 -2.68064e-15 0)
(2 -2.93673e-15 0)
(2 -2.06535e-15 0)
(2 -1.23293e-15 0)
(2 -9.30987e-16 0)
(2 -8.70224e-16 0)
(2 -7.64388e-16 0)
(2 -7.76814e-16 0)
(2 -7.59491e-16 0)
(2 -6.8569e-16 0)
(2 -7.32217e-16 0)
(2 -7.68783e-16 0)
(2 -6.97422e-16 0)
(2 -7.73336e-16 0)
(2 -8.0076e-16 0)
(2 -9.83003e-16 0)
(2 -1.32555e-15 0)
(2 -1.41585e-15 0)
(2 -1.34803e-15 0)
(2 -1.27116e-15 0)
(2 -1.22427e-15 0)
(2 -1.28353e-15 0)
(2 -1.25469e-15 0)
(2 -1.21834e-15 0)
(2 -1.30425e-15 0)
(2 -1.13256e-15 0)
(2 -9.06413e-16 0)
(2 -8.23207e-16 0)
(2 -8.63302e-16 0)
(2 -1.11868e-15 0)
(2 -1.26652e-15 0)
(2 -6.42942e-16 0)
(2 -3.01844e-16 0)
(2 -2.23282e-16 0)
(2 -1.92164e-16 0)
(2 -1.93246e-16 0)
(2 -2.10015e-16 0)
(2 -3.21829e-16 0)
(2 -7.4557e-16 0)
(2 -2.30847e-15 0)
(2 -2.93774e-15 0)
(2 -2.94591e-15 0)
(2 -2.63215e-15 0)
(2 -2.18909e-15 0)
(2 -2.14565e-15 0)
(2 -1.86096e-15 0)
(2 -1.65902e-15 0)
(2 -1.68985e-15 0)
(2 -1.12655e-15 0)
(2 -8.5179e-16 0)
(2 -1.12024e-15 0)
(2 -1.25563e-15 0)
(2 -1.55924e-15 0)
(2 -1.79057e-15 0)
(2 -1.91005e-15 0)
(2 -1.66811e-15 0)
(2 -1.12473e-15 0)
(2 -8.7946e-16 0)
(2 -3.47319e-16 0)
(2 -2.27562e-16 0)
(2 -3.6222e-16 0)
(2 -7.02782e-16 0)
(2 -8.20807e-16 0)
(2 -1.07715e-15 0)
(2 -1.28622e-15 0)
(2 -1.39612e-15 0)
(2 -1.48071e-15 0)
(2 -1.32049e-15 0)
(2 -1.30784e-15 0)
(2 -1.21239e-15 0)
(2 -1.05108e-15 0)
(2 -9.24255e-16 0)
(2 -8.15894e-16 0)
(2 -6.89784e-16 0)
(2 -6.696e-16 0)
(2 -6.21608e-16 0)
(2 -6.26324e-16 0)
(2 -6.45833e-16 0)
(2 -6.92956e-16 0)
(2 -5.46206e-16 0)
(2 -3.02323e-16 0)
(2 -2.48078e-16 0)
(2 -2.59367e-16 0)
(2 -2.53658e-16 0)
(2 -3.3207e-16 0)
(2 -4.48257e-16 0)
(2 -5.15509e-16 0)
(2 -5.56703e-16 0)
(2 -6.29331e-16 0)
(2 -7.09313e-16 0)
(2 -6.62884e-16 0)
(2 -5.93563e-16 0)
(2 -5.9082e-16 0)
(2 -5.62282e-16 0)
(2 -1.3718e-16 0)
(2 -6.01069e-16 0)
(2 -1.58408e-15 0)
(2 -1.98435e-15 0)
(2 -1.73304e-15 0)
(2 -1.62927e-15 0)
(2 -1.05308e-15 0)
(2 -8.50876e-16 0)
(2 -1.09295e-15 0)
(2 -6.90458e-16 0)
(2 -4.03588e-16 0)
(2 -2.05708e-16 0)
(2 3.85243e-16 0)
(2 9.02259e-16 0)
(2 1.00974e-15 0)
(2 8.78312e-16 0)
(2 8.09646e-16 0)
(2 1.06014e-15 0)
(2 -3.0868e-15 0)
(2 -3.0695e-15 0)
(2 -2.98274e-15 0)
(2 -2.99832e-15 0)
(2 -3.1564e-15 0)
(2 -3.16194e-15 0)
(2 -3.63395e-15 0)
(2 -4.02274e-15 0)
(2 -4.19569e-15 0)
(2 -4.31105e-15 0)
(2 -4.18792e-15 0)
(2 -4.21619e-15 0)
(2 -4.3579e-15 0)
(2 -4.34847e-15 0)
(2 -4.28396e-15 0)
(2 -3.97424e-15 0)
(2 -3.66545e-15 0)
(2 -3.58736e-15 0)
(2 -3.43453e-15 0)
(2 -2.87787e-15 0)
(2 -2.71328e-15 0)
(2 -2.60642e-15 0)
(2 -2.69981e-15 0)
(2 -2.86745e-15 0)
(2 -3.07196e-15 0)
(2 -2.88748e-15 0)
(2 -2.45321e-15 0)
(2 -2.21523e-15 0)
(2 -2.22132e-15 0)
(2 -2.26499e-15 0)
(2 -2.3986e-15 0)
(2 -2.41648e-15 0)
(2 -2.23023e-15 0)
(2 -2.09797e-15 0)
(2 -2.07218e-15 0)
(2 -2.16705e-15 0)
(2 -2.27613e-15 0)
(2 -1.70708e-15 0)
(2 -1.49124e-15 0)
(2 -1.3608e-15 0)
(2 -1.02954e-15 0)
(2 -1.00721e-15 0)
(2 -5.39985e-16 0)
(2 -1.47446e-16 0)
(2 -2.5538e-16 0)
(2 -2.8856e-16 0)
(2 -2.31211e-16 0)
(2 -9.81846e-16 0)
(2 -3.27128e-15 0)
(2 -3.3793e-15 0)
(2 -3.4227e-15 0)
(2 -2.97767e-15 0)
(2 -2.82003e-15 0)
(2 -2.58754e-15 0)
(2 -2.39268e-15 0)
(2 -2.28323e-15 0)
(2 -2.15769e-15 0)
(2 -2.206e-15 0)
(2 -2.42999e-15 0)
(2 -2.57439e-15 0)
(2 -2.4255e-15 0)
(2 -2.25121e-15 0)
(2 -2.19534e-15 0)
(2 -2.08053e-15 0)
(2 -2.11478e-15 0)
(2 -2.11882e-15 0)
(2 -1.80917e-15 0)
(2 -1.50653e-15 0)
(2 -1.10816e-15 0)
(2 -9.86249e-16 0)
(2 -9.35154e-16 0)
(2 -8.3734e-16 0)
(2 -8.13282e-16 0)
(2 -1.57719e-16 0)
(2 3.79965e-16 0)
(2 7.23439e-16 0)
(2 6.14164e-16 0)
(2 3.57768e-16 0)
(2 3.74509e-16 0)
(2 3.55325e-16 0)
(2 2.86621e-16 0)
(2 2.45895e-16 0)
(2 2.93506e-16 0)
(2 3.02481e-16 0)
(2 2.88871e-16 0)
(2 2.24789e-16 0)
(2 2.29334e-16 0)
(2 2.75075e-16 0)
(2 3.41554e-16 0)
(2 4.79977e-16 0)
(2 2.07551e-17 0)
(2 -1.31889e-16 0)
(2 -7.58396e-17 0)
(2 7.56533e-17 0)
(2 1.83431e-16 0)
(2 3.46515e-16 0)
(2 3.84754e-16 0)
(2 8.03076e-17 0)
(2 -4.05525e-16 0)
(2 -6.76846e-16 0)
(2 -6.27587e-16 0)
(2 -4.70093e-16 0)
(2 -2.43821e-16 0)
(2 3.3977e-17 0)
(2 5.05701e-17 0)
(2 3.64503e-18 0)
(2 -3.39593e-17 0)
(2 3.10752e-16 0)
(2 5.77514e-16 0)
(2 7.36814e-16 0)
(2 7.29868e-16 0)
(2 7.83666e-16 0)
(2 8.75841e-16 0)
(2 6.65032e-16 0)
(2 4.21203e-16 0)
(2 3.46847e-16 0)
(2 4.61127e-16 0)
(2 6.89159e-16 0)
(2 7.52189e-16 0)
(2 8.97753e-16 0)
(2 -5.05642e-15 0)
(2 -5.3896e-15 0)
(2 -5.58408e-15 0)
(2 -5.54861e-15 0)
(2 -5.44989e-15 0)
(2 -5.43106e-15 0)
(2 -5.45161e-15 0)
(2 -5.43386e-15 0)
(2 -5.30927e-15 0)
(2 -5.19134e-15 0)
(2 -5.11524e-15 0)
(2 -5.02397e-15 0)
(2 -4.98285e-15 0)
(2 -5.04824e-15 0)
(2 -5.17347e-15 0)
(2 -5.1803e-15 0)
(2 -5.12272e-15 0)
(2 -5.06344e-15 0)
(2 -4.9197e-15 0)
(2 -4.81071e-15 0)
(2 -4.7352e-15 0)
(2 -4.58904e-15 0)
(2 -4.47161e-15 0)
(2 -4.17006e-15 0)
(2 -4.15956e-15 0)
(2 -4.1291e-15 0)
(2 -4.10283e-15 0)
(2 -3.49481e-15 0)
(2 -3.38669e-15 0)
(2 -3.24899e-15 0)
(2 -3.03323e-15 0)
(2 -2.82557e-15 0)
(2 -2.77318e-15 0)
(2 -2.88203e-15 0)
(2 -3.04791e-15 0)
(2 -3.20489e-15 0)
(2 -3.02992e-15 0)
(2 -2.78618e-15 0)
(2 -2.44693e-15 0)
(2 -2.44391e-15 0)
(2 -2.75268e-15 0)
(2 -3.03927e-15 0)
(2 -3.32224e-15 0)
(2 -3.45861e-15 0)
(2 -3.51934e-15 0)
(2 -2.88185e-15 0)
(2 -2.43168e-15 0)
(2 -1.99919e-15 0)
(2 -2.28198e-15 0)
(2 -2.57178e-15 0)
(2 -2.79329e-15 0)
(2 -3.22129e-15 0)
(2 -3.36597e-15 0)
(2 -2.38799e-15 0)
(2 -1.95203e-15 0)
(2 -1.53952e-15 0)
(2 -1.3381e-15 0)
(2 -1.74051e-15 0)
(2 -2.18367e-15 0)
(2 -2.45571e-15 0)
(2 -2.11482e-15 0)
(2 -1.78766e-15 0)
(2 -1.62238e-15 0)
(2 -1.73034e-15 0)
(2 -2.15946e-15 0)
(2 -2.57685e-15 0)
(2 -2.74711e-15 0)
(2 -2.38465e-15 0)
(2 -1.86382e-15 0)
(2 -1.69091e-15 0)
(2 -1.4125e-15 0)
(2 -1.27475e-15 0)
(2 -1.18748e-15 0)
(2 -9.84405e-16 0)
(2 -7.47277e-16 0)
(2 -5.7578e-16 0)
(2 -3.75577e-16 0)
(2 -5.21203e-16 0)
(2 -6.15268e-16 0)
(2 -3.54808e-16 0)
(2 4.05672e-17 0)
(2 1.98601e-16 0)
(2 3.65715e-16 0)
(2 3.14791e-16 0)
(2 3.90187e-16 0)
(2 7.9917e-16 0)
(2 9.13973e-16 0)
(2 6.35176e-16 0)
(2 4.16114e-16 0)
(2 4.18958e-16 0)
(2 6.25473e-16 0)
(2 6.78162e-16 0)
(2 6.66311e-16 0)
(2 5.51332e-16 0)
(2 2.63724e-16 0)
(2 9.74749e-17 0)
(2 -4.41512e-17 0)
(2 -2.63078e-16 0)
(2 -5.82295e-16 0)
(2 -6.90758e-16 0)
(2 -9.07131e-16 0)
(2 -8.76396e-16 0)
(2 -5.84664e-16 0)
(2 -3.29801e-16 0)
(2 5.30499e-17 0)
(2 2.30328e-16 0)
(2 4.32584e-16 0)
(2 2.88407e-16 0)
(2 1.66661e-16 0)
(2 7.66238e-17 0)
(2 -5.31258e-17 0)
(2 2.21504e-16 0)
(2 9.61913e-17 0)
(2 -3.3129e-16 0)
(2 -7.72022e-16 0)
(2 -1.03832e-15 0)
(2 -1.00374e-15 0)
(2 -6.7081e-16 0)
(2 -2.88702e-16 0)
(2 -2.63932e-16 0)
(2 -2.54198e-15 0)
(2 -2.65979e-15 0)
(2 -2.79383e-15 0)
(2 -2.91827e-15 0)
(2 -2.9759e-15 0)
(2 -3.02139e-15 0)
(2 -2.94385e-15 0)
(2 -2.84076e-15 0)
(2 -2.8353e-15 0)
(2 -3.00764e-15 0)
(2 -2.96924e-15 0)
(2 -2.81522e-15 0)
(2 -2.53284e-15 0)
(2 -2.29568e-15 0)
(2 -2.15366e-15 0)
(2 -2.13648e-15 0)
(2 -2.08649e-15 0)
(2 -2.01558e-15 0)
(2 -1.93895e-15 0)
(2 -1.56191e-15 0)
(2 -1.4046e-15 0)
(2 -1.22401e-15 0)
(2 -1.04699e-15 0)
(2 -9.92181e-16 0)
(2 -9.24913e-16 0)
(2 -1.19526e-15 0)
(2 -1.22068e-15 0)
(2 -1.45538e-15 0)
(2 -1.74063e-15 0)
(2 -1.95428e-15 0)
(2 -2.10709e-15 0)
(2 -2.24783e-15 0)
(2 -2.41233e-15 0)
(2 -2.5814e-15 0)
(2 -2.76627e-15 0)
(2 -2.87884e-15 0)
(2 -2.88835e-15 0)
(2 -2.84026e-15 0)
(2 -2.93718e-15 0)
(2 -3.74818e-15 0)
(2 -3.87526e-15 0)
(2 -4.16555e-15 0)
(2 -5.3199e-15 0)
(2 -5.97057e-15 0)
(2 -4.90915e-15 0)
(2 -3.49301e-15 0)
(2 -2.2247e-15 0)
(2 -1.87275e-15 0)
(2 -1.88569e-15 0)
(2 -1.79939e-15 0)
(2 -1.45964e-15 0)
(2 -1.36492e-15 0)
(2 -1.4674e-15 0)
(2 -1.31458e-15 0)
(2 -8.25157e-16 0)
(2 -3.29721e-16 0)
(2 -2.24007e-16 0)
(2 4.62617e-17 0)
(2 4.84758e-16 0)
(2 2.86881e-16 0)
(2 2.1598e-16 0)
(2 -2.97647e-16 0)
(2 -7.64422e-16 0)
(2 -1.21545e-15 0)
(2 -1.71676e-15 0)
(2 -2.38712e-15 0)
(2 -2.57114e-15 0)
(2 -2.6353e-15 0)
(2 -2.45028e-15 0)
(2 -2.2901e-15 0)
(2 -1.92609e-15 0)
(2 -1.60883e-15 0)
(2 -1.3352e-15 0)
(2 -9.31116e-16 0)
(2 -7.78724e-16 0)
(2 -1.62372e-15 0)
(2 -1.34715e-15 0)
(2 -8.41768e-16 0)
(2 -6.85068e-16 0)
(2 -5.93029e-16 0)
(2 -4.63004e-16 0)
(2 -2.55012e-16 0)
(2 -3.71176e-16 0)
(2 -5.60322e-16 0)
(2 -6.8454e-16 0)
(2 -6.3742e-16 0)
(2 -6.17038e-16 0)
(2 -4.52647e-16 0)
(2 -4.31325e-16 0)
(2 -1.99589e-16 0)
(2 2.78137e-16 0)
(2 4.39835e-16 0)
(2 4.25886e-16 0)
(2 3.87566e-16 0)
(2 2.18219e-16 0)
(2 1.76188e-16 0)
(2 2.68572e-17 0)
(2 -1.89387e-17 0)
(2 -1.71991e-16 0)
(2 -9.00423e-17 0)
(2 -2.59377e-16 0)
(2 -8.67883e-16 0)
(2 -8.87333e-16 0)
(2 -8.33295e-16 0)
(2 -7.59568e-16 0)
(2 -6.11764e-16 0)
(2 -3.15915e-16 0)
(2 -8.95017e-17 0)
(2 2.58618e-16 0)
(2 5.49666e-16 0)
(2 1.41785e-16 0)
(2 -1.63699e-16 0)
(2 -4.70702e-16 0)
(2 -6.58293e-16 0)
(2 -1.07638e-15 0)
(2 -1.37973e-15 0)
(2 -1.36957e-15 0)
(2 -1.1725e-15 0)
(2 -9.9471e-16 0)
(2 -9.15698e-16 0)
(2 9.16781e-16 0)
(2 8.62578e-16 0)
(2 7.59165e-16 0)
(2 5.26418e-16 0)
(2 2.25675e-16 0)
(2 1.07569e-16 0)
(2 -1.01736e-16 0)
(2 -5.1367e-17 0)
(2 7.22314e-17 0)
(2 1.4685e-16 0)
(2 2.77221e-16 0)
(2 3.07444e-16 0)
(2 2.87051e-16 0)
(2 4.43849e-16 0)
(2 4.8223e-16 0)
(2 5.65267e-16 0)
(2 7.71394e-16 0)
(2 9.20559e-16 0)
(2 9.28445e-16 0)
(2 9.21538e-16 0)
(2 9.22095e-16 0)
(2 8.467e-16 0)
(2 5.82591e-16 0)
(2 4.07885e-16 0)
(2 4.00381e-16 0)
(2 3.94006e-16 0)
(2 3.53745e-16 0)
(2 3.93474e-16 0)
(2 3.33952e-16 0)
(2 3.24153e-16 0)
(2 3.35718e-16 0)
(2 1.08368e-16 0)
(2 -2.87134e-16 0)
(2 -6.09208e-16 0)
(2 -9.255e-16 0)
(2 -1.14417e-15 0)
(2 -1.31634e-15 0)
(2 -1.88996e-15 0)
(2 -2.41718e-15 0)
(2 -2.81711e-15 0)
(2 -3.04241e-15 0)
(2 -3.04735e-15 0)
(2 -2.66744e-15 0)
(2 -2.31946e-15 0)
(2 -1.63584e-15 0)
(2 -1.21665e-15 0)
(2 -5.7682e-16 0)
(2 -3.06167e-16 0)
(2 3.1129e-16 0)
(2 8.22016e-16 0)
(2 1.69488e-15 0)
(2 1.9856e-15 0)
(2 1.94661e-15 0)
(2 1.7557e-15 0)
(2 1.54257e-15 0)
(2 1.33875e-15 0)
(2 1.37404e-15 0)
(2 1.4175e-15 0)
(2 1.32446e-15 0)
(2 1.52924e-15 0)
(2 1.68268e-15 0)
(2 1.76843e-15 0)
(2 1.88352e-15 0)
(2 1.81314e-15 0)
(2 1.3034e-15 0)
(2 1.15189e-15 0)
(2 1.0224e-15 0)
(2 9.07461e-16 0)
(2 3.80591e-16 0)
(2 1.86497e-16 0)
(2 2.85247e-16 0)
(2 4.54308e-16 0)
(2 6.08276e-16 0)
(2 8.78176e-16 0)
(2 1.01674e-15 0)
(2 7.46909e-16 0)
(2 6.7006e-16 0)
(2 7.04646e-16 0)
(2 4.38897e-16 0)
(2 -4.36478e-17 0)
(2 -1.44173e-16 0)
(2 -6.02427e-16 0)
(2 -9.37629e-16 0)
(2 -1.11245e-15 0)
(2 -1.09586e-15 0)
(2 -1.27669e-15 0)
(2 -1.28584e-15 0)
(2 -1.22397e-15 0)
(2 -9.70674e-16 0)
(2 -9.88084e-16 0)
(2 -4.76034e-16 0)
(2 -2.30946e-16 0)
(2 -2.13581e-16 0)
(2 -3.10704e-16 0)
(2 -3.44175e-16 0)
(2 -1.90605e-16 0)
(2 -1.38409e-16 0)
(2 -6.66491e-17 0)
(2 4.25308e-16 0)
(2 7.08324e-16 0)
(2 5.24081e-16 0)
(2 4.6684e-16 0)
(2 5.82107e-16 0)
(2 6.08386e-16 0)
(2 5.72025e-16 0)
(2 4.06995e-16 0)
(2 2.3988e-16 0)
(2 2.12667e-16 0)
(2 2.04894e-16 0)
(2 1.83198e-16 0)
(2 1.38616e-16 0)
(2 1.61838e-17 0)
(2 1.08462e-15 0)
(2 1.88237e-15 0)
(2 2.18766e-15 0)
(2 2.42187e-15 0)
(2 2.29185e-15 0)
(2 1.82098e-15 0)
(2 1.81979e-15 0)
(2 1.73053e-15 0)
(2 -1.30054e-16 0)
(2 -8.96601e-17 0)
(2 -1.37256e-16 0)
(2 -2.7956e-16 0)
(2 -1.73531e-16 0)
(2 -1.58783e-16 0)
(2 1.01743e-16 0)
(2 1.78602e-16 0)
(2 2.61343e-16 0)
(2 5.28058e-16 0)
(2 5.94649e-16 0)
(2 7.23074e-16 0)
(2 6.39445e-16 0)
(2 4.60927e-16 0)
(2 3.24191e-16 0)
(2 3.83561e-16 0)
(2 5.68566e-16 0)
(2 6.20398e-16 0)
(2 6.25852e-16 0)
(2 4.93099e-16 0)
(2 2.53719e-16 0)
(2 2.27452e-17 0)
(2 -1.94328e-16 0)
(2 -2.66235e-16 0)
(2 -1.17651e-16 0)
(2 -1.6919e-17 0)
(2 1.06154e-16 0)
(2 6.23763e-16 0)
(2 8.64672e-16 0)
(2 9.82169e-16 0)
(2 1.00207e-15 0)
(2 9.44834e-16 0)
(2 6.27109e-16 0)
(2 4.50465e-16 0)
(2 5.32508e-16 0)
(2 3.58444e-16 0)
(2 1.23425e-17 0)
(2 -2.92437e-16 0)
(2 -3.86502e-16 0)
(2 -5.32232e-16 0)
(2 -5.38672e-16 0)
(2 -4.40037e-16 0)
(2 -3.98558e-16 0)
(2 -7.99794e-16 0)
(2 -8.95989e-16 0)
(2 -7.5874e-16 0)
(2 -5.73872e-16 0)
(2 6.68707e-17 0)
(2 1.31696e-15 0)
(2 2.01176e-15 0)
(2 2.01826e-15 0)
(2 2.11904e-15 0)
(2 2.34586e-15 0)
(2 2.28531e-15 0)
(2 2.32047e-15 0)
(2 2.2826e-15 0)
(2 2.08375e-15 0)
(2 1.88236e-15 0)
(2 1.55386e-15 0)
(2 1.47627e-15 0)
(2 1.64376e-15 0)
(2 1.86745e-15 0)
(2 2.13022e-15 0)
(2 2.05397e-15 0)
(2 2.25759e-15 0)
(2 2.68147e-15 0)
(2 2.89728e-15 0)
(2 2.39077e-15 0)
(2 1.99773e-15 0)
(2 1.82346e-15 0)
(2 1.22198e-15 0)
(2 5.85343e-16 0)
(2 -4.69091e-16 0)
(2 -8.37626e-16 0)
(2 -9.61333e-16 0)
(2 -8.39543e-16 0)
(2 -7.44136e-16 0)
(2 -4.48848e-16 0)
(2 -1.45053e-16 0)
(2 5.00374e-16 0)
(2 6.18127e-16 0)
(2 6.22512e-16 0)
(2 5.31081e-16 0)
(2 4.27291e-16 0)
(2 2.32016e-16 0)
(2 1.10298e-16 0)
(2 -6.26132e-17 0)
(2 -2.5007e-16 0)
(2 -4.22378e-16 0)
(2 -4.83665e-16 0)
(2 -5.21404e-16 0)
(2 -5.30482e-16 0)
(2 -6.61565e-16 0)
(2 -5.11135e-16 0)
(2 -3.62248e-16 0)
(2 -3.80206e-16 0)
(2 -6.64446e-16 0)
(2 -7.40453e-16 0)
(2 -3.88817e-16 0)
(2 -2.22409e-17 0)
(2 1.56716e-16 0)
(2 1.88256e-16 0)
(2 5.18048e-16 0)
(2 7.20143e-16 0)
(2 8.47969e-16 0)
(2 9.42544e-16 0)
(2 6.67324e-16 0)
(2 2.20184e-16 0)
(2 -4.37042e-16 0)
(2 -1.05279e-15 0)
(2 -1.41278e-15 0)
(2 -1.44601e-15 0)
(2 1.15568e-16 0)
(2 2.86617e-16 0)
(2 4.1596e-16 0)
(2 8.59491e-16 0)
(2 1.14186e-15 0)
(2 1.23099e-15 0)
(2 1.26812e-15 0)
(2 1.33668e-15 0)
(2 -2.42164e-15 0)
(2 -2.31526e-15 0)
(2 -2.203e-15 0)
(2 -2.21234e-15 0)
(2 -1.52401e-15 0)
(2 -9.93455e-16 0)
(2 -6.4207e-16 0)
(2 -5.25969e-16 0)
(2 -5.2614e-16 0)
(2 -4.85455e-16 0)
(2 -6.87185e-16 0)
(2 -7.91453e-16 0)
(2 -8.52544e-16 0)
(2 -1.11706e-15 0)
(2 -1.12412e-15 0)
(2 -1.09055e-15 0)
(2 -1.06371e-15 0)
(2 -1.06907e-15 0)
(2 -7.89735e-16 0)
(2 -6.70159e-16 0)
(2 -7.65782e-16 0)
(2 -8.65269e-16 0)
(2 -7.73393e-16 0)
(2 -4.93346e-16 0)
(2 -4.36635e-16 0)
(2 -3.97826e-16 0)
(2 -4.53179e-16 0)
(2 -5.03815e-16 0)
(2 -5.24261e-16 0)
(2 -5.4504e-16 0)
(2 -5.71643e-16 0)
(2 -3.61096e-16 0)
(2 -1.3627e-16 0)
(2 2.99563e-16 0)
(2 3.43603e-16 0)
(2 2.09163e-16 0)
(2 -7.32414e-18 0)
(2 -1.11e-16 0)
(2 -1.59899e-16 0)
(2 -1.02581e-16 0)
(2 1.25071e-16 0)
(2 5.14884e-16 0)
(2 8.88442e-16 0)
(2 5.22603e-16 0)
(2 -1.1451e-16 0)
(2 -5.39719e-16 0)
(2 -6.2301e-16 0)
(2 -5.13984e-16 0)
(2 -4.11705e-16 0)
(2 8.28721e-17 0)
(2 4.77286e-16 0)
(2 7.34191e-16 0)
(2 7.69202e-16 0)
(2 9.51491e-16 0)
(2 1.17629e-15 0)
(2 1.49859e-15 0)
(2 1.72216e-15 0)
(2 1.72059e-15 0)
(2 1.98218e-15 0)
(2 2.16796e-15 0)
(2 2.17967e-15 0)
(2 2.23178e-15 0)
(2 2.29402e-15 0)
(2 2.36129e-15 0)
(2 2.51586e-15 0)
(2 2.51266e-15 0)
(2 2.62776e-15 0)
(2 2.38683e-15 0)
(2 2.24459e-15 0)
(2 1.83736e-15 0)
(2 1.70227e-15 0)
(2 1.59737e-15 0)
(2 9.54763e-16 0)
(2 6.41059e-16 0)
(2 6.6207e-16 0)
(2 6.88737e-16 0)
(2 6.99904e-16 0)
(2 7.14836e-16 0)
(2 7.82344e-16 0)
(2 5.90672e-16 0)
(2 1.18972e-15 0)
(2 1.5968e-15 0)
(2 1.81732e-15 0)
(2 1.91823e-15 0)
(2 1.58326e-15 0)
(2 1.03758e-15 0)
(2 8.68505e-16 0)
(2 8.58291e-16 0)
(2 8.95069e-16 0)
(2 8.63264e-16 0)
(2 8.52821e-16 0)
(2 8.30401e-16 0)
(2 8.48956e-16 0)
(2 9.73209e-16 0)
(2 9.56682e-16 0)
(2 9.73233e-16 0)
(2 1.19815e-15 0)
(2 1.18503e-15 0)
(2 9.11157e-16 0)
(2 5.37426e-17 0)
(2 -2.56389e-16 0)
(2 -2.36306e-16 0)
(2 -1.19378e-16 0)
(2 2.00816e-16 0)
(2 7.80903e-16 0)
(2 1.16741e-15 0)
(2 1.32871e-15 0)
(2 1.39867e-15 0)
(2 7.44681e-16 0)
(2 3.34848e-16 0)
(2 -2.10723e-16 0)
(2 -1.69465e-16 0)
(2 -1.37835e-16 0)
(2 -2.29685e-16 0)
(2 -3.68965e-16 0)
(2 -4.14585e-16 0)
(2 -1.18106e-16 0)
(2 -3.859e-16 0)
(2 -1.06058e-15 0)
(2 -1.21633e-15 0)
(2 -9.66459e-16 0)
(2 -8.93175e-16 0)
(2 -7.82675e-16 0)
(2 -6.71624e-16 0)
(2 -7.04633e-16 0)
(2 -6.11115e-16 0)
(2 -5.57205e-16 0)
(2 -5.02192e-16 0)
(2 -4.08626e-16 0)
(2 -2.88595e-16 0)
(2 -4.38955e-16 0)
(2 -6.6116e-16 0)
(2 -5.85398e-16 0)
(2 -4.87992e-16 0)
(2 -4.92598e-16 0)
(2 -6.13435e-16 0)
(2 -8.33847e-16 0)
(2 -9.44241e-16 0)
(2 -9.4838e-16 0)
(2 -9.86496e-16 0)
(2 -1.02048e-15 0)
(2 -7.66911e-16 0)
(2 -5.09055e-16 0)
(2 -3.6556e-16 0)
(2 -4.00941e-16 0)
(2 -4.57235e-16 0)
(2 -5.88891e-16 0)
(2 -7.98552e-16 0)
(2 -9.96656e-16 0)
(2 -1.06651e-15 0)
(2 -1.13386e-15 0)
(2 -8.5277e-16 0)
(2 -5.54089e-16 0)
(2 -3.9669e-16 0)
(2 -1.54846e-16 0)
(2 -2.17677e-17 0)
(2 5.34682e-16 0)
(2 2.23511e-16 0)
(2 1.99422e-16 0)
(2 -2.26926e-16 0)
(2 -3.06869e-16 0)
(2 -1.62691e-16 0)
(2 1.89797e-16 0)
(2 4.99671e-16 0)
(2 5.9808e-16 0)
(2 7.93605e-16 0)
(2 7.7234e-16 0)
(2 5.89967e-16 0)
(2 2.03069e-16 0)
(2 -5.51223e-17 0)
(2 5.38109e-17 0)
(2 6.50647e-16 0)
(2 9.15272e-16 0)
(2 1.42576e-15 0)
(2 1.70816e-15 0)
(2 2.07056e-15 0)
(2 2.82909e-15 0)
(2 2.9798e-15 0)
(2 3.43295e-15 0)
(2 3.61198e-15 0)
(2 3.52841e-15 0)
(2 3.37388e-15 0)
(2 3.37089e-15 0)
(2 3.61228e-15 0)
(2 3.63186e-15 0)
(2 3.56579e-15 0)
(2 3.53262e-15 0)
(2 3.34646e-15 0)
(2 3.35863e-15 0)
(2 3.1998e-15 0)