/*--------------------------------*- C++ -*----------------------------------*\
  =========                 |
  \\      /  F ield         | OpenFOAM: The Open Source CFD Toolbox
   \\    /   O peration     | Website:  https://openfoam.org
    \\  /    A nd           | Version:  7
     \\/     M anipulation  |
\*---------------------------------------------------------------------------*/
FoamFile
{
    version     2.0;
    format      ascii;
    class       volVectorField;
    location    "2.7";
    object      U;
}
// * * * * * * * * * * * * * * * * * * * * * * * * * * * * * * * * * * * * * //

dimensions      [0 1 -1 0 0 0 0];

internalField   nonuniform List<vector> 
20000
(
(-1.01816e-07 1.40942e-07 0)
(-6.21073e-07 3.43938e-07 0)
(-1.50678e-06 4.0022e-07 0)
(-2.34801e-06 3.52765e-07 0)
(-2.92924e-06 2.48422e-07 0)
(-3.14069e-06 1.15551e-07 0)
(-2.92139e-06 -3.08826e-08 0)
(-2.24119e-06 -1.80801e-07 0)
(-1.08998e-06 -3.28997e-07 0)
(5.28603e-07 -4.72439e-07 0)
(2.60194e-06 -6.09406e-07 0)
(5.1113e-06 -7.38677e-07 0)
(8.03394e-06 -8.59487e-07 0)
(1.13441e-05 -9.71365e-07 0)
(1.50138e-05 -1.07403e-06 0)
(1.90136e-05 -1.16732e-06 0)
(2.33133e-05 -1.25118e-06 0)
(2.78818e-05 -1.32558e-06 0)
(3.2688e-05 -1.39055e-06 0)
(3.77006e-05 -1.44617e-06 0)
(4.28881e-05 -1.49256e-06 0)
(4.82196e-05 -1.52987e-06 0)
(5.36643e-05 -1.55828e-06 0)
(5.91921e-05 -1.578e-06 0)
(6.47733e-05 -1.58924e-06 0)
(7.03792e-05 -1.59224e-06 0)
(7.59815e-05 -1.58725e-06 0)
(8.15531e-05 -1.57456e-06 0)
(8.70676e-05 -1.55445e-06 0)
(9.24994e-05 -1.52723e-06 0)
(9.78244e-05 -1.49321e-06 0)
(0.000103019 -1.45273e-06 0)
(0.000108062 -1.40611e-06 0)
(0.000112931 -1.35371e-06 0)
(0.000117607 -1.29586e-06 0)
(0.000122071 -1.23293e-06 0)
(0.000126306 -1.16529e-06 0)
(0.000130296 -1.09328e-06 0)
(0.000134026 -1.01729e-06 0)
(0.000137482 -9.3768e-07 0)
(0.000140652 -8.54808e-07 0)
(0.000143525 -7.69046e-07 0)
(0.000146092 -6.80763e-07 0)
(0.000148344 -5.90312e-07 0)
(0.000150273 -4.98052e-07 0)
(0.000151875 -4.04342e-07 0)
(0.000153143 -3.0953e-07 0)
(0.000154076 -2.13957e-07 0)
(0.000154669 -1.17968e-07 0)
(0.000154924 -2.18943e-08 0)
(0.000154838 7.39434e-08 0)
(0.000154415 1.69225e-07 0)
(0.000153656 2.63631e-07 0)
(0.000152565 3.56851e-07 0)
(0.000151147 4.48589e-07 0)
(0.000149407 5.38544e-07 0)
(0.000147352 6.26427e-07 0)
(0.00014499 7.11954e-07 0)
(0.000142329 7.94845e-07 0)
(0.000139381 8.7482e-07 0)
(0.000136154 9.51608e-07 0)
(0.000132662 1.02494e-06 0)
(0.000128917 1.09456e-06 0)
(0.000124932 1.1602e-06 0)
(0.000120723 1.22159e-06 0)
(0.000116304 1.27848e-06 0)
(0.000111693 1.33062e-06 0)
(0.000106907 1.37773e-06 0)
(0.000101963 1.41957e-06 0)
(9.68822e-05 1.45588e-06 0)
(9.16833e-05 1.4864e-06 0)
(8.63877e-05 1.51087e-06 0)
(8.10172e-05 1.52903e-06 0)
(7.55945e-05 1.54062e-06 0)
(7.01433e-05 1.54539e-06 0)
(6.4688e-05 1.54306e-06 0)
(5.92538e-05 1.53338e-06 0)
(5.38668e-05 1.51607e-06 0)
(4.85539e-05 1.4909e-06 0)
(4.33427e-05 1.4576e-06 0)
(3.82616e-05 1.41593e-06 0)
(3.33396e-05 1.36565e-06 0)
(2.86061e-05 1.30653e-06 0)
(2.40911e-05 1.23836e-06 0)
(1.9825e-05 1.16096e-06 0)
(1.58382e-05 1.07418e-06 0)
(1.21611e-05 9.77944e-07 0)
(8.8237e-06 8.72232e-07 0)
(5.85504e-06 7.57142e-07 0)
(3.28279e-06 6.32933e-07 0)
(1.13222e-06 5.0014e-07 0)
(-5.74805e-07 3.59763e-07 0)
(-1.82188e-06 2.13307e-07 0)
(-2.6009e-06 6.35908e-08 0)
(-2.91656e-06 -8.42844e-08 0)
(-2.7937e-06 -2.21198e-07 0)
(-2.2879e-06 -3.31192e-07 0)
(-1.50532e-06 -3.85127e-07 0)
(-6.60517e-07 -3.33164e-07 0)
(-1.29442e-07 -1.28492e-07 0)
(-3.21923e-07 6.78364e-07 0)
(-1.38228e-06 1.4215e-06 0)
(-2.87225e-06 1.54809e-06 0)
(-4.11712e-06 1.23051e-06 0)
(-4.69313e-06 6.32152e-07 0)
(-4.34813e-06 -1.33348e-07 0)
(-2.91963e-06 -9.91599e-07 0)
(-3.12728e-07 -1.89198e-06 0)
(3.5155e-06 -2.80158e-06 0)
(8.57174e-06 -3.69823e-06 0)
(1.48363e-05 -4.56685e-06 0)
(2.22705e-05 -5.39672e-06 0)
(3.08216e-05 -6.18031e-06 0)
(4.04264e-05 -6.91228e-06 0)
(5.10144e-05 -7.58892e-06 0)
(6.25091e-05 -8.20763e-06 0)
(7.48307e-05 -8.76666e-06 0)
(8.78962e-05 -9.26492e-06 0)
(0.000101621 -9.70183e-06 0)
(0.00011592 -1.00773e-05 0)
(0.000130706 -1.03915e-05 0)
(0.000145895 -1.0645e-05 0)
(0.0001614 -1.08386e-05 0)
(0.000177138 -1.09735e-05 0)
(0.000193027 -1.10507e-05 0)
(0.000208984 -1.10717e-05 0)
(0.000224931 -1.1038e-05 0)
(0.000240791 -1.09515e-05 0)
(0.00025649 -1.08139e-05 0)
(0.000271956 -1.06272e-05 0)
(0.00028712 -1.03934e-05 0)
(0.000301916 -1.01148e-05 0)
(0.00031628 -9.79347e-06 0)
(0.000330154 -9.43184e-06 0)
(0.00034348 -9.03222e-06 0)
(0.000356206 -8.59704e-06 0)
(0.000368282 -8.12875e-06 0)
(0.000379662 -7.62984e-06 0)
(0.000390303 -7.10282e-06 0)
(0.000400166 -6.55022e-06 0)
(0.000409216 -5.97456e-06 0)
(0.000417422 -5.37836e-06 0)
(0.000424755 -4.76417e-06 0)
(0.000431191 -4.13449e-06 0)
(0.000436709 -3.49182e-06 0)
(0.000441292 -2.83863e-06 0)
(0.000444926 -2.17737e-06 0)
(0.000447602 -1.51046e-06 0)
(0.000449311 -8.40282e-07 0)
(0.000450052 -1.69188e-07 0)
(0.000449824 5.00517e-07 0)
(0.00044863 1.16656e-06 0)
(0.000446479 1.82672e-06 0)
(0.000443378 2.47878e-06 0)
(0.000439342 3.12061e-06 0)
(0.000434387 3.75008e-06 0)
(0.000428532 4.36512e-06 0)
(0.0004218 4.96369e-06 0)
(0.000414215 5.54379e-06 0)
(0.000405805 6.10344e-06 0)
(0.000396603 6.64071e-06 0)
(0.000386641 7.15368e-06 0)
(0.000375956 7.64045e-06 0)
(0.000364587 8.09918e-06 0)
(0.000352577 8.528e-06 0)
(0.00033997 8.92511e-06 0)
(0.000326814 9.28869e-06 0)
(0.000313157 9.61694e-06 0)
(0.000299053 9.9081e-06 0)
(0.000284557 1.01604e-05 0)
(0.000269726 1.03721e-05 0)
(0.00025462 1.05414e-05 0)
(0.000239301 1.06666e-05 0)
(0.000223835 1.07461e-05 0)
(0.000208288 1.07781e-05 0)
(0.000192729 1.0761e-05 0)
(0.000177231 1.06932e-05 0)
(0.000161866 1.05732e-05 0)
(0.000146711 1.03995e-05 0)
(0.000131843 1.01706e-05 0)
(0.00011734 9.88538e-06 0)
(0.000103284 9.54265e-06 0)
(8.97552e-05 9.1415e-06 0)
(7.68362e-05 8.68124e-06 0)
(6.46091e-05 8.16155e-06 0)
(5.31556e-05 7.58254e-06 0)
(4.2556e-05 6.94492e-06 0)
(3.28883e-05 6.25018e-06 0)
(2.42263e-05 5.5009e-06 0)
(1.66379e-05 4.70118e-06 0)
(1.01823e-05 3.85728e-06 0)
(4.90653e-06 2.97863e-06 0)
(8.39818e-07 2.07906e-06 0)
(-2.01323e-06 1.17961e-06 0)
(-3.68339e-06 3.12179e-07 0)
(-4.25192e-06 -4.74044e-07 0)
(-3.86746e-06 -1.10353e-06 0)
(-2.77103e-06 -1.46019e-06 0)
(-1.37567e-06 -1.37331e-06 0)
(-3.34763e-07 -6.58648e-07 0)
(-3.91446e-07 1.5329e-06 0)
(-1.53248e-06 2.90331e-06 0)
(-2.91841e-06 2.92959e-06 0)
(-3.75478e-06 1.98443e-06 0)
(-3.52455e-06 3.78281e-07 0)
(-1.89787e-06 -1.65386e-06 0)
(1.3515e-06 -3.94078e-06 0)
(6.36496e-06 -6.36068e-06 0)
(1.32148e-05 -8.82666e-06 0)
(2.19213e-05 -1.12765e-05 0)
(3.24648e-05 -1.36654e-05 0)
(4.47957e-05 -1.59606e-05 0)
(5.88411e-05 -1.81382e-05 0)
(7.45107e-05 -2.01807e-05 0)
(9.17007e-05 -2.20754e-05 0)
(0.000110298 -2.38129e-05 0)
(0.000130181 -2.53868e-05 0)
(0.000151223 -2.67926e-05 0)
(0.000173296 -2.80276e-05 0)
(0.000196265 -2.90905e-05 0)
(0.000219999 -2.99813e-05 0)
(0.000244362 -3.07008e-05 0)
(0.000269222 -3.12508e-05 0)
(0.000294446 -3.16338e-05 0)
(0.000319904 -3.18529e-05 0)
(0.000345468 -3.19117e-05 0)
(0.000371013 -3.18145e-05 0)
(0.000396418 -3.1566e-05 0)
(0.000421564 -3.11711e-05 0)
(0.000446336 -3.06354e-05 0)
(0.000470626 -2.99646e-05 0)
(0.000494328 -2.91647e-05 0)
(0.000517341 -2.82421e-05 0)
(0.00053957 -2.72032e-05 0)
(0.000560924 -2.60548e-05 0)
(0.000581319 -2.48037e-05 0)
(0.000600676 -2.34568e-05 0)
(0.000618919 -2.20214e-05 0)
(0.000635981 -2.05046e-05 0)
(0.0006518 -1.89135e-05 0)
(0.000666317 -1.72555e-05 0)
(0.000679483 -1.55378e-05 0)
(0.000691252 -1.37677e-05 0)
(0.000701585 -1.19524e-05 0)
(0.000710448 -1.00992e-05 0)
(0.000717812 -8.21506e-06 0)
(0.000723656 -6.30716e-06 0)
(0.000727962 -4.3825e-06 0)
(0.000730721 -2.44795e-06 0)
(0.000731926 -5.10338e-07 0)
(0.000731577 1.42364e-06 0)
(0.00072968 3.34738e-06 0)
(0.000726245 5.2544e-06 0)
(0.000721287 7.13832e-06 0)
(0.000714829 8.99286e-06 0)
(0.000706895 1.08119e-05 0)
(0.000697516 1.25893e-05 0)
(0.000686728 1.43192e-05 0)
(0.000674572 1.59957e-05 0)
(0.000661093 1.76131e-05 0)
(0.00064634 1.91657e-05 0)
(0.000630367 2.0648e-05 0)
(0.000613235 2.20544e-05 0)
(0.000595005 2.33795e-05 0)
(0.000575745 2.46181e-05 0)
(0.000555527 2.57647e-05 0)
(0.000534427 2.68143e-05 0)
(0.000512525 2.77615e-05 0)
(0.000489905 2.86014e-05 0)
(0.000466655 2.93289e-05 0)
(0.000442869 2.9939e-05 0)
(0.000418641 3.04268e-05 0)
(0.000394071 3.07876e-05 0)
(0.000369263 3.10164e-05 0)
(0.000344324 3.11088e-05 0)
(0.000319365 3.10602e-05 0)
(0.000294499 3.08664e-05 0)
(0.000269843 3.05233e-05 0)
(0.000245516 3.0027e-05 0)
(0.000221641 2.93742e-05 0)
(0.000198341 2.85617e-05 0)
(0.000175744 2.75871e-05 0)
(0.000153974 2.64486e-05 0)
(0.00013316 2.51453e-05 0)
(0.000113428 2.36775e-05 0)
(9.49023e-05 2.20469e-05 0)
(7.77045e-05 2.02573e-05 0)
(6.19507e-05 1.83148e-05 0)
(4.77493e-05 1.62291e-05 0)
(3.51978e-05 1.40146e-05 0)
(2.43787e-05 1.16918e-05 0)
(1.53537e-05 9.29016e-06 0)
(8.15627e-06 6.85137e-06 0)
(2.78229e-06 4.43488e-06 0)
(-8.23161e-07 2.12518e-06 0)
(-2.78249e-06 4.29098e-08 0)
(-3.30274e-06 -1.64053e-06 0)
(-2.69704e-06 -2.68595e-06 0)
(-1.46682e-06 -2.77233e-06 0)
(-3.87143e-07 -1.50504e-06 0)
(-3.51615e-07 2.36482e-06 0)
(-1.23876e-06 4.15255e-06 0)
(-2.01561e-06 3.7713e-06 0)
(-1.86914e-06 1.82341e-06 0)
(-2.51595e-07 -1.22549e-06 0)
(3.2037e-06 -5.0121e-06 0)
(8.75577e-06 -9.2599e-06 0)
(1.65725e-05 -1.37628e-05 0)
(2.67452e-05 -1.83674e-05 0)
(3.93038e-05 -2.29595e-05 0)
(5.42297e-05 -2.74538e-05 0)
(7.14658e-05 -3.17865e-05 0)
(9.09246e-05 -3.59097e-05 0)
(0.000112495 -3.97873e-05 0)
(0.000136047 -4.33924e-05 0)
(0.000161438 -4.6705e-05 0)
(0.000188512 -4.97106e-05 0)
(0.000217106 -5.2399e-05 0)
(0.000247053 -5.47636e-05 0)
(0.000278178 -5.68006e-05 0)
(0.000310307 -5.85087e-05 0)
(0.000343265 -5.98889e-05 0)
(0.000376874 -6.09436e-05 0)
(0.00041096 -6.16769e-05 0)
(0.00044535 -6.20943e-05 0)
(0.000479875 -6.22024e-05 0)
(0.000514367 -6.2009e-05 0)
(0.000548664 -6.15226e-05 0)
(0.000582609 -6.07528e-05 0)
(0.000616048 -5.97098e-05 0)
(0.000648835 -5.84046e-05 0)
(0.000680828 -5.68487e-05 0)
(0.000711892 -5.50541e-05 0)
(0.000741899 -5.30332e-05 0)
(0.000770728 -5.0799e-05 0)
(0.000798265 -4.83647e-05 0)
(0.000824401 -4.57437e-05 0)
(0.000849037 -4.29497e-05 0)
(0.000872081 -3.99967e-05 0)
(0.000893449 -3.68986e-05 0)
(0.000913062 -3.36695e-05 0)
(0.000930853 -3.03235e-05 0)
(0.00094676 -2.68747e-05 0)
(0.000960729 -2.33371e-05 0)
(0.000972714 -1.97249e-05 0)
(0.000982677 -1.60519e-05 0)
(0.000990588 -1.23319e-05 0)
(0.000996424 -8.57852e-06 0)
(0.00100017 -4.8053e-06 0)
(0.00100182 -1.02554e-06 0)
(0.00100136 2.74766e-06 0)
(0.000998821 6.50137e-06 0)
(0.000994199 1.02229e-05 0)
(0.00098752 1.38997e-05 0)
(0.000978811 1.75194e-05 0)
(0.000968109 2.10701e-05 0)
(0.000955454 2.45399e-05 0)
(0.000940893 2.79169e-05 0)
(0.000924483 3.11899e-05 0)
(0.000906283 3.43475e-05 0)
(0.000886361 3.73786e-05 0)
(0.00086479 4.02724e-05 0)
(0.00084165 4.30179e-05 0)
(0.000817025 4.56046e-05 0)
(0.000791008 4.80222e-05 0)
(0.000763696 5.02602e-05 0)
(0.00073519 5.23086e-05 0)
(0.000705599 5.41572e-05 0)
(0.000675036 5.57963e-05 0)
(0.000643622 5.7216e-05 0)
(0.000611479 5.84069e-05 0)
(0.000578738 5.93595e-05 0)
(0.000545532 6.00647e-05 0)
(0.000512001 6.05134e-05 0)
(0.000478288 6.06971e-05 0)
(0.000444541 6.06074e-05 0)
(0.000410913 6.02364e-05 0)
(0.000377559 5.95768e-05 0)
(0.000344638 5.86217e-05 0)
(0.000312313 5.73652e-05 0)
(0.000280746 5.58024e-05 0)
(0.000250106 5.39294e-05 0)
(0.000220556 5.17439e-05 0)
(0.000192264 4.92457e-05 0)
(0.000165394 4.64369e-05 0)
(0.000140107 4.33227e-05 0)
(0.000116557 3.99124e-05 0)
(9.4892e-05 3.62203e-05 0)
(7.52472e-05 3.22677e-05 0)
(5.77428e-05 2.80846e-05 0)
(4.2478e-05 2.37131e-05 0)
(2.95247e-05 1.92112e-05 0)
(1.89188e-05 1.46587e-05 0)
(1.065e-05 1.0165e-05 0)
(4.64808e-06 5.87999e-06 0)
(7.67803e-07 2.00795e-06 0)
(-1.22692e-06 -1.17399e-06 0)
(-1.68164e-06 -3.2967e-06 0)
(-1.12272e-06 -3.88088e-06 0)
(-3.35332e-07 -2.29402e-06 0)
(-2.54145e-07 2.95616e-06 0)
(-6.69998e-07 4.7594e-06 0)
(-4.73505e-07 3.57501e-06 0)
(1.07832e-06 2.21015e-07 0)
(4.51749e-06 -4.68676e-06 0)
(1.02193e-05 -1.06605e-05 0)
(1.84525e-05 -1.73192e-05 0)
(2.93944e-05 -2.43699e-05 0)
(4.31437e-05 -3.15878e-05 0)
(5.97339e-05 -3.88005e-05 0)
(7.91447e-05 -4.58758e-05 0)
(0.000101312 -5.27124e-05 0)
(0.000126137 -5.92324e-05 0)
(0.00015349 -6.5376e-05 0)
(0.000183221 -7.10978e-05 0)
(0.000215161 -7.63633e-05 0)
(0.000249126 -8.11468e-05 0)
(0.000284923 -8.543e-05 0)
(0.000322349 -8.92003e-05 0)
(0.000361198 -9.24502e-05 0)
(0.000401257 -9.5176e-05 0)
(0.000442313 -9.73779e-05 0)
(0.000484153 -9.90587e-05 0)
(0.000526564 -0.000100224 0)
(0.000569335 -0.000100882 0)
(0.000612258 -0.000101043 0)
(0.000655129 -0.000100718 0)
(0.000697749 -9.99211e-05 0)
(0.000739924 -9.86667e-05 0)
(0.000781466 -9.69711e-05 0)
(0.000822194 -9.48517e-05 0)
(0.000861935 -9.23266e-05 0)
(0.000900521 -8.9415e-05 0)
(0.000937794 -8.6137e-05 0)
(0.000973604 -8.25131e-05 0)
(0.00100781 -7.85646e-05 0)
(0.00104028 -7.4313e-05 0)
(0.00107089 -6.97805e-05 0)
(0.00109952 -6.49893e-05 0)
(0.00112607 -5.99622e-05 0)
(0.00115045 -5.47218e-05 0)
(0.00117256 -4.92909e-05 0)
(0.00119233 -4.36923e-05 0)
(0.0012097 -3.7949e-05 0)
(0.00122461 -3.20835e-05 0)
(0.00123701 -2.61184e-05 0)
(0.00124685 -2.00762e-05 0)
(0.00125413 -1.39789e-05 0)
(0.0012588 -7.84867e-06 0)
(0.00126087 -1.707e-06 0)
(0.00126032 4.4247e-06 0)
(0.00125718 1.05254e-05 0)
(0.00125146 1.65744e-05 0)
(0.00124318 2.25512e-05 0)
(0.00123237 2.84359e-05 0)
(0.00121909 3.42086e-05 0)
(0.00120338 3.98501e-05 0)
(0.0011853 4.53413e-05 0)
(0.00116492 5.06634e-05 0)
(0.00114231 5.57981e-05 0)
(0.00111756 6.07272e-05 0)
(0.00109076 6.5433e-05 0)
(0.00106201 6.98978e-05 0)
(0.0010314 7.41045e-05 0)
(0.000999071 7.80361e-05 0)
(0.000965124 8.16758e-05 0)
(0.000929692 8.50073e-05 0)
(0.000892908 8.80142e-05 0)
(0.000854913 9.06807e-05 0)
(0.000815856 9.29912e-05 0)
(0.000775889 9.49303e-05 0)
(0.000735173 9.6483e-05 0)
(0.000693874 9.76348e-05 0)
(0.000652164 9.83716e-05 0)
(0.000610218 9.86798e-05 0)
(0.000568221 9.85465e-05 0)
(0.000526358 9.79596e-05 0)
(0.00048482 9.69079e-05 0)
(0.000443803 9.53815e-05 0)
(0.000403503 9.33717e-05 0)
(0.000364121 9.08718e-05 0)
(0.000325857 8.78769e-05 0)
(0.000288912 8.43852e-05 0)
(0.000253487 8.03979e-05 0)
(0.000219777 7.59206e-05 0)
(0.000187974 7.0964e-05 0)
(0.000158262 6.55455e-05 0)
(0.000130812 5.96909e-05 0)
(0.000105784 5.34368e-05 0)
(8.33143e-05 4.6834e-05 0)
(6.35172e-05 3.99513e-05 0)
(4.6473e-05 3.28814e-05 0)
(3.22219e-05 2.57484e-05 0)
(2.07526e-05 1.87175e-05 0)
(1.19907e-05 1.20085e-05 0)
(5.78432e-06 5.91178e-06 0)
(1.89082e-06 8.09768e-07 0)
(-4.01971e-08 -2.80293e-06 0)
(-5.12557e-07 -4.29464e-06 0)
(-2.29427e-07 -2.81504e-06 0)
(-1.2874e-07 3.19656e-06 0)
(5.9758e-08 4.48039e-06 0)
(1.47777e-06 2.02474e-06 0)
(4.73543e-06 -3.17442e-06 0)
(1.0314e-05 -1.03658e-05 0)
(1.85759e-05 -1.8946e-05 0)
(2.97815e-05 -2.8435e-05 0)
(4.41031e-05 -3.84546e-05 0)
(6.1636e-05 -4.87078e-05 0)
(8.24102e-05 -5.89615e-05 0)
(0.0001064 -6.9033e-05 0)
(0.000133532 -7.87792e-05 0)
(0.000163696 -8.80881e-05 0)
(0.000196747 -9.68723e-05 0)
(0.000232517 -0.000105064 0)
(0.000270813 -0.000112611 0)
(0.000311428 -0.000119473 0)
(0.000354142 -0.000125623 0)
(0.000398724 -0.000131039 0)
(0.000444934 -0.000135708 0)
(0.000492531 -0.000139624 0)
(0.000541268 -0.000142785 0)
(0.000590898 -0.000145195 0)
(0.000641173 -0.000146858 0)
(0.000691849 -0.000147788 0)
(0.000742685 -0.000147996 0)
(0.000793442 -0.000147499 0)
(0.000843889 -0.000146317 0)
(0.000893797 -0.000144469 0)
(0.000942949 -0.00014198 0)
(0.000991131 -0.000138873 0)
(0.00103814 -0.000135175 0)
(0.00108378 -0.000130913 0)
(0.00112787 -0.000126116 0)
(0.00117022 -0.000120814 0)
(0.00121068 -0.000115038 0)
(0.00124908 -0.000108819 0)
(0.00128528 -0.000102189 0)
(0.00131915 -9.518e-05 0)
(0.00135056 -8.78254e-05 0)
(0.0013794 -8.01582e-05 0)
(0.00140556 -7.22115e-05 0)
(0.00142897 -6.40187e-05 0)
(0.00144952 -5.5613e-05 0)
(0.00146717 -4.70277e-05 0)
(0.00148185 -3.82956e-05 0)
(0.00149351 -2.94496e-05 0)
(0.00150213 -2.05221e-05 0)
(0.00150768 -1.15453e-05 0)
(0.00151014 -2.55075e-06 0)
(0.00150952 6.43008e-06 0)
(0.00150583 1.53664e-05 0)
(0.00149907 2.42277e-05 0)
(0.0014893 3.29841e-05 0)
(0.00147653 4.16061e-05 0)
(0.00146083 5.00649e-05 0)
(0.00144226 5.83318e-05 0)
(0.00142089 6.6379e-05 0)
(0.00139678 7.41788e-05 0)
(0.00137005 8.17044e-05 0)
(0.00134077 8.8929e-05 0)
(0.00130907 9.58266e-05 0)
(0.00127505 0.000102371 0)
(0.00123885 0.000108538 0)
(0.00120059 0.000114302 0)
(0.00116042 0.000119639 0)
(0.00111849 0.000124524 0)
(0.00107495 0.000128935 0)
(0.00102997 0.000132848 0)
(0.000983735 0.00013624 0)
(0.000936414 0.000139089 0)
(0.000888198 0.000141374 0)
(0.000839282 0.000143074 0)
(0.000789868 0.000144169 0)
(0.000740163 0.000144639 0)
(0.000690381 0.000144468 0)
(0.000640739 0.000143637 0)
(0.000591462 0.000142132 0)
(0.000542774 0.000139939 0)
(0.000494906 0.000137047 0)
(0.000448089 0.000133449 0)
(0.000402554 0.000129138 0)
(0.000358535 0.000124114 0)
(0.000316259 0.000118381 0)
(0.00027595 0.00011195 0)
(0.000237828 0.000104839 0)
(0.000202098 9.70754e-05 0)
(0.000168957 8.86996e-05 0)
(0.000138581 7.9767e-05 0)
(0.000111124 7.03525e-05 0)
(8.67132e-05 6.05556e-05 0)
(6.54388e-05 5.05076e-05 0)
(4.73483e-05 4.03802e-05 0)
(3.24363e-05 3.0397e-05 0)
(2.06341e-05 2.08478e-05 0)
(1.1798e-05 1.21069e-05 0)
(5.69678e-06 4.65589e-06 0)
(1.99658e-06 -8.94833e-07 0)
(2.51165e-07 -3.77748e-06 0)
(-9.79068e-08 -2.9648e-06 0)
(8.3908e-09 3.02721e-06 0)
(8.77315e-07 3.16014e-06 0)
(3.6755e-06 -1.09777e-06 0)
(8.84257e-06 -8.61547e-06 0)
(1.67848e-05 -1.85272e-05 0)
(2.78352e-05 -3.01277e-05 0)
(4.22312e-05 -4.2846e-05 0)
(6.01277e-05 -5.62238e-05 0)
(8.16076e-05 -6.98939e-05 0)
(0.00010669 -8.35627e-05 0)
(0.000135339 -9.69957e-05 0)
(0.000167471 -0.000110006 0)
(0.00020296 -0.000122444 0)
(0.000241648 -0.000134193 0)
(0.000283349 -0.000145159 0)
(0.00032785 -0.000155271 0)
(0.000374923 -0.000164472 0)
(0.000424322 -0.00017272 0)
(0.000475791 -0.000179987 0)
(0.000529065 -0.000186252 0)
(0.000583872 -0.000191503 0)
(0.000639937 -0.000195738 0)
(0.000696982 -0.000198957 0)
(0.00075473 -0.000201169 0)
(0.000812906 -0.000202388 0)
(0.000871238 -0.000202629 0)
(0.000929457 -0.000201915 0)
(0.0009873 -0.000200269 0)
(0.00104451 -0.00019772 0)
(0.00110084 -0.000194298 0)
(0.00115605 -0.000190036 0)
(0.00120991 -0.00018497 0)
(0.0012622 -0.000179135 0)
(0.0013127 -0.000172571 0)
(0.00136121 -0.000165319 0)
(0.00140755 -0.000157418 0)
(0.00145153 -0.000148913 0)
(0.001493 -0.000139847 0)
(0.00153179 -0.000130262 0)
(0.00156777 -0.000120205 0)
(0.0016008 -0.00010972 0)
(0.00163077 -9.88523e-05 0)
(0.00165758 -8.76471e-05 0)
(0.00168113 -7.615e-05 0)
(0.00170135 -6.44061e-05 0)
(0.00171818 -5.24605e-05 0)
(0.00173155 -4.0358e-05 0)
(0.00174144 -2.81428e-05 0)
(0.00174781 -1.5859e-05 0)
(0.00175065 -3.54993e-06 0)
(0.00174995 8.74153e-06 0)
(0.00174574 2.09731e-05 0)
(0.00173802 3.3103e-05 0)
(0.00172684 4.50904e-05 0)
(0.00171223 5.68947e-05 0)
(0.00169427 6.84763e-05 0)
(0.00167301 7.97961e-05 0)
(0.00164853 9.08157e-05 0)
(0.00162093 0.000101497 0)
(0.00159032 0.000111804 0)
(0.00155679 0.0001217 0)
(0.00152047 0.000131148 0)
(0.0014815 0.000140114 0)
(0.00144002 0.000148563 0)
(0.00139619 0.000156461 0)
(0.00135015 0.000163775 0)
(0.00130209 0.000170472 0)
(0.00125219 0.00017652 0)
(0.00120063 0.000181888 0)
(0.00114762 0.000186545 0)
(0.00109335 0.000190461 0)
(0.00103805 0.000193608 0)
(0.000981934 0.000195958 0)
(0.000925231 0.000197483 0)
(0.000868177 0.00019816 0)
(0.000811013 0.000197963 0)
(0.000753987 0.000196872 0)
(0.000697349 0.000194867 0)
(0.000641355 0.000191931 0)
(0.000586263 0.000188051 0)
(0.000532332 0.000183217 0)
(0.000479823 0.000177425 0)
(0.000428993 0.000170676 0)
(0.000380098 0.000162978 0)
(0.000333387 0.000154347 0)
(0.0002891 0.000144812 0)
(0.000247467 0.000134413 0)
(0.000208702 0.000123206 0)
(0.000173001 0.000111267 0)
(0.000140532 9.86998e-05 0)
(0.000111437 8.56351e-05 0)
(8.5819e-05 7.22451e-05 0)
(6.37363e-05 5.87501e-05 0)
(4.51962e-05 4.54317e-05 0)
(3.01448e-05 3.26472e-05 0)
(1.8459e-05 2.08495e-05 0)
(9.93333e-06 1.06095e-05 0)
(4.26761e-06 2.6392e-06 0)
(1.0972e-06 -2.18017e-06 0)
(4.42256e-08 -2.68873e-06 0)
(1.48771e-07 2.4191e-06 0)
(1.73665e-06 7.05905e-07 0)
(6.00829e-06 -5.93429e-06 0)
(1.32145e-05 -1.62745e-05 0)
(2.36711e-05 -2.93578e-05 0)
(3.76693e-05 -4.43926e-05 0)
(5.54127e-05 -6.07277e-05 0)
(7.70288e-05 -7.78314e-05 0)
(0.00010258 -9.52708e-05 0)
(0.000132068 -0.000112694 0)
(0.000165442 -0.000129814 0)
(0.000202603 -0.000146401 0)
(0.000243411 -0.000162267 0)
(0.000287692 -0.000177262 0)
(0.000335241 -0.000191267 0)
(0.000385828 -0.000204186 0)
(0.000439204 -0.000215947 0)
(0.000495101 -0.000226493 0)
(0.00055324 -0.000235783 0)
(0.000613331 -0.00024379 0)
(0.000675076 -0.000250497 0)
(0.000738173 -0.000255897 0)
(0.00080232 -0.000259989 0)
(0.00086721 -0.000262784 0)
(0.000932541 -0.000264297 0)
(0.000998013 -0.000264547 0)
(0.00106333 -0.000263562 0)
(0.0011282 -0.000261373 0)
(0.00119234 -0.000258013 0)
(0.00125548 -0.000253523 0)
(0.00131735 -0.000247943 0)
(0.00137769 -0.000241319 0)
(0.00143626 -0.000233698 0)
(0.00149283 -0.00022513 0)
(0.00154716 -0.000215667 0)
(0.00159906 -0.000205361 0)
(0.00164831 -0.000194269 0)
(0.00169474 -0.000182446 0)
(0.00173818 -0.000169948 0)
(0.00177846 -0.000156835 0)
(0.00181545 -0.000143163 0)
(0.00184901 -0.000128993 0)
(0.00187904 -0.000114381 0)
(0.00190542 -9.9389e-05 0)
(0.00192806 -8.40739e-05 0)
(0.00194691 -6.84948e-05 0)
(0.0019619 -5.271e-05 0)
(0.00197297 -3.67771e-05 0)
(0.00198012 -2.07534e-05 0)
(0.00198331 -4.69551e-06 0)
(0.00198255 1.13406e-05 0)
(0.00197784 2.72998e-05 0)
(0.00196921 4.31277e-05 0)
(0.0019567 5.87706e-05 0)
(0.00194036 7.4176e-05 0)
(0.00192025 8.92918e-05 0)
(0.00189646 0.000104067 0)
(0.00186906 0.000118452 0)
(0.00183816 0.000132396 0)
(0.00180387 0.000145853 0)
(0.00176633 0.000158773 0)
(0.00172565 0.000171111 0)
(0.00168201 0.000182821 0)
(0.00163554 0.000193857 0)
(0.00158643 0.000204175 0)
(0.00153485 0.000213733 0)
(0.001481 0.000222487 0)
(0.00142507 0.000230396 0)
(0.00136727 0.00023742 0)
(0.00130784 0.00024352 0)
(0.00124699 0.000248656 0)
(0.00118496 0.000252793 0)
(0.00112201 0.000255894 0)
(0.00105838 0.000257926 0)
(0.000994326 0.000258858 0)
(0.000930129 0.000258659 0)
(0.000866054 0.000257302 0)
(0.000802381 0.000254765 0)
(0.00073939 0.000251026 0)
(0.000677365 0.000246071 0)
(0.000616591 0.00023989 0)
(0.000557352 0.000232478 0)
(0.000499932 0.00022384 0)
(0.000444607 0.00021399 0)
(0.000391651 0.00020295 0)
(0.000341325 0.00019076 0)
(0.000293878 0.000177474 0)
(0.000249542 0.000163167 0)
(0.000208531 0.000147938 0)
(0.000171029 0.000131917 0)
(0.000137194 0.00011527 0)
(0.000107144 9.82093e-05 0)
(8.09538e-05 8.10032e-05 0)
(5.86495e-05 6.39885e-05 0)
(4.02002e-05 4.75857e-05 0)
(2.55125e-05 3.23184e-05 0)
(1.44185e-05 1.88358e-05 0)
(6.66404e-06 7.93455e-06 0)
(1.98083e-06 5.84948e-07 0)
(1.887e-07 -1.96071e-06 0)
(2.87766e-07 1.3621e-06 0)
(2.60915e-06 -2.93001e-06 0)
(8.40172e-06 -1.25673e-05 0)
(1.77216e-05 -2.62598e-05 0)
(3.07865e-05 -4.29814e-05 0)
(4.78371e-05 -6.18699e-05 0)
(6.9035e-05 -8.22053e-05 0)
(9.44729e-05 -0.000103391 0)
(0.000124185 -0.000124933 0)
(0.000158151 -0.000146425 0)
(0.0001963 -0.000167531 0)
(0.000238515 -0.000187976 0)
(0.000284639 -0.000207535 0)
(0.000334479 -0.000226024 0)
(0.000387813 -0.000243297 0)
(0.000444394 -0.000259236 0)
(0.00050395 -0.000273746 0)
(0.000566194 -0.000286758 0)
(0.000630826 -0.000298218 0)
(0.000697531 -0.000308089 0)
(0.00076599 -0.000316348 0)
(0.000835876 -0.000322984 0)
(0.000906862 -0.000327995 0)
(0.000978616 -0.000331393 0)
(0.00105081 -0.000333192 0)
(0.00112312 -0.000333419 0)
(0.00119523 -0.000332103 0)
(0.00126681 -0.000329284 0)
(0.00133756 -0.000325003 0)
(0.00140719 -0.000319308 0)
(0.0014754 -0.000312249 0)
(0.00154191 -0.000303884 0)
(0.00160645 -0.00029427 0)
(0.00166877 -0.00028347 0)
(0.00172863 -0.000271547 0)
(0.0017858 -0.000258568 0)
(0.00184005 -0.000244601 0)
(0.00189119 -0.000229716 0)
(0.00193902 -0.000213985 0)
(0.00198339 -0.000197479 0)
(0.00202412 -0.000180272 0)
(0.00206108 -0.000162437 0)
(0.00209414 -0.000144048 0)
(0.00212319 -0.000125178 0)
(0.00214813 -0.000105902 0)
(0.00216889 -8.62923e-05 0)
(0.0021854 -6.64228e-05 0)
(0.0021976 -4.63659e-05 0)
(0.00220547 -2.61935e-05 0)
(0.00220899 -5.9768e-06 0)
(0.00220816 1.42139e-05 0)
(0.00220298 3.43091e-05 0)
(0.00219349 5.42404e-05 0)
(0.00217972 7.39403e-05 0)
(0.00216173 9.33424e-05 0)
(0.00213959 0.000112381 0)
(0.00211339 0.000130993 0)
(0.00208322 0.000149114 0)
(0.00204919 0.000166682 0)
(0.00201143 0.000183637 0)
(0.00197007 0.000199919 0)
(0.00192526 0.000215468 0)
(0.00187718 0.000230228 0)
(0.00182598 0.000244141 0)
(0.00177186 0.000257153 0)
(0.00171501 0.000269209 0)
(0.00165565 0.000280255 0)
(0.00159399 0.000290241 0)
(0.00153027 0.000299116 0)
(0.00146472 0.000306831 0)
(0.0013976 0.000313337 0)
(0.00132916 0.000318591 0)
(0.00125968 0.000322548 0)
(0.00118943 0.000325166 0)
(0.00111869 0.000326408 0)
(0.00104775 0.000326237 0)
(0.000976917 0.000324621 0)
(0.000906484 0.000321533 0)
(0.000836757 0.000316949 0)
(0.000768044 0.000310852 0)
(0.000700653 0.000303231 0)
(0.00063489 0.000294086 0)
(0.00057106 0.000283422 0)
(0.000509463 0.00027126 0)
(0.000450391 0.000257631 0)
(0.000394126 0.000242587 0)
(0.000340936 0.000226197 0)
(0.000291072 0.000208554 0)
(0.000244763 0.000189781 0)
(0.000202214 0.000170037 0)
(0.000163597 0.000149521 0)
(0.000129052 0.000128486 0)
(9.86726e-05 0.000107245 0)
(7.25103e-05 8.61848e-05 0)
(5.05633e-05 6.57849e-05 0)
(3.27759e-05 4.66306e-05 0)
(1.90261e-05 2.94368e-05 0)
(9.11375e-06 1.50681e-05 0)
(2.87467e-06 4.56119e-06 0)
(3.31209e-07 -7.7252e-07 0)
(4.22995e-07 -1.43084e-07 0)
(3.47744e-06 -7.76503e-06 0)
(1.08071e-05 -2.10371e-05 0)
(2.22757e-05 -3.86317e-05 0)
(3.79995e-05 -5.94726e-05 0)
(5.81645e-05 -8.26422e-05 0)
(8.28843e-05 -0.000107363 0)
(0.000112211 -0.000132981 0)
(0.000146146 -0.000158949 0)
(0.000184641 -0.000184809 0)
(0.0002276 -0.000210178 0)
(0.000274887 -0.00023474 0)
(0.000326323 -0.000258232 0)
(0.000381698 -0.000280438 0)
(0.000440769 -0.000301183 0)
(0.000503269 -0.000320324 0)
(0.000568909 -0.000337749 0)
(0.000637381 -0.00035337 0)
(0.000708362 -0.000367121 0)
(0.000781519 -0.000378956 0)
(0.000856509 -0.000388844 0)
(0.000932983 -0.000396769 0)
(0.00101059 -0.00040273 0)
(0.00108898 -0.000406735 0)
(0.00116779 -0.000408803 0)
(0.00124669 -0.000408962 0)
(0.00132532 -0.00040725 0)
(0.00140334 -0.000403711 0)
(0.00148044 -0.000398394 0)
(0.00155628 -0.000391357 0)
(0.00163055 -0.000382662 0)
(0.00170296 -0.000372375 0)
(0.0017732 -0.000360567 0)
(0.00184102 -0.000347312 0)
(0.00190615 -0.000332688 0)
(0.00196833 -0.000316777 0)
(0.00202734 -0.00029966 0)
(0.00208296 -0.000281422 0)
(0.00213498 -0.00026215 0)
(0.00218322 -0.000241932 0)
(0.00222752 -0.000220857 0)
(0.0022677 -0.000199013 0)
(0.00230365 -0.000176492 0)
(0.00233523 -0.000153382 0)
(0.00236235 -0.000129773 0)
(0.00238491 -0.000105757 0)
(0.00240285 -8.14211e-05 0)
(0.00241612 -5.68548e-05 0)
(0.00242468 -3.21459e-05 0)
(0.00242851 -7.38147e-06 0)
(0.0024276 1.73525e-05 0)
(0.00242197 4.19711e-05 0)
(0.00241165 6.63904e-05 0)
(0.00239668 9.05279e-05 0)
(0.00237711 0.000114302 0)
(0.00235304 0.000137634 0)
(0.00232454 0.000160443 0)
(0.00229173 0.000182653 0)
(0.00225472 0.000204188 0)
(0.00221364 0.000224974 0)
(0.00216865 0.000244936 0)
(0.00211991 0.000264004 0)
(0.00206759 0.000282107 0)
(0.00201188 0.000299175 0)
(0.00195298 0.000315142 0)
(0.00189111 0.00032994 0)
(0.00182649 0.000343506 0)
(0.00175936 0.000355777 0)
(0.00168996 0.000366692 0)
(0.00161857 0.00037619 0)
(0.00154544 0.000384216 0)
(0.00147087 0.000390714 0)
(0.00139512 0.000395631 0)
(0.00131851 0.00039892 0)
(0.00124134 0.000400533 0)
(0.00116393 0.000400429 0)
(0.00108657 0.000398571 0)
(0.00100961 0.000394925 0)
(0.000933372 0.000389467 0)
(0.000858176 0.000382177 0)
(0.000784355 0.000373046 0)
(0.000712237 0.000362072 0)
(0.000642148 0.000349268 0)
(0.000574407 0.000334659 0)
(0.000509325 0.000318288 0)
(0.000447204 0.000300216 0)
(0.000388329 0.00028053 0)
(0.000332972 0.000259341 0)
(0.000281379 0.000236797 0)
(0.000233774 0.000213083 0)
(0.000190351 0.000188432 0)
(0.000151268 0.000163134 0)
(0.000116647 0.000137544 0)
(8.65679e-05 0.000112097 0)
(6.10633e-05 8.7321e-05 0)
(4.01209e-05 6.38547e-05 0)
(2.36701e-05 4.24674e-05 0)
(1.15697e-05 2.40757e-05 0)
(3.76196e-06 9.763e-06 0)
(4.69423e-07 8.74395e-07 0)
(5.53413e-07 -2.08944e-06 0)
(4.33137e-06 -1.37971e-05 0)
(1.31937e-05 -3.13545e-05 0)
(2.68178e-05 -5.34155e-05 0)
(4.522e-05 -7.88694e-05 0)
(6.85291e-05 -0.000106756 0)
(9.68072e-05 -0.000136251 0)
(0.000130062 -0.000166652 0)
(0.000168257 -0.000197363 0)
(0.000211313 -0.00022788 0)
(0.000259108 -0.000257778 0)
(0.000311477 -0.000286699 0)
(0.000368223 -0.000314346 0)
(0.000429112 -0.000340471 0)
(0.000493882 -0.00036487 0)
(0.000562246 -0.000387377 0)
(0.000633895 -0.000407859 0)
(0.000708499 -0.000426212 0)
(0.000785718 -0.000442357 0)
(0.000865195 -0.000456236 0)
(0.000946568 -0.000467813 0)
(0.00102947 -0.000477066 0)
(0.00111352 -0.00048399 0)
(0.00119835 -0.000488596 0)
(0.00128358 -0.000490903 0)
(0.00136885 -0.000490944 0)
(0.00145379 -0.000488761 0)
(0.00153803 -0.000484406 0)
(0.00162124 -0.000477936 0)
(0.00170305 -0.00046942 0)
(0.00178316 -0.000458928 0)
(0.00186123 -0.00044654 0)
(0.00193695 -0.00043234 0)
(0.00201004 -0.000416414 0)
(0.00208021 -0.000398857 0)
(0.0021472 -0.000379762 0)
(0.00221076 -0.000359228 0)
(0.00227065 -0.000337356 0)
(0.00232667 -0.00031425 0)
(0.00237861 -0.000290012 0)
(0.0024263 -0.000264749 0)
(0.00246956 -0.000238568 0)
(0.00250825 -0.000211575 0)
(0.00254224 -0.000183878 0)