/*--------------------------------*- C++ -*----------------------------------*\
  =========                 |
  \\      /  F ield         | OpenFOAM: The Open Source CFD Toolbox
   \\    /   O peration     | Website:  https://openfoam.org
    \\  /    A nd           | Version:  7
     \\/     M anipulation  |
\*---------------------------------------------------------------------------*/
FoamFile
{
    version     2.0;
    format      ascii;
    class       surfaceScalarField;
    location    "1.245";
    object      phi;
}
// * * * * * * * * * * * * * * * * * * * * * * * * * * * * * * * * * * * * * //

dimensions      [0 3 -1 0 0 0 0];

internalField   nonuniform List<scalar> 
18389
(
-7.97305e-05
7.97305e-05
4.34668e-05
-4.34668e-05
-5.20441e-05
5.20441e-05
4.00995e-05
-4.00995e-05
-5.17931e-05
5.17931e-05
-4.00183e-05
4.00183e-05
-3.47213e-05
3.47213e-05
3.90478e-05
-3.90478e-05
-3.56486e-05
3.56486e-05
4.15267e-05
-4.15267e-05
4.50231e-05
-4.50231e-05
-3.46016e-05
3.46016e-05
-1.58382e-05
1.58382e-05
-4.28675e-05
4.28675e-05
4.34475e-05
-4.34475e-05
2.45805e-05
-2.45805e-05
1.94917e-05
-1.94917e-05
4.5893e-05
-4.5893e-05
4.59244e-05
-4.59243e-05
4.33042e-05
-4.33041e-05
-4.26649e-05
4.26649e-05
3.55942e-05
-3.55941e-05
4.29637e-05
-4.29637e-05
-5.84957e-05
5.84957e-05
-4.97224e-05
4.97224e-05
-4.17673e-05
4.17673e-05
-4.45448e-05
4.45449e-05
4.56274e-05
-4.56274e-05
4.58523e-05
-4.58523e-05
4.41466e-05
-4.41466e-05
-4.13437e-05
4.13437e-05
-6.30746e-05
6.30747e-05
4.31165e-05
-4.31165e-05
-4.47519e-05
4.47519e-05
4.086e-05
-4.086e-05
4.6701e-05
-4.6701e-05
-4.55532e-05
4.55532e-05
5.35648e-05
-5.35648e-05
-5.88877e-05
5.88877e-05
3.78728e-05
-3.78727e-05
4.4856e-05
-4.4856e-05
4.5375e-05
-4.5375e-05
-4.10077e-05
4.10077e-05
4.49049e-05
-4.49049e-05
4.58721e-05
-4.58721e-05
-4.58529e-05
4.58529e-05
-4.58552e-05
4.58552e-05
-4.0667e-05
4.0667e-05
-4.58836e-05
4.58836e-05
4.59442e-05
-4.59442e-05
4.59577e-05
-4.59577e-05
4.46218e-05
-4.46218e-05
3.77326e-05
-3.77326e-05
-4.57675e-05
4.57675e-05
-5.5546e-05
5.5546e-05
-4.38138e-05
4.38138e-05
4.57516e-05
-4.57516e-05
-4.59941e-05
4.59941e-05
4.32265e-05
-4.32265e-05
-5.93189e-05
5.93189e-05
-4.71475e-05
4.71475e-05
4.96054e-05
-4.96054e-05
4.57365e-05
-4.57365e-05
-1.06202e-05
1.06202e-05
4.57752e-05
-4.57752e-05
4.15904e-05
-4.15904e-05
5.12108e-05
-5.12108e-05
-4.58714e-05
4.58714e-05
4.2315e-05
-4.2315e-05
3.17184e-05
-3.17183e-05
2.18348e-06
-2.18348e-06
-4.40897e-05
4.40898e-05
3.28685e-05
-3.28685e-05
-3.65659e-05
3.65659e-05
3.97639e-05
-3.97639e-05
2.66258e-05
-2.66258e-05
2.61995e-05
-2.61995e-05
2.70488e-05
-2.70488e-05
2.43891e-05
-2.43891e-05
1.34053e-05
-1.34053e-05
0.00107672
-0.000882537
-0.000194181
0.00546676
-0.00207594
-0.00339081
-0.00594629
0.00594629
1.64557e-09
0.00335418
-0.00259868
-0.000755499
-0.00154439
0.00176062
-0.000216233
-0.00676506
0.00284518
0.00391989
0.0012156
0.00425116
0.00725591
-0.00587564
-0.00138028
0.00117334
-0.00191796
0.000744624
-0.000868282
-0.000676106
-0.0014423
-0.000314627
0.00175693
0.000159411
1.83295e-06
-0.000161243
0.000778451
-0.00222075
-0.00360334
0.000123498
0.00347983
-0.00320218
0.00289154
0.000310644
-0.00571674
0.00725965
-0.00154292
-0.00370929
0.00289657
0.000812714
-0.000564272
-0.00303907
-0.001747
0.00238797
-0.000640962
-0.000465051
0.00255869
-0.00209363
-0.00160816
0.00110969
0.000498467
0.000583527
0.000581832
-0.00159954
-0.00516552
0.0012435
-0.00178842
0.000544927
0.00578153
-0.00386173
-0.00191979
-0.000657892
0.00331057
-0.00265268
-0.00583463
0.00583495
0.000484211
0.00127641
-0.00635014
0.000968834
0.00538131
0.00232704
-0.00298493
-0.00378979
0.00311349
0.000676294
0.00214797
-0.00422391
0.0010879
-0.00020252
-0.000885384
0.00150323
-0.00128929
-0.000213938
-0.00280118
-0.000400987
0.00535212
-0.00535099
0.000368422
0.00113481
0.00522868
-0.00133722
-0.00389147
0.00200162
-0.000828279
0.00308569
0.00190869
-0.00499437
-0.00072205
-0.00306774
-8.90607e-05
-0.000154785
0.000243846
0.00393552
0.00332039
0.00116971
-0.00489458
0.00372487
0.00162839
0.00360029
-0.00498257
0.00632154
-0.00133896
-0.00113453
-0.00059219
0.00172672
0.00133878
0.00201539
0.000135294
0.000103626
-0.00023892
0.00502239
-0.003394
0.00645917
-0.000842713
-0.00561646
0.0032185
-0.00265501
-0.000563484
0.00222682
0.000445979
-0.0026728
0.00295322
-0.000726405
0.00650348
-0.00539836
-0.00110511
0.000509688
-0.0038748
0.00336511
6.91137e-05
0.00639006
0.00481441
-0.00430472
-0.000535781
0.00105937
-0.000523585
-0.0017591
0.000624567
0.00191708
0.00224908
-0.00416615
0.000253464
-0.000333677
8.02124e-05
-0.00127086
-0.00284574
0.0041166
-2.64918e-05
0.00652998
-0.00281677
0.00229172
0.000525044
0.000388222
-1.21962e-05
-0.000376026
-0.0056923
-0.000253994
0.00187489
-0.00139068
0.000828046
0.00495349
0.000892295
0.000184427
0.00262902
-0.00645766
0.00382865
-0.0011202
0.000584418
0.00263756
-0.00390841
0.00619696
-0.00226143
0.0010921
0.00117729
-0.000774668
0.00102294
-0.000248277
-0.00110966
-0.000498494
0.00189533
0.00132317
-0.000595795
0.00142984
-0.00123773
-0.000192107
-0.00265446
0.0019868
0.000667666
0.00116709
0.000262752
0.00114032
-0.00498194
0.00384162
-0.00476253
0.00142381
0.00333871
-0.00455428
0.00611799
-0.00156372
-0.00506266
8.00885e-05
-0.00201646
-0.000638001
-0.000214786
0.000125725
-0.00122971
0.00465355
-0.00342385
-0.0012267
-0.00069126
0.000103312
-0.000192024
8.8712e-05
0.000126291
-2.29796e-05
-0.00126447
0.00464313
-0.00337866
-0.000156039
2.44602e-05
0.000131579
-0.00556876
0.00170704
-0.00118942
-0.00056968
-0.000449471
-1.89312e-05
0.000468402
-0.000543319
9.38471e-05
0.00101308
7.48168e-05
-0.00180802
0.000618607
-0.000150173
1.70543e-05
0.000133118
0.00136801
-0.00234447
0.000976464
0.000271105
-0.000135811
-0.00392536
0.00514097
-0.00245653
0.000709531
-9.30889e-05
-0.000429411
0.0005225
0.00568641
-0.00216991
-0.0035165
7.67841e-05
0.00250714
-0.00258393
0.00447326
-0.0056228
0.00114955
0.0026343
0.00305212
0.0029131
-0.00283632
-0.00616734
0.000450611
-0.00646694
0.00362899
0.00283796
0.00229379
0.00390316
-0.00439106
0.00138335
0.00300771
0.00149311
-0.000249615
-0.00102716
0.00402173
-0.00299456
0.00463951
-0.00162719
-0.00301233
-0.00461068
0.00374854
0.000862141
0.00369356
-0.00503078
5.86182e-05
0.000329605
-0.00137237
0.00584564
-9.33273e-05
0.0021491
-0.00205577
-0.00206403
0.00260707
0.00017596
-0.00278303
-0.00127741
0.00264541
-0.000650337
0.00325741
0.00164017
-0.0017335
0.000912469
0.00397282
-0.00488529
-0.00504174
0.00384296
0.00119878
0.0025519
-0.00359409
0.0010422
-0.00333776
0.00411944
-0.000781681
0.000335624
-0.00367339
-0.000876384
0.000876384
-0.000446634
0.000353546
-0.000126977
-0.000973465
0.00110044
0.00506974
-0.0018434
-0.00322634
-0.00243278
-0.00036841
0.00289983
0.000157797
1.6504e-05
-0.000174301
-0.00146887
0.00112293
0.000345937
-0.000140438
-0.0049013
0.00506303
-0.00389333
0.000258203
-9.87927e-05
0.00444512
0.000577271
0.00406759
-0.00151568
0.000164891
-7.09458e-06
-0.0063258
-0.00098288
-0.000825144
0.00430048
-0.00190491
-0.00239557
0.00275606
0.00154442
0.00107772
-0.00563199
-0.00225848
-0.000558279
-0.0011193
-0.000959075
0.00207837
3.93828e-05
-0.0027223
0.00268291
-0.00235758
0.00123829
-0.0022181
0.00530379
-0.00462322
0.00160684
0.00301638
0.00254652
0.000668977
-0.000333654
-0.000335322
-0.0060144
0.000582998
0.0054314
-0.00418457
0.00582833
-0.00164377
0.00182567
0.00162925
-0.00345492
-0.0016719
0.000901597
0.000770304
-0.00271488
0.00207775
0.000637134
0.00109996
0.000774936
0.000247198
-0.000328939
8.17425e-05
0.00491037
-0.0039979
-0.00638773
0.00557756
0.000810168
-0.00478973
-0.00167721
0.00334123
0.000649705
-0.00399093
0.000153949
-0.000162139
8.18987e-06
0.000590498
-0.000125324
-0.000465174
-0.00451839
0.00261349
0.000367963
-0.00056275
0.000194787
6.33832e-05
-0.00093977
-0.00257573
0.00448442
-0.00530469
-0.000323476
0.00562818
0.000202859
0.00018096
-0.000383819
0.000658191
-0.000658191
0.00168405
-0.000728081
-0.00210993
0.001811
0.000298923
0.00440469
-0.00302135
-0.000162294
6.25539e-06
-0.00120538
0.00126876
0.000717451
0.00128417
0.0023482
-0.000270443
-0.00402021
-0.00128448
0.00111342
-0.00498823
0.00321243
-0.0044769
0.000836451
-0.00213533
0.00129888
0.00335908
-0.00458878
-0.00271197
-0.00180642
-0.00483603
0.00469559
-0.000675983
-0.00533841
-0.0051595
0.001504
-0.00145986
-4.41329e-05
0.00223068
0.000117512
-0.00601382
0.00204812
0.0039657
-0.00121933
0.000526002
0.000693327
0.00145795
0.00294674
-0.00462562
-0.00101582
0.00564145
-0.00021278
0.000138491
7.42891e-05
-0.00551776
0.0013332
0.00375307
-0.0049369
0.00118384
-0.00149037
-0.000619556
-0.000536674
-0.000637499
0.000138366
-0.000203831
6.54643e-05
0.00500242
-0.00386211
-0.00130134
0.00512574
-0.00382441
-0.000397079
-0.000808301
-0.00586112
0.000439507
0.00539543
-0.00616804
0.00456849
-0.000923715
-0.00546402
-0.00109155
-0.000377319
-0.00181608
0.0028569
-0.00104082
-0.000419201
0.000322091
9.71109e-05
-0.00173204
0.00141741
0.00160266
-9.86639e-05
0.000828123
-3.67557e-05
-0.00169528
0.00279611
0.00121839
-0.00303446
0.00605216
-0.000474593
0.00528248
6.96331e-05
-0.00528187
0.00439162
0.00114347
-0.00553509
0.000556422
-0.000768825
0.000212403
-4.02149e-05
-0.000406419
-1.37772e-05
0.00606593
-0.000162208
0.000156851
5.3571e-06
0.000133312
2.06369e-05
0.00253573
-0.00335866
0.000822933
-0.00192286
0.000732818
0.00119004
0.00792233
-0.00345334
-0.00446898
0.00117129
0.00126288
-0.00243418
0.000104272
-0.000175582
7.13105e-05
-0.00080587
0.00133187
0.00116528
0.0031811
-0.00434638
-0.00561413
0.000165358
0.00544877
-0.00402067
0.00299351
0.00173509
0.00479488
0.00458111
0.00334121
-2.23021e-05
0.000190053
-0.00016775
-0.00131232
0.00439989
-0.00308756
0.000301733
-0.000341948
-0.000131298
-8.14825e-05
0.00410097
-0.00227532
0.00477382
-0.00502276
0.000248936
-0.00325799
0.00610023
-0.00284224
0.00252632
0.00157465
0.00575819
-0.000984368
-0.00139376
-0.00562068
0.00137235
0.00424833
0.00065464
0.000520693
-0.00117533
0.00126955
-0.000614911
0.000585336
-0.00111024
0.000524903
0.00110603
0.000276132
0.000392845
-0.000678268
0.00443134
0.00151573
-0.000392802
0.00354724
-0.00613739
0.00259016
0.00153254
-0.00258397
0.00105143
-0.00432406
0.00116924
0.00315481
0.00291228
-0.00422461
-0.00491313
-0.00125491
-0.00410092
0.00126986
0.00283106
0.00125272
0.00314717
-0.00326411
-0.000836812
0.00222616
-0.00105488
-0.000684689
-0.00252811
0.0032128
0.00240446
0.000621675
-0.00302613
-0.0015879
0.00119915
0.000388753
0.000269968
0.00148208
-0.00196365
0.00048157
-0.00011091
-0.000222767
-0.000264368
0.000153458
-0.00435481
-0.000255864
-0.000292101
0.0011708
-0.000878705
0.00435114
-0.00464561
0.000294469
-8.84199e-05
0.000117767
-2.93467e-05
0.000975664
0.00338062
-0.00435628
-0.000157
6.85804e-05
-0.00475261
0.000711397
0.00404122
-0.000710663
0.00011263
0.000598031
6.76948e-05
-6.58618e-05
-0.000401454
0.000864667
-0.000347476
-0.000517191
-0.00603578
0.000637424
-0.00254966
-0.000128202
0.00267786
-0.00316822
0.00442093
0.00218082
-0.00108872
-0.00116719
-0.00117391
-5.27922e-05
-0.00351967
-0.00124285
0.00150468
-0.000400821
-0.00110385
0.00191851
0.00183898
-0.0037575
0.00504987
-0.00161955
-0.00343032
0.000794588
-0.00542021
-0.00137353
0.00300278
0.00196413
0.000778711
-0.00274284
-0.00349741
0.00447308
-0.000152941
2.76799e-06
0.000937983
-0.00443539
-0.00449714
-0.00014849
-0.000998182
-0.00461595
0.00463623
0.00149425
0.00355562
0.00416022
0.00114388
-0.0053041
3.61322e-05
5.917e-05
-9.53023e-05
-0.00140417
0.0033683
0.00371568
0.00354397
-0.00139814
0.00236894
-0.000970786
-0.0024811
0.000464646
-0.000878412
0.000751434
-0.00020478
0.000407639
-0.000216863
0.00169895
0.0037633
-0.00184478
-0.00106877
-0.000603134
-0.000107146
-0.000157221
0.00355041
-0.00163332
-0.0024037
0.00465279
0.000674538
-0.0030959
0.00242136
0.000636394
0.00076284
-0.00105494
0.00209933
-0.00131732
-0.00327434
0.00459165
-0.00219653
0.00482555
-0.000553601
0.00344513
0.000238042
-0.000220988
-0.00236209
0.000963948
0.00232883
-0.00386964
0.00154082
-0.00120541
5.73285e-05
-2.11963e-05
0.00214669
-0.00279577
0.000649087
-0.00116686
-0.000421037
-0.00353589
0.00450473
0.00119639
0.00167382
-0.00287021
-0.0016888
0.00366481
-0.00197601
0.00424248
-0.000861861
0.000234409
1.41134e-05
-0.000248522
-0.003723
0.0020342
-0.00143283
0.00472307
-0.00329025
0.000878016
0.0013028
0.000168546
0.000489643
0.000253001
-0.000300685
4.76833e-05
0.00170107
0.000210227
-0.00191129
0.00301756
-0.00459454
0.00157698
-5.28147e-05
0.000374221
-0.000321407
0.00156018
-0.000361036
0.001397
-0.000608127
-0.000788869
0.00282181
-0.00392778
0.00110596
0.00267912
-0.00374339
0.00106427
-0.00517257
0.00191458
0.00390754
-0.000889977
-0.000638469
-0.0023727
0.00301117
0.00140781
-0.00511785
0.00371003
0.00336053
-0.00145893
-0.0019016
-0.00068051
0.00172468
-0.00104417
0.00477145
-0.00303636
-0.000691172
-0.00196383
-0.00598351
0.00514079
3.81999e-06
0.000121758
-0.000125579
-0.00157745
0.00119838
0.000379068
-0.00490935
0.00630968
-0.00140034
-0.00188365
0.000726564
0.00115708
0.000406071
0.00268623
-0.00208704
-0.000599187
0.00343554
0.000489001
-0.00392455
0.000124012
-1.97396e-05
0.00517169
0.000337313
-0.005509
-0.00194066
0.00379756
-0.00185691
0.00277131
-0.000645936
-0.00212538
0.000462557
0.00040211
-0.00043681
0.00387235
0.00202612
-0.00396678
0.00070209
-0.000265907
-0.000436182
-0.000632304
6.72483e-06
0.000625581
-0.00315229
-0.00576627
0.0057669
-0.000274817
0.000949478
-0.000674662
-0.00228692
-0.000194194
-0.00455682
0.00323949
-0.000874682
0.00113388
0.00360691
-0.00501967
0.00141276
0.000410683
-0.00296034
0.00232957
-0.00244152
0.000111946
-0.00157141
0.00148227
8.91385e-05
-0.0012084
-0.000369048
-0.00339154
0.00342883
-0.00223243
0.000457233
0.000133266
-0.00173255
0.00105204
-0.00279633
0.000750009
0.00204632
0.000242425
-8.01568e-06
-0.00347739
0.00102423
0.00245316
-0.00144477
0.005605
0.000339503
-0.000953066
0.000613564
0.00211566
0.000655655
-0.00127775
0.000304283
0.00111119
0.00121838
-0.00143217
0.00496232
-0.00353015
-0.00485054
0.00577343
-0.000922892
-0.00117572
0.00228626
0.0041038
0.00107199
3.77039e-05
0.00586207
-0.00551282
-0.000349251
0.00356205
-0.00466447
0.00110242
0.00309338
-0.000688922
0.00542572
-0.00181881
-0.0025033
-0.000974088
-0.0021703
-0.00032494
0.00249525
0.00241271
-0.00196674
-0.00160817
-0.00424203
0.00274625
0.00149579
-0.000325745
0.00122734
0.00122109
0.00365988
-0.00488097
-0.00029773
0.000665693
0.00305957
-0.00238503
-0.00472469
-0.00125882
0.00647043
-0.00129874
0.00424439
0.00206047
0.000498219
0.00285482
-0.00212495
-0.000729866
0.00473765
-0.0024514
-7.25896e-05
-0.00332574
-0.000870133
0.00419588
0.000387722
-8.6402e-05
-0.00030132
-0.00514426
0.00610897
-0.000964708
-0.000736853
0.00190219
-0.00116533
-0.000697005
0.00525191
-0.00455491
0.00117192
-0.00190878
-0.000112938
-0.00576269
-0.000774668
0.0020255
0.00383657
-0.00024297
-0.00192733
0.000251399
-4.20108e-06
0.000362593
-0.000487917
0.00336219
-0.000826465
-0.0052267
-0.00027164
-0.000147562
0.00015019
-0.000133571
-1.66188e-05
-0.00248324
0.000125656
-0.000422773
0.00158962
-0.00101217
-0.000577447
0.00247338
0.00059161
-0.00306499
-0.000711896
0.00318527
-0.00520292
-0.000271503
0.00547442
0.00375028
0.00137547
0.00441341
-0.00123231
-0.000134559
0.00254727
0.00540386
-0.00020666
-0.0051972
-0.0060873
0.00425234
0.00183497
0.00321096
-0.00126829
-0.00435239
0.000201956
-0.000224258
0.000579452
0.000817541
0.00107412
0.000112126
-0.00118625
0.00421231
0.00119155
-0.000959153
0.00317199
-0.00221284
0.00473809
-0.00139685
-0.00217836
0.00279248
-0.000614112
-0.00117715
-0.00012799
0.000316475
-0.000188485
0.00344654
-0.00414355
0.00134438
-0.000987438
-0.000356944
0.00159534
-0.000396951
-0.00325077
0.00229162
0.00548659
-0.00434313
-3.06271e-05
0.000352719
-0.00535631
0.000446954
0.00545391
-0.00190668
-0.00100274
-0.00361466
0.00461741
-0.000646718
0.00288256
-0.00223585
0.00549725
-0.00286245
-0.00263481
-8.83973e-05
0.000592597
-0.000677238
0.000660556
1.66816e-05
-0.000687945
0.00172932
-0.00104137
-0.00314835
-0.00117571
0.00015557
-1.72035e-05
-0.0012246
-0.00478922
-0.0030774
0.0023927
-0.000453714
-0.000204475
-7.26276e-05
-8.95802e-05
-0.00120377
-0.000805801
-0.00522999
-0.00283815
0.00219144
-0.000818636
0.00118706
0.00112684
0.00438763
-0.00551446
0.00340396
-0.00275425
0.000468629
0.000774339
-0.00288413
0.0021098
0.00499008
-0.00494374
-4.63326e-05
-0.00320953
0.0036156
-0.00040606
0.000207795
-9.56091e-05
-0.000112187
-0.00496424
-0.00149344
-0.00175646
0.00368995
-0.00193349
0.00298132
-0.00220698
-0.00378362
0.00202717
0.00139501
-0.00258174
0.00118673
-0.00363327
0.00568139
0.00650007
-0.00219633
-0.00430375
-0.00239954
0.00237333
2.62188e-05
0.00562097
-0.00164817
0.00118664
-0.000924546
-0.000262099
-9.111e-06
0.000262112
0.000249617
-0.000773341
0.000523723
-0.00304627
0.00365147
-0.000972349
0.000845471
-0.00104799
0.00236198
-0.000631428
-0.00173056
0.00220517
-0.000504097
0.00452832
0.00062929
0.0017327
-0.00175317
0.00106523
0.000408593
-0.00046469
5.60962e-05
0.00221082
-0.00174501
-0.000465818
0.00083408
-0.00514781
-0.00054449
0.000369492
-0.000588344
0.000218851
-0.00410119
0.00547354
0.00094215
-0.00111663
0.000174481
-0.00152087
0.00216438
-0.000643512
-0.00149162
-0.00275042
-0.00538007
-0.000157068
0.00553714
0.000301261
0.000108304
4.18869e-05
0.000127948
-0.000127893
-5.46017e-08
0.00412294
-0.00290185
-0.00380331
-0.00233408
0.00346632
0.00303375
-0.00259656
0.000735779
0.00186078
-0.000844677
0.00223968
-0.00229606
-0.000103482
0.00272874
-0.00377744
0.00104871
0.00130603
-0.000135228
0.000459857
0.00055323
-0.00327778
0.000964722
0.00231306
0.000916727
-0.00060041
-3.18957e-05
-0.00427857
0.00172609
9.75732e-05
-0.00182365
-0.00396581
0.00146638
0.00249944
0.00052085
0.00146414
-0.000884689
-0.000246044
-0.00466044
0.00490649
0.000784802
-0.0024768
0.001692
0.0012022
0.00131232
-0.000475134
-0.00171142
0.00218656
0.0025801
-0.00179529
0.00447077
-0.00353278
-0.000783687
-0.00264076
-0.000227576
0.000252036
-0.000702105
0.00176329
-0.00106119
0.00265884
-0.00366739
0.00100854
0.000136456
2.03956e-05
-0.00236261
-0.000915181
0.00142152
-0.00163643
0.000214915
-0.00277446
0.000687422
0.00127651
-0.00141876
0.000142247
0.00161888
-0.00180791
0.000189032
0.000676459
-0.00372833
-0.00116625
0.00135383
-0.00490568
0.00355185
-0.000915238
0.00357407
0.000116139
-7.71234e-05
-3.90155e-05
0.00476851
-0.00364166
-0.000332769
-0.001533
-0.00401682
-0.00150094
0.00209114
0.000701333
-0.0010155
-0.000923986
-0.0045336
-0.00163375
-0.000381789
0.0012424
-0.000931026
-0.000311372
-0.00149522
-0.00108876
0.000657888
0.00225666
-0.00291455
-0.000114284
0.000670705
-0.000715992
3.87539e-05
-0.00245572
0.00196644
0.00139409
-0.000734134
0.00165792
-0.000923785
-8.68714e-05
-0.00011696
0.000317854
-0.00194519
0.000454826
0.00160226
-0.00231131
0.00070905
-0.00334436
0.00257882
0.000765528
0.00119295
0.00241947
-0.00361241
-0.00175277
0.00105066
-0.00294081
-0.001025
-0.000797037
-0.00254732
-0.00167615
0.00125188
0.000424273
0.00176313
-3.70394e-05
-0.000764192
-0.00243271
0.0031969
-0.00068067
0.00291443
-0.00225653
-0.000858548
-0.00394759
0.00480615
-0.00234342
0.00233848
4.94758e-06
-0.000710663
-0.00156165
0.000549477
-0.00240489
0.00381944
-0.00141455
0.00323284
0.00288515
0.000194396
3.62194e-05
-0.000230616
0.00233991
-0.000602966
-0.00173694
0.000188183
-0.000184363
-0.00359111
0.00494494
-0.00330098
0.00525014
-0.00194916
-0.00351009
-0.00150957
-0.000913861
0.00323156
-0.00231771
0.00285623
0.0017759
-0.00418081
-0.00499793
-0.000146317
-0.000797098
0.00284983
-0.00205272
-0.000431684
0.000378869
-0.000528602
0.0016747
-0.00114609
-0.00403766
0.00334122
0.000696434
-0.00326937
0.0023555
-0.00386932
0.000675721
0.0031936
0.00141014
-0.00101285
-0.000397292
-0.00589957
0.000696657
0.00184646
-0.0014105
-0.000435957
0.00140561
-0.000392053
-0.00101356
7.8376e-05
0.00012942
0.0029335
-0.000641773
-0.000220514
-0.00348709
-0.000382234
0.000428476
-0.00305361
-0.000984052
-0.00233531
-8.11215e-06
-0.0029265
0.00228804
0.000721103
0.00260145
-0.00332256
0.00058435
-0.000859168
0.00141233
-0.00671904
0.00530672
-0.00578717
0.000997436
-0.00234654
0.00353949
0.00069116
0.00025832
-0.00273247
0.00345357
-0.000100146
0.00509022
0.000622336
0.00170187
-0.00232421
-0.00177538
0.00124678
0.00274597
-0.0036957
0.000949725
0.00510137
0.000666177
0.00154464
0.000314503
0.000387585
-0.000364068
-0.000404757
0.000180958
-0.00174434
0.00176684
-0.000888827
0.000849656
0.000614479
-0.000586581
0.00301114
-0.00242456
-0.00149639
0.00184139
-0.000344999
-0.00489579
0.0038014
0.00109439
-0.00480605
0.00150507
-3.92365e-05
3.89928e-05
2.43686e-07
-0.00280983
-0.000857553
0.00107539
-0.00129264
0.000217247
0.0013629
-0.00495401
0.00102207
5.20511e-05
0.00124519
0.000695375
0.00218719
-0.00366758
0.000857751
0.000187021
-0.00503756
0.00189849
0.00120945
0.000692738
-0.00527397
-0.000492296
0.00565397
0.00118497
0.00710717
-0.00218499
-0.00492218
0.000783855
-0.000379347
-0.000404509
0.000720674
-0.00138075
0.000777609
-0.00386046
-0.00125738
0.000316475
-0.000928602
-0.000419314
0.00134792
0.00232785
0.00400854
-0.00486708
0.0027023
0.000835028
-0.00353734
0.00124955
-0.000963612
-0.000285935
0.000745357
0.00159455
-0.000135037
0.000138275
-3.23798e-06
-0.000710386
0.00288357
-0.00217319
0.00362053
0.00110255
-0.00126163
-0.000414528
0.00141965
-0.00154111
0.000121462
4.72003e-05
6.89386e-05
-0.00447722
0.000967127
-0.00165242
0.000444016
-0.00364628
0.00293437
-0.000948681
6.61436e-05
0.000936167
0.00267936
-0.00361553
0.000845891
-0.00126115
0.00419226
-0.0029311
0.000318519
0.000279917
4.65792e-05
-0.000326497
7.83078e-05
-0.00539166
0.00531335
-0.00263017
-0.000785673
0.00341585
-0.00349533
0.00260577
0.00088957
-0.00278055
-0.000261906
-0.00171325
-0.00491533
0.000898509
-0.00145296
-0.000882351
-0.00106363
0.00379236
0.00170751
-0.00372569
0.00201819
0.000105601
2.2347e-05
0.00372625
-0.00201875
0.00286133
0.00096458
-0.0038259
-0.00130043
0.00174023
-0.000439807
0.00357326
0.00110442
-0.00467768
0.00718414
-0.00197402
-0.00521011
-0.00212633
-0.000711823
-0.00172524
0.00234757
0.00377261
-0.00492917
0.00115655
-0.0028015
0.00373767
0.00113718
-9.23742e-06
-0.00112795
0.00148172
0.000906242
-0.00551225
0.000599111
0.000432287
0.000351567
0.00292153
-0.00112318
-0.00252172
0.00247937
4.23549e-05
0.000504918
-0.00184032
0.00133539
-0.00386893
-0.00119373
0.00109101
-0.00254397
-0.00529915
0.000151351
-0.00124599
-0.000526972
0.00177296
0.00563582
-0.00449194
0.000104285
0.000283438
-0.00301513
0.0031911
0.00143976
-0.00107098
-0.000368781
0.00346803
0.00475982
-0.000958429
0.000648309
-0.00327848
0.00106117
-0.000948544
-5.28865e-05
0.000461479
0.000393961
-1.97398e-05
-0.00207015
-0.000454996
0.00153039
-0.000916521
-0.0034975
0.000765042
-2.85006e-05
-1.07359e-05
0.00599853
-0.00492079
0.00522243
-0.00439438
1.48556e-05
-0.000598031
0.000583175
0.00194866
-0.000458595
-0.00149006
0.00335892
-0.000757467
-0.00256768
0.00336107
-0.000793392
-0.00183205
0.000531624
0.0012785
-0.000952161
-0.00032634
-0.000118766
-0.000210172
0.00205894
-0.00054842
-0.00151052
-0.00138024
-0.00239355
-0.000128169
0.00208886
-0.00274524
0.000656381
0.00280641
-0.00075102
-0.0020554
0.00410335
-0.00434939
0.00031489
0.00224166
-0.000639406
-0.000683323
0.000833968
-0.00367634
0.00503923
0.00122458
0.000471037
-0.00171702
-0.00286756
0.00209603
0.003634
0.00158843
-0.00113384
-0.00383337
-0.00114857
0.00130294
-0.00171674
0.000413804
0.00367505
-0.00318606
-0.000193837
0.00113599
-3.86467e-05
-0.000270604
0.000309251
-0.00070311
-0.00189345
0.00377166
-0.00490914
0.00113749
-0.00185982
0.00235189
-0.000492069
-0.0011575
0.00213201
0.00075156
-0.00226205
0.003755
-0.00149296
0.00150461
-0.00114066
-0.000363953
-0.000989536
0.000278875
0.00018526
-0.000439139
0.000253879
-0.000425902
-0.00122652
-0.00248025
0.00250382
-2.35716e-05
0.00144956
-0.00371162
0.00162355
-0.00037167
0.000367301
-0.00041869
5.13884e-05
-0.000825644
0.000592848
0.000232796
-0.000795204
-0.00285146
0.000836494
0.00201497
-0.001996
-0.000844385
-0.000708272
0.00155265
-0.00524302
0.00389531
0.0013477
-0.00121209
0.00122695
-0.000576388
-0.000115922
0.00069231
0.00286819
-0.000736182
-0.000770366
-0.000160183
0.000930549
0.0018397
-0.00136867
0.00169786
-0.000394915
-0.000150921
-0.000638582
-0.00420299
0.00484158
-0.0013836
0.00282966
0.00427752
-0.00239861
-8.16333e-05
0.00311886
-0.00473841
0.000733468
0.00158114
-0.00231462
0.00200453
-0.00280162
0.00199135
-0.000732838
-0.00125851
-0.0017959
0.000456068
0.00133983
0.00432087
0.00286327
-0.00552298
0.00134113
0.00418185
-0.00125195
-0.00399107
-0.000460221
-0.00133568
-0.000998431
-0.000563217
-0.00129174
-0.000425003
0.00114517
-0.000532298
0.00150503
-0.000972733
-0.00175702
0.00129679
-0.000944491
-0.000207191
0.00115168
0.00217058
-0.00286683
0.000696255
-1.17671e-05
0.000206163
0.00103282
0.00606816
-0.00140984
-0.00465832
-0.00203636
-0.00187255
0.00133443
0.000538115
0.00127119
-0.000978036
-0.000293157
-0.00229034
-0.00103001
0.00332037
-0.00266834
0.00358478
-0.000916443
-0.000921615
0.00111434
1.07691e-05
-0.00112511
0.00376012
-0.00493843
0.0011783
0.00174745
-0.00135522
-0.00039223
0.00242707
-0.00122486
0.00274031
-0.000634507
-0.000191136
-0.00409192
0.00229
-0.0018007
-0.000489306
0.000560825
-0.00200883
0.001448
-0.00251237
-0.000846292
0.000859166
-0.000657776
-0.00020139
-0.000180492
-0.00364413
0.00097579
0.000665023
-0.000479762
0.0025897
0.000995076
0.000319033
0.001296
0.00069535
-0.00160269
0.00233615
-0.00150067
0.000984279
0.000516394
0.00355412
-0.000692785
-0.00380981
0.0061036
-0.00114902
-0.00249137
0.00683168
-0.00434031
-0.000889229
0.0035686
-0.00414181
0.000932286
-0.00210162
0.00424959
-0.00069872
-0.00161259
-0.0024504
0.00170754
0.000742863
-0.0012805
0.000371623
-0.000434513
6.2891e-05
-0.00137389
-0.000776871
-0.000153509
0.000930381
-0.0015618
0.00135938
0.00020242
0.00203279
0.000817031
6.24404e-05
-0.00130017
-0.000553335
-0.000827407
-0.00242353
-0.000483174
-0.00138937
-0.00017107
0.00159259
-0.000180726
0.00341123
-0.00051466
0.00133895
0.000199396
-0.000823154
-0.000965268
-0.00192973
0.00247698
-0.000547254
-0.00104095
-0.0057289
0.0035108
0.0014716
-0.000621947
0.0028872
-0.00121338
0.000968254
-0.00135882
-0.00453029
0.00588911
0.000620777
-0.00255051
0.000741861
-0.00369078
0.00269671
0.000994061
0.000888163
-0.00142046
0.0022229
-0.00311878
0.000895863
0.00119619
-0.00342963
0.00223344
0.000861015
0.00168754
-0.00254856
-0.000174325
0.0017932
0.0027399
0.00107871
0.00361761
-0.00041352
0.00078301
0.0031577
-0.00402783
0.000985769
-0.00327611
0.00043623
0.00412521
0.00146566
-1.06314e-05
-0.000275156
0.000285787
-0.0061928
0.00385624
0.00233656
-0.000832004
-0.00261349
0.0034455
0.00263945
-0.00177843
-0.00369729
0.000895788
-0.0013211
-0.00043592
-0.000152684
0.00131977
0.00372698
0.00123533
0.000224659
0.00130829
-0.000991747
-0.00031654
0.000879687
0.000591918
-0.000313978
0.00376794
-0.00493552
0.00116759
0.00307882
-0.000855928
-0.00139813
0.00190304
0.00125721
-0.00355421
0.002297
-0.0011705
0.00145557
0.000678857
-0.00213443
0.000192374
-0.000203006
0.0021983
-0.000859517
-0.00124146
0.00033025
0.000925741
-0.000348102
-0.000577639
0.00353286
-0.00227565
-0.00051508
0.00229652
-0.00178144
0.00101873
-0.00297203
0.0020788
0.000893234
0.000106594
-9.92496e-07
0.00467546
0.000541845
-0.00570738
-0.00519757
0.00392776
0.00126982
-0.00107992
-0.00269347
0.00377339
0.00222123
0.00372506
0.002826
-0.00375399
0.000927997
-0.00146905
0.0011
-0.000964161
0.00337883
-0.00241468
0.00149644
0.000562498
-0.00378536
-0.00240744
0.00108609
-0.0023012
0.00321686
-0.000915664
0.00343807
-0.000832299
0.000397033
-0.000818674
0.00254012
0.000897958
-0.000635767
0.00431082
-0.00130828
0.00171613
-0.000407846
0.00200424
-0.00127142
-0.000390339
0.00607683
-0.00492009
-0.000459985
0.000859126
-0.00246181
-0.0053916
-0.00172211
0.000413828
-0.00067815
0.000101762
-0.000871289
0.0002124
-0.00146794
0.000676672
0.00156498
-0.00090543
0.000135064
0.00080561
0.00251565
-0.00332127
-0.00109515
0.0018736
-0.00194655
-0.000474535
0.00196106
-0.00148652
-0.000890899
-0.00208113
-0.0019517
0.00147716
-0.00265711
0.00346271
-0.00163799
0.000589419
0.00104857
-0.000984328
0.00357403
0.00602531
-0.00230963
-0.00130194
-0.000420174
-0.0017385
0.00109734
0.000641163
0.000906662
-0.00452044
0.00361378
-0.00131218
0.00054748
0.000764695
-0.00403543
-0.00116214
0.000191709
-0.0011362
0.00193575
-0.000726305
-0.00135331
-0.00380687
0.00516018
0.000999467
7.25179e-05
0.00329718
-0.0025274
-0.000769778
0.000133221
0.00127239
0.000876254
-0.000669073
-0.000207181
-0.00134368
-0.0010184
-0.00109025
0.00513108
-0.00404083
0.000637822
-0.00249764
0.000144021
0.00127563
0.00377199
-0.0049629
0.00119091
0.00288219
-0.0020457
0.000101869
-0.000168236
6.63675e-05
0.00102964
0.000138118
0.000104306
0.00235864
0.00370952
-0.000583947
-0.000805953
0.0013899
0.000653682
0.00177065
-0.00242433
0.00240332
-0.00169946
-0.00070386
0.000475891
0.00147277
0.000426358
-0.00051354
-0.000798637
0.0005994
-0.00532409
0.000690425
-2.987e-05
-0.00116352
-0.00131931
-0.00379498
0.00511428
0.00103363
0.00143669
-0.00189528
0.00254667
-0.00039481
-0.00490877
0.00530358
0.000120601
-1.87317e-05
0.000669535
0.00126622
0.00272673
0.000947371
-0.00367409
0.00137465
0.000471815
0.00258708
-0.00364043
0.00454709
0.00277354
0.000844097
-0.00361764
0.00163147
-0.000827177
-0.000804292
0.00132776
-0.00101803
-0.000309727
0.000424386
0.00106051
-0.00470095
0.000218477
-6.75397e-06
0.000199128
0.00604671
-0.00127821
0.00152551
-0.00212847
0.00252994
-0.00182103
-0.000708914
0.000867751
-0.00254356
0.00167581
0.00523438
-0.002815
-0.000928377
-0.00158265
0.005012
0.00148634
-0.00178136
0.000295018
0.000499626
-0.000103687
-0.000395937
-0.00099952
-0.00313897
0.0041385
0.000743088
0.0018186
-0.00256169
0.00176754
-0.000281193
0.00224694
0.00140485
-0.000857373
-0.000937424
0.000160552