/*--------------------------------*- C++ -*----------------------------------*\
  =========                 |
  \\      /  F ield         | OpenFOAM: The Open Source CFD Toolbox
   \\    /   O peration     | Website:  https://openfoam.org
    \\  /    A nd           | Version:  7
     \\/     M anipulation  |
\*---------------------------------------------------------------------------*/
FoamFile
{
    version     2.0;
    format      ascii;
    class       volScalarField;
    location    "15";
    object      T;
}
// * * * * * * * * * * * * * * * * * * * * * * * * * * * * * * * * * * * * * //

dimensions      [0 0 0 1 0 0 0];

internalField   nonuniform List<scalar> 
2413
(
1.17728
1.17901
1.18047
1.18176
1.18297
1.18413
1.18524
1.18623
1.18705
1.18767
1.18814
1.18852
1.18889
1.18929
1.18968
1.19
1.1902
1.19023
1.1901
1.18968
1.189
1.18815
1.18717
1.18615
1.1851
1.184
1.18282
1.18154
1.1802
1.17894
1.17774
1.17621
1.17439
1.17228
1.16999
1.16793
1.16627
1.16491
1.1637
1.16253
1.16135
1.15999
1.15827
1.15623
1.15417
1.15232
1.15071
1.14932
1.14824
1.1476
1.14731
1.14702
1.1466
1.14639
1.14637
1.14651
1.14718
1.14847
1.14949
1.14958
1.14932
1.1488
1.14814
1.14733
1.1463
1.14505
1.14363
1.14205
1.14032
1.13841
1.13623
1.13372
1.13105
1.12848
1.12626
1.12455
1.12337
1.12259
1.12195
1.12129
1.12071
1.12043
1.12046
1.12083
1.12171
1.12266
1.12343
1.12414
1.12478
1.12539
1.12596
1.12658
1.1275
1.12892
1.13109
1.13439
1.13931
1.14656
1.15741
1.17411
1.20004
1.23881
1.29028
1.34189
1.36788
1.37006
1.36749
1.36002
1.35008
1.34107
1.33503
1.33078
1.32603
1.31924
1.31039
1.30031
1.28953
1.27794
1.26613
1.25774
1.25696
1.25877
1.25444
1.24204
1.22023
1.19005
1.16058
1.14779
1.14841
1.15075
1.15581
1.15923
1.1867
1.18872
1.19039
1.19186
1.19319
1.19446
1.19568
1.19676
1.1976
1.19812
1.19839
1.19858
1.19879
1.19908
1.19948
1.19996
1.20039
1.20057
1.20053
1.20028
1.19978
1.1991
1.19832
1.19747
1.19653
1.19549
1.19428
1.19283
1.19104
1.18875
1.18605
1.18378
1.18168
1.17968
1.17781
1.17584
1.17383
1.17183
1.16977
1.16757
1.1651
1.16249
1.15996
1.15757
1.15541
1.15349
1.15167
1.14989
1.14819
1.14644
1.14447
1.14273
1.14175
1.14129
1.1412
1.14134
1.14217
1.14379
1.14545
1.14644
1.14664
1.14658
1.14634
1.14585
1.14508
1.14405
1.1428
1.14139
1.13985
1.13816
1.1363
1.13426
1.13211
1.12998
1.12797
1.12617
1.12471
1.12361
1.12266
1.12175
1.12093
1.12025
1.11986
1.11988
1.12031
1.12103
1.1218
1.12258
1.12336
1.12415
1.12486
1.12564
1.12668
1.12818
1.1304
1.13366
1.13838
1.14535
1.15577
1.17173
1.19648
1.23372
1.28408
1.33675
1.36616
1.36963
1.36754
1.3608
1.3517
1.344
1.33923
1.33569
1.33102
1.32369
1.31404
1.30341
1.29224
1.28016
1.26768
1.25829
1.25626
1.25784
1.25497
1.24476
1.22651
1.20043
1.17264
1.15704
1.15552
1.15741
1.16178
1.1654
1.21223
1.21489
1.21709
1.21898
1.22069
1.22228
1.22378
1.22515
1.22627
1.22699
1.22727
1.22735
1.22742
1.22758
1.22792
1.22847
1.22912
1.22968
1.22999
1.23
1.22985
1.2295
1.22907
1.22862
1.22809
1.22744
1.22662
1.22552
1.22404
1.22214
1.21977
1.21709
1.21441
1.21182
1.20916
1.20633
1.20327
1.2001
1.19689
1.19371
1.1905
1.18704
1.18338
1.17954
1.17552
1.17134
1.16709
1.16285
1.15884
1.15537
1.15252
1.15008
1.14776
1.14578
1.14418
1.14304
1.14285
1.14324
1.14429
1.14544
1.14631
1.14664
1.14659
1.14627
1.14561
1.14466
1.14353
1.14229
1.14102
1.13983
1.13869
1.1375
1.13619
1.13467
1.13287
1.13077
1.12861
1.12656
1.12472
1.12303
1.12152
1.1202
1.11898
1.11793
1.11729
1.11708
1.1173
1.11802
1.11894
1.11994
1.12101
1.12216
1.12349
1.12519
1.12758
1.13083
1.13523
1.14157
1.15105
1.16543
1.18762
1.22142
1.26888
1.32302
1.36053
1.36846
1.36716
1.36147
1.35206
1.34257
1.33575
1.33108
1.32629
1.31972
1.31155
1.30308
1.29459
1.28485
1.27376
1.26415
1.26098
1.26318
1.26318
1.25653
1.24263
1.22259
1.19971
1.18179
1.1753
1.17649
1.17984
1.18353
1.24261
1.24584
1.24861
1.25108
1.25337
1.25551
1.25754
1.25944
1.26111
1.26245
1.26334
1.26389
1.26429
1.26471
1.26521
1.26584
1.26658
1.26732
1.26798
1.26855
1.26895
1.26913
1.26918
1.26916
1.26904
1.26873
1.26822
1.2675
1.26649
1.26514
1.26325
1.26086
1.25836
1.25577
1.25318
1.25043
1.24732
1.2438
1.23997
1.23588
1.23162
1.22723
1.22245
1.21718
1.21136
1.20496
1.19815
1.191
1.18341
1.17564
1.16808
1.16107
1.15466
1.14884
1.14397
1.14
1.13586
1.13339
1.13349
1.13473
1.13659
1.13845
1.13994
1.14086
1.14124
1.14125
1.14117
1.14099
1.1407
1.14036
1.14
1.13971
1.13941
1.13892
1.13803
1.13655
1.13441
1.13186
1.12916
1.12638
1.12366
1.12113
1.11883
1.11672
1.11478
1.11262
1.11115
1.11104
1.11149
1.11249
1.11387
1.11547
1.11722
1.11927
1.12193
1.12523
1.12927
1.13475
1.14283
1.15506
1.17397
1.20321
1.24616
1.30035
1.34814
1.36597
1.36609
1.36215
1.35329
1.34298
1.33541
1.33111
1.32719
1.32181
1.31531
1.30915
1.30337
1.29636
1.28724
1.27767
1.2717
1.27302
1.27547
1.27282
1.26383
1.24961
1.23319
1.21748
1.20629
1.20299
1.20457
1.20702
1.26513
1.26863
1.27173
1.2745
1.2771
1.27954
1.28186
1.28412
1.28623
1.28808
1.28964
1.29091
1.29188
1.29265
1.29343
1.29431
1.29532
1.29636
1.2973
1.29814
1.2989
1.29955
1.30007
1.30051
1.3009
1.30115
1.30119
1.30111
1.30082
1.30031
1.29952
1.29827
1.29666
1.29479
1.29275
1.2906
1.2882
1.28552
1.28264
1.27964
1.2763
1.27245
1.26801
1.2628
1.25662
1.24941
1.24111
1.23174
1.22132
1.2099
1.19777
1.18542
1.17311
1.16111
1.1503
1.14128
1.13351
1.12665
1.12235
1.12182
1.12292
1.1246
1.12638
1.12843
1.1305
1.13232
1.13405
1.1357
1.13712
1.13819
1.13901
1.13979
1.14041
1.1405
1.1403
1.13965
1.13858
1.13704
1.13487
1.13201
1.12864
1.12492
1.12113
1.1175
1.11412
1.11101
1.10776
1.10473
1.10339
1.10351
1.1043
1.10582
1.1078
1.11018
1.11312
1.11662
1.12054
1.12534
1.13197
1.14186
1.15731
1.1816
1.21873
1.26997
1.32515
1.3588
1.36408
1.36215
1.35541
1.34511
1.33587
1.33011
1.32685
1.32419
1.32133
1.31855
1.31556
1.31124
1.30462
1.29614
1.28817
1.2842
1.28537
1.28626
1.28248
1.27324
1.26122
1.24877
1.23721
1.22859
1.22673
1.22626
1.27586
1.27916
1.2822
1.2849
1.28738
1.28976
1.29201
1.29414
1.29618
1.29808
1.29986
1.30163
1.30333
1.30476
1.3059
1.30695
1.30799
1.30907
1.31015
1.31125
1.31237
1.31345
1.31438
1.31516
1.31583
1.3164
1.31687
1.31721
1.31737
1.31737
1.31724
1.31692
1.31638
1.31561
1.31463
1.31349
1.31219
1.31062
1.30869
1.30638
1.30368
1.30058
1.29694
1.29259
1.28728
1.28086
1.27319
1.26423
1.25388
1.24192
1.22838
1.21347
1.19752
1.18093
1.16453
1.14953
1.13659
1.12498
1.11495
1.10783
1.10467
1.10455
1.10543
1.10749
1.1104
1.1137
1.11731
1.12103
1.12466
1.12812
1.13144
1.13438
1.13651
1.13785
1.13896
1.13936
1.13931
1.13884
1.1377
1.13604
1.13377
1.13056
1.12649
1.12179
1.11685
1.11193
1.1073
1.10297
1.09874
1.09561
1.09498
1.09539
1.09664
1.09867
1.10153
1.10509
1.10904
1.1135
1.11914
1.12705
1.13919
1.15854
1.18901
1.23393
1.28988
1.33916
1.35957
1.36026
1.35685
1.3484
1.33736
1.32877
1.32587
1.32591
1.326
1.32577
1.32481
1.32247
1.3182
1.31154
1.30312
1.29463
1.28932
1.28801
1.28751
1.28389
1.27627
1.26743
1.25843
1.24982
1.24364
1.23906
1.27981
1.28277
1.28585
1.28854
1.29068
1.29268
1.29467
1.29646
1.29813
1.29982
1.30149
1.30311
1.3049
1.30673
1.30824
1.30948
1.31065
1.31185
1.31303
1.3141
1.31515
1.31625
1.31733
1.31831
1.31925
1.32015
1.32095
1.32159
1.32214
1.32248
1.32248
1.32241
1.32217
1.32188
1.32155
1.32107
1.32041
1.31959
1.31856
1.31717
1.31532
1.31303
1.31022
1.30669
1.30229
1.29671
1.28983
1.2816
1.27194
1.2607
1.24787
1.23348
1.21748
1.19988
1.18116
1.16241
1.14465
1.12841
1.11387
1.10231
1.09414
1.08867
1.08706
1.08744
1.08904
1.09141
1.09469
1.09896
1.10371
1.1087
1.11381
1.11868
1.12311
1.12725
1.13117
1.13427
1.13571
1.13675
1.13748
1.1372
1.13613
1.13435
1.1317
1.12776
1.12268
1.11679
1.11042
1.10411
1.0985
1.09331
1.08888
1.08688
1.08697
1.08778
1.08955
1.09225
1.09579
1.10001
1.10499
1.11141
1.12071
1.13533
1.15883
1.19499
1.24467
1.29998
1.34212
1.35595
1.35541
1.35075
1.34103
1.33038
1.32411
1.32317
1.32347
1.32384
1.3237
1.32329
1.32202
1.31861
1.31179
1.30243
1.29292
1.2857
1.28234
1.28043
1.27844
1.27524
1.27038
1.26401
1.25658
1.2491
1.28057
1.2827
1.2847
1.28697
1.28893
1.29049
1.29206
1.29355
1.29475
1.29594
1.29722
1.2985
1.29999
1.30187
1.30386
1.30548
1.30696
1.30846
1.3098
1.31104
1.31239
1.3139
1.31537
1.31661
1.3178
1.31891
1.31988
1.32068
1.32128
1.32168
1.32189
1.32195
1.32201
1.32199
1.32188
1.32171
1.32139
1.32084
1.32011
1.31903
1.31746
1.3154
1.31292
1.30965
1.30553
1.30041
1.29408
1.28659
1.27771
1.26728
1.2554
1.24207
1.2269
1.20984
1.19098
1.17113
1.15145
1.1326
1.11494
1.09973
1.08806
1.07913
1.0726
1.07064
1.07079
1.07146
1.0732
1.07622
1.07963
1.08405
1.08916
1.09456
1.10033
1.10647
1.11262
1.11832
1.12355
1.12859
1.13243
1.13389
1.13501
1.13497
1.13393
1.13168
1.1282
1.12313
1.1168
1.10946
1.10148
1.09421
1.08813
1.0828
1.07956
1.07922
1.07964
1.081
1.08351
1.08677
1.09082
1.09615
1.10339
1.11386
1.13029
1.15646
1.19543
1.24631
1.29849
1.33686
1.35027
1.3492
1.34331
1.33385
1.32454
1.31814
1.31622
1.31635
1.3171
1.3177
1.3174
1.31568
1.3107
1.30289
1.29365
1.28439
1.27556
1.26976
1.26746
1.26595
1.2647
1.26243
1.25857
1.25447
1.27723
1.27918
1.28024
1.28134
1.2825
1.28281
1.28287
1.28307
1.28323
1.28317
1.28329
1.28387
1.28467
1.28586
1.28775
1.28995
1.29192
1.29405
1.29647
1.29897
1.30143
1.30379
1.306
1.30813
1.31021
1.31211
1.31374
1.31513
1.31631
1.31722
1.31775
1.31809
1.31861
1.31863
1.31856
1.31848
1.31827
1.31784
1.31723
1.31642
1.31498
1.31299
1.31062
1.30761
1.30364
1.29878
1.29271
1.28559
1.27709
1.26702
1.25555
1.24268
1.22795
1.21146
1.19296
1.17305
1.15302
1.13372
1.11478
1.09737
1.08358
1.07326
1.06487
1.05966
1.05815
1.05803
1.05837
1.05949
1.06151
1.06451
1.06772
1.07181
1.07682
1.08226
1.0881
1.09467
1.10216
1.10978
1.11688
1.12341
1.12918
1.13163
1.13196
1.13199
1.13072
1.12735
1.1227
1.11662
1.10883
1.09964
1.09056
1.08332
1.07729
1.07335
1.07229
1.07251
1.0733
1.07503
1.0781
1.08239
1.08778
1.09512
1.10603
1.1229
1.14941
1.18773
1.23508
1.28706
1.32716
1.34009
1.33931
1.33467
1.32639
1.31763
1.31158
1.30946
1.30938
1.30912
1.30772
1.30527
1.30166
1.29622
1.28922
1.28148
1.27239
1.26377
1.2575
1.25384
1.25142
1.24973
1.24713
1.248
1.26664
1.26746
1.26713
1.26616
1.26505
1.26356
1.2615
1.2596
1.25794
1.25593
1.25372
1.25336
1.25362
1.25439
1.25598
1.25833
1.2611
1.26411
1.26735
1.2709
1.27462
1.2782
1.28187
1.2857
1.28953
1.29322
1.29663
1.29965
1.30219
1.30443
1.30605
1.30692
1.30806
1.30844
1.30838
1.30831
1.30794
1.3073
1.30646
1.30558
1.30413
1.30202
1.29954
1.2967
1.29258
1.28744
1.28112
1.27377
1.26517
1.255
1.24339
1.23069
1.21627
1.20052
1.18327
1.16457
1.14554
1.12737
1.10936
1.09176
1.0775
1.06728
1.05907
1.05292
1.05019
1.04915
1.04875
1.04884
1.04936
1.05037
1.05201
1.05478
1.05806
1.06172
1.06624
1.07168
1.07804
1.08536
1.09383
1.10315
1.1123
1.12038
1.12666
1.12907
1.129
1.12793
1.12506
1.12126
1.11578
1.10801
1.09854
1.08888
1.08052
1.07293
1.06772
1.06604
1.06624
1.06693
1.06853
1.0712
1.07499
1.0803
1.08755
1.0976
1.11256
1.13583
1.17076
1.21699
1.26369
1.30301
1.32542
1.32743
1.32443
1.31772
1.30978
1.30266
1.29761
1.2948
1.29271
1.2907
1.28913
1.28672
1.28286
1.27836
1.27173
1.26314
1.25579
1.2505
1.24461
1.23912
1.23355
1.23357
1.24237
1.24064
1.23811
1.23481
1.23143
1.2283
1.22488
1.22153
1.21838
1.21537
1.21168
1.21005
1.21016
1.21052
1.2115
1.21347
1.21622
1.21952
1.22339
1.22779
1.2323
1.23687
1.24167
1.2468
1.2522
1.25778
1.26333
1.2685
1.27307
1.27707
1.28044
1.28276
1.28453
1.28612
1.28629
1.28621
1.28579
1.28477
1.28339
1.28193
1.28009
1.2772
1.27381
1.27019
1.26529
1.25906
1.25199
1.24398
1.23484
1.2242
1.21256
1.20023
1.18658
1.17254
1.15783
1.1419
1.12583
1.11043
1.09528
1.08036
1.06804
1.05964
1.05327
1.04789
1.0452
1.04431
1.04358
1.04306
1.0431
1.04337
1.04399
1.04512
1.04708
1.04965
1.05215
1.05528
1.05968
1.06533
1.07215
1.08038
1.09012
1.10087
1.11112
1.11955
1.12456
1.12529
1.1247
1.12226
1.11887
1.11384
1.10612
1.09619
1.08558
1.07648
1.06862
1.06339
1.06126
1.06117
1.06178
1.06349
1.06585
1.06927
1.07398
1.07975
1.08744
1.0993
1.11843
1.14718
1.18587
1.23107
1.27036
1.29726
1.30855
1.30856
1.30546
1.29927
1.29193
1.28631
1.28286
1.27922
1.27481
1.2693
1.26623
1.26472
1.26193
1.25536
1.24789
1.24517
1.24186
1.23569
1.2303
1.22659
1.20327
1.19903
1.19453
1.18962
1.18454
1.1802
1.17619
1.1723
1.16845
1.1655
1.16161
1.15877
1.15879
1.15922
1.15992
1.16157
1.16418
1.1674
1.17121
1.1755
1.17993
1.18449
1.18937
1.19486
1.20103
1.20779
1.21492
1.22201
1.22852
1.23424
1.23925
1.24337
1.24663
1.24904
1.25056
1.25093
1.2508
1.24972
1.24784
1.24561
1.24299
1.23917
1.23473
1.23014
1.22457
1.21755
1.21009
1.20177
1.19246
1.18185
1.17059
1.1589
1.1465
1.13457
1.12321
1.11099
1.09892
1.08797
1.07724
1.06605
1.05668
1.05088
1.04693
1.04323
1.04135
1.04105
1.04072
1.04001
1.03996
1.0402
1.04053
1.04092
1.04185
1.0435
1.04529
1.04685
1.04895
1.0519
1.05605
1.06208
1.07011
1.07985
1.09081
1.10214
1.11221
1.11905
1.12099
1.12067
1.11878
1.11536
1.11057
1.10356
1.09412
1.08343
1.0739
1.06601
1.0597
1.05805
1.05828
1.05893
1.05977
1.06234
1.06555
1.068
1.0714
1.07665
1.08483
1.09808
1.11915
1.149
1.18628
1.22544
1.25607
1.27602
1.28521
1.28546
1.2836
1.27931
1.27447
1.27
1.26513
1.25782
1.25015
1.25038
1.25055
1.24733
1.23974
1.23784
1.23711
1.23283
1.22653
1.22236
1.15044
1.14488
1.13968
1.13464
1.12967
1.12551
1.12201
1.11871
1.11546
1.11323
1.1105
1.10816
1.10807
1.10874
1.10937
1.11062
1.11299
1.11581
1.11903
1.12271
1.1266
1.13053
1.13475
1.13959
1.14519
1.15155
1.15861
1.16608
1.17338
1.17996
1.18584
1.19094
1.19538
1.19903
1.20152
1.20337
1.20383
1.20313
1.2014
1.19907
1.19628
1.19226
1.18732
1.1822
1.17635
1.16937
1.16243
1.15506
1.14699
1.13786
1.12827
1.11839
1.10811
1.09884
1.09116
1.08254
1.07391
1.06681
1.06016
1.05256
1.04612
1.04286
1.04096
1.0389
1.03803
1.03813
1.03821
1.03775
1.0376
1.03793
1.03821
1.03818
1.03848
1.03963
1.04068
1.04109
1.04234
1.04439
1.04669
1.05036
1.05577
1.06299
1.0721
1.08283
1.09433
1.10505
1.11288
1.11588
1.11583
1.11435
1.11106
1.10679
1.1004
1.09174
1.0816
1.07157
1.06377
1.05885
1.05678
1.0565
1.05715
1.05884
1.05945
1.06085
1.0628
1.06407
1.06594
1.06971
1.07704
1.09002
1.11062
1.13813
1.16936
1.20047
1.22612
1.24421
1.2553
1.25844
1.25812
1.25633
1.25298
1.24792
1.24001
1.23858
1.2386
1.2359
1.2278
1.22472
1.22564
1.22387
1.21823
1.21538
1.09311
1.08817
1.08403
1.08026
1.07676
1.074
1.07174
1.06958
1.06761
1.06646
1.06503
1.06385
1.06386
1.06465
1.06542
1.06638
1.06846
1.07091
1.0734
1.07633
1.07928
1.0823
1.08554
1.08919
1.09358
1.09873
1.1046
1.11105
1.1176
1.12372
1.12932
1.13435
1.13894
1.1431
1.14643
1.1492
1.15118
1.15104
1.14986
1.14801
1.14564
1.1421
1.13756
1.13283
1.12764
1.12189
1.11651
1.11104
1.10513
1.09835
1.09114
1.08384
1.0763
1.06963
1.06489
1.05978
1.05418
1.04999
1.04663
1.04193
1.03787
1.03682
1.03617
1.03514
1.035
1.03524
1.03575
1.03559
1.03544
1.03586
1.03614
1.03597
1.03613
1.037
1.03765
1.03773
1.03854
1.04039
1.04226
1.0451
1.04892
1.05341
1.05948
1.06746
1.07717
1.0879
1.09827
1.10623
1.10985
1.11004
1.10906
1.10618
1.1024
1.09691
1.08938
1.08024
1.07124
1.06358
1.05867
1.05661
1.05643
1.05634
1.05674
1.05761
1.05693
1.05632
1.05602
1.05582
1.05628
1.05858
1.06449
1.07532
1.09187
1.11389
1.13998
1.16657
1.18867
1.20465
1.21445
1.21978
1.22335
1.22363
1.22148
1.22209
1.22272
1.2208
1.21437
1.21139
1.21268
1.21184
1.2061
1.20515
1.04103
1.03801
1.0359
1.03407
1.03253
1.03148
1.0307
1.02988
1.02947
1.0295
1.02918
1.02911
1.0294
1.03051
1.03148
1.03232
1.0341
1.03629
1.03803
1.04011
1.04271
1.04507
1.04741
1.0501
1.05334
1.05693
1.061
1.06561
1.07036
1.07488
1.07918
1.0832
1.08699
1.09068
1.09407
1.0971
1.10028
1.10098
1.10047
1.09947
1.09803
1.09581
1.09257
1.08902
1.08518
1.08116
1.07757
1.07408
1.0704
1.06603
1.06128
1.05691
1.05238
1.04822
1.0457
1.04324
1.0399
1.03778
1.03654
1.03415
1.03219
1.03233
1.03237
1.03198
1.03203
1.03251
1.0333
1.03345
1.03352
1.03407
1.03464
1.03448
1.03455
1.03532
1.03601
1.03608
1.03678
1.03861
1.04048
1.04236
1.04505
1.04842
1.05269
1.05801
1.0648
1.07313
1.08253
1.09187
1.09928
1.10324
1.10385
1.10311
1.10099
1.09798
1.0935
1.08747
1.0801
1.07199
1.06463
1.05982
1.05696
1.05532
1.05508
1.05513
1.05405
1.05192
1.05016
1.0485
1.04645
1.04439
1.04402
1.04475
1.0478
1.05501
1.06802
1.08547
1.10415
1.12211
1.13705
1.15008
1.16328
1.17273
1.17795
1.1855
1.18888
1.18818
1.1851
1.18452
1.18653
1.18636
1.18212
1.18215
1.0026
1.00159
1.00149
1.00138
1.00146
1.00171
1.00208
1.00249
1.0031
1.00394
1.0043
1.00478
1.0056
1.00703
1.00814
1.00897
1.01035
1.01222
1.01369
1.01516
1.01699
1.01897
1.02074
1.02264
1.02491
1.0274
1.03012
1.03304
1.036
1.03889
1.04172
1.04449
1.04723
1.05008
1.05291
1.05558
1.05896
1.06063
1.06048
1.06013
1.05961
1.05856
1.05657
1.05443
1.05228
1.05016
1.04822
1.04638
1.04455
1.04213
1.03944
1.03747
1.03547
1.03334
1.03238
1.03169
1.03008
1.0295
1.0296
1.0289
1.02825
1.02873
1.02936
1.02928
1.02951
1.03032
1.03136
1.03184
1.03211
1.03275
1.03351
1.03344
1.0335
1.0343
1.03515
1.03542
1.03616
1.03821
1.03991
1.04092
1.04303
1.04562
1.04841
1.05247
1.05745
1.06312
1.06996
1.07788
1.08588
1.09239
1.0965
1.09763
1.09707
1.09592
1.09389
1.09077
1.08635
1.08036
1.07326
1.06609
1.06041
1.05639
1.05445
1.05365
1.05191
1.04911
1.04683
1.04446
1.0416
1.03861
1.03549
1.03194
1.0298
1.0301
1.03194
1.03554
1.04173
1.05027
1.05948
1.07108
1.08556
1.09808
1.10856
1.11913
1.12662
1.13055
1.13159
1.13315
1.13808
1.1394
1.13792
1.13934
0.978698
0.979238
0.980211
0.981226
0.982376
0.983514
0.984614
0.985685
0.986908
0.988163
0.988943
0.98978
0.990969
0.992441
0.993535
0.994592
0.995869
0.997397
0.998925
1.00028
1.0017
1.00337
1.00478
1.00606
1.00758
1.00934
1.01123
1.01322
1.01525
1.01712
1.01892
1.02071
1.02252
1.02443
1.02639
1.02844
1.03126
1.03317
1.03331
1.03339
1.0334
1.03316
1.03214
1.03111
1.0304
1.02969
1.02896
1.02831
1.02757
1.02651
1.02562
1.02521
1.02469
1.02395
1.02409
1.02434
1.02404
1.02419
1.02498
1.02489
1.02495
1.02588
1.02678
1.02721
1.02796
1.02922
1.03049
1.03105
1.03138
1.03199
1.03276
1.03283
1.03301
1.03389
1.03478
1.03532
1.03647
1.03854
1.03953
1.0405
1.04255
1.04414
1.04615
1.04933
1.05268
1.05668
1.06165
1.06748
1.074
1.08061
1.08642
1.09059
1.0916
1.0915
1.09158
1.09086
1.08886
1.08528
1.08006
1.07357
1.06666
1.06015
1.05597
1.05364
1.05084
1.04773
1.04467
1.04157
1.03861
1.03556
1.03205
1.02787
1.02431
1.02175
1.01867
1.01531
1.01471
1.01496
1.01585
1.0195
1.02574
1.03197
1.03897
1.04664
1.0533
1.05882
1.06201
1.0649
1.07068
1.07482
1.07607
1.08035
0.96647
0.967782
0.969357
0.970887
0.972457
0.97393
0.975328
0.976673
0.978135
0.979596
0.980672
0.981725
0.983122
0.984692
0.985766
0.986866
0.988127
0.989399
0.990734
0.992109
0.993448
0.994779
0.996043
0.997231
0.998337
0.999485
1.00077
1.00212
1.00349
1.00485
1.00611
1.00729
1.00842
1.00962
1.01095
1.01261
1.0145
1.01602
1.0168
1.01738
1.01794
1.01802
1.01767
1.01763
1.01784
1.01796
1.01796
1.01792
1.01788
1.01788
1.01796
1.01825
1.01843
1.01847
1.01904
1.01993
1.02019
1.02075
1.02191
1.0222
1.02253
1.02389
1.02512
1.02602
1.02719
1.02864
1.03011
1.03084
1.03119
1.03174
1.03245
1.0327
1.03306
1.03407
1.03503
1.03562
1.03692
1.03856
1.03918
1.04032
1.04247
1.04366
1.04503
1.04739
1.04983
1.05256
1.0561
1.06032
1.06523
1.0708
1.07653
1.08178
1.0847
1.08591
1.08786
1.08891
1.08847
1.08674
1.08346
1.07862
1.07263
1.0659
1.05948
1.0553
1.05135
1.04731
1.0434
1.04011
1.03704
1.03371
1.02996
1.02608
1.02291
1.01956
1.01525
1.0107
1.00717
1.00371
1.00074
0.999097
0.997611
0.997259
0.997576
0.998545
1.00045
1.00314
1.00511
1.00705
1.01124
1.01646
1.01974
1.02658
0.961135
0.962704
0.964458
0.966156
0.967826
0.969362
0.970819
0.972237
0.973763
0.97533
0.976648
0.977884
0.979354
0.981002
0.982084
0.983124
0.984338
0.985509
0.986671
0.987983
0.989323
0.990561
0.991805
0.993077
0.994253
0.995216
0.996062
0.996929
0.997889
0.998819
0.999692
1.00054
1.00133
1.00216
1.0032
1.00446
1.00577
)
;

boundaryField
{
    inlet
    {
        type            fixedValue;
        value           nonuniform 0();
    }
    outlet
    {
        type            inletOutlet;
        inletValue      uniform 1;
        value           nonuniform List<scalar> 
18
(
1.1594
1.16559
1.18373
1.2072
1.22636
1.23909
1.24907
1.25437
1.24776
1.23329
1.22641
1.22224
1.21532
1.20514
1.18217
1.13941
1.08046
1.02665
)
;
    }
    bottom
    {
        type            symmetryPlane;
    }
    top
    {
        type            symmetryPlane;
    }
    obstacle
    {
        type            zeroGradient;
    }
    front
    {
        type            empty;
    }
    back
    {
        type            empty;
    }
    procBoundary7to6
    {
        type            processor;
        value           nonuniform List<scalar> 
18
(
1.17516
1.18422
1.20899
1.23888
1.26134
1.27249
1.27674
1.27745
1.27419
1.26493
1.24346
1.20668
1.15531
1.09779
1.04417
1.00401
0.978515
0.965443
)
;
    }
    procBoundary7to14
    {
        type            processor;
        value           uniform 0.959799;
    }
    procBoundary7to15
    {
        type            processor;
        value           nonuniform List<scalar> 
133
(
1.00695
1.00794
1.00876
1.00953
1.01019
1.01043
1.01079
1.01138
1.012
1.01241
1.01281
1.01334
1.01385
1.01443
1.01525
1.01572
1.01594
1.01674
1.01768
1.01788
1.01857
1.01977
1.02019
1.02084
1.0225
1.02391
1.02522
1.02684
1.02828
1.0297
1.03069
1.0312
1.03178
1.03252
1.03303
1.03366
1.03492
1.03577
1.03606
1.03704
1.03803
1.03858
1.03999
1.04265
1.04347
1.04405
1.04583
1.04796
1.04988
1.05245
1.05556
1.05938
1.06383
1.06878
1.07384
1.07748
1.07986
1.08301
1.08623
1.08683
1.08613
1.08408
1.08057
1.07592
1.07053
1.06415
1.05827
1.05364
1.04839
1.04374
1.03987
1.03612
1.03237
1.0288
1.02558
1.02241
1.0188
1.01451
1.01003
1.00593
1.00169
0.997644
0.993396
0.988851
0.986023
0.983626
0.980603
0.980183
0.98095
0.981893
0.983248
0.985525
0.99103
0.99514
1.00373
0.95946
0.960954
0.962623
0.964297
0.965943
0.967478
0.968933
0.97035
0.971843
0.973444
0.97485
0.976154
0.977693
0.97934
0.98049
0.981618
0.982901
0.984134
0.985276
0.986484
0.987746
0.988854
0.989918
0.991022
0.992119
0.993054
0.993902
0.994795
0.995712
0.996512
0.997375
0.998231
0.998926
0.999703
1.00065
1.0017
1.00695
1.00277
)
;
    }
}


// ************************************************************************* //
