/*--------------------------------*- C++ -*----------------------------------*\
  =========                 |
  \\      /  F ield         | OpenFOAM: The Open Source CFD Toolbox
   \\    /   O peration     | Website:  https://openfoam.org
    \\  /    A nd           | Version:  7
     \\/     M anipulation  |
\*---------------------------------------------------------------------------*/
FoamFile
{
    version     2.0;
    format      ascii;
    class       volScalarField;
    location    "0.734";
    object      T;
}
// * * * * * * * * * * * * * * * * * * * * * * * * * * * * * * * * * * * * * //

dimensions      [0 2 -2 0 0 0 0];

internalField   nonuniform List<scalar> 
12359
(
-3.68316e-76
-3.08126e-62
-3.53692e-209
1.12162e-40
4.04321e-71
-7.09839e-28
6.3079e-23
-6.3914e-26
-3.20721e-18
3.56471e-31
7.18415e-21
1.79487e-13
0.249744
-2.78899e-38
1.12132e-43
7.30372e-06
0.00223169
-6.03672e-114
7.90834e-118
1.89929e-51
-7.57731e-36
7.32491e-16
-1.86224e-57
-2.78115e-49
2.29559e-59
-3.96827e-54
-7.04938e-151
2.53574e-154
-2.32092e-122
4.57005e-143
-1.11605e-136
5.29948e-169
1.2578e-186
-4.01121e-145
3.09387e-198
8.30701e-134
-3.92262e-92
-4.6135e-79
-2.98047e-73
1.40605e-85
-7.10214e-65
-8.28628e-83
-7.79678e-100
8.35316e-103
-1.30912e-129
2.30482e-125
-3.97842e-131
1.06837e-139
1.13201e-119
7.12357e-148
6.6505e-157
1.87511e-162
1.09034e-171
4.68965e-111
4.48444e-177
2.6338e-183
-2.03149e-106
-6.21874e-189
9.89143e-192
-7.20705e-195
-3.65069e-180
-9.44718e-204
-1.56628e-159
9.65803
-1.64138e-108
4.56939e-33
-1.01177e-96
-1.69126e-165
1.70043e-89
-1.55811e-08
120.028
1.85799e-67
1.91642e-213
-3.24746e-87
-7.62199e-46
2.62236e-201
-4.25703e-174
2.67054e-206
1.68954e-97
-8.83142e-11
-2.25288e-27
-4.56666e-124
-1.06358e-266
-2.03854e-77
0.00158006
7.7467e-76
-5.90189e-122
1.31468e-172
0.890987
0.000499045
5.96501e-231
3.16139
1.71453e-232
-2.26811e-101
-2.26413e-81
1.71777e-53
-2.2264e-107
-6.33601e-102
5.01839e-51
-3.38563e-64
6.51718e-23
-8.95159e-226
1.6508e-76
28.3468
-3.29108e-132
1.26729e-28
4.70179e-227
0.00205506
7.85404e-85
8.84844e-30
2.78085e-109
-8.51159e-124
-8.60293e-32
1.28293e-26
-5.26783e-82
-5.09288e-156
1.10214e-25
-3.25847e-123
3.10998
-8.63795e-264
-3.49379e-110
2.42782e-23
3.78004e-171
1.0715e-37
-2.40819e-122
6.42545e-146
1.04605e-16
-1.08681e-76
1.57031e-208
-1.8721e-123
1.3953e-154
1.70663e-06
7.91254e-05
4.61478e-05
-6.7027e-229
4.55213e-38
4.10388e-154
1.67463e-39
-5.68771e-221
1.29819e-17
-2.26411e-255
2.703e-75
1.83276e-38
-3.65269e-227
3.78816e-18
1.16366e-28
-1.98133e-266
0.000638128
-9.68414e-132
5.75517e-27
2.73008e-51
-1.45622e-222
1.03411e-37
2.43447e-169
3.91186e-238
118.679
1.07487e-23
1.41396e-06
-1.00684e-107
-3.35212e-172
1.47246e-34
-1.45856e-170
1.19036e-37
6.15316e-38
-1.50345e-253
5.00295e-148
2.8142e-35
3.11462e-24
1.32322e-39
0.8029
-8.11469e-205
1.19242e-202
6.47325e-41
9.96499e-61
-6.7161e-134
5.2884e-18
7.11708e-126
1.80682e-127
-1.33022e-31
5.72007e-19
-1.28003e-38
-3.22188e-236
-7.79453e-208
-4.64118e-123
2.31084e-52
3.30215e-16
-6.3601e-103
-3.08083e-85
3.44887e-50
-4.00808e-102
-8.69639e-84
6.81331e-55
2.85324e-56
4.69323e-168
2.93229e-29
38.2006
5.00818e-63
-3.71379e-102
9.83208e-38
-4.38272e-122
2.57576e-27
9.87485e-51
-7.37241e-65
5.67204e-30
2.73456e-21
-3.49644e-236
3.38086e-20
-2.45701e-63
1.33504e-32
-3.45354e-111
1.20011e-247
1.15945e-15
2.55477e-15
153.01
9.93501e-16
-2.92463e-218
-1.39044e-102
-2.70876e-83
-6.13356e-102
1.58567e-73
6.51926e-27
-1.23952e-112
1.09256e-38
3.45312
-1.68446e-123
3.27684e-247
3.3323e-72
2.21601e-86
1.90257e-19
-1.73955e-99
-1.24421e-98
-1.43853e-254
1.94834e-18
-5.43842e-59
-1.01414e-85
-3.25448e-60
7.52363e-262
1.4849e-35
-2.29996e-84
8.27988e-05
-7.99331e-244
1.43355e-72
-7.50708e-93
3.65439e-10
1.26813e-32
0.000946348
2.9048e-193
1.4141e-33
1.03328e-139
1.93095e-56
1.35848e-21
8.75758e-83
1.291e-130
-9.85908e-99
1.25434
124.174
1.85809e-261
1.75646e-116
1.44967
179.744
-3.01066e-63
4.8761e-33
2.21639e-21
6.69597e-30
2.45697e-62
56.9366
3.12053
4.55923e-31
4.22941e-118
4.415e-38
4.26667e-40
4.52215e-52
9.80363e-39
-1.65757e-100
-1.91806e-114
-1.94754e-245
-4.80645e-116
8.76192
7.53613e-31
3.13225e-210
-1.57878e-223
1.02162e-29
5.09241e-117
-7.48285e-97
4.93367e-74
-4.75253e-258
1.62933e-21
-7.14795e-224
8.17342e-225
-2.38654e-170
1.2601e-38
-6.61021e-126
50.6256
7.22991e-229
-2.56609e-227
2.21885e-75
-3.27333e-140
8.3044e-28
-2.59587e-86
6.49409e-160
1.62718e-230
7.83416
1.74661e-20
1.36106e-231
-1.42363e-101
-9.48286e-88
-1.2315e-138
5.72882e-154
-5.28992e-156
-1.3086e-135
-4.13542e-118
-3.50066e-16
8.91917e-140
1.53241e-137
9.62492e-81
6.56708e-35
1.44526
2.45321e-136
-3.25203e-54
3.31798e-06
4.29005e-224
2.25916e-46
-7.03481e-209
4.89502e-62
-2.58732e-225
6.34757e-135
1.93113e-16
7.32986e-43
7.92305e-17
-8.57851e-98
-3.94557e-93
1.68395e-56
1.55829e-52
-5.52303e-92
6.00601e-57
6.92761e-57
3.34793e-191
-2.95703e-180
-3.78644e-180
9.23915e-179
-3.81148e-179
0.000345232
9.35229e-257
9.68453e-26
8.44093e-40
9.31131e-55
1.52424e-36
3.86822e-42
9.05234e-76
2.24208e-64
2.11802e-42
1.57524e-65
-8.44019e-55
5.1839e-32
3.10918e-31
3.64201e-31
5.22784e-74
6.57268e-15
1.85429e-76
2.74422e-76
4.21306e-38
2.07466e-20
-6.4107e-126
-7.54336e-176
1.35975e-62
-1.59627e-177
9.83437e-125
169.474
17.6131
3.53512e-124
-6.25943e-219
-2.61353e-230
-3.23095e-240
3.69169e-43
1.95109e-236
-1.97927e-237
1.13464
3.9264e-38
0.000376739
1.48309e-126
2.3962e-32
1.09635e-118
-1.53754e-91
3.73492e-28
1.90959e-63
-2.93307e-40
6.49142e-65
1.41282e-126
1.00525e-209
9.1933e-39
2.16008e-32
1.36944e-125
4.72154e-12
1.68241e-28
1.78525e-53
8.70069e-44
1.13514e-36
9.21732e-218
10.2144
4.43922e-14
3.12168e-125
1.15123e-10
1.05584e-77
-2.47847e-253
1.45933e-253
-8.36986e-243
0.000720453
2.48929e-21
-2.45671e-53
1.5376e-47
5.40594e-52
-7.84553e-80
-1.24561e-38
2.6805e-45
2.14684e-11
1.44382
-8.72556e-12
1.67999e-54
3.37038e-32
2.9117e-83
4.36078e-29
-3.4466e-69
4.13104e-61
-9.5651e-146
-1.45488e-70
1.13153e-40
2.93588e-235
169.107
1.81515e-94
0.464883
9.40636e-34
-3.99289e-105
5.15647e-30
0.969352
2.6092e-40
-5.99598e-63
6.70816e-54
1.44524e-32
2.94697e-28
-2.271e-119
-2.06559e-247
1.82595e-24
-7.62075e-224
6.87187e-07
3.67551e-153
-7.51737e-56
1.17574e-35
-1.02832e-100
0.00844161
6.29355e-25
-7.3413e-67
-6.25364e-119
2.89573e-05
1.13092e-196
1.7225e-130
2.52904e-15
-1.19994e-217
-3.20473e-119
2.9486e-131
9.26258e-08
18.6292
-7.15678e-79
1.02074e-177
-2.23863e-33
1.39514e-37
9.23092e-47
4.25839e-36
1.72579e-39
6.74042e-190
-8.76048e-242
1.13847e-41
-1.38227e-228
9.20094e-37
3.5419e-47
1.18301e-29
3.70482e-129
1.28669e-25
7.40164e-14
6.90514e-145
-1.1087e-80
5.95877e-124
-1.19285e-29
4.33381e-15
-2.4116e-220
3.27205e-40
1.83889e-41
8.89606e-86
7.21267e-39
3.35196e-152
1.36433e-21
4.28081e-67
4.06838e-36
4.47047e-30
3.03294e-188
-2.20774e-81
4.19345e-10
0.000303306
-2.41945e-231
1.9859e-60
2.69395e-10
1.70297e-47
0.73419
-6.48781e-243
1.79029e-154
6.72294e-195
2.60463e-36
-1.16469e-63
-2.77196e-73
1.269e-150
1.29802e-42
4.75754e-59
5.55927e-63
-5.40981e-109
0.000239036
1.35784e-218
0.000562941
3.14348e-174
150.983
7.08748e-66
7.33032e-11
4.64117e-192
2.26583e-130
1.04795e-33
-8.71555e-125
2.82046e-161
-1.0601e-99
-1.33301e-61
-3.16382e-62
2.71649e-12
1.78399e-24
1.26592e-24
-5.55114e-267
-1.25325e-124
5.3565e-45
0.000387143
-1.4838e-266
-1.60601e-214
1.23252e-40
1.47222e-192
5.5686e-17
1.17196
93.9001
-5.20642e-265
9.18507e-84
1.21457e-20
-7.18433e-71
-5.77041e-134
93.949
-2.76155e-217
3.31935e-24
1.74607e-34
-3.08855e-84
-1.0388e-136
2.12878e-158
-2.34942e-102
2.07609e-40
5.53466e-66
-7.2639e-78
-1.36886e-263
-3.43379e-206
-1.32492e-65
1.51371e-126
1.96389e-28
1.107e-36
-1.19641e-168
1.57548e-212
2.32353e-31
164.647
-4.69328e-139
8.96476e-12
-4.22763e-232
-3.32425e-77
2.1567e-24
8.00299e-48
1.88462e-22
5.17535e-29
-5.20303e-63
5.25088e-36
-1.26705e-249
-2.1385e-198
3.23427e-51
-5.87944e-74
-7.67624e-64
-3.82201e-76
-1.20949e-238
7.16876e-211
-4.20536e-145
-1.96912e-51
1.92756e-31
-5.9409e-34
3.78925e-93
-4.41282e-32
6.78842e-39
-8.62205e-62
-4.48777e-31
-3.20279e-56
0.576826
2.21659e-37
9.91537e-55
1.06707e-29
3.46486e-200
6.31642e-24
3.01474e-33
1.36583e-267
-2.1052e-217
1.05657e-191
6.19627e-194
3.5151e-07
-3.59714e-61
1.23834e-92
-3.92221e-33
-3.8139e-99
2.05154e-16
2.57883e-48
8.08094e-40
-5.18445e-144
3.2361e-11
-2.7101e-239
4.51821e-50
2.04281e-119
2.34831e-19
-2.31976e-30
4.55257e-69
1.6446e-60
9.10523
6.97177e-40
5.07901e-14
-1.56245e-69
9.86112e-12
0.548637
-1.771e-182
6.30654e-129
-3.82257e-240
1.40942e-08
5.71198e-127
8.6565e-66
0.00703999
-1.77756e-215
1.23293e-61
8.56981e-33
-4.04281e-66
7.04896e-136
-7.86883e-70
-5.44678e-175
-3.93086e-68
1.72124e-175
-9.77254e-175
-2.73481e-72
1.1134e-37
5.12383e-40
-8.72254e-65
8.93101e-09
8.62279e-49
17.629
4.63928e-39
1.85341e-74
-4.4333e-70
8.41951e-41
2.02989e-53
9.1026e-55
0.552416
-2.97599e-36
3.77219e-56
1.18099e-54
-1.53224e-116
7.25865e-128
6.53495e-32
-9.74049e-246
12.4202
-8.44271e-173
-3.14266e-35
8.68773e-23
2.34726e-07
3.79759e-20
1.16508e-31
4.21271e-34
-2.13837e-70
2.7559e-20
9.79992e-43
6.40755e-14
1.69472e-54
4.78244e-14
4.49914e-56
-1.25999e-258
-4.33209e-54
176.045
2.17385e-13
-1.13148e-97
1.04133e-250
9.91582e-168
3.85225e-89
-2.36075e-57
7.07709e-41
2.28112e-62
5.07473e-191
8.71168e-97
4.80794e-53
1.64762e-99
-3.57258e-109
2.85207e-13
-1.07395e-107
7.03584e-45
2.65649e-28
-5.38136e-98
1.0424e-89
1.48253e-28
-9.94216e-269
-2.90603e-92
49.9702
2.88732e-197
4.75198e-17
1.91728e-23
-7.28697e-91
2.22161e-33
2.72726e-28
-3.46631e-55
1.27349e-27
8.33897e-127
-2.01144e-33
-1.34168e-134
6.58559e-58
1.85211e-30
-4.12795e-32
-9.89776e-127
2.42829e-35
5.93943e-07
-1.00456e-46
-3.61482e-71
-1.85735e-120
2.7349e-23
5.71607e-07
-6.79481e-120
1.95811e-219
2.7947e-55
7.64148e-234
0.660747
4.31625e-55
1.1797e-12
1.39878e-69
9.56811e-64
12.1166
-2.81359e-67
0.00147835
3.30264e-42
89.2421
1.48637e-44
-8.03427e-77
-1.08931e-68
2.77961e-87
0.00357216
0.000317575
1.39675e-178
9.10118e-176
-7.06498e-30
3.79539e-166
0.00350623
1.69863e-29
2.55484e-10
-3.56174e-120
130.258
0.0868821
4.19791e-54
-5.6185e-258
-1.13583e-131
-1.38651e-38
4.37807e-87
4.62913e-92
-6.26163e-84
2.08863e-40
5.73656e-44
35.295
9.14173e-08
1.03545e-192
5.8828e-38
5.89549e-26
-1.36229e-28
-6.23751e-75
3.57294e-23
7.40313e-35
-1.73181e-37
6.36239e-135
7.47222e-256
4.29224e-22
5.64541e-19
2.42167e-64
-6.49604e-31
1.73349e-13
7.14138e-76
-4.97987e-57
3.42211e-118
2.84451e-81
2.5937e-15
-2.35789e-79
3.77385e-27
3.21876e-41
9.48303e-51
3.72438e-101
-2.05749e-78
1.74143e-07
9.8984e-72
-4.08186e-75
37.5738
4.50997e-50
1.93109e-77
0.00960723
-3.90672e-262
3.33842e-70
3.70168e-63
-6.86984e-88
4.58439e-148
7.24076e-58
1.46668e-269
7.12142e-10
1.05682e-126
1.42514e-61
3.01681e-22
3.77059e-33
3.90346e-65
4.40302e-68
3.19023e-23
92.3231
8.3887e-199
-8.23573e-104
1.67451e-76
0.00713659
4.76868e-19
-1.9097e-128
2.90844
-4.24436e-256
-1.03712e-129
182.998
-4.98331e-97
2.95298e-125
-2.67442e-123
1.64808e-42
-5.46983e-41
1.28649e-194
-3.0749e-90
2.49837e-25
2.47908e-63
-3.85835e-66
-5.27618e-85
-3.77805e-181
-8.50463e-40
1.5293e-06
-1.22552e-68
-4.84579e-32
4.66662e-43
2.8247e-56
9.75427e-11
6.26305e-27
-1.65598e-83
-9.39055e-128
0.000405385
1.64886e-37
1.13436e-47
-1.94652e-117
2.82621e-192
-1.74523e-37
2.36377e-11
5.34881e-74
4.85235e-30
1.87788e-72
-1.33588e-82
-2.88842e-106
2.45801e-40
149.373
18.1363
3.84655e-39
2.88388e-67
-2.09179e-108
1.61394e-41
0.0125519
-1.50785e-34
-5.11909e-130
4.01145e-12
4.82789e-08
8.69659
-2.82373e-92
87.0375
8.39263e-195
-3.66016e-81
4.92969e-191
3.11515e-11
1.90233e-46
82.2814
-1.37815e-134
0.0183492
7.09502e-165
-2.47824e-67
1.21157e-31
-4.86817e-89
1.03871e-12
0.10504
-4.61764e-95
6.18616e-100
1.32698e-70
-9.34579e-93
-1.33732e-96
5.28749e-14
5.91761e-49
1.81343e-67
8.70257e-16
-8.94957e-97
4.85049e-188
-3.74976e-70
-2.40947e-165
1.76717e-27
1.50965e-70
2.09755e-09
2.90176e-11
-1.99699e-43
6.77237e-35
2.16785e-39
-9.93008e-70
0.0118482
1.95075e-76
-3.27802e-101
-1.96518e-238
9.01707e-12
-7.98847e-36
-5.96374e-136
4.62916e-27
-6.97256e-86
3.14588e-35
-3.03781e-38
-2.15863e-33
1.16252e-40
87.3564
6.32022e-39
-3.16224e-42
0.108721
-2.38188e-90
1.74738e-07
6.72394e-26
1.23888e-168
7.18602e-75
-7.16391e-108
-2.08701e-73
-3.32183e-251
-6.76991e-122
1.73282e-07
1.2774e-11
-5.61159e-123
200.701
1.05715e-29
-7.70863e-171
4.64193e-12
3.83072e-13
-5.24955e-174
7.12538e-11
3.00941e-23
1.62357e-11
3.75435e-174
8.38077e-129
-2.50756e-105
3.03172e-174
-3.12202e-37
29.1465
-3.303e-136
3.55697e-12
-8.79289e-264
2.60025
5.8583e-28
5.02043e-38
-7.28188e-219
-6.92282e-138
-7.91937e-80
2.48668e-42
1.74724e-15
9.97578e-36
-1.802e-99
-1.04956e-92
-3.6078e-173
2.02772e-29
4.3551e-39
-2.60566e-107
-1.92805e-217
3.48501e-58
3.74926e-36
3.40466e-45
-2.27678e-144
5.09261e-07
3.55364e-30
1.07938e-164
1.21441e-47
-3.23013e-93
-1.18281e-76
194.3
-2.6346e-98
-5.55335e-169
2.00429e-41
-5.78503e-37
-6.2486e-46
2.81762
5.92678e-63
2.99485e-79
1.78858e-34
-3.04832e-88
1.39836e-86
1.17856e-77
1.06733e-87
-1.92167e-29
-4.93421e-77
14.7076
-1.13349e-44
4.45256e-10
-7.54219e-85
0.00261461
5.51317e-32
3.33436e-10
3.5289e-14
1.66407e-36
3.75026e-78
6.68401e-84
-2.31053e-61
2.28906e-264
-1.197e-79
1.1418e-36
3.21076e-14
-8.00281e-89
5.93256e-166
3.76519e-39
3.07027e-37
6.37579e-18
2.53432e-40
3.30684e-12
7.09274e-18
6.20147e-116
1.60908e-51
0.664186
6.94638e-38
9.21235e-255
6.9349e-93
-1.18006e-90
1.17766e-257
8.35603e-53
1.59464e-196
-4.6547e-78
3.01828e-15
2.5991e-34
1.91552e-06
1.06167e-192
1.07175e-136
3.30934e-233
-8.95943e-90
-2.61008e-107
3.88648e-10
-5.37134e-107
5.95395e-137
3.99655e-07
1.20465e-37
7.02704e-52
3.97245e-54
1.11643e-17
3.9293e-98
2.79481e-12
8.15009e-85
7.64759e-190
0.00177704
2.88372e-45
9.73924e-21
-3.02078e-102
54.5741
-1.06124e-40
7.41747e-47
1.12116e-37
3.32153e-31
32.9349
-2.51942e-82
1.11648e-12
-5.28213e-49
-2.91339e-49
-1.28973e-144
2.01218e-69
1.20579e-07
1.36819e-80
3.27729e-09
-1.44832e-95
-9.76342e-100
5.72096e-13
3.98551e-156
1.44352e-125
-7.34273e-81
5.64585e-44
2.65179e-11
-1.07812e-96
-1.13594e-91
-2.08651e-235
-7.39263e-48
0.0020404
4.72819e-44
-7.93469e-91
-1.05078e-64
2.42273e-99
-2.33232e-133
13.5945
-1.84441e-48
-1.89748e-221
3.14826e-50
8.41716e-101
-2.07265e-39
-4.6858e-28
3.0515e-49
3.27145e-89
4.61206e-15
1.84831e-11
-1.00617e-223
-6.09645e-64
6.87229e-12
-1.14102e-136
-3.36022e-199
1.00426e-66
4.97376e-53
5.58854e-83
-1.17734e-197
1.18203e-53
1.41665e-12
-1.44531e-172
6.86069e-24
2.67462e-197
-6.02003e-107
8.13192e-57
4.26493e-05
-4.34543e-242
1.90925
-3.43019e-47
2.59155e-22
37.6396
-3.33274e-43
3.64823e-60
0.0307265
-2.07093e-89
1.42116e-05
2.17072e-19
-1.81381e-66
-3.081e-81
-5.08646e-83
1.02525e-100
-7.75293e-106
2.22524e-23
0.0279778
192.847
3.54432e-27
-1.80508e-29
0.00805424
1.54464e-29
11.521
1.49135e-149
3.3772e-99
3.34661e-19
4.49539e-45
-2.96104e-122
3.56472e-27
-3.33208e-84
31.5086
-6.03563e-253
2.72639e-133
1.06346e-143
203.237
-3.33593e-37
2.36133e-45
-2.58124e-79
2.10219e-19
-4.28144e-86
-8.22144e-140
2.62522e-07
-1.22151e-82
2.53519e-07
2.23951e-23
5.23841e-72
1.00762e-14
2.14264e-45
-1.45387e-99
-2.00056e-135
-1.13898e-131
0.209192
1.2776e-13
-4.21957e-111
3.39255e-18
2.4574e-52
9.9773e-26
-3.77161e-240
2.31583e-49
1.57545e-07
2.59783e-11
-6.60494e-42
-8.76736e-69
4.84588e-135
7.09917e-17
6.9227e-86
1.34616e-138
2.4092e-10
1.96861e-17
-1.60501e-111
1.66754e-32
1.71318e-46
1.62129e-234
-6.5388e-125
-4.68702e-200
-5.42063e-41
83.9489
1.38491e-11
2.89674e-20
-2.32956e-116
-1.63267e-85
2.09431e-44
6.11919e-225
2.7607e-09
3.16907e-46
82.6552
-3.3734e-28
7.9891e-76
6.74636e-113
1.64044e-148
1.57279e-82
-2.39696e-87
4.51498e-121
14.0314
7.59005e-16
2.54313e-37
1.99165e-17
-1.52148e-43
-1.52105e-135
-1.05645e-263
-1.04439e-120
8.65262e-27
0.849114
-3.34815e-22
6.89528e-47
-9.89215e-50
6.35596e-75
2.0165e-16
0.0356005
0.0227296
1.75171e-87
-7.74589e-71
7.1368e-30
4.62826e-102
1.48598e-193
-2.19799e-121
1.9316e-14
-1.57302e-108
2.90771e-62
-3.44684e-95
1.53983e-41
2.21014e-08
1.17287e-100
-5.51634e-121
1.23208e-10
6.64028e-16
-3.83672e-95
-1.31007e-141
-4.85217e-51
0.00011811
2.0303e-26
2.63311e-23
-1.16294e-53
9.89302e-62
0.0475771
-6.41174e-84
-2.84704e-22
-1.23782e-133
1.05564e-12
5.52965e-12
-6.35485e-177
7.83123e-145
87.5808
9.37254e-123
1.49857e-75
1.29964e-28
2.43639e-111
6.07103e-110
-1.61871e-96
2.50083e-124
4.54795e-235
8.17701e-20
1.33937e-05
2.13667e-147
0.0170499
-5.98311e-87
-1.04453e-125
8.0544e-13
3.25681e-09
2.48634e-27
-3.79389e-88
-5.77352e-121
-9.33977e-46
151.298
-4.0977e-108
4.69383e-148
5.17583e-155
7.62819e-108
4.9742e-61
6.33548e-30
-3.11977e-111
2.10668e-79
1.46325e-127
7.24567
5.30184e-09
8.6947e-44
-1.06706e-39
-2.19429e-85
-1.30296e-125
7.49716e-17
1.34859
-1.0831e-74
1.7689e-153
-3.03477e-127
7.36153e-14
1.81884e-111
9.31254e-135
5.01386e-09
-6.52679e-89
-3.47482e-122
114.76
8.05903e-07
7.1785
1.44923e-16
-1.68797e-111
1.41167e-13
1.43242e-10
0.165093
5.15314e-98
2.61832e-30
2.09356e-228
0.119931
-9.11412e-258
-4.28308e-100
3.69188e-86
2.74816e-153
9.7926e-43
6.3404e-94
-8.30615e-110
1.25338e-99
6.43836
2.28941e-14
4.52298e-40
-6.68834e-120
3.31581e-30
15.8068
4.71138e-09
4.87777e-44
-2.42428e-52
-9.482e-101
3.34142e-87
1.63127e-149
2.19024e-113
9.9481e-146
-1.56558e-122
-1.96808e-44
4.19544e-15
3.8379e-17
0.314948
9.29606e-05
9.19641e-09
6.01429e-25
0.114516
1.86665e-136
3.31767e-05
-1.03345e-127
0.00141513
2.06109e-09
8.44517e-37
-2.32629e-110
3.21471e-36
5.60083e-24
2.85605e-67
78.3502
1.02348e-12
0.368247
-4.02534e-124
6.62473e-10
2.57259e-07
3.79264e-10
1.25489e-07
5.1094e-11
-7.36308e-122
2.31431e-98
4.242e-43
-6.83905e-115
1.37491e-29
-1.31513e-103
1.94454e-39
2.97647e-178
-1.01422e-93
2.53695e-22
6.92524e-34
4.6662e-140
-2.34496e-48
0.895232
93.2943
3.61205e-156
1.4602e-50
1.53458e-79
8.71914e-11
1.34801e-30
4.70575
3.77177e-05
1.92585e-100
4.89066e-41
1.96808e-07
-1.70007e-24
4.92233e-06
1.90542e-55
5.95892e-12
4.79183e-142
0.190167
4.59235e-09
-3.84051e-140
1.09037e-07
0.122345
1.4015e-46
3.86519
-1.06156e-89
5.97191e-09
3.17592e-81
-1.2721e-160
4.99292e-76
-8.56947e-85
0.0810119
5.25191e-05
0.0375415
-1.0641e-141
6.39378
1.74232e-37
3.71098e-13
-3.32655e-32
5.09887e-43
3.14194e-52
0.0176963
-4.24592e-88
2.11893e-100
2.1783e-21
2.96595e-09
3.42087e-29
7.98219e-19
-4.67408e-59
0.0480379
3.00654e-30
8.17288e-30
1.68782e-09
-1.72924e-174
6.85077e-08
5.32781e-12
3.75765e-08
-5.62073e-78
0.000808582
7.43687e-148
1.99324e-30
4.96871e-45
1.73032e-06
9.88811e-74
2.33599e-22
1.22937e-08
76.7195
-5.06857e-108
8.58925e-39
-1.08102e-48
4.38502e-10
1.18302e-19
-4.60702e-99
2.89314e-39
3.33351e-150
14.2168
-1.05204e-236
1.16039e-149
-2.31879e-198
6.47017e-07
-4.77432e-121
1.24274e-38
3.89959
1.9187e-54
9.68672e-60
-5.14636e-115
3.5158e-188
7.91027e-10
8.02049e-153
-3.21402e-42
2.02901e-12
-5.03731e-47
2.45493e-06
3.66744e-95
4.51117e-38
1.05982e-07
3.9604e-19
-2.75844e-72
86.0706
-1.55859e-240
6.63088e-183
2.64201e-90
220.565
-2.52252e-79
6.86218e-75
6.63527e-08
-2.49504e-110
1.78722e-93
3.5962e-14
7.1827e-06
3.18323e-32
0.00792748
-2.03891e-110
-1.89454e-90
8.40085e-44
6.16684e-49
1.45409e-06
-2.39373e-129
5.23699e-71
-2.50567e-56
-1.7273e-17
-1.26911e-63
1.13127e-141
8.59344e-41
-4.28574e-19
1.89893e-207
-1.89888e-203
3.7912e-05
8.67789e-32
7.34667e-05
-6.92093e-93
-1.41163e-252
-6.63879e-18
7.87225e-07
-5.35566e-135
-1.51427e-106
1.02102e-149
14.2774
2.38077e-207
2.01762e-33
6.00967e-05
1.61317e-199
1.68473e-186
2.02417e-19
-1.81279e-163
1.50327e-203
2.93496e-42
1.96584e-13
6.96346e-144
3.42662e-22
7.34476e-156
7.25968e-08
-1.11221e-254
1.01666e-07
3.4741e-13
2.03586e-21
1.28771e-199
1.69598e-15
5.10522
7.6962e-102
3.57436e-49
1.21316e-164
9.05849e-14
5.60117e-157
6.61963e-07
1.53453e-09
-1.21379e-86
4.89839e-195
9.72494e-14
3.22547e-14
1.68666e-48
1.2124e-46
1.28558e-16
-1.72661e-162
4.64491e-16
9.23665e-197
1.05304e-05
8.21839e-09
4.39078e-09
9.56218e-21
-2.06603e-23
10.6809
3.90835e-22
2.8139e-45
8.2528e-15
4.123e-103
1.29479e-12
1.65917e-16
-9.34956e-45
1.5164e-81
0.0921362
-5.27391e-214
0.0422479
109.482
1.77668e-114
1.40279e-08
74.4927
1.66399e-35
7.12086e-43
8.32489e-17
-5.65809e-55
4.60825e-148
4.87728e-08
0.0126792
0.817803
-1.09741e-102
2.36009e-16
0.000343944
2.17921e-14
-1.02353e-122
6.36181e-180
1.16603e-33
0.0195905
5.73413e-09
1.48967e-16
-2.86495e-244
2.18301e-159
1.0417e-14
-1.33922e-109
2.46171e-44
-4.54526e-105
6.80807e-192
1.85185e-07
3.28158e-89
0.000139988
1.18826e-47
4.78982e-171
1.05787e-179
2.74009e-15
-4.56666e-104
8.45374e-35
2.66617e-16
0.6582
-5.25029e-51
5.40218e-143
1.96575e-06
9.33644e-96
9.4665e-152
1.6764e-69
4.75626e-14
-3.44667e-101
4.40295e-14
2.02395e-46
214.784
5.6276e-15
-4.30806e-134
7.29383e-05
-2.76787e-197
3.42994e-09
5.45145e-38
5.98418e-06
0.00420525
-4.24574e-46
0.000127242
2.48543e-169
6.55878e-09
5.15236e-125
8.41458e-52
2.56645e-05
2.80386e-28
9.8509e-06
0.015863
-4.88576e-20
7.94942e-08
1.98204e-06
1.10861e-139
4.28759e-154
-1.00151e-195
0.000160314
-1.45486e-24
5.49978e-138
1.28614e-07
1.21825e-05
5.96827e-39
1.34854e-13
2.95097e-55
-9.787e-35
0.00205216
-1.1249e-72
2.2726e-30
2.78683e-34
-1.02188e-228
1.32623e-226
-5.24241e-139
-1.3622e-102
1.59483e-47
1.31713e-172
-9.87351e-87
3.27006e-107
3.56983e-65
1.13527e-19
-1.76674e-121
1.01145e-06
-2.23145e-256
1.01632e-11
3.26314e-06
-1.44835e-132
4.52494e-05
7.46069e-13
4.58431e-06
2.99689e-62
6.4852e-17
-3.89794e-112
1.67914e-38
3.1726e-49
2.16069e-181
8.66602e-124
-1.13221e-93
-6.10429e-131
4.62615e-202
6.76763e-56
8.50317e-204
-2.90785e-31
7.83931e-24
0.063986
1.97582e-174
-1.70448e-63
6.5955e-171
-7.68122e-109
5.51409e-22
8.43433e-66
4.44954e-136
119.139
1.41092e-14
8.02859e-32
6.76957e-61
2.08236e-15
5.68496e-24
4.15152e-67
1.51882e-18
1.13792e-13
-1.93084e-106
1.65466e-198
-5.16712e-84
1.04478e-07
1.79341e-154
-1.88693e-139
5.77445e-14
4.47899e-115
-5.55709e-110
1.39098e-77
2.89677e-142
0.000913327
1.04675e-172
-4.11991e-141
2.54559e-21
7.78128e-19
5.47475
1.93236e-13
-2.30685e-59
-3.87599e-134
1.74786e-17
-8.78796e-136
1.89635e-27
7.88698e-52
6.25645e-107
4.65959e-06
2.11138e-201
3.02296e-22
1.79504e-54
4.01209e-15
-6.86306e-44
1.09391e-207
6.48418e-108
1.99797e-255
1.77868e-25
-1.04289e-157
2.55549e-19
1.10625e-44
-1.9391e-92
-1.13304e-57
8.71549e-40
3.28992e-200
9.35203e-22
1.91998e-22
-1.73289e-103
7.28579e-21
8.37583e-08
6.46936e-190
6.23071e-40
1.34422e-11
1.05134e-13
5.93214e-77
9.27612e-43
2.13181e-41
3.5296e-47
4.95429e-74
3.73973e-15
-6.49984e-74
1.66048e-132
6.84378e-134
0.0309173
1.38385e-08
5.50475e-05
1.38926e-06
-7.14007e-36
6.64771e-21
8.72906e-45
1.57199e-19
3.55922e-133
2.80586
-8.84201e-109
2.39693e-06
5.48574e-09
-2.28006e-137
-7.97604e-26
6.02658e-09
4.16669e-06
6.60241e-43
3.48741e-27
8.14773e-135
-4.31052e-222
3.29519e-15
1.88887e-198
1.48437e-176
1.60849e-17
2.03586e-109
-1.17589e-67
2.72035e-141
-3.32378e-91
3.1006e-15
10.2113
5.75471e-106
-1.83469e-113
1.00732e-08
-9.91522e-39
3.45697e-11
2.45034e-25
2.37373e-26
-9.73528e-112
7.75728e-39
1.66552e-17
3.03366e-17
-8.74999e-31
-3.67241e-158
1.49851e-07
1.14352e-31
9.40017e-20
-2.36076e-85
2.68561e-139
6.49401e-17
7.85218e-104
-9.93252e-193
2.44731e-23
1.49292e-08
-3.72947e-175
4.88397e-22
7.22638e-48
-3.22444e-120
-5.85382e-77
-6.35405e-119
2.34801e-23
-1.12316e-133
6.41062e-141
5.23836e-46
8.26591e-24
-7.32626e-41
-9.77553e-31
9.21697
-4.58717e-109
2.75666e-62
0.29337
4.78776e-34
-2.16452e-120
6.95324e-33
0.00088487
3.2755e-181
-4.71114e-113
2.54129e-193
1.24607e-26
7.88177e-15
3.42248e-49
1.42355e-205
-8.37915e-81
8.06744e-68
1.0342e-93
1.42325e-09
-2.0344e-106
-1.90271e-204
2.72892e-200
6.33932e-29
1.20287e-43
1.47322e-05
-2.87615e-84
-1.18136e-49
1.86494e-32
1.0042e-15
1.50829e-152
1.43159e-24
1.28425e-184
2.18826e-176
-1.47611e-204
4.20571e-10
6.54078e-113
7.7413e-25
3.58669e-24
1.99737e-27
7.44156e-17
2.35803e-28
9.55304e-14
2.89782e-26
8.81557e-105
3.82131e-30
-2.94057e-49
6.55805e-36
1.03848e-21
-7.22653e-112
40.7125
3.02906e-17
1.80433e-19
-2.16042e-174
1.45119
2.95442e-16
4.45087e-18
-5.41398e-32
5.50451e-08
-9.26656e-65
9.49084e-106
-8.05299e-93
5.07444e-96
1.95468e-90
1.42358e-18
3.17951e-22
-2.91254e-120
3.73021e-26
2.27821e-95
-9.01748e-91
1.9797e-54
-2.52331e-47
-3.19346e-73
3.29811e-57
-5.90386e-46
1.09356e-26
1.78234e-26
5.65319e-50
2.31315e-190
9.83166e-91
-8.46973e-104
4.57731e-11
2.6564e-155
3.45987e-116
2.46739e-26
1.29916
-1.4038e-132
2.4345e-05
3.67824e-137
2.66038e-104
5.17065e-44
4.10829e-30
2.87632e-35
3.86857e-151
2.98691e-20
1.18806e-22
1.08023e-11
1.16583e-174
2.49962e-26
3.69771e-43
5.16616e-58
-5.32501e-203
-1.43637e-243
1.04913e-28
2.36491e-43
3.35417e-63
50.1917
6.7997e-24
1.75335e-33
-2.25529e-25
7.44382e-47
2.40358e-11
-6.15658e-108
5.89644e-50
-1.71776e-79
-6.54543e-91
0.00646978
6.16093e-25
1.97885e-22
3.73787e-37
-6.12892e-148
3.55847e-19
1.67324e-18
1.43016e-05
1.41673e-89
1.21376e-33
0.000128646
6.78965e-05
7.13674e-139
3.22775e-05
8.33426e-54
20.6219
3.73553e-190
1.8213e-25
8.24375e-38
4.05309e-213
6.58449e-16
1.32018e-68
-1.02086e-80
1.68418e-10
0.000824795
3.83369e-06
6.49162e-80
1.07046e-27
-4.33075e-190
-1.2433e-104
3.54305e-06
1.59839e-31
6.5938e-82
1.40348e-19
-3.67605e-23
7.6787e-29
8.06678e-42
4.2097e-39
3.68873e-24
0.00212464
4.19801e-145
4.11152e-41
6.0239e-50
1.48527e-28
1.75656e-07
1.79839e-24
7.83831e-34
4.05964e-70
1.38954e-193
3.79305e-27
2.15847e-32
1.49796e-22
3.78536e-150
1.29629e-59
1.33263e-26
1.1174e-25
-1.31197e-24
3.65904e-21
3.93114e-76
1.06387e-30
1.78581e-114
1.07171e-14
1.47093e-55
2.18537e-26
8.15293e-65
1.61182e-78
1.32369e-24
1.14902e-60
-6.61556e-69
4.10296e-84
2.18747e-146
2.40771e-32
-5.18122e-53
5.54596e-57
12.3303
0.00862355
-5.23208e-116
1.7121e-83
2.24141e-40
1.27901e-42
7.2355e-206
8.16991e-31
-4.05952e-37
3.62111e-31
-3.56876e-191
6.91921e-14
3.37835e-20
3.46546e-16
8.99332e-31
-2.57069e-175
-6.43802e-98
1.09644e-64
2.23898e-30
4.73664e-09
13.9475
-9.00808e-142
2.9061e-69
-3.09057e-74
2.61436e-07
0.000384278
6.08402e-06
1.68468e-53
3.07113e-23
-2.14864e-189
4.34571e-40
-7.10177e-54
-4.03596e-140
-2.38629e-23
1.22748e-42
2.33743e-36
5.1908e-22
-6.01794e-74
3.45909e-43
5.10023e-33
-9.23852e-178
-4.0867e-266
9.30019e-45
-6.17014e-68
1.68768e-08
8.18016e-51
-2.62232e-23
1.1315e-13
-3.72783e-42
-1.87902e-141
-9.47613e-61
6.86265e-21
2.46306e-145
0.149296
0.0285032
-6.44429e-118
9.24862e-185
5.55609e-109
5.08206e-145
-1.34937e-214
7.28966e-63
2.38485e-69
-2.86886e-33
3.62793e-42
5.23811e-32
-5.97458e-50
8.80715e-06
2.43735e-21
6.06535e-33
4.37285e-43
1.28316e-53
2.95753e-36
-2.36133e-176
-2.13513e-76
5.05811e-71
-1.56645e-32
-1.5016e-26
1.18697e-09
-1.61974e-217
-1.68184e-27
4.46926e-39
2.37528e-51
2.96551e-23
-2.56601e-41
2.55367e-25
0.00243882
8.75669e-40
1.01306e-18
1.50617e-52
5.63887e-91
4.6116e-42
1.65141e-35
9.7787e-149
1.8507e-44
0.0185449
-2.0382e-80
0.000154933
1.01729e-139
3.64641e-35
-1.24209e-94
2.18558e-77
6.47419e-31
-3.31968e-21
1.01187e-22
-8.93337e-74
9.23335e-47
1.08029e-51
2.23352e-18
1.50298e-14
-2.90691e-47
1.29387e-09
-9.40299e-214
7.58176e-42
7.47498
8.0268e-15
-1.18781e-74
0.30003
1.50401e-20
-2.46451e-70
-5.59607e-164
6.50477e-11
8.77669e-36
4.31333e-53
1.38282e-37
-2.46821e-155
3.75161e-23
-3.81212e-83
7.96366e-15
2.05805e-37
3.32266e-33
-9.7428e-31
-2.40621e-260
-4.49385e-107
1.48213e-52
-1.84212e-90
-2.00258e-93
3.65033e-58
4.58842e-78
3.56664e-66
-1.35924e-25
1.33411e-28
-1.15715e-201
1.01273e-16
-1.25043e-105
-6.35187e-176
-2.94298e-28
2.76349e-134
3.83001e-52
2.98016e-53
-2.71477e-150
-2.54796e-146
-1.83291e-86
7.96087e-27
1.04034e-63
2.68723e-33
1.24927e-37
-3.04417e-27
1.41093e-26
7.3046e-54
3.72302e-45
9.63677e-40
-1.67286e-231
-2.41107e-61
2.57559e-80
9.51292e-55
0.137172
3.61337e-29
-2.38436e-73
6.91413e-44
-3.05864e-66
2.03263e-70
-9.47496e-76
4.69454e-65
4.10276e-72
-2.02647e-33
9.50186e-40
-1.34215e-177
5.56265e-28
-2.45401e-51
4.83513e-26
6.13498e-164
-8.02717e-29
3.0372e-05
-3.46026e-101
-2.82606e-41
7.5376e-20
-3.40778e-122
2.53389e-27
2.90483e-14
2.56031e-38
-9.82388e-39
1.22155e-15
1.53742e-44
-2.37391e-52
4.10197e-42
2.41901e-26
1.13001e-130
4.53506e-77
-1.80682e-221
-7.19999e-105
-4.82644e-165
1.92464e-44
5.30083e-41
1.35373e-27
8.595e-44
11.8995
-5.33663e-21
27.041
2.7239e-38
2.99125e-10
7.92356
1.3448e-16
20.5347
7.85029e-75
5.39588e-45
1.98431e-51
2.08712e-56
1.98306e-47
6.19047e-107
9.31464e-50
-1.89827e-96
1.19273e-165
-1.01677e-53
2.85275
1.12822e-46
5.65409e-25
4.40689e-49
-5.93729e-88
2.93311e-40
4.01679e-41
3.3069e-111
8.72506e-47
2.35609e-85
4.3614e-25
6.1633e-41
8.23965e-43
-7.95895e-44
0.111381
2.26167e-09
6.50073e-24
5.6771e-54
67.0273
2.90547e-48
-1.61117e-56
9.5829e-30
-4.74416e-30
-2.18134e-61
6.80978e-18
3.52123e-143
-2.41454e-38
-2.28798e-28
1.50449e-44
-1.30257e-46
6.90763e-78
2.68698e-43
-5.59974e-35
4.33026e-73
1.91831e-29
6.30505e-51
1.83639e-65
1.82568e-141
3.18842e-57
2.17399e-41
1.81861e-84
5.70629e-53
2.48745e-65
-3.02153e-107
-1.29949e-34
-7.32129e-85
2.21769e-16
6.48364e-48
-1.9168e-66
-1.24618e-150
1.5319e-103
3.75614e-17
5.58002e-43
1.60746e-206
5.14997e-47
6.14539
9.47004e-26
1.44395e-79
2.22134e-53
0.0545484
0.555301
32.5451
1.46921e-92
2.25389e-94
9.23889e-109
1.54469e-64
5.54191e-31
0.000405138
0.00619765
1.93823e-13
1.32443e-22
5.6257e-80
-5.30534e-161
1.79898e-157
-3.40515e-28
-2.01554e-78
2.0853e-26
-4.81367e-95
5.70784e-07
-2.50236e-91
7.48023e-46
1.99605e-12
-2.1581e-43
2.56714e-22
3.13843e-114
2.82062e-45
-9.64021e-174
3.63362e-19
4.17886e-23
6.23873e-72
-2.08451e-166
1.20613e-70
-8.40364e-26
3.53196e-109
-2.08152e-46
0.0490763
4.46876e-185
8.19483e-71
-1.40038e-39
-4.85132e-40
1.39659e-49
2.11025e-121
-1.11224e-108
2.92753e-107
1.73405e-208
1.27236e-157
-2.43147e-66
1.45213e-30
-1.03353e-174
1.22234e-76
7.06087e-118
147.122
-4.10612e-29
1.04277e-105
-2.83283e-219
9.44244e-26
1.37106e-47
5.862e-22
-1.45444e-48
1.02309e-47
-1.70115e-168
-3.78554e-106
3.52701e-18
-1.52665e-231
5.97947e-49
1.74482e-29
3.39546e-53
3.66314e-152
7.59491e-43
-4.58265e-205
-1.81829e-63
-2.9825e-65
1.55165e-107
4.43774e-09
1.448e-57
3.82573e-70
5.89384e-67
-5.19916e-40
-1.11866e-51