/*--------------------------------*- C++ -*----------------------------------*\
  =========                 |
  \\      /  F ield         | OpenFOAM: The Open Source CFD Toolbox
   \\    /   O peration     | Website:  https://openfoam.org
    \\  /    A nd           | Version:  7
     \\/     M anipulation  |
\*---------------------------------------------------------------------------*/
FoamFile
{
    version     2.0;
    format      ascii;
    class       volVectorField;
    location    "0.734";
    object      U;
}
// * * * * * * * * * * * * * * * * * * * * * * * * * * * * * * * * * * * * * //

dimensions      [0 1 -1 0 0 0 0];

internalField   nonuniform List<vector> 
12359
(
(0.981675 -0.000769555 4.7233e-17)
(0.968997 -0.000935265 -3.86416e-17)
(0.999973 -1.17017e-05 3.75911e-17)
(0.93446 0.0017739 -5.99838e-17)
(0.976109 -0.000779206 3.37577e-16)
(0.877095 0.00351113 -2.0552e-17)
(0.84467 -0.00339726 -9.35775e-17)
(0.866323 -5.58048e-05 -7.48867e-17)
(0.801992 0.0203203 1.43006e-16)
(0.888399 -0.00187394 4.74243e-17)
(0.81373 0.0133382 7.41663e-17)
(0.732037 0.02311 1.44226e-16)
(0.33384 0.0613431 -8.78066e-17)
(0.929996 0.00109325 1.61031e-17)
(0.937799 -0.000698972 -2.67495e-17)
(0.519717 0.0132794 -4.72095e-17)
(0.42544 0.03828 -8.5531e-17)
(0.994566 -6.6887e-05 7.65464e-17)
(0.994918 1.98531e-05 2.57045e-17)
(0.954205 -0.000579964 -3.60705e-17)
(0.920536 -0.00260565 6.89051e-17)
(0.775654 0.0170678 6.65562e-17)
(0.961878 -0.000776903 -2.26704e-17)
(0.950597 -0.0005837 -3.26673e-17)
(0.966585 -0.000732539 -3.86038e-17)
(0.957312 -0.00114147 -1.26549e-16)
(0.998434 -8.77628e-05 -4.27054e-17)
(0.998642 -3.23035e-05 -2.20749e-17)
(0.99599 6.55533e-05 -1.07218e-16)
(0.99781 5.21934e-07 -4.52166e-17)
(0.997306 -7.62636e-05 3.0085e-17)
(0.999331 1.64202e-05 2.31607e-17)
(0.999763 1.77712e-05 5.01295e-17)
(0.99803 -2.12209e-05 -7.31526e-17)
(0.999906 -1.42366e-05 3.96448e-17)
(0.997117 -2.9873e-06 -2.28442e-18)
(0.988591 -0.000138186 3.92024e-17)
(0.983689 -6.30966e-05 -2.09889e-16)
(0.977645 -0.000644265 1.46112e-16)
(0.985454 -0.000318452 7.40142e-17)
(0.971562 -0.00130826 1.06396e-16)
(0.984636 0.000435666 1.11259e-16)
(0.991559 -0.0003595 1.00178e-16)
(0.992435 7.06073e-05 -7.05117e-17)
(0.996423 -0.000152592 5.13179e-17)
(0.996164 -9.00423e-05 -5.73487e-17)
(0.996767 -0.000117724 -2.89282e-18)
(0.997618 -2.76192e-05 9.43497e-18)
(0.995468 3.55961e-05 -1.22711e-17)
(0.998271 -0.000101383 -6.02696e-17)
(0.998792 -3.08682e-05 -2.47686e-17)
(0.999093 -1.70167e-05 -2.20107e-17)
(0.999438 -6.01941e-05 4.27746e-17)
(0.994021 0.000118153 -9.84217e-17)
(0.999625 3.62103e-05 -4.07111e-17)
(0.999705 -8.53867e-07 7.05936e-18)
(0.993059 -0.000173658 2.58463e-17)
(0.999809 -3.70959e-05 -1.12305e-17)
(0.999801 5.25071e-06 2.99226e-17)
(0.999844 1.55233e-05 -3.25687e-17)
(0.999639 -9.85132e-06 -2.907e-17)
(0.99994 1.54419e-06 5.85488e-17)
(0.998882 -8.69093e-05 -1.68616e-17)
(0.214769 0.0746828 -1.05967e-15)
(0.993737 -0.000114254 6.93097e-17)
(0.907231 -0.00384935 8.39953e-17)
(0.98957 -4.62605e-05 4.23863e-17)
(0.99919 1.17814e-05 -1.09365e-17)
(0.987944 -0.000331193 4.61995e-17)
(0.620256 0.0197205 1.21427e-16)
(-0.0235677 -0.0378405 6.8673e-15)
(0.973713 -0.00155981 4.02162e-17)
(0.99998 -9.40403e-06 -7.92505e-18)
(0.986547 -0.000666106 -8.97551e-17)
(0.942253 -0.00275291 -9.22671e-17)
(0.99991 4.64884e-06 -3.79479e-17)
(0.999486 -3.15724e-05 -2.43703e-17)
(0.999913 -2.93972e-05 -1.98484e-17)
(0.989898 -0.000286149 -5.83049e-17)
(0.670366 4.76268e-06 -3.44816e-17)
(0.923415 0.063274 -5.86357e-18)
(1.00362 0.00275928 8.25836e-19)
(1.00003 -4.12433e-06 8.79556e-19)
(0.998432 0.0126962 9.3826e-18)
(1.09708 0.144731 -9.78481e-18)
(1.02292 0.00041915 4.01818e-19)
(1.00377 0.00260674 -7.89557e-18)
(1.00164 -4.16043e-05 2.18978e-18)
(1.11711 0.0566983 -1.61338e-17)
(1.09111 0.148489 4.6434e-18)
(0.999968 0.000137485 -8.77333e-18)
(0.21139 0.139825 -5.29874e-16)
(1.00001 1.62413e-05 -1.94214e-18)
(0.999673 0.00606893 -1.04302e-17)
(0.999227 0.0108466 4.19726e-18)
(1.03608 0.00315261 -2.29243e-18)
(1.00009 0.00539886 -3.37968e-18)
(0.999422 0.00595158 3.37684e-18)
(0.991355 0.0294609 2.13306e-18)
(0.994741 0.018367 -1.52158e-18)
(0.940917 0.0786807 -2.76727e-17)
(1 2.20873e-05 -8.26382e-18)
(1.02108 0.00117287 -5.02602e-18)
(1.23475 0.0795825 -4.5835e-17)
(1.00477 0.00100569 5.76798e-18)
(1.03312 0.0216967 -8.69608e-18)
(1.0003 3.47949e-06 -4.06166e-18)
(1.09511 0.152237 9.49944e-18)
(1.0189 -0.000315702 -1.09748e-17)
(1.03313 0.0202147 -4.30463e-18)
(1.00002 0.00481684 -3.58766e-18)
(1.00355 0.0027458 1.5372e-18)
(0.933967 0.0443383 -5.43044e-17)
(0.958819 0.0745488 5.83432e-17)
(0.999479 0.0108162 3.42134e-18)
(1.00297 -9.38967e-05 -7.91864e-18)
(0.9507 0.0751262 -3.69953e-17)
(1.0046 0.00246264 6.63323e-19)
(1.12749 0.0424283 3.65552e-18)
(0.999999 1.50279e-05 -3.79305e-19)
(1.00004 0.00509659 -8.53411e-18)
(0.865707 0.0290238 -2.41601e-16)
(1.00171 0.000203555 3.02383e-18)
(1.03744 0.00661921 2.04928e-18)
(1.00469 0.0023083 1.51846e-18)
(1.00342 0.000513389 2.90024e-18)
(1.00799 0.0902055 1.98742e-17)
(0.998163 0.0131558 -4.68293e-19)
(0.999985 1.93506e-05 -5.70623e-17)
(1.00447 0.00215536 2.63567e-19)
(1.00253 0.000345644 -1.02118e-18)
(1.04968 0.0186381 -4.57588e-18)
(1.0524 0.0174631 2.61185e-18)
(1.05053 0.016805 -1.09006e-17)
(1.00023 1.51671e-05 -3.20205e-18)
(1.03745 0.00738303 5.26455e-18)
(1.003 7.51586e-05 -1.61525e-17)
(1.03684 0.0067983 -5.67844e-18)
(1.00001 9.22601e-05 -3.66231e-17)
(1.00984 0.0891457 -1.49152e-17)
(0.999999 2.75615e-05 1.61106e-18)
(0.982036 0.00272084 1.5702e-16)
(1.03069 0.0131987 -4.27885e-20)
(1.00027 8.79158e-05 -3.19236e-18)
(1.03954 0.0397254 -2.98227e-18)
(0.900241 0.0280077 -9.02712e-17)
(1.00002 3.16581e-06 -1.13634e-19)
(1.08967 0.120485 8.79696e-18)
(1.00508 0.000991368 -6.3391e-18)
(0.922097 0.0618352 -1.75017e-16)
(1.0378 0.00252103 -3.33595e-19)
(0.999993 4.05029e-05 6.83681e-18)
(1.03117 0.0141112 3.21308e-18)
(1.00176 0.000244365 -8.68419e-18)
(1.00001 -2.05797e-06 8.89661e-19)
(0.554016 1.30958 2.4961e-17)
(0.935801 0.0855369 3.29255e-17)
(1.04963 0.0185798 -2.47443e-18)
(1.00014 0.00521562 4.93957e-18)
(0.999167 0.000602256 2.75901e-17)
(1.00265 0.0445822 -1.8914e-17)
(0.999104 0.000722276 7.88371e-18)
(1.03822 0.00551552 -5.88417e-18)
(1.03282 0.0108093 -3.63935e-18)
(1.00004 4.41515e-05 -1.04614e-18)
(1.00312 0.000337828 -1.29809e-18)
(1.00202 0.0439861 -1.01532e-17)
(0.867132 0.0112049 2.57084e-16)
(1.03237 0.0108539 -9.46388e-19)
(1.12309 0.0597449 -1.21714e-17)
(0.999975 1.75051e-05 3.05912e-17)
(0.999977 3.51829e-05 4.45419e-17)
(1.03264 0.00880781 -5.40273e-19)
(0.971377 0.00239565 5.90552e-17)
(1.0047 0.000874022 -3.29189e-18)
(1.00474 0.089461 -1.85086e-17)
(0.9964 0.000470445 -1.53573e-17)
(0.996619 0.000786395 -4.45887e-17)
(0.936965 0.0492131 6.34227e-17)
(1.0057 0.086623 1.07267e-17)
(0.938714 0.00685953 2.71118e-16)
(1.00001 3.70034e-05 -1.90195e-18)
(0.999972 1.06903e-05 6.93118e-18)
(1.00415 0.00275923 2.93659e-18)
(0.991796 0.0279633 9.03361e-19)
(0.821397 0.0968612 -5.83836e-17)
(1.00421 0.0054919 -1.30934e-18)
(1.00028 0.0101229 -2.30209e-17)
(1.03776 0.000653542 -1.88938e-18)
(1.00459 0.00565463 -5.30592e-18)
(0.999518 0.0101904 -3.66305e-18)
(1.03748 0.00356935 -1.47114e-18)
(1.03448 -0.00116661 1.67469e-18)
(1.0019 5.11655e-05 1.7591e-18)
(1.03418 0.0194309 -1.26705e-17)
(1.12586 0.0441786 -4.02996e-17)
(1.0147 0.0123906 1.06082e-17)
(1.00334 0.00619774 -3.63251e-18)
(1.03046 0.0150607 2.7093e-19)
(1.00441 0.00242431 -3.15352e-18)
(0.893919 0.0266796 3.7396e-16)
(1.03918 0.000932215 -1.80992e-18)
(0.993321 0.0184405 -8.34802e-18)
(1.0328 0.0191247 -2.02207e-18)
(1.03586 0.0367586 1.47375e-18)
(1.00001 3.88483e-05 6.91754e-18)
(1.03679 0.0364721 -6.20308e-18)
(0.992524 0.0177537 -1.81611e-17)
(1.04031 0.00621091 -1.24747e-18)
(1.00549 0.00376051 -5.5718e-18)
(1.00001 4.13231e-05 -1.30877e-19)
(1.04485 0.0142154 -1.78721e-18)
(1.04556 0.0145607 -2.33595e-18)
(1.09302 0.118013 -9.07142e-17)
(0.835435 0.0783165 2.80588e-17)
(0.999961 3.58007e-05 3.44636e-17)
(1.00378 0.00582606 1.91639e-18)
(0.99914 0.0101377 1.23244e-17)
(1.00428 0.00587635 -3.89716e-18)
(0.982484 0.00173841 5.33514e-16)
(0.947888 0.060946 2.67188e-18)
(1.00513 0.00391181 -3.13994e-18)
(1.03741 0.00570893 5.22901e-18)
(0.43289 0.345618 -1.81402e-16)
(1.00544 0.0021495 6.92691e-18)
(1.00001 3.94622e-05 -4.14545e-18)
(0.981713 0.00108287 1.33443e-16)
(1.01814 -0.00230103 -6.97563e-18)
(1.00169 0.0865567 1.16499e-17)
(1.00265 0.00664656 -1.24781e-17)
(1.00285 0.00634627 5.36727e-18)
(1.00004 5.32727e-06 -8.17831e-19)
(1.03844 0.0390903 6.14227e-18)
(0.992833 0.0233855 3.48042e-17)
(1.00071 0.0102797 -1.07669e-17)
(0.994153 0.0210041 -1.15622e-17)
(1.00001 2.24352e-05 -1.66556e-18)
(1.03157 0.0152522 9.94185e-18)
(1.00056 0.0105326 -1.54525e-17)
(0.627121 0.251121 9.66193e-17)
(1.00006 2.53955e-05 -1.56459e-18)
(1.02389 0.00246843 -1.90104e-18)
(1.00007 0.00753293 -8.81697e-18)
(0.982811 0.162582 -4.01813e-17)
(1.00422 0.0482538 -2.19062e-17)
(1.09197 0.116466 1.68046e-17)
(0.999861 3.96236e-05 -2.02018e-17)
(1.04022 0.00605397 2.11098e-19)
(1.00431 0.000531443 -3.24791e-18)
(1.03301 0.00130006 1.06423e-18)
(1.04301 0.0115015 4.33864e-18)
(0.98575 0.000533326 -1.69964e-16)
(0.996949 0.000623659 6.04659e-17)
(1.00241 0.00626466 6.08685e-18)
(0.516799 0.434864 9.40527e-17)
(1.25308 0.12714 -3.88664e-17)
(0.999987 7.6972e-06 2.44258e-18)
(1.00548 0.0031759 -9.04316e-18)
(0.351497 0.334976 1.23114e-16)
(0.566921 0.00289935 2.09404e-17)
(0.993484 0.0187327 -2.1615e-18)
(1.00279 0.0480303 -4.69399e-18)
(1.00277 0.0790827 -6.84334e-18)
(1.03365 0.0180446 -1.33371e-17)
(0.973641 0.000890854 1.21368e-16)
(1.34758 0.334418 -7.49826e-17)
(1.11108 0.047824 1.83727e-17)
(1.00543 0.0492928 -3.63965e-18)
(1.00544 0.00253398 -1.54673e-17)
(1.0368 0.00799227 -5.27407e-18)
(1.0327 0.00976364 1.57526e-18)
(0.988014 0.0266777 4.06763e-18)
(1.03247 0.0128319 -2.18815e-18)
(1.00253 0.00648816 -4.93443e-18)
(1.0057 0.00342301 -6.67368e-18)
(1.00005 5.99503e-05 -1.34146e-18)
(1.00538 0.00274812 -2.38988e-18)
(1.17054 0.102853 -1.10962e-17)
(1.00598 0.0524356 -8.0932e-18)
(1.00041 0.000142774 1.92546e-18)
(1 5.68093e-05 2.43937e-18)
(1.03493 0.0178455 -1.79549e-17)
(1.00706 0.0012498 3.73102e-18)
(0.99098 0.000588394 -1.29555e-16)
(1.02341 -0.000736526 -6.68286e-18)
(1.00001 3.1907e-05 -2.23583e-18)
(1.00104 0.0771818 -9.35064e-18)
(1.00001 6.41011e-06 4.40936e-18)
(0.999994 -1.61313e-05 1.08933e-17)
(0.999426 0.000126405 5.40648e-17)
(1.03853 0.00578054 -1.17417e-18)
(1.00391 0.00233378 9.17592e-18)
(1.41219 0.376108 -2.90687e-17)
(1.00028 -1.38564e-05 -4.36615e-18)
(1.00032 9.17156e-05 1.27166e-17)
(1.0213 0.00171689 -2.8467e-18)
(1.00413 0.000602434 -8.75431e-18)
(0.945266 0.0699793 2.87932e-17)
(0.999185 0.00947249 -3.76742e-17)
(0.998906 0.000288191 9.47041e-17)
(0.999973 3.97321e-05 1.23336e-18)
(1.16663 0.0934726 -1.75067e-17)
(1.0047 0.0775628 1.12365e-17)
(0.999974 3.53609e-05 -1.17129e-18)
(1.00376 0.00609871 3.93596e-18)
(0.999777 0.00891638 9.65829e-18)
(1.00439 -0.000172051 2.09075e-18)
(1.00289 -0.000723572 -3.35161e-18)
(1.00302 8.89426e-05 -4.79403e-18)
(1.00446 0.00100111 -5.58447e-18)
(0.995532 0.00132218 1.21389e-17)
(0.831164 0.0641903 -1.5546e-16)
(1.00489 0.00169545 2.15339e-19)
(0.997701 0.00012253 3.9454e-17)
(0.985685 0.00101707 -5.33528e-16)
(1.02513 0.0265258 -3.30037e-18)
(1.10167 0.0418522 -8.70715e-18)
(1.00489 7.39422e-05 -6.35916e-18)
(0.990054 0.0250954 7.58833e-18)
(0.588464 0.0789199 8.21001e-17)
(0.999995 1.54274e-05 2.89881e-17)
(1.02696 0.0120595 2.18855e-18)
(1.00049 0.000241413 -1.95748e-18)
(1.01431 0.0129031 3.03582e-18)
(1.00028 9.44269e-05 4.6883e-18)
(1.00596 -0.000547644 3.21936e-18)
(0.80702 0.0429526 4.49863e-16)
(1.02789 0.0139989 2.05844e-18)
(0.805898 0.0842061 -1.41237e-16)
(0.991374 0.000365669 5.17178e-17)
(1.00051 0.00775009 -1.76784e-18)
(1.03375 0.00114539 2.16839e-19)
(1.03933 -0.00141128 -6.72505e-19)
(1.00052 0.00774804 6.67407e-18)
(1.03484 0.00122434 -5.05933e-19)
(1.03427 0.00200606 4.37781e-19)
(1.0008 0.000115819 2.92658e-18)
(0.999538 0.000627557 -4.38049e-17)
(0.999524 0.000603981 -1.14492e-17)
(0.999496 0.000590448 -4.1686e-17)
(0.999489 0.000573653 -3.29119e-17)
(0.691439 0.275524 3.60156e-17)
(1.00003 4.05709e-05 4.5368e-18)
(0.938969 0.0797739 1.28084e-17)
(1.04057 0.00367165 -1.67717e-18)
(0.992803 0.0250951 -2.54944e-17)
(1.03239 0.0125679 2.97202e-18)
(1.02802 0.0152424 -5.30998e-18)
(1.02086 0.00200781 -1.22303e-18)
(1.01359 0.0121982 -5.87413e-18)
(1.02881 0.0143504 -8.65993e-19)
(1.01332 0.012229 -4.57908e-18)
(0.990888 0.0263216 1.65237e-17)
(1.02727 0.0279603 2.66161e-18)
(1.02602 0.0317499 4.43464e-18)
(0.954852 0.0500715 -3.18806e-18)
(0.981312 0.00200401 1.05244e-16)
(1.03363 0.0795566 2.08208e-17)
(0.983094 0.00146676 -1.39042e-16)
(0.983396 0.00101912 6.25624e-17)
(1.03027 0.0151707 3.91027e-18)
(0.941671 0.0961904 5.53204e-17)
(1.00302 0.00267888 4.23498e-18)
(0.999681 0.000129207 2.70191e-17)
(1.0159 0.0114714 -6.8101e-18)
(0.99964 1.61413e-05 5.11191e-17)
(1.00336 0.00303474 -8.43722e-18)
(0.773788 0.0180381 1.05623e-16)
(0.176311 0.149653 -1.702e-16)
(1.00324 0.00288837 8.70399e-18)
(0.999985 2.66542e-05 -2.76828e-17)
(1.00021 1.05941e-05 -2.72686e-18)
(0.999989 2.10703e-05 7.33921e-18)
(1.02847 0.0123965 -8.26038e-19)
(0.999996 2.34656e-05 2.87273e-18)
(0.999995 1.08492e-05 -4.19967e-18)
(1.12542 0.0675411 -1.26557e-17)
(1.03284 0.0110156 1.54716e-18)
(1.08767 0.167603 1.6054e-17)
(1.00158 0.00317562 3.82866e-18)
(1.03492 0.0128753 9.61977e-19)
(1.00722 0.000866918 1.40226e-18)
(1.00005 0.00840528 8.41854e-19)
(1.03182 0.0280525 8.0437e-18)
(1.01611 0.0109201 -9.07787e-18)
(0.931634 0.00392254 2.37343e-16)
(1.01575 0.00989673 -7.89596e-18)
(1.00296 0.00257138 3.29967e-18)
(1.0005 9.17618e-05 -5.19815e-18)
(1.03309 0.00974328 1.43914e-18)
(1.03595 0.0128441 1.68504e-18)
(1.00588 0.00136316 3.59458e-18)
(0.706953 0.024598 4.5024e-16)
(1.0316 0.0274383 2.32434e-18)
(1.03757 0.00119216 -1.19146e-19)
(0.998294 0.0346093 2.1125e-18)
(1.00105 0.041608 -2.15804e-18)
(0.999986 0.000107672 -1.1869e-17)
(0.39411 0.563764 -1.22446e-16)
(1.03478 0.0820683 -8.76676e-18)
(1.00122 0.0034255 -1.16297e-18)
(0.972537 0.180123 3.6414e-17)
(0.984218 0.00113095 4.78066e-17)
(0.999973 5.45812e-05 -1.09618e-18)
(1 3.0373e-05 -1.30137e-18)
(0.999994 5.30153e-05 6.09836e-20)
(1.09432 0.16109 9.82042e-18)
(0.944231 0.0948765 5.05656e-17)
(0.989085 0.0280597 -1.10131e-17)
(1.02792 0.0102727 7.64163e-18)
(1.03637 -4.16122e-05 -1.64873e-18)
(0.99939 0.011193 8.52244e-19)
(0.941498 0.00652441 6.9494e-17)
(0.999398 0.0342317 1.24945e-17)
(1.0467 0.0162106 -6.22477e-18)
(1.10655 0.0425046 2.01378e-17)
(0.709248 0.0416142 1.47343e-16)
(0.993727 0.0251253 -6.64385e-18)
(0.955502 0.0539842 6.54213e-17)
(1.01823 0.000679585 -3.10755e-19)
(1.0258 0.0360071 -1.36346e-17)
(1.01167 0.0109823 -8.08363e-18)
(1.01635 0.0118158 -5.39677e-18)
(0.998115 0.00021474 1.64222e-16)
(1.01219 0.0107919 -1.87152e-18)
(1.03052 0.0121862 2.13954e-18)
(0.999997 1.24637e-05 -2.41694e-18)
(0.74773 -0.0029761 3.74325e-17)
(0.990517 0.00111013 -3.06532e-16)
(1.05321 0.00869545 1.0134e-17)
(1.03609 0.0103717 -2.67375e-18)
(0.993704 0.000984735 1.68224e-16)
(0.950549 0.0599003 -1.96881e-17)
(1.17315 0.24964 2.58354e-17)
(1.02894 0.0149037 3.55542e-19)
(1.00848 0.0157698 -8.22886e-18)
(1.03717 -0.00119476 1.41249e-18)
(1.03654 0.0106295 -5.29985e-18)
(1.02906 0.0330814 4.90316e-18)
(1.00452 0.00290525 1.0518e-17)
(1.00001 4.16155e-07 3.30476e-18)
(0.995265 0.0693586 6.24203e-18)
(1.00028 0.000103623 -9.73795e-19)
(1.05079 0.0186691 -4.49495e-18)
(1.00262 0.00020368 -4.16112e-18)
(0.966889 0.00306347 -2.61192e-17)
(0.962829 0.0412934 -3.27484e-17)
(1.01109 0.000293418 5.0817e-19)
(1.09829 0.119459 -3.88454e-18)
(0.945486 0.0682482 -1.29175e-17)
(0.99497 0.0169404 3.75809e-17)
(1.00091 0.00390901 8.24628e-18)
(0.593045 0.0913167 -1.14906e-16)
(1.00068 0.000195304 -1.06941e-18)
(1.00132 0.00293242 -3.63232e-18)
(1.04208 0.0418546 6.05615e-19)
(0.999982 3.66835e-05 1.60951e-17)
(1.00122 0.00404528 1.66119e-18)
(1.00157 0.00269231 4.81089e-18)
(0.728956 0.217938 -5.08695e-17)
(0.666186 0.476842 -3.02161e-17)
(0.998432 0.011624 1.62659e-18)
(1.00143 -0.000212232 5.07457e-18)
(0.941848 0.0322315 1.31568e-17)
(1.0002 0.0422093 1.01412e-17)
(1.0279 0.0113597 2.77065e-19)
(1.03133 0.0158635 6.63421e-18)
(1.03252 0.0108622 -3.09277e-19)
(1.00089 -2.16728e-05 2.32249e-18)
(0.999994 3.44266e-05 -3.21069e-18)
(1.00064 0.0370194 4.84648e-18)
(0.999996 4.4114e-06 1.54615e-18)
(0.963194 0.0424524 -6.10992e-18)
(1.02721 0.0113061 -2.26543e-18)
(1.02583 0.035082 8.11623e-18)
(0.996676 0.000650437 -1.33216e-17)
(0.997053 0.066713 2.89787e-17)
(1.04572 0.0402623 -5.04354e-18)
(0.997931 9.29299e-05 -1.45507e-16)
(1.00127 0.0116826 -2.89647e-17)
(1.00577 0.00168632 1.13511e-17)
(0.921535 0.048959 6.14079e-17)
(1.04345 0.0415362 -9.42359e-19)
(0.999992 6.28599e-05 3.93539e-18)
(1.00084 0.0388685 -2.3238e-17)
(1.03337 0.00787663 -1.2425e-18)
(1.01622 0.000605433 -1.69061e-19)
(0.999581 0.0398554 3.98989e-19)
(1.00299 -0.000527437 -4.8589e-20)
(0.931244 0.0973002 -6.69865e-17)
(1.0273 0.00282946 -3.56776e-18)
(1.03721 0.00797215 7.32621e-19)
(1.02677 0.0320581 -2.34536e-18)
(1.00093 9.73654e-05 2.49812e-18)
(1.00118 0.0115328 -1.11512e-17)
(1.05344 0.0609151 -6.02379e-18)
(1.05228 0.0169551 -3.00892e-18)
(1 2.21416e-05 -2.15002e-18)
(1.01096 0.015902 1.37943e-17)
(0.987791 0.178649 -1.5813e-17)
(1.03781 0.00170548 -3.83127e-18)
(0.527376 0.455499 4.7776e-17)
(0.999995 4.27337e-05 1.08543e-18)
(1.00248 0.000312551 -6.95511e-18)
(1.00071 9.93017e-05 2.33642e-18)
(1.03141 0.0139892 3.21546e-18)
(0.99452 0.0185893 1.88841e-17)
(0.995755 0.0133659 1.88249e-17)
(1.0031 -8.55293e-05 -1.33569e-17)
(0.999352 0.0369783 1.217e-18)
(1.01735 0.0129032 -3.60109e-18)
(0.97328 0.0027497 1.51103e-16)
(1.00911 0.000653919 8.17398e-18)
(1.08307 0.0901622 -1.5126e-17)
(1.00034 2.79939e-05 7.19454e-19)
(1.08683 0.104983 -1.0205e-17)
(1.00152 0.000209878 1.69949e-18)
(0.607347 0.597116 1.62275e-16)
(1.02946 0.00353806 -2.01919e-18)
(1.05106 0.064464 1.96587e-18)
(0.99986 3.49435e-05 -7.69242e-17)
(0.996949 0.000754102 -1.54785e-17)
(1.02584 0.0276923 9.10278e-19)
(1.00381 0.00211078 3.07898e-18)
(0.99899 0.000204718 -5.94097e-17)
(0.992157 0.000384966 2.49165e-16)
(0.994053 0.0208261 -2.92671e-17)
(0.99473 0.0201751 3.11843e-17)
(0.96596 0.159879 3.30323e-17)
(1.03344 0.0323088 -2.43861e-18)
(1.03407 0.0317715 -4.93124e-18)
(1.00001 1.13053e-05 -2.06509e-20)
(1.00418 0.00225825 2.77412e-18)
(1.02739 0.0125383 1.15011e-18)
(1.05176 0.0157726 5.86285e-18)
(1.00001 8.69982e-06 -3.90467e-18)
(1.00039 0.000140047 -7.12403e-18)
(1.0331 0.00905371 -4.38537e-18)
(1.0007 0.000229014 2.51377e-19)
(0.801403 0.0511418 -1.66052e-16)
(1.17135 0.245624 -3.95436e-18)
(1.09031 -0.0129819 3.35456e-17)
(1.00001 1.05529e-05 1.76083e-18)
(1.00639 0.00932019 -2.51882e-18)
(1.04318 0.0112897 4.98604e-18)
(0.995072 0.014282 4.21867e-17)
(1.00434 0.000793562 4.04655e-18)
(0.362724 0.644282 1.05583e-16)
(1.00035 7.30883e-05 -5.31e-18)
(0.928906 0.0758947 3.50654e-17)
(0.958493 0.0467412 -2.36683e-17)
(1.00704 0.00937893 -1.59587e-17)
(1.00421 0.000660964 -3.31959e-20)
(0.998757 0.000149322 -1.87858e-16)
(1.0111 0.00117744 9.75182e-18)
(1.04108 0.00394403 -1.22083e-18)
(1.01688 0.00864878 -9.87174e-18)
(0.997334 0.0114528 6.79703e-19)
(0.999997 1.42194e-05 7.47358e-19)
(0.999997 2.17377e-05 -1.05229e-16)
(0.994499 0.0172567 -1.08807e-17)
(0.996391 0.00131997 -7.26944e-17)
(0.992972 0.0606864 -5.52264e-18)
(1.03164 0.0130196 4.88786e-20)
(0.999287 -2.06431e-05 1.18473e-20)
(1.00038 0.000232847 6.09593e-19)
(1.02727 0.0292748 8.80659e-18)
(0.75616 -0.0155544 -1.16661e-17)
(0.997697 0.000191999 2.79477e-16)
(1.04654 0.0152318 -1.34259e-18)
(1.00018 4.05471e-05 -2.54873e-18)
(0.99612 0.0115943 -2.40303e-17)
(0.952728 0.0824807 -4.60535e-17)
(1.03925 0.0017823 1.38607e-18)
(1.04191 0.011305 6.09894e-18)
(0.951391 0.0531526 1.85148e-17)
(1.00254 0.0187673 -2.93033e-17)
(1.03997 0.00559913 2.94124e-19)
(1.00001 2.83896e-05 -1.26055e-18)
(0.999931 1.77931e-05 -2.34532e-16)
(1.03659 0.00390599 -4.00082e-19)
(1.01062 0.00967945 -6.16382e-18)
(1.00319 0.0191513 -2.68931e-17)
(1.01097 0.00951835 -7.12907e-18)
(0.999997 4.17066e-05 -6.08614e-18)
(1.00043 0.000209471 -3.57491e-21)
(1.00359 0.000429407 2.7233e-18)
(0.999367 0.0302358 -5.41964e-19)
(1.04053 0.00633354 1.91236e-18)
(0.942471 0.0395401 1.50785e-17)
(0.990346 0.000892358 1.16578e-16)
(0.926841 0.0363222 -7.7939e-17)
(1.03059 0.0143913 8.38291e-19)
(1.00857 0.0175207 -1.0122e-18)
(0.93313 0.0488435 -1.13483e-16)
(0.98555 0.0217194 -1.59459e-17)
(1.05006 0.00817473 1.11718e-17)
(1.03216 0.012289 1.9019e-18)
(0.985556 0.0206604 4.79275e-18)
(0.994339 0.0589111 -5.29814e-18)
(0.999898 8.54043e-05 3.96789e-17)
(1.00985 0.0663369 2.82896e-17)
(1.02671 0.0268661 -6.19735e-18)
(1.00002 -9.54241e-06 1.65939e-18)
(0.999999 -1.94407e-06 2.15498e-17)
(1.00076 0.000104616 -7.11111e-18)
(0.999756 0.000269306 3.56332e-17)
(1.06428 0.0689879 -2.4078e-17)
(1.01068 0.0167644 1.92799e-17)
(1.0135 0.00159103 -1.05081e-17)
(0.943268 0.0443955 -3.26166e-17)
(0.992032 0.00035017 1.30444e-16)
(0.793749 0.0205883 -6.4175e-17)
(1.03803 0.00247241 -1.60064e-18)
(1.03985 0.00367366 -3.12862e-18)
(1.00403 6.21705e-06 8.95812e-18)
(1.04983 0.0403395 -3.95805e-18)
(1.00001 3.61911e-05 -3.00548e-18)
(0.998563 0.0296242 -3.44235e-18)
(1.00049 0.00364609 -4.05073e-18)
(0.937179 0.109988 3.53945e-17)
(0.931431 0.0485387 8.61833e-17)
(1.00201 0.016328 1.57493e-17)
(1.01706 0.0117211 1.14183e-18)
(0.420101 0.661452 1.45586e-16)
(1.03051 0.0128206 -1.97479e-18)
(1.04277 0.0616549 1.68892e-17)
(1.00931 0.0125936 9.82877e-18)
(0.975709 0.145391 2.55558e-17)
(1.15881 0.204047 -4.47212e-17)
(1.00104 -0.000292706 1.8315e-18)
(0.998247 0.0033982 -3.44264e-18)
(1 9.47961e-06 2.24105e-18)
(1.05739 0.0653311 -1.5303e-17)
(0.998435 0.00313696 -4.08082e-18)
(1.0161 0.00968199 -4.69418e-18)
(1.09973 0.108719 1.05425e-17)
(1.00039 7.01938e-05 -9.84184e-19)
(0.970063 0.00240782 -1.36048e-16)
(0.991226 0.0513747 1.78537e-17)
(1.00686 0.0150138 4.19328e-18)
(0.997414 0.0001864 9.12988e-17)
(1.0019 0.0169483 4.23512e-18)
(0.99927 0.000912856 -2.27103e-17)
(0.994975 0.0158201 2.6543e-18)
(0.99928 0.000780746 1.316e-18)
(0.99929 0.000987917 6.42008e-18)
(0.995813 0.0134319 -2.08347e-17)
(1.03786 0.0063217 1.26844e-18)
(1.03504 0.00854363 -1.27554e-19)
(1.0069 0.0166868 -3.00766e-18)
(0.667005 0.0425234 -2.32524e-17)
(1.03984 -0.00119194 5.91273e-19)
(0.243248 0.287261 -3.94286e-17)
(1.0296 0.0142092 6.262e-18)
(1.02396 0.000193215 -1.41059e-18)
(0.995623 0.0140464 4.35306e-18)
(1.02851 0.0155762 -4.07821e-18)
(0.992003 0.0265459 9.2742e-18)
(1.03522 -0.000565072 -4.79101e-19)
(0.563649 0.394287 -6.0493e-17)
(0.948983 0.0341315 -1.01792e-17)
(0.992603 0.0247986 7.74825e-18)
(1.00488 0.0232205 7.37566e-18)
(0.994931 0.00117502 -3.93616e-17)
(0.996329 0.000943928 1.17904e-16)
(1.02626 0.0299101 1.68096e-17)
(0.999996 3.2213e-05 -4.98477e-18)
(1.04707 -0.00370353 -1.01398e-17)
(0.999495 4.98275e-05 3.06842e-17)
(0.947616 0.0384555 1.60482e-17)
(0.998405 0.0742384 -1.03445e-17)
(1.06185 0.0616163 -2.07557e-18)
(1.03921 0.0253264 -1.55244e-18)
(1.03494 0.0146903 -5.67932e-18)
(0.99197 0.0502228 -3.21204e-19)
(1.00912 0.0129778 6.17176e-18)
(1.03909 0.0257458 2.33254e-18)
(0.972612 0.0306638 2.98464e-18)
(1.04216 0.0626027 1.57494e-17)
(1.00783 0.0221917 8.68867e-18)
(1.0447 0.0400414 -5.11546e-18)
(1.0054 0.0228842 1.35003e-17)
(1.00001 1.78099e-05 -6.1303e-19)
(0.998774 0.0263078 -4.61691e-18)
(0.650371 0.0541602 9.68674e-17)
(0.971975 0.138581 -3.29076e-17)
(1.00657 0.00541947 -3.51229e-19)
(1.00005 -9.88533e-06 6.45436e-20)
(0.999225 0.000187159 1.40271e-16)
(0.99457 0.00731723 1.06922e-17)
(0.964703 0.00269308 5.37295e-17)
(1.03407 0.00713919 3.87789e-18)
(1.02926 -0.00121213 -4.71548e-20)
(1.00081 6.03228e-06 6.91343e-18)
(1.00491 0.00689166 -6.50719e-18)
(0.99348 0.0272716 -2.07407e-18)
(1.00633 0.00524659 -1.69664e-17)
(1.00905 0.00116442 5.69534e-18)
(1.04616 0.0351604 -2.00886e-17)
(0.993683 0.00135464 -6.57868e-17)
(0.992328 0.0347167 1.0879e-17)
(1.03671 0.015327 1.82231e-18)
(1.00529 0.00622072 1.03869e-17)
(1.008 0.00661897 -2.52695e-18)
(0.943539 0.063766 -4.05433e-17)
(1 -1.16801e-05 -1.97816e-18)
(0.993376 0.00531355 5.54531e-18)
(1.29833 0.174653 -2.46695e-17)
(0.999899 2.74049e-05 -1.21055e-16)
(1.04039 0.0389204 -7.94804e-18)
(0.997649 0.0729626 -1.46932e-17)
(1.00769 0.00677705 -1.02649e-18)
(0.958321 0.0451476 -3.7169e-17)
(1.03625 0.015232 4.50268e-18)
(0.997774 0.0261364 1.56033e-17)
(1.02871 0.0338142 -5.24293e-18)
(0.999568 0.00321331 2.35157e-18)
(0.935578 0.0375641 -1.19319e-17)
(1.00502 0.000928343 8.54774e-18)
(1.03241 0.00221133 1.60672e-19)
(1.0347 0.0158139 -4.78558e-18)
(0.930215 0.0452418 -5.16974e-17)
(0.999828 0.0031775 -4.11522e-19)
(1.0412 0.00522234 2.15927e-18)
(1.05295 0.0223715 3.80706e-18)
(0.99217 0.0341103 -1.99427e-17)
(1.00581 0.013391 1.24393e-17)
(1.00475 0.00294912 5.37114e-18)
(1.01134 0.064252 3.90967e-17)
(0.79164 0.206005 -1.19517e-16)
(0.995498 0.000872289 1.80583e-17)
(0.999967 4.04281e-05 1.17164e-17)
(0.993461 0.0256649 -1.70738e-17)
(0.999999 1.396e-05 -6.87239e-19)
(1.1556 0.204309 -4.82305e-18)
(1.00654 0.022727 -4.68762e-19)
(1.03677 0.0882927 -7.92918e-18)
(1.01573 0.00754379 6.71528e-18)
(1.0271 -0.000180327 -2.92122e-18)
(0.253358 0.12642 -9.13434e-16)
(1.00653 0.0158028 4.54834e-18)
(1.08632 0.208212 2.02973e-17)
(1.03427 0.00812047 2.39446e-18)
(1.02311 -0.0126411 -6.15745e-17)
(1.02798 0.0130995 -3.02246e-18)
(0.996919 0.0121018 3.77188e-18)
(1.00613 0.014413 -7.15544e-18)
(1.01574 0.00025175 -1.30994e-19)
(1.0932 0.0965712 -1.07376e-17)
(1.084 0.0891092 -1.29817e-17)
(1.00118 0.000204661 -2.03052e-18)
(1.00157 -0.000172762 3.4342e-18)
(0.930485 0.0435869 3.29293e-17)
(1.00221 4.91768e-05 5.31337e-18)
(0.681267 0.394733 6.72304e-17)
(1.02811 0.0319437 1.53035e-17)
(0.969636 0.168077 1.79722e-18)
(1.00416 0.00298146 -8.93643e-18)
(0.0639626 0.273027 -3.16436e-16)
(1.12921 0.228947 -3.12701e-17)
(1.00608 0.022313 5.76932e-18)
(0.999995 1.55955e-05 8.38299e-19)
(0.99985 0.00266755 -2.38906e-18)
(0.953611 0.0310198 3.58344e-17)
(0.994278 0.00818504 -1.52162e-17)
(0.989656 0.000287182 2.24571e-16)
(0.996863 0.00996988 1.60899e-17)
(1.03099 0.0115319 1.90975e-18)
(0.9714 0.030469 5.59844e-18)
(1.07053 -0.0249103 -1.26299e-17)
(0.617058 0.0387315 -8.86392e-17)
(1.00077 -6.80728e-05 6.67561e-18)
(0.965192 0.0359798 -1.00521e-17)
(1.0333 0.0296887 2.16288e-18)
(0.923508 0.0557596 -1.57986e-17)
(1.00463 0.0128209 8.84856e-18)
(0.935338 0.074498 2.52284e-17)
(1.03722 0.00896928 -4.45595e-18)
(0.954091 0.0362501 -1.94952e-17)
(0.997196 0.000531714 1.08235e-17)
(1.00008 7.43565e-06 4.63017e-18)
(1.03726 0.0241781 2.3104e-19)
(1.04003 0.0252532 -5.14251e-18)
(1.02726 0.00250886 5.77605e-19)
(0.935112 0.0342463 -6.20145e-17)
(1.03448 0.0869597 8.36705e-18)
(1.02276 0.000215864 -3.53898e-18)
(0.9976 0.0242991 -2.32749e-18)
(1.00054 0.00384953 2.95878e-18)
(1.00948 0.0085057 -1.40524e-18)
(0.777645 0.0343132 1.03957e-16)
(1.00957 0.00886342 3.33926e-18)
(1.03472 0.0220816 -7.04028e-18)
(0.98263 0.041754 1.7453e-17)
(1.02639 0.00942852 2.77489e-19)
(1.01191 0.000136084 3.7316e-18)
(0.996201 0.0114935 1.0061e-17)
(1.05254 0.0219667 -3.72717e-18)
(1.01527 0.00697642 -8.68207e-18)
(1.00524 0.0133315 1.75923e-17)
(1.05813 -0.0096542 -3.99285e-18)
(0.990445 0.0295478 3.00405e-19)
(1.0202 0.00127131 -1.25509e-18)
(0.797372 0.339245 -5.18396e-17)
(1 -1.93327e-06 -4.98967e-19)
(1.01538 0.00775909 -7.37588e-18)
(0.998777 0.0208294 1.41528e-17)
(0.992289 0.00718499 6.13719e-18)
(1.00318 0.000608503 1.52556e-18)
(0.998239 0.0241945 -1.61627e-17)
(1.00001 -5.349e-06 -2.34895e-18)
(1.04315 0.106945 -3.17765e-17)
(1.00545 0.000820857 5.91041e-18)
(0.971381 0.00612145 1.76236e-16)
(1.03513 0.0343122 4.50565e-18)
(0.953942 0.0483869 -2.66438e-17)
(1.01683 0.00926329 -1.01432e-17)
(1.01622 0.00853036 -7.83352e-19)
(1.03711 0.0249746 4.92293e-19)
(1.10808 0.130431 4.7604e-17)
(0.999871 7.35382e-05 4.96983e-17)
(0.992706 0.000771872 -5.54317e-17)
(1.02208 -0.000715661 -1.07864e-18)
(1.10239 0.195479 1.25801e-17)
(1.04 0.0253906 -7.47484e-18)
(0.999812 0.00290914 2.6418e-18)
(0.253078 0.136681 -8.19022e-16)
(1.00005 2.958e-05 -5.56826e-19)
(1.00509 0.00148565 -1.12531e-17)
(0.724673 0.00632189 1.02936e-18)
(0.994602 0.00516845 -5.95295e-18)
(0.999607 0.00336291 3.9242e-18)
(0.999444 0.00366837 2.2991e-18)
(0.983416 0.0384502 1.60786e-17)
(0.959757 0.0291238 -3.07339e-17)
(0.99985 3.44085e-05 -2.88298e-17)
(0.993557 0.00629979 5.66789e-19)
(0.941957 0.0689559 -1.93409e-17)
(0.998511 0.0207708 -1.77411e-18)
(0.995664 0.0178424 9.3844e-18)
(0.996659 0.00926477 2.29715e-18)
(1.00107 0.000160415 -2.45589e-18)
(0.957706 0.0312126 2.45741e-17)
(1.065 0.0574736 1.17604e-18)
(0.994673 0.0162054 -2.13432e-17)
(0.933301 0.0305864 -6.62953e-17)
(1.03365 0.00632181 1.73282e-18)
(1.03296 -0.0012305 2.19912e-19)
(1.04017 0.103658 -6.75312e-18)
(1.03248 0.0296292 5.72072e-19)
(0.996585 0.00946295 2.1821e-17)
(1.0051 0.00149906 1.55862e-18)
(1.08624 0.0999164 1.99459e-17)
(1.03876 0.00550102 -1.90762e-18)
(0.975387 0.0257017 -1.02957e-17)
(1.00081 0.00404744 -2.22502e-18)
(0.999727 0.00019368 1.24084e-17)
(0.92517 0.0139328 -9.43629e-17)
(1.04915 0.0401473 -1.4884e-17)
(1.01422 0.00679086 4.93568e-18)
(1.01116 0.0499417 -1.90539e-17)
(1.01486 0.00773181 -6.58645e-18)
(0.997125 0.00996907 -5.2728e-18)
(1.00567 0.00475434 3.0246e-18)
(0.966549 0.0350025 2.202e-17)
(0.839505 0.025341 8.48733e-18)
(0.327216 0.420469 1.16701e-16)
(0.966409 0.0372297 -5.24705e-17)
(0.999115 0.0182971 -8.40181e-19)
(1.00527 0.00428546 -2.28436e-18)
(0.967756 0.0332879 1.94513e-18)
(0.55606 0.310506 5.2723e-18)
(0.934446 0.031531 -1.82346e-17)
(0.999932 0.00304903 9.29824e-19)