/*--------------------------------*- C++ -*----------------------------------*\
  =========                 |
  \\      /  F ield         | OpenFOAM: The Open Source CFD Toolbox
   \\    /   O peration     | Website:  https://openfoam.org
    \\  /    A nd           | Version:  7
     \\/     M anipulation  |
\*---------------------------------------------------------------------------*/
FoamFile
{
    version     2.0;
    format      ascii;
    class       volVectorField;
    location    "4.5";
    object      U;
}
// * * * * * * * * * * * * * * * * * * * * * * * * * * * * * * * * * * * * * //

dimensions      [0 1 -1 0 0 0 0];

internalField   nonuniform List<vector> 
2413
(
(0.691909 -0.0277584 0)
(0.696169 -0.0283744 0)
(0.700662 -0.0295664 0)
(0.705444 -0.0309699 0)
(0.710522 -0.0322458 0)
(0.715885 -0.0330955 0)
(0.721472 -0.0331993 0)
(0.727129 -0.032432 0)
(0.73267 -0.0309486 0)
(0.73796 -0.029097 0)
(0.742956 -0.0271895 0)
(0.747714 -0.0255319 0)
(0.752367 -0.0243781 0)
(0.757063 -0.0238472 0)
(0.761925 -0.0237054 0)
(0.766985 -0.0232339 0)
(0.771991 -0.0217515 0)
(0.776556 -0.0193963 0)
(0.780707 -0.0172111 0)
(0.78468 -0.0160237 0)
(0.788674 -0.0157743 0)
(0.792841 -0.015961 0)
(0.797169 -0.0160655 0)
(0.80152 -0.0159057 0)
(0.805855 -0.0157981 0)
(0.810308 -0.016227 0)
(0.815094 -0.017499 0)
(0.820403 -0.0195123 0)
(0.826322 -0.0214611 0)
(0.832587 -0.0221943 0)
(0.838579 -0.0213719 0)
(0.844031 -0.0197931 0)
(0.849175 -0.0183117 0)
(0.854334 -0.017024 0)
(0.859644 -0.0156913 0)
(0.864966 -0.0143983 0)
(0.869972 -0.0134853 0)
(0.874427 -0.0129875 0)
(0.878382 -0.012659 0)
(0.882123 -0.0124681 0)
(0.885993 -0.0125495 0)
(0.890257 -0.0128166 0)
(0.894966 -0.0131291 0)
(0.899925 -0.0134496 0)
(0.904797 -0.0138056 0)
(0.909313 -0.0141938 0)
(0.913455 -0.0146052 0)
(0.91753 -0.0150556 0)
(0.921978 -0.0155968 0)
(0.92713 -0.0162574 0)
(0.93294 -0.0169453 0)
(0.93891 -0.0177768 0)
(0.94453 -0.0186732 0)
(0.949492 -0.0194044 0)
(0.953803 -0.0197445 0)
(0.957829 -0.0198839 0)
(0.962189 -0.0202959 0)
(0.967105 -0.0211025 0)
(0.972539 -0.0220648 0)
(0.978476 -0.0230423 0)
(0.984439 -0.0236954 0)
(0.989765 -0.0239464 0)
(0.994312 -0.0239772 0)
(0.998598 -0.0240067 0)
(1.00313 -0.0241506 0)
(1.00834 -0.0244136 0)
(1.01436 -0.0245692 0)
(1.01968 -0.0242936 0)
(1.02345 -0.0238151 0)
(1.02689 -0.0235755 0)
(1.03044 -0.0234889 0)
(1.0343 -0.0234816 0)
(1.03879 -0.023554 0)
(1.04486 -0.0237594 0)
(1.053 -0.0241924 0)
(1.0591 -0.0245563 0)
(1.06328 -0.0245783 0)
(1.06698 -0.0243898 0)
(1.06988 -0.024076 0)
(1.07291 -0.0238454 0)
(1.07635 -0.0238008 0)
(1.08006 -0.0237033 0)
(1.08501 -0.0235516 0)
(1.09169 -0.0233642 0)
(1.0966 -0.0231434 0)
(1.09996 -0.0229336 0)
(1.10299 -0.0224615 0)
(1.10603 -0.0220594 0)
(1.10919 -0.0217928 0)
(1.11279 -0.0215474 0)
(1.11751 -0.0213686 0)
(1.12257 -0.0213188 0)
(1.12641 -0.0213669 0)
(1.1297 -0.0214067 0)
(1.13289 -0.021396 0)
(1.13623 -0.0213705 0)
(1.14032 -0.0213515 0)
(1.14541 -0.0213722 0)
(1.14932 -0.0214162 0)
(1.15257 -0.0214727 0)
(1.15577 -0.0215297 0)
(1.15894 -0.0216053 0)
(1.16222 -0.0216883 0)
(1.16571 -0.0217298 0)
(1.16997 -0.0216292 0)
(1.17527 -0.0213066 0)
(1.17953 -0.0210672 0)
(1.18355 -0.020504 0)
(1.18709 -0.0193197 0)
(1.18991 -0.0177361 0)
(1.19216 -0.0165342 0)
(1.19395 -0.0154002 0)
(1.19675 -0.0148572 0)
(1.20043 -0.0148437 0)
(1.20403 -0.0147909 0)
(1.20743 -0.0147383 0)
(1.21013 -0.0147266 0)
(1.21192 -0.0146947 0)
(1.21164 -0.0146546 0)
(1.2125 -0.0146526 0)
(1.21511 -0.0146826 0)
(1.21802 -0.0146957 0)
(1.22144 -0.0146674 0)
(1.22459 -0.0146312 0)
(1.22766 -0.0145548 0)
(1.2306 -0.0143187 0)
(1.23315 -0.0139125 0)
(1.23499 -0.0131997 0)
(1.23628 -0.0124534 0)
(1.23816 -0.0119812 0)
(1.2409 -0.0117603 0)
(1.24382 -0.0115536 0)
(0.687917 -0.0417025 0)
(0.692352 -0.042284 0)
(0.69659 -0.0435596 0)
(0.700686 -0.0453494 0)
(0.704751 -0.0475055 0)
(0.708983 -0.0495804 0)
(0.713572 -0.0508527 0)
(0.718527 -0.0508323 0)
(0.723668 -0.0495973 0)
(0.728725 -0.0477869 0)
(0.733467 -0.0459798 0)
(0.737872 -0.0443861 0)
(0.74218 -0.0433134 0)
(0.74669 -0.0433499 0)
(0.751562 -0.0447305 0)
(0.756912 -0.0465221 0)
(0.762577 -0.0470501 0)
(0.767902 -0.0455691 0)
(0.772703 -0.0431683 0)
(0.777403 -0.0414863 0)
(0.782329 -0.0412728 0)
(0.78773 -0.0422886 0)
(0.793536 -0.0436495 0)
(0.799155 -0.0447482 0)
(0.804142 -0.0459498 0)
(0.808651 -0.0479301 0)
(0.813177 -0.0513159 0)
(0.818347 -0.056333 0)
(0.824895 -0.0614487 0)
(0.832595 -0.0639543 0)
(0.83974 -0.0626988 0)
(0.844998 -0.059219 0)
(0.849283 -0.0559369 0)
(0.853688 -0.0536165 0)
(0.858963 -0.0518942 0)
(0.865547 -0.0502449 0)
(0.873183 -0.0487498 0)
(0.880726 -0.0475441 0)
(0.886981 -0.0464678 0)
(0.891756 -0.0452985 0)
(0.895772 -0.0442689 0)
(0.899867 -0.0438632 0)
(0.904678 -0.0443768 0)
(0.910648 -0.0454553 0)
(0.917684 -0.0463366 0)
(0.924967 -0.0463226 0)
(0.93145 -0.0456854 0)
(0.936768 -0.0453498 0)
(0.941226 -0.0458064 0)
(0.945516 -0.0466387 0)
(0.950387 -0.0472457 0)
(0.956434 -0.0474774 0)
(0.963773 -0.0476068 0)
(0.971541 -0.0475211 0)
(0.977982 -0.0465721 0)
(0.981937 -0.0450247 0)
(0.984685 -0.0435424 0)
(0.98764 -0.0421984 0)
(0.991643 -0.041112 0)
(0.997662 -0.0406099 0)
(1.00584 -0.0403791 0)
(1.01374 -0.0399506 0)
(1.01875 -0.0391663 0)
(1.02136 -0.0389054 0)
(1.0236 -0.0392913 0)
(1.02651 -0.040209 0)
(1.0313 -0.0417723 0)
(1.0394 -0.0437829 0)
(1.04638 -0.0450865 0)
(1.04924 -0.045133 0)
(1.05172 -0.044878 0)
(1.05402 -0.0447787 0)
(1.05659 -0.0449241 0)
(1.05958 -0.0452446 0)
(1.06378 -0.0457552 0)
(1.07126 -0.0463429 0)
(1.08141 -0.0462685 0)
(1.08711 -0.0452248 0)
(1.09063 -0.043688 0)
(1.09239 -0.0412151 0)
(1.09335 -0.0389354 0)
(1.09615 -0.0376077 0)
(1.09979 -0.0368726 0)
(1.10429 -0.0362242 0)
(1.11075 -0.0357056 0)
(1.11718 -0.0351073 0)
(1.12116 -0.0345506 0)
(1.12437 -0.0337139 0)
(1.12654 -0.032784 0)
(1.1289 -0.0323097 0)
(1.13202 -0.0323774 0)
(1.13527 -0.0328941 0)
(1.13907 -0.0336473 0)
(1.14378 -0.0344273 0)
(1.14888 -0.0350594 0)
(1.15316 -0.0353498 0)
(1.15702 -0.0354624 0)
(1.16123 -0.035679 0)
(1.16519 -0.0359601 0)
(1.16827 -0.0361556 0)
(1.17122 -0.0363102 0)
(1.17409 -0.0364939 0)
(1.17667 -0.0366642 0)
(1.1793 -0.0367267 0)
(1.18247 -0.0367202 0)
(1.18616 -0.036567 0)
(1.19032 -0.0357581 0)
(1.19432 -0.0340015 0)
(1.19803 -0.030589 0)
(1.20096 -0.0268548 0)
(1.20323 -0.0240984 0)
(1.20434 -0.022388 0)
(1.20565 -0.021731 0)
(1.20922 -0.0217682 0)
(1.21275 -0.0218535 0)
(1.21647 -0.0219665 0)
(1.21925 -0.0220426 0)
(1.22129 -0.0220991 0)
(1.22107 -0.0221261 0)
(1.22086 -0.0221822 0)
(1.22313 -0.0222526 0)
(1.22589 -0.0223174 0)
(1.2294 -0.0222838 0)
(1.23313 -0.0219824 0)
(1.2362 -0.021765 0)
(1.23913 -0.0212946 0)
(1.24171 -0.0206818 0)
(1.24345 -0.0199105 0)
(1.24384 -0.0190195 0)
(1.24417 -0.0182453 0)
(1.24618 -0.0176388 0)
(1.24912 -0.0171282 0)
(0.728171 -0.0709853 0)
(0.733071 -0.0713077 0)
(0.737232 -0.0718892 0)
(0.740852 -0.072401 0)
(0.744115 -0.0729843 0)
(0.747106 -0.0739891 0)
(0.750115 -0.0753528 0)
(0.753645 -0.0765177 0)
(0.758014 -0.076995 0)
(0.762998 -0.0768633 0)
(0.767683 -0.0765276 0)
(0.771298 -0.0760742 0)
(0.774072 -0.0754399 0)
(0.776846 -0.0750427 0)
(0.780475 -0.0755575 0)
(0.785548 -0.0772665 0)
(0.791497 -0.0793165 0)
(0.796415 -0.0801691 0)
(0.799496 -0.0796492 0)
(0.801856 -0.0786912 0)
(0.804735 -0.0781026 0)
(0.809472 -0.0783419 0)
(0.817323 -0.0792014 0)
(0.826495 -0.0800621 0)
(0.832172 -0.0811298 0)
(0.833368 -0.0827068 0)
(0.833511 -0.0851407 0)
(0.83445 -0.0897907 0)
(0.837952 -0.0957971 0)
(0.845453 -0.100161 0)
(0.856094 -0.101019 0)
(0.864473 -0.0983086 0)
(0.867434 -0.094631 0)
(0.868466 -0.091951 0)
(0.86981 -0.0904671 0)
(0.872756 -0.0896666 0)
(0.878426 -0.0893794 0)
(0.886922 -0.0896047 0)
(0.896651 -0.0899322 0)
(0.905115 -0.0894919 0)
(0.91089 -0.0882151 0)
(0.914592 -0.0873393 0)
(0.917328 -0.0878693 0)
(0.920355 -0.0895344 0)
(0.925085 -0.0914775 0)
(0.932245 -0.092722 0)
(0.941084 -0.0930891 0)
(0.949466 -0.0935297 0)
(0.955572 -0.0947744 0)
(0.959598 -0.0960601 0)
(0.962846 -0.0961879 0)
(0.966476 -0.0948645 0)
(0.971981 -0.0926288 0)
(0.980324 -0.0897287 0)
(0.988901 -0.0860224 0)
(0.993598 -0.0826154 0)
(0.995632 -0.080403 0)
(0.997373 -0.0793082 0)
(0.999947 -0.0790168 0)
(1.00472 -0.0789766 0)
(1.01319 -0.0790567 0)
(1.02417 -0.0791329 0)
(1.03271 -0.0786515 0)
(1.03608 -0.0774106 0)
(1.03723 -0.0759364 0)
(1.03859 -0.0739195 0)
(1.04099 -0.0711802 0)
(1.04626 -0.0682246 0)
(1.0569 -0.0659248 0)
(1.06815 -0.0643825 0)
(1.07165 -0.0632903 0)
(1.07146 -0.0620066 0)
(1.07115 -0.0605359 0)
(1.07193 -0.0601044 0)
(1.07311 -0.0599976 0)
(1.07624 -0.0604292 0)
(1.08358 -0.0621525 0)
(1.09532 -0.0653236 0)
(1.10309 -0.0679202 0)
(1.10531 -0.0684151 0)
(1.10667 -0.0681817 0)
(1.10573 -0.067535 0)
(1.10565 -0.0668717 0)
(1.108 -0.0667496 0)
(1.11108 -0.066791 0)
(1.1159 -0.066902 0)
(1.12493 -0.0667455 0)
(1.13114 -0.0656705 0)
(1.13474 -0.0644518 0)
(1.13665 -0.0624446 0)
(1.13613 -0.0601795 0)
(1.13741 -0.0586912 0)
(1.14057 -0.0583654 0)
(1.1443 -0.0579927 0)
(1.14959 -0.0579368 0)
(1.15723 -0.0582004 0)
(1.16279 -0.0582296 0)
(1.16609 -0.0582321 0)
(1.16913 -0.0584711 0)
(1.17206 -0.0588466 0)
(1.17463 -0.0591332 0)
(1.17712 -0.0592926 0)
(1.17954 -0.059381 0)
(1.18154 -0.0593259 0)
(1.18319 -0.0588886 0)
(1.18549 -0.0578667 0)
(1.18872 -0.0558936 0)
(1.19296 -0.0519955 0)
(1.19729 -0.0472391 0)
(1.20106 -0.0438749 0)
(1.20438 -0.0417171 0)
(1.20608 -0.0404749 0)
(1.20634 -0.0400232 0)
(1.20963 -0.0400927 0)
(1.21321 -0.0401454 0)
(1.21707 -0.0401923 0)
(1.21979 -0.0402737 0)
(1.22166 -0.0404116 0)
(1.22137 -0.0406289 0)
(1.22106 -0.0407654 0)
(1.22313 -0.0408037 0)
(1.22579 -0.0407396 0)
(1.22949 -0.0403624 0)
(1.23372 -0.0395766 0)
(1.23683 -0.0388182 0)
(1.23971 -0.0377683 0)
(1.24213 -0.0365772 0)
(1.24339 -0.0353607 0)
(1.24299 -0.0339957 0)
(1.24319 -0.0327438 0)
(1.24559 -0.0316786 0)
(1.24893 -0.0305697 0)
(0.787549 -0.09424 0)
(0.789198 -0.0943995 0)
(0.792381 -0.0949194 0)
(0.797991 -0.0953526 0)
(0.80422 -0.0953767 0)
(0.80811 -0.0953574 0)
(0.809848 -0.0957273 0)
(0.811278 -0.0962761 0)
(0.813475 -0.0967936 0)
(0.8172 -0.0971188 0)
(0.822168 -0.0973675 0)
(0.826689 -0.0976438 0)
(0.829726 -0.097568 0)
(0.83191 -0.0970678 0)
(0.834456 -0.0964039 0)
(0.838732 -0.0959891 0)
(0.845111 -0.0963816 0)
(0.850777 -0.0975877 0)
(0.853182 -0.0985887 0)
(0.853819 -0.0987807 0)
(0.854276 -0.0984319 0)
(0.855826 -0.0978309 0)
(0.860777 -0.0974706 0)
(0.870179 -0.097609 0)
(0.879693 -0.0986009 0)
(0.883711 -0.100127 0)
(0.883862 -0.101374 0)
(0.883212 -0.102962 0)
(0.882974 -0.10608 0)
(0.884365 -0.11014 0)
(0.88842 -0.113405 0)
(0.895459 -0.115083 0)
(0.903793 -0.114882 0)
(0.90956 -0.113592 0)
(0.910996 -0.112543 0)
(0.910238 -0.112049 0)
(0.909617 -0.112102 0)
(0.910384 -0.112837 0)
(0.912917 -0.114005 0)
(0.917375 -0.114911 0)
(0.924468 -0.115129 0)
(0.934116 -0.11524 0)
(0.942206 -0.116234 0)
(0.944442 -0.117584 0)
(0.94355 -0.118503 0)
(0.942909 -0.119392 0)
(0.944233 -0.120742 0)
(0.948453 -0.123026 0)
(0.955234 -0.126587 0)
(0.963014 -0.130561 0)
(0.969674 -0.132633 0)
(0.973571 -0.13146 0)
(0.975667 -0.128194 0)
(0.978673 -0.12436 0)
(0.984611 -0.121004 0)
(0.992981 -0.119007 0)
(0.999736 -0.118357 0)
(1.00234 -0.118223 0)
(1.0028 -0.118103 0)
(1.00368 -0.118263 0)
(1.00742 -0.119189 0)
(1.01695 -0.120866 0)
(1.03074 -0.121548 0)
(1.03948 -0.119812 0)
(1.04054 -0.117071 0)
(1.04006 -0.114338 0)
(1.04045 -0.111734 0)
(1.04307 -0.109457 0)
(1.05158 -0.107298 0)
(1.06673 -0.104946 0)
(1.07722 -0.102368 0)
(1.07848 -0.100588 0)
(1.0779 -0.0988361 0)
(1.07793 -0.0969867 0)
(1.07866 -0.095353 0)
(1.08045 -0.0934874 0)
(1.08451 -0.0910432 0)
(1.09195 -0.0883272 0)
(1.103 -0.0862264 0)
(1.1145 -0.0849017 0)
(1.1195 -0.084198 0)
(1.12 -0.0833679 0)
(1.11889 -0.0818093 0)
(1.11787 -0.0806871 0)
(1.11892 -0.0803276 0)
(1.12077 -0.0802092 0)
(1.12587 -0.0806936 0)
(1.13581 -0.0822586 0)
(1.14148 -0.0831268 0)
(1.14378 -0.0829028 0)
(1.14481 -0.0818855 0)
(1.14255 -0.0803237 0)
(1.14099 -0.0791007 0)
(1.14296 -0.0788532 0)
(1.14589 -0.0787255 0)
(1.15087 -0.0786534 0)
(1.15936 -0.0785238 0)
(1.16448 -0.0777913 0)
(1.16726 -0.0768899 0)
(1.16992 -0.0762472 0)
(1.17245 -0.0759204 0)
(1.17462 -0.0757952 0)
(1.17654 -0.075774 0)
(1.1784 -0.0756387 0)
(1.18006 -0.0751368 0)
(1.18138 -0.0740323 0)
(1.18328 -0.0722259 0)
(1.1864 -0.0693207 0)
(1.19104 -0.0643313 0)
(1.19578 -0.0586154 0)
(1.19947 -0.0547043 0)
(1.20164 -0.0515254 0)
(1.20346 -0.0483677 0)
(1.20721 -0.0471503 0)
(1.21082 -0.0462036 0)
(1.21351 -0.0458264 0)
(1.21564 -0.0459088 0)
(1.21665 -0.0461279 0)
(1.21635 -0.0462265 0)
(1.21754 -0.0460665 0)
(1.21965 -0.04587 0)
(1.22221 -0.0454594 0)
(1.22563 -0.0448611 0)
(1.22833 -0.0441643 0)
(1.23074 -0.0432533 0)
(1.23293 -0.0423186 0)
(1.23471 -0.0418787 0)
(1.23557 -0.0418621 0)
(1.23607 -0.041882 0)
(1.23768 -0.041774 0)
(1.24035 -0.04138 0)
(1.24339 -0.0406827 0)
(0.850441 -0.110843 0)
(0.85259 -0.112397 0)
(0.856202 -0.114296 0)
(0.861832 -0.116087 0)
(0.866797 -0.117203 0)
(0.869837 -0.118006 0)
(0.871926 -0.118759 0)
(0.874009 -0.11938 0)
(0.876805 -0.119849 0)
(0.880576 -0.12022 0)
(0.885097 -0.120753 0)
(0.889659 -0.121412 0)
(0.893625 -0.121983 0)
(0.896906 -0.122154 0)
(0.900048 -0.122041 0)
(0.903583 -0.122181 0)
(0.907838 -0.122838 0)
(0.912777 -0.124104 0)
(0.917566 -0.125565 0)
(0.920739 -0.126487 0)
(0.922034 -0.126751 0)
(0.92267 -0.126662 0)
(0.923466 -0.12649 0)
(0.925928 -0.126506 0)
(0.932486 -0.126765 0)
(0.941986 -0.127219 0)
(0.946643 -0.127669 0)
(0.946171 -0.127781 0)
(0.945117 -0.127704 0)
(0.944397 -0.127504 0)
(0.944371 -0.127292 0)
(0.946882 -0.127151 0)
(0.95544 -0.126931 0)
(0.967015 -0.126403 0)
(0.970173 -0.125207 0)
(0.968362 -0.123722 0)
(0.96671 -0.122699 0)
(0.965449 -0.122223 0)
(0.965026 -0.122025 0)
(0.966151 -0.122127 0)
(0.970231 -0.122849 0)
(0.97969 -0.124765 0)
(0.990489 -0.127508 0)
(0.993029 -0.129318 0)
(0.990323 -0.129968 0)
(0.987397 -0.130542 0)
(0.984966 -0.131887 0)
(0.983637 -0.134579 0)
(0.984634 -0.138793 0)
(0.990425 -0.143672 0)
(1.00103 -0.146833 0)
(1.00776 -0.145737 0)
(1.00714 -0.142223 0)
(1.00502 -0.139101 0)
(1.00443 -0.137514 0)
(1.00759 -0.138306 0)
(1.01552 -0.140849 0)
(1.02342 -0.143661 0)
(1.02578 -0.146004 0)
(1.02443 -0.147741 0)
(1.02297 -0.149228 0)
(1.02422 -0.151244 0)
(1.03044 -0.154001 0)
(1.04026 -0.155851 0)
(1.04719 -0.15519 0)
(1.04848 -0.152263 0)
(1.04799 -0.148427 0)
(1.04899 -0.144784 0)
(1.05367 -0.142558 0)
(1.06359 -0.141603 0)
(1.07616 -0.139684 0)
(1.08365 -0.136179 0)
(1.08444 -0.132093 0)
(1.08346 -0.12797 0)
(1.08319 -0.124105 0)
(1.08438 -0.121395 0)
(1.08799 -0.120184 0)
(1.09609 -0.119856 0)
(1.10953 -0.119481 0)
(1.12228 -0.11783 0)
(1.12691 -0.115994 0)
(1.12699 -0.114719 0)
(1.12686 -0.113212 0)
(1.12735 -0.111673 0)
(1.12837 -0.11022 0)
(1.13054 -0.108415 0)
(1.13601 -0.106002 0)
(1.14578 -0.103743 0)
(1.15281 -0.10227 0)
(1.15429 -0.10142 0)
(1.15424 -0.0996292 0)
(1.15136 -0.0965075 0)
(1.15003 -0.0936537 0)
(1.15183 -0.0923787 0)
(1.15395 -0.0919361 0)
(1.15768 -0.0922383 0)
(1.16575 -0.0933697 0)
(1.17247 -0.094392 0)
(1.17497 -0.0943328 0)
(1.177 -0.0935929 0)
(1.17812 -0.0927613 0)
(1.17918 -0.0923347 0)
(1.18047 -0.0921954 0)
(1.18188 -0.0921694 0)
(1.18325 -0.0920212 0)
(1.18457 -0.0914802 0)
(1.18619 -0.0902638 0)
(1.18826 -0.0878841 0)
(1.19065 -0.0843359 0)
(1.19389 -0.0804366 0)
(1.1984 -0.0764638 0)
(1.20321 -0.0722257 0)
(1.20633 -0.0692187 0)
(1.20828 -0.0674841 0)
(1.20909 -0.066114 0)
(1.2098 -0.0650163 0)
(1.21158 -0.0644313 0)
(1.21371 -0.0638342 0)
(1.21639 -0.0629308 0)
(1.21879 -0.0620884 0)
(1.2206 -0.0615559 0)
(1.22208 -0.0610559 0)
(1.22302 -0.0605452 0)
(1.22339 -0.0598342 0)
(1.22414 -0.0588068 0)
(1.22599 -0.0578027 0)
(1.22836 -0.0562483 0)
(1.23056 -0.0549521 0)
(1.23269 -0.0544428 0)
(1.23485 -0.0541758 0)
(1.23689 -0.0536881 0)
(1.23842 -0.0521993 0)
(0.926672 -0.127718 0)
(0.927114 -0.130585 0)
(0.9286 -0.133469 0)
(0.93195 -0.136705 0)
(0.934728 -0.139967 0)
(0.935677 -0.142191 0)
(0.936511 -0.143727 0)
(0.937727 -0.144759 0)
(0.939316 -0.145471 0)
(0.941402 -0.145924 0)
(0.944074 -0.146117 0)
(0.94746 -0.145968 0)
(0.951464 -0.145365 0)
(0.954844 -0.14422 0)
(0.957109 -0.142898 0)
(0.959047 -0.141749 0)
(0.961194 -0.140886 0)
(0.96391 -0.140277 0)
(0.968166 -0.139944 0)
(0.973537 -0.140082 0)
(0.976031 -0.140545 0)
(0.977183 -0.141162 0)
(0.978382 -0.142414 0)
(0.980112 -0.143632 0)
(0.98292 -0.144367 0)
(0.988267 -0.144801 0)
(0.994732 -0.145515 0)
(0.998806 -0.146511 0)
(1.0009 -0.147184 0)
(1.00189 -0.147298 0)
(1.00275 -0.147172 0)
(1.00394 -0.146734 0)
(1.00594 -0.146034 0)
(1.01058 -0.145353 0)
(1.01888 -0.144782 0)
(1.02573 -0.143996 0)
(1.0274 -0.14295 0)
(1.02715 -0.141745 0)
(1.02672 -0.140367 0)
(1.02627 -0.139101 0)
(1.02621 -0.13805 0)
(1.02759 -0.137602 0)
(1.03348 -0.138111 0)
(1.04387 -0.139234 0)
(1.04855 -0.139492 0)
(1.04687 -0.13899 0)
(1.04469 -0.137719 0)
(1.04276 -0.13686 0)
(1.04119 -0.136495 0)
(1.04143 -0.137472 0)
(1.04697 -0.140952 0)
(1.05865 -0.144632 0)
(1.06515 -0.145088 0)
(1.06331 -0.143511 0)
(1.0599 -0.14262 0)
(1.05654 -0.143094 0)
(1.05482 -0.145051 0)
(1.05646 -0.147748 0)
(1.06241 -0.150534 0)
(1.07001 -0.15292 0)
(1.07308 -0.154707 0)
(1.07087 -0.156251 0)
(1.06707 -0.158035 0)
(1.06422 -0.160539 0)
(1.06381 -0.16325 0)
(1.06639 -0.165107 0)
(1.07098 -0.165923 0)
(1.07539 -0.165814 0)
(1.07833 -0.165014 0)
(1.08038 -0.164277 0)
(1.08232 -0.164185 0)
(1.08443 -0.164302 0)
(1.08755 -0.164228 0)
(1.09284 -0.163847 0)
(1.09905 -0.162638 0)
(1.1023 -0.160529 0)
(1.10219 -0.158063 0)
(1.10179 -0.155853 0)
(1.10375 -0.154221 0)
(1.10992 -0.153054 0)
(1.12012 -0.151233 0)
(1.13145 -0.148172 0)
(1.13891 -0.143548 0)
(1.14099 -0.138277 0)
(1.14118 -0.133358 0)
(1.14193 -0.129158 0)
(1.14427 -0.126146 0)
(1.14907 -0.1243 0)
(1.15578 -0.123034 0)
(1.16115 -0.121476 0)
(1.1634 -0.119896 0)
(1.16408 -0.118511 0)
(1.1643 -0.116955 0)
(1.1636 -0.114961 0)
(1.16288 -0.1117 0)
(1.1639 -0.108364 0)
(1.16664 -0.106018 0)
(1.17294 -0.104517 0)
(1.18181 -0.104338 0)
(1.18553 -0.104471 0)
(1.18746 -0.104223 0)
(1.18853 -0.103013 0)
(1.18797 -0.10115 0)
(1.18856 -0.099802 0)
(1.19005 -0.099006 0)
(1.19201 -0.0978797 0)
(1.19414 -0.0963178 0)
(1.19579 -0.0944702 0)
(1.19724 -0.0919451 0)
(1.199 -0.0887328 0)
(1.20224 -0.0851629 0)
(1.20816 -0.0800292 0)
(1.21104 -0.0759295 0)
(1.21245 -0.0734736 0)
(1.21395 -0.0721218 0)
(1.21564 -0.0713007 0)
(1.21749 -0.0704127 0)
(1.21959 -0.069346 0)
(1.22187 -0.0679386 0)
(1.22393 -0.0662377 0)
(1.2254 -0.0646544 0)
(1.22608 -0.0633105 0)
(1.22601 -0.0624402 0)
(1.22682 -0.0622028 0)
(1.2282 -0.0621171 0)
(1.22973 -0.0618456 0)
(1.23195 -0.0615391 0)
(1.23364 -0.0614222 0)
(1.23511 -0.0614185 0)
(1.23647 -0.061298 0)
(1.23753 -0.060764 0)
(1.23793 -0.0590436 0)
(1.01679 -0.116436 0)
(1.01559 -0.119108 0)
(1.01539 -0.12161 0)
(1.01651 -0.124346 0)
(1.01862 -0.127749 0)
(1.01932 -0.130824 0)
(1.01927 -0.133528 0)
(1.01944 -0.136128 0)
(1.01986 -0.138636 0)
(1.02024 -0.141286 0)
(1.02073 -0.144256 0)
(1.02189 -0.147526 0)
(1.02456 -0.151112 0)
(1.02819 -0.154983 0)
(1.02979 -0.15782 0)
(1.02999 -0.159769 0)
(1.03001 -0.161517 0)
(1.03078 -0.162713 0)
(1.03218 -0.163661 0)
(1.03463 -0.164772 0)
(1.03757 -0.166037 0)
(1.03891 -0.167095 0)
(1.0398 -0.168025 0)
(1.04076 -0.168629 0)
(1.04186 -0.168919 0)
(1.04332 -0.168986 0)
(1.04545 -0.16869 0)
(1.04867 -0.167957 0)
(1.05287 -0.166647 0)
(1.05546 -0.164896 0)
(1.05659 -0.163059 0)
(1.05748 -0.160901 0)
(1.05884 -0.159134 0)
(1.06093 -0.15789 0)
(1.06405 -0.157099 0)
(1.06938 -0.156862 0)
(1.07448 -0.15722 0)
(1.07708 -0.157503 0)
(1.07826 -0.157368 0)
(1.07913 -0.157043 0)
(1.08012 -0.156469 0)
(1.08144 -0.15577 0)
(1.08347 -0.155148 0)
(1.08709 -0.154887 0)
(1.09319 -0.154946 0)
(1.09798 -0.154589 0)
(1.09839 -0.153884 0)
(1.09774 -0.152111 0)
(1.09758 -0.149931 0)
(1.09777 -0.14901 0)
(1.09865 -0.149146 0)
(1.10347 -0.149821 0)
(1.11328 -0.150436 0)
(1.11859 -0.149633 0)
(1.11688 -0.147958 0)
(1.11491 -0.144639 0)
(1.11315 -0.143962 0)
(1.11143 -0.145949 0)
(1.1115 -0.149218 0)
(1.1151 -0.151186 0)
(1.12225 -0.150564 0)
(1.12817 -0.149755 0)
(1.12889 -0.151245 0)
(1.12624 -0.154269 0)
(1.12304 -0.157515 0)
(1.12046 -0.159532 0)
(1.11894 -0.160562 0)
(1.11885 -0.161967 0)
(1.12022 -0.164545 0)
(1.12231 -0.167668 0)
(1.12387 -0.169826 0)
(1.1244 -0.170207 0)
(1.12445 -0.169353 0)
(1.12477 -0.168315 0)
(1.12561 -0.168175 0)
(1.12698 -0.16934 0)
(1.1287 -0.171493 0)
(1.13 -0.173773 0)
(1.13023 -0.17491 0)
(1.13003 -0.174518 0)
(1.13124 -0.173153 0)
(1.13567 -0.171227 0)
(1.14321 -0.16884 0)
(1.15067 -0.165576 0)
(1.15489 -0.161103 0)
(1.15685 -0.15647 0)
(1.15954 -0.15198 0)
(1.16482 -0.147297 0)
(1.17102 -0.14305 0)
(1.17523 -0.139527 0)
(1.17806 -0.135924 0)
(1.18095 -0.131782 0)
(1.18204 -0.128081 0)
(1.18196 -0.125597 0)
(1.18269 -0.123717 0)
(1.18335 -0.122054 0)
(1.18319 -0.119897 0)
(1.18361 -0.117047 0)
(1.18564 -0.114659 0)
(1.19072 -0.112202 0)
(1.19758 -0.110454 0)
(1.20009 -0.109734 0)
(1.20148 -0.109116 0)
(1.20136 -0.107324 0)
(1.20078 -0.105126 0)
(1.20186 -0.103817 0)
(1.20366 -0.102553 0)
(1.20624 -0.100817 0)
(1.20779 -0.0990018 0)
(1.20895 -0.0968196 0)
(1.21024 -0.0942106 0)
(1.21242 -0.09117 0)
(1.21556 -0.0867012 0)
(1.21855 -0.0822496 0)
(1.22152 -0.0786947 0)
(1.22507 -0.0752185 0)
(1.22693 -0.072945 0)
(1.22807 -0.0716531 0)
(1.22895 -0.0704755 0)
(1.22929 -0.0693187 0)
(1.22939 -0.0681648 0)
(1.23016 -0.0669673 0)
(1.23153 -0.0655158 0)
(1.23332 -0.0636441 0)
(1.2364 -0.0610978 0)
(1.23845 -0.0588225 0)
(1.23951 -0.0576933 0)
(1.24049 -0.0568567 0)
(1.24112 -0.0559917 0)
(1.2416 -0.0548851 0)
(1.24236 -0.053623 0)
(1.24333 -0.0519614 0)
(1.10871 -0.127112 0)
(1.10797 -0.129079 0)
(1.10593 -0.131311 0)
(1.10485 -0.133483 0)
(1.10491 -0.135837 0)
(1.106 -0.139157 0)
(1.1073 -0.142649 0)
(1.10839 -0.145731 0)
(1.10898 -0.148224 0)
(1.10886 -0.149861 0)
(1.10821 -0.150956 0)
(1.10744 -0.151513 0)
(1.10746 -0.151762 0)
(1.10797 -0.152192 0)
(1.10924 -0.153049 0)
(1.11093 -0.153679 0)
(1.11194 -0.153867 0)
(1.11267 -0.153845 0)
(1.11295 -0.153747 0)
(1.11202 -0.154084 0)
(1.11124 -0.155172 0)
(1.11167 -0.156253 0)
(1.11289 -0.157756 0)
(1.11428 -0.159354 0)
(1.11472 -0.160721 0)
(1.11453 -0.162727 0)
(1.11402 -0.165861 0)
(1.11447 -0.169405 0)
(1.11644 -0.172623 0)
(1.11977 -0.175196 0)
(1.12188 -0.176399 0)
(1.12305 -0.17679 0)
(1.12389 -0.176826 0)
(1.12365 -0.175931 0)
(1.12367 -0.174254 0)
(1.1247 -0.172505 0)
(1.12661 -0.170739 0)
(1.13016 -0.169462 0)
(1.13384 -0.168993 0)
(1.13545 -0.168754 0)
(1.13626 -0.168228 0)
(1.13663 -0.167066 0)
(1.13681 -0.165171 0)
(1.13759 -0.163953 0)
(1.13879 -0.163488 0)
(1.14026 -0.163205 0)
(1.14204 -0.162313 0)
(1.14398 -0.161014 0)
(1.14572 -0.160211 0)
(1.14712 -0.160038 0)
(1.14843 -0.160375 0)
(1.15017 -0.161183 0)
(1.15297 -0.162204 0)
(1.15663 -0.162629 0)
(1.15998 -0.161047 0)
(1.16094 -0.157483 0)
(1.16151 -0.15406 0)
(1.16225 -0.15318 0)
(1.16227 -0.154644 0)
(1.16231 -0.156692 0)
(1.16304 -0.156159 0)
(1.16501 -0.152835 0)
(1.16939 -0.149816 0)
(1.17458 -0.150567 0)
(1.17666 -0.154348 0)
(1.17656 -0.156916 0)
(1.17537 -0.156395 0)
(1.1738 -0.153961 0)
(1.17288 -0.151817 0)
(1.17242 -0.151972 0)
(1.17213 -0.155076 0)
(1.17248 -0.159508 0)
(1.17365 -0.163598 0)
(1.17539 -0.165674 0)
(1.17653 -0.165572 0)
(1.17619 -0.16491 0)
(1.17452 -0.165208 0)
(1.17226 -0.167514 0)
(1.1704 -0.171246 0)
(1.1692 -0.174955 0)
(1.16808 -0.177571 0)
(1.16729 -0.178907 0)
(1.16869 -0.179629 0)
(1.17424 -0.179842 0)
(1.18214 -0.178472 0)
(1.18633 -0.174616 0)
(1.18508 -0.169045 0)
(1.18217 -0.163365 0)
(1.18173 -0.158306 0)
(1.1886 -0.153957 0)
(1.20399 -0.149565 0)
(1.21144 -0.144385 0)
(1.20683 -0.140093 0)
(1.20212 -0.136674 0)
(1.20055 -0.133338 0)
(1.20714 -0.12905 0)
(1.21382 -0.12483 0)
(1.2138 -0.122759 0)
(1.21207 -0.120427 0)
(1.20934 -0.116716 0)
(1.20949 -0.114234 0)
(1.21159 -0.11212 0)
(1.21774 -0.10964 0)
(1.22297 -0.107658 0)
(1.22422 -0.106754 0)
(1.2235 -0.104764 0)
(1.22109 -0.10249 0)
(1.2211 -0.101318 0)
(1.22211 -0.100762 0)
(1.22468 -0.0995354 0)
(1.22678 -0.0978397 0)
(1.22761 -0.0962545 0)
(1.22798 -0.0941806 0)
(1.22828 -0.0915265 0)
(1.22939 -0.0886386 0)
(1.23231 -0.0852061 0)
(1.23663 -0.0814995 0)
(1.23851 -0.079496 0)
(1.23906 -0.0783677 0)
(1.23789 -0.0767633 0)
(1.23502 -0.0746243 0)
(1.23449 -0.0728222 0)
(1.2356 -0.0717477 0)
(1.23727 -0.0705413 0)
(1.24065 -0.0689886 0)
(1.24531 -0.0670215 0)
(1.2473 -0.0654857 0)
(1.24828 -0.063672 0)
(1.24863 -0.0613698 0)
(1.24882 -0.0593604 0)
(1.24922 -0.0577083 0)
(1.24981 -0.0564046 0)
(1.18653 -0.115885 0)
(1.18885 -0.119086 0)
(1.18903 -0.121307 0)
(1.18806 -0.123171 0)
(1.18547 -0.125098 0)
(1.1835 -0.127247 0)
(1.18301 -0.129357 0)
(1.18391 -0.131995 0)
(1.18665 -0.135364 0)
(1.18858 -0.138384 0)
(1.18873 -0.140409 0)
(1.18788 -0.142183 0)
(1.18565 -0.144017 0)
(1.18321 -0.145897 0)
(1.18261 -0.147552 0)
(1.18345 -0.149432 0)
(1.18621 -0.152267 0)
(1.18908 -0.15532 0)
(1.18998 -0.157443 0)
(1.18965 -0.159502 0)
(1.18771 -0.161601 0)
(1.18684 -0.163255 0)
(1.18738 -0.164538 0)
(1.18847 -0.166517 0)
(1.18875 -0.168056 0)
(1.18827 -0.169254 0)
(1.18666 -0.170254 0)
(1.18534 -0.170582 0)
(1.18583 -0.170563 0)
(1.18683 -0.170512 0)
(1.18811 -0.170369 0)
(1.18925 -0.170173 0)
(1.19032 -0.169979 0)
(1.19108 -0.16981 0)
(1.19059 -0.169622 0)
(1.18844 -0.169566 0)
(1.18796 -0.169639 0)
(1.18857 -0.169674 0)
(1.18935 -0.169616 0)
(1.1909 -0.169276 0)
(1.19386 -0.168532 0)
(1.19612 -0.16761 0)
(1.19656 -0.166895 0)
(1.19656 -0.166183 0)
(1.19584 -0.165333 0)
(1.19469 -0.164463 0)
(1.19451 -0.164007 0)
(1.19465 -0.163828 0)
(1.19543 -0.163685 0)
(1.1977 -0.163603 0)
(1.20035 -0.163439 0)
(1.20112 -0.163259 0)
(1.2007 -0.163166 0)
(1.20029 -0.163122 0)
(1.20012 -0.163415 0)
(1.20029 -0.163226 0)
(1.20125 -0.161468 0)
(1.20397 -0.159496 0)
(1.20692 -0.159369 0)
(1.20734 -0.16072 0)
(1.20701 -0.161257 0)
(1.20645 -0.159982 0)
(1.20631 -0.156941 0)
(1.20688 -0.155134 0)
(1.20836 -0.156037 0)
(1.21218 -0.15785 0)
(1.21713 -0.157812 0)
(1.21811 -0.155332 0)
(1.2163 -0.152057 0)
(1.21469 -0.149128 0)
(1.21375 -0.147548 0)
(1.21339 -0.147712 0)
(1.21379 -0.14915 0)
(1.21514 -0.151197 0)
(1.21791 -0.153127 0)
(1.22105 -0.154255 0)
(1.22234 -0.153973 0)
(1.22099 -0.15351 0)
(1.21831 -0.154313 0)
(1.21574 -0.15752 0)
(1.21386 -0.163365 0)
(1.2118 -0.170381 0)
(1.20929 -0.176974 0)
(1.20838 -0.181953 0)
(1.21233 -0.1849 0)
(1.2216 -0.185437 0)
(1.22773 -0.182827 0)
(1.2243 -0.176886 0)
(1.21664 -0.169591 0)
(1.21054 -0.162998 0)
(1.2111 -0.157579 0)
(1.22544 -0.152855 0)
(1.24301 -0.147086 0)
(1.24175 -0.140708 0)
(1.23363 -0.135665 0)
(1.22652 -0.132394 0)
(1.2244 -0.130244 0)
(1.23608 -0.127359 0)
(1.24714 -0.123357 0)
(1.2457 -0.120485 0)
(1.24106 -0.116553 0)
(1.23484 -0.111857 0)
(1.23432 -0.109852 0)
(1.23652 -0.10815 0)
(1.24365 -0.105881 0)
(1.24837 -0.103986 0)
(1.2489 -0.10275 0)
(1.24649 -0.100234 0)
(1.24263 -0.0976243 0)
(1.24252 -0.0965543 0)
(1.24367 -0.0959081 0)
(1.24632 -0.0947349 0)
(1.2475 -0.0938137 0)
(1.24777 -0.0929014 0)
(1.2468 -0.090996 0)
(1.24608 -0.0885803 0)
(1.24682 -0.0864183 0)
(1.24939 -0.0834348 0)
(1.25173 -0.0806342 0)
(1.25217 -0.0793496 0)
(1.25126 -0.0777128 0)
(1.24707 -0.0757479 0)
(1.244 -0.0741605 0)
(1.2445 -0.0735123 0)
(1.24569 -0.0731066 0)
(1.24821 -0.0729342 0)
(1.25396 -0.0724308 0)
(1.25863 -0.0706022 0)
(1.25995 -0.0686057 0)
(1.26042 -0.0661882 0)
(1.25902 -0.0638373 0)
(1.25564 -0.0619563 0)
(1.24808 -0.122704 0)
(1.24899 -0.12439 0)
(1.25213 -0.126447 0)
(1.2555 -0.128406 0)
(1.25636 -0.129707 0)
(1.25621 -0.130965 0)
(1.25465 -0.132854 0)
(1.25223 -0.13512 0)
(1.25132 -0.137044 0)
(1.25186 -0.138707 0)
(1.25414 -0.140828 0)
(1.25626 -0.142753 0)
(1.25656 -0.14395 0)
(1.25607 -0.145065 0)
(1.25414 -0.146242 0)
(1.25099 -0.147211 0)
(1.24983 -0.147818 0)
(1.25045 -0.148275 0)
(1.25234 -0.149354 0)
(1.25407 -0.150666 0)
(1.25473 -0.151724 0)
(1.25452 -0.152625 0)
(1.25314 -0.15312 0)
(1.25162 -0.153484 0)
(1.25076 -0.153968 0)
(1.24998 -0.15467 0)
(1.24879 -0.155952 0)
(1.24769 -0.157847 0)
(1.24739 -0.159914 0)
(1.24752 -0.162164 0)
(1.24775 -0.164292 0)
(1.24801 -0.165851 0)
(1.24837 -0.166995 0)
(1.2487 -0.16784 0)
(1.24886 -0.168254 0)
(1.24871 -0.168001 0)
(1.24764 -0.167042 0)
(1.24546 -0.165542 0)
(1.24469 -0.16427 0)
(1.24529 -0.163604 0)
(1.24596 -0.163062 0)
(1.24668 -0.162709 0)
(1.248 -0.162255 0)
(1.24956 -0.161445 0)
(1.24998 -0.160559 0)
(1.24982 -0.159453 0)
(1.2486 -0.158082 0)
(1.24682 -0.156836 0)
(1.24645 -0.156286 0)
(1.24642 -0.156055 0)
(1.24718 -0.156083 0)
(1.24887 -0.156412 0)
(1.24956 -0.156753 0)
(1.24899 -0.156908 0)
(1.24812 -0.157077 0)
(1.24726 -0.157167 0)
(1.2465 -0.15724 0)
(1.24625 -0.157299 0)
(1.24752 -0.157517 0)
(1.25078 -0.158005 0)
(1.25218 -0.158219 0)
(1.25088 -0.157899 0)
(1.24902 -0.156644 0)
(1.24749 -0.154127 0)
(1.24651 -0.152724 0)
(1.24611 -0.152749 0)
(1.24807 -0.153485 0)
(1.25286 -0.153864 0)
(1.25562 -0.152985 0)
(1.25444 -0.151142 0)
(1.25194 -0.148375 0)
(1.24949 -0.144688 0)
(1.24751 -0.141505 0)
(1.2463 -0.140025 0)
(1.24701 -0.139958 0)
(1.25035 -0.140493 0)
(1.25395 -0.140609 0)
(1.25437 -0.14044 0)
(1.2521 -0.14077 0)
(1.24925 -0.142383 0)
(1.24782 -0.146594 0)
(1.2483 -0.153478 0)
(1.248 -0.161041 0)
(1.24554 -0.167571 0)
(1.24286 -0.172651 0)
(1.24358 -0.176259 0)
(1.25129 -0.178014 0)
(1.26094 -0.175764 0)
(1.26022 -0.16965 0)
(1.25133 -0.163224 0)
(1.24226 -0.157526 0)
(1.23753 -0.152695 0)
(1.24793 -0.149372 0)
(1.27279 -0.145608 0)
(1.27346 -0.139015 0)
(1.26334 -0.131902 0)
(1.25441 -0.125895 0)
(1.24763 -0.122059 0)
(1.25018 -0.120397 0)
(1.27023 -0.119767 0)
(1.27586 -0.116637 0)
(1.27126 -0.113639 0)
(1.26142 -0.108688 0)
(1.25527 -0.104992 0)
(1.25562 -0.103763 0)
(1.26059 -0.10202 0)
(1.26895 -0.100175 0)
(1.27075 -0.0988601 0)
(1.26992 -0.0970791 0)
(1.26432 -0.0944041 0)
(1.26126 -0.0926828 0)
(1.26191 -0.0923084 0)
(1.26384 -0.0918735 0)