/*--------------------------------*- C++ -*----------------------------------*\
  =========                 |
  \\      /  F ield         | OpenFOAM: The Open Source CFD Toolbox
   \\    /   O peration     | Website:  https://openfoam.org
    \\  /    A nd           | Version:  7
     \\/     M anipulation  |
\*---------------------------------------------------------------------------*/
FoamFile
{
    version     2.0;
    format      ascii;
    class       volVectorField;
    location    "3.5";
    object      U;
}
// * * * * * * * * * * * * * * * * * * * * * * * * * * * * * * * * * * * * * //

dimensions      [0 1 -1 0 0 0 0];

internalField   nonuniform List<vector> 
1008
(
(2.1672 -0.62349 0)
(2.1851 -0.629825 0)
(2.19813 -0.635048 0)
(2.21474 -0.637641 0)
(2.23615 -0.641369 0)
(2.25827 -0.647864 0)
(2.27997 -0.655912 0)
(2.30011 -0.667386 0)
(2.32082 -0.669433 0)
(2.3367 -0.676174 0)
(2.35183 -0.682168 0)
(2.35835 -0.686455 0)
(2.38755 -0.679208 0)
(2.39371 -0.675784 0)
(2.39849 -0.63942 0)
(2.35034 -0.517328 0)
(2.25629 -0.297155 0)
(2.17721 -0.11105 0)
(2.1033 0.0204107 0)
(2.05742 0.110689 0)
(2.05248 0.118985 0)
(2.0727 0.124658 0)
(2.09088 0.131043 0)
(2.10284 0.132241 0)
(2.10628 0.133296 0)
(2.10959 0.146273 0)
(2.11466 0.158137 0)
(2.12343 0.162572 0)
(2.13516 0.164344 0)
(2.14811 0.167071 0)
(2.15968 0.173656 0)
(2.16629 0.184359 0)
(2.1662 0.194253 0)
(2.1642 0.198565 0)
(2.16935 0.198636 0)
(2.18057 0.198801 0)
(2.19307 0.199749 0)
(2.2064 0.201617 0)
(2.2197 0.205617 0)
(2.23093 0.213057 0)
(2.23575 0.223403 0)
(2.22925 0.233142 0)
(2.22943 0.236652 0)
(2.24336 0.237597 0)
(2.25682 0.236431 0)
(2.27091 0.233924 0)
(2.28454 0.233243 0)
(2.29856 0.234477 0)
(2.30887 0.238176 0)
(2.30874 0.244517 0)
(2.30094 0.249058 0)
(2.30533 0.249483 0)
(2.31832 0.250321 0)
(2.33078 0.253963 0)
(2.3459 0.259925 0)
(2.35985 0.262967 0)
(2.37393 0.266468 0)
(2.38057 0.271423 0)
(2.37816 0.277534 0)
(2.37535 0.278687 0)
(2.37806 0.271882 0)
(2.38303 0.264518 0)
(2.39573 0.265559 0)
(2.17632 -0.578795 0)
(2.19779 -0.587955 0)
(2.21448 -0.596793 0)
(2.23039 -0.599449 0)
(2.24921 -0.601853 0)
(2.27096 -0.609679 0)
(2.29347 -0.617037 0)
(2.31486 -0.624502 0)
(2.33563 -0.628015 0)
(2.35322 -0.631055 0)
(2.36703 -0.627447 0)
(2.37681 -0.630938 0)
(2.39463 -0.632054 0)
(2.41165 -0.633803 0)
(2.43228 -0.63592 0)
(2.44417 -0.629816 0)
(2.44106 -0.583577 0)
(2.38783 -0.447569 0)
(2.30248 -0.248708 0)
(2.18662 -0.0347195 0)
(2.15397 0.0553522 0)
(2.12191 0.119366 0)
(2.12452 0.146382 0)
(2.12631 0.152502 0)
(2.13894 0.15099 0)
(2.14659 0.15496 0)
(2.15222 0.171007 0)
(2.15706 0.184054 0)
(2.16604 0.184781 0)
(2.17616 0.185355 0)
(2.18691 0.187805 0)
(2.19669 0.191699 0)
(2.20314 0.199158 0)
(2.20358 0.211415 0)
(2.2006 0.222563 0)
(2.20472 0.226111 0)
(2.21621 0.22623 0)
(2.22945 0.226285 0)
(2.24302 0.226795 0)
(2.25621 0.227763 0)
(2.2659 0.230586 0)
(2.26647 0.241233 0)
(2.25699 0.25855 0)
(2.25708 0.264995 0)
(2.26907 0.264278 0)
(2.28338 0.262213 0)
(2.29973 0.258063 0)
(2.31473 0.253453 0)
(2.32639 0.249809 0)
(2.3293 0.249977 0)
(2.32102 0.261558 0)
(2.31588 0.277543 0)
(2.32315 0.286381 0)
(2.33527 0.289799 0)
(2.34946 0.290472 0)
(2.36547 0.290515 0)
(2.38007 0.288506 0)
(2.39202 0.286361 0)
(2.39386 0.288044 0)
(2.38578 0.292083 0)
(2.38396 0.292793 0)
(2.39084 0.291811 0)
(2.40665 0.295113 0)
(2.18621 -0.533202 0)
(2.20953 -0.541931 0)
(2.22922 -0.551258 0)
(2.24635 -0.55552 0)
(2.26265 -0.555328 0)
(2.28042 -0.557946 0)
(2.30133 -0.564315 0)
(2.32309 -0.573553 0)
(2.34599 -0.577285 0)
(2.3664 -0.582046 0)
(2.38348 -0.582267 0)
(2.39468 -0.579903 0)
(2.40366 -0.574315 0)
(2.41778 -0.579666 0)
(2.43602 -0.580223 0)
(2.46267 -0.588729 0)
(2.47501 -0.592166 0)
(2.48555 -0.580702 0)
(2.47662 -0.526861 0)
(2.41112 -0.382509 0)
(2.33166 -0.188107 0)
(2.22058 0.0246502 0)
(2.1916 0.108942 0)
(2.17712 0.147261 0)
(2.17571 0.16397 0)
(2.17538 0.1749 0)
(2.18201 0.189695 0)
(2.18714 0.205101 0)
(2.18819 0.210564 0)
(2.19587 0.209112 0)
(2.20791 0.208702 0)
(2.22128 0.211174 0)
(2.23331 0.216856 0)
(2.24102 0.225813 0)
(2.23973 0.238615 0)
(2.23366 0.249185 0)
(2.23872 0.252429 0)
(2.25116 0.252998 0)
(2.26586 0.252836 0)
(2.28059 0.251734 0)
(2.29238 0.251029 0)
(2.29842 0.254484 0)
(2.29367 0.267697 0)
(2.28318 0.28379 0)
(2.28893 0.286873 0)
(2.30126 0.285461 0)
(2.31281 0.283382 0)
(2.32404 0.280566 0)
(2.33492 0.277458 0)
(2.3439 0.275808 0)
(2.34864 0.280429 0)
(2.34758 0.293329 0)
(2.34508 0.305815 0)
(2.35108 0.310695 0)
(2.36189 0.312554 0)
(2.37299 0.312717 0)
(2.38411 0.309263 0)
(2.39487 0.30267 0)
(2.40228 0.295394 0)
(2.40278 0.295838 0)
(2.40059 0.309274 0)
(2.39971 0.324605 0)
(2.41328 0.328458 0)
(2.19745 -0.491098 0)
(2.22165 -0.500437 0)
(2.24357 -0.510776 0)
(2.2631 -0.516644 0)
(2.28008 -0.518366 0)
(2.29608 -0.521177 0)
(2.31457 -0.52415 0)
(2.33542 -0.531879 0)
(2.35881 -0.536449 0)
(2.38081 -0.542234 0)
(2.40076 -0.545069 0)
(2.41508 -0.549584 0)
(2.42646 -0.546611 0)
(2.43658 -0.539497 0)
(2.44952 -0.538912 0)
(2.46704 -0.537794 0)
(2.48251 -0.541242 0)
(2.49983 -0.549147 0)
(2.51762 -0.554289 0)
(2.51582 -0.533564 0)
(2.4996 -0.467348 0)
(2.4274 -0.312146 0)
(2.35328 -0.119589 0)
(2.2683 0.0621888 0)
(2.22904 0.150962 0)
(2.21374 0.19336 0)
(2.21037 0.200906 0)
(2.20772 0.213212 0)
(2.21092 0.227704 0)
(2.21443 0.233553 0)
(2.22862 0.236589 0)
(2.24207 0.23978 0)
(2.25646 0.244306 0)
(2.27035 0.248426 0)
(2.27586 0.255608 0)
(2.26947 0.264685 0)
(2.26548 0.270977 0)
(2.27436 0.273039 0)
(2.28782 0.274618 0)
(2.3017 0.276636 0)
(2.3145 0.278818 0)
(2.3233 0.280405 0)
(2.32369 0.283203 0)
(2.31413 0.294662 0)
(2.30818 0.307108 0)
(2.31402 0.310798 0)
(2.32622 0.309594 0)
(2.33884 0.308274 0)
(2.35124 0.308363 0)
(2.36344 0.310534 0)
(2.37445 0.312835 0)
(2.38067 0.316424 0)
(2.37321 0.322973 0)
(2.36869 0.329631 0)
(2.37582 0.33243 0)
(2.38702 0.331961 0)
(2.39824 0.328502 0)
(2.40683 0.323606 0)
(2.4138 0.320574 0)
(2.42187 0.323818 0)
(2.42834 0.330313 0)
(2.42836 0.345319 0)
(2.43027 0.348415 0)
(2.20857 -0.447446 0)
(2.23228 -0.453816 0)
(2.25494 -0.462537 0)
(2.27608 -0.468862 0)
(2.29475 -0.471841 0)
(2.31028 -0.475536 0)
(2.32587 -0.47892 0)
(2.34328 -0.485192 0)
(2.36483 -0.485691 0)
(2.3865 -0.489034 0)
(2.40808 -0.489291 0)
(2.42582 -0.492593 0)
(2.44028 -0.492464 0)
(2.45088 -0.494074 0)
(2.46108 -0.492799 0)
(2.47388 -0.490666 0)
(2.48963 -0.49735 0)
(2.50779 -0.501151 0)
(2.52264 -0.509032 0)
(2.53889 -0.5058 0)
(2.54806 -0.506726 0)
(2.54174 -0.478437 0)
(2.51945 -0.399473 0)
(2.45632 -0.248359 0)
(2.34735 -0.0155673 0)
(2.31434 0.0966571 0)
(2.26719 0.185633 0)
(2.23717 0.214531 0)
(2.2292 0.237328 0)
(2.23479 0.258034 0)
(2.23779 0.27131 0)
(2.24747 0.274845 0)
(2.26149 0.275394 0)
(2.27927 0.278634 0)
(2.29291 0.282637 0)
(2.29773 0.283484 0)
(2.29314 0.287773 0)
(2.29509 0.295192 0)
(2.30425 0.300328 0)
(2.31372 0.30503 0)
(2.32175 0.310181 0)
(2.32866 0.314898 0)
(2.33476 0.317161 0)
(2.33756 0.317287 0)
(2.33556 0.319974 0)
(2.33653 0.324496 0)
(2.34638 0.32926 0)
(2.35977 0.334059 0)
(2.3721 0.338605 0)
(2.38446 0.342249 0)
(2.39476 0.3439 0)
(2.39292 0.343437 0)
(2.39033 0.343933 0)
(2.3897 0.346423 0)
(2.39425 0.348049 0)
(2.40346 0.347556 0)
(2.41403 0.346756 0)
(2.42487 0.347194 0)
(2.43702 0.350631 0)
(2.44658 0.357698 0)
(2.45913 0.35965 0)
(2.45468 0.370569 0)
(2.44664 0.359598 0)
(2.22043 -0.407939 0)
(2.2444 -0.412481 0)
(2.26727 -0.419722 0)
(2.28838 -0.425403 0)
(2.30752 -0.427616 0)
(2.32349 -0.430245 0)
(2.3377 -0.433685 0)
(2.35244 -0.443308 0)
(2.37092 -0.447386 0)
(2.39118 -0.451154 0)
(2.41334 -0.449483 0)
(2.433 -0.449799 0)
(2.44949 -0.446647 0)
(2.46136 -0.445229 0)
(2.46986 -0.44747 0)
(2.47834 -0.44373 0)
(2.48845 -0.448888 0)
(2.50551 -0.452374 0)
(2.52429 -0.459408 0)
(2.54558 -0.459656 0)
(2.56013 -0.468223 0)
(2.5658 -0.464178 0)
(2.5679 -0.454242 0)
(2.55795 -0.415602 0)
(2.52585 -0.328059 0)
(2.47291 -0.177043 0)
(2.35739 0.0698035 0)
(2.31894 0.152498 0)
(2.28844 0.202558 0)
(2.27614 0.255701 0)
(2.26039 0.288048 0)
(2.26443 0.294772 0)
(2.27795 0.29623 0)
(2.29055 0.298027 0)
(2.2976 0.300545 0)
(2.29828 0.306627 0)
(2.30298 0.313693 0)
(2.31239 0.318505 0)
(2.32435 0.322796 0)
(2.33533 0.325629 0)
(2.34213 0.330014 0)
(2.34889 0.336429 0)
(2.35781 0.340405 0)
(2.36402 0.34178 0)
(2.36177 0.343874 0)
(2.35654 0.348433 0)
(2.36432 0.355057 0)
(2.37529 0.360378 0)
(2.38845 0.364115 0)
(2.3966 0.363037 0)
(2.40029 0.362129 0)
(2.40537 0.362442 0)
(2.41037 0.361988 0)
(2.41376 0.360665 0)
(2.41439 0.362555 0)
(2.42036 0.36692 0)
(2.43089 0.37334 0)
(2.44084 0.383045 0)
(2.44975 0.393101 0)
(2.45769 0.396167 0)
(2.46288 0.393558 0)
(2.45888 0.380754 0)
(2.44121 0.330898 0)
(2.22815 -0.367612 0)
(2.25275 -0.371695 0)
(2.27636 -0.37774 0)
(2.29777 -0.383195 0)
(2.31697 -0.385272 0)
(2.33315 -0.385277 0)
(2.34616 -0.384628 0)
(2.3587 -0.391923 0)
(2.37342 -0.39629 0)
(2.38854 -0.402643 0)
(2.40734 -0.403789 0)
(2.42854 -0.404256 0)
(2.44794 -0.400182 0)
(2.46136 -0.395549 0)
(2.46835 -0.39708 0)
(2.47584 -0.3957 0)
(2.48147 -0.400338 0)
(2.48963 -0.398469 0)
(2.50327 -0.403338 0)
(2.52286 -0.400923 0)
(2.54332 -0.404107 0)
(2.56047 -0.411573 0)
(2.57565 -0.408771 0)
(2.57256 -0.411487 0)
(2.58517 -0.392247 0)
(2.57963 -0.361363 0)
(2.54263 -0.26152 0)
(2.48021 -0.100876 0)
(2.39632 0.0886905 0)
(2.30944 0.253604 0)
(2.30297 0.274009 0)
(2.30318 0.301333 0)
(2.30233 0.310959 0)
(2.30305 0.3133 0)
(2.30548 0.316976 0)
(2.30805 0.32673 0)
(2.30822 0.332192 0)
(2.31492 0.33454 0)
(2.32491 0.339399 0)
(2.33532 0.346436 0)
(2.34661 0.353022 0)
(2.35765 0.359506 0)
(2.36556 0.366097 0)
(2.36951 0.371415 0)
(2.37086 0.376407 0)
(2.37143 0.38094 0)
(2.37532 0.381523 0)
(2.38163 0.377139 0)
(2.38973 0.374944 0)
(2.39824 0.376291 0)
(2.40465 0.378254 0)
(2.40884 0.379409 0)
(2.41222 0.38235 0)
(2.41936 0.387078 0)
(2.43105 0.390969 0)
(2.44342 0.396964 0)
(2.45316 0.403399 0)
(2.46279 0.409034 0)
(2.47063 0.410112 0)
(2.47118 0.411013 0)
(2.45233 0.380691 0)
(2.43185 0.325993 0)
(2.3707 0.165308 0)
(2.22906 -0.323435 0)
(2.25361 -0.327366 0)
(2.27868 -0.333053 0)
(2.30187 -0.33877 0)
(2.322 -0.342281 0)
(2.3387 -0.343331 0)
(2.35124 -0.339748 0)
(2.3602 -0.341893 0)
(2.37316 -0.343469 0)
(2.39019 -0.349677 0)
(2.40646 -0.353691 0)
(2.42192 -0.358033 0)
(2.44297 -0.358397 0)
(2.46391 -0.355156 0)
(2.47528 -0.354777 0)
(2.47666 -0.349638 0)
(2.48107 -0.358279 0)
(2.4942 -0.358384 0)
(2.50775 -0.362813 0)
(2.52569 -0.359547 0)
(2.54496 -0.361312 0)
(2.56456 -0.366652 0)
(2.58099 -0.367012 0)
(2.59165 -0.371005 0)
(2.60429 -0.359887 0)
(2.60192 -0.364019 0)
(2.61044 -0.342375 0)
(2.59757 -0.304921 0)
(2.55245 -0.193964 0)
(2.45947 0.0025059 0)
(2.41928 0.150274 0)
(2.34325 0.304648 0)
(2.32328 0.346426 0)
(2.31415 0.352863 0)
(2.31431 0.34874 0)
(2.31524 0.353841 0)
(2.32145 0.357518 0)
(2.32759 0.361414 0)
(2.33548 0.366593 0)
(2.3447 0.370288 0)
(2.35714 0.375469 0)
(2.3685 0.381032 0)
(2.37618 0.386562 0)
(2.37898 0.392122 0)
(2.37637 0.396049 0)
(2.37455 0.397864 0)
(2.37654 0.396672 0)
(2.38371 0.395497 0)
(2.39339 0.395365 0)
(2.40276 0.395943 0)
(2.41324 0.397365 0)
(2.42272 0.399522 0)
(2.42321 0.408033 0)
(2.42529 0.419873 0)
(2.43417 0.428268 0)
(2.4445 0.432496 0)
(2.45347 0.430636 0)
(2.46308 0.427686 0)
(2.45378 0.401248 0)
(2.43166 0.342571 0)
(2.38372 0.2376 0)
(2.33977 0.118416 0)
(2.29254 -0.0145634 0)
(2.22597 -0.282559 0)
(2.2502 -0.285816 0)
(2.27635 -0.290665 0)
(2.3018 -0.295565 0)
(2.32423 -0.299789 0)
(2.34241 -0.30352 0)
(2.35619 -0.303194 0)
(2.3651 -0.302862 0)
(2.37118 -0.29703 0)
(2.38029 -0.297713 0)
(2.39843 -0.30006 0)
(2.41977 -0.305761 0)
(2.43937 -0.309316 0)
(2.45715 -0.305993 0)
(2.47263 -0.309951 0)
(2.48505 -0.309016 0)
(2.48973 -0.311756 0)
(2.49034 -0.313422 0)
(2.49391 -0.321809 0)
(2.50818 -0.318527 0)
(2.52587 -0.320229 0)
(2.54359 -0.323269 0)
(2.56235 -0.323476 0)
(2.57941 -0.322985 0)
(2.59588 -0.315514 0)
(2.6055 -0.320749 0)
(2.61468 -0.314156 0)
(2.61598 -0.31433 0)
(2.62363 -0.290368 0)
(2.61129 -0.230562 0)
(2.57545 -0.118034 0)
(2.46742 0.0942028 0)
(2.44279 0.198138 0)
(2.38763 0.308338 0)
(2.3319 0.383151 0)
(2.32095 0.392238 0)
(2.32507 0.391816 0)
(2.33308 0.398825 0)
(2.33788 0.404011 0)
(2.34622 0.403917 0)
(2.35918 0.408952 0)
(2.37143 0.41688 0)
(2.37946 0.421831 0)
(2.3845 0.422537 0)
(2.38662 0.42009 0)
(2.38455 0.416267 0)
(2.38261 0.413188 0)
(2.38631 0.411943 0)
(2.39418 0.415045 0)
(2.40385 0.419767 0)
(2.41138 0.424516 0)
(2.41921 0.435506 0)
(2.43017 0.441205 0)
(2.44383 0.440371 0)
(2.44861 0.440617 0)
(2.45293 0.436942 0)
(2.44493 0.419156 0)
(2.4267 0.36478 0)
(2.37461 0.24347 0)
(2.33247 0.147045 0)
(2.27933 0.0286016 0)
(2.2576 -0.0528614 0)
(2.2522 -0.102445 0)
(2.21308 -0.239536 0)
(2.23485 -0.241713 0)
(2.25876 -0.245154 0)
(2.28306 -0.248979 0)
(2.30583 -0.25295 0)
(2.32558 -0.257111 0)
(2.34248 -0.258021 0)
(2.35745 -0.260288 0)
(2.3727 -0.258115 0)
(2.38629 -0.255985 0)
(2.39631 -0.251769 0)
(2.40764 -0.254376 0)
(2.42978 -0.259097 0)
(2.4541 -0.260058 0)
(2.47597 -0.26185 0)
(2.49157 -0.263568 0)
(2.50481 -0.27111 0)
(2.50915 -0.269431 0)
(2.51114 -0.272462 0)
(2.51908 -0.269856 0)
(2.53324 -0.270219 0)
(2.55286 -0.273016 0)
(2.57257 -0.276333 0)
(2.5918 -0.281713 0)
(2.61004 -0.278844 0)
(2.62538 -0.281357 0)
(2.63877 -0.270871 0)
(2.64229 -0.274737 0)
(2.6397 -0.2723 0)
(2.65371 -0.253033 0)
(2.65118 -0.237491 0)
(2.62249 -0.169879 0)
(2.5827 -0.0401258 0)
(2.47408 0.182479 0)
(2.41317 0.297311 0)
(2.39661 0.330941 0)
(2.37172 0.385177 0)
(2.35189 0.423262 0)
(2.34622 0.433331 0)
(2.35639 0.435115 0)
(2.37067 0.436032 0)
(2.37992 0.438235 0)
(2.38421 0.443746 0)
(2.38598 0.451248 0)
(2.38755 0.451558 0)
(2.39112 0.447488 0)
(2.39803 0.443148 0)
(2.40614 0.442295 0)
(2.41237 0.444474 0)
(2.4164 0.449571 0)
(2.41935 0.459528 0)
(2.4234 0.460526 0)
(2.43398 0.460666 0)
(2.43872 0.454198 0)
(2.43687 0.432052 0)
(2.41716 0.373797 0)
(2.36292 0.245468 0)
(2.32663 0.136264 0)
(2.29845 0.0587638 0)
(2.24451 -0.0165655 0)
(2.22989 -0.0876835 0)
(2.2296 -0.0922575 0)
(2.24746 -0.0688089 0)
(2.21352 -0.199214 0)
(2.23631 -0.201604 0)
(2.26094 -0.205692 0)
(2.28563 -0.209879 0)
(2.30856 -0.213297 0)
(2.32857 -0.216459 0)
(2.34589 -0.216981 0)
(2.36115 -0.218044 0)
(2.37686 -0.214307 0)
(2.39328 -0.213448 0)
(2.41107 -0.211854 0)
(2.43006 -0.207228 0)
(2.44428 -0.204642 0)
(2.45227 -0.209433 0)
(2.45812 -0.220672 0)
(2.46808 -0.223206 0)
(2.48879 -0.223798 0)
(2.51292 -0.225069 0)
(2.53409 -0.228347 0)
(2.54702 -0.22596 0)
(2.55177 -0.223848 0)
(2.55337 -0.231271 0)
(2.56434 -0.239019 0)
(2.57916 -0.245442 0)
(2.59406 -0.242925 0)
(2.60598 -0.243761 0)
(2.62072 -0.231183 0)
(2.63343 -0.227384 0)
(2.64421 -0.228641 0)
(2.65598 -0.22231 0)
(2.65988 -0.218112 0)
(2.66796 -0.21158 0)
(2.66146 -0.188441 0)
(2.62203 -0.0903523 0)
(2.57267 0.0446433 0)
(2.47831 0.250331 0)
(2.39577 0.416151 0)
(2.3852 0.40963 0)
(2.38345 0.428847 0)
(2.38793 0.448246 0)
(2.38947 0.450143 0)
(2.39222 0.454165 0)
(2.39401 0.464722 0)
(2.39013 0.469364 0)
(2.3905 0.467412 0)
(2.39627 0.464676 0)
(2.40671 0.469169 0)
(2.41766 0.475221 0)
(2.4268 0.479788 0)
(2.43202 0.486038 0)
(2.43313 0.486579 0)
(2.43258 0.472863 0)
(2.42594 0.445418 0)
(2.40241 0.38727 0)
(2.3491 0.268612 0)
(2.30524 0.139684 0)
(2.28373 0.0317372 0)
(2.24265 -0.0590499 0)
(2.23046 -0.0674479 0)
(2.23199 -0.0719056 0)
(2.23755 -0.0776825 0)
(2.24108 -0.0704306 0)
(2.26068 -0.0505084 0)
(2.20219 -0.145565 0)
(2.22516 -0.1458 0)
(2.2491 -0.147306 0)
(2.2723 -0.149444 0)
(2.29364 -0.151924 0)
(2.31264 -0.156113 0)
(2.32905 -0.161032 0)
(2.34302 -0.169277 0)
(2.3575 -0.17135 0)
(2.37495 -0.16931 0)
(2.39539 -0.163037 0)
(2.4152 -0.158076 0)
(2.43291 -0.158792 0)
(2.44753 -0.160865 0)
(2.46247 -0.167851 0)
(2.47947 -0.170213 0)
(2.4948 -0.175215 0)
(2.50973 -0.181316 0)
(2.52649 -0.183149 0)
(2.54371 -0.176448 0)
(2.562 -0.173916 0)
(2.58051 -0.183953 0)
(2.59481 -0.188978 0)
(2.60431 -0.191087 0)
(2.61116 -0.188248 0)
(2.61839 -0.191507 0)
(2.62916 -0.18587 0)
(2.64245 -0.183074 0)
(2.65563 -0.186056 0)
(2.66805 -0.183785 0)
(2.68314 -0.168123 0)
(2.68829 -0.16291 0)
(2.6768 -0.176648 0)
(2.68091 -0.16236 0)
(2.67278 -0.125854 0)
(2.62364 -0.0123402 0)
(2.5547 0.144701 0)
(2.47195 0.311592 0)
(2.40517 0.474025 0)
(2.39609 0.499277 0)
(2.4003 0.485933 0)
(2.40177 0.481745 0)
(2.4026 0.48809 0)
(2.40691 0.493626 0)
(2.41168 0.498743 0)
(2.41872 0.501429 0)
(2.42323 0.497477 0)
(2.42954 0.497279 0)
(2.43734 0.501387 0)
(2.43774 0.498452 0)
(2.43052 0.475022 0)
(2.40412 0.405627 0)
(2.34872 0.291555 0)
(2.29518 0.164011 0)
(2.24368 0.0290367 0)
(2.2474 -0.00628949 0)
(2.24773 -0.0451549 0)
(2.2448 -0.0521669 0)
(2.24119 -0.0491065 0)
(2.24228 -0.0489468 0)
(2.25131 -0.048007 0)
(2.2604 -0.03864 0)
(2.2746 -0.0313347 0)
(2.15944 -0.11815 0)
(2.18336 -0.119199 0)
(2.20644 -0.121474 0)
(2.22768 -0.124198 0)
(2.24757 -0.127239 0)
(2.26704 -0.130858 0)
(2.28648 -0.132171 0)
(2.30647 -0.132818 0)
(2.32933 -0.127863 0)
(2.35345 -0.123319 0)
(2.37659 -0.120105 0)
(2.39655 -0.120688 0)
(2.41162 -0.126377 0)
(2.42389 -0.129193 0)
(2.43887 -0.133273 0)
(2.45892 -0.132529 0)
(2.4829 -0.132774 0)
(2.50739 -0.133972 0)
(2.52835 -0.136732 0)
(2.54425 -0.136912 0)
(2.55581 -0.139174 0)
(2.56464 -0.148444 0)
(2.57067 -0.151095 0)
(2.57626 -0.149355 0)
(2.58431 -0.145372 0)
(2.59596 -0.147965 0)
(2.61095 -0.14464 0)
(2.62464 -0.14267 0)
(2.63571 -0.146769 0)
(2.64318 -0.147769 0)
(2.64843 -0.139875 0)
(2.65403 -0.133012 0)
(2.66099 -0.137607 0)
(2.68012 -0.127993 0)
(2.69188 -0.125074 0)
(2.68445 -0.108685 0)
(2.65952 -0.0361361 0)
(2.61417 0.075273 0)
(2.5026 0.283781 0)
(2.47646 0.37634 0)
(2.44163 0.468221 0)
(2.40716 0.538866 0)
(2.3994 0.53936 0)
(2.40478 0.532183 0)
(2.41316 0.534108 0)
(2.42648 0.530549 0)
(2.4293 0.526869 0)
(2.43266 0.515537 0)
(2.43015 0.489083 0)
(2.41099 0.41897 0)
(2.37524 0.295137 0)
(2.33571 0.185434 0)
(2.23964 0.0537502 0)
(2.21165 -0.00997375 0)
(2.21788 -0.0390606 0)
(2.22914 -0.0567397 0)
(2.23655 -0.0594962 0)
(2.2418 -0.0558282 0)
(2.24881 -0.0444288 0)
(2.25461 -0.0353085 0)
(2.25965 -0.0222909 0)
(2.26474 -0.013578 0)
(2.28035 -0.01663 0)
(2.11193 -0.0856566 0)
(2.13734 -0.0890323 0)
(2.1619 -0.0891282 0)
(2.18544 -0.0860596 0)
(2.20796 -0.0827496 0)
(2.22941 -0.0823558 0)
(2.25071 -0.0831413 0)
(2.27362 -0.0856574 0)
(2.29837 -0.0860404 0)
(2.32416 -0.0874529 0)
(2.34877 -0.0894768 0)
(2.36937 -0.0918404 0)
(2.38577 -0.0935946 0)
(2.40319 -0.0897648 0)
(2.42502 -0.0873771 0)
(2.44836 -0.0855671 0)
(2.47042 -0.0877402 0)
(2.48941 -0.0937136 0)
(2.50479 -0.102102 0)
(2.51655 -0.10688 0)
(2.52557 -0.108588 0)
(2.53352 -0.112337 0)
(2.54207 -0.108669 0)
(2.55187 -0.102954 0)
(2.56415 -0.0980618 0)
(2.57721 -0.100599 0)
(2.58859 -0.102902 0)
(2.59948 -0.106274 0)
(2.60883 -0.111034 0)
(2.6168 -0.107602 0)
(2.62599 -0.0967902 0)
(2.63737 -0.0906216 0)
(2.64966 -0.0978232 0)
(2.66197 -0.0948612 0)
(2.67383 -0.0886259 0)
(2.677 -0.0954868 0)
(2.68306 -0.0840101 0)
(2.6768 -0.0587397 0)
(2.63734 0.0300673 0)
(2.59768 0.161417 0)
(2.48531 0.381286 0)
(2.45474 0.461425 0)
(2.44241 0.495829 0)
(2.43292 0.534928 0)
(2.41773 0.557608 0)
(2.41358 0.552872 0)
(2.40468 0.519148 0)
(2.38639 0.446547 0)
(2.37175 0.338096 0)
(2.34161 0.191956 0)
(2.311 0.0888979 0)
(2.25393 0.0269161 0)
(2.20333 -0.00120463 0)
(2.1931 -0.0396888 0)
(2.19931 -0.0440284 0)
(2.21802 -0.0380169 0)
(2.22971 -0.0368896 0)
(2.23956 -0.0348332 0)
(2.24807 -0.028777 0)
(2.25263 -0.0245974 0)
(2.25422 -0.0182274 0)
(2.25512 -0.013025 0)
(2.26732 -0.0180354 0)
(2.06881 -0.0575426 0)
(2.10028 -0.0538902 0)
(2.13066 -0.0492243 0)
(2.1572 -0.0453548 0)
(2.17829 -0.0444818 0)
(2.19624 -0.0471584 0)
(2.21614 -0.0506343 0)
(2.24032 -0.0547898 0)
(2.26705 -0.0573616 0)
(2.29456 -0.0596105 0)
(2.32091 -0.0600041 0)
(2.34556 -0.0575142 0)
(2.36919 -0.0535097 0)
(2.39158 -0.0484456 0)
(2.41253 -0.0473423 0)
(2.43155 -0.0488535 0)
(2.44932 -0.0533225 0)
(2.46543 -0.0596623 0)
(2.47926 -0.0660534 0)
(2.49197 -0.068214 0)
(2.50573 -0.0664779 0)
(2.52073 -0.0654316 0)
(2.53522 -0.0602609 0)
(2.54579 -0.0549394 0)
(2.55301 -0.0528739 0)
(2.56131 -0.0562769 0)
(2.57234 -0.0593469 0)
(2.5849 -0.0634778 0)
(2.59608 -0.0683247 0)
(2.6072 -0.0665666 0)
(2.62336 -0.0605197 0)
(2.64322 -0.0552177 0)
(2.66016 -0.0542557 0)
(2.66772 -0.0469143 0)
(2.67047 -0.0426463 0)
(2.67709 -0.0490833 0)
(2.67808 -0.057433 0)
(2.68713 -0.0514104 0)
(2.69129 -0.0432536 0)
(2.68858 -0.00508251 0)
(2.63891 0.107368 0)
(2.57736 0.260999 0)
(2.50565 0.430834 0)
(2.44633 0.540384 0)
(2.40186 0.527142 0)
(2.34368 0.45479 0)
(2.29038 0.331561 0)
(2.24626 0.16804 0)
(2.21833 0.0327504 0)
(2.17399 -0.0609774 0)
(2.14575 -0.0693401 0)
(2.14408 -0.0458448 0)
(2.1591 -0.037104 0)
(2.17377 -0.0393257 0)
(2.18319 -0.0354191 0)
(2.19451 -0.0202528 0)
(2.21424 -0.00653568 0)
(2.22789 -0.00601543 0)
(2.23464 -0.00571497 0)
(2.24084 -0.00472633 0)
(2.24371 -0.00291722 0)
(2.24029 -0.00216686 0)
(2.25247 -0.00865243 0)
(2.05055 -0.0168259 0)
(2.08229 -0.0168662 0)
(2.11173 -0.0173123 0)
(2.13644 -0.0179267 0)
(2.15576 -0.0183233 0)
(2.17349 -0.018515 0)
(2.19546 -0.0184311 0)
(2.22261 -0.0187418 0)
(2.25207 -0.0186015 0)
(2.28199 -0.0184012 0)
(2.3105 -0.0179079 0)
(2.33642 -0.0174074 0)
(2.35866 -0.0176441 0)
(2.37757 -0.0179494 0)
(2.39602 -0.0188286 0)
(2.4146 -0.0191856 0)
(2.43329 -0.0196263 0)
(2.45154 -0.0204178 0)
(2.46931 -0.0213879 0)
(2.48724 -0.0218557 0)
(2.50522 -0.0217833 0)
(2.51979 -0.0213141 0)
(2.52723 -0.01933 0)
(2.53183 -0.0186185 0)
(2.53942 -0.0182846 0)
(2.55122 -0.0193665 0)
(2.56572 -0.0208271 0)
(2.58256 -0.0228688 0)
(2.60056 -0.025722 0)
(2.61663 -0.0255714 0)
(2.62932 -0.0227812 0)
(2.63814 -0.0193567 0)
(2.64294 -0.0221998 0)
(2.64604 -0.0202728 0)
(2.65345 -0.0180087 0)
(2.66547 -0.0187736 0)
(2.67749 -0.0223437 0)
(2.68767 -0.0225449 0)
(2.69757 -0.0212213 0)
(2.71236 -0.0187191 0)
(2.71337 -0.00623377 0)
(2.67936 0.0406919 0)
(2.5868 0.124547 0)
(2.45618 0.224509 0)
(2.34254 0.261416 0)
(2.26448 0.256465 0)
(2.20154 0.257568 0)
(2.17603 0.21682 0)
(2.13695 0.126806 0)
(2.12294 0.0607609 0)
(2.10995 0.0184488 0)
(2.12868 0.000582167 0)
(2.16352 -0.0092732 0)
(2.16613 -0.0207867 0)
(2.1698 -0.0221904 0)
(2.17853 -0.0182024 0)
(2.19706 -0.0128638 0)
(2.21624 -0.0108532 0)
(2.22468 -0.00848789 0)
(2.22876 -0.00714036 0)
(2.23196 -0.0058238 0)
(2.22867 -0.00431068 0)
(2.24194 -0.00364732 0)
)
;

boundaryField
{
    inlet
    {
        type            fixedValue;
        value           nonuniform 0();
    }
    outlet
    {
        type            inletOutlet;
        inletValue      uniform (3 0 0);
        value           nonuniform List<vector> 
16
(
(2.39573 0.265559 0)
(2.40665 0.295113 0)
(2.41328 0.328458 0)
(2.43027 0.348415 0)
(2.44664 0.359598 0)
(2.44121 0.330898 0)
(2.3707 0.165308 0)
(2.29254 -0.0145634 0)
(2.2522 -0.102445 0)
(2.24746 -0.0688089 0)
(2.26068 -0.0505084 0)
(2.2746 -0.0313347 0)
(2.28035 -0.01663 0)
(2.26732 -0.0180354 0)
(2.25247 -0.00865243 0)
(2.24194 -0.00364732 0)
)
;
    }
    bottom
    {
        type            symmetryPlane;
    }
    top
    {
        type            symmetryPlane;
    }
    obstacle
    {
        type            slip;
    }
    defaultFaces
    {
        type            empty;
    }
    procBoundary3to1
    {
        type            processor;
        value           nonuniform List<vector> 
63
(
(2.1617 -0.675752 0)
(2.17394 -0.682685 0)
(2.18721 -0.687736 0)
(2.208 -0.690264 0)
(2.23071 -0.695097 0)
(2.25268 -0.706341 0)
(2.27366 -0.715595 0)
(2.29374 -0.719998 0)
(2.31286 -0.724835 0)
(2.31909 -0.734416 0)
(2.33417 -0.721165 0)
(2.34229 -0.720666 0)
(2.34688 -0.696084 0)
(2.3058 -0.584531 0)
(2.22488 -0.376386 0)
(2.11095 -0.143907 0)
(2.06872 -0.0209018 0)
(2.02271 0.0462719 0)
(2.00387 0.0923886 0)
(2.00645 0.10422 0)
(2.02448 0.10642 0)
(2.04666 0.108624 0)
(2.06163 0.112214 0)
(2.07174 0.115711 0)
(2.07324 0.121944 0)
(2.07226 0.133699 0)
(2.07922 0.140065 0)
(2.09068 0.142506 0)
(2.10391 0.146425 0)
(2.11728 0.153218 0)
(2.12809 0.161309 0)
(2.13482 0.167261 0)
(2.13739 0.169978 0)
(2.13917 0.172061 0)
(2.14518 0.174678 0)
(2.15575 0.177911 0)
(2.16866 0.182482 0)
(2.18216 0.188946 0)
(2.19467 0.196849 0)
(2.20448 0.204528 0)
(2.20884 0.209565 0)
(2.20678 0.210694 0)
(2.21163 0.209499 0)
(2.2251 0.210037 0)
(2.23855 0.211214 0)
(2.2531 0.213002 0)
(2.26793 0.215738 0)
(2.28098 0.220736 0)
(2.28871 0.227868 0)
(2.28896 0.233697 0)
(2.28864 0.234358 0)
(2.2935 0.230971 0)
(2.30251 0.227849 0)
(2.31483 0.226307 0)
(2.32859 0.22753 0)
(2.34031 0.234003 0)
(2.35015 0.246744 0)
(2.3566 0.26073 0)
(2.36081 0.267342 0)
(2.36834 0.266648 0)
(2.37723 0.259037 0)
(2.38341 0.247123 0)
(2.39067 0.24408 0)
)
;
    }
    procBoundary3to2
    {
        type            processor;
        value           nonuniform List<vector> 
16
(
(2.14584 -0.61192 0)
(2.15288 -0.566325 0)
(2.16184 -0.520801 0)
(2.17331 -0.478191 0)
(2.18639 -0.437373 0)
(2.19849 -0.399287 0)
(2.20583 -0.358133 0)
(2.20815 -0.315054 0)
(2.20581 -0.274688 0)
(2.19474 -0.233019 0)
(2.19355 -0.193529 0)
(2.18132 -0.141381 0)
(2.13537 -0.115552 0)
(2.08557 -0.0781911 0)
(2.03812 -0.0570567 0)
(2.01784 -0.0167622 0)
)
;
    }
}


// ************************************************************************* //
