/*--------------------------------*- C++ -*----------------------------------*\
  =========                 |
  \\      /  F ield         | OpenFOAM: The Open Source CFD Toolbox
   \\    /   O peration     | Website:  https://openfoam.org
    \\  /    A nd           | Version:  7
     \\/     M anipulation  |
\*---------------------------------------------------------------------------*/
FoamFile
{
    version     2.0;
    format      ascii;
    class       surfaceScalarField;
    location    "119";
    object      phi;
}
// * * * * * * * * * * * * * * * * * * * * * * * * * * * * * * * * * * * * * //

dimensions      [0 3 -1 0 0 0 0];

internalField   nonuniform List<scalar> 
53160
(
-0.000283625
0.00333321
-0.00304958
-0.000384505
0.00869109
-0.00859021
-0.000302934
0.0135945
-0.0136761
0.000248314
0.00924347
-0.00979472
0.00116595
0.000811327
-0.00172896
0.0020655
-0.00713565
0.00623609
0.00275098
-0.0123498
0.0116643
0.00324156
-0.0148167
0.0143261
0.00338493
-0.0157046
0.0155613
0.00326244
-0.0165767
0.0166992
0.00367607
-0.0144339
0.0140203
0.00482355
-0.00694131
0.00579383
0.0062103
0.00283929
-0.00422603
0.00748221
0.00939091
-0.0106628
0.00826579
0.0131001
-0.0138837
0.00848195
0.0164971
-0.0167133
0.00854736
0.0182538
-0.0183192
0.00918085
0.0141
-0.0147335
0.0108227
0.00422784
-0.00586969
-0.00448982
0.00287063
0.0124419
-0.000267856
0.00360106
-0.000346858
0.0087701
-0.000216795
0.0134644
0.000392102
0.00863457
0.00132676
-0.00012333
0.00221396
-0.00802285
0.00286289
-0.0129987
0.0033155
-0.0152693
0.00346347
-0.0158526
0.00330605
-0.0164193
0.00357113
-0.014699
0.00461108
-0.00798125
0.00602727
0.0014231
0.0073555
0.00806267
0.00817388
0.0122817
0.00842384
0.0162472
0.00852858
0.0181491
0.00917189
0.0134567
0.0109213
0.00247842
-0.00625193
0.0126834
-0.000248906
0.00384997
-0.000301566
0.00882275
-0.000121213
0.0132841
0.000544484
0.00796887
0.00149489
-0.00107373
0.0023645
-0.00889246
0.00297835
-0.0136126
0.003392
-0.0156829
0.00354436
-0.016005
0.00337092
-0.0162459
0.00352377
-0.0148518
0.00447297
-0.00893046
0.00588875
7.33288e-06
0.00725421
0.0066972
0.00810096
0.011435
0.0083937
0.0159544
0.00862005
0.0179227
0.00936721
0.0127095
0.0111502
0.000695466
-0.00806816
0.0129664
-0.000227128
0.0040771
-0.000249467
0.00884509
-1.8377e-05
0.013053
0.000704122
0.00724637
0.00166835
-0.00203796
0.00251538
-0.00973948
0.00309576
-0.014193
0.00346977
-0.0160569
0.00362573
-0.0161609
0.00345377
-0.0160739
0.00353029
-0.0149283
0.00440566
-0.00980584
0.00579311
-0.00138011
0.00718245
0.00530787
0.00804032
0.0105771
0.00838662
0.0156081
0.00884682
0.0174625
0.00981309
0.0117432
0.0115471
-0.00103853
-0.00981025
0.0132892
-0.000202932
0.00428003
-0.0001916
0.00883376
9.511e-05
0.0127663
0.00086972
0.00647176
0.00184475
-0.00301299
0.00266498
-0.0105597
0.0032131
-0.0147411
0.00354742
-0.0163913
0.00370557
-0.0163191
0.00355099
-0.0159193
0.00357832
-0.0149557
0.00439221
-0.0106197
0.00573881
-0.00272671
0.00713771
0.00390897
0.0079811
0.00973371
0.00838415
0.0152051
0.00915945
0.0166872
0.0104324
0.0104703
0.0120861
-0.00269226
-0.0113603
0.0136362
-0.000176777
0.00445681
-0.000129242
0.00878623
0.000214065
0.012423
0.00103993
0.0056459
0.00202156
-0.00399461
0.00281176
-0.0113499
0.00332788
-0.0152572
0.00362398
-0.0166874
0.00378168
-0.0164768
0.00365878
-0.0157965
0.00365139
-0.0149483
0.00440735
-0.0113757
0.00571704
-0.0040364
0.00710553
0.00252048
0.00791362
0.00892562
0.00836615
0.0147525
0.0094613
0.0155921
0.0110892
0.00884237
0.0126798
-0.00428278
-0.0126636
0.0139831
-0.000149167
0.00460597
-6.40478e-05
0.00870111
0.00033807
0.0120209
0.00121327
0.00477069
0.00219638
-0.00497772
0.0029542
-0.0121077
0.00343753
-0.0157405
0.00369908
-0.0169489
0.00385211
-0.0166298
0.00377258
-0.0157169
0.00373442
-0.0149101
0.00441958
-0.0120608
0.00570524
-0.00532206
0.00705887
0.00116685
0.00783106
0.00815343
0.00833496
0.0142486
0.0096975
0.0142295
0.0116762
0.0068637
0.0132563
-0.00586295
-0.0137178
0.0143105
-0.000120626
0.0047266
6.52086e-07
0.00857983
0.000465379
0.0115561
0.00138798
0.00384809
0.00236698
-0.00595671
0.00309068
-0.0128314
0.00353987
-0.0161897
0.00377257
-0.0171816
0.00391563
-0.0167729
0.00388625
-0.0156875
0.00381858
-0.0148424
0.00440194
-0.0126442
0.00566731
-0.00658742
0.0069657
-0.000131546
0.00772083
0.0073983
0.00832479
0.0136447
0.00992182
0.0126325
0.0121873
0.00459823
0.0137796
-0.0074553
-0.0145468
0.0146086
-9.16646e-05
0.00481826
7.15499e-05
0.00841661
0.000593949
0.0110337
0.00156207
0.00287997
0.00253134
-0.00692598
0.00321952
-0.0135196
0.00363351
-0.0166037
0.0038438
-0.0173919
0.00397227
-0.0169013
0.00399225
-0.0157075
0.0039032
-0.0147534
0.00434613
-0.0130871
0.00556636
-0.00780766
0.00679377
-0.00135895
0.00755609
0.00663598
0.00836677
0.012834
0.0102379
0.0107614
0.0126758
0.00216032
0.0142339
-0.00901334
-0.0151751
0.0148622
-6.27937e-05
0.00488106
0.000138467
0.00821535
0.000721598
0.0104506
0.00173342
0.00186814
0.0026876
-0.00788016
0.00333907
-0.0141711
0.0037179
-0.0169825
0.00391118
-0.0175852
0.00402346
-0.0170136
0.00408385
-0.0157679
0.00399278
-0.0146623
0.00426691
-0.0133613
0.00537225
-0.00891301
0.00651454
-0.00250124
0.00730566
0.00584487
0.00844721
0.0116924
0.0106735
0.00853504
0.0131623
-0.000328422
0.0145997
-0.0104508
-0.0156237
0.0150484
-3.43826e-05
0.00491544
0.000202244
0.00797873
0.000846439
0.00980642
0.00189995
0.000814627
0.00283411
-0.00881432
0.00344788
-0.0147849
0.00379295
-0.0173276
0.00397257
-0.0177648
0.00407143
-0.0171125
0.00415803
-0.0158545
0.00409087
-0.0145952
0.00419253
-0.0134629
0.00507783
-0.00979831
0.00610663
-0.00353004
0.00696817
0.00498332
0.0085416
0.010119
0.0111607
0.00591597
0.0136041
-0.00277183
0.0148521
-0.0116988
-0.0159176
0.015146
-5.72054e-06
0.00492116
0.00026193
0.00771108
0.000967104
0.00910124
0.00205976
-0.000278027
0.00296943
-0.00972399
0.00354488
-0.0153603
0.00385867
-0.0176414
0.0040261
-0.0179322
0.00411809
-0.0172045
0.00421691
-0.0159533
0.00419494
-0.0145732
0.00415328
-0.0134213
0.00472022
-0.0103653
0.00558253
-0.00439235
0.00660436
0.00396149
0.00869121
0.00803216
0.0116315
0.00297567
0.0139438
-0.00508414
0.0149717
-0.0127267
-0.0160926
0.0151468
1.71158e-05
0.00490404
0.000316933
0.00741126
0.001083
0.00833518
0.00221119
-0.00140623
0.00309234
-0.0106051
0.00362937
-0.0158973
0.00391483
-0.0179269
0.00407089
-0.0180883
0.00416379
-0.0172974
0.00426639
-0.0160559
0.00429846
-0.0146053
0.00417619
-0.013299
0.00439518
-0.0105842
0.00504431
-0.00504148
0.00635064
0.00265516
0.00898644
0.00539635
0.0120641
-0.000101986
0.0141455
-0.00716557
0.0149516
-0.0135328
-0.0161968
0.0150559
3.80338e-05
0.00486601
0.00036721
0.00708208
0.00119443
0.00750796
0.00235292
-0.00256472
0.00320194
-0.0114541
0.00370099
-0.0163964
0.00396104
-0.0181869
0.00410715
-0.0182344
0.00420701
-0.0173972
0.00431303
-0.0161619
0.00439595
-0.0146882
0.00427793
-0.013181
0.00424166
-0.010548
0.00472331
-0.00552314
0.00640486
0.000973606
0.00947088
0.00233034
0.012426
-0.00305715
0.0141879
-0.00892741
0.014798
-0.0141429
-0.0162859
0.014887
5.59296e-05
0.00481008
0.000413199
0.00672481
0.0013026
0.00661856
0.00248388
-0.00374599
0.00329756
-0.0122678
0.00375963
-0.0168585
0.00399703
-0.0184243
0.00413566
-0.018373
0.00424533
-0.0175069
0.00436099
-0.0162776
0.0044854
-0.0148126
0.00445154
-0.0131471
0.00437227
-0.0104687
0.0048686
-0.00601946
0.00689589
-0.00105369
0.0100641
-0.000837838
0.0126484
-0.00564144
0.014061
-0.01034
0.0145328
-0.0146147
-0.0164126
0.0146595
6.969e-05
0.00474039
0.000455684
0.00633882
0.00140927
0.00566496
0.0026032
-0.00493992
0.00337883
-0.0130435
0.00380535
-0.017285
0.00402281
-0.0186418
0.00415702
-0.0185072
0.00427696
-0.0176269
0.00441029
-0.0164109
0.00456817
-0.0149705
0.0046602
-0.0132391
0.00476241
-0.0105709
0.00548854
-0.00674559
0.00768825
-0.0032534
0.0105748
-0.00372439
0.0126596
-0.00772621
0.0137778
-0.0114583
0.0141916
-0.0150285
-0.0166148
0.0143938
7.84427e-05
0.00466195
0.000495586
0.00592168
0.0015162
0.00464435
0.00271023
-0.00613395
0.00344556
-0.0137788
0.00383841
-0.0176778
0.0040387
-0.0188421
0.00417132
-0.0186399
0.00430164
-0.0177572
0.00445777
-0.0165671
0.00464822
-0.0151609
0.00486124
-0.0134521
0.00523743
-0.0109471
0.00626107
-0.00776924
0.00840933
-0.00540165
0.0108091
-0.00612411
0.012445
-0.00936211
0.0133847
-0.0123981
0.0138158
-0.0154596
-0.0169096
0.0141106
8.16012e-05
0.00458035
0.000533772
0.00546951
0.00162448
0.00355364
0.00280446
-0.00731393
0.00349783
-0.0144722
0.00385923
-0.0180392
0.00404516
-0.019028
0.00417841
-0.0187731
0.00431995
-0.0178987
0.00449972
-0.0167468
0.00472758
-0.0153888
0.00503591
-0.0137605
0.00562249
-0.0115337
0.00682071
-0.00896745
0.0087659
-0.00734685
0.0107209
-0.00807911
0.0120756
-0.0107168
0.0129499
-0.0132723
0.0134404
-0.01595
-0.0172939
0.0138247
7.9138e-05
0.00450121
0.000571034
0.00497761
0.00173398
0.0023907
0.00288551
-0.00846546
0.00353587
-0.0151225
0.00386839
-0.0183717
0.00404269
-0.0192023
0.00417834
-0.0189088
0.00433214
-0.0180525
0.00453434
-0.016949
0.0048018
-0.0156562
0.00518171
-0.0141404
0.00586663
-0.0122186
0.00707713
-0.0101779
0.00878565
-0.00905537
0.0104459
-0.00973933
0.0116651
-0.011936
0.0125303
-0.0141376
0.0130837
-0.0165033
-0.0177533
0.013543
7.19238e-05
0.00442929
0.000608322
0.00444121
0.00184307
0.00115595
0.0029531
-0.0095755
0.00356015
-0.0157296
0.00386654
-0.0186781
0.00403177
-0.0193675
0.00417134
-0.0190483
0.00433791
-0.0182191
0.00456132
-0.0171725
0.00486461
-0.0159595
0.00529768
-0.0145735
0.00601412
-0.012935
0.00716199
-0.0113258
0.00867046
-0.0105638
0.0101428
-0.0112117
0.0112852
-0.0130784
0.0121468
-0.0149993
0.0127479
-0.0171044
-0.0182718
0.0132664
6.1982e-05
0.0043673
0.000647166
0.00385603
0.0019488
-0.000145682
0.00300713
-0.0106338
0.00357128
-0.0162937
0.00385445
-0.0189613
0.00401295
-0.019526
0.00415767
-0.019193
0.00433695
-0.0183984
0.00458023
-0.0174157
0.00491316
-0.0162925
0.00538446
-0.0150448
0.00611047
-0.0136611
0.0071895
-0.0124049
0.00853952
-0.0119139
0.00986864
-0.0125408
0.0109447
-0.0141545
0.0117947
-0.0158492
0.012429
-0.0177387
-0.0188363
0.0129935
5.24634e-05
0.00431484
0.000690034
0.00321846
0.00204759
-0.00150324
0.00304767
-0.0116339
0.00357009
-0.0168161
0.00383292
-0.0192241
0.00398679
-0.0196799
0.00413754
-0.0193438
0.00432912
-0.0185899
0.00459041
-0.017677
0.00494725
-0.0166493
0.00544478
-0.0155423
0.00617034
-0.0143866
0.00718635
-0.0134209
0.00840729
-0.0131348
0.00961749
-0.013751
0.0106322
-0.0151691
0.0114668
-0.0166839
0.0121234
-0.0183953
-0.0194363
0.0127233
4.71768e-05
0.00426766
0.000740282
0.00252535
0.00213611
-0.00289907
0.00307506
-0.0125729
0.0035575
-0.0172986
0.00380275
-0.0194694
0.00395382
-0.0198309
0.00411117
-0.0195011
0.00431438
-0.0187932
0.00459145
-0.0179541
0.00496704
-0.0170249
0.00548125
-0.0160565
0.00619813
-0.0151035
0.00715504
-0.0143778
0.00826964
-0.0142494
0.00938116
-0.0148625
0.0103405
-0.0161285
0.0111587
-0.0175021
0.0118286
-0.0190652
-0.0200621
0.0124545
4.97354e-05
0.00421793
0.000801463
0.00177362
0.00221197
-0.00430957
0.00308984
-0.0134507
0.00353456
-0.0177433
0.00376478
-0.0196996
0.00391457
-0.0199807
0.00407878
-0.0196654
0.00429271
-0.0190071
0.00458318
-0.0182446
0.00497284
-0.0174145
0.00549622
-0.0165799
0.00619907
-0.0158063
0.00710127
-0.01528
0.00812752
-0.0152757
0.00915601
-0.015891
0.0100652
-0.0170377
0.0108661
-0.0183029
0.0115418
-0.0197409
-0.020706
0.0121857
6.26261e-05
0.0041553
0.00087606
0.000960191
0.00227412
-0.00570763
0.00309275
-0.0142693
0.00350231
-0.0181529
0.00371979
-0.0199171
0.00386951
-0.0201305
0.00404059
-0.0198364
0.00426414
-0.0192306
0.00456564
-0.0185461
0.0049652
-0.0178141
0.00549186
-0.0171066
0.00617735
-0.0164918
0.00702929
-0.0161319
0.00798108
-0.0162274
0.00893851
-0.0168484
0.00980251
-0.0179017
0.0105853
-0.0190857
0.0112604
-0.0204161
-0.021362
0.0119164
8.64023e-05
0.0040689
0.00096413
8.24636e-05
0.0023226
-0.00706611
0.00308463
-0.0150314
0.0034618
-0.01853
0.00366855
-0.0201238
0.00381911
-0.020281
0.00399682
-0.0200141
0.00422874
-0.0194626
0.00453894
-0.0188563
0.00494478
-0.0182199
0.00547011
-0.0176319
0.00613609
-0.0171578
0.00694191
-0.0169377
0.0078301
-0.0171156
0.00872591
-0.0177442
0.00954934
-0.0187251
0.010313
-0.0198493
0.0109825
-0.0210856
-0.0220264
0.0116469
0.000119287
0.00394961
0.00106258
-0.000860828
0.0023581
-0.00836162
0.00306635
-0.0157396
0.00341399
-0.0188777
0.00361174
-0.0203216
0.00376376
-0.020433
0.00394766
-0.020198
0.00418664
-0.0197015
0.00450331
-0.0191729
0.00491227
-0.0186289
0.00543272
-0.0181523
0.00607793
-0.017803
0.00684144
-0.0177012
0.00767457
-0.0179488
0.00851619
-0.0185859
0.00930336
-0.0195123
0.0100463
-0.0205923
0.0107067
-0.021746
-0.0226976
0.011378
0.000157659
0.00379195
0.00116555
-0.00186872
0.00238151
-0.00957759
0.00303877
-0.0163969
0.00335977
-0.0191987
0.00355
-0.0205118
0.00370383
-0.0205869
0.00389332
-0.0203875
0.00413799
-0.0199462
0.00445905
-0.019494
0.00486839
-0.0190382
0.00538126
-0.0186652
0.00600496
-0.0184267
0.00672962
-0.0184259
0.00751434
-0.0187335
0.00830783
-0.0193793
0.00906245
-0.0202669
0.00978289
-0.0213127
0.0104334
-0.0223965
-0.0233717
0.0111075
0.000197316
0.00359464
0.0012659
-0.00293731
0.00239365
-0.0107053
0.00300275
-0.017006
0.00329993
-0.0194959
0.00348387
-0.0206958
0.00363964
-0.0207426
0.00383398
-0.0205819
0.00408297
-0.0201952
0.00440649
-0.0198175
0.00481388
-0.0194456
0.00531706
-0.0191684
0.00591894
-0.0190286
0.00660782
-0.0191148
0.00734928
-0.0194749
0.00809978
-0.0201298
0.00882461
-0.0209917
0.00952101
-0.0220091
0.0101631
-0.0230386
-0.0240462
0.0108375
0.0002349
0.00335974
0.00135711
-0.00405951
0.00239521
-0.0117434
0.00295917
-0.0175699
0.0032352
-0.0197719
0.00341386
-0.0208744
0.0035715
-0.0209003
0.00376984
-0.0207802
0.00402178
-0.0204471
0.00434597
-0.0201417
0.00474942
-0.0198491
0.00524131
-0.0196603
0.00582132
-0.0196086
0.00647708
-0.0197705
0.00717936
-0.0201772
0.00789131
-0.0208418
0.00858789
-0.0216883
0.00925958
-0.0226808
0.00989704
-0.023676
-0.0247008
0.0105517
0.000268883
0.00309085
0.00143465
-0.00522528
0.00238695
-0.0126958
0.00290887
-0.0180919
0.00316614
-0.0200292
0.00334027
-0.0210485
0.00349953
-0.0210595
0.00370093
-0.0209816
0.00395448
-0.0207007
0.00427771
-0.0204649
0.00467549
-0.0202469
0.00515486
-0.0201397
0.0057131
-0.0201668
0.00633799
-0.0203954
0.00700435
-0.0208436
0.00768148
-0.0215189
0.00835044
-0.0223573
0.00899732
-0.0233277
0.00962599
-0.0243047
-0.0253495
0.0102746
0.000299794
0.00279106
0.00149661
-0.00642209
0.00236994
-0.0135691
0.00285287
-0.0185748
0.00309351
-0.0202698
0.00326369
-0.0212187
0.00342421
-0.02122
0.00362772
-0.0211851
0.00388161
-0.0209546
0.0042024
-0.0207857
0.00459309
-0.0206375
0.00505898
-0.0206055
0.00559571
-0.0207036
0.00619164
-0.0209914
0.00682485
-0.0214768
0.00747007
-0.0221641
0.00811191
-0.0229991
0.00873736
-0.0239531
0.00935496
-0.0249223
-0.0259684
0.00997395
0.00032978
0.00246128
0.00154315
-0.00763546
0.00234521
-0.0143711
0.00279194
-0.0190215
0.00301771
-0.0204956
0.00318432
-0.0213853
0.00334562
-0.0213813
0.00355023
-0.0213897
0.00380325
-0.0212076
0.00412026
-0.0211027
0.00450261
-0.0210199
0.00495429
-0.0210572
0.00546981
-0.0212191
0.00603836
-0.0215599
0.00664071
-0.0220791
0.00725621
-0.0227796
0.00787191
-0.0236148
0.0084765
-0.0245577
0.00908021
-0.025526
-0.0265692
0.009681
0.000361806
0.00209947
0.00157575
-0.0088494
0.00231386
-0.0151093
0.00272684
-0.0194345
0.00293919
-0.0207079
0.00310242
-0.0215486
0.00326393
-0.0215429
0.00346864
-0.0215944
0.00371963
-0.0214586
0.00403164
-0.0214148
0.0044046
-0.0213929
0.0048415
-0.0214941
0.00533614
-0.0217137
0.00587862
-0.0221024
0.00645203
-0.0226525
0.00703954
-0.0233671
0.00762982
-0.0242051
0.0082141
-0.025142
0.00880102
-0.0261129
-0.0271516
0.00938341
0.000398856
0.00170062
0.00159635
-0.0100469
0.00227687
-0.0157898
0.00265823
-0.0198159
0.00285834
-0.020908
0.00301822
-0.0217084
0.00317932
-0.021704
0.00338312
-0.0217982
0.00363099
-0.0217064
0.00393691
-0.0217207
0.00429957
-0.0217555
0.00472124
-0.0219158
0.00519531
-0.0221878
0.00571283
-0.0226199
0.00625888
-0.0231986
0.00681972
-0.023928
0.00738539
-0.0247708
0.00794941
-0.025706
0.0085169
-0.0266804
-0.0277185
0.0090838
0.000443243
0.00125737
0.0016069
-0.0112106
0.00223505
-0.0164179
0.00258667
-0.0201675
0.00277548
-0.0210968
0.0029319
-0.0218649
0.00309193
-0.021864
0.00329383
-0.0220001
0.00353757
-0.0219502
0.0038364
-0.0220195
0.00418797
-0.0221071
0.00459407
-0.0223219
0.00504787
-0.0226416
0.00554135
-0.0231134
0.00606135
-0.0237186
0.00659658
-0.0244632
0.00713839
-0.0253126
0.00768144
-0.0262491
0.00822966
-0.0272287
-0.0282685
0.00877966
0.000496077
0.000761297
0.00160904
-0.0123235
0.00218905
-0.0169979
0.00251264
-0.0204911
0.00269087
-0.0212751
0.00284363
-0.0220176
0.00300189
-0.0220222
0.00320095
-0.0221992
0.0034396
-0.0221888
0.00373043
-0.0223103
0.00407025
-0.0224469
0.00446049
-0.0227121
0.00489429
-0.0230754
0.00536452
-0.0235836
0.00585953
-0.0242136
0.00637005
-0.0249737
0.00688837
-0.0258309
0.00741058
-0.0267713
0.00793867
-0.0277567
-0.0288009
0.0084711
0.00055686
0.000204437
0.0016041
-0.0133708
0.00213934
-0.0175332
0.00243653
-0.0207883
0.00260475
-0.0214433
0.00275355
-0.0221664
0.00290933
-0.022178
0.00310462
-0.0223945
0.00333732
-0.0224215
0.00361934
-0.0225924
0.00394681
-0.0227744
0.00432096
-0.0230863
0.00473501
-0.0234894
0.00518263
-0.0240312
0.00565352
-0.0246845
0.00614001
-0.0254602
0.00663538
-0.0263263
0.00713627
-0.0272722
0.0076442
-0.0282647
-0.029315
0.00815826
0.000623287
-0.00041885
0.00159299
-0.0143405
0.00208625
-0.0180264
0.00235863
-0.0210607
0.00251732
-0.021602
0.00266178
-0.0223109
0.00281438
-0.0223306
0.00300502
-0.0225851
0.00323094
-0.0226475
0.00350341
-0.0228648
0.00381802
-0.023089
0.00417589
-0.0234442
0.0045704
-0.0238839
0.00499597
-0.0244568
0.00544344
-0.025132
0.0059065
-0.0259233
0.0063791
-0.0267989
0.00685876
-0.0277518
0.00734627
-0.0287522
-0.0298098
0.00784103
0.000691383
-0.00111023
0.00157633
-0.0152254
0.00203004
-0.0184801
0.00227921
-0.0213098
0.00242873
-0.0217515
0.00256842
-0.0224506
0.00271714
-0.0224793
0.0029023
-0.0227703
0.00312069
-0.0228658
0.00338293
-0.0231271
0.00368423
-0.0233903
0.00402567
-0.0237856
0.00440081
-0.0242591
0.00480477
-0.0248608
0.00522941
-0.0255566
0.00566948
-0.0263634
0.00611965
-0.027249
0.00657789
-0.0282101
0.00704462
-0.0292189
-0.0302847
0.00751959
0.000756086
-0.00186632
0.00155445
-0.0160238
0.00197093
-0.0188966
0.00219846
-0.0215374
0.00233912
-0.0218922
0.00247357
-0.022585
0.00261773
-0.0226235
0.00279662
-0.0229492
0.00300678
-0.023076
0.00325818
-0.0233785
0.00354578
-0.0236779
0.00387064
-0.0241105
0.00422656
-0.024615
0.00460929
-0.0252435
0.00501156
-0.0259589
0.00542904
-0.0267808
0.00585692
-0.0276769
0.00629369
-0.0286468
0.00673952
-0.0296648
-0.0307392
0.00719399
0.00081231
-0.00267863
0.00152753
-0.016739
0.00190915
-0.0192782
0.00211658
-0.0217448
0.0022486
-0.0220242
0.00237733
-0.0227138
0.00251626
-0.0227624
0.00268813
-0.0231211
0.00288941
-0.0232773
0.00312942
-0.0236185
0.00340296
-0.0239514
0.00371112
-0.0244186
0.00404795
-0.0249518
0.00440975
-0.0256053
0.00479004
-0.0263392
0.00518521
-0.027176
0.00559097
-0.0280827
0.00600621
-0.0290621
0.00643074
-0.0300893
-0.0311728
0.00686428
0.000856058
-0.00353469
0.00149578
-0.0173787
0.00184498
-0.0196274
0.0020337
-0.0219335
0.00215727
-0.0221478
0.00227976
-0.0228362
0.00241283
-0.0228955
0.00257698
-0.0232852
0.0027688
-0.0234691
0.0029969
-0.0238466
0.00325607
-0.0242106
0.00354741
-0.02471
0.00386524
-0.0252697
0.00420637
-0.0259464
0.00456499
-0.0266978
0.0049381
-0.0275491
0.00532184
-0.0284664
0.00571542
-0.0294557
0.0061185
-0.0304924
-0.0315849
0.0065306
0.000885275
-0.00441996
0.00145951
-0.017953
0.00177872
-0.0199466
0.00194999
-0.0221048
0.00206521
-0.022263
0.00218095
-0.022952
0.00230754
-0.0230221
0.00246332
-0.023441
0.00264513
-0.0236509
0.00286086
-0.0240623
0.00310538
-0.0244551
0.0033798
-0.0249844
0.00367871
-0.0255686
0.00399937
-0.0262671
0.00433657
-0.027035
0.00468779
-0.0279003
0.00504958
-0.0288282
0.00542145
-0.0298275
0.00580272
-0.0308736
-0.0319751
0.00619297
0.00090006
-0.00532002
0.00141918
-0.0184721
0.00171068
-0.0202381
0.00186558
-0.0222597
0.0019725
-0.0223699
0.00208098
-0.0230605
0.00220051
-0.0231416
0.0023473
-0.0235878
0.0025186
-0.0238222
0.00272154
-0.0242652
0.00295114
-0.0246847
0.00320855
-0.0252418
0.0034886
-0.0258486
0.00378896
-0.0265675
0.00410492
-0.027351
0.00443441
-0.0282298
0.00477431
-0.0291681
0.00512429
-0.0301775
0.00548357
-0.0312329
-0.0323431
0.0058516
0.000902186
-0.00622221
0.00137532
-0.0189452
0.00164118
-0.020504
0.00178059
-0.0223991
0.00187921
-0.0224685
0.00197992
-0.0231612
0.00209183
-0.0232535
0.00222906
-0.023725
0.00238939
-0.0239826
0.00257914
-0.024455
0.00279362
-0.0248992
0.0030339
-0.0254821
0.00329514
-0.0261099
0.00357532
-0.0268476
0.00387022
-0.0276459
0.00417809
-0.0285377
0.00449609
-0.0294861
0.00482411
-0.0305055
0.0051611
-0.0315699
-0.0326886
0.00550656
0.000894258
-0.00711647
0.00132845
-0.0193794
0.00157049
-0.020746
0.00169514
-0.0225237
0.00178539
-0.0225588
0.00187784
-0.0232536
0.00198161
-0.0233573
0.00210875
-0.0238522
0.00225769
-0.0241315
0.0024339
-0.0246312
0.00263303
-0.0250983
0.00285611
-0.0257052
0.00309855
-0.0263523
0.00335867
-0.0271078
0.00363263
-0.0279198
0.00391894
-0.028824
0.00421507
-0.0297822
0.00452096
-0.0308114
0.00483546
-0.0318844
-0.0330112
0.00515809
0.00087892
-0.00799539
0.00127909
-0.0197796
0.00149887
-0.0209658
0.00160933
-0.0226342
0.00169111
-0.0226406
0.00177481
-0.0233373
0.00186996
-0.0234524
0.00198651
-0.0239687
0.00212366
-0.0242686
0.002286
-0.0247935
0.00246961
-0.0252819
0.00267539
-0.025911
0.00289907
-0.026576
0.00313919
-0.0273479
0.0033923
-0.0281729
0.00365712
-0.0290888
0.00393134
-0.0300565
0.004215
-0.0310951
0.00450678
-0.0321762
-0.0333108
0.00480631
0.000858356
-0.00885374
0.00122768
-0.0201489
0.00142655
-0.0211647
0.00152325
-0.0227309
0.00159641
-0.0227137
0.00167091
-0.0234118
0.00175696
-0.0235385
0.00186247
-0.0240742
0.00198748
-0.0243936
0.00213565
-0.0249417
0.00230356
-0.0254498
0.00249197
-0.0260994
0.00269689
-0.0267809
0.00291709
-0.0275681
0.00314942
-0.0284053
0.00339278
-0.0293322
0.00364507
-0.0303087
0.00390634
-0.0313564
0.00417523
-0.0324451
-0.033587
0.00445148
0.00083414
-0.00968788
0.0011746
-0.0204893
0.0013537
-0.0213438
0.001437
-0.0228142
0.00150135
-0.0227781
0.00156619
-0.0234767
0.00164274
-0.023615
0.00173678
-0.0241683
0.00184931
-0.0245062
0.00198305
-0.0250755
0.00213511
-0.0256019
0.00230606
-0.0262703
0.00249222
-0.0269671
0.00269254
-0.0277684
0.00290416
-0.0286169
0.00312608
-0.0295541
0.00335639
-0.0305391
0.00359517
-0.0315951
0.003841
-0.0326909
-0.0338398
0.00409378
0.000807319
-0.0104952
0.00112017
-0.0208022
0.00128048
-0.0215041
0.00135063
-0.0228844
0.00140598
-0.0228334
0.00146075
-0.0235314
0.00152738
-0.0236817
0.00160956
-0.0242504
0.00170931
-0.0246059
0.00182838
-0.0251945
0.00196445
-0.025738
0.00211786
-0.0264237
0.00228527
-0.0271345
0.00246575
-0.0279489
0.00265668
-0.0288078
0.00285717
-0.0297546
0.00306548
-0.0307474
0.00328165
-0.0318113
0.00350429
-0.0329135
-0.034069
0.00373347
0.000778571
-0.0112738
0.00106469
-0.0210883
0.00120706
-0.0216465
0.00126423
-0.0229415
0.00131034
-0.0228795
0.00135464
-0.0235757
0.00141099
-0.023738
0.00148095
-0.0243204
0.00156765
-0.0246926
0.00167181
-0.0252987
0.00179176
-0.0258579
0.00192758
-0.0265595
0.00207624
-0.0272831
0.00223689
-0.0281095
0.00240717
-0.0289781
0.00258624
-0.0299337
0.0027725
-0.0309336
0.00296596
-0.0320048
0.00316531
-0.0331129
-0.0342744
0.00337077
0.000748347
-0.0120221
0.0010084
-0.0213484
0.00113353
-0.0217716
0.00117785
-0.0229858
0.0012145
-0.0229162
0.00124795
-0.0236092
0.00129368
-0.0237838
0.00135109
-0.0243778
0.00142448
-0.024766
0.00151353
-0.0253877
0.00161725
-0.0259616
0.00173541
-0.0266777
0.0018653
-0.027413
0.00200616
-0.0282504
0.00215581
-0.0291277
0.00231346
-0.0300913
0.00247764
-0.0310978
0.00264832
-0.0321755
0.00282428
-0.0332888
-0.0344561
0.00300593
0.000716965
-0.0127391
0.000951502
-0.0215829
0.00106002
-0.0218801
0.00109154
-0.0230174
0.00111849
-0.0229431
0.00114073
-0.0236314
0.00117554
-0.0238186
0.00122009
-0.0244224
0.00127995
-0.0248259
0.00135371
-0.0254615
0.00144109
-0.026049
0.00154153
-0.0267781
0.00165266
-0.0275242
0.00177374
-0.0283715
0.00190278
-0.0292568
0.00203902
-0.0302275
0.00218109
-0.0312399
0.00232893
-0.0323233
0.00248145
-0.0334414
-0.0346138
0.00263921
0.000684671
-0.0134238
0.000894191
-0.0217924
0.000986623
-0.0219725
0.00100535
-0.0230361
0.00102238
-0.0229601
0.00103307
-0.0236421
0.00105668
-0.0238422
0.00108808
-0.0244538
0.00113421
-0.024872
0.00119251
-0.0255198
0.00126347
-0.02612
0.00134614
-0.0268608
0.0014385
-0.0276165
0.00153982
-0.0284728
0.00164828
-0.0293652
0.0017631
-0.0303424
0.00188304
-0.0313598
0.00200801
-0.0324483
0.00213706
-0.0335704
-0.0347476
0.00227083
0.000651663
-0.0140754
0.000836632
-0.0219774
0.000913417
-0.0220493
0.000919335
-0.023042
0.000926212
-0.022967
0.000925048
-0.023641
0.000937197
-0.0238543
0.000955173
-0.0244717
0.000987426
-0.0249043
0.00103007
-0.0255624
0.00108456
-0.0261744
0.0011494
-0.0269256
0.00122301
-0.0276901
0.00130458
-0.0285544
0.00139247
-0.0294531
0.0014859
-0.0304358
0.0015837
-0.0314576
0.00168576
-0.0325503
0.00179135
-0.033676
-0.0348573
0.00190103
0.000618111
-0.0146935
0.000778968
-0.0221383
0.000840481
-0.0221108
0.000833528
-0.0230351
0.000830051
-0.0229636
0.000816716
-0.0236276
0.000817208
-0.0238548
0.000821483
-0.024476
0.000839742
-0.0249225
0.000866554
-0.0255893
0.000904552
-0.0262124
0.000951509
-0.0269726
0.00100637
-0.027745
0.00106821
-0.0286162
0.00113556
-0.0295205
0.0012076
-0.0305078
0.00128327
-0.0315333
0.00136241
-0.0326295
0.00144453
-0.0337581
-0.0349428
0.00153006
0.000584159
-0.0152777
0.000721324
-0.0222754
0.000767882
-0.0221574
0.000747968
-0.0230151
0.000733959
-0.0229495
0.000708136
-0.0236018
0.000696823
-0.0238435
0.000687116
-0.0244663
0.000691298
-0.0249267
0.000702115
-0.0256001
0.000723599
-0.0262339
0.000752628
-0.0270016
0.000788752
-0.0277811
0.000830892
-0.0286583
0.000877731
-0.0295673
0.000928422
-0.0305585
0.00098198
-0.0315868
0.00103821
-0.0326857
0.00109674
-0.0338167
-0.0350043
0.00115818
0.000549933
-0.0158276
0.000663808
-0.0223893
0.000695681
-0.0221893
0.000662685
-0.0229821
0.000638006
-0.0229249
0.00059936
-0.0235632
0.000576152
-0.0238203
0.000552189
-0.0244423
0.0005422
-0.0249167
0.000536962
-0.0255948
0.000541812
-0.0262388
0.000552949
-0.0270128
0.00057032
-0.0277985
0.000592812
-0.0286808
0.000619157
-0.0295937
0.000648549
-0.0305879
0.000680024
-0.0316183
0.000713425
-0.0327191
0.000748159
-0.0338514
-0.0350417
0.000785624
0.000515545
-0.0163432
0.000606514
-0.0224803
0.000623935
-0.0222067
0.000577703
-0.0229359
0.000542264
-0.0228894
0.000490446
-0.0235113
0.000455287
-0.0237851
0.000416831
-0.0244039
0.000392564
-0.0248925
0.000371262
-0.0255735
0.000359311
-0.0262268
0.000352642
-0.0270061
0.000351231
-0.0277971
0.000354132
-0.0286837
0.000360026
-0.0295996
0.000368162
-0.0305961
0.000377596
-0.0316277
0.000388275
-0.0327298
0.000399292
-0.0338624
-0.0350547
0.000412304
0.000481065
-0.0168242
0.000549468
-0.0225487
0.00055263
-0.0222098
0.000492947
-0.0228762
0.000446695
-0.0228432
0.000381324
-0.023446
0.00033417
-0.023738
0.000280919
-0.0243506
0.000242491
-0.024854
0.000204662
-0.0255357
0.000176291
-0.0261985
0.000151371
-0.0269812
0.000131483
-0.0277772
0.000114557
-0.0286668
0.000100196
-0.0295852
8.69374e-05
-0.0305828
7.44384e-05
-0.0316152
6.20643e-05
-0.0327174
5.10758e-05
-0.0338514
-0.0350402
3.65782e-05
0.000446635
-0.0172709
0.000492838
-0.0225949
0.000481964
-0.022199
0.000408611
-0.0228029
0.000351593
-0.0227862
0.000272264
-0.0233666
0.000213362
-0.0236791
0.00014447
-0.0242817
9.32535e-05
-0.0248028
3.63622e-05
-0.0254788
-5.03443e-06
-0.0261571
-5.00461e-05
-0.0269362
-8.82192e-05
-0.027739
-0.000124575
-0.0286304
-0.000159347
-0.0295504
-0.000193606
-0.0305485
-0.000228024
-0.0315808
-0.00026274
-0.0326827
-0.000298734
-0.0338154
-0.0350042
-0.000334743
0.000412304
-0.0176832
0.000436622
-0.0226192
0.00041192
-0.0221743
0.000324596
-0.0227156
0.000256979
-0.0227185
0.000162864
-0.0232725
9.35854e-05
-0.0236098
3.88239e-06
-0.024192
-5.69543e-05
-0.024742
-0.000128083
-0.0254077
-0.000190795
-0.0260944
-0.000250102
-0.0268769
-0.000308035
-0.0276811
-0.000363619
-0.0285749
-0.000418807
-0.0294952
-0.000474079
-0.0304933
-0.000530294
-0.0315246
-0.000587754
-0.0326252
-0.000647538
-0.0337556
-0.034945
-0.000706734
0.00037814
-0.0180613
0.000380856
-0.0226219
0.000342556
-0.022136
0.000240849
-0.0226138
0.000163179
-0.0226409
5.18047e-05
-0.0231611
-2.53858e-05
-0.0235326
-0.000125972
-0.0240915
-0.000209935
-0.024658
-0.000293195
-0.0253244
-0.000374523
-0.026013
-0.000451038
-0.0268003
-0.00052754
-0.0276046
-0.000602679
-0.0284997
-0.000678038
-0.0294199
-0.000754306
-0.030417
-0.000832236
-0.0314467
-0.000912472
-0.032545
-0.00099539
-0.0336727
-0.0348618
-0.00107858
0.000344208
-0.0184055
0.000325563
-0.0226033
0.000273935
-0.0220843
0.000157124
-0.022497
7.11035e-05
-0.0225548
-5.52086e-05
-0.0230348
-0.000150656
-0.0234371
-0.000259269
-0.0239828
-0.000361282
-0.024556
-0.00045909
-0.0252266
-0.000557558
-0.0259146
-0.000652028
-0.0267059
-0.000746807
-0.0275098
-0.000841419
-0.0284051
-0.000936863
-0.0293244
-0.00103403
-0.0303198
-0.00113361
-0.0313471
-0.00123645
-0.0324421
-0.00134236
-0.0335668
-0.0347544
-0.00144976
0.000310566
-0.0187161
0.00027075
-0.0225635
0.000206182
-0.0220198
7.25041e-05
-0.0223634
-1.99362e-05
-0.0224624
-0.000158773
-0.022896
-0.000273201
-0.0233227
-0.000393279
-0.0238628
-0.000511668
-0.0244376
-0.000625154
-0.0251131
-0.000740113
-0.0257996
-0.000852685
-0.0265933
-0.000965704
-0.0273968
-0.00107964
-0.0282912
-0.00119509
-0.029209
-0.00131305
-0.0302019
-0.00143419
-0.031226
-0.00155941
-0.0323169
-0.00168831