/*--------------------------------*- C++ -*----------------------------------*\
  =========                 |
  \\      /  F ield         | OpenFOAM: The Open Source CFD Toolbox
   \\    /   O peration     | Website:  https://openfoam.org
    \\  /    A nd           | Version:  7
     \\/     M anipulation  |
\*---------------------------------------------------------------------------*/
FoamFile
{
    version     2.0;
    format      ascii;
    class       surfaceScalarField;
    location    "0.061";
    object      phi;
}
// * * * * * * * * * * * * * * * * * * * * * * * * * * * * * * * * * * * * * //

dimensions      [0 3 -1 0 0 0 0];

internalField   nonuniform List<scalar> 
79600
(
5.29753e-13
-1.68964e-12
1.17479e-11
-1.12138e-11
3.02695e-11
-1.85259e-11
5.263e-11
-2.23664e-11
7.60305e-11
-2.34043e-11
9.83636e-11
-2.23315e-11
1.18068e-10
-1.96994e-11
1.34003e-10
-1.59321e-11
1.45343e-10
-1.13395e-11
1.51495e-10
-6.15294e-12
1.52041e-10
-5.46507e-13
1.46691e-10
5.34964e-12
1.35256e-10
1.14331e-11
1.17629e-10
1.76252e-11
9.37638e-11
2.38643e-11
6.36631e-11
3.01006e-11
2.73699e-11
3.62937e-11
-1.50394e-11
4.24109e-11
-6.34643e-11
4.84266e-11
-1.17782e-10
5.43192e-11
-1.77854e-10
6.00717e-11
-2.43525e-10
6.56706e-11
-3.14628e-10
7.11038e-11
-3.90992e-10
7.63623e-11
-4.7243e-10
8.14384e-11
-5.58757e-10
8.63256e-11
-6.49778e-10
9.10202e-11
-7.45294e-10
9.55174e-11
-8.45108e-10
9.98134e-11
-9.49018e-10
1.03908e-10
-1.05682e-09
1.078e-10
-1.16831e-09
1.11487e-10
-1.28327e-09
1.1497e-10
-1.40152e-09
1.18249e-10
-1.52284e-09
1.21321e-10
-1.64703e-09
1.2419e-10
-1.77389e-09
1.26858e-10
-1.90322e-09
1.29325e-10
-2.03481e-09
1.31592e-10
-2.16848e-09
1.33663e-10
-2.30402e-09
1.35539e-10
-2.44124e-09
1.37221e-10
-2.57995e-09
1.38712e-10
-2.71996e-09
1.40014e-10
-2.86109e-09
1.4113e-10
-3.00315e-09
1.4206e-10
-3.14596e-09
1.42809e-10
-3.28934e-09
1.43381e-10
-3.43312e-09
1.43777e-10
-3.57712e-09
1.44e-10
-3.72117e-09
1.44054e-10
-3.86512e-09
1.43941e-10
-4.00878e-09
1.43664e-10
-4.152e-09
1.43225e-10
-4.29463e-09
1.42628e-10
-4.43651e-09
1.41875e-10
-4.57748e-09
1.40972e-10
-4.7174e-09
1.3992e-10
-4.85612e-09
1.38722e-10
-4.9935e-09
1.37381e-10
-5.1294e-09
1.35901e-10
-5.26369e-09
1.34285e-10
-5.39622e-09
1.32536e-10
-5.52688e-09
1.30656e-10
-5.65553e-09
1.28649e-10
-5.78205e-09
1.26518e-10
-5.90632e-09
1.24267e-10
-6.02822e-09
1.219e-10
-6.14763e-09
1.19419e-10
-6.26446e-09
1.16826e-10
-6.37858e-09
1.14125e-10
-6.4899e-09
1.11319e-10
-6.59831e-09
1.08412e-10
-6.70372e-09
1.05406e-10
-6.80602e-09
1.02306e-10
-6.90514e-09
9.91133e-11
-7.00097e-09
9.58322e-11
-7.09344e-09
9.24661e-11
-7.18246e-09
8.90181e-11
-7.26795e-09
8.54913e-11
-7.34983e-09
8.18885e-11
-7.42805e-09
7.82124e-11
-7.50251e-09
7.44662e-11
-7.57316e-09
7.06537e-11
-7.63994e-09
6.67787e-11
-7.70279e-09
6.28449e-11
-7.76165e-09
5.88552e-11
-7.81646e-09
5.48126e-11
-7.86718e-09
5.072e-11
-7.91376e-09
4.65808e-11
-7.95616e-09
4.23984e-11
-7.99433e-09
3.81766e-11
-8.02825e-09
3.39188e-11
-8.05788e-09
2.96285e-11
-8.08319e-09
2.53089e-11
-8.10415e-09
2.09636e-11
-8.12075e-09
1.65959e-11
-8.13296e-09
1.22094e-11
-8.14076e-09
7.80727e-12
-8.14416e-09
3.39339e-12
-8.14313e-09
-1.02855e-12
-8.13767e-09
-5.45493e-12
-8.12779e-09
-9.88208e-12
-8.11348e-09
-1.43062e-11
-8.09476e-09
-1.87236e-11
-8.07163e-09
-2.31309e-11
-8.0441e-09
-2.75245e-11
-8.0122e-09
-3.19006e-11
-7.97595e-09
-3.62549e-11
-7.93536e-09
-4.05835e-11
-7.89048e-09
-4.4883e-11
-7.84133e-09
-4.91493e-11
-7.78795e-09
-5.33784e-11
-7.73039e-09
-5.75663e-11
-7.66868e-09
-6.1709e-11
-7.60287e-09
-6.58029e-11
-7.53303e-09
-6.9844e-11
-7.4592e-09
-7.3828e-11
-7.38145e-09
-7.77508e-11
-7.29984e-09
-8.16083e-11
-7.21445e-09
-8.53964e-11
-7.12534e-09
-8.91111e-11
-7.03259e-09
-9.27484e-11
-6.93628e-09
-9.63044e-11
-6.83651e-09
-9.97748e-11
-6.73335e-09
-1.03156e-10
-6.62691e-09
-1.06442e-10
-6.51728e-09
-1.09631e-10
-6.40456e-09
-1.12718e-10
-6.28886e-09
-1.15699e-10
-6.17029e-09
-1.18569e-10
-6.04897e-09
-1.21325e-10
-5.925e-09
-1.23963e-10
-5.79853e-09
-1.26478e-10
-5.66966e-09
-1.28868e-10
-5.53853e-09
-1.31127e-10
-5.40528e-09
-1.33253e-10
-5.27004e-09
-1.3524e-10
-5.13295e-09
-1.37085e-10
-4.99417e-09
-1.38785e-10
-4.85383e-09
-1.40336e-10
-4.7121e-09
-1.41733e-10
-4.56912e-09
-1.42975e-10
-4.42507e-09
-1.44056e-10
-4.28009e-09
-1.44973e-10
-4.13437e-09
-1.45724e-10
-3.98806e-09
-1.46305e-10
-3.84135e-09
-1.46713e-10
-3.69441e-09
-1.46945e-10
-3.54741e-09
-1.46997e-10
-3.40055e-09
-1.46866e-10
-3.25399e-09
-1.46551e-10
-3.10795e-09
-1.46048e-10
-2.96259e-09
-1.45355e-10
-2.81812e-09
-1.4447e-10
-2.67473e-09
-1.4339e-10
-2.53262e-09
-1.42113e-10
-2.39198e-09
-1.40637e-10
-2.25302e-09
-1.38961e-10
-2.11594e-09
-1.37083e-10
-1.98094e-09
-1.35002e-10
-1.84822e-09
-1.32716e-10
-1.71799e-09
-1.30225e-10
-1.59046e-09
-1.27529e-10
-1.46584e-09
-1.24627e-10
-1.34432e-09
-1.21518e-10
-1.22612e-09
-1.18203e-10
-1.11143e-09
-1.14683e-10
-1.00047e-09
-1.10958e-10
-8.93444e-10
-1.0703e-10
-7.90542e-10
-1.02902e-10
-6.91967e-10
-9.85751e-11
-5.97915e-10
-9.40527e-11
-5.08576e-10
-8.93389e-11
-4.24137e-10
-8.44386e-11
-3.4478e-10
-7.93571e-11
-2.70679e-10
-7.41011e-11
-2.02001e-10
-6.86785e-11
-1.38902e-10
-6.30989e-11
-8.1528e-11
-5.73737e-11
-3.00116e-11
-5.15165e-11
1.55316e-11
-4.55435e-11
5.50046e-11
-3.94736e-11
8.83338e-11
-3.33299e-11
1.15474e-10
-2.71403e-11
1.36413e-10
-2.09392e-11
1.51181e-10
-1.47684e-11
1.59861e-10
-8.67916e-12
1.62596e-10
-2.73536e-12
1.59613e-10
2.98271e-12
1.51241e-10
8.37242e-12
1.37939e-10
1.33015e-11
1.20343e-10
1.75966e-11
9.93151e-11
2.10271e-11
7.60319e-11
2.32825e-11
5.20841e-11
2.3947e-11
2.95971e-11
2.24863e-11
1.13627e-11
1.8234e-11
8.30942e-13
1.05316e-11
8.30806e-13
1.06034e-11
-1.22891e-11
3.97903e-11
-4.04056e-11
8.20456e-11
-6.07701e-11
1.31262e-10
-7.15772e-11
1.81888e-10
-7.40302e-11
2.29269e-10
-6.97167e-11
2.69668e-10
-6.01044e-11
3.00163e-10
-4.64278e-11
3.18505e-10
-2.96803e-11
3.2299e-10
-1.06398e-11
3.1236e-10
1.00843e-11
2.85703e-10
3.20096e-11
2.42384e-10
5.47528e-11
1.82e-10
7.80109e-11
1.04327e-10
1.01539e-10
9.28855e-12
1.25138e-10
-1.03069e-10
1.48649e-10
-2.32597e-10
1.71939e-10
-3.79072e-10
1.949e-10
-5.42194e-10
2.17443e-10
-7.21616e-10
2.39493e-10
-9.16939e-10
2.60993e-10
-1.12772e-09
2.81891e-10
-1.35351e-09
3.02145e-10
-1.59379e-09
3.21724e-10
-1.84806e-09
3.40598e-10
-2.11579e-09
3.58746e-10
-2.39642e-09
3.76151e-10
-2.68941e-09
3.92797e-10
-2.99417e-09
4.08674e-10
-3.31015e-09
4.23775e-10
-3.63676e-09
4.38096e-10
-3.97342e-09
4.51631e-10
-4.31956e-09
4.64381e-10
-4.67458e-09
4.76346e-10
-5.03792e-09
4.87526e-10
-5.40898e-09
4.97924e-10
-5.7872e-09
5.07546e-10
-6.172e-09
5.16396e-10
-6.56282e-09
5.24479e-10
-6.95908e-09
5.31802e-10
-7.36024e-09
5.38375e-10
-7.76573e-09
5.44204e-10
-8.17502e-09
5.49297e-10
-8.58755e-09
5.53664e-10
-9.00281e-09
5.57315e-10
-9.42026e-09
5.60259e-10
-9.83938e-09
5.62504e-10
-1.02597e-08
5.64062e-10
-1.06806e-08
5.64944e-10
-1.11017e-08
5.65163e-10
-1.15225e-08
5.64728e-10
-1.19425e-08
5.6365e-10
-1.23612e-08
5.6194e-10
-1.27782e-08
5.59612e-10
-1.3193e-08
5.56676e-10
-1.36052e-08
5.53144e-10
-1.40143e-08
5.49027e-10
-1.44199e-08
5.44339e-10
-1.48216e-08
5.39091e-10
-1.5219e-08
5.33295e-10
-1.56117e-08
5.26964e-10
-1.59992e-08
5.2011e-10
-1.63813e-08
5.12744e-10
-1.67576e-08
5.0488e-10
-1.71276e-08
4.9653e-10
-1.7491e-08
4.87705e-10
-1.78475e-08
4.78419e-10
-1.81968e-08
4.68683e-10
-1.85385e-08
4.58511e-10
-1.88723e-08
4.47915e-10
-1.91979e-08
4.36909e-10
-1.95149e-08
4.25502e-10
-1.98233e-08
4.13709e-10
-2.01225e-08
4.01541e-10
-2.04124e-08
3.89012e-10
-2.06927e-08
3.76133e-10
-2.09631e-08
3.62919e-10
-2.12235e-08
3.4938e-10
-2.14735e-08
3.3553e-10
-2.1713e-08
3.21383e-10
-2.19418e-08
3.0695e-10
-2.21595e-08
2.92244e-10
-2.23662e-08
2.77278e-10
-2.25615e-08
2.62064e-10
-2.27452e-08
2.46616e-10
-2.29173e-08
2.30946e-10
-2.30776e-08
2.15069e-10
-2.32258e-08
1.98997e-10
-2.3362e-08
1.82744e-10
-2.34859e-08
1.66321e-10
-2.35975e-08
1.49744e-10
-2.36966e-08
1.33024e-10
-2.37832e-08
1.16176e-10
-2.38571e-08
9.92137e-11
-2.39182e-08
8.21499e-11
-2.39666e-08
6.4999e-11
-2.40022e-08
4.7775e-11
-2.40249e-08
3.0492e-11
-2.40347e-08
1.31634e-11
-2.40315e-08
-4.19676e-12
-2.40154e-08
-2.15741e-11
-2.39863e-08
-3.8954e-11
-2.39443e-08
-5.63219e-11
-2.38893e-08
-7.36633e-11
-2.38215e-08
-9.09634e-11
-2.37408e-08
-1.08207e-10
-2.36474e-08
-1.25381e-10
-2.35411e-08
-1.42468e-10
-2.34223e-08
-1.59454e-10
-2.32908e-08
-1.76324e-10
-2.31469e-08
-1.93063e-10
-2.29906e-08
-2.09655e-10
-2.28221e-08
-2.26085e-10
-2.26415e-08
-2.42336e-10
-2.24489e-08
-2.58394e-10
-2.22445e-08
-2.74242e-10
-2.20285e-08
-2.89864e-10
-2.1801e-08
-3.05246e-10
-2.15622e-08
-3.20371e-10
-2.13124e-08
-3.35224e-10
-2.10517e-08
-3.49787e-10
-2.07804e-08
-3.64045e-10
-2.04987e-08
-3.77981e-10
-2.02069e-08
-3.91581e-10
-1.99053e-08
-4.04827e-10
-1.9594e-08
-4.17705e-10
-1.92734e-08
-4.30196e-10
-1.89439e-08
-4.42287e-10
-1.86056e-08
-4.53961e-10
-1.8259e-08
-4.65202e-10
-1.79043e-08
-4.75994e-10
-1.75419e-08
-4.86321e-10
-1.71722e-08
-4.96168e-10
-1.67956e-08
-5.0552e-10
-1.64124e-08
-5.1436e-10
-1.60229e-08
-5.22675e-10
-1.56277e-08
-5.30448e-10
-1.52271e-08
-5.37666e-10
-1.48216e-08
-5.44312e-10
-1.44116e-08
-5.50374e-10
-1.39975e-08
-5.55837e-10
-1.35798e-08
-5.60687e-10
-1.31589e-08
-5.6491e-10
-1.27354e-08
-5.68494e-10
-1.23097e-08
-5.71424e-10
-1.18823e-08
-5.7369e-10
-1.14537e-08
-5.75278e-10
-1.10245e-08
-5.76177e-10
-1.05951e-08
-5.76375e-10
-1.01661e-08
-5.75861e-10
-9.73806e-09
-5.74625e-10
-9.31145e-09
-5.72657e-10
-8.88686e-09
-5.69948e-10
-8.46484e-09
-5.66488e-10
-8.04596e-09
-5.6227e-10
-7.63079e-09
-5.57285e-10
-7.2199e-09
-5.51528e-10
-6.81387e-09
-5.44992e-10
-6.41328e-09
-5.37672e-10
-6.01872e-09
-5.29563e-10
-5.63077e-09
-5.20661e-10
-5.25003e-09
-5.10964e-10
-4.87709e-09
-5.0047e-10
-4.51254e-09
-4.8918e-10
-4.15696e-09
-4.77095e-10
-3.81095e-09
-4.64215e-10
-3.47509e-09
-4.50545e-10
-3.14995e-09
-4.3609e-10
-2.83612e-09
-4.20858e-10
-2.53417e-09
-4.04859e-10
-2.24464e-09
-3.88103e-10
-1.96809e-09
-3.70605e-10
-1.70505e-09
-3.52383e-10
-1.45603e-09
-3.33456e-10
-1.22154e-09
-3.1385e-10
-1.00204e-09
-2.93595e-10
-7.97997e-10
-2.72724e-10
-6.09817e-10
-2.51279e-10
-4.37883e-10
-2.29308e-10
-2.82532e-10
-2.06868e-10
-1.44047e-10
-1.84027e-10
-2.26543e-11
-1.60866e-10
8.14957e-11
-1.3748e-10
1.68338e-10
-1.13983e-10
2.37913e-10
-9.05149e-11
2.90386e-10
-6.72418e-11
3.26073e-10
-4.43677e-11
3.45479e-10
-2.21422e-11
3.49335e-10
-8.73492e-13
3.38652e-10
1.90548e-11
3.14791e-10
3.71616e-11
2.79547e-10
5.28398e-11
2.35253e-10
6.53209e-11
1.84901e-10
7.3635e-11
1.32262e-10
7.65852e-11
8.19733e-11
7.27749e-11
3.94715e-11
6.07354e-11
1.05263e-11
3.94765e-11
1.13571e-11
1.8261e-11
-3.05545e-11
6.03732e-11
-8.25269e-11
1.17445e-10
-1.17844e-10
1.81578e-10
-1.35704e-10
2.45651e-10
-1.38097e-10
3.03517e-10
-1.27582e-10
3.50052e-10
-1.06639e-10
3.81081e-10
-7.74584e-11
3.9328e-10
-4.18804e-11
3.84045e-10
-1.40607e-12
3.51385e-10
4.27426e-11
2.93813e-10
8.95794e-11
2.10262e-10
1.38303e-10
1.00011e-10
1.88264e-10
-3.73789e-11
2.38929e-10
-2.02103e-10
2.89865e-10
-3.94166e-10
3.40712e-10
-6.13402e-10
3.91177e-10
-8.59516e-10
4.41013e-10
-1.13209e-09
4.90018e-10
-1.43062e-09
5.38022e-10
-1.75452e-09
5.84886e-10
-2.10312e-09
6.30492e-10
-2.47571e-09
6.74742e-10
-2.87155e-09
7.17557e-10
-3.28982e-09
7.58871e-10
-3.7297e-09
7.98628e-10
-4.19034e-09
8.36785e-10
-4.67085e-09
8.73309e-10
-5.17035e-09
9.08169e-10
-5.68791e-09
9.41346e-10
-6.22264e-09
9.72824e-10
-6.77361e-09
1.00259e-09
-7.33987e-09
1.03065e-09
-7.92052e-09
1.05699e-09
-8.51461e-09
1.08162e-09
-9.12122e-09
1.10453e-09
-9.73942e-09
1.12574e-09
-1.03683e-08
1.14526e-09
-1.10069e-08
1.16309e-09
-1.16544e-08
1.17926e-09
-1.23098e-08
1.19377e-09
-1.29722e-08
1.20665e-09
-1.36408e-08
1.2179e-09
-1.43147e-08
1.22755e-09
-1.4993e-08
1.23562e-09
-1.56749e-08
1.24213e-09
-1.63595e-08
1.2471e-09
-1.7046e-08
1.25055e-09
-1.77335e-08
1.25251e-09
-1.84214e-08
1.253e-09
-1.91087e-08
1.25204e-09
-1.97947e-08
1.24966e-09
-2.04786e-08
1.24588e-09
-2.11597e-08
1.24073e-09
-2.18373e-08
1.23424e-09
-2.25106e-08
1.22642e-09
-2.31789e-08
1.21731e-09
-2.38414e-08
1.20693e-09
-2.44977e-08
1.19531e-09
-2.51468e-08
1.18247e-09
-2.57883e-08
1.16845e-09
-2.64215e-08
1.15327e-09
-2.70457e-08
1.13695e-09
-2.76603e-08
1.11952e-09
-2.82648e-08
1.10102e-09
-2.88586e-08
1.08146e-09
-2.9441e-08
1.06088e-09
-3.00117e-08
1.0393e-09
-3.05699e-08
1.01675e-09
-3.11152e-08
9.93259e-10
-3.16472e-08
9.68854e-10
-3.21652e-08
9.43561e-10
-3.26689e-08
9.1741e-10
-3.31578e-08
8.90428e-10
-3.36315e-08
8.62642e-10
-3.40894e-08
8.34082e-10
-3.45313e-08
8.04774e-10
-3.49566e-08
7.74746e-10
-3.53651e-08
7.44027e-10
-3.57564e-08
7.12645e-10
-3.61301e-08
6.80629e-10
-3.64858e-08
6.48007e-10
-3.68234e-08
6.14808e-10
-3.71424e-08
5.81061e-10
-3.74425e-08
5.46793e-10
-3.77236e-08
5.12034e-10
-3.79854e-08
4.76812e-10
-3.82275e-08
4.41159e-10
-3.84499e-08
4.05102e-10
-3.86522e-08
3.68671e-10
-3.88344e-08
3.31896e-10
-3.89962e-08
2.94807e-10
-3.91374e-08
2.57434e-10
-3.9258e-08
2.19806e-10
-3.93578e-08
1.81955e-10
-3.94367e-08
1.43911e-10
-3.94947e-08
1.05705e-10
-3.95315e-08
6.73686e-11
-3.95473e-08
2.89323e-11
-3.95419e-08
-9.57201e-12
-3.95154e-08
-4.81125e-11
-3.94677e-08
-8.66576e-11
-3.93988e-08
-1.25175e-10
-3.93089e-08
-1.63633e-10
-3.91978e-08
-2.01997e-10
-3.90658e-08
-2.40236e-10
-3.89129e-08
-2.78316e-10
-3.87391e-08
-3.16203e-10
-3.85447e-08
-3.53865e-10
-3.83298e-08
-3.91267e-10
-3.80945e-08
-4.28376e-10
-3.7839e-08
-4.65157e-10
-3.75635e-08
-5.01576e-10
-3.72682e-08
-5.37598e-10
-3.69534e-08
-5.73189e-10
-3.66193e-08
-6.08314e-10
-3.62663e-08
-6.42937e-10
-3.58945e-08
-6.77023e-10
-3.55043e-08
-7.10538e-10
-3.50961e-08
-7.43446e-10
-3.46702e-08
-7.75711e-10
-3.42269e-08
-8.07299e-10
-3.37667e-08
-8.38173e-10
-3.329e-08
-8.68298e-10
-3.27972e-08
-8.97638e-10
-3.22888e-08
-9.26158e-10
-3.17651e-08
-9.53822e-10
-3.12268e-08
-9.80596e-10
-3.06743e-08
-1.00644e-09
-3.01082e-08
-1.03133e-09
-2.9529e-08
-1.05522e-09
-2.89372e-08
-1.07808e-09
-2.83335e-08
-1.09988e-09
-2.77185e-08
-1.12058e-09
-2.70927e-08
-1.14014e-09
-2.64568e-08
-1.15854e-09
-2.58115e-08
-1.17574e-09
-2.51575e-08
-1.1917e-09
-2.44954e-08
-1.20641e-09
-2.38259e-08
-1.21982e-09
-2.31499e-08
-1.2319e-09
-2.24679e-08
-1.24262e-09
-2.17809e-08
-1.25196e-09
-2.10895e-08
-1.25989e-09
-2.03946e-08
-1.26637e-09
-1.96969e-08
-1.27137e-09
-1.89973e-08
-1.27488e-09
-1.82966e-08
-1.27687e-09
-1.75956e-08
-1.27731e-09
-1.68953e-08
-1.27618e-09
-1.61965e-08
-1.27345e-09
-1.55e-08
-1.26911e-09
-1.48069e-08
-1.26313e-09
-1.41178e-08
-1.2555e-09
-1.34339e-08
-1.2462e-09
-1.2756e-08
-1.2352e-09
-1.2085e-08
-1.22251e-09
-1.14219e-08
-1.2081e-09
-1.07676e-08
-1.19197e-09
-1.01231e-08
-1.1741e-09
-9.48923e-09
-1.1545e-09
-8.86705e-09
-1.13314e-09
-8.25747e-09
-1.11005e-09
-7.66145e-09
-1.0852e-09
-7.07993e-09
-1.05862e-09
-6.51385e-09
-1.03029e-09
-5.96414e-09
-1.00025e-09
-5.43174e-09
-9.68494e-10
-4.91755e-09
-9.35047e-10
-4.42248e-09
-8.99931e-10
-3.94741e-09
-8.63177e-10
-3.49319e-09
-8.24819e-10
-3.06068e-09
-7.84898e-10
-2.65067e-09
-7.43465e-10
-2.26394e-09
-7.00578e-10
-1.90123e-09
-6.56307e-10
-1.56322e-09
-6.10733e-10
-1.25055e-09
-5.63953e-10
-9.63776e-10
-5.16078e-10
-7.03404e-10
-4.67241e-10
-4.69834e-10
-4.17597e-10
-2.63369e-10
-3.67331e-10
-8.41889e-11
-3.16659e-10
6.76688e-11
-2.65841e-10
1.92338e-10
-2.15184e-10
2.90156e-10
-1.65059e-10
3.617e-10
-1.15912e-10
4.07838e-10
-6.82801e-11
4.29785e-10
-2.28205e-11
4.29173e-10
1.96661e-11
4.08136e-10
5.81979e-11
3.69405e-10
9.15693e-11
3.1642e-10
1.18305e-10
2.53435e-10
1.36619e-10
1.85612e-10
1.44408e-10
1.19054e-10
1.39332e-10
6.0729e-11
1.19061e-10
1.82239e-11
8.19816e-11
2.95811e-11
2.22467e-11
-5.27955e-11
7.13974e-11
-1.3168e-10
1.35547e-10
-1.81999e-10
2.05149e-10
-2.05307e-10
2.71947e-10
-2.04893e-10
3.28829e-10
-1.84461e-10
3.69773e-10
-1.47582e-10
3.89769e-10
-9.74562e-11
3.84728e-10
-3.68387e-11
3.5137e-10
3.19534e-11
2.8712e-10
1.06992e-10
1.90011e-10
1.86686e-10
5.85926e-11
2.69722e-10
-1.08154e-10
3.5501e-10
-3.10878e-10
4.41651e-10
-5.49914e-10
5.28902e-10
-8.2534e-10
6.16139e-10
-1.13701e-09
7.02848e-10
-1.48459e-09
7.88593e-10
-1.86759e-09
8.73015e-10
-2.28538e-09
9.55812e-10
-2.73722e-09
1.03673e-09
-3.22228e-09
1.11555e-09
-3.73964e-09
1.1921e-09
-4.28831e-09
1.26623e-09
-4.86726e-09
1.33782e-09
-5.4754e-09
1.40676e-09
-6.11159e-09
1.47298e-09
-6.77468e-09
1.53639e-09
-7.46347e-09
1.59696e-09
-8.17676e-09
1.65464e-09
-8.91333e-09
1.70939e-09
-9.67192e-09
1.76119e-09
-1.04513e-08
1.81003e-09
-1.12502e-08
1.85591e-09
-1.20674e-08
1.89881e-09
-1.29016e-08
1.93875e-09
-1.37516e-08
1.97574e-09
-1.46162e-08
2.00978e-09
-1.5494e-08
2.0409e-09
-1.63838e-08
2.06911e-09
-1.72845e-08
2.09444e-09
-1.81948e-08
2.11692e-09
-1.91134e-08
2.13657e-09
-2.00393e-08
2.15343e-09
-2.09712e-08
2.16753e-09
-2.1908e-08
2.1789e-09
-2.28485e-08
2.18759e-09
-2.37916e-08
2.19362e-09
-2.47361e-08
2.19704e-09
-2.5681e-08
2.19788e-09
-2.66251e-08
2.1962e-09
-2.75675e-08
2.19202e-09
-2.8507e-08
2.1854e-09
-2.94427e-08
2.17638e-09
-3.03734e-08
2.16499e-09
-3.12983e-08
2.1513e-09
-3.22163e-08
2.13533e-09
-3.31265e-08
2.11714e-09
-3.4028e-08
2.09677e-09
-3.49198e-08
2.07427e-09
-3.5801e-08
2.04969e-09
-3.66708e-08
2.02307e-09
-3.75283e-08
1.99446e-09
-3.83727e-08
1.9639e-09
-3.92031e-08
1.93145e-09
-4.00188e-08
1.89716e-09
-4.0819e-08
1.86106e-09
-4.16029e-08
1.82322e-09
-4.23699e-08
1.78367e-09
-4.31191e-08
1.74246e-09
-4.38499e-08
1.69965e-09
-4.45616e-08
1.65528e-09
-4.52536e-08
1.6094e-09
-4.59252e-08
1.56207e-09
-4.65759e-08
1.51332e-09
-4.7205e-08
1.46321e-09
-4.7812e-08
1.41178e-09
-4.83964e-08
1.35909e-09
-4.89575e-08
1.30519e-09
-4.9495e-08
1.25013e-09
-5.00083e-08
1.19395e-09
-5.0497e-08
1.1367e-09
-5.09607e-08
1.07844e-09
-5.13988e-08
1.01922e-09
-5.18111e-08
9.59088e-10
-5.21972e-08
8.98092e-10
-5.25566e-08
8.36284e-10
-5.28892e-08
7.73717e-10
-5.31945e-08
7.10442e-10
-5.34724e-08
6.46511e-10
-5.37225e-08
5.81977e-10
-5.39446e-08
5.16892e-10
-5.41384e-08
4.51308e-10
-5.43039e-08
3.85281e-10
-5.44408e-08
3.18862e-10
-5.4549e-08
2.52105e-10
-5.46284e-08
1.85066e-10
-5.46788e-08
1.17798e-10
-5.47002e-08
5.03574e-11
-5.46926e-08
-1.72012e-11
-5.46559e-08
-8.48218e-11
-5.45901e-08
-1.52448e-10
-5.44952e-08
-2.20024e-10
-5.43714e-08
-2.87491e-10
-5.42186e-08
-3.54793e-10
-5.4037e-08
-4.21873e-10
-5.38266e-08
-4.88671e-10
-5.35877e-08
-5.55129e-10
-5.33203e-08
-6.21188e-10
-5.30248e-08
-6.8679e-10
-5.27013e-08
-7.51873e-10
-5.23501e-08
-8.16379e-10
-5.19714e-08
-8.80247e-10
-5.15656e-08
-9.43416e-10
-5.1133e-08
-1.00583e-09
-5.06739e-08
-1.06741e-09
-5.01887e-08
-1.12812e-09
-4.96778e-08
-1.18788e-09
-4.91417e-08
-1.24664e-09
-4.85809e-08
-1.30433e-09
-4.79957e-08
-1.36089e-09
-4.73867e-08
-1.41626e-09
-4.67545e-08
-1.47037e-09
-4.60997e-08
-1.52317e-09
-4.54227e-08
-1.57459e-09
-4.47243e-08
-1.62457e-09
-4.40051e-08
-1.67304e-09
-4.32657e-08
-1.71996e-09
-4.25069e-08
-1.76524e-09
-4.17294e-08
-1.80885e-09
-4.09339e-08
-1.8507e-09
-4.01213e-08
-1.89075e-09
-3.92922e-08
-1.92892e-09
-3.84476e-08
-1.96518e-09
-3.75883e-08
-1.99944e-09
-3.67152e-08
-2.03166e-09
-3.58291e-08
-2.06178e-09
-3.49311e-08
-2.08974e-09
-3.4022e-08
-2.11549e-09
-3.31029e-08
-2.13897e-09
-3.21747e-08
-2.16012e-09
-3.12384e-08
-2.1789e-09
-3.02951e-08
-2.19525e-09
-2.93458e-08
-2.20913e-09
-2.83917e-08
-2.22048e-09
-2.74338e-08
-2.22925e-09
-2.64733e-08
-2.23541e-09
-2.55113e-08
-2.2389e-09
-2.45489e-08
-2.23969e-09
-2.35874e-08
-2.23773e-09
-2.26278e-08
-2.23299e-09
-2.16715e-08
-2.22542e-09
-2.07197e-08
-2.215e-09
-1.97735e-08
-2.20169e-09
-1.88342e-08
-2.18547e-09
-1.79031e-08
-2.16631e-09
-1.69814e-08
-2.14418e-09
-1.60705e-08
-2.11906e-09
-1.51715e-08
-2.09094e-09
-1.42858e-08
-2.05981e-09
-1.34146e-08
-2.02565e-09
-1.25593e-08
-1.98845e-09
-1.17211e-08
-1.94823e-09
-1.09014e-08
-1.90498e-09
-1.01013e-08
-1.85871e-09
-9.32211e-09
-1.80944e-09
-8.56518e-09
-1.75719e-09
-7.83169e-09
-1.70198e-09
-7.12288e-09
-1.64386e-09
-6.43995e-09
-1.58286e-09
-5.78407e-09
-1.51905e-09
-5.15639e-09
-1.4525e-09
-4.55802e-09
-1.38327e-09
-3.99003e-09
-1.31146e-09
-3.45343e-09
-1.23718e-09
-2.94918e-09
-1.16056e-09
-2.47816e-09
-1.08175e-09
-2.04119e-09
-1.00092e-09
-1.63899e-09
-9.1828e-10
-1.27216e-09
-8.34063e-10
-9.41211e-10
-7.4855e-10
-6.46474e-10
-6.62068e-10
-3.88132e-10
-5.75002e-10
-1.66166e-10
-4.87807e-10
1.9669e-11
-4.01019e-10
1.69888e-10
-3.15279e-10
2.85322e-10
-2.31346e-10
3.67173e-10
-1.50131e-10
4.17077e-10
-7.27251e-11
4.37185e-10
-4.41682e-13
4.30241e-10
6.51418e-11
3.99682e-10
1.22128e-10
3.49732e-10
1.68255e-10
2.85496e-10
2.00855e-10
2.13039e-10
2.16866e-10
1.39437e-10
2.12934e-10
7.28165e-11
1.85681e-10
2.24841e-11
1.32314e-10
5.20655e-11
2.33853e-11
-7.6179e-11
7.40927e-11
-1.82381e-10
1.38331e-10
-2.46236e-10
2.05278e-10
-2.72259e-10
2.65825e-10
-2.6544e-10
3.1219e-10
-2.30825e-10
3.37759e-10
-1.73152e-10
3.36969e-10
-9.66668e-11
3.05203e-10
-5.07315e-12
2.38697e-10
9.84589e-11
1.34442e-10
2.11247e-10
-9.90588e-12
3.31036e-10
-1.96117e-10
4.55933e-10
-4.25461e-10
5.84353e-10
-6.98778e-10
7.14968e-10
-1.01654e-09
8.46664e-10
-1.3789e-09
9.78504e-10
-1.78575e-09
1.1097e-09
-2.23675e-09
1.23959e-09
-2.73134e-09
1.36761e-09
-3.26882e-09
1.49329e-09
-3.84832e-09
1.61623e-09
-4.46887e-09
1.7361e-09
-5.12938e-09
1.85261e-09
-5.82867e-09
1.96552e-09
-6.56549e-09
2.07464e-09
-7.33852e-09
2.17979e-09
-8.14639e-09
2.28085e-09
-8.98769e-09
2.37769e-09
-9.86096e-09
2.47023e-09
-1.07647e-08
2.5584e-09
-1.16975e-08
2.64213e-09
-1.26577e-08
2.72139e-09
-1.36438e-08
2.79616e-09
-1.46543e-08
2.8664e-09
-1.56876e-08
2.93213e-09
-1.67422e-08
2.99333e-09
-1.78165e-08
3.05002e-09
-1.89089e-08
3.10221e-09
-2.00179e-08
3.14993e-09
-2.1142e-08
3.19321e-09
-2.22796e-08
3.23207e-09
-2.34293e-08
3.26656e-09
-2.45894e-08
3.29672e-09
-2.57586e-08
3.3226e-09
-2.69353e-08
3.34424e-09
-2.81181e-08
3.36169e-09
-2.93055e-08
3.375e-09
-3.04961e-08
3.38425e-09
-3.16886e-08
3.38947e-09
-3.28814e-08
3.39074e-09
-3.40733e-08
3.38811e-09
-3.5263e-08
3.38165e-09
-3.6449e-08
3.37143e-09
-3.76301e-08
3.3575e-09
-3.88051e-08
3.33994e-09
-3.99726e-08
3.31881e-09
-4.11314e-08
3.29419e-09
-4.22804e-08
3.26614e-09
-4.34184e-08
3.23473e-09
-4.45441e-08
3.20003e-09
-4.56566e-08
3.16212e-09
-4.67546e-08
3.12106e-09
-4.7837e-08
3.07694e-09
-4.8903e-08
3.02981e-09
-4.99513e-08
2.97976e-09
-5.0981e-08
2.92686e-09
-5.19911e-08
2.87118e-09
-5.29807e-08
2.8128e-09
-5.39488e-08
2.75179e-09
-5.48946e-08
2.68822e-09
-5.58171e-08
2.62217e-09
-5.67155e-08
2.55372e-09
-5.75891e-08
2.48294e-09
-5.84369e-08
2.4099e-09
-5.92583e-08
2.33468e-09
-6.00524e-08
2.25736e-09
-6.08186e-08
2.17801e-09
-6.15562e-08
2.09671e-09
-6.22646e-08
2.01353e-09
-6.2943e-08
1.92856e-09
-6.35909e-08
1.84186e-09
-6.42077e-08
1.75353e-09
-6.47929e-08
1.66362e-09
-6.53459e-08
1.57223e-09
-6.58663e-08
1.47943e-09
-6.63535e-08
1.3853e-09
-6.68071e-08
1.28991e-09
-6.72268e-08
1.19336e-09
-6.7612e-08
1.09571e-09
-6.79626e-08
9.97054e-10
-6.82781e-08
8.97465e-10
-6.85582e-08
7.97027e-10
-6.88027e-08
6.95821e-10
-6.90114e-08
5.9393e-10
-6.91839e-08
4.91438e-10
-6.93202e-08
3.88426e-10
-6.94202e-08
2.8498e-10
-6.94835e-08
1.81184e-10
-6.95103e-08
7.71226e-11
-6.95004e-08
-2.71181e-11
-6.94538e-08
-1.31452e-10
-6.93704e-08
-2.35791e-10
-6.92504e-08
-3.40049e-10
-6.90938e-08
-4.44138e-10
-6.89006e-08
-5.47968e-10
-6.8671e-08
-6.51451e-10
-6.84052e-08
-7.54496e-10
-6.81033e-08
-8.57013e-10
-6.77656e-08
-9.58911e-10
-6.73923e-08
-1.0601e-09
-6.69836e-08
-1.16048e-09
-6.65401e-08
-1.25997e-09
-6.60618e-08
-1.35848e-09
-6.55493e-08
-1.4559e-09
-6.5003e-08
-1.55214e-09
-6.44233e-08
-1.64711e-09
-6.38107e-08
-1.74072e-09
-6.31657e-08
-1.83287e-09
-6.24889e-08
-1.92347e-09
-6.17808e-08
-2.01241e-09
-6.10421e-08
-2.09961e-09
-6.02734e-08
-2.18497e-09
-5.94754e-08
-2.26838e-09
-5.86488e-08
-2.34977e-09
-5.77943e-08
-2.42903e-09
-5.69128e-08
-2.50606e-09
-5.60051e-08
-2.58078e-09
-5.5072e-08
-2.65308e-09
-5.41144e-08
-2.72287e-09
-5.31331e-08
-2.79006e-09
-5.21293e-08
-2.85456e-09
-5.11038e-08
-2.91626e-09
-5.00576e-08
-2.97509e-09
-4.89919e-08
-3.03094e-09
-4.79076e-08
-3.08373e-09
-4.68058e-08
-3.13337e-09
-4.56879e-08
-3.17978e-09
-4.45547e-08
-3.22285e-09
-4.34077e-08
-3.26252e-09
-4.2248e-08
-3.29869e-09
-4.10768e-08
-3.33128e-09
-3.98955e-08
-3.36022e-09
-3.87054e-08
-3.38542e-09
-3.75077e-08
-3.4068e-09
-3.63039e-08
-3.4243e-09
-3.50953e-08
-3.43785e-09
-3.38833e-08
-3.44736e-09
-3.26694e-08
-3.45278e-09
-3.14551e-08
-3.45404e-09
-3.02417e-08
-3.45108e-09
-2.90309e-08
-3.44384e-09
-2.7824e-08
-3.43227e-09
-2.66227e-08
-3.41632e-09
-2.54285e-08
-3.39594e-09
-2.42429e-08
-3.37108e-09
-2.30675e-08
-3.34172e-09
-2.19038e-08
-3.30781e-09
-2.07536e-08
-3.26932e-09
-1.96183e-08
-3.22624e-09
-1.84995e-08
-3.17854e-09
-1.73989e-08
-3.12622e-09
-1.63181e-08
-3.06927e-09
-1.52587e-08
-3.00768e-09
-1.42222e-08
-2.94148e-09
-1.32102e-08
-2.87068e-09
-1.22244e-08
-2.7953e-09
-1.12662e-08
-2.71538e-09
-1.03371e-08
-2.63099e-09
-9.43884e-09
-2.54216e-09
-8.57272e-09
-2.44899e-09
-7.74021e-09
-2.35156e-09
-6.94273e-09
-2.24998e-09
-6.18162e-09
-2.14438e-09
-5.45817e-09
-2.0349e-09
-4.77362e-09
-1.92173e-09
-4.12911e-09
-1.80507e-09
-3.52569e-09
-1.68516e-09
-2.96434e-09
-1.56227e-09
-2.4459e-09
-1.43673e-09
-1.97105e-09
-1.3089e-09
-1.54037e-09
-1.17924e-09
-1.1542e-09
-1.04823e-09
-8.12725e-10
-9.16481e-10
-5.15848e-10
-7.84684e-10
-2.63212e-10
-6.53655e-10
-5.41354e-11
-5.24355e-10
1.12437e-10
-3.97919e-10
2.37992e-10
-2.75686e-10
3.24513e-10
-1.59247e-10
3.74555e-10
-5.0484e-11
3.91326e-10
4.83716e-11
3.78767e-10
1.34687e-10
3.41649e-10
2.05373e-10
2.85649e-10
2.56855e-10
2.17441e-10
2.85074e-10
1.448e-10
2.85575e-10
7.67589e-11
2.53723e-10
2.39765e-11
1.85097e-10
7.60421e-11
2.24135e-11
-9.85953e-11
7.00772e-11
-2.3004e-10
1.28367e-10
-3.04523e-10
1.85685e-10
-3.29577e-10
2.32348e-10
-3.12103e-10
2.60132e-10
-2.58611e-10
2.62046e-10
-1.75065e-10
2.32166e-10
-6.67865e-11
1.65533e-10
6.156e-11
5.80507e-11
2.05939e-10
-9.35956e-11
3.62893e-10
-2.92029e-10
5.29471e-10
-5.39264e-10
7.03167e-10
-8.36768e-10
8.81858e-10
-1.18554e-09
1.06374e-09
-1.58618e-09
1.2473e-09
-2.0389e-09
1.43123e-09
-2.54364e-09
1.61444e-09
-3.10004e-09
1.79599e-09
-3.70753e-09
1.9751e-09
-4.36533e-09
2.15108e-09
-5.07247e-09
2.32338e-09
-5.82786e-09
2.49149e-09
-6.63027e-09
2.65502e-09
-7.47835e-09
2.8136e-09
-8.37067e-09
2.96696e-09
-9.30571e-09
3.11483e-09
-1.02819e-08
3.25702e-09
-1.12976e-08
3.39336e-09
-1.2351e-08
3.5237e-09
-1.34406e-08
3.64794e-09
-1.45644e-08
3.76598e-09
-1.57208e-08
3.87777e-09
-1.69079e-08
3.98325e-09
-1.81239e-08
4.08239e-09
-1.93669e-08
4.17518e-09
-2.06352e-08
4.2616e-09
-2.19269e-08
4.34168e-09
-2.32401e-08
4.41542e-09
-2.4573e-08
4.48286e-09
-2.59238e-08
4.54403e-09
-2.72907e-08
4.59896e-09
-2.86719e-08
4.64773e-09
-3.00655e-08
4.69036e-09
-3.14699e-08
4.72694e-09
-3.28832e-08
4.75752e-09
-3.43036e-08
4.78218e-09
-3.57296e-08
4.80098e-09
-3.71594e-08
4.81401e-09
-3.85913e-08
4.82134e-09
-4.00236e-08
4.82307e-09
-4.14547e-08
4.81926e-09
-4.28831e-08
4.81002e-09
-4.43071e-08
4.79544e-09
-4.57252e-08
4.7756e-09
-4.71359e-08
4.7506e-09
-4.85376e-08
4.72053e-09
-4.99289e-08
4.6855e-09
-5.13084e-08
4.6456e-09
-5.26746e-08
4.60092e-09
-5.40261e-08
4.55157e-09
-5.53616e-08
4.49765e-09
-5.66798e-08
4.43926e-09
-5.79794e-08
4.37651e-09
-5.92591e-08
4.30948e-09
-6.05176e-08
4.2383e-09
-6.17538e-08
4.16306e-09
-6.29665e-08
4.08387e-09
-6.41545e-08
4.00083e-09
-6.53168e-08
3.91405e-09
-6.64522e-08
3.82363e-09
-6.75597e-08
3.72968e-09
-6.86383e-08
3.6323e-09
-6.96869e-08
3.53161e-09
-7.07048e-08
3.42771e-09
-7.16908e-08
3.32071e-09
-7.26441e-08
3.21071e-09
-7.35639e-08
3.09782e-09
-7.44494e-08
2.98216e-09
-7.52997e-08
2.86383e-09
-7.61141e-08
2.74293e-09
-7.68918e-08
2.61959e-09
-7.76322e-08
2.49391e-09
-7.83346e-08
2.36601e-09
-7.89983e-08
2.23598e-09
-7.96228e-08
2.10395e-09
-8.02076e-08
1.97002e-09
-8.0752e-08
1.83432e-09
-8.12556e-08
1.69695e-09
-8.17179e-08
1.55802e-09
-8.21385e-08
1.41766e-09
-8.2517e-08
1.27597e-09
-8.2853e-08
1.13308e-09
-8.31463e-08
9.89098e-10
-8.33965e-08
8.44142e-10
-8.36034e-08
6.98333e-10
-8.37668e-08
5.51787e-10
-8.38864e-08
4.04626e-10
-8.39622e-08
2.5697e-10
-8.3994e-08
1.0894e-10
-8.39818e-08
-3.93418e-11
-8.39255e-08
-1.87752e-10
-8.38251e-08
-3.36168e-10
-8.36807e-08
-4.84463e-10
-8.34923e-08
-6.32513e-10
-8.32601e-08
-7.80191e-10
-8.29842e-08
-9.27371e-10
-8.26648e-08
-1.07392e-09
-8.23021e-08
-1.21972e-09
-8.18963e-08
-1.36463e-09
-8.14479e-08
-1.50853e-09
-8.09571e-08
-1.65128e-09
-8.04243e-08
-1.79275e-09
-7.985e-08
-1.93281e-09
-7.92346e-08
-2.07133e-09
-7.85786e-08
-2.20817e-09
-7.78825e-08
-2.3432e-09
-7.71469e-08
-2.47628e-09
-7.63725e-08
-2.60728e-09
-7.55599e-08
-2.73607e-09
-7.47098e-08
-2.8625e-09
-7.3823e-08
-2.98645e-09
-7.29002e-08
-3.10778e-09
-7.19422e-08
-3.22634e-09
-7.095e-08
-3.34202e-09
-6.99243e-08
-3.45466e-09
-6.88663e-08
-3.56414e-09
-6.77767e-08
-3.67031e-09
-6.66567e-08
-3.77306e-09
-6.55074e-08
-3.87223e-09
-6.43297e-08
-3.9677e-09
-6.3125e-08
-4.05934e-09
-6.18942e-08
-4.14702e-09
-6.06387e-08
-4.2306e-09
-5.93597e-08
-4.30996e-09
-5.80584e-08
-4.38496e-09
-5.67363e-08
-4.45549e-09
-5.53947e-08
-4.52142e-09
-5.40349e-08
-4.58262e-09
-5.26585e-08
-4.63898e-09
-5.12668e-08
-4.69038e-09
-4.98613e-08
-4.7367e-09
-4.84437e-08
-4.77782e-09
-4.70155e-08
-4.81365e-09
-4.55782e-08
-4.84407e-09
-4.41336e-08
-4.86897e-09
-4.26832e-08
-4.88827e-09
-4.12287e-08
-4.90185e-09
-3.97718e-08
-4.90962e-09
-3.83143e-08
-4.91151e-09
-3.6858e-08
-4.90742e-09
-3.54046e-08
-4.89727e-09
-3.39559e-08
-4.88098e-09
-3.25137e-08
-4.8585e-09
-3.10799e-08
-4.82974e-09
-2.96563e-08
-4.79466e-09
-2.82448e-08
-4.75321e-09
-2.68473e-08
-4.70533e-09
-2.54656e-08
-4.651e-09
-2.41017e-08
-4.59017e-09
-2.27574e-08
-4.52284e-09
-2.14346e-08
-4.44898e-09
-2.01353e-08
-4.36859e-09
-1.88613e-08
-4.28169e-09
-1.76145e-08
-4.18829e-09
-1.63968e-08
-4.08842e-09
-1.52099e-08
-3.98212e-09
-1.40558e-08