/*--------------------------------*- C++ -*----------------------------------*\
  =========                 |
  \\      /  F ield         | OpenFOAM: The Open Source CFD Toolbox
   \\    /   O peration     | Website:  https://openfoam.org
    \\  /    A nd           | Version:  7
     \\/     M anipulation  |
\*---------------------------------------------------------------------------*/
FoamFile
{
    version     2.0;
    format      ascii;
    class       volVectorField;
    location    "0.578";
    object      U;
}
// * * * * * * * * * * * * * * * * * * * * * * * * * * * * * * * * * * * * * //

dimensions      [0 1 -1 0 0 0 0];

internalField   nonuniform List<vector> 
12359
(
(0.9809 3.41958e-05 2.4158e-16)
(0.968534 -0.000360872 -1.04483e-16)
(0.999974 -2.38957e-05 -4.84429e-17)
(0.930815 -0.00190933 -4.27812e-17)
(0.977631 -0.00121659 9.93119e-17)
(0.886692 -0.00187837 3.97409e-17)
(0.833534 0.000229371 4.56474e-17)
(0.8557 -0.00721485 9.12463e-17)
(0.788668 0.012302 -2.74991e-16)
(0.900899 0.00102125 -4.19405e-17)
(0.816779 0.0149084 -9.62278e-17)
(0.727619 0.0315974 2.89695e-16)
(0.308541 0.0783985 -7.41359e-17)
(0.921905 -0.00175944 -5.38412e-17)
(0.936015 -0.000547877 1.13958e-17)
(0.523081 0.0040724 -5.03752e-18)
(0.39738 0.0103627 6.44753e-17)
(0.994767 -4.08888e-06 -1.1228e-16)
(0.995115 0.000185533 -1.22328e-16)
(0.953884 -0.00113142 -1.3251e-16)
(0.914495 0.000810832 1.55363e-17)
(0.746598 0.0208319 -6.50979e-18)
(0.962679 -0.00151877 -4.83981e-17)
(0.950216 -0.00106643 3.14922e-17)
(0.966105 -0.000634275 -1.50651e-16)
(0.958689 -0.000612955 -5.98839e-17)
(0.998305 -7.57115e-05 -2.05265e-17)
(0.998498 -5.3043e-05 -2.16283e-17)
(0.995727 -1.79961e-05 4.48007e-17)
(0.997756 -4.27067e-05 -2.75412e-17)
(0.997219 -3.51126e-05 -6.50482e-17)
(0.999277 9.2444e-05 -1.85924e-17)
(0.99974 1.85283e-05 -4.11324e-17)
(0.998078 1.60556e-05 -7.72207e-18)
(0.999897 -1.78408e-05 2.86275e-17)
(0.997115 2.13337e-05 4.26948e-18)
(0.988994 -4.75331e-05 -4.71427e-17)
(0.983028 -0.000298853 3.07015e-16)
(0.980163 0.000185009 2.07398e-18)
(0.985685 -8.07609e-05 -2.36545e-16)
(0.97203 -0.000840205 4.89295e-17)
(0.984984 6.30613e-05 1.33418e-16)
(0.991412 -0.000231798 1.26981e-16)
(0.992302 -3.07101e-05 -4.52462e-17)
(0.996497 -8.53664e-05 5.22023e-17)
(0.996175 -9.67203e-05 -6.21482e-19)
(0.996804 -8.64657e-05 4.01221e-17)
(0.997448 -9.64317e-05 -5.0026e-17)
(0.995256 -2.74299e-05 3.82604e-17)
(0.998235 -4.07317e-05 1.83204e-18)
(0.998767 -1.69741e-05 -2.23804e-17)
(0.998875 -9.51188e-05 -2.06827e-17)
(0.999394 3.22035e-06 -4.15255e-17)
(0.994191 1.31587e-06 -9.35572e-17)
(0.999582 8.87411e-05 1.68158e-17)
(0.999742 -9.52138e-06 -5.24547e-18)
(0.992774 -0.000197614 -3.09372e-17)
(0.99977 -3.48757e-05 -6.18056e-17)
(0.999818 -1.11608e-05 5.28638e-17)
(0.999875 3.21899e-05 -1.08365e-17)
(0.999706 -2.6419e-05 5.97237e-17)
(0.999974 1.72312e-05 1.28758e-16)
(0.998791 -4.49274e-05 -1.86603e-17)
(0.207045 0.0969156 -8.96096e-16)
(0.993562 -0.000202349 1.28148e-16)
(0.908778 0.00122526 -1.53427e-18)
(0.98988 0.000219317 2.53959e-17)
(0.999081 -7.75392e-05 -1.54814e-17)
(0.987984 -0.000434082 1.82238e-16)
(0.621372 0.0261934 8.60169e-17)
(-0.0397867 -0.0705897 4.57327e-15)
(0.973715 -0.00189721 -6.77278e-17)
(0.999976 -9.26851e-06 -6.15232e-17)
(0.986515 -0.000532077 -4.81138e-18)
(0.939803 -0.00144923 -5.78609e-17)
(0.999896 -3.01552e-05 -4.69252e-17)
(0.999326 3.32431e-06 -3.53623e-17)
(0.999944 -6.27043e-06 -3.85761e-17)
(0.990062 -0.000132055 -5.57447e-17)
(0.657649 0.000981385 1.65466e-16)
(0.924987 0.057975 5.48045e-17)
(1.00379 0.00260629 8.0253e-18)
(1.00002 -2.02728e-05 -5.04953e-19)
(0.997931 0.0120674 2.20902e-18)
(1.10035 0.137822 3.15183e-17)
(1.02117 0.00135439 -2.90498e-19)
(1.00378 0.00266244 1.21174e-17)
(1.0015 8.4212e-05 4.71088e-18)
(1.11508 0.0555129 2.6545e-17)
(1.09443 0.15085 1.48087e-17)
(0.999984 0.000132154 4.70335e-18)
(0.248404 0.177742 -4.69547e-16)
(1.00001 5.71961e-06 -1.46734e-18)
(0.999798 0.00608588 -2.97646e-19)
(0.999794 0.0107556 2.55118e-17)
(1.03843 0.00168452 -1.92662e-18)
(1.00019 0.00531897 -4.50046e-18)
(0.99947 0.00592301 -6.51821e-18)
(0.991288 0.0291856 -1.20473e-18)
(0.99405 0.0186345 1.76136e-17)
(0.94145 0.0718501 2.50823e-17)
(1 1.76598e-05 -5.75986e-18)
(1.02169 0.00172861 -7.80691e-18)
(1.2247 0.0594684 -7.3604e-18)
(1.00466 0.00117859 -2.39729e-19)
(1.03238 0.0208023 5.22123e-19)
(1.00034 -3.46628e-05 -2.35247e-18)
(1.10167 0.140189 3.04808e-17)
(1.02043 -0.000959161 -3.0926e-18)
(1.03266 0.0193491 7.75844e-18)
(0.999949 0.00468084 1.30683e-18)
(1.00358 0.0028655 3.62183e-18)
(0.938006 0.0455988 -4.07042e-17)
(0.958067 0.0757627 1.1609e-16)
(0.999316 0.0106078 -1.26097e-17)
(1.00302 1.85942e-05 2.87307e-18)
(0.957963 0.0770454 -7.47268e-17)
(1.00442 0.0022452 -2.89311e-18)
(1.12162 0.0398926 3.19092e-17)
(0.999999 1.06234e-05 -5.313e-19)
(1.00003 0.00515964 -2.12996e-18)
(0.870796 0.0283994 4.28607e-16)
(1.00185 0.00014096 1.3224e-17)
(1.03717 0.00568088 -5.95328e-19)
(1.0049 0.00223363 -2.46324e-17)
(1.0033 0.000386342 -1.97643e-17)
(1.00889 0.0923668 -1.82882e-17)
(0.997896 0.012886 -1.82033e-17)
(0.999996 1.01514e-05 1.92691e-17)
(1.00442 0.00263803 2.5289e-18)
(1.00278 0.000378277 1.17341e-17)
(1.05051 0.0169945 2.06057e-19)
(1.05227 0.0165986 1.09931e-17)
(1.05199 0.0157568 3.47092e-18)
(1.00025 2.20282e-05 -9.45839e-19)
(1.03588 0.00703864 -1.71196e-18)
(1.00273 0.000373734 -3.9761e-18)
(1.0356 0.00572827 -4.25174e-18)
(1.00001 8.89612e-05 -5.03155e-17)
(1.01003 0.0893344 4.29292e-18)
(1 2.81463e-05 -1.0289e-17)
(0.983185 0.00221319 3.79056e-16)
(1.03018 0.0119959 2.85004e-18)
(1.00031 8.24346e-05 -8.06026e-18)
(1.0393 0.0389089 -4.31186e-18)
(0.904101 0.0268271 -3.46301e-17)
(1.00002 7.75802e-06 2.14731e-19)
(1.09256 0.114998 1.66127e-17)
(1.00509 0.000885164 -7.92534e-18)
(0.918914 0.0679661 -1.23929e-16)
(1.03875 0.00342122 -1.83983e-18)
(1.00001 2.86517e-05 2.96977e-17)
(1.03094 0.0135249 -1.69389e-18)
(1.00158 0.000251366 -4.35602e-18)
(1.00001 -2.50537e-06 -1.54471e-18)
(0.566761 1.3304 5.01329e-17)
(0.938599 0.0890034 5.28437e-17)
(1.05031 0.0169546 8.62873e-19)
(1.00006 0.0050736 -8.07884e-19)
(0.999078 0.000570259 2.42092e-17)
(1.00232 0.0452679 -5.83063e-20)
(0.999056 0.000649994 2.12152e-17)
(1.03795 0.00508162 1.82323e-18)
(1.03227 0.0104319 1.94397e-18)
(1.00004 2.98958e-05 -1.84097e-18)
(1.00325 0.000542201 7.23421e-18)
(1.003 0.0435283 -2.0056e-17)
(0.868669 0.00883056 1.08989e-16)
(1.0312 0.0101649 -1.92786e-18)
(1.11824 0.0530085 1.09127e-17)
(0.999986 7.5685e-06 -1.42515e-17)
(0.999961 5.64682e-05 3.75564e-17)
(1.03275 0.00829731 -1.125e-18)
(0.971409 0.00272745 6.12474e-17)
(1.00474 0.000937662 1.10247e-17)
(1.0056 0.0875921 4.97455e-18)
(0.996417 0.000458624 2.4577e-17)
(0.996486 0.000728527 -6.82602e-17)
(0.936138 0.0471925 1.08583e-16)
(1.00791 0.0845403 1.18913e-17)
(0.935206 0.00790157 -4.25267e-16)
(1.00001 2.59891e-05 -3.02389e-18)
(0.999983 1.3663e-05 -1.87114e-16)
(1.0039 0.00270051 8.64202e-18)
(0.992028 0.0272908 9.44037e-18)
(0.808878 0.103168 2.25816e-16)
(1.00434 0.00550678 9.05522e-18)
(1.00013 0.0100252 -1.62236e-17)
(1.0355 0.000819889 1.14212e-18)
(1.00458 0.00537932 6.18323e-20)
(0.99935 0.0097662 -2.46218e-17)
(1.03557 0.00237658 1.2489e-18)
(1.03256 0.000982067 -1.41151e-18)
(1.00179 0.000102563 -3.73214e-19)
(1.03371 0.0190037 -2.48562e-18)
(1.14669 0.0293125 2.31557e-17)
(1.01469 0.012121 6.90003e-18)
(1.00335 0.00602131 1.8154e-18)
(1.03012 0.0144158 -4.6189e-18)
(1.00447 0.00246542 -5.20215e-18)
(0.891677 0.028152 3.22221e-16)
(1.03826 0.000643574 5.78473e-19)
(0.993265 0.0182536 -1.03725e-18)
(1.03261 0.019089 5.86939e-18)
(1.03558 0.0357604 -3.5147e-18)
(1.00001 2.77303e-05 9.86218e-18)
(1.03655 0.0357763 1.99974e-18)
(0.992973 0.0172078 -3.05075e-17)
(1.03972 0.00679173 -1.67958e-18)
(1.00523 0.00399094 2.71516e-18)
(1.00001 4.31586e-05 1.8383e-18)
(1.04553 0.0122438 -2.83674e-18)
(1.04542 0.0132405 8.87521e-19)
(1.07316 0.103305 5.01714e-17)
(0.833049 0.095133 -1.18123e-16)
(0.999972 2.95309e-05 5.07831e-18)
(1.00392 0.00569812 -6.46076e-18)
(0.999265 0.0101006 1.0579e-18)
(1.00384 0.005651 -1.50592e-18)
(0.982144 0.00137038 4.34996e-16)
(0.946998 0.0635806 -7.87623e-17)
(1.00536 0.00399108 -3.98734e-18)
(1.03672 0.00540146 7.92255e-19)
(0.402027 0.315243 8.89436e-18)
(1.00488 0.0024549 -1.45482e-18)
(1.00001 3.36168e-05 -4.14296e-18)
(0.981487 0.00170874 1.49524e-16)
(1.01738 -0.00298823 1.55331e-18)
(1.00178 0.085486 -4.71347e-18)
(1.00294 0.00632347 -4.93841e-19)
(1.00265 0.00654216 -7.74394e-18)
(1.00004 2.31627e-06 -4.27441e-19)
(1.03847 0.0388001 -7.69444e-18)
(0.992746 0.0230127 3.2684e-17)
(1.00042 0.00979872 -2.04638e-17)
(0.994182 0.0212045 1.2333e-18)
(1 2.27168e-05 -9.2204e-19)
(1.03167 0.0147569 -1.38147e-18)
(1.00041 0.0102347 -1.10068e-17)
(0.626764 0.264763 -6.96768e-17)
(1.00006 7.00222e-05 -3.87609e-19)
(1.02248 -0.000839298 -4.04501e-18)
(1.00027 0.00755945 -2.67895e-17)
(0.988734 0.164889 -1.13859e-19)
(1.00493 0.0463156 3.36888e-18)
(1.09171 0.118788 6.5138e-18)
(0.99987 2.52626e-05 -1.13205e-16)
(1.03867 0.00504893 9.13949e-19)
(1.00436 0.000682527 -6.38471e-18)
(1.03232 0.00140305 1.05388e-18)
(1.04131 0.0109458 1.36111e-18)
(0.98605 0.000307627 3.82855e-16)
(0.996764 0.000659171 6.32473e-17)
(1.00236 0.0064358 6.46351e-18)
(0.460444 0.452797 -1.17866e-17)
(1.23793 0.142464 1.23257e-16)
(0.999988 3.27345e-06 1.97272e-18)
(1.0058 0.00286772 -1.49077e-17)
(0.425885 0.3145 3.18104e-16)
(0.659225 -0.0122604 5.2954e-17)
(0.993409 0.0189022 -2.32057e-17)
(1.00365 0.0459456 -8.28558e-18)
(1.00372 0.0795891 -2.10062e-17)
(1.03315 0.0168046 -1.8368e-18)
(0.974865 0.00145212 1.77375e-16)
(1.36511 0.37434 3.70979e-17)
(1.11349 0.0399387 -1.20025e-17)
(1.00467 0.05016 6.01425e-18)
(1.00532 0.00261734 -9.2135e-18)
(1.03498 0.00686202 -7.61048e-18)
(1.03184 0.00973534 -3.65345e-18)
(0.988305 0.0254241 -7.94407e-18)
(1.03199 0.0120893 -2.61328e-18)
(1.00226 0.0064614 5.01344e-20)
(1.00579 0.00349722 1.32049e-19)
(1.00008 -1.41177e-06 -5.38804e-20)
(1.0052 0.00276333 3.00636e-18)
(1.16678 0.105108 1.564e-17)
(1.00543 0.050929 5.89611e-19)
(1.00045 0.000143034 -1.46266e-18)
(0.999999 5.56733e-05 1.32085e-17)
(1.03394 0.0172554 -3.81085e-18)
(1.00733 0.00137049 1.22795e-17)
(0.991001 0.000536848 -1.66296e-16)
(1.0234 -6.49221e-05 -6.52169e-18)
(1.00001 3.28617e-05 -5.32691e-18)
(1.00238 0.0734049 -1.19117e-17)
(1 1.52305e-05 1.3214e-18)
(0.999999 -9.32264e-06 -1.0701e-17)
(0.999303 0.000127975 8.38007e-17)
(1.03762 0.00446078 -1.70888e-19)
(1.0041 0.00230685 5.27255e-18)
(1.41439 0.453072 1.03005e-17)
(1.00024 5.52936e-06 -8.20418e-18)
(1.00033 6.77427e-05 4.24099e-18)
(1.02097 0.00189319 -2.23653e-18)
(1.00452 0.000693753 -1.22539e-17)
(0.946695 0.0667365 -1.35422e-17)
(0.999215 0.00993579 2.57663e-17)
(0.998788 0.000194219 5.5787e-18)
(0.999982 2.59166e-05 -2.436e-18)
(1.17031 0.0918375 6.59989e-18)
(1.00426 0.0782853 -1.32214e-18)
(0.999993 2.9908e-05 -1.92092e-17)
(1.00361 0.00591583 1.2505e-17)
(0.999553 0.00845004 -1.04827e-17)
(1.00463 4.6794e-05 2.8625e-18)
(1.00317 -0.000301009 -4.14492e-18)
(1.00342 -9.31594e-05 -2.40886e-18)
(1.00409 0.00098497 -6.39555e-19)
(0.995351 0.00119456 -6.28929e-17)
(0.844214 0.058331 4.40118e-16)
(1.00478 0.00147871 4.89454e-18)
(0.997448 9.54141e-05 3.5926e-16)
(0.986212 0.00127312 3.07322e-16)
(1.02543 0.0260346 1.26438e-17)
(1.103 0.0351683 -3.1798e-18)
(1.00452 0.000198977 -4.11941e-18)
(0.990017 0.0244242 5.51267e-18)
(0.576267 0.0945408 -4.86541e-16)
(0.99999 2.04375e-05 2.07022e-17)
(1.02735 0.0118343 1.34385e-18)
(1.00051 4.6269e-05 5.6948e-19)
(1.01431 0.0125386 -1.42756e-18)
(1.00031 0.000109202 -8.08234e-18)
(1.0047 -6.08274e-05 2.31424e-19)
(0.815801 0.0453894 -1.65906e-16)
(1.02758 0.0145016 2.59068e-19)
(0.810804 0.0918131 -4.30608e-17)
(0.991607 0.000481775 1.87739e-16)
(1.0006 0.00766219 -6.45733e-18)
(1.03459 0.00160181 -2.37464e-18)
(1.03467 0.00190876 -1.06464e-18)
(1.00046 0.00782257 -1.80677e-17)
(1.03542 0.000143897 -1.63972e-18)
(1.03356 0.000455746 -1.95223e-18)
(1.00076 0.000215375 -2.61042e-18)
(0.999446 0.000613049 4.39138e-18)
(0.999424 0.000582267 9.59242e-18)
(0.999404 0.000564791 -1.83446e-17)
(0.999398 0.000514754 -3.47146e-17)
(0.714948 0.293609 -2.51946e-17)
(1.00002 3.90389e-05 3.74768e-18)
(0.9434 0.0755054 1.71965e-17)
(1.03943 0.00268391 2.1882e-18)
(0.992575 0.0247258 -8.60299e-18)
(1.03187 0.0120269 8.75132e-19)
(1.02702 0.0143723 9.56483e-21)
(1.02117 0.00143556 -3.16719e-18)
(1.01306 0.0118417 -6.17536e-18)
(1.02808 0.0131974 1.88705e-18)
(1.0132 0.0121713 -1.06733e-17)
(0.990952 0.0262493 -3.48129e-17)
(1.02725 0.027441 4.84952e-18)
(1.02636 0.0305496 -1.16088e-17)
(0.956844 0.05096 9.43731e-18)
(0.980868 0.00211325 7.60193e-17)
(1.03402 0.0797616 2.76575e-18)
(0.982076 0.00189521 -3.25416e-17)
(0.983181 0.00145225 5.87914e-18)
(1.0301 0.0145074 -8.05987e-18)
(0.940102 0.0974363 1.47194e-17)
(1.0031 0.00264215 1.84419e-18)
(0.99948 9.55868e-05 2.63502e-17)
(1.01593 0.0110776 -5.2488e-18)
(0.999518 9.30631e-05 6.0437e-18)
(1.00332 0.00306087 -2.81743e-18)
(0.794001 0.0157684 -3.20111e-17)
(0.20539 0.199098 -4.48554e-16)
(1.00317 0.00281577 -2.32632e-18)
(0.999979 4.77168e-06 -1.55431e-17)
(1.00023 0.000108004 1.25748e-18)
(0.999988 1.77108e-05 7.28316e-18)
(1.02787 0.0127502 -1.25581e-18)
(1 2.77634e-05 -3.4596e-18)
(0.999993 2.34783e-05 1.7232e-18)
(1.12394 0.0577331 1.88932e-17)
(1.03234 0.0106856 1.20445e-18)
(1.08844 0.176483 2.88118e-18)
(1.0016 0.00312534 6.05917e-18)
(1.03425 0.0124403 4.27669e-18)
(1.0075 0.00099172 1.01262e-17)
(0.999838 0.00810371 -3.7644e-18)
(1.03115 0.0274997 8.14175e-19)
(1.01609 0.0107187 -2.2607e-18)
(0.936944 0.00206194 2.38762e-17)
(1.01591 0.00987037 -2.12417e-18)
(1.00294 0.00256549 2.06357e-18)
(1.00049 8.98903e-05 -2.05923e-18)
(1.03287 0.00923328 3.42321e-18)
(1.03571 0.0113746 3.08423e-18)
(1.00545 0.00132921 -7.29991e-18)
(0.72383 0.0326524 -1.66091e-16)
(1.03163 0.0269257 -6.12512e-18)
(1.0342 0.0024024 1.4115e-19)
(0.998366 0.0340677 -2.44462e-17)
(1.00257 0.0410585 -1.38607e-17)
(0.999999 0.000107595 4.4897e-18)
(0.423473 0.583427 -1.70654e-16)
(1.03524 0.0799039 1.07568e-17)
(1.00126 0.00345136 -5.13538e-18)
(0.973888 0.183645 -2.33984e-17)
(0.984972 0.00135773 2.59494e-16)
(0.999975 4.56073e-05 -2.1545e-18)
(1 2.89432e-05 -1.41223e-18)
(0.999991 4.86096e-05 3.37909e-18)
(1.09156 0.171173 1.49089e-17)
(0.94911 0.0949887 -1.89336e-18)
(0.989119 0.0278054 2.79133e-17)
(1.02689 0.0097665 -1.28759e-18)
(1.03522 2.61691e-05 -2.19314e-18)
(0.999738 0.0110366 -1.3097e-17)
(0.941513 0.00668054 -2.79515e-16)
(0.9991 0.033517 4.40327e-18)
(1.04734 0.0146308 3.57995e-18)
(1.10752 0.0364038 -1.9488e-17)
(0.715298 0.0383813 1.43872e-16)
(0.994261 0.0243592 -3.40759e-17)
(0.957053 0.0509223 3.25313e-18)
(1.01818 0.000498101 2.09222e-18)
(1.02558 0.0372046 2.12548e-18)
(1.01134 0.0106298 -2.71841e-18)
(1.01617 0.0120389 -2.29792e-20)
(0.997993 0.000176834 4.47035e-16)
(1.012 0.0111146 4.94179e-18)
(1.02997 0.0114727 -1.85775e-18)
(0.999983 2.03108e-06 1.75274e-18)
(0.870363 -0.0279137 4.33498e-17)
(0.990652 0.00111053 -2.05773e-16)
(1.05579 0.0119356 -6.86532e-18)
(1.03515 0.00960988 1.48896e-19)
(0.993721 0.00111508 1.33676e-16)
(0.950706 0.058014 -8.1441e-17)
(1.17608 0.249744 -6.13663e-17)
(1.029 0.0144311 7.51552e-18)
(1.00837 0.0155511 -4.44552e-18)
(1.03499 0.0002988 -2.32076e-18)
(1.03614 0.00980354 -1.24883e-18)
(1.02928 0.0325608 -6.5895e-18)
(1.00414 0.00279073 -1.37952e-17)
(0.999999 7.34197e-06 1.61744e-18)
(0.996914 0.0681294 1.59346e-17)
(1.00031 8.00152e-05 -3.05052e-18)
(1.05128 0.0176534 -3.98345e-19)
(1.00278 -7.49934e-05 -1.59323e-18)
(0.9657 0.00293109 1.28607e-16)
(0.964028 0.0409867 1.27611e-17)
(1.01084 0.00137295 2.37204e-18)
(1.10403 0.107337 -5.6639e-18)
(0.943354 0.0670483 2.24048e-17)
(0.995011 0.0162763 4.20306e-17)
(1.00105 0.00374753 3.41053e-19)
(0.591055 0.0821058 -6.05393e-16)
(1.0006 -1.80977e-05 -2.9053e-18)
(1.00132 0.00306425 -1.35022e-18)
(1.04262 0.039758 -9.15951e-18)
(0.999986 2.66343e-05 1.11542e-17)
(1.00102 0.00403528 9.87948e-18)
(1.00158 0.00265199 5.05797e-18)
(0.727512 0.234743 -9.21645e-18)
(0.687867 0.471719 -4.98872e-17)
(0.998403 0.012316 -1.49753e-17)
(1.00106 -0.000327973 -4.55826e-18)
(0.938181 0.0289008 5.60375e-17)
(1.00104 0.0411749 -3.31132e-18)
(1.02712 0.0109325 5.22936e-19)
(1.03081 0.0146902 1.09536e-18)
(1.03186 0.0106368 -7.10891e-19)
(1.00082 -0.000200467 4.03589e-18)
(0.999995 3.4433e-05 -3.83408e-18)
(1.00071 0.0361603 -3.52703e-18)
(0.999987 3.00269e-06 -3.01002e-18)
(0.963102 0.0398994 2.91533e-17)
(1.02664 0.0109532 3.83121e-18)
(1.02551 0.0350847 -1.03851e-17)
(0.996668 0.00058139 4.04313e-17)
(0.997289 0.0656405 4.01316e-18)
(1.04553 0.0397891 1.56381e-17)
(0.997886 7.59964e-05 -6.18881e-16)
(1.00145 0.0115584 8.66105e-18)
(1.00577 0.00171538 1.02053e-17)
(0.927986 0.0421707 -4.27745e-17)
(1.04318 0.0397353 5.96496e-19)
(0.999982 7.42416e-05 -5.16193e-17)
(1.00113 0.0379733 -6.83902e-18)
(1.03235 0.007472 6.47266e-19)
(1.01607 -0.000137736 -5.56217e-18)
(0.99935 0.0401582 -1.52381e-17)
(1.00312 -0.000325362 -1.8019e-17)
(0.930515 0.0954401 -2.25508e-17)
(1.02565 -0.00207847 -2.85592e-18)
(1.0363 0.00755675 6.17539e-18)
(1.02667 0.0312324 2.89089e-18)
(1.00085 -5.5338e-06 6.02202e-18)
(1.00125 0.0114301 2.39503e-17)
(1.05364 0.0593787 -1.12411e-17)
(1.05323 0.0170445 5.44546e-18)
(1.00001 2.58246e-05 1.1086e-17)
(1.01098 0.0158853 1.37317e-18)
(0.9882 0.174405 -3.33184e-17)
(1.03633 0.0024344 1.11102e-18)
(0.511655 0.482314 -8.15571e-17)
(1 4.37031e-05 6.41116e-19)
(1.00247 0.000463312 5.01547e-18)
(1.00076 0.00020768 9.38893e-18)
(1.03101 0.0135232 -9.29968e-19)
(0.99494 0.017894 2.01874e-17)
(0.995281 0.0134442 2.85737e-18)
(1.00322 0.000197854 7.94604e-18)
(0.998997 0.0363894 1.24666e-17)
(1.01707 0.0122033 -2.12051e-18)
(0.972161 0.00363523 -1.57782e-16)
(1.00982 0.00134952 3.70705e-18)
(1.08244 0.0846155 1.32996e-18)
(1.00034 3.0931e-05 5.47573e-18)
(1.08844 0.0998116 -2.14121e-17)
(1.00152 0.000212078 -4.95788e-20)
(0.638238 0.635846 -1.01719e-16)
(1.02676 0.00191249 -1.39161e-18)
(1.05175 0.0622464 -9.99613e-18)
(0.999814 3.35965e-05 6.26473e-17)
(0.996939 0.000655415 -1.59688e-17)
(1.02552 0.0269045 -5.16197e-18)
(1.00383 0.00217435 9.27577e-18)
(0.998917 0.000231176 4.90855e-17)
(0.992365 0.000484916 1.08671e-17)
(0.994371 0.0209826 -3.15803e-17)
(0.99502 0.0196268 3.73525e-17)
(0.968483 0.156084 -1.79471e-17)
(1.03333 0.031435 4.85222e-18)
(1.03419 0.0309763 -2.77433e-18)
(1.00001 7.6476e-06 -2.72743e-19)
(1.00415 0.00208228 2.34377e-18)
(1.02657 0.0121509 -3.52439e-18)
(1.05193 0.0144326 -1.26224e-18)
(1.00001 6.58052e-06 -5.81738e-18)
(1.00043 0.000107437 -1.47613e-18)
(1.03184 0.00875968 -1.76095e-18)
(1.00069 0.000107534 5.07755e-18)
(0.802079 0.0499888 -6.04991e-16)
(1.17379 0.257503 -1.89008e-17)
(1.121 -0.0237696 1.4075e-16)
(1.00001 8.71568e-06 5.05601e-18)
(1.00611 0.00930297 1.78239e-18)
(1.04286 0.0103322 -9.88513e-19)
(0.995416 0.0143921 3.08801e-17)
(1.00453 0.00113751 4.00094e-18)
(0.379204 0.671383 5.14819e-16)
(1.0004 6.81387e-05 -2.6057e-18)
(0.934587 0.0772396 2.6906e-17)
(0.961231 0.0453553 -3.83484e-17)
(1.00721 0.00927191 -9.67515e-18)
(1.00407 0.000837493 1.33002e-17)
(0.99877 0.000256915 -9.33988e-17)
(1.01078 0.000761056 8.69754e-19)
(1.03969 0.00307849 6.25983e-19)
(1.01688 0.00865549 1.43839e-17)
(0.996721 0.0116957 1.78651e-17)
(0.999995 1.8845e-05 4.54392e-19)
(0.999981 2.24091e-05 -9.26413e-17)
(0.99508 0.0168473 -2.12794e-17)
(0.996439 0.00122012 -1.18095e-16)
(0.992973 0.0595534 2.48182e-17)
(1.03181 0.0131533 -2.20384e-18)
(0.999214 2.5889e-05 -3.60118e-17)
(1.00043 0.00019157 -3.2475e-21)
(1.02685 0.0288551 -8.60446e-18)
(0.849061 -0.0359989 6.24173e-17)
(0.997937 0.000220063 -3.19425e-16)
(1.04674 0.0134414 5.68313e-19)
(1.00021 2.03105e-05 5.17227e-18)
(0.996538 0.0113179 -1.58025e-17)
(0.950395 0.081096 2.43272e-17)
(1.03865 0.000540226 5.07598e-19)
(1.04143 0.0100033 1.86586e-18)
(0.952528 0.0542128 1.53703e-17)
(1.00258 0.0184192 -3.36159e-18)
(1.03901 0.00536825 -1.40722e-18)
(1.00001 2.42014e-05 -3.42508e-18)
(0.999927 -1.72428e-06 -2.70155e-16)
(1.03768 0.0038638 -1.7421e-18)
(1.01051 0.0095686 -1.51137e-17)
(1.00338 0.018682 7.96745e-18)
(1.01041 0.00969031 -2.54787e-18)
(0.999997 3.5516e-05 -1.25266e-19)
(1.00047 0.000212876 8.75537e-19)
(1.00371 0.000546371 -9.96727e-18)
(0.999964 0.0299758 1.64175e-17)
(1.04038 0.00488221 -1.00116e-18)
(0.943093 0.0391624 2.34032e-17)
(0.990215 0.000882308 1.64027e-16)
(0.924315 0.0417613 -8.50932e-17)
(1.02997 0.0135633 2.39417e-18)
(1.00859 0.0173376 -4.36785e-18)
(0.934439 0.0429707 9.04601e-17)
(0.985334 0.0221465 7.00908e-17)
(1.05281 0.0106447 -6.14285e-18)
(1.03213 0.0118161 1.8025e-18)
(0.985923 0.0208974 1.8007e-17)
(0.994198 0.0580625 -1.19719e-17)
(0.999878 7.72204e-05 -9.40845e-18)
(1.01167 0.0634532 3.98895e-17)
(1.02637 0.026259 5.38111e-18)
(1.00001 -1.09166e-05 3.07912e-18)
(0.999994 8.64944e-06 3.60453e-17)
(1.00078 -8.72069e-05 7.00641e-18)
(0.999762 0.000409343 -2.0779e-17)
(1.06404 0.0677649 -2.69463e-18)
(1.01069 0.0165225 6.52635e-20)
(1.01208 -0.000612221 -3.27236e-18)
(0.945056 0.0438824 3.12068e-17)
(0.992079 0.000393889 2.86881e-16)
(0.794626 0.0235381 1.34651e-16)
(1.03633 0.00231529 1.02168e-18)
(1.03904 0.00295008 2.55585e-18)
(1.00399 0.000242473 1.15544e-17)
(1.04857 0.0384394 7.28063e-18)
(1.00001 3.22496e-05 1.7964e-18)
(0.998447 0.0294558 1.15002e-18)
(1.0004 0.00387928 -1.85807e-18)
(0.93671 0.111548 -2.5364e-17)
(0.932982 0.0494501 9.92861e-17)
(1.0018 0.0162867 1.88568e-17)
(1.01645 0.0112922 3.68091e-19)
(0.428528 0.664736 -1.88948e-16)
(1.02977 0.0124054 -1.80681e-18)
(1.0429 0.0600707 2.72523e-19)
(1.0096 0.0122748 9.56416e-18)
(0.979274 0.142893 2.92279e-17)
(1.15999 0.211208 1.91692e-17)
(1.00112 -0.00011542 5.31238e-18)
(0.998278 0.00334772 5.21238e-18)
(1 9.04461e-06 3.48123e-18)
(1.05824 0.0632604 -2.69802e-18)
(0.998441 0.00310937 1.08662e-17)
(1.01586 0.00929764 7.26961e-18)
(1.09951 0.108051 -3.42809e-19)
(1.00043 5.3841e-05 6.8571e-19)
(0.971837 0.00328958 -2.45954e-17)
(0.992323 0.0512995 -9.74046e-18)
(1.00668 0.0148081 2.94449e-17)
(0.997545 0.000267535 -2.6198e-16)
(1.00196 0.0167006 -4.79384e-17)
(0.999211 0.000857325 -1.85441e-17)
(0.994743 0.0166636 -7.50894e-18)
(0.999215 0.000718685 -1.35246e-17)
(0.999247 0.000930474 1.26754e-17)
(0.996032 0.0131384 -2.08098e-17)
(1.03621 0.00604692 -3.95277e-18)
(1.03341 0.00801128 1.40453e-18)
(1.00687 0.0163064 1.32089e-17)
(0.672408 0.0385173 5.78192e-16)
(1.03842 -0.00125759 -3.42464e-19)
(0.275198 0.232694 2.30245e-16)
(1.02834 0.0133486 1.08116e-18)
(1.02255 0.000693414 -6.32692e-18)
(0.995497 0.0141465 1.86656e-18)
(1.02835 0.0146656 -4.89938e-19)
(0.991879 0.0267176 -1.78435e-17)
(1.0343 -0.000311049 1.2496e-18)
(0.55061 0.388021 -1.54251e-16)
(0.951373 0.0351815 -4.79778e-18)
(0.993296 0.0252106 1.76487e-17)
(1.0045 0.0227158 -1.43687e-17)
(0.995177 0.00114531 8.54155e-17)
(0.996166 0.000934527 8.03742e-17)
(1.02665 0.0291992 8.04238e-19)
(0.999995 2.9489e-05 -1.32153e-18)
(1.05193 0.00456339 -2.27072e-17)
(0.999396 6.35125e-05 4.25476e-17)
(0.947501 0.0389001 4.18454e-17)
(0.999098 0.0743049 -6.589e-18)
(1.06258 0.0596598 3.41139e-18)
(1.03917 0.024761 4.20876e-19)
(1.03398 0.013908 -4.42724e-18)
(0.99158 0.0495099 -6.81578e-18)
(1.00916 0.0131683 -1.16944e-18)
(1.03822 0.0239978 -5.58667e-19)
(0.970438 0.0315738 1.01726e-17)
(1.04217 0.0605991 3.25763e-19)
(1.00788 0.0218757 1.27855e-17)
(1.04459 0.0387143 -9.62802e-18)
(1.00556 0.0226295 1.25339e-18)
(1.00001 1.69226e-05 -1.24668e-18)
(0.998706 0.025544 -1.03036e-17)
(0.661166 0.0556892 -5.59615e-17)
(0.97512 0.134693 -5.82258e-18)
(1.00655 0.00543449 1.99921e-18)
(1.00004 3.71628e-05 -5.18099e-18)
(0.999097 0.00019184 2.82246e-17)
(0.994619 0.00733606 7.92509e-18)
(0.964697 0.00264176 -3.32092e-16)
(1.03387 0.00708891 2.10761e-18)
(1.02728 -0.000218672 1.06065e-18)
(1.00077 -0.000110165 5.6671e-18)
(1.00493 0.00689766 -3.83237e-18)
(0.992508 0.0260063 1.19904e-17)
(1.00627 0.00535255 7.97054e-18)
(1.00925 0.00114415 -2.52582e-18)
(1.0446 0.0338155 7.23868e-18)
(0.993713 0.00118663 8.6176e-17)
(0.991951 0.0348349 -1.09306e-17)
(1.0356 0.0147149 -1.07279e-18)
(1.00515 0.00649069 8.05883e-18)
(1.0081 0.00674487 7.9463e-19)
(0.945827 0.0596091 -3.78039e-18)
(1 -1.217e-05 -1.72794e-18)
(0.993479 0.00543563 3.30517e-18)
(1.29416 0.156599 1.69225e-17)
(0.999897 2.18246e-05 1.19356e-16)
(1.04022 0.0377918 -5.39086e-18)
(0.996713 0.0742597 -5.59337e-18)
(1.00739 0.00685852 -1.33128e-17)
(0.959142 0.0449532 4.86217e-17)
(1.0358 0.0145528 6.23935e-18)
(0.997617 0.0256404 1.38319e-17)
(1.02852 0.0337098 1.99892e-18)
(0.999719 0.00316754 1.92446e-18)
(0.933082 0.0426681 -3.18703e-17)
(1.00532 0.00116136 1.55581e-17)
(1.03206 -8.22186e-05 -1.45863e-18)
(1.03505 0.0151969 -5.21709e-18)
(0.935901 0.0412801 -1.42629e-16)
(0.999775 0.00310511 3.03261e-18)
(1.0394 0.00393063 -1.00709e-18)
(1.05244 0.0208035 -8.97116e-18)
(0.993115 0.0337193 -3.31849e-18)
(1.00593 0.0130878 1.11752e-18)
(1.00462 0.00295797 9.91832e-19)
(1.01178 0.0614729 2.21843e-17)
(0.790662 0.200974 3.82705e-17)
(0.995615 0.000851365 3.62892e-17)
(0.999973 3.27687e-05 1.11727e-17)
(0.994013 0.0263543 -4.55048e-19)
(0.999998 2.44634e-05 1.49758e-18)
(1.16143 0.196846 -1.22957e-17)
(1.00668 0.0225706 -8.63342e-18)
(1.03804 0.0865406 7.22311e-18)
(1.01554 0.00729986 7.09029e-18)
(1.02702 0.00215132 1.68002e-18)
(0.254324 0.105251 -7.05495e-16)
(1.00638 0.0158089 1.32761e-17)
(1.09018 0.19149 1.35265e-17)
(1.03339 0.00668631 -9.42351e-19)
(1.04442 -0.021449 1.25214e-16)
(1.02816 0.0119663 2.73675e-19)
(0.996825 0.0117485 7.50072e-18)
(1.00609 0.0144452 -4.4739e-18)
(1.01536 -0.00106401 -5.17143e-19)
(1.09636 0.086334 -1.37643e-17)
(1.0822 0.0863839 5.12872e-18)
(1.00146 0.000330059 -6.39948e-18)
(1.00174 -0.000402874 2.5584e-18)
(0.933379 0.0501342 -6.74247e-17)
(1.00203 -0.00019415 7.489e-19)
(0.687979 0.394351 1.20782e-17)
(1.02765 0.0314588 6.64659e-18)
(0.970476 0.16653 9.65402e-18)
(1.00434 0.00302076 -2.16373e-17)
(0.0543552 0.268345 -2.53698e-16)
(1.13608 0.234902 3.6872e-17)
(1.00588 0.0221444 -1.14563e-17)
(0.999998 1.29679e-05 2.0096e-18)
(0.999999 0.00277341 -2.94633e-18)
(0.954129 0.0305036 8.47609e-17)
(0.994491 0.00813787 1.67342e-17)
(0.989742 0.000249303 1.42363e-16)
(0.997421 0.00953468 -1.17654e-17)
(1.03111 0.0117305 5.26778e-18)
(0.973007 0.0299942 1.44301e-17)
(1.06217 -0.000344781 -2.39054e-17)
(0.618363 0.05115 1.23781e-16)
(1.00067 1.56679e-05 -4.53905e-18)
(0.966173 0.0370175 7.27963e-17)
(1.03341 0.029255 -9.01635e-18)
(0.921399 0.0534417 1.45383e-17)
(1.00456 0.0127377 1.69866e-18)
(0.931961 0.0740511 7.42009e-17)
(1.03658 0.00813742 3.54312e-19)
(0.951904 0.03517 1.39764e-17)
(0.997243 0.000574665 -3.62185e-17)
(1.00005 -9.15479e-06 3.30445e-18)
(1.03713 0.0228136 -1.50961e-18)
(1.03991 0.0245528 -4.11243e-18)
(1.02853 0.00129369 -4.36266e-18)
(0.929463 0.0401675 7.35955e-17)
(1.0351 0.0870963 -8.16059e-18)
(1.0209 0.00066058 -5.10785e-18)
(0.997565 0.0240004 -1.56929e-17)
(1.00043 0.00390294 6.75071e-18)
(1.00953 0.00873234 2.78031e-18)
(0.773654 0.033883 8.98246e-17)
(1.00929 0.0085742 -6.67404e-18)
(1.03403 0.0212685 -2.92796e-18)
(0.982444 0.0419077 2.1022e-17)
(1.02641 0.00977122 -1.79278e-18)
(1.01072 0.000372802 1.04218e-17)
(0.996494 0.0113627 2.22547e-17)
(1.05188 0.0214719 -3.9102e-18)
(1.01483 0.00691791 -4.16171e-18)
(1.00507 0.0130307 1.61608e-18)
(1.05662 0.0019383 -5.55023e-17)
(0.991737 0.0291817 -1.81234e-17)
(1.02037 0.000698003 7.54987e-20)
(0.808828 0.331822 5.10513e-17)
(1 -6.41271e-06 -9.61922e-20)
(1.01541 0.00782055 -2.76851e-18)
(0.999571 0.0206162 1.96322e-18)
(0.992504 0.00716372 -6.65152e-18)
(1.00325 0.000385833 9.38118e-18)
(0.998415 0.0239916 -8.93017e-18)
(1.00001 -7.50046e-06 -2.54487e-18)
(1.04429 0.105753 -3.75436e-18)
(1.00529 0.000704224 6.84212e-18)
(0.972414 0.0056081 1.74376e-16)
(1.03494 0.0327733 7.63658e-18)
(0.956928 0.0453975 -9.3899e-18)
(1.01639 0.00896622 7.27208e-19)
(1.01589 0.00824352 1.59408e-17)
(1.03724 0.0240289 -3.19598e-18)
(1.1489 0.124024 -5.1686e-17)
(0.999865 7.5212e-05 1.34797e-16)
(0.992843 0.00083209 -6.20794e-17)
(1.02207 0.00113913 -6.02591e-18)
(1.10151 0.193877 3.10236e-17)
(1.03941 0.0241134 -9.22768e-18)
(0.999912 0.00305064 -1.37571e-18)
(0.258769 0.142851 -1.163e-15)
(1.00003 1.64299e-06 -1.2976e-18)
(1.00515 0.00150853 -1.65725e-17)
(0.756803 0.000197019 9.16674e-17)
(0.994609 0.00509976 1.37731e-17)
(0.999548 0.00319967 -8.69947e-19)
(0.99953 0.00341635 -1.00757e-19)
(0.983578 0.0377841 -1.11998e-17)
(0.958297 0.0270821 9.43946e-18)
(0.99986 5.02094e-05 -3.90162e-17)
(0.993611 0.00642418 -4.31121e-18)
(0.937664 0.067613 -6.68301e-19)
(0.998329 0.0205484 -3.23846e-17)
(0.996278 0.0171638 -5.61265e-19)
(0.996592 0.00958805 1.2067e-17)
(1.00105 5.83673e-05 1.8293e-19)
(0.959452 0.0321968 -2.82627e-17)
(1.06512 0.0547957 1.14323e-17)
(0.995189 0.0154571 -2.76281e-17)
(0.937114 0.025668 4.90158e-18)
(1.03339 0.00634517 -3.64594e-18)
(1.03565 4.12322e-05 8.61976e-19)
(1.0397 0.104464 -3.01041e-17)
(1.03198 0.0281738 3.03205e-19)
(0.996566 0.00925253 -2.21868e-17)
(1.00512 0.00154499 -2.23168e-19)
(1.08899 0.100718 -1.018e-17)
(1.0372 0.00538734 3.47287e-18)
(0.976374 0.0243657 2.50459e-17)
(1.00072 0.00407338 2.49739e-18)
(0.999718 0.000378886 -6.47462e-17)
(0.924033 0.0135195 -2.72471e-16)
(1.04917 0.0380884 5.2627e-18)
(1.01398 0.00659387 1.23248e-17)
(1.0116 0.0504714 -1.2473e-18)
(1.0143 0.00751682 3.59929e-18)
(0.996786 0.0100658 1.34792e-17)
(1.00521 0.00438446 -4.49974e-18)
(0.966881 0.0337445 1.30663e-19)
(0.857632 0.0210194 -5.99003e-17)
(0.279282 0.436642 2.59696e-16)
(0.968428 0.036279 -1.82713e-17)
(0.999158 0.0182607 -2.17781e-18)
(1.00525 0.004364 -1.27187e-17)
(0.97119 0.0337989 -1.05767e-17)
(0.612551 0.297449 9.90902e-17)
(0.936216 0.030663 1.6345e-16)
(0.999793 0.00279002 4.24544e-18)
(1.04829 0.0323248 8.59466e-18)