/*--------------------------------*- C++ -*----------------------------------*\
  =========                 |
  \\      /  F ield         | OpenFOAM: The Open Source CFD Toolbox
   \\    /   O peration     | Website:  https://openfoam.org
    \\  /    A nd           | Version:  7
     \\/     M anipulation  |
\*---------------------------------------------------------------------------*/
FoamFile
{
    version     2.0;
    format      ascii;
    class       volScalarField;
    location    "1";
    object      p;
}
// * * * * * * * * * * * * * * * * * * * * * * * * * * * * * * * * * * * * * //

dimensions      [0 2 -2 0 0 0 0];

internalField   nonuniform List<scalar> 
40000
(
1.56619e-07
5.66602e-06
8.12811e-06
6.05946e-06
-1.11222e-06
-1.34773e-05
-3.07295e-05
-5.24042e-05
-7.80036e-05
-0.000107025
-0.000138968
-0.000173366
-0.000209804
-0.000247896
-0.000287286
-0.000327657
-0.000368727
-0.000410247
-0.000451995
-0.000493776
-0.000535419
-0.000576774
-0.000617709
-0.000658115
-0.0006979
-0.00073698
-0.000775288
-0.000812768
-0.000849371
-0.000885056
-0.000919789
-0.000953544
-0.0009863
-0.00101804
-0.00104874
-0.0010784
-0.001107
-0.00113451
-0.00116095
-0.00118628
-0.00121049
-0.00123357
-0.0012555
-0.00127627
-0.00129585
-0.00131421
-0.00133135
-0.00134721
-0.00136178
-0.00137502
-0.0013869
-0.00139737
-0.0014064
-0.00141394
-0.00141995
-0.00142438
-0.00142719
-0.00142833
-0.00142776
-0.00142542
-0.00142126
-0.00141523
-0.00140729
-0.00139738
-0.00138546
-0.00137147
-0.00135539
-0.00133715
-0.00131672
-0.00129406
-0.00126914
-0.00124193
-0.00121238
-0.00118049
-0.00114623
-0.00110959
-0.00107055
-0.0010291
-0.00098526
-0.000939022
-0.000890401
-0.000839417
-0.000786095
-0.000730466
-0.000672572
-0.000612458
-0.000550179
-0.000485799
-0.000419389
-0.000351026
-0.000280797
-0.000208798
-0.000135131
-5.99072e-05
1.67536e-05
9.47248e-05
0.000173871
0.000254047
0.000335104
0.000416883
0.00049922
0.000581941
0.000664871
0.000747823
0.000830609
0.000913034
0.000994898
0.001076
0.00115613
0.00123508
0.00131264
0.0013886
0.00146274
0.00153485
0.00160472
0.00167214
0.0017369
0.0017988
0.00185763
0.00191322
0.00196535
0.00201386
0.00205858
0.00209932
0.00213595
0.00216831
0.00219627
0.0022197
0.0022385
0.00225256
0.00226179
0.00226614
0.00226554
0.00225995
0.00224934
0.0022337
0.00221303
0.00218736
0.00215672
0.00212116
0.00208075
0.00203557
0.00198572
0.00193131
0.00187248
0.00180936
0.00174211
0.0016709
0.00159591
0.00151734
0.0014354
0.0013503
0.00126226
0.00117153
0.00107835
0.000982972
0.000885657
0.000786669
0.000686279
0.000584764
0.000482401
0.000379473
0.000276263
0.000173057
7.01399e-05
-3.22026e-05
-0.000133686
-0.000234025
-0.00033294
-0.000430151
-0.000525381
-0.000618358
-0.000708812
-0.000796478
-0.000881096
-0.000962412
-0.00104018
-0.00111414
-0.00118408
-0.00124976
-0.00131097
-0.00136749
-0.00141912
-0.00146569
-0.00150703
-0.00154299
-0.00157346
-0.00159834
-0.00161759
-0.00163122
-0.00163929
-0.00164197
-0.00163953
-0.00163242
-0.0016213
-0.00160719
-0.00159154
-0.00157577
-0.0015636
-0.00155765
-4.40864e-06
9.47001e-07
2.18429e-06
-7.53112e-07
-7.97343e-06
-1.95725e-05
-3.5383e-05
-5.51061e-05
-7.83857e-05
-0.000104812
-0.000133976
-0.000165495
-0.000199006
-0.000234163
-0.000270646
-0.000308163
-0.000346451
-0.000385278
-0.000424432
-0.000463724
-0.000502988
-0.000542073
-0.00058085
-0.000619211
-0.000657059
-0.000694308
-0.000730888
-0.000766739
-0.000801805
-0.000836041
-0.00086941
-0.00090188
-0.000933423
-0.000964019
-0.000993649
-0.00102229
-0.00104993
-0.00107654
-0.00110212
-0.00112664
-0.00115009
-0.00117245
-0.0011937
-0.00121382
-0.0012328
-0.0012506
-0.00126719
-0.00128256
-0.00129667
-0.00130949
-0.00132098
-0.00133111
-0.00133983
-0.00134711
-0.0013529
-0.00135716
-0.00135985
-0.00136092
-0.00136033
-0.00135802
-0.00135396
-0.00134809
-0.00134037
-0.00133075
-0.00131919
-0.00130565
-0.00129007
-0.00127242
-0.00125267
-0.00123077
-0.0012067
-0.00118042
-0.00115191
-0.00112115
-0.00108812
-0.0010528
-0.00101518
-0.000975267
-0.000933057
-0.000888557
-0.00084178
-0.000792746
-0.000741481
-0.000688015
-0.00063239
-0.000574652
-0.000514852
-0.000453054
-0.000389327
-0.000323745
-0.000256395
-0.000187367
-0.000116762
-4.46862e-05
2.87441e-05
0.000103407
0.000179171
0.000255898
0.000333443
0.000411654
0.000490371
0.000569431
0.000648662
0.000727887
0.000806924
0.000885586
0.000963682
0.00104102
0.0011174
0.00119261
0.00126647
0.00133876
0.00140928
0.00147784
0.00154421
0.00160822
0.00166965
0.00172831
0.00178402
0.00183658
0.00188582
0.00193157
0.00197366
0.00201193
0.00204623
0.00207643
0.0021024
0.00212402
0.00214119
0.00215381
0.0021618
0.0021651
0.00216365
0.00215742
0.00214638
0.00213052
0.00210984
0.00208438
0.00205416
0.00201923
0.00197966
0.00193554
0.00188695
0.00183401
0.00177684
0.00171558
0.00165039
0.00158142
0.00150884
0.00143286
0.00135367
0.00127147
0.00118649
0.00109896
0.0010091
0.000917163
0.000823399
0.000728062
0.000631412
0.000533713
0.000435233
0.000336242
0.000237012
0.000137817
3.89291e-05
-5.93769e-05
-0.000156829
-0.000253156
-0.000348089
-0.000441362
-0.000532712
-0.00062188
-0.000708608
-0.000792648
-0.000873754
-0.000951686
-0.00102621
-0.0010971
-0.00116415
-0.00122713
-0.00128586
-0.00134014
-0.0013898
-0.00143468
-0.00147466
-0.0015096
-0.00153943
-0.00156409
-0.00158357
-0.00159792
-0.00160725
-0.00161176
-0.00161176
-0.00160769
-0.00160019
-0.00159013
-0.00157865
-0.00156718
-0.00155764
-0.00155169
-5.86591e-06
3.63843e-07
1.4859e-06
-1.71771e-06
-8.84933e-06
-1.99298e-05
-3.48352e-05
-5.33254e-05
-7.50868e-05
-9.97727e-05
-0.000127042
-0.000156563
-0.000188004
-0.000221054
-0.00025542
-0.000290834
-0.000327053
-0.000363856
-0.000401041
-0.000438429
-0.000475857
-0.000513178
-0.000550269
-0.000587021
-0.000623333
-0.000659124
-0.000694321
-0.000728858
-0.000762681
-0.000795742
-0.000827999
-0.000859418
-0.00088997
-0.00091963
-0.000948375
-0.000976181
-0.00100303
-0.0010289
-0.00105378
-0.00107764
-0.00110047
-0.00112224
-0.00114294
-0.00116255
-0.00118104
-0.00119839
-0.00121457
-0.00122956
-0.00124332
-0.00125582
-0.00126703
-0.00127691
-0.00128542
-0.00129253
-0.00129819
-0.00130235
-0.00130499
-0.00130605
-0.0013055
-0.00130328
-0.00129935
-0.00129367
-0.00128619
-0.00127687
-0.00126566
-0.00125253
-0.00123743
-0.00122033
-0.00120119
-0.00117997
-0.00115665
-0.00113119
-0.00110358
-0.00107379
-0.0010418
-0.00100761
-0.000971196
-0.000932569
-0.000891727
-0.000848677
-0.000803432
-0.000756012
-0.000706443
-0.000654756
-0.00060099
-0.00054519
-0.00048741
-0.000427709
-0.000366154
-0.000302821
-0.00023779
-0.000171152
-0.000103003
-3.34486e-05
3.74004e-05
0.000109425
0.000182497
0.000256484
0.000331243
0.000406629
0.000482487
0.000558657
0.000634974
0.000711266
0.000787357
0.000863067
0.000938211
0.0010126
0.00108605
0.00115835
0.00122932
0.00129875
0.00136646
0.00143225
0.00149591
0.00155726
0.00161611
0.00167226
0.00172554
0.00177577
0.00182277
0.00186638
0.00190643
0.00194278
0.00197529
0.00200382
0.00202824
0.00204846
0.00206436
0.00207585
0.00208287
0.00208535
0.00208323
0.00207649
0.0020651
0.00204905
0.00202834
0.00200301
0.00197309
0.00193862
0.00189967
0.00185633
0.00180868
0.00175683
0.00170091
0.00164105
0.0015774
0.00151011
0.00143936
0.00136533
0.00128822
0.00120822
0.00112556
0.00104044
0.000953109
0.000863789
0.000772727
0.000680169
0.000586367
0.000491578
0.000396061
0.000300076
0.000203887
0.000107758
1.19529e-05
-8.3264e-05
-0.00017763
-0.000270885
-0.000362768
-0.000453026
-0.000541404
-0.000627654
-0.000711531
-0.000792798
-0.00087122
-0.000946569
-0.00101863
-0.00108718
-0.00115202
-0.00121296
-0.00126981
-0.0013224
-0.00137058
-0.0014142
-0.00145316
-0.00148734
-0.00151669
-0.00154116
-0.00156078
-0.0015756
-0.00158575
-0.00159142
-0.00159292
-0.00159066
-0.00158519
-0.00157722
-0.00156767
-0.00155765
-0.0015481
-0.00153952
-3.13341e-06
3.89516e-06
5.09376e-06
1.80375e-06
-5.24618e-06
-1.60053e-05
-3.03375e-05
-4.79932e-05
-6.86797e-05
-9.21011e-05
-0.000117958
-0.000145947
-0.000175773
-0.000207147
-0.000239805
-0.0002735
-0.000308007
-0.000343115
-0.000378637
-0.000414398
-0.000450243
-0.000486034
-0.000521651
-0.000556982
-0.000591934
-0.000626425
-0.00066038
-0.000693735
-0.000726432
-0.000758422
-0.000789663
-0.000820119
-0.000849763
-0.000878562
-0.000906493
-0.000933531
-0.000959654
-0.000984841
-0.00100907
-0.00103233
-0.00105458
-0.00107583
-0.00109603
-0.00111517
-0.00113324
-0.00115019
-0.00116601
-0.00118067
-0.00119414
-0.00120638
-0.00121737
-0.00122705
-0.00123541
-0.0012424
-0.00124797
-0.0012521
-0.00125474
-0.00125584
-0.00125537
-0.00125328
-0.00124953
-0.00124408
-0.00123688
-0.00122789
-0.00121707
-0.00120438
-0.00118978
-0.00117323
-0.0011547
-0.00113416
-0.00111158
-0.00108693
-0.0010602
-0.00103134
-0.00100037
-0.000967253
-0.000931993
-0.000894585
-0.000855033
-0.000813344
-0.000769533
-0.000723617
-0.000675622
-0.00062558
-0.000573528
-0.000519512
-0.000463581
-0.000405797
-0.000346223
-0.000284932
-0.000222005
-0.000157528
-9.15952e-05
-2.43091e-05
4.42219e-05
0.000113882
0.000184548
0.000256088
0.000328367
0.000401241
0.00047456
0.000548171
0.000621911
0.000695614
0.000769109
0.000842221
0.00091477
0.000986575
0.00105745
0.0011272
0.00119564
0.00126259
0.00132784
0.00139122
0.00145252
0.00151156
0.00156816
0.00162214
0.00167331
0.00172151
0.00176657
0.00180832
0.00184661
0.0018813
0.00191224
0.00193932
0.00196241
0.0019814
0.00199619
0.00200671
0.00201288
0.00201463
0.00201192
0.00200472
0.001993
0.00197677
0.00195602
0.00193077
0.00190108
0.00186697
0.00182853
0.00178583
0.00173895
0.00168802
0.00163313
0.00157444
0.00151208
0.0014462
0.00137698
0.0013046
0.00122924
0.0011511
0.00107039
0.000987329
0.000902132
0.00081503
0.000726261
0.000636065
0.000544687
0.000452376
0.000359382
0.000265961
0.000172368
7.8858e-05
-1.43123e-05
-0.000106888
-0.000198614
-0.000289238
-0.000378512
-0.000466187
-0.000552021
-0.000635774
-0.000717213
-0.000796107
-0.000872234
-0.000945378
-0.00101533
-0.00108189
-0.00114486
-0.00120406
-0.00125933
-0.00131049
-0.00135742
-0.00139998
-0.00143807
-0.00147161
-0.00150053
-0.00152483
-0.0015445
-0.00155963
-0.00157032
-0.00157676
-0.00157921
-0.00157802
-0.00157365
-0.00156663
-0.00155769
-0.00154765
-0.00153662
-0.00152374
4.60729e-06
1.16187e-05
1.2601e-05
9.09956e-06
1.97813e-06
-8.65919e-06
-2.26356e-05
-3.96947e-05
-5.9572e-05
-8.20025e-05
-0.000106713
-0.000133429
-0.00016188
-0.000191809
-0.000222972
-0.000255144
-0.000288114
-0.000321689
-0.00035569
-0.000389952
-0.000424328
-0.000458689
-0.000492915
-0.000526903
-0.000560561
-0.000593807
-0.000626569
-0.00065878
-0.000690386
-0.000721335
-0.000751585
-0.000781101
-0.000809851
-0.000837805
-0.000864935
-0.000891218
-0.000916628
-0.000941144
-0.000964743
-0.000987404
-0.00100911
-0.00102983
-0.00104955
-0.00106826
-0.00108591
-0.00110249
-0.00111798
-0.00113233
-0.00114553
-0.00115755
-0.00116834
-0.00117787
-0.0011861
-0.00119301
-0.00119854
-0.00120267
-0.00120535
-0.00120654
-0.0012062
-0.00120429
-0.00120076
-0.00119558
-0.0011887
-0.00118009
-0.0011697
-0.00115749
-0.00114343
-0.00112748
-0.00110961
-0.00108979
-0.00106799
-0.00104418
-0.00101835
-0.000990469
-0.000960528
-0.000928515
-0.000894423
-0.00085825
-0.00082
-0.00077968
-0.000737304
-0.00069289
-0.000646463
-0.000598054
-0.000547699
-0.000495443
-0.000441335
-0.000385432
-0.000327798
-0.000268504
-0.000207628
-0.000145254
-8.14741e-05
-1.63865e-05
4.99026e-05
0.000117281
0.000185627
0.000254815
0.000324712
0.000395179
0.000466071
0.000537236
0.000608518
0.000679755
0.000750782
0.000821428
0.000891517
0.000960873
0.00102931
0.00109666
0.00116272
0.00122731
0.00129026
0.00135136
0.00141044
0.00146732
0.00152181
0.00157375
0.00162295
0.00166924
0.00171248
0.00175249
0.00178913
0.00182227
0.00185175
0.00187747
0.0018993
0.00191714
0.0019309
0.0019405
0.00194585
0.00194692
0.00194365
0.001936
0.00192397
0.00190754
0.00188672
0.00186154
0.00183203
0.00179825
0.00176025
0.00171811
0.00167193
0.0016218
0.00156786
0.00151022
0.00144902
0.00138443
0.0013166
0.00124572
0.00117195
0.00109551
0.00101659
0.000935397
0.000852155
0.000767087
0.000680422
0.000592394
0.000503243
0.00041321
0.000322541
0.000231482
0.000140281
4.91876e-05
-4.15508e-05
-0.000131686
-0.000220973
-0.000309166
-0.000396025
-0.000481312
-0.000564793
-0.000646237
-0.000725419
-0.00080212
-0.000876128
-0.000947235
-0.00101524
-0.00107996
-0.00114121
-0.00119882
-0.00125262
-0.00130248
-0.00134826
-0.00138984
-0.00142714
-0.00146006
-0.00148858
-0.00151266
-0.00153233
-0.00154765
-0.0015587
-0.00156566
-0.00156874
-0.00156822
-0.00156443
-0.00155779
-0.0015488
-0.00153809
-0.00152511
-0.00150803
1.75131e-05
2.37108e-05
2.4089e-05
2.01323e-05
1.27041e-05
1.96643e-06
-1.1881e-05
-2.85921e-05
-4.79236e-05
-6.96287e-05
-9.34548e-05
-0.000119152
-0.000146475
-0.000175192
-0.000205082
-0.000235935
-0.000267558
-0.000299773
-0.000332409
-0.000365314
-0.000398352
-0.000431397
-0.000464337
-0.000497074
-0.00052952
-0.000561593
-0.000593224
-0.000624349
-0.000654911
-0.000684862
-0.000714161
-0.000742772
-0.000770661
-0.000797797
-0.000824153
-0.000849704
-0.000874425
-0.000898291
-0.000921281
-0.000943372
-0.000964543
-0.000984773
-0.00100404
-0.00102232
-0.0010396
-0.00105584
-0.00107101
-0.0010851
-0.00109807
-0.00110988
-0.00112051
-0.00112992
-0.00113808
-0.00114494
-0.00115048
-0.00115465
-0.00115741
-0.00115873
-0.00115856
-0.00115687
-0.00115361
-0.00114875
-0.00114224
-0.00113404
-0.00112412
-0.00111244
-0.00109895
-0.00108364
-0.00106646
-0.00104739
-0.0010264
-0.00100346
-0.000978559
-0.00095167
-0.000922781
-0.000891882
-0.000858967
-0.000824033
-0.000787083
-0.000748127
-0.000707175
-0.000664246
-0.000619364
-0.00057256
-0.000523868
-0.000473332
-0.000420999
-0.000366925
-0.000311172
-0.00025381
-0.000194912
-0.000134562
-7.2848e-05
-9.86674e-06
5.42793e-05
0.00011948
0.000185619
0.000252572
0.000320211
0.0003884
0.000456998
0.000525857
0.000594825
0.000663746
0.000732456
0.000800791
0.00086858
0.00093565
0.00100182
0.00106692
0.00113077
0.00119318
0.00125398
0.00131298
0.00137001
0.00142488
0.00147743
0.00152747
0.00157485
0.00161939
0.00166095
0.00169936
0.00173448
0.00176618
0.00179432
0.00181878
0.00183945
0.00185623
0.00186903
0.00187777
0.00188238
0.00188281
0.001879
0.00187093
0.00185859
0.00184197
0.00182107
0.00179593
0.00176657
0.00173304
0.00169542
0.00165378
0.0016082
0.00155879
0.00150567
0.00144896
0.0013888
0.00132535
0.00125876
0.00118921
0.00111687
0.00104194
0.000964621
0.000885111
0.000803626
0.000720386
0.000635615
0.000549542
0.0004624
0.000374425
0.000285856
0.000196935
0.000107901
1.89967e-05
-6.95361e-05
-0.000157457
-0.000244529
-0.000330514
-0.00041518
-0.000498296
-0.000579638
-0.000658982
-0.000736114
-0.000810823
-0.000882905
-0.000952163
-0.00101841
-0.00108146
-0.00114115
-0.00119731
-0.0012498
-0.00129847
-0.00134321
-0.0013839
-0.00142047
-0.00145283
-0.00148095
-0.0015048
-0.00152441
-0.0015398
-0.00155107
-0.00155834
-0.00156177
-0.00156157
-0.00155799
-0.00155128
-0.00154183
-0.00153009
-0.00151495
-0.00149378
3.53915e-05
4.01022e-05
3.94694e-05
3.47654e-05
2.6782e-05
1.57101e-05
1.75103e-06
-1.48645e-05
-3.39024e-05
-5.51333e-05
-7.83246e-05
-0.000103247
-0.000129681
-0.000157414
-0.000186243
-0.00021598
-0.000246446
-0.000277472
-0.000308903
-0.0003406
-0.000372432
-0.000404282
-0.000436047
-0.000467632
-0.000498953
-0.000529934
-0.000560507
-0.000590608
-0.000620185
-0.000649191
-0.000677586
-0.000705333
-0.0007324
-0.000758754
-0.00078437
-0.00080922
-0.00083328
-0.000856525
-0.000878934
-0.000900483
-0.000921151
-0.000940917
-0.00095976
-0.000977654
-0.000994578
-0.0010105
-0.00102541
-0.00103926
-0.00105203
-0.00106368
-0.00107419
-0.00108352
-0.00109163
-0.0010985
-0.00110408
-0.00110833
-0.00111122
-0.00111271
-0.00111276
-0.00111134
-0.00110839
-0.00110388
-0.00109778
-0.00109004
-0.00108063
-0.00106951
-0.00105665
-0.001042
-0.00102555
-0.00100726
-0.000987103
-0.000965059
-0.000941105
-0.000915222
-0.000887398
-0.000857621
-0.000825885
-0.000792189
-0.000756534
-0.000718928
-0.000679384
-0.000637918
-0.000594553
-0.000549318
-0.000502248
-0.000453384
-0.000402772
-0.000350467
-0.000296529
-0.000241023
-0.000184023
-0.000125609
-6.58681e-05
-4.8922e-06
5.72179e-05
0.000120355
0.000184406
0.00024925
0.000314763
0.000380811
0.000447258
0.00051396
0.000580767
0.000647528
0.000714084
0.000780272
0.000845928
0.00091088
0.000974958
0.00103799
0.00109979
0.0011602
0.00121902
0.00127609
0.00133124
0.00138428
0.00143504
0.00148336
0.00152908
0.00157202
0.00161205
0.001649
0.00168274
0.00171313
0.00174004
0.00176336
0.00178297
0.00179879
0.00181071
0.00181866
0.00182258
0.00182241
0.00181811
0.00180965
0.00179701
0.0017802
0.00175921
0.00173407
0.00170482
0.00167152
0.00163421
0.00159298
0.00154792
0.00149913
0.00144672
0.00139082
0.00133157
0.00126911
0.00120361
0.00113522
0.00106414
0.000990552
0.000914643
0.000836619
0.000756689
0.000675069
0.000591978
0.000507641
0.000422286
0.000336144
0.000249448
0.000162432
7.53337e-05
-1.16132e-05
-9.81733e-05
-0.000184113
-0.0002692
-0.000353207
-0.000435906
-0.000517076
-0.000596498
-0.00067396
-0.000749252
-0.000822174
-0.00089253
-0.000960132
-0.0010248
-0.00108636
-0.00114465
-0.00119953
-0.00125083
-0.00129845
-0.00134225
-0.00138215
-0.00141805
-0.0014499
-0.00147764
-0.00150125
-0.00152074
-0.00153613
-0.00154748
-0.00155488
-0.00155845
-0.00155833
-0.00155468
-0.00154764
-0.00153749
-0.00152454
-0.00150729
-0.00148242
5.78766e-05
6.05388e-05
5.85122e-05
5.27823e-05
4.3999e-05
3.23531e-05
1.80431e-05
1.28914e-06
-1.76881e-05
-3.86749e-05
-6.14575e-05
-8.58292e-05
-0.000111589
-0.000138544
-0.000166512
-0.000195319
-0.000224799
-0.000254799
-0.000285176
-0.000315802
-0.000346554
-0.000377327
-0.000408022
-0.000438551
-0.000468835
-0.000498802
-0.000528386
-0.000557528
-0.000586178
-0.000614292
-0.000641831
-0.000668759
-0.000695043
-0.000720654
-0.000745565
-0.000769748
-0.000793179
-0.000815835
-0.000837692
-0.00085873
-0.000878925
-0.000898257
-0.000916705
-0.000934243
-0.000950848
-0.000966496
-0.000981158
-0.000994808
-0.00100742
-0.00101895
-0.00102938
-0.00103867
-0.00104678
-0.00105369
-0.00105935
-0.00106373
-0.00106679
-0.0010685
-0.00106882
-0.00106769
-0.0010651
-0.001061
-0.00105535
-0.00104811
-0.00103925
-0.00102873
-0.00101652
-0.00100258
-0.000986884
-0.000969403
-0.000950111
-0.000928983
-0.000906
-0.000881142
-0.000854396
-0.000825751
-0.0007952
-0.000762742
-0.000728377
-0.000692114
-0.000653962
-0.000613938
-0.000572065
-0.000528368
-0.000482883
-0.000435648
-0.000386709
-0.000336116
-0.000283929
-0.000230212
-0.000175036
-0.000118477
-6.06202e-05
-1.5557e-06
5.86187e-05
0.000119799
0.000181875
0.000244729
0.000308239
0.000372277
0.000436707
0.00050139
0.000566181
0.00063093
0.000695483
0.000759681
0.000823362
0.000886358
0.000948502
0.00100963
0.00106955
0.00112812
0.00118514
0.00124044
0.00129387
0.00134523
0.00139437
0.00144113
0.00148533
0.00152682
0.00156546
0.00160108
0.00163357
0.00166277
0.00168857
0.00171085
0.00172951
0.00174445
0.00175557
0.00176281
0.0017661
0.00176539
0.00176063
0.0017518
0.00173888
0.00172187
0.00170078
0.00167564
0.00164647
0.00161333
0.00157629
0.00153541
0.00149079
0.00144252
0.00139073
0.00133552
0.00127705
0.00121546
0.0011509
0.00108353
0.00101355
0.000941126
0.000866454
0.000789733
0.00071117
0.000630974
0.000549364
0.000466558
0.000382781
0.000298259
0.00021322
0.000127895
4.25122e-05
-4.26971e-05
-0.000127504
-0.000211681
-0.000295003
-0.000377248
-0.000458195
-0.000537631
-0.000615343
-0.000691126
-0.000764779
-0.000836109
-0.000904928
-0.000971055
-0.00103432
-0.00109455
-0.00115161
-0.00120533
-0.00125559
-0.00130227
-0.00134525
-0.00138443
-0.00141974
-0.00145112
-0.0014785
-0.00150187
-0.00152121
-0.00153653
-0.00154788
-0.0015553
-0.00155886
-0.00155866
-0.00155477
-0.00154725
-0.00153629
-0.00152215
-0.00150296
-0.00147492
8.45247e-05
8.46891e-05
8.09552e-05
7.39431e-05
6.41168e-05
5.16628e-05
3.67771e-05
1.96678e-05
5.37886e-07
-2.04148e-05
-4.29975e-05
-6.70217e-05
-9.23044e-05
-0.000118673
-0.000145961
-0.000174008
-0.000202663
-0.000231788
-0.000261252
-0.000290936
-0.00032073
-0.000350536
-0.000380263
-0.00040983
-0.000439162
-0.000468192
-0.000496858
-0.000525105
-0.000552887
-0.000580164
-0.000606896
-0.00063305
-0.000658595
-0.000683502
-0.000707745
-0.000731297
-0.000754134
-0.000776234
-0.000797573
-0.00081813
-0.000837885
-0.000856817
-0.000874902
-0.000892117
-0.000908439
-0.000923843
-0.000938302
-0.000951789
-0.000964274
-0.000975726
-0.000986111
-0.000995399
-0.00100356
-0.00101055
-0.00101634
-0.00102089
-0.00102417
-0.00102614
-0.00102676
-0.00102599
-0.0010238
-0.00102014
-0.00101498
-0.00100829
-0.00100002
-0.00099014
-0.000978617
-0.000965418
-0.000950513
-0.000933873
-0.000915473
-0.000895288
-0.000873297
-0.000849483
-0.00082383
-0.000796328
-0.00076697
-0.000735752
-0.000702676
-0.000667748
-0.000630977
-0.000592378
-0.000551973
-0.000509788
-0.000465854
-0.000420208
-0.000372895
-0.000323963
-0.00027347
-0.000221478
-0.000168054
-0.000113274
-5.7219e-05
2.2976e-08
5.83564e-05
0.00011768
0.000177887
0.000238863
0.000300489
0.000362638
0.00042518
0.000487977
0.000550888
0.000613767
0.000676461
0.000738816
0.000800672
0.000861865
0.000922232
0.000981604
0.00103981
0.00109669
0.00115206
0.00120576
0.00125762
0.00130747
0.00135514
0.00140047
0.0014433
0.00148349
0.00152087
0.0015553
0.00158665
0.00161479
0.00163959
0.00166094
0.00167874
0.00169288
0.00170329
0.00170988
0.0017126
0.00171139
0.00170622
0.00169705
0.00168387
0.00166668
0.00164548
0.00162031
0.0015912
0.00155819
0.00152136
0.00148077
0.00143652
0.0013887
0.00133742
0.00128281
0.00122501
0.00116416
0.00110041
0.00103393
0.00096489
0.000893477
0.000819878
0.00074429
0.000666916
0.000587963
0.000507645
0.000426178
0.000343782
0.00026068
0.000177096
9.32543e-05
9.38143e-06
-7.4298e-05
-0.00015756
-0.000240183
-0.000321947
-0.000402636
-0.000482036
-0.000559938
-0.000636139
-0.000710438
-0.000782643
-0.000852566
-0.000920026
-0.000984852
-0.00104688
-0.00110594
-0.00116191
-0.00121462
-0.00126396
-0.00130981
-0.00135207
-0.00139063
-0.00142541
-0.00145636
-0.00148342
-0.00150655
-0.00152573
-0.00154095
-0.00155223
-0.0015596
-0.00156307
-0.00156269
-0.00155849
-0.00155045
-0.0015387
-0.00152344
-0.00150259
-0.00147194
0.000114878
0.00011221
0.000106506
9.79811e-05
8.68797e-05
7.34018e-05
5.77359e-05
4.00709e-05
2.05924e-05
-5.21231e-07
-2.30949e-05
-4.69571e-05
-7.19453e-05
-9.79027e-05
-0.000124676
-0.00015212
-0.000180102
-0.000208493
-0.000237177
-0.000266043
-0.000294994
-0.00032394
-0.000352798
-0.000381493
-0.000409957
-0.000438125
-0.000465942
-0.00049336
-0.000520336
-0.00054683
-0.000572806
-0.000598235
-0.000623085
-0.00064733
-0.000670945
-0.000693904
-0.000716183
-0.000737762
-0.000758618
-0.000778732
-0.000798081
-0.000816647
-0.000834405
-0.000851333
-0.000867409
-0.000882606
-0.0008969
-0.000910262
-0.000922663
-0.000934072
-0.000944458
-0.000953788
-0.00096203
-0.000969149
-0.000975111
-0.000979881
-0.000983422
-0.000985696
-0.000986666
-0.000986295
-0.000984547
-0.000981382
-0.000976763
-0.000970653
-0.000963016
-0.000953818
-0.000943023
-0.000930601
-0.000916521
-0.000900755
-0.000883276
-0.00086406
-0.000843086
-0.000820335
-0.000795792
-0.000769446
-0.000741288
-0.000711316
-0.000679528
-0.00064593
-0.00061053
-0.000573343
-0.000534386
-0.000493686
-0.000451271
-0.000407179
-0.000361449
-0.000314131
-0.000265278
-0.000214949
-0.000163212
-0.000110139
-5.58071e-05
-3.03873e-07
5.62784e-05
0.000113842
0.000172281
0.000231486
0.000291339
0.000351717
0.000412492
0.00047353
0.000534692
0.000595835
0.000656809
0.000717462
0.000777637
0.000837174
0.000895912
0.000953685
0.00101033
0.00106567
0.00111955
0.00117179
0.00122223
0.00127071
0.00131705
0.00136111
0.00140272
0.00144173
0.00147799
0.00151135
0.0015417
0.00156888
0.00159279
0.00161331
0.00163034
0.00164378
0.00165355
0.00165956
0.00166177
0.00166012
0.00165457
0.00164509
0.00163168
0.00161431
0.00159302
0.00156781
0.00153873
0.00150583
0.00146916
0.00142881
0.00138486
0.00133741
0.00128657
0.00123247
0.00117523
0.00111501
0.00105195
0.00098622
0.000917992
0.000847445
0.000774766
0.000700151
0.0006238
0.000545918
0.000466715
0.000386405
0.000305205
0.000223334
0.000141012
5.84606e-05
-2.40992e-05
-0.000106447
-0.000188362
-0.00026963
-0.000350034
-0.000429363
-0.000507411
-0.000583974
-0.000658853
-0.000731855
-0.000802793
-0.000871487
-0.000937763
-0.00100145
-0.0010624
-0.00112045
-0.00117546
-0.0012273
-0.00127585
-0.00132098
-0.00136261
-0.00140063
-0.00143496
-0.00146554
-0.00149231
-0.00151522
-0.00153425
-0.00154936
-0.00156056
-0.00156783
-0.00157118
-0.0015706
-0.00156607
-0.00155753
-0.00154506
-0.00152884
-0.00150661
-0.00147389
0.000148507
0.000142745
0.000134847
0.000124598
0.000112023
9.73284e-05
8.06966e-05
6.22941e-05
4.22856e-05
2.0833e-05
-1.90547e-06
-2.5778e-05
-5.06387e-05
-7.63435e-05
-0.000102755
-0.000129744
-0.000157192
-0.000184981
-0.000213007
-0.000241174
-0.000269392
-0.000297579
-0.000325663
-0.000353575
-0.00038125
-0.000408632
-0.000435672
-0.000462326
-0.000488555
-0.000514322
-0.000539596
-0.000564348
-0.000588551
-0.000612178
-0.000635206
-0.000657612
-0.000679374
-0.00070047
-0.000720881
-0.000740588
-0.00075957
-0.000777806
-0.000795275
-0.000811954
-0.000827822
-0.000842853
-0.000857021
-0.000870299
-0.000882657
-0.000894066
-0.000904494
-0.00091391
-0.000922282
-0.000929575
-0.000935755
-0.000940787
-0.000944635
-0.000947261
-0.00094863
-0.000948703
-0.000947444
-0.000944816
-0.000940779
-0.000935298
-0.000928336
-0.000919859
-0.000909833
-0.000898226
-0.000885007
-0.000870147
-0.00085362
-0.000835402
-0.000815469
-0.000793803
-0.000770389
-0.000745213
-0.000718268
-0.000689547
-0.00065905
-0.000626779
-0.000592744
-0.000556954
-0.00051943
-0.000480192
-0.00043927
-0.000396696
-0.000352511
-0.000306761
-0.000259498
-0.000210778
-0.000160665
-0.00010923
-5.65483e-05
-2.70456e-06
5.22117e-05
0.000108105
0.000164873
0.000222408
0.000280595
0.000339314
0.000398438
0.000457837
0.000517375
0.000576911
0.000636297
0.000695384
0.000754017
0.000812039
0.000869289
0.000925607
0.000980827
0.00103478
0.00108731
0.00113824
0.00118742
0.00123466
0.00127983
0.00132275
0.00136326
0.00140123
0.0014365
0.00146893
0.00149838
0.00152473
0.00154786
0.00156765
0.001584
0.00159682
0.00160603
0.00161154
0.00161331
0.00161127
0.00160539
0.00159564
0.001582
0.00156448
0.00154309
0.00151784
0.00148878
0.00145596
0.00141943
0.00137927
0.00133557
0.00128843
0.00123796
0.00118427
0.00112751
0.00106781
0.00100533
0.000940233
0.000872686
0.00080287
0.000730971
0.00065718
0.000581697
0.000504725
0.000426472
0.000347149
0.00026697
0.000186151
0.00010491
2.34634e-05
-5.79697e-05
-0.000139173
-0.000219931
-0.000300031
-0.000379264
-0.000457423
-0.000534305
-0.000609713
-0.000683452
-0.000755337
-0.000825184
-0.00089282
-0.000958076
-0.00102079
-0.00108081
-0.00113799
-0.00119219
-0.00124329
-0.00129116
-0.00133569
-0.00137679
-0.00141435
-0.0014483
-0.00147858
-0.00150511
-0.00152784
-0.00154673
-0.00156175
-0.00157286
-0.00158005
-0.00158327
-0.0015825
-0.00157767
-0.00156871
-0.00155564
-0.00153864
-0.00151534
-0.00148105
0.000184992
0.000175924
0.000165645
0.000153498
0.000139278
0.000123197
0.000105432
8.61252e-05
6.54228e-05
4.34703e-05
2.04064e-05
-3.63359e-06
-2.85163e-05
-5.41135e-05
-8.03047e-05
-0.000106975
-0.000134017
-0.000161327
-0.000188813
-0.000216391
-0.000243979
-0.000271507
-0.000298908
-0.000326119
-0.000353084
-0.000379754
-0.000406087
-0.000432042
-0.000457584
-0.000482683
-0.000507308
-0.000531434
-0.000555036
-0.000578092
-0.000600578
-0.000622474
-0.000643758
-0.000664413
-0.00068442
-0.00070376
-0.000722414
-0.00074036
-0.00075758
-0.000774051
-0.000789752
-0.000804657
-0.000818741
-0.000831978
-0.000844337
-0.00085579
-0.000866306
-0.000875853
-0.0008844
-0.000891914
-0.000898359
-0.000903701
-0.000907904
-0.000910931
-0.000912745
-0.000913311
-0.000912589
-0.000910543
-0.000907135
-0.000902328
-0.000896085
-0.000888373
-0.000879156
-0.000868402
-0.000856082
-0.000842164
-0.000826622
-0.00080943
-0.000790566
-0.000770009
-0.000747743
-0.000723755
-0.000698034
-0.000670574
-0.000641372
-0.00061043
-0.000577754
-0.000543354
-0.000507247
-0.000469452
-0.000429998
-0.000388914
-0.000346239
-0.000302017
-0.000256296
-0.000209132
-0.000160587
-0.000110726
-5.96262e-05
-7.36746e-06
4.59628e-05
0.000100272
0.00015546
0.00021142
0.000268042
0.000325207
0.000382792
0.000440667
0.0004987
0.000556751
0.000614676
0.000672326
0.00072955
0.000786191
0.000842093
0.000897094
0.000951031
0.00100374
0.00105506
0.00110482
0.00115287
0.00119903
0.00124315
0.00128506
0.00132462
0.00136168
0.00139608
0.00142769
0.00145637
0.001482
0.00150445
0.00152362
0.00153939
0.00155168
0.00156041
0.00156549
0.00156687
0.0015645
0.00155834
0.00154836
0.00153454
0.00151689
0.00149541
0.00147013
0.00144108
0.00140831
0.00137189
0.00133189
0.0012884
0.00124151
0.00119133
0.00113799
0.00108162
0.00102236
0.000960357
0.000895783
0.000828803
0.000759594
0.000688343
0.000615239
0.000540481
0.00046427
0.000386812
0.000308316
0.000228994
0.000149059
6.87276e-05
-1.1787e-05
-9.22694e-05
-0.000172506
-0.000252285
-0.000331399
-0.000409641
-0.000486808
-0.000562703
-0.000637132
-0.000709907
-0.000780845
-0.000849769
-0.000916511
-0.000980908
-0.0010428
-0.00110205
-0.0011585
-0.00121202
-0.0012625
-0.00130981
-0.00135385
-0.00139452
-0.00143172
-0.00146537
-0.0014954
-0.00152175
-0.00154435
-0.00156315
-0.0015781
-0.00158916
-0.00159628
-0.00159941
-0.0015985
-0.00159345
-0.00158415
-0.00157064
-0.00155306
-0.00152898
-0.00149357
0.000223924
0.000211385
0.000198577
0.000184388
0.000168375
0.000150759
0.000131709
0.000111349
8.9806e-05
6.72056e-05
4.36708e-05
1.93241e-05
-5.71687e-06
-3.13411e-05
-5.7442e-05
-8.39172e-05
-0.000110672
-0.000137618
-0.000164675
-0.000191766
-0.000218824
-0.000245784
-0.000272587
-0.000299179
-0.000325512
-0.000351544
-0.000377237
-0.000402557
-0.000427475
-0.000451961
-0.000475992
-0.000499545