/*--------------------------------*- C++ -*----------------------------------*\
  =========                 |
  \\      /  F ield         | OpenFOAM: The Open Source CFD Toolbox
   \\    /   O peration     | Website:  https://openfoam.org
    \\  /    A nd           | Version:  7
     \\/     M anipulation  |
\*---------------------------------------------------------------------------*/
FoamFile
{
    version     2.0;
    format      ascii;
    class       volScalarField;
    location    "0.609";
    object      T;
}
// * * * * * * * * * * * * * * * * * * * * * * * * * * * * * * * * * * * * * //

dimensions      [0 2 -2 0 0 0 0];

internalField   nonuniform List<scalar> 
12359
(
1.5556e-77
2.55764e-63
-4.25849e-214
-1.85704e-42
6.4059e-73
-1.2796e-28
2.94577e-23
-9.8706e-26
-5.64657e-18
8.36382e-31
6.2847e-21
1.46461e-13
0.211511
1.04562e-38
-8.20971e-44
1.95687e-06
0.00154673
3.2664e-116
-4.11648e-119
-3.96284e-52
-4.42754e-36
-1.77004e-15
1.13529e-57
2.12368e-49
-3.49191e-60
4.98227e-55
1.50276e-154
-3.61481e-157
1.44714e-125
3.09332e-145
6.21989e-140
-1.38118e-172
1.69973e-190
-2.73923e-148
6.0958e-203
2.46472e-137
8.06221e-94
1.02135e-80
2.156e-74
3.13254e-86
7.82792e-66
-1.06977e-83
3.14564e-102
-7.79122e-105
8.33517e-131
-5.80554e-128
-7.04831e-134
-1.91779e-142
2.40989e-122
9.69684e-152
4.337e-160
9.70698e-167
1.98069e-175
-9.22365e-114
2.09779e-181
-3.4584e-188
1.32557e-107
-2.97481e-193
3.38549e-196
-2.03073e-199
-5.12243e-185
-2.19591e-208
-3.29395e-163
8.97778
-9.61532e-111
-2.01924e-34
-4.77495e-97
1.04521e-169
-2.81488e-91
-1.70205e-08
118.41
-1.69261e-68
1.91164e-219
-7.82323e-90
1.25139e-46
9.07733e-206
-3.50057e-178
4.27795e-211
-4.25075e-100
3.3102e-11
-3.56102e-28
-3.98671e-130
1.09265e-277
-1.48981e-80
0.00130946
5.19613e-81
-1.1908e-127
2.56172e-180
0.739155
0.000409618
-9.50463e-238
3.13034
-1.5412e-239
-2.52024e-106
-8.81905e-85
1.23408e-58
1.06624e-111
-1.11301e-106
2.25531e-53
-2.39133e-66
1.46299e-23
6.68678e-233
8.44481e-82
26.817
-5.33663e-139
1.30315e-30
-7.67056e-237
0.00168625
3.76098e-90
7.65871e-32
5.30999e-114
-6.94438e-130
-8.41205e-33
1.76514e-27
-1.80681e-85
-1.9083e-163
1.44638e-26
-7.57134e-130
2.60768
-1.11511e-274
1.32261e-115
3.48063e-24
7.67036e-179
1.22526e-41
-5.49706e-129
1.98128e-152
2.79927e-17
-9.94641e-80
-2.28561e-213
1.191e-129
2.4957e-162
1.43145e-07
9.53208e-06
4.89721e-06
5.26628e-239
7.33321e-42
5.89137e-162
1.77067e-43
1.23956e-227
3.10392e-18
-6.33086e-266
-1.31671e-76
2.19747e-41
6.34466e-237
4.44341e-19
5.30148e-30
-2.97782e-279
0.00050936
-3.95766e-138
1.41781e-27
1.12815e-56
8.70504e-230
1.51154e-40
6.33687e-177
-9.10609e-246
111.843
2.09638e-24
1.06043e-07
1.58212e-112
8.60373e-178
3.11782e-36
3.38137e-176
9.78102e-42
3.87968e-41
7.82935e-263
3.59729e-154
6.1189e-37
3.61481e-25
8.5664e-43
0.679054
1.34176e-209
3.57885e-207
2.27786e-44
-7.37942e-62
-1.30374e-140
1.25333e-18
-2.84926e-129
-5.79209e-131
-1.07442e-32
1.21315e-19
5.87775e-40
4.42268e-245
-5.69165e-213
-7.33863e-129
8.09272e-55
7.3014e-17
-5.43587e-108
-7.51923e-89
2.48198e-55
-1.37514e-107
-2.50338e-87
4.04736e-60
2.59346e-61
1.53836e-175
2.12655e-31
35.5869
8.7857e-67
-7.54532e-107
1.44943e-40
-3.03152e-128
1.88758e-28
5.81636e-56
-9.65475e-67
4.12333e-32
2.05592e-22
-1.08297e-243
3.07266e-21
-2.69514e-65
2.26833e-36
-5.21087e-116
9.9887e-258
6.744e-18
1.77054e-17
154.72
2.2915e-16
-9.24785e-226
-1.67272e-107
-7.72689e-87
-1.00631e-106
-7.18744e-75
9.71751e-28
-2.28981e-117
1.00141e-42
3.41545
-6.41006e-129
2.48496e-257
-1.74063e-73
8.13175e-92
3.9711e-20
-6.08253e-104
-5.197e-103
4.48127e-265
2.44634e-19
-3.49683e-61
-2.46644e-89
-1.66908e-62
3.59368e-273
3.15697e-38
-5.94595e-88
6.85824e-05
2.10594e-253
1.4207e-77
-4.68994e-97
2.263e-10
3.99616e-34
0.00076138
6.46018e-198
1.9911e-37
1.23724e-146
1.89653e-61
2.60681e-24
-7.44834e-84
-2.80428e-134
-4.09947e-103
1.31479
125.925
1.31275e-272
-5.36264e-122
1.31293
166.878
-2.52652e-65
1.58768e-34
3.65353e-22
4.03787e-32
-2.12901e-63
59.4909
2.55551
2.11848e-32
-1.79378e-123
9.00577e-42
1.81624e-43
1.92099e-54
7.8728e-42
-4.80902e-105
-7.3091e-119
5.56391e-255
-1.49125e-120
7.80057
3.42969e-32
-2.7872e-220
-2.41042e-230
5.28877e-32
8.72787e-123
3.3465e-98
3.96419e-79
-2.15383e-268
2.77697e-22
7.77267e-231
9.10439e-232
-5.40448e-174
8.40871e-43
-6.52374e-132
53.059
-1.1431e-238
2.22901e-236
1.67532e-80
-2.45832e-147
1.15999e-28
-4.16475e-90
-2.00005e-164
-2.00499e-237
7.11524
3.29354e-21
-4.68156e-238
-2.791e-106
-1.17832e-91
-9.38677e-146
1.06039e-161
-2.54246e-163
-3.79711e-142
4.62468e-122
-1.54883e-16
-1.76732e-145
3.35878e-140
-3.57184e-82
6.87433e-37
1.12605
-5.58591e-143
-4.27401e-56
2.2656e-06
-9.78057e-231
1.50371e-49
1.76798e-218
1.11131e-65
4.56533e-235
-6.90903e-141
5.45265e-17
8.17717e-46
1.96953e-17
1.76695e-99
-2.47856e-97
1.18159e-61
8.427e-58
-4.36821e-96
3.52188e-62
5.15447e-62
1.29672e-199
-1.94908e-184
-4.28497e-185
-6.27141e-184
-2.91e-183
0.000303864
3.47553e-267
1.61472e-26
2.77649e-44
2.86775e-57
1.79671e-39
5.20152e-45
7.62945e-81
3.12436e-68
2.13179e-45
-6.11664e-70
-1.0954e-56
8.58766e-34
6.18883e-33
3.74776e-32
-2.7837e-75
1.95055e-15
-7.41718e-78
-1.00132e-77
8.17432e-41
6.26523e-21
-1.33504e-131
-5.73957e-180
2.5449e-66
-1.3802e-181
8.92696e-130
166.626
17.5519
4.8083e-130
1.76151e-225
4.84848e-240
-2.76112e-249
2.91151e-46
-6.89485e-244
-1.33019e-245
0.97531
2.65463e-41
0.000308723
1.37806e-131
4.18999e-35
1.50661e-124
-1.11387e-95
7.66988e-30
3.02871e-67
3.21186e-41
8.59281e-69
1.42179e-132
-1.1995e-219
4.66595e-42
3.09653e-35
-8.80925e-133
2.24656e-12
2.79234e-30
1.06839e-58
3.63573e-46
1.89619e-38
-2.54546e-224
9.32185
1.45453e-14
3.05432e-130
6.85573e-11
-3.41173e-79
-3.90211e-264
-1.35708e-264
-1.23204e-252
0.000603081
6.79301e-22
-4.97833e-55
6.21443e-51
1.85302e-57
-3.90183e-83
-6.26381e-41
5.35942e-48
3.4646e-13
1.14327
-2.03743e-12
5.97925e-58
3.15724e-33
1.66052e-88
1.43856e-30
-1.39233e-72
9.29668e-65
2.24988e-149
-3.23335e-74
9.58873e-44
-1.10772e-242
156.249
-1.24444e-96
0.172386
7.00908e-37
1.73054e-107
5.9061e-31
0.979917
3.85873e-43
-2.31694e-65
3.0121e-59
1.3276e-35
9.43461e-30
-3.04654e-125
-1.38392e-257
2.25134e-25
1.27589e-233
5.4831e-08
1.14165e-160
-1.9706e-57
8.00084e-37
-2.44367e-106
0.00698533
1.12031e-25
-6.51344e-69
-5.4355e-125
2.06544e-05
1.72474e-205
1.12021e-135
4.65049e-16
1.19842e-223
1.87447e-124
1.73126e-136
7.02441e-08
17.124
-4.23639e-82
1.07487e-185
-1.86479e-34
2.25702e-39
4.67309e-50
9.37925e-39
9.55015e-43
2.92156e-198
-5.08646e-251
8.72795e-44
-5.44148e-235
5.63375e-38
1.96141e-50
3.33903e-31
-9.5215e-133
1.34821e-26
1.30783e-14
-6.41495e-148
-2.84537e-84
-2.80098e-130
-1.54045e-30
7.32714e-16
-1.2235e-227
3.15613e-42
4.99459e-45
4.75982e-91
9.31885e-41
1.22147e-159
3.45195e-22
3.5467e-72
1.19688e-39
1.06744e-31
1.71039e-196
-1.21619e-84
1.93474e-10
4.14362e-05
-1.34611e-236
-9.05003e-63
1.58909e-10
2.20852e-52
0.788792
-6.76469e-253
2.75611e-162
1.43435e-203
4.32784e-39
-3.18013e-66
-4.38613e-76
6.6702e-158
7.87225e-45
1.43935e-62
-2.90833e-64
-4.21896e-115
0.000180871
-2.62914e-228
0.000439277
4.55626e-182
144.04
6.90363e-71
3.10434e-11
5.67302e-197
-5.37454e-134
1.32383e-35
-1.13713e-130
2.59174e-166
6.46966e-102
-5.18995e-64
-8.93688e-65
1.43556e-12
8.06596e-26
4.80911e-26
-4.95246e-279
-1.90534e-130
4.21619e-48
5.21125e-05
-1.85255e-278
2.62073e-224
4.06993e-44
4.61925e-201
1.43799e-17
1.17375
85.9831
-8.87873e-277
-4.3621e-87
2.71694e-23
-1.59277e-73
-2.02889e-140
89.9348
5.20131e-227
6.8797e-25
1.31859e-35
3.67031e-88
-2.48844e-143
-3.15142e-162
-4.49385e-108
5.5288e-45
5.97198e-70
-4.86228e-81
-8.69203e-275
-7.51303e-212
-8.44465e-68
-1.79079e-129
1.47746e-29
1.48052e-39
-2.18632e-172
-6.98905e-222
4.47757e-33
152.887
2.30137e-141
1.23828e-13
4.46658e-242
-3.02376e-80
4.04502e-25
4.73408e-53
2.98467e-25
6.43817e-30
-5.91974e-66
4.17824e-40
-4.39104e-260
-7.05123e-203
1.57695e-56
-3.64275e-78
-4.50614e-67
4.59217e-81
-6.22847e-247
-1.08395e-220
1.96893e-153
2.92422e-52
3.9423e-35
-4.64033e-35
-3.24966e-95
-4.79682e-33
4.6361e-42
-6.3769e-64
-5.12875e-32
-9.84423e-58
0.222635
2.13312e-40
2.36798e-56
6.3885e-31
-1.01956e-205
6.33182e-25
4.1416e-35
5.79826e-280
-5.78088e-223
3.75008e-200
-9.99558e-200
2.14262e-07
-1.52164e-63
2.9991e-98
-3.27669e-34
3.9093e-101
5.81947e-17
2.81754e-53
2.76106e-44
3.8855e-152
7.51572e-12
-1.01038e-247
1.04369e-51
1.28847e-125
7.70946e-20
-2.54733e-31
-5.77246e-72
4.12062e-64
8.72806
7.27121e-43
1.61871e-14
-3.93198e-73
5.41663e-12
0.537305
-2.25015e-190
8.1683e-132
-1.15171e-248
7.59395e-09
-1.53765e-131
9.72989e-70
0.00588385
3.24711e-225
-5.10224e-63
3.46223e-34
-1.54895e-69
-1.01322e-138
8.7782e-73
-2.1617e-180
-2.46033e-70
-3.07004e-181
-1.97122e-181
-4.81813e-75
1.43833e-41
1.24397e-43
-4.56477e-68
3.76734e-09
4.20733e-54
16.8276
8.32392e-42
1.45296e-79
-1.23476e-72
1.35018e-43
8.20922e-56
6.6299e-60
0.513979
-1.8222e-37
-1.93561e-59
-1.45532e-57
5.17661e-120
-7.38823e-131
1.13059e-33
-7.45007e-256
8.88254
-1.00075e-175
-2.15405e-36
1.29678e-23
1.275e-07
1.20871e-21
3.12399e-34
1.29233e-35
-4.00809e-74
1.00573e-21
3.41753e-44
1.98481e-14
-5.48777e-57
9.25015e-15
-1.99902e-59
-1.78364e-269
-7.17663e-56
173.013
1.05908e-13
-2.07558e-102
5.2739e-261
-2.17232e-170
-1.2031e-92
6.51023e-58
1.40966e-44
3.2161e-67
1.87716e-199
-6.83242e-101
8.91401e-56
3.02462e-104
-5.78092e-115
4.50881e-14
5.67413e-109
-4.70372e-47
7.99376e-31
4.48404e-102
1.01844e-94
2.17205e-29
-6.84797e-281
-4.59724e-96
50.6317
2.81721e-201
6.56057e-18
2.6646e-24
-7.6173e-96
1.86804e-34
9.78209e-31
2.4928e-57
4.75333e-29
1.03639e-131
-1.66053e-34
4.04485e-141
5.41339e-63
5.99341e-33
-4.06635e-33
1.51099e-132
2.31609e-39
7.43149e-08
-3.41609e-48
6.98251e-75
-1.63495e-126
3.09744e-24
4.64484e-07
-4.76134e-123
-6.48856e-227
4.65371e-58
-6.04733e-241
0.63053
-8.24461e-58
4.48399e-13
9.49048e-74
1.12442e-68
11.0054
3.52168e-71
0.00126667
5.4764e-46
80.709
1.04075e-47
-6.1103e-80
1.78861e-72
1.23728e-92
0.0028709
0.000237451
1.40681e-186
1.22761e-183
-8.84064e-31
-9.00888e-174
0.00289237
4.56231e-31
1.60825e-10
-7.87022e-126
128.279
0.0819873
-6.72e-57
-1.08003e-268
2.4047e-137
-6.75057e-40
-7.54497e-91
-3.82362e-94
-3.31487e-87
1.49904e-43
1.75853e-45
28.8803
4.38479e-08
2.70559e-201
3.23058e-39
1.87975e-27
-1.72209e-29
2.27841e-78
7.87074e-24
3.29115e-38
-9.54997e-39
1.56506e-138
2.63493e-265
1.11781e-23
1.83774e-20
2.83411e-69
-6.9814e-32
6.00659e-14
4.61601e-81
1.51188e-58
1.50387e-123
7.97008e-86
8.39274e-16
3.91838e-85
4.04668e-29
3.84066e-43
3.03224e-54
-1.14472e-107
-1.86837e-81
1.86019e-08
5.06522e-76
1.03757e-78
32.6686
2.14505e-52
1.12585e-82
0.00766783
-2.85415e-273
2.07371e-74
-2.98976e-64
-1.70683e-91
4.68577e-155
1.82297e-60
6.03723e-282
3.60384e-10
-1.95634e-133
-5.99452e-63
1.94986e-23
3.67907e-34
4.95208e-69
3.60773e-72
7.00664e-25
88.5957
-6.98564e-204
4.71437e-106
9.17534e-82
0.00628987
1.79478e-20
2.68189e-134
2.5621
1.2302e-265
1.96226e-136
177.734
-4.20419e-101
5.21885e-130
5.49064e-127
1.84252e-44
-2.08948e-42
2.65006e-199
-3.73794e-94
4.72673e-26
2.31058e-65
-9.37058e-69
-3.92502e-88
-5.60202e-189
-3.75946e-41
8.78278e-07
-4.12677e-71
-4.84559e-33
6.40984e-47
1.68012e-61
4.51842e-11
1.57795e-28
-1.59747e-86
7.7099e-134
0.000319748
1.58049e-41
2.46983e-49
-9.57461e-123
-7.37778e-198
-6.63221e-39
6.00999e-12
1.89294e-78
1.92709e-31
8.03607e-77
-7.18872e-86
-4.73962e-111
1.2336e-41
146.193
19.0044
1.86817e-40
-7.06778e-70
9.38381e-113
6.26547e-43
0.0103323
-1.28474e-35
1.36223e-135
5.72077e-13
2.76366e-08
9.24116
-4.75197e-97
83.9706
-2.21713e-200
-2.54415e-84
-2.41621e-196
1.36813e-11
4.60336e-48
79.5206
2.79889e-141
0.0168386
-8.945e-173
-1.72284e-70
2.55071e-34
1.87661e-92
1.88513e-13
0.0743923
-6.15527e-99
-1.12431e-106
2.36157e-75
-6.06812e-98
-1.48704e-100
2.43997e-14
1.12741e-50
1.63033e-71
3.46094e-16
-8.32115e-101
-1.51151e-193
-1.32897e-72
-8.48376e-169
2.82868e-28
1.80596e-75
1.04724e-09
1.25675e-11
-6.02178e-45
8.65462e-37
9.88421e-42
1.55462e-73
0.010908
3.80811e-81
-1.95384e-105
-1.30889e-246
1.83701e-12
-5.91238e-37
9.42711e-143
3.02287e-28
-1.07607e-89
3.36076e-37
-1.80278e-39
-1.9999e-34
4.39097e-43
90.8535
3.0751e-41
-1.09544e-43
0.0749087
-4.26387e-93
1.22889e-07
8.70405e-28
2.47536e-176
1.70972e-79
-4.97387e-114
7.93664e-77
-1.02993e-261
-1.05545e-127
9.7751e-08
4.20214e-12
-9.0178e-129
195.106
1.40322e-30
1.91163e-175
2.32117e-12
5.43055e-14
1.67424e-179
4.28018e-11
1.6206e-24
6.83622e-12
-1.27151e-178
-2.44148e-132
6.5609e-110
-8.49809e-180
-8.75058e-39
27.404
-2.82859e-141
1.82331e-12
-5.14432e-275
2.53292
2.29971e-29
5.64181e-41
7.60694e-229
-6.55216e-144
-5.5289e-83
7.89229e-45
7.43102e-16
1.42753e-37
1.08467e-101
8.87691e-96
-1.45061e-179
5.60658e-31
2.44402e-40
-2.41724e-113
-3.79845e-223
1.25519e-61
3.99819e-38
9.38111e-47
4.32882e-152
3.03726e-07
-6.56789e-31
2.89809e-172
2.49328e-50
-1.90369e-97
3.13932e-80
191.187
-2.05064e-102
1.40064e-174
4.53984e-45
-3.94631e-38
-1.46344e-47
2.64368
-3.07939e-64
-5.20842e-84
3.05606e-36
-6.07719e-92
7.10034e-91
-2.22317e-82
2.09004e-91
-3.60264e-30
-4.14842e-80
15.6844
-3.08548e-46
2.80549e-10
-3.74564e-90
0.000462754
5.99017e-33
2.30172e-11
1.22234e-14
4.02122e-40
1.4975e-83
5.48491e-89
-1.20101e-63
-2.76461e-276
3.46701e-83
8.06423e-38
5.38611e-16
-1.05312e-92
1.61939e-173
3.97527e-43
8.34433e-40
2.45258e-19
1.11335e-41
5.29242e-13
2.34922e-19
-3.1148e-121
2.3945e-53
0.500664
4.39068e-39
8.83004e-264
1.60431e-98
7.29872e-94
3.42658e-267
1.10522e-54
-1.55753e-202
1.24772e-81
9.60398e-16
2.28305e-35
1.05646e-06
-2.29019e-198
1.68955e-142
-1.3722e-239
-1.53412e-93
-8.911e-112
3.11772e-11
-2.19159e-111
9.65216e-143
2.62646e-07
7.07759e-40
5.15946e-57
4.59009e-56
3.10548e-18
2.82375e-103
1.56491e-12
4.67044e-90
2.31791e-195
0.00137388
2.72997e-49
2.87873e-21
-6.2664e-107
53.8542
-5.01061e-42
-2.86759e-50
7.5138e-42
1.16138e-32
26.9528
-2.4538e-86
1.37386e-13
4.02987e-50
-8.54236e-51
-3.62688e-146
2.81336e-74
8.8438e-08
-1.27854e-83
1.43135e-09
-1.42071e-99
-6.82113e-104
3.02427e-13
4.2941e-164
-2.25161e-128
-1.04717e-84
5.46928e-48
1.4644e-11
-1.11476e-100
-1.42147e-94
2.82032e-245
5.29401e-49
0.00155498
1.28399e-46
-1.46385e-94
-2.33143e-67
1.54177e-104
-2.34301e-139
13.6187
-3.36678e-50
-1.59922e-228
5.33603e-52
4.38358e-106
-1.12545e-40
-1.02019e-28
1.25269e-54
-6.27002e-93
1.00795e-15
6.94124e-12
1.89028e-233
-1.31386e-66
2.36092e-12
-1.44392e-143
8.68318e-206
-6.6917e-68
3.27592e-56
-1.22234e-85
3.3801e-204
-2.96489e-56
7.52704e-13
2.77171e-177
6.56457e-25
4.80694e-202
-4.08457e-113
7.1927e-59
3.25989e-05
-1.54411e-251
1.98995
-7.25662e-49
2.61861e-23
34.4271
-1.24189e-44
9.99316e-64
0.0288985
-4.25054e-93
1.05386e-05
5.17043e-20
-9.32869e-69
1.81128e-84
4.47197e-86
3.2321e-104
-3.07178e-110
1.38141e-25
0.024426
187.086
1.28565e-29
-3.48489e-30
0.00165366
4.67825e-32
8.85803
4.97654e-156
1.86982e-102
7.6492e-20
8.5528e-48
-1.81412e-128
1.08742e-29
-8.79571e-89
26.4643
-1.88396e-263
-2.71229e-137
9.71342e-150
197.506
6.46604e-39
7.45816e-47
-1.93914e-82
6.67609e-20
2.67868e-89
-5.22912e-146
1.68458e-07
-4.00952e-87
1.64746e-07
1.62925e-25
5.42379e-77
2.11049e-15
5.36554e-49
1.12872e-102
-1.54688e-140
-8.10999e-138
0.205905
5.21392e-14
-4.74271e-117
9.05033e-19
1.23354e-57
5.11011e-27
-1.95156e-250
8.98242e-53
9.94054e-08
4.72341e-13
-2.82608e-43
-4.07527e-71
9.373e-141
2.73527e-18
2.54314e-89
1.7192e-144
1.14714e-10
2.1379e-18
-4.2356e-116
-3.51491e-32
1.22197e-51
1.12716e-242
1.22425e-128
-2.30465e-208
-9.28383e-43
80.256
7.10664e-12
1.95825e-21
-3.38324e-121
-4.48974e-88
2.38189e-48
2.94369e-232
1.82665e-09
6.55128e-50
69.1389
-9.42395e-29
1.79267e-80
5.95803e-118
3.05587e-156
1.51063e-87
-3.76999e-91
3.38966e-127
13.4003
7.97001e-17
1.59002e-39
5.37553e-18
-1.94915e-45
5.53237e-142
-1.91459e-275
1.16989e-125
8.01104e-28
0.739261
-9.31963e-23
1.66933e-49
-1.62583e-51
-2.53731e-76
1.8213e-17
0.0307284
0.0202971
-8.19002e-91
-1.85498e-73
9.90628e-32
7.52796e-108
3.88375e-202
-1.66813e-126
2.96701e-15
-5.43991e-113
6.13898e-66
-4.098e-99
6.83121e-43
1.1636e-08
8.09156e-105
-5.19541e-126
4.47675e-11
2.1798e-17
9.40027e-97
7.07457e-146
-6.834e-53
1.17934e-05
1.47901e-27
2.00139e-24
-1.25745e-55
1.31441e-66
0.029726
-4.23422e-86
-7.84852e-23
-8.41068e-139
5.80158e-13
1.99221e-12
-1.91503e-184
4.16769e-151
88.1216
8.80071e-128
-3.65561e-79
5.78125e-30
-6.13569e-115
-4.96692e-114
1.01709e-99
1.94034e-129
-1.42077e-239
1.56347e-22
9.40155e-06
1.7822e-153
0.0152952
-8.54531e-92
-6.14771e-131
3.85708e-13
2.22413e-09
2.14205e-28
-6.12765e-93
-2.26366e-126
-2.71629e-47
148.711
-1.35144e-112
3.15852e-154
-5.52785e-161
1.40726e-111
2.93239e-63
8.16242e-32
-7.46765e-116
-9.52608e-81
-4.53441e-131
6.6765
2.90096e-09
5.78544e-48
-2.56424e-41
-3.72928e-90
-8.83682e-131
2.48405e-18
1.23243
-1.33097e-77
-1.4727e-160
-1.72629e-132
2.96335e-14
-2.06273e-115
-1.61236e-140
4.9187e-10
3.66993e-93
-3.00059e-127
116.845
5.32321e-08
4.54537
3.99565e-18
-1.05153e-115
2.82683e-15
8.9976e-11
0.144904
2.88753e-102
6.67825e-33
4.10262e-235
0.106841
-2.67899e-268
-6.47992e-105
1.72564e-91
-3.11136e-159
3.17901e-45
6.59323e-96
-4.03029e-114
4.80381e-104
5.7563
1.0609e-14
1.24947e-43
-5.80941e-125
1.18294e-31
11.8455
1.94556e-09
1.70956e-45
-3.05359e-54
-2.49471e-105
2.46726e-91
9.55478e-157
2.61452e-117
9.61694e-152
-1.2621e-127
-6.60391e-46
1.77676e-15
3.84727e-18
0.289246
8.05222e-05
5.15715e-09
4.9137e-26
0.107473
-2.74267e-142
2.4106e-05
-4.38481e-133
0.00124205
7.22758e-10
7.67408e-39
-5.80435e-116
4.23082e-38
1.03614e-25
2.68366e-71
73.8668
5.04585e-13
0.331233
-2.79743e-129
3.31287e-10
1.96313e-07
1.50993e-10
9.27729e-08
2.269e-11
-1.41204e-127
-3.95085e-101
4.96791e-47
-1.13575e-119
5.61676e-31
-2.33119e-108
1.39104e-41
-3.97339e-186
-1.41279e-97
1.86797e-24
8.16618e-38
4.91011e-146
-5.26537e-50
0.782663
93.6071
-1.41052e-160
2.88253e-52
4.72513e-85
5.29662e-11
4.37375e-32
4.88848
2.91617e-05
4.08394e-105
1.85975e-43
1.48826e-07
-4.05499e-25
4.02032e-06
1.94519e-57
3.33796e-12
5.10851e-148
0.166995
8.03365e-10
5.07802e-143
7.79445e-08
0.0777494
3.86865e-48
3.46254
-7.84511e-95
4.14281e-09
-6.2316e-84
-1.43263e-165
-4.20721e-79
4.23341e-88
0.0704905
4.63458e-06
0.0316083
-5.3851e-148
5.55537
1.90851e-39
1.27241e-13
-3.2974e-33
1.37486e-45
2.47759e-55
0.0144958
-3.55413e-93
-7.50796e-106
1.35876e-23
1.98438e-09
1.32753e-30
5.91102e-20
-2.88884e-61
0.0443081
2.54383e-31
3.02858e-31
1.11924e-09
-1.32217e-178
4.91362e-08
9.48892e-14
2.66843e-08
-8.64779e-81
0.000595539
3.08208e-154
6.48739e-32
2.81967e-49
1.09532e-07
3.55513e-77
1.46094e-24
8.4489e-09
77.0712
2.5121e-110
6.72039e-43
-9.15251e-51
1.00473e-11
3.23197e-21
-7.96567e-104
2.29967e-41
-1.65768e-157
13.9724
-1.14978e-244
2.96567e-156
-1.39351e-206
3.32607e-07
-9.34719e-126
5.66117e-41
2.17985
1.05009e-57
6.80291e-62
-1.22457e-119
7.41949e-197
5.14596e-10
3.77508e-159
-5.79866e-44
7.78898e-13
-1.30555e-48
1.96622e-06
3.51123e-100
3.41156e-40
6.55353e-08
3.16495e-20
5.3717e-76
85.3566
-3.84601e-250
5.50598e-191
-2.2764e-93
214.194
-4.38247e-82
1.86742e-79
4.82872e-08
-5.95131e-115
2.00769e-98
3.36065e-15
4.81598e-06
7.74092e-34
0.00621513
-4.77059e-115
7.40137e-95
2.24247e-47
2.22831e-52
8.27954e-08
-8.48453e-135
9.70167e-76
-2.06123e-58
-1.14769e-17
-5.02838e-66
9.49708e-148
5.17328e-43
-1.65321e-19
2.56131e-212
2.8776e-209
2.8903e-05
2.35957e-33
5.75542e-05
5.12541e-98
-5.96194e-263
-2.72287e-18
3.8424e-07
-7.63967e-142
-5.91735e-111
5.87751e-156
13.4279
3.43529e-212
4.14874e-35
4.11213e-05
7.08031e-207
4.35847e-195
1.28144e-20
-7.87564e-169
9.33991e-209
8.5771e-46
8.47497e-14
1.21041e-150
4.06941e-23
-1.55288e-161
4.41445e-08
-2.93088e-265
7.51272e-08
1.8609e-13
3.96639e-23
8.59992e-206
2.26795e-16
5.15075
3.32693e-107
7.74031e-51
6.71301e-174
3.57809e-14
5.35747e-163
4.25573e-07
5.76736e-10
8.20016e-92
2.4603e-204
5.02391e-14
1.14276e-14
2.36264e-52
9.43115e-51
5.26696e-17
-4.29638e-167
5.36604e-17
1.89684e-206
6.10076e-06
4.57713e-09
8.64391e-10
2.21986e-22
-5.19866e-24
9.05525
2.02595e-24
2.27447e-49
3.02715e-15
1.4165e-106
1.40824e-13
6.96361e-17
-1.30497e-46
1.79945e-86
0.0793781
9.61234e-224
0.0353545
108.183
7.98654e-121
5.34035e-09
70.7079
8.67769e-37
5.73735e-47
1.04809e-17
-5.45418e-57
1.50173e-154
2.90702e-08
0.0106973
0.777846
-5.73661e-107
3.13107e-18
0.000237828
1.06386e-14
4.94732e-130
-7.36948e-188
4.07743e-37
0.0158286
3.74182e-09
5.36619e-17
-3.75056e-254
-8.1178e-164
4.15666e-15
-3.85559e-114
5.58171e-47
-2.02946e-109
-5.9444e-200
1.17137e-07
-3.12224e-95
8.94686e-05
2.01772e-51
2.11619e-178
7.57624e-188
1.23797e-15
-2.43696e-108
3.41221e-36
9.34711e-17
0.485598
-8.99091e-53
-1.01317e-148
1.35741e-06
-4.72528e-98
-4.32585e-159
6.88999e-74
1.82155e-14
-1.82224e-106
2.16229e-14
3.2219e-49
208.772
1.93067e-15
-8.37576e-140
4.87211e-05
-1.40707e-205
1.84236e-09
5.20944e-40
4.3525e-06
0.00334597
-4.30883e-48
9.20342e-05
1.34106e-176
3.23068e-09
-7.73809e-127
1.43131e-53
1.62909e-05
9.4763e-30
6.47771e-06
0.0134436
-1.63894e-20
4.03802e-08
1.56117e-06
-1.72374e-145
-1.64544e-160
-5.84081e-204
0.000114107
-3.60772e-25
-1.03137e-143
7.98737e-08
6.75947e-06
5.42e-42
1.46728e-14
1.34738e-58
-6.63652e-36
0.00126704
-2.47529e-75
9.7184e-33
4.18275e-36
-2.3929e-235
1.52871e-233
-7.40086e-145
-8.23381e-107
1.02923e-51
4.29126e-180
-3.46432e-90
-1.08353e-108
-1.64724e-66
2.54619e-22
-5.05018e-128
6.44697e-07
-4.91438e-267
4.18283e-12
2.54677e-06
-3.75838e-138
3.81749e-05
1.49738e-13
2.79242e-06
-2.3705e-65
2.35005e-17
-7.44332e-117
1.28117e-40
4.9641e-52
1.25574e-189
-4.28696e-127
7.22861e-97
-1.88487e-136
4.58766e-211
8.58568e-58
6.83731e-213
-3.49124e-32
2.71973e-25
0.0577157
4.35497e-182
-6.68255e-65
2.60204e-178
-2.20113e-114
1.33424e-22
-8.84241e-68
-3.1983e-141
120.32
6.79885e-15
2.43936e-33
3.98695e-63
6.64736e-16
1.33764e-24
3.73412e-72
1.41533e-19
4.98496e-14
6.61417e-109
1.53407e-208
-1.20811e-87
5.05085e-08
-6.05002e-160
-1.93784e-145
2.90061e-14
3.42818e-119
-1.72446e-114
1.34817e-82
1.136e-148
0.000658576
2.82837e-180
-3.5227e-147
4.31653e-23
7.8931e-20
4.44974
9.97467e-14
-1.21021e-61
-8.85175e-140
1.36597e-18
-1.68255e-141
9.88637e-29
5.07546e-57
-2.56698e-109
3.33291e-06
4.22634e-206
3.83817e-23
2.40461e-56
1.48236e-15
3.18344e-46
5.44299e-217
-5.00419e-110
-1.92669e-266
1.40276e-26
-2.44277e-162
6.13565e-20
2.08897e-47
-3.53917e-97
-8.24912e-60
5.56494e-42
3.19689e-209
1.30396e-22
9.61639e-24
-9.28279e-108
1.94643e-22
5.05019e-08
9.21921e-199
4.31224e-42
7.85737e-12
1.28624e-14
-1.88583e-80
2.65874e-45
8.21018e-44
4.71703e-50
-3.2301e-78
1.73595e-15
-1.53911e-76
5.39851e-138
1.72254e-139
0.0130915
7.8829e-09
3.18748e-05
1.00393e-06
-4.94575e-37
1.28645e-21
2.00526e-47
1.65669e-20
9.13605e-139
2.1964
-2.49748e-113
1.83539e-06
1.72871e-10
-3.82039e-143
-1.62717e-26
3.3192e-09
2.15229e-06
1.57789e-45
2.09466e-28
1.72347e-140
8.14818e-232
1.27149e-15
2.32407e-207
-1.73287e-184
6.08138e-18
2.59719e-113
-2.53537e-70
-6.09185e-147
-7.67569e-96
1.05093e-15
11.0537
9.10522e-112
-5.74763e-118
4.76649e-09
-5.36285e-40
2.06066e-11
1.86228e-26
4.16937e-27
-1.62861e-117
7.86364e-41
3.98176e-19
1.01663e-17
-1.09287e-31
-1.61147e-161
6.75149e-09
4.20754e-33
2.04213e-20
-9.68259e-89
2.41839e-145
2.16318e-17
2.59657e-110
-7.37511e-201
2.72738e-24
9.6787e-09
-1.34144e-182
2.36862e-23
1.35496e-50
3.10083e-126
-5.13065e-80
-4.95106e-124
2.58883e-24
9.9711e-139
3.02515e-147
9.59612e-50
8.38463e-25
-2.98269e-42
-1.22585e-31
9.70353
1.17788e-111
1.41534e-64
0.199239
8.64526e-36
-1.48369e-125
2.20947e-34
0.000115394
3.31209e-189
-1.08624e-117
1.75748e-202
8.36697e-28
3.28525e-15
3.73225e-53
9.04302e-215
-5.27582e-84
4.95536e-72
-3.20119e-97
9.45129e-10
-1.97611e-111
-8.80277e-213
3.40167e-209
2.85958e-30
2.40547e-46
1.11891e-05
-1.14371e-87
-2.34292e-51
6.61832e-36
7.05066e-17
-7.95575e-159
2.46888e-25
8.74377e-193
2.40002e-184
1.29733e-211
2.06183e-10
-1.73011e-116
6.50881e-26
1.58029e-26
7.68598e-29
5.13906e-18
1.19642e-29
4.34165e-14
5.70874e-27
2.86607e-109
1.49497e-32
3.03704e-51
8.71991e-38
2.86148e-22
-1.49862e-116
38.2238
1.19106e-17
5.85101e-20
-8.17778e-182
1.30779
2.38589e-17
2.97144e-19
-4.04427e-33
2.15095e-09
-2.61308e-66
-1.76901e-108
-1.82796e-97
8.41666e-102
6.06808e-96
3.51292e-19
6.54789e-23
7.8588e-124
9.3786e-28
-8.31166e-99
-2.34455e-95
6.06883e-58
-2.75173e-49
-3.33093e-77
3.49152e-59
-1.39246e-47
1.662e-29
2.51801e-27
7.54573e-53
5.43794e-195
-1.62538e-92
-3.99597e-109
2.49731e-11
2.95554e-161
-7.79539e-120
1.15038e-27
0.960809
-2.86309e-138
1.80658e-05
-2.97715e-143
4.90543e-110
4.31032e-48
1.55926e-31
4.37618e-37
2.13001e-157
5.95984e-22
4.87627e-24
5.50005e-12
1.65931e-182
1.08551e-28
1.93074e-45
4.85565e-63
4.43824e-210
-3.48708e-253
-5.50322e-30
5.40934e-46
5.76297e-67
45.2407
6.72269e-25
4.82382e-35
-4.72307e-26
1.12661e-50
1.44185e-11
1.59683e-110
5.91328e-54
6.67286e-83
-1.3867e-95
0.00366177
2.25544e-27
2.15217e-23
4.1759e-39
-1.54851e-152
7.16877e-21
4.01693e-20
1.08287e-06
-3.08587e-96
2.76895e-35
7.50782e-05
5.20698e-05
-3.99096e-145
1.00915e-05
1.53141e-57
18.4462
-3.18496e-198
1.3722e-26
8.01693e-40
-1.44367e-221
2.51059e-17
6.54183e-73
-1.30523e-83
3.32977e-12
0.000422771
2.7923e-07
-2.95886e-83
4.91743e-29
4.19525e-198
-4.88563e-111
2.4925e-06
1.06337e-32
3.57063e-87
3.33143e-21
-2.78352e-23
2.9734e-30
1.37007e-44
1.75461e-41
1.90965e-26
0.0012507
5.07509e-151
1.18206e-43
6.92212e-54
1.72336e-29
1.20201e-07
5.26384e-26
1.55635e-35
2.40355e-75
-1.03598e-201
4.80115e-28
5.21682e-34
2.47745e-24
-7.30193e-156
2.7596e-63
2.40756e-29
2.74537e-27
-2.98194e-25
1.67084e-22
7.57876e-81
3.56654e-32
-4.10589e-118
7.52072e-16
5.64433e-59
2.90424e-27
1.02345e-67
-6.98427e-82
1.77181e-26
-6.19187e-64
-2.42117e-72
-1.00852e-88
9.33056e-153
1.01112e-35
-2.5422e-54
2.25828e-60
8.65792
0.00661993
-1.01919e-120
7.54829e-89
1.17086e-43
3.44196e-45
4.7787e-215
9.86238e-32
-2.39683e-38
2.48378e-32
-2.81456e-199
3.03419e-14
5.81608e-22
1.16093e-16
8.2589e-32
-2.52216e-182
3.64599e-101
1.58971e-68
7.38597e-32
3.16248e-09
12.8728
-5.89596e-148
5.84943e-72
2.17137e-78
1.17219e-07
0.00025814
4.03356e-07
1.98672e-55
4.26469e-25
-2.03103e-197
2.9571e-42
-6.99106e-56
-3.29116e-146
-2.1656e-23
2.5278e-46
2.87855e-38
7.37439e-24
-1.59107e-76
6.86721e-46
1.3455e-34
-1.26718e-183
-4.50422e-278
2.35255e-47
-1.09572e-70
1.15919e-08
7.74156e-55
-7.15533e-24
5.57508e-14
-1.28293e-43
-1.43311e-147
-4.16817e-63
9.88172e-23
3.61364e-152
0.0685994
0.0110734
-8.08908e-123
3.33281e-193
-1.54463e-113
4.32187e-151
-2.74497e-223
5.06266e-65
1.09292e-73
-1.01388e-34
2.5246e-45
1.39894e-33
-5.30613e-52
2.14903e-06
1.79732e-23
4.62808e-34
1.05496e-46
4.72204e-57
8.61848e-38
-3.41729e-183
-2.20543e-79
1.72439e-75
-1.65145e-33
-2.83177e-27
7.84766e-10
-3.74068e-226
-2.74257e-28
3.64442e-41
2.63937e-54
6.10886e-24
-1.45922e-43
4.13348e-26
0.00126828
3.05295e-42
2.82506e-19
4.08448e-56
-6.19707e-96
2.05872e-44
1.29566e-36
-2.11749e-153
8.51374e-48
0.0107387
-1.222e-83
9.53417e-05
-5.97e-147
2.25876e-36
-6.84976e-98
4.05786e-82
8.7117e-32
-1.0328e-21
1.0818e-23
1.92207e-77
2.80461e-50
1.23389e-54
6.77408e-19
1.02218e-16
-5.8258e-49
9.33813e-11
-5.74209e-222
1.81509e-44
6.72722
3.68458e-15
-7.4082e-79
0.211732
8.09351e-22
-6.68453e-74
6.84192e-170
4.02972e-11
7.65575e-37
4.09582e-56
1.94397e-39
-9.91868e-159
1.65375e-25
1.36824e-86
9.57972e-16
1.02482e-38
7.59517e-35
-1.5066e-31
-2.74193e-271
-5.86711e-112
6.12472e-58
-1.37922e-95
-2.47571e-98
2.83164e-60
-4.18343e-82
3.52511e-70
-3.85005e-26
2.16615e-29
-4.78199e-210
6.17988e-18
4.27834e-111
-1.82736e-182
-4.78225e-29
-1.04072e-139
1.31949e-55
1.30872e-56
-3.395e-155
-8.17909e-151
-1.04074e-89
2.0407e-29
5.75143e-66
2.92754e-34
1.28319e-39
-5.11452e-28
8.97901e-28
5.84214e-57
1.28043e-47
3.83287e-41
-2.86516e-241
-9.28956e-63
3.90187e-84
4.3698e-58
0.0582776
9.09426e-32
-2.80864e-76
1.59795e-46
-3.97398e-68
1.18228e-74
8.07638e-80
2.02439e-67
3.5871e-77
-1.8223e-34
6.71226e-42
-3.07501e-184
1.40582e-30
-1.84328e-53
1.49189e-28
-1.30228e-170
-1.24365e-29
1.86776e-05
-9.43949e-106
-1.16201e-42
1.09097e-21
5.40173e-126
3.33534e-28
4.03862e-15
1.83884e-39
-2.61819e-40
7.50984e-17
4.63816e-47
-3.53818e-54
1.29641e-43
5.0285e-28
8.48157e-137
9.48539e-82
-1.71215e-230
1.36426e-109
-2.1168e-170
3.83588e-48
6.25295e-44
5.51553e-29
6.5118e-45
9.48208
-1.63779e-21
21.3782
2.39722e-40
1.74033e-10
5.10158
4.14942e-17
18.0147
2.40743e-79
8.87777e-48
1.77126e-55
9.1786e-60
2.55133e-49
1.20645e-112
1.35958e-52
-2.93447e-99
-2.58106e-172
-1.30477e-55
1.75262
1.52589e-50
1.7555e-27
8.79985e-53
-2.72603e-91
1.83818e-42
1.55431e-44
-1.703e-113
1.14365e-49
-2.75601e-90
9.49307e-26
3.92615e-42
3.28945e-44
-2.50615e-45
0.0318766
6.17895e-11
2.38555e-26
1.72071e-57
60.6908
3.62753e-52
-1.72423e-58
5.23782e-31
-6.57085e-31
-8.90183e-64
4.06395e-19
2.39878e-149
-1.28903e-39
-3.33076e-29
3.73103e-46
6.14275e-48
1.60801e-81
6.67987e-47
-4.58984e-36
1.2332e-77
6.4519e-31
8.5757e-54
2.12354e-69
4.60672e-148
1.17143e-60
1.23026e-43
-3.19101e-87
1.26372e-56
2.92318e-69
1.10547e-112
-1.00646e-35
3.45297e-88
6.32845e-17
1.62715e-49
-9.46961e-69
-6.61871e-157
5.48815e-107
3.51775e-19
3.15376e-46
2.62427e-211
1.03528e-48
4.46708
2.44199e-28
-2.90705e-83
3.71746e-57
0.0208147
0.373486
26.9231
3.50801e-98
4.31165e-100
-3.81801e-111
2.26628e-68
1.58765e-32
4.71621e-05
0.00106862
5.80972e-14
1.67955e-25
-2.77827e-85
1.03943e-166
8.76187e-164
-5.38064e-29
-1.5102e-81
1.35111e-27
-5.57224e-100
2.82817e-08
2.63949e-95
1.70403e-48
1.10839e-12
-6.70948e-45
9.91414e-24
7.50618e-117
1.05834e-48
-1.02179e-180
2.08708e-20
4.47584e-26
1.76616e-76
-3.97688e-172
1.85221e-73
-3.12927e-26
9.24384e-115
-5.0175e-48
0.0171518
-5.03468e-193
-1.72998e-74
-6.42022e-41
-2.27329e-41
1.77925e-51
2.51372e-126
-1.25669e-113
7.03862e-112
-1.30295e-215
-2.74526e-163
-2.20961e-69
1.27233e-33
-1.84009e-181
1.45224e-82
-1.34096e-121
148.312
-5.30754e-30
3.14891e-110
-5.1302e-228
1.05748e-27
3.38865e-51
7.58535e-23
-5.82222e-51
1.35442e-51
1.25138e-174
-5.14478e-111
7.069e-20
6.46848e-239
5.46892e-53
1.83677e-30
5.36681e-55
1.43155e-158
1.70605e-46
-8.17182e-214
-3.94307e-66
-1.63728e-68