/*--------------------------------*- C++ -*----------------------------------*\
  =========                 |
  \\      /  F ield         | OpenFOAM: The Open Source CFD Toolbox
   \\    /   O peration     | Website:  https://openfoam.org
    \\  /    A nd           | Version:  7
     \\/     M anipulation  |
\*---------------------------------------------------------------------------*/
FoamFile
{
    version     2.0;
    format      ascii;
    class       volScalarField;
    location    "109";
    object      p;
}
// * * * * * * * * * * * * * * * * * * * * * * * * * * * * * * * * * * * * * //

dimensions      [0 2 -2 0 0 0 0];

internalField   nonuniform List<scalar> 
15200
(
-0.680491
-0.569065
-0.451244
-0.482173
-0.349036
-0.27609
-0.233813
-0.21816
-0.23257
-0.22905
-0.200614
-0.161454
-0.143548
-0.157653
-0.172536
-0.678439
-0.565773
-0.480926
-0.489121
-0.355143
-0.270789
-0.224013
-0.200313
-0.214543
-0.220921
-0.196519
-0.15752
-0.140286
-0.150174
-0.162951
-0.678016
-0.561955
-0.51104
-0.493168
-0.35808
-0.263372
-0.213495
-0.184948
-0.199615
-0.212201
-0.188416
-0.151233
-0.138842
-0.158803
-0.154203
-0.679
-0.55737
-0.540931
-0.49467
-0.35775
-0.254607
-0.201972
-0.172356
-0.186792
-0.202739
-0.176666
-0.142022
-0.136755
-0.156859
-0.143445
-0.680974
-0.551851
-0.569417
-0.493713
-0.354184
-0.245094
-0.189037
-0.161691
-0.174787
-0.192224
-0.161348
-0.126762
-0.130505
-0.15004
-0.129204
-0.683363
-0.545283
-0.595268
-0.490517
-0.3477
-0.235104
-0.174498
-0.150443
-0.161656
-0.178937
-0.141273
-0.103085
-0.118303
-0.136063
-0.111723
-0.685453
-0.537548
-0.617082
-0.485329
-0.338942
-0.224647
-0.158771
-0.135185
-0.144001
-0.157898
-0.114325
-0.0727455
-0.101972
-0.117537
-0.0927076
-0.686377
-0.528482
-0.633358
-0.478321
-0.328692
-0.213686
-0.143024
-0.114618
-0.118119
-0.124123
-0.0791238
-0.0420594
-0.0815855
-0.0971622
-0.0736155
-0.685129
-0.517938
-0.642605
-0.469587
-0.317636
-0.202329
-0.128771
-0.0913271
-0.0835055
-0.0752506
-0.0372827
-0.0162895
-0.0614708
-0.0763546
-0.0558313
-0.680375
-0.506717
-0.64365
-0.45919
-0.30623
-0.190937
-0.11693
-0.0698635
-0.0458624
-0.0249069
0.00252715
0.00153229
-0.0418473
-0.056381
-0.0406654
-0.672097
-0.4949
-0.636011
-0.447207
-0.29475
-0.180085
-0.107154
-0.0541524
-0.0175752
0.011229
0.0287529
0.0118191
-0.0249373
-0.038942
-0.0287009
-0.659873
-0.483309
-0.620106
-0.433741
-0.283419
-0.170239
-0.0988054
-0.0439379
-0.00239264
0.0285779
0.0393437
0.0174025
-0.0118079
-0.0251964
-0.0196971
-0.643525
-0.473095
-0.597186
-0.418935
-0.272451
-0.161489
-0.0919561
-0.0377079
0.00321314
0.0325989
0.0404065
0.0201424
-0.00285637
-0.0152796
-0.0130491
-0.623372
-0.465714
-0.56908
-0.402982
-0.261987
-0.153734
-0.0867485
-0.0342166
0.00448488
0.0312834
0.0372917
0.0206268
0.00244658
-0.00846252
-0.00816641
-0.600057
-0.462374
-0.53789
-0.386104
-0.252071
-0.146913
-0.08295
-0.0327362
0.00343199
0.0275688
0.0326916
0.0195989
0.00538466
-0.00384504
-0.00456428
-0.574323
-0.464088
-0.505746
-0.368536
-0.242686
-0.140939
-0.0802483
-0.0326171
0.000984694
0.0226598
0.0275951
0.0177724
0.00685249
-0.000768861
-0.00185733
-0.546874
-0.471491
-0.474609
-0.350521
-0.233761
-0.13567
-0.0783788
-0.0333265
-0.0021785
0.0174119
0.0224699
0.0155671
0.0073432
0.00121198
0.00022858
-0.518269
-0.484832
-0.44603
-0.3323
-0.225187
-0.130962
-0.0770916
-0.0345003
-0.00563282
0.0122969
0.0176158
0.0132446
0.00717727
0.00247261
0.00179084
-0.488834
-0.503964
-0.420858
-0.31412
-0.216861
-0.126674
-0.0761752
-0.0358807
-0.00910628
0.00752394
0.0131726
0.0109288
0.00660198
0.00329332
0.00277843
-0.458644
-0.527472
-0.399407
-0.29622
-0.2087
-0.122679
-0.0754624
-0.0372842
-0.0124114
0.00321121
0.00921398
0.00867668
0.00585618
0.00378147
0.00332644
-0.427353
-0.551617
-0.381584
-0.278753
-0.200634
-0.118868
-0.0748212
-0.0385841
-0.0154404
-0.000596515
0.00574716
0.00654865
0.00506718
0.00397415
0.0037324
-0.394141
-0.56991
-0.366803
-0.261821
-0.192614
-0.115152
-0.0741519
-0.0396935
-0.0181283
-0.00389122
0.00274575
0.00460382
0.00425746
0.00394055
0.00409177
-0.358145
-0.574461
-0.354028
-0.245549
-0.184623
-0.111463
-0.0733823
-0.0405574
-0.0204416
-0.00668596
0.000182394
0.00287131
0.00346117
0.00376076
0.00428991
-0.319498
-0.559403
-0.342051
-0.230122
-0.176677
-0.107751
-0.0724608
-0.0411435
-0.0223676
-0.00900682
-0.00197669
0.00136868
0.00270612
0.00350755
0.00437003
-0.280342
-0.524268
-0.329914
-0.21573
-0.168822
-0.103982
-0.0713525
-0.0414357
-0.0239045
-0.0108855
-0.00376026
9.92203e-05
0.00201966
0.00324326
0.00437859
-0.244446
-0.474801
-0.317234
-0.202423
-0.161109
-0.100137
-0.0700362
-0.0414292
-0.0250579
-0.0123556
-0.00519685
-0.000942334
0.00142795
0.00300777
0.00435066
-0.216669
-0.41988
-0.304091
-0.190091
-0.153577
-0.0962051
-0.0685007
-0.0411274
-0.0258414
-0.0134467
-0.00631399
-0.00176229
0.000948965
0.00281597
0.00433569
-0.198863
-0.367081
-0.290681
-0.178593
-0.146249
-0.0921837
-0.0667436
-0.0405385
-0.0262744
-0.0141858
-0.00713568
-0.0023703
0.000592118
0.00269261
0.00434782
-0.190916
-0.320501
-0.277178
-0.167794
-0.139129
-0.0880721
-0.0647693
-0.0396737
-0.0263787
-0.014598
-0.00768418
-0.00277592
0.000365447
0.00264081
0.00440836
-0.191422
-0.28124
-0.263745
-0.157575
-0.132212
-0.0838699
-0.0625888
-0.0385449
-0.0261762
-0.0147079
-0.00797898
-0.00298922
0.000268144
0.00267521
0.00452669
-0.198702
-0.24877
-0.250599
-0.147841
-0.125484
-0.0795769
-0.0602173
-0.0371634
-0.02569
-0.0145389
-0.00803795
-0.00302074
0.000301712
0.00279685
0.00470847
-0.211229
-0.222058
-0.237959
-0.138514
-0.118932
-0.0751938
-0.057669
-0.035541
-0.0249446
-0.0141122
-0.00787679
-0.00287999
0.000461984
0.00301051
0.00496091
-0.227685
-0.20008
-0.225943
-0.129531
-0.112542
-0.0707219
-0.0549526
-0.0336932
-0.0239611
-0.0134472
-0.00751166
-0.00257613
0.000746795
0.00331469
0.00528162
-0.246906
-0.181935
-0.214593
-0.120837
-0.106297
-0.0661632
-0.0520734
-0.0316409
-0.0227525
-0.0125639
-0.00695862
-0.00211726
0.00115201
0.00370714
0.00566995
-0.267852
-0.166864
-0.203894
-0.112379
-0.100166
-0.0615172
-0.0490458
-0.0294025
-0.021328
-0.0114849
-0.00623068
-0.00151112
0.00167399
0.00418409
0.00611751
-0.289605
-0.154214
-0.193798
-0.104104
-0.0941255
-0.0567738
-0.0459046
-0.0269746
-0.0197132
-0.0102274
-0.00533579
-0.000766806
0.00230658
0.00474227
0.00662329
-0.311354
-0.143422
-0.184235
-0.0959599
-0.0881782
-0.0518975
-0.0427076
-0.0243156
-0.0179719
-0.00878184
-0.00428864
0.000105666
0.00304073
0.0053825
0.00718999
-0.332391
-0.133999
-0.175117
-0.0878911
-0.0823602
-0.0468145
-0.039533
-0.0213538
-0.0162009
-0.00710224
-0.00312882
0.00110418
0.00386658
0.00610547
0.00782502
-0.352103
-0.125525
-0.166349
-0.0798152
-0.0767339
-0.041421
-0.0364754
-0.0180248
-0.014481
-0.0051415
-0.00190981
0.00223841
0.00477588
0.00690837
0.00853089
-0.369967
-0.117634
-0.157846
-0.0715861
-0.0714008
-0.0356109
-0.033623
-0.0143237
-0.0128086
-0.00292492
-0.000638699
0.00350128
0.00576599
0.00778534
0.00930623
-0.385546
-0.109986
-0.149589
-0.06297
-0.0665094
-0.0293434
-0.0309709
-0.0103693
-0.0110519
-0.000597966
0.000770484
0.00483277
0.00684817
0.0087337
0.0101423
-0.398483
-0.102236
-0.141668
-0.053714
-0.0621413
-0.0228084
-0.0282415
-0.00646335
-0.00896374
0.00161791
0.00244227
0.0061577
0.00804316
0.00974745
0.0110176
-0.408488
-0.0940035
-0.134258
-0.0438676
-0.0579339
-0.0166061
-0.0247933
-0.00296893
-0.0063873
0.00364797
0.0043512
0.00751336
0.00931436
0.010831
0.0119394
-0.415332
-0.084913
-0.127448
-0.0343011
-0.0526948
-0.0110518
-0.0206907
0.00018019
-0.00341496
0.00557685
0.00638993
0.00895991
0.0106363
0.0119766
0.0129112
-0.418851
-0.0747922
-0.120862
-0.0251404
-0.0465715
-0.00600679
-0.0160893
0.00311747
-0.000184471
0.00750617
0.00846636
0.0105225
0.0120037
0.013172
0.0139283
-0.418978
-0.0639559
-0.113365
-0.0168784
-0.0397593
-0.0013019
-0.0111507
0.00597178
0.00318111
0.00951306
0.0105356
0.012188
0.0134178
0.0144053
0.0149796
-0.415788
-0.052971
-0.104452
-0.00921997
-0.0324423
0.00321591
-0.00600764
0.00884085
0.00659096
0.0116392
0.0125954
0.0139219
0.0148779
0.0156703
0.0160555
-0.409476
-0.0415668
-0.0942956
-0.00193133
-0.0247634
0.00766416
-0.000764275
0.0117907
0.00998693
0.0138947
0.0146577
0.0156958
0.0163787
0.0169659
0.0171517
-0.400134
-0.0295721
-0.0831026
0.00517564
-0.0168387
0.0121298
0.00450463
0.0148568
0.0133392
0.0162654
0.0167354
0.0174936
0.017913
0.0182918
0.0182708
-0.387371
-0.0172165
-0.071054
0.0122301
-0.00875859
0.0166708
0.00974807
0.0180512
0.0166379
0.0187248
0.0188358
0.0193075
0.0194708
0.0196419
0.0194119
-0.370467
-0.00503789
-0.058297
0.019328
-0.000594292
0.0213225
0.0149343
0.021368
0.0198863
0.0212439
0.0209603
0.0211336
0.0210407
0.0209997
0.0205605
-0.349856
0.00726337
-0.044951
0.0265357
0.00759948
0.0261002
0.0200457
0.02479
0.0230921
0.0237964
0.0231042
0.0229677
0.0226118
0.0223454
0.0216952
-0.325885
0.0198612
-0.0311241
0.0338964
0.0157803
0.0310044
0.0250739
0.0282937
0.0262631
0.0263613
0.0252579
0.0248037
0.0241775
0.0236703
0.02281
-0.298884
0.0328714
-0.016914
0.0414329
0.0239154
0.036024
0.0300163
0.0318535
0.0294037
0.0289223
0.02741
0.0266338
0.0257346
0.0249791
0.0239164
-0.269175
0.0463474
-0.00241134
0.0491514
0.0319789
0.0411396
0.0348724
0.0354436
0.0325137
0.0314666
0.0295503
0.0284527
0.0272773
0.0262636
0.0249931
-0.237079
0.0603063
0.0122985
0.0570437
0.0399494
0.0463262
0.0396418
0.03904
0.0355891
0.0339844
0.0316733
0.0302584
0.0287897
0.0274723
0.0259415
-0.202925
0.0747354
0.027134
0.0650899
0.0478084
0.0515554
0.0443226
0.0426206
0.0386226
0.0364681
0.0337761
0.0320484
0.0302468
0.0285344
0.0266659
-0.167045
0.0895989
0.0420166
0.0732605
0.0555383
0.0567971
0.0489107
0.0461652
0.0416052
0.0389111
0.0358543
0.0338109
0.031626
0.0294441
0.0272417
-0.129775
0.104842
0.05687
0.0815182
0.0631217
0.0620205
0.0533992
0.0496555
0.0445275
0.0413076
0.0378983
0.0355223
0.0329174
0.0302982
0.0279423
-0.0914555
0.120394
0.0716194
0.0898197
0.0705402
0.0671951
0.0577788
0.0530746
0.0473799
0.0436505
0.039894
0.0371587
0.0341281
0.0312068
0.0289906
-0.0524234
0.13617
0.0861913
0.0981172
0.0777743
0.0722908
0.062038
0.0564071
0.0501524
0.0459305
0.0418257
0.0387108
0.0352859
0.0321939
0.0303808
-0.0130149
0.152077
0.100513
0.10636
0.0848027
0.0772785
0.0661636
0.059638
0.052835
0.0481362
0.0436801
0.0401856
0.0364365
0.0332885
0.0317123
0.0264385
0.16801
0.114513
0.114494
0.0916027
0.0821298
0.0701412
0.0627536
0.0554168
0.0502557
0.0454473
0.0415918
0.0375978
0.034457
0.0329126
0.0656117
0.18386
0.128122
0.122466
0.0981501
0.0868177
0.0739557
0.06574
0.0578867
0.0522778
0.0471234
0.0429367
0.0387538
0.0356127
0.0339918
0.104188
0.19951
0.141268
0.130221
0.10442
0.0913159
0.0775914
0.0685837
0.0602331
0.0541922
0.0487066
0.0442283
0.0398982
0.0367183
0.0349579
0.141862
0.214841
0.153885
0.137705
0.110385
0.0955991
0.0810327
0.0712715
0.0624449
0.0559897
0.0501912
0.0454548
0.0410017
0.0377591
0.0358384
0.178337
0.229733
0.165904
0.144864
0.11602
0.0996434
0.084264
0.0737904
0.0645118
0.0576646
0.0515775
0.0466129
0.0420448
0.0387152
0.0366327
0.213335
0.244063
0.177261
0.151648
0.121297
0.103425
0.0872698
0.0761276
0.0664231
0.0592083
0.052858
0.0476925
0.0430205
0.0395948
0.0373473
0.246589
0.257712
0.187893
0.158006
0.12619
0.106924
0.0900354
0.0782713
0.0681704
0.0606152
0.0540269
0.0486818
0.0439129
0.0403888
0.0379819
0.277849
0.270561
0.197739
0.163891
0.130673
0.110117
0.0925465
0.08021
0.0697447
0.0618789
0.0550789
0.0495758
0.0447197
0.041098
0.0385348
0.306883
0.282498
0.206742
0.169259
0.134721
0.112986
0.0947896
0.081933
0.071138
0.0629927
0.0560062
0.0503651
0.0454331
0.0417188
0.0390058
0.333478
0.293411
0.214847
0.174068
0.138311
0.115513
0.0967523
0.0834305
0.0723433
0.0639512
0.056804
0.0510449
0.0460493
0.0422489
0.0393938
0.357443
0.303197
0.222003
0.178281
0.141422
0.117681
0.098423
0.0846937
0.0733537
0.0647484
0.0574663
0.0516096
0.0465637
0.0426858
0.0396988
0.378608
0.311757
0.228163
0.181863
0.144033
0.119476
0.0997915
0.0857146
0.0741634
0.0653794
0.0579886
0.0520545
0.0469729
0.0430278
0.039921
0.396817
0.319007
0.233287
0.184784
0.146126
0.120884
0.100849
0.0864862
0.0747671
0.0658399
0.0583666
0.0523759
0.0472738
0.0432735
0.0400608
0.411932
0.32487
0.237339
0.187017
0.147686
0.121894
0.101587
0.0870026
0.0751603
0.066126
0.0585971
0.0525705
0.0474639
0.0434216
0.040119
0.423836
0.329284
0.240286
0.188539
0.1487
0.122496
0.101999
0.087259
0.0753396
0.0662349
0.0586774
0.0526355
0.0475406
0.043471
0.0400965
0.432428
0.332195
0.242105
0.189333
0.149158
0.122683
0.102081
0.0872516
0.0753022
0.0661644
0.0586053
0.0525686
0.0475017
0.0434208
0.0399951
0.437634
0.333564
0.242775
0.189385
0.149051
0.122449
0.101829
0.0869779
0.0750463
0.0659128
0.0583794
0.052368
0.0473452
0.0432707
0.0398165
0.439396
0.333361
0.242284
0.188686
0.148375
0.121792
0.101242
0.0864369
0.0745712
0.0654797
0.0579991
0.052033
0.0470706
0.0430216
0.0395642
0.437683
0.331572
0.240624
0.187232
0.147129
0.12071
0.100318
0.0856283
0.073877
0.0648654
0.0574648
0.0515637
0.0466781
0.0426753
0.0392421
0.432483
0.328194
0.237792
0.185022
0.145311
0.119205
0.0990589
0.0845534
0.0729647
0.0640708
0.0567774
0.050961
0.0461678
0.0422305
0.0388474
0.423807
0.323235
0.233794
0.182061
0.142928
0.117278
0.097468
0.0832145
0.0718365
0.0630977
0.055938
0.0502255
0.0455399
0.0416848
0.0383762
0.411688
0.316718
0.228641
0.178358
0.139984
0.114937
0.0955493
0.0816152
0.0704954
0.0619486
0.0549492
0.0493592
0.0447958
0.0410395
0.0378244
0.396181
0.308678
0.222347
0.173927
0.13649
0.112188
0.0933089
0.0797605
0.0689454
0.060627
0.053814
0.048365
0.0439381
0.0402979
0.0371999
0.377361
0.299161
0.214937
0.168787
0.132457
0.10904
0.0907545
0.0776563
0.0671916
0.0591373
0.0525364
0.0472463
0.0429693
0.0394623
0.0365051
0.355322
0.288227
0.206437
0.16296
0.127902
0.105506
0.0878952
0.0753101
0.0652399
0.0574844
0.051121
0.0460074
0.0418928
0.0385339
0.0357389
0.330179
0.275946
0.196881
0.156473
0.122841
0.1016
0.0847418
0.0727301
0.0630972
0.0556741
0.0495729
0.0446529
0.0407124
0.0375146
0.0349009
0.302063
0.2624
0.186307
0.149359
0.117296
0.0973364
0.0813063
0.069926
0.0607712
0.0537131
0.0478979
0.0431881
0.0394324
0.0364072
0.0339909
0.271118
0.247683
0.174761
0.141654
0.111289
0.0927336
0.0776023
0.0669084
0.0582705
0.0516083
0.0461026
0.0416189
0.0380578
0.0352146
0.0330091
0.237505
0.231899
0.16229
0.133398
0.104846
0.0878111
0.0736445
0.0636889
0.0556044
0.0493678
0.0441941
0.0399516
0.0365931
0.0339395
0.0319562
0.201407
0.215155
0.148947
0.124635
0.0979941
0.08259
0.0694494
0.0602803
0.0527833
0.0470003
0.0421803
0.0381938
0.0350452
0.0325867
0.030833
0.163025
0.197565
0.134788
0.115414
0.0907621
0.0770933
0.0650341
0.0566962
0.0498176
0.0445138
0.0400687
0.0363524
0.0334189
0.0311584
0.0296404
0.122577
0.179244
0.119873
0.105787
0.083181
0.0713453
0.0604173
0.0529513
0.0467189
0.0419187
0.0378694
0.0344381
0.031724
0.0296616
0.0283807
0.0802959
0.160313
0.104265
0.0958069
0.0752829
0.0653717
0.0556187
0.049061
0.0434993
0.0392239
0.0355901
0.0324573
0.0299646
0.0280972
0.027054
0.0364282
0.140893
0.0880283
0.0855332
0.0671007
0.0591996
0.0506587
0.0450418
0.0401714
0.0364384
0.0332393
0.0304215
0.0281541
0.0264749
0.0256619
-0.00876715
0.121108
0.0712319
0.0750261
0.058668
0.0528573
0.0455586
0.0409108
0.0367486
0.033573
0.0308273
0.0283434
0.0263064
0.0248006
0.0242006
-0.0550203
0.101077
0.0539459
0.0643481
0.0500187
0.0463745
0.0403403
0.0366858
0.0332452
0.0306372
0.0283594
0.0262276
0.0244293
0.0230789
0.0226536
-0.102052
0.0809205
0.0362429
0.0535635
0.0411863
0.039782
0.0350261
0.0323846
0.029676
0.0276414
0.0258423
0.0240843
0.0225494
0.0213482
0.0210122
-0.149576
0.0607528
0.018198
0.0427374
0.0322039
0.0331121
0.0296389
0.0280253
0.0260566
0.0245978
0.0232843
0.0219208
0.0206799
0.0196419
0.0192058
-0.1973
0.0406833
-0.000110909
0.0319352
0.0231036
0.0263984
0.0242016
0.0236259
0.022403
0.0215193
0.0206903
0.0197321
0.0188065
0.0179874
0.0172911
-0.244928
0.0208141
-0.0186036
0.0212213
0.0139167
0.0196761
0.018737
0.019204
0.0187308
0.0184194
0.018068
0.0175228
0.0169392
0.0163839
0.0156651
-0.29216
0.00123887
-0.0371964
0.0106585
0.00467309
0.0129819
0.0132678
0.014777
0.0150553
0.0153134
0.015429
0.0152985
0.0150767
0.0148401
0.0142298
-0.338699
-0.0179594
-0.0558023
0.000306337
-0.00459826
0.00635425
0.00781595
0.0103622
0.0113912
0.0122162
0.0127854
0.0130589
0.0131947
0.013292
0.0129039
-0.384247
-0.0367098
-0.0743303
-0.00978012
-0.0138689
-0.000167068
0.00240192
0.00597685
0.00775238
0.009141
0.0101495
0.0108087
0.0112835
0.0117045
0.0116184
-0.42851
-0.0549558
-0.0926844
-0.0195519
-0.0231099
-0.00654118
-0.00295569
0.0016389
0.00415253
0.00609928
0.00753533
0.0085629
0.00935592
0.0100794
0.0102777
-0.4712
-0.0726574
-0.110763
-0.028968
-0.032291
-0.0127269
-0.00824105
-0.00263278
0.000605702
0.00310154
0.00495592
0.00633861
0.00742645
0.00841985
0.00883312
-0.512034
-0.0897937
-0.12846
-0.0379974
-0.0413786
-0.018684
-0.0134417
-0.00681759
-0.00287366
0.000157059
0.0024211
0.00414768
0.00550468
0.00673495
0.00731898
-0.550737
-0.106366
-0.14566
-0.046621
-0.0503337
-0.024375
-0.0185485
-0.0108924
-0.00627141
-0.00272573
-6.23033e-05
0.0019978
0.00360361
0.00505224
0.00580542
-0.587039
-0.122403
-0.16224
-0.0548341
-0.0591096
-0.0297676
-0.0235552
-0.0148311
-0.00957495
-0.00553815
-0.00248754
-0.000103853
0.00174011
0.00340551
0.00434059
-0.620672
-0.137968
-0.178069
-0.0626486
-0.0676487
-0.0348388
-0.0284565
-0.0186038
-0.0127752
-0.00827011
-0.0048462
-0.00214998
-7.40116e-05
0.00181136
0.00293289
-0.651364
-0.153168
-0.193004
-0.0700963
-0.0758799
-0.0395775
-0.0332439
-0.0221786
-0.0158684
-0.0109091
-0.0071294
-0.00413402
-0.00183563
0.000264826
0.00156636
-0.678823
-0.168169
-0.206891
-0.0772303
-0.0837148
-0.0439907
-0.0379006
-0.0255248
-0.0188569
-0.0134391
-0.00933041
-0.00604944
-0.00354415
-0.00124309
0.000229047
-0.702755
-0.183178
-0.219559
-0.0841311
-0.0910449
-0.0481076
-0.0423943
-0.0286198
-0.0217468
-0.0158408
-0.0114469
-0.0078875
-0.00519495
-0.00270953
-0.00107126
-0.723377
-0.198148
-0.230818
-0.0909083
-0.097739
-0.0519834
-0.0466711
-0.0314574
-0.0245415
-0.0180931
-0.0134809
-0.0096365
-0.00678019
-0.00412204
-0.00231453
-0.741498
-0.212573
-0.24045
-0.0977031
-0.103638
-0.0557065
-0.0506476
-0.0340579
-0.0272309
-0.0201812
-0.0154353
-0.0112843
-0.00829368
-0.00546995
-0.00348622
-0.757291
-0.226402
-0.24822
-0.104685
-0.108567
-0.0593874
-0.0542138
-0.0364757
-0.0297777
-0.022106
-0.0173064
-0.0128245
-0.00973165
-0.0067492
-0.00458636
-0.770585
-0.239826
-0.254019
-0.111971
-0.112356
-0.0631537
-0.0572324
-0.038797
-0.0321178
-0.0238942
-0.0190755
-0.0142627
-0.0110882
-0.00795785
-0.00562281
-0.781252
-0.252627
-0.258516
-0.119256
-0.114931
-0.0670829
-0.0595767
-0.0411241
-0.0341636
-0.0255946
-0.0207063
-0.0156187
-0.0123497
-0.00909261
-0.00660221
-0.789321
-0.264111
-0.262836
-0.12577
-0.116727
-0.0709794
-0.0611742
-0.0435302
-0.0358563
-0.0272522
-0.0221606
-0.0169187
-0.013497
-0.0101494
-0.00752774
-0.794918
-0.274285
-0.267043
-0.131022
-0.11843
-0.0741986
-0.0625336
-0.0457097
-0.0373003
-0.0288426
-0.0234398
-0.0181667
-0.0145261
-0.0111228
-0.00839445
-0.798212
-0.283497
-0.270701
-0.135122
-0.120081
-0.076589
-0.0638084
-0.0474998
-0.0386236
-0.0302876
-0.0246024
-0.019317
-0.0154716
-0.0120025
-0.00917224
-0.799389
-0.29206
-0.273491
-0.138348
-0.121366
-0.0782987
-0.0649133
-0.0489246
-0.0398413
-0.0315555
-0.0256759
-0.0203499
-0.0163425
-0.0127913
-0.00985271
-0.798666
-0.300168
-0.275324
-0.140844
-0.12205
-0.0794627
-0.0657352
-0.0500574
-0.040921
-0.0326554
-0.0266597
-0.0212689
-0.017131
-0.0134943
-0.0104459
-0.796291
-0.307957
-0.276214
-0.142622
-0.122063
-0.0801157
-0.0662149
-0.0509388
-0.0418431
-0.0336104
-0.0275466
-0.0220839
-0.0178307
-0.0141141
-0.0109662
-0.792547
-0.315564
-0.276164
-0.143652
-0.121401
-0.0802381
-0.0663396
-0.0515815
-0.042607
-0.0344394
-0.0283344
-0.0228044
-0.0184406
-0.0146528
-0.0114215
-0.787742
-0.323148
-0.27515
-0.143916
-0.120044
-0.0798009
-0.066115
-0.051995
-0.0432216
-0.0351541
-0.0290258
-0.0234374
-0.0189646
-0.0151097
-0.0118126
-0.782209
-0.330878
-0.273138
-0.143415
-0.117953
-0.0787802
-0.0655502
-0.0521953
-0.0437025
-0.0357658
-0.0296269
-0.0239883
-0.0194071
-0.0154832
-0.0121307
-0.776296
-0.338922
-0.270104
-0.142152
-0.115082
-0.0771558
-0.0646556
-0.0522037
-0.0440709
-0.0362902
-0.0301471
-0.0244614
-0.0197721
-0.015771
-0.0123686
-0.770364
-0.347441
-0.266025
-0.140128
-0.111378
-0.0749087
-0.0634463
-0.052046
-0.0443515
-0.0367461
-0.0305976
-0.0248614
-0.0200617
-0.0159718
-0.0125189
-0.764772
-0.356587
-0.260884
-0.137343
-0.106785
-0.072021
-0.0619461
-0.0517552
-0.0445717
-0.0371535
-0.0309923
-0.025193
-0.0202764
-0.0160846
-0.0125775
-0.759875
-0.366498
-0.254664
-0.133803
-0.101241
-0.0684775
-0.0601903
-0.0513732
-0.0447633
-0.0375359
-0.0313464
-0.0254638
-0.0204184
-0.0161057
-0.0125388
-0.756004
-0.377297
-0.247347
-0.12953
-0.0946716
-0.064271
-0.0582283
-0.0509517
-0.0449655
-0.0379209
-0.031678
-0.0256809
-0.0204886
-0.0160363
-0.0123921
-0.75346
-0.389078
-0.238917
-0.124564
-0.0869848
-0.0594096
-0.0561247
-0.0505519
-0.0452253
-0.0383424
-0.0320064
-0.0258542
-0.0204877
-0.0158687
-0.0121388
-0.752486
-0.401898
-0.229381
-0.118963
-0.0780656
-0.0539286
-0.0539618
-0.0502467
-0.0455986
-0.0388403
-0.0323554
-0.0259916
-0.0204149
-0.0156059
-0.0117597
-0.753256
-0.415764
-0.218811
-0.112782
-0.0677796
-0.0479059
-0.0518388
-0.0501238
-0.0461514
-0.0394619
-0.0327505
-0.026106
-0.0202629
-0.0152357
-0.011267
-0.755833
-0.430581
-0.207393
-0.106034
-0.0559946
-0.0414776
-0.049872
-0.0502898
-0.0469641
-0.0402634
-0.0332225
-0.0262062
-0.0200302
-0.0147578
-0.0106322
-0.760121
-0.446013
-0.195376
-0.0987655
-0.042649
-0.0348101
-0.0481941
-0.0508756
-0.0481389
-0.041312
-0.0338052
-0.0263068
-0.0197018
-0.0141605
-0.00986891
-0.765808
-0.461376
-0.183133
-0.0910564
-0.0278175
-0.0280927
-0.0469624
-0.0520443
-0.0498055
-0.0426878
-0.0345362
-0.0264174
-0.0192784
-0.0134192
-0.00896738
-0.77232
-0.475781
-0.171114
-0.0829392
-0.0118447
-0.0215438
-0.0463718
-0.054005
-0.052127
-0.0444839
-0.0354611
-0.0265445
-0.0187619
-0.0125204
-0.00786374
-0.778864
-0.488313
-0.159849
-0.0745149
0.0046187
-0.0154056
-0.0466732
-0.0570319
-0.0553048
-0.0468084
-0.0366335
-0.0266967
-0.0181494
-0.0114318
-0.00664052
-0.784566
-0.498266
-0.14996
-0.066107
0.0205709
-0.00993938
-0.0481972
-0.0614812
-0.0595844
-0.0497875
-0.0381176
-0.0268694
-0.0174955
-0.0100394
-0.00548468
-0.788663
-0.505415
-0.14217
-0.0583889
0.0345699
-0.00541965
-0.0513824
-0.067809
-0.0652586
-0.0535673
-0.039995
-0.0270704
-0.0167796
-0.00836265
-0.00397745
-0.790671
-0.51015
-0.137298
-0.0525661
0.0445972
-0.00210907
-0.0567914
-0.0765807
-0.0726663
-0.0583259
-0.0423499
-0.0273525
-0.0159229
-0.0064875
-0.00207489
-0.790444
-0.513367
-0.136276
-0.0507709
0.0478557
-0.000257724
-0.0650145
-0.0884252
-0.0821871
-0.0642831
-0.0452676
-0.0278113
-0.0148992
-0.0043552
0.000175878
-0.788112
-0.516173
-0.140123
-0.0564953
0.0408516
-0.000580533
-0.0762972
-0.103853
-0.0942138
-0.0716966
-0.0488814
-0.0285314
-0.0137585
-0.00190813
0.00263421
-0.783914
-0.519529
-0.149656
-0.0736857
0.0210302
-0.00591064
-0.0902518
-0.122967
-0.109077
-0.0808533
-0.0533708
-0.0296342
-0.0126196
0.00070302
0.00528345
-0.77803
-0.524042
-0.164898
-0.103421
-0.0118235
-0.0102873
-0.10542
-0.145282
-0.126948
-0.0919959
-0.0589758
-0.0313538
-0.0115504
0.00332823
0.00822418
-0.770974
-0.529512
-0.184139
-0.141691
-0.0522641
-0.0394891
-0.120032
-0.169791
-0.147697
-0.105294
-0.0659895
-0.0339916
-0.0106254
0.00542463
0.0112526
-0.763079
-0.535698
-0.204819
-0.180872
-0.0943574
-0.0786199
-0.132726
-0.195149
-0.170758
-0.120797
-0.0746145
-0.0380948
-0.0102409
0.00585733
0.0143272
-0.754606
-0.541946
-0.225178
-0.2176
-0.134036
-0.120006
-0.145369
-0.219885
-0.195196
-0.138114
-0.0852227
-0.0444093
-0.0109864
0.00399154
0.0169053
-0.745802
-0.54862
-0.244089
-0.252614
-0.169554
-0.157716
-0.160956
-0.24232
-0.219623
-0.156646
-0.0981093
-0.0531057
-0.0153741
-0.00350322
0.013076
-0.73688
-0.55522
-0.262399
-0.286993
-0.20085
-0.189464
-0.180012
-0.260193
-0.242357
-0.175957
-0.112605
-0.0645989
-0.0285922
-0.0240665
-0.00851662
-0.728008
-0.561147
-0.281028
-0.320788
-0.228542
-0.215305
-0.200092
-0.271668
-0.261832
-0.195129
-0.127893
-0.0806706
-0.05404
-0.0600721
-0.0485809
-0.71932
-0.566014
-0.300788
-0.353673
-0.253296
-0.236195
-0.218511
-0.27667
-0.276693
-0.212581
-0.143961
-0.100847
-0.0858952
-0.102224
-0.096128
-0.710937
-0.569633
-0.322188
-0.384601
-0.275533
-0.252743
-0.233992
-0.276946
-0.286005
-0.226751
-0.160325
-0.121687
-0.114071
-0.138236
-0.137121
-0.703006
-0.571951
-0.345264
-0.412615
-0.295408
-0.265066
-0.245244
-0.27388
-0.289152
-0.236525
-0.175577
-0.139783
-0.133498
-0.16257
-0.165273
-0.695726
-0.572991
-0.369822
-0.43682
-0.312872
-0.273301
-0.250398
-0.266772
-0.285127
-0.241251
-0.18806
-0.152546
-0.143846
-0.174068
-0.181192
-0.689354
-0.572801
-0.395678
-0.456545
-0.327757
-0.277722
-0.24895
-0.254332
-0.273136
-0.240858
-0.196541
-0.159728
-0.14769
-0.174472
-0.185892
-0.684186
-0.571455
-0.422801
-0.471558
-0.339866
-0.278562
-0.24262
-0.237153
-0.254328
-0.236216
-0.200658
-0.162417
-0.146945
-0.167293
-0.181564
-0.14689
-0.126548
-0.131706
-0.154772
-0.16393
-0.138801
-0.111119
-0.115268
-0.134379
-0.124142
-0.0981188
-0.106697
-0.125654
-0.115726
-0.0901088
-0.0836627
-0.0596639
-0.0348567
-0.0273382
-0.018388
-0.0138867
-0.0104972
-0.00894757
-0.00863461
-0.00771439
-0.00843729
-0.00932296
-0.0118668
-0.012267
-0.0138775
-0.0179548
-0.0196428
-0.0123527
-0.00724882
-0.00183623
0.00435149
0.00467933
-0.000117578
-0.00782907
-0.00558603
-0.137091
-0.11879
-0.127909
-0.154891
-0.164325
-0.135736
-0.104345
-0.105529
-0.122543
-0.115517
-0.0935001
-0.105355
-0.126462
-0.11558
-0.0855295
-0.0789502
-0.0565463
-0.0317663
-0.0256959
-0.0192031
-0.0148691
-0.0101486
-0.00867646
-0.00876282
-0.00715407
-0.00806135
-0.0104393
-0.0118068
-0.00965748
-0.0124629
-0.0200993
-0.0216881
-0.0105173
-0.00373041
-0.000739264
0.00299114
0.00340003
3.30764e-05
-0.00742835
-0.00550301
-0.125191
-0.105509
-0.114717
-0.143444
-0.153609
-0.125308
-0.0931263
-0.0928971
-0.108291
-0.104247
-0.0851517
-0.0980472
-0.12039
-0.10921
-0.0777877
-0.0722623
-0.0521306
-0.0280945
-0.0237987
-0.0199153
-0.0158603
-0.00979861
-0.00835607
-0.00883109
-0.00660903
-0.00751214
-0.0112981
-0.0114601
-0.00686628
-0.0105907
-0.0215547
-0.0230901
-0.00852031
-0.000312227
0.000412772
0.00174905
0.00222413
0.000141099
-0.00715584
-0.00550502
-0.111022
-0.0885932
-0.09376
-0.120782
-0.132114
-0.108525
-0.0795271
-0.0793502
-0.0937721
-0.0917445
-0.0742471
-0.0854429
-0.108181
-0.0972213
-0.0679232
-0.0645402
-0.0467458
-0.0239806
-0.0216189
-0.0204677
-0.0168328
-0.0094654
-0.0079675
-0.00884874
-0.00612053
-0.00679294
-0.0118624
-0.0108958
-0.00408272
-0.00839285
-0.0223621
-0.0238745
-0.00645628
0.00287646
0.00154759
0.000668827
0.00120127
0.000199039
-0.00701149
-0.00558337
-0.0946683
-0.0703796
-0.0689072
-0.0908031
-0.103938
-0.0878069
-0.0651607
-0.0661646
-0.0801736
-0.0790917
-0.0620744
-0.0692669
-0.0917218
-0.0811959
-0.0570537
-0.0567653
-0.0407544
-0.0195872
-0.0191417
-0.020805
-0.0177589
-0.0091688
-0.00749714
-0.00882593
-0.00571558
-0.00594832
-0.0121266
-0.0102086
-0.00148633
-0.0060822
-0.022621
-0.0241229
-0.00443655
0.00571258
0.00260858
-0.000218606
0.000362074
0.0002006
-0.0069839
-0.00572556
-0.0773787
-0.053154
-0.0444798
-0.0595354
-0.0736241
-0.0663776
-0.0511984
-0.05411
-0.0680364
-0.0671653
-0.0497979
-0.0517006
-0.0729902
-0.0632007
-0.0460443
-0.0482816
-0.0345812
-0.0150941
-0.0164238
-0.0208755
-0.0185966
-0.0089272
-0.0069393
-0.008795
-0.00541034
-0.00505577
-0.0121111
-0.00951104
0.000784652
-0.00386279
-0.0224508
-0.0239468
-0.00256776
0.00810243
0.00355299
-0.000899361
-0.000283813
0.00015967
-0.00704662
-0.00591508
-0.0608327
-0.0380853
-0.0242452
-0.0312709
-0.0443517
-0.0456255
-0.0383117
-0.0436671
-0.0575228
-0.0562354
-0.0380372
-0.0348232
-0.0539224
-0.044998
-0.0354566
-0.0403162
-0.0287022
-0.0107055
-0.0135008
-0.0206396
-0.0193036
-0.00875287
-0.00629993
-0.00866373
-0.0052128
-0.00419705
-0.0118552
-0.00887958
0.00264014
-0.00188736
-0.0219645
-0.0234589
-0.000935536
0.0099907
0.00434411
-0.00137692
-0.000747426
6.07418e-05
-0.00716081
-0.00611701
-0.0458412
-0.0264698
-0.00955701
-0.00873962
-0.0181211
-0.0256597
-0.026617
-0.034898
-0.0482928
-0.0460836
-0.0272617
-0.0200767
-0.0360496
-0.0279649
-0.0255755
-0.0331803
-0.0233591
-0.00662081
-0.0104059
-0.0201045
-0.0198394
-0.00864779
-0.00560068
-0.0084958
-0.00512323
-0.00343719
-0.0114061
-0.00835131
0.00403823
-0.000243554
-0.0212498
-0.0227511
0.000405346
0.0113612
0.00495755
-0.00167187
-0.00105246
-7.42444e-05
-0.00728174
-0.00629532
-0.0330842
-0.0177465
-0.000559643
0.00672491
0.00359989
-0.00733447
-0.0160729
-0.0273306
-0.0396573
-0.0365751
-0.0179832
-0.00799867
-0.0203499
-0.0131033
-0.0165494
-0.0267796
-0.0186081
-0.00298563
-0.00729367
-0.019289
-0.0201808
-0.00860142
-0.00487895
-0.0082951
-0.00512839
-0.00281577
-0.0108104
-0.00792838
0.0049817
0.00104527
-0.0203605
-0.0218834
0.00143228
0.0122361
0.00538776
-0.0018137
-0.00122976
-0.000233076
-0.00736504
-0.00641597
-0.0229879
-0.0114041
0.0038239
0.0149482
0.0164736
0.00721934
-0.006736
-0.0200764
-0.0309841
-0.0277133
-0.010404
0.00129479
-0.00727941
-0.000911486
-0.00828745
-0.0210227
-0.0144092
0.000101305
-0.00433678
-0.0181979
-0.020335
-0.00859971
-0.00418405
-0.00805567
-0.0052058
-0.00234543
-0.0101091
-0.0075857
0.00550307
0.00200394
-0.0193193
-0.0208831
0.00215001
0.0126565
0.00564699
-0.00183344
-0.00131171
-0.000398204
-0.00737162
-0.00645155
-0.0153142
-0.00682252
0.00550114
0.0174878
0.0219635
0.0161996
0.00139817
-0.0124128
-0.0221458
-0.0195681
-0.00456134
0.00772214
0.00294206
0.00839766
-0.000865266
-0.0158243
-0.0106221
0.00259399
-0.00165755
-0.0168364