/*--------------------------------*- C++ -*----------------------------------*\
  =========                 |
  \\      /  F ield         | OpenFOAM: The Open Source CFD Toolbox
   \\    /   O peration     | Website:  https://openfoam.org
    \\  /    A nd           | Version:  7
     \\/     M anipulation  |
\*---------------------------------------------------------------------------*/
FoamFile
{
    version     2.0;
    format      ascii;
    class       volScalarField;
    location    "0.7";
    object      p;
}
// * * * * * * * * * * * * * * * * * * * * * * * * * * * * * * * * * * * * * //

dimensions      [0 2 -2 0 0 0 0];

internalField   nonuniform List<scalar> 
1600
(
7.65403e-06
-0.00117838
-0.00390876
-0.0075834
-0.0115292
-0.0152503
-0.0183891
-0.0206929
-0.0219943
-0.0221934
-0.0212447
-0.0191461
-0.0159312
-0.0116629
-0.00642849
-0.00033574
0.00649039
0.0139105
0.0217732
0.0299174
0.0381751
0.0463736
0.0543384
0.0618966
0.0688805
0.0751316
0.0805052
0.0848754
0.0881405
0.0902291
0.0911062
0.0907806
0.0893125
0.0868231
0.0835058
0.0796397
0.0756051
0.0719108
0.0692249
0.0681089
0.00120178
1.1184e-05
-0.0022057
-0.00505756
-0.00810089
-0.0109704
-0.0133814
-0.0151209
-0.0160385
-0.0160384
-0.0150705
-0.0131233
-0.0102175
-0.0064014
-0.0017461
0.00365771
0.00970285
0.0162683
0.0232217
0.0304216
0.0377201
0.0449651
0.0520034
0.0586838
0.0648603
0.0703961
0.0751679
0.0790699
0.0820193
0.083961
0.0848729
0.0847721
0.0837205
0.0818312
0.0792747
0.0762851
0.0731645
0.0702888
0.0681054
0.0669949
0.00394722
0.0022194
-2.7987e-05
-0.00258795
-0.00521733
-0.00764627
-0.00965112
-0.0110602
-0.0117479
-0.0116303
-0.0106616
-0.00882845
-0.0061462
-0.00265464
0.00158535
0.00649475
0.0119791
0.017931
0.024232
0.0307555
0.0373683
0.0439339
0.0503143
0.0563738
0.0619817
0.0670159
0.071367
0.0749422
0.0776697
0.0795029
0.0804252
0.0804544
0.0796468
0.0781015
0.0759626
0.0734209
0.0707167
0.0681315
0.0659242
0.0643066
0.00771161
0.00509991
0.00245823
-0.000171383
-0.00272712
-0.00500908
-0.00684302
-0.00809716
-0.00867308
-0.00850402
-0.00755329
-0.00581149
-0.00329345
-3.53687e-05
0.00390776
0.00846455
0.0135494
0.0190647
0.0249025
0.030947
0.0370762
0.0431646
0.0490855
0.0547137
0.0599289
0.0646186
0.068682
0.0720333
0.074606
0.0763567
0.0772682
0.0773541
0.0766607
0.0752697
0.0732981
0.0708979
0.0682615
0.0656039
0.0630124
0.0605435
0.0119011
0.00826063
0.00505122
0.00216993
-0.000488417
-0.00277994
-0.00457204
-0.00577007
-0.00630286
-0.00612204
-0.00520267
-0.00354178
-0.00115647
0.00191802
0.00563013
0.00991379
0.0146901
0.0198691
0.0253511
0.0310291
0.0367901
0.0425172
0.0480923
0.0533985
0.0583227
0.062759
0.0666118
0.0697994
0.0722571
0.0739409
0.0748306
0.0749322
0.0742801
0.072938
0.0709968
0.0685732
0.0658209
0.0629032
0.0597493
0.0562788
0.0160894
0.0113773
0.00750741
0.00425663
0.00137341
-0.0010413
-0.00288849
-0.00410621
-0.00464866
-0.00448577
-0.00360523
-0.00201203
0.00027259
0.00321236
0.00675714
0.0108442
0.0153993
0.0203381
0.0255675
0.030987
0.0364903
0.0419673
0.047306
0.052395
0.0571262
0.0613973
0.0651153
0.0681992
0.0705837
0.0722216
0.0730869
0.0731766
0.0725122
0.0711395
0.0691258
0.0665581
0.06356
0.0602569
0.0564407
0.0519183
0.0199672
0.0141884
0.00961162
0.00591538
0.00272257
0.000102749
-0.00187107
-0.0031647
-0.00375503
-0.00362925
-0.00278771
-0.00124415
0.000974844
0.00383046
0.00727234
0.0112393
0.01566
0.0204542
0.025533
0.0308007
0.0361558
0.0414927
0.0467034
0.0516799
0.0563162
0.0605113
0.0641721
0.0672161
0.0695745
0.0711948
0.0720434
0.0721069
0.0713937
0.0699329
0.0677712
0.0649709
0.0616344
0.0578613
0.0533274
0.0477488
0.0233014
0.0164802
0.0111787
0.00699345
0.00343846
0.000560798
-0.0015862
-0.00299157
-0.00365212
-0.0035708
-0.00276019
-0.00124299
0.000948168
0.00377091
0.00717337
0.0110945
0.0154646
0.0202054
0.0252311
0.0304491
0.0357608
0.0410633
0.0462504
0.0512155
0.0558528
0.0600604
0.0637427
0.0668134
0.0691982
0.0708375
0.0716883
0.0717263
0.0709466
0.0693631
0.0670043
0.0639132
0.0601776
0.0558815
0.050601
0.0439785
0.0259098
0.0180735
0.0120442
0.00734748
0.00340063
0.000234663
-0.00211185
-0.00364738
-0.0043861
-0.00434528
-0.00354903
-0.00202893
0.000175966
0.00301902
0.00644596
0.0103948
0.0147961
0.0195725
0.0246399
0.0299071
0.0352772
0.040648
0.045914
0.0509678
0.055702
0.0600117
0.0637971
0.066966
0.0694368
0.0711408
0.0720249
0.0720527
0.0712062
0.0694851
0.0669023
0.0634853
0.059313
0.054461
0.0484178
0.040763
0.0276419
0.0188124
0.0120582
0.00684041
0.00248754
-0.000980869
-0.0035374
-0.00520708
-0.00601939
-0.00600459
-0.00519767
-0.00363893
-0.00137405
0.00154562
0.00506271
0.00911348
0.0136276
0.018528
0.0237306
0.0291449
0.034674
0.0402155
0.0456628
0.0509063
0.0558353
0.0603403
0.0643154
0.0676608
0.0702856
0.072111
0.0730717
0.0731191
0.0722215
0.0703651
0.0675493
0.0637888
0.0591578
0.0537286
0.0469101
0.0382253
0.0283647
0.0185554
0.0110801
0.00533907
0.000576683
-0.00319604
-0.00596044
-0.00775605
-0.00862616
-0.00861309
-0.0077622
-0.00612235
-0.00374598
-0.000689517
0.00298606
0.00721461
0.0119243
0.0170373
0.0224689
0.0281281
0.0339172
0.0397326
0.0454651
0.0510018
0.0562274
0.061026
0.065284
0.0688924
0.0717494
0.0737641
0.0748582
0.0749691
0.0740515
0.0720779
0.0690352
0.0649274
0.0598266
0.0538058
0.0461976
0.0364716
0.0279528
0.0171673
0.00897313
0.00271085
-0.00245706
-0.00652653
-0.00948619
-0.0113889
-0.0122909
-0.0122459
-0.0113096
-0.00953916
-0.00699409
-0.00373616
0.000169642
0.00465432
0.00964407
0.0150595
0.0208149
0.026818
0.0329696
0.0391638
0.0452882
0.0512255
0.0568544
0.0620515
0.0666938
0.0706613
0.07384
0.0761248
0.0774228
0.0776561
0.0767646
0.0747069
0.0714572
0.0670097
0.0614364
0.0548129
0.0463961
0.0356028
0.0262805
0.0145131
0.00559932
-0.00117975
-0.0067437
-0.0110946
-0.0142279
-0.0162092
-0.0171075
-0.016988
-0.0159164
-0.0139588
-0.0111816
-0.00765245
-0.00344063
0.00138167
0.00673831
0.0125481
0.0187239
0.0251717
0.0317904
0.0384711
0.0450979
0.051548
0.0576932
0.0634014
0.0685388
0.0729729
0.0765752
0.079225
0.0808126
0.081243
0.0804394
0.0783454
0.0749217
0.0701528
0.0641109
0.0568758
0.0476261
0.0357241
0.0232171
0.0104529
0.000815539
-0.00647444
-0.0124204
-0.0170307
-0.0203074
-0.0223296
-0.0231791
-0.0229332
-0.0216679
-0.0194585
-0.0163792
-0.0125034
-0.00790511
-0.00265996
0.00315341
0.00945195
0.0161469
0.0231425
0.0303355
0.0376141
0.044858
0.0519388
0.0587204
0.0650611
0.0708152
0.0758357
0.079978
0.0831033
0.0850828
0.085802
0.0851652
0.0830985
0.0795477
0.074486
0.067986
0.0601316
0.0500188
0.0369524
0.0186223
0.00483768
-0.00553044
-0.0133242
-0.0196339
-0.0244747
-0.0278562
-0.0298717
-0.0306173
-0.030183
-0.0286562
-0.0261222
-0.0226631
-0.0183589
-0.0132886
-0.00753111
-0.00116774
0.00571675
0.0130321
0.0206813
0.0285588
0.0365501
0.0445306
0.052366
0.0599121
0.0670165
0.0735205
0.0792611
0.0840754
0.0878041
0.0902965
0.0914153
0.0910428
0.0890846
0.0854686
0.0801545
0.0732142
0.064735
0.0537232
0.0394224
0.0123426
-0.00249427
-0.0136036
-0.0218927
-0.0285429
-0.0335778
-0.0370159
-0.0389666
-0.0395418
-0.0388458
-0.0369792
-0.034038
-0.0301132
-0.0252918
-0.0196578
-0.0132939
-0.00628351
0.00128707
0.00932677
0.0177375
0.0264126
0.035235
0.0440765
0.0527967
0.0612433
0.0692531
0.0766528
0.0832623
0.0888981
0.0933776
0.0965246
0.0981756
0.0981863
0.0964379
0.0928362
0.087324
0.0799699
0.0708632
0.0589121
0.0432933
0.00420818
-0.0117215
-0.0235856
-0.0323593
-0.0393211
-0.0445047
-0.0479399
-0.0497546
-0.0500796
-0.0490358
-0.0467385
-0.0432961
-0.0388099
-0.0333742
-0.0270784
-0.0200088
-0.0122506
-0.0038908
0.00497942
0.0142621
0.0238502
0.0336252
0.0434561
0.0531973
0.0626888
0.0717559
0.0802106
0.087854
0.0944799
0.0998791
0.103846
0.106187
0.106725
0.105311
0.101824
0.0961848
0.0884548
0.0787229
0.0657882
0.0487546
-0.00597051
-0.0230432
-0.0356786
-0.0449233
-0.0521599
-0.0574353
-0.0607938
-0.0623859
-0.0623644
-0.0608704
-0.0580365
-0.0539859
-0.0488309
-0.0426744
-0.0356114
-0.0277311
-0.0191202
-0.00986532
-5.64924e-05
0.0102098
0.0208278
0.0316792
0.0426315
0.0535351
0.0642231
0.07451
0.0841927
0.0930521
0.100857
0.107369
0.112349
0.115565
0.116803
0.115878
0.112632
0.106957
0.098904
0.0885566
0.0745915
0.0560331
-0.0184069
-0.0366845
-0.0501109
-0.0598082
-0.0672723
-0.0725675
-0.0757571
-0.0770195
-0.0765348
-0.0744683
-0.0709738
-0.0661914
-0.0602467
-0.0532519
-0.0453075
-0.0365057
-0.0269332
-0.016675
-0.00581845
0.00554365
0.0173087
0.029361
0.0415684
0.0537798
0.0658225
0.0775013
0.0885981
0.0988734
0.108069
0.115913
0.122128
0.126439
0.128586
0.128336
0.125489
0.119897
0.111593
0.100651
0.0856075
0.0654003
-0.0333433
-0.0529023
-0.0671429
-0.0772673
-0.0848973
-0.0901199
-0.0930241
-0.0938235
-0.0927324
-0.0899462
-0.0856441
-0.0799867
-0.0731149
-0.0651511
-0.0562017
-0.0463608
-0.035714
-0.0243429
-0.0123295
0.000239355
0.0132671
0.0266435
0.0402398
0.0539059
0.067466
0.080717
0.093427
0.105336
0.116156
0.125581
0.133288
0.138952
0.142256
0.142911
0.14066
0.135305
0.126848
0.115346
0.0991768
0.0771818
-0.0510578
-0.0719938
-0.0870755
-0.0975916
-0.105305
-0.110335
-0.112805
-0.112974
-0.111099
-0.107414
-0.102129
-0.095429
-0.087473
-0.0783945
-0.0683056
-0.0573012
-0.045464
-0.0328695
-0.0195918
-0.00570844
0.00869376
0.0235134
0.0386295
0.0538961
0.0691381
0.0841475
0.0986807
0.112457
0.125162
0.136447
0.145941
0.153259
0.15802
0.15986
0.158452
0.153529
0.145052
0.133046
0.115708
0.0917685
-0.0718744
-0.0943086
-0.110262
-0.121119
-0.128805
-0.133483
-0.135326
-0.134651
-0.131771
-0.126967
-0.120489
-0.11255
-0.10333
-0.0929732
-0.0815983
-0.0692991
-0.0561526
-0.0422254
-0.0275797
-0.0122797
0.0036016
0.0199766
0.0367364
0.0537446
0.0708313
0.0877879
0.104363
0.120258
0.135128
0.148586
0.160205
0.169532
0.176105
0.179475
0.179218
0.174982
0.166663
0.154239
0.135692
0.109631
-0.0961762
-0.120264
-0.137124
-0.148246
-0.155753
-0.159868
-0.16083
-0.159038
-0.154875
-0.148682
-0.140757
-0.131346
-0.120654
-0.108837
-0.0960168
-0.0822847
-0.0677088
-0.0523423
-0.0362314
-0.0194219
-0.00196751
0.0160634
0.0345799
0.0534611
0.0725486
0.0916392
0.110478
0.128755
0.146097
0.162075
0.176204
0.187953
0.196766
0.202084
0.203368
0.200146
0.192225
0.17951
0.159724
0.13134
-0.124426
-0.150369
-0.168171
-0.179449
-0.186564
-0.189828
-0.189578
-0.186315
-0.180518
-0.172602
-0.162921
-0.151766
-0.139362
-0.125881
-0.111444
-0.0961357
-0.080011
-0.0631048
-0.0454414
-0.0270426
-0.0079366
0.0118341
0.0322036
0.0530741
0.0743061
0.0957098
0.117035
0.137965
0.158105
0.176986
0.19406
0.208711
0.220275
0.228059
0.231374
0.229593
0.222394
0.209571
0.188534
0.15759
-0.157196
-0.185258
-0.204037
-0.215303
-0.221724
-0.223747
-0.221841
-0.21665
-0.208772
-0.198719
-0.186914
-0.173692
-0.159305
-0.143933
-0.127697
-0.110666
-0.0928778
-0.0743415
-0.0550531
-0.0350035
-0.0141881
0.00738379
0.0296797
0.0526333
0.0761339
0.100015
0.124041
0.147897
0.171178
0.193378
0.213888
0.232001
0.246925
0.257811
0.263778
0.263996
0.257958
0.245296
0.22302
0.189237
-0.195211
-0.225739
-0.245515
-0.256514
-0.261811
-0.262051
-0.257897
-0.250182
-0.239661
-0.226962
-0.212589
-0.196925
-0.180248
-0.16274
-0.144513
-0.125617
-0.10606
-0.0858185
-0.0648533
-0.0431157
-0.0205607
0.00284465
0.0271098
0.0522104
0.0780754
0.104573
0.131498
0.15855
0.185324
0.21129
0.235783
0.258003
0.277017
0.291787
0.301199
0.304151
0.299879
0.287767
0.264307
0.227348
-0.239415
-0.272866
-0.293627
-0.30396
-0.307508
-0.305213
-0.298016
-0.287003
-0.27313
-0.257163
-0.239696
-0.221162
-0.201854
-0.181952
-0.161543
-0.140646
-0.119232
-0.0972357
-0.0745699
-0.0511391
-0.0268487
-0.00161494
0.0246239
0.0518963
0.0801835
0.109404
0.139397
0.169898
0.200518
0.230721
0.259802
0.286868
0.310841
0.330465
0.344335
0.350998
0.34933
0.338342
0.313825
0.273276
-0.291077
-0.32805
-0.349707
-0.358744
-0.359625
-0.353745
-0.342435
-0.327122
-0.309009
-0.289024
-0.267854
-0.24597
-0.223668
-0.201107
-0.178335
-0.155326
-0.131997
-0.108227
-0.0838747
-0.058786
-0.0328078
-0.00579606
0.0223734
0.0517935
0.0825119
0.114514
0.147704
0.181874
0.216681
0.251608
0.285931
0.318687
0.348649
0.374324
0.393957
0.405642
0.407752
0.398745
0.373427
0.328775
-0.351956
-0.393223
-0.415525
-0.422258
-0.419113
-0.40817
-0.391314
-0.370412
-0.346965
-0.322076
-0.29651
-0.270758
-0.245093
-0.219623
-0.194338
-0.169142
-0.143882
-0.118369
-0.0923926
-0.0657321
-0.0381662
-0.00948155
0.0205184
0.0520028
0.0851004
0.119882
0.156339
0.194351
0.233652
0.273785
0.314048
0.353438
0.390605
0.423806
0.450885
0.469363
0.476923
0.471199
0.445565
0.396178
-0.424572
-0.471105
-0.493465
-0.496257
-0.487055
-0.468975
-0.44466
-0.416533
-0.386429
-0.355614
-0.3249
-0.294753
-0.265378
-0.236796
-0.208901
-0.181502
-0.154358
-0.127194
-0.0997194
-0.0716351
-0.0426441
-0.0124556
0.019208
0.0526031
0.0879536
0.125435
0.165151
0.207104
0.251149
0.296939
0.343854
0.390916
0.436698
0.479236
0.515933
0.543611
0.559029
0.558606
0.533568
0.478695
-0.512692
-0.565609
-0.586762
-0.582931
-0.564625
-0.536499
-0.502202
-0.464813
-0.426501
-0.388637
-0.352008
-0.316976
-0.283613
-0.251797
-0.221285
-0.191759
-0.162863
-0.134221
-0.105449
-0.0761619
-0.0459808
-0.014531
0.0185531
0.0536237
0.0910127
0.131019
0.173887
0.219776
0.268717
0.320542
0.374797
0.430625
0.486627
0.54069
0.589792
0.629954
0.656735
0.664791
0.642073
0.580923
-0.622185
-0.682507
-0.69982
-0.684929
-0.652953
-0.61074
-0.563195
-0.514086
-0.465826
-0.419762
-0.376513
-0.336221
-0.298729
-0.263698
-0.230695
-0.199238
-0.168833
-0.138985
-0.109208
-0.0790249
-0.0479701
-0.0155828
0.0185934
0.0550122
0.0941227
0.136362
0.182143
0.231823
0.285666
0.343766
0.405953
0.471635
0.539608
0.60778
0.672824
0.729932
0.773204
0.794823
0.777713
0.709777
-0.762669
-0.830474
-0.838577
-0.805285
-0.752828
-0.691013
-0.626118
-0.562463
-0.502454
-0.447146
-0.396767
-0.351066
-0.309526
-0.271505
-0.23632
-0.203288
-0.171753
-0.141089
-0.110702
-0.0800222
-0.0484981
-0.0155849
0.0192633
0.0566013
0.0969996
0.141045
0.189338
0.242473
0.301007
0.365399
0.4359
0.512388
0.594114
0.679322
0.764681
0.844734
0.911997
0.955378
0.950205
0.876243
-0.950832
-1.02278
-1.01077
-0.946973
-0.864062
-0.775346
-0.688216
-0.607034
-0.533661
-0.46841
-0.410782
-0.359896
-0.314724
-0.274221
-0.237398
-0.203338
-0.171209
-0.14025
-0.109759
-0.07908
-0.0475814
-0.0146434
0.0203609
0.0580809
0.099204
0.144469
0.194674
0.25068
0.313398
0.383745
0.462564
0.550455
0.647506
0.752806
0.863639
0.974491
1.07658
1.15498
1.17409
1.09894
-1.21718
-1.27972
-1.22551
-1.11154
-0.984073
-0.859371
-0.744753
-0.643426
-0.555738
-0.480566
-0.416235
-0.360955
-0.313024
-0.27091
-0.233275
-0.198956
-0.166942
-0.136345
-0.10637
-0.0762836
-0.0453941
-0.0130208
0.021528
0.0589802
0.100125
0.145842
0.197124
0.255108
0.321092
0.39654
0.483048
0.582235
0.695508
0.823558
0.965371
1.11672
1.26884
1.40348
1.47115
1.41123
-1.61772
-1.63096
-1.49153
-1.29672
-1.10589
-0.935005
-0.788311
-0.665544
-0.563981
-0.480138
-0.410638
-0.352513
-0.303265
-0.26083
-0.223516
-0.18993
-0.158907
-0.129456
-0.100713
-0.0718973
-0.0422761
-0.0111333
0.0222627
0.0586923
0.0990194
0.144233
0.195495
0.254197
0.322022
0.401018
0.493656
0.602847
0.731861
0.883979
1.06156
1.26423
1.48651
1.71008
1.8724
1.87275
-2.25447
-2.11587
-1.81359
-1.49442
-1.21742
-0.990513
-0.809414
-0.666451
-0.553622
-0.46401
-0.392064
-0.333468
-0.2849
-0.243802
-0.208187
-0.176484
-0.147429
-0.119974
-0.0932248
-0.0663855
-0.0387168
-0.00949749
0.0220121
0.0566091
0.0951914
0.138811
0.18874
0.246563
0.314287
0.3945
0.490565
0.606856
0.74899
0.923946
1.13978
1.40421
1.72094
2.07939
2.41785
2.58911
-3.35592
-2.78318
-2.1727
-1.67585
-1.29258
-1.00573
-0.794145
-0.63727
-0.519326
-0.42917
-0.358969
-0.303179
-0.257835
-0.220057
-0.187701
-0.159136
-0.13308
-0.108495
-0.0845085
-0.0603524
-0.0353184
-0.00871672
0.020162
0.052088
0.0879395
0.128763
0.175855
0.230872
0.295995
0.374169
0.469453
0.587548
0.73653
0.927896
1.17797
1.50834
1.94099
2.49108
3.15796
3.79444
-5.52067
-3.66081
-2.43095
-1.71417
-1.24179
-0.921811
-0.704864
-0.553965
-0.445488
-0.365205
-0.304183
-0.256567
-0.2184
-0.186918
-0.160127
-0.136535
-0.114989
-0.0945604
-0.0744756
-0.0540562
-0.0326773
-0.00973103
0.0154088
0.0434238
0.075095
0.11136
0.153391
0.202711
0.261363
0.33219
0.419272
0.528673
0.669678
0.857073
1.11541
1.48391
2.01598
2.8054
4.12342
6.0914
-9.20662
-4.51956
-2.30622
-1.42119
-0.958939
-0.682903
-0.512248
-0.400576
-0.322909
-0.266409
-0.223886
-0.190908
-0.164567
-0.142852
-0.124309
-0.107838
-0.0925808
-0.0778384
-0.0630207
-0.0476064
-0.0311126
-0.0130683
0.00701163
0.0296528
0.0554539
0.0851279
0.119559
0.159885
0.207626
0.264893
0.334747
0.421852
0.533755
0.683744
0.897448
1.22411
1.75391
2.73326
5.06142
9.86893
)
;

boundaryField
{
    movingWall
    {
        type            zeroGradient;
    }
    fixedWalls
    {
        type            zeroGradient;
    }
    frontAndBack
    {
        type            empty;
    }
}


// ************************************************************************* //
