/*--------------------------------*- C++ -*----------------------------------*\
  =========                 |
  \\      /  F ield         | OpenFOAM: The Open Source CFD Toolbox
   \\    /   O peration     | Website:  https://openfoam.org
    \\  /    A nd           | Version:  7
     \\/     M anipulation  |
\*---------------------------------------------------------------------------*/
FoamFile
{
    version     2.0;
    format      ascii;
    class       volScalarField;
    location    "4";
    object      p;
}
// * * * * * * * * * * * * * * * * * * * * * * * * * * * * * * * * * * * * * //

dimensions      [1 -1 -2 0 0 0 0];

internalField   nonuniform List<scalar> 
2413
(
1.1213
1.13195
1.14264
1.15342
1.16429
1.17521
1.1862
1.19728
1.20852
1.22001
1.23184
1.2441
1.25683
1.27002
1.2836
1.29752
1.31173
1.32623
1.34101
1.35603
1.37123
1.38654
1.40189
1.41726
1.43265
1.4481
1.46363
1.47938
1.4954
1.51169
1.52824
1.54487
1.5615
1.578
1.59437
1.61062
1.62681
1.64293
1.65905
1.67514
1.69127
1.70753
1.72407
1.74102
1.75855
1.7768
1.79597
1.81614
1.83723
1.8591
1.88141
1.90366
1.92539
1.9464
1.96632
1.98495
2.00206
2.01741
2.03097
2.04268
2.05251
2.06076
2.06749
2.07226
2.07488
2.07527
2.07357
2.06998
2.06429
2.05631
2.04637
2.03525
2.02438
2.01517
2.00875
2.00615
2.00756
2.01308
2.02271
2.03554
2.05011
2.06356
2.07595
2.08893
2.10251
2.11539
2.12672
2.13858
1.12512
1.13564
1.14618
1.15678
1.16747
1.17825
1.18914
1.20014
1.21129
1.22267
1.23434
1.24638
1.25882
1.27167
1.28488
1.29842
1.31225
1.32637
1.34078
1.35541
1.37019
1.38509
1.40008
1.41514
1.43028
1.44552
1.46092
1.47661
1.49267
1.50906
1.52573
1.5425
1.5593
1.57601
1.59258
1.60903
1.62539
1.64171
1.65807
1.67449
1.69099
1.70758
1.72439
1.74152
1.75914
1.77731
1.79611
1.81547
1.8352
1.85496
1.87449
1.89348
1.91162
1.92866
1.94497
1.9603
1.9744
1.98723
1.99887
2.00939
2.01896
2.02749
2.03477
2.04029
2.04423
2.04676
2.04806
2.04831
2.04783
2.04692
2.04574
2.04439
2.04347
2.04327
2.04371
2.04463
2.04595
2.04751
2.04928
2.05142
2.05443
2.05888
2.06449
2.07203
2.08149
2.09304
2.10733
2.12542
1.13118
1.14166
1.15209
1.16251
1.17298
1.18356
1.1943
1.20521
1.2163
1.22759
1.23911
1.25092
1.26303
1.27546
1.28818
1.30117
1.31443
1.32799
1.34188
1.35603
1.37036
1.38485
1.39945
1.41417
1.42899
1.44396
1.45913
1.47457
1.4904
1.50659
1.52309
1.53972
1.55642
1.57311
1.58976
1.60634
1.62287
1.63937
1.65592
1.67262
1.68957
1.70668
1.72388
1.74116
1.75856
1.7761
1.79374
1.81134
1.82858
1.84528
1.86135
1.87705
1.89263
1.908
1.92244
1.93574
1.94787
1.95885
1.96866
1.97725
1.98459
1.9906
1.99547
2.00008
2.00459
2.00912
2.01383
2.01893
2.0249
2.03208
2.0404
2.04943
2.05896
2.06822
2.07641
2.08271
2.08646
2.08764
2.08646
2.08345
2.08002
2.07853
2.08049
2.08536
2.09373
2.10607
2.12251
2.13993
1.1415
1.15209
1.16259
1.173
1.18333
1.1937
1.2042
1.2149
1.22578
1.23686
1.24813
1.25962
1.27133
1.28324
1.29537
1.30771
1.32026
1.33307
1.34617
1.35959
1.37328
1.3872
1.40131
1.41563
1.43017
1.44495
1.45999
1.47521
1.49066
1.50639
1.52245
1.53867
1.55496
1.57129
1.58763
1.60399
1.62036
1.63674
1.65312
1.66953
1.68612
1.70302
1.72001
1.73685
1.75328
1.76901
1.78377
1.79773
1.81128
1.82452
1.83749
1.85024
1.8625
1.87405
1.88467
1.89432
1.9031
1.9112
1.91875
1.92586
1.93266
1.93942
1.94669
1.95475
1.96375
1.97408
1.98578
1.99849
2.01191
2.02614
2.04141
2.05762
2.07345
2.08779
2.09978
2.10877
2.11397
2.1157
2.11464
2.11111
2.10623
2.10231
2.1012
2.10182
2.10554
2.11392
2.12717
2.13967
1.15564
1.16657
1.17738
1.18806
1.19855
1.20892
1.2193
1.22979
1.24044
1.25126
1.26226
1.27343
1.28474
1.29619
1.30782
1.31967
1.33175
1.34403
1.35654
1.36933
1.38238
1.39565
1.40911
1.42282
1.43681
1.45113
1.46583
1.4808
1.49598
1.51123
1.52658
1.54208
1.55761
1.57312
1.58858
1.60399
1.61942
1.6349
1.6504
1.66581
1.68066
1.69484
1.70891
1.72292
1.73679
1.75049
1.76396
1.77661
1.78824
1.79892
1.80863
1.81728
1.8249
1.83169
1.83799
1.84417
1.85059
1.85763
1.86567
1.87487
1.8853
1.89692
1.90992
1.92431
1.94014
1.95657
1.97335
1.99056
2.00823
2.02675
2.04581
2.0643
2.08118
2.09566
2.10702
2.11516
2.11975
2.12186
2.12328
2.12476
2.12665
2.12895
2.13413
2.14025
2.14591
2.15023
2.15077
2.14788
1.17324
1.18479
1.19617
1.20739
1.21834
1.22902
1.23953
1.25
1.26052
1.27116
1.28191
1.29277
1.30372
1.31474
1.3259
1.33727
1.34894
1.3609
1.37311
1.38558
1.39833
1.41131
1.42447
1.43782
1.45141
1.4653
1.47964
1.49436
1.50894
1.52315
1.53709
1.55085
1.56437
1.57758
1.59046
1.60305
1.61544
1.62774
1.64001
1.65239
1.66521
1.67834
1.69118
1.70373
1.71589
1.72734
1.73775
1.74702
1.75506
1.76193
1.76777
1.77285
1.77761
1.78271
1.78876
1.79616
1.80503
1.81534
1.82724
1.84086
1.85616
1.87272
1.89009
1.90788
1.92579
1.94388
1.96231
1.98129
2.00106
2.02105
2.04019
2.05758
2.07236
2.08416
2.09284
2.09855
2.1025
2.10686
2.1134
2.12352
2.1377
2.1543
2.16983
2.18186
2.18868
2.1886
2.18259
2.17074
1.19281
1.20502
1.21696
1.22867
1.24017
1.25144
1.26252
1.2735
1.28447
1.29545
1.30645
1.31745
1.32843
1.33943
1.35049
1.36172
1.37316
1.38475
1.39644
1.40823
1.42022
1.43239
1.44474
1.45727
1.46996
1.4827
1.49551
1.50835
1.52124
1.53426
1.54704
1.55945
1.57145
1.58304
1.59409
1.60466
1.61484
1.62482
1.63466
1.64453
1.65433
1.66395
1.6733
1.68222
1.69053
1.69809
1.70485
1.71085
1.71623
1.72131
1.72646
1.73214
1.73867
1.74641
1.75559
1.76653
1.77938
1.79379
1.80932
1.8257
1.84298
1.86103
1.87939
1.89761
1.91568
1.93385
1.9523
1.97111
1.99002
2.00758
2.02278
2.03532
2.04517
2.05236
2.05774
2.0632
2.0708
2.08191
2.09843
2.12072
2.14643
2.1704
2.18775
2.19843
2.203
2.2029
2.19818
2.18926
1.21156
1.22456
1.23712
1.24931
1.26133
1.27321
1.28492
1.29659
1.30831
1.32008
1.33184
1.34352
1.35512
1.36668
1.37821
1.38973
1.40118
1.41257
1.42395
1.4354
1.44707
1.45902
1.47127
1.48377
1.49641
1.50885
1.52092
1.53261
1.5439
1.55482
1.56512
1.57482
1.58395
1.5926
1.60081
1.60864
1.61608
1.62319
1.63
1.63644
1.64253
1.64843
1.65409
1.65934
1.66424
1.66899
1.67385
1.6791
1.685
1.69184
1.69976
1.70892
1.71927
1.73079
1.74346
1.75712
1.77172
1.78736
1.80398
1.82127
1.83857
1.85576
1.87313
1.89069
1.90813
1.92529
1.94217
1.95842
1.97311
1.98513
1.99405
2.00024
2.00455
2.00809
2.01316
2.02172
2.03661
2.05987
2.0902
2.12209
2.15009
2.17168
2.18702
2.19685
2.2021
2.20512
2.20441
2.19985
1.22482
1.23837
1.25147
1.26414
1.2766
1.28893
1.30115
1.31338
1.32575
1.33824
1.35075
1.36321
1.37564
1.38804
1.40029
1.41227
1.4239
1.4352
1.44625
1.45712
1.46791
1.47873
1.48967
1.50071
1.51182
1.52318
1.53441
1.5453
1.55572
1.5655
1.57448
1.58266
1.59
1.59661
1.60257
1.60804
1.61307
1.61794
1.62291
1.62794
1.63294
1.63783
1.64267
1.64758
1.65269
1.65817
1.66422
1.67106
1.67878
1.68746
1.69706
1.70766
1.71928
1.73197
1.74565
1.76009
1.77506
1.79055
1.80649
1.82253
1.83835
1.85378
1.86879
1.88364
1.89842
1.91272
1.92572
1.93647
1.94411
1.94859
1.9506
1.95172
1.95351
1.95797
1.96833
1.98771
2.01767
2.05574
2.09286
2.12398
2.14756
2.16583
2.18043
2.19204
2.19972
2.20429
2.20455
2.20134
1.23056
1.24438
1.25802
1.27146
1.28463
1.29765
1.31059
1.3234
1.33618
1.34898
1.36174
1.37433
1.38659
1.39844
1.40992
1.4211
1.43205
1.44287
1.45355
1.464
1.47414
1.48398
1.49363
1.50318
1.51259
1.52201
1.53123
1.54009
1.5485
1.55648
1.56402
1.57115
1.57784
1.58417
1.59028
1.59635
1.60255
1.60903
1.61582
1.62297
1.63046
1.63797
1.64552
1.65319
1.66102
1.66905
1.67732
1.68598
1.69507
1.70468
1.71477
1.72534
1.73647
1.7483
1.76076
1.77377
1.78717
1.80055
1.81343
1.82614
1.83871
1.85078
1.86215
1.87283
1.88274
1.89134
1.89777
1.90147
1.90259
1.90223
1.90185
1.90367
1.90953
1.92352
1.94807
1.9845
2.02676
2.06699
2.10011
2.12479
2.14429
2.16084
2.17347
2.18193
2.18747
2.19068
2.19167
2.19105
1.2309
1.24445
1.25803
1.27152
1.28471
1.29775
1.3107
1.32338
1.33581
1.34799
1.35998
1.37165
1.38287
1.3936
1.40391
1.41388
1.42354
1.43299
1.44232
1.45135
1.46
1.46837
1.4766
1.48483
1.493
1.50093
1.50849
1.51578
1.52287
1.52988
1.53692
1.54412
1.55156
1.55939
1.56783
1.57706
1.58709
1.59762
1.60833
1.61909
1.62994
1.64103
1.65229
1.66355
1.67469
1.68566
1.6964
1.70697
1.71741
1.72789
1.73849
1.74923
1.75985
1.77019
1.78028
1.79015
1.79974
1.80901
1.81802
1.82648
1.83443
1.84168
1.84808
1.85336
1.85727
1.85967
1.8607
1.8608
1.86089
1.86217
1.86667
1.87716
1.89684
1.92725
1.96795
2.01302
2.05355
2.08422
2.10682
2.12403
2.13797
2.14737
2.15383
2.15885
2.16301
2.16701
2.17127
2.17627
1.22173
1.23403
1.24639
1.25875
1.27113
1.28351
1.2959
1.30815
1.32013
1.33177
1.34305
1.35395
1.36434
1.37412
1.38334
1.39214
1.40063
1.40875
1.4164
1.42369
1.43071
1.43764
1.44452
1.45139
1.45804
1.46456
1.47115
1.47793
1.48507
1.49275
1.50114
1.5104
1.5207
1.5321
1.54455
1.55802
1.5724
1.58749
1.60305
1.61872
1.63413
1.64915
1.66343
1.67688
1.68954
1.70163
1.71326
1.72445
1.7352
1.74554
1.75555
1.76533
1.77493
1.78407
1.79236
1.79963
1.80576
1.81077
1.81488
1.81809
1.82072
1.8235
1.82655
1.82944
1.83169
1.83334
1.8351
1.83784
1.84263
1.85138
1.8666
1.88995
1.92621
1.97279
2.01957
2.05683
2.08283
2.09888
2.10942
2.11845
2.12372
2.12742
2.13122
2.13547
2.1407
2.14761
2.1559
2.16611
1.20953
1.22015
1.23102
1.24211
1.2535
1.26497
1.27634
1.28744
1.29808
1.30816
1.31767
1.32665
1.33516
1.34321
1.35084
1.35805
1.36478
1.37109
1.37709
1.38301
1.38906
1.39545
1.40228
1.40962
1.41749
1.42586
1.43487
1.44458
1.45509
1.46654
1.47902
1.49256
1.50701
1.52218
1.53787
1.55388
1.57018
1.58688
1.60381
1.62061
1.6367
1.65185
1.66616
1.67973
1.69275
1.70516
1.71696
1.72813
1.73873
1.74867
1.75793
1.76652
1.77441
1.7814
1.78718
1.7917
1.79503
1.79741
1.79908
1.80089
1.80344
1.80691
1.811
1.81534
1.81973
1.82447
1.83014
1.83801
1.85054
1.87073
1.90165
1.94556
1.99488
2.03922
2.07309
2.09466
2.10509
2.10973
2.11141
2.11085
2.11131
2.11243
2.11482
2.11904
2.12563
2.13502
2.14853
2.16779
1.19381
1.20218
1.21101
1.22022
1.22973
1.23928
1.24872
1.258
1.26695
1.27537
1.28319
1.29044
1.2973
1.30392
1.31043
1.31693
1.32344
1.33007
1.3369
1.34409
1.35168
1.35964
1.36784
1.37625
1.38505
1.39449
1.40467
1.41566
1.42756
1.44049
1.45456
1.46976
1.48599
1.50313
1.52094
1.53924
1.55776
1.57611
1.59388
1.61084
1.62685
1.64189
1.6561
1.66957
1.68194
1.69331
1.70403
1.7141
1.72358
1.73236
1.74041
1.74768
1.75402
1.75949
1.76425
1.76848
1.77254
1.77685
1.78192
1.78801
1.79478
1.80139
1.80749
1.81329
1.81941
1.8269
1.83739
1.85363
1.87848
1.9154
1.96437
2.01652
2.06079
2.0923
2.11054
2.11783
2.1199
2.1186
2.11481
2.1101
2.10578
2.10383
2.10515
2.11024
2.11976
2.13484
2.15574
2.18195
1.17433
1.18087
1.18788
1.19528
1.20285
1.21041
1.21793
1.22541
1.23273
1.23974
1.24638
1.25267
1.25887
1.26518
1.27176
1.27862
1.28574
1.29312
1.30081
1.30899
1.31778
1.32719
1.33711
1.34747
1.35826
1.36953
1.3814
1.39401
1.4075
1.42182
1.43682
1.45236
1.46843
1.48515
1.50252
1.52017
1.53772
1.55484
1.5713
1.58709
1.60231
1.61664
1.62975
1.64168
1.65321
1.66405
1.67416
1.68362
1.69253
1.70088
1.70861
1.7157
1.72238
1.72903
1.73601
1.74359
1.75207
1.76157
1.77192
1.78243
1.7924
1.80147
1.80983
1.81815
1.82758
1.84008
1.85861
1.88632
1.92728
1.97903
2.03094
2.07336
2.10297
2.11937
2.12632
2.12863
2.12772
2.12433
2.11954
2.11438
2.11011
2.10803
2.10991
2.11754
2.13173
2.15215
2.17721
2.20287
1.15285
1.15847
1.16447
1.17073
1.177
1.1833
1.18964
1.196
1.20237
1.20868
1.21497
1.22125
1.22772
1.23452
1.24172
1.24937
1.25743
1.26596
1.27502
1.28473
1.29509
1.30609
1.31757
1.32942
1.34154
1.35389
1.36657
1.37967
1.39325
1.40732
1.42166
1.43617
1.4509
1.46583
1.48114
1.49648
1.51148
1.52592
1.53961
1.55226
1.56405
1.57547
1.58665
1.59748
1.60767
1.61745
1.62699
1.63653
1.64631
1.65641
1.66693
1.67791
1.68923
1.70094
1.7132
1.72611
1.73971
1.75377
1.76784
1.78134
1.79392
1.8056
1.81664
1.82815
1.84251
1.86263
1.89227
1.9356
1.98797
2.03815
2.0778
2.10453
2.11892
2.12574
2.12902
2.12971
2.1284
2.12635
2.12432
2.12303
2.12344
2.12692
2.13527
2.14918
2.16769
2.18801
2.20669
2.22208
1.13034
1.13595
1.14184
1.14788
1.15387
1.15994
1.16611
1.17233
1.17863
1.18505
1.19165
1.19835
1.20535
1.21273
1.2206
1.22902
1.23805
1.24774
1.25809
1.26908
1.28055
1.2924
1.30453
1.31684
1.32937
1.34207
1.35483
1.36754
1.38009
1.39264
1.40536
1.41808
1.43084
1.44328
1.45451
1.46528
1.47576
1.48591
1.49584
1.50581
1.51552
1.52483
1.53406
1.54356
1.55371
1.56483
1.57735
1.59088
1.60534
1.62066
1.6366
1.65288
1.66929
1.68576
1.70229
1.71893
1.73567
1.75223
1.76827
1.78333
1.79722
1.81022
1.82383
1.84031
1.86234
1.89404
1.93925
1.99164
2.03981
2.07672
2.10066
2.11276
2.11858
2.12182
2.12339
2.12384
2.1242
2.12576
2.1295
2.13612
2.14633
2.16076
2.17883
2.19825
2.21574
2.22836
2.23532
2.23816
1.10962
1.11601
1.12264
1.12937
1.13604
1.14271
1.1494
1.15607
1.1628
1.16964
1.17667
1.18399
1.19177
1.20003
1.20875
1.21789
1.22752
1.23775
1.24858
1.25992
1.27162
1.28347
1.29535
1.30711
1.31876
1.33049
1.34223
1.35367
1.36452
1.37419
1.38314
1.39207
1.40101
1.40999
1.41942
1.42842
1.43689
1.44488
1.45244
1.45979
1.46746
1.47586
1.48525
1.4958
1.50778
1.52117
1.53555
1.55129
1.56831
1.58642
1.6054
1.62517
1.6456
1.66648
1.68751
1.7084
1.72869
1.74784
1.76543
1.78132
1.79619
1.81164
1.83006
1.85396
1.88783
1.93499
1.98814
2.03563
2.07131
2.094
2.10437
2.10869
2.11134
2.11258
2.11308
2.11458
2.11837
2.12569
2.1375
2.15419
2.17537
2.19944
2.22318
2.2424
2.25421
2.25825
2.25665
2.25117
1.09314
1.10078
1.10862
1.11634
1.12393
1.13158
1.13927
1.14699
1.15482
1.16275
1.17065
1.17858
1.18669
1.19515
1.20405
1.21335
1.22299
1.23285
1.24298
1.2534
1.26418
1.27511
1.28584
1.29613
1.30575
1.3142
1.32214
1.32994
1.33767
1.34579
1.35404
1.36202
1.36978
1.37732
1.38444
1.39136
1.39824
1.40523
1.41245
1.42008
1.42864
1.43844
1.44969
1.46245
1.47634
1.49137
1.50778
1.52526
1.54367
1.56281
1.58259
1.60301
1.62405
1.64574
1.66802
1.69058
1.71274
1.73366
1.7528
1.77065
1.7888
1.80935
1.83514
1.87073
1.9194
1.97386
2.02241
2.05901
2.08301
2.09335
2.09758
2.10003
2.10037
2.10037
2.10153
2.10588
2.1155
2.13036
2.15049
2.17578
2.20391
2.23082
2.25247
2.26606
2.27212
2.27223
2.26736
2.25846
1.083
1.09185
1.10092
1.10994
1.11895
1.12802
1.13697
1.14578
1.15444
1.16299
1.1714
1.17971
1.1878
1.19575
1.20376
1.21212
1.22074
1.22959
1.23835
1.24675
1.2544
1.26131
1.26806
1.27462
1.28122
1.28823
1.29514
1.30183
1.30847
1.31506
1.32164
1.32837
1.33529
1.34249
1.34991
1.35746
1.3653
1.37367
1.38297
1.39347
1.40477
1.4169
1.42997
1.44406
1.45944
1.47594
1.49325
1.51113
1.52942
1.54803
1.56692
1.58619
1.60597
1.62647
1.64759
1.66895
1.69005
1.71055
1.7308
1.75186
1.77538
1.80368
1.84079
1.89067
1.94665
1.9973
2.0368
2.06395
2.07686
2.08281
2.08591
2.08731
2.08783
2.08901
2.09421
2.10474
2.12012
2.1411
2.16746
2.1965
2.22402
2.24642
2.26174
2.27003
2.27314
2.27212
2.26716
2.25877
1.08079
1.09076
1.10087
1.11103
1.12125
1.13138
1.14129
1.15108
1.16045
1.16919
1.17742
1.18549
1.19292
1.19946
1.20486
1.20957
1.21429
1.2192
1.22407
1.22885
1.23372
1.23876
1.24351
1.24815
1.25285
1.25768
1.26272
1.26803
1.27379
1.28018
1.28721
1.29485
1.30316
1.31233
1.32259
1.33369
1.34497
1.35636
1.36785
1.37974
1.39252
1.40623
1.42081
1.43626
1.45242
1.46918
1.48638
1.50389
1.52144
1.53881
1.55607
1.57361
1.59151
1.60988
1.62857
1.64723
1.66576
1.68473
1.70535
1.72921
1.7585
1.79675
1.84755
1.90562
1.95962
2.00322
2.03435
2.05269
2.06089
2.06545
2.06933
2.07248
2.07635
2.08378
2.0951
2.1107
2.13136
2.15688
2.18483
2.21083
2.23148
2.24564
2.25392
2.25872
2.2605
2.25966
2.2565
2.25092
1.08684
1.0978
1.10871
1.11964
1.13073
1.14149
1.15182
1.16166
1.17055
1.17772
1.18282
1.18675
1.19018
1.19348
1.19691
1.20008
1.20267
1.20482
1.2067
1.20836
1.20983
1.21127
1.21305
1.21534
1.21821
1.22181
1.22646
1.23224
1.23916
1.24757
1.25788
1.2693
1.28138
1.29391
1.30652
1.31936
1.33263
1.34623
1.35997
1.37394
1.38829
1.40311
1.41834
1.43403
1.45018
1.46668
1.48327
1.49968
1.51576
1.53176
1.54791
1.56407
1.58039
1.59681
1.61306
1.62906
1.64521
1.66267
1.68317
1.70895
1.74394
1.7925
1.85129
1.90942
1.95764
1.99403
2.01801
2.02903
2.0365
2.04377
2.05018
2.05729
2.06774
2.0815
2.09907
2.12061
2.14593
2.17277
2.19685
2.21474
2.22603
2.23292
2.23713
2.23944
2.24021
2.23984
2.23859
2.23645
1.0996
1.11162
1.12286
1.13365
1.14399
1.15329
1.16139
1.16747
1.17199
1.1761
1.18004
1.18303
1.18501
1.18616
1.18648
1.1861
1.18513
1.1838
1.18229
1.1808
1.17956
1.17895
1.17932
1.18102
1.1842
1.18896
1.19552
1.20407
1.21427
1.22542
1.23717
1.25001
1.26388
1.27838
1.29327
1.30833
1.32343
1.33855
1.35387
1.36927
1.38478
1.4005
1.41649
1.43258
1.44883
1.46503
1.48092
1.49632
1.51124
1.52593
1.54056
1.55526
1.57024
1.5853
1.60008
1.61467
1.62976
1.64668
1.66743
1.69595
1.73794
1.7929
1.85072
1.90191
1.94229
1.97013
1.98514
1.99548
2.00649
2.01781
2.02915
2.04241
2.059
2.07933
2.10337
2.13044
2.15807
2.18223
2.19904
2.20798
2.21275
2.21503
2.2162
2.21665
2.21685
2.21715
2.21768
2.21842
1.11475
1.12559
1.13476
1.14272
1.1493
1.15444
1.15859
1.16241
1.16557
1.16779
1.16913
1.16943
1.16877
1.16719
1.16483
1.16197
1.15888
1.1558
1.15298
1.15074
1.14954
1.14964
1.15134
1.15489
1.16022
1.16712
1.17531
1.18446
1.19486
1.20664
1.21973
1.23393
1.24901
1.26463
1.28055
1.29656
1.31259
1.32866
1.3449
1.36133
1.37799
1.39469
1.41137
1.42822
1.44508
1.4617
1.47792
1.49364
1.50894
1.52373
1.53794
1.55203
1.56583
1.57907
1.59172
1.60433
1.61832
1.63526
1.65774
1.69179
1.74083
1.79573
1.84606
1.8863
1.91515
1.93199
1.94372
1.95673
1.97159
1.98745
2.00527
2.02565
2.04903
2.07596
2.10558
2.13571
2.16236
2.18085
2.19022
2.19465
2.19601
2.19569
2.19462
2.19368
2.19364
2.1948
2.197
2.19972
1.12141
1.12816
1.13296
1.13638
1.13894
1.14101
1.14287
1.14387
1.14393
1.14311
1.14149
1.1393
1.13679
1.13426
1.13185
1.12967
1.12793
1.12678
1.12623
1.12641
1.12792
1.13091
1.13526
1.14073
1.1472
1.15458
1.16295
1.17255
1.18345
1.19548
1.20853
1.22242
1.23691
1.25179
1.26694
1.28237
1.29811
1.31422
1.33072
1.3477
1.36514
1.38285
1.4009
1.41914
1.43692
1.45407
1.47075
1.487
1.50287
1.51862
1.53436
1.54983
1.56444
1.57766
1.58968
1.60159
1.61486
1.6315
1.65677
1.69904
1.75137
1.80045
1.83994
1.86887
1.88548
1.89428
1.90432
1.91786
1.93454
1.95419
1.97767
2.00526
2.03606
2.06935
2.10288
2.13283
2.15492
2.16741
2.17371
2.17698
2.17767
2.17653
2.17501
2.17418
2.1747
2.17644
2.17916
2.18286
1.10888
1.11095
1.11092
1.11071
1.11014
1.10848
1.10603
1.10318
1.10022
1.09741
1.09498
1.09314
1.09237
1.09286
1.09474
1.09758
1.10106
1.10489
1.10903
1.11348
1.11821
1.12324
1.12885
1.1351
1.14209
1.14994
1.15874
1.16851
1.17918
1.19068
1.20283
1.21548
1.22842
1.24161
1.25511
1.26896
1.28329
1.29823
1.31395
1.33052
1.34787
1.36606
1.38502
1.40411
1.42296
1.44135
1.45917
1.47646
1.49334
1.50999
1.52661
1.54299
1.55868
1.57347
1.58759
1.60194
1.61794
1.63857
1.67388
1.72419
1.7735
1.81215
1.83889
1.85404
1.86035
1.86517
1.87218
1.88362
1.89977
1.92111
1.94818
1.98098
2.01812
2.05635
2.09146
2.11902
2.13645
2.14606
2.15206
2.15617
2.15805
2.15875
2.15941
2.16026
2.16136
2.16298
2.16569
2.17028
1.07329
1.07178
1.0686
1.06445
1.05957
1.05415
1.04893
1.04507
1.04338
1.04383
1.04653
1.05106
1.05692
1.06356
1.0706
1.07783
1.08513
1.09238
1.09968
1.10704
1.1141
1.12087
1.12765
1.13475
1.14249
1.15102
1.16011
1.16956
1.17943
1.18978
1.20047
1.21144
1.22264
1.23413
1.2459
1.25811
1.27096
1.28468
1.29942
1.31519
1.33192
1.34954
1.3677
1.38603
1.40458
1.42336
1.44209
1.46065
1.47916
1.49756
1.51564
1.53302
1.54925
1.56473
1.58066
1.59858
1.62077
1.65431
1.70614
1.76177
1.80497
1.8331
1.8479
1.84743
1.84305
1.8425
1.84763
1.85729
1.87195
1.89314
1.92135
1.95624
1.99547
2.0345
2.0682
2.09275
2.1083
2.11898
2.12719
2.13316
2.13807
2.14225
2.14609
2.14923
2.15174
2.15431
2.15788
2.16378
1.01862
1.01315
1.00683
1.00065
0.995322
0.991882
0.991123
0.992986
0.997156
1.00304
1.01012
1.01828
1.02735
1.03697
1.04693
1.05711
1.06739
1.07771
1.08806
1.09828
1.10815
1.11772
1.12674
1.13526
1.14372
1.15254
1.16163
1.17069
1.17978
1.18905
1.19846
1.20807
1.21792
1.22806
1.23857
1.2497
1.26166
)
;

boundaryField
{
    inlet
    {
        type            fixedValue;
        value           nonuniform 0();
    }
    outlet
    {
        type            zeroGradient;
    }
    bottom
    {
        type            symmetryPlane;
    }
    top
    {
        type            symmetryPlane;
    }
    obstacle
    {
        type            zeroGradient;
    }
    front
    {
        type            empty;
    }
    back
    {
        type            empty;
    }
    procBoundary4to3
    {
        type            processor;
        value           nonuniform List<scalar> 
27
(
1.11073
1.11462
1.12069
1.13085
1.14464
1.16153
1.18029
1.19818
1.21093
1.21654
1.21734
1.20959
1.19918
1.18575
1.1681
1.14754
1.125
1.10347
1.08574
1.07445
1.07106
1.07599
1.08783
1.10317
1.11263
1.10432
1.07326
)
;
    }
    procBoundary4to5
    {
        type            processor;
        value           nonuniform List<scalar> 
27
(
2.15361
2.14656
2.15697
2.14792
2.1435
2.15759
2.17803
2.19264
2.19672
2.18987
2.18139
2.18095
2.1919
2.21022
2.22543
2.23377
2.23835
2.24309
2.24694
2.24789
2.24348
2.23325
2.2187
2.20246
2.18767
2.1773
2.17293
)
;
    }
    procBoundary4to11
    {
        type            processor;
        value           uniform 1.02231;
    }
    procBoundary4to12
    {
        type            processor;
        value           nonuniform List<scalar> 
89
(
1.27459
1.28844
1.30333
1.31919
1.33585
1.353
1.37035
1.38782
1.40531
1.42292
1.44103
1.45996
1.47963
1.4994
1.51829
1.53594
1.55292
1.57133
1.59384
1.62585
1.67688
1.73939
1.79356
1.82978
1.85022
1.85306
1.84519
1.83587
1.82982
1.82998
1.83751
1.85206
1.87286
1.90103
1.93522
1.97175
2.00613
2.0342
2.05476
2.07105
2.08556
2.09817
2.1085
2.11739
2.12561
2.13287
2.13897
2.14419
2.1493
2.15544
2.16389
0.942212
0.938708
0.936821
0.937255
0.940309
0.945375
0.951861
0.959277
0.96749
0.976601
0.986528
0.997117
1.00806
1.01909
1.03018
1.04136
1.05258
1.06387
1.07521
1.08655
1.0979
1.10925
1.12045
1.13128
1.14155
1.15119
1.16048
1.16992
1.1797
1.18957
1.19909
1.20821
1.21705
1.22585
1.2349
1.24452
1.27459
1.25502
)
;
    }
}


// ************************************************************************* //
