/*--------------------------------*- C++ -*----------------------------------*\
  =========                 |
  \\      /  F ield         | OpenFOAM: The Open Source CFD Toolbox
   \\    /   O peration     | Website:  https://openfoam.org
    \\  /    A nd           | Version:  7
     \\/     M anipulation  |
\*---------------------------------------------------------------------------*/
FoamFile
{
    version     2.0;
    format      ascii;
    class       volVectorField;
    location    "4";
    object      U;
}
// * * * * * * * * * * * * * * * * * * * * * * * * * * * * * * * * * * * * * //

dimensions      [0 1 -1 0 0 0 0];

internalField   nonuniform List<vector> 
2413
(
(-0.794162 0.0107899 0)
(-0.785203 0.010778 0)
(-0.776098 0.0107948 0)
(-0.766861 0.010812 0)
(-0.75751 0.0108375 0)
(-0.748133 0.0109105 0)
(-0.738847 0.011033 0)
(-0.729744 0.0111789 0)
(-0.720848 0.0112936 0)
(-0.712103 0.0113255 0)
(-0.703409 0.0112541 0)
(-0.694669 0.0111031 0)
(-0.685873 0.0109447 0)
(-0.677119 0.0108363 0)
(-0.668555 0.0107876 0)
(-0.660287 0.0107566 0)
(-0.652299 0.0106897 0)
(-0.64448 0.0105659 0)
(-0.636679 0.0103949 0)
(-0.628802 0.0102178 0)
(-0.620841 0.0100409 0)
(-0.612794 0.00985293 0)
(-0.604668 0.00966255 0)
(-0.596471 0.00945447 0)
(-0.588206 0.00922072 0)
(-0.579868 0.00897671 0)
(-0.571469 0.0087347 0)
(-0.562983 0.00847277 0)
(-0.554369 0.00821339 0)
(-0.54565 0.00796759 0)
(-0.536828 0.00771295 0)
(-0.527973 0.0074996 0)
(-0.51913 0.0072839 0)
(-0.510294 0.00708513 0)
(-0.501432 0.00690337 0)
(-0.492494 0.00673542 0)
(-0.483415 0.00657326 0)
(-0.474171 0.00642586 0)
(-0.464748 0.00627803 0)
(-0.455175 0.00615389 0)
(-0.445495 0.00603232 0)
(-0.435767 0.0059139 0)
(-0.426053 0.00577181 0)
(-0.416434 0.00560674 0)
(-0.406978 0.00539711 0)
(-0.397727 0.00514548 0)
(-0.388675 0.00482708 0)
(-0.379786 0.00443441 0)
(-0.371023 0.00398679 0)
(-0.362322 0.00347445 0)
(-0.353625 0.00290046 0)
(-0.344904 0.00227921 0)
(-0.336125 0.00161309 0)
(-0.327211 0.000831198 0)
(-0.318069 -0.000117593 0)
(-0.308689 -0.00125637 0)
(-0.29913 -0.00255577 0)
(-0.289478 -0.00396663 0)
(-0.279789 -0.00544993 0)
(-0.270115 -0.00696555 0)
(-0.260479 -0.00838208 0)
(-0.250795 -0.00949487 0)
(-0.241265 -0.0103632 0)
(-0.232271 -0.0115103 0)
(-0.22379 -0.0127479 0)
(-0.215738 -0.0139056 0)
(-0.208164 -0.0148942 0)
(-0.200955 -0.0156828 0)
(-0.194148 -0.0161847 0)
(-0.187768 -0.0162874 0)
(-0.181805 -0.0159022 0)
(-0.176129 -0.0149417 0)
(-0.170513 -0.0135396 0)
(-0.164751 -0.0118159 0)
(-0.158626 -0.00992512 0)
(-0.152073 -0.00808074 0)
(-0.145061 -0.00643365 0)
(-0.137728 -0.00511117 0)
(-0.129636 -0.00423937 0)
(-0.120734 -0.00394496 0)
(-0.110944 -0.00420969 0)
(-0.100677 -0.0045703 0)
(-0.0898121 -0.00490162 0)
(-0.077977 -0.00467779 0)
(-0.0654161 -0.00513702 0)
(-0.0524341 -0.00664537 0)
(-0.0393041 -0.00936168 0)
(-0.0261055 -0.0116561 0)
(-0.790842 0.0293632 0)
(-0.781872 0.0294949 0)
(-0.772824 0.0297177 0)
(-0.763686 0.0299481 0)
(-0.75446 0.0301975 0)
(-0.745211 0.0305382 0)
(-0.736023 0.0309597 0)
(-0.726965 0.0314017 0)
(-0.718059 0.0317459 0)
(-0.709276 0.0318894 0)
(-0.700562 0.0318025 0)
(-0.691864 0.0315514 0)
(-0.68317 0.0313045 0)
(-0.674538 0.0311806 0)
(-0.666062 0.0311961 0)
(-0.657827 0.0312548 0)
(-0.649826 0.0312128 0)
(-0.64198 0.031009 0)
(-0.634179 0.0306719 0)
(-0.626349 0.0303482 0)
(-0.618478 0.0300675 0)
(-0.61055 0.0297589 0)
(-0.60255 0.0294236 0)
(-0.594492 0.0290313 0)
(-0.586396 0.0285544 0)
(-0.578253 0.0280116 0)
(-0.570051 0.0274367 0)
(-0.561755 0.0267661 0)
(-0.553304 0.0260377 0)
(-0.54472 0.0253067 0)
(-0.536018 0.0245043 0)
(-0.527228 0.0237709 0)
(-0.518392 0.0230058 0)
(-0.50951 0.0222779 0)
(-0.500574 0.0216058 0)
(-0.491565 0.0209984 0)
(-0.482445 0.0204291 0)
(-0.473197 0.0199079 0)
(-0.463808 0.01937 0)
(-0.454294 0.0188607 0)
(-0.4447 0.0183412 0)
(-0.435083 0.017842 0)
(-0.425493 0.0173081 0)
(-0.415974 0.0167262 0)
(-0.406557 0.0160382 0)
(-0.397272 0.0152682 0)
(-0.388134 0.0144234 0)
(-0.379146 0.0135912 0)
(-0.370327 0.0127744 0)
(-0.361692 0.0119579 0)
(-0.353174 0.0111042 0)
(-0.344702 0.0102693 0)
(-0.336169 0.00956674 0)
(-0.32747 0.00897682 0)
(-0.318546 0.00832918 0)
(-0.309408 0.00743999 0)
(-0.300159 0.00613973 0)
(-0.29087 0.00438515 0)
(-0.281603 0.00211478 0)
(-0.27243 -0.000751512 0)
(-0.263405 -0.00422609 0)
(-0.254636 -0.00831439 0)
(-0.246043 -0.0129775 0)
(-0.237564 -0.0179378 0)
(-0.229376 -0.0230073 0)
(-0.221457 -0.0279403 0)
(-0.213668 -0.0325672 0)
(-0.205999 -0.0367846 0)
(-0.198413 -0.0404744 0)
(-0.190936 -0.0434779 0)
(-0.18352 -0.0454571 0)
(-0.176163 -0.0462061 0)
(-0.168743 -0.0456541 0)
(-0.161189 -0.0438028 0)
(-0.153582 -0.0407694 0)
(-0.146003 -0.036798 0)
(-0.138398 -0.0322105 0)
(-0.130887 -0.02724 0)
(-0.123128 -0.0221019 0)
(-0.114991 -0.0169285 0)
(-0.106337 -0.0122405 0)
(-0.097032 -0.00905855 0)
(-0.0874297 -0.00597186 0)
(-0.0772355 -0.00383024 0)
(-0.0662692 -0.00324121 0)
(-0.0558625 -0.00516862 0)
(-0.0474247 -0.00967728 0)
(-0.0414521 -0.017562 0)
(-0.791661 0.0468703 0)
(-0.782704 0.0471024 0)
(-0.77374 0.0474603 0)
(-0.764752 0.047838 0)
(-0.755736 0.0482494 0)
(-0.746707 0.0487529 0)
(-0.737682 0.0493122 0)
(-0.728693 0.0498565 0)
(-0.719768 0.050248 0)
(-0.710924 0.0503653 0)
(-0.702165 0.050175 0)
(-0.693488 0.0497624 0)
(-0.684887 0.0493506 0)
(-0.676376 0.0491027 0)
(-0.667995 0.0490756 0)
(-0.659804 0.049173 0)
(-0.651809 0.0491808 0)
(-0.643957 0.0489754 0)
(-0.636173 0.0485534 0)
(-0.628394 0.0480706 0)
(-0.620598 0.0475863 0)
(-0.612762 0.0470365 0)
(-0.60485 0.0464829 0)
(-0.596865 0.0459203 0)
(-0.588824 0.0452925 0)
(-0.580718 0.0445979 0)
(-0.572526 0.043902 0)
(-0.564233 0.0431216 0)
(-0.555775 0.0422781 0)
(-0.547159 0.0414183 0)
(-0.538418 0.0403854 0)
(-0.529559 0.0394104 0)
(-0.520633 0.0383475 0)
(-0.511634 0.0372855 0)
(-0.50256 0.0362457 0)
(-0.493414 0.0352534 0)
(-0.484195 0.0342915 0)
(-0.474895 0.0333954 0)
(-0.465512 0.0324573 0)
(-0.456034 0.0314962 0)
(-0.446476 0.0304023 0)
(-0.436888 0.0292455 0)
(-0.427349 0.0279959 0)
(-0.417905 0.0266821 0)
(-0.408583 0.0252121 0)
(-0.399369 0.0236186 0)
(-0.39027 0.0218519 0)
(-0.38131 0.0199086 0)
(-0.372549 0.0178836 0)
(-0.364012 0.0158108 0)
(-0.35558 0.013825 0)
(-0.347234 0.011899 0)
(-0.338751 0.0101073 0)
(-0.33013 0.00841896 0)
(-0.321361 0.00670769 0)
(-0.312533 0.00472612 0)
(-0.303693 0.00231026 0)
(-0.294852 -0.000615408 0)
(-0.286028 -0.00412867 0)
(-0.277264 -0.00829342 0)
(-0.268618 -0.0131439 0)
(-0.260218 -0.0187318 0)
(-0.252021 -0.0248681 0)
(-0.243886 -0.0310804 0)
(-0.235782 -0.0372396 0)
(-0.22767 -0.0431201 0)
(-0.219524 -0.04847 0)
(-0.211294 -0.0530229 0)
(-0.202941 -0.0566839 0)
(-0.194413 -0.0595354 0)
(-0.185748 -0.061384 0)
(-0.177013 -0.0622987 0)
(-0.168267 -0.0621825 0)
(-0.159585 -0.0611223 0)
(-0.151013 -0.0591672 0)
(-0.142573 -0.0563171 0)
(-0.134286 -0.052544 0)
(-0.126135 -0.0479012 0)
(-0.117804 -0.0424408 0)
(-0.109659 -0.0362944 0)
(-0.101447 -0.0300307 0)
(-0.0927566 -0.02411 0)
(-0.0838049 -0.0195232 0)
(-0.07521 -0.0176049 0)
(-0.0676817 -0.0189904 0)
(-0.0612791 -0.0242838 0)
(-0.0556557 -0.0343431 0)
(-0.0511819 -0.049133 0)
(-0.791838 0.0610879 0)
(-0.782699 0.0613778 0)
(-0.773616 0.0618115 0)
(-0.764608 0.0622819 0)
(-0.755699 0.0628197 0)
(-0.74685 0.0634295 0)
(-0.737982 0.0640405 0)
(-0.729062 0.064591 0)
(-0.720109 0.0649652 0)
(-0.71118 0.0650494 0)
(-0.702336 0.0648104 0)
(-0.693621 0.0643286 0)
(-0.685046 0.0638269 0)
(-0.676584 0.0634711 0)
(-0.668209 0.0633686 0)
(-0.659941 0.0634855 0)
(-0.651822 0.0635948 0)
(-0.64385 0.0635148 0)
(-0.635999 0.0631842 0)
(-0.628211 0.0627396 0)
(-0.620444 0.0622803 0)
(-0.612681 0.0617135 0)
(-0.60488 0.0611033 0)
(-0.597005 0.0604836 0)
(-0.58906 0.059808 0)
(-0.581036 0.0590492 0)
(-0.572894 0.0583052 0)
(-0.56465 0.0575206 0)
(-0.556281 0.0566715 0)
(-0.547759 0.0558155 0)
(-0.539101 0.0546745 0)
(-0.530295 0.0535569 0)
(-0.521401 0.052325 0)
(-0.512416 0.0510755 0)
(-0.503342 0.0498231 0)
(-0.494184 0.0485893 0)
(-0.484957 0.0473056 0)
(-0.475663 0.0460359 0)
(-0.466348 0.0446808 0)
(-0.457022 0.0432839 0)
(-0.44769 0.0416433 0)
(-0.438315 0.0397013 0)
(-0.428962 0.0374572 0)
(-0.419677 0.0349921 0)
(-0.410543 0.0322659 0)
(-0.40157 0.0293482 0)
(-0.392786 0.0262778 0)
(-0.384099 0.0231419 0)
(-0.375373 0.0199901 0)
(-0.366553 0.016926 0)
(-0.357708 0.0141188 0)
(-0.348795 0.01149 0)
(-0.339939 0.00886237 0)
(-0.331236 0.00598008 0)
(-0.322818 0.00274554 0)
(-0.314679 -0.000885206 0)
(-0.306717 -0.00497069 0)
(-0.298794 -0.00953863 0)
(-0.290819 -0.0145934 0)
(-0.282777 -0.0200658 0)
(-0.274725 -0.025888 0)
(-0.26663 -0.0319 0)
(-0.258393 -0.0378566 0)
(-0.25001 -0.0435518 0)
(-0.241466 -0.0487916 0)
(-0.23265 -0.0534288 0)
(-0.223505 -0.0574447 0)
(-0.214191 -0.0608371 0)
(-0.204816 -0.0636618 0)
(-0.195397 -0.0658203 0)
(-0.18602 -0.067595 0)
(-0.176616 -0.0686865 0)
(-0.167356 -0.0691895 0)
(-0.158218 -0.0690974 0)
(-0.149069 -0.0683147 0)
(-0.139785 -0.0667275 0)
(-0.130398 -0.0641847 0)
(-0.121079 -0.0607785 0)
(-0.111579 -0.0567087 0)
(-0.102752 -0.0524196 0)
(-0.0948839 -0.0484553 0)
(-0.0880637 -0.0452403 0)
(-0.0820873 -0.0441306 0)
(-0.0774585 -0.0469386 0)
(-0.074256 -0.0540821 0)
(-0.0711625 -0.0651442 0)
(-0.069911 -0.0787028 0)
(-0.070325 -0.0930072 0)
(-0.79162 0.0716712 0)
(-0.782347 0.0718698 0)
(-0.773152 0.0722286 0)
(-0.764079 0.0726336 0)
(-0.755201 0.0731334 0)
(-0.74646 0.0736789 0)
(-0.737724 0.0741961 0)
(-0.728908 0.0746546 0)
(-0.720021 0.0749828 0)
(-0.711129 0.0750687 0)
(-0.702321 0.0748651 0)
(-0.693682 0.0744196 0)
(-0.685244 0.0739026 0)
(-0.676962 0.0734433 0)
(-0.668751 0.0731861 0)
(-0.66056 0.0731959 0)
(-0.652419 0.0732829 0)
(-0.644382 0.0732507 0)
(-0.63649 0.0729992 0)
(-0.628704 0.0726092 0)
(-0.620977 0.0722127 0)
(-0.6133 0.0717139 0)
(-0.605645 0.0711739 0)
(-0.59795 0.0706442 0)
(-0.590171 0.0700869 0)
(-0.582288 0.069406 0)
(-0.57425 0.0686798 0)
(-0.566109 0.0679577 0)
(-0.557888 0.0672134 0)
(-0.549546 0.0665978 0)
(-0.541069 0.0656481 0)
(-0.532391 0.0646352 0)
(-0.523588 0.0634428 0)
(-0.514681 0.062144 0)
(-0.505682 0.060718 0)
(-0.496591 0.059192 0)
(-0.487405 0.0574511 0)
(-0.47811 0.0555813 0)
(-0.468762 0.0534779 0)
(-0.45938 0.0512351 0)
(-0.45017 0.0487226 0)
(-0.441235 0.0459336 0)
(-0.432468 0.0426491 0)
(-0.42378 0.0389464 0)
(-0.415158 0.0348567 0)
(-0.40651 0.030567 0)
(-0.397788 0.0261833 0)
(-0.389012 0.0217684 0)
(-0.380134 0.0174494 0)
(-0.371195 0.0131831 0)
(-0.362232 0.00895495 0)
(-0.353397 0.00456187 0)
(-0.34475 1.27671e-05 0)
(-0.336382 -0.00478201 0)
(-0.328271 -0.00975609 0)
(-0.320362 -0.0148106 0)
(-0.31258 -0.0198573 0)
(-0.304819 -0.0248335 0)
(-0.296984 -0.0297124 0)
(-0.289005 -0.0343571 0)
(-0.280884 -0.0387312 0)
(-0.272587 -0.0427148 0)
(-0.264058 -0.0463075 0)
(-0.255186 -0.0495043 0)
(-0.246001 -0.0524818 0)
(-0.236503 -0.0553893 0)
(-0.226898 -0.0583418 0)
(-0.217243 -0.0612206 0)
(-0.207606 -0.0639592 0)
(-0.197802 -0.0661205 0)
(-0.188 -0.0676499 0)
(-0.178371 -0.0693235 0)
(-0.168613 -0.0710554 0)
(-0.158588 -0.0725048 0)
(-0.148331 -0.0734705 0)
(-0.137946 -0.0739711 0)
(-0.12776 -0.0739776 0)
(-0.117664 -0.0735972 0)
(-0.10812 -0.0731505 0)
(-0.0999302 -0.0731923 0)
(-0.0931057 -0.0753052 0)
(-0.0882708 -0.0805859 0)
(-0.0864154 -0.0884439 0)
(-0.0873908 -0.0990542 0)
(-0.0878528 -0.111427 0)
(-0.0892734 -0.123047 0)
(-0.089765 -0.132648 0)
(-0.0874901 -0.140589 0)
(-0.790932 0.0788971 0)
(-0.781633 0.078884 0)
(-0.77244 0.0790496 0)
(-0.763358 0.0792637 0)
(-0.754478 0.0795421 0)
(-0.745774 0.0797924 0)
(-0.737142 0.0799913 0)
(-0.72848 0.080177 0)
(-0.719771 0.080345 0)
(-0.711047 0.0803809 0)
(-0.702378 0.0802256 0)
(-0.693868 0.0798811 0)
(-0.685584 0.0794196 0)
(-0.677518 0.0788845 0)
(-0.669597 0.078397 0)
(-0.661707 0.078104 0)
(-0.653778 0.0779454 0)
(-0.645836 0.0778019 0)
(-0.637966 0.0775309 0)
(-0.63018 0.0771176 0)
(-0.622437 0.0767231 0)
(-0.614735 0.0762674 0)
(-0.607078 0.0757981 0)
(-0.599396 0.0753947 0)
(-0.591592 0.0750901 0)
(-0.583617 0.0747522 0)
(-0.575421 0.0743906 0)
(-0.567039 0.0739625 0)
(-0.558689 0.0730929 0)
(-0.550338 0.0722095 0)
(-0.541903 0.0710547 0)
(-0.533269 0.0699424 0)
(-0.524527 0.0686362 0)
(-0.515711 0.0671681 0)
(-0.50687 0.0654916 0)
(-0.498012 0.0635845 0)
(-0.489194 0.0613939 0)
(-0.480415 0.0589289 0)
(-0.471769 0.0560217 0)
(-0.463227 0.0527391 0)
(-0.454696 0.0491383 0)
(-0.446129 0.0451887 0)
(-0.437675 0.0408298 0)
(-0.429213 0.0361693 0)
(-0.420691 0.0311979 0)
(-0.412075 0.0259739 0)
(-0.403374 0.0205086 0)
(-0.394603 0.0148856 0)
(-0.385772 0.00916385 0)
(-0.376954 0.00329789 0)
(-0.36815 -0.00262493 0)
(-0.35949 -0.00864411 0)
(-0.350938 -0.0145315 0)
(-0.342525 -0.020189 0)
(-0.33419 -0.0254654 0)
(-0.32588 -0.0302561 0)
(-0.317594 -0.0345004 0)
(-0.309368 -0.0381412 0)
(-0.301179 -0.0412294 0)
(-0.292912 -0.0437127 0)
(-0.284486 -0.045788 0)
(-0.275814 -0.0474801 0)
(-0.266876 -0.0489873 0)
(-0.257611 -0.0503108 0)
(-0.248136 -0.0518459 0)
(-0.238609 -0.0536716 0)
(-0.229076 -0.0557982 0)
(-0.219559 -0.0582576 0)
(-0.209946 -0.0608979 0)
(-0.200323 -0.0639473 0)
(-0.190456 -0.0673505 0)
(-0.180259 -0.0704479 0)
(-0.169962 -0.073099 0)
(-0.159634 -0.0753628 0)
(-0.149317 -0.0772138 0)
(-0.139337 -0.0792302 0)
(-0.129721 -0.0817605 0)
(-0.120978 -0.0854141 0)
(-0.113676 -0.0911967 0)
(-0.1082 -0.100248 0)
(-0.104739 -0.112113 0)
(-0.103216 -0.126194 0)
(-0.103379 -0.142568 0)
(-0.10332 -0.158757 0)
(-0.102736 -0.171532 0)
(-0.100932 -0.179662 0)
(-0.0963613 -0.183815 0)
(-0.0898179 -0.184487 0)
(-0.790882 0.0831933 0)
(-0.781613 0.0828251 0)
(-0.772498 0.08261 0)
(-0.763484 0.0824465 0)
(-0.754581 0.0823468 0)
(-0.745786 0.0821759 0)
(-0.737081 0.0819565 0)
(-0.728422 0.0817587 0)
(-0.719797 0.0816157 0)
(-0.711209 0.0814131 0)
(-0.702691 0.0811247 0)
(-0.694321 0.0807588 0)
(-0.68615 0.0803231 0)
(-0.678156 0.0797989 0)
(-0.670273 0.0792387 0)
(-0.66238 0.078761 0)
(-0.654405 0.0783413 0)
(-0.646381 0.0779469 0)
(-0.638388 0.0774671 0)
(-0.630466 0.0767971 0)
(-0.62258 0.0760754 0)
(-0.614724 0.0752744 0)
(-0.60693 0.0744636 0)
(-0.599205 0.07374 0)
(-0.591546 0.0732294 0)
(-0.58396 0.0728538 0)
(-0.57636 0.0724517 0)
(-0.568572 0.0720143 0)
(-0.56057 0.0710272 0)
(-0.552324 0.0699382 0)
(-0.544039 0.0685067 0)
(-0.535712 0.0669022 0)
(-0.527293 0.0650152 0)
(-0.518777 0.0628683 0)
(-0.510231 0.0604754 0)
(-0.501662 0.0579249 0)
(-0.493142 0.0550644 0)
(-0.484672 0.0519623 0)
(-0.476343 0.0484764 0)
(-0.468077 0.0446329 0)
(-0.459948 0.0403204 0)
(-0.451913 0.0356179 0)
(-0.443957 0.0305317 0)
(-0.435955 0.0251249 0)
(-0.427849 0.0193679 0)
(-0.419573 0.0133013 0)
(-0.411116 0.00699998 0)
(-0.402516 0.00054468 0)
(-0.393763 -0.00590258 0)
(-0.384901 -0.0122775 0)
(-0.37586 -0.0183325 0)
(-0.36675 -0.0240339 0)
(-0.357548 -0.029125 0)
(-0.348309 -0.03358 0)
(-0.339068 -0.0373525 0)
(-0.329943 -0.0405051 0)
(-0.321001 -0.0431053 0)
(-0.312237 -0.04509 0)
(-0.303575 -0.04659 0)
(-0.294841 -0.0476577 0)
(-0.285979 -0.0484971 0)
(-0.277049 -0.0491496 0)
(-0.268109 -0.0499606 0)
(-0.259128 -0.0508293 0)
(-0.250122 -0.0519662 0)
(-0.241161 -0.0534215 0)
(-0.23224 -0.0552483 0)
(-0.22323 -0.057528 0)
(-0.213984 -0.0602411 0)
(-0.204569 -0.0634124 0)
(-0.194902 -0.0668202 0)
(-0.185001 -0.0703729 0)
(-0.174883 -0.0741165 0)
(-0.1648 -0.0782724 0)
(-0.154967 -0.082886 0)
(-0.145733 -0.0885258 0)
(-0.137765 -0.0958751 0)
(-0.131549 -0.106223 0)
(-0.126982 -0.120282 0)
(-0.12507 -0.136704 0)
(-0.12445 -0.153664 0)
(-0.122892 -0.171619 0)
(-0.119964 -0.187705 0)
(-0.115949 -0.199699 0)
(-0.110522 -0.206943 0)
(-0.103475 -0.210175 0)
(-0.0955244 -0.210035 0)
(-0.0868566 -0.20713 0)
(-0.791666 0.0869176 0)
(-0.782182 0.0864326 0)
(-0.772882 0.0859965 0)
(-0.763755 0.0855384 0)
(-0.754737 0.0850476 0)
(-0.745805 0.0843578 0)
(-0.737007 0.083544 0)
(-0.728336 0.0827411 0)
(-0.719757 0.0819796 0)
(-0.711268 0.0811338 0)
(-0.702896 0.0802301 0)
(-0.69469 0.0793047 0)
(-0.686667 0.0783097 0)
(-0.678791 0.0772231 0)
(-0.670996 0.0760698 0)
(-0.663147 0.0749355 0)
(-0.655181 0.0738786 0)
(-0.647126 0.0728995 0)
(-0.639043 0.0719682 0)
(-0.631028 0.0709297 0)
(-0.623077 0.0698132 0)
(-0.615178 0.0685749 0)
(-0.607354 0.0672469 0)
(-0.599652 0.0658352 0)
(-0.592066 0.0644327 0)
(-0.584695 0.0630951 0)
(-0.57748 0.0615639 0)
(-0.570171 0.0601061 0)
(-0.562734 0.0585188 0)
(-0.555048 0.0570124 0)
(-0.547296 0.055177 0)
(-0.539438 0.0531341 0)
(-0.531462 0.0508367 0)
(-0.523364 0.0481997 0)
(-0.51516 0.0451783 0)
(-0.506841 0.0417968 0)
(-0.498494 0.0381207 0)
(-0.490115 0.0342169 0)
(-0.481793 0.0299067 0)
(-0.473543 0.0251987 0)
(-0.465379 0.0200564 0)
(-0.457247 0.0145776 0)
(-0.449201 0.00880889 0)
(-0.441229 0.00293583 0)
(-0.433258 -0.00293764 0)
(-0.425157 -0.00869241 0)
(-0.416827 -0.0142286 0)
(-0.408241 -0.0195032 0)
(-0.399345 -0.024353 0)
(-0.390195 -0.0288028 0)
(-0.380746 -0.0326748 0)
(-0.371131 -0.0361217 0)
(-0.361414 -0.0390677 0)
(-0.351685 -0.0414877 0)
(-0.34194 -0.0433903 0)
(-0.332236 -0.0450327 0)
(-0.322633 -0.0466973 0)
(-0.313161 -0.048227 0)
(-0.304009 -0.0495364 0)
(-0.295251 -0.050531 0)
(-0.286738 -0.0512419 0)
(-0.278123 -0.051762 0)
(-0.269361 -0.052558 0)
(-0.260543 -0.0535745 0)
(-0.251852 -0.0548978 0)
(-0.24338 -0.0565565 0)
(-0.235074 -0.0587432 0)
(-0.226682 -0.061466 0)
(-0.218034 -0.0647611 0)
(-0.209021 -0.0685914 0)
(-0.199638 -0.0728572 0)
(-0.18999 -0.0775786 0)
(-0.180419 -0.0829884 0)
(-0.171294 -0.0894801 0)
(-0.162992 -0.0974629 0)
(-0.155754 -0.10759 0)
(-0.149888 -0.121285 0)
(-0.146456 -0.138173 0)
(-0.146423 -0.154508 0)
(-0.145952 -0.171636 0)
(-0.142954 -0.18858 0)
(-0.138809 -0.201835 0)
(-0.132538 -0.211043 0)
(-0.124131 -0.216512 0)
(-0.114268 -0.218859 0)
(-0.103544 -0.219337 0)
(-0.0934095 -0.21776 0)
(-0.0821207 -0.214547 0)
(-0.793492 0.0923147 0)
(-0.783899 0.0913165 0)
(-0.77441 0.0903778 0)
(-0.765099 0.0895631 0)
(-0.755963 0.0886497 0)
(-0.746964 0.0874775 0)
(-0.738137 0.0862668 0)
(-0.729494 0.0850916 0)
(-0.720972 0.0839026 0)
(-0.712566 0.0826233 0)
(-0.704324 0.0813558 0)
(-0.696257 0.0802114 0)
(-0.688346 0.0790947 0)
(-0.68055 0.077838 0)
(-0.672863 0.0762919 0)
(-0.665265 0.0744978 0)
(-0.657666 0.0727163 0)
(-0.650033 0.0709892 0)
(-0.642341 0.06932 0)
(-0.634675 0.0675357 0)
(-0.627073 0.0655871 0)
(-0.619509 0.0634153 0)
(-0.6119 0.0610595 0)
(-0.604224 0.0584804 0)
(-0.596418 0.0556732 0)
(-0.588347 0.0524066 0)
(-0.580303 0.0488784 0)
(-0.572258 0.0454758 0)
(-0.564365 0.0419417 0)
(-0.556401 0.0384715 0)
(-0.548435 0.0348838 0)
(-0.540431 0.0311861 0)
(-0.532368 0.0273829 0)
(-0.524262 0.0233817 0)
(-0.516147 0.0191958 0)
(-0.508102 0.0148477 0)
(-0.500265 0.0101627 0)
(-0.492555 0.00515829 0)
(-0.484897 -5.62679e-05 0)
(-0.477347 -0.00533404 0)
(-0.469941 -0.0104959 0)
(-0.462536 -0.0152558 0)
(-0.455036 -0.0195814 0)
(-0.447302 -0.0234868 0)
(-0.439275 -0.0269274 0)
(-0.43091 -0.0299033 0)
(-0.422175 -0.0324136 0)
(-0.413084 -0.034596 0)
(-0.403644 -0.0364262 0)
(-0.393958 -0.0381361 0)
(-0.384082 -0.0395891 0)
(-0.374131 -0.0410103 0)
(-0.364153 -0.0423754 0)
(-0.354248 -0.0440124 0)
(-0.344453 -0.0458814 0)
(-0.334752 -0.0477557 0)
(-0.325169 -0.049606 0)
(-0.315655 -0.0514116 0)
(-0.306208 -0.0532564 0)
(-0.296886 -0.0549949 0)
(-0.287811 -0.056717 0)
(-0.278942 -0.0581611 0)
(-0.270368 -0.0596846 0)
(-0.261964 -0.0613754 0)
(-0.253698 -0.0634781 0)
(-0.245548 -0.0660347 0)
(-0.237552 -0.0691756 0)
(-0.229595 -0.0728838 0)
(-0.221485 -0.0771881 0)
(-0.213029 -0.0819486 0)
(-0.204693 -0.0872395 0)
(-0.19626 -0.093176 0)
(-0.188228 -0.100044 0)
(-0.180761 -0.108577 0)
(-0.174174 -0.120259 0)
(-0.168933 -0.135117 0)
(-0.167482 -0.150103 0)
(-0.168233 -0.164809 0)
(-0.166663 -0.182293 0)
(-0.162438 -0.19721 0)
(-0.156353 -0.207631 0)
(-0.148229 -0.214344 0)
(-0.138265 -0.218145 0)
(-0.126972 -0.219972 0)
(-0.114889 -0.220488 0)
(-0.101995 -0.220117 0)
(-0.0898314 -0.218395 0)
(-0.0769876 -0.21538 0)
(-0.794616 0.102851 0)
(-0.78497 0.101891 0)
(-0.775454 0.10086 0)
(-0.766069 0.0999444 0)
(-0.756924 0.098857 0)
(-0.748002 0.0974168 0)
(-0.739233 0.0959965 0)
(-0.730683 0.0945498 0)
(-0.72233 0.0929819 0)
(-0.714164 0.0911413 0)
(-0.706157 0.0891672 0)
(-0.698293 0.0870889 0)
(-0.69055 0.0847705 0)
(-0.682895 0.082058 0)
(-0.67527 0.0789264 0)
(-0.667683 0.0754317 0)
(-0.660037 0.0718433 0)
(-0.652294 0.0682493 0)
(-0.644419 0.0646842 0)
(-0.636544 0.0610192 0)
(-0.628761 0.0571783 0)
(-0.621156 0.0530549 0)
(-0.61366 0.0487019 0)
(-0.606208 0.0442084 0)
(-0.598832 0.0397156 0)
(-0.591217 0.0356993 0)
(-0.583715 0.0315426 0)
(-0.576165 0.0273214 0)
(-0.568738 0.0228038 0)
(-0.561259 0.0181011 0)
(-0.553666 0.0132343 0)
(-0.546013 0.0081899 0)
(-0.538337 0.00302332 0)
(-0.530721 -0.00230952 0)
(-0.523146 -0.00772306 0)
(-0.515599 -0.013092 0)
(-0.50807 -0.0182836 0)
(-0.500546 -0.0232457 0)
(-0.492965 -0.0279899 0)
(-0.485243 -0.0324936 0)
(-0.477387 -0.0367839 0)
(-0.469331 -0.0406776 0)
(-0.460963 -0.0440484 0)
(-0.452228 -0.0467279 0)
(-0.443176 -0.0487201 0)
(-0.433877 -0.0501101 0)
(-0.424377 -0.0509456 0)
(-0.414709 -0.0514853 0)
(-0.404902 -0.0517332 0)
(-0.395034 -0.0520084 0)
(-0.385176 -0.0521581 0)
(-0.375391 -0.0524457 0)
(-0.365651 -0.0528344 0)
(-0.35598 -0.0535655 0)
(-0.346429 -0.0547467 0)
(-0.336984 -0.0562876 0)
(-0.327596 -0.0581245 0)
(-0.318253 -0.0600087 0)
(-0.309097 -0.0620205 0)
(-0.300018 -0.0643352 0)
(-0.291191 -0.0671692 0)
(-0.282655 -0.0699982 0)
(-0.274522 -0.0731127 0)
(-0.266635 -0.0764687 0)
(-0.258881 -0.0802331 0)
(-0.251109 -0.0843628 0)
(-0.243338 -0.0888614 0)
(-0.2356 -0.0935987 0)
(-0.22796 -0.098525 0)
(-0.220083 -0.103511 0)
(-0.212451 -0.108751 0)
(-0.204587 -0.114954 0)
(-0.197156 -0.122885 0)
(-0.190765 -0.133229 0)
(-0.18753 -0.143635 0)
(-0.187896 -0.15521 0)
(-0.18864 -0.170938 0)
(-0.186543 -0.187334 0)
(-0.181462 -0.199597 0)
(-0.173748 -0.207518 0)
(-0.164171 -0.212322 0)
(-0.152906 -0.215472 0)
(-0.140412 -0.217389 0)
(-0.127131 -0.21799 0)
(-0.113627 -0.217482 0)
(-0.0999804 -0.216448 0)
(-0.0869026 -0.214935 0)
(-0.0738016 -0.213474 0)
(-0.796937 0.113435 0)
(-0.787066 0.112178 0)
(-0.777501 0.110674 0)
(-0.76819 0.108969 0)
(-0.759109 0.1071 0)
(-0.750279 0.104827 0)
(-0.741568 0.102529 0)
(-0.73304 0.100375 0)
(-0.724791 0.0981542 0)
(-0.71675 0.0957902 0)
(-0.708873 0.0931635 0)
(-0.701118 0.0903398 0)
(-0.693505 0.0872859 0)
(-0.686063 0.083952 0)
(-0.678732 0.0803618 0)
(-0.671545 0.0764756 0)
(-0.664407 0.0723826 0)
(-0.657273 0.0680208 0)
(-0.650108 0.0633807 0)
(-0.64289 0.0584517 0)
(-0.635628 0.0533054 0)
(-0.628415 0.0479047 0)
(-0.621259 0.0422677 0)
(-0.614037 0.0364764 0)
(-0.606802 0.030556 0)
(-0.599492 0.0246255 0)
(-0.592222 0.0186 0)
(-0.584857 0.0126046 0)
(-0.577485 0.00652771 0)
(-0.570093 0.000419596 0)
(-0.562601 -0.00560613 0)
(-0.555043 -0.0115699 0)
(-0.547333 -0.0173921 0)
(-0.539524 -0.023113 0)
(-0.531572 -0.0287167 0)
(-0.523369 -0.0341327 0)
(-0.514904 -0.0393057 0)
(-0.506305 -0.0441677 0)
(-0.497719 -0.048628 0)
(-0.489102 -0.0525158 0)
(-0.480394 -0.0558987 0)
(-0.471532 -0.0588289 0)
(-0.462477 -0.0611064 0)
(-0.453174 -0.0627403 0)
(-0.443612 -0.0637546 0)
(-0.433876 -0.0643205 0)
(-0.424066 -0.0644983 0)
(-0.414267 -0.0645559 0)
(-0.404533 -0.0644134 0)
(-0.394897 -0.0644251 0)
(-0.385364 -0.0644358 0)
(-0.375982 -0.0647324 0)
(-0.366791 -0.0651636 0)
(-0.357782 -0.0658888 0)
(-0.348911 -0.0671115 0)
(-0.340074 -0.0688313 0)
(-0.331219 -0.0712354 0)
(-0.322122 -0.0741551 0)
(-0.312811 -0.077843 0)
(-0.303325 -0.081524 0)
(-0.294146 -0.085779 0)
(-0.28537 -0.0906723 0)
(-0.277175 -0.0960728 0)
(-0.269504 -0.101671 0)
(-0.262254 -0.107296 0)
(-0.255066 -0.112588 0)
(-0.247683 -0.117337 0)
(-0.239997 -0.121442 0)
(-0.232225 -0.125059 0)
(-0.224396 -0.12867 0)
(-0.2168 -0.133053 0)
(-0.210083 -0.13711 0)
(-0.205484 -0.141945 0)
(-0.20396 -0.1492 0)
(-0.20512 -0.162265 0)
(-0.206226 -0.177745 0)
(-0.203975 -0.190794 0)
(-0.198506 -0.199818 0)
(-0.189894 -0.205208 0)
(-0.179208 -0.208419 0)
(-0.167114 -0.210759 0)
(-0.153931 -0.211678 0)
(-0.140145 -0.211682 0)
(-0.12629 -0.211331 0)
(-0.112606 -0.210769 0)
(-0.0991465 -0.210348 0)
(-0.0861959 -0.210441 0)
(-0.0735697 -0.211293 0)
(-0.796072 0.127852 0)
(-0.786532 0.126844 0)
(-0.777311 0.125486 0)
(-0.768494 0.123502 0)
(-0.759852 0.121201 0)
(-0.751414 0.118487 0)
(-0.743174 0.115605 0)
(-0.735129 0.112702 0)
(-0.727373 0.109589 0)
(-0.719862 0.106196 0)
(-0.712546 0.102463 0)
(-0.705353 0.0984169 0)
(-0.698257 0.0940668 0)
(-0.691276 0.0894167 0)
(-0.684361 0.0845177 0)
(-0.677536 0.079337 0)
(-0.670748 0.0738443 0)
(-0.664022 0.0679464 0)
(-0.657249 0.0616573 0)
(-0.65044 0.0550141 0)
(-0.643447 0.0481782 0)
(-0.636233 0.0412098 0)
(-0.628867 0.0341005 0)
(-0.621331 0.0269077 0)
(-0.613773 0.0196479 0)
(-0.606115 0.0124314 0)
(-0.598475 0.00527571 0)
(-0.59082 -0.00170065 0)
(-0.583142 -0.00843226 0)
(-0.575506 -0.0149314 0)
(-0.567859 -0.0210979 0)
(-0.560266 -0.0269531 0)
(-0.552595 -0.0323161 0)
(-0.544852 -0.0371758 0)
(-0.537049 -0.041649 0)
(-0.529017 -0.0457861 0)
(-0.520787 -0.0496631 0)
(-0.512291 -0.0532508 0)
(-0.50351 -0.056507 0)
(-0.494482 -0.0593974 0)
(-0.485248 -0.061699 0)
(-0.47586 -0.0634264 0)
(-0.466377 -0.0649289 0)
(-0.456726 -0.0664188 0)
(-0.446906 -0.0677509 0)
(-0.437018 -0.0689577 0)
(-0.427102 -0.0700079 0)
(-0.417245 -0.071109 0)
(-0.407449 -0.0720963 0)
(-0.39778 -0.0733193 0)
(-0.388139 -0.074637 0)
(-0.378511 -0.0764485 0)
(-0.368836 -0.0788047 0)
(-0.359236 -0.0816395 0)
(-0.34989 -0.0848999 0)
(-0.340838 -0.0884554 0)
(-0.33231 -0.0925048 0)
(-0.324162 -0.0966688 0)
(-0.316386 -0.101038 0)
(-0.308631 -0.105939 0)
(-0.301024 -0.111652 0)
(-0.293487 -0.11782 0)
(-0.285984 -0.124113 0)
(-0.278357 -0.129977 0)
(-0.270508 -0.135116 0)
(-0.262182 -0.139209 0)
(-0.253319 -0.14218 0)
(-0.244155 -0.143983 0)
(-0.235182 -0.14481 0)
(-0.227221 -0.145595 0)
(-0.221122 -0.147274 0)
(-0.217629 -0.153059 0)
(-0.21759 -0.163323 0)
(-0.21957 -0.176618 0)
(-0.220202 -0.189162 0)
(-0.21779 -0.19856 0)
(-0.212054 -0.203874 0)
(-0.203132 -0.206164 0)
(-0.192254 -0.206673 0)
(-0.180009 -0.207471 0)
(-0.16653 -0.206919 0)
(-0.15288 -0.20623 0)
(-0.139338 -0.205853 0)
(-0.125919 -0.205752 0)
(-0.112787 -0.206019 0)
(-0.0999993 -0.206948 0)
(-0.0875814 -0.208898 0)
(-0.0757369 -0.212241 0)
(-0.798957 0.140038 0)
(-0.789976 0.138813 0)
(-0.781098 0.137278 0)
(-0.772508 0.134911 0)
(-0.764049 0.132089 0)
(-0.755777 0.128873 0)
(-0.7478 0.125322 0)
(-0.74002 0.121608 0)
(-0.732525 0.117628 0)
(-0.725341 0.113334 0)
(-0.718426 0.108656 0)
(-0.711703 0.103558 0)
(-0.705124 0.0979907 0)
(-0.698655 0.0919814 0)
(-0.692197 0.0856459 0)
(-0.685707 0.079042 0)
(-0.679184 0.0721763 0)
(-0.672757 0.0649609 0)
(-0.66632 0.0574758 0)
(-0.659857 0.0497909 0)
(-0.653217 0.042098 0)
(-0.64632 0.034532 0)
(-0.639195 0.027084 0)
(-0.631815 0.0197287 0)
(-0.624322 0.0123996 0)
(-0.61662 0.00529524 0)
(-0.608718 -0.00148117 0)
(-0.600634 -0.00786308 0)
(-0.592328 -0.0137722 0)
(-0.583881 -0.0193054 0)
(-0.575277 -0.0244584 0)
(-0.566644 -0.0293499 0)
(-0.558043 -0.0339142 0)
(-0.549536 -0.0381162 0)
(-0.541169 -0.0420147 0)
(-0.532969 -0.0456194 0)
(-0.524714 -0.0488834 0)
(-0.516191 -0.0518646 0)
(-0.50727 -0.0546477 0)
(-0.497961 -0.0574136 0)
(-0.488265 -0.0602278 0)
(-0.478214 -0.0631649 0)
(-0.467832 -0.0660619 0)
(-0.457366 -0.0688709 0)
(-0.446894 -0.0716355 0)
(-0.436562 -0.074461 0)
(-0.426404 -0.077297 0)
(-0.416556 -0.0803749 0)
(-0.406952 -0.0834837 0)
(-0.39777 -0.0869459 0)
(-0.388907 -0.0905233 0)
(-0.380394 -0.0943805 0)
(-0.372072 -0.0982431 0)
(-0.363881 -0.102193 0)
(-0.355841 -0.106452 0)
(-0.347808 -0.110833 0)
(-0.339955 -0.115669 0)
(-0.332202 -0.120904 0)
(-0.324754 -0.126883 0)
(-0.317255 -0.13294 0)
(-0.30955 -0.138715 0)
(-0.301455 -0.143882 0)
(-0.292896 -0.148382 0)
(-0.283759 -0.15201 0)
(-0.274152 -0.154633 0)
(-0.264209 -0.156189 0)
(-0.254181 -0.156907 0)
(-0.244532 -0.157657 0)
(-0.236181 -0.15942 0)
(-0.230128 -0.163206 0)
(-0.227453 -0.170553 0)
(-0.22864 -0.181498 0)
(-0.231253 -0.194227 0)
(-0.231977 -0.205129 0)
(-0.229305 -0.211666 0)
(-0.222725 -0.214218 0)
(-0.213279 -0.214031 0)
(-0.202292 -0.212445 0)
(-0.190483 -0.210179 0)
(-0.17805 -0.207764 0)
(-0.165111 -0.205804 0)
(-0.151883 -0.204217 0)
(-0.138849 -0.203703 0)
(-0.126316 -0.204026 0)
(-0.114117 -0.205162 0)
(-0.102346 -0.207553 0)
(-0.0913395 -0.211258 0)
(-0.0815904 -0.216105 0)
(-0.801874 0.149383 0)
(-0.793376 0.147711 0)
(-0.784909 0.145872 0)
(-0.776591 0.143248 0)
(-0.768464 0.139964 0)
(-0.760603 0.136172 0)
(-0.753154 0.131791 0)
(-0.745967 0.127007 0)
(-0.739048 0.121897 0)
(-0.732445 0.116506 0)
(-0.726138 0.110803 0)
(-0.719974 0.104802 0)
(-0.713861 0.0984299 0)
(-0.707733 0.091685 0)
(-0.701481 0.084679 0)
(-0.695179 0.0774752 0)
(-0.688756 0.0702029 0)
(-0.682353 0.0628117 0)
(-0.675847 0.0553931 0)
(-0.669164 0.0479865 0)
(-0.662197 0.0406925 0)
(-0.654858 0.0336331 0)
(-0.647253 0.0268363 0)
(-0.639478 0.0202859 0)
(-0.631536 0.0139629 0)
(-0.623445 0.00795799 0)
(-0.615207 0.00231479 0)
(-0.606819 -0.00297324 0)
(-0.59819 -0.00783327 0)
(-0.589409 -0.0123807 0)
(-0.580467 -0.0166158 0)
(-0.571526 -0.0206939 0)
(-0.562691 -0.0247344 0)
(-0.553948 -0.0287681 0)
(-0.545267 -0.0327141 0)
(-0.536639 -0.036543 0)
(-0.527962 -0.0403023 0)
(-0.519182 -0.0440767 0)
(-0.510212 -0.0478764 0)
(-0.501049 -0.0518088 0)
(-0.491617 -0.0558032 0)
(-0.481983 -0.0598494 0)
(-0.47211 -0.0638332 0)
(-0.462155 -0.0678338 0)
(-0.452282 -0.0719323 0)
(-0.442583 -0.0763747 0)
(-0.432917 -0.0810293 0)
(-0.423477 -0.0860256 0)
(-0.41419 -0.0911609 0)
(-0.405266 -0.0966528 0)
(-0.396593 -0.102301 0)
(-0.388226 -0.108272 0)
(-0.380026 -0.114485 0)
(-0.371819 -0.120776 0)
(-0.363618 -0.127103 0)
(-0.355254 -0.133156 0)
(-0.346916 -0.139087 0)
(-0.338555 -0.144677 0)
(-0.330364 -0.150027 0)
(-0.322185 -0.15475 0)
(-0.313873 -0.15876 0)
(-0.305189 -0.161857 0)
(-0.295992 -0.164142 0)
(-0.286165 -0.165483 0)
(-0.275822 -0.166171 0)