/*--------------------------------*- C++ -*----------------------------------*\
  =========                 |
  \\      /  F ield         | OpenFOAM: The Open Source CFD Toolbox
   \\    /   O peration     | Website:  https://openfoam.org
    \\  /    A nd           | Version:  7
     \\/     M anipulation  |
\*---------------------------------------------------------------------------*/
FoamFile
{
    version     2.0;
    format      ascii;
    class       volScalarField;
    location    "9";
    object      rho;
}
// * * * * * * * * * * * * * * * * * * * * * * * * * * * * * * * * * * * * * //

dimensions      [1 -3 0 0 0 0 0];

internalField   nonuniform List<scalar> 
2413
(
1.05625
1.06284
1.06551
1.07196
1.07938
1.08147
1.08523
1.09336
1.10146
1.10887
1.11717
1.12718
1.13709
1.14669
1.15785
1.17008
1.18265
1.19626
1.21125
1.22773
1.24702
1.2675
1.28766
1.30714
1.32547
1.34063
1.35336
1.36589
1.37201
1.37829
1.38182
1.38224
1.38366
1.38188
1.37712
1.37353
1.36739
1.35858
1.35264
1.34482
1.33682
1.32998
1.32404
1.31852
1.31291
1.31072
1.30964
1.30736
1.30749
1.31094
1.3138
1.3164
1.32037
1.32488
1.3296
1.33519
1.33933
1.34282
1.34683
1.35153
1.35388
1.3557
1.35862
1.36025
1.36113
1.36211
1.36287
1.36332
1.36368
1.36385
1.36419
1.36485
1.36602
1.36762
1.36966
1.37216
1.37502
1.37816
1.38179
1.38582
1.3893
1.39385
1.39682
1.399
1.4017
1.40197
1.40114
1.39854
1.19449
1.17628
1.1572
1.14382
1.13984
1.13444
1.12666
1.1255
1.12445
1.12128
1.12135
1.12348
1.12673
1.13126
1.1381
1.14589
1.15441
1.16446
1.17683
1.19147
1.20931
1.23035
1.25241
1.2749
1.29768
1.3181
1.33524
1.35244
1.36486
1.3747
1.38522
1.39126
1.39805
1.40483
1.40783
1.4124
1.41739
1.41988
1.42371
1.4267
1.42756
1.4278
1.42655
1.42361
1.41864
1.41339
1.40783
1.40077
1.39412
1.38968
1.38475
1.38003
1.37804
1.3762
1.37448
1.37606
1.37736
1.3778
1.37938
1.38266
1.38514
1.3875
1.3909
1.39467
1.3981
1.40179
1.40544
1.40904
1.41191
1.4146
1.41685
1.4182
1.41948
1.42029
1.42059
1.42084
1.42091
1.42085
1.42125
1.42158
1.42207
1.42367
1.42507
1.42606
1.42806
1.4301
1.43161
1.43171
1.31717
1.28483
1.25648
1.22445
1.20043
1.18545
1.16566
1.15336
1.14901
1.14068
1.13435
1.13401
1.13156
1.1268
1.12645
1.12514
1.12349
1.12517
1.12984
1.13696
1.14584
1.15752
1.17069
1.18523
1.20318
1.22293
1.24249
1.26417
1.28698
1.30678
1.32887
1.34772
1.36417
1.37992
1.39189
1.40173
1.41138
1.4173
1.42274
1.42845
1.43046
1.43327
1.43641
1.43792
1.43949
1.44203
1.44414
1.44529
1.4466
1.44678
1.44523
1.44249
1.43929
1.43493
1.42937
1.42459
1.42037
1.41573
1.41233
1.41022
1.4097
1.41031
1.41142
1.41398
1.41692
1.42025
1.42398
1.42816
1.43241
1.43659
1.44097
1.44466
1.4478
1.45074
1.45277
1.45409
1.45434
1.45404
1.45318
1.45176
1.45004
1.44825
1.4469
1.44552
1.44401
1.4438
1.44346
1.44234
1.38181
1.36315
1.3404
1.31383
1.28106
1.25857
1.23551
1.20823
1.1955
1.1817
1.16552
1.15709
1.14747
1.1366
1.13
1.12516
1.1173
1.11513
1.11624
1.11674
1.11844
1.12252
1.12774
1.13242
1.13872
1.14699
1.15609
1.16759
1.18244
1.19801
1.21627
1.23745
1.2586
1.28049
1.30287
1.32233
1.34227
1.36041
1.37488
1.38994
1.40137
1.41043
1.42012
1.42618
1.43148
1.43814
1.4419
1.44519
1.44901
1.45278
1.45584
1.45903
1.46316
1.46558
1.46611
1.46423
1.46148
1.45761
1.45391
1.44959
1.44608
1.44331
1.44128
1.44032
1.44023
1.44093
1.44201
1.44435
1.44736
1.45071
1.45448
1.45842
1.46209
1.46606
1.46923
1.47171
1.47373
1.47513
1.47514
1.47468
1.47354
1.47153
1.46906
1.46646
1.46326
1.46014
1.4575
1.45462
1.398
1.394
1.3853
1.37176
1.3512
1.32546
1.30202
1.27313
1.24643
1.22657
1.20195
1.18239
1.1699
1.15382
1.14123
1.13562
1.12731
1.11985
1.11714
1.11365
1.1121
1.11258
1.11267
1.11312
1.11509
1.11899
1.12404
1.12949
1.13644
1.14277
1.14913
1.15758
1.16675
1.17797
1.19204
1.2079
1.22562
1.24668
1.26786
1.29028
1.31241
1.33284
1.35313
1.37153
1.38511
1.40097
1.41347
1.42131
1.43178
1.43942
1.44466
1.44981
1.45685
1.46155
1.46464
1.46869
1.47419
1.47837
1.48142
1.48163
1.48038
1.47734
1.47391
1.47071
1.46801
1.46525
1.46311
1.46233
1.46357
1.4652
1.46664
1.46956
1.47298
1.47659
1.48003
1.48279
1.48531
1.48759
1.48925
1.49032
1.49054
1.49022
1.48881
1.48641
1.48362
1.47999
1.47617
1.47249
1.39991
1.39956
1.39832
1.39498
1.3882
1.37561
1.35881
1.33804
1.31071
1.28839
1.26376
1.23487
1.21874
1.19944
1.17756
1.16628
1.15231
1.13647
1.12805
1.11957
1.11215
1.11009
1.10802
1.10547
1.1054
1.1072
1.10965
1.11263
1.11684
1.12094
1.12416
1.12862
1.13326
1.13777
1.14407
1.1504
1.15681
1.16575
1.17662
1.18905
1.20522
1.22262
1.2414
1.26457
1.28655
1.30706
1.33226
1.35214
1.36931
1.38992
1.4052
1.4166
1.43011
1.44395
1.45232
1.46096
1.46946
1.47447
1.47872
1.48451
1.48846
1.48923
1.49079
1.49386
1.49285
1.49173
1.48969
1.48728
1.487
1.487
1.48631
1.48678
1.48725
1.48867
1.49135
1.4942
1.49603
1.49676
1.49842
1.50019
1.5012
1.50151
1.50106
1.49948
1.49744
1.49493
1.49178
1.48842
1.4
1.39999
1.39992
1.39961
1.39855
1.39573
1.38965
1.37992
1.36435
1.34423
1.32438
1.2978
1.27265
1.25249
1.22502
1.2037
1.18785
1.16552
1.14949
1.13818
1.12316
1.11674
1.11418
1.10942
1.10846
1.10805
1.1066
1.10617
1.10657
1.10708
1.1084
1.1112
1.11516
1.1188
1.12297
1.12779
1.13085
1.1346
1.13918
1.14311
1.14835
1.15504
1.16229
1.1722
1.18543
1.20037
1.21828
1.23964
1.26136
1.2854
1.31081
1.3338
1.35798
1.381
1.39958
1.41932
1.43784
1.44705
1.45483
1.46726
1.47617
1.47809
1.48158
1.48783
1.49572
1.50332
1.50775
1.50968
1.51216
1.51389
1.51352
1.51262
1.51064
1.50895
1.50774
1.50826
1.50909
1.50928
1.50894
1.50822
1.5087
1.50962
1.50985
1.50884
1.50679
1.50477
1.50264
1.50055
1.40001
1.4
1.4
1.39999
1.39993
1.39965
1.3987
1.39626
1.39133
1.38207
1.36925
1.3528
1.33014
1.30992
1.28691
1.25987
1.2416
1.21878
1.19609
1.18263
1.16288
1.14773
1.13941
1.12743
1.1202
1.11566
1.11019
1.10575
1.10429
1.10212
1.10093
1.10176
1.10279
1.10347
1.10515
1.1086
1.11206
1.11577
1.12078
1.12455
1.12803
1.13277
1.1365
1.14072
1.1464
1.1522
1.15949
1.16861
1.17891
1.19231
1.20981
1.22816
1.24863
1.27466
1.30083
1.32524
1.35159
1.38001
1.402
1.42067
1.43841
1.45774
1.47064
1.47935
1.48799
1.4985
1.50625
1.51037
1.51521
1.52125
1.52927
1.53485
1.53537
1.53478
1.53346
1.53248
1.53191
1.53054
1.52807
1.52493
1.52138
1.52052
1.52069
1.52013
1.51771
1.51459
1.51169
1.50984
1.40001
1.40001
1.40001
1.4
1.4
1.39999
1.39993
1.39967
1.39885
1.39676
1.39227
1.38494
1.3731
1.35743
1.34045
1.31761
1.29636
1.27609
1.24941
1.22999
1.21104
1.18712
1.17206
1.15727
1.13995
1.13089
1.12263
1.1129
1.11016
1.10741
1.10398
1.10344
1.10211
1.09911
1.09599
1.09563
1.09685
1.09926
1.10305
1.10722
1.11094
1.1154
1.1198
1.12328
1.12756
1.13156
1.13512
1.13985
1.1442
1.14887
1.15602
1.16355
1.17204
1.1842
1.19861
1.21578
1.23764
1.26199
1.2892
1.31995
1.34868
1.37463
1.40242
1.4299
1.44383
1.45855
1.47791
1.49568
1.5013
1.50764
1.51775
1.53068
1.54044
1.5466
1.55019
1.55356
1.55656
1.55678
1.55532
1.55173
1.54619
1.53988
1.53532
1.53387
1.5316
1.52844
1.52444
1.51933
1.40001
1.40001
1.40001
1.40001
1.40001
1.4
1.4
1.39999
1.39994
1.39971
1.39898
1.39717
1.39346
1.38662
1.37692
1.36338
1.34565
1.32862
1.30703
1.28459
1.26653
1.24215
1.22223
1.20692
1.18484
1.17086
1.15993
1.14325
1.13467
1.1275
1.11765
1.11257
1.10892
1.10398
1.1002
1.0985
1.09574
1.09426
1.09378
1.09346
1.09409
1.09616
1.0991
1.10195
1.10569
1.11049
1.11459
1.11932
1.12441
1.12826
1.13336
1.13908
1.14382
1.15007
1.15713
1.16424
1.174
1.18627
1.19979
1.21706
1.23957
1.26405
1.28948
1.31868
1.34912
1.37975
1.40669
1.43159
1.46007
1.48371
1.49605
1.50862
1.52594
1.54298
1.54876
1.5534
1.56003
1.56792
1.5767
1.57722
1.57522
1.56972
1.56255
1.55607
1.55143
1.54737
1.54302
1.53772
1.40001
1.40001
1.40001
1.40001
1.40001
1.40001
1.40001
1.4
1.4
1.39999
1.39994
1.39974
1.39913
1.39758
1.39433
1.38882
1.37977
1.368
1.35364
1.33492
1.31763
1.29768
1.27486
1.25773
1.23654
1.21533
1.20115
1.18282
1.16554
1.15481
1.14066
1.12791
1.12209
1.11339
1.10869
1.106
1.10074
1.09692
1.09456
1.09152
1.08862
1.08805
1.08729
1.0877
1.0892
1.09149
1.09456
1.0984
1.10338
1.10837
1.11334
1.11932
1.12471
1.13018
1.13634
1.14137
1.14702
1.15412
1.15994
1.1667
1.17663
1.18661
1.19849
1.21546
1.23486
1.25789
1.28741
1.3185
1.35
1.38316
1.42185
1.45049
1.4734
1.49815
1.52654
1.54438
1.55029
1.55817
1.56898
1.58001
1.58806
1.59066
1.58885
1.58352
1.5782
1.57312
1.56749
1.56124
1.40001
1.40001
1.40001
1.40001
1.40001
1.40001
1.40001
1.40001
1.40001
1.4
1.4
1.39999
1.39995
1.39978
1.39926
1.39798
1.39528
1.39037
1.38313
1.37242
1.35913
1.34464
1.32566
1.30805
1.29043
1.26803
1.25126
1.23394
1.21271
1.19986
1.18504
1.16774
1.15724
1.14542
1.13229
1.12452
1.1165
1.1066
1.10244
1.09842
1.09323
1.09169
1.09014
1.08808
1.08739
1.08653
1.08587
1.08629
1.08739
1.08907
1.09162
1.09554
1.10057
1.10604
1.11257
1.1188
1.12434
1.13144
1.1375
1.14244
1.14963
1.15649
1.16282
1.17157
1.18093
1.19084
1.2041
1.22047
1.24034
1.26451
1.29437
1.32929
1.36831
1.407
1.44242
1.47575
1.51353
1.53546
1.54746
1.56046
1.57652
1.58877
1.59462
1.59597
1.59532
1.59286
1.5909
1.58752
1.40001
1.40001
1.40001
1.40001
1.40001
1.40001
1.40001
1.40001
1.40001
1.40001
1.40001
1.4
1.4
1.4
1.39996
1.39982
1.39941
1.39834
1.39613
1.39217
1.38564
1.37701
1.36534
1.35089
1.33648
1.31819
1.30035
1.28442
1.26344
1.24626
1.23142
1.21044
1.19595
1.18449
1.1677
1.15825
1.14988
1.13637
1.12862
1.12163
1.1117
1.10644
1.10148
1.09521
1.09214
1.0892
1.08609
1.08498
1.08383
1.08287
1.08304
1.08385
1.08554
1.08815
1.09176
1.09657
1.10193
1.10807
1.11493
1.12105
1.12794
1.13563
1.14203
1.14951
1.1571
1.16267
1.16893
1.17668
1.18362
1.19257
1.20588
1.22349
1.24524
1.27526
1.31274
1.35269
1.39513
1.43733
1.48502
1.51494
1.53665
1.5566
1.5786
1.59268
1.59606
1.59625
1.5947
1.59563
1.40001
1.40001
1.40001
1.40001
1.40001
1.40001
1.40001
1.40001
1.40001
1.40001
1.40001
1.40001
1.40001
1.4
1.4
1.4
1.39997
1.39986
1.39954
1.39872
1.39694
1.39368
1.38853
1.38066
1.37097
1.35882
1.34366
1.32965
1.31266
1.29426
1.27987
1.26134
1.24386
1.23088
1.21331
1.19808
1.187
1.17144
1.15832
1.14934
1.13664
1.1263
1.11967
1.11031
1.10342
1.0994
1.09365
1.09023
1.08853
1.08594
1.08512
1.08514
1.08531
1.08575
1.08652
1.08765
1.08924
1.09178
1.0954
1.09989
1.10522
1.11196
1.11865
1.12564
1.13406
1.1406
1.14666
1.15408
1.16007
1.16576
1.17298
1.1801
1.18793
1.19921
1.21456
1.23529
1.26445
1.30041
1.34387
1.39033
1.44259
1.4849
1.51645
1.54356
1.57158
1.59021
1.59273
1.59167
1.40001
1.40001
1.40001
1.40001
1.40001
1.40001
1.40001
1.40001
1.40001
1.40001
1.40001
1.40001
1.40001
1.40001
1.40001
1.4
1.4
1.4
1.39998
1.3999
1.39967
1.39904
1.3977
1.39512
1.3908
1.38468
1.37579
1.36517
1.3531
1.33779
1.32378
1.30821
1.28995
1.27628
1.26022
1.24235
1.23056
1.21577
1.19959
1.18976
1.17684
1.16299
1.15504
1.14409
1.13315
1.12692
1.11803
1.11053
1.10578
1.09928
1.09552
1.09265
1.08948
1.08819
1.08752
1.08718
1.08742
1.08835
1.08983
1.09166
1.09393
1.09686
1.10063
1.1055
1.11188
1.11874
1.12557
1.13389
1.14176
1.1479
1.15465
1.16035
1.16452
1.16952
1.17605
1.18338
1.19341
1.20794
1.22921
1.2578
1.29444
1.33999
1.39223
1.44234
1.48326
1.51831
1.55326
1.57821
1.40001
1.40001
1.40001
1.40001
1.40001
1.40001
1.40001
1.40001
1.40001
1.40001
1.40001
1.40001
1.40001
1.40001
1.40001
1.40001
1.40001
1.4
1.4
1.4
1.39999
1.39994
1.39977
1.39933
1.39832
1.39637
1.39299
1.38767
1.38073
1.37111
1.3598
1.34813
1.33282
1.31866
1.30498
1.28722
1.27346
1.25978
1.24225
1.22997
1.2173
1.20104
1.19032
1.17914
1.16487
1.15586
1.1463
1.13455
1.12739
1.11951
1.11114
1.10631
1.10051
1.0961
1.094
1.09117
1.09061
1.09086
1.0912
1.09218
1.09373
1.09539
1.09713
1.09923
1.10184
1.10508
1.10917
1.11483
1.12142
1.12738
1.13377
1.14045
1.14573
1.151
1.15707
1.16234
1.1677
1.17428
1.18176
1.19133
1.2053
1.22596
1.25377
1.2918
1.33924
1.38978
1.43703
1.47967
1.40001
1.40001
1.40001
1.40001
1.40001
1.40001
1.40001
1.40001
1.40001
1.40001
1.40001
1.40001
1.40001
1.40001
1.40001
1.40001
1.40001
1.40001
1.40001
1.40001
1.4
1.4
1.4
1.39996
1.39986
1.39955
1.39884
1.39734
1.39472
1.39059
1.38431
1.37666
1.36674
1.35477
1.34332
1.32866
1.31432
1.30196
1.28522
1.27139
1.25969
1.24313
1.23074
1.22009
1.20473
1.19395
1.18441
1.17088
1.16196
1.15329
1.14205
1.13506
1.12719
1.11913
1.11428
1.10801
1.10412
1.1016
1.09865
1.09758
1.09708
1.09703
1.09738
1.09845
1.10065
1.10304
1.10523
1.10746
1.11042
1.11396
1.11847
1.1242
1.12988
1.13566
1.14243
1.1483
1.1533
1.15877
1.16378
1.16859
1.17431
1.18128
1.19055
1.20417
1.2235
1.25129
1.28972
1.33412
1.40001
1.40001
1.40001
1.40001
1.40001
1.40001
1.40001
1.40001
1.40001
1.40001
1.40001
1.40001
1.40001
1.40001
1.40001
1.40001
1.40001
1.40001
1.40001
1.40001
1.40001
1.40001
1.4
1.4
1.4
1.39998
1.39991
1.39971
1.39921
1.39814
1.39609
1.39273
1.38788
1.38074
1.37248
1.36246
1.34995
1.3388
1.3252
1.31051
1.29897
1.28391
1.26973
1.25879
1.24389
1.23105
1.22082
1.20674
1.19552
1.18611
1.17333
1.16396
1.1554
1.14433
1.13708
1.12995
1.12151
1.11689
1.11199
1.10709
1.1052
1.10272
1.10138
1.10172
1.1028
1.10434
1.10565
1.10687
1.10825
1.11022
1.11312
1.11684
1.12082
1.12535
1.13105
1.1366
1.14157
1.14716
1.15236
1.15688
1.16157
1.1662
1.17072
1.17587
1.18217
1.19065
1.20305
1.22157
1.40001
1.40001
1.40001
1.40001
1.40001
1.40001
1.40001
1.40001
1.40001
1.40001
1.40001
1.40001
1.40001
1.40001
1.40001
1.40001
1.40001
1.40001
1.40001
1.40001
1.40001
1.40001
1.40001
1.00663
1.00803
1.00913
1.00993
1.01032
1.01006
1.00917
1.00776
1.00578
1.0032
1.00004
0.996353
0.992254
0.98787
0.899403
0.913339
0.921875
0.927256
0.932509
0.937704
0.944269
0.952138
0.95941
0.965398
0.970379
0.974789
0.978752
0.982561
0.986484
0.990391
0.993621
0.995456
0.995728
0.99469
0.992826
0.990275
0.987131
0.983704
0.980236
0.976718
0.973141
0.969558
0.966045
0.962666
0.959464
0.956439
0.953593
0.950941
0.948515
0.946343
0.944458
0.94288
0.941622
0.940601
0.939729
0.938904
0.938073
0.937264
0.936515
0.935846
0.935286
0.934885
0.934719
0.934813
0.935168
0.935811
0.936762
0.938035
0.939624
0.941547
0.943834
0.946523
0.949634
0.953168
0.95708
0.961275
0.965632
0.970011
0.974274
0.978345
0.982154
0.985712
0.989071
0.992259
0.995297
0.998154
1.00072
1.003
1.00497
1.00663
1.00816
1.0094
1.01033
1.01095
1.01112
1.01066
1.00949
1.00755
1.00489
1.00158
0.997734
0.993486
0.882606
0.898925
0.908359
0.914715
0.920804
0.926764
0.934197
0.941359
0.94766
0.952544
0.956254
0.959378
0.962677
0.966766
0.971459
0.976272
0.980489
0.983463
0.98486
0.98507
0.984319
0.982736
0.980456
0.9777
0.974689
0.971476
0.968127
0.964739
0.961432
0.958261
0.955251
0.952403
0.949718
0.947204
0.9449
0.942816
0.940966
0.939372
0.938101
0.937117
0.936301
0.935566
0.934869
0.93421
0.9336
0.933064
0.932621
0.932336
0.932244
0.932355
0.932723
0.933372
0.934332
0.935623
0.937217
0.939121
0.941325
0.943854
0.946728
0.949969
0.953591
0.957574
0.961868
0.96638
0.970969
0.975521
0.979913
0.984087
0.987975
0.991559
0.994891
0.997906
1.0006
1.00321
1.00574
1.00811
1.00991
1.01146
1.0126
1.01339
1.0138
1.01379
1.01321
1.0119
1.00982
1.00699
1.00352
0.999519
0.865852
0.886866
0.898145
0.905331
0.911406
0.917736
0.924464
0.930782
0.936174
0.940063
0.942757
0.944941
0.947578
0.951134
0.955596
0.960262
0.964271
0.966908
0.967994
0.968059
0.967659
0.966904
0.965711
0.964114
0.962197
0.960043
0.95776
0.955408
0.953086
0.950811
0.948589
0.946396
0.94422
0.942113
0.940136
0.938342
0.936729
0.935324
0.93418
0.933435
0.932941
0.932598
0.932305
0.931993
0.931646
0.931332
0.931078
0.930921
0.93088
0.93106
0.931553
0.932352
0.933455
0.934871
0.936553
0.938502
0.940681
0.943101
0.945777
0.948738
0.95204
0.955733
0.959834
0.964325
0.969105
0.974059
0.979043
0.983928
0.988634
0.993177
0.997394
1.00113
1.00448
1.00739
1.00996
1.01221
1.01436
1.01613
1.01763
1.0188
1.01952
1.01975
1.01939
1.01836
1.01658
1.01409
1.01095
1.00717
0.84719
0.873948
0.887987
0.89616
0.902589
0.908583
0.914216
0.919252
0.923447
0.926316
0.927994
0.929156
0.930728
0.933123
0.936181
0.939399
0.942406
0.94479
0.946424
0.947524
0.94841
0.949033
0.949244
0.9491
0.948602
0.947816
0.946975
0.945976
0.944844
0.943566
0.942164
0.94065
0.939074
0.93747
0.935956
0.934619
0.933488
0.932603
0.932004
0.931587
0.931368
0.931307
0.931365
0.931367
0.931298
0.931249
0.931293
0.931479
0.93188
0.932626
0.933616
0.934864
0.936339
0.93806
0.939998
0.942152
0.944486
0.946984
0.94965
0.952519
0.95565
0.959141
0.963061
0.967459
0.972314
0.977564
0.983122
0.98881
0.994471
0.999808
1.00458
1.00882
1.01261
1.01613
1.01937
1.02223
1.02436
1.02602
1.02725
1.0279
1.02827
1.02834
1.02796
1.02698
1.02531
1.02295
1.01995
1.01628
0.822944
0.855282
0.875023
0.886422
0.894272
0.899634
0.903364
0.906146
0.908433
0.910211
0.911352
0.91221
0.913475
0.915353
0.91765
0.920323
0.923347
0.926412
0.929378
0.931979
0.934121
0.935739
0.937138
0.938385
0.939507
0.940256
0.940716
0.940974
0.941117
0.940989
0.940636
0.940037
0.939052
0.937904
0.936639
0.935567
0.934732
0.93421
0.933971
0.933646
0.933796
0.934413
0.935456
0.936687
0.938026
0.939393
0.940598
0.94178
0.943017
0.944404
0.94603
0.947931
0.949987
0.952096
0.954335
0.95674
0.959314
0.962082
0.965058
0.968224
0.971601
0.975315
0.979416
0.984024
0.98919
0.994899
1.00113
1.00764
1.01423
1.02065
1.02658
1.03187
1.03652
1.04049
1.04327
1.04531
1.04676
1.04785
1.04845
1.04865
1.04867
1.04829
1.04736
1.04586
1.04374
1.04095
1.0376
1.03362
0.792676
0.826434
0.856225
0.877034
0.889382
0.895638
0.89787
0.898186
0.898271
0.898913
0.900082
0.901698
0.903709
0.905878
0.908272
0.911065
0.914525
0.918388
0.922417
0.925977
0.928618
0.930689
0.933035
0.935603
0.938424
0.941229
0.9436
0.945639
0.947516
0.948881
0.949681
0.94989
0.949311
0.948665
0.948102
0.947606
0.947381
0.947604
0.948275
0.950591
0.954282
0.958075
0.961438
0.964139
0.966172
0.96767
0.969033
0.97082
0.973145
0.975962
0.979123
0.982344
0.98544
0.98854
0.991783
0.995011
0.998343
1.00182
1.00526
1.00871
1.01226
1.01595
1.01984
1.02421
1.02912
1.03455
1.04065
1.04729
1.05445
1.06196
1.06934
1.07642
1.08264
1.08777
1.09192
1.09513
1.09734
1.0987
1.09891
1.09835
1.09716
1.09534
1.09288
1.08974
1.08603
1.08175
1.07694
1.07166
0.771858
0.799344
0.832725
0.861335
0.882639
0.896512
0.901835
0.90288
0.902928
0.903013
0.903561
0.904239
0.905424
0.907251
0.910123
0.91433
0.920597
0.927576
0.934342
0.940517
0.947316
0.954845
0.962972
0.971113
0.978748
0.985058
0.990516
0.994033
0.997167
1.00004
1.00201
1.00431
1.00601
1.00707
1.00841
1.00832
1.00801
1.00796
1.00818
1.00922
1.01102
1.01262
1.01388
1.01542
1.01735
1.01985
1.02315
1.02748
1.03205
1.03682
1.04156
1.04591
1.05065
1.05545
1.06016
1.0653
1.07054
1.0755
1.08027
1.08479
1.0889
1.09288
1.09654
1.10011
1.10401
1.10826
1.11283
1.11789
1.12345
1.12956
1.13622
1.14304
1.14974
1.15585
1.16122
1.16567
1.16892
1.17093
1.1716
1.17105
1.16943
1.16692
1.16348
1.15929
1.15461
1.14935
1.1436
1.13747
0.792355
0.805569
0.824962
0.848747
0.874883
0.900825
0.923639
0.940714
0.953329
0.962365
0.969546
0.975056
0.979383
0.984164
0.98858
0.994402
1.00155
1.00836
1.01422
1.0216
1.02968
1.03829
1.04664
1.05493
1.06227
1.06851
1.07392
1.07819
1.08126
1.08555
1.08895
1.09235
1.09664
1.09905
1.10148
1.10461
1.1067
1.1085
1.11097
1.11384
1.11635
1.11926
1.12244
1.12531
1.12817
1.13143
1.13459
1.13731
1.14083
1.14411
1.14613
1.14893
1.15181
1.15376
1.1567
1.16005
1.16332
1.16673
1.17078
1.17462
1.17805
1.18168
1.18536
1.18857
1.19213
1.19629
1.20053
1.20506
1.20989
1.21499
1.22044
1.22614
1.23201
1.23786
1.24358
1.24883
1.25348
1.25723
1.25985
1.26152
1.26125
1.25991
1.25703
1.25309
1.24789
1.24183
1.2351
1.22778
0.904955
0.91688
0.925968
0.938373
0.951991
0.966462
0.986277
1.00724
1.02548
1.04199
1.05803
1.07391
1.08776
1.10114
1.11496
1.12946
1.14516
1.16129
1.17611
1.19046
1.20415
1.21541
1.22484
1.2327
1.2375
1.23995
1.2407
1.24004
1.23476
1.233
1.2289
1.22305
1.22149
1.21759
1.21346
1.21467
1.21332
1.21162
1.21346
1.21431
1.21531
1.21723
1.21989
1.22202
1.22444
1.22815
1.23176
1.23471
1.239
1.24458
1.2493
1.25362
1.25818
1.2623
1.26617
1.27003
1.27203
1.27385
1.27626
1.27766
1.27794
1.27854
1.2795
1.2798
1.27997
1.28148
1.28326
1.28529
1.28799
1.29101
1.29455
1.29848
1.30274
1.30748
1.31265
1.31766
1.32285
1.32759
1.33239
1.33674
1.33948
1.34173
1.34179
1.34053
1.33787
1.33336
1.32693
1.31971
)
;

boundaryField
{
    inlet
    {
        type            calculated;
        value           nonuniform 0();
    }
    outlet
    {
        type            calculated;
        value           nonuniform 0();
    }
    bottom
    {
        type            symmetryPlane;
    }
    top
    {
        type            symmetryPlane;
    }
    obstacle
    {
        type            calculated;
        value           nonuniform 0();
    }
    front
    {
        type            empty;
    }
    back
    {
        type            empty;
    }
    procBoundary19to2
    {
        type            processor;
        value           nonuniform List<scalar> 
23
(
1.05246
1.22603
1.3494
1.39232
1.39947
1.39999
1.4
1.40001
1.40001
1.40001
1.40001
1.40001
1.40001
1.40001
0.873391
0.850669
0.827905
0.806077
0.783945
0.766527
0.755178
0.782484
0.889014
)
;
    }
    procBoundary19to10
    {
        type            processor;
        value           nonuniform List<scalar> 5(1.40001 1.40001 1.40001 1.40001 1.40001);
    }
    procBoundary19to11
    {
        type            processor;
        value           nonuniform List<scalar> 
89
(
1.00949
1.01033
1.01079
1.01086
1.01051
1.00961
1.00821
1.00614
1.00347
1.00022
0.99655
0.992522
0.988226
0.983748
0.919371
0.93232
0.940176
0.944686
0.948649
0.952924
0.957503
0.964898
0.972716
0.979592
0.985299
0.989944
0.993669
0.996631
0.999168
1.00143
1.00306
1.00352
1.00263
1.00049
0.997483
0.993959
0.990134
0.986252
0.982394
0.978603
0.974863
0.971184
0.967598
0.964147
0.960877
0.957815
0.954978
0.95238
0.950042
0.947998
0.946282
0.944898
0.943824
0.942968
0.942255
0.941564
0.940862
0.940183
0.939542
0.938993
0.938597
0.938398
0.938421
0.93869
0.939244
0.94007
0.941166
0.942564
0.944295
0.946376
0.948847
0.951746
0.955073
0.958788
0.962816
0.967038
0.971312
0.975496
0.979465
0.983176
0.986603
0.989777
0.992721
0.995502
0.998138
1.00062
1.0029
1.00491
1.00491
)
;
    }
    procBoundary19to12
    {
        type            processor;
        value           uniform 0.983298;
    }
    procBoundary19to20
    {
        type            processor;
        value           nonuniform List<scalar> 
27
(
1.39416
1.43275
1.44237
1.45172
1.46772
1.48423
1.49789
1.50833
1.51561
1.53099
1.5541
1.58168
1.5967
1.5929
1.58198
1.52337
1.38231
1.24887
0.98895
0.995125
1.00287
1.01197
1.02901
1.06574
1.13057
1.21991
1.31162
)
;
    }
    procBoundary19to27
    {
        type            processor;
        value           nonuniform List<scalar> 
89
(
1.40001
1.4
1.4
1.4
1.39999
1.39995
1.39982
1.39947
1.39868
1.39717
1.39451
1.39035
1.38485
1.37702
1.36813
1.3582
1.34555
1.33446
1.3218
1.3073
1.29627
1.28253
1.26857
1.25833
1.2447
1.23213
1.22271
1.20954
1.19872
1.19018
1.17794
1.16909
1.16157
1.15075
1.14402
1.1378
1.12939
1.12502
1.12034
1.11525
1.11345
1.11174
1.11017
1.10974
1.10957
1.10959
1.11078
1.11301
1.11599
1.11948
1.12317
1.12727
1.13128
1.13519
1.14001
1.14513
1.14975
1.15445
1.159
1.16301
1.16709
1.17128
1.17552
1.18024
1.18616
1.40001
1.40001
1.40001
1.40001
1.40001
1.40001
1.40001
1.40001
1.40001
1.40001
1.40001
1.40001
1.40001
1.40001
1.40001
1.40001
1.40001
1.40001
1.40001
1.40001
1.40001
1.40001
1.40001
1.40001
)
;
    }
}


// ************************************************************************* //
