/*--------------------------------*- C++ -*----------------------------------*\
  =========                 |
  \\      /  F ield         | OpenFOAM: The Open Source CFD Toolbox
   \\    /   O peration     | Website:  https://openfoam.org
    \\  /    A nd           | Version:  7
     \\/     M anipulation  |
\*---------------------------------------------------------------------------*/
FoamFile
{
    version     2.0;
    format      ascii;
    class       volScalarField;
    location    "17.5";
    object      T;
}
// * * * * * * * * * * * * * * * * * * * * * * * * * * * * * * * * * * * * * //

dimensions      [0 0 0 1 0 0 0];

internalField   nonuniform List<scalar> 
2413
(
1.01171
1.01089
1.01048
1.00978
1.00893
1.00839
1.00793
1.00734
1.01427
1.01308
1.01237
1.01168
1.01059
1.00967
1.00932
1.00888
1.01675
1.0154
1.01443
1.01386
1.01298
1.01192
1.01116
1.01052
1.01963
1.01844
1.01689
1.01597
1.01521
1.01415
1.01322
1.01259
1.02238
1.0215
1.0201
1.01879
1.01793
1.01693
1.01561
1.01445
1.02526
1.02429
1.02318
1.0217
1.02067
1.01985
1.01872
1.01736
1.02877
1.02745
1.0264
1.02497
1.02343
1.0225
1.02161
1.02041
1.03191
1.03044
1.02948
1.02843
1.0269
1.02552
1.02454
1.0234
1.0353
1.03363
1.03218
1.0313
1.03008
1.0287
1.0277
1.0267
1.03853
1.03721
1.03557
1.03442
1.03326
1.03158
1.03037
1.02961
1.0418
1.04057
1.03898
1.03756
1.03653
1.03515
1.03353
1.03246
1.04593
1.04433
1.0428
1.04098
1.03962
1.03847
1.03688
1.03558
1.05014
1.04854
1.04696
1.04525
1.04335
1.04195
1.04045
1.03868
1.05236
1.05167
1.05065
1.04938
1.04775
1.04603
1.04448
1.04262
1.05232
1.05219
1.05203
1.05166
1.05094
1.04986
1.04851
1.04696
1.05246
1.05227
1.05193
1.05167
1.05156
1.0513
1.05083
1.05013
1.0505
1.05142
1.05189
1.0519
1.05156
1.05114
1.05095
1.05088
1.04422
1.04649
1.04871
1.05035
1.05075
1.05108
1.05115
1.05094
1.03254
1.03784
1.04165
1.04454
1.04641
1.04837
1.04996
1.05015
1.05951
1.05858
1.05741
1.05598
1.05464
1.05296
1.05142
1.05016
1.04863
1.04724
1.04603
1.04471
1.04348
1.04231
1.0412
1.04005
1.03877
1.03754
1.03633
1.03509
1.0337
1.03251
1.03149
1.03026
1.02889
1.02789
1.02692
1.02566
1.02424
1.02327
1.02225
1.02078
1.01947
1.01844
1.01733
1.016
1.0147
1.01378
1.01266
1.01129
1.0103
1.00913
1.00802
1.00691
1.0056
1.00469
1.00359
1.00235
1.00135
0.999994
0.998641
0.997214
0.996059
0.996082
0.99697
1.00033
1.01032
1.02721
1.04318
1.04768
1.0478
1.04743
1.04613
1.04407
1.04206
1.04
1.03813
1.037
1.03592
1.03475
1.03394
1.03308
1.03235
1.0317
1.03094
1.03034
1.00667
1.00605
1.00571
1.00541
1.00498
1.00444
1.00403
1.00375
1.00334
1.00277
1.00242
1.00212
1.00175
1.00144
1.00113
1.00082
1.00072
1.00071
1.00076
1.00087
1.00102
1.00121
1.00141
1.00161
1.00183
1.00207
1.00233
1.00259
1.00286
1.00316
1.00336
1.00358
1.00429
1.00662
1.01157
1.01974
1.03087
1.04122
1.05048
1.05758
1.05974
1.06035
1.06017
1.05953
1.05904
1.05863
1.05791
1.05694
1.05591
1.05457
1.05291
1.05165
1.05026
1.04886
1.04779
1.04655
1.0453
1.04414
1.04288
1.04163
1.04031
1.03912
1.03807
1.03695
1.0358
1.03467
1.03356
1.03236
1.03092
1.02971
1.02863
1.02735
1.02607
1.02515
1.02425
1.02294
1.02155
1.02048
1.01925
1.01783
1.01645
1.01546
1.0145
1.01313
1.01212
1.01117
1.0099
1.00879
1.00748
1.00632
1.00529
1.00396
1.00296
1.00187
1.00051
0.999199
0.997697
0.997188
0.99755
0.99937
1.00541
1.01936
1.03698
1.04772
1.0491
1.04893
1.04812
1.04655
1.04474
1.04272
1.04071
1.03934
1.03813
1.03663
1.03548
1.03446
1.03319
1.03226
1.03138
1.0304
1.0083
1.00772
1.00725
1.00692
1.00654
1.00599
1.00536
1.00507
1.00473
1.0042
1.00388
1.00361
1.00326
1.00297
1.00268
1.00236
1.00206
1.00178
1.00161
1.00157
1.00162
1.00175
1.00192
1.00211
1.00231
1.0025
1.0027
1.00286
1.00302
1.00316
1.0033
1.00347
1.0036
1.00385
1.00476
1.00738
1.01304
1.02131
1.03219
1.04229
1.04981
1.05494
1.0579
1.05884
1.05891
1.05864
1.05791
1.05714
1.0565
1.05569
1.0544
1.05311
1.05188
1.05032
1.04916
1.04804
1.04676
1.04573
1.04459
1.04334
1.04212
1.04087
1.03973
1.03842
1.03715
1.03617
1.03512
1.03407
1.03289
1.03165
1.03054
1.02929
1.02793
1.02672
1.02564
1.02441
1.02307
1.02208
1.02099
1.01963
1.01843
1.01731
1.01627
1.015
1.01372
1.01282
1.01159
1.01032
1.00917
1.00785
1.00682
1.00561
1.00448
1.0036
1.00237
1.0011
0.999695
0.998455
0.998423
0.999316
1.0026
1.01221
1.0288
1.04471
1.04992
1.05017
1.0498
1.04871
1.04721
1.04534
1.04341
1.04202
1.04074
1.03926
1.03797
1.0368
1.03535
1.03396
1.03287
1.0316
1.00986
1.00914
1.00844
1.00821
1.00802
1.00759
1.007
1.00665
1.00633
1.00579
1.00529
1.00491
1.00441
1.00413
1.00395
1.0037
1.00348
1.00324
1.00298
1.00276
1.00264
1.00258
1.00259
1.00265
1.00279
1.00295
1.00313
1.00331
1.00346
1.00356
1.00363
1.00368
1.00371
1.00375
1.00376
1.00414
1.00551
1.00857
1.01474
1.02351
1.03351
1.04295
1.04907
1.05349
1.05611
1.05727
1.05724
1.05706
1.05676
1.0563
1.05562
1.05466
1.05361
1.05221
1.05082
1.04965
1.04818
1.04688
1.04583
1.04463
1.0436
1.04256
1.04146
1.04028
1.03891
1.03775
1.03652
1.03511
1.03413
1.0331
1.03211
1.03106
1.02982
1.02856
1.02724
1.02595
1.02457
1.02336
1.02239
1.02113
1.02009
1.01909
1.01791
1.01674
1.01535
1.01425
1.01319
1.01183
1.01076
1.00957
1.0084
1.00734
1.00606
1.00515
1.0041
1.00282
1.00158
1.00012
0.999506
0.999818
1.00155
1.00718
1.02044
1.03785
1.04957
1.05146
1.05135
1.05067
1.04952
1.04789
1.046
1.04461
1.04338
1.04196
1.04078
1.03965
1.0382
1.03673
1.03547
1.03405
1.01202
1.01138
1.01056
1.00974
1.00938
1.00895
1.00824
1.00793
1.00775
1.00735
1.00691
1.00653
1.00601
1.00555
1.00527
1.00483
1.00446
1.00431
1.0041
1.00392
1.0038
1.00367
1.0036
1.00357
1.00354
1.00356
1.0036
1.00368
1.00378
1.00389
1.00396
1.00399
1.00399
1.00393
1.00383
1.00377
1.00386
1.00438
1.00615
1.00978
1.01613
1.02506
1.0343
1.04347
1.04972
1.05241
1.0544
1.05547
1.05593
1.05609
1.05586
1.05546
1.05484
1.05398
1.05276
1.0516
1.05025
1.04879
1.04762
1.0463
1.04485
1.04376
1.04264
1.04164
1.04058
1.03944
1.03831
1.03688
1.03563
1.03451
1.03318
1.03218
1.03117
1.03013
1.02898
1.02765
1.02638
1.02499
1.02383
1.02271
1.02159
1.02073
1.01964
1.01843
1.01725
1.01588
1.0147
1.01329
1.01206
1.01116
1.01003
1.00909
1.00804
1.00697
1.00605
1.00479
1.00348
1.00202
1.0007
1.00065
1.00148
1.00452
1.01333
1.02925
1.04563
1.0524
1.05293
1.05259
1.0518
1.05047
1.04861
1.04714
1.0459
1.04453
1.04345
1.04248
1.04118
1.0398
1.0386
1.03724
1.01394
1.01352
1.01283
1.01192
1.0114
1.01095
1.01019
1.00953
1.00922
1.00868
1.00817
1.00791
1.00748
1.00705
1.00676
1.00634
1.0059
1.00563
1.00526
1.00482
1.00466
1.00451
1.00445
1.00444
1.0044
1.00436
1.00436
1.00433
1.00428
1.00425
1.00421
1.00418
1.00419
1.0041
1.00393
1.0038
1.00359
1.00352
1.00369
1.0044
1.00644
1.01089
1.01731
1.02623
1.03489
1.04221
1.04878
1.05281
1.05405
1.05506
1.05531
1.05507
1.05497
1.05491
1.0544
1.05351
1.05241
1.05104
1.04981
1.04856
1.04708
1.04584
1.0446
1.04314
1.04184
1.04062
1.03965
1.03864
1.03749
1.03642
1.03508
1.03376
1.0326
1.03127
1.03028
1.02924
1.02813
1.02702
1.02578
1.02463
1.02327
1.02212
1.02116
1.01995
1.01897
1.01783
1.01658
1.01541
1.01402
1.01298
1.0119
1.01069
1.00977
1.0087
1.00786
1.00688
1.0056
1.00431
1.00272
1.00198
1.00224
1.00385
1.00879
1.02086
1.03803
1.05156
1.05454
1.05454
1.05412
1.05313
1.05137
1.04979
1.04847
1.04706
1.04601
1.04514
1.04399
1.04276
1.04171
1.04048
1.01634
1.01579
1.01513
1.01408
1.01334
1.01301
1.01239
1.01162
1.01121
1.01067
1.01
1.0096
1.00906
1.00839
1.00809
1.00771
1.00728
1.00705
1.00669
1.00624
1.00598
1.00566
1.00526
1.00511
1.005
1.00496
1.005
1.00497
1.00487
1.00479
1.0047
1.00455
1.00442
1.00426
1.00405
1.00387
1.00362
1.0034
1.00312
1.00304
1.00325
1.00425
1.00647
1.0111
1.01802
1.02626
1.0351
1.04184
1.0472
1.05138
1.05372
1.05438
1.05506
1.05522
1.055
1.05462
1.05418
1.05343
1.05233
1.05113
1.04971
1.04834
1.04712
1.04565
1.0443
1.04303
1.04155
1.04012
1.03888
1.03795
1.037
1.03583
1.03474
1.03346
1.03202
1.03092
1.02965
1.02863
1.02769
1.02665
1.02556
1.02425
1.0231
1.02184
1.02049
1.01946
1.01826
1.01729
1.01625
1.01513
1.01422
1.01304
1.01194
1.01091
1.00979
1.00889
1.00771
1.00649
1.00515
1.00378
1.00367
1.00432
1.00695
1.01438
1.02911
1.04606
1.05543
1.0566
1.05642
1.05579
1.05434
1.05267
1.05125
1.04972
1.04855
1.04772
1.04667
1.04553
1.04462
1.04353
1.0192
1.01851
1.0179
1.01694
1.01581
1.0153
1.01468
1.01371
1.01323
1.01275
1.01209
1.01166
1.01115
1.01039
1.00991
1.00941
1.0087
1.00839
1.00805
1.00757
1.00735
1.00704
1.00657
1.00633
1.0061
1.00574
1.00557
1.00544
1.00526
1.00522
1.00516
1.00499
1.00483
1.00462
1.00432
1.0041
1.00381
1.00342
1.00312
1.00284
1.00248
1.00244
1.00267
1.00367
1.00616
1.01055
1.0176
1.02553
1.03421
1.04104
1.04578
1.04969
1.05263
1.05408
1.0545
1.05487
1.05503
1.05482
1.05431
1.05366
1.05275
1.05148
1.05019
1.04877
1.04722
1.04597
1.04454
1.04308
1.04177
1.04029
1.03879
1.03753
1.03659
1.03569
1.03448
1.03338
1.03227
1.0308
1.02963
1.02839
1.02728
1.02628
1.02521
1.02421
1.02292
1.02176
1.02068
1.01947
1.01846
1.0173
1.01631
1.01539
1.01422
1.0133
1.01226
1.01123
1.01025
1.009
1.00781
1.00634
1.00551
1.00567
1.00688
1.0108
1.02105
1.03742
1.05283
1.05831
1.05865
1.05838
1.05741
1.05581
1.05431
1.05266
1.05126
1.05037
1.04936
1.04823
1.04739
1.04642
1.02205
1.02111
1.02063
1.01989
1.01874
1.01805
1.01744
1.01639
1.01565
1.01506
1.01419
1.0137
1.01327
1.01256
1.01205
1.01156
1.01077
1.01027
1.00983
1.00914
1.00876
1.00843
1.00786
1.00762
1.00739
1.00697
1.00672
1.00649
1.00612
1.00584
1.00563
1.00529
1.00514
1.005
1.00473
1.00448
1.00417
1.00372
1.00339
1.00305
1.00255
1.00223
1.00179
1.00166
1.00189
1.00278
1.00525
1.00944
1.01578
1.02393
1.0317
1.03992
1.04488
1.04803
1.05089
1.05297
1.05415
1.05444
1.05469
1.05478
1.05453
1.05395
1.0532
1.05225
1.05094
1.04957
1.04819
1.04656
1.0452
1.0438
1.04223
1.04085
1.0394
1.038
1.0367
1.03559
1.03475
1.03356
1.03232
1.03123
1.02983
1.02858
1.0274
1.02628
1.02529
1.02418
1.02329
1.02221
1.02107
1.02004
1.01886
1.01787
1.01679
1.0157
1.01482
1.01374
1.0128
1.01177
1.01056
1.00933
1.00791
1.00757
1.00797
1.00991
1.01552
1.02833
1.04523
1.05807
1.06077
1.06082
1.06035
1.05905
1.05758
1.0559
1.05423
1.0532
1.05218
1.05099
1.05016
1.04927
1.0254
1.02401
1.02333
1.02269
1.02156
1.02074
1.02021
1.0193
1.01847
1.01783
1.01689
1.01615
1.01564
1.01479
1.01418
1.01372
1.01297
1.01241
1.01198
1.01126
1.01074
1.01034
1.00964
1.00916
1.00883
1.00823
1.00791
1.00771
1.00733
1.00702
1.00673
1.00626
1.00586
1.00555
1.00504
1.00474
1.00452
1.00413
1.0038
1.00345
1.0029
1.00246
1.00207
1.00155
1.00115
1.0009
1.001
1.0017
1.0036
1.00776
1.01338
1.02079
1.02893
1.03602
1.04332
1.04707
1.0493
1.05148
1.05302
1.05401
1.0542
1.05436
1.05437
1.0541
1.05352
1.05277
1.05182
1.05057
1.04918
1.04782
1.04624
1.04476
1.04339
1.04183
1.0404
1.03893
1.03752
1.03626
1.03487
1.03392
1.03284
1.03153
1.03047
1.02923
1.028
1.0269
1.0258
1.02484
1.02368
1.02272
1.02176
1.02058
1.01957
1.01843
1.01743
1.01646
1.01538
1.01453
1.01346
1.01231
1.011
1.00979
1.00975
1.01049
1.01321
1.02088
1.0356
1.05211
1.06192
1.06313
1.06299
1.06217
1.06092
1.05935
1.05747
1.05621
1.05516
1.05388
1.05296
1.05212
1.02867
1.02739
1.02645
1.02579
1.02469
1.02355
1.02293
1.02204
1.02112
1.02055
1.01972
1.01888
1.01835
1.01754
1.01675
1.01622
1.01539
1.01463
1.01418
1.01347
1.01288
1.01251
1.01187
1.01126
1.01086
1.01019
1.00959
1.00926
1.00866
1.00818
1.00795
1.00751
1.00708
1.00672
1.00614
1.00561
1.00526
1.00468
1.00414
1.00383
1.00333
1.00283
1.00249
1.00194
1.00137
1.00097
1.00058
1.00001
1.00008
1.00057
1.00202
1.005
1.01044
1.01696
1.02456
1.03219
1.03871
1.04515
1.04802
1.04977
1.05155
1.05277
1.0536
1.05379
1.05389
1.05379
1.05343
1.05288
1.05221
1.0513
1.05016
1.04889
1.04761
1.04613
1.04458
1.04318
1.04161
1.04012
1.03863
1.03714
1.03592
1.03451
1.03342
1.03243
1.03112
1.03004
1.0289
1.02767
1.02649
1.02531
1.02444
1.02338
1.02226
1.02135
1.02025
1.01925
1.01815
1.01715
1.0163
1.01516
1.01402
1.01267
1.01179
1.01194
1.01308
1.01675
1.02664
1.04248
1.05797
1.0648
1.0653
1.06496
1.06411
1.06284
1.06095
1.05941
1.05826
1.05688
1.05584
1.055
1.03156
1.03028
1.0292
1.02866
1.02784
1.02673
1.02601
1.02518
1.02406
1.02334
1.02248
1.02146
1.02093
1.02026
1.01944
1.01893
1.01822
1.01735
1.01679
1.01604
1.0152
1.01477
1.01414
1.01344
1.01307
1.01248
1.01178
1.01137
1.01077
1.01006
1.00968
1.00909
1.00834
1.00798
1.00743
1.00686
1.0065
1.00591
1.00519
1.00473
1.00415
1.00336
1.00293
1.00242
1.00173
1.00133
1.00092
1.00031
0.999911
0.999524
0.999114
0.999341
1.00032
1.00256
1.00641
1.01247
1.01942
1.02684
1.03383
1.03999
1.0459
1.0481
1.04952
1.0511
1.05222
1.0529
1.05311
1.05317
1.05301
1.0525
1.05189
1.05128
1.05049
1.04946
1.04834
1.04717
1.04586
1.04434
1.0429
1.04138
1.03986
1.03842
1.0369
1.03568
1.03432
1.03302
1.03202
1.03078
1.02957
1.02839
1.02723
1.02619
1.02487
1.02393
1.02305
1.02195
1.021
1.01993
1.01898
1.018
1.01679
1.01559
1.0142
1.01372
1.01407
1.01577
1.02063
1.03238
1.0488
1.06278
1.06711
1.0673
1.06694
1.06611
1.06451
1.06277
1.06145
1.06
1.05878
1.05792
1.03472
1.03367
1.03225
1.03145
1.03063
1.0294
1.02873
1.02806
1.0271
1.02638
1.02563
1.02451
1.02376
1.02303
1.02202
1.02146
1.02088
1.02004
1.01951
1.01887
1.01798
1.01743
1.0168
1.01594
1.01546
1.01489
1.01405
1.01362
1.01309
1.0123
1.01187
1.01131
1.01047
1.00996
1.00936
1.00841
1.00787
1.00726
1.00641
1.006
1.00548
1.00464
1.00402
1.00346
1.00257
1.00194
1.00145
1.00069
1.00017
0.999787
0.99922
0.998806
0.998467
0.998311
0.998668
1.00001
1.00284
1.00729
1.01348
1.02048
1.02771
1.0341
1.03994
1.04573
1.04758
1.04874
1.05026
1.05135
1.05194
1.05214
1.05214
1.05188
1.05121
1.05049
1.04991
1.04919
1.04827
1.04729
1.0463
1.0452
1.04383
1.04243
1.04099
1.03948
1.03805
1.0365
1.03519
1.03394
1.03253
1.03141
1.03025
1.02909
1.02791
1.02667
1.02574
1.02461
1.0235
1.02261
1.02155
1.02064
1.01956
1.01833
1.01701
1.01568
1.01553
1.01613
1.01834
1.02446
1.03781
1.05428
1.06643
1.06924
1.06931
1.06898
1.06791
1.06621
1.06475
1.06321
1.06179
1.06086
1.0377
1.03687
1.03554
1.03458
1.03377
1.03253
1.03161
1.03087
1.02973
1.02898
1.02837
1.02741
1.02667
1.02604
1.02506
1.02432
1.0237
1.02273
1.02208
1.02151
1.02064
1.02007
1.01955
1.0187
1.01816
1.01764
1.01678
1.01621
1.01568
1.01477
1.0142
1.0137
1.01281
1.01224
1.01171
1.01077
1.01006
1.00944
1.00841
1.00763
1.00701
1.00597
1.00528
1.00484
1.00402
1.00327
1.0027
1.00184
1.00096
1.00045
0.999713
0.999037
0.998618
0.998164
0.997675
0.997393
0.99752
0.998071
0.999622
1.00267
1.00736
1.0135
1.02023
1.02736
1.03343
1.03879
1.04448
1.04635
1.04736
1.04895
1.0501
1.0506
1.0507
1.05068
1.0504
1.04966
1.04878
1.04812
1.04745
1.04659
1.04572
1.04494
1.04409
1.04294
1.04159
1.04023
1.03879
1.03742
1.03597
1.03453
1.03331
1.032
1.03083
1.02967
1.0285
1.02744
1.02619
1.02516
1.02413
1.02302
1.02213
1.02099
1.01973
1.01836
1.01727
1.0173
1.01816
1.02084
1.0282
1.04276
1.05876
1.06934
1.07126
1.07129
1.07085
1.06953
1.06808
1.06649
1.06489
1.06386
1.04106
1.04012
1.03883
1.0376
1.03681
1.03565
1.03462
1.03389
1.03279
1.03186
1.03121
1.03019
1.02925
1.02868
1.02778
1.02702
1.02649
1.02568
1.02492
1.02437
1.02348
1.02274
1.0222
1.02136
1.02074
1.0203
1.01954
1.01894
1.01848
1.01766
1.01696
1.01645
1.01554
1.01476
1.01422
1.01327
1.01243
1.01188
1.01094
1.01
1.00936
1.00837
1.00732
1.00667
1.00576
1.0046
1.0041
1.00342
1.00248
1.0019
1.00115
1.00006
0.999387
0.99874
0.997965
0.997519
0.997131
0.996637
0.996362
0.996616
0.997376
0.999039
1.00204
1.00661
1.01262
1.0189
1.02575
1.03179
1.03677
1.04222
1.04461
1.04539
1.04697
1.04827
1.04881
1.04887
1.04883
1.04859
1.04784
1.04677
1.04608
1.0455
1.04466
1.04386
1.04317
1.04246
1.04161
1.04045
1.0392
1.0379
1.03655
1.03525
1.03388
1.03264
1.03139
1.03015
1.02903
1.02785
1.02682
1.02567
1.02459
1.02363
1.02235
1.02107
1.01967
1.01881
1.01897
1.02011
1.02327
1.03175
1.04707
1.06246
1.07186
1.07319
1.07318
1.07248
1.07131
1.06986
1.06807
1.06687
1.04529
1.04398
1.04266
1.04109
1.04007
1.03895
1.03763
1.03683
1.03583
1.03471
1.03405
1.03312
1.03208
1.03145
1.03064
1.02965
1.02906
1.02826
1.02741
1.02695
1.02626
1.02551
1.02502
1.02428
1.02351
1.02302
1.02228
1.02153
1.0211
1.02042
1.0197
1.01926
1.01853
1.01769
1.01712
1.01626
1.0152
1.01456
1.01366
1.0125
1.01185
1.01104
1.00989
1.00917
1.00835
1.00711
1.0063
1.00555
1.00429
1.00343
1.00281
1.00173
1.00098
1.00034
0.999285
0.998393
0.99777
0.997036
0.996477
0.996233
0.995935
0.995599
0.99578
0.996495
0.998149
1.00101
1.00519
1.01085
1.01677
1.02304
1.0292
1.03419
1.03911
1.04247
1.04319
1.04454
1.04596
1.04664
1.04671
1.04663
1.04648
1.04585
1.04469
1.04386
1.04344
1.04279
1.04195
1.04128
1.0406
1.03989
1.03901
1.03788
1.03675
1.03553
1.03434
1.03308
1.03186
1.03072
1.02949
1.02838
1.02721
1.02615
1.02509
1.02373
1.02241
1.02096
1.02025
1.02052
1.02188
1.02558
1.03503
1.05068
1.06564
1.07411
1.07504
1.07493
1.07429
1.07318
1.07141
1.06997
1.04916
1.04798
1.04674
1.04529
1.04394
1.04275
1.04121
1.04004
1.03907
1.03777
1.0369
1.03606
1.03486
1.03413
1.03338
1.03234
1.0317
1.03103
1.03011
1.02952
1.02885
1.02792
1.02744
1.02687
1.02614
1.02571
1.02515
1.02436
1.02387
1.02326
1.02239
1.02191
1.0213
1.02042
1.01991
1.01927
1.01827
1.01758
1.0168
1.01557
1.01473
1.01393
1.01265
1.01177
1.01107
1.00991
1.00898
1.00828
1.00713
1.00602
1.00528
1.00418
1.00294
1.00223
1.0012
1.00003
0.999426
0.998554
0.997569
0.996973
0.996384
0.995736
0.995527
0.995333
0.995116
0.99524
0.995797
0.997113
0.999565
1.00323
1.00832
1.0142
1.01996
1.02582
1.03116
1.03565
1.03957
1.04079
1.04181
1.04325
1.04419
1.04432
1.04424
1.04419
1.04377
1.04268
1.04169
1.04128
1.04081
1.04005
1.03935
1.03866
1.03798
1.03725
1.03637
1.03539
1.03434
1.03329
1.03217
1.03093
1.02982
1.02867
1.02764
1.02654
1.0252
1.02385
1.0224
1.02182
1.0222
1.02372
1.02784
1.03791
1.05369
1.06836
1.07605
1.07701
1.0769
1.07628
1.07482
1.07319
1.05058
1.05009
1.04954
1.04882
1.04778
1.0466
1.04525
1.04382
1.04272
1.0414
1.04006
1.03913
1.03792
1.03696
1.03622
1.03511
1.03427
1.0336
1.03261
1.03199
1.03143
1.03061
1.03003
1.0295
1.02861
1.02803
1.02755
1.02682
1.02637
1.02597
1.02525
1.02471
1.02419
1.02329
1.02263
1.02205
1.02106
1.02036
1.01977
1.01874
1.01785
1.01713
1.01595
1.01483
1.01407
1.01293
1.01174
1.01105
1.01009
1.00891
1.00818
1.00726
1.00592
1.00503
1.00409
1.00265
1.00169
1.00083
0.999439
0.998603
0.997953
0.996926
0.996383
0.995953
0.995353
0.995081
0.99488
0.994724
0.994818
0.9953
0.996367
0.998358
1.00151
1.00584
1.01132
1.01686
1.02222
1.0276
1.03205
1.03597
1.038
1.03889
1.0403
1.04149
1.04193
1.04185
1.04184
1.04155
1.04059
1.03954
1.03907
1.03871
1.03808
1.03736
1.03674
1.03611
1.0354
1.03461
1.0338
1.03285
1.03187
1.03099
1.03001
1.02904
1.02796
1.0267
1.0254
1.02401
1.02348
1.0239
1.02544
1.03011
1.04039
1.05632
1.07036
1.07849
1.07933
1.07921
1.07827
1.07669
1.05044
1.0502
1.05019
1.05006
1.04964
1.04903
1.04834
1.04744
1.04638
1.0452
1.04377
1.04259
1.04143
1.04015
1.03923
1.03814
1.03709
1.03636
1.03535
1.03441
1.03385
1.03299
1.03232
1.0319
1.03119
1.03055
1.03011
1.02939
1.02866
1.02823
1.02755
1.02702
1.0267
1.02608
1.02544
1.02494
1.0241
1.02321
1.02259
1.02162
1.02064
1.02003
1.01912
1.01802
1.01727
1.01631
1.01498
1.01413
1.01324
1.01191
1.01109
1.01032
1.00911
1.00816
1.00735
1.00605
1.00485
1.00397
1.00262
1.00132
1.00053
0.999337
0.998165
0.99755
0.99665
0.995913
0.995543
0.995076
0.994937
0.994735
0.994582
0.99465
0.995008
0.995872
0.997468
1.00009
1.00367
1.00838
1.01366
1.01859
1.02371
1.02843
1.03189
1.03471
1.03601
1.03728
1.03858
1.0393
1.03937
1.0394
1.03931
1.03862
1.03751
1.03682
1.03648
1.03605
1.03534
1.03465
1.03408
1.03353
1.03287
1.03217
1.03147
1.03068
1.02991
1.02901
1.02792
1.02672
1.02538
1.02496
1.02533
1.02705
1.03179
1.04252
1.05792
1.07237
1.08062
1.08134
1.08122
1.08028
1.05007
1.05031
1.05044
1.05027
1.04979
1.04946
1.04928
1.049
1.04852
1.04781
1.04696
1.046
1.04502
1.04381
1.04264
1.04156
1.04029
1.0393
1.03832
1.03716
1.03648
1.03571
1.03474
1.03415
1.03345
)
;

boundaryField
{
    inlet
    {
        type            fixedValue;
        value           nonuniform 0();
    }
    outlet
    {
        type            inletOutlet;
        inletValue      nonuniform 0();
        value           nonuniform 0();
    }
    bottom
    {
        type            symmetryPlane;
    }
    top
    {
        type            symmetryPlane;
    }
    obstacle
    {
        type            zeroGradient;
    }
    front
    {
        type            empty;
    }
    back
    {
        type            empty;
    }
    procBoundary37to29
    {
        type            processor;
        value           nonuniform List<scalar> 
129
(
1.00995
1.00943
1.0089
1.00808
1.00734
1.00695
1.0064
1.00568
1.05913
1.05769
1.05581
1.05421
1.05277
1.05101
1.04964
1.04839
1.04687
1.04549
1.04427
1.04294
1.04157
1.04041
1.03927
1.03803
1.0367
1.0354
1.03419
1.03289
1.03141
1.03037
1.02947
1.02832
1.02701
1.02593
1.02486
1.0234
1.02189
1.02097
1.01991
1.01858
1.01747
1.01653
1.01553
1.01411
1.01279
1.01176
1.01037
1.00915
1.00807
1.00694
1.00608
1.00494
1.00385
1.00293
1.00163
1.0005
0.999326
0.997886
0.996592
0.995136
0.99463
0.994974
0.996733
1.00276
1.01673
1.03462
1.04523
1.04648
1.04623
1.04542
1.04361
1.04132
1.0394
1.03761
1.03628
1.03554
1.03481
1.03406
1.03343
1.03284
1.03232
1.03174
1.03181
1.0325
1.00509
1.00473
1.0044
1.00401
1.00352
1.0029
1.00246
1.00211
1.00157
1.00104
1.00081
1.00056
1.00026
1.00013
1.00003
0.999931
0.999946
1.00002
1.00013
1.0003
1.0005
1.00074
1.00103
1.00137
1.00172
1.00207
1.0024
1.00271
1.00294
1.00323
1.00403
1.00623
1.01071
1.01894
1.02978
1.04152
1.05276
1.05772
1.06057
1.06181
1.0621
1.06217
1.06163
1.0606
1.0606
)
;
    }
    procBoundary37to30
    {
        type            processor;
        value           nonuniform List<scalar> 3(1.02989 1.02983 1.03054);
    }
    procBoundary37to36
    {
        type            processor;
        value           uniform 1.01292;
    }
    procBoundary37to38
    {
        type            processor;
        value           nonuniform List<scalar> 
16
(
1.0326
1.03572
1.03907
1.04223
1.04518
1.04804
1.0509
1.05381
1.05678
1.05978
1.06283
1.06582
1.06882
1.07188
1.07529
1.07902
)
;
    }
    procBoundary37to44
    {
        type            processor;
        value           nonuniform List<scalar> 
18
(
1.01525
1.01761
1.02052
1.0234
1.0269
1.03031
1.03321
1.03642
1.03957
1.04339
1.04776
1.0514
1.05264
1.05259
1.05242
1.04866
1.04124
1.02554
)
;
    }
    procBoundary37to45
    {
        type            processor;
        value           nonuniform List<scalar> 
129
(
1.01518
1.02144
1.02706
1.03368
1.03864
1.04172
1.04475
1.0462
1.03266
1.03231
1.03178
1.03112
1.03069
1.03013
1.02934
1.0289
1.02833
1.02764
1.02731
1.02678
1.026
1.02544
1.02467
1.02359
1.02288
1.02204
1.02085
1.02012
1.01936
1.01817
1.0173
1.01651
1.01525
1.01422
1.01346
1.01229
1.01122
1.01051
1.00945
1.00824
1.0074
1.0063
1.00485
1.00391
1.00283
1.00131
1.00041
0.999444
0.998121
0.997419
0.996658
0.995835
0.995328
0.994819
0.994693
0.994709
0.994625
0.994642
0.994819
0.995445
0.996701
0.9988
1.0018
1.00564
1.01047
1.01517
1.01957
1.02439
1.02817
1.03102
1.03288
1.03407
1.03543
1.0364
1.03679
1.03692
1.03693
1.03648
1.03544
1.0346
1.03417
1.03398
1.03362
1.033
1.03233
1.0317
1.03109
1.03048
1.02981
1.029
1.02815
1.02717
1.02612
1.02601
1.02639
1.0279
1.03284
1.04379
1.05914
1.07385
1.08211
1.08377
1.08358
1.04742
1.04878
1.04954
1.04951
1.04957
1.04959
1.04946
1.04921
1.04879
1.04845
1.04822
1.04791
1.04739
1.04664
1.04575
1.04485
1.04378
1.04261
1.0416
1.04044
1.0394
1.03857
1.03747
1.03665
1.03266
1.03603
)
;
    }
}


// ************************************************************************* //
