/*--------------------------------*- C++ -*----------------------------------*\
  =========                 |
  \\      /  F ield         | OpenFOAM: The Open Source CFD Toolbox
   \\    /   O peration     | Website:  https://openfoam.org
    \\  /    A nd           | Version:  7
     \\/     M anipulation  |
\*---------------------------------------------------------------------------*/
FoamFile
{
    version     2.0;
    format      ascii;
    class       volVectorField;
    location    "0.182";
    object      U;
}
// * * * * * * * * * * * * * * * * * * * * * * * * * * * * * * * * * * * * * //

dimensions      [0 1 -1 0 0 0 0];

internalField   nonuniform List<vector> 
40000
(
(-1.0363e-07 6.44591e-08 0)
(9.97577e-07 -7.66005e-07 0)
(4.26573e-06 -1.45126e-06 0)
(8.80806e-06 -1.81915e-06 0)
(1.38801e-05 -1.94041e-06 0)
(1.89551e-05 -1.88847e-06 0)
(2.364e-05 -1.71691e-06 0)
(2.7644e-05 -1.4638e-06 0)
(3.07558e-05 -1.15528e-06 0)
(3.2823e-05 -8.09275e-07 0)
(3.37359e-05 -4.38309e-07 0)
(3.34177e-05 -5.13708e-08 0)
(3.18162e-05 3.44949e-07 0)
(2.88985e-05 7.45696e-07 0)
(2.46472e-05 1.14709e-06 0)
(1.90567e-05 1.54621e-06 0)
(1.2131e-05 1.94073e-06 0)
(3.88203e-06 2.32888e-06 0)
(-5.67194e-06 2.70921e-06 0)
(-1.65076e-05 3.0806e-06 0)
(-2.85973e-05 3.44213e-06 0)
(-4.19101e-05 3.79307e-06 0)
(-5.64121e-05 4.13283e-06 0)
(-7.20672e-05 4.46096e-06 0)
(-8.88375e-05 4.7771e-06 0)
(-0.000106683 5.08098e-06 0)
(-0.000125564 5.37238e-06 0)
(-0.000145438 5.65116e-06 0)
(-0.000166263 5.91721e-06 0)
(-0.000187995 6.17046e-06 0)
(-0.000210592 6.41088e-06 0)
(-0.000234009 6.63849e-06 0)
(-0.000258203 6.8533e-06 0)
(-0.00028313 7.05537e-06 0)
(-0.000308746 7.24475e-06 0)
(-0.000335008 7.42155e-06 0)
(-0.000361871 7.58585e-06 0)
(-0.000389293 7.73776e-06 0)
(-0.00041723 7.87742e-06 0)
(-0.000445641 8.00494e-06 0)
(-0.000474482 8.12047e-06 0)
(-0.000503711 8.22415e-06 0)
(-0.000533288 8.31614e-06 0)
(-0.000563172 8.3966e-06 0)
(-0.000593321 8.46569e-06 0)
(-0.000623697 8.52357e-06 0)
(-0.000654259 8.57042e-06 0)
(-0.000684969 8.60642e-06 0)
(-0.000715789 8.63173e-06 0)
(-0.000746681 8.64654e-06 0)
(-0.000777609 8.65103e-06 0)
(-0.000808535 8.64539e-06 0)
(-0.000839424 8.62979e-06 0)
(-0.00087024 8.60443e-06 0)
(-0.00090095 8.56949e-06 0)
(-0.00093152 8.52516e-06 0)
(-0.000961915 8.47163e-06 0)
(-0.000992104 8.40909e-06 0)
(-0.00102206 8.33773e-06 0)
(-0.00105174 8.25773e-06 0)
(-0.00108112 8.1693e-06 0)
(-0.00111017 8.07261e-06 0)
(-0.00113886 7.96787e-06 0)
(-0.00116716 7.85525e-06 0)
(-0.00119505 7.73496e-06 0)
(-0.0012225 7.60718e-06 0)
(-0.00124947 7.47211e-06 0)
(-0.00127596 7.32994e-06 0)
(-0.00130192 7.18085e-06 0)
(-0.00132733 7.02504e-06 0)
(-0.00135218 6.86269e-06 0)
(-0.00137643 6.69401e-06 0)
(-0.00140007 6.51919e-06 0)
(-0.00142308 6.33841e-06 0)
(-0.00144542 6.15187e-06 0)
(-0.00146709 5.95976e-06 0)
(-0.00148806 5.76228e-06 0)
(-0.00150832 5.5596e-06 0)
(-0.00152784 5.35194e-06 0)
(-0.00154661 5.13948e-06 0)
(-0.00156461 4.92242e-06 0)
(-0.00158183 4.70095e-06 0)
(-0.00159824 4.47527e-06 0)
(-0.00161384 4.24558e-06 0)
(-0.00162861 4.01207e-06 0)
(-0.00164254 3.77493e-06 0)
(-0.00165561 3.53438e-06 0)
(-0.00166781 3.29061e-06 0)
(-0.00167914 3.04382e-06 0)
(-0.00168957 2.79422e-06 0)
(-0.00169911 2.54202e-06 0)
(-0.00170774 2.2874e-06 0)
(-0.00171545 2.0306e-06 0)
(-0.00172224 1.7718e-06 0)
(-0.00172811 1.51122e-06 0)
(-0.00173303 1.24908e-06 0)
(-0.00173701 9.8558e-07 0)
(-0.00174005 7.2094e-07 0)
(-0.00174214 4.55374e-07 0)
(-0.00174328 1.89102e-07 0)
(-0.00174346 -7.76585e-08 0)
(-0.00174268 -3.44684e-07 0)
(-0.00174095 -6.11752e-07 0)
(-0.00173827 -8.78638e-07 0)
(-0.00173463 -1.14512e-06 0)
(-0.00173004 -1.41096e-06 0)
(-0.0017245 -1.67594e-06 0)
(-0.00171801 -1.93982e-06 0)
(-0.00171058 -2.20237e-06 0)
(-0.00170221 -2.46335e-06 0)
(-0.00169292 -2.72253e-06 0)
(-0.0016827 -2.97967e-06 0)
(-0.00167156 -3.23453e-06 0)
(-0.00165952 -3.48687e-06 0)
(-0.00164658 -3.73645e-06 0)
(-0.00163276 -3.98302e-06 0)
(-0.00161806 -4.22634e-06 0)
(-0.0016025 -4.46616e-06 0)
(-0.00158608 -4.70223e-06 0)
(-0.00156883 -4.93432e-06 0)
(-0.00155076 -5.16216e-06 0)
(-0.00153188 -5.38552e-06 0)
(-0.00151222 -5.60414e-06 0)
(-0.00149178 -5.81777e-06 0)
(-0.00147059 -6.02617e-06 0)
(-0.00144867 -6.22908e-06 0)
(-0.00142603 -6.42625e-06 0)
(-0.0014027 -6.61744e-06 0)
(-0.0013787 -6.80239e-06 0)
(-0.00135405 -6.98087e-06 0)
(-0.00132878 -7.15261e-06 0)
(-0.00130291 -7.31738e-06 0)
(-0.00127647 -7.47494e-06 0)
(-0.00124947 -7.62504e-06 0)
(-0.00122196 -7.76744e-06 0)
(-0.00119395 -7.9019e-06 0)
(-0.00116548 -8.02819e-06 0)
(-0.00113657 -8.14607e-06 0)
(-0.00110727 -8.25531e-06 0)
(-0.00107758 -8.35568e-06 0)
(-0.00104756 -8.44696e-06 0)
(-0.00101723 -8.52893e-06 0)
(-0.000986627 -8.60138e-06 0)
(-0.000955783 -8.66409e-06 0)
(-0.000924735 -8.71685e-06 0)
(-0.000893517 -8.75946e-06 0)
(-0.000862167 -8.79172e-06 0)
(-0.000830721 -8.81343e-06 0)
(-0.000799218 -8.82441e-06 0)
(-0.000767695 -8.82448e-06 0)
(-0.000736192 -8.81346e-06 0)
(-0.000704748 -8.7912e-06 0)
(-0.000673404 -8.75752e-06 0)
(-0.0006422 -8.71227e-06 0)
(-0.000611177 -8.6553e-06 0)
(-0.000580377 -8.58647e-06 0)
(-0.000549842 -8.50566e-06 0)
(-0.000519614 -8.41274e-06 0)
(-0.000489736 -8.30761e-06 0)
(-0.000460251 -8.19016e-06 0)
(-0.000431203 -8.0603e-06 0)
(-0.000402635 -7.91795e-06 0)
(-0.000374591 -7.76306e-06 0)
(-0.000347115 -7.59557e-06 0)
(-0.00032025 -7.41544e-06 0)
(-0.000294041 -7.22265e-06 0)
(-0.000268532 -7.01719e-06 0)
(-0.000243766 -6.79907e-06 0)
(-0.000219786 -6.56832e-06 0)
(-0.000196637 -6.325e-06 0)
(-0.00017436 -6.06921e-06 0)
(-0.000152999 -5.80105e-06 0)
(-0.000132594 -5.52067e-06 0)
(-0.000113187 -5.22824e-06 0)
(-9.4817e-05 -4.92399e-06 0)
(-7.75232e-05 -4.6082e-06 0)
(-6.13428e-05 -4.28119e-06 0)
(-4.63115e-05 -3.94337e-06 0)
(-3.24631e-05 -3.59525e-06 0)
(-1.98289e-05 -3.23741e-06 0)
(-8.43773e-06 -2.87057e-06 0)
(1.68491e-06 -2.4956e-06 0)
(1.05174e-05 -2.11352e-06 0)
(1.80427e-05 -1.7256e-06 0)
(2.42494e-05 -1.33341e-06 0)
(2.91327e-05 -9.38884e-07 0)
(3.26961e-05 -5.44473e-07 0)
(3.49529e-05 -1.5325e-07 0)
(3.5929e-05 2.30871e-07 0)
(3.56655e-05 6.02816e-07 0)
(3.4223e-05 9.55883e-07 0)
(3.16874e-05 1.281e-06 0)
(2.81766e-05 1.56561e-06 0)
(2.38512e-05 1.7919e-06 0)
(1.89297e-05 1.93395e-06 0)
(1.37081e-05 1.95427e-06 0)
(8.58186e-06 1.80082e-06 0)
(4.0742e-06 1.40374e-06 0)
(9.06423e-07 6.99714e-07 0)
(-1.18469e-07 -1.1886e-07 0)
(7.4264e-07 -1.05602e-06 0)
(4.67375e-06 -4.71663e-06 0)
(1.26186e-05 -7.54349e-06 0)
(2.28725e-05 -9.10098e-06 0)
(3.4023e-05 -9.56693e-06 0)
(4.49931e-05 -9.17715e-06 0)
(5.48879e-05 -8.13676e-06 0)
(6.29883e-05 -6.61102e-06 0)
(6.87369e-05 -4.72706e-06 0)
(7.17082e-05 -2.58124e-06 0)
(7.1582e-05 -2.46961e-07 0)
(6.81225e-05 2.21933e-06 0)
(6.11613e-05 4.77376e-06 0)
(5.05842e-05 7.38185e-06 0)
(3.63208e-05 1.00162e-05 0)
(1.83367e-05 1.26551e-05 0)
(-3.37386e-06 1.52806e-05 0)
(-2.87924e-05 1.78785e-05 0)
(-5.78809e-05 2.04372e-05 0)
(-9.05852e-05 2.29471e-05 0)
(-0.000126838 2.54004e-05 0)
(-0.000166559 2.77907e-05 0)
(-0.000209662 3.01127e-05 0)
(-0.00025605 3.23621e-05 0)
(-0.000305621 3.45355e-05 0)
(-0.000358267 3.66299e-05 0)
(-0.000413878 3.86432e-05 0)
(-0.000472337 4.05735e-05 0)
(-0.000533528 4.24194e-05 0)
(-0.000597329 4.41799e-05 0)
(-0.000663618 4.58543e-05 0)
(-0.000732274 4.74421e-05 0)
(-0.000803171 4.8943e-05 0)
(-0.000876185 5.03569e-05 0)
(-0.000951192 5.16841e-05 0)
(-0.00102807 5.29246e-05 0)
(-0.00110668 5.4079e-05 0)
(-0.00118692 5.51477e-05 0)
(-0.00126865 5.61314e-05 0)
(-0.00135176 5.70306e-05 0)
(-0.00143611 5.78463e-05 0)
(-0.0015216 5.85792e-05 0)
(-0.00160809 5.92302e-05 0)
(-0.00169548 5.98004e-05 0)
(-0.00178364 6.02906e-05 0)
(-0.00187247 6.0702e-05 0)
(-0.00196184 6.10357e-05 0)
(-0.00205164 6.12927e-05 0)
(-0.00214176 6.14742e-05 0)
(-0.00223209 6.15814e-05 0)
(-0.00232253 6.16155e-05 0)
(-0.00241296 6.15778e-05 0)
(-0.00250329 6.14693e-05 0)
(-0.00259341 6.12915e-05 0)
(-0.00268322 6.10456e-05 0)
(-0.00277263 6.07329e-05 0)
(-0.00286152 6.03546e-05 0)
(-0.00294982 5.99121e-05 0)
(-0.00303742 5.94066e-05 0)
(-0.00312423 5.88395e-05 0)
(-0.00321017 5.82122e-05 0)
(-0.00329515 5.75259e-05 0)
(-0.00337908 5.6782e-05 0)
(-0.00346187 5.59818e-05 0)
(-0.00354345 5.51267e-05 0)
(-0.00362374 5.4218e-05 0)
(-0.00370266 5.32571e-05 0)
(-0.00378012 5.22453e-05 0)
(-0.00385607 5.1184e-05 0)
(-0.00393042 5.00746e-05 0)
(-0.00400311 4.89183e-05 0)
(-0.00407407 4.77166e-05 0)
(-0.00414324 4.64709e-05 0)
(-0.00421054 4.51824e-05 0)
(-0.00427592 4.38527e-05 0)
(-0.00433931 4.2483e-05 0)
(-0.00440067 4.10748e-05 0)
(-0.00445993 3.96293e-05 0)
(-0.00451704 3.81482e-05 0)
(-0.00457195 3.66326e-05 0)
(-0.00462461 3.50841e-05 0)
(-0.00467497 3.3504e-05 0)
(-0.00472298 3.18937e-05 0)
(-0.00476861 3.02547e-05 0)
(-0.00481181 2.85883e-05 0)
(-0.00485254 2.68961e-05 0)
(-0.00489077 2.51794e-05 0)
(-0.00492646 2.34398e-05 0)
(-0.00495958 2.16785e-05 0)
(-0.00499009 1.98972e-05 0)
(-0.00501797 1.80973e-05 0)
(-0.0050432 1.62803e-05 0)
(-0.00506574 1.44476e-05 0)
(-0.00508558 1.26009e-05 0)
(-0.0051027 1.07414e-05 0)
(-0.00511708 8.87095e-06 0)
(-0.0051287 6.99089e-06 0)
(-0.00513756 5.10281e-06 0)
(-0.00514363 3.20827e-06 0)
(-0.00514692 1.30885e-06 0)
(-0.00514742 -5.93896e-07 0)
(-0.00514512 -2.49836e-06 0)
(-0.00514002 -4.40293e-06 0)
(-0.00513213 -6.30601e-06 0)
(-0.00512144 -8.20597e-06 0)
(-0.00510796 -1.01012e-05 0)
(-0.00509171 -1.19899e-05 0)
(-0.00507269 -1.38707e-05 0)
(-0.00505092 -1.57416e-05 0)
(-0.0050264 -1.76012e-05 0)
(-0.00499917 -1.94476e-05 0)
(-0.00496923 -2.12792e-05 0)
(-0.00493662 -2.30943e-05 0)
(-0.00490136 -2.48911e-05 0)
(-0.00486348 -2.6668e-05 0)
(-0.004823 -2.84231e-05 0)
(-0.00477997 -3.01547e-05 0)
(-0.00473441 -3.18612e-05 0)
(-0.00468637 -3.35407e-05 0)
(-0.00463588 -3.51914e-05 0)
(-0.004583 -3.68117e-05 0)
(-0.00452777 -3.83997e-05 0)
(-0.00447023 -3.99537e-05 0)
(-0.00441043 -4.14719e-05 0)
(-0.00434844 -4.29525e-05 0)
(-0.00428431 -4.43938e-05 0)
(-0.00421809 -4.5794e-05 0)
(-0.00414985 -4.71514e-05 0)
(-0.00407966 -4.84641e-05 0)
(-0.00400757 -4.97305e-05 0)
(-0.00393367 -5.09489e-05 0)
(-0.00385801 -5.21174e-05 0)
(-0.00378069 -5.32344e-05 0)
(-0.00370176 -5.42981e-05 0)
(-0.00362132 -5.5307e-05 0)
(-0.00353944 -5.62593e-05 0)
(-0.00345621 -5.71534e-05 0)
(-0.00337171 -5.79876e-05 0)
(-0.00328604 -5.87604e-05 0)
(-0.00319928 -5.94701e-05 0)
(-0.00311154 -6.01152e-05 0)
(-0.00302289 -6.06942e-05 0)
(-0.00293345 -6.12056e-05 0)
(-0.00284331 -6.16479e-05 0)
(-0.00275258 -6.20197e-05 0)
(-0.00266136 -6.23196e-05 0)
(-0.00256975 -6.25462e-05 0)
(-0.00247786 -6.26983e-05 0)
(-0.00238581 -6.27746e-05 0)
(-0.0022937 -6.27739e-05 0)
(-0.00220165 -6.26949e-05 0)
(-0.00210977 -6.25366e-05 0)
(-0.00201818 -6.2298e-05 0)
(-0.001927 -6.19779e-05 0)
(-0.00183635 -6.15756e-05 0)
(-0.00174634 -6.10901e-05 0)
(-0.0016571 -6.05206e-05 0)
(-0.00156876 -5.98664e-05 0)
(-0.00148143 -5.91268e-05 0)
(-0.00139524 -5.83014e-05 0)
(-0.00131031 -5.73895e-05 0)
(-0.00122678 -5.63909e-05 0)
(-0.00114476 -5.53052e-05 0)
(-0.00106438 -5.41323e-05 0)
(-0.000985769 -5.28722e-05 0)
(-0.000909053 -5.1525e-05 0)
(-0.000834357 -5.00909e-05 0)
(-0.000761804 -4.85702e-05 0)
(-0.000691519 -4.69636e-05 0)
(-0.000623624 -4.52718e-05 0)
(-0.00055824 -4.34958e-05 0)
(-0.000495486 -4.16369e-05 0)
(-0.000435479 -3.96966e-05 0)
(-0.000378332 -3.76766e-05 0)
(-0.000324157 -3.55791e-05 0)
(-0.00027306 -3.34069e-05 0)
(-0.000225142 -3.11628e-05 0)
(-0.000180502 -2.88507e-05 0)
(-0.000139228 -2.64749e-05 0)
(-0.000101404 -2.40404e-05 0)
(-6.71026e-05 -2.15535e-05 0)
(-3.63886e-05 -1.90213e-05 0)
(-9.31268e-06 -1.64524e-05 0)
(1.40883e-05 -1.38571e-05 0)
(3.37949e-05 -1.12479e-05 0)
(4.98081e-05 -8.63986e-06 0)
(6.21539e-05 -6.05123e-06 0)
(7.08878e-05 -3.50459e-06 0)
(7.61018e-05 -1.02782e-06 0)
(7.79319e-05 1.34423e-06 0)
(7.65682e-05 3.56758e-06 0)
(7.22683e-05 5.58599e-06 0)
(6.53725e-05 7.32683e-06 0)
(5.63242e-05 8.69543e-06 0)
(4.56949e-05 9.56786e-06 0)
(3.42112e-05 9.78448e-06 0)
(2.27663e-05 9.15029e-06 0)
(1.24194e-05 7.44776e-06 0)
(4.53184e-06 4.5317e-06 0)
(6.99875e-07 9.04654e-07 0)
(1.44046e-06 -4.29239e-06 0)
(7.5207e-06 -1.2652e-05 0)
(1.86345e-05 -1.86563e-05 0)
(3.2318e-05 -2.18977e-05 0)
(4.67371e-05 -2.26674e-05 0)
(6.05125e-05 -2.139e-05 0)
(7.24453e-05 -1.84776e-05 0)
(8.15299e-05 -1.42897e-05 0)
(8.69561e-05 -9.12243e-06 0)
(8.8084e-05 -3.21371e-06 0)
(8.44163e-05 3.24652e-06 0)
(7.55752e-05 1.01067e-05 0)
(6.12821e-05 1.72453e-05 0)
(4.13405e-05 2.45648e-05 0)
(1.56219e-05 3.19861e-05 0)
(-1.59459e-05 3.94448e-05 0)
(-5.33885e-05 4.68883e-05 0)
(-9.66918e-05 5.42734e-05 0)
(-0.00014581 6.15643e-05 0)
(-0.000200669 6.87317e-05 0)
(-0.000261174 7.57512e-05 0)
(-0.000327207 8.26025e-05 0)
(-0.000398639 8.92689e-05 0)
(-0.000475325 9.57364e-05 0)
(-0.000557107 0.000101994 0)
(-0.00064382 0.000108031 0)
(-0.000735292 0.000113841 0)
(-0.000831342 0.000119418 0)
(-0.000931785 0.000124756 0)
(-0.00103643 0.000129852 0)
(-0.00114509 0.000134702 0)
(-0.00125756 0.000139306 0)
(-0.00137366 0.00014366 0)
(-0.00149317 0.000147766 0)
(-0.00161591 0.000151622 0)
(-0.00174166 0.000155228 0)
(-0.00187024 0.000158586 0)
(-0.00200144 0.000161697 0)
(-0.00213506 0.000164562 0)
(-0.00227091 0.000167182 0)
(-0.00240878 0.00016956 0)
(-0.00254849 0.000171697 0)
(-0.00268985 0.000173597 0)
(-0.00283265 0.000175262 0)
(-0.00297671 0.000176694 0)
(-0.00312184 0.000177897 0)
(-0.00326785 0.000178873 0)
(-0.00341458 0.000179625 0)
(-0.00356182 0.000180157 0)
(-0.00370941 0.000180472 0)
(-0.00385717 0.000180574 0)
(-0.00400492 0.000180465 0)
(-0.0041525 0.00018015 0)
(-0.00429974 0.000179632 0)
(-0.00444648 0.000178914 0)
(-0.00459255 0.000178001 0)
(-0.00473779 0.000176895 0)
(-0.00488205 0.000175601 0)
(-0.00502518 0.000174123 0)
(-0.00516703 0.000172465 0)
(-0.00530745 0.000170629 0)
(-0.0054463 0.00016862 0)
(-0.00558344 0.000166443 0)
(-0.00571873 0.0001641 0)
(-0.00585204 0.000161596 0)
(-0.00598323 0.000158935 0)
(-0.00611218 0.00015612 0)
(-0.00623877 0.000153156 0)
(-0.00636288 0.000150046 0)
(-0.00648438 0.000146795 0)
(-0.00660316 0.000143406 0)
(-0.00671912 0.000139884 0)
(-0.00683214 0.000136232 0)
(-0.00694211 0.000132455 0)
(-0.00704895 0.000128557 0)
(-0.00715255 0.000124541 0)
(-0.00725281 0.000120412 0)
(-0.00734964 0.000116173 0)
(-0.00744296 0.00011183 0)
(-0.00753269 0.000107385 0)
(-0.00761873 0.000102844 0)
(-0.00770101 9.82097e-05 0)
(-0.00777947 9.34869e-05 0)
(-0.00785402 8.86797e-05 0)
(-0.0079246 8.37923e-05 0)
(-0.00799115 7.88289e-05 0)
(-0.0080536 7.37937e-05 0)
(-0.0081119 6.8691e-05 0)
(-0.00816599 6.35251e-05 0)
(-0.00821583 5.83003e-05 0)
(-0.00826137 5.3021e-05 0)
(-0.00830256 4.76915e-05 0)
(-0.00833937 4.23162e-05 0)
(-0.00837175 3.68995e-05 0)
(-0.00839969 3.1446e-05 0)
(-0.00842315 2.59601e-05 0)
(-0.0084421 2.04462e-05 0)
(-0.00845653 1.49091e-05 0)
(-0.00846642 9.35317e-06 0)
(-0.00847175 3.78313e-06 0)
(-0.00847251 -1.79639e-06 0)
(-0.00846871 -7.38072e-06 0)
(-0.00846033 -1.29651e-05 0)
(-0.00844738 -1.85449e-05 0)
(-0.00842987 -2.41152e-05 0)
(-0.0084078 -2.96712e-05 0)
(-0.00838119 -3.52081e-05 0)
(-0.00835006 -4.0721e-05 0)
(-0.00831443 -4.6205e-05 0)
(-0.00827433 -5.16552e-05 0)
(-0.00822978 -5.70665e-05 0)
(-0.00818082 -6.24341e-05 0)
(-0.00812749 -6.77528e-05 0)
(-0.00806983 -7.30176e-05 0)
(-0.00800789 -7.82234e-05 0)
(-0.00794171 -8.33652e-05 0)
(-0.00787136 -8.84379e-05 0)
(-0.00779688 -9.34362e-05 0)
(-0.00771835 -9.83552e-05 0)
(-0.00763584 -0.00010319 0)
(-0.0075494 -0.000107934 0)
(-0.00745913 -0.000112584 0)
(-0.00736509 -0.000117134 0)
(-0.00726738 -0.000121578 0)
(-0.00716609 -0.000125912 0)
(-0.00706129 -0.00013013 0)
(-0.0069531 -0.000134228 0)
(-0.00684161 -0.0001382 0)
(-0.00672693 -0.000142041 0)
(-0.00660917 -0.000145746 0)
(-0.00648844 -0.00014931 0)
(-0.00636485 -0.000152727 0)
(-0.00623854 -0.000155994 0)
(-0.00610962 -0.000159104 0)
(-0.00597823 -0.000162054 0)
(-0.0058445 -0.000164838 0)
(-0.00570857 -0.000167451 0)
(-0.00557057 -0.000169889 0)
(-0.00543066 -0.000172146 0)
(-0.00528898 -0.00017422 0)
(-0.00514569 -0.000176104 0)
(-0.00500093 -0.000177795 0)
(-0.00485488 -0.000179288 0)
(-0.00470769 -0.000180579 0)
(-0.00455953 -0.000181664 0)
(-0.00441058 -0.000182539 0)
(-0.00426099 -0.0001832 0)
(-0.00411096 -0.000183644 0)
(-0.00396065 -0.000183866 0)
(-0.00381025 -0.000183863 0)
(-0.00365994 -0.000183632 0)
(-0.00350991 -0.000183171 0)
(-0.00336036 -0.000182475 0)
(-0.00321146 -0.000181542 0)
(-0.00306341 -0.000180369 0)
(-0.00291642 -0.000178955 0)
(-0.00277067 -0.000177296 0)
(-0.00262637 -0.000175391 0)
(-0.00248371 -0.000173239 0)
(-0.00234289 -0.000170838 0)
(-0.00220413 -0.000168186 0)
(-0.00206761 -0.000165283 0)
(-0.00193355 -0.000162128 0)
(-0.00180214 -0.000158721 0)
(-0.00167359 -0.000155063 0)
(-0.0015481 -0.000151154 0)
(-0.00142587 -0.000146994 0)
(-0.00130709 -0.000142587 0)
(-0.00119198 -0.000137933 0)
(-0.00108072 -0.000133035 0)
(-0.000973504 -0.000127897 0)
(-0.000870522 -0.000122524 0)
(-0.000771958 -0.000116919 0)
(-0.000677991 -0.00011109 0)
(-0.000588794 -0.000105043 0)
(-0.000504534 -9.87864e-05 0)
(-0.000425369 -9.23309e-05 0)
(-0.000351447 -8.56879e-05 0)
(-0.000282906 -7.88711e-05 0)
(-0.00021987 -7.18967e-05 0)
(-0.000162447 -6.47838e-05 0)
(-0.00011073 -5.75548e-05 0)
(-6.47885e-05 -5.02362e-05 0)
(-2.46694e-05 -4.28597e-05 0)
(9.60986e-06 -3.54628e-05 0)
(3.80656e-05 -2.80905e-05 0)
(6.07542e-05 -2.07971e-05 0)
(7.77798e-05 -1.36481e-05 0)
(8.93033e-05 -6.7237e-06 0)
(9.55537e-05 -1.21913e-07 0)
(9.68419e-05 6.03627e-06 0)
(9.35762e-05 1.16008e-05 0)
(8.62825e-05 1.63849e-05 0)
(7.56251e-05 2.01565e-05 0)
(6.24321e-05 2.26294e-05 0)
(4.77174e-05 2.34607e-05 0)
(3.26745e-05 2.22647e-05 0)
(1.8658e-05 1.86593e-05 0)
(7.44538e-06 1.24204e-05 0)
(1.40258e-06 4.07086e-06 0)
(1.81442e-06 -8.81975e-06 0)
(9.09535e-06 -2.29018e-05 0)
(2.19043e-05 -3.23414e-05 0)
(3.71391e-05 -3.71212e-05 0)
(5.26309e-05 -3.77516e-05 0)
(6.6795e-05 -3.48777e-05 0)
(7.82388e-05 -2.91362e-05 0)
(8.57687e-05 -2.11001e-05 0)
(8.84005e-05 -1.12588e-05 0)
(8.53372e-05 -1.99163e-08 0)
(7.59446e-05 1.22812e-05 0)
(5.97289e-05 2.53698e-05 0)
(3.6317e-05 3.9021e-05 0)
(5.43779e-06 5.30506e-05 0)
(-3.30932e-05 6.7307e-05 0)
(-7.93874e-05 8.16653e-05 0)
(-0.000133494 9.6022e-05 0)
(-0.000195411 0.000110291 0)
(-0.00026509 0.000124402 0)
(-0.000342447 0.000138294 0)
(-0.000427367 0.000151918 0)
(-0.000519704 0.000165232 0)
(-0.000619295 0.000178202 0)
(-0.000725952 0.000190798 0)
(-0.000839476 0.000202997 0)
(-0.000959649 0.000214777 0)
(-0.00108625 0.000226124 0)
(-0.00121903 0.000237023 0)
(-0.00135775 0.000247463 0)
(-0.00150217 0.000257437 0)
(-0.00165202 0.000266936 0)
(-0.00180705 0.000275956 0)
(-0.00196698 0.000284494 0)
(-0.00213156 0.000292547 0)
(-0.00230051 0.000300115 0)
(-0.00247357 0.000307196 0)
(-0.00265047 0.000313792 0)
(-0.00283094 0.000319905 0)
(-0.0030147 0.000325536 0)
(-0.00320149 0.000330689 0)
(-0.00339105 0.000335367 0)
(-0.00358311 0.000339573 0)
(-0.00377741 0.000343313 0)
(-0.00397368 0.000346591 0)
(-0.00417166 0.000349411 0)
(-0.00437111 0.00035178 0)
(-0.00457177 0.000353703 0)
(-0.00477338 0.000355186 0)
(-0.00497571 0.000356234 0)
(-0.00517851 0.000356855 0)
(-0.00538153 0.000357055 0)
(-0.00558455 0.00035684 0)
(-0.00578733 0.000356218 0)
(-0.00598963 0.000355195 0)
(-0.00619125 0.000353778 0)
(-0.00639195 0.000351974 0)
(-0.00659151 0.000349791 0)
(-0.00678973 0.000347236 0)
(-0.00698639 0.000344317 0)
(-0.00718129 0.00034104 0)
(-0.00737423 0.000337413 0)
(-0.00756501 0.000333445 0)
(-0.00775344 0.000329141 0)
(-0.00793934 0.000324511 0)
(-0.00812251 0.000319562 0)
(-0.00830277 0.000314301 0)
(-0.00847996 0.000308737 0)
(-0.0086539 0.000302877 0)
(-0.00882443 0.000296729 0)
(-0.00899138 0.0002903 0)
(-0.0091546 0.0002836 0)
(-0.00931393 0.000276635 0)
(-0.00946922 0.000269413 0)
(-0.00962034 0.000261943 0)
(-0.00976714 0.000254233 0)
(-0.00990948 0.00024629 0)
(-0.0100472 0.000238122 0)
(-0.0101803 0.000229739 0)
(-0.0103085 0.000221147 0)
(-0.0104318 0.000212355 0)
(-0.01055 0.000203371 0)
(-0.0106631 0.000194203 0)
(-0.0107709 0.00018486 0)
(-0.0108733 0.00017535 0)
(-0.0109702 0.000165681 0)
(-0.0110616 0.000155862 0)
(-0.0111474 0.0001459 0)
(-0.0112275 0.000135805 0)
(-0.0113018 0.000125585 0)
(-0.0113703 0.000115249 0)
(-0.0114328 0.000104805 0)
(-0.0114894 9.4261e-05 0)
(-0.0115399 8.3627e-05 0)
(-0.0115844 7.29114e-05 0)
(-0.0116227 6.21229e-05 0)
(-0.0116549 5.12705e-05 0)
(-0.0116809 4.03633e-05 0)
(-0.0117006 2.94101e-05 0)
(-0.0117142 1.84201e-05 0)
(-0.0117214 7.40246e-06 0)
(-0.0117224 -3.6336e-06 0)
(-0.0117171 -1.46788e-05 0)
(-0.0117056 -2.57238e-05 0)
(-0.0116877 -3.67591e-05 0)
(-0.0116636 -4.77754e-05 0)
(-0.0116332 -5.87629e-05 0)
(-0.0115966 -6.97122e-05 0)
(-0.0115538 -8.06136e-05 0)
(-0.0115048 -9.14573e-05 0)
(-0.0114496 -0.000102234 0)
(-0.0113883 -0.000112933 0)
(-0.011321 -0.000123544 0)
(-0.0112477 -0.000134059 0)
(-0.0111684 -0.000144467 0)
(-0.0110832 -0.000154757 0)
(-0.0109923 -0.000164921 0)
(-0.0108956 -0.000174947 0)
(-0.0107932 -0.000184825 0)
(-0.0106853 -0.000194547 0)
(-0.0105719 -0.0002041 0)
(-0.0104531 -0.000213475 0)
(-0.010329 -0.000222662 0)
(-0.0101998 -0.000231651 0)
(-0.0100655 -0.000240432 0)
(-0.00992636 -0.000248993 0)
(-0.00978238 -0.000257326 0)
(-0.00963374 -0.00026542 0)
(-0.00948057 -0.000273265 0)
(-0.00932302 -0.00028085 0)
(-0.00916125 -0.000288166 0)
(-0.0089954 -0.000295203 0)
(-0.00882564 -0.000301951 0)
(-0.00865214 -0.0003084 0)
(-0.00847507 -0.000314541 0)
(-0.00829461 -0.000320363 0)
(-0.00811093 -0.000325858 0)
(-0.00792424 -0.000331015 0)
(-0.00773471 -0.000335826 0)
(-0.00754256 -0.000340282 0)
(-0.00734799 -0.000344373 0)
(-0.0071512 -0.000348091 0)
(-0.00695242 -0.000351427 0)
(-0.00675185 -0.000354373 0)
(-0.00654972 -0.000356921 0)
(-0.00634627 -0.000359062 0)
(-0.00614171 -0.000360788 0)
(-0.00593629 -0.000362093 0)
(-0.00573026 -0.000362969 0)
(-0.00552384 -0.000363409 0)
(-0.0053173 -0.000363406 0)
(-0.00511088 -0.000362954 0)
(-0.00490484 -0.000362047 0)
(-0.00469943 -0.000360679 0)
(-0.00449492 -0.000358846 0)
(-0.00429157 -0.000356541 0)
(-0.00408965 -0.000353761 0)
(-0.00388943 -0.000350501 0)
(-0.00369116 -0.000346759 0)
(-0.00349514 -0.00034253 0)
(-0.00330163 -0.000337813 0)
(-0.0031109 -0.000332605 0)
(-0.00292323 -0.000326906 0)
(-0.00273889 -0.000320714 0)
(-0.00255816 -0.000314029 0)
(-0.00238131 -0.000306854 0)
(-0.00220862 -0.000299188 0)
(-0.00204035 -0.000291035 0)
(-0.00187678 -0.000282399 0)
(-0.00171817 -0.000273285 0)
(-0.00156477 -0.000263698 0)
(-0.00141686 -0.000253646 0)
(-0.00127467 -0.000243138 0)
(-0.00113846 -0.000232185 0)
(-0.00100846 -0.000220801 0)
(-0.000884905 -0.000208999 0)
(-0.000768008 -0.000196798 0)
(-0.000657977 -0.00018422 0)
(-0.000555006 -0.000171288 0)
(-0.00045927 -0.00015803 0)
(-0.000370928 -0.00014448 0)
(-0.000290116 -0.000130678 0)
(-0.000216946 -0.000116669 0)
(-0.000151501 -0.000102506 0)
(-9.38286e-05 -8.82527e-05 0)
(-4.39401e-05 -7.39844e-05 0)
(-1.79887e-06 -5.97899e-05 0)
(3.26844e-05 -4.57753e-05 0)
(5.96619e-05 -3.20673e-05 0)
(7.93595e-05 -1.88189e-05 0)
(9.20893e-05 -6.21424e-06 0)
(9.82645e-05 5.52341e-06 0)
(9.84166e-05 1.61233e-05 0)
(9.32143e-05 2.52572e-05 0)
(8.34838e-05 3.25292e-05 0)
(7.02307e-05 3.74686e-05 0)
(5.46586e-05 3.95323e-05 0)
(3.8155e-05 3.81282e-05 0)
(2.22791e-05 3.26782e-05 0)
(9.15111e-06 2.27702e-05 0)
(1.79901e-06 8.57714e-06 0)
(1.94055e-06 -1.38916e-05 0)
(9.58322e-06 -3.40673e-05 0)
(2.27244e-05 -4.67836e-05 0)
(3.78543e-05 -5.26247e-05 0)
(5.25586e-05 -5.24314e-05 0)
(6.50984e-05 -4.71142e-05 0)
(7.39492e-05 -3.75499e-05 0)
(7.7794e-05 -2.45315e-05 0)
(7.55313e-05 -8.74934e-06 0)
(6.62541e-05 9.20842e-06 0)
(4.92274e-05 2.88472e-05 0)
(2.38689e-05 4.97539e-05 0)
(-1.02709e-05 7.15839e-05 0)
(-5.35254e-05 9.40506e-05 0)
(-0.000106128 0.000116915 0)
(-0.000168227 0.000139977 0)
(-0.000239896 0.000163071 0)
(-0.000321144 0.000186056 0)
(-0.000411929 0.000208815 0)
(-0.00051216 0.000231248 0)
(-0.000621706 0.000253274 0)
(-0.000740402 0.000274822 0)
(-0.000868056 0.000295832 0)
(-0.00100445 0.000316256 0)
(-0.00114934 0.000336052 0)
(-0.00130247 0.000355185 0)
(-0.00146356 0.000373626 0)
(-0.00163234 0.000391351 0)
(-0.0018085 0.000408342 0)
(-0.00199173 0.000424581 0)
(-0.00218173 0.000440058 0)
(-0.00237817 0.000454761 0)
(-0.00258072 0.000468685 0)
(-0.00278907 0.000481824 0)
(-0.00300287 0.000494176 0)
(-0.0032218 0.000505739 0)
(-0.00344551 0.000516514 0)
(-0.00367369 0.000526502 0)
(-0.00390598 0.000535706 0)
(-0.00414207 0.000544131 0)
(-0.0043816 0.000551781 0)
(-0.00462427 0.000558662 0)
(-0.00486973 0.00056478 0)
(-0.00511766 0.000570144 0)
(-0.00536774 0.000574759 0)
(-0.00561965 0.000578636 0)
(-0.00587307 0.000581783 0)
(-0.00612768 0.000584209 0)
(-0.00638319 0.000585924 0)
(-0.00663927 0.000586937 0)
(-0.00689564 0.00058726 0)
(-0.00715199 0.000586903 0)
(-0.00740803 0.000585877 0)
(-0.00766347 0.000584193 0)
(-0.00791804 0.000581862 0)
(-0.00817144 0.000578897 0)
(-0.00842341 0.000575308 0)
(-0.00867369 0.000571107 0)
(-0.00892199 0.000566308 0)
(-0.00916807 0.000560921 0)
(-0.00941168 0.000554959 0)
(-0.00965255 0.000548434 0)
(-0.00989047 0.000541359 0)
(-0.0101252 0.000533746 0)
(-0.0103564 0.000525608 0)
(-0.010584 0.000516957 0)
(-0.0108078 0.000507807 0)
(-0.0110274 0.000498169 0)
(-0.0112427 0.000488058 0)
(-0.0114535 0.000477485 0)
(-0.0116595 0.000466464 0)
(-0.0118607 0.000455008 0)
(-0.0120568 0.000443129 0)
(-0.0122476 0.000430841 0)
(-0.0124329 0.000418157 0)
(-0.0126126 0.00040509 0)
(-0.0127865 0.000391654 0)
(-0.0129545 0.000377862 0)
(-0.0131164 0.000363726 0)
(-0.013272 0.000349261 0)
(-0.0134213 0.00033448 0)
(-0.013564 0.000319397 0)
(-0.0137001 0.000304025 0)
(-0.0138293 0.000288378 0)
(-0.0139517 0.000272469 0)
(-0.0140671 0.000256312 0)
(-0.0141754 0.000239922 0)
(-0.0142765 0.000223312 0)
(-0.0143702 0.000206497 0)
(-0.0144566 0.00018949 0)
(-0.0145355 0.000172306 0)
(-0.0146069 0.000154958 0)
(-0.0146706 0.000137462 0)
(-0.0147267 0.000119832 0)
(-0.0147751 0.000102082 0)
(-0.0148156 8.4228e-05 0)
(-0.0148484 6.62835e-05 0)
(-0.0148733 4.82639e-05 0)
(-0.0148903 3.01842e-05 0)
(-0.0148994 1.20595e-05 0)
(-0.0149006 -6.09508e-06 0)
(-0.0148939 -2.42641e-05 0)
(-0.0148792 -4.24323e-05 0)
(-0.0148566 -6.0584e-05 0)
(-0.0148261 -7.87036e-05 0)
(-0.0147876 -9.67755e-05 0)
(-0.0147413 -0.000114784 0)
(-0.0146872 -0.000132713 0)
(-0.0146252 -0.000150546 0)
(-0.0145555 -0.000168267 0)
(-0.0144781 -0.000185861 0)
(-0.0143931 -0.000203311 0)
(-0.0143004 -0.0002206 0)
(-0.0142003 -0.000237712 0)
(-0.0140927 -0.000254631 0)
(-0.0139778 -0.00027134 0)
(-0.0138557 -0.000287823 0)
(-0.0137264 -0.000304062 0)
(-0.0135901 -0.000320042 0)
(-0.0134469 -0.000335745 0)
(-0.0132969 -0.000351154 0)
(-0.0131403 -0.000366254 0)
(-0.0129771 -0.000381027 0)
(-0.0128076 -0.000395456 0)
(-0.0126319 -0.000409525 0)
(-0.0124501 -0.000423218 0)
(-0.0122625 -0.000436516 0)
(-0.0120691 -0.000449405 0)
(-0.0118703 -0.000461867 0)
(-0.011666 -0.000473886 0)
(-0.0114567 -0.000485446 0)
(-0.0112424 -0.00049653 0)
(-0.0110235 -0.000507123 0)
(-0.0108 -0.000517208 0)
(-0.0105722 -0.000526771 0)
(-0.0103404 -0.000535795 0)
(-0.0101048 -0.000544264 0)
(-0.00986559 -0.000552165 0)
(-0.00962309 -0.000559482 0)
(-0.00937754 -0.0005662 0)
(-0.0091292 -0.000572306 0)
(-0.00887834 -0.000577784 0)
(-0.00862523 -0.000582622 0)
(-0.00837015 -0.000586806 0)
(-0.0081134 -0.000590324 0)
(-0.00785525 -0.000593161 0)
(-0.00759602 -0.000595308 0)
(-0.007336 -0.000596751 0)
(-0.00707549 -0.000597479 0)
(-0.00681482 -0.000597482 0)
(-0.00655429 -0.00059675 0)
(-0.00629423 -0.000595272 0)
(-0.00603496 -0.000593041 0)
(-0.0057768 -0.000590047 0)
(-0.00552009 -0.000586282 0)
(-0.00526517 -0.000581741 0)
(-0.00501235 -0.000576416 0)
(-0.00476199 -0.000570302 0)
(-0.00451442 -0.000563394 0)
(-0.00426999 -0.000555689 0)
(-0.00402903 -0.000547185 0)
(-0.00379189 -0.000537879 0)
(-0.00355891 -0.000527771 0)
(-0.00333043 -0.000516863 0)
(-0.00310679 -0.000505155 0)
(-0.00288834 -0.000492652 0)
(-0.00267539 -0.000479359 0)
(-0.0024683 -0.000465282 0)
(-0.00226738 -0.000450431 0)
(-0.00207295 -0.000434817 0)
(-0.00188535 -0.000418453 0)
(-0.00170486 -0.000401356 0)
(-0.0015318 -0.000383543 0)
(-0.00136645 -0.000365039 0)
(-0.00120909 -0.000345869 0)
(-0.00105999 -0.000326063 0)
(-0.000919391 -0.000305659 0)
(-0.000787526 -0.000284697 0)
(-0.000664606 -0.000263226 0)
(-0.000550816 -0.000241302 0)
(-0.000446313 -0.00021899 0)
(-0.000351225 -0.000196368 0)
(-0.00026564 -0.000173525 0)
(-0.000189607 -0.000150564 0)
(-0.000123124 -0.000127609 0)
(-6.61364e-05 -0.000104803 0)
(-1.85214e-05 -8.23186e-05 0)
(1.99164e-05 -6.03565e-05 0)
(4.94592e-05 -3.91573e-05 0)
(7.04884e-05 -1.90068e-05 0)
(8.34999e-05 -2.45858e-07 0)
(8.91196e-05 1.67193e-05 0)
(8.81218e-05 3.14062e-05 0)
(8.1447e-05 4.32458e-05 0)
(7.02218e-05 5.15762e-05 0)
(5.5777e-05 5.5647e-05 0)
(3.96356e-05 5.46435e-05 0)
(2.35161e-05 4.77437e-05 0)
(9.79875e-06 3.42306e-05 0)
(1.95374e-06 1.37053e-05 0)
(1.89431e-06 -1.89802e-05 0)
(9.22378e-06 -4.5083e-05 0)
(2.15227e-05 -6.06233e-05 0)
(3.51128e-05 -6.68478e-05 0)
(4.74359e-05 -6.4996e-05 0)
(5.66424e-05 -5.6282e-05 0)
(6.11191e-05 -4.18395e-05 0)
(5.94694e-05 -2.26884e-05 0)
(5.05156e-05 2.75947e-07 0)
(3.32771e-05 2.62803e-05 0)
(6.94922e-06 5.46642e-05 0)
(-2.9115e-05 8.48672e-05 0)
(-7.5422e-05 0.000116415 0)
(-0.000132354 0.000148909 0)
(-0.000200185 0.00018201 0)
(-0.000279093 0.000215435 0)
(-0.000369174 0.000248942 0)
(-0.00047045 0.000282328 0)
(-0.000582883 0.000315421 0)
(-0.000706377 0.000348074 0)
(-0.000840794 0.000380164 0)
(-0.000985951 0.000411587 0)
(-0.00114163 0.000442252 0)
(-0.00130759 0.000472084 0)
(-0.00148355 0.000501021 0)
(-0.00166922 0.000529009 0)
(-0.00186429 0.000556002 0)
(-0.00206842 0.000581963 0)
(-0.00228127 0.000606862 0)
(-0.00250248 0.000630673 0)
(-0.00273169 0.000653377 0)
(-0.00296853 0.000674956 0)
(-0.0032126 0.0006954 0)