/*--------------------------------*- C++ -*----------------------------------*\
  =========                 |
  \\      /  F ield         | OpenFOAM: The Open Source CFD Toolbox
   \\    /   O peration     | Website:  https://openfoam.org
    \\  /    A nd           | Version:  7
     \\/     M anipulation  |
\*---------------------------------------------------------------------------*/
FoamFile
{
    version     2.0;
    format      ascii;
    class       volVectorField;
    location    "0.37";
    object      U;
}
// * * * * * * * * * * * * * * * * * * * * * * * * * * * * * * * * * * * * * //

dimensions      [0 1 -1 0 0 0 0];

internalField   nonuniform List<vector> 
40000
(
(-1.03354e-07 6.84671e-08 0)
(1.00891e-06 -7.71641e-07 0)
(4.30906e-06 -1.46556e-06 0)
(8.89986e-06 -1.8385e-06 0)
(1.40289e-05 -1.96203e-06 0)
(1.91634e-05 -1.91039e-06 0)
(2.39059e-05 -1.73771e-06 0)
(2.79622e-05 -1.48251e-06 0)
(3.11187e-05 -1.17125e-06 0)
(3.32209e-05 -8.22026e-07 0)
(3.4158e-05 -4.47507e-07 0)
(3.3852e-05 -5.67864e-08 0)
(3.22501e-05 3.43462e-07 0)
(2.9319e-05 7.4822e-07 0)
(2.50408e-05 1.15366e-06 0)
(1.94098e-05 1.55682e-06 0)
(1.24301e-05 1.95539e-06 0)
(4.11351e-06 2.34754e-06 0)
(-5.52155e-06 2.7318e-06 0)
(-1.64515e-05 3.10705e-06 0)
(-2.86487e-05 3.47234e-06 0)
(-4.20816e-05 3.82694e-06 0)
(-5.67162e-05 4.17025e-06 0)
(-7.25161e-05 4.50183e-06 0)
(-8.94428e-05 4.8213e-06 0)
(-0.000107456 5.12838e-06 0)
(-0.000126516 5.42286e-06 0)
(-0.000146579 5.70458e-06 0)
(-0.000167603 5.97344e-06 0)
(-0.000189544 6.22938e-06 0)
(-0.000212359 6.47236e-06 0)
(-0.000236003 6.70239e-06 0)
(-0.000260433 6.9195e-06 0)
(-0.000285603 7.12372e-06 0)
(-0.000311469 7.31513e-06 0)
(-0.000337988 7.49382e-06 0)
(-0.000365115 7.65988e-06 0)
(-0.000392807 7.81343e-06 0)
(-0.000421019 7.95459e-06 0)
(-0.00044971 8.08349e-06 0)
(-0.000478836 8.20027e-06 0)
(-0.000508355 8.30508e-06 0)
(-0.000538225 8.39807e-06 0)
(-0.000568405 8.47941e-06 0)
(-0.000598854 8.54926e-06 0)
(-0.000629532 8.60779e-06 0)
(-0.000660398 8.65516e-06 0)
(-0.000691414 8.69157e-06 0)
(-0.000722541 8.71717e-06 0)
(-0.000753741 8.73217e-06 0)
(-0.000784976 8.73674e-06 0)
(-0.000816211 8.73106e-06 0)
(-0.000847407 8.71533e-06 0)
(-0.000878531 8.68973e-06 0)
(-0.000909548 8.65444e-06 0)
(-0.000940422 8.60967e-06 0)
(-0.00097112 8.5556e-06 0)
(-0.00100161 8.49242e-06 0)
(-0.00103186 8.42032e-06 0)
(-0.00106184 8.3395e-06 0)
(-0.00109151 8.25015e-06 0)
(-0.00112085 8.15246e-06 0)
(-0.00114983 8.04663e-06 0)
(-0.00117841 7.93285e-06 0)
(-0.00120658 7.8113e-06 0)
(-0.0012343 7.68219e-06 0)
(-0.00126154 7.5457e-06 0)
(-0.00128828 7.40204e-06 0)
(-0.0013145 7.25139e-06 0)
(-0.00134017 7.09394e-06 0)
(-0.00136526 6.9299e-06 0)
(-0.00138975 6.75945e-06 0)
(-0.00141362 6.58279e-06 0)
(-0.00143685 6.40011e-06 0)
(-0.00145942 6.21161e-06 0)
(-0.0014813 6.01748e-06 0)
(-0.00150247 5.81792e-06 0)
(-0.00152293 5.61311e-06 0)
(-0.00154264 5.40327e-06 0)
(-0.00156159 5.18857e-06 0)
(-0.00157976 4.96923e-06 0)
(-0.00159714 4.74543e-06 0)
(-0.00161371 4.51738e-06 0)
(-0.00162945 4.28527e-06 0)
(-0.00164436 4.04931e-06 0)
(-0.00165842 3.80969e-06 0)
(-0.00167161 3.56662e-06 0)
(-0.00168392 3.3203e-06 0)
(-0.00169535 3.07094e-06 0)
(-0.00170588 2.81873e-06 0)
(-0.0017155 2.56389e-06 0)
(-0.0017242 2.30663e-06 0)
(-0.00173198 2.04715e-06 0)
(-0.00173883 1.78566e-06 0)
(-0.00174473 1.52238e-06 0)
(-0.00174969 1.25752e-06 0)
(-0.0017537 9.91294e-07 0)
(-0.00175675 7.23921e-07 0)
(-0.00175885 4.5562e-07 0)
(-0.00175998 1.86612e-07 0)
(-0.00176015 -8.28818e-08 0)
(-0.00175935 -3.52639e-07 0)
(-0.00175759 -6.22435e-07 0)
(-0.00175486 -8.9204e-07 0)
(-0.00175117 -1.16122e-06 0)
(-0.00174651 -1.42976e-06 0)
(-0.0017409 -1.6974e-06 0)
(-0.00173433 -1.96393e-06 0)
(-0.00172681 -2.22912e-06 0)
(-0.00171834 -2.49271e-06 0)
(-0.00170893 -2.75446e-06 0)
(-0.00169859 -3.01415e-06 0)
(-0.00168733 -3.27152e-06 0)
(-0.00167515 -3.52634e-06 0)
(-0.00166207 -3.77835e-06 0)
(-0.00164809 -4.02732e-06 0)
(-0.00163322 -4.273e-06 0)
(-0.00161749 -4.51512e-06 0)
(-0.00160089 -4.75346e-06 0)
(-0.00158346 -4.98774e-06 0)
(-0.00156519 -5.21774e-06 0)
(-0.00154611 -5.4432e-06 0)
(-0.00152623 -5.66386e-06 0)
(-0.00150558 -5.87947e-06 0)
(-0.00148416 -6.08977e-06 0)
(-0.00146201 -6.29452e-06 0)
(-0.00143913 -6.49346e-06 0)
(-0.00141556 -6.68635e-06 0)
(-0.00139131 -6.87294e-06 0)
(-0.0013664 -7.05297e-06 0)
(-0.00134087 -7.2262e-06 0)
(-0.00131473 -7.39236e-06 0)
(-0.00128801 -7.55122e-06 0)
(-0.00126074 -7.70254e-06 0)
(-0.00123295 -7.84609e-06 0)
(-0.00120466 -7.9816e-06 0)
(-0.0011759 -8.10885e-06 0)
(-0.0011467 -8.2276e-06 0)
(-0.0011171 -8.3376e-06 0)
(-0.00108712 -8.43865e-06 0)
(-0.0010568 -8.53051e-06 0)
(-0.00102617 -8.61297e-06 0)
(-0.000995259 -8.68581e-06 0)
(-0.000964111 -8.74879e-06 0)
(-0.000932758 -8.80171e-06 0)
(-0.000901235 -8.84438e-06 0)
(-0.00086958 -8.8766e-06 0)
(-0.000837829 -8.89817e-06 0)
(-0.000806021 -8.90892e-06 0)
(-0.000774196 -8.90864e-06 0)
(-0.000742391 -8.89714e-06 0)
(-0.000710648 -8.87428e-06 0)
(-0.000679006 -8.83989e-06 0)
(-0.000647507 -8.79384e-06 0)
(-0.000616193 -8.73596e-06 0)
(-0.000585104 -8.66611e-06 0)
(-0.000554285 -8.58415e-06 0)
(-0.000523777 -8.48997e-06 0)
(-0.000493623 -8.38345e-06 0)
(-0.000463868 -8.26451e-06 0)
(-0.000434555 -8.13307e-06 0)
(-0.000405728 -7.98903e-06 0)
(-0.000377431 -7.83232e-06 0)
(-0.000349708 -7.66289e-06 0)
(-0.000322604 -7.48069e-06 0)
(-0.000296164 -7.28573e-06 0)
(-0.00027043 -7.078e-06 0)
(-0.000245448 -6.85752e-06 0)
(-0.000221261 -6.62431e-06 0)
(-0.000197913 -6.37842e-06 0)
(-0.000175447 -6.11993e-06 0)
(-0.000153906 -5.84897e-06 0)
(-0.000133331 -5.5657e-06 0)
(-0.000113765 -5.2703e-06 0)
(-9.52455e-05 -4.96301e-06 0)
(-7.78135e-05 -4.64407e-06 0)
(-6.15059e-05 -4.31383e-06 0)
(-4.63587e-05 -3.9727e-06 0)
(-3.24059e-05 -3.6212e-06 0)
(-1.96791e-05 -3.25994e-06 0)
(-8.20715e-06 -2.88963e-06 0)
(1.98423e-06 -2.51112e-06 0)
(1.08734e-05 -2.12547e-06 0)
(1.84432e-05 -1.73397e-06 0)
(2.46824e-05 -1.33822e-06 0)
(2.95864e-05 -9.40197e-07 0)
(3.31586e-05 -5.42353e-07 0)
(3.54129e-05 -1.47767e-07 0)
(3.63753e-05 2.39616e-07 0)
(3.60879e-05 6.1466e-07 0)
(3.4612e-05 9.7057e-07 0)
(3.20345e-05 1.29816e-06 0)
(2.84748e-05 1.58472e-06 0)
(2.40953e-05 1.81223e-06 0)
(1.91168e-05 1.95455e-06 0)
(1.38383e-05 1.97394e-06 0)
(8.6588e-06 1.81806e-06 0)
(4.1069e-06 1.41646e-06 0)
(9.10492e-07 7.0527e-07 0)
(-1.21088e-07 -1.20976e-07 0)
(7.50688e-07 -1.061e-06 0)
(4.7234e-06 -4.76188e-06 0)
(1.27539e-05 -7.6231e-06 0)
(2.31228e-05 -9.20195e-06 0)
(3.44035e-05 -9.67763e-06 0)
(4.55076e-05 -9.28819e-06 0)
(5.55303e-05 -8.24079e-06 0)
(6.37445e-05 -6.70245e-06 0)
(6.95865e-05 -4.80168e-06 0)
(7.26258e-05 -2.63592e-06 0)
(7.25384e-05 -2.7933e-07 0)
(6.90854e-05 2.211e-06 0)
(6.20963e-05 4.79071e-06 0)
(5.14553e-05 7.42489e-06 0)
(3.70911e-05 1.00859e-05 0)
(1.89684e-05 1.27515e-05 0)
(-2.9187e-06 1.54039e-05 0)
(-2.85518e-05 1.80285e-05 0)
(-5.78928e-05 2.06136e-05 0)
(-9.0887e-05 2.31496e-05 0)
(-0.000127466 2.56284e-05 0)
(-0.000167551 2.80437e-05 0)
(-0.000211052 3.039e-05 0)
(-0.000257873 3.26631e-05 0)
(-0.00030791 3.48593e-05 0)
(-0.000361055 3.69759e-05 0)
(-0.000417196 3.90104e-05 0)
(-0.000476216 4.09612e-05 0)
(-0.000537996 4.28267e-05 0)
(-0.000602414 4.46059e-05 0)
(-0.000669347 4.62981e-05 0)
(-0.000738671 4.79028e-05 0)
(-0.000810261 4.94197e-05 0)
(-0.000883991 5.08488e-05 0)
(-0.000959734 5.21902e-05 0)
(-0.00103737 5.3444e-05 0)
(-0.00111676 5.46108e-05 0)
(-0.00119779 5.56911e-05 0)
(-0.00128033 5.66853e-05 0)
(-0.00136426 5.75943e-05 0)
(-0.00144945 5.84188e-05 0)
(-0.00153579 5.91597e-05 0)
(-0.00162314 5.98178e-05 0)
(-0.0017114 6.03942e-05 0)
(-0.00180044 6.08899e-05 0)
(-0.00189015 6.13058e-05 0)
(-0.00198041 6.16432e-05 0)
(-0.00207111 6.19031e-05 0)
(-0.00216213 6.20868e-05 0)
(-0.00225337 6.21953e-05 0)
(-0.00234471 6.223e-05 0)
(-0.00243605 6.2192e-05 0)
(-0.00252729 6.20826e-05 0)
(-0.00261831 6.1903e-05 0)
(-0.00270902 6.16547e-05 0)
(-0.00279932 6.13387e-05 0)
(-0.0028891 6.09566e-05 0)
(-0.00297828 6.05095e-05 0)
(-0.00306676 5.99988e-05 0)
(-0.00315444 5.94258e-05 0)
(-0.00324124 5.87919e-05 0)
(-0.00332706 5.80985e-05 0)
(-0.00341183 5.73468e-05 0)
(-0.00349545 5.65382e-05 0)
(-0.00357784 5.56741e-05 0)
(-0.00365893 5.47558e-05 0)
(-0.00373863 5.37848e-05 0)
(-0.00381687 5.27623e-05 0)
(-0.00389357 5.16898e-05 0)
(-0.00396866 5.05686e-05 0)
(-0.00404207 4.94001e-05 0)
(-0.00411373 4.81857e-05 0)
(-0.00418357 4.69268e-05 0)
(-0.00425153 4.56247e-05 0)
(-0.00431755 4.42809e-05 0)
(-0.00438157 4.28967e-05 0)
(-0.00444352 4.14736e-05 0)
(-0.00450336 4.00128e-05 0)
(-0.00456102 3.8516e-05 0)
(-0.00461646 3.69844e-05 0)
(-0.00466963 3.54195e-05 0)
(-0.00472047 3.38226e-05 0)
(-0.00476894 3.21953e-05 0)
(-0.004815 3.0539e-05 0)
(-0.00485861 2.88551e-05 0)
(-0.00489972 2.7145e-05 0)
(-0.0049383 2.54102e-05 0)
(-0.00497432 2.36522e-05 0)
(-0.00500773 2.18725e-05 0)
(-0.00503852 2.00725e-05 0)
(-0.00506665 1.82537e-05 0)
(-0.00509209 1.64176e-05 0)
(-0.00511482 1.45658e-05 0)
(-0.00513482 1.26997e-05 0)
(-0.00515207 1.08209e-05 0)
(-0.00516655 8.9309e-06 0)
(-0.00517824 7.03129e-06 0)
(-0.00518714 5.12362e-06 0)
(-0.00519323 3.20946e-06 0)
(-0.00519651 1.29041e-06 0)
(-0.00519696 -6.31946e-07 0)
(-0.00519459 -2.55599e-06 0)
(-0.0051894 -4.48011e-06 0)
(-0.00518137 -6.40266e-06 0)
(-0.00517053 -8.322e-06 0)
(-0.00515687 -1.02365e-05 0)
(-0.0051404 -1.21444e-05 0)
(-0.00512114 -1.40441e-05 0)
(-0.0050991 -1.59339e-05 0)
(-0.00507428 -1.78121e-05 0)
(-0.00504673 -1.9677e-05 0)
(-0.00501644 -2.15268e-05 0)
(-0.00498345 -2.33599e-05 0)
(-0.00494778 -2.51745e-05 0)
(-0.00490947 -2.69687e-05 0)
(-0.00486854 -2.8741e-05 0)
(-0.00482502 -3.04895e-05 0)
(-0.00477896 -3.22125e-05 0)
(-0.00473039 -3.39081e-05 0)
(-0.00467935 -3.55746e-05 0)
(-0.00462589 -3.72103e-05 0)
(-0.00457006 -3.88133e-05 0)
(-0.0045119 -4.03818e-05 0)
(-0.00445147 -4.19141e-05 0)
(-0.00438881 -4.34084e-05 0)
(-0.004324 -4.48629e-05 0)
(-0.00425708 -4.62757e-05 0)
(-0.00418813 -4.76452e-05 0)
(-0.00411719 -4.89696e-05 0)
(-0.00404436 -5.02471e-05 0)
(-0.00396968 -5.1476e-05 0)
(-0.00389325 -5.26545e-05 0)
(-0.00381512 -5.37808e-05 0)
(-0.00373539 -5.48533e-05 0)
(-0.00365412 -5.58703e-05 0)
(-0.00357141 -5.68301e-05 0)
(-0.00348733 -5.77311e-05 0)
(-0.00340198 -5.85715e-05 0)
(-0.00331544 -5.93497e-05 0)
(-0.00322782 -6.00643e-05 0)
(-0.00313919 -6.07135e-05 0)
(-0.00304966 -6.1296e-05 0)
(-0.00295933 -6.18101e-05 0)
(-0.0028683 -6.22544e-05 0)
(-0.00277668 -6.26275e-05 0)
(-0.00268456 -6.29279e-05 0)
(-0.00259205 -6.31543e-05 0)
(-0.00249927 -6.33054e-05 0)
(-0.00240633 -6.33799e-05 0)
(-0.00231333 -6.33766e-05 0)
(-0.00222039 -6.32943e-05 0)
(-0.00212763 -6.31319e-05 0)
(-0.00203517 -6.28884e-05 0)
(-0.00194313 -6.25627e-05 0)
(-0.00185162 -6.21539e-05 0)
(-0.00176076 -6.16611e-05 0)
(-0.00167069 -6.10836e-05 0)
(-0.00158152 -6.04205e-05 0)
(-0.00149338 -5.96713e-05 0)
(-0.0014064 -5.88353e-05 0)
(-0.00132069 -5.79122e-05 0)
(-0.0012364 -5.69016e-05 0)
(-0.00115363 -5.58032e-05 0)
(-0.00107253 -5.46168e-05 0)
(-0.000993215 -5.33423e-05 0)
(-0.000915816 -5.19799e-05 0)
(-0.000840459 -5.053e-05 0)
(-0.000767269 -4.89927e-05 0)
(-0.000696371 -4.73689e-05 0)
(-0.000627889 -4.56591e-05 0)
(-0.000561944 -4.38645e-05 0)
(-0.000498658 -4.19862e-05 0)
(-0.000438146 -4.00258e-05 0)
(-0.000380524 -3.79853e-05 0)
(-0.000325904 -3.58667e-05 0)
(-0.000274393 -3.36727e-05 0)
(-0.000226093 -3.14065e-05 0)
(-0.000181103 -2.90717e-05 0)
(-0.000139512 -2.66728e-05 0)
(-0.000101404 -2.4215e-05 0)
(-6.68527e-05 -2.17044e-05 0)
(-3.59226e-05 -1.91483e-05 0)
(-8.66473e-06 -1.65555e-05 0)
(1.48841e-05 -1.39364e-05 0)
(3.47048e-05 -1.13035e-05 0)
(5.07988e-05 -8.67205e-06 0)
(6.31928e-05 -6.06068e-06 0)
(7.19434e-05 -3.49208e-06 0)
(7.71438e-05 -9.9438e-07 0)
(7.89321e-05 1.39722e-06 0)
(7.75008e-05 3.63826e-06 0)
(7.31103e-05 5.6719e-06 0)
(6.61052e-05 7.42479e-06 0)
(5.69335e-05 8.80127e-06 0)
(4.61729e-05 9.6762e-06 0)
(3.45576e-05 9.88866e-06 0)
(2.29888e-05 9.24245e-06 0)
(1.25355e-05 7.51871e-06 0)
(4.57037e-06 4.57169e-06 0)
(7.04443e-07 9.10084e-07 0)
(1.45579e-06 -4.33278e-06 0)
(7.60265e-06 -1.2784e-05 0)
(1.88416e-05 -1.88609e-05 0)
(3.26844e-05 -2.21477e-05 0)
(4.72783e-05 -2.29372e-05 0)
(6.12296e-05 -2.16575e-05 0)
(7.33265e-05 -1.87247e-05 0)
(8.25522e-05 -1.4502e-05 0)
(8.80874e-05 -9.28845e-06 0)
(8.92848e-05 -3.3247e-06 0)
(8.5641e-05 3.19731e-06 0)
(7.67738e-05 1.01243e-05 0)
(6.24011e-05 1.73336e-05 0)
(4.23236e-05 2.47263e-05 0)
(1.6411e-05 3.22224e-05 0)
(-1.541e-05 3.97569e-05 0)
(-5.31656e-05 4.72766e-05 0)
(-9.68422e-05 5.47376e-05 0)
(-0.000146394 6.21039e-05 0)
(-0.000201746 6.93457e-05 0)
(-0.000262801 7.64383e-05 0)
(-0.000329444 8.33612e-05 0)
(-0.000401542 9.00974e-05 0)
(-0.000478948 9.66329e-05 0)
(-0.000561505 0.000102956 0)
(-0.000649045 0.000109057 0)
(-0.000741393 0.000114929 0)
(-0.000838369 0.000120564 0)
(-0.000939784 0.000125959 0)
(-0.00104545 0.000131109 0)
(-0.00115517 0.000136012 0)
(-0.00126874 0.000140664 0)
(-0.00138597 0.000145065 0)
(-0.00150666 0.000149215 0)
(-0.00163061 0.000153112 0)
(-0.0017576 0.000156757 0)
(-0.00188745 0.000160151 0)
(-0.00201995 0.000163296 0)
(-0.0021549 0.000166191 0)
(-0.0022921 0.00016884 0)
(-0.00243135 0.000171244 0)
(-0.00257246 0.000173405 0)
(-0.00271522 0.000175325 0)
(-0.00285945 0.000177008 0)
(-0.00300495 0.000178456 0)
(-0.00315153 0.000179672 0)
(-0.00329901 0.000180659 0)
(-0.0034472 0.00018142 0)
(-0.00359592 0.000181958 0)
(-0.00374499 0.000182277 0)
(-0.00389423 0.00018238 0)
(-0.00404347 0.000182271 0)
(-0.00419253 0.000181952 0)
(-0.00434125 0.000181429 0)
(-0.00448946 0.000180704 0)
(-0.004637 0.000179781 0)
(-0.0047837 0.000178665 0)
(-0.00492941 0.000177358 0)
(-0.00507398 0.000175864 0)
(-0.00521725 0.000174188 0)
(-0.00535908 0.000172333 0)
(-0.00549932 0.000170303 0)
(-0.00563783 0.000168103 0)
(-0.00577447 0.000165735 0)
(-0.00590911 0.000163205 0)
(-0.00604161 0.000160515 0)
(-0.00617185 0.000157671 0)
(-0.0062997 0.000154675 0)
(-0.00642504 0.000151533 0)
(-0.00654774 0.000148247 0)
(-0.00666771 0.000144822 0)
(-0.00678481 0.000141263 0)
(-0.00689894 0.000137572 0)
(-0.00701001 0.000133755 0)
(-0.00711789 0.000129815 0)
(-0.0072225 0.000125757 0)
(-0.00732374 0.000121584 0)
(-0.00742152 0.0001173 0)
(-0.00751575 0.000112911 0)
(-0.00760634 0.000108419 0)
(-0.00769321 0.000103829 0)
(-0.00777629 9.91461e-05 0)
(-0.00785549 9.43732e-05 0)
(-0.00793075 8.95151e-05 0)
(-0.00800199 8.45759e-05 0)
(-0.00806916 7.956e-05 0)
(-0.00813219 7.44716e-05 0)
(-0.00819102 6.9315e-05 0)
(-0.0082456 6.40946e-05 0)
(-0.00829589 5.88148e-05 0)
(-0.00834182 5.34799e-05 0)
(-0.00838337 4.80944e-05 0)
(-0.00842048 4.26627e-05 0)
(-0.00845313 3.71893e-05 0)
(-0.00848128 3.16787e-05 0)
(-0.00850491 2.61355e-05 0)
(-0.00852398 2.05642e-05 0)
(-0.00853848 1.49694e-05 0)
(-0.00854839 9.35584e-06 0)
(-0.0085537 3.7281e-06 0)
(-0.00855439 -1.90908e-06 0)
(-0.00855047 -7.55098e-06 0)
(-0.00854193 -1.31928e-05 0)
(-0.00852877 -1.88298e-05 0)
(-0.008511 -2.4457e-05 0)
(-0.00848863 -3.00697e-05 0)
(-0.00846167 -3.56629e-05 0)
(-0.00843015 -4.12316e-05 0)
(-0.00839407 -4.67709e-05 0)
(-0.00835348 -5.22759e-05 0)
(-0.0083084 -5.77415e-05 0)
(-0.00825886 -6.31626e-05 0)
(-0.00820491 -6.85341e-05 0)
(-0.00814659 -7.3851e-05 0)
(-0.00808394 -7.91081e-05 0)
(-0.00801701 -8.43003e-05 0)
(-0.00794587 -8.94224e-05 0)
(-0.00787057 -9.44692e-05 0)
(-0.00779117 -9.94355e-05 0)
(-0.00770775 -0.000104316 0)
(-0.00762037 -0.000109106 0)
(-0.00752912 -0.0001138 0)
(-0.00743407 -0.000118392 0)
(-0.00733531 -0.000122878 0)
(-0.00723293 -0.000127252 0)
(-0.00712702 -0.000131509 0)
(-0.00701768 -0.000135644 0)
(-0.00690501 -0.000139651 0)
(-0.00678913 -0.000143526 0)
(-0.00667013 -0.000147264 0)
(-0.00654814 -0.000150859 0)
(-0.00642328 -0.000154305 0)
(-0.00629566 -0.000157599 0)
(-0.00616541 -0.000160736 0)
(-0.00603267 -0.000163709 0)
(-0.00589757 -0.000166515 0)
(-0.00576025 -0.000169148 0)
(-0.00562086 -0.000171604 0)
(-0.00547953 -0.000173878 0)
(-0.00533643 -0.000175966 0)
(-0.00519169 -0.000177862 0)
(-0.00504549 -0.000179563 0)
(-0.00489799 -0.000181064 0)
(-0.00474934 -0.000182361 0)
(-0.00459972 -0.00018345 0)
(-0.00444929 -0.000184326 0)
(-0.00429824 -0.000184987 0)
(-0.00414674 -0.000185427 0)
(-0.00399497 -0.000185644 0)
(-0.00384311 -0.000185634 0)
(-0.00369136 -0.000185394 0)
(-0.00353989 -0.00018492 0)
(-0.0033889 -0.00018421 0)
(-0.00323858 -0.00018326 0)
(-0.00308914 -0.000182069 0)
(-0.00294076 -0.000180633 0)
(-0.00279364 -0.000178951 0)
(-0.00264798 -0.000177021 0)
(-0.002504 -0.000174841 0)
(-0.00236188 -0.000172409 0)
(-0.00222183 -0.000169724 0)
(-0.00208407 -0.000166786 0)
(-0.00194878 -0.000163594 0)
(-0.00181618 -0.000160148 0)
(-0.00168647 -0.000156448 0)
(-0.00155986 -0.000152495 0)
(-0.00143654 -0.00014829 0)
(-0.00131672 -0.000143834 0)
(-0.0012006 -0.00013913 0)
(-0.00108837 -0.00013418 0)
(-0.000980228 -0.000128988 0)
(-0.000876365 -0.000123559 0)
(-0.000776966 -0.000117896 0)
(-0.000682212 -0.000112008 0)
(-0.000592276 -0.000105899 0)
(-0.000507326 -9.95806e-05 0)
(-0.000427523 -9.30612e-05 0)
(-0.000353014 -8.6353e-05 0)
(-0.000283938 -7.947e-05 0)
(-0.000220421 -7.24285e-05 0)
(-0.000162571 -6.52478e-05 0)
(-0.00011048 -5.79507e-05 0)
(-6.42202e-05 -5.0564e-05 0)
(-2.38362e-05 -4.31196e-05 0)
(1.06545e-05 -3.56554e-05 0)
(3.9269e-05 -2.82171e-05 0)
(6.20651e-05 -2.08593e-05 0)
(7.91485e-05 -1.36485e-05 0)
(9.06827e-05 -6.66557e-06 0)
(9.68997e-05 -9.47409e-09 0)
(9.81139e-05 6.19758e-06 0)
(9.47389e-05 1.18041e-05 0)
(8.73062e-05 1.66215e-05 0)
(7.64872e-05 2.04155e-05 0)
(6.31187e-05 2.28974e-05 0)
(4.82251e-05 2.37211e-05 0)
(3.30116e-05 2.24981e-05 0)
(1.88443e-05 1.88442e-05 0)
(7.51629e-06 1.25358e-05 0)
(1.41478e-06 4.10444e-06 0)
(1.83424e-06 -8.91018e-06 0)
(9.19763e-06 -2.31498e-05 0)
(2.21561e-05 -3.27056e-05 0)
(3.75753e-05 -3.75556e-05 0)
(5.32637e-05 -3.82131e-05 0)
(6.76201e-05 -3.53288e-05 0)
(7.92368e-05 -2.95455e-05 0)
(8.69071e-05 -2.14417e-05 0)
(8.96356e-05 -1.15118e-05 0)
(8.66163e-05 -1.67955e-07 0)
(7.72074e-05 1.2251e-05 0)
(6.09092e-05 2.54672e-05 0)
(3.7344e-05 3.92535e-05 0)
(6.23698e-06 5.34234e-05 0)
(-3.25988e-05 6.78237e-05 0)
(-7.92764e-05 8.2328e-05 0)
(-0.000133846 9.68316e-05 0)
(-0.000196306 0.000111248 0)
(-0.000266609 0.000125504 0)
(-0.000344669 0.00013954 0)
(-0.00043037 0.000153306 0)
(-0.000523567 0.00016676 0)
(-0.000624093 0.000179865 0)
(-0.00073176 0.000192594 0)
(-0.000846364 0.000204921 0)
(-0.00096769 0.000216826 0)
(-0.00109551 0.000228293 0)
(-0.00122958 0.000239308 0)
(-0.00136965 0.000249859 0)
(-0.00151547 0.000259938 0)
(-0.00166679 0.000269539 0)
(-0.00182334 0.000278655 0)
(-0.00198485 0.000287285 0)
(-0.00215105 0.000295424 0)
(-0.00232168 0.000303073 0)
(-0.00249645 0.00031023 0)
(-0.00267511 0.000316897 0)
(-0.00285737 0.000323076 0)
(-0.00304296 0.000328768 0)
(-0.00323162 0.000333977 0)
(-0.00342307 0.000338705 0)
(-0.00361705 0.000342958 0)
(-0.00381329 0.000346738 0)
(-0.00401153 0.000350052 0)
(-0.0042115 0.000352903 0)
(-0.00441295 0.000355298 0)
(-0.00461562 0.000357243 0)
(-0.00481927 0.000358742 0)
(-0.00502363 0.000359803 0)
(-0.00522846 0.000360431 0)
(-0.00543353 0.000360634 0)
(-0.00563859 0.000360418 0)
(-0.00584341 0.00035979 0)
(-0.00604775 0.000358757 0)
(-0.0062514 0.000357325 0)
(-0.00645411 0.000355503 0)
(-0.00665569 0.000353298 0)
(-0.0068559 0.000350716 0)
(-0.00705454 0.000347766 0)
(-0.0072514 0.000344455 0)
(-0.00744628 0.00034079 0)
(-0.00763897 0.00033678 0)
(-0.0078293 0.000332431 0)
(-0.00801705 0.000327752 0)
(-0.00820205 0.00032275 0)
(-0.00838413 0.000317434 0)
(-0.00856309 0.00031181 0)
(-0.00873876 0.000305888 0)
(-0.00891099 0.000299674 0)
(-0.0090796 0.000293178 0)
(-0.00924444 0.000286406 0)
(-0.00940535 0.000279367 0)
(-0.00956218 0.000272068 0)
(-0.00971479 0.000264519 0)
(-0.00986304 0.000256726 0)
(-0.0100068 0.000248699 0)
(-0.0101459 0.000240444 0)
(-0.0102802 0.000231971 0)
(-0.0104097 0.000223288 0)
(-0.0105342 0.000214403 0)
(-0.0106535 0.000205323 0)
(-0.0107677 0.000196058 0)
(-0.0108765 0.000186616 0)
(-0.0109799 0.000177005 0)
(-0.0110778 0.000167233 0)
(-0.01117 0.00015731 0)
(-0.0112566 0.000147243 0)
(-0.0113374 0.000137041 0)
(-0.0114124 0.000126713 0)
(-0.0114815 0.000116267 0)
(-0.0115445 0.000105713 0)
(-0.0116016 9.50582e-05 0)
(-0.0116525 8.43124e-05 0)
(-0.0116974 7.34843e-05 0)
(-0.011736 6.25828e-05 0)
(-0.0117684 5.16169e-05 0)
(-0.0117946 4.05957e-05 0)
(-0.0118144 2.95284e-05 0)
(-0.011828 1.84241e-05 0)
(-0.0118352 7.29213e-06 0)
(-0.0118361 -3.85818e-06 0)
(-0.0118307 -1.50174e-05 0)
(-0.0118189 -2.61762e-05 0)
(-0.0118007 -3.73249e-05 0)
(-0.0117763 -4.84539e-05 0)
(-0.0117455 -5.95537e-05 0)
(-0.0117084 -7.06145e-05 0)
(-0.011665 -8.16264e-05 0)
(-0.0116154 -9.25798e-05 0)
(-0.0115595 -0.000103465 0)
(-0.0114975 -0.000114271 0)
(-0.0114294 -0.000124989 0)
(-0.0113552 -0.000135608 0)
(-0.011275 -0.000146119 0)
(-0.0111889 -0.000156511 0)
(-0.0110969 -0.000166774 0)
(-0.0109991 -0.000176898 0)
(-0.0108956 -0.000186873 0)
(-0.0107865 -0.000196688 0)
(-0.0106718 -0.000206333 0)
(-0.0105517 -0.000215797 0)
(-0.0104263 -0.000225072 0)
(-0.0102957 -0.000234145 0)
(-0.01016 -0.000243007 0)
(-0.0100193 -0.000251648 0)
(-0.00987381 -0.000260058 0)
(-0.00972359 -0.000268225 0)
(-0.0095688 -0.00027614 0)
(-0.0094096 -0.000283793 0)
(-0.00924612 -0.000291174 0)
(-0.00907854 -0.000298272 0)
(-0.00890702 -0.000305078 0)
(-0.00873172 -0.000311581 0)
(-0.00855282 -0.000317772 0)
(-0.0083705 -0.000323642 0)
(-0.00818494 -0.00032918 0)
(-0.00799634 -0.000334377 0)
(-0.00780489 -0.000339224 0)
(-0.00761079 -0.000343712 0)
(-0.00741425 -0.000347831 0)
(-0.00721549 -0.000351574 0)
(-0.00701471 -0.00035493 0)
(-0.00681214 -0.000357891 0)
(-0.006608 -0.00036045 0)
(-0.00640253 -0.000362599 0)
(-0.00619596 -0.000364328 0)
(-0.00598852 -0.000365632 0)
(-0.00578046 -0.000366502 0)
(-0.00557204 -0.000366932 0)
(-0.00536349 -0.000366915 0)
(-0.00515507 -0.000366444 0)
(-0.00494704 -0.000365514 0)
(-0.00473967 -0.000364118 0)
(-0.0045332 -0.000362252 0)
(-0.00432792 -0.00035991 0)
(-0.00412409 -0.000357088 0)
(-0.00392197 -0.000353783 0)
(-0.00372185 -0.00034999 0)
(-0.003524 -0.000345706 0)
(-0.00332868 -0.000340929 0)
(-0.00313619 -0.000335657 0)
(-0.00294679 -0.000329889 0)
(-0.00276077 -0.000323624 0)
(-0.0025784 -0.000316862 0)
(-0.00239995 -0.000309605 0)
(-0.00222571 -0.000301853 0)
(-0.00205593 -0.00029361 0)
(-0.00189091 -0.00028488 0)
(-0.0017309 -0.000275667 0)
(-0.00157616 -0.000265978 0)
(-0.00142696 -0.00025582 0)
(-0.00128355 -0.000245203 0)
(-0.00114618 -0.000234137 0)
(-0.00101508 -0.000222636 0)
(-0.000890495 -0.000210715 0)
(-0.000772632 -0.000198393 0)
(-0.000661705 -0.000185689 0)
(-0.000557907 -0.00017263 0)
(-0.000461415 -0.000159244 0)
(-0.000372388 -0.000145564 0)
(-0.000290964 -0.00013163 0)
(-0.000217255 -0.000117488 0)
(-0.000151342 -0.000103193 0)
(-9.32754e-05 -8.88089e-05 0)
(-4.30634e-05 -7.44108e-05 0)
(-6.68943e-07 -6.0089e-05 0)
(3.39993e-05 -4.59506e-05 0)
(6.10959e-05 -3.21239e-05 0)
(8.085e-05 -1.87632e-05 0)
(9.35776e-05 -6.05457e-06 0)
(9.96971e-05 5.77652e-06 0)
(9.9746e-05 1.64567e-05 0)
(9.44006e-05 2.56547e-05 0)
(8.44957e-05 3.29711e-05 0)
(7.10474e-05 3.79312e-05 0)
(5.52714e-05 3.99869e-05 0)
(3.85689e-05 3.85417e-05 0)
(2.25136e-05 3.3014e-05 0)
(9.24416e-06 2.29914e-05 0)
(1.81631e-06 8.65406e-06 0)
(1.9624e-06 -1.40397e-05 0)
(9.69469e-06 -3.44463e-05 0)
(2.29956e-05 -4.73231e-05 0)
(3.83174e-05 -5.32559e-05 0)
(5.32203e-05 -5.30915e-05 0)
(6.5947e-05 -4.77485e-05 0)
(7.49566e-05 -3.81118e-05 0)
(7.89173e-05 -2.49822e-05 0)
(7.67153e-05 -9.05721e-06 0)
(6.74333e-05 9.06889e-06 0)
(5.03277e-05 2.88962e-05 0)
(2.48091e-05 5.00071e-05 0)
(-9.57743e-06 7.20532e-05 0)
(-5.31696e-05 9.47448e-05 0)
(-0.000106204 0.00011784 0)
(-0.000168831 0.000141137 0)
(-0.000241126 0.000164467 0)
(-0.000323099 0.000187688 0)
(-0.000414707 0.000210682 0)
(-0.000515858 0.000233349 0)
(-0.000626421 0.000255604 0)
(-0.000746231 0.000277377 0)
(-0.000875091 0.000298608 0)
(-0.00101278 0.000319246 0)
(-0.00115906 0.000339251 0)
(-0.00131366 0.000358586 0)
(-0.00147632 0.000377222 0)
(-0.00164674 0.000395136 0)
(-0.00182462 0.000412307 0)
(-0.00200964 0.000428719 0)
(-0.00220151 0.000444361 0)
(-0.00239988 0.000459221 0)
(-0.00260444 0.000473294 0)
(-0.00281485 0.000486574 0)
(-0.00303077 0.000499059 0)
(-0.00325187 0.000510746 0)
(-0.00347782 0.000521637 0)
(-0.00370827 0.000531733 0)
(-0.00394289 0.000541037 0)
(-0.00418133 0.000549552 0)
(-0.00442327 0.000557285 0)
(-0.00466837 0.000564241 0)
(-0.00491629 0.000570427 0)
(-0.00516672 0.000575849 0)
(-0.00541931 0.000580515 0)
(-0.00567375 0.000584435 0)
(-0.00592972 0.000587617 0)
(-0.0061869 0.00059007 0)
(-0.00644498 0.000591804 0)
(-0.00670365 0.00059283 0)
(-0.0069626 0.000593158 0)
(-0.00722154 0.000592798 0)
(-0.00748016 0.000591763 0)
(-0.00773818 0.000590062 0)
(-0.00799531 0.000587708 0)
(-0.00825127 0.000584711 0)
(-0.00850578 0.000581085 0)
(-0.00875858 0.000576841 0)
(-0.00900938 0.000571991 0)
(-0.00925794 0.000566547 0)
(-0.009504 0.000560522 0)
(-0.0097473 0.000553928 0)
(-0.00998761 0.000546778 0)
(-0.0102247 0.000539085 0)
(-0.0104583 0.00053086 0)
(-0.0106881 0.000522118 0)
(-0.0109141 0.00051287 0)
(-0.0111359 0.00050313 0)
(-0.0113534 0.000492911 0)
(-0.0115663 0.000482225 0)
(-0.0117744 0.000471087 0)
(-0.0119775 0.000459508 0)
(-0.0121756 0.000447503 0)
(-0.0123682 0.000435084 0)
(-0.0125554 0.000422265 0)
(-0.0127369 0.000409058 0)
(-0.0129125 0.000395479 0)
(-0.0130821 0.000381539 0)
(-0.0132456 0.000367253 0)
(-0.0134027 0.000352634 0)
(-0.0135534 0.000337695 0)
(-0.0136975 0.000322451 0)
(-0.0138349 0.000306916 0)
(-0.0139654 0.000291102 0)
(-0.0140889 0.000275024 0)
(-0.0142054 0.000258696 0)
(-0.0143147 0.000242132 0)
(-0.0144167 0.000225346 0)
(-0.0145113 0.000208353 0)
(-0.0145985 0.000191166 0)
(-0.0146781 0.0001738 0)
(-0.01475 0.00015627 0)
(-0.0148143 0.000138589 0)
(-0.0148708 0.000120774 0)
(-0.0149196 0.000102838 0)
(-0.0149604 8.47965e-05 0)
(-0.0149934 6.66644e-05 0)
(-0.0150184 4.84567e-05 0)
(-0.0150355 3.01887e-05 0)
(-0.0150445 1.18756e-05 0)
(-0.0150456 -6.46714e-06 0)
(-0.0150387 -2.48241e-05 0)
(-0.0150237 -4.31796e-05 0)
(-0.0150007 -6.15181e-05 0)
(-0.0149697 -7.98236e-05 0)
(-0.0149308 -9.80802e-05 0)
(-0.0148839 -0.000116272 0)
(-0.014829 -0.000134383 0)
(-0.0147663 -0.000152397 0)
(-0.0146957 -0.000170297 0)
(-0.0146174 -0.000188068 0)
(-0.0145313 -0.000205692 0)
(-0.0144376 -0.000223153 0)
(-0.0143363 -0.000240436 0)
(-0.0142275 -0.000257522 0)
(-0.0141113 -0.000274395 0)
(-0.0139878 -0.000291039 0)
(-0.0138571 -0.000307436 0)
(-0.0137193 -0.00032357 0)
(-0.0135745 -0.000339424 0)
(-0.0134228 -0.000354981 0)
(-0.0132645 -0.000370224 0)
(-0.0130996 -0.000385136 0)
(-0.0129282 -0.0003997 0)
(-0.0127506 -0.000413899 0)
(-0.0125669 -0.000427717 0)
(-0.0123773 -0.000441137 0)
(-0.0121819 -0.000454142 0)
(-0.0119809 -0.000466715 0)
(-0.0117746 -0.00047884 0)
(-0.011563 -0.0004905 0)
(-0.0113465 -0.00050168 0)
(-0.0111253 -0.000512362 0)
(-0.0108995 -0.000522531 0)
(-0.0106693 -0.000532171 0)
(-0.0104352 -0.000541267 0)
(-0.0101971 -0.000549802 0)
(-0.0099555 -0.000557762 0)
(-0.00971054 -0.000565132 0)
(-0.00946251 -0.000571896 0)
(-0.00921167 -0.000578041 0)
(-0.00895828 -0.000583553 0)
(-0.00870264 -0.000588417 0)
(-0.00844502 -0.000592621 0)
(-0.00818572 -0.00059615 0)
(-0.00792502 -0.000598993 0)
(-0.00766323 -0.000601138 0)
(-0.00740066 -0.000602571 0)
(-0.00713761 -0.000603284 0)
(-0.00687439 -0.000603263 0)
(-0.00661134 -0.0006025 0)
(-0.00634876 -0.000600984 0)
(-0.006087 -0.000598707 0)
(-0.00582637 -0.00059566 0)
(-0.00556721 -0.000591835 0)
(-0.00530986 -0.000587225 0)
(-0.00505466 -0.000581825 0)
(-0.00480194 -0.000575628 0)
(-0.00455205 -0.000568631 0)
(-0.00430534 -0.000560828 0)
(-0.00406215 -0.000552219 0)
(-0.00382282 -0.000542801 0)
(-0.0035877 -0.000532574 0)
(-0.00335713 -0.000521539 0)
(-0.00313146 -0.000509698 0)
(-0.00291103 -0.000497054 0)
(-0.00269618 -0.000483614 0)
(-0.00248724 -0.000469384 0)
(-0.00228454 -0.000454373 0)
(-0.00208841 -0.000438592 0)
(-0.00189916 -0.000422056 0)
(-0.00171711 -0.00040478 0)
(-0.00154256 -0.000386784 0)
(-0.00137581 -0.00036809 0)
(-0.00121713 -0.000348726 0)
(-0.00106678 -0.000328722 0)
(-0.000925028 -0.000308115 0)
(-0.000792094 -0.000286947 0)
(-0.000668191 -0.000265267 0)
(-0.000553507 -0.000243132 0)
(-0.0004482 -0.000220608 0)
(-0.000352396 -0.000197773 0)
(-0.000266186 -0.000174716 0)
(-0.000189616 -0.000151543 0)
(-0.000122684 -0.000128379 0)
(-6.53332e-05 -0.000105369 0)
(-1.74392e-05 -8.26855e-05 0)
(2.1197e-05 -6.05327e-05 0)
(5.08613e-05 -3.91534e-05 0)
(7.19401e-05 -1.88361e-05 0)
(8.4935e-05 7.48329e-08 0)
(9.04795e-05 1.71695e-05 0)
(8.93563e-05 3.19609e-05 0)
(8.25158e-05 4.38748e-05 0)
(7.10961e-05 5.22438e-05 0)
(5.64416e-05 5.63112e-05 0)
(4.00903e-05 5.52561e-05 0)
(2.37769e-05 4.82509e-05 0)
(9.90383e-06 3.45757e-05 0)
(1.97374e-06 1.38348e-05 0)
(1.91635e-06 -1.91882e-05 0)
(9.33532e-06 -4.55966e-05 0)
(2.17913e-05 -6.13394e-05 0)
(3.55654e-05 -6.76717e-05 0)
(4.80718e-05 -6.58432e-05 0)
(5.74411e-05 -5.70791e-05 0)
(6.20425e-05 -4.25236e-05 0)
(6.04639e-05 -2.32069e-05 0)
(5.15144e-05 -3.33244e-08 0)
(3.42021e-05 2.62157e-05 0)
(7.71293e-06 5.48727e-05 0)
(-2.86077e-05 8.53712e-05 0)
(-7.52724e-05 0.000117232 0)
(-0.000132669 0.000150051 0)
(-0.000201073 0.000183487 0)
(-0.000280668 0.000217252 0)
(-0.000371549 0.000251102 0)
(-0.000473741 0.000284831 0)
(-0.000587204 0.000318266 0)
(-0.000711844 0.000351259 0)
(-0.000847519 0.000383683 0)
(-0.000994047 0.000415434 0)
(-0.00115121 0.000446421 0)
(-0.00131876 0.000476567 0)
(-0.00149641 0.000505809 0)
(-0.00168388 0.000534092 0)
(-0.00188084 0.000561371 0)
(-0.00208697 0.000587608 0)
(-0.0023019 0.000612771 0)
(-0.00252529 0.000636836 0)
(-0.00275676 0.000659782 0)
(-0.00299594 0.000681592 0)
(-0.00324243 0.000702255 0)
(-0.00349586 0.000721762 0)