/*--------------------------------*- C++ -*----------------------------------*\
  =========                 |
  \\      /  F ield         | OpenFOAM: The Open Source CFD Toolbox
   \\    /   O peration     | Website:  https://openfoam.org
    \\  /    A nd           | Version:  7
     \\/     M anipulation  |
\*---------------------------------------------------------------------------*/
FoamFile
{
    version     2.0;
    format      ascii;
    class       surfaceScalarField;
    location    "44";
    object      phi;
}
// * * * * * * * * * * * * * * * * * * * * * * * * * * * * * * * * * * * * * //

dimensions      [0 3 -1 0 0 0 0];

internalField   nonuniform List<scalar> 
30080
(
-0.000478735
0.000401034
7.7701e-05
-0.000835641
0.000236366
0.00012054
-0.00127313
0.000279987
0.000157505
-0.00168266
0.000328587
8.09385e-05
-0.00209873
0.000544792
-0.000128723
-0.00250077
0.000785291
-0.000383247
-0.00286618
0.000886384
-0.000520978
-0.00312618
0.000677413
-0.000417405
-0.00328542
0.000242336
-8.30996e-05
-0.00317552
-0.000459633
0.000349737
-0.00292204
-0.000888999
0.000635511
-0.00233523
-0.00123171
0.000644906
-0.00136201
-0.00133869
0.000365464
-0.00022965
-0.00110992
-2.24409e-05
-0.00129234
-0.000289928
0.00135262
-0.000474679
0.000875713
-0.000820501
0.000582188
-0.00123614
0.000695631
-0.00160802
0.000700465
-0.00196338
0.00090015
-0.00227255
0.00109446
-0.00249737
0.00111121
-0.00256425
0.000744287
-0.00244773
0.000125824
-0.00201762
-0.000889746
-0.00143165
-0.00147497
-0.00036911
-0.00229425
0.000899336
-0.00260713
0.00251838
-0.00272896
-0.00340724
0.00463328
-0.000465784
0.0013415
-0.000788887
0.000905291
-0.00116159
0.00106834
-0.00146114
0.00100001
-0.00170144
0.00114045
-0.00183914
0.00123216
-0.00181116
0.00108322
-0.00154933
0.000482456
-0.00097971
-0.000443798
-2.13935e-05
-0.00184806
0.0011021
-0.00259846
0.00280309
-0.00399524
0.0046791
-0.00448314
0.00689408
-0.00494394
-0.00612237
0.00960921
-0.000452354
0.00179385
-0.000741755
0.00119469
-0.00105159
0.00137818
-0.00124724
0.00119566
-0.0013253
0.00121851
-0.00122862
0.00113548
-0.000863788
0.000718391
-0.0001889
-0.000192432
0.000911108
-0.00154381
0.00242392
-0.00336087
0.00419673
-0.00437128
0.00642566
-0.00622417
0.00884347
-0.00690095
0.011541
-0.00764149
-0.00904386
0.0144625
-0.000434806
0.00222866
-0.000680351
0.00144024
-0.00090855
0.00160638
-0.000971832
0.00125894
-0.00084727
0.00109395
-0.000467179
0.000755393
0.000289913
-3.87009e-05
0.00145261
-0.00135513
0.00305483
-0.00314602
0.00506676
-0.0053728
0.00737501
-0.00667952
0.00989212
-0.00874129
0.0125657
-0.00957454
0.0154277
-0.0105035
-0.0117447
0.0181285
-0.000413621
0.00264228
-0.00060604
0.00163266
-0.000734463
0.0017348
-0.000638746
0.00116322
-0.000275737
0.000730939
0.000432712
4.6943e-05
0.00160232
-0.00120831
0.00325585
-0.00300866
0.00530723
-0.0051974
0.00765205
-0.00771762
0.0102331
-0.00926062
0.0127518
-0.0112599
0.0153466
-0.0121694
0.0179687
-0.0131256
-0.0140296
0.0202536
-0.000389277
0.00303155
-0.000520074
0.00176345
-0.00053016
0.00174489
-0.000248533
0.000881597
0.000385833
9.65739e-05
0.00146044
-0.00102766
0.00304306
-0.00279093
0.00510773
-0.00507333
0.00746689
-0.00755656
0.00991682
-0.0101676
0.0124497
-0.0117935
0.0147404
-0.0135507
0.0170002
-0.0144292
0.019189
-0.0153144
-0.0159442
0.0211036
-0.000362167
0.00339372
-0.000423289
0.00182458
-0.000294462
0.00161606
0.000203011
0.000384124
0.00113899
-0.000839409
0.00259171
-0.00248037
0.00454361
-0.00474283
0.00686494
-0.00739466
0.0093111
-0.0100027
0.0116308
-0.0124873
0.0138796
-0.0140422
0.0158453
-0.0155163
0.017719
-0.0163029
0.0195488
-0.0171441
-0.0176571
0.0212616
-0.000332482
0.0037262
-0.000315661
0.00180776
-2.16018e-05
0.001322
0.000722886
-0.000360364
0.00198071
-0.00209723
0.00378094
-0.0042806
0.00598517
-0.00694706
0.00836192
-0.00977141
0.0106704
-0.0123112
0.012712
-0.0145289
0.0146106
-0.0159408
0.0162889
-0.0171947
0.0178966
-0.0179106
0.0195294
-0.0187769
-0.0192797
0.0211521
-0.000300071
0.00402627
-0.000195642
0.00170333
0.000283786
0.000842571
0.00131452
-0.0013911
0.00288664
-0.00366935
0.00494237
-0.00633633
0.00722466
-0.00922936
0.00946845
-0.0120152
0.0115091
-0.0143518
0.0132546
-0.0162744
0.0148688
-0.0175551
0.0163559
-0.0186818
0.017826
-0.0193807
0.0193553
-0.0203061
-0.0208463
0.0209218
-0.000264267
0.00429054
-5.99788e-05
0.00149904
0.000638111
0.000144481
0.00196892
-0.00272191
0.00379941
-0.00549984
0.00596627
-0.00850319
0.00815728
-0.0114204
0.0101616
-0.0140195
0.0119211
-0.0161113
0.0134338
-0.017787
0.0148618
-0.018983
0.0162311
-0.0200512
0.0176291
-0.0207787
0.0190939
-0.021771
-0.0223731
0.0206207
-0.000223718
0.00451426
0.000103723
0.0011716
0.00104332
-0.00079512
0.00265396
-0.00433255
0.0046382
-0.00748407
0.00676632
-0.0106313
0.00876224
-0.0134163
0.0105142
-0.0157715
0.0120444
-0.0176415
0.013397
-0.0191396
0.0147089
-0.0202949
0.0160018
-0.0213441
0.0173584
-0.0221352
0.0187813
-0.0231938
-0.0238706
0.0202788
-0.000176206
0.00469046
0.000302848
0.000692543
0.0014941
-0.00198637
0.00331717
-0.00615562
0.00533115
-0.00949806
0.00731672
-0.0126169
0.00909022
-0.0151898
0.0106278
-0.0173091
0.0119887
-0.0190024
0.0132339
-0.0203848
0.0144712
-0.0215322
0.0157138
-0.0225868
0.0170429
-0.0234643
0.018431
-0.024582
-0.025342
0.0199024
-0.000118466
0.00480893
0.000542192
3.1885e-05
0.00197096
-0.00341514
0.0039037
-0.00808836
0.00584469
-0.0114391
0.00764531
-0.0144175
0.00921488
-0.0167594
0.0105852
-0.0186794
0.011824
-0.0202412
0.0129962
-0.021557
0.0141822
-0.0227182
0.0153889
-0.0237935
0.0166929
-0.0247682
0.0180468
-0.0259359
-0.0267894
0.0194942
-4.61249e-05
0.00485506
0.000821752
-0.000835992
0.00244106
-0.00503444
0.00437721
-0.0100245
0.00618508
-0.0132469
0.00780101
-0.0160334
0.00919947
-0.0181578
0.0104421
-0.0199221
0.0115923
-0.0213914
0.0127126
-0.0226774
0.0138587
-0.0238643
0.0150361
-0.0249709
0.0163139
-0.0260459
0.0176326
-0.0272546
-0.0282137
0.0190568
4.1421e-05
0.00481363
0.00113107
-0.00192565
0.00286743
-0.0067708
0.0047273
-0.0118844
0.0063798
-0.0148994
0.00782998
-0.0174836
0.00908959
-0.0194174
0.0102346
-0.0210671
0.0113185
-0.0224752
0.0123986
-0.0237574
0.0135093
-0.024975
0.0146605
-0.0261222
0.0159088
-0.0272942
0.0171907
-0.0285366
-0.0296134
0.0185905
0.000141773
0.00467186
0.00145211
-0.00323598
0.00322221
-0.0085409
0.00496241
-0.0136246
0.00646029
-0.0163973
0.00776826
-0.0187916
0.00891616
-0.0205653
0.0099848
-0.0221357
0.0110166
-0.0235071
0.0120619
-0.0248027
0.0131387
-0.0260518
0.0142644
-0.0272479
0.0154787
-0.0285084
0.0167228
-0.0297807
-0.0309862
0.0180956
0.00025131
0.00442055
0.0017628
-0.00474747
0.00349423
-0.0102723
0.00509944
-0.0152298
0.00645413
-0.017752
0.00764217
-0.0199796
0.00869959
-0.0216228
0.00970645
-0.0231426
0.0106946
-0.0244952
0.0117068
-0.0258148
0.0127503
-0.0270953
0.0138498
-0.0283474
0.0150247
-0.0296834
0.01623
-0.030986
-0.0323275
0.0175713
0.000359091
0.00406146
0.00204054
-0.00642892
0.00368646
-0.0119183
0.00515668
-0.0167
0.00638318
-0.0189785
0.0074703
-0.0210667
0.00845312
-0.0226056
0.00940786
-0.0240973
0.0103569
-0.0254443
0.0113356
-0.0267935
0.0123458
-0.0281055
0.0134164
-0.0294179
0.014547
-0.030814
0.0157127
-0.0321518
-0.0336299
0.0170151
0.000457866
0.0036036
0.00226777
-0.00823883
0.0038086
-0.0134591
0.00515064
-0.018042
0.00626398
-0.0200918
0.00726559
-0.0220684
0.00818529
-0.0235253
0.00909402
-0.0250061
0.0100058
-0.0263561
0.01095
-0.0277377
0.0119265
-0.029082
0.0129638
-0.0304552
0.0140453
-0.0318956
0.0151698
-0.0332763
-0.0348892
0.0164292
0.00054898
0.00305462
0.00243743
-0.0101273
0.00387206
-0.0148937
0.00509507
-0.019265
0.00610872
-0.0211055
0.00703683
-0.0229965
0.00790138
-0.0243898
0.00876767
-0.0258724
0.0096425
-0.0272309
0.0105507
-0.0286459
0.0114923
-0.0300236
0.0124921
-0.031455
0.0135271
-0.0329306
0.0146216
-0.0343708
-0.0360809
0.0158133
0.000642375
0.00241224
0.00255419
-0.0120391
0.00388802
-0.0162275
0.00500125
-0.0203783
0.00592671
-0.022031
0.00679047
-0.0238602
0.00760532
-0.0252047
0.00843102
-0.0266981
0.00926832
-0.0280683
0.0101393
-0.0295169
0.0110444
-0.0309286
0.0120028
-0.0324134
0.0129939
-0.0339217
0.0140702
-0.0354471
-0.0371832
0.0151726
0.000751461
0.00166078
0.00262782
-0.0139155
0.00386573
-0.0174654
0.00487765
-0.0213902
0.00572445
-0.0228778
0.00653054
-0.0246663
0.00729917
-0.0259733
0.00808493
-0.0274838
0.00888371
-0.028867
0.00971614
-0.0303493
0.0105823
-0.0317948
0.0114969
-0.0333279
0.0124497
-0.0348746
0.0134748
-0.0364721
-0.0382266
0.0145182
0.000886777
0.000774002
0.00266766
-0.0156963
0.00381224
-0.01861
0.00473066
-0.0223086
0.00550673
-0.0236538
0.00625989
-0.0254195
0.0069844
-0.0266978
0.00773014
-0.0282295
0.00848924
-0.0296261
0.00928163
-0.0311417
0.0101067
-0.0326199
0.0109771
-0.0341984
0.0118841
-0.0357816
0.0128606
-0.0374486
-0.039233
0.013867
0.00105125
-0.000277243
0.00268051
-0.0173256
0.00373248
-0.019662
0.00456501
-0.0231411
0.00527703
-0.0243659
0.00598049
-0.0261229
0.00666204
-0.0273794
0.00736719
-0.0289347
0.0080854
-0.0303443
0.00883627
-0.0318926
0.00961843
-0.033402
0.010442
-0.0350219
0.0113053
-0.036645
0.0122286
-0.038372
-0.0401809
0.0131765
0.00123452
-0.00151176
0.00267011
-0.0187612
0.0036298
-0.0206217
0.00438423
-0.0238956
0.00503787
-0.0250195
0.00569373
-0.0267788
0.00633281
-0.0280185
0.00699657
-0.0295985
0.0076727
-0.0310205
0.00838062
-0.0326005
0.00911777
-0.0341392
0.00989462
-0.0357987
0.0107085
-0.0374588
0.0115765
-0.03924
-0.0410827
0.0124783
0.00141249
-0.00292425
0.00263771
-0.0199864
0.00350661
-0.0214906
0.00419101
-0.02458
0.0047911
-0.0256196
0.00540063
-0.0273883
0.00599729
-0.0286151
0.00661871
-0.0302199
0.00725165
-0.0316534
0.00791513
-0.033264
0.00860609
-0.0348301
0.00933346
-0.0365261
0.0100981
-0.0382235
0.0109121
-0.0400539
-0.041925
0.0117544
0.00155508
-0.00447933
0.00258363
-0.021015
0.00336532
-0.0222723
0.0039876
-0.0252022
0.0045381
-0.0261701
0.00510198
-0.0279522
0.00565601
-0.0291692
0.00623408
-0.0307979
0.00682274
-0.0322421
0.00744049
-0.0338817
0.00808338
-0.035473
0.00876118
-0.0372039
0.00947349
-0.0389358
0.0102289
-0.0408094
-0.0427144
0.0110183
0.0016403
-0.00611963
0.00250919
-0.0218838
0.003211
-0.0229741
0.00377596
-0.0257672
0.00427991
-0.026674
0.00479839
-0.0284707
0.00530943
-0.0296802
0.00584312
-0.0313316
0.00638651
-0.0327855
0.00695716
-0.0344524
0.00755108
-0.036067
0.00817702
-0.0378299
0.00883586
-0.0395946
0.00953494
-0.0415084
-0.0434431
0.0102637
0.0016645
-0.00778413
0.00241759
-0.0226369
0.0030472
-0.0236037
0.00355777
-0.0262778
0.00401731
-0.0271336
0.00449041
-0.0289438
0.00495801
-0.0301478
0.00544632
-0.0318199
0.00594349
-0.0332827
0.00646593
-0.0349748
0.00700931
-0.0366103
0.00758289
-0.0384034
0.0081866
-0.0401983
0.00882511
-0.042147
-0.0441138
0.00949577
0.00164034
-0.00942447
0.00231311
-0.0233097
0.00287626
-0.0241668
0.00333439
-0.0267359
0.00375097
-0.0275502
0.00417849
-0.0293713
0.00460218
-0.0305715
0.00504417
-0.0322619
0.00549427
-0.0337328
0.00596728
-0.0354478
0.00645937
-0.0371024
0.00697885
-0.0389229
0.00752584
-0.0407453
0.0081054
-0.0427265
-0.0447219
0.00871351
0.00158575
-0.0110102
0.00219765
-0.0239216
0.00269988
-0.0246691
0.00310693
-0.027143
0.00348143
-0.0279247
0.00386307
-0.0297529
0.00424241
-0.0309508
0.00463719
-0.0326567
0.0050394
-0.034135
0.00546205
-0.0358705
0.0059016
-0.037542
0.00636625
-0.0393876
0.00685565
-0.0412347
0.00737284
-0.0432437
-0.045268
0.00791893
0.00151531
-0.0125255
0.0020727
-0.024479
0.00251926
-0.0251156
0.00287629
-0.0275
0.00320919
-0.0282576
0.00354458
-0.0300883
0.00387914
-0.0312854
0.00422591
-0.0330035
0.00457952
-0.0344886
0.0049508
-0.0362417
0.00533713
-0.0379283
0.00574567
-0.0397961
0.0061759
-0.041665
0.00663158
-0.0436994
-0.0457495
0.00711307
0.00143701
-0.0139625
0.00194071
-0.0249827
0.00233537
-0.0255103
0.0026432
-0.0278078
0.00293473
-0.0285491
0.00322346
-0.0303771
0.00351283
-0.0315748
0.00381089
-0.0333015
0.00411522
-0.0347929
0.00443434
-0.0365609
0.00476649
-0.0382605
0.00511814
-0.0401478
0.00548872
-0.0420356
0.00588042
-0.0440911
-0.0461659
0.00629683
0.00135433
-0.0153169
0.00180347
-0.0254319
0.00214903
-0.0258558
0.00240829
-0.0280671
0.00265847
-0.0287993
0.00290013
-0.0306187
0.00314398
-0.0318186
0.00339264
-0.0335502
0.00364715
-0.0350474
0.0039133
-0.036827
0.00419069
-0.0385379
0.00448451
-0.0404416
0.00479419
-0.0423452
0.0051226
-0.0444195
-0.0465153
0.00547206
0.0012688
-0.0165857
0.0016624
-0.0258255
0.00196095
-0.0261544
0.00217208
-0.0282782
0.00238086
-0.0290081
0.002575
-0.0308128
0.00277307
-0.0320167
0.00297173
-0.0337488
0.00317598
-0.0352517
0.00338849
-0.0370395
0.0036104
-0.0387598
0.00384565
-0.0406768
0.00409416
-0.0425937
0.0043577
-0.044683
-0.0467971
0.00463946
0.00118126
-0.0177669
0.00151862
-0.0261628
0.00177173
-0.0264075
0.001935
-0.0284415
0.00210231
-0.0291754
0.00224848
-0.030959
0.00240067
-0.0321689
0.00254868
-0.0338968
0.00270239
-0.0354054
0.00286058
-0.0371977
0.00302659
-0.0389258
0.00320254
-0.0408528
0.00338887
-0.0427801
0.00358779
-0.044882
-0.0470107
0.00380145
0.00109235
-0.0188593
0.00137306
-0.0264435
0.00158193
-0.0266164
0.00169743
-0.028557
0.00182329
-0.0293012
0.00192096
-0.0310567
0.00202731
-0.0322752
0.00212407
-0.0339936
0.00222702
-0.0355084
0.00233042
-0.0373011
0.00243997
-0.0390353
0.00255612
-0.0409689
0.00267998
-0.0429039
0.00281278
-0.0450148
-0.0471565
0.0029586
0.00100258
-0.0198618
0.00122646
-0.0266674
0.00139205
-0.026782
0.00145971
-0.0286246
0.00154425
-0.0293858
0.00159288
-0.0311053
0.00165342
-0.0323358
0.00169862
-0.0340388
0.00175041
-0.0355601
0.00179883
-0.0373495
0.00185137
-0.0390879
0.00190753
-0.0410251
0.00196814
-0.0429645
0.00203432
-0.0450809
-0.0472329
0.00211063
0.000912403
-0.0207743
0.00107941
-0.0268344
0.00120254
-0.0269051
0.00122212
-0.0286442
0.00126558
-0.0294292
0.00126475
-0.0311045
0.00127937
-0.0323504
0.00127313
-0.0340326
0.00127305
-0.0355601
0.00126667
-0.0373432
0.00126156
-0.0390827
0.00125772
-0.0410213
0.0012549
-0.0429617
0.00125361
-0.0450796
-0.0472375
0.00125828
0.000822165
-0.0215964
0.00093232
-0.0269446
0.00101372
-0.0269865
0.000984805
-0.0286153
0.000987443
-0.0294319
0.000936824
-0.0310539
0.000905337
-0.0323189
0.000847702
-0.0339749
0.000795563
-0.0355079
0.000733896
-0.0372815
0.000671357
-0.0390202
0.000606762
-0.0409567
0.000540444
-0.0428954
0.000473067
-0.0450123
-0.047166
0.000401493
0.000732298
-0.0223287
0.000785717
-0.026998
0.000826215
-0.027027
0.000748367
-0.0285374
0.000710695
-0.0293942
0.000609698
-0.0309529
0.000533241
-0.0322424
0.00042236
-0.0338641
0.000320937
-0.0354065
0.000200669
-0.0371612
8.43123e-05
-0.0389038
-4.4743e-05
-0.0408276
-0.000172214
-0.0427679
-0.000306763
-0.0448777
-0.0470213
-0.000451451
0.000643065
-0.0229718
0.000639797
-0.0269947
0.000640282
-0.0270275
0.000512635
-0.0284098
0.000436191
-0.0293178
0.000281884
-0.0307986
0.000165947
-0.0321265
-8.5663e-06
-0.0336895
-0.000152145
-0.0352629
-0.000327529
-0.0369858
-0.000504806
-0.0387266
-0.00069013
-0.0406423
-0.000884101
-0.042574
-0.00108762
-0.0446742
-0.0468101
-0.00129876
0.00055473
-0.0235265
0.000494732
-0.0269347
0.000456469
-0.0269892
0.00027664
-0.02823
0.000166636
-0.0292078
-4.80115e-05
-0.0305839
-0.000205212
-0.0319693
-0.000418559
-0.0334762
-0.000628994
-0.0350525
-0.000852381
-0.0367624
-0.00108968
-0.0384893
-0.00133484
-0.0403971
-0.00159272
-0.0423161
-0.00186383
-0.0444031
-0.0465299
-0.00214402
0.00046753
-0.023994
0.000350415
-0.0268176
0.000275875
-0.0269147
3.4173e-05
-0.0279883
-0.000104349
-0.0290692
-0.000356646
-0.0303316
-0.000578838
-0.0317471
-0.000832047
-0.033223
-0.00109982
-0.0347847
-0.00137594
-0.0364863
-0.00166994
-0.0381953
-0.00197628
-0.0400908
-0.00229729
-0.0419951
-0.00263471
-0.0440657
-0.0461798
-0.00298484
0.000381716
-0.0243758
0.000205946
-0.0266418
0.000101198
-0.0268099
-0.000181233
-0.0277058
-0.000385236
-0.0288652
-0.000667648
-0.0300492
-0.000946303
-0.0314684
-0.00124428
-0.032925
-0.00156536
-0.0344636
-0.00189637
-0.0361553
-0.00224576
-0.0378459
-0.00261294
-0.0397236
-0.00299654
-0.0416115
-0.00339957
-0.0436626
-0.0457599
-0.00381946
0.000297632
-0.0246734
5.68913e-05
-0.0264011
-7.83589e-05
-0.0266747
-0.000396261
-0.0273879
-0.000658686
-0.0286028
-0.000977514
-0.0297304
-0.00130836
-0.0311376
-0.00165382
-0.0325795
-0.00202567
-0.0340918
-0.0024122
-0.0357688
-0.00281681
-0.0374413
-0.00324377
-0.0392966
-0.00368945
-0.0411658
-0.00415726
-0.0431948
-0.0452709
-0.00464623
0.000215753
-0.0248891
-7.37115e-05
-0.0261116
-0.00026872
-0.0264797
-0.000611076
-0.0270456
-0.000926824
-0.0282871
-0.0012851
-0.0293721
-0.00166508
-0.0307576
-0.00205957
-0.0321851
-0.00248068
-0.0336707
-0.00292216
-0.0353273
-0.00338218
-0.0369813
-0.00386785
-0.038811
-0.00437489
-0.0406587
-0.00490687
-0.0426629
-0.0447141
-0.00546372
0.000136737
-0.0250259
-0.000192842
-0.0257821
-0.000450612
-0.0262219
-0.00082408
-0.0266721
-0.00118984
-0.0279213
-0.00158956
-0.0289724
-0.00201641
-0.0303308
-0.00246044
-0.031741
-0.00293014
-0.033201
-0.00342543
-0.034832
-0.00394073
-0.036466
-0.00448433
-0.0382674
-0.00505194
-0.0400911
-0.00564721
-0.0420676
-0.0440906
-0.00627074
6.19008e-05
-0.0250878
-0.000313217
-0.0254069
-0.000627236
-0.0259079
-0.00103469
-0.0262647
-0.00144784
-0.0275082
-0.00189012
-0.0285301
-0.00236222
-0.0298587
-0.00285556
-0.0312477
-0.00337358
-0.0326829
-0.00392139
-0.0342842
-0.00449145
-0.0358959
-0.00509225
-0.0376666
-0.00571961
-0.0394638
-0.00637734
-0.0414099
-0.0434019
-0.00706597
-6.56874e-06
-0.0250812
-0.000432636
-0.0249809
-0.000799271
-0.0255412
-0.0012423
-0.0258216
-0.00170071
-0.0270497
-0.00218611
-0.0280447
-0.00270226
-0.0293425
-0.00324413
-0.0307058
-0.00381029
-0.0321168
-0.00440947
-0.033685
-0.00503345
-0.0352719
-0.00569067
-0.0370094
-0.00637692
-0.0387775
-0.00709617
-0.0406906
-0.04265
-0.00784808
-0.00010168
-0.0249795
-0.000550504
-0.0245321
-0.000966887
-0.0251249
-0.00144645
-0.0253421
-0.00194836
-0.0265478
-0.00247689
-0.0275162
-0.00303625
-0.0287831
-0.00362556
-0.0301165
-0.00423951
-0.0315028
-0.00488903
-0.0330355
-0.00556597
-0.034595
-0.00627867
-0.0362967
-0.0070228
-0.0380334
-0.00780244
-0.039911
-0.0418369
-0.00861554
-0.000183866
-0.0247957
-0.000665899
-0.02405
-0.00113005
-0.0246607
-0.00164671
-0.0248254
-0.00219063
-0.0260039
-0.00276191
-0.0269449
-0.00336378
-0.0281813
-0.0039993
-0.029481
-0.0046605
-0.0308416
-0.00535939
-0.0323366
-0.00608825
-0.0338661
-0.00685537
-0.0355295
-0.00765617
-0.0372326
-0.00849456
-0.0390726
-0.0409637
-0.00936774
-0.000261591
-0.0245341
-0.000778801
-0.0235328
-0.00128875
-0.0241508
-0.0018427
-0.0242715
-0.00242731
-0.0254193
-0.00304067
-0.0263315
-0.00368442
-0.0275375
-0.00436489
-0.0288005
-0.00507257
-0.030134
-0.00581987
-0.0315893
-0.00659959
-0.0330864
-0.00741998
-0.0347092
-0.00827617
-0.0363764
-0.00917136
-0.0381774
-0.0400297
-0.0101054
-0.000335837
-0.0241982
-0.000888905
-0.0229797
-0.00144293
-0.0235967
-0.00203405
-0.0236803
-0.0026582
-0.0247951
-0.00331272
-0.025677
-0.00399769
-0.0268526
-0.00472185
-0.0280764
-0.00547507
-0.0293807
-0.00626977
-0.0307946
-0.00709926
-0.0322569
-0.00797176
-0.0338367
-0.00888227
-0.0354659
-0.00983346
-0.0372262
-0.0390329
-0.0108303
-0.000407005
-0.0237912
-0.000996041
-0.0223907
-0.00159252
-0.0230003
-0.00222045
-0.0230524
-0.00288303
-0.0241326
-0.00357765
-0.0249824
-0.00430308
-0.0261271
-0.00506969
-0.0273098
-0.00586741
-0.028583
-0.00670842
-0.0299536
-0.00758656
-0.0313788
-0.00850999
-0.0329132
-0.00947403
-0.0345018
-0.0104826
-0.0362176
-0.0379778
-0.0115377
-0.000475262
-0.023316
-0.00110004
-0.0217659
-0.00173742
-0.0223629
-0.00240157
-0.0223883
-0.00310154
-0.0234326
-0.00383508
-0.0242488
-0.00460013
-0.0253621
-0.00540795
-0.0265019
-0.00624902
-0.0277419
-0.00713515
-0.0290675
-0.00806074
-0.0304532
-0.00903387
-0.0319401
-0.0100505
-0.0334852
-0.0111155
-0.0351526
-0.0368781
-0.0122151
-0.000540695
-0.0227753
-0.00120074
-0.0211059
-0.00187753
-0.0216861
-0.00257715
-0.0216886
-0.00331347
-0.0226963
-0.00408465
-0.0234777
-0.00488835
-0.0245584
-0.00573613
-0.0256542
-0.00661934
-0.0268587
-0.00754932
-0.0281375
-0.00852102
-0.0294815
-0.00954241
-0.0309187
-0.0106095
-0.0324182
-0.0117232
-0.034039
-0.0357368
-0.0128646
-0.000603342
-0.0221719
-0.00129802
-0.0204112
-0.00201274
-0.0209714
-0.00274691
-0.0209545
-0.00351852
-0.0219247
-0.00432603
-0.0226702
-0.00516731
-0.0237171
-0.00605375
-0.0247677
-0.00697782
-0.0259347
-0.00795029
-0.027165
-0.0089666
-0.0284652
-0.0100343
-0.029851
-0.0111494
-0.0313031
-0.0123111
-0.0328773
-0.0345386
-0.0135092
-0.000663222
-0.0215087
-0.00139175
-0.0196827
-0.00214293
-0.0202202
-0.0029106
-0.0201868
-0.00371642
-0.0211189
-0.00455888
-0.0218277
-0.00543658
-0.0228394
-0.00636036
-0.0238439
-0.00732393
-0.0249711
-0.00833743
-0.0261515
-0.00939671
-0.0274059
-0.0105086
-0.0287391
-0.0116711
-0.0301406
-0.0129072
-0.0316412
-0.0332423
-0.0142035
-0.000720366
-0.0207883
-0.00148186
-0.0189212
-0.00226806
-0.019434
-0.00306811
-0.0193867
-0.003907
-0.02028
-0.00478306
-0.0209516
-0.00569595
-0.0219265
-0.00665572
-0.0228842
-0.00765741
-0.0239694
-0.00871043
-0.0250985
-0.00981109
-0.0263053
-0.010966
-0.0275842
-0.0121733
-0.0289333
-0.0134382
-0.0303762
-0.0318692
-0.0148113
-0.000774707
-0.0200136
-0.00156814
-0.0181277
-0.00238783
-0.0186143
-0.00321899
-0.0185556
-0.00408973
-0.0194092
-0.00499792
-0.0200434
-0.00594464
-0.0209798
-0.00693894
-0.0218899
-0.00797721
-0.0229312
-0.00906807
-0.0240076
-0.0102085
-0.0251648
-0.0114048
-0.0263879
-0.0126559
-0.0276821
-0.0139746
-0.0290576
-0.0304666
-0.0153772
-0.000826264
-0.0191874
-0.00165053
-0.0173035
-0.00250221
-0.0177626
-0.00336316
-0.0176946
-0.00426447
-0.0185079
-0.00520334
-0.0191046
-0.00618248
-0.0200007
-0.00720982
-0.0208625
-0.0082831
-0.0218579
-0.0094101
-0.0228806
-0.0105886
-0.0239863
-0.0118253
-0.0251512
-0.0131223
-0.0263852
-0.0144926
-0.0276873
-0.0290321
-0.0159271
-0.000875022
-0.0183123
-0.00172894
-0.0164496
-0.00261107
-0.0168805
-0.00350041
-0.0168053
-0.00443097
-0.0175774
-0.00539903
-0.0181365
-0.00640912
-0.0189906
-0.00746795
-0.0198037
-0.00857462
-0.0207512
-0.00973603
-0.0217192
-0.0109508
-0.0227715
-0.0122257
-0.0238764
-0.0135634
-0.0250475
-0.0149743
-0.0262764
-0.027555
-0.0164513
-0.000920966
-0.0173914
-0.00180326
-0.0155673
-0.00271427
-0.0159695
-0.00363058
-0.015889
-0.00458898
-0.016619
-0.00558471
-0.0171408
-0.00662423
-0.0179511
-0.00771295
-0.018715
-0.00885132
-0.0196128
-0.0100454
-0.0205251
-0.0112951
-0.0215218
-0.0126073
-0.0225642
-0.013985
-0.0236698
-0.0154341
-0.0248272
-0.0260387
-0.0169504
-0.000964079
-0.0164273
-0.00187341
-0.0146579
-0.00281171
-0.0150312
-0.00375347
-0.0149472
-0.00473826
-0.0156342
-0.00576013
-0.0161189
-0.00682748
-0.0168837
-0.00794445
-0.017598
-0.00911277
-0.0184445
-0.0103377
-0.0193002
-0.0116201
-0.0202395
-0.0129664
-0.0212178
-0.0143799
-0.0222563
-0.0158657
-0.0233415
-0.0244826
-0.0174218
-0.00100434
-0.015423
-0.00193931
-0.013723
-0.00290325
-0.0140672
-0.00386894
-0.0139815
-0.0048786
-0.0146245
-0.00592503
-0.0150725
-0.00701858
-0.0157902
-0.00816211
-0.0164545
-0.00935863
-0.017248
-0.0106127
-0.0180461
-0.0119263
-0.0189259
-0.0133055
-0.0198386
-0.0147528
-0.0208089
-0.0162724
-0.0218219
-0.0228901
-0.017865
-0.00104175
-0.0143812
-0.00200087
-0.0127639
-0.00298879
-0.0130793
-0.00397682
-0.0129935
-0.0050098
-0.0135915
-0.00607917
-0.0140031
-0.00719725
-0.0146721
-0.00836558
-0.0152861
-0.00958845
-0.0160251
-0.0108697
-0.0167649
-0.012212
-0.0175836
-0.0136212
-0.0184295
-0.0150999
-0.0193302
-0.0166521
-0.0202697
-0.0212631
-0.0182791
-0.00107628
-0.0133049
-0.00205801
-0.0117821
-0.00306821
-0.0120691
-0.00407698
-0.0119847
-0.00513165
-0.0125369
-0.00622233
-0.0129124
-0.00736321
-0.0135312
-0.0085546
-0.0140948
-0.00980202
-0.0147777
-0.0111086
-0.0154583
-0.012478
-0.0162142
-0.013915
-0.0169925
-0.0154226
-0.0178226
-0.0170047
-0.0186876
-0.0196042
-0.0186636
-0.00110793
-0.012197
-0.00211066
-0.0107794
-0.0031414
-0.0110384
-0.00416929
-0.0109568
-0.00524398
-0.0114622
-0.0063543
-0.0118021
-0.00751622
-0.0123693
-0.00872883
-0.0128821
-0.00999884
-0.0135077
-0.0113287
-0.0141284
-0.0127228
-0.01482
-0.0141854
-0.0155299
-0.0157198
-0.0162882
-0.0173297
-0.0170777
-0.0179161
-0.0190178
-0.00113668
-0.0110603
-0.00215875
-0.00975733
-0.00320827
-0.00998885
-0.00425361
-0.00991149
-0.00534664
-0.0103691
-0.00647491
-0.0106738
-0.00765606
-0.0111881
-0.00888808
-0.0116501
-0.0101788
-0.012217
-0.01153
-0.0127772
-0.0129467
-0.0134033
-0.0144326
-0.014044
-0.0159912
-0.0147296
-0.0176264
-0.0154425
-0.0162012
-0.0193413
-0.00116256
-0.00989776
-0.00220222
-0.00871767
-0.00326873
-0.00892234
-0.00432983
-0.00885039
-0.00543946
-0.00925951
-0.00658396
-0.00952934
-0.0077825
-0.00998958
-0.00903206
-0.0104006
-0.0103415
-0.0109075
-0.0117119
-0.0114068
-0.0131491
-0.0119662
-0.014656
-0.0125372
-0.0162366
-0.013149
-0.0178946
-0.0137845
-0.0144623
-0.0196335
-0.00118572
-0.00871204
-0.00224102
-0.00766237
-0.00332269
-0.00784067
-0.00439785
-0.00777523
-0.00552231
-0.00813505
-0.0066813
-0.00837035
-0.00789539
-0.00877549
-0.0091606
-0.00913535
-0.0104868
-0.00958134
-0.0118744
-0.0100192
-0.0133297
-0.0105109
-0.0148553
-0.0110116
-0.0164555
-0.0115487
-0.0181338
-0.0121062
-0.0127019
-0.0198942
-0.00120611
-0.00750593
-0.00227509
-0.00659339
-0.00337009
-0.00674567
-0.00445758
-0.00668774
-0.00559508
-0.00699755
-0.00676678
-0.00719865
-0.00799453
-0.00754775
-0.00927349
-0.00785639
-0.0106144
-0.00824048
-0.012017
-0.00861648
-0.0134883
-0.00903961
-0.0150303
-0.0094696
-0.0166477
-0.00993139
-0.0183437
-0.0104101
-0.0109227
-0.0201229
-0.00122368
-0.00628226
-0.00230439
-0.00551267
-0.00341085
-0.00563921
-0.00450894
-0.00558965
-0.00565766
-0.00584883
-0.00684029
-0.00601602
-0.00807979
-0.00630825
-0.00937057
-0.0065656
-0.0107241
-0.00688697
-0.0121397
-0.00720083
-0.0136247
-0.00755463
-0.0151808
-0.00791355
-0.0168128
-0.00829932
-0.018524
-0.00869892
-0.00912741
-0.0203193
-0.00123838
-0.00504388
-0.00232888
-0.00442218
-0.0034449
-0.00452318
-0.00455185
-0.00448271
-0.00570995
-0.00469073
-0.00690171
-0.00482426
-0.00815104
-0.00505892
-0.00945169
-0.00526495
-0.0108158
-0.0055229
-0.0122422
-0.00577437
-0.0137387
-0.00605821
-0.0153064
-0.00634575
-0.0169508
-0.006655
-0.0186746
-0.00697508
-0.00731878
-0.0204832
-0.00125018
-0.0037937
-0.00234851
-0.00332385
-0.00347222
-0.00339948
-0.00458625
-0.00336868
-0.00575188
-0.0035251
-0.00695096
-0.00362518
-0.00820817
-0.00380171
-0.00951675
-0.00395637
-0.0108893
-0.00415037
-0.0123244
-0.00433923
-0.01383
-0.00455261
-0.0154072
-0.00476855
-0.0170613
-0.00500088
-0.0187952
-0.0052412
-0.00549951
-0.0206145
-0.00125905
-0.00253465
-0.00236326
-0.00221964
-0.00349274
-0.00227
-0.0046121
-0.00224931
-0.00578339
-0.00235382
-0.00698797
-0.00242059
-0.00825111
-0.00253857
-0.00956564
-0.00264183
-0.0109445
-0.00277146
-0.0123862
-0.00289759
-0.0138987
-0.00304013
-0.0154829
-0.00318429
-0.0171444
-0.00333942
-0.0188858
-0.00349981
-0.00367231
-0.020713
-0.00126498
-0.00126967
-0.00237311
-0.0011115
-0.00350644
-0.00113666
-0.00462936
-0.00112639
-0.00580443
-0.00117875
-0.00701269
-0.00121233
-0.00827979
-0.00127147
-0.0095983
-0.00132333
-0.0109815
-0.00138831
-0.0124274
-0.00145159
-0.0139445
-0.00152305
-0.0155335
-0.00159532
-0.0171998
-0.00167307
-0.0189462
-0.00175343
-0.00183987
-0.0207787
-0.00126795
-1.72261e-06
-0.00237805
-1.40562e-06
-0.00351331
-1.4005e-06
-0.00463801
-1.69035e-06
-0.00581497
-1.79327e-06
-0.00702508
-2.23097e-06
-0.00829416
-2.38214e-06
-0.00961466
-2.8237e-06
-0.011
-3.02292e-06
-0.0124481
-3.42072e-06
-0.0139675
-3.66082e-06
-0.0155588
-3.99728e-06
-0.0172276
-4.27862e-06
-0.0189765
-4.56652e-06
-4.81177e-06
-0.0208116
-0.00126795
0.00126623
-0.00237805
0.0011087
-0.00351333
0.00113387
-0.00463804
0.00112302
-0.005815
0.00117517
-0.00702511
0.00120788
-0.00829421
0.00126671
-0.00961472
0.00131769
-0.011
0.00138227
-0.0124482
0.00144476
-0.0139676
0.00151573
-0.0155589
0.00158733
-0.0172277
0.00166452
-0.0189766
0.0017443
0.00183022
-0.0208116
-0.00126499
0.00253121
-0.00237314
0.00221685
-0.00350649
0.00226722
-0.00462943
0.00224596
-0.00580452
0.00235026
-0.0070128
0.00241616
-0.00827992
0.00253384
-0.00959846
0.00263622
-0.0109816
0.00276545
-0.0124276
0.00289077
-0.0139447
0.00303283
-0.0155337
0.00317632
-0.0172001
0.00333088
-0.0189465
0.00349068
0.00366267
-0.0207789
-0.00125906
0.00379028
-0.0023633
0.00332109
-0.00349281
0.00339673
-0.00461221
0.00336537
-0.00578353
0.00352158
-0.00698816
0.00362079
-0.00825134
0.00379702
-0.00956591
0.00395079
-0.0109448
0.00414438
-0.0123865
0.00433245
-0.013899
0.00454534
-0.0154833
0.0047606
-0.0171448
0.00499236
-0.0188862
0.00523209
0.00548986
-0.0207134
-0.00125019
0.00504047
-0.00234856
0.00441945
-0.00347231
0.00452048
-0.0045864
0.00447945
-0.00575208
0.00468726
-0.00695122
0.00481993
-0.00820849
0.00505428
-0.00951712
0.00525942
-0.0108897
0.00551697
-0.0123249
0.00576764
-0.0138305
0.00605098
-0.0154078
0.00633784
-0.0170619
0.00664651
-0.0187958
0.00696599
0.00730914
-0.0206151
-0.0012384
0.00627887
-0.00232894
0.00551
-0.00344503
0.00563657
-0.00455204
0.00558647
-0.00571021
0.00584543
-0.00690205
0.00601176
-0.00815144
0.00630368
-0.00945217
0.00656015
-0.0108163
0.0068811
-0.0122428
0.00719417
-0.0137393
0.00754746
-0.0153072
0.00790568
-0.0169515
0.00829087
-0.0186754
0.00868985
0.00911777
-0.020484
-0.0012237
0.00750256
-0.00230447
0.00659077
-0.003411
0.0067431
-0.00450918
0.00668464
-0.00565798
0.00699424
-0.0068407
0.00719449
-0.00808028
0.00754326
-0.00937115
0.00785102
-0.0107247
0.00823469
-0.0121405
0.00860989
-0.0136255
0.0090325
-0.0151816
0.0094618
-0.0168137
0.00992299
-0.018525
0.0104011
0.0109131
-0.0203203
-0.00120613
0.0087087
-0.00227519
0.00765983
-0.00337027
0.00783818
-0.00445786
0.00777224
-0.00559546
0.00813184
-0.00676727
0.00836629
-0.00799511
0.0087711
-0.00927418
0.00913008
-0.0106151
0.00957565