/*--------------------------------*- C++ -*----------------------------------*\
  =========                 |
  \\      /  F ield         | OpenFOAM: The Open Source CFD Toolbox
   \\    /   O peration     | Website:  https://openfoam.org
    \\  /    A nd           | Version:  7
     \\/     M anipulation  |
\*---------------------------------------------------------------------------*/
FoamFile
{
    version     2.0;
    format      ascii;
    class       volVectorField;
    location    "17.5";
    object      U;
}
// * * * * * * * * * * * * * * * * * * * * * * * * * * * * * * * * * * * * * //

dimensions      [0 1 -1 0 0 0 0];

internalField   nonuniform List<vector> 
2413
(
(0.474318 -0.0385272 0)
(0.486173 -0.0498366 0)
(0.496868 -0.0602825 0)
(0.506029 -0.0697242 0)
(0.513204 -0.078024 0)
(0.518585 -0.0849027 0)
(0.522455 -0.0903108 0)
(0.524987 -0.0943802 0)
(0.527257 -0.0968147 0)
(0.529823 -0.0974026 0)
(0.532168 -0.0966096 0)
(0.534186 -0.0938164 0)
(0.534238 -0.0883193 0)
(0.530577 -0.0797867 0)
(0.522917 -0.0692065 0)
(0.511563 -0.0583784 0)
(0.498945 -0.0482409 0)
(0.490317 -0.0378924 0)
(0.486754 -0.028931 0)
(0.476022 -0.0222945 0)
(0.443844 -0.0226856 0)
(0.383742 -0.0252124 0)
(0.315751 -0.0339994 0)
(0.238742 -0.0434112 0)
(0.183948 -0.0468675 0)
(0.079172 -0.0427666 0)
(-0.0742703 -0.0168177 0)
(-0.178395 0.00348594 0)
(-0.210636 0.00511011 0)
(-0.210677 -0.000811268 0)
(-0.205803 -0.00656424 0)
(-0.211373 -0.00882512 0)
(-0.21659 -0.00753881 0)
(-0.222348 -0.00328071 0)
(-0.227329 0.00112959 0)
(-0.229318 0.00319703 0)
(-0.232566 0.00112298 0)
(-0.233325 -0.00871238 0)
(-0.233699 -0.0260374 0)
(-0.229014 -0.0430427 0)
(-0.238699 -0.0523432 0)
(-0.240805 -0.0603536 0)
(-0.251731 -0.067405 0)
(-0.254481 -0.0786076 0)
(-0.251747 -0.137352 0)
(-0.229795 -0.250683 0)
(-0.17606 -0.400423 0)
(-0.125795 -0.55497 0)
(-0.071175 -0.690535 0)
(-0.00163606 -0.798825 0)
(0.0513743 -0.887561 0)
(-0.161296 0.0964584 0)
(-0.148189 0.0996185 0)
(-0.134183 0.10133 0)
(-0.119344 0.102195 0)
(-0.104077 0.102282 0)
(-0.089084 0.10226 0)
(-0.0738853 0.101262 0)
(-0.0584749 0.10057 0)
(-0.0427512 0.0998155 0)
(-0.0264654 0.0993503 0)
(-0.00949122 0.0983835 0)
(0.00768839 0.0967913 0)
(0.0258346 0.0943601 0)
(0.0445234 0.0936691 0)
(0.0639618 0.0922745 0)
(0.0839225 0.0905719 0)
(0.104416 0.0896174 0)
(0.125347 0.0877452 0)
(0.146503 0.0858411 0)
(0.167936 0.0842419 0)
(0.189504 0.0816383 0)
(0.210987 0.0789838 0)
(0.232424 0.0766396 0)
(0.252973 0.0725306 0)
(0.272153 0.0686049 0)
(0.289686 0.0649804 0)
(0.304849 0.0599391 0)
(0.317829 0.0540968 0)
(0.329091 0.047349 0)
(0.339462 0.0398195 0)
(0.3499 0.0314716 0)
(0.360899 0.0221935 0)
(0.373537 0.0128796 0)
(0.387592 0.00345422 0)
(0.402212 -0.00616286 0)
(0.41706 -0.0155588 0)
(0.431169 -0.0253401 0)
(0.444615 -0.0351757 0)
(0.45746 -0.0446395 0)
(0.468939 -0.0537779 0)
(0.479075 -0.0621406 0)
(0.487526 -0.0696592 0)
(0.494371 -0.0762888 0)
(0.500007 -0.0818465 0)
(0.504872 -0.0861651 0)
(0.509756 -0.0887066 0)
(0.514825 -0.0895891 0)
(0.519825 -0.088988 0)
(0.524457 -0.0869048 0)
(0.527694 -0.0828578 0)
(0.527374 -0.0763371 0)
(0.522553 -0.0679898 0)
(0.514062 -0.0585271 0)
(0.503838 -0.0491033 0)
(0.496652 -0.0410068 0)
(0.492519 -0.0325572 0)
(0.478399 -0.0273945 0)
(0.438783 -0.0293524 0)
(0.3724 -0.0312351 0)
(0.297797 -0.0380986 0)
(0.223718 -0.0461388 0)
(0.174768 -0.0458908 0)
(0.0980979 -0.0344519 0)
(-0.0307371 -0.00640566 0)
(-0.155578 0.0217383 0)
(-0.203454 0.0269743 0)
(-0.210228 0.0216613 0)
(-0.205973 0.017792 0)
(-0.210313 0.0165362 0)
(-0.214882 0.0197051 0)
(-0.22015 0.0247099 0)
(-0.224149 0.0277105 0)
(-0.223363 0.0280423 0)
(-0.225542 0.0235474 0)
(-0.222319 0.00890907 0)
(-0.219134 -0.0103741 0)
(-0.220191 -0.024356 0)
(-0.222058 -0.0335053 0)
(-0.225351 -0.0411416 0)
(-0.229278 -0.0460166 0)
(-0.22685 -0.070139 0)
(-0.214835 -0.148504 0)
(-0.19228 -0.280311 0)
(-0.123833 -0.438854 0)
(-0.0875397 -0.606767 0)
(-0.0127648 -0.744775 0)
(0.0489909 -0.865549 0)
(0.111344 -0.960836 0)
(-0.157994 0.0924882 0)
(-0.145893 0.0963957 0)
(-0.13273 0.0984063 0)
(-0.118553 0.0992494 0)
(-0.103626 0.0992317 0)
(-0.0883127 0.0990694 0)
(-0.07326 0.097826 0)
(-0.0579685 0.0968431 0)
(-0.0424374 0.0956088 0)
(-0.0264182 0.0944253 0)
(-0.00975833 0.0928527 0)
(0.00699936 0.0905012 0)
(0.0246178 0.0875252 0)
(0.0427108 0.0859024 0)
(0.061347 0.0835255 0)
(0.080379 0.0811086 0)
(0.0998742 0.0792096 0)
(0.119668 0.0766191 0)
(0.139656 0.0741152 0)
(0.159891 0.0717614 0)
(0.180237 0.0686804 0)
(0.200529 0.0655384 0)
(0.220718 0.0626666 0)
(0.239987 0.0586011 0)
(0.257843 0.0543694 0)
(0.274278 0.0500772 0)
(0.288587 0.0444205 0)
(0.30059 0.0380556 0)
(0.310704 0.0313271 0)
(0.319647 0.024286 0)
(0.328654 0.0168666 0)
(0.338623 0.00876372 0)
(0.350497 0.000314532 0)
(0.364638 -0.00776727 0)
(0.379068 -0.0164758 0)
(0.39383 -0.0247987 0)
(0.407491 -0.0336807 0)
(0.42047 -0.0425727 0)
(0.433076 -0.0508973 0)
(0.444401 -0.0589864 0)
(0.454485 -0.0663365 0)
(0.463283 -0.072652 0)
(0.471041 -0.0775362 0)
(0.478065 -0.0809486 0)
(0.484853 -0.082834 0)
(0.491772 -0.0833712 0)
(0.498986 -0.0827843 0)
(0.506237 -0.0813545 0)
(0.512939 -0.0794451 0)
(0.518932 -0.0768871 0)
(0.521674 -0.0725171 0)
(0.51936 -0.0668526 0)
(0.513283 -0.0603873 0)
(0.505297 -0.0535495 0)
(0.499302 -0.0460003 0)
(0.494596 -0.039098 0)
(0.477034 -0.0354994 0)
(0.431773 -0.0375081 0)
(0.362675 -0.0377064 0)
(0.284595 -0.0404113 0)
(0.217953 -0.0426525 0)
(0.171846 -0.0386033 0)
(0.119134 -0.0224385 0)
(0.0163878 0.00273186 0)
(-0.119805 0.0345792 0)
(-0.195551 0.0464492 0)
(-0.208321 0.0445487 0)
(-0.205903 0.0425914 0)
(-0.208606 0.0426282 0)
(-0.211262 0.0470886 0)
(-0.215604 0.051575 0)
(-0.217248 0.0530106 0)
(-0.216537 0.0518525 0)
(-0.216871 0.0437729 0)
(-0.212115 0.0240462 0)
(-0.2021 0.00383915 0)
(-0.20989 -0.00536445 0)
(-0.203102 -0.0126037 0)
(-0.207123 -0.0220566 0)
(-0.203436 -0.0257876 0)
(-0.197364 -0.0647432 0)
(-0.174062 -0.158339 0)
(-0.152172 -0.305407 0)
(-0.0786598 -0.470313 0)
(-0.0464602 -0.648577 0)
(0.0298326 -0.799525 0)
(0.0764564 -0.937878 0)
(0.126708 -1.05813 0)
(-0.153397 0.087478 0)
(-0.14272 0.0922246 0)
(-0.130747 0.094924 0)
(-0.117544 0.0960778 0)
(-0.103426 0.0961695 0)
(-0.0887015 0.0960505 0)
(-0.0734648 0.0945974 0)
(-0.0583822 0.0933577 0)
(-0.0429828 0.0915375 0)
(-0.0271905 0.0896132 0)
(-0.0109235 0.0873487 0)
(0.00553823 0.0843136 0)
(0.0225352 0.0808667 0)
(0.0399914 0.0784467 0)
(0.057853 0.0753801 0)
(0.076077 0.0723958 0)
(0.0947982 0.0697566 0)
(0.113712 0.0665898 0)
(0.13283 0.0634709 0)
(0.152214 0.0604204 0)
(0.171659 0.0569054 0)
(0.191011 0.0533582 0)
(0.210286 0.0500663 0)
(0.228841 0.0459058 0)
(0.246049 0.0413059 0)
(0.261609 0.036642 0)
(0.274832 0.0312109 0)
(0.285533 0.0251171 0)
(0.294361 0.0185371 0)
(0.302305 0.0114824 0)
(0.310492 0.00385127 0)
(0.320315 -0.00394513 0)
(0.331703 -0.011917 0)
(0.345644 -0.018356 0)
(0.359596 -0.0248819 0)
(0.373855 -0.0303344 0)
(0.387494 -0.0362981 0)
(0.400444 -0.0429768 0)
(0.413053 -0.0492174 0)
(0.424548 -0.0552839 0)
(0.434803 -0.0609974 0)
(0.443923 -0.0663624 0)
(0.452338 -0.0711522 0)
(0.460207 -0.075072 0)
(0.467737 -0.0779916 0)
(0.475362 -0.0798448 0)
(0.483395 -0.0805693 0)
(0.491648 -0.0799911 0)
(0.4995 -0.0775218 0)
(0.507202 -0.0741942 0)
(0.512694 -0.0698372 0)
(0.512845 -0.0655135 0)
(0.508506 -0.0619075 0)
(0.50304 -0.0566356 0)
(0.499049 -0.0508964 0)
(0.493825 -0.0461218 0)
(0.47419 -0.0440351 0)
(0.426761 -0.0449344 0)
(0.357769 -0.0410236 0)
(0.278801 -0.0376136 0)
(0.216094 -0.0361803 0)
(0.179784 -0.0267024 0)
(0.139517 -0.012238 0)
(0.0604974 0.0107211 0)
(-0.0736464 0.0427194 0)
(-0.181207 0.0636946 0)
(-0.204987 0.0671678 0)
(-0.204821 0.0671345 0)
(-0.206368 0.0689147 0)
(-0.206767 0.0738784 0)
(-0.21046 0.0771447 0)
(-0.209483 0.0777504 0)
(-0.209664 0.0751341 0)
(-0.205482 0.0621525 0)
(-0.20192 0.0399525 0)
(-0.189474 0.0213982 0)
(-0.193125 0.0120352 0)
(-0.183625 0.00780641 0)
(-0.185905 -0.00284595 0)
(-0.173662 -0.00829513 0)
(-0.163202 -0.056783 0)
(-0.132415 -0.161289 0)
(-0.113641 -0.321135 0)
(-0.0446377 -0.495093 0)
(-0.0109756 -0.680758 0)
(0.0450616 -0.851303 0)
(0.0834684 -1.00069 0)
(0.0618324 -1.17508 0)
(-0.147741 0.0818201 0)
(-0.138591 0.0871249 0)
(-0.12831 0.0907183 0)
(-0.116612 0.092549 0)
(-0.103616 0.0930106 0)
(-0.089611 0.0929618 0)
(-0.0750523 0.0917188 0)
(-0.0598939 0.0902408 0)
(-0.044726 0.0879654 0)
(-0.0291636 0.08543 0)
(-0.0132857 0.0824879 0)
(0.00289038 0.0787795 0)
(0.0194115 0.0747765 0)
(0.0363646 0.0714796 0)
(0.0536664 0.0676785 0)
(0.0713412 0.0639694 0)
(0.0895215 0.0605678 0)
(0.107717 0.0568703 0)
(0.12602 0.0532551 0)
(0.14447 0.0497865 0)
(0.162941 0.0462 0)
(0.181398 0.0426287 0)
(0.19978 0.038975 0)
(0.217581 0.0347531 0)
(0.234065 0.0301385 0)
(0.248749 0.0252938 0)
(0.261195 0.0198046 0)
(0.271347 0.0135857 0)
(0.279655 0.00665671 0)
(0.287217 -0.000540427 0)
(0.294841 -0.00830979 0)
(0.304779 -0.0157064 0)
(0.316328 -0.0233671 0)
(0.330568 -0.0295429 0)
(0.345014 -0.0360672 0)
(0.35956 -0.0420882 0)
(0.373679 -0.0478181 0)
(0.386492 -0.0538428 0)
(0.398264 -0.0590517 0)
(0.408742 -0.0636708 0)
(0.418111 -0.0679619 0)
(0.426678 -0.0720654 0)
(0.434969 -0.0753078 0)
(0.443398 -0.0765128 0)
(0.452114 -0.0760545 0)
(0.461296 -0.0749876 0)
(0.470897 -0.0734144 0)
(0.480385 -0.0712372 0)
(0.488802 -0.0694445 0)
(0.496152 -0.0676983 0)
(0.502023 -0.0657924 0)
(0.503524 -0.0631443 0)
(0.500863 -0.0606413 0)
(0.497487 -0.0574519 0)
(0.49559 -0.0541524 0)
(0.491243 -0.05244 0)
(0.47172 -0.051715 0)
(0.425348 -0.0511244 0)
(0.357616 -0.0422476 0)
(0.279178 -0.0349315 0)
(0.22034 -0.028511 0)
(0.18927 -0.0133564 0)
(0.160598 -0.00294216 0)
(0.0986666 0.0174011 0)
(-0.0214776 0.0476414 0)
(-0.156006 0.0792992 0)
(-0.201703 0.0893482 0)
(-0.203706 0.0921441 0)
(-0.204769 0.0953877 0)
(-0.203223 0.0995659 0)
(-0.204792 0.101673 0)
(-0.202651 0.101805 0)
(-0.200585 0.0962388 0)
(-0.194004 0.0795902 0)
(-0.191247 0.057386 0)
(-0.179111 0.0412126 0)
(-0.176815 0.030293 0)
(-0.162868 0.0280277 0)
(-0.160038 0.0170021 0)
(-0.140866 0.00961275 0)
(-0.12643 -0.0465389 0)
(-0.0949046 -0.158163 0)
(-0.0770074 -0.325111 0)
(-0.0212865 -0.511499 0)
(0.00665982 -0.708506 0)
(0.0444532 -0.888933 0)
(0.036356 -1.06425 0)
(-0.0175958 -1.23497 0)
(-0.142089 0.076339 0)
(-0.134039 0.0816078 0)
(-0.125353 0.0859641 0)
(-0.115518 0.0886026 0)
(-0.104201 0.0897342 0)
(-0.0913848 0.090176 0)
(-0.0774835 0.0891343 0)
(-0.0627966 0.0876869 0)
(-0.0476767 0.08504 0)
(-0.0322422 0.0819809 0)
(-0.0165972 0.0784157 0)
(-0.000738179 0.0741006 0)
(0.0153086 0.0695748 0)
(0.0316949 0.06548 0)
(0.0483458 0.0610417 0)
(0.0653226 0.0567006 0)
(0.08271 0.0527424 0)
(0.100158 0.0487317 0)
(0.117758 0.0447987 0)
(0.135582 0.0410203 0)
(0.153559 0.0369791 0)
(0.171606 0.0328811 0)
(0.189495 0.0288326 0)
(0.206753 0.0245415 0)
(0.222705 0.019859 0)
(0.236699 0.0147886 0)
(0.248285 0.00927307 0)
(0.257611 0.00344539 0)
(0.264943 -0.00304786 0)
(0.271823 -0.00954328 0)
(0.278845 -0.0168688 0)
(0.288763 -0.0237334 0)
(0.300899 -0.03105 0)
(0.315123 -0.0374087 0)
(0.329773 -0.0438191 0)
(0.343976 -0.0500418 0)
(0.357724 -0.0551927 0)
(0.370202 -0.0603523 0)
(0.381587 -0.0648785 0)
(0.391885 -0.0688328 0)
(0.401219 -0.0725563 0)
(0.410211 -0.0756879 0)
(0.419039 -0.0779379 0)
(0.428175 -0.0790467 0)
(0.437569 -0.0784631 0)
(0.447133 -0.0767995 0)
(0.456963 -0.0745043 0)
(0.466835 -0.071351 0)
(0.4759 -0.0668546 0)
(0.483774 -0.0627726 0)
(0.490406 -0.0604024 0)
(0.493158 -0.0580305 0)
(0.491769 -0.0568849 0)
(0.489896 -0.0552812 0)
(0.489039 -0.0548256 0)
(0.485456 -0.0560524 0)
(0.467191 -0.0560041 0)
(0.425743 -0.0551798 0)
(0.361374 -0.045103 0)
(0.286097 -0.0338666 0)
(0.230267 -0.0235262 0)
(0.20077 -0.00404246 0)
(0.1809 0.00529033 0)
(0.131631 0.0221864 0)
(0.0329104 0.0503177 0)
(-0.116027 0.0898912 0)
(-0.193602 0.109915 0)
(-0.200475 0.116635 0)
(-0.200682 0.120445 0)
(-0.198213 0.123563 0)
(-0.197304 0.124876 0)
(-0.194928 0.124161 0)
(-0.191517 0.115592 0)
(-0.183206 0.0964177 0)
(-0.178012 0.0742153 0)
(-0.167109 0.0593017 0)
(-0.157454 0.0489918 0)
(-0.140008 0.047558 0)
(-0.131613 0.03546 0)
(-0.108981 0.0244715 0)
(-0.0939274 -0.0363689 0)
(-0.065757 -0.15317 0)
(-0.0488131 -0.325563 0)
(-0.0090054 -0.524952 0)
(0.00979371 -0.727911 0)
(0.011185 -0.915594 0)
(-0.026788 -1.09635 0)
(-0.0777547 -1.25338 0)
(-0.136667 0.0728973 0)
(-0.129336 0.0769403 0)
(-0.122095 0.0811047 0)
(-0.113945 0.0844728 0)
(-0.104272 0.0865209 0)
(-0.0929539 0.0872227 0)
(-0.0802544 0.0867235 0)
(-0.0663337 0.085522 0)
(-0.0516339 0.0828898 0)
(-0.0364284 0.0795813 0)
(-0.0209605 0.0756248 0)
(-0.00536041 0.070891 0)
(0.010387 0.0658161 0)
(0.0263987 0.0609345 0)
(0.0425921 0.0558783 0)
(0.0590532 0.0508218 0)
(0.0758548 0.0461059 0)
(0.0928182 0.041506 0)
(0.109956 0.0369445 0)
(0.127267 0.0326374 0)
(0.144632 0.0283852 0)
(0.161996 0.0242575 0)
(0.179198 0.0201866 0)
(0.195836 0.0159597 0)
(0.211226 0.0114943 0)
(0.224602 0.00663604 0)
(0.235473 0.00121456 0)
(0.244307 -0.00445502 0)
(0.251122 -0.0110348 0)
(0.257787 -0.0174037 0)
(0.26457 -0.0246116 0)
(0.274312 -0.0312287 0)
(0.286407 -0.038146 0)
(0.300462 -0.04478 0)
(0.315165 -0.0514366 0)
(0.32937 -0.0586101 0)
(0.343385 -0.0649866 0)
(0.356417 -0.0710134 0)
(0.368213 -0.0760728 0)
(0.378612 -0.0798947 0)
(0.387919 -0.0826431 0)
(0.39705 -0.0842625 0)
(0.406106 -0.084256 0)
(0.415433 -0.0825486 0)
(0.425065 -0.0789915 0)
(0.434992 -0.0747227 0)
(0.44518 -0.0707173 0)
(0.455134 -0.0667962 0)
(0.464328 -0.0627215 0)
(0.472091 -0.0589436 0)
(0.478462 -0.0567069 0)
(0.481825 -0.0544176 0)
(0.481468 -0.0533268 0)
(0.480502 -0.0527034 0)
(0.480262 -0.0537309 0)
(0.4776 -0.0568348 0)
(0.462089 -0.0581052 0)
(0.427749 -0.0571771 0)
(0.368717 -0.0464599 0)
(0.297945 -0.0333301 0)
(0.24433 -0.0215266 0)
(0.215395 0.00028929 0)
(0.19978 0.0120399 0)
(0.161033 0.0262305 0)
(0.084019 0.0519487 0)
(-0.0623345 0.0950319 0)
(-0.178182 0.129214 0)
(-0.19781 0.140519 0)
(-0.19754 0.144438 0)
(-0.194487 0.146997 0)
(-0.190416 0.147418 0)
(-0.18631 0.144305 0)
(-0.181396 0.132209 0)
(-0.171236 0.111243 0)
(-0.16218 0.0897864 0)
(-0.153108 0.0751979 0)
(-0.137018 0.0679011 0)
(-0.118498 0.0666795 0)
(-0.106136 0.0534597 0)
(-0.0825938 0.0380463 0)
(-0.0690233 -0.026037 0)
(-0.0441298 -0.147024 0)
(-0.0330518 -0.324491 0)
(-0.00180437 -0.528997 0)
(-0.00640625 -0.732737 0)
(-0.0362266 -0.927751 0)
(-0.0807585 -1.10349 0)
(-0.118022 -1.24333 0)
(-0.132081 0.0719748 0)
(-0.124598 0.0746597 0)
(-0.117847 0.078162 0)
(-0.110945 0.0813301 0)
(-0.103147 0.0836983 0)
(-0.0936199 0.0852447 0)
(-0.0823757 0.0849943 0)
(-0.069614 0.0837933 0)
(-0.0556946 0.0813155 0)
(-0.0409816 0.0778917 0)
(-0.0257374 0.0737226 0)
(-0.010351 0.0687658 0)
(0.00510524 0.0633918 0)
(0.0208135 0.0579515 0)
(0.0367241 0.0522592 0)
(0.0528307 0.0464931 0)
(0.069058 0.0410526 0)
(0.0854058 0.0359229 0)
(0.101893 0.0309798 0)
(0.118565 0.0264052 0)
(0.135381 0.0218963 0)
(0.152326 0.0174284 0)
(0.16922 0.0129586 0)
(0.185657 0.00834188 0)
(0.200964 0.00356261 0)
(0.214263 -0.00153476 0)
(0.224811 -0.00716523 0)
(0.233229 -0.0126806 0)
(0.239365 -0.0189219 0)
(0.245354 -0.0246704 0)
(0.251607 -0.0312413 0)
(0.260744 -0.0376989 0)
(0.272566 -0.044584 0)
(0.286237 -0.0517813 0)
(0.300745 -0.0588007 0)
(0.31481 -0.0661883 0)
(0.328495 -0.0727104 0)
(0.341356 -0.0783292 0)
(0.353224 -0.0827171 0)
(0.364146 -0.0856311 0)
(0.374399 -0.0876589 0)
(0.384287 -0.0896478 0)
(0.393972 -0.0897301 0)
(0.403484 -0.0867161 0)
(0.413552 -0.0823824 0)
(0.423783 -0.0769557 0)
(0.433976 -0.071306 0)
(0.444116 -0.0658201 0)
(0.45378 -0.0606613 0)
(0.46158 -0.0560518 0)
(0.467635 -0.0533463 0)
(0.470949 -0.0511022 0)
(0.471016 -0.0502796 0)
(0.470544 -0.0502509 0)
(0.470761 -0.0521366 0)
(0.469102 -0.0564497 0)
(0.456633 -0.0581358 0)
(0.430106 -0.0574985 0)
(0.377778 -0.0461856 0)
(0.31145 -0.0332917 0)
(0.260554 -0.0211406 0)
(0.232804 0.00111669 0)
(0.219014 0.0161228 0)
(0.187802 0.0285096 0)
(0.130214 0.0519257 0)
(0.00239448 0.0942038 0)
(-0.146472 0.142433 0)
(-0.191633 0.162426 0)
(-0.192417 0.166761 0)
(-0.188381 0.168483 0)
(-0.182792 0.167805 0)
(-0.177498 0.161447 0)
(-0.170655 0.146393 0)
(-0.159142 0.124926 0)
(-0.145111 0.104618 0)
(-0.137666 0.0888498 0)
(-0.116963 0.0836767 0)
(-0.0984387 0.0816493 0)
(-0.0846559 0.0669508 0)
(-0.0622129 0.0468404 0)
(-0.0512071 -0.0194562 0)
(-0.0306385 -0.143554 0)
(-0.0261878 -0.323152 0)
(-0.0139683 -0.528661 0)
(-0.042014 -0.73474 0)
(-0.0802474 -0.921842 0)
(-0.115396 -1.08234 0)
(-0.148408 -1.21509 0)
(-0.12861 0.0741696 0)
(-0.120295 0.0738356 0)
(-0.113515 0.0758226 0)
(-0.107017 0.0786328 0)
(-0.100328 0.0814129 0)
(-0.0924753 0.0834138 0)
(-0.0830287 0.0840898 0)
(-0.0717295 0.0836381 0)
(-0.059069 0.0813689 0)
(-0.0452004 0.077999 0)
(-0.0304956 0.0738069 0)
(-0.0154279 0.068649 0)
(-0.000309106 0.062612 0)
(0.0150483 0.0564305 0)
(0.0306646 0.050278 0)
(0.0465298 0.0440635 0)
(0.0623892 0.03802 0)
(0.0783205 0.0323227 0)
(0.09438 0.0268174 0)
(0.110608 0.021707 0)
(0.126967 0.01671 0)
(0.143467 0.0118119 0)
(0.159943 0.00695167 0)
(0.175984 0.00201529 0)
(0.190924 -0.00291047 0)
(0.20392 -0.00789543 0)
(0.214153 -0.0133688 0)
(0.222297 -0.0187687 0)
(0.228263 -0.0249895 0)
(0.233981 -0.0309342 0)
(0.240072 -0.0375639 0)
(0.248635 -0.0443905 0)
(0.259979 -0.0515119 0)
(0.273167 -0.0592252 0)
(0.287487 -0.066886 0)
(0.301703 -0.0746265 0)
(0.31553 -0.0816018 0)
(0.328789 -0.087442 0)
(0.341395 -0.0918554 0)
(0.353258 -0.0946587 0)
(0.364383 -0.0962531 0)
(0.374127 -0.0951943 0)
(0.38351 -0.0928082 0)
(0.393495 -0.0902408 0)
(0.402879 -0.0839345 0)
(0.413326 -0.076541 0)
(0.42409 -0.0699153 0)
(0.434156 -0.0639621 0)
(0.443981 -0.0589701 0)
(0.45164 -0.0544024 0)
(0.457402 -0.05203 0)
(0.460412 -0.050176 0)
(0.460706 -0.0493993 0)
(0.460739 -0.0493372 0)
(0.461551 -0.0514955 0)
(0.4609 -0.0557864 0)
(0.451524 -0.0570029 0)
(0.432297 -0.0562254 0)
(0.387189 -0.0445886 0)
(0.324995 -0.0326234 0)
(0.277543 -0.0203315 0)
(0.25196 0.00077311 0)
(0.238301 0.0171695 0)
(0.212429 0.0278474 0)
(0.170848 0.0498059 0)
(0.0701108 0.0885432 0)
(-0.0943387 0.146925 0)
(-0.181099 0.180703 0)
(-0.187504 0.187721 0)
(-0.183117 0.188621 0)
(-0.176675 0.186579 0)
(-0.169592 0.17724 0)
(-0.160428 0.159552 0)
(-0.146878 0.136897 0)
(-0.127803 0.117414 0)
(-0.121749 0.100243 0)
(-0.0994284 0.095569 0)
(-0.0818907 0.0927018 0)
(-0.0688717 0.0763566 0)
(-0.049317 0.0511805 0)
(-0.0418849 -0.0171968 0)
(-0.0254787 -0.142146 0)
(-0.0331612 -0.31962 0)
(-0.0412761 -0.522447 0)
(-0.0691103 -0.71932 0)
(-0.10786 -0.89377 0)
(-0.132893 -1.04442 0)
(-0.162539 -1.16902 0)
(-0.125882 0.0762726 0)
(-0.117245 0.0771474 0)
(-0.109274 0.0764568 0)
(-0.102293 0.0768242 0)
(-0.0961554 0.0789504 0)
(-0.0894795 0.0810254 0)
(-0.0815206 0.0823837 0)
(-0.0720896 0.0826076 0)
(-0.0610323 0.0812911 0)
(-0.0483688 0.0785379 0)
(-0.0346599 0.0744718 0)
(-0.0202277 0.0694737 0)
(-0.0054831 0.0636905 0)
(0.00962082 0.057234 0)
(0.0249768 0.0503861 0)
(0.0405622 0.0435133 0)
(0.0562256 0.0369184 0)
(0.0719367 0.030715 0)
(0.087655 0.0247272 0)
(0.103455 0.0191165 0)
(0.119323 0.013596 0)
(0.135313 0.00813882 0)
(0.151326 0.00266873 0)
(0.167026 -0.00292743 0)
(0.181831 -0.00862731 0)
(0.195002 -0.0144163 0)
(0.205661 -0.0205933 0)
(0.214146 -0.0266947 0)
(0.220443 -0.033287 0)
(0.225982 -0.0396096 0)
(0.231611 -0.046229 0)
(0.239122 -0.0531423 0)
(0.249418 -0.0604745 0)
(0.261767 -0.0685174 0)
(0.275429 -0.0762942 0)
(0.289312 -0.083594 0)
(0.302945 -0.0900722 0)
(0.316278 -0.0953319 0)
(0.329246 -0.0988387 0)
(0.341567 -0.100474 0)
(0.3533 -0.100669 0)
(0.364383 -0.099406 0)
(0.374721 -0.0962082 0)
(0.384449 -0.0911261 0)
(0.394893 -0.0863049 0)
(0.404691 -0.0789786 0)
(0.415118 -0.0709719 0)
(0.425158 -0.0635067 0)
(0.43456 -0.0575174 0)
(0.442213 -0.0527656 0)
(0.447843 -0.0503512 0)
(0.450555 -0.0494029 0)
(0.451088 -0.0490692 0)
(0.45167 -0.0494655 0)
(0.453103 -0.0515092 0)
(0.453293 -0.0550564 0)
(0.447371 -0.0549826 0)
(0.434068 -0.0533741 0)
(0.395711 -0.0432516 0)
(0.33812 -0.0310682 0)
(0.294352 -0.0182145 0)
(0.27066 0.00079908 0)
(0.25618 0.0166675 0)
(0.234714 0.0252115 0)
(0.20659 0.0466951 0)
(0.13331 0.0793572 0)
(-0.0211106 0.140291 0)
(-0.157275 0.193821 0)
(-0.182305 0.206907 0)
(-0.178428 0.207036 0)
(-0.171016 0.202874 0)
(-0.161312 0.19056 0)
(-0.149127 0.170495 0)
(-0.134495 0.146711 0)
(-0.113298 0.128099 0)
(-0.106606 0.109372 0)
(-0.0857146 0.102948 0)
(-0.0697185 0.0981806 0)
(-0.0582454 0.0793114 0)
(-0.0434253 0.0483869 0)
(-0.037971 -0.0196481 0)
(-0.0288538 -0.139569 0)
(-0.0455544 -0.310371 0)
(-0.0622457 -0.505167 0)
(-0.0874158 -0.691236 0)
(-0.12552 -0.855436 0)
(-0.145864 -0.997544 0)
(-0.176007 -1.11743 0)
(-0.123006 0.0787116 0)
(-0.114574 0.0761668 0)
(-0.105684 0.0773378 0)
(-0.0976403 0.0782357 0)
(-0.0909538 0.0780395 0)
(-0.0847726 0.0786588 0)
(-0.07822 0.0798125 0)
(-0.0704056 0.0805008 0)
(-0.060914 0.0797888 0)
(-0.0499537 0.0776921 0)
(-0.0374885 0.074448 0)
(-0.0238663 0.0699801 0)
(-0.00975081 0.0645144 0)
(0.00492294 0.05853 0)
(0.0201291 0.0522052 0)
(0.0356735 0.0452829 0)
(0.0510336 0.0380055 0)
(0.0665103 0.031143 0)
(0.0818764 0.0243568 0)
(0.0972561 0.0178776 0)
(0.1127 0.0114828 0)
(0.12824 0.0051209 0)
(0.143806 -0.00130728 0)
(0.159126 -0.00791711 0)
(0.173679 -0.0146286 0)
(0.186754 -0.0212257 0)
(0.197466 -0.0277986 0)
(0.20572 -0.0341656 0)
(0.211761 -0.0406851 0)
(0.216855 -0.0470455 0)
(0.221988 -0.0536125 0)
(0.228592 -0.0606252 0)
(0.237844 -0.0681635 0)
(0.249632 -0.0761212 0)
(0.263051 -0.084065 0)
(0.277301 -0.0914878 0)
(0.291646 -0.0981694 0)
(0.305735 -0.103704 0)
(0.319433 -0.107056 0)
(0.332582 -0.107906 0)
(0.344882 -0.106532 0)
(0.355926 -0.103344 0)
(0.367352 -0.0995939 0)
(0.377834 -0.0937834 0)
(0.387526 -0.0860277 0)
(0.397685 -0.0785401 0)
(0.407669 -0.0709961 0)
(0.41718 -0.0646648 0)
(0.425802 -0.0595188 0)
(0.432941 -0.055363 0)
(0.438331 -0.0524409 0)
(0.441369 -0.0516833 0)
(0.442528 -0.0514749 0)
(0.443589 -0.0511958 0)
(0.445307 -0.0518782 0)
(0.44618 -0.0540905 0)
(0.444556 -0.0517559 0)
(0.435775 -0.0491012 0)
(0.403426 -0.0415619 0)
(0.351226 -0.0279854 0)
(0.31032 -0.0145098 0)
(0.286461 0.00164165 0)
(0.271671 0.0159654 0)
(0.254226 0.0224566 0)
(0.237576 0.0432538 0)
(0.187042 0.0682391 0)
(0.065545 0.12382 0)
(-0.107653 0.194339 0)
(-0.173079 0.222038 0)
(-0.172831 0.222815 0)
(-0.164499 0.21623 0)
(-0.152436 0.200738 0)
(-0.137824 0.178893 0)
(-0.123463 0.154631 0)
(-0.102546 0.136683 0)
(-0.0951436 0.116166 0)
(-0.0763525 0.10592 0)
(-0.0617797 0.0980529 0)
(-0.0530404 0.0766211 0)
(-0.044322 0.0423532 0)
(-0.0384279 -0.0226116 0)
(-0.0405496 -0.135913 0)
(-0.0558612 -0.295411 0)
(-0.0845644 -0.477794 0)
(-0.105644 -0.654275 0)
(-0.13867 -0.810877 0)
(-0.154129 -0.947288 0)
(-0.180533 -1.06224 0)
(-0.118163 0.0819617 0)
(-0.110888 0.0806321 0)
(-0.102432 0.0771938 0)
(-0.0941318 0.0753657 0)
(-0.0862242 0.0766152 0)
(-0.0793501 0.0775025 0)
(-0.0733491 0.0774022 0)
(-0.06689 0.0775058 0)
(-0.0591278 0.0770278 0)
(-0.0496575 0.0754797 0)
(-0.0383831 0.0726624 0)
(-0.0257262 0.0686625 0)
(-0.0123012 0.0638335 0)
(0.00170614 0.0582469 0)
(0.0163674 0.051901 0)
(0.0316372 0.0453453 0)
(0.0469868 0.0386447 0)
(0.0619604 0.0318284 0)
(0.0769487 0.0247079 0)
(0.0918869 0.0175477 0)
(0.10687 0.0103958 0)
(0.121905 0.00318794 0)
(0.136919 -0.00424806 0)
(0.151713 -0.0120044 0)
(0.16593 -0.0199681 0)
(0.178942 -0.0278841 0)
(0.189955 -0.0355203 0)
(0.198499 -0.0428383 0)
(0.204847 -0.0499316 0)
(0.209945 -0.0566895 0)
(0.214658 -0.0633665 0)
(0.220358 -0.0703489 0)
(0.22843 -0.0779549 0)
(0.239632 -0.0856508 0)
(0.252702 -0.093279 0)
(0.266814 -0.0999945 0)
(0.28115 -0.105509 0)
(0.295361 -0.109865 0)
(0.309571 -0.112617 0)
(0.32371 -0.113671 0)
(0.337442 -0.112879 0)
(0.350475 -0.109664 0)
(0.36217 -0.103991 0)
(0.371974 -0.0965466 0)
(0.382277 -0.0890293 0)
(0.392398 -0.081083 0)
(0.401708 -0.073258 0)
(0.410191 -0.065473 0)
(0.417914 -0.059756 0)
(0.424377 -0.055899 0)
(0.429451 -0.0534284 0)
(0.433046 -0.0522629 0)
(0.435146 -0.0516944 0)
(0.436822 -0.0516612 0)
(0.438457 -0.0523101 0)
(0.440846 -0.0511891 0)
(0.442223 -0.0483523 0)
(0.437215 -0.0446799 0)
(0.409909 -0.0382336 0)
(0.365028 -0.023881 0)
(0.324873 -0.00990839 0)
(0.298401 0.00330296 0)
(0.285105 0.0165561 0)
(0.271221 0.0217073 0)
(0.262653 0.0396862 0)
(0.229548 0.0581232 0)
(0.149905 0.102107 0)
(-0.0229515 0.176412 0)
(-0.149991 0.22912 0)
(-0.164197 0.23468 0)
(-0.156987 0.226276 0)
(-0.144114 0.208138 0)
(-0.128226 0.185311 0)
(-0.114558 0.160937 0)
(-0.0951154 0.142207 0)
(-0.0872489 0.119435 0)
(-0.0711153 0.104354 0)
(-0.0583748 0.0932446 0)
(-0.0530629 0.0717469 0)
(-0.0486732 0.0388912 0)
(-0.0443049 -0.0211063 0)
(-0.053829 -0.12407 0)
(-0.0666283 -0.270548 0)
(-0.0966894 -0.44114 0)
(-0.11512 -0.611743 0)
(-0.138242 -0.765216 0)
(-0.153865 -0.896573 0)
(-0.18195 -1.00526 0)
(-0.112311 0.0798692 0)
(-0.105257 0.0807918 0)
(-0.0975881 0.0801226 0)
(-0.0896547 0.0780444 0)
(-0.0819977 0.0744545 0)
(-0.074992 0.0729668 0)
(-0.068579 0.0732048 0)
(-0.0624753 0.0734805 0)
(-0.0559292 0.0729994 0)
(-0.0479737 0.0718362 0)
(-0.038106 0.069705 0)
(-0.0265206 0.0664087 0)
(-0.0137246 0.0621449 0)
(-0.000283298 0.0571625 0)
(0.0138457 0.0514227 0)
(0.0286091 0.0451869 0)
(0.0436277 0.0379884 0)
(0.0585969 0.0305811 0)
(0.0730871 0.0231677 0)
(0.0877962 0.0157565 0)
(0.102416 0.00809962 0)
(0.116987 8.38509e-05 0)
(0.131409 -0.00844019 0)
(0.145596 -0.0174494 0)
(0.159392 -0.0267354 0)
(0.172253 -0.0361089 0)
(0.183499 -0.0452899 0)
(0.192395 -0.0539657 0)
(0.198927 -0.0618973 0)
(0.203975 -0.0689049 0)
(0.208164 -0.0753361 0)
(0.212987 -0.081313 0)
(0.219706 -0.0881413 0)
(0.230076 -0.0950449 0)
(0.242941 -0.101907 0)
(0.257322 -0.107996 0)
(0.272355 -0.112995 0)
(0.287497 -0.117087 0)
(0.302527 -0.119643 0)
(0.316894 -0.120071 0)
(0.330491 -0.118485 0)
(0.343249 -0.11478 0)
(0.3552 -0.109415 0)
(0.367617 -0.102963 0)
(0.378972 -0.0945885 0)
(0.387862 -0.0850234 0)
(0.39667 -0.0764753 0)
(0.405802 -0.0706068 0)
(0.412962 -0.065275 0)
(0.41885 -0.0612689 0)
(0.423425 -0.0584796 0)
(0.42716 -0.0566814 0)
(0.429418 -0.0551396 0)
(0.431371 -0.0532445 0)
(0.43368 -0.0497582 0)
(0.438006 -0.0474857 0)
(0.439391 -0.0443538 0)
(0.438339 -0.0404955 0)
(0.417303 -0.033631 0)
(0.378417 -0.0191908 0)
(0.337931 -0.00435669 0)
(0.308173 0.00671549 0)
(0.297239 0.0195424 0)
(0.286341 0.0239519 0)
(0.280072 0.0361364 0)
(0.262225 0.0519517 0)
(0.217007 0.0815501 0)
(0.0839326 0.143614 0)
(-0.0963817 0.22114 0)
(-0.15196 0.24318 0)
(-0.149918 0.234116 0)
(-0.137462 0.215128 0)
(-0.121227 0.191111 0)
(-0.107657 0.16607 0)
(-0.0899266 0.145268 0)
(-0.0818573 0.120463 0)
(-0.0690313 0.101508 0)
(-0.0577196 0.089254 0)
(-0.055595 0.0689566 0)
(-0.0542425 0.0373109 0)
(-0.052152 -0.0159043 0)
(-0.0607619 -0.106377 0)
(-0.0714605 -0.239905 0)
(-0.0992057 -0.401562 0)
(-0.115745 -0.567525 0)
(-0.13623 -0.716762 0)
(-0.157109 -0.842434 0)
(-0.176625 -0.947342 0)
(-0.105648 0.0734613 0)
(-0.0997114 0.076551 0)
(-0.0925439 0.077415 0)
(-0.0846155 0.0768976 0)
(-0.0767817 0.075143 0)
(-0.06969 0.0724574 0)
(-0.0634916 0.0697613 0)
(-0.0577126 0.0686075 0)
(-0.0517917 0.0681138 0)
(-0.0450671 0.0672389 0)
(-0.0367545 0.0655269 0)
(-0.0264965 0.0627421 0)
(-0.0145476 0.059021 0)
(-0.00168386 0.0545975 0)
(0.0120264 0.049213 0)
(0.0264143 0.0431764 0)
(0.0410973 0.0362658 0)
(0.0558735 0.0287731 0)
(0.0700455 0.0206447 0)
(0.0842829 0.0122563 0)
(0.0984922 0.0033007 0)
(0.112555 -0.00603088 0)
(0.126297 -0.0158658 0)
(0.139849 -0.0262392 0)
(0.153087 -0.0369174 0)
(0.165583 -0.0475786 0)
(0.176925 -0.0576856 0)
(0.186286 -0.0668858 0)
(0.193383 -0.0752111 0)
(0.198935 -0.0823639 0)
(0.203464 -0.0885326 0)
(0.207874 -0.094276 0)
(0.213743 -0.0996006 0)
(0.222937 -0.105388 0)
(0.235477 -0.111206 0)
(0.250012 -0.116485 0)
(0.265332 -0.120734 0)
(0.280756 -0.124187 0)
(0.296038 -0.126288 0)
(0.3109 -0.12661 0)
(0.325023 -0.124969 0)
(0.338259 -0.121404 0)
(0.350779 -0.116273 0)
(0.361777 -0.109359 0)
(0.372095 -0.101235 0)
(0.383549 -0.0930924 0)
(0.393868 -0.0840982 0)
(0.40168 -0.0752129 0)
(0.408742 -0.0684904 0)
(0.414811 -0.0635774 0)
(0.41975 -0.0599419 0)
(0.423823 -0.0571024 0)
(0.425997 -0.0536158 0)
(0.428551 -0.0499348 0)
(0.432055 -0.0466201 0)
(0.436471 -0.0434317 0)
(0.438433 -0.0396242 0)
(0.439376 -0.036268 0)
(0.425212 -0.0284328 0)
(0.391253 -0.0144101 0)
(0.350883 0.00159225 0)
(0.318419 0.0117249 0)
(0.30786 0.0239939 0)
(0.299379 0.0294346 0)
(0.290233 0.0354358 0)
(0.287366 0.0516058 0)
(0.262326 0.0667848 0)
(0.183306 0.108112 0)
(0.00413722 0.188331 0)
(-0.125823 0.242951 0)
(-0.139834 0.238417 0)
(-0.130436 0.219891 0)
(-0.115391 0.194693 0)
(-0.101694 0.169024 0)
(-0.0857752 0.146422 0)
(-0.0780353 0.120792 0)
(-0.0680908 0.100305 0)
(-0.0577566 0.0882557 0)
(-0.0579126 0.0686081 0)
(-0.0568924 0.0408563 0)
(-0.0570811 -0.00506307 0)
(-0.0612448 -0.0849292 0)
(-0.0754046 -0.206077 0)
(-0.0953089 -0.358948 0)
(-0.121634 -0.518451 0)
(-0.130267 -0.665186 0)
(-0.155935 -0.789586 0)
(-0.170166 -0.893108 0)
(-0.0983958 0.0631529 0)
(-0.0938047 0.0685113 0)
(-0.0874324 0.0712159 0)
(-0.0802838 0.0717908 0)
(-0.0727886 0.0707641 0)
(-0.0653126 0.0688793 0)
(-0.0585961 0.0665455 0)
(-0.0529385 0.0640211 0)
(-0.047427 0.0623835 0)
(-0.0414845 0.0611629 0)
(-0.0343556 0.0596475 0)
(-0.0254946 0.0572644 0)
(-0.0147121 0.0538803 0)
(-0.00267532 0.0498071 0)
(0.0104273 0.0447628 0)
(0.0243714 0.0389387 0)
(0.0387762 0.0321024 0)
(0.0534466 0.0245538 0)
(0.0676713 0.01601 0)
(0.081418 0.00690702 0)
(0.0951594 -0.00291263 0)
(0.108556 -0.0134359 0)
(0.121599 -0.0246143 0)
(0.134402 -0.0363491 0)
(0.147095 -0.0483657 0)
(0.159529 -0.0602303 0)
(0.171034 -0.0716034 0)
(0.18136 -0.081646 0)
(0.189415 -0.0903536 0)
(0.19536 -0.0975423 0)
(0.201113 -0.102832 0)
(0.204968 -0.10776 0)
(0.210611 -0.111963 0)
(0.218377 -0.116086 0)
(0.230046 -0.120403 0)