/*--------------------------------*- C++ -*----------------------------------*\
  =========                 |
  \\      /  F ield         | OpenFOAM: The Open Source CFD Toolbox
   \\    /   O peration     | Website:  https://openfoam.org
    \\  /    A nd           | Version:  7
     \\/     M anipulation  |
\*---------------------------------------------------------------------------*/
FoamFile
{
    version     2.0;
    format      ascii;
    class       volScalarField;
    location    "6";
    object      T;
}
// * * * * * * * * * * * * * * * * * * * * * * * * * * * * * * * * * * * * * //

dimensions      [0 0 0 1 0 0 0];

internalField   nonuniform List<scalar> 
2413
(
1.0674
1.06642
1.06522
1.06384
1.0629
1.06199
1.06087
1.05951
1.0584
1.05743
1.0563
1.05501
1.0537
1.05272
1.05176
1.0507
1.04937
1.04849
1.04772
1.04658
1.04524
1.04447
1.04361
1.04257
1.04181
1.04108
1.0404
1.03984
1.18229
1.18188
1.18152
1.18095
1.18014
1.17906
1.1776
1.17603
1.17447
1.1727
1.17067
1.16842
1.16591
1.16318
1.16044
1.15782
1.1553
1.15296
1.1507
1.14828
1.1456
1.14297
1.14046
1.13783
1.13523
1.13299
1.13073
1.12816
1.12558
1.12335
1.12113
1.11864
1.11638
1.1144
1.11229
1.10977
1.10766
1.10593
1.10404
1.10195
1.1003
1.0987
1.09675
1.09452
1.09292
1.09141
1.0896
1.08785
1.08653
1.08507
1.0833
1.08144
1.08014
1.07881
1.07722
1.07563
1.07454
1.07336
1.07192
1.07043
1.06948
1.06846
1.0672
1.06583
1.06492
1.06397
1.06281
1.06143
1.06038
1.05939
1.05826
1.05696
1.05573
1.05477
1.05376
1.05262
1.05125
1.05021
1.04923
1.04795
1.04643
1.04549
1.04457
1.04335
1.04238
1.04153
1.04061
1.0398
1.18173
1.18114
1.18079
1.18051
1.18005
1.17929
1.17828
1.17694
1.17566
1.17458
1.17323
1.17157
1.16959
1.16731
1.16478
1.16214
1.15956
1.15718
1.15489
1.15253
1.15003
1.14751
1.14498
1.14228
1.13969
1.1374
1.13509
1.13249
1.12998
1.12768
1.12532
1.12274
1.12053
1.11848
1.11626
1.11366
1.11144
1.10948
1.10737
1.10515
1.10355
1.10195
1.09999
1.09781
1.09609
1.09439
1.09237
1.09051
1.08918
1.08772
1.08593
1.08419
1.08288
1.08147
1.07977
1.07817
1.07704
1.0758
1.07426
1.07275
1.07176
1.07066
1.0693
1.06792
1.06702
1.06601
1.06478
1.06336
1.06232
1.06129
1.06013
1.05879
1.05767
1.05672
1.05565
1.05441
1.05303
1.05188
1.05075
1.04937
1.04772
1.04662
1.04562
1.04429
1.04313
1.04224
1.04126
1.04025
1.18148
1.18041
1.17988
1.17958
1.17944
1.17905
1.17837
1.17742
1.1761
1.17479
1.17392
1.17292
1.1717
1.17013
1.16825
1.16608
1.16373
1.16139
1.15908
1.15674
1.15437
1.15196
1.14946
1.14681
1.14428
1.14195
1.13959
1.13703
1.13457
1.1322
1.1297
1.12707
1.12488
1.1228
1.12054
1.11802
1.11578
1.11363
1.11124
1.10883
1.10715
1.10546
1.10343
1.10136
1.09964
1.09783
1.09566
1.09372
1.09231
1.09079
1.08892
1.08728
1.08597
1.0845
1.0827
1.08111
1.07991
1.07857
1.07692
1.07542
1.07433
1.0731
1.07159
1.07014
1.06917
1.06808
1.06675
1.06533
1.0643
1.06322
1.06201
1.06063
1.05954
1.05856
1.05742
1.05608
1.0547
1.05351
1.05226
1.05083
1.0492
1.04797
1.04684
1.04541
1.04407
1.04312
1.04206
1.04083
1.18165
1.18006
1.17898
1.17854
1.17837
1.17837
1.17803
1.17736
1.17639
1.17507
1.17382
1.17298
1.17208
1.17106
1.16991
1.16842
1.16664
1.16469
1.16267
1.1606
1.15843
1.15614
1.15373
1.15119
1.14875
1.14645
1.14409
1.14163
1.13927
1.13689
1.13429
1.13164
1.12943
1.12731
1.125
1.12264
1.12046
1.11822
1.11565
1.11313
1.11127
1.10942
1.10726
1.10524
1.10352
1.10165
1.09938
1.09743
1.09593
1.0943
1.09236
1.09079
1.08945
1.08791
1.08601
1.08442
1.08311
1.08164
1.07985
1.07835
1.07713
1.07577
1.07412
1.07262
1.07153
1.07032
1.06884
1.06739
1.06634
1.06522
1.06394
1.06253
1.06147
1.06043
1.0592
1.05779
1.05643
1.0552
1.05389
1.05239
1.0508
1.04958
1.04839
1.04692
1.0454
1.04428
1.0431
1.04179
1.18178
1.18051
1.17867
1.17772
1.17734
1.17729
1.17724
1.17683
1.17616
1.1751
1.17384
1.17286
1.172
1.17117
1.17022
1.16908
1.16775
1.1663
1.16477
1.16313
1.16141
1.15953
1.15741
1.15511
1.15283
1.15061
1.14832
1.14603
1.14383
1.14154
1.13897
1.13639
1.13414
1.13195
1.12959
1.12737
1.1253
1.12309
1.12049
1.11799
1.11592
1.11387
1.11155
1.10957
1.10783
1.10591
1.10359
1.10166
1.10003
1.09826
1.09621
1.09468
1.09329
1.09164
1.08968
1.08811
1.08665
1.08503
1.08311
1.08156
1.08021
1.0787
1.0769
1.07537
1.07416
1.07282
1.07121
1.06972
1.06861
1.06741
1.06604
1.06461
1.06354
1.06243
1.06113
1.05965
1.05834
1.05709
1.05577
1.0543
1.05277
1.05153
1.0503
1.04878
1.04729
1.04603
1.04463
1.04317
1.18198
1.18096
1.17928
1.1775
1.17672
1.17635
1.17619
1.17586
1.17535
1.17457
1.17349
1.17261
1.17193
1.17115
1.17021
1.16916
1.16799
1.16671
1.16532
1.16396
1.16271
1.16136
1.1597
1.15786
1.15593
1.15394
1.15186
1.14986
1.14791
1.1458
1.14339
1.14098
1.13877
1.13655
1.1342
1.13212
1.13013
1.12797
1.12547
1.12312
1.12097
1.11874
1.11631
1.11436
1.11257
1.11056
1.10824
1.10633
1.10458
1.10263
1.1005
1.09895
1.09745
1.09567
1.09367
1.09208
1.0905
1.08872
1.08671
1.08511
1.08361
1.08197
1.08004
1.07848
1.07715
1.07568
1.07393
1.07242
1.07123
1.06995
1.06846
1.06702
1.06591
1.06471
1.06334
1.06184
1.06058
1.05934
1.05802
1.05656
1.05518
1.05397
1.05273
1.05123
1.04961
1.04834
1.047
1.0454
1.18228
1.18145
1.18002
1.17803
1.1766
1.17598
1.17556
1.17503
1.17439
1.17363
1.17267
1.17192
1.17139
1.17081
1.17009
1.16919
1.16805
1.16668
1.16526
1.16411
1.16308
1.16187
1.16052
1.15906
1.15754
1.15587
1.15409
1.15248
1.15085
1.14904
1.14698
1.14486
1.1428
1.14063
1.13839
1.13652
1.13468
1.13262
1.13031
1.12814
1.12602
1.12371
1.12127
1.11939
1.11756
1.11548
1.11321
1.11131
1.10943
1.10728
1.1051
1.10349
1.10185
1.09992
1.09792
1.09629
1.0946
1.09267
1.09061
1.08898
1.08738
1.08559
1.08358
1.08199
1.08053
1.07893
1.07707
1.07556
1.07429
1.07291
1.07131
1.06985
1.06866
1.06736
1.0659
1.06441
1.06319
1.06199
1.0607
1.0593
1.058
1.05683
1.05557
1.05408
1.05256
1.05128
1.04993
1.04834
1.18289
1.18213
1.18082
1.17877
1.17705
1.17626
1.1756
1.1749
1.17412
1.17312
1.17186
1.17093
1.17038
1.16991
1.16939
1.16872
1.16781
1.16662
1.16528
1.16413
1.16307
1.16198
1.16082
1.15953
1.15813
1.15656
1.15493
1.15363
1.15235
1.15082
1.14912
1.1474
1.14561
1.14361
1.14157
1.13992
1.13826
1.13637
1.13437
1.1325
1.13054
1.12825
1.1259
1.1241
1.12229
1.12019
1.11806
1.11622
1.11427
1.11197
1.10976
1.10806
1.10627
1.10419
1.10222
1.10054
1.09876
1.09674
1.0947
1.09306
1.09141
1.08952
1.08747
1.08584
1.08428
1.08254
1.08059
1.07906
1.07771
1.07623
1.07451
1.07304
1.07176
1.07036
1.0688
1.06733
1.06612
1.06491
1.06364
1.06229
1.06106
1.05991
1.05869
1.05726
1.05577
1.05455
1.05331
1.0518
1.18442
1.18315
1.1813
1.17904
1.17741
1.17667
1.17601
1.17529
1.17443
1.17333
1.17175
1.17041
1.16953
1.16882
1.16827
1.16772
1.16698
1.16603
1.16486
1.16387
1.16298
1.16195
1.16081
1.15964
1.15834
1.15681
1.15527
1.15407
1.15281
1.15143
1.14997
1.14854
1.14697
1.14514
1.14328
1.14189
1.14047
1.13875
1.13701
1.13543
1.13369
1.13156
1.1294
1.12771
1.12595
1.12387
1.12195
1.12024
1.11831
1.11598
1.11387
1.11209
1.11018
1.108
1.10611
1.10439
1.10254
1.1005
1.09858
1.09695
1.09529
1.09339
1.09137
1.0897
1.08803
1.08617
1.08415
1.08258
1.08113
1.07952
1.07771
1.07623
1.07488
1.07342
1.07178
1.07037
1.06917
1.06791
1.06661
1.0653
1.06406
1.06288
1.06168
1.06033
1.05894
1.05777
1.05663
1.05525
1.1866
1.18457
1.18221
1.17963
1.17812
1.17737
1.17663
1.17589
1.17507
1.17387
1.17218
1.17062
1.16947
1.16839
1.1677
1.167
1.16609
1.1651
1.16395
1.16308
1.16234
1.16147
1.16053
1.15952
1.15835
1.15693
1.15541
1.15415
1.15296
1.1517
1.15042
1.14912
1.14763
1.1458
1.14397
1.14248
1.14106
1.13955
1.13808
1.13673
1.13517
1.1332
1.13118
1.12957
1.12791
1.12589
1.12414
1.12258
1.12076
1.1185
1.11652
1.11474
1.11281
1.11057
1.10875
1.10701
1.10517
1.10312
1.10126
1.09957
1.09796
1.09612
1.09421
1.09253
1.09084
1.08894
1.08693
1.08538
1.08391
1.08223
1.08037
1.0789
1.07754
1.07605
1.07439
1.07309
1.07192
1.07062
1.06927
1.06803
1.06677
1.0655
1.06431
1.06303
1.06169
1.06054
1.05948
1.05823
1.18802
1.18593
1.18341
1.18067
1.17926
1.17848
1.17746
1.17662
1.17583
1.17455
1.17281
1.17126
1.16996
1.16888
1.16798
1.16704
1.16588
1.16461
1.16327
1.16207
1.16131
1.16056
1.15976
1.15894
1.15797
1.15669
1.15524
1.15405
1.15288
1.15162
1.15053
1.14942
1.14805
1.14634
1.14466
1.14301
1.14134
1.1398
1.13846
1.13711
1.13567
1.13389
1.13195
1.1303
1.12858
1.1265
1.12474
1.1233
1.12154
1.11939
1.1175
1.11573
1.11368
1.11144
1.10965
1.10794
1.10598
1.10399
1.10224
1.10046
1.09867
1.09694
1.09516
1.09355
1.09208
1.09036
1.08844
1.087
1.08562
1.08401
1.08219
1.08078
1.07947
1.07798
1.0763
1.07509
1.07397
1.07266
1.07126
1.0701
1.06889
1.06755
1.06634
1.06517
1.06389
1.06271
1.06168
1.06054
1.19076
1.18877
1.1859
1.18313
1.18167
1.18029
1.17878
1.17754
1.17651
1.17503
1.17326
1.17194
1.17075
1.16967
1.16874
1.16763
1.16628
1.16471
1.16319
1.16163
1.16066
1.15989
1.159
1.15817
1.15726
1.15606
1.1547
1.15357
1.15246
1.15128
1.15029
1.14927
1.148
1.1465
1.14496
1.14337
1.14158
1.13993
1.13861
1.1372
1.13581
1.13427
1.13245
1.13072
1.12898
1.12688
1.12503
1.12358
1.12186
1.11974
1.11791
1.11616
1.11408
1.11184
1.11008
1.10835
1.10633
1.10437
1.10273
1.10092
1.09896
1.0973
1.09566
1.09393
1.09244
1.09094
1.0892
1.08775
1.08647
1.08495
1.08319
1.08189
1.08068
1.07924
1.0776
1.07644
1.07535
1.07404
1.0726
1.07149
1.07035
1.06901
1.06775
1.06669
1.06551
1.0643
1.06328
1.06224
1.19268
1.1917
1.18934
1.18705
1.18479
1.18273
1.18074
1.17913
1.17782
1.17604
1.17405
1.17243
1.1712
1.17035
1.16952
1.16832
1.16688
1.16524
1.1636
1.16188
1.1607
1.15977
1.15866
1.1577
1.15673
1.1555
1.1541
1.15288
1.15167
1.15045
1.14958
1.14864
1.14746
1.14609
1.14473
1.14324
1.14145
1.13978
1.13852
1.13708
1.13554
1.13413
1.1325
1.13072
1.129
1.12701
1.12501
1.12346
1.1218
1.11974
1.11793
1.11625
1.1142
1.11197
1.11022
1.10851
1.10646
1.10455
1.10292
1.10116
1.09912
1.09746
1.09601
1.09432
1.09273
1.09139
1.08979
1.08821
1.08695
1.08557
1.08386
1.08252
1.0814
1.08001
1.0784
1.07727
1.07623
1.07493
1.0735
1.07243
1.07135
1.07004
1.06875
1.06776
1.06668
1.06546
1.06442
1.06346
1.18479
1.18966
1.18999
1.18913
1.18684
1.18482
1.1828
1.18101
1.17943
1.1775
1.17548
1.17365
1.17229
1.17148
1.17049
1.16914
1.1676
1.16597
1.1642
1.1623
1.16105
1.15998
1.15872
1.1576
1.15651
1.15516
1.15377
1.1525
1.15114
1.14967
1.14864
1.14766
1.14647
1.14516
1.14394
1.14258
1.14088
1.1392
1.13794
1.13651
1.13486
1.13351
1.13203
1.13023
1.12851
1.12675
1.12472
1.12296
1.12139
1.11948
1.11758
1.11596
1.11407
1.11193
1.11018
1.10852
1.10651
1.10466
1.10312
1.10145
1.09947
1.09787
1.09648
1.09485
1.09308
1.09178
1.09036
1.08867
1.08731
1.08607
1.08447
1.08303
1.08192
1.08065
1.07906
1.07787
1.07687
1.07558
1.07412
1.07308
1.07206
1.07081
1.06955
1.06862
1.06764
1.06644
1.06535
1.06444
1.15973
1.18461
1.19242
1.19233
1.1911
1.18896
1.186
1.18343
1.18101
1.17847
1.17631
1.17474
1.17372
1.17301
1.17187
1.17044
1.16885
1.16707
1.16515
1.16317
1.16177
1.16052
1.15911
1.15782
1.15655
1.15508
1.15369
1.15241
1.15105
1.14954
1.14816
1.14693
1.14561
1.14425
1.14306
1.14177
1.14015
1.13848
1.13714
1.13567
1.1339
1.13249
1.13117
1.12949
1.12773
1.12616
1.12432
1.12234
1.12073
1.11907
1.11718
1.11551
1.11389
1.11198
1.11021
1.1086
1.10671
1.10496
1.10351
1.10194
1.10001
1.0984
1.097
1.09542
1.0936
1.09222
1.09092
1.08929
1.08772
1.08657
1.08516
1.08358
1.08242
1.08128
1.07976
1.07843
1.07744
1.07624
1.07474
1.07364
1.0727
1.07151
1.07026
1.06937
1.06847
1.06734
1.06623
1.06535
1.09174
1.14714
1.18212
1.19316
1.19408
1.19219
1.18944
1.18664
1.18361
1.18095
1.17871
1.17706
1.17598
1.17471
1.17305
1.1711
1.16931
1.16781
1.16618
1.1645
1.16301
1.1615
1.15986
1.15845
1.15708
1.15546
1.15401
1.15271
1.15126
1.14973
1.14835
1.14697
1.14536
1.14379
1.14248
1.14119
1.13971
1.13819
1.1368
1.13524
1.1333
1.13171
1.13041
1.12886
1.12713
1.12563
1.12405
1.1221
1.12029
1.11876
1.11703
1.11533
1.11389
1.11228
1.11051
1.10892
1.10728
1.10547
1.10389
1.10244
1.10067
1.09901
1.0976
1.09609
1.09429
1.09282
1.09155
1.09003
1.08833
1.08713
1.08592
1.08436
1.083
1.08196
1.08062
1.07913
1.07805
1.07698
1.07554
1.07431
1.07342
1.07232
1.07102
1.0701
1.06928
1.06823
1.0671
1.06626
1.0245
1.07261
1.1427
1.17978
1.18878
1.1903
1.18976
1.18817
1.18562
1.18361
1.18168
1.17982
1.17831
1.17647
1.17455
1.17251
1.17067
1.16916
1.16745
1.16582
1.16427
1.16263
1.16086
1.15938
1.15786
1.15605
1.15455
1.15324
1.15175
1.1503
1.14893
1.14741
1.14567
1.14398
1.14243
1.14099
1.13962
1.13824
1.13689
1.13541
1.13359
1.13177
1.13027
1.12869
1.12696
1.12551
1.12405
1.12226
1.12041
1.11884
1.11721
1.11547
1.11415
1.11279
1.11108
1.10935
1.10786
1.10613
1.10431
1.10286
1.10138
1.0997
1.09826
1.09688
1.09521
1.09361
1.0923
1.09091
1.08923
1.08789
1.08679
1.08541
1.08386
1.08275
1.0816
1.08009
1.0788
1.07782
1.07656
1.07521
1.07428
1.07331
1.07201
1.07092
1.07011
1.06912
1.06797
1.06715
1.00271
1.01613
1.06106
1.13388
1.17329
1.1887
1.19239
1.1914
1.18966
1.18743
1.18426
1.18196
1.17997
1.17778
1.17581
1.17386
1.17231
1.17093
1.16928
1.16759
1.16594
1.16419
1.16235
1.16067
1.15889
1.15673
1.15512
1.15382
1.1523
1.15096
1.14975
1.14821
1.1463
1.14453
1.14291
1.14122
1.13977
1.13852
1.13714
1.13575
1.13411
1.1322
1.13051
1.12893
1.12721
1.12572
1.1244
1.12277
1.12088
1.11925
1.11767
1.11592
1.11448
1.11324
1.11172
1.10997
1.10846
1.1069
1.10505
1.10336
1.1021
1.1006
1.099
1.09767
1.09626
1.0946
1.09314
1.09187
1.09038
1.08889
1.08774
1.08656
1.08504
1.08372
1.08265
1.0813
1.07978
1.07875
1.07769
1.07631
1.07523
1.07436
1.07316
1.07189
1.07101
1.07007
1.06888
1.06799
1.00013
1.0016
1.0116
1.05363
1.11783
1.16401
1.18878
1.19366
1.19331
1.1906
1.18738
1.18498
1.1824
1.18014
1.17821
1.17619
1.17442
1.17265
1.17071
1.16884
1.16723
1.1657
1.1641
1.16238
1.16043
1.15806
1.15623
1.15482
1.15316
1.1516
1.15039
1.14895
1.14712
1.14536
1.1437
1.14186
1.14026
1.13906
1.13767
1.13619
1.13478
1.13301
1.13108
1.12942
1.12779
1.12614
1.12484
1.12348
1.12169
1.11991
1.11832
1.11657
1.115
1.11371
1.11233
1.11072
1.10918
1.10768
1.10594
1.10414
1.10285
1.10157
1.1
1.09852
1.09727
1.09581
1.09415
1.0928
1.09157
1.09009
1.0887
1.08761
1.0863
1.08479
1.08366
1.08252
1.08101
1.07978
1.07881
1.07753
1.07622
1.07532
1.07427
1.07291
1.0719
1.071
1.0698
1.06873
1
1.00008
1.001
1.0089
1.04165
1.0989
1.16364
1.18468
1.18959
1.18947
1.18869
1.18677
1.18425
1.18245
1.18082
1.17885
1.1768
1.17467
1.17257
1.17066
1.16883
1.16712
1.16548
1.16374
1.16185
1.1596
1.15775
1.15629
1.15459
1.15295
1.15168
1.15023
1.14836
1.14648
1.14476
1.14289
1.14112
1.13992
1.13861
1.13701
1.13552
1.13401
1.13211
1.13025
1.12871
1.12705
1.12548
1.12424
1.12271
1.12084
1.1192
1.11762
1.11591
1.11446
1.11319
1.11174
1.11016
1.10862
1.107
1.10529
1.10379
1.10248
1.10108
1.09952
1.09816
1.0969
1.09538
1.09379
1.09264
1.09142
1.08987
1.08856
1.08743
1.08592
1.08454
1.08352
1.0822
1.0808
1.07981
1.07866
1.07721
1.07618
1.07518
1.07383
1.07269
1.07181
1.0707
1.06944
1
1
1.00004
1.00064
1.0061
1.029
1.08873
1.15458
1.18097
1.19069
1.19149
1.18951
1.18739
1.18513
1.18264
1.18065
1.1786
1.17635
1.1743
1.17253
1.1708
1.16924
1.16757
1.1657
1.16379
1.16163
1.1596
1.158
1.15627
1.15449
1.15315
1.15178
1.14998
1.14811
1.14637
1.14452
1.14265
1.14128
1.13998
1.13833
1.13662
1.13517
1.13348
1.13155
1.12996
1.1285
1.12684
1.12533
1.12391
1.12215
1.1203
1.11882
1.11728
1.11564
1.11426
1.1129
1.11136
1.10972
1.10815
1.10667
1.10512
1.10358
1.10224
1.10084
1.09923
1.09781
1.09653
1.09494
1.09356
1.09253
1.09117
1.08959
1.08843
1.0871
1.0855
1.08438
1.08322
1.0818
1.08071
1.07958
1.07808
1.07687
1.07587
1.07458
1.07332
1.07246
1.07141
1.07007
1
1
1
1.00002
1.00038
1.00376
1.02217
1.07996
1.1381
1.17654
1.19119
1.19268
1.19099
1.18783
1.18583
1.18378
1.18127
1.17901
1.17699
1.17478
1.17271
1.17119
1.16956
1.16773
1.1659
1.16404
1.16206
1.16027
1.15851
1.15663
1.15499
1.15349
1.15166
1.14975
1.14812
1.14646
1.14464
1.14316
1.14181
1.14016
1.13832
1.13674
1.13512
1.13327
1.13154
1.13024
1.12873
1.127
1.12548
1.12389
1.12202
1.12033
1.11891
1.11736
1.11575
1.11432
1.11286
1.11117
1.10945
1.10806
1.10667
1.10503
1.10353
1.10228
1.10076
1.09894
1.09763
1.09632
1.09468
1.09347
1.09233
1.09078
1.08942
1.08816
1.08658
1.08527
1.08408
1.08271
1.08158
1.08043
1.07896
1.07764
1.07656
1.07521
1.07383
1.07293
1.0719
1.07055
1
1
1
1
1.00001
1.00023
1.00239
1.01819
1.06185
1.1235
1.17574
1.187
1.18944
1.18888
1.18775
1.18573
1.18335
1.18161
1.17987
1.17744
1.17536
1.17364
1.17183
1.17
1.16816
1.16641
1.16452
1.1626
1.16077
1.15882
1.157
1.15549
1.15378
1.15189
1.15029
1.14876
1.14695
1.14527
1.14384
1.1422
1.14035
1.13875
1.13724
1.13549
1.13371
1.13237
1.1309
1.12913
1.12739
1.12583
1.12407
1.1222
1.12072
1.11934
1.11772
1.11609
1.11464
1.11304
1.11113
1.10953
1.10825
1.10673
1.10505
1.10375
1.10243
1.10059
1.09886
1.09766
1.09614
1.09456
1.09346
1.09213
1.09063
1.08924
1.08776
1.08637
1.08502
1.08356
1.08241
1.08125
1.07978
1.07848
1.07736
1.07599
1.07448
1.07347
1.07241
1.07096
1
1
1
1
1
1.00001
1.00012
1.00166
1.01193
1.04546
1.11586
1.16575
1.18481
1.19064
1.18993
1.18799
1.18653
1.18459
1.18202
1.17996
1.17815
1.17618
1.17434
1.17237
1.17051
1.16887
1.167
1.16509
1.16329
1.16134
1.15937
1.15773
1.15605
1.15419
1.15258
1.15119
1.14947
1.14766
1.14611
1.14447
1.14262
1.14104
1.13962
1.13793
1.13613
1.13469
1.1332
1.13142
1.12964
1.12808
1.12641
1.12453
1.12287
1.12148
1.1199
1.11812
1.11655
1.11505
1.11322
1.1114
1.11004
1.10863
1.10694
1.10545
1.10418
1.10253
1.10053
1.09913
1.09779
1.09607
1.09468
1.09353
1.09208
1.0905
1.08905
1.08771
1.08622
1.0846
1.08343
1.08224
1.08068
1.0793
1.0782
1.07683
1.07524
1.07419
1.07309
1.07156
1
1
1
1
1
1
1
1.00007
1.00096
1.00739
1.03773
1.10319
1.15285
1.18203
1.19047
1.19114
1.18964
1.18692
1.18459
1.18266
1.18043
1.17844
1.17674
1.17481
1.173
1.17135
1.16941
1.16739
1.16561
1.16378
1.16192
1.16028
1.15866
1.15681
1.15509
1.15367
1.15195
1.15003
1.14838
1.14675
1.14488
1.14334
1.14205
1.14047
1.1387
1.13719
1.13561
1.13372
1.13186
1.1303
1.12867
1.12686
1.12521
1.12377
1.12221
1.12042
1.11875
1.11723
1.11548
1.11356
1.11203
1.11064
1.109
1.10738
1.10608
1.10459
1.10265
1.10091
1.0996
1.09798
1.09625
1.09507
1.09378
1.0921
1.09049
1.08921
1.08772
1.0859
1.08466
1.0835
1.08186
1.08039
1.07928
1.07789
1.07619
1.07504
1.07392
1.07233
1
1
1
1
1
1
1
1
1.00004
1.00055
1.00512
1.03063
1.08087
1.1422
1.17996
1.18827
1.189
1.18824
1.18688
1.1844
1.1822
1.1806
1.17888
1.17706
1.17547
1.17376
1.17189
1.16995
1.16813
1.1663
1.16442
1.16274
1.16111
1.15925
1.15752
1.15607
1.15437
1.15242
1.15074
1.14914
1.1472
1.14554
1.1443
1.14277
1.14103
1.13952
1.13795
1.136
1.13404
1.13254
1.13095
1.12914
1.12754
1.12609
1.12446
1.12263
1.12094
1.1194
1.1177
1.11586
1.1143
1.11289
1.11126
1.10955
1.10815
1.1067
1.10485
1.10294
1.10155
1.10008
1.09827
1.09688
1.09569
1.09408
1.09223
1.0909
1.08946
1.08752
1.08615
1.08502
1.0834
1.08178
1.08062
1.07921
1.07733
1.07609
1.07497
1.07336
1
1
1
1
1
1
1
1
1
1.00002
1.00031
1.00359
1.01959
1.0637
1.1353
1.1713
1.18512
1.18899
1.18858
1.18714
1.1855
1.18337
1.18093
1.17937
1.17775
1.17588
1.17405
1.17215
1.17046
1.16873
1.16677
1.16499
1.16334
1.1615
1.15979
1.15832
1.15667
1.15472
1.15295
1.15134
1.1494
1.14766
1.14639
1.1449
1.14317
1.14167
1.14014
1.13821
1.13616
1.13465
1.13308
1.13123
1.12969
1.12828
1.12666
1.12482
1.12316
1.12161
1.11991
1.11806
1.11649
1.1151
1.1135
1.11178
1.11032
1.1089
1.10716
1.10518
1.10366
1.10225
1.10046
1.09889
1.09772
1.09622
1.09429
1.09282
1.09143
1.08949
1.08786
1.08674
1.0852
1.08342
1.08221
1.08083
1.07887
1.07743
1.07625
1.07463
1
1
1
1
1
1
1
1
1
)
;

boundaryField
{
    inlet
    {
        type            fixedValue;
        value           nonuniform 0();
    }
    outlet
    {
        type            inletOutlet;
        inletValue      nonuniform 0();
        value           nonuniform 0();
    }
    bottom
    {
        type            symmetryPlane;
    }
    top
    {
        type            symmetryPlane;
    }
    obstacle
    {
        type            zeroGradient;
    }
    front
    {
        type            empty;
    }
    back
    {
        type            empty;
    }
    procBoundary36to21
    {
        type            processor;
        value           nonuniform List<scalar> 8(1.03924 1.03894 1.03926 1.03967 1.04042 1.04181 1.04381 1.0468);
    }
    procBoundary36to28
    {
        type            processor;
        value           nonuniform List<scalar> 
89
(
1.06557
1.0646
1.0634
1.06196
1.06092
1.06
1.05888
1.05755
1.05639
1.05541
1.05429
1.05299
1.05153
1.05046
1.04954
1.04852
1.04724
1.04659
1.04608
1.04533
1.04437
1.04364
1.04279
1.04203
1.04144
1.04093
1.04062
1.04038
1.1829
1.18241
1.18176
1.18088
1.17961
1.17784
1.1758
1.17376
1.17168
1.16947
1.16708
1.16451
1.16176
1.15892
1.15625
1.15378
1.15133
1.14892
1.14654
1.144
1.14113
1.13848
1.1361
1.13362
1.13105
1.12879
1.12655
1.12403
1.12137
1.11925
1.11718
1.11484
1.11258
1.11072
1.10878
1.10645
1.10447
1.10288
1.10111
1.09903
1.09728
1.09568
1.09382
1.09169
1.09028
1.08894
1.0873
1.08557
1.08417
1.0827
1.08095
1.07906
1.07781
1.07658
1.07508
1.07353
1.07243
1.07128
1.0699
1.06838
1.06838
)
;
    }
    procBoundary36to29
    {
        type            processor;
        value           nonuniform List<scalar> 
19
(
1.05023
1.05372
1.05676
1.05916
1.06098
1.06233
1.0634
1.0644
1.06541
1.06639
1.06731
1.06805
1.06863
1.0691
1.06948
1.06981
1.07027
1.07093
1.07188
)
;
    }
    procBoundary36to35
    {
        type            processor;
        value           nonuniform List<scalar> 
27
(
1.18287
1.18269
1.18258
1.18255
1.18252
1.18257
1.18266
1.18316
1.1852
1.1884
1.18968
1.19156
1.18961
1.16902
1.10455
1.03123
1.00383
1.00022
1.00001
1
1
1
1
1
1
1
1
)
;
    }
    procBoundary36to37
    {
        type            processor;
        value           uniform 1.07298;
    }
    procBoundary36to43
    {
        type            processor;
        value           uniform 1;
    }
    procBoundary36to44
    {
        type            processor;
        value           nonuniform List<scalar> 
89
(
1
1.00001
1.00018
1.00197
1.01275
1.055
1.11918
1.16143
1.18365
1.18818
1.18804
1.18756
1.18558
1.18296
1.18117
1.17938
1.17762
1.17589
1.17418
1.1727
1.17102
1.169
1.16695
1.1651
1.16326
1.16169
1.16032
1.15879
1.15696
1.15523
1.1536
1.15165
1.14975
1.14838
1.14686
1.14505
1.14353
1.14207
1.14021
1.13824
1.13673
1.13518
1.13335
1.13174
1.13033
1.12866
1.12678
1.12516
1.12363
1.12194
1.12016
1.11866
1.11726
1.11573
1.11403
1.11246
1.11102
1.10935
1.10736
1.10577
1.10442
1.10274
1.10103
1.0998
1.09844
1.09653
1.09484
1.09347
1.09163
1.08974
1.08859
1.08719
1.08534
1.08398
1.08264
1.08069
1.079
1.07779
1.07618
1
1
1
1
1
1
1
1
1
1
)
;
    }
}


// ************************************************************************* //
