/*--------------------------------*- C++ -*----------------------------------*\
  =========                 |
  \\      /  F ield         | OpenFOAM: The Open Source CFD Toolbox
   \\    /   O peration     | Website:  https://openfoam.org
    \\  /    A nd           | Version:  7
     \\/     M anipulation  |
\*---------------------------------------------------------------------------*/
FoamFile
{
    version     2.0;
    format      ascii;
    class       volScalarField;
    location    "7";
    object      T;
}
// * * * * * * * * * * * * * * * * * * * * * * * * * * * * * * * * * * * * * //

dimensions      [0 0 0 1 0 0 0];

internalField   nonuniform List<scalar> 
2413
(
1.12532
1.12432
1.12326
1.12211
1.12089
1.11957
1.11817
1.11676
1.11532
1.11386
1.11241
1.11104
1.10978
1.10863
1.10764
1.10693
1.10645
1.10613
1.10593
1.10577
1.10559
1.10543
1.10526
1.10504
1.10481
1.10453
1.10408
1.10346
1.10274
1.10197
1.10107
1.09999
1.0991
1.09843
1.09766
1.09678
1.09609
1.09552
1.09484
1.09424
1.09377
1.09323
1.09258
1.09184
1.09099
1.09003
1.08901
1.08784
1.08644
1.08482
1.083
1.08102
1.07897
1.07695
1.0747
1.07259
1.07093
1.06925
1.0675
1.06623
1.06534
1.06455
1.06401
1.06366
1.06335
1.063
1.0628
1.06258
1.06222
1.06164
1.06115
1.06064
1.05989
1.05893
1.05804
1.05712
1.05611
1.05505
1.05403
1.05307
1.05217
1.05133
1.05051
1.0498
1.04923
1.04865
1.04797
1.04721
1.0465
1.04571
1.04479
1.04373
1.04268
1.04157
1.04033
1.03895
1.03759
1.03627
1.03504
1.03395
1.03301
1.03215
1.03132
1.03049
1.02971
1.0289
1.02806
1.02718
1.02635
1.02558
1.02476
1.02387
1.02276
1.02176
1.02102
1.01973
1.13948
1.13854
1.13759
1.13664
1.13568
1.1347
1.13371
1.13272
1.13176
1.13086
1.13001
1.12917
1.12832
1.12745
1.12653
1.12555
1.12452
1.12342
1.12224
1.12097
1.11964
1.11822
1.11671
1.11519
1.11369
1.11224
1.11089
1.10968
1.10863
1.10773
1.10702
1.10654
1.1062
1.10595
1.10573
1.10551
1.10526
1.10496
1.10465
1.10435
1.10402
1.10358
1.10301
1.10234
1.10159
1.10074
1.09977
1.09887
1.09809
1.09727
1.09632
1.09558
1.09505
1.09435
1.09363
1.0931
1.09251
1.09178
1.09101
1.0902
1.0893
1.08827
1.08707
1.08563
1.08397
1.08213
1.08012
1.07802
1.07589
1.07384
1.07186
1.06999
1.06846
1.06696
1.06575
1.06494
1.06427
1.06362
1.06323
1.06301
1.06276
1.06241
1.06215
1.06183
1.06132
1.06061
1.05995
1.05928
1.0584
1.05739
1.05643
1.05546
1.05443
1.05339
1.05238
1.05144
1.05055
1.04972
1.04888
1.04814
1.04756
1.04694
1.04622
1.04539
1.0446
1.04373
1.04273
1.04161
1.04051
1.03934
1.03808
1.03671
1.03536
1.03406
1.03286
1.03179
1.03087
1.03001
1.02918
1.02834
1.02752
1.02667
1.02582
1.02491
1.02404
1.02329
1.02252
1.02166
1.02061
1.01979
1.01916
1.01794
1.13923
1.13832
1.13738
1.13644
1.13546
1.13446
1.13346
1.13248
1.13152
1.13061
1.12976
1.12892
1.12807
1.12716
1.12616
1.1251
1.12397
1.12276
1.12146
1.12007
1.11859
1.11704
1.11546
1.11387
1.11237
1.11102
1.10982
1.1088
1.10802
1.10738
1.10681
1.10638
1.10608
1.10582
1.10559
1.10535
1.10506
1.10468
1.10424
1.10376
1.10323
1.10263
1.102
1.10133
1.10055
1.09967
1.09878
1.09793
1.09708
1.0962
1.09542
1.09482
1.09417
1.09329
1.09257
1.09197
1.09124
1.09046
1.08964
1.08872
1.08768
1.08645
1.08494
1.08323
1.08143
1.07948
1.07736
1.07525
1.07326
1.07131
1.06936
1.06781
1.06662
1.06542
1.06456
1.064
1.06351
1.06305
1.06277
1.06257
1.06226
1.06181
1.06142
1.06093
1.06026
1.0594
1.05862
1.05781
1.05685
1.05581
1.05482
1.05382
1.0528
1.05177
1.05075
1.04981
1.04891
1.04806
1.04716
1.04636
1.04576
1.0451
1.04433
1.04348
1.04264
1.04168
1.04062
1.03946
1.03827
1.03704
1.03575
1.03441
1.03311
1.03188
1.03075
1.02971
1.0288
1.02794
1.02708
1.0262
1.02537
1.02455
1.02371
1.0228
1.02196
1.02122
1.02045
1.01958
1.0186
1.01788
1.01729
1.01614
1.13919
1.13833
1.13746
1.13657
1.13563
1.13464
1.13364
1.13263
1.13162
1.13066
1.12976
1.12888
1.12798
1.12706
1.12603
1.1249
1.12368
1.12234
1.12092
1.11941
1.11783
1.11622
1.11462
1.11303
1.11156
1.11028
1.10918
1.10827
1.10762
1.10719
1.10685
1.10659
1.10637
1.10611
1.10577
1.10538
1.10494
1.1044
1.10379
1.10316
1.10248
1.10179
1.10108
1.1003
1.09943
1.09861
1.0979
1.09715
1.09633
1.09553
1.09478
1.09405
1.09324
1.0924
1.09162
1.09087
1.09008
1.08922
1.08825
1.08716
1.08593
1.08447
1.08277
1.08091
1.07897
1.07696
1.07484
1.07279
1.07101
1.06923
1.06756
1.06645
1.06551
1.06456
1.06393
1.06352
1.06313
1.06275
1.06244
1.0621
1.06162
1.06103
1.06046
1.05981
1.05897
1.05798
1.05708
1.05616
1.05515
1.05409
1.05308
1.0521
1.05111
1.0501
1.04908
1.04816
1.04729
1.04641
1.04549
1.04466
1.04397
1.04323
1.0424
1.04148
1.04054
1.0395
1.03837
1.03716
1.03593
1.03465
1.03337
1.03211
1.03091
1.02979
1.02875
1.02777
1.02685
1.02596
1.02508
1.02416
1.02327
1.02247
1.02167
1.02075
1.01991
1.0192
1.01844
1.01755
1.01672
1.01612
1.0156
1.0146
1.13946
1.13863
1.13777
1.13689
1.13596
1.13497
1.13395
1.13291
1.13189
1.13094
1.13006
1.12918
1.12827
1.1273
1.12622
1.12501
1.1237
1.12226
1.12072
1.11909
1.11742
1.11576
1.11417
1.11263
1.11122
1.1101
1.10917
1.10839
1.10781
1.10737
1.10697
1.10665
1.10638
1.10603
1.10561
1.10518
1.10467
1.10406
1.10337
1.10262
1.10185
1.10105
1.10025
1.09946
1.09871
1.09803
1.09731
1.09646
1.09558
1.09477
1.09399
1.09325
1.09253
1.09171
1.09074
1.08981
1.08891
1.08789
1.08674
1.08547
1.08406
1.08246
1.08064
1.0787
1.0767
1.07468
1.07265
1.07085
1.06935
1.06775
1.06637
1.06556
1.06486
1.06419
1.06372
1.06334
1.06292
1.06246
1.06201
1.06148
1.06079
1.05993
1.05913
1.05834
1.05739
1.05635
1.05542
1.05448
1.05347
1.05245
1.05148
1.05055
1.0496
1.04859
1.04757
1.04664
1.0457
1.04473
1.04373
1.0428
1.04201
1.04119
1.0403
1.03935
1.03839
1.03734
1.03619
1.03497
1.0337
1.03237
1.03107
1.02985
1.02874
1.02772
1.02676
1.02579
1.02487
1.02397
1.02306
1.02207
1.02118
1.02048
1.01975
1.01886
1.01813
1.01747
1.01672
1.01585
1.01511
1.01451
1.01396
1.01296
1.14025
1.13947
1.1386
1.13766
1.13666
1.13561
1.13451
1.13342
1.13239
1.13145
1.13056
1.12968
1.12878
1.12779
1.12665
1.12538
1.124
1.1225
1.1209
1.11921
1.11749
1.11581
1.11422
1.11271
1.11138
1.11032
1.10944
1.10876
1.10826
1.10782
1.10738
1.10703
1.10671
1.1063
1.10583
1.10535
1.10477
1.10403
1.10321
1.10238
1.10154
1.10068
1.09984
1.09904
1.09827
1.09752
1.09673
1.0959
1.0951
1.09433
1.09353
1.09265
1.09174
1.09081
1.08982
1.08878
1.08771
1.08653
1.08522
1.08378
1.08224
1.08055
1.07869
1.07676
1.07476
1.0727
1.07081
1.06937
1.06811
1.06678
1.06581
1.06519
1.06461
1.06405
1.06361
1.06319
1.06269
1.06215
1.06159
1.06089
1.05996
1.05882
1.05781
1.05689
1.05588
1.05485
1.05386
1.05286
1.05183
1.0508
1.04984
1.04893
1.04801
1.04699
1.04596
1.045
1.04404
1.04302
1.04198
1.04105
1.04021
1.03932
1.03837
1.03738
1.03636
1.03524
1.03403
1.03271
1.03138
1.03004
1.02875
1.02759
1.02659
1.02568
1.0248
1.02387
1.02295
1.02208
1.0212
1.02021
1.01936
1.01872
1.01802
1.01715
1.01641
1.01573
1.01496
1.01399
1.01331
1.01277
1.01221
1.01131
1.14138
1.14077
1.13999
1.13904
1.13797
1.1368
1.13559
1.13443
1.13338
1.1324
1.13146
1.1305
1.1295
1.12841
1.12718
1.12582
1.12434
1.12278
1.12116
1.11948
1.11782
1.11623
1.11472
1.11333
1.11212
1.11114
1.11031
1.10968
1.10922
1.10877
1.10833
1.10794
1.10753
1.10701
1.10641
1.1058
1.10507
1.10422
1.10333
1.10243
1.1015
1.10062
1.09984
1.09908
1.0983
1.09749
1.09663
1.09574
1.09486
1.09399
1.09308
1.09211
1.09108
1.09004
1.08897
1.08782
1.0866
1.08527
1.08381
1.08223
1.08056
1.07873
1.07686
1.07503
1.07318
1.07127
1.06964
1.06846
1.06734
1.06627
1.06554
1.06501
1.06449
1.06401
1.06361
1.06317
1.0626
1.06193
1.0612
1.06031
1.05915
1.05774
1.05644
1.05537
1.05428
1.05321
1.05224
1.05128
1.05028
1.04928
1.04838
1.04754
1.04665
1.04565
1.04465
1.04369
1.04267
1.04154
1.0404
1.03936
1.03839
1.03741
1.03639
1.03534
1.0343
1.03319
1.03197
1.03067
1.02939
1.02811
1.02685
1.02571
1.02471
1.02381
1.02292
1.02195
1.021
1.02018
1.01939
1.01842
1.01759
1.01703
1.01632
1.01541
1.01469
1.01406
1.01322
1.01234
1.01185
1.01131
1.01074
1.00984
1.1426
1.1422
1.14158
1.14072
1.13968
1.13849
1.13727
1.13608
1.13496
1.1339
1.13285
1.13175
1.13058
1.12935
1.12801
1.12655
1.12499
1.12336
1.12172
1.12009
1.11851
1.11705
1.1157
1.11448
1.11346
1.11261
1.11186
1.11126
1.11077
1.11026
1.10975
1.10927
1.10875
1.10813
1.10743
1.10669
1.10585
1.10489
1.10388
1.10286
1.10187
1.10099
1.10016
1.09933
1.09851
1.09767
1.09678
1.09587
1.09497
1.09405
1.09305
1.09198
1.09083
1.08961
1.08827
1.08692
1.08554
1.08407
1.08247
1.08082
1.07907
1.07719
1.07539
1.0737
1.07203
1.07036
1.06897
1.06792
1.06697
1.06611
1.06552
1.06505
1.06457
1.06409
1.06362
1.06305
1.06234
1.06151
1.06059
1.05951
1.05816
1.05654
1.05512
1.05402
1.05292
1.0519
1.05102
1.05013
1.04919
1.04821
1.0473
1.04644
1.0455
1.04445
1.04341
1.04237
1.04126
1.04003
1.03882
1.03774
1.03675
1.03577
1.03474
1.0337
1.03265
1.03154
1.03032
1.02899
1.02768
1.02638
1.02508
1.02382
1.02274
1.02185
1.02101
1.02006
1.01922
1.01857
1.01786
1.01694
1.01618
1.01556
1.01475
1.01384
1.01313
1.01245
1.01156
1.01068
1.01023
1.00967
1.00906
1.0082
1.14293
1.14318
1.14291
1.14216
1.14119
1.14012
1.13897
1.13785
1.13674
1.1356
1.13442
1.13316
1.13183
1.13047
1.12905
1.12754
1.12597
1.12436
1.12276
1.12122
1.11978
1.1185
1.11736
1.11636
1.11554
1.11485
1.1142
1.11363
1.11309
1.11249
1.11187
1.11125
1.11056
1.10979
1.10897
1.1081
1.10715
1.10613
1.10507
1.104
1.103
1.10206
1.10112
1.10018
1.09928
1.09839
1.09747
1.09653
1.09558
1.09458
1.09351
1.09235
1.0911
1.08967
1.08809
1.08649
1.08484
1.08313
1.08141
1.07971
1.07793
1.07613
1.07449
1.07297
1.0715
1.07005
1.06881
1.06784
1.06699
1.06628
1.06573
1.06521
1.06465
1.06405
1.06344
1.06274
1.06188
1.06089
1.05981
1.0586
1.05713
1.05543
1.05405
1.05298
1.05192
1.05092
1.05006
1.04922
1.0483
1.04734
1.04646
1.04561
1.04467
1.0436
1.04252
1.04142
1.04024
1.03895
1.0377
1.03656
1.03548
1.03441
1.03331
1.03219
1.03108
1.02995
1.02872
1.02741
1.02615
1.02492
1.02364
1.02234
1.02126
1.02044
1.01966
1.01876
1.01798
1.01732
1.01654
1.01557
1.01484
1.01419
1.01333
1.01242
1.01166
1.01091
1.00992
1.00912
1.00874
1.0082
1.00764
1.0068
1.14185
1.14262
1.14285
1.14256
1.14222
1.14159
1.14062
1.13949
1.13826
1.13701
1.13571
1.13435
1.13294
1.13151
1.13004
1.12855
1.12702
1.12549
1.12401
1.12263
1.12141
1.12038
1.11951
1.11877
1.11814
1.11756
1.11699
1.11642
1.11581
1.11514
1.11444
1.11369
1.11287
1.11198
1.11105
1.11008
1.10906
1.10802
1.10697
1.10591
1.10491
1.10393
1.10293
1.10194
1.101
1.10007
1.09912
1.09812
1.09708
1.09596
1.09476
1.09346
1.09202
1.09038
1.08861
1.08678
1.08487
1.08296
1.08117
1.07943
1.07764
1.07591
1.07437
1.07295
1.07161
1.0703
1.06914
1.06816
1.0673
1.06656
1.06594
1.06534
1.0647
1.06401
1.06331
1.06251
1.06153
1.0604
1.05921
1.05792
1.0564
1.05475
1.05339
1.05229
1.0512
1.05017
1.04936
1.04858
1.04772
1.04683
1.04604
1.04523
1.04427
1.04314
1.04199
1.04078
1.03948
1.0381
1.03674
1.03549
1.03433
1.03321
1.03207
1.03095
1.02987
1.02877
1.0276
1.02638
1.02519
1.02397
1.0227
1.02132
1.02015
1.01932
1.01852
1.01756
1.01685
1.01622
1.01536
1.01448
1.01389
1.01322
1.01232
1.01139
1.01052
1.00965
1.00863
1.00772
1.00727
1.00672
1.0061
1.00524
1.13962
1.1406
1.14146
1.14164
1.14175
1.1418
1.14157
1.14074
1.13952
1.13821
1.13677
1.13529
1.13383
1.13238
1.13092
1.12947
1.12803
1.12663
1.12532
1.12416
1.12318
1.12241
1.12178
1.12124
1.12075
1.12027
1.11977
1.11921
1.11857
1.11786
1.1171
1.11628
1.11539
1.11445
1.11348
1.11247
1.11145
1.11044
1.10942
1.10835
1.10735
1.10639
1.10543
1.10448
1.10351
1.10252
1.1015
1.10041
1.09926
1.09802
1.09669
1.09525
1.09362
1.09182
1.08991
1.08793
1.08589
1.0839
1.08207
1.08031
1.07857
1.07694
1.07548
1.07416
1.07293
1.07172
1.07059
1.06956
1.06857
1.06763
1.0668
1.06603
1.06521
1.06436
1.06354
1.06265
1.06158
1.06036
1.05914
1.05783
1.05629
1.05467
1.05334
1.05221
1.05108
1.05001
1.04921
1.04844
1.04758
1.04669
1.04588
1.04502
1.04402
1.04286
1.04167
1.04041
1.03903
1.03757
1.03616
1.0349
1.03372
1.03258
1.03144
1.03033
1.02922
1.02808
1.02686
1.02559
1.02435
1.02315
1.02188
1.02045
1.01936
1.01861
1.01775
1.0168
1.01621
1.01557
1.01473
1.01396
1.01329
1.01249
1.01151
1.01053
1.00956
1.00859
1.00751
1.00649
1.00599
1.00542
1.00478
1.00397
1.13684
1.13766
1.13884
1.1394
1.1401
1.14067
1.14083
1.14056
1.14005
1.13914
1.13784
1.13635
1.13477
1.13318
1.13168
1.13027
1.12895
1.12773
1.12663
1.12568
1.12489
1.12428
1.12381
1.12341
1.12301
1.1226
1.12214
1.1216
1.12096
1.12025
1.11947
1.11862
1.11771
1.11677
1.11579
1.11478
1.11379
1.11281
1.1118
1.11074
1.10977
1.10888
1.10797
1.10701
1.10601
1.10498
1.10391
1.10277
1.10151
1.10018
1.09879
1.09724
1.0955
1.09369
1.09182
1.08987
1.08788
1.08594
1.08414
1.08243
1.08081
1.07929
1.07793
1.07671
1.07557
1.07442
1.07336
1.07241
1.0714
1.07035
1.06938
1.06841
1.06733
1.06624
1.06519
1.06409
1.06283
1.0615
1.06023
1.05888
1.05729
1.05567
1.05435
1.05317
1.05198
1.05084
1.04991
1.04901
1.04803
1.04702
1.0461
1.04515
1.04408
1.04285
1.04158
1.04024
1.03883
1.03736
1.03596
1.03471
1.03351
1.03231
1.03111
1.02994
1.02879
1.02759
1.02631
1.02504
1.02388
1.02277
1.02152
1.0201
1.0191
1.01836
1.01742
1.01653
1.01593
1.01521
1.01432
1.01352
1.01278
1.01193
1.01094
1.00993
1.00891
1.0079
1.00673
1.00572
1.00516
1.00448
1.00381
1.00289
1.13384
1.13423
1.13535
1.13638
1.13738
1.13817
1.13891
1.13935
1.13914
1.13872
1.13813
1.13716
1.1358
1.13424
1.1327
1.1312
1.12983
1.12869
1.12778
1.12706
1.12646
1.12596
1.12553
1.12513
1.12471
1.1243
1.12387
1.12337
1.12278
1.12209
1.12131
1.12045
1.11954
1.11859
1.11762
1.11665
1.1157
1.11474
1.11374
1.11271
1.11179
1.11096
1.11007
1.10911
1.10812
1.10707
1.10596
1.10474
1.10339
1.10197
1.10047
1.0988
1.09701
1.09526
1.09348
1.09165
1.08983
1.08809
1.08646
1.08492
1.08346
1.08209
1.08085
1.07974
1.07866
1.07759
1.07665
1.07581
1.07486
1.07384
1.07288
1.07185
1.07065
1.06939
1.06816
1.06689
1.06547
1.06402
1.06271
1.06137
1.05982
1.05825
1.05695
1.05575
1.05449
1.05328
1.05221
1.05116
1.05004
1.04887
1.04775
1.04657
1.04528
1.04383
1.04233
1.04078
1.0392
1.03761
1.03611
1.03475
1.03345
1.03217
1.03092
1.02978
1.02868
1.02752
1.02625
1.02498
1.02382
1.0227
1.02142
1.02006
1.01914
1.01835
1.0173
1.01642
1.01577
1.015
1.01409
1.01331
1.01257
1.0117
1.01068
1.00956
1.00851
1.00747
1.00623
1.00522
1.00456
1.0038
1.00306
1.00207
1.13096
1.13102
1.13154
1.13259
1.13372
1.13476
1.13586
1.13686
1.13705
1.13704
1.13692
1.13658
1.13588
1.13504
1.13392
1.13257
1.1312
1.12998
1.12901
1.12832
1.1278
1.12735
1.12692
1.12647
1.12601
1.12555
1.12508
1.12456
1.12395
1.12324
1.12246
1.12161
1.12072
1.11982
1.11892
1.118
1.11706
1.11608
1.11508
1.11408
1.11321
1.11237
1.11146
1.11048
1.10944
1.10831
1.10711
1.1058
1.10436
1.10285
1.10124
1.0995
1.0977
1.09597
1.09426
1.09257
1.09094
1.08942
1.08801
1.08671
1.08548
1.08431
1.08324
1.08225
1.08123
1.0802
1.07932
1.07849
1.07755
1.07655
1.07562
1.0746
1.07338
1.07212
1.07093
1.06968
1.06828
1.06687
1.06563
1.06439
1.06297
1.06152
1.06033
1.05919
1.05798
1.05676
1.05565
1.05455
1.05339
1.05214
1.0509
1.04959
1.04817
1.04659
1.04494
1.04325
1.04151
1.03975
1.03805
1.0365
1.03501
1.03354
1.03207
1.03071
1.02943
1.02816
1.0268
1.02549
1.02439
1.02331
1.02198
1.02059
1.01961
1.01867
1.01751
1.01663
1.01594
1.01511
1.01419
1.01339
1.01259
1.01167
1.01058
1.00939
1.00833
1.00725
1.00591
1.00489
1.0042
1.00333
1.00264
1.00168
1.12853
1.12832
1.12837
1.12874
1.1296
1.13055
1.13157
1.13303
1.13403
1.13428
1.13452
1.13468
1.13472
1.13439
1.13372
1.13307
1.13231
1.13143
1.1306
1.12988
1.12922
1.12858
1.12794
1.12736
1.12686
1.12642
1.12592
1.12531
1.12458
1.12375
1.1229
1.12205
1.12116
1.12029
1.11947
1.11862
1.11769
1.11672
1.11573
1.11476
1.11381
1.11287
1.11193
1.11093
1.10986
1.10868
1.10739
1.10598
1.10442
1.10279
1.10109
1.0993
1.09752
1.09584
1.09422
1.09267
1.09122
1.08989
1.08871
1.08762
1.08658
1.08559
1.08469
1.08381
1.08282
1.08183
1.08098
1.08013
1.07917
1.07821
1.07731
1.07632
1.07512
1.07392
1.07281
1.07163
1.0703
1.06896
1.06782
1.06668
1.06541
1.0641
1.06305
1.06205
1.06096
1.05982
1.05875
1.05765
1.05649
1.05522
1.05395
1.05265
1.05125
1.04971
1.04813
1.04655
1.04496
1.0433
1.04165
1.04014
1.03866
1.03716
1.03561
1.03414
1.03276
1.03139
1.02992
1.02845
1.02721
1.02595
1.02438
1.02282
1.02157
1.02028
1.01891
1.01788
1.01693
1.01588
1.0148
1.01384
1.0129
1.01185
1.01065
1.00944
1.0084
1.00722
1.0059
1.005
1.00425
1.00331
1.00265
1.00156
1.12685
1.12623
1.12588
1.12563
1.12576
1.12632
1.12687
1.12774
1.12932
1.13024
1.13092
1.13181
1.13244
1.13264
1.13258
1.13239
1.13206
1.1317
1.13139
1.13104
1.13056
1.1299
1.12908
1.12825
1.12754
1.12689
1.12617
1.12546
1.12469
1.12385
1.12298
1.12212
1.12119
1.12025
1.11939
1.11856
1.11766
1.11673
1.11579
1.11483
1.1138
1.11276
1.11176
1.11064
1.10944
1.10815
1.1068
1.10535
1.10379
1.10219
1.10051
1.09875
1.097
1.09532
1.09374
1.09229
1.09098
1.08985
1.0889
1.08803
1.08718
1.08636
1.08559
1.08475
1.08374
1.08271
1.08176
1.0808
1.07975
1.07878
1.07789
1.07693
1.07581
1.07472
1.07373
1.07266
1.07145
1.07022
1.06913
1.06804
1.06684
1.06559
1.06459
1.06365
1.06264
1.06157
1.06056
1.05951
1.05838
1.05715
1.05593
1.05467
1.05334
1.05186
1.05035
1.04891
1.0475
1.04605
1.0446
1.0433
1.04201
1.04065
1.03916
1.03771
1.0364
1.03512
1.03366
1.03221
1.03105
1.02975
1.02814
1.0266
1.0252
1.02365
1.02216
1.02094
1.01966
1.01828
1.01692
1.01568
1.01444
1.01309
1.01163
1.01031
1.00911
1.00772
1.0064
1.00542
1.0045
1.00345
1.0027
1.00153
1.12551
1.12458
1.12387
1.12322
1.12274
1.12248
1.1226
1.12271
1.12345
1.125
1.12589
1.12717
1.12861
1.12932
1.12984
1.13042
1.13111
1.1314
1.13131
1.13112
1.13083
1.13038
1.12978
1.12905
1.12822
1.12732
1.1263
1.12525
1.12427
1.12334
1.12243
1.12163
1.12085
1.12001
1.11915
1.11827
1.1173
1.11626
1.11525
1.11425
1.11313
1.11196
1.11087
1.10964
1.10833
1.10695
1.10554
1.10408
1.10256
1.10103
1.09945
1.09778
1.09611
1.09457
1.09317
1.09192
1.09082
1.08988
1.08903
1.08822
1.08742
1.08669
1.08596
1.0851
1.08404
1.08294
1.08195
1.08096
1.07992
1.07897
1.07804
1.07705
1.07595
1.07487
1.07391
1.07288
1.07173
1.07055
1.06952
1.06848
1.06738
1.06623
1.06531
1.06444
1.06349
1.06246
1.06148
1.06043
1.05929
1.05803
1.05674
1.05546
1.05415
1.05273
1.05132
1.05012
1.04896
1.04776
1.04651
1.04537
1.0442
1.04298
1.04157
1.04016
1.03908
1.038
1.03671
1.03546
1.03446
1.03326
1.03187
1.0305
1.02909
1.02754
1.02617
1.02493
1.02355
1.02207
1.02064
1.01931
1.0179
1.0163
1.01462
1.01306
1.01145
1.00971
1.00812
1.00678
1.00553
1.0042
1.00323
1.00186
1.12422
1.12306
1.12208
1.12117
1.12028
1.11944
1.1189
1.11841
1.11835
1.11908
1.12017
1.12117
1.12312
1.12471
1.12575
1.12704
1.12825
1.12898
1.12938
1.12962
1.12953
1.12928
1.12896
1.12851
1.12785
1.12703
1.12606
1.12499
1.12394
1.12296
1.12197
1.12096
1.12
1.11903
1.11806
1.11713
1.1162
1.11521
1.11416
1.11302
1.11164
1.11034
1.10921
1.10794
1.10659
1.1052
1.10371
1.10216
1.10063
1.09915
1.09768
1.09614
1.09458
1.09314
1.09184
1.09072
1.08976
1.08894
1.08818
1.08738
1.08655
1.08585
1.08517
1.08439
1.08348
1.0827
1.08191
1.08093
1.07981
1.07883
1.07792
1.07697
1.07592
1.07498
1.07412
1.07314
1.07201
1.07084
1.06972
1.06859
1.06746
1.06631
1.06532
1.06439
1.06342
1.06237
1.0614
1.06041
1.05932
1.05812
1.05688
1.05568
1.05446
1.05317
1.05184
1.05075
1.04968
1.04857
1.04736
1.04627
1.04524
1.04417
1.04291
1.04169
1.04088
1.03997
1.03886
1.03775
1.03675
1.03562
1.03443
1.03319
1.03181
1.03041
1.02932
1.02823
1.02696
1.02563
1.0244
1.02324
1.02189
1.02032
1.01872
1.0171
1.01534
1.01348
1.01171
1.01009
1.00849
1.00679
1.00547
1.00354
1.12298
1.12167
1.12049
1.11932
1.11814
1.11702
1.11594
1.11507
1.1144
1.11421
1.11476
1.11538
1.11654
1.11863
1.12012
1.12207
1.12405
1.12517
1.12618
1.12692
1.12741
1.12748
1.12735
1.12696
1.12629
1.12548
1.12455
1.12352
1.12248
1.12146
1.1204
1.11932
1.11839
1.11758
1.11672
1.11573
1.11466
1.11341
1.11205
1.11073
1.1093
1.10778
1.10631
1.10485
1.10341
1.102
1.10057
1.09914
1.09779
1.09652
1.09528
1.094
1.09269
)
;

boundaryField
{
    inlet
    {
        type            fixedValue;
        value           nonuniform 0();
    }
    outlet
    {
        type            inletOutlet;
        inletValue      uniform 1;
        value           nonuniform List<scalar> 
18
(
1.01973
1.01794
1.01615
1.01461
1.01297
1.01133
1.00986
1.00822
1.00682
1.00525
1.00399
1.00291
1.00207
1.00168
1.00156
1.00152
1.00184
1.00348
)
;
    }
    bottom
    {
        type            symmetryPlane;
    }
    top
    {
        type            symmetryPlane;
    }
    obstacle
    {
        type            zeroGradient;
    }
    front
    {
        type            empty;
    }
    back
    {
        type            empty;
    }
    procBoundary39to31
    {
        type            processor;
        value           nonuniform List<scalar> 
133
(
1.12638
1.12545
1.12447
1.12343
1.12232
1.12109
1.11979
1.11849
1.11713
1.11571
1.11424
1.11274
1.11132
1.11
1.1088
1.1078
1.10705
1.10653
1.10626
1.10608
1.10596
1.10596
1.10595
1.10586
1.10568
1.10543
1.1051
1.1046
1.10395
1.10326
1.10249
1.10156
1.10052
1.09972
1.09904
1.09822
1.09737
1.09684
1.09631
1.09562
1.09504
1.0946
1.09409
1.09349
1.09277
1.09188
1.09097
1.09
1.08885
1.08746
1.08586
1.08409
1.08222
1.08029
1.07803
1.07581
1.07377
1.07197
1.07004
1.06836
1.06697
1.06586
1.0651
1.06449
1.06396
1.06354
1.06334
1.06318
1.06294
1.06252
1.06216
1.06183
1.06124
1.06035
1.05952
1.05873
1.05776
1.05668
1.05568
1.05475
1.05384
1.05299
1.0522
1.05151
1.05091
1.05034
1.04971
1.04897
1.04831
1.04761
1.04676
1.04576
1.04479
1.04374
1.04254
1.04119
1.03987
1.03857
1.03737
1.03626
1.03531
1.03443
1.03359
1.03275
1.03196
1.03118
1.03037
1.02953
1.02875
1.02803
1.02723
1.02631
1.02517
1.02407
1.02319
1.02177
1.13995
1.13904
1.13813
1.1372
1.13625
1.13527
1.13427
1.13328
1.13234
1.13148
1.13065
1.12979
1.12893
1.12807
1.12719
1.12627
1.12627
)
;
    }
    procBoundary39to38
    {
        type            processor;
        value           nonuniform List<scalar> 
17
(
1.14036
1.14008
1.14
1.14024
1.14089
1.1418
1.14272
1.14251
1.14138
1.13919
1.13637
1.13347
1.13091
1.12906
1.12766
1.1265
1.1254
)
;
    }
    procBoundary39to46
    {
        type            processor;
        value           uniform 1.12425;
    }
    procBoundary39to47
    {
        type            processor;
        value           nonuniform List<scalar> 
133
(
1.09144
1.09024
1.08911
1.08816
1.08739
1.08671
1.08596
1.08516
1.0845
1.08382
1.08301
1.08216
1.08133
1.08042
1.0794
1.07828
1.07733
1.07647
1.0756
1.07467
1.07378
1.07292
1.07197
1.07093
1.06986
1.06888
1.06788
1.06685
1.06579
1.06487
1.06399
1.06307
1.06207
1.06112
1.06016
1.05909
1.05788
1.05662
1.05544
1.05429
1.05306
1.05176
1.05082
1.04991
1.0489
1.04776
1.04671
1.04575
1.04475
1.0436
1.04246
1.04167
1.04081
1.03983
1.03876
1.03774
1.03681
1.03586
1.03479
1.03352
1.03239
1.03153
1.03056
1.02941
1.02818
1.02711
1.02607
1.0248
1.02339
1.02202
1.02058
1.01904
1.01738
1.01576
1.0142
1.01256
1.01082
1.0094
1.00711
1.12151
1.12007
1.11875
1.11743
1.11615
1.11493
1.11372
1.11257
1.11159
1.11067
1.11055
1.11073
1.11105
1.11236
1.11383
1.11541
1.11787
1.11951
1.12108
1.12269
1.12345
1.12401
1.12456
1.12438
1.12393
1.12335
1.1226
1.12167
1.12066
1.11964
1.11855
1.11742
1.11633
1.11522
1.11413
1.1131
1.11207
1.111
1.1098
1.10838
1.10664
1.10478
1.10313
1.10156
1.10014
1.09884
1.09758
1.09632
1.09513
1.09397
1.0929
1.09187
1.09144
1.09083
)
;
    }
}


// ************************************************************************* //
