/*--------------------------------*- C++ -*----------------------------------*\
  =========                 |
  \\      /  F ield         | OpenFOAM: The Open Source CFD Toolbox
   \\    /   O peration     | Website:  https://openfoam.org
    \\  /    A nd           | Version:  7
     \\/     M anipulation  |
\*---------------------------------------------------------------------------*/
FoamFile
{
    version     2.0;
    format      ascii;
    class       volScalarField;
    location    "1.5";
    object      rho;
}
// * * * * * * * * * * * * * * * * * * * * * * * * * * * * * * * * * * * * * //

dimensions      [1 -3 0 0 0 0 0];

internalField   nonuniform List<scalar> 
2413
(
2.81774
2.84466
2.86276
2.87294
2.87768
2.87795
2.87371
2.86637
2.85813
2.8503
2.84315
2.83642
2.8301
2.8244
2.81934
2.81498
2.81115
2.80757
2.80366
2.79863
2.7917
2.78189
2.76797
2.74909
2.72583
2.6995
2.67117
2.64115
2.60985
2.57779
2.54565
2.51314
2.47951
2.44384
2.40669
2.36987
2.3359
2.30711
2.28312
2.26436
2.24881
2.23607
2.22527
2.2159
2.20727
2.19914
2.19155
2.18494
2.17942
2.17498
2.17158
0.183824
0.186328
0.18807
0.189759
0.192048
0.193484
0.19467
0.195205
0.49961
1.18529
1.55731
1.80724
1.95623
2.08503
2.2022
2.29161
2.36833
2.44297
2.51056
2.56628
2.60862
2.63806
2.65614
2.66894
2.68011
2.6872
2.68855
2.68154
2.66809
2.65553
2.6483
2.65041
2.66222
2.67814
2.70396
2.74009
2.78058
2.81965
2.85243
2.87611
2.89072
2.89835
2.90068
2.89857
2.89224
2.88393
2.87532
2.86736
2.86
2.85293
2.84641
2.84065
2.83569
2.83135
2.82731
2.82312
2.81788
2.81069
2.80074
2.78699
2.76839
2.74538
2.71941
2.69162
2.66227
2.63153
2.59966
2.56753
2.53556
2.50369
2.4709
2.43654
2.40077
2.36548
2.33305
2.30447
2.28109
2.26141
2.24528
2.23122
2.21933
2.20873
2.19919
2.19051
2.18278
2.17634
2.17119
2.16721
0.187606
0.191542
0.193642
0.195003
0.196602
0.1991
0.201367
0.20341
0.235985
0.78994
1.33333
1.63109
1.84887
1.98478
2.10246
2.21057
2.30688
2.39851
2.48441
2.55443
2.60579
2.6422
2.66644
2.68354
2.69747
2.70948
2.71687
2.71638
2.70796
2.69348
2.68191
2.6762
2.68101
2.69412
2.71199
2.74049
2.77792
2.81846
2.85574
2.88551
2.90582
2.91712
2.92178
2.92182
2.91745
2.90976
2.90075
2.892
2.88396
2.87635
2.86906
2.86247
2.85677
2.85185
2.84727
2.84263
2.83714
2.82972
2.81945
2.80555
2.7871
2.76422
2.73845
2.71097
2.68212
2.65198
2.62055
2.58851
2.55648
2.52503
2.49378
2.46193
2.42849
2.39408
2.36015
2.32843
2.30095
2.27706
2.25726
2.23995
2.22503
2.21202
2.20053
2.19042
2.18154
2.17397
2.16791
2.16321
0.192115
0.195785
0.198786
0.20005
0.201302
0.203521
0.206528
0.208946
0.210762
0.375559
1.0551
1.43509
1.70811
1.89861
2.0138
2.11431
2.22046
2.32674
2.43275
2.52619
2.59536
2.6416
2.67271
2.6944
2.71185
2.7272
2.73937
2.74556
2.74329
2.73301
2.7187
2.70807
2.70483
2.71223
2.72629
2.74628
2.77731
2.81575
2.85576
2.89081
2.91714
2.93341
2.94156
2.94355
2.94127
2.93492
2.92626
2.91703
2.90825
2.9001
2.8923
2.88496
2.8784
2.87274
2.86754
2.86231
2.85644
2.84881
2.83823
2.82392
2.80534
2.7825
2.75678
2.72948
2.7009
2.67119
2.64025
2.60855
2.57652
2.54498
2.5141
2.48362
2.45237
2.41995
2.38643
2.35338
2.32291
2.29532
2.27181
2.25114
2.23313
2.21735
2.20359
2.19154
2.18127
2.1725
2.16532
2.15973
0.198779
0.201336
0.205204
0.207347
0.208526
0.210007
0.212507
0.215116
0.216388
0.218788
0.623255
1.24355
1.53103
1.77897
1.94367
2.04139
2.13239
2.23986
2.35342
2.46705
2.56352
2.63112
2.67363
2.70169
2.72336
2.7411
2.75727
2.76885
2.77317
2.76894
2.75723
2.74352
2.73471
2.7343
2.74417
2.75914
2.78121
2.8142
2.85326
2.89201
2.92428
2.94671
2.95926
2.9638
2.96341
2.95897
2.95139
2.94217
2.93288
2.9241
2.91583
2.908
2.90073
2.89418
2.88823
2.8823
2.87584
2.86793
2.85715
2.84236
2.82329
2.80031
2.77451
2.74728
2.71885
2.68936
2.6588
2.62751
2.59573
2.56414
2.53311
2.50294
2.47297
2.44246
2.41048
2.37776
2.34574
2.31543
2.28858
2.2646
2.24358
2.22484
2.20852
2.19431
2.18216
2.17204
2.1636
2.15692
0.205841
0.2071
0.2102
0.213683
0.215854
0.217605
0.219679
0.22257
0.223885
0.224531
0.283515
0.904753
1.36522
1.6212
1.84194
1.98726
2.07565
2.16257
2.26763
2.3832
2.49878
2.59576
2.66238
2.70325
2.73097
2.75344
2.77153
2.78729
2.79726
2.79889
2.79282
2.78052
2.76831
2.76168
2.76448
2.77689
2.79254
2.8166
2.85106
2.8901
2.92686
2.95589
2.97407
2.98264
2.9841
2.98168
2.97562
2.96705
2.95761
2.94837
2.93957
2.93125
2.92353
2.91633
2.90952
2.90275
2.8955
2.88715
2.87617
2.86104
2.84126
2.81777
2.79176
2.7644
2.73606
2.70668
2.67634
2.6454
2.61398
2.58254
2.55135
2.52099
2.49136
2.46201
2.43169
2.40028
2.36813
2.33636
2.30692
2.27988
2.25594
2.2344
2.21535
2.19875
2.18451
2.17263
2.16289
2.15494
0.21278
0.213229
0.214741
0.218423
0.222015
0.224325
0.226203
0.22883
0.232136
0.23288
0.232913
0.457337
1.14654
1.45056
1.69831
1.90541
2.03599
2.11707
2.1993
2.29963
2.41393
2.52816
2.62489
2.69215
2.7327
2.76193
2.78409
2.80222
2.81634
2.82365
2.82274
2.81525
2.80345
2.79357
2.78994
2.79586
2.80913
2.82593
2.85236
2.88791
2.92642
2.96058
2.98528
2.99906
3.0036
3.00283
2.99847
2.99122
2.98223
2.97275
2.96352
2.95474
2.94648
2.93886
2.93146
2.92386
2.91563
2.90657
2.8953
2.88
2.8595
2.83514
2.80866
2.78098
2.75257
2.72328
2.69304
2.66233
2.63125
2.60011
2.56895
2.53833
2.50851
2.47947
2.45025
2.42031
2.389
2.35703
2.32602
2.29655
2.26989
2.24569
2.22407
2.20495
2.18844
2.17452
2.16318
2.15399
0.221827
0.22209
0.222905
0.22509
0.228795
0.231567
0.233304
0.235049
0.238014
0.241219
0.242138
0.247729
0.73099
1.30946
1.52798
1.77035
1.97
2.08588
2.15839
2.23718
2.3334
2.44478
2.557
2.65405
2.72261
2.76369
2.79359
2.81503
2.83199
2.84338
2.84806
2.84535
2.83695
2.82671
2.81995
2.81943
2.82775
2.84117
2.8593
2.88795
2.92423
2.96147
2.99228
3.01212
3.02133
3.0226
3.02002
3.01435
3.00639
2.99706
2.98759
2.97844
2.96975
2.96156
2.95371
2.94556
2.93644
2.92634
2.91458
2.89918
2.87813
2.85267
2.8254
2.7972
2.7685
2.73918
2.70899
2.67839
2.64758
2.61675
2.58579
2.55507
2.52494
2.49566
2.46683
2.43792
2.40778
2.37652
2.34498
2.31394
2.28503
2.25835
2.23431
2.21278
2.19395
2.17791
2.16465
2.15401
0.22942
0.23114
0.23213
0.233498
0.23626
0.239565
0.241238
0.24217
0.24383
0.247081
0.24978
0.251085
0.337286
1.0096
1.40495
1.60669
1.84427
2.02829
2.13288
2.19966
2.2754
2.36732
2.47579
2.58686
2.68517
2.75443
2.79696
2.82469
2.84532
2.85959
2.86845
2.87093
2.86726
2.85941
2.85149
2.84748
2.84966
2.85982
2.87322
2.89278
2.92322
2.95961
2.99465
3.02116
3.03617
3.04105
3.04001
3.03611
3.02958
3.02103
3.01166
3.00224
2.99318
2.98454
2.97614
2.96751
2.95782
2.94672
2.9341
2.91849
2.89717
2.87051
2.84218
2.81324
2.78401
2.75447
2.72427
2.69369
2.66303
2.63247
2.60178
2.57117
2.54081
2.51113
2.48215
2.4536
2.42442
2.39424
2.36302
2.33136
2.30086
2.27205
2.24576
2.222
2.20096
2.18278
2.16752
2.15507
0.234519
0.238529
0.240099
0.240972
0.242448
0.245893
0.248732
0.249742
0.250514
0.252476
0.256049
0.258397
0.25859
0.534698
1.22732
1.47397
1.68154
1.91821
2.08244
2.17965
2.24168
2.31261
2.40101
2.5082
2.6197
2.71928
2.78874
2.82843
2.85492
2.87329
2.8852
2.89184
2.89302
2.88959
2.88333
2.87768
2.87576
2.88014
2.89114
2.90453
2.92615
2.95813
2.99401
3.02576
3.04712
3.05722
3.05877
3.05642
3.05139
3.04432
3.03554
3.02608
3.01673
3.00771
2.99885
2.98967
2.97942
2.96765
2.95405
2.93793
2.91656
2.88872
2.85913
2.82925
2.79928
2.7693
2.73895
2.70832
2.67768
2.64727
2.61685
2.58645
2.55606
2.52604
2.49667
2.46797
2.43925
2.41
2.37957
2.3481
2.3168
2.2864
2.25814
2.23231
2.20923
2.18899
2.17171
2.15738
0.241426
0.244798
0.248426
0.249255
0.249814
0.25142
0.255432
0.258107
0.258781
0.259518
0.26183
0.265815
0.267607
0.274925
0.809345
1.37299
1.5446
1.75975
1.98971
2.13761
2.22798
2.28127
2.34875
2.43645
2.54369
2.65651
2.75464
2.82188
2.85845
2.8829
2.89924
2.90883
2.91418
2.91531
2.91296
2.90872
2.9048
2.90458
2.91024
2.92098
2.93538
2.95958
2.99236
3.0266
3.05399
3.07018
3.07593
3.07504
3.07186
3.06645
3.05884
3.04978
3.0403
3.03098
3.02173
3.0121
3.00131
2.98883
2.97439
2.95769
2.93617
2.90745
2.87629
2.8453
2.81447
2.78382
2.75316
2.72238
2.69165
2.66126
2.63101
2.60084
2.57057
2.54041
2.51066
2.48155
2.45281
2.42404
2.39441
2.36363
2.33225
2.30096
2.27116
2.24349
2.21849
2.19633
2.17712
2.16092
0.250452
0.252101
0.255932
0.258631
0.259364
0.260155
0.262264
0.266319
0.268122
0.268764
0.26977
0.27243
0.276116
0.277519
0.366379
1.07411
1.46264
1.62002
1.84119
2.06144
2.19167
2.27005
2.31985
2.38807
2.47576
2.58351
2.69557
2.78991
2.85271
2.8861
2.90894
2.9232
2.9313
2.93633
2.93852
2.93774
2.93496
2.93221
2.93303
2.93983
2.95048
2.96637
2.99262
3.02524
3.05662
3.07908
3.09031
3.09252
3.09077
3.08702
3.08111
3.07311
3.06382
3.05431
3.04477
3.0348
3.02357
3.01045
2.99506
2.97772
2.95607
2.9268
2.89381
2.86143
2.82963
2.79818
2.76699
2.73597
2.70506
2.67455
2.64433
2.61432
2.58422
2.5541
2.52412
2.49456
2.4655
2.43677
2.40765
2.37764
2.34671
2.31521
2.28445
2.25525
2.22852
2.20457
2.18357
2.1656
0.259286
0.260233
0.2625
0.266561
0.268604
0.269398
0.270411
0.273118
0.276674
0.278107
0.278992
0.280254
0.283298
0.285994
0.285989
0.552663
1.28231
1.52399
1.69195
1.9228
2.12823
2.24288
2.31191
2.36288
2.43052
2.51879
2.62624
2.73441
2.82245
2.88091
2.91223
2.93337
2.9454
2.95344
2.95973
2.9634
2.96342
2.96101
2.95895
2.96113
2.96918
2.97953
2.99687
3.02453
3.05623
3.08386
3.10119
3.10804
3.10813
3.10617
3.10199
3.09559
3.08702
3.07751
3.0678
3.05759
3.04609
3.0325
3.01629
2.99795
2.97617
2.94687
2.91198
2.87782
2.84482
2.81245
2.78057
2.74915
2.71799
2.6873
2.65698
2.62698
2.59701
2.56703
2.53701
2.50715
2.47767
2.44863
2.41964
2.39018
2.35989
2.32872
2.29759
2.26733
2.2391
2.21349
2.19084
2.17122
0.267627
0.268611
0.269596
0.272389
0.276435
0.27802
0.278706
0.279849
0.28297
0.286193
0.28745
0.288229
0.289628
0.292894
0.295112
0.296814
0.811443
1.43152
1.58362
1.76035
1.9994
2.19053
2.29346
2.35679
2.40809
2.47548
2.56496
2.66932
2.77071
2.85295
2.90839
2.93764
2.95626
2.96722
2.9773
2.98504
2.98885
2.98868
2.98628
2.98537
2.98901
2.99688
3.00772
3.02716
3.05517
3.08497
3.10803
3.12052
3.12427
3.12361
3.12141
3.11678
3.10958
3.1005
3.09076
3.08042
3.06876
3.05491
3.03811
3.01871
2.99638
2.96728
2.93117
2.89478
2.86026
2.82675
2.79396
2.76198
2.73051
2.69959
2.66909
2.63897
2.60902
2.57913
2.54919
2.51922
2.48941
2.45994
2.43074
2.40146
2.37171
2.34111
2.31012
2.27933
2.24999
2.22291
2.19871
2.17757
0.275969
0.278194
0.279064
0.280107
0.283238
0.287256
0.288518
0.289031
0.290161
0.293352
0.296134
0.29685
0.297367
0.298931
0.302196
0.304289
0.36037
1.0766
1.53133
1.65105
1.83604
2.07403
2.25198
2.34597
2.40326
2.45523
2.52404
2.61145
2.70989
2.80573
2.88457
2.93532
2.96161
2.97856
2.99129
3.00273
3.0103
3.01359
3.01334
3.0114
3.01161
3.016
3.02348
3.03518
3.05653
3.08442
3.11104
3.1291
3.1379
3.13995
3.13932
3.13643
3.13099
3.12295
3.11343
3.10307
3.09134
3.0774
3.06033
3.04015
3.01702
2.98786
2.95116
2.91274
2.87624
2.84134
2.80737
2.77453
2.74264
2.71144
2.68075
2.65045
2.62039
2.59051
2.56065
2.53073
2.50076
2.47092
2.44133
2.4119
2.38239
2.35231
2.32174
2.29091
2.26091
2.23267
2.20706
2.18448
0.284514
0.288288
0.289787
0.290445
0.291589
0.29491
0.298299
0.299125
0.29966
0.301109
0.304553
0.306769
0.30726
0.307871
0.309572
0.312651
0.313693
0.510786
1.29857
1.59663
1.72215
1.92092
2.15102
2.31362
2.39862
2.45255
2.50589
2.57204
2.65489
2.74981
2.84315
2.9176
2.96056
2.98578
3.00343
3.01685
3.02741
3.03461
3.03785
3.03763
3.03603
3.03717
3.042
3.0491
3.0623
3.08489
3.11142
3.13389
3.14797
3.1546
3.15587
3.15482
3.15095
3.14456
3.13571
3.1255
3.11379
3.09987
3.08275
3.06217
3.03823
3.00884
2.97171
2.93157
2.89324
2.85655
2.82112
2.78711
2.75446
2.72293
2.69198
2.6615
2.63127
2.60128
2.57144
2.54158
2.51161
2.48155
2.45156
2.42177
2.39216
2.36235
2.33223
2.30169
2.2715
2.24249
2.21571
2.19179
0.293351
0.29643
0.299497
0.300057
0.300577
0.302086
0.305853
0.308525
0.309122
0.309788
0.311732
0.315382
0.317058
0.317512
0.318299
0.320333
0.323354
0.323948
0.74301
1.46862
1.64937
1.79279
2.00956
2.2286
2.37385
2.45237
2.50282
2.55294
2.61584
2.6988
2.79252
2.88084
2.94866
2.9871
3.01292
3.02941
3.0415
3.0515
3.05885
3.0617
3.06072
3.05988
3.06136
3.0663
3.074
3.08889
3.11127
3.13528
3.15438
3.16628
3.17111
3.17156
3.1695
3.16484
3.15726
3.14745
3.13586
3.12204
3.10505
3.0844
3.05992
3.03032
2.99293
2.95113
2.91101
2.87272
2.8356
2.80004
2.76628
2.73406
2.70282
2.67213
2.64175
2.61159
2.58165
2.55182
2.52191
2.49181
2.46156
2.43137
2.40142
2.37154
2.3417
2.31154
2.28149
2.25213
2.2245
2.1994
0.302696
0.304115
0.30767
0.310057
0.310707
0.31149
0.313418
0.317179
0.319166
0.319683
0.320351
0.322501
0.325878
0.326929
0.327345
0.328311
0.330778
0.333172
0.350525
1.01871
1.59376
1.7079
1.86417
2.09575
2.30454
2.43421
2.50345
2.54664
2.59572
2.66129
2.74485
2.83422
2.91789
2.98047
3.01779
3.03978
3.05327
3.06554
3.07628
3.08252
3.08406
3.08284
3.08236
3.08526
3.09
3.09775
3.1135
3.13519
3.15728
3.17431
3.18427
3.1872
3.18679
3.18365
3.17784
3.16886
3.15753
3.14388
3.12712
3.10665
3.08197
3.05225
3.0147
2.97174
2.92949
2.88959
2.85105
2.81378
2.77845
2.74521
2.71333
2.6824
2.65185
2.62154
2.59143
2.56149
2.53162
2.50157
2.47123
2.44072
2.41031
2.3801
2.35024
2.32036
2.29062
2.26127
2.23318
2.20718
0.312978
0.313614
0.315262
0.318777
0.321323
0.322345
0.323137
0.325157
0.328499
0.330105
0.33063
0.331302
0.333576
0.336466
0.337452
0.338019
0.339161
0.341521
0.343211
0.451696
1.26986
1.67724
1.7759
1.94209
2.17923
2.37683
2.48875
2.54645
2.5877
2.64033
2.70646
2.78865
2.87719
2.95954
3.01618
3.04514
3.06307
3.07779
3.09109
3.10008
3.10438
3.10526
3.10448
3.1054
3.10796
3.11138
3.11953
3.1359
3.15791
3.17899
3.19407
3.20118
3.20257
3.2013
3.19702
3.1894
3.17858
3.16516
3.1487
3.12857
3.10405
3.07441
3.03689
2.99322
2.94907
2.90724
2.86715
2.82847
2.79145
2.75665
2.72383
2.69234
2.6616
2.63113
2.60083
2.57071
2.54078
2.51077
2.48047
2.44983
2.41904
2.38837
2.35821
2.32834
2.29886
2.26973
2.24152
2.21495
0.324486
0.325088
0.325384
0.326986
0.330454
0.332797
0.333339
0.333861
0.335979
0.339295
0.341105
0.341725
0.342448
0.344698
0.347393
0.348474
0.348959
0.349968
0.352197
0.353279
0.636559
1.47197
1.73535
1.84622
2.02849
2.26116
2.4406
2.53642
2.58843
2.62979
2.68212
2.75128
2.83669
2.92638
3.00102
3.04448
3.06976
3.089
3.10384
3.11467
3.12199
3.12578
3.12683
3.12625
3.12682
3.12753
3.12994
3.13983
3.15834
3.18088
3.20023
3.21241
3.2171
3.21749
3.21486
3.20892
3.19905
3.18598
3.1698
3.15006
3.12594
3.09665
3.05947
3.01537
2.96968
2.92587
2.88408
2.84376
2.80536
2.76892
2.7346
2.70226
2.67104
2.64042
2.60994
2.5796
2.5495
2.51943
2.4892
2.45854
2.42751
2.39639
2.36576
2.33562
2.30622
2.27733
2.24926
2.22248
0.335637
0.337716
0.337967
0.338548
0.340376
0.343743
0.345331
0.345488
0.346035
0.34812
0.351406
0.352926
0.353155
0.353691
0.355783
0.358223
0.358946
0.359238
0.359998
0.362131
0.363994
0.886971
1.62721
1.78743
1.91554
2.12096
2.34148
2.50051
2.58308
2.62757
2.67074
2.72721
2.80269
2.88855
2.97102
3.03388
3.07195
3.09836
3.11516
3.12673
3.13666
3.14445
3.14815
3.14751
3.14589
3.14424
3.14378
3.14801
3.16103
3.18159
3.20314
3.21996
3.22954
3.23242
3.2315
3.22692
3.21857
3.20618
3.1903
3.17091
3.14731
3.11861
3.08214
3.03797
2.99122
2.94557
2.90192
2.85997
2.81984
2.78204
2.74618
2.7124
2.68041
2.64937
2.61873
2.58819
2.55784
2.5276
2.49734
2.46676
2.43566
2.40428
2.37316
2.34257
2.31297
2.28417
2.25633
2.2296
0.344746
0.348051
0.349584
0.350113
0.350964
0.353068
0.356169
0.357438
0.357901
0.358688
0.360726
0.363567
0.364277
0.364396
0.365001
0.36713
0.369475
0.369998
0.370247
0.370987
0.372899
0.40227
1.16147
1.74699
1.84803
1.98976
2.21246
2.42034
2.55558
2.6229
2.67001
2.71624
2.77716
2.85165
2.93275
3.01067
3.06874
3.10399
3.12426
3.13695
3.14949
3.16129
3.16728
3.16774
3.16483
3.16156
3.15965
3.16061
3.16763
3.18318
3.20399
3.22408
3.2388
3.24567
3.24641
3.24366
3.23703
3.22583
3.21037
3.1912
3.16803
3.14007
3.10466
3.06086
3.01346
2.9663
2.92081
2.87708
2.83527
2.79568
2.7585
2.72326
2.68992
2.6582
2.62722
2.59652
2.56592
2.53542
2.50503
2.47445
2.44342
2.41193
2.38041
2.34929
2.3193
2.29037
2.26269
2.23616
0.352806
0.354885
0.358163
0.359483
0.360014
0.360786
0.363095
0.366187
0.367455
0.368005
0.368921
0.371298
0.373938
0.37487
0.375401
0.376389
0.378742
0.380924
0.381585
0.382067
0.383111
0.384759
0.516803
1.40864
1.83154
1.91831
2.0708
2.2975
2.48952
2.60532
2.66935
2.71441
2.76124
2.82025
2.89493
2.97913
3.05591
3.10419
3.12925
3.146
3.16209
3.17653
3.18384
3.1852
3.18272
3.17903
3.17646
3.17587
3.17817
3.18747
3.20457
3.22564
3.24454
3.25634
3.26002
3.25884
3.25395
3.2445
3.22987
3.21087
3.18798
3.16076
3.12659
3.08367
3.03615
2.98794
2.94081
2.89531
2.85168
2.81029
2.7713
2.73476
2.70007
2.66713
2.63558
2.60457
2.57377
2.54298
2.51232
2.48165
2.45068
2.41928
2.38756
2.35605
2.32554
2.29626
2.26853
2.24216
0.363746
0.364028
0.366015
0.369436
0.371258
0.371618
0.372006
0.373949
0.376972
0.378415
0.378737
0.379207
0.381267
0.384019
0.385422
0.386031
0.386859
0.388925
0.390984
0.391994
0.392605
0.393741
0.395201
0.709947
1.61069
1.89052
1.99001
2.15601
2.37776
2.55587
2.65789
2.71337
2.75246
2.79931
2.86487
2.94753
3.03211
3.09495
3.12962
3.15397
3.17498
3.19055
3.19793
3.20007
3.19964
3.197
3.19414
3.19203
3.19154
3.19539
3.20713
3.22632
3.24736
3.26368
3.27143
3.27251
3.26969
3.26198
3.24872
3.23008
3.20734
3.18068
3.14768
3.10602
3.05891
3.01018
2.96179
2.91463
2.86918
2.82586
2.78505
2.74671
2.71077
2.67661
2.64399
2.61252
2.58141
2.55038
2.51944
2.48854
2.45758
2.42629
2.39456
2.36279
2.33177
2.302
2.27401
2.2477
0.378623
0.379042
0.3797
0.381502
0.384347
0.385913
0.386157
0.386564
0.388139
0.390757
0.392061
0.39215
0.392425
0.393827
0.396083
0.397311
0.397487
0.397793
0.399201
0.401145
0.402105
0.402276
0.402952
0.405358
0.96369
1.76819
1.94082
2.06026
2.24677
2.46156
2.61847
2.69971
2.74808
2.78931
2.84584
2.92038
3.0023
3.07499
3.12576
3.16026
3.18589
3.20171
3.2093
3.21354
3.21562
3.21443
3.2117
3.2083
3.20624
3.20681
3.21329
3.22817
3.24837
3.26745
3.27996
3.2847
3.28371
3.27813
3.26645
3.24867
3.2262
3.19987
3.16777
3.12747
3.08128
3.03263
2.98356
2.93505
2.88788
2.84264
2.79984
2.75966
2.72194
2.68656
2.65285
2.62047
2.589
2.55769
2.52646
2.49529
2.46418
2.43294
2.40131
2.36951
2.33813
2.30787
2.27948
2.25299
0.390721
0.392336
0.393034
0.393753
0.395286
0.397621
0.398551
0.39882
0.399386
0.40092
0.403218
0.404356
0.404718
0.405278
0.406686
0.408786
0.409876
0.409995
0.410298
0.411433
0.413326
0.413636
0.413766
0.414106
0.440141
1.24442
1.89321
2.00128
2.13486
2.33996
2.53784
2.66627
2.73902
2.7861
2.83575
2.89761
2.97142
3.04823
3.11558
3.16303
3.19195
3.20836
3.21816
3.22629
3.23086
3.2308
3.22829
3.2244
3.22167
3.22105
3.22371
3.23304
3.24935
3.26851
3.28497
3.29474
3.29692
3.29297
3.28275
3.26646
3.24477
3.21861
3.18701
3.14784
3.10282
3.05476
3.00562
2.95624
2.90762
2.86057
2.81579
2.77361
2.73405
2.69696
2.66214
2.62885
2.59664
2.56501
2.53347
2.502
2.47066
2.43933
2.40781
2.37608
2.34453
2.31386
2.28494
2.2581
0.399919
0.402414
0.403676
0.404154
0.404756
0.406426
0.408789
0.40982
0.410263
0.410891
0.412411
0.414671
0.415738
0.416048
0.416508
0.417811
0.419896
0.420904
0.421223
0.421706
0.423087
0.42457
0.425382
0.426093
0.426705
0.550757
1.50324
1.98459
2.07263
2.21572
2.42425
2.60349
2.71585
2.78117
2.82832
2.87956
2.94452
3.02171
3.09864
3.15815
3.1922
3.21149
3.2256
3.23807
3.2447
3.24453
3.24227
3.23977
3.2378
3.237
3.23737
3.24123
3.25172
3.26832
3.28694
3.30179
3.30824
3.30626
3.29799
3.28327
3.26286
3.23702
3.20562
3.16728
3.12328
3.07617
3.02747
2.97785
2.92825
2.87973
2.83313
2.78894
2.74735
2.70836
2.67188
2.6376
2.6046
2.57238
2.54054
2.50874
2.47711
2.44559
2.41406
2.38244
2.35088
2.31997
2.2906
2.26332
0.411589
0.41285
0.415117
0.416492
0.416873
0.417229
0.418593
0.420829
0.422206
0.4227
0.423069
0.424192
0.426163
0.427201
0.427424
0.427632
0.428572
0.430382
0.431365
0.431666
0.431946
0.433116
0.434642
0.435958
0.436975
0.437607
0.741364
1.72027
2.04774
2.14646
2.30013
2.50491
2.66722
2.7636
2.81971
2.86657
2.92413
2.99776
3.07696
3.14337
3.18575
3.21135
3.23169
3.24809
3.25564
3.25559
3.25509
3.25539
3.25512
3.25409
3.25272
3.25234
3.25666
3.26883
3.28715
3.30563
3.31684
3.31829
3.31202
3.29912
3.28022
3.25513
3.22386
3.18608
3.14273
3.09663
3.04861
2.9993
2.94929
2.89978
2.85168
2.80562
2.76195
2.7209
)
;

boundaryField
{
    inlet
    {
        type            calculated;
        value           nonuniform 0();
    }
    outlet
    {
        type            calculated;
        value           nonuniform 0();
    }
    bottom
    {
        type            symmetryPlane;
    }
    top
    {
        type            symmetryPlane;
    }
    obstacle
    {
        type            calculated;
        value           nonuniform 0();
    }
    front
    {
        type            empty;
    }
    back
    {
        type            empty;
    }
    procBoundary12to4
    {
        type            processor;
        value           nonuniform List<scalar> 
89
(
2.81157
2.83289
2.84612
2.85321
2.8557
2.85375
2.84778
2.84029
2.83274
2.82578
2.81943
2.81344
2.80792
2.80288
2.79841
2.79454
2.79116
2.78793
2.78422
2.7794
2.7726
2.76262
2.74833
2.72905
2.70536
2.67845
2.6494
2.61874
2.58717
2.55499
2.52213
2.48759
2.45061
2.41164
2.37303
2.3378
2.30773
2.28417
2.26538
2.25108
2.2393
2.22984
2.22176
2.2144
2.20712
2.20002
2.19353
2.18783
2.18302
2.17916
2.17621
0.178114
0.179319
0.180491
0.182508
0.184881
0.186111
0.18726
0.278281
0.947281
1.47664
1.78286
1.94632
2.06829
2.18578
2.27401
2.34135
2.40576
2.46791
2.52457
2.57159
2.60697
2.6287
2.64128
2.65138
2.65811
2.6599
2.6543
2.64221
2.6284
2.62077
2.62038
2.63013
2.64474
2.66791
2.70244
2.7425
2.7826
2.7826
)
;
    }
    procBoundary12to5
    {
        type            processor;
        value           nonuniform List<scalar> 
27
(
2.16906
2.16423
2.15966
2.15548
2.15181
2.1488
2.14663
2.14541
2.14515
2.14585
2.14765
2.15061
2.15462
2.15948
2.16499
2.17098
2.17734
2.184
2.19085
2.19778
2.20462
2.21119
2.21736
2.22314
2.22853
2.23365
2.23863
)
;
    }
    procBoundary12to11
    {
        type            processor;
        value           nonuniform List<scalar> 
26
(
0.179825
0.18443
0.190301
0.197613
0.205085
0.2124
0.219824
0.225603
0.231582
0.240223
0.249607
0.258354
0.265247
0.271774
0.281919
0.292336
0.302135
0.311766
0.321016
0.331999
0.342883
0.352266
0.363554
0.376829
0.387971
0.398523
)
;
    }
    procBoundary12to19
    {
        type            processor;
        value           uniform 0.411282;
    }
    procBoundary12to20
    {
        type            processor;
        value           nonuniform List<scalar> 
89
(
2.68255
2.64676
2.61289
2.58001
2.54769
2.51558
2.48358
2.45176
2.42005
2.38839
2.35683
2.32581
2.29609
2.26834
0.426262
0.426898
0.428223
0.430261
0.431708
0.432069
0.432313
0.433108
0.434672
0.436007
0.436249
0.436351
0.437007
0.438577
0.439847
0.440115
0.440213
0.440865
0.442449
0.44351
0.443536
0.443753
0.444441
0.445334
0.446461
0.447135
0.449222
0.997154
1.89302
2.09984
2.21821
2.38895
2.58315
2.72119
2.80383
2.85704
2.91098
2.97721
3.05117
3.11924
3.17155
3.20762
3.23447
3.25343
3.2623
3.26442
3.26715
3.27072
3.27208
3.27106
3.26796
3.26488
3.26507
3.27208
3.28735
3.3066
3.32171
3.32776
3.32449
3.31443
3.29692
3.27279
3.24183
3.20445
3.16159
3.11617
3.06884
3.02013
2.97032
2.92043
2.87135
2.82378
2.77821
2.68255
2.73503
)
;
    }
}


// ************************************************************************* //
