/*--------------------------------*- C++ -*----------------------------------*\
  =========                 |
  \\      /  F ield         | OpenFOAM: The Open Source CFD Toolbox
   \\    /   O peration     | Website:  https://openfoam.org
    \\  /    A nd           | Version:  7
     \\/     M anipulation  |
\*---------------------------------------------------------------------------*/
FoamFile
{
    version     2.0;
    format      ascii;
    class       surfaceScalarField;
    location    "1.312";
    object      phi;
}
// * * * * * * * * * * * * * * * * * * * * * * * * * * * * * * * * * * * * * //

dimensions      [0 3 -1 0 0 0 0];

internalField   nonuniform List<scalar> 
18389
(
-7.97439e-05
7.9744e-05
4.34588e-05
-4.34588e-05
-5.20444e-05
5.20444e-05
4.01631e-05
-4.0163e-05
-5.18124e-05
5.18124e-05
-4.00349e-05
4.00349e-05
-3.47169e-05
3.47169e-05
3.90779e-05
-3.90779e-05
-3.56964e-05
3.56964e-05
4.15484e-05
-4.15484e-05
4.50379e-05
-4.50379e-05
-3.46269e-05
3.46269e-05
-1.601e-05
1.601e-05
-4.28565e-05
4.28566e-05
4.34733e-05
-4.34733e-05
2.45548e-05
-2.45548e-05
1.94537e-05
-1.94537e-05
4.58949e-05
-4.58949e-05
4.59279e-05
-4.59279e-05
4.33505e-05
-4.33505e-05
-4.25815e-05
4.25815e-05
3.55718e-05
-3.55718e-05
4.29477e-05
-4.29477e-05
-5.84943e-05
5.84943e-05
-4.96972e-05
4.96972e-05
-4.17655e-05
4.17655e-05
-4.45454e-05
4.45454e-05
4.56278e-05
-4.56278e-05
4.58557e-05
-4.58557e-05
4.41466e-05
-4.41466e-05
-4.13479e-05
4.13479e-05
-6.30753e-05
6.30753e-05
4.31163e-05
-4.31163e-05
-4.47512e-05
4.47512e-05
4.08604e-05
-4.08604e-05
4.67024e-05
-4.67024e-05
-4.55524e-05
4.55524e-05
5.35744e-05
-5.35744e-05
-5.88858e-05
5.88858e-05
3.78702e-05
-3.78702e-05
4.48724e-05
-4.48724e-05
4.53743e-05
-4.53743e-05
-4.10087e-05
4.10087e-05
4.49004e-05
-4.49004e-05
4.58733e-05
-4.58733e-05
-4.58562e-05
4.58562e-05
-4.58583e-05
4.58583e-05
-4.06696e-05
4.06697e-05
-4.58866e-05
4.58866e-05
4.59447e-05
-4.59446e-05
4.59595e-05
-4.59595e-05
4.462e-05
-4.462e-05
3.77332e-05
-3.77332e-05
-4.57672e-05
4.57673e-05
-5.55459e-05
5.55459e-05
-4.38146e-05
4.38146e-05
4.57582e-05
-4.57582e-05
-4.5994e-05
4.5994e-05
4.32271e-05
-4.32271e-05
-5.9319e-05
5.9319e-05
-4.71478e-05
4.71478e-05
4.96054e-05
-4.96054e-05
4.57377e-05
-4.57377e-05
-1.12364e-05
1.12364e-05
4.57777e-05
-4.57777e-05
4.15723e-05
-4.15723e-05
5.1211e-05
-5.1211e-05
-4.58723e-05
4.58723e-05
4.2321e-05
-4.2321e-05
3.16464e-05
-3.16464e-05
2.48184e-06
-2.48184e-06
-4.41254e-05
4.41254e-05
3.28687e-05
-3.28686e-05
-3.65734e-05
3.65734e-05
3.97702e-05
-3.97702e-05
2.66258e-05
-2.66258e-05
2.61994e-05
-2.61994e-05
2.70487e-05
-2.70487e-05
2.43927e-05
-2.43927e-05
1.34833e-05
-1.34833e-05
0.00107414
-0.000882104
-0.00019203
0.00546705
-0.00207586
-0.00339118
-0.0059463
0.00594627
2.88749e-08
0.00335435
-0.00259828
-0.000756066
-0.00154509
0.00176186
-0.000216774
-0.00676385
0.00284199
0.00392187
0.0012151
0.00425196
0.00725577
-0.00587634
-0.00137943
0.00117035
-0.00191791
0.000747561
-0.000870175
-0.000674913
-0.00144233
-0.00031461
0.00175694
0.000159983
6.83104e-07
-0.000160666
0.000778425
-0.00222076
-0.00360327
0.000123069
0.00348019
-0.00320233
0.0028914
0.000310934
-0.005725
0.00727457
-0.00154957
-0.00370933
0.00289688
0.000812442
-0.000564294
-0.00303898
-0.00174731
0.00238824
-0.00064092
-0.000465246
0.00255844
-0.00209319
-0.00160776
0.00110837
0.000499385
0.000583527
0.000581832
-0.00159946
-0.00516439
0.00124984
-0.00180144
0.0005516
0.00578032
-0.00386126
-0.00191905
-0.00065662
0.00330998
-0.00265336
-0.00583511
0.00583505
0.000486771
0.00127509
-0.0063335
0.000975201
0.00535831
0.00232876
-0.00298538
-0.00378996
0.00311352
0.000676438
0.00214823
-0.00422409
0.00108981
-0.000204232
-0.000885581
0.00150365
-0.0012895
-0.000214156
-0.00280117
-0.000401156
0.00535015
-0.00535245
0.00036848
0.00113517
0.00522931
-0.00133777
-0.00389155
0.00200442
-0.000834068
0.00308566
0.0019087
-0.00499436
-0.000722081
-0.00306788
-8.91275e-05
-0.000154865
0.000243993
0.00393517
0.00332059
0.00117191
-0.00489878
0.00372686
0.00162746
0.00360185
-0.00498126
0.00632133
-0.00134008
-0.00113228
-0.000595398
0.00172768
0.00133828
0.00201606
0.000135294
0.000103626
-0.00023892
0.00502356
-0.0033961
0.00645831
-0.000839983
-0.00561833
0.00322003
-0.00265588
-0.000564153
0.00222679
0.000445872
-0.00267267
0.00295372
-0.000726928
0.00650379
-0.00539842
-0.00110535
0.000509391
-0.00387521
0.00336582
7.05862e-05
0.00638773
0.00481362
-0.00430422
-0.000535793
0.00105937
-0.000523574
-0.00175748
0.000625194
0.00191713
0.00224904
-0.00416617
0.000253467
-0.000333687
8.02204e-05
-0.00127102
-0.00284528
0.0041163
-2.61379e-05
0.00652993
-0.0028183
0.00229085
0.000527452
0.000388105
-1.24429e-05
-0.000375662
-0.00569227
-0.000254038
0.0018763
-0.00138952
0.000827107
0.00495321
0.000893343
0.000180796
0.00266361
-0.0064809
0.00381729
-0.0011202
0.00058441
0.00263808
-0.00390911
0.00619655
-0.00226137
0.0010921
0.00117729
-0.000770563
0.00101199
-0.000241427
-0.00110985
-0.000497901
0.00189696
0.00132307
-0.000595805
0.00142983
-0.00123775
-0.000192079
-0.00265473
0.00198553
0.000669203
0.00116712
0.000262708
0.00114269
-0.00498451
0.00384182
-0.00476289
0.00142319
0.00333969
-0.00455429
0.00611797
-0.00156368
-0.0050627
8.14454e-05
-0.00201744
-0.000637281
-0.000214545
0.000125418
-0.00123118
0.00465496
-0.00342378
-0.00123019
-0.000687723
0.000103315
-0.000192024
8.8709e-05
0.000126294
-2.29795e-05
-0.00126366
0.00464432
-0.00338066
-0.000156008
2.43899e-05
0.000131619
-0.0055688
0.00170755
-0.00118902
-0.000568458
-0.000449487
-1.89485e-05
0.000468434
-0.000543353
9.38659e-05
0.0010132
7.66073e-05
-0.00180832
0.000619304
-0.000150248
1.71855e-05
0.000133062
0.00136799
-0.00234448
0.000976488
0.000271106
-0.000135811
-0.00392589
0.005141
-0.00245663
0.000709329
-9.34113e-05
-0.00042877
0.000522182
0.00568665
-0.00217
-0.00351665
7.62542e-05
0.00250797
-0.00258422
0.00446825
-0.00561861
0.00115038
0.00263385
0.0030528
0.00291321
-0.00283695
-0.00615278
0.00042778
-0.006469
0.00363413
0.00283487
0.00229326
0.00390329
-0.00439265
0.00138513
0.00300751
0.00149282
-0.000242975
-0.00102783
0.00402216
-0.00299432
0.00463947
-0.00162706
-0.00301242
-0.00461077
0.00374714
0.00086364
0.0036933
-0.00503107
5.89927e-05
0.000329112
-0.0013861
0.00585435
-9.33473e-05
0.00214926
-0.0020559
-0.00206389
0.00260452
0.000178595
-0.00278311
-0.00127742
0.00264541
-0.000653494
0.00325801
0.00164047
-0.00173381
0.000914518
0.00397286
-0.00488739
-0.00504234
0.00384414
0.0011982
0.00255187
-0.00359409
0.00104222
-0.00334046
0.00412008
-0.000779611
0.000334478
-0.00367494
-0.000885981
0.000885981
-0.000447171
0.00035376
-0.00012698
-0.00097347
0.00110045
0.00507035
-0.00184324
-0.00322711
-0.00243324
-0.000367937
0.00290035
0.000157759
1.65224e-05
-0.000174281
-0.00146833
0.00112257
0.000345762
-0.000141027
-0.00490131
0.00506357
-0.00389166
0.000259073
-9.90905e-05
0.0044442
0.000579359
0.00406758
-0.0015157
0.000164832
-7.0735e-06
-0.00634666
-0.000982342
-0.000825981
0.00430063
-0.00190512
-0.00239551
0.00275614
0.00154449
0.0010777
-0.00563198
-0.00225503
-0.000563268
-0.00111934
-0.000958664
0.002078
3.83764e-05
-0.00272171
0.00268333
-0.00235781
0.00123847
-0.00221813
0.0053038
-0.00462438
0.00160728
0.0030171
0.00254634
0.000665834
-0.000332981
-0.000332853
-0.00601424
0.000583054
0.00543119
-0.00418566
0.0058287
-0.00164305
0.00182576
0.00162903
-0.00345479
-0.0016711
0.000899873
0.000771228
-0.00271504
0.00207906
0.00063598
0.00109755
0.00077874
0.000247199
-0.000328938
8.17407e-05
0.00491212
-0.00399761
-0.00638646
0.00557387
0.000812591
-0.00479202
-0.00167698
0.00334125
0.000651238
-0.00399249
0.000153934
-0.000162135
8.20015e-06
0.00059052
-0.000125321
-0.000465199
-0.00451868
0.00261356
0.000360572
-0.00055935
0.000198778
5.58781e-05
-0.000941862
-0.00257571
0.00448442
-0.00530548
-0.00032376
0.00562925
0.00020042
0.000184687
-0.000385107
0.000641724
-0.000641724
0.00168401
-0.000729514
-0.00211002
0.00181037
0.000299645
0.00440529
-0.00302016
-0.000162246
6.23822e-06
-0.00120188
0.00125776
0.00072343
0.00128099
0.0023491
-0.000270038
-0.00402037
-0.00128511
0.00111422
-0.00498945
0.00321356
-0.00447722
0.00083611
-0.00213515
0.00129904
0.00335866
-0.00458985
-0.0027118
-0.00180688
-0.00483661
0.00469558
-0.000675832
-0.0053384
-0.00516037
0.00150731
-0.0014622
-4.51123e-05
0.00222914
0.000119964
-0.00601367
0.00204822
0.00396546
-0.00121933
0.000525995
0.000693336
0.00145845
0.00294684
-0.00462579
-0.00101798
0.00564378
-0.000212795
0.000138486
7.43081e-05
-0.00551957
0.00133392
0.00375305
-0.0049369
0.00118386
-0.00149176
-0.000618257
-0.000536677
-0.000637501
0.000138368
-0.000203834
6.54647e-05
0.00500653
-0.00386386
-0.00130112
0.00512604
-0.00382493
-0.0004068
-0.000795083
-0.00586124
0.000439792
0.00539525
-0.00616791
0.00456844
-0.000921435
-0.00546503
-0.001092
-0.000376328
-0.00181624
0.0028571
-0.00104087
-0.000419205
0.000322094
9.71123e-05
-0.00173202
0.00141742
0.001605
-9.76885e-05
0.000828029
-3.67465e-05
-0.00169528
0.00279623
0.00121826
-0.00303449
0.00605266
-0.000478786
0.00527901
7.11283e-05
-0.00528186
0.0043914
0.00114505
-0.00553645
0.000556439
-0.000768845
0.000212406
-4.01978e-05
-0.000406973
-1.43355e-05
0.00606699
-0.000162217
0.000156863
5.35433e-06
0.000133314
2.06198e-05
0.0025352
-0.00335913
0.000823927
-0.00192561
0.000737081
0.00118853
0.00792692
-0.00345808
-0.00446883
0.00117141
0.00126317
-0.00243459
0.000105469
-0.000176255
7.07861e-05
-0.00080587
0.00133186
0.00116552
0.00318088
-0.0043464
-0.005614
0.000166713
0.00544728
-0.00402145
0.00299362
0.00173537
0.00479455
0.00459143
0.00333548
-2.24057e-05
0.00018956
-0.000167154
-0.00131388
0.00440071
-0.00308682
0.000301569
-0.000341767
-0.000131306
-8.14887e-05
0.0041013
-0.00227555
0.00476812
-0.00502189
0.00025378
-0.00323207
0.00608026
-0.00284819
0.00252669
0.00157461
0.0057753
-0.00100718
-0.00138775
-0.00562077
0.00137273
0.00424804
0.000654635
0.000520692
-0.00117533
0.00126957
-0.000614937
0.000585365
-0.00111024
0.000524878
0.00110606
0.000275259
0.000390576
-0.000678281
0.00443133
0.00151638
-0.000393809
0.0035509
-0.0061435
0.00259261
0.00153262
-0.00258412
0.00105151
-0.00432576
0.00117048
0.00315528
0.00291114
-0.00422502
-0.00491019
-0.00125772
-0.00410152
0.00127092
0.0028306
0.00125248
0.00314823
-0.00326444
-0.000837093
0.00222596
-0.00105456
-0.000684949
-0.00252817
0.00321312
0.0024041
0.000622487
-0.00302658
-0.00158758
0.00119868
0.000388898
0.000269989
0.00148296
-0.00196334
0.000480391
-0.000110915
-0.000222773
-0.000264339
0.000153423
-0.00435552
-0.000255248
-0.000291941
0.00117031
-0.000878372
0.00435148
-0.0046459
0.000294424
-8.84227e-05
0.00011777
-2.93467e-05
0.000975577
0.00338176
-0.00435733
-0.000157002
6.85795e-05
-0.00475254
0.000711165
0.00404138
-0.000705858
0.000120108
0.000585749
6.46714e-05
-6.39882e-05
-0.000401048
0.000864669
-0.000347474
-0.000517197
-0.0060357
0.000637271
-0.00254968
-0.000128172
0.00267785
-0.00316892
0.0044214
0.00218082
-0.00108872
-0.00116719
-0.00117184
-5.83439e-05
-0.00351936
-0.00124352
0.00150511
-0.000401912
-0.0011032
0.00191868
0.00183891
-0.00375759
0.00505148
-0.00162088
-0.0034306
0.000794545
-0.00542033
-0.00137406
0.00300309
0.00196479
0.000777803
-0.00274259
-0.00349703
0.00447261
-0.000152941
2.69346e-06
0.00093915
-0.00443618
-0.0044975
-0.000148419
-0.000997584
-0.00461641
0.00463675
0.00149581
0.00355566
0.00416187
0.00114192
-0.00530379
3.59358e-05
5.92129e-05
-9.51488e-05
-0.00140354
0.00336833
0.00371875
0.00355582
-0.00139723
0.00236897
-0.000971733
-0.00248176
0.000464317
-0.000878415
0.000751434
-0.00020952
0.00040994
-0.000216383
0.00169934
0.0037634
-0.00184472
-0.00106813
-0.000602971
-0.000107145
-0.000157193
0.00355042
-0.00163328
-0.00240372
0.00465277
0.00067452
-0.00309588
0.00242136
0.000634934
0.000762828
-0.00105477
0.00209928
-0.00131765
-0.00327459
0.00459223
-0.00214094
0.00480455
-0.000553901
0.0034453
0.000238033
-0.000220847
-0.00236211
0.000964889
0.00232985
-0.00386946
0.00153962
-0.00120218
5.70794e-05
-2.11436e-05
0.00214598
-0.00279669
0.000650716
-0.00116658
-0.000420997
-0.00352856
0.00450376
0.00119807
0.00167279
-0.00287085
-0.0016887
0.00366535
-0.00197665
0.00424274
-0.00086099
0.000234411
1.41151e-05
-0.000248526
-0.00372283
0.00203413
-0.0014349
0.0047238
-0.0032889
0.000878043
0.00130278
0.000171979
0.000469745
0.000253012
-0.000300712
4.76997e-05
0.00169913
0.000211839
-0.00191097
0.00301864
-0.00459492
0.00157628
-5.27951e-05
0.000374231
-0.000321436
0.00156075
-0.000362076
0.00139395
-0.000605312
-0.000788635
0.00282201
-0.0039279
0.00110589
0.0026787
-0.00374363
0.00106493
-0.00517241
0.00194035
0.00390853
-0.000889883
-0.000639247
-0.00237237
0.00301162
0.00140803
-0.00511871
0.00371067
0.00336053
-0.00145893
-0.00190161
-0.000678637
0.00172251
-0.00104387
0.00477142
-0.00303605
-0.000691087
-0.00196479
-0.00598231
0.00514233
3.87189e-06
0.00012169
-0.000125562
-0.00157728
0.00119824
0.000379042
-0.00490795
0.00631003
-0.00140209
-0.00188222
0.000726793
0.00115543
0.000406525
0.00268638
-0.0020872
-0.000599178
0.00343569
0.000489037
-0.00392474
0.000125528
-2.00582e-05
0.00517245
0.000335734
-0.00550818
-0.0019406
0.00379764
-0.00185704
0.0027711
-0.00064574
-0.00212537
0.000462558
0.000402112
-0.000436737
0.00387243
0.00202619
-0.00396679
0.000700117
-0.000265349
-0.000434767
-0.000634676
-4.92137e-06
0.000639599
-0.00315219
-0.00576542
0.00576495
-0.000274492
0.000949467
-0.000674976
-0.00228646
-0.000195305
-0.00455739
0.00323973
-0.000877253
0.0011356
0.0036079
-0.00501911
0.00141121
0.000410662
-0.00296034
0.00232929
-0.00244102
0.000111723
-0.00157142
0.00148228
8.91414e-05
-0.00120802
-0.000369256
-0.00339187
0.00342985
-0.00223178
0.000457257
0.000133263
-0.00173238
0.00105374
-0.00279755
0.000751919
0.00204563
0.000242431
-8.02047e-06
-0.00347796
0.00102441
0.00245355
-0.00144457
0.00560644
0.000339151
-0.000952867
0.000613717
0.00211636
0.000654743
-0.00127775
0.000304278
0.0011105
0.0012188
-0.0014343
0.00496434
-0.00353005
-0.00485146
0.00577167
-0.000920214
-0.00117596
0.00228333
0.0041044
0.00107167
3.6693e-05
0.00586762
-0.00552935
-0.000338266
0.00356345
-0.0046645
0.00110105
0.00309363
-0.000689528
0.00542669
-0.00181879
-0.00250255
-0.000975407
-0.00217037
-0.000324886
0.00249527
0.00241259
-0.00196672
-0.00160817
-0.00424266
0.00274631
0.00149635
-0.000326078
0.00122595
0.0012147
0.00366455
-0.00487925
-0.000303661
0.000664232
0.00305956
-0.00238504
-0.00472434
-0.00125797
0.00647033
-0.00129788
0.00424536
0.00206049
0.00049795
0.00285511
-0.00212519
-0.000729923
0.00473715
-0.00245383
-7.20561e-05
-0.00332499
-0.000870911
0.00419591
0.00038789
-8.65342e-05
-0.000301356
-0.00514767
0.0061105
-0.000962821
-0.000738616
0.00190325
-0.00116463
-0.000697172
0.00525291
-0.00455574
0.00117122
-0.00190984
-0.000113603
-0.00576273
-0.000770563
0.00203473
0.00383289
-0.000243014
-0.00192736
0.000251401
-4.20186e-06
0.000362619
-0.00048794
0.00336279
-0.000827584
-0.00522701
-0.000271645
-0.000147561
0.00015019
-0.000133574
-1.66162e-05
-0.00248356
0.000125742
-0.000423068
0.00159033
-0.0010118
-0.000578529
0.00247359
0.000591081
-0.00306468
-0.000711862
0.00318545
-0.00520294
-0.000271507
0.00547444
0.003751
0.00137505
0.00441415
-0.00123327
-0.000136141
0.00254873
0.00540386
-0.000206648
-0.00519722
-0.00608658
0.00425162
0.00183496
0.00321003
-0.00126781
-0.00435296
0.000201925
-0.00022433
0.00058043
0.000813515
0.00107447
0.000110896
-0.00118536
0.00421229
0.00119158
-0.000959079
0.00317197
-0.00221289
0.00474029
-0.00139904
-0.00217842
0.00279271
-0.000614282
-0.0011774
-0.000126801
0.000312601
-0.0001858
0.00344599
-0.00414317
0.00134511
-0.000986476
-0.000358633
0.00159479
-0.000396553
-0.0032512
0.00229212
0.0054891
-0.00434405
-3.06319e-05
0.000352726
-0.00535965
0.000451693
0.00545401
-0.00190311
-0.00100425
-0.00361334
0.00461759
-0.000647027
0.00288284
-0.00223581
0.00549725
-0.00286245
-0.00263481
-8.83977e-05
0.000593197
-0.000677255
0.000660589
1.6665e-05
-0.000688261
0.00172945
-0.00104119
-0.00314879
-0.00117697
0.000155572
-1.72033e-05
-0.00122446
-0.00478921
-0.00307737
0.00239242
-0.00044191
-0.000199813
-7.26332e-05
-8.95835e-05
-0.00120273
-0.000805728
-0.00522997
-0.00283836
0.00219134
-0.000817542
0.00118602
0.00112973
0.00438682
-0.00551654
0.00340498
-0.00275374
0.00046875
0.000773942
-0.00288471
0.00211077
0.0049932
-0.00494705
-4.61489e-05
-0.00320958
0.00361559
-0.000406005
0.000207797
-9.56093e-05
-0.000112188
-0.00498879
-0.00149212
-0.00175614
0.00369053
-0.00193439
0.00298205
-0.00220811
-0.00378418
0.00202804
0.00139498
-0.00258174
0.00118675
-0.0036327
0.00568091
0.00649849
-0.00219573
-0.00430276
-0.0024006
0.00237289
2.77245e-05
0.00562215
-0.00164929
0.00118606
-0.000924338
-0.000261728
-9.11337e-06
0.000262126
0.000249502
-0.000773232
0.00052373
-0.00304546
0.00365153
-0.000972823
0.000844605
-0.00104884
0.00236234
-0.00063195
-0.00173039
0.00220687
-0.000507744
0.00452914
0.000629647
0.0017327
-0.00175381
0.00106555
0.000408595
-0.000464692
5.60964e-05
0.00221096
-0.00174493
-0.000466028
0.000834613
-0.00514775
-0.000544514
0.000369491
-0.000588342
0.000218851
-0.00410058
0.00547332
0.000942162
-0.00111663
0.000174469
-0.00151921
0.00216574
-0.000646533
-0.00149252
-0.00275014
-0.00538294
-0.000156546
0.00553949
0.000300485
0.000108307
4.18838e-05
0.000128238
-0.000128113
-1.24736e-07
0.00412333
-0.00290863
-0.00380872
-0.00233478
0.00346553
0.00303296
-0.00259655
0.000736119
0.00186043
-0.000844701
0.00223968
-0.00229623
-0.00010438
0.00272892
-0.00377761
0.00104868
0.0013052
-0.000134887
0.000462345
0.000550861
-0.00327851
0.000965986
0.00231252
0.000917743
-0.000599876
-3.48016e-05
-0.00428019
0.00172715
9.59634e-05
-0.00182311
-0.00396613
0.00146621
0.00249991
0.000522195
0.00146228
-0.000881851
-0.000246471
-0.00466026
0.00490673
0.000784814
-0.00247685
0.00169204
0.0012022
0.00131232
-0.00047648
-0.00171025
0.00218673
0.00258018
-0.00179537
0.00447238
-0.00353323
-0.000784665
-0.00264059
-0.000227554
0.000251944
-0.000701796
0.00176306
-0.00106126
0.00265915
-0.00366809
0.00100894
0.000136465
2.03981e-05
-0.00236308
-0.000915438
0.00142157
-0.00163643
0.000214856
-0.00277446
0.00068726
0.00127655
-0.00141877
0.000142214
0.00161891
-0.0018079
0.000188993
0.000676689
-0.00372984
-0.00116894
0.00135548
-0.00490589
0.00355041
-0.000915301
0.00357444
0.000116032
-7.71158e-05
-3.89163e-05
0.00476248
-0.00363274
-0.00033632
-0.00153351
-0.00401787
-0.0015017
0.0020912
0.000701505
-0.00101676
-0.00092402
-0.00452422
-0.00162856
-0.000374663
0.00124272
-0.000931323
-0.000311398
-0.001495
-0.00108913
0.000658814
0.00225602
-0.00291483
-0.000114282
0.00067072
-0.000716036
3.87814e-05
-0.00245488
0.00196645
0.00139408
-0.000726065
0.00165468
-0.000928615
-8.68721e-05
-0.000116961
0.000318384
-0.00194541
0.00045365
0.00160131
-0.00231135
0.000710039
-0.00334573
0.00257846
0.000767262
0.0011928
0.0024193
-0.0036121
-0.00175231
0.00105051
-0.00294087
-0.00102525
-0.000798117
-0.00254761
-0.00167639
0.00125196
0.000424427
0.00176291
-3.57612e-05
-0.000764486
-0.00243243
0.00319691
-0.000681186
0.00291465
-0.00225583
-0.000858512
-0.00394762
0.00480614
-0.00234392
0.00233861
5.31437e-06
-0.000705858
-0.00155903
0.000547235
-0.00240494
0.00381975
-0.00141481
0.0032328
0.00288517
0.000194396
3.6221e-05
-0.000230618
0.00234025
-0.000603113
-0.00173713
0.000188171
-0.000184299
-0.0035916
0.00494708
-0.00329048
0.00524807
-0.00195759
-0.00350983
-0.00150927
-0.000913194
0.00323167
-0.00231848
0.00285531
0.00177611
-0.00418107
-0.00499824
-0.000149423
-0.000797017
0.00284976
-0.00205273
-0.000431679
0.000378884
-0.000528106
0.00167455
-0.00114644
-0.00403816
0.0033411
0.00069706
-0.0032697
0.0023565
-0.00387005
0.00067601
0.00319403
0.0014089
-0.00101203
-0.000396871
-0.00589956
0.000696622
0.00184657
-0.00141053
-0.000436041
0.00140607
-0.000393211
-0.00101286
7.83763e-05
0.000129421
0.00293291
-0.000642058
-0.000222898
-0.00348778
-0.000382266
0.000428215
-0.00305346
-0.000984702
-0.00233527
-8.64279e-06
-0.00292646
0.00228721
0.000721138
0.00260156
-0.0033227
0.000584347
-0.00085884
0.00140865
-0.00671786
0.00530921
-0.00578754
0.000995513
-0.00234704
0.00353984
0.000690644
0.000258824
-0.00273254
0.00345367
-9.93758e-05
0.00509257
0.00062438
0.00170107
-0.00232545
-0.00177497
0.00124686
0.00274657
-0.00369636
0.000949787
0.00510133
0.000666155
0.0015448
0.000313975
0.000386141
-0.000364083
-0.000404762
0.000180955
-0.00174517
0.00176685
-0.000888808
0.000850385
0.000611892
-0.000586394
0.00301095
-0.00242455
-0.00149721
0.00184149
-0.000344279
-0.0048966
0.00380299
0.00109361
-0.00480178
0.0015113
-3.96832e-05
3.9209e-05
4.74193e-07
-0.00280981
-0.000858277
0.00107455
-0.00129039
0.000215837
0.00136166
-0.00495327
0.00101916
5.53088e-05
0.00124521
0.000695475
0.00218736
-0.00366772
0.00085792
0.000189864
-0.00504132
0.00189802
0.00120583
0.000697415
-0.00527319
-0.000492232
0.00565135
0.00118376
0.00710723
-0.00218444
-0.00492279
0.000781981
-0.000378338
-0.000403643
0.000721254
-0.00138065
0.000777672
-0.00386092
-0.00125779
0.000312601
-0.00092955
-0.000418589
0.00134814
0.00232826
0.00400856
-0.00486707
0.00270233
0.000835075
-0.00353741
0.00124952
-0.000963609
-0.000285909
0.0007455
0.00159474
-0.000135031
0.000138262
-3.23118e-06
-0.000710237
0.00288341
-0.00217317
0.00362232
0.00110148
-0.00126133
-0.000415062
0.00142315
-0.00154119
0.000118032
4.74437e-05
6.85885e-05
-0.00447655
0.000966714
-0.00165239
0.000444364
-0.00364612
0.00293425
-0.000950796
6.86916e-05
0.000936272
0.002679
-0.00361527
0.000847211
-0.00126156
0.00419363
-0.00293207
0.000318192
0.000279936
4.6584e-05
-0.00032652
7.83437e-05
-0.00539166
0.00531332
-0.00263071
-0.000784721
0.00341544
-0.00349582
0.00260521
0.000890609
-0.00276706
-0.000262222
-0.00171359
-0.00491179
0.000893914
-0.001453
-0.000882276
-0.00106355
0.00379248
0.00170734
-0.00372637
0.00201903
0.000105518
2.27197e-05
0.00372628
-0.00201893
0.00286221
0.000964456
-0.00382665
-0.00130077
0.00174064
-0.000439871
0.00357479
0.00110397
-0.00467876
0.00718451
-0.00197475
-0.00520975
-0.00212669
-0.000711674
-0.00172502
0.00234939
0.00377206
-0.00492871
0.00115664
-0.0028015
0.00373777
0.00113423
-8.47765e-06
-0.00112575
0.00148225
0.000905974
-0.00551002
0.000599823
0.000432269
0.00034971
0.00292155
-0.00112454
-0.00252187
0.00247907
4.2807e-05
0.00050489
-0.0018404
0.00133551
-0.00387188
-0.00119082
0.00109101
-0.00254401
-0.00529911
0.000151361
-0.00124562
-0.000528394
0.00177402
0.00563672
-0.00449481
0.000104423
0.000283468
-0.00301378
0.00319238
0.00143949
-0.00107126
-0.000368231
0.00346813
0.00476081
-0.000957824
0.00064925
-0.00327995
0.00106212
-0.000942015
-5.28871e-05
0.000461482
0.000393973
-1.97415e-05
-0.00206979
-0.000454972
0.00152952
-0.000917368
-0.00349757
0.000765043
-2.86366e-05
-1.10467e-05
0.00599848
-0.00492077
0.00522172
-0.00439461
9.27342e-06
-0.000585749
0.000576475
0.00194883
-0.000458693
-0.00149014
0.00335898
-0.000757418
-0.00256771
0.0033611
-0.000793386
-0.00183246
0.000531694
0.0012784
-0.000951609
-0.000326796
-0.000118766
-0.000210172
0.00205896
-0.000548396
-0.00151056
-0.00138029
-0.0023937
-0.000128162
0.00208907
-0.0027457
0.000656624
0.00280641
-0.000751012
-0.00205541
0.00410337
-0.00434984
0.000314798
0.00224245
-0.000641132
-0.000683269
0.000833849
-0.00367966
0.00504131
0.00125106
0.00047002
-0.00171565
-0.00286831
0.00209618
0.00363345
0.00158827
-0.0011311
-0.00383517
-0.00114934
0.00130285
-0.00171744
0.000414592
0.00367522
-0.00318619
-0.000193828
0.00113599
-3.87046e-05
-0.000270689
0.000309394
-0.000703196
-0.00189336
0.00377141
-0.00491078
0.00113938
-0.00185851
0.0023525
-0.000493988
-0.0011573
0.0021318
0.000751601
-0.0022628
0.00375611
-0.00149331
0.001505
-0.00114051
-0.000364499
-0.000994888
0.000289033
0.000191264
-0.000435662
0.000244398
-0.000426164
-0.00122623
-0.00248073
0.00250401
-2.32832e-05
0.00144881
-0.00371162
0.00162326
-0.00037129
0.000365642
-0.00042125
5.56082e-05
-0.000825941
0.000592875
0.000233066
-0.000795241
-0.00285242
0.000838011
0.00201441
-0.00199569
-0.000840372
-0.000712692
0.00155306
-0.0052448
0.00389531
0.00134949
-0.00120349
0.00121276
-0.000576391
-0.000115919
0.00069231
0.0028684
-0.000736604
-0.000770358
-0.000160196
0.000930554
0.00183914
-0.00136912
0.00169728
-0.000394424
-0.000141365
-0.000633735
-0.00420692
0.00484066
-0.00138452
0.0028308
0.00427643
-0.0023985
-8.22259e-05
0.00311838
-0.00473926
0.000733616
0.00158101
-0.00231463
0.00200529
-0.0028023
0.00199686
-0.000742667
-0.00125419
-0.00179586
0.000456045
0.00133982
0.00432041
0.0028641
-0.00552209
0.00133875
0.00418334
-0.00125486
-0.00398994
-0.000460269
-0.0013356
-0.000997439
-0.000561592
-0.00129176
-0.000425684
0.00114748
-0.000536079
0.00150694
-0.000970863
-0.0017571
0.00129683
-0.000944491
-0.000207202
0.00115169
0.00217048
-0.00286736
0.000696886
-1.17684e-05
0.000206164
0.00103257
0.00606753
-0.00140607
-0.00466146
-0.00203512
-0.00187276
0.00133106
0.000541695
0.00127096
-0.000978226
-0.000292735
-0.00229015
-0.00102997
0.00332012
-0.00266814
0.00358538
-0.000917242
-0.000921157
0.00111388
1.04701e-05
-0.00112435
0.00376045
-0.00493848
0.00117802
0.00174752
-0.00135517
-0.000392343
0.00242707
-0.00122486
0.00274141
-0.000634518
-0.000191424
-0.00409181
0.00228986
-0.00180265
-0.000487212
0.000561048
-0.00200897
0.00144792
-0.00251275
-0.000846386
0.000858834
-0.000657503
-0.000201332
-0.000180357
-0.00364468
0.000976536
0.000676921
-0.000485656
0.0025895
0.000995879
0.000319353
0.00129614
0.000700718
-0.00160294
0.00233656
-0.00150044
0.000985733
0.000514701
0.00355499
-0.000692776
-0.00380936
0.00610262
-0.00115033
-0.00249084
0.00683423
-0.00434339
-0.000890589
0.00356959
-0.0041418
0.000932232
-0.00210181
0.00425004
-0.000700045
-0.00161131
-0.00245066
0.00170505
0.000745615
-0.00128007
0.000368544
-0.000436636
6.80935e-05
-0.00137411
-0.000776895
-0.000153491
0.000930387
-0.00156428
0.00135845
0.000205834
0.00203145
0.0008183
6.24029e-05
-0.00130015
-0.000555649
-0.000824994
-0.0024227
-0.000483796
-0.00138896
-0.000171031
0.0015926
-0.000180734
0.00341171
-0.000514832
0.00133896
0.000199329
-0.000834331
-0.000967111
-0.00192977
0.00247704
-0.000547277
-0.00104208
-0.0057289
0.00351077
0.00146991
-0.000619527
0.00288644
-0.00121366
0.000967521
-0.00135895
-0.00453018
0.00588913
0.00062079
-0.00255056
0.000741717
-0.00369104
0.00269651
0.000994527
0.000885982
-0.00142206
0.0022234
-0.00311898
0.000895574
0.00119684
-0.00343022
0.00223338
0.000861422
0.00168748
-0.00254891
-0.000174335
0.00179324
0.00274032
0.00107884
0.00361966
-0.000413522
0.000783012
0.00315727
-0.00402818
0.000986735
-0.00327688
0.000435949
0.00412559
0.0014657
-1.06531e-05
-0.000275534
0.000286186
-0.00619327
0.00385614
0.00233714
-0.000832464
-0.00261331
0.00344578
0.00263982
-0.00177839
-0.00369732
0.000895812
-0.00132123
-0.000435875
-0.000152683
0.00131981
0.00372842
0.00123591
0.000224317
0.00130855
-0.000991514
-0.000317033
0.000877479
0.000592434
-0.000314088
0.00376752
-0.00493635
0.00116884
0.00307883
-0.000855435
-0.00139823
0.00190311
0.00125677
-0.00355444
0.00229767
-0.00117097
0.00145564
0.000678669
-0.00213431
0.000192127
-0.000202781
0.00219848
-0.000860196
-0.00124717
0.000330321
0.000926033
-0.000348046
-0.000577987
0.0035326
-0.00227583
-0.00051707
0.00229889
-0.00178182
0.00101849
-0.00297285
0.00207861
0.000894251
0.000106463
-9.4489e-07
0.00467767
0.000541329
-0.00570573
-0.00519818
0.00392718
0.001271
-0.00107979
-0.00269389
0.00377367
0.00222128
0.00372499
0.00282641
-0.00375452
0.00092811
-0.00146888
0.00109962
-0.000965303
0.00337943
-0.00241413
0.00149639
0.000562567
-0.00378526
-0.00240801
0.00108378
-0.00230119
0.0032168
-0.00091562
0.00343867
-0.000833457
0.000397029
-0.000820981
0.00253992
0.000898757
-0.000635693
0.00431091
-0.00130792
0.00171556
-0.000407638
0.00200338
-0.0012663
-0.000390033
0.00607682
-0.00491951
-0.000463426
0.00085887
-0.00246182
-0.00539159
-0.00172228
0.000414359
-0.000678152
0.000101761
-0.0008709
0.00021228
-0.00146781
0.000678441
0.001564
-0.00090543
0.000135072
0.000805663
0.00251569
-0.00332137
-0.00109516
0.00187359
-0.00194662
-0.000474614
0.00196117
-0.00148656
-0.000893481
-0.00207937
-0.00195172
0.00147711
-0.00265718
0.00346284
-0.00163761
0.000587631
0.00104997
-0.000984683
0.00357418
0.00602984
-0.00231109
-0.00130214
-0.000420145
-0.00173825
0.00109674
0.000641504
0.000906555
-0.00452111
0.00361456
-0.00130985
0.000545377
0.000764465
-0.00403448
-0.0011637
0.000191714
-0.0011362
0.00193419
-0.000728353
-0.00135263
-0.00380518
0.00515781
0.00100025
7.14264e-05
0.00329729
-0.00252759
-0.000769693
0.000127886
0.00127818
0.000876058
-0.000669018
-0.00020704
-0.00134376
-0.00101835
-0.00108982
0.00513353
-0.0040437
0.000638344
-0.00249686
0.000149069
0.00127408
0.00377248
-0.00496379
0.00119132
0.0028824
-0.00204439
0.000101875
-0.000168289
6.64146e-05
0.00102912
0.000138133
0.000104297
0.00235795
0.00370959
-0.000585337
-0.000803034
0.00138837
0.000653745
0.00177069
-0.00242443
0.00240268
-0.00169806
-0.000704619
0.000476036
0.00147279
0.000426291
-0.000511588
-0.000798255
0.000601194
-0.00532554
0.000690478
-2.98888e-05
-0.00116387
-0.00132229
-0.00379441
0.00511669
0.00103237
0.00143669
-0.00189538
0.00254636
-0.000394792
-0.00490872
0.00530351
0.000120598
-1.87239e-05
0.000663704
0.00127048
0.00272701
0.000947895
-0.0036749
0.00137479
0.000471785
0.00258703
-0.00364118
0.00454774
0.00277359
0.000844115
-0.00361771
0.00161772
-0.000823389
-0.000794326
0.00132738
-0.00101819
-0.000309194
0.0004238
0.00106048
-0.00470167
0.000218554
-6.73286e-06
0.00019886
0.00606693
-0.00130445
0.00152555
-0.00212866
0.00252931
-0.00181923
-0.000710085
0.000869491
-0.00254391
0.00167442
0.00523434
-0.00281497
-0.000928655
-0.00158117
0.00501031
0.00148635
-0.00178137
0.000295016
0.000499474
-0.000103579
-0.000395894
-0.000999083
-0.00313913
0.00413822
0.000743283
0.00181854
-0.00256182
0.00176752
-0.000281173
0.00224646
0.00140352
-0.000858146