/*--------------------------------*- C++ -*----------------------------------*\
  =========                 |
  \\      /  F ield         | OpenFOAM: The Open Source CFD Toolbox
   \\    /   O peration     | Website:  https://openfoam.org
    \\  /    A nd           | Version:  7
     \\/     M anipulation  |
\*---------------------------------------------------------------------------*/
FoamFile
{
    version     2.0;
    format      ascii;
    class       surfaceScalarField;
    location    "0.058";
    object      phi;
}
// * * * * * * * * * * * * * * * * * * * * * * * * * * * * * * * * * * * * * //

dimensions      [0 3 -1 0 0 0 0];

internalField   nonuniform List<scalar> 
79600
(
1.13163e-12
-1.12651e-12
1.19329e-11
-1.07999e-11
3.01326e-11
-1.82e-11
5.21692e-11
-2.20371e-11
7.52392e-11
-2.30686e-11
9.72385e-11
-2.19992e-11
1.16618e-10
-1.93801e-11
1.32251e-10
-1.56321e-11
1.43319e-10
-1.10684e-11
1.49238e-10
-5.91865e-12
1.49595e-10
-3.5578e-13
1.44105e-10
5.49162e-12
1.32583e-10
1.15221e-11
1.14924e-10
1.76584e-11
9.10825e-11
2.38396e-11
6.1065e-11
3.00169e-11
2.49148e-11
3.61508e-11
-1.72924e-11
4.22085e-11
-6.54569e-11
4.81644e-11
-1.19455e-10
5.39985e-11
-1.79149e-10
5.96931e-11
-2.44383e-10
6.52346e-11
-3.14995e-10
7.06115e-11
-3.90809e-10
7.58144e-11
-4.71646e-10
8.08366e-11
-5.57316e-10
8.56712e-11
-6.4763e-10
9.03138e-11
-7.4239e-10
9.4761e-11
-8.41399e-10
9.9009e-11
-9.44456e-10
1.03057e-10
-1.05136e-09
1.06903e-10
-1.16191e-09
1.10547e-10
-1.2759e-09
1.13988e-10
-1.39312e-09
1.17227e-10
-1.51339e-09
1.20264e-10
-1.63649e-09
1.23098e-10
-1.76222e-09
1.25732e-10
-1.89039e-09
1.28167e-10
-2.02079e-09
1.30406e-10
-2.15324e-09
1.32449e-10
-2.28754e-09
1.34299e-10
-2.4235e-09
1.35957e-10
-2.56093e-09
1.37426e-10
-2.69963e-09
1.38707e-10
-2.83944e-09
1.39804e-10
-2.98016e-09
1.40719e-10
-3.12161e-09
1.41455e-10
-3.26362e-09
1.42014e-10
-3.40602e-09
1.42399e-10
-3.54863e-09
1.42613e-10
-3.69129e-09
1.42659e-10
-3.83383e-09
1.4254e-10
-3.97609e-09
1.42259e-10
-4.11791e-09
1.41819e-10
-4.25913e-09
1.41223e-10
-4.39961e-09
1.40473e-10
-4.53918e-09
1.39574e-10
-4.67771e-09
1.38527e-10
-4.81504e-09
1.37336e-10
-4.95105e-09
1.36004e-10
-5.08558e-09
1.34533e-10
-5.21851e-09
1.32928e-10
-5.3497e-09
1.31191e-10
-5.47903e-09
1.29327e-10
-5.60637e-09
1.27337e-10
-5.73159e-09
1.25226e-10
-5.85459e-09
1.22995e-10
-5.97524e-09
1.20649e-10
-6.09343e-09
1.1819e-10
-6.20905e-09
1.15621e-10
-6.32199e-09
1.12946e-10
-6.43216e-09
1.10167e-10
-6.53945e-09
1.07288e-10
-6.64376e-09
1.04312e-10
-6.745e-09
1.01243e-10
-6.84309e-09
9.80831e-11
-6.93792e-09
9.48357e-11
-7.02943e-09
9.15039e-11
-7.11752e-09
8.80908e-11
-7.20212e-09
8.45993e-11
-7.28315e-09
8.10329e-11
-7.36054e-09
7.73953e-11
-7.43423e-09
7.36893e-11
-7.50415e-09
6.99182e-11
-7.57024e-09
6.60848e-11
-7.63243e-09
6.21925e-11
-7.69067e-09
5.8245e-11
-7.74492e-09
5.42448e-11
-7.79511e-09
5.01955e-11
-7.84121e-09
4.61006e-11
-7.88318e-09
4.19634e-11
-7.92096e-09
3.77877e-11
-7.95454e-09
3.35764e-11
-7.98387e-09
2.93321e-11
-8.00893e-09
2.5059e-11
-8.02969e-09
2.07606e-11
-8.04613e-09
1.64402e-11
-8.05824e-09
1.21017e-11
-8.06598e-09
7.74827e-12
-8.06937e-09
3.38332e-12
-8.06838e-09
-9.89035e-13
-8.06301e-09
-5.36614e-12
-8.05327e-09
-9.74509e-12
-8.03914e-09
-1.41211e-11
-8.02065e-09
-1.84907e-11
-7.9978e-09
-2.28507e-11
-7.97061e-09
-2.71966e-11
-7.93908e-09
-3.15249e-11
-7.90325e-09
-3.58328e-11
-7.86314e-09
-4.01154e-11
-7.81877e-09
-4.4368e-11
-7.77018e-09
-4.85889e-11
-7.7174e-09
-5.27744e-11
-7.66048e-09
-5.69186e-11
-7.59947e-09
-6.10178e-11
-7.5344e-09
-6.50693e-11
-7.46533e-09
-6.90681e-11
-7.39232e-09
-7.301e-11
-7.31543e-09
-7.68924e-11
-7.23472e-09
-8.0711e-11
-7.15026e-09
-8.44605e-11
-7.06212e-09
-8.81375e-11
-6.97038e-09
-9.1739e-11
-6.87512e-09
-9.52599e-11
-6.77642e-09
-9.86958e-11
-6.67438e-09
-1.02043e-10
-6.56908e-09
-1.05299e-10
-6.46062e-09
-1.08457e-10
-6.34911e-09
-1.11514e-10
-6.23464e-09
-1.14468e-10
-6.11733e-09
-1.17312e-10
-5.99729e-09
-1.20044e-10
-5.87463e-09
-1.22659e-10
-5.74948e-09
-1.25153e-10
-5.62195e-09
-1.27522e-10
-5.49219e-09
-1.29764e-10
-5.36031e-09
-1.31874e-10
-5.22647e-09
-1.33847e-10
-5.09079e-09
-1.3568e-10
-4.95342e-09
-1.3737e-10
-4.81451e-09
-1.38912e-10
-4.6742e-09
-1.40302e-10
-4.53266e-09
-1.41539e-10
-4.39005e-09
-1.42618e-10
-4.24651e-09
-1.43535e-10
-4.10223e-09
-1.44286e-10
-3.95736e-09
-1.44869e-10
-3.81207e-09
-1.45281e-10
-3.66656e-09
-1.45519e-10
-3.52098e-09
-1.4558e-10
-3.37552e-09
-1.45461e-10
-3.23036e-09
-1.45159e-10
-3.08569e-09
-1.44671e-10
-2.9417e-09
-1.43993e-10
-2.79857e-09
-1.43126e-10
-2.6565e-09
-1.42067e-10
-2.51569e-09
-1.40813e-10
-2.37633e-09
-1.39361e-10
-2.23862e-09
-1.37711e-10
-2.10275e-09
-1.35862e-10
-1.96894e-09
-1.33812e-10
-1.83738e-09
-1.31559e-10
-1.70828e-09
-1.29102e-10
-1.58184e-09
-1.26442e-10
-1.45826e-09
-1.23578e-10
-1.33775e-09
-1.20509e-10
-1.22052e-09
-1.17236e-10
-1.10676e-09
-1.13759e-10
-9.96677e-10
-1.1008e-10
-8.90477e-10
-1.062e-10
-7.88355e-10
-1.02121e-10
-6.90511e-10
-9.78435e-11
-5.97138e-10
-9.33727e-11
-5.08426e-10
-8.87121e-11
-4.2456e-10
-8.38658e-11
-3.45721e-10
-7.8839e-11
-2.72083e-10
-7.36384e-11
-2.03813e-10
-6.82715e-11
-1.41065e-10
-6.27479e-11
-8.39846e-11
-5.70793e-11
-3.27039e-11
-5.12796e-11
1.26602e-11
-4.53643e-11
5.20113e-11
-3.93515e-11
8.52759e-11
-3.32642e-11
1.12407e-10
-2.71303e-11
1.3339e-10
-2.09835e-11
1.48254e-10
-1.4865e-11
1.57078e-10
-8.82508e-12
1.60005e-10
-2.92699e-12
1.57257e-10
2.7493e-12
1.49155e-10
8.10236e-12
1.36153e-10
1.30018e-11
1.18876e-10
1.72766e-11
9.81781e-11
2.06981e-11
7.5219e-11
2.29586e-11
5.15717e-11
2.36463e-11
2.93394e-11
2.22315e-11
1.12884e-11
1.80512e-11
8.4291e-13
1.0446e-11
8.42591e-13
1.08054e-11
-1.19306e-11
3.9689e-11
-3.9688e-11
8.13739e-11
-5.98838e-11
1.29899e-10
-7.05637e-11
1.79773e-10
-7.29422e-11
2.26386e-10
-6.86116e-11
2.66037e-10
-5.90321e-11
2.95837e-10
-4.54318e-11
3.13563e-10
-2.8795e-11
3.17534e-10
-9.89241e-12
3.06509e-10
1.06665e-11
2.7959e-10
3.24093e-11
2.36155e-10
5.49577e-11
1.75808e-10
7.80083e-11
9.83289e-11
1.01319e-10
3.64844e-12
1.24697e-10
-1.08185e-10
1.47982e-10
-2.37022e-10
1.71045e-10
-3.82636e-10
1.93779e-10
-5.44731e-10
2.16094e-10
-7.22959e-10
2.3792e-10
-9.16921e-10
2.59197e-10
-1.12619e-09
2.79875e-10
-1.35029e-09
2.99915e-10
-1.58873e-09
3.19282e-10
-1.84101e-09
3.37951e-10
-2.1066e-09
3.559e-10
-2.38495e-09
3.7311e-10
-2.67551e-09
3.89569e-10
-2.97771e-09
4.05265e-10
-3.291e-09
4.20192e-10
-3.6148e-09
4.34344e-10
-3.94853e-09
4.47718e-10
-4.29162e-09
4.60314e-10
-4.64348e-09
4.72132e-10
-5.00356e-09
4.83173e-10
-5.37127e-09
4.93441e-10
-5.74603e-09
5.02938e-10
-6.1273e-09
5.11671e-10
-6.51449e-09
5.19645e-10
-6.90706e-09
5.26868e-10
-7.30445e-09
5.33346e-10
-7.70612e-09
5.39089e-10
-8.11151e-09
5.44103e-10
-8.52011e-09
5.48397e-10
-8.93137e-09
5.51983e-10
-9.34479e-09
5.54868e-10
-9.75984e-09
5.57064e-10
-1.0176e-08
5.58581e-10
-1.05928e-08
5.5943e-10
-1.10098e-08
5.59621e-10
-1.14264e-08
5.59166e-10
-1.18422e-08
5.58075e-10
-1.22568e-08
5.5636e-10
-1.26696e-08
5.54034e-10
-1.30802e-08
5.51106e-10
-1.34882e-08
5.47588e-10
-1.38932e-08
5.43493e-10
-1.42947e-08
5.38833e-10
-1.46923e-08
5.3362e-10
-1.50857e-08
5.27866e-10
-1.54743e-08
5.21582e-10
-1.58579e-08
5.14781e-10
-1.6236e-08
5.07475e-10
-1.66084e-08
4.99677e-10
-1.69746e-08
4.914e-10
-1.73342e-08
4.82654e-10
-1.7687e-08
4.73453e-10
-1.80326e-08
4.63809e-10
-1.83708e-08
4.53734e-10
-1.8701e-08
4.4324e-10
-1.90232e-08
4.3234e-10
-1.9337e-08
4.21045e-10
-1.9642e-08
4.09369e-10
-1.99381e-08
3.97324e-10
-2.0225e-08
3.84922e-10
-2.05023e-08
3.72176e-10
-2.07699e-08
3.59097e-10
-2.10275e-08
3.45699e-10
-2.12749e-08
3.31994e-10
-2.15118e-08
3.17994e-10
-2.17382e-08
3.03712e-10
-2.19536e-08
2.89161e-10
-2.21581e-08
2.74355e-10
-2.23513e-08
2.59304e-10
-2.25331e-08
2.44022e-10
-2.27034e-08
2.28522e-10
-2.2862e-08
2.12817e-10
-2.30087e-08
1.96918e-10
-2.31434e-08
1.80841e-10
-2.32661e-08
1.64597e-10
-2.33765e-08
1.48201e-10
-2.34746e-08
1.31665e-10
-2.35602e-08
1.15003e-10
-2.36334e-08
9.82269e-11
-2.3694e-08
8.13514e-11
-2.37419e-08
6.43895e-11
-2.37772e-08
4.73551e-11
-2.37997e-08
3.02624e-11
-2.38095e-08
1.31252e-11
-2.38064e-08
-4.04244e-12
-2.37905e-08
-2.1226e-11
-2.37619e-08
-3.84126e-11
-2.37204e-08
-5.55887e-11
-2.36662e-08
-7.27388e-11
-2.35992e-08
-8.98487e-11
-2.35195e-08
-1.06904e-10
-2.34271e-08
-1.2389e-10
-2.33221e-08
-1.40792e-10
-2.32047e-08
-1.57595e-10
-2.30747e-08
-1.74283e-10
-2.29325e-08
-1.90841e-10
-2.2778e-08
-2.07255e-10
-2.26114e-08
-2.2351e-10
-2.24328e-08
-2.39589e-10
-2.22424e-08
-2.55477e-10
-2.20403e-08
-2.71158e-10
-2.18267e-08
-2.86618e-10
-2.16018e-08
-3.01839e-10
-2.13657e-08
-3.16808e-10
-2.11186e-08
-3.31509e-10
-2.08609e-08
-3.45923e-10
-2.05926e-08
-3.60037e-10
-2.0314e-08
-3.73835e-10
-2.00254e-08
-3.873e-10
-1.9727e-08
-4.00416e-10
-1.94191e-08
-4.13168e-10
-1.91021e-08
-4.2554e-10
-1.87761e-08
-4.37517e-10
-1.84414e-08
-4.49082e-10
-1.80985e-08
-4.6022e-10
-1.77477e-08
-4.70915e-10
-1.73892e-08
-4.81152e-10
-1.70234e-08
-4.90915e-10
-1.66507e-08
-5.00189e-10
-1.62715e-08
-5.08959e-10
-1.58862e-08
-5.1721e-10
-1.54951e-08
-5.24928e-10
-1.50987e-08
-5.32097e-10
-1.46974e-08
-5.38701e-10
-1.42916e-08
-5.44728e-10
-1.38817e-08
-5.50163e-10
-1.34682e-08
-5.54994e-10
-1.30517e-08
-5.59204e-10
-1.26324e-08
-5.62783e-10
-1.2211e-08
-5.65717e-10
-1.17879e-08
-5.67993e-10
-1.13635e-08
-5.69598e-10
-1.09385e-08
-5.70521e-10
-1.05134e-08
-5.70752e-10
-1.00885e-08
-5.70281e-10
-9.66461e-09
-5.69095e-10
-9.2421e-09
-5.67184e-10
-8.82155e-09
-5.6454e-10
-8.40353e-09
-5.61153e-10
-7.98858e-09
-5.57016e-10
-7.57727e-09
-5.5212e-10
-7.17017e-09
-5.4646e-10
-6.76786e-09
-5.40028e-10
-6.3709e-09
-5.3282e-10
-5.97988e-09
-5.2483e-10
-5.59539e-09
-5.16055e-10
-5.218e-09
-5.06493e-10
-4.8483e-09
-4.96142e-10
-4.48687e-09
-4.85001e-10
-4.13431e-09
-4.73071e-10
-3.79119e-09
-4.60355e-10
-3.4581e-09
-4.46856e-10
-3.1356e-09
-4.32578e-10
-2.82427e-09
-4.17529e-10
-2.52467e-09
-4.01718e-10
-2.23736e-09
-3.85157e-10
-1.96287e-09
-3.67858e-10
-1.70174e-09
-3.49839e-10
-1.45449e-09
-3.31121e-10
-1.2216e-09
-3.11728e-10
-1.00355e-09
-2.91687e-10
-8.00787e-10
-2.71034e-10
-6.13727e-10
-2.49808e-10
-4.42749e-10
-2.28058e-10
-2.8819e-10
-2.0584e-10
-1.50335e-10
-1.83219e-10
-2.94091e-11
-1.60277e-10
7.4434e-11
-1.37106e-10
1.61126e-10
-1.13822e-10
2.30701e-10
-9.05586e-11
2.8332e-10
-6.74827e-11
3.19291e-10
-4.47955e-11
3.39107e-10
-2.27438e-11
3.43487e-10
-1.6317e-12
3.33426e-10
1.8162e-11
3.10267e-10
3.61613e-11
2.75781e-10
5.17646e-11
2.3227e-10
6.42105e-11
1.8269e-10
7.25384e-11
1.30774e-10
7.55623e-11
8.11112e-11
7.18949e-11
3.90907e-11
6.00718e-11
1.04391e-11
3.90967e-11
1.12816e-11
1.81838e-11
-3.0115e-11
5.98735e-11
-8.13779e-11
1.16218e-10
-1.16227e-10
1.79434e-10
-1.3378e-10
2.42495e-10
-1.36005e-10
2.99329e-10
-1.25445e-10
3.44866e-10
-1.04569e-10
3.74983e-10
-7.55476e-11
3.86395e-10
-4.02052e-11
3.76526e-10
-2.17469e-14
3.43423e-10
4.37686e-11
2.85614e-10
9.02161e-11
2.02052e-10
1.38518e-10
9.2029e-11
1.88031e-10
-4.48799e-11
2.3823e-10
-2.08867e-10
2.88685e-10
-3.99928e-10
3.39044e-10
-6.17898e-10
3.89014e-10
-8.62475e-10
4.38355e-10
-1.13325e-09
4.86865e-10
-1.4297e-09
5.34378e-10
-1.75126e-09
5.80754e-10
-2.09727e-09
6.25879e-10
-2.46701e-09
6.69657e-10
-2.85974e-09
7.1201e-10
-3.27465e-09
7.52872e-10
-3.71094e-09
7.92189e-10
-4.16775e-09
8.29919e-10
-4.64421e-09
8.66027e-10
-5.13944e-09
9.00488e-10
-5.65252e-09
9.33279e-10
-6.18257e-09
9.64388e-10
-6.72865e-09
9.93803e-10
-7.28986e-09
1.02152e-09
-7.86526e-09
1.04753e-09
-8.45394e-09
1.07185e-09
-9.05498e-09
1.09448e-09
-9.66745e-09
1.11541e-09
-1.02905e-08
1.13467e-09
-1.09231e-08
1.15227e-09
-1.15644e-08
1.16821e-09
-1.22136e-08
1.18251e-09
-1.28697e-08
1.19519e-09
-1.35318e-08
1.20627e-09
-1.41992e-08
1.21576e-09
-1.48709e-08
1.22369e-09
-1.55461e-08
1.23007e-09
-1.6224e-08
1.23493e-09
-1.69037e-08
1.23829e-09
-1.75844e-08
1.24017e-09
-1.82654e-08
1.2406e-09
-1.89458e-08
1.2396e-09
-1.9625e-08
1.23719e-09
-2.0302e-08
1.2334e-09
-2.09762e-08
1.22825e-09
-2.16469e-08
1.22178e-09
-2.23133e-08
1.21399e-09
-2.29747e-08
1.20493e-09
-2.36305e-08
1.19462e-09
-2.428e-08
1.18307e-09
-2.49224e-08
1.17033e-09
-2.55573e-08
1.15642e-09
-2.61838e-08
1.14135e-09
-2.68015e-08
1.12517e-09
-2.74098e-08
1.1079e-09
-2.80079e-08
1.08955e-09
-2.85954e-08
1.07017e-09
-2.91718e-08
1.04978e-09
-2.97364e-08
1.02841e-09
-3.02887e-08
1.00607e-09
-3.08283e-08
9.82808e-10
-3.13546e-08
9.58642e-10
-3.18671e-08
9.33601e-10
-3.23655e-08
9.07713e-10
-3.28491e-08
8.81003e-10
-3.33177e-08
8.53501e-10
-3.37708e-08
8.25235e-10
-3.42079e-08
7.96231e-10
-3.46287e-08
7.66517e-10
-3.50329e-08
7.36121e-10
-3.54199e-08
7.05071e-10
-3.57896e-08
6.73395e-10
-3.61416e-08
6.41122e-10
-3.64755e-08
6.08279e-10
-3.67911e-08
5.74895e-10
-3.70881e-08
5.40999e-10
-3.73662e-08
5.06617e-10
-3.76251e-08
4.7178e-10
-3.78647e-08
4.36516e-10
-3.80847e-08
4.00855e-10
-3.8285e-08
3.64824e-10
-3.84652e-08
3.28455e-10
-3.86253e-08
2.91775e-10
-3.87651e-08
2.54816e-10
-3.88845e-08
2.17606e-10
-3.89834e-08
1.80175e-10
-3.90615e-08
1.42554e-10
-3.91189e-08
1.04774e-10
-3.91555e-08
6.68638e-11
-3.91713e-08
2.88557e-11
-3.91661e-08
-9.21981e-12
-3.914e-08
-4.73316e-11
-3.90929e-08
-8.54473e-11
-3.9025e-08
-1.23536e-10
-3.89362e-08
-1.61567e-10
-3.88265e-08
-1.99507e-10
-3.86961e-08
-2.37323e-10
-3.8545e-08
-2.74984e-10
-3.83733e-08
-3.12457e-10
-3.81812e-08
-3.49706e-10
-3.79688e-08
-3.86701e-10
-3.77362e-08
-4.23408e-10
-3.74837e-08
-4.59791e-10
-3.72114e-08
-4.95818e-10
-3.69195e-08
-5.31455e-10
-3.66083e-08
-5.66667e-10
-3.62781e-08
-6.01419e-10
-3.5929e-08
-6.35676e-10
-3.55615e-08
-6.69406e-10
-3.51757e-08
-7.02572e-10
-3.47721e-08
-7.3514e-10
-3.43509e-08
-7.67075e-10
-3.39126e-08
-7.98341e-10
-3.34575e-08
-8.28904e-10
-3.29861e-08
-8.58728e-10
-3.24987e-08
-8.87779e-10
-3.19959e-08
-9.1602e-10
-3.1478e-08
-9.43418e-10
-3.09456e-08
-9.69938e-10
-3.03991e-08
-9.95544e-10
-2.98391e-08
-1.0202e-09
-2.92662e-08
-1.04388e-09
-2.86808e-08
-1.06654e-09
-2.80836e-08
-1.08815e-09
-2.74751e-08
-1.10867e-09
-2.6856e-08
-1.12808e-09
-2.62268e-08
-1.14634e-09
-2.55884e-08
-1.16341e-09
-2.49412e-08
-1.17926e-09
-2.4286e-08
-1.19387e-09
-2.36235e-08
-1.2072e-09
-2.29545e-08
-1.21922e-09
-2.22796e-08
-1.2299e-09
-2.15996e-08
-1.23921e-09
-2.09152e-08
-1.24712e-09
-2.02273e-08
-1.25361e-09
-1.95367e-08
-1.25864e-09
-1.88441e-08
-1.26219e-09
-1.81504e-08
-1.26423e-09
-1.74564e-08
-1.26474e-09
-1.6763e-08
-1.2637e-09
-1.6071e-08
-1.26109e-09
-1.53813e-08
-1.25687e-09
-1.46948e-08
-1.25104e-09
-1.40124e-08
-1.24357e-09
-1.3335e-08
-1.23444e-09
-1.26634e-08
-1.22365e-09
-1.19987e-08
-1.21117e-09
-1.13418e-08
-1.19699e-09
-1.06935e-08
-1.1811e-09
-1.00548e-08
-1.1635e-09
-9.4267e-09
-1.14418e-09
-8.81007e-09
-1.12312e-09
-8.20587e-09
-1.10034e-09
-7.61505e-09
-1.07582e-09
-7.03854e-09
-1.04958e-09
-6.47727e-09
-1.02162e-09
-5.93217e-09
-9.91952e-10
-5.40416e-09
-9.60586e-10
-4.89415e-09
-9.27542e-10
-4.40303e-09
-8.92842e-10
-3.93167e-09
-8.56514e-10
-3.48093e-09
-8.18593e-10
-3.05165e-09
-7.79121e-10
-2.64463e-09
-7.38145e-10
-2.26063e-09
-6.95723e-10
-1.9004e-09
-6.51923e-10
-1.5646e-09
-6.06827e-10
-1.25388e-09
-5.60528e-10
-9.68804e-10
-5.13137e-10
-7.0986e-10
-4.64784e-10
-4.77456e-10
-4.15623e-10
-2.719e-10
-3.65835e-10
-9.33731e-11
-3.15634e-10
5.80805e-11
-2.65275e-10
1.82586e-10
-2.15064e-10
2.8047e-10
-1.65367e-10
3.52297e-10
-1.16622e-10
3.98917e-10
-6.93644e-11
4.21527e-10
-2.42404e-11
4.21732e-10
1.79569e-11
4.01636e-10
5.62557e-11
3.63937e-10
8.94625e-11
3.1203e-10
1.16116e-10
2.50122e-10
1.34447e-10
1.83318e-10
1.42366e-10
1.17663e-10
1.37549e-10
6.00604e-11
1.17674e-10
1.80384e-11
8.11191e-11
2.93202e-11
2.20403e-11
-5.21549e-11
7.06171e-11
-1.29956e-10
1.33901e-10
-1.7951e-10
2.02443e-10
-2.02323e-10
2.68084e-10
-2.01646e-10
3.23797e-10
-1.81159e-10
3.63631e-10
-1.44404e-10
3.82636e-10
-9.45549e-11
3.76772e-10
-3.43409e-11
3.42808e-10
3.39425e-11
2.78195e-10
1.08383e-10
1.81001e-10
1.8741e-10
4.97968e-11
2.69721e-10
-1.16417e-10
3.54243e-10
-3.18273e-10
4.40085e-10
-5.56098e-10
5.2651e-10
-8.29959e-10
6.12906e-10
-1.13971e-09
6.98762e-10
-1.48501e-09
7.83653e-10
-1.86536e-09
8.6722e-10
-2.28015e-09
9.49164e-10
-2.72863e-09
1.02924e-09
-3.20998e-09
1.10723e-09
-3.72328e-09
1.18296e-09
-4.26756e-09
1.25629e-09
-4.84177e-09
1.32709e-09
-5.44485e-09
1.39527e-09
-6.07567e-09
1.46074e-09
-6.73308e-09
1.52343e-09
-7.41589e-09
1.5833e-09
-8.12291e-09
1.6403e-09
-8.85294e-09
1.69441e-09
-9.60472e-09
1.74559e-09
-1.0377e-08
1.79384e-09
-1.11687e-08
1.83915e-09
-1.19783e-08
1.88152e-09
-1.28048e-08
1.92095e-09
-1.36468e-08
1.95745e-09
-1.45032e-08
1.99104e-09
-1.53727e-08
2.02173e-09
-1.6254e-08
2.04955e-09
-1.7146e-08
2.07452e-09
-1.80475e-08
2.09666e-09
-1.89572e-08
2.11601e-09
-1.98741e-08
2.13259e-09
-2.07968e-08
2.14644e-09
-2.17243e-08
2.15759e-09
-2.26555e-08
2.16608e-09
-2.35891e-08
2.17195e-09
-2.45242e-08
2.17524e-09
-2.54596e-08
2.17598e-09
-2.63942e-08
2.17422e-09
-2.7327e-08
2.16999e-09
-2.8257e-08
2.16335e-09
-2.9183e-08
2.15433e-09
-3.01042e-08
2.14298e-09
-3.10196e-08
2.12935e-09
-3.19281e-08
2.11347e-09
-3.28289e-08
2.09539e-09
-3.3721e-08
2.07516e-09
-3.46035e-08
2.05283e-09
-3.54755e-08
2.02844e-09
-3.63362e-08
2.00203e-09
-3.71847e-08
1.97366e-09
-3.80202e-08
1.94338e-09
-3.88418e-08
1.91122e-09
-3.96489e-08
1.87723e-09
-4.04406e-08
1.84147e-09
-4.12162e-08
1.80399e-09
-4.19749e-08
1.76482e-09
-4.27161e-08
1.72401e-09
-4.34391e-08
1.68162e-09
-4.41432e-08
1.6377e-09
-4.48278e-08
1.59228e-09
-4.54922e-08
1.54543e-09
-4.61359e-08
1.49718e-09
-4.67582e-08
1.44759e-09
-4.73587e-08
1.3967e-09
-4.79368e-08
1.34457e-09
-4.84919e-08
1.29124e-09
-4.90236e-08
1.23676e-09
-4.95314e-08
1.18118e-09
-5.00148e-08
1.12455e-09
-5.04734e-08
1.06692e-09
-5.09069e-08
1.00835e-09
-5.13148e-08
9.48866e-10
-5.16967e-08
8.88537e-10
-5.20523e-08
8.27407e-10
-5.23813e-08
7.65529e-10
-5.26834e-08
7.02953e-10
-5.29583e-08
6.3973e-10
-5.32058e-08
5.75912e-10
-5.34255e-08
5.11551e-10
-5.36174e-08
4.46698e-10
-5.37812e-08
3.81407e-10
-5.39168e-08
3.15729e-10
-5.4024e-08
2.49719e-10
-5.41026e-08
1.8343e-10
-5.41527e-08
1.16916e-10
-5.4174e-08
5.02304e-11
-5.41667e-08
-1.65713e-11
-5.41306e-08
-8.34349e-11
-5.40657e-08
-1.50306e-10
-5.39721e-08
-2.17126e-10
-5.38499e-08
-2.83841e-10
-5.3699e-08
-3.50395e-10
-5.35196e-08
-4.1673e-10
-5.33118e-08
-4.82788e-10
-5.30757e-08
-5.48512e-10
-5.28116e-08
-6.13845e-10
-5.25195e-08
-6.78727e-10
-5.21998e-08
-7.43099e-10
-5.18527e-08
-8.06904e-10
-5.14785e-08
-8.70079e-10
-5.10774e-08
-9.32567e-10
-5.06497e-08
-9.94307e-10
-5.01959e-08
-1.05524e-09
-4.97163e-08
-1.1153e-09
-4.92112e-08
-1.17443e-09
-4.86812e-08
-1.23257e-09
-4.81267e-08
-1.28966e-09
-4.75482e-08
-1.34564e-09
-4.69461e-08
-1.40044e-09
-4.6321e-08
-1.45401e-09
-4.56734e-08
-1.50628e-09
-4.5004e-08
-1.55718e-09
-4.43133e-08
-1.60667e-09
-4.36021e-08
-1.65468e-09
-4.28709e-08
-1.70115e-09
-4.21204e-08
-1.74601e-09
-4.13514e-08
-1.78921e-09
-4.05646e-08
-1.83068e-09
-3.97608e-08
-1.87038e-09
-3.89407e-08
-1.90822e-09
-3.81052e-08
-1.94417e-09
-3.72551e-08
-1.97816e-09
-3.63913e-08
-2.01013e-09
-3.55147e-08
-2.04003e-09
-3.46262e-08
-2.06779e-09
-3.37267e-08
-2.09337e-09
-3.28172e-08
-2.11671e-09
-3.18986e-08
-2.13775e-09
-3.09721e-08
-2.15645e-09
-3.00385e-08
-2.17275e-09
-2.90991e-08
-2.1866e-09
-2.81547e-08
-2.19796e-09
-2.72066e-08
-2.20677e-09
-2.62558e-08
-2.21299e-09
-2.53034e-08
-2.21658e-09
-2.43507e-08
-2.2175e-09
-2.33987e-08
-2.2157e-09
-2.24486e-08
-2.21115e-09
-2.15017e-08
-2.2038e-09
-2.05591e-08
-2.19363e-09
-1.9622e-08
-2.18061e-09
-1.86918e-08
-2.1647e-09
-1.77696e-08
-2.14588e-09
-1.68566e-08
-2.12412e-09
-1.59542e-08
-2.09941e-09
-1.50636e-08
-2.07172e-09
-1.4186e-08
-2.04105e-09
-1.33228e-08
-2.00738e-09
-1.24752e-08
-1.97071e-09
-1.16445e-08
-1.93104e-09
-1.0832e-08
-1.88836e-09
-1.00389e-08
-1.8427e-09
-9.26643e-09
-1.79405e-09
-8.51593e-09
-1.74245e-09
-7.7886e-09
-1.68792e-09
-7.08564e-09
-1.6305e-09
-6.40825e-09
-1.57023e-09
-5.7576e-09
-1.50716e-09
-5.13482e-09
-1.44137e-09
-4.54103e-09
-1.37292e-09
-3.97727e-09
-1.3019e-09
-3.44456e-09
-1.22843e-09
-2.94385e-09
-1.15263e-09
-2.47603e-09
-1.07465e-09
-2.0419e-09
-9.94656e-10
-1.64219e-09
-9.12852e-10
-1.2775e-09
-8.29473e-10
-9.48327e-10
-7.44794e-10
-6.55024e-10
-6.59138e-10
-3.97772e-10
-5.72885e-10
-1.76564e-10
-4.86482e-10
8.83347e-12
-4.00463e-10
1.58923e-10
-3.15457e-10
2.74516e-10
-2.32217e-10
3.56794e-10
-1.51642e-10
4.07367e-10
-7.48117e-11
4.28349e-10
-3.02608e-12
4.22451e-10
6.21533e-11
3.93064e-10
1.18849e-10
3.44363e-10
1.64818e-10
2.81392e-10
1.97417e-10
2.10151e-10
2.13606e-10
1.37647e-10
2.10052e-10
7.19305e-11
1.83391e-10
2.22271e-11
1.30823e-10
5.15473e-11
2.31144e-11
-7.52684e-11
7.31472e-11
-1.79991e-10
1.3643e-10
-2.42792e-10
2.02246e-10
-2.68139e-10
2.61581e-10
-2.60981e-10
3.06746e-10
-2.26324e-10
3.31208e-10
-1.68864e-10
3.29467e-10
-9.28144e-11
2.96966e-10
-1.84144e-12
2.29991e-10
1.00916e-10
1.25574e-10
2.12801e-10
-1.85975e-11
3.31581e-10
-2.04261e-10
4.55386e-10
-4.32666e-10
5.82648e-10
-7.04634e-10
7.12052e-10
-1.02062e-09
8.425e-10
-1.38078e-09
9.73064e-10
-1.78499e-09
1.10297e-09
-2.23289e-09
1.23156e-09
-2.72394e-09
1.35828e-09
-3.25744e-09
1.48266e-09
-3.83252e-09
1.60432e-09
-4.44821e-09
1.72292e-09
-5.10343e-09
1.83818e-09
-5.797e-09
1.94986e-09
-6.52769e-09
2.05778e-09
-7.29419e-09
2.16176e-09
-8.09513e-09
2.26168e-09
-8.92912e-09
2.35742e-09
-9.7947e-09
2.44889e-09
-1.06904e-08
2.53602e-09
-1.16148e-08
2.61877e-09
-1.25663e-08
2.69708e-09
-1.35434e-08
2.77093e-09
-1.45445e-08
2.84031e-09
-1.55682e-08
2.9052e-09
-1.66129e-08
2.96562e-09
-1.7677e-08
3.02157e-09
-1.8759e-08
3.07307e-09
-1.98574e-08
3.12014e-09
-2.09707e-08
3.16281e-09
-2.20973e-08
3.20111e-09
-2.32357e-08
3.23508e-09
-2.43845e-08
3.26477e-09
-2.55421e-08
3.29022e-09
-2.67071e-08
3.31147e-09
-2.78781e-08
3.32859e-09
-2.90537e-08
3.34161e-09
-3.02323e-08
3.35061e-09
-3.14127e-08
3.35563e-09
-3.25935e-08
3.35674e-09
-3.37732e-08
3.35399e-09
-3.49507e-08
3.34746e-09
-3.61246e-08
3.33721e-09
-3.72935e-08
3.32329e-09
-3.84563e-08
3.30579e-09
-3.96117e-08
3.28475e-09
-4.07585e-08
3.26027e-09
-4.18955e-08
3.23239e-09
-4.30216e-08
3.2012e-09
-4.41355e-08
3.16677e-09
-4.52362e-08
3.12915e-09
-4.63226e-08
3.08843e-09
-4.73936e-08
3.04468e-09
-4.84482e-08
2.99797e-09
-4.94854e-08
2.94837e-09
-5.05041e-08
2.89596e-09
-5.15034e-08
2.8408e-09
-5.24824e-08
2.78298e-09
-5.34402e-08
2.72256e-09
-5.43758e-08
2.65961e-09
-5.52884e-08
2.59422e-09
-5.61771e-08
2.52646e-09
-5.70412e-08
2.45639e-09
-5.78799e-08
2.3841e-09
-5.86924e-08
2.30966e-09
-5.94779e-08
2.23314e-09
-6.02358e-08
2.15463e-09
-6.09655e-08
2.07419e-09
-6.16661e-08
1.9919e-09
-6.23372e-08
1.90783e-09
-6.29781e-08
1.82207e-09
-6.35882e-08
1.73469e-09
-6.41671e-08
1.64576e-09
-6.47141e-08
1.55537e-09
-6.52288e-08
1.46358e-09
-6.57107e-08
1.37049e-09
-6.61595e-08
1.27616e-09
-6.65746e-08
1.18067e-09
-6.69558e-08
1.08411e-09
-6.73026e-08
9.8655e-10
-6.76148e-08
8.88072e-10
-6.7892e-08
7.88757e-10
-6.8134e-08
6.88684e-10
-6.83405e-08
5.87937e-10
-6.85114e-08
4.86595e-10
-6.86464e-08
3.8474e-10
-6.87454e-08
2.82457e-10
-6.88083e-08
1.79828e-10
-6.8835e-08
7.69379e-11
-6.88255e-08
-2.61305e-11
-6.87796e-08
-1.29291e-10
-6.86975e-08
-2.32458e-10
-6.85791e-08
-3.35547e-10
-6.84244e-08
-4.3847e-10
-6.82337e-08
-5.41139e-10
-6.80069e-08
-6.43468e-10
-6.77444e-08
-7.45367e-10
-6.74461e-08
-8.46747e-10
-6.71125e-08
-9.47518e-10
-6.67436e-08
-1.04759e-09
-6.63398e-08
-1.14687e-09
-6.59014e-08
-1.24527e-09
-6.54288e-08
-1.3427e-09
-6.49223e-08
-1.43907e-09
-6.43824e-08
-1.53427e-09
-6.38094e-08
-1.62823e-09
-6.32038e-08
-1.72084e-09
-6.25662e-08
-1.81201e-09
-6.18972e-08
-1.90165e-09
-6.11972e-08
-1.98967e-09
-6.04668e-08
-2.07596e-09
-5.97069e-08
-2.16044e-09
-5.89178e-08
-2.24301e-09
-5.81005e-08
-2.32358e-09
-5.72557e-08
-2.40204e-09
-5.6384e-08
-2.47832e-09
-5.54864e-08
-2.55231e-09
-5.45637e-08
-2.62391e-09
-5.36166e-08
-2.69305e-09
-5.26462e-08
-2.75961e-09
-5.16534e-08
-2.82352e-09
-5.06391e-08
-2.88468e-09
-4.96043e-08
-2.943e-09
-4.85501e-08
-2.99838e-09
-4.74775e-08
-3.05074e-09
-4.63876e-08
-3.09999e-09
-4.52816e-08
-3.14605e-09
-4.41606e-08
-3.18882e-09
-4.30257e-08
-3.22822e-09
-4.18783e-08
-3.26417e-09
-4.07194e-08
-3.29659e-09
-3.95505e-08
-3.3254e-09
-3.83727e-08
-3.35052e-09
-3.71875e-08
-3.37187e-09
-3.5996e-08
-3.38938e-09
-3.47998e-08
-3.40297e-09
-3.36002e-08
-3.41259e-09
-3.23987e-08
-3.41816e-09
-3.11966e-08
-3.41961e-09
-2.99954e-08
-3.4169e-09
-2.87966e-08
-3.40995e-09
-2.76016e-08
-3.39872e-09
-2.64121e-08
-3.38316e-09
-2.52295e-08
-3.36321e-09
-2.40554e-08
-3.33883e-09
-2.28913e-08
-3.30999e-09
-2.17387e-08
-3.27666e-09
-2.05993e-08
-3.23879e-09
-1.94747e-08
-3.19638e-09
-1.83664e-08
-3.14939e-09
-1.72759e-08
-3.09782e-09
-1.6205e-08
-3.04167e-09
-1.51551e-08
-2.98093e-09
-1.41278e-08
-2.91561e-09
-1.31248e-08
-2.84573e-09
-1.21475e-08
-2.77131e-09
-1.11976e-08
-2.6924e-09
-1.02765e-08
-2.60904e-09
-9.3857e-09
-2.52129e-09
-8.52671e-09
-2.42922e-09
-7.70095e-09
-2.33292e-09
-6.90981e-09
-2.23251e-09
-6.15463e-09
-2.1281e-09
-5.43669e-09
-2.01984e-09
-4.75722e-09
-1.9079e-09
-4.11736e-09
-1.79249e-09
-3.51816e-09
-1.67384e-09
-2.96059e-09
-1.55223e-09
-2.44548e-09
-1.42796e-09
-1.97354e-09
-1.30141e-09
-1.54532e-09
-1.17301e-09
-1.1612e-09
-1.04326e-09
-8.21331e-10
-9.12749e-10
-5.25657e-10
-7.82156e-10
-2.73829e-10
-6.52292e-10
-6.51819e-11
-5.24105e-10
1.01319e-10
-3.98717e-10
2.27132e-10
-2.77455e-10
3.14209e-10
-1.6189e-10
3.65068e-10
-5.38857e-11
3.82871e-10
4.43496e-11
3.71513e-10
1.30207e-10
3.35704e-10
2.00627e-10
2.81058e-10
2.52063e-10
2.14175e-10
2.80488e-10
1.42751e-10
2.81476e-10
7.57315e-11
2.5041e-10
2.3674e-11
1.8288e-10
7.52212e-11
2.21149e-11
-9.73822e-11
6.9062e-11
-2.2694e-10
1.26364e-10
-3.00096e-10
1.82546e-10
-3.2432e-10
2.28023e-10
-3.06459e-10
2.54668e-10
-2.52971e-10
2.55573e-10
-1.69768e-10
2.24887e-10
-6.21266e-11
1.5771e-10
6.53354e-11
5.00023e-11
2.08622e-10
-1.01506e-10
3.64308e-10
-2.994e-10
5.29476e-10
-5.45659e-10
7.01646e-10
-8.41729e-10
8.78717e-10
-1.18859e-09
1.05891e-09
-1.58681e-09
1.24072e-09
-2.03662e-09
1.42287e-09
-2.53791e-09
1.60427e-09
-3.09036e-09
1.784e-09
-3.69336e-09
1.96128e-09
-4.34615e-09
2.13545e-09
-5.04777e-09
2.30593e-09
-5.79711e-09
2.47227e-09
-6.59297e-09
2.63403e-09
-7.434e-09
2.79089e-09
-8.31878e-09
2.94256e-09
-9.2458e-09
3.08878e-09
-1.02135e-08
3.22937e-09
-1.12202e-08
3.36414e-09
-1.22643e-08
3.49298e-09
-1.3344e-08
3.61576e-09
-1.44577e-08
3.7324e-09
-1.56034e-08
3.84284e-09
-1.67795e-08
3.94703e-09
-1.79842e-08
4.04495e-09
-1.92155e-08
4.13656e-09
-2.04718e-08
4.22188e-09
-2.17511e-08
4.30091e-09
-2.30517e-08
4.37367e-09
-2.43718e-08
4.44018e-09
-2.57095e-08
4.50049e-09
-2.7063e-08
4.55463e-09
-2.84306e-08
4.60266e-09
-2.98104e-08
4.64463e-09
-3.12008e-08
4.6806e-09
-3.26e-08
4.71064e-09
-3.40062e-08
4.73482e-09
-3.54178e-08
4.75321e-09
-3.68331e-08
4.76589e-09
-3.82504e-08
4.77293e-09
-3.96681e-08
4.77443e-09
-4.10846e-08
4.77047e-09
-4.24982e-08
4.76113e-09
-4.39075e-08
4.7465e-09
-4.53109e-08
4.72669e-09
-4.67069e-08
4.70177e-09
-4.8094e-08
4.67184e-09
-4.94707e-08
4.63701e-09
-5.08357e-08
4.59736e-09
-5.21875e-08
4.553e-09
-5.35248e-08
4.50403e-09
-5.48462e-08
4.45053e-09
-5.61504e-08
4.39263e-09
-5.74361e-08
4.33041e-09
-5.87021e-08
4.26398e-09
-5.99472e-08
4.19344e-09
-6.11701e-08
4.1189e-09
-6.23697e-08
4.04045e-09
-6.3545e-08
3.95821e-09
-6.46947e-08
3.87227e-09
-6.58178e-08
3.78275e-09
-6.69133e-08
3.68973e-09
-6.79802e-08
3.59335e-09
-6.90175e-08
3.49368e-09
-7.00243e-08
3.39085e-09
-7.09996e-08
3.28496e-09
-7.19425e-08
3.17611e-09
-7.28523e-08
3.06442e-09
-7.37281e-08
2.94999e-09
-7.45692e-08
2.83292e-09
-7.53747e-08
2.71333e-09
-7.61439e-08
2.59132e-09
-7.68762e-08
2.46701e-09
-7.7571e-08
2.3405e-09
-7.82275e-08
2.2119e-09
-7.88452e-08
2.08132e-09
-7.94236e-08
1.94888e-09
-7.99622e-08
1.81468e-09
-8.04603e-08
1.67884e-09
-8.09177e-08
1.54146e-09
-8.13338e-08
1.40267e-09
-8.17083e-08
1.26257e-09
-8.20408e-08
1.12128e-09
-8.2331e-08
9.78919e-10
-8.25787e-08
8.35596e-10
-8.27835e-08
6.9143e-10
-8.29453e-08
5.46539e-10
-8.30639e-08
4.0104e-10
-8.31391e-08
2.5505e-10
-8.31709e-08
1.08693e-10
-8.31591e-08
-3.79145e-11
-8.31038e-08
-1.8465e-10
-8.30048e-08
-3.31392e-10
-8.28624e-08
-4.78017e-10
-8.26764e-08
-6.24403e-10
-8.24471e-08
-7.70423e-10
-8.21747e-08
-9.15954e-10
-8.18591e-08
-1.06087e-09
-8.15009e-08
-1.20504e-09
-8.11e-08
-1.34834e-09
-8.0657e-08
-1.49065e-09
-8.0172e-08
-1.63182e-09
-7.96456e-08
-1.77174e-09
-7.9078e-08
-1.91027e-09
-7.84698e-08
-2.04728e-09
-7.78214e-08
-2.18263e-09
-7.71334e-08
-2.31621e-09
-7.64064e-08
-2.44787e-09
-7.56409e-08
-2.57747e-09
-7.48377e-08
-2.7049e-09
-7.39974e-08
-2.83001e-09
-7.31207e-08
-2.95266e-09
-7.22084e-08
-3.07274e-09
-7.12613e-08
-3.19009e-09
-7.02803e-08
-3.30459e-09
-6.92662e-08
-3.41611e-09
-6.822e-08
-3.5245e-09
-6.71427e-08
-3.62964e-09
-6.60352e-08
-3.73139e-09
-6.48986e-08
-3.82963e-09
-6.3734e-08
-3.92421e-09
-6.25425e-08
-4.01501e-09
-6.13253e-08
-4.10191e-09
-6.00836e-08
-4.18476e-09
-5.88185e-08
-4.26344e-09
-5.75314e-08
-4.33783e-09
-5.62236e-08
-4.4078e-09
-5.48964e-08
-4.47323e-09
-5.35512e-08
-4.534e-09
-5.21895e-08
-4.58998e-09
-5.08126e-08
-4.64107e-09
-4.9422e-08
-4.68714e-09
-4.80193e-08
-4.72808e-09
-4.66061e-08
-4.76378e-09
-4.51838e-08
-4.79415e-09
-4.37541e-08
-4.81906e-09
-4.23187e-08
-4.83843e-09
-4.08791e-08
-4.85215e-09
-3.94371e-08
-4.86014e-09
-3.79944e-08
-4.8623e-09
-3.65528e-08
-4.85855e-09
-3.51139e-08
-4.84881e-09
-3.36796e-08
-4.83301e-09
-3.22517e-08
-4.81107e-09
-3.0832e-08
-4.78293e-09
-2.94223e-08
-4.74853e-09
-2.80245e-08
-4.70782e-09
-2.66404e-08
-4.66075e-09
-2.52719e-08
-4.6073e-09
-2.39208e-08
-4.54741e-09
-2.25892e-08
-4.48108e-09
-2.12787e-08
-4.40829e-09
-1.99913e-08
-4.32903e-09
-1.87289e-08
-4.24332e-09
-1.74934e-08
-4.15116e-09
-1.62865e-08
-4.0526e-09
-1.51101e-08
-3.94767e-09
-1.39661e-08
-3.83642e-09
-1.28562e-08