/*--------------------------------*- C++ -*----------------------------------*\
  =========                 |
  \\      /  F ield         | OpenFOAM: The Open Source CFD Toolbox
   \\    /   O peration     | Website:  https://openfoam.org
    \\  /    A nd           | Version:  7
     \\/     M anipulation  |
\*---------------------------------------------------------------------------*/
FoamFile
{
    version     2.0;
    format      ascii;
    class       volScalarField;
    location    "1.041";
    object      p;
}
// * * * * * * * * * * * * * * * * * * * * * * * * * * * * * * * * * * * * * //

dimensions      [0 2 -2 0 0 0 0];

internalField   nonuniform List<scalar> 
12359
(
0.0602876
0.0699115
0.0438681
0.102906
0.0638861
0.149521
0.181802
0.16345
0.22041
0.137913
0.202373
0.271855
0.481417
0.109924
0.0975597
0.389717
0.43806
0.0484137
0.0480244
0.0827344
0.118549
0.244806
0.0760763
0.0881573
0.0726514
0.0790922
0.0450486
0.0449127
0.0473157
0.0455613
0.0459811
0.0443959
0.0440413
0.0453318
0.0439016
0.0461886
0.0536185
0.0587279
0.0621369
0.0561235
0.0677042
0.0573023
0.0511966
0.0504999
0.0466684
0.0469716
0.0464446
0.0458044
0.047647
0.0451766
0.0447821
0.0446337
0.0443045
0.0487983
0.0442236
0.0440734
0.0498163
0.0440214
0.0440133
0.0439498
0.0441184
0.043892
0.0446906
0.511437
0.0493301
0.127774
0.0528726
0.0445479
0.0543969
0.342944
0.526502
0.0656975
0.0438578
0.0552424
0.0929499
0.0439082
0.0443052
0.0438758
0.0521158
0.312033
0.120725
0.0393093
0.0428482
0.0456788
-0.0607095
0.0195722
0.0391612
0.0414161
-0.0722366
-0.0552487
0.0436377
0.467905
0.0435866
0.0438516
0.0443392
0.0031604
0.0432695
0.0439712
0.0536609
0.0498184
0.103037
0.0437498
0.0204321
-0.130525
0.0379991
0.0105503
0.0425469
-0.0593296
0.0233365
0.0110237
0.0433278
0.0394164
0.104864
0.086417
0.0446231
0.0398634
0.0882233
0.0382685
-0.0766886
0.0428912
0.04343
0.169437
0.0412967
0.00372843
0.0379845
0.0395766
0.0342127
0.0455347
0.0438634
0.0378131
0.0403013
-0.00278916
-0.00435061
-0.00300028
0.0426078
0.00470988
0.0400038
0.00464205
0.0437838
0.0345971
0.0430501
0.0617225
0.0118555
0.0425754
0.00579098
0.14197
0.042858
-0.049376
0.037793
0.122264
0.00120418
0.0437673
0.0119507
0.0412468
0.043533
-0.186312
0.104086
-0.00183804
0.0433761
0.0444768
0.0418133
0.0445253
0.00278243
0.00920494
0.0428313
0.0396445
0.0428381
0.168878
0.0106162
-0.0741743
0.043875
0.0438963
0.00940951
0.0726861
0.0381235
0.0383892
0.0472985
0.0470903
0.106497
0.0388245
0.110154
0.0435113
0.0438649
0.0389982
0.0525322
0.201266
0.0387833
0.0434278
0.00130893
0.0385777
0.0437368
0.0024075
0.00532684
0.0411729
0.00988281
-0.138179
0.0285551
0.0397434
0.0124687
0.0384406
0.146657
0.000780953
0.0509681
0.0107023
0.00913868
0.0434888
0.00821074
0.0515484
0.00157073
0.0375056
0.0432106
0.000110898
3.74225e-05
-0.540507
0.196191
0.0437896
0.0393122
0.0445712
0.0391191
0.0623584
0.0962704
0.0375675
0.00355616
0.465086
0.0376387
0.0431864
0.0630804
0.0249103
0.0413985
0.0405544
0.0403642
0.0428341
0.00668607
0.0511551
0.0428591
0.0503807
0.0428845
0.0113796
0.0430934
0.28955
0.0427887
0.0178615
0.0431618
0.0517876
0.0407085
-0.0495333
0.0439877
0.0013507
0.0382692
0.00606084
0.00119444
0.0580519
0.0467135
0.0409043
0.317354
-0.589006
0.0429
0.0373665
0.393574
-0.0525822
0.0505234
0.0417711
0.0415734
0.00953285
0.0710368
-0.453111
-0.0702813
0.040467
0.0376184
0.00488276
0.00950389
0.0563697
0.0106831
0.0410435
0.0374008
0.0428241
0.0374983
-0.11885
0.0392993
0.042447
0.0437367
0.00898667
0.0349921
0.0529488
0.0176677
0.0429734
0.0437865
0.0437598
0.0437373
0.0444358
0.0027403
0.0388747
-0.461525
0.0425547
0.0425366
0.0208071
0.0385183
0.0960688
0.0443087
0.0448278
0.0436598
-0.10576
0.0410954
0.0436592
0.0395308
0.0439573
0.038041
0.0394845
0.0401906
0.0385621
0.0484061
0.200336
0.0378075
0.0460998
0.0586671
0.0189892
-0.0583502
0.0373251
0.0542643
0.367633
0.0437305
0.015767
0.0423293
0.0287783
0.0425611
0.0368585
0.22202
0.0150632
0.202191
0.0524909
0.0428987
0.00468845
0.00159713
0.0428427
0.00406157
0.00580649
0.0420996
0.0441957
0.0441928
0.0442549
0.0442365
0.288387
0.0429489
0.100091
0.000335934
0.0513674
0.0105146
0.0152889
0.0214071
0.0295076
0.0143945
0.0300353
0.0532026
0.0170127
0.0182958
0.0886
0.0625733
0.0116512
0.0608599
0.0606205
0.0130292
0.10065
0.0398736
0.0442952
0.0270925
0.0442575
0.0396181
-0.194325
0.498258
0.039836
0.0438235
0.0426305
0.0433859
0.0142827
0.0435396
0.0435206
-0.0784356
0.00963759
-0.0505638
0.0417264
0.0076626
0.0350049
0.0434904
0.0128659
0.0268341
0.106132
0.027077
0.0400969
0.0423769
0.00914995
0.00719113
0.0368449
0.289153
0.0125877
0.00204692
0.0460947
0.0430834
0.043805
0.381782
0.0098622
0.0418554
0.0597389
0.0597886
0.0430704
0.043037
0.0433188
-0.0594554
0.0951849
0.0554244
0.0146929
0.000161324
0.0444324
0.110197
0.0454699
-0.000213468
-0.0634574
0.296353
0.050099
0.0879753
0.0237621
0.0192318
0.0312143
0.026855
0.0456144
0.0311561
0.0121701
0.0435464
-0.054998
0.0534833
-0.00668568
0.006275
0.0503386
0.0926287
-0.15024
0.0141059
0.0351817
0.00177469
0.00588131
0.0157419
0.0384912
0.0432569
0.0492839
0.0425649
-0.00359876
0.0402448
0.0788491
0.0815133
0.0314744
-0.0578747
0.100223
0.0495508
0.0422576
0.385471
0.0421447
0.0416506
0.00272369
0.0438266
0.0421524
0.0416329
0.23361
0.196194
0.0452505
0.0413916
0.105688
0.0445314
0.015
0.0119143
0.0101676
0.0420563
0.0433691
0.04409
0.0436715
0.0809189
0.0155843
0.0186542
0.046929
0.0478093
0.00025036
0.0457038
0.0421604
0.0367689
0.116006
0.00198279
0.0437641
0.0438659
0.00864017
0.0260028
0.0448954
0.0397383
0.109496
0.0145199
0.00517213
0.0175279
0.0419975
0.0423347
-0.00819849
-0.00481903
0.0436649
0.0325563
0.0461349
0.00221124
0.276953
0.0432973
0.0405056
0.0421076
0.0114697
0.049479
0.0483812
0.0398234
0.0454725
0.0258248
0.0713706
0.0328223
-0.0382187
0.0425534
-0.0436933
0.0414879
-0.127234
0.0136461
-0.00547949
0.0440002
0.0466985
0.0184027
0.0390535
0.0447493
0.0515729
0.0497547
0.0500086
0.0677754
0.0111587
0.0108075
0.0428647
0.0386688
0.0153435
-0.0038141
0.0428692
0.04243
0.00888295
0.0421309
0.219882
-0.155543
-0.115284
0.0428689
0.0365609
0.000689775
0.0487741
0.0383967
0.441717
0.0425103
0.108987
0.0844144
0.0363831
0.0385003
0.0449003
0.0317838
0.000142234
0.0258715
0.0470124
0.0429062
0.0438693
0.0492937
0.0473484
0.0517076
0.0109818
0.0444917
0.0424817
0.0172138
-0.0860886
0.0459546
-6.24491e-05
0.0426659
0.0474815
0.0903436
0.000869007
0.00124135
0.0925059
0.0415218
0.00107898
0.0431136
0.0439405
0.000725811
0.0324251
0.0409582
0.0323685
0.0434455
0.0424353
0.0390699
0.0450555
0.00104666
0.0990219
0.0539025
0.11388
0.0124229
0.0352464
0.108357
0.0583575
-0.005269
0.0103394
0.0594445
0.0503819
0.0439527
0.0345207
0.0175544
0.0428568
0.0438403
0.0420921
0.0439936
-0.0185791
0.033013
0.0291514
0.100351
0.0518585
0.230575
0.00202724
0.000874094
0.0387752
-0.00387309
0.0434273
0.0460205
0.0427562
0.101562
0.109723
0.0418265
0.0261968
0.221361
0.0123606
0.00296565
0.0339023
0.0626022
-0.131032
0.0417576
0.0451819
0.043468
-0.0126907
0.0450597
0.0268221
-0.0574043
0.0424805
0.0728483
0.0533326
0.0368797
0.0462081
0.0421167
0.0443095
0.0489858
0.0443626
0.0442385
0.0482768
0.00392918
0.00722532
0.0369417
0.329176
0.000516758
0.407677
0.0136182
0.0185571
0.0485773
0.0148232
0.0522721
0.00308923
0.315072
0.0941591
0.051545
0.0394417
0.0486875
0.0473004
0.0181035
0.0432542
-0.00845371
0.0443773
0.0951778
0.0448837
-0.0167066
0.00554475
0.00859504
0.0521558
0.0343482
0.00594995
0.0728641
0.00276148
0.0361492
0.000597042
0.0387465
0.0429206
0.0455636
-0.208472
0.0671743
0.0366216
0.0428179
0.0445845
0.0492945
0.0784649
0.00696791
0.0125372
0.0420819
0.0381657
0.0509141
0.0365452
0.0332075
-0.000229602
0.0502723
0.053164
0.00669971
0.0379759
0.0351061
0.100103
0.0428674
0.0504954
-0.259248
0.0439825
0.00468336
0.0476617
0.0355196
0.0848004
0.00736437
0.0464109
0.015673
0.0436561
0.107215
0.0375364
0.00600392
0.00831779
0.108148
0.0435206
0.000548723
-0.00679788
0.0521119
0.037711
0.0383351
0.0329993
0.233801
0.0481142
0.043806
0.0503762
0.0435605
-0.129127
0.0375413
0.00711338
0.0271165
0.0127629
0.515885
0.037325
-0.058309
0.00730536
-0.0923653
0.0146817
0.046857
0.0372636
0.0266304
-0.0508328
-0.0384173
0.0415978
0.0411435
0.11422
0.041157
0.206196
0.0166233
0.066693
0.0387604
0.392678
-0.106606
0.0381208
0.0429276
0.0433507
0.0891011
0.049373
0.0541004
0.0467465
0.0114543
0.0723505
-0.0280932
0.346715
0.0420714
0.0783502
0.0111946
0.116395
0.0389739
0.109334
0.00521793
0.0905165
0.0464495
0.0428184
0.00694527
0.00446089
0.0133085
0.113174
0.0096691
0.0190921
0.0466663
0.0428296
0.0335668
0.240287
0.0335974
0.00900312
0.0622298
0.0159071
0.0307701
0.0474731
-0.00594254
0.0276196
0.0384924
-0.0164483
0.0536583
0.0219536
0.192477
0.0429062
0.0274701
0.045461
0.051399
0.039724
0.0460956
0.042861
-0.00117428
0.0366484
0.0728154
0.00938951
0.0901961
0.0262444
0.0268524
0.00761789
-0.196058
0.043969
0.0508496
0.018916
-0.0720885
0.0048367
0.0434249
0.503711
0.0428243
0.037891
-0.168219
0.0492565
0.0437453
0.043863
0.0608723
0.0848256
0.0439936
0.050424
0.104179
0.0460432
0.0482574
0.0471952
0.041758
0.0859604
-0.0195072
0.0490988
0.111806
0.00724729
0.00358073
0.00274227
0.0122483
0.0471382
0.0377668
-0.0431622
0.00306169
0.0684335
0.042553
0.0440257
0.113227
-0.0037468
0.0286142
0.0340053
0.0282234
0.0466784
0.0375563
0.0792585
-0.227047
0.363571
0.0778713
0.0451365
0.0375019
0.0751179
0.344352
0.10692
0.0434524
-0.00181643
-0.0152292
-0.247121
0.0307591
-0.159991
0.0439901
0.0471175
0.0440447
0.00345762
0.0700088
-0.167061
0.0372445
-0.0872446
0.0409072
0.0456171
0.00790593
0.0486284
-0.00124984
-0.0443658
0.0500767
0.0303269
0.0197117
0.0310429
0.0498736
0.072498
0.0679948
0.0260841
0.0750115
0.0500573
0.0440848
0.0478016
0.0446405
0.100336
0.0171694
-0.0100217
-0.000418718
0.0810591
0.0208733
0.0191878
0.0377426
-0.0135619
0.0292102
0.0493375
0.0434839
-0.00253071
0.104342
0.0372892
0.0359303
0.0512075
0.0197955
0.0980432
0.111231
0.0196432
0.233225
0.0184305
0.0821185
-0.0413936
0.0483425
0.0158929
0.00849565
0.0411814
0.0290871
0.0323671
0.0390588
0.0431075
0.0394911
-0.0164057
-0.00389506
0.0386557
-0.137415
0.0960161
0.0445184
0.0472888
-0.000466632
0.0444241
0.0747386
0.0104997
0.00186143
0.0443657
0.0468827
0.0434132
0.0444286
0.11376
-0.140385
0.0446475
0.0531758
0.0428788
-0.147035
0.0181446
0.0112044
0.0425834
0.0445394
0.0470582
0.0209067
0.0814205
0.0242753
0.042202
0.0472517
0.0443076
0.0174453
0.0800948
0.0325806
0.043832
0.0261544
0.0214238
0.070318
0.0392922
-0.0192194
0.140995
0.0412511
0.0284157
0.0470308
0.0383712
-0.18502
0.0498821
0.044578
0.00804497
0.100485
0.0776952
-0.139707
0.0713082
0.0299789
0.0237322
0.0511324
0.0344699
0.0296921
0.0503745
0.141856
0.0449464
-0.332352
0.0787067
0.176458
0.0344801
-0.00614713
0.0910612
-0.00297162
0.255927
0.00493457
0.0210558
0.0288291
0.0339498
0.0428353
0.0386958
0.0832834
0.000188583
0.0505845
0.0412368
0.00425014
0.0135759
0.00368847
0.0755005
-0.00170915
0.0034108
0.042703
0.0657256
-0.0520265
0.0827019
0.0428116
0.0295854
0.0479411
0.0428252
0.0642841
0.0439773
0.0387608
0.240107
0.0869809
-0.0194311
0.0440215
0.0435661
0.0435797
0.0506738
0.0478814
-0.00333409
0.0480321
0.0434569
-0.0194521
0.0179242
0.00206687
0.0639035
0.0463368
0.0360134
0.0878488
0.0292579
0.0440488
-0.0440591
0.00718099
0.107797
0.0443354
-0.23552
0.0923422
0.0459589
0.00172172
0.0343389
-0.0240669
0.0305463
-0.000979996
0.0892689
0.045109
0.0458087
0.0169624
0.0364752
0.0492983
-0.00954859
0.0494178
0.0495281
0.0932126
0.0407372
0.0474511
0.0304046
0.00649711
0.0464153
0.0494731
0.0476163
0.0427176
0.0911834
-0.0437466
0.0221285
0.0507123
0.0487688
0.0357671
0.0431386
-0.194015
0.0747164
0.0437525
0.0663306
0.0358347
0.0945538
0.148554
0.000205909
0.049613
0.00260799
-0.00445335
0.0425376
0.035686
-0.0032061
0.0384825
0.0438132
0.067612
0.0229288
0.0483724
0.0438444
0.0368198
0.0808743
0.0444636
0.0280361
0.0439903
0.0321139
0.0621838
0.128771
0.0433534
-0.201724
0.0755428
0.01232
-0.121873
0.0876042
0.027094
-0.0317153
0.0511773
0.137978
0.202904
0.0485366
0.0390354
0.0389149
0.0461957
0.0480096
0.00481456
-0.080549
-0.147711
0.00631576
0.143625
-0.00725445
0.00775047
-0.0584673
0.0433404
0.0464558
0.0437635
0.0207754
0.0433599
0.00594096
0.0311779
-0.0123787
0.0429388
0.046589
0.041136
-0.153598
0.114573
0.0735373
0.0561888
0.1176
0.0390988
0.0445564
-0.0191241
0.031015
-0.0145262
0.0052816
0.0171868
0.00191759
0.0113433
0.0515371
0.042772
0.0432269
-0.124558
0.0379512
0.0335916
0.0494845
-8.75733e-05
0.0150698
0.0433999
0.0156766
-0.0163704
-0.000289764
0.0894326
0.0483033
0.0436615
0.00269612
0.0508856
0.0433741
-0.00353116
0.00483119
0.0474915
0.133917
0.000463644
0.043528
0.0437232
0.0427005
0.102304
-0.137316
0.0366496
0.00746146
0.0467795
0.0475662
0.00735565
0.0437172
0.175662
0.0110825
-0.0534876
0.149404
0.025261
0.0430623
0.0431441
0.0278595
0.0510452
0.0428703
-0.179939
0.00297458
0.0398095
0.21505
0.0965141
0.0372538
0.0428684
0.0438167
0.0485614
-0.0776996
0.156288
0.0289688
0.0727833
0.0614705
0.0036071
-0.0798289
0.0201598
0.0490631
0.0478805
0.0132208
0.0351795
0.0420738
0.0461306
0.00135865
0.0478859
0.0279326
0.0498677
0.0768655
-0.0135385
0.0412251
0.0462379
-0.00595164
0.00155033
0.0534101
0.045861
0.0717844
-0.000798775
0.0345855
0.013893
0.0689589
0.0116562
-0.0346754
0.048021
0.153717
0.042852
0.101521
-0.00255985
0.043712
0.0432903
0.367788
0.0440185
0.0509182
0.0223823
0.0491233
0.0492775
0.0523769
0.0438857
0.0435665
7.69921e-05
-0.0281592
0.0414264
0.328472
0.031884
0.0458953
0.231621
0.0952681
0.0510883
0.0399833
0.0456165
0.0832647
-0.260281
0.0489657
0.0413262
0.0428428
0.0462702
0.0586957
0.0130354
0.0484596
0.059375
0.0471245
-0.154432
-0.00928961
0.00506416
0.105252
0.0315811
0.0459876
0.00237017
-0.11974
0.0478972
0.0430819
0.0459086
0.0427322
0.0490504
0.0424857
-0.00467585
0.0396877
0.0375792
0.299667
-0.00130605
-0.00881269
0.00204864
0.0489069
-9.65089e-05
0.0834697
-0.091269
0.0419174
0.00761394
0.0437037
0.233967
0.0429387
0.0437102
0.0260669
0.0428806
0.0217183
0.0538587
0.0491976
0.0417683
-0.0951292
0.083482
0.00772708
0.0462106
0.0317719
-0.0575122
-0.00970238
0.0740992
0.0698512
0.0443294
0.0500077
0.0397015
0.0461011
0.0414078
0.0461531
0.0849741
0.0711412
0.00447982
-0.107505
0.0209318
-0.010896
0.0287637
-0.111756
0.0424227
-0.0325821
0.0459966
-0.0137206
-0.00835313
0.0211156
0.0436601
0.0252848
0.00783857
0.0270429
-0.0135038
0.228948
-0.104953
0.045969
-0.00533085
0.0425498
-0.00753696
0.0872634
0.00084871
0.0387827
0.0522366
0.00682153
0.0468924
0.0325111
0.044107
0.0406562
0.043034
0.0500598
0.0043119
0.00056983
0.0433969
0.0794275
-0.0870158
0.48951
0.0426614
0.0684004
0.0216961
0.190054
0.027527
-0.181786
-0.0373267
0.0415495
0.0204242
0.0636929
0.171353
0.0458658
0.0625519
0.0750821
0.0411168
-0.0897419
-0.00632855
0.0458794
0.0221003
-0.0360703
0.0714716
-0.0916662
0.0323707
0.0758648
0.0488233
0.0426334
0.0504211
0.0391938
-0.0765651
-0.00054018
-0.0670075
0.0444443
-0.0876615
0.0257607
0.000866005
0.10575
0.0206212
0.0231736
-0.0572625
0.0322901
0.0310613
0.00347443
0.0664739
0.0219067
0.00603281
0.0646724
-0.0916956
0.0809234
0.0304691
0.0852565
0.0443184
0.109878
-0.000587263
0.097805
0.04798
-0.038555
0.0433964
0.0296952
0.00520657
-0.00120679
0.0519616
0.00401241
0.0416484
0.50433
0.0498859
0.00327699
0.0863515
-0.000236427
0.00492711
0.0441231
0.0270861
0.0430928
0.461961
0.0434755
0.0432541
0.0426997
-0.016631
0.0376562
0.0396548
-0.0121516
0.0233
0.059
0.0378557
0.0430785
0.102783
0.0414578
0.0992571
0.00464172
0.0808133
0.0361246
0.0360089
0.0216952
-0.0165646
0.0064599
0.0381161
0.527161
0.0434502
0.0431612
0.0502691
-0.137718
0.0479709
0.0254844
0.0754805
0.0478787
0.0357922
0.000642595
-0.0254904
0.0293041
-0.0489598
0.0488114
0.0396138
0.0105513
0.0151742
-0.000753389
0.0459155
0.0200666
0.0666913
0.189898
0.0320762
0.0433225
0.0405505
0.174075
0.0438324
0.043839
-0.0389586
0.0279675
-0.0432372
0.0357932
0.0429441
0.184533
-0.0163695
0.0381069
0.0492089
0.0413532
-0.11288
0.0438379
0.029715
-0.0298576
0.0438425
0.0430665
0.00657235
0.0426407
0.0438509
0.00974958
0.047361
0.0431743
0.0180113
0.042772
-0.015253
0.0429311
0.0547336
0.115473
0.00576325
0.0438556
0.00260358
-0.174276
0.0356354
0.069028
0.0411515
0.0302003
0.0416993
-0.0201908
-0.00807035
0.0400584
0.0430591
0.127819
0.0255375
0.0115301
0.00771161
0.125276
0.0426693
0.00337124
0.0430401
-0.0221339
-0.00851008
-0.00637997
0.00544092
0.151186
-0.0907662
0.00356233
0.0067407
0.0440406
0.0463673
-0.00134789
0.13138
0.0937009
0.0279504
-0.0751821
0.042444
-0.0664829
0.189148
0.0429477
-0.0101979
-0.0218284
0.0757088
0.00523376
0.00405717
0.0674041
0.04324
-0.0149915
-0.0677998
0.253482
0.048995
0.0012175
-0.0332611
0.138174
0.045406
0.0430493
0.0040738
-0.0552667
0.0367038
0.0651352
0.0433241
0.0426623
0.052815
0.0486659
0.0210521
0.0495462
0.043003
-0.0185314
0.0300414
-0.0285381
0.0118074
0.0433712
0.0430942
0.138593
0.0485221
0.0752712
0.0569862
-0.0488144
0.0763122
0.0424413
-0.0258695
0.0530701
0.0431242
0.0227403
0.0350015
0.03536
0.0905509
0.0211412
-0.146464
0.036821
0.0430222
-0.0295457
0.0426525
-0.00890446
0.0267285
-0.0285532
-0.050848
0.0911595
-0.0338443
0.043416
-0.0113399
0.0475533
0.0668194
-0.0258557
0.0164533
-0.0260033
-0.0665884
0.16816
-0.0139913
0.0606556
0.0424255
0.0429981
0.0426285
-0.0340309
0.135958
0.0424788
-0.0176421
-0.0217131
0.0110611
6.10378e-05
0.0229839
0.104977
-0.0310313
0.0489247
0.00895831
0.0212034
0.0436907
0.0437144
0.0452664
0.0488459
0.00731705
0.043279
0.0464706
0.0500983
0.0687769
0.000263028
0.0431241
-0.0216022
0.0429311
0.00117125
0.0110505
0.0456884
0.0383567
-0.00111287
-0.0225775
0.0314912
0.0735599
0.0485483
0.0225511
0.0276206
0.0431077
0.0476074
0.0481607
0.0457594
0.0431279
0.0644702
0.0431101
0.120989
0.00978099
-0.0934689
0.0431922
0.0541016
0.043321
0.043592
0.117348
0.053422
0.0426595
0.311165
0.129497
0.0334606
0.0595705
0.0348565
0.115551
0.014645
0.00577964
0.0520367
0.050011
0.0430524
0.0448085
-0.014039
0.0427383
0.0453293
0.118953
0.0458865
0.0476146
0.0225236
0.0432373
-0.0378898
0.0432291
0.0452645
0.00553981
0.00626977
-0.0729788
0.106213
0.0653746
0.0455481
0.0045812
0.0454728
0.0216265
0.00231675
0.0498614
-0.0305623
0.0439195
0.0223932
0.0648691
0.0485808
0.0966149
0.0431507
0.0497878
0.0430236
0.0254689
0.0426251
0.049537
0.0200514
0.0398357
0.0653602
0.0229871
0.0430915
0.0233159
0.00921691
0.0497799
0.00573908
-0.0160741
0.0430556
0.0265858
0.10611
0.000421274
0.0508288
0.0395076
0.0395772
0.0208398
0.05148
0.146388
0.0489575
0.0434906
0.0435184
-0.0226369
-0.0113245
-0.0241287
0.277136
0.0962292
0.0467968
0.0217881
0.00784136
0.0438739
-0.0602089
0.0480297
0.100485
-0.000506188
0.0453275
0.139359
-0.0111981
-0.0187225
0.0189133
0.0254653
0.0437646
0.0425407
0.0568626
0.0430802
0.0430659
0.132245
0.0460079
0.0585532
0.0424831
0.0326995
0.0409944
0.361728
0.035158
0.0377579
-0.0117116
0.0987878
0.0899577
0.0301966
0.104188
0.0435511
0.0417725
0.00260108
0.0686962
0.119514
0.0448884
-0.000743778
0.03606
0.04652
0.0464152
0.0432684
0.0606058
0.0352627
0.0436328
0.0262924
0.25223
0.0437615
0.00865526
0.0273091
0.0430531
0.0575522
0.0461681
0.0237053
0.0433664
0.0432025
0.0105131
0.0255106
0.0862133
0.136775
-0.231018
0.049681
0.0592493
-0.0403548
0.028868
0.0460942
0.0361155
-0.000977384
0.0431509
0.0472517
0.0430473
0.0261776
0.0607576
0.0142951
0.0431173
0.0555325
0.0291433
0.0484411
0.114801
0.0395225
0.0428092
0.0431192
0.0254742
0.0186764
0.302961
0.0548009
0.0774191
0.00366393
0.00225875
0.0429714
0.0944878
0.0431326
0.0431146
0.0437008
-0.00497207
0.0489103
0.0309617
0.00466236
0.0163548
0.00353594
0.0262235
0.0600488
0.108942
0.0410664
0.00831143
0.0865151
0.0285236
0.123165
0.0476103
-0.159905
0.13803
0.130027
0.0424948
-0.11552
0.00312208
0.00508216
0.131993
-0.000326569
0.0534036
0.050338
0.0328118
0.0303667
0.027493
0.206693
0.069663
0.0479762
0.0109282
0.0483643
0.0304534
0.0194326
0.0885425
0.0306406
0.0631055
0.078918
0.00381888
0.091367
0.0271631
0.0440181
0.0544858
0.0431388
0.0409566
0.0416936
0.0484049
0.01569
-0.0502704
0.0429802
0.161083
0.0423091
0.0350735
0.00600775
0.0262267
0.0293008
0.0414567
0.00492782
0.00898514
0.245369
0.0431482
0.00640148
0.0318671
0.00637045
0.0437152
0.0433395
0.146506
0.0196378
0.0276347
-0.126295
0.0227939
0.0349816
0.132032
0.0104358
0.116122
0.0496795
0.0140156
0.0319305
0.0398691
-0.029429
0.00478253
0.0162168
0.0288797
0.0425885
0.00384568
0.0035758
-0.00104645
0.0340249
0.0328826
0.413051
-0.0419208
0.0422489
-0.0147647
0.0159873
-0.109104
0.0430218
0.0279213
0.0282914
0.0429913
0.00168875
0.0228915
0.047546
-0.000135821
-0.024692
-0.00178755
0.0501246
0.0198655
0.0437575
0.0388305
-0.0282913
0.0778035
0.0232382
0.00455554
0.142507
0.0206886
0.0159889
0.0174661
0.00494271
-0.0293484
0.0415025
0.0177328
0.0120083
0.0880448
0.272382
0.010176
0.0306609
0.0156466
0.0430158
0.0879139
0.0273603
0.00634192
0.0428969
0.0307565
0.00414721
0.0106699
0.143802
0.0077788
0.0245682
0.0254906
0.0486385
0.00113278
0.0220564
0.0697133
0.0541413
0.050228
0.00756372
0.0313328
0.0367401
0.0330928
0.0433057
0.00394152
0.0576748
0.024985
-0.00397121
-0.0476932
0.0377163
0.022719
0.0130467
0.0199273
0.0431439
0.0947837
0.0943384
0.0680604
0.0436943
0.224842
0.00447398
0.0488741
0.084794
0.0425719
0.0519008
0.0279381
0.0225573
0.0503414
-0.105652
0.0446353
0.0540402
0.037604
-0.0140148
-0.0326295
-0.000499335
0.0577761
0.00659127
0.0437328
0.0251467
0.0698642
0.0446632
0.145013
0.0136068
0.0237851
0.00574904
0.061355
0.0179419
0.0336733
0.04277
0.0428649
0.0423805
0.0580816
0.119021
0.0119685
0.142473
0.0789228
0.0849873
0.0453187
0.0647059
0.00469352
0.0431938
-0.0253613
-0.0202351
0.0465478
0.0430922
0.0342746
0.0412312
0.042863
0.0597954
0.0293753
0.126963
0.012741
0.0312189
0.0839139
-0.0122917
0.00364495
0.0817738
0.00947201
0.0196105
0.0661088
0.0426525
0.0574011
0.023007
0.117505
0.124205
0.215304
0.0429114
0.122123
0.0286068
0.0273931
0.0994443
0.102564
0.0946063
-0.0262288
0.0172688
0.0632108
0.0169045
0.0340814
0.0414743
0.0861938
0.0425118
0.0131054
-0.030855
0.0541052
-0.0277475
0.042132
0.0791161
0.0492813
0.0256481
0.0974526
0.158903
0.0178082
0.0380737
0.0132008
0.0291177
0.0673524
-2.84787e-06
0.077752
-0.00344301
0.042925
0.0174505
-0.145176
0.0946345
0.0308261
-0.0428977
0.00738996
0.0367271
0.0419506
0.0995452
0.088414
0.0293693
0.0526489
0.0449209
0.00396659
0.0384954
0.00183027
0.0764247
0.0316106
0.136638
0.0429162
0.0397304
-0.000892438
0.0321833
0.0326052
0.0609231
0.0512044
0.0251448
0.163092
0.10301
0.0427227
0.00311481
0.0385476
0.042702
0.129305
0.0425945
0.0176838
0.0204617
0.0424718
0.0426293
0.0468415
0.00532097
0.0560901
0.092644
0.0242501
0.124673
0.028667
0.0289274
0.0328052
0.0738841
0.043173
0.0346454
0.0320585
0.0222427
-0.0227029
0.00657795
0.0612656
0.0403037
0.0503446
0.0267783
0.0375198
0.055867
0.0163298
0.101199
0.0280607
0.042729
0.00603137
0.0821753
0.00523532
0.0429449
0.130773
-0.025584
0.0400204
0.0931614
0.00388694
0.0476152
0.0918991
0.00100165
0.0845226
0.109222
0.00203044
0.0435794
0.0743245
0.0712251
0.010888
0.0400337
0.0264425
0.0428785
0.0428709
0.0426799
0.00999128
0.0139054
0.0171092
0.0777813
-0.0653358
0.16402
-0.0635338
0.0238716
0.0385874
-0.0420089
0.0459476
-0.102189
0.028207
0.0190509
0.0144865
0.0242288
0.0600399
0.03544
0.0282448
0.0486073
0.0429136
0.0730712
-0.0387351
0.010081
0.00439698
0.0133794
0.046849
0.0238679
0.0129648
0.0490755
0.0201808
0.0331905
0.114525
0.0809372
0.0761345
0.088191
-0.00192488
-0.000243232
0.0040269
0.0187565
-0.00545305
0.0108346
0.053402
0.0389435
0.126188
0.0691826
0.00449526
0.0433485
0.0909177
0.121893
0.0690122
0.0747799
0.0515645
0.0133763
0.109572
0.0240127
0.0203419
0.029621
0.0284707
0.0420893
0.0239614
0.0255709
0.0483521
0.0162205
0.0253917
0.0384964
0.0996914
0.0384291
0.0366464
0.0707412
0.0505515
0.0423781
0.0454461
0.00130263
0.0125629
0.0438739
0.0671453
-0.0532262
0.00449537
0.0506136
0.0153716
-0.0199742
-0.0417841
-0.00679523
0.0284302
0.0290361
0.0496157
0.0287617
0.0221254
-0.000371538
-0.00142033
0.000344896
0.000467429
0.0297054
0.0419002
0.0416288
0.124334
0.0570217
0.030785
0.0327933
-0.000464225
0.0393054
0.0232262
0.144367
0.0823452
0.00854552
0.0486251
0.0128867
0.0425353
0.0059758
0.00048322
0.0228727
0.0426618
0.0538628
0.161861
0.0359952
0.0840407
-0.017367
0.0430138
0.0298953
0.0892016
0.0962719
0.0651591
0.044005
0.0396719
0.040788
0.0436286
0.042733
0.0363388
0.00493531
0.0426235
0.0513053
0.048167
-0.333298
0.114828
0.0408233
0.042903
0.00804637
0.0130561
0.0201791
0.0719905
0.0138024
0.0420972
0.0365153
0.00294266
0.0435439
0.00998143
0.087921
0.0663076
0.0413048
0.00893449
0.0432727
0.0346148
0.0326432
0.0359306
-0.00427321
0.054699
0.0302482
0.0286492
0.10594
0.076639
0.04252
0.0430541
0.0309878
0.0281966
0.0105083
0.0156195
0.0351109
0.00501913
0.075135
0.0436683
0.0323389
0.00407984
0.0337567
0.0802209
0.0584091
0.0461157
0.146596
0.0183969
0.120738
0.135201
0.0234378
-0.00257652
5.28564e-06
0.120724
0.0341179
0.00353224
0.0693962
0.031288
0.0163974
0.0847441
0.0674072
0.0455174
0.00157785
0.0277472
0.0231661
0.0357123
0.00398108
0.0449172
0.0754521
0.0447178
0.0523638
0.0812679
0.0494111
0.0368634
0.101512
0.00527543
0.086399
0.0237501
0.0673405
0.00632735
0.056552
0.00916974
0.0443777
0.0255141
0.00716559
0.0626934
0.0238423
0.0443322
0.037199
0.0112898
0.0413766
0.0300994
0.0513166
0.0315545
0.0183006
-0.00227547
0.090639
0.0995642
0.095774
0.0362873
0.0350982
0.029919
0.0150176
0.0242236
0.0433738
0.0490029
0.0653375
0.0202291
0.0536389
0.00283878
0.0261879
0.052047
0.0283919
0.0276655
0.0391279
0.02489
0.032482
0.129179
0.252728
0.0188196
0.0202851
0.0221122
0.0271649
0.0317827
0.0305859
0.0284166
0.0198998
0.0097392
0.041639
0.0428843
0.0418814
0.00448724
0.0429908
0.0252884
0.0370452
0.0269464
0.0545315
0.0290491
0.118192
-0.008836
0.0425678
0.0310006
0.0862684
0.0366723
0.0556747
0.0849616
0.048017
0.0428467
0.0262095
0.00195768
0.0820088
0.00146893
0.110611
0.0790733
0.00230465
0.0579923
0.0634775
0.00660936
0.0378831
0.0426946
0.0443299
0.0314213
0.0424043
0.0274836
-0.0378911
0.0415737
0.0749825
0.0382428
0.0571293
0.0578589
0.155969
0.049348
0.0370899
0.00347687
0.00997523
0.0823415
0.0273824
0.0786039
0.044242
0.0327796
0.0599949
0.0409581
0.0284222
0.0436736
0.0442781
0.0265757
0.0423741
0.0298138
0.056808
0.0761447
0.01051
0.0421338
0.00486612
-0.000488088
0.0626418
0.0560459
0.0454325
0.063253
0.127086
0.0428702
0.0357141
0.0414103
0.0555738
0.0335401
0.0304736
0.0338493
0.0687734
0.0783903
0.0280197
0.0742395
0.0854259
0.0550267
0.103198
0.0526253
0.0734669
0.0234418
0.0374138
0.0161806
0.0437678
0.0596293
0.0446292
0.0782805
0.000952399
0.0498746
-0.0138642
0.0387405
0.0228774
0.112973
0.0057074
0.0415544
0.0425398
0.00226575
0.102357
0.0237439
0.0256897
0.0108444
0.0398747
0.0771914
0.0326519
0.0412693
0.0311882
0.0064138
0.037043
0.0352949
0.386297
0.0338002
0.0446722
0.0539708
0.059418
0.0377676
0.0270525
0.042896
0.0970476
0.0384482
0.0428769
0.00934757
0.0317927
0.0241618
0.0362979
0.0580002
0.0366057
0.0394039
0.0387492
0.0289922
0.0750153
0.0429173
0.0338163
0.0527294
0.0404724
0.0341847
0.0494628
0.0497835
0.0543539
0.0548414
0.043003
0.0380727
0.0454089
0.02506
-0.00174932
-0.00075537
0.14142
0.0696804
-0.0119212
0.0259093
0.0424886
0.0458927
0.0531641
0.0689128
0.043359
0.0233081
0.0709077
0.0518646
0.0221343
-0.0110353
0.0176889
0.0423566
0.0323386
0.0427241
0.0888137
0.228143
0.0340368
0.0519951
0.0386901
0.00440337
0.042549
0.0674092
0.0241783
0.039978
0.0435226
0.0284975
0.0918058
0.034026
0.0513379
0.0218382
0.0371759
0.0383125
0.0829486
0.0557268
0.03498
0.0452582
0.0336603
0.0490162
0.032978
0.0432704
0.0346576
0.0425377
0.0491376
0.00839459
0.0633706
0.0121335
0.068853
0.0688613
0.047411
0.0334244
0.0303604
0.0721501
0.0871248
0.00774328
0.0363287
0.0526347
0.0529861
0.0350998
0.041526
0.0385934
0.0330219
0.0243232
0.0242599
0.0387696
0.0118187
0.0339644
0.0743264
0.035767
0.0378443
0.0352682
0.0203133
0.0789672
0.0484768
-0.000606901
0.0337553
0.0356478
0.00655235
0.0460526
0.000325178
0.0454564
0.036169
0.0414461
0.0412775
0.0439381
0.0372227
0.00280549
0.0428911
0.01678
0.0669422
0.0455779
0.052661
0.0280979
0.0910036
0.0554439
0.043375
0.0299819
-0.0682278
0.0430672
0.00376464
-0.0825721
0.0606448
0.0803681
0.0470343
0.0362579
0.0260914
0.0664991
0.0534873
0.0432986
0.0874656
0.0084265
0.0768843
0.0429343
0.0422312
0.038164
0.0389291
0.0395412
0.0608941
0.0720228
0.040935
-0.00162358
0.0400287
0.0475264
0.0366228
0.0284237
0.000246291
0.0423587
0.0363853
0.0198081
0.0364355
0.0411565
0.0455537
0.122882
0.0687781
0.0434533
0.0575161
0.0479209
0.036341
0.0707703
0.0543979
0.038683
0.0577347
0.0315801
0.0575568
0.0801155
-0.000736785
0.0197287
0.0435553
0.0650358
0.0415433
0.0457053
0.0445146
0.0370435
0.000616685
0.000283347
0.0534567
0.0280381
0.0299093
0.0243946
0.0421809
0.0416089
0.043468
0.0664426
0.0296308
0.0429724
0.0362425
0.0487214
0.0184846
0.00666737
0.0430288
0.0424872
0.03118
0.0427476
0.0415922
0.0374015
0.0396323
0.0344676
0.0607557
0.056613
0.0297929
0.0409227
0.0471704
0.0534788
0.0364501
0.042909
0.0377344
0.0260806
0.000329515
0.00389083
0.0302446
0.118546
0.0369161
-0.0617038
0.0833857
0.0362707
0.0349572
0.0479076
0.0428555
0.0430384
0.0496667
0.0514181
0.0360251
0.0448364
0.0420992
0.0914729
0.0034906
0.0291407
0.0431754
0.0492203
0.0573668
0.0650549
0.0276504
0.0455196
0.042824
0.0414002
0.0372755
0.0255329
0.0229051
0.00287843
0.0564761
0.0413801
0.0332874
0.0506917
0.0478091
0.0470721
0.0402299
0.0526461
0.0429955
0.0123647
-0.00266272
0.0420388
0.0611338
0.0358374
0.0391554
0.0407681
0.0444591
-0.0477766
0.0582146
-0.000851121
0.0379886
0.00506983
0.0464943
0.0655631
0.123133
0.0496645
0.0432206
0.0257463
0.0175663
0.106045
0.0360796
0.0614529
0.0394247
0.0425257
0.0600675
0.0405747
0.117135
0.000171098
0.0740365
0.0465531
0.0420215
0.0429644
0.0417013
-0.0289792
0.0332009
0.0423929
0.0503698