/*--------------------------------*- C++ -*----------------------------------*\
  =========                 |
  \\      /  F ield         | OpenFOAM: The Open Source CFD Toolbox
   \\    /   O peration     | Website:  https://openfoam.org
    \\  /    A nd           | Version:  7
     \\/     M anipulation  |
\*---------------------------------------------------------------------------*/
FoamFile
{
    version     2.0;
    format      ascii;
    class       volVectorField;
    location    "4.5";
    object      U;
}
// * * * * * * * * * * * * * * * * * * * * * * * * * * * * * * * * * * * * * //

dimensions      [0 1 -1 0 0 0 0];

internalField   nonuniform List<vector> 
2413
(
(1.3325 0.0305113 0)
(1.33263 0.030143 0)
(1.33161 0.0295612 0)
(1.32964 0.028812 0)
(1.32947 0.0283532 0)
(1.32992 0.0281026 0)
(1.33051 0.0277598 0)
(1.33116 0.0274065 0)
(1.33164 0.0271985 0)
(1.33206 0.0270847 0)
(1.33242 0.0270099 0)
(1.33263 0.0269726 0)
(1.33222 0.0269509 0)
(1.33072 0.0268584 0)
(1.33006 0.0266928 0)
(1.33036 0.0265441 0)
(1.33075 0.026341 0)
(1.33125 0.0259716 0)
(1.33208 0.0254513 0)
(1.33399 0.0246437 0)
(1.33604 0.0236848 0)
(1.33661 0.0231361 0)
(1.33694 0.0226452 0)
(1.33695 0.0221108 0)
(1.33647 0.0216698 0)
(1.33637 0.0214677 0)
(1.33669 0.0214295 0)
(1.33706 0.021438 0)
(1.33747 0.0214688 0)
(1.33788 0.0215377 0)
(1.33828 0.021621 0)
(1.33865 0.0216766 0)
(1.33887 0.0216838 0)
(1.33842 0.0215477 0)
(1.33742 0.0211301 0)
(1.33745 0.0206762 0)
(1.3379 0.0202602 0)
(1.33852 0.0196158 0)
(1.33906 0.0190661 0)
(1.33949 0.0188398 0)
(1.33987 0.0187255 0)
(1.34013 0.0186559 0)
(1.33986 0.0186527 0)
(1.33879 0.0186837 0)
(1.33848 0.0186375 0)
(1.33885 0.0185736 0)
(1.33928 0.0185139 0)
(1.33977 0.0184084 0)
(1.3407 0.0182078 0)
(1.34264 0.017802 0)
(1.34407 0.017368 0)
(1.34458 0.0170678 0)
(1.3451 0.016625 0)
(1.34544 0.0158784 0)
(1.34545 0.0151303 0)
(1.34546 0.0147826 0)
(1.34571 0.0147353 0)
(1.34604 0.0147633 0)
(1.34637 0.014825 0)
(1.34669 0.0149131 0)
(1.34693 0.0149957 0)
(1.34692 0.015004 0)
(1.3468 0.0148387 0)
(1.34713 0.0146272 0)
(1.34754 0.0144164 0)
(1.34794 0.0142038 0)
(1.34832 0.0140743 0)
(1.3487 0.0140261 0)
(1.34906 0.0140271 0)
(1.34935 0.0140722 0)
(1.34941 0.0141943 0)
(1.34871 0.014469 0)
(1.34744 0.0148928 0)
(1.34717 0.0152884 0)
(1.34737 0.0156208 0)
(1.34765 0.0159723 0)
(1.34806 0.0162866 0)
(1.3487 0.0164783 0)
(1.34996 0.016658 0)
(1.35117 0.0167631 0)
(1.35165 0.0168743 0)
(1.35207 0.0168923 0)
(1.35261 0.0169696 0)
(1.31645 0.0528223 0)
(1.31667 0.0527683 0)
(1.3164 0.0524394 0)
(1.31583 0.0516378 0)
(1.31607 0.0508596 0)
(1.31664 0.0500446 0)
(1.31719 0.0492275 0)
(1.31759 0.0487402 0)
(1.31791 0.0484289 0)
(1.31803 0.0481943 0)
(1.31785 0.0479961 0)
(1.31783 0.0478129 0)
(1.31819 0.0476959 0)
(1.3186 0.0475906 0)
(1.3191 0.0474342 0)
(1.32002 0.0471711 0)
(1.32144 0.0466267 0)
(1.32239 0.0459283 0)
(1.32292 0.0452484 0)
(1.32333 0.0444771 0)
(1.32344 0.043663 0)
(1.32263 0.0428278 0)
(1.32106 0.0421143 0)
(1.32101 0.0417741 0)
(1.32145 0.0416052 0)
(1.32191 0.0414434 0)
(1.32234 0.0414165 0)
(1.32275 0.0414292 0)
(1.32314 0.0414775 0)
(1.32338 0.0415612 0)
(1.32298 0.0416579 0)
(1.32172 0.041656 0)
(1.32141 0.0414822 0)
(1.32175 0.0412684 0)
(1.32217 0.0409423 0)
(1.32278 0.0404188 0)
(1.32372 0.0395774 0)
(1.32431 0.0388123 0)
(1.32467 0.0382425 0)
(1.32467 0.0376589 0)
(1.32433 0.0370595 0)
(1.32454 0.0367039 0)
(1.32498 0.036526 0)
(1.32551 0.0363451 0)
(1.32654 0.0361377 0)
(1.32807 0.0358849 0)
(1.32885 0.0356537 0)
(1.32928 0.0354578 0)
(1.32971 0.0351751 0)
(1.33005 0.0347708 0)
(1.33016 0.0342507 0)
(1.32941 0.0335477 0)
(1.32831 0.0328241 0)
(1.32848 0.0324478 0)
(1.3289 0.0321861 0)
(1.32934 0.0319312 0)
(1.32974 0.0317355 0)
(1.33011 0.0315893 0)
(1.33045 0.031483 0)
(1.33074 0.0314119 0)
(1.33086 0.0313811 0)
(1.33032 0.0314378 0)
(1.32888 0.0316487 0)
(1.32839 0.0317581 0)
(1.32871 0.0317554 0)
(1.32909 0.0317187 0)
(1.32949 0.0316164 0)
(1.32994 0.0314149 0)
(1.33079 0.0309363 0)
(1.33175 0.0301136 0)
(1.33226 0.0294749 0)
(1.33272 0.0289295 0)
(1.33318 0.0284855 0)
(1.33369 0.0282077 0)
(1.33431 0.0280211 0)
(1.33496 0.0278874 0)
(1.33543 0.0278631 0)
(1.33585 0.027874 0)
(1.33625 0.0278865 0)
(1.33665 0.0278981 0)
(1.33702 0.0278936 0)
(1.33721 0.0278257 0)
(1.33674 0.0275598 0)
(1.336 0.0269763 0)
(1.33617 0.026403 0)
(1.33663 0.0258688 0)
(1.3373 0.0252648 0)
(1.33797 0.0247974 0)
(1.33844 0.0246331 0)
(1.33887 0.0245774 0)
(1.33926 0.0245477 0)
(1.33949 0.0245702 0)
(1.3392 0.0247098 0)
(1.33823 0.0249198 0)
(1.338 0.0250159 0)
(1.33838 0.0250239 0)
(1.33881 0.0250116 0)
(1.3393 0.024933 0)
(1.34018 0.0246554 0)
(1.3417 0.0240184 0)
(1.34265 0.0234202 0)
(1.34327 0.022985 0)
(1.34386 0.0225719 0)
(1.34428 0.0223833 0)
(1.34467 0.0223421 0)
(1.34504 0.0223424 0)
(1.3454 0.0223795 0)
(1.34573 0.0224473 0)
(1.346 0.0225204 0)
(1.34599 0.0225685 0)
(1.34537 0.0225349 0)
(1.34508 0.0224338 0)
(1.34538 0.0223534 0)
(1.34577 0.0222901 0)
(1.34621 0.0222058 0)
(1.34674 0.0220911 0)
(1.34717 0.0220304 0)
(1.34757 0.0220291 0)
(1.34795 0.0220534 0)
(1.34825 0.0221588 0)
(1.34827 0.0224411 0)
(1.34746 0.0230208 0)
(1.34621 0.0237596 0)
(1.34599 0.0242798 0)
(1.34624 0.0245987 0)
(1.34664 0.0248326 0)
(1.34716 0.0250183 0)
(1.34803 0.0251677 0)
(1.34935 0.0251876 0)
(1.35009 0.025271 0)
(1.35049 0.0252735 0)
(1.3511 0.025352 0)
(1.3145 0.0556958 0)
(1.31484 0.0554245 0)
(1.3147 0.0549367 0)
(1.31379 0.0540889 0)
(1.31374 0.0533324 0)
(1.31426 0.0527542 0)
(1.3149 0.0521026 0)
(1.31533 0.0518094 0)
(1.31571 0.0516982 0)
(1.31603 0.0516456 0)
(1.31625 0.0516766 0)
(1.31625 0.0517934 0)
(1.31575 0.0518861 0)
(1.31539 0.0518289 0)
(1.31572 0.0517238 0)
(1.31615 0.0515466 0)
(1.31671 0.0511616 0)
(1.31761 0.0505439 0)
(1.31893 0.0495183 0)
(1.3198 0.0484356 0)
(1.32017 0.0475814 0)
(1.32018 0.0467914 0)
(1.31949 0.0460916 0)
(1.31929 0.0457391 0)
(1.31967 0.0456315 0)
(1.32006 0.0455366 0)
(1.32044 0.0455133 0)
(1.32081 0.0455143 0)
(1.32115 0.0455024 0)
(1.32131 0.045424 0)
(1.32073 0.0452318 0)
(1.31996 0.0450175 0)
(1.32017 0.0448681 0)
(1.32057 0.0446741 0)
(1.32112 0.0442499 0)
(1.32187 0.0435503 0)
(1.3224 0.042912 0)
(1.32277 0.0425014 0)
(1.32296 0.042232 0)
(1.32264 0.0420659 0)
(1.32182 0.0420536 0)
(1.3218 0.0421323 0)
(1.32215 0.0421938 0)
(1.32254 0.0422752 0)
(1.32312 0.042331 0)
(1.32422 0.0422283 0)
(1.32503 0.0419864 0)
(1.32548 0.0417552 0)
(1.32588 0.0414486 0)
(1.32609 0.0409449 0)
(1.32608 0.0400889 0)
(1.32636 0.0393095 0)
(1.32676 0.0388305 0)
(1.32713 0.0385363 0)
(1.32747 0.0383268 0)
(1.32775 0.0381541 0)
(1.32786 0.037988 0)
(1.32758 0.0377617 0)
(1.32725 0.0374787 0)
(1.32731 0.0372239 0)
(1.3275 0.0370185 0)
(1.32774 0.0368535 0)
(1.32806 0.0368488 0)
(1.32844 0.0369602 0)
(1.32889 0.0370098 0)
(1.32932 0.0369704 0)
(1.32976 0.0368081 0)
(1.33013 0.036573 0)
(1.33029 0.0363321 0)
(1.33001 0.0360526 0)
(1.32982 0.0357532 0)
(1.33011 0.0355615 0)
(1.33051 0.0354152 0)
(1.33098 0.0352359 0)
(1.33165 0.0350327 0)
(1.33292 0.0348302 0)
(1.33404 0.0347453 0)
(1.3345 0.0347424 0)
(1.33495 0.0347466 0)
(1.33537 0.0347324 0)
(1.3358 0.0346459 0)
(1.33617 0.0344153 0)
(1.33624 0.0340055 0)
(1.33548 0.0333822 0)
(1.33467 0.0326684 0)
(1.33491 0.0322637 0)
(1.33534 0.031994 0)
(1.33602 0.0316992 0)
(1.33712 0.0313871 0)
(1.33774 0.0311859 0)
(1.33817 0.0310971 0)
(1.33859 0.0310472 0)
(1.33899 0.0310247 0)
(1.33926 0.0310991 0)
(1.33918 0.0312893 0)
(1.33859 0.0314431 0)
(1.33841 0.0314392 0)
(1.33875 0.0313506 0)
(1.33915 0.031204 0)
(1.33958 0.0309106 0)
(1.34011 0.0305858 0)
(1.34082 0.0303452 0)
(1.34212 0.0301644 0)
(1.34316 0.0301302 0)
(1.34358 0.0301823 0)
(1.34402 0.0302577 0)
(1.34441 0.0303605 0)
(1.34477 0.0304753 0)
(1.34506 0.0305958 0)
(1.34512 0.0307366 0)
(1.34436 0.0309162 0)
(1.34301 0.0310431 0)
(1.34289 0.031057 0)
(1.34322 0.0310497 0)
(1.34362 0.0310498 0)
(1.34405 0.0310425 0)
(1.34453 0.0310644 0)
(1.34498 0.031154 0)
(1.34536 0.0312894 0)
(1.3457 0.0315161 0)
(1.34594 0.0318336 0)
(1.3459 0.0322514 0)
(1.34512 0.0327969 0)
(1.34441 0.033259 0)
(1.34459 0.0334845 0)
(1.34498 0.0335905 0)
(1.34545 0.0337082 0)
(1.34601 0.0337704 0)
(1.34683 0.0337561 0)
(1.34774 0.0336935 0)
(1.34822 0.0336292 0)
(1.34869 0.0336599 0)
(1.31146 0.0601104 0)
(1.31167 0.0595185 0)
(1.31156 0.058604 0)
(1.31148 0.057588 0)
(1.31179 0.0568656 0)
(1.31229 0.0563308 0)
(1.31306 0.055874 0)
(1.31386 0.0556292 0)
(1.31431 0.0556115 0)
(1.3147 0.0556373 0)
(1.31507 0.0556815 0)
(1.31537 0.0557649 0)
(1.31526 0.0559148 0)
(1.31416 0.0560596 0)
(1.31344 0.0559902 0)
(1.31373 0.0558466 0)
(1.31415 0.0556776 0)
(1.31471 0.0553336 0)
(1.3157 0.0545586 0)
(1.31645 0.0535923 0)
(1.3168 0.0528482 0)
(1.3169 0.052218 0)
(1.3168 0.0517973 0)
(1.31686 0.0516629 0)
(1.31712 0.0516531 0)
(1.31743 0.0516781 0)
(1.31773 0.0517194 0)
(1.31797 0.0517565 0)
(1.31788 0.0517335 0)
(1.31716 0.051505 0)
(1.31692 0.0511286 0)
(1.31723 0.0508315 0)
(1.31763 0.0504294 0)
(1.3182 0.049848 0)
(1.31931 0.0490147 0)
(1.32063 0.0480288 0)
(1.32117 0.0475012 0)
(1.32152 0.0472492 0)
(1.32176 0.0470837 0)
(1.32166 0.0470064 0)
(1.32102 0.0471129 0)
(1.32088 0.04734 0)
(1.32122 0.047509 0)
(1.32162 0.0477681 0)
(1.32206 0.0480014 0)
(1.32247 0.0480616 0)
(1.32287 0.0480233 0)
(1.32323 0.047814 0)
(1.32343 0.047335 0)
(1.32358 0.0466143 0)
(1.32398 0.0460798 0)
(1.32458 0.0456301 0)
(1.3252 0.0452058 0)
(1.32564 0.0449874 0)
(1.32602 0.0448639 0)
(1.32633 0.0447822 0)
(1.32642 0.0447425 0)
(1.32567 0.0447497 0)
(1.32425 0.0447139 0)
(1.32414 0.0446506 0)
(1.32449 0.0446182 0)
(1.32487 0.0445579 0)
(1.32552 0.0443864 0)
(1.32704 0.0439327 0)
(1.32874 0.043174 0)
(1.32947 0.0425468 0)
(1.32991 0.0421534 0)
(1.33027 0.0419208 0)
(1.33046 0.0418106 0)
(1.33015 0.0418039 0)
(1.32924 0.0418426 0)
(1.32913 0.0418332 0)
(1.32948 0.0418186 0)
(1.32986 0.0418185 0)
(1.33028 0.0418142 0)
(1.331 0.0417798 0)
(1.33247 0.0416874 0)
(1.3336 0.0415956 0)
(1.33409 0.0415083 0)
(1.33461 0.0413688 0)
(1.33516 0.0410501 0)
(1.33564 0.0406142 0)
(1.33598 0.0402361 0)
(1.33604 0.0399972 0)
(1.33517 0.0399606 0)
(1.3333 0.0399667 0)
(1.3329 0.0398943 0)
(1.33327 0.0398273 0)
(1.33371 0.0396872 0)
(1.33431 0.0394598 0)
(1.33565 0.0391815 0)
(1.33719 0.0389023 0)
(1.33773 0.0387281 0)
(1.33819 0.0386097 0)
(1.3386 0.0384825 0)
(1.33892 0.0384018 0)
(1.33903 0.0383994 0)
(1.33858 0.0384034 0)
(1.33798 0.0383739 0)
(1.33816 0.0383739 0)
(1.3385 0.0383939 0)
(1.33886 0.0384174 0)
(1.33933 0.0384084 0)
(1.34042 0.0383685 0)
(1.34186 0.0384145 0)
(1.34242 0.0385041 0)
(1.34283 0.038579 0)
(1.34322 0.0386489 0)
(1.34358 0.0387208 0)
(1.34385 0.0388228 0)
(1.34377 0.0390011 0)
(1.34259 0.0393119 0)
(1.34068 0.0396062 0)
(1.34037 0.0397448 0)
(1.34067 0.0398248 0)
(1.34104 0.0399113 0)
(1.34142 0.0400628 0)
(1.34181 0.0402706 0)
(1.34224 0.0405546 0)
(1.34266 0.0409225 0)
(1.34301 0.0412487 0)
(1.34331 0.0414948 0)
(1.34348 0.0417402 0)
(1.34328 0.0420504 0)
(1.34261 0.0423426 0)
(1.34243 0.0425144 0)
(1.34279 0.0425926 0)
(1.34323 0.0426232 0)
(1.34367 0.042645 0)
(1.34412 0.0425917 0)
(1.34458 0.042448 0)
(1.34518 0.04238 0)
(1.30903 0.0655224 0)
(1.30884 0.0649548 0)
(1.30805 0.0640582 0)
(1.30783 0.0632008 0)
(1.3082 0.0626546 0)
(1.30872 0.0622189 0)
(1.30966 0.0618102 0)
(1.31147 0.0614044 0)
(1.31285 0.0611722 0)
(1.31325 0.0610935 0)
(1.3136 0.061045 0)
(1.31389 0.0609679 0)
(1.31388 0.0608369 0)
(1.31296 0.0606438 0)
(1.31238 0.060439 0)
(1.3127 0.0602823 0)
(1.31311 0.0600455 0)
(1.31368 0.0595701 0)
(1.31439 0.0588149 0)
(1.31481 0.0581961 0)
(1.31507 0.057803 0)
(1.31514 0.0575438 0)
(1.31512 0.0574233 0)
(1.31523 0.0574202 0)
(1.31549 0.0574841 0)
(1.3158 0.0575768 0)
(1.3161 0.0576825 0)
(1.31636 0.057787 0)
(1.31642 0.0578866 0)
(1.31591 0.0579683 0)
(1.31493 0.057848 0)
(1.31472 0.057461 0)
(1.315 0.0570079 0)
(1.31539 0.056424 0)
(1.31599 0.0557833 0)
(1.31727 0.0550556 0)
(1.31885 0.0543762 0)
(1.31939 0.0540997 0)
(1.3197 0.0539259 0)
(1.31972 0.0537148 0)
(1.3198 0.0536537 0)
(1.32011 0.0537003 0)
(1.32047 0.0538368 0)
(1.3209 0.05406 0)
(1.32127 0.0541581 0)
(1.32162 0.0541732 0)
(1.32191 0.0540801 0)
(1.32202 0.0537594 0)
(1.32194 0.0531342 0)
(1.32216 0.052556 0)
(1.32261 0.0521522 0)
(1.32324 0.0517592 0)
(1.32385 0.0514508 0)
(1.32428 0.0513284 0)
(1.32467 0.0512844 0)
(1.32503 0.0512725 0)
(1.32529 0.0513142 0)
(1.32515 0.0514761 0)
(1.32388 0.0518456 0)
(1.32271 0.0522008 0)
(1.32292 0.0523147 0)
(1.32331 0.0523437 0)
(1.32373 0.0522704 0)
(1.32429 0.0518492 0)
(1.32549 0.0510032 0)
(1.32754 0.049915 0)
(1.32858 0.0492999 0)
(1.32894 0.0490856 0)
(1.32925 0.0489223 0)
(1.32923 0.0488261 0)
(1.32865 0.0488266 0)
(1.3285 0.0488798 0)
(1.32884 0.0489119 0)
(1.32921 0.0489323 0)
(1.32961 0.0489503 0)
(1.33007 0.0489458 0)
(1.33098 0.0488272 0)
(1.33242 0.0484653 0)
(1.33327 0.0480486 0)
(1.33387 0.0476648 0)
(1.33452 0.0471738 0)
(1.33502 0.0467655 0)
(1.33542 0.0465653 0)
(1.33572 0.0464724 0)
(1.33571 0.0464903 0)
(1.33455 0.046749 0)
(1.3323 0.047126 0)
(1.33182 0.0473185 0)
(1.33218 0.0474012 0)
(1.33259 0.047467 0)
(1.33305 0.0474657 0)
(1.3337 0.0473055 0)
(1.335 0.0470422 0)
(1.3363 0.0467833 0)
(1.33676 0.0466498 0)
(1.33718 0.0465695 0)
(1.33753 0.0465015 0)
(1.33774 0.0464941 0)
(1.33743 0.0466321 0)
(1.3367 0.0468627 0)
(1.33667 0.0470616 0)
(1.33693 0.0472171 0)
(1.33726 0.0473717 0)
(1.33767 0.0475127 0)
(1.33831 0.0475613 0)
(1.33958 0.0475185 0)
(1.34052 0.0474355 0)
(1.3409 0.0473832 0)
(1.3413 0.0473523 0)
(1.34167 0.047332 0)
(1.34199 0.0473201 0)
(1.34199 0.0473812 0)
(1.34079 0.0476584 0)
(1.33865 0.0480468 0)
(1.33821 0.0483184 0)
(1.33845 0.0485038 0)
(1.33878 0.0486973 0)
(1.33914 0.0489159 0)
(1.33955 0.0491038 0)
(1.34005 0.0492698 0)
(1.34055 0.0493854 0)
(1.34096 0.0494043 0)
(1.34137 0.0494084 0)
(1.34178 0.049419 0)
(1.34208 0.0495398 0)
(1.34216 0.0497939 0)
(1.34185 0.0500915 0)
(1.34121 0.0503408 0)
(1.34125 0.0505031 0)
(1.3417 0.0505806 0)
(1.34212 0.0506861 0)
(1.34268 0.0508098 0)
(1.30788 0.070237 0)
(1.30795 0.0698171 0)
(1.30732 0.0694039 0)
(1.30621 0.0690624 0)
(1.3062 0.0689195 0)
(1.30655 0.0688983 0)
(1.30697 0.0688497 0)
(1.30785 0.06872 0)
(1.30918 0.0684637 0)
(1.30978 0.0682933 0)
(1.31016 0.0681936 0)
(1.3104 0.068012 0)
(1.31034 0.067692 0)
(1.31043 0.0673412 0)
(1.31074 0.0670721 0)
(1.31111 0.0667123 0)
(1.31166 0.0662027 0)
(1.31247 0.0654821 0)
(1.31303 0.0648219 0)
(1.31336 0.0644402 0)
(1.31354 0.0641941 0)
(1.3135 0.064063 0)
(1.31331 0.0640283 0)
(1.31342 0.064019 0)
(1.31374 0.0640226 0)
(1.31407 0.0640315 0)
(1.31442 0.0640301 0)
(1.31477 0.0640069 0)
(1.31512 0.0639603 0)
(1.31541 0.0638896 0)
(1.31544 0.0638125 0)
(1.31481 0.0636484 0)
(1.3141 0.063303 0)
(1.3143 0.0630552 0)
(1.3147 0.0628658 0)
(1.31524 0.0625852 0)
(1.31563 0.0623596 0)
(1.31598 0.0621265 0)
(1.31633 0.0619339 0)
(1.31671 0.0618318 0)
(1.31712 0.061773 0)
(1.31761 0.0617136 0)
(1.31847 0.0616501 0)
(1.31942 0.0615469 0)
(1.31993 0.061426 0)
(1.32037 0.0612816 0)
(1.32079 0.060994 0)
(1.32111 0.0605821 0)
(1.32118 0.06011 0)
(1.32089 0.0595267 0)
(1.32094 0.0590598 0)
(1.32133 0.0588103 0)
(1.32185 0.0585434 0)
(1.32261 0.0582752 0)
(1.3231 0.0581345 0)
(1.3235 0.058101 0)
(1.32388 0.0580956 0)
(1.3242 0.0581218 0)
(1.32419 0.0582586 0)
(1.32336 0.0585195 0)
(1.32294 0.0586441 0)
(1.3233 0.0586361 0)
(1.32371 0.0585805 0)
(1.32419 0.0584189 0)
(1.32501 0.0580519 0)
(1.32572 0.0575132 0)
(1.32609 0.0570774 0)
(1.32628 0.0565987 0)
(1.32662 0.0563421 0)
(1.32704 0.056256 0)
(1.32745 0.0562513 0)
(1.32787 0.0563188 0)
(1.32839 0.0564442 0)
(1.32888 0.0565382 0)
(1.3293 0.0565612 0)
(1.32973 0.0565593 0)
(1.33016 0.0564474 0)
(1.33059 0.0560711 0)
(1.33113 0.0555451 0)
(1.33182 0.0550383 0)
(1.33269 0.0545292 0)
(1.33324 0.0541811 0)
(1.33367 0.053989 0)
(1.33402 0.0538609 0)
(1.33429 0.0537696 0)
(1.33423 0.0537421 0)
(1.3331 0.0539327 0)
(1.33153 0.054263 0)
(1.33139 0.0544676 0)
(1.33169 0.0545775 0)
(1.33208 0.0546532 0)
(1.33251 0.0547382 0)
(1.33308 0.0548143 0)
(1.33394 0.0547968 0)
(1.33445 0.0547666 0)
(1.33484 0.0547704 0)
(1.3352 0.0547826 0)
(1.33555 0.0548047 0)
(1.33581 0.0548842 0)
(1.33574 0.0551124 0)
(1.33517 0.0554797 0)
(1.33488 0.0558269 0)
(1.3351 0.056068 0)
(1.33548 0.0562412 0)
(1.33594 0.0564038 0)
(1.33646 0.0564956 0)
(1.33706 0.0564587 0)
(1.33787 0.0563364 0)
(1.33854 0.0561637 0)
(1.33894 0.0560474 0)
(1.33932 0.055962 0)
(1.33963 0.0558876 0)
(1.3397 0.055896 0)
(1.33876 0.0561964 0)
(1.33664 0.0566695 0)
(1.33601 0.0569447 0)
(1.33633 0.0570579 0)
(1.33674 0.0571224 0)
(1.3372 0.0571797 0)
(1.33768 0.0571891 0)
(1.33821 0.0571484 0)
(1.33893 0.0570607 0)
(1.33975 0.0569096 0)
(1.34021 0.0567971 0)
(1.34065 0.0567193 0)
(1.34104 0.0566189 0)
(1.34123 0.0565503 0)
(1.34091 0.0566838 0)
(1.34082 0.056975 0)
(1.34111 0.0572554 0)
(1.34158 0.0574712 0)
(1.34212 0.0578225 0)
(1.30646 0.075945 0)
(1.30678 0.0753348 0)
(1.30685 0.0748631 0)
(1.30639 0.0746223 0)
(1.30584 0.074626 0)
(1.30603 0.0747198 0)
(1.30639 0.0748141 0)
(1.30682 0.0749715 0)
(1.30731 0.0751348 0)
(1.30769 0.0752034 0)
(1.30803 0.0752742 0)
(1.3082 0.0753538 0)
(1.30796 0.0753282 0)
(1.3079 0.0750797 0)
(1.30818 0.0747006 0)
(1.30855 0.0741031 0)
(1.30914 0.073402 0)
(1.31025 0.0726162 0)
(1.31116 0.072046 0)
(1.31152 0.0719049 0)
(1.31183 0.0718445 0)
(1.31197 0.0718406 0)
(1.31162 0.0718716 0)
(1.31105 0.0718364 0)
(1.3112 0.0717516 0)
(1.31154 0.0716678 0)
(1.31193 0.0715349 0)
(1.3126 0.0713535 0)
(1.3136 0.0710158 0)
(1.31422 0.0705922 0)
(1.31464 0.0701511 0)
(1.31493 0.0696844 0)
(1.31503 0.0693686 0)
(1.31494 0.0692108 0)
(1.31475 0.0691525 0)
(1.31465 0.0691555 0)
(1.31458 0.069198 0)
(1.31463 0.0692552 0)
(1.31492 0.069294 0)
(1.31526 0.0693145 0)
(1.31563 0.069316 0)
(1.31603 0.0692701 0)
(1.31654 0.0691426 0)
(1.31743 0.0688945 0)
(1.31869 0.0685251 0)
(1.31947 0.0681835 0)
(1.31996 0.0679159 0)
(1.32038 0.0676054 0)
(1.32066 0.0672781 0)
(1.32062 0.066985 0)
(1.31997 0.066694 0)
(1.31976 0.0664514 0)
(1.32011 0.0663477 0)
(1.32059 0.0661396 0)
(1.32136 0.0658122 0)
(1.32186 0.0655957 0)
(1.32225 0.0654833 0)
(1.32256 0.0653381 0)
(1.32273 0.0651006 0)
(1.32296 0.064884 0)
(1.32335 0.0647859 0)
(1.32379 0.0646715 0)
(1.3243 0.0644267 0)
(1.32485 0.0640521 0)
(1.32526 0.0637641 0)
(1.32553 0.0635605 0)
(1.32542 0.0634122 0)
(1.32505 0.0633393 0)
(1.32528 0.063353 0)
(1.32564 0.0633794 0)
(1.32607 0.063413 0)
(1.32684 0.0634647 0)
(1.32807 0.0635132 0)
(1.32864 0.0634999 0)
(1.32911 0.063486 0)
(1.32956 0.0634566 0)
(1.32992 0.0633753 0)
(1.32985 0.0632331 0)
(1.32921 0.0630112 0)
(1.32916 0.0628256 0)
(1.3295 0.0627046 0)
(1.32986 0.062596 0)
(1.33022 0.0624965 0)
(1.33056 0.0624103 0)
(1.33084 0.0623314 0)
(1.331 0.0622247 0)
(1.33074 0.06208 0)
(1.33029 0.0620484 0)
(1.33028 0.0621493 0)
(1.33052 0.0622688 0)
(1.3309 0.0623499 0)
(1.33128 0.0624389 0)
(1.33168 0.0625685 0)
(1.33205 0.062708 0)
(1.33237 0.0628032 0)
(1.33268 0.0628741 0)
(1.33296 0.0629152 0)
(1.33314 0.0629256 0)
(1.33306 0.0629179 0)
(1.333 0.0629448 0)
(1.33323 0.0630524 0)
(1.33358 0.0632369 0)
(1.33393 0.0635361 0)
(1.33426 0.0638555 0)
(1.33455 0.0641361 0)
(1.33472 0.0643894 0)
(1.33461 0.0646023 0)
(1.3342 0.0646714 0)
(1.33433 0.0646061 0)
(1.33472 0.0645377 0)
(1.33512 0.0644717 0)
(1.33549 0.0644163 0)
(1.33578 0.0643878 0)
(1.33568 0.0644065 0)
(1.33465 0.0645689 0)
(1.33397 0.0648524 0)
(1.3342 0.0650745 0)
(1.33468 0.0651855 0)
(1.33519 0.0652833 0)
(1.33565 0.0653494 0)
(1.33613 0.0653903 0)
(1.3366 0.0654061 0)
(1.337 0.065353 0)
(1.33713 0.0651872 0)
(1.3374 0.0650109 0)
(1.33792 0.0648896 0)
(1.33851 0.0647044 0)
(1.3392 0.0645398 0)
(1.33997 0.064529 0)
(1.34074 0.0645901 0)
(1.34135 0.0646741 0)
(1.34217 0.0649102 0)
(1.30387 0.0835681 0)
(1.30401 0.0827677 0)
(1.30418 0.0820368 0)
(1.30453 0.0816521 0)
(1.30494 0.0814805 0)
(1.30545 0.0814047 0)
(1.30596 0.0814286 0)
(1.30636 0.0815244 0)
(1.30672 0.0816475 0)
(1.30705 0.0817914 0)
(1.30733 0.0819226 0)
(1.30748 0.0820142 0)
(1.30718 0.0819569 0)
(1.30682 0.0816034 0)
(1.30698 0.0811267 0)
(1.30734 0.0806146 0)
(1.30785 0.080164 0)
(1.30874 0.079772 0)
(1.30953 0.0795353 0)
(1.3099 0.0795163 0)
(1.31026 0.0795436 0)
(1.31054 0.0796022 0)
(1.31045 0.0797113 0)
(1.30957 0.079843 0)
(1.30914 0.0798775 0)
(1.30943 0.0798391 0)
(1.30979 0.079755 0)
(1.31022 0.0795091 0)
(1.31088 0.0790193 0)
(1.31213 0.0782006 0)
(1.31316 0.0773712 0)
(1.31355 0.0769323 0)
(1.31385 0.0766283 0)
(1.31397 0.076421 0)
(1.31399 0.076333 0)
(1.31408 0.0763469 0)
(1.31424 0.0764125 0)
(1.3143 0.0764925 0)
(1.31425 0.0765072 0)
(1.31445 0.0764224 0)
(1.31479 0.0762952 0)
(1.31516 0.0760592 0)
(1.31559 0.0757302 0)
(1.31614 0.0753855 0)
(1.31705 0.0749908 0)
(1.31849 0.0745283 0)
(1.31937 0.0742283 0)
(1.31978 0.0740997 0)
(1.32017 0.0739907 0)
(1.32046 0.0738902 0)
(1.3206 0.0738718 0)
(1.32041 0.0739484 0)
(1.31936 0.0739674 0)
(1.31815 0.07379 0)
(1.31823 0.0735793 0)
(1.31864 0.0734157 0)
(1.3191 0.0732217 0)
(1.31963 0.0729979 0)
(1.32035 0.072749 0)
(1.32158 0.072409 0)
(1.3227 0.0720115 0)
(1.32324 0.0717137 0)
(1.3237 0.0714956 0)
(1.32407 0.0713355 0)
(1.32433 0.0712257 0)
(1.32423 0.0711397 0)
(1.32348 0.0710311 0)
(1.32329 0.0709864 0)
(1.32363 0.0709971 0)
(1.32398 0.0710126 0)
(1.3244 0.0710246 0)
(1.32526 0.0710104 0)
(1.32678 0.0708635 0)
(1.3276 0.0706414 0)
(1.32803 0.0704625 0)
(1.32843 0.0702803 0)
(1.32874 0.0701234 0)
(1.32881 0.0700099 0)
(1.32805 0.0700072 0)
(1.32695 0.0701183 0)
(1.32692 0.0702511 0)
(1.32719 0.0703926 0)
(1.32746 0.0705702 0)
(1.32761 0.070769 0)
(1.32739 0.0709205 0)
(1.32667 0.0709176 0)
(1.32656 0.0708159 0)
(1.32689 0.0707579 0)
(1.3273 0.0707446 0)
(1.32772 0.0707526 0)
(1.32818 0.0708183 0)
(1.32863 0.0709548 0)
(1.329 0.0711054 0)
(1.32934 0.0712675 0)
(1.32958 0.0714306 0)
(1.32952 0.0715326 0)
(1.3291 0.0714732 0)
(1.3292 0.0713407 0)
(1.32959 0.0712771 0)
(1.33002 0.0712704 0)
(1.33051 0.0712824 0)
(1.33118 0.07132 0)
(1.33214 0.0714058 0)
(1.3327 0.0714857 0)
(1.33318 0.0715457 0)
(1.33363 0.0715887 0)
(1.33402 0.0716155 0)
(1.33406 0.0716358 0)
(1.33321 0.0716969 0)
(1.33238 0.0717617 0)
(1.33253 0.0718235 0)
(1.33287 0.0718558 0)
(1.33311 0.0718951 0)
(1.33285 0.0719639 0)
(1.33249 0.0720702 0)
(1.33282 0.0721696 0)
(1.33327 0.0722256 0)
(1.33379 0.0722905 0)
(1.33439 0.0723292 0)
(1.33497 0.0723747 0)
(1.33554 0.0724155 0)
(1.33606 0.0724491 0)
(1.33644 0.0725007 0)
(1.33643 0.0725949 0)
(1.33601 0.0726848 0)
(1.3362 0.0726809 0)
(1.33668 0.0726328 0)
(1.3372 0.0725259 0)
(1.33783 0.0724261 0)
(1.33848 0.0722699 0)
(1.33934 0.0722597 0)
(1.34081 0.0717989 0)
(1.30237 0.0913052 0)
(1.30161 0.0909168 0)
(1.3008 0.090521 0)
(1.30103 0.0903275 0)
(1.30145 0.0901662 0)
(1.30209 0.0899674 0)
(1.30345 0.0897684 0)
(1.30485 0.0896475 0)
(1.30531 0.0896032 0)
(1.30566 0.0895844 0)
(1.30598 0.0895286 0)
(1.3061 0.0893485 0)
(1.30581 0.0889029 0)
(1.30573 0.0883181 0)
(1.30603 0.0878339 0)
(1.30646 0.0874684 0)
(1.30704 0.0872126 0)
(1.30787 0.0870075 0)
(1.30838 0.0869028 0)
(1.30874 0.0868718 0)
(1.30906 0.0868339 0)
(1.30922 0.0868046 0)
(1.30887 0.0868327 0)
(1.3085 0.0868722 0)
(1.30866 0.0868803 0)
(1.30898 0.0868382 0)
(1.30936 0.0867459 0)
(1.30978 0.0865412 0)
(1.31016 0.0862303 0)
(1.31035 0.0857372 0)
(1.31047 0.0850301 0)
(1.31089 0.0846119 0)
(1.31144 0.0843684 0)
(1.31202 0.0842287 0)
(1.31242 0.0842136 0)
(1.3128 0.0842351 0)
(1.31317 0.0842566 0)
(1.3135 0.0842603 0)
(1.31365 0.0841915 0)
(1.31361 0.0839159 0)
(1.31376 0.0834914 0)
(1.31404 0.0829889 0)
(1.31441 0.0824461 0)
(1.31488 0.0820379 0)
(1.31545 0.0817509 0)
(1.31646 0.0814533 0)
(1.31812 0.0811199 0)
(1.31911 0.0809071 0)
(1.31951 0.0808009 0)
(1.3199 0.0806926 0)
(1.32025 0.0805371 0)
(1.32044 0.0803638 0)
(1.31988 0.0802382 0)
(1.3178 0.080197 0)
(1.31678 0.0801768 0)
(1.31708 0.0801668 0)
(1.31746 0.0801644 0)
(1.31789 0.0801203 0)
(1.31856 0.080004 0)
(1.31999 0.07976 0)
(1.32103 0.0794864 0)
(1.32145 0.0793445 0)
(1.32186 0.0792458 0)
(1.32218 0.0791737 0)
(1.32219 0.0791078 0)
(1.32143 0.0790114 0)
(1.32103 0.0789624 0)
(1.32132 0.0789979 0)
(1.32167 0.0790375 0)
(1.32207 0.0791067 0)
(1.32264 0.0791995 0)
(1.32344 0.0792542 0)
(1.32397 0.0791873 0)
(1.32447 0.0790496 0)
(1.32487 0.0788268 0)
(1.32511 0.0785192 0)
(1.32501 0.0781288 0)
(1.32461 0.0777496 0)
(1.32461 0.0775526 0)
(1.3249 0.0775565 0)
(1.32521 0.0776537 0)
(1.32551 0.0778407 0)
(1.32576 0.0780323 0)
(1.32583 0.078191 0)
(1.32522 0.0782831 0)
(1.32428 0.0782781 0)
(1.32437 0.0782568 0)
(1.32473 0.0782508 0)
(1.32513 0.0782302 0)
(1.32561 0.0782382 0)
(1.32611 0.0783317 0)
(1.32652 0.0784552 0)
(1.32691 0.0785919 0)
(1.32727 0.0787466 0)
(1.32748 0.0788983 0)
(1.32716 0.0789985 0)
(1.3267 0.0790545 0)
(1.32699 0.0791204 0)
(1.32744 0.079178 0)
(1.32793 0.0792648 0)
(1.32849 0.0794171 0)
(1.32901 0.0795803 0)
(1.32951 0.0796744 0)
(1.33001 0.079732 0)
(1.33043 0.0797586 0)
(1.3304 0.0797153 0)
(1.32974 0.0794896 0)
(1.32968 0.0793176 0)
(1.33012 0.0792335 0)
(1.33061 0.0792338 0)
(1.3311 0.0792856 0)
(1.33153 0.0793383 0)
(1.33182 0.0794016 0)
(1.33166 0.0794861 0)
(1.33138 0.0795604 0)
(1.33172 0.0795428 0)
(1.33219 0.079464 0)
(1.33273 0.0793889 0)
(1.3333 0.0793356 0)
(1.33386 0.0792546 0)
(1.33436 0.0791675 0)
(1.33477 0.0790493 0)
(1.33497 0.07895 0)
(1.33493 0.078831 0)
(1.33442 0.0786676 0)
(1.33431 0.0785273 0)
(1.33441 0.0783914 0)
(1.33453 0.0781059 0)
(1.33468 0.077765 0)
(1.33487 0.0771409 0)
(1.33531 0.0767773 0)
(1.3356 0.0748564 0)
(1.30142 0.0980787 0)
(1.30036 0.0979174 0)
(1.29952 0.097888 0)
(1.29976 0.0979361 0)
(1.30011 0.0979933 0)
(1.30059 0.0980893 0)
(1.30155 0.0981624 0)
(1.30224 0.0980939 0)
(1.30263 0.0980224 0)
(1.30293 0.0978292 0)
(1.30299 0.0974159 0)
(1.30317 0.0968913 0)
(1.30358 0.0964435 0)
(1.30415 0.0960219 0)
(1.30487 0.0956312 0)
(1.30536 0.0954389 0)
(1.30576 0.0953878 0)
(1.3061 0.0953252 0)
(1.3062 0.0951862 0)
(1.30585 0.0948803 0)
(1.30584 0.0945273 0)
(1.3062 0.0942938 0)
(1.30663 0.0940905 0)
(1.30723 0.0939031 0)
(1.30822 0.0936409 0)
(1.30895 0.093345 0)
(1.30944 0.0930845 0)
(1.30987 0.0927394 0)
(1.31017 0.0923277 0)
(1.31008 0.091886 0)
(1.30955 0.0914927 0)
(1.30966 0.0913673 0)
(1.31004 0.0913572 0)
(1.31052 0.0913393 0)
(1.31108 0.0913504 0)
(1.31152 0.0913635 0)
(1.31194 0.0913614 0)
(1.31236 0.091299 0)
(1.31275 0.091094 0)
(1.31311 0.0907178 0)
(1.31343 0.090287 0)
(1.31362 0.0898858 0)
(1.31356 0.0895171 0)
(1.31366 0.0893123 0)
(1.31404 0.0892903 0)
(1.31446 0.0892681 0)
(1.3151 0.0891604 0)
(1.31624 0.0889198 0)
(1.31704 0.0886439 0)
(1.31749 0.0884242 0)
(1.31791 0.0881559 0)
(1.31818 0.0878316 0)
(1.3179 0.0874392 0)
(1.31646 0.0870651 0)
(1.31588 0.0869181 0)
(1.31621 0.086888 0)
(1.31659 0.0868541 0)
(1.31705 0.0868022 0)
(1.3179 0.0867621 0)
(1.31896 0.0866833 0)
(1.3194 0.0865942 0)
(1.31983 0.0865294 0)
(1.32018 0.0864644 0)
(1.32031 0.0863738 0)
(1.31975 0.0862206 0)
(1.31928 0.0861052 0)
(1.31952 0.0861116 0)
(1.31983 0.0861296 0)
(1.32023 0.0861765 0)
(1.32074 0.0862926 0)
(1.32117 0.0863895 0)
(1.3216 0.0864653 0)
(1.32199 0.0865511 0)
(1.3222 0.0866317 0)
(1.32184 0.0866222 0)
(1.32073 0.0864056 0)
(1.32054 0.0861466 0)
(1.32087 0.0860429 0)
(1.32125 0.0859969 0)
(1.32174 0.0860062 0)
(1.32215 0.0860491 0)
(1.32259 0.0861042 0)
(1.32302 0.0861504 0)
(1.32333 0.0861534 0)
(1.32305 0.0861129 0)
(1.32229 0.0861139 0)
(1.32246 0.0861341 0)
(1.32286 0.0861483 0)
(1.32329 0.0861585 0)
(1.32382 0.0862058 0)
(1.32432 0.0862972 0)
(1.32476 0.0863739 0)
(1.3252 0.0864399 0)
(1.32563 0.0864854 0)
(1.32592 0.086509 0)
(1.32567 0.0865286 0)
(1.32552 0.0865939 0)
(1.32599 0.086657 0)
(1.32651 0.0867225 0)
(1.32705 0.0868297 0)
(1.32761 0.0869572 0)
(1.3281 0.0870517 0)
(1.32853 0.0871017 0)
(1.32887 0.0871433 0)
(1.32868 0.0871111 0)
(1.3274 0.0870141 0)
(1.32694 0.0869342 0)
(1.32736 0.086982 0)
(1.32784 0.0870432 0)
(1.32831 0.0870673 0)
(1.32872 0.0870789 0)
(1.32892 0.0870466 0)
(1.32874 0.0868771 0)
(1.32873 0.0866331 0)
(1.3289 0.0864329 0)
(1.32912 0.086158 0)
(1.32928 0.0857587 0)
(1.3295 0.0853383 0)
(1.32979 0.0848974 0)
(1.33009 0.084315 0)
(1.32996 0.0836753 0)
(1.32945 0.0829098 0)
(1.32881 0.0818595 0)
(1.3279 0.0805078 0)
(1.32661 0.0786875 0)
(1.32531 0.0766489 0)
(1.32358 0.0737092 0)
(1.32215 0.0708764 0)
(1.32008 0.0675142 0)
(1.31813 0.0643397 0)
(1.31582 0.0607632 0)
(1.31015 0.0520959 0)
(1.29836 0.105477 0)
(1.2985 0.105197 0)
(1.29886 0.105122 0)
(1.29929 0.10506 0)
(1.29997 0.105016 0)
(1.30062 0.104985 0)
(1.30102 0.104954 0)
(1.30138 0.104869 0)
(1.30155 0.104641 0)
(1.30131 0.104136 0)
(1.30135 0.103581 0)
(1.30176 0.103234 0)
(1.30235 0.102928 0)
(1.30343 0.102656 0)
(1.3043 0.102513 0)
(1.30472 0.102493 0)
(1.30513 0.102504 0)
(1.30543 0.102527 0)
(1.3052 0.102545 0)
(1.30406 0.10243 0)
(1.30373 0.102186 0)
(1.3041 0.101979 0)
(1.3046 0.101669 0)
(1.3055 0.101279 0)
(1.30683 0.100791 0)
(1.3075 0.100438 0)
(1.30796 0.100173 0)
(1.30831 0.0997903 0)
(1.3085 0.0992617 0)
(1.30863 0.0987282 0)
(1.3088 0.098391 0)
(1.30897 0.098225 0)
(1.30903 0.0981119 0)
(1.30924 0.0980431 0)
(1.30963 0.0980128 0)
(1.31005 0.0979548 0)
(1.31054 0.0978341 0)
(1.31116 0.0976033 0)
(1.31189 0.097232 0)
(1.31249 0.096785 0)
(1.31298 0.0963143 0)
(1.3133 0.0959467 0)
(1.31347 0.0957764 0)
(1.31334 0.0957874 0)
(1.31302 0.0959027 0)
(1.31317 0.0960236 0)
(1.31353 0.0961025 0)
(1.31391 0.0961437 0)
(1.3143 0.0961045 0)
(1.31466 0.095967 0)
(1.31486 0.0957774 0)
(1.31449 0.0954787 0)
(1.31344 0.0950255 0)
(1.31332 0.094722 0)
(1.31367 0.0946264 0)
(1.31407 0.0945525 0)
(1.31456 0.0944808 0)
(1.3153 0.0944256 0)
(1.31592 0.0943811 0)
(1.31638 0.094359 0)
(1.31681 0.0943494 0)
(1.31718 0.0943322 0)
(1.3173 0.0942533 0)
(1.31673 0.0940674 0)
(1.31634 0.0938816 0)
(1.31659 0.0938063 0)
(1.31691 0.093728 0)
(1.31734 0.0936429 0)
(1.31814 0.0936162 0)
(1.31911 0.0936678 0)
(1.31955 0.0937444 0)
(1.32002 0.0938921 0)
(1.32044 0.0939873 0)
(1.32066 0.0939833 0)
(1.31995 0.0939134 0)
(1.31816 0.0939287 0)