/*--------------------------------*- C++ -*----------------------------------*\
  =========                 |
  \\      /  F ield         | OpenFOAM: The Open Source CFD Toolbox
   \\    /   O peration     | Website:  https://openfoam.org
    \\  /    A nd           | Version:  7
     \\/     M anipulation  |
\*---------------------------------------------------------------------------*/
FoamFile
{
    version     2.0;
    format      ascii;
    class       volScalarField;
    location    "0.3";
    object      p;
}
// * * * * * * * * * * * * * * * * * * * * * * * * * * * * * * * * * * * * * //

dimensions      [0 2 -2 0 0 0 0];

internalField   nonuniform List<scalar> 
160000
(
1.01484e-06
2.09283e-06
2.31074e-06
2.0197e-06
1.23023e-06
-4.3022e-08
-1.75281e-06
-3.84647e-06
-6.26821e-06
-8.96717e-06
-1.18969e-05
-1.5014e-05
-1.82759e-05
-2.16456e-05
-2.50922e-05
-2.85817e-05
-3.20904e-05
-3.55913e-05
-3.90606e-05
-4.24797e-05
-4.58294e-05
-4.90924e-05
-5.22541e-05
-5.53e-05
-5.82175e-05
-6.09952e-05
-6.36226e-05
-6.60907e-05
-6.83908e-05
-7.05153e-05
-7.24576e-05
-7.42116e-05
-7.57716e-05
-7.71326e-05
-7.82897e-05
-7.92393e-05
-7.9978e-05
-8.05028e-05
-8.08109e-05
-8.09002e-05
-8.07687e-05
-8.04145e-05
-7.98358e-05
-7.90315e-05
-7.80011e-05
-7.67439e-05
-7.5259e-05
-7.35462e-05
-7.16054e-05
-6.9436e-05
-6.70381e-05
-6.44121e-05
-6.15582e-05
-5.84766e-05
-5.51678e-05
-5.16327e-05
-4.78719e-05
-4.38855e-05
-3.96745e-05
-3.52396e-05
-3.05814e-05
-2.57006e-05
-2.05985e-05
-1.52758e-05
-9.73308e-06
-3.97131e-06
2.00845e-06
8.2053e-06
1.46183e-05
2.12464e-05
2.80884e-05
3.51437e-05
4.24117e-05
4.98915e-05
5.7582e-05
6.54823e-05
7.35915e-05
8.19089e-05
9.04335e-05
9.91645e-05
0.000108101
0.000117244
0.00012659
0.000136139
0.000145891
0.000155845
0.000166
0.000176357
0.000186913
0.000197669
0.000208623
0.000219775
0.000231125
0.000242672
0.000254415
0.000266354
0.000278489
0.000290819
0.000303344
0.000316062
0.000328973
0.000342078
0.000355375
0.000368864
0.000382545
0.000396417
0.00041048
0.000424734
0.000439177
0.00045381
0.000468632
0.000483642
0.000498841
0.000514228
0.000529802
0.000545563
0.000561511
0.000577645
0.000593965
0.000610471
0.000627161
0.000644036
0.000661094
0.000678336
0.000695761
0.000713369
0.000731158
0.00074913
0.000767282
0.000785615
0.000804127
0.000822819
0.000841689
0.000860737
0.000879963
0.000899365
0.000918944
0.000938698
0.000958626
0.000978728
0.000999003
0.00101945
0.00104007
0.00106086
0.00108182
0.00110295
0.00112424
0.0011457
0.00116733
0.00118913
0.00121108
0.0012332
0.00125548
0.00127793
0.00130053
0.00132328
0.0013462
0.00136927
0.0013925
0.00141587
0.0014394
0.00146308
0.00148691
0.00151088
0.001535
0.00155927
0.00158367
0.00160822
0.0016329
0.00165772
0.00168268
0.00170777
0.00173299
0.00175835
0.00178383
0.00180943
0.00183516
0.00186101
0.00188698
0.00191307
0.00193927
0.00196558
0.00199201
0.00201854
0.00204518
0.00207192
0.00209877
0.00212571
0.00215274
0.00217987
0.0022071
0.0022344
0.0022618
0.00228927
0.00231682
0.00234446
0.00237216
0.00239993
0.00242777
0.00245568
0.00248365
0.00251167
0.00253975
0.00256788
0.00259606
0.00262429
0.00265255
0.00268086
0.0027092
0.00273757
0.00276597
0.00279439
0.00282283
0.00285129
0.00287976
0.00290824
0.00293673
0.00296522
0.00299371
0.00302219
0.00305066
0.00307911
0.00310755
0.00313597
0.00316436
0.00319272
0.00322105
0.00324934
0.00327759
0.00330579
0.00333394
0.00336204
0.00339007
0.00341804
0.00344595
0.00347378
0.00350154
0.00352922
0.00355681
0.00358431
0.00361172
0.00363903
0.00366624
0.00369334
0.00372033
0.0037472
0.00377396
0.00380059
0.00382709
0.00385346
0.00387969
0.00390578
0.00393172
0.00395751
0.00398315
0.00400863
0.00403394
0.00405909
0.00408406
0.00410886
0.00413348
0.00415791
0.00418215
0.0042062
0.00423006
0.00425371
0.00427715
0.00430039
0.00432341
0.00434622
0.0043688
0.00439116
0.00441329
0.00443518
0.00445684
0.00447826
0.00449943
0.00452036
0.00454104
0.00456146
0.00458162
0.00460152
0.00462116
0.00464053
0.00465963
0.00467845
0.004697
0.00471526
0.00473325
0.00475094
0.00476835
0.00478547
0.00480229
0.00481882
0.00483505
0.00485098
0.0048666
0.00488192
0.00489693
0.00491163
0.00492602
0.00494009
0.00495385
0.0049673
0.00498042
0.00499323
0.00500571
0.00501787
0.00502971
0.00504123
0.00505242
0.00506328
0.00507382
0.00508402
0.0050939
0.00510346
0.00511268
0.00512157
0.00513014
0.00513838
0.00514629
0.00515387
0.00516112
0.00516804
0.00517464
0.00518091
0.00518686
0.00519249
0.00519779
0.00520277
0.00520743
0.00521177
0.0052158
0.00521951
0.00522291
0.005226
0.00522878
0.00523126
0.00523343
0.0052353
0.00523688
0.00523816
0.00523915
0.00523985
0.00524027
0.00524041
0.00524028
0.00523987
0.00523919
0.00523825
0.00523706
0.00523561
0.00523391
0.00523197
0.0052298
0.00522739
0.00522476
0.00522191
0.00521885
0.00521559
0.00521213
0.00520848
0.00520464
0.00520064
0.00519647
0.00519215
0.00518768
0.00518308
0.00517836
0.00517352
0.00516858
0.00516355
0.00515844
0.00515327
0.00514806
0.00514281
0.00513755
0.00513228
0.00512704
0.00512183
0.00511668
0.00511161
0.00510664
0.0051018
0.00509711
0.0050926
0.00508831
0.00508425
0.00508047
0.00507699
0.00507386
0.00507111
0.00506878
0.0050669
0.00506551
0.00506462
0.00506423
0.0050643
0.00506469
0.00506527
1.22293e-06
1.80098e-06
1.88672e-06
1.5409e-06
7.86446e-07
-3.68519e-07
-1.90272e-06
-3.77639e-06
-5.94634e-06
-8.37156e-06
-1.10134e-05
-1.38328e-05
-1.67933e-05
-1.98623e-05
-2.30074e-05
-2.62017e-05
-2.9419e-05
-3.26341e-05
-3.58271e-05
-3.89774e-05
-4.20661e-05
-4.50768e-05
-4.7994e-05
-5.08045e-05
-5.34961e-05
-5.60569e-05
-5.84768e-05
-6.0746e-05
-6.28553e-05
-6.47974e-05
-6.65653e-05
-6.81527e-05
-6.95541e-05
-7.07639e-05
-7.17774e-05
-7.25906e-05
-7.32001e-05
-7.3602e-05
-7.37935e-05
-7.37727e-05
-7.35373e-05
-7.30848e-05
-7.24136e-05
-7.15226e-05
-7.04104e-05
-6.9076e-05
-6.75187e-05
-6.57383e-05
-6.37342e-05
-6.15058e-05
-5.90534e-05
-5.63768e-05
-5.34757e-05
-5.03504e-05
-4.70016e-05
-4.34297e-05
-3.96348e-05
-3.56177e-05
-3.13791e-05
-2.69192e-05
-2.22386e-05
-1.7338e-05
-1.22183e-05
-6.87992e-06
-1.32385e-06
4.44884e-06
1.04374e-05
1.66413e-05
2.30599e-05
2.9692e-05
3.65365e-05
4.35927e-05
5.08599e-05
5.8337e-05
6.60235e-05
7.39189e-05
8.20224e-05
9.03328e-05
9.88491e-05
0.000107571
0.000116497
0.000125628
0.000134962
0.000144498
0.000154236
0.000164176
0.000174316
0.000184655
0.000195194
0.000205932
0.000216868
0.000228002
0.000239332
0.000250858
0.00026258
0.000274498
0.000286611
0.000298918
0.000311419
0.000324113
0.000337001
0.00035008
0.000363352
0.000376815
0.000390469
0.000404314
0.00041835
0.000432575
0.000446989
0.000461593
0.000476385
0.000491365
0.000506533
0.000521889
0.000537431
0.000553159
0.000569074
0.000585174
0.00060146
0.00061793
0.000634584
0.000651423
0.000668445
0.000685649
0.000703036
0.000720604
0.000738354
0.000756285
0.000774396
0.000792687
0.000811158
0.000829806
0.000848632
0.000867636
0.000886816
0.000906172
0.000925703
0.00094541
0.00096529
0.000985343
0.00100557
0.00102596
0.00104653
0.00106727
0.00108817
0.00110925
0.00113049
0.00115189
0.00117346
0.0011952
0.0012171
0.00123916
0.00126138
0.00128376
0.00130629
0.00132899
0.00135184
0.00137484
0.001398
0.00142131
0.00144477
0.00146838
0.00149214
0.00151604
0.00154009
0.00156428
0.00158861
0.00161308
0.00163769
0.00166243
0.00168731
0.00171232
0.00173746
0.00176273
0.00178812
0.00181365
0.00183929
0.00186505
0.00189093
0.00191693
0.00194304
0.00196927
0.0019956
0.00202204
0.00204858
0.00207523
0.00210198
0.00212882
0.00215576
0.00218279
0.00220991
0.00223712
0.0022644
0.00229178
0.00231922
0.00234675
0.00237435
0.00240201
0.00242974
0.00245754
0.0024854
0.00251331
0.00254128
0.00256929
0.00259736
0.00262547
0.00265361
0.0026818
0.00271002
0.00273827
0.00276655
0.00279485
0.00282317
0.0028515
0.00287985
0.00290821
0.00293657
0.00296493
0.00299329
0.00302165
0.00304999
0.00307832
0.00310663
0.00313491
0.00316317
0.0031914
0.0032196
0.00324776
0.00327587
0.00330394
0.00333195
0.00335991
0.00338782
0.00341565
0.00344342
0.00347112
0.00349874
0.00352628
0.00355373
0.0035811
0.00360837
0.00363555
0.00366262
0.00368958
0.00371643
0.00374317
0.00376979
0.00379628
0.00382265
0.00384888
0.00387497
0.00390092
0.00392673
0.00395239
0.00397789
0.00400323
0.00402841
0.00405342
0.00407827
0.00410293
0.00412742
0.00415172
0.00417583
0.00419975
0.00422347
0.00424699
0.00427031
0.00429342
0.00431632
0.004339
0.00436145
0.00438369
0.0044057
0.00442747
0.00444901
0.00447031
0.00449137
0.00451218
0.00453274
0.00455305
0.0045731
0.0045929
0.00461243
0.00463169
0.00465068
0.0046694
0.00468785
0.00470601
0.0047239
0.0047415
0.00475882
0.00477584
0.00479258
0.00480902
0.00482516
0.004841
0.00485655
0.00487179
0.00488672
0.00490135
0.00491567
0.00492967
0.00494337
0.00495675
0.00496982
0.00498256
0.00499499
0.0050071
0.00501889
0.00503036
0.00504151
0.00505233
0.00506283
0.00507301
0.00508286
0.00509238
0.00510158
0.00511046
0.00511901
0.00512723
0.00513513
0.0051427
0.00514996
0.00515688
0.00516349
0.00516977
0.00517573
0.00518137
0.0051867
0.00519171
0.0051964
0.00520078
0.00520484
0.0052086
0.00521205
0.00521519
0.00521803
0.00522057
0.00522281
0.00522475
0.0052264
0.00522777
0.00522885
0.00522964
0.00523016
0.0052304
0.00523038
0.00523008
0.00522953
0.00522872
0.00522765
0.00522634
0.00522479
0.005223
0.00522098
0.00521873
0.00521627
0.0052136
0.00521072
0.00520764
0.00520437
0.00520092
0.0051973
0.00519351
0.00518956
0.00518546
0.00518123
0.00517686
0.00517238
0.0051678
0.00516312
0.00515835
0.00515352
0.00514863
0.0051437
0.00513874
0.00513377
0.0051288
0.00512386
0.00511896
0.00511412
0.00510936
0.00510471
0.00510018
0.00509581
0.00509161
0.00508761
0.00508385
0.00508034
0.00507713
0.00507424
0.0050717
0.00506954
0.00506779
0.00506646
0.00506557
0.0050651
0.00506501
0.00506527
0.00506585
1.39393e-06
1.92617e-06
1.97328e-06
1.60417e-06
8.72684e-07
-2.1641e-07
-1.64241e-06
-3.37488e-06
-5.37932e-06
-7.62123e-06
-1.00639e-05
-1.26742e-05
-1.54194e-05
-1.82686e-05
-2.11947e-05
-2.41701e-05
-2.71684e-05
-3.01691e-05
-3.31513e-05
-3.60952e-05
-3.89835e-05
-4.17992e-05
-4.45273e-05
-4.71545e-05
-4.96686e-05
-5.20584e-05
-5.43136e-05
-5.64243e-05
-5.83817e-05
-6.01783e-05
-6.1807e-05
-6.32612e-05
-6.4535e-05
-6.56228e-05
-6.652e-05
-6.72228e-05
-6.77268e-05
-6.80285e-05
-6.81253e-05
-6.80146e-05
-6.76935e-05
-6.71597e-05
-6.64121e-05
-6.5449e-05
-6.4269e-05
-6.28707e-05
-6.12537e-05
-5.94168e-05
-5.73596e-05
-5.50818e-05
-5.25833e-05
-4.98635e-05
-4.69223e-05
-4.37601e-05
-4.03774e-05
-3.67739e-05
-3.29501e-05
-2.89065e-05
-2.46436e-05
-2.01616e-05
-1.54614e-05
-1.05434e-05
-5.40802e-06
-5.57299e-08
5.51247e-06
1.12956e-05
1.7293e-05
2.3504e-05
2.99277e-05
3.65636e-05
4.34109e-05
5.04689e-05
5.77365e-05
6.52127e-05
7.28971e-05
8.07893e-05
8.88884e-05
9.71936e-05
0.000105704
0.000114419
0.000123337
0.000132459
0.000141783
0.000151309
0.000161037
0.000170964
0.000181092
0.000191419
0.000201944
0.000212668
0.000223589
0.000234706
0.000246021
0.000257531
0.000269236
0.000281136
0.000293231
0.000305519
0.000318001
0.000330676
0.000343543
0.000356602
0.000369853
0.000383295
0.000396928
0.00041075
0.000424763
0.000438964
0.000453355
0.000467935
0.000482702
0.000497657
0.000512799
0.000528129
0.000543644
0.000559346
0.000575233
0.000591305
0.000607562
0.000624003
0.000640628
0.000657437
0.000674428
0.000691601
0.000708956
0.000726493
0.00074421
0.000762107
0.000780184
0.000798441
0.000816876
0.000835489
0.000854279
0.000873246
0.000892388
0.000911706
0.000931199
0.000950866
0.000970706
0.000990718
0.0010109
0.00103126
0.00105178
0.00107247
0.00109333
0.00111436
0.00113556
0.00115692
0.00117844
0.00120013
0.00122198
0.00124399
0.00126616
0.00128849
0.00131097
0.00133362
0.00135641
0.00137937
0.00140247
0.00142572
0.00144913
0.00147268
0.00149638
0.00152022
0.00154421
0.00156834
0.00159261
0.00161701
0.00164156
0.00166624
0.00169105
0.001716
0.00174107
0.00176628
0.0017916
0.00181705
0.00184263
0.00186832
0.00189413
0.00192006
0.0019461
0.00197225
0.0019985
0.00202487
0.00205133
0.0020779
0.00210457
0.00213134
0.00215819
0.00218514
0.00221218
0.0022393
0.00226651
0.0022938
0.00232116
0.0023486
0.00237611
0.00240369
0.00243133
0.00245904
0.0024868
0.00251462
0.0025425
0.00257042
0.0025984
0.00262641
0.00265446
0.00268256
0.00271068
0.00273883
0.00276701
0.00279521
0.00282344
0.00285167
0.00287992
0.00290818
0.00293644
0.0029647
0.00299295
0.0030212
0.00304944
0.00307767
0.00310587
0.00313405
0.00316221
0.00319033
0.00321842
0.00324647
0.00327448
0.00330244
0.00333034
0.0033582
0.00338599
0.00341372
0.00344138
0.00346896
0.00349647
0.0035239
0.00355125
0.0035785
0.00360566
0.00363273
0.00365969
0.00368654
0.00371328
0.00373991
0.00376642
0.0037928
0.00381905
0.00384517
0.00387116
0.003897
0.0039227
0.00394825
0.00397364
0.00399887
0.00402394
0.00404885
0.00407358
0.00409814
0.00412252
0.00414671
0.00417072
0.00419453
0.00421815
0.00424157
0.00426478
0.00428779
0.00431058
0.00433316
0.00435552
0.00437766
0.00439957
0.00442125
0.00444269
0.00446389
0.00448486
0.00450558
0.00452604
0.00454626
0.00456622
0.00458593
0.00460537
0.00462455
0.00464346
0.00466209
0.00468046
0.00469854
0.00471635
0.00473387
0.00475111
0.00476807
0.00478473
0.0048011
0.00481717
0.00483295
0.00484843
0.0048636
0.00487847
0.00489304
0.0049073
0.00492125
0.0049349
0.00494822
0.00496124
0.00497394
0.00498633
0.0049984
0.00501014
0.00502158
0.00503269
0.00504348
0.00505395
0.00506409
0.00507392
0.00508342
0.0050926
0.00510146
0.00511
0.00511821
0.0051261
0.00513367
0.00514092
0.00514785
0.00515446
0.00516075
0.00516672
0.00517238
0.00517772
0.00518275
0.00518746
0.00519187
0.00519596
0.00519975
0.00520324
0.00520643
0.00520931
0.0052119
0.00521419
0.0052162
0.00521791
0.00521934
0.00522049
0.00522136
0.00522196
0.00522228
0.00522234
0.00522214
0.00522168
0.00522097
0.00522001
0.00521881
0.00521737
0.0052157
0.00521381
0.00521169
0.00520936
0.00520683
0.00520409
0.00520116
0.00519805
0.00519476
0.0051913
0.00518767
0.0051839
0.00517998
0.00517593
0.00517176
0.00516747
0.00516309
0.00515861
0.00515405
0.00514943
0.00514476
0.00514005
0.00513532
0.00513058
0.00512584
0.00512114
0.00511647
0.00511187
0.00510735
0.00510294
0.00509865
0.0050945
0.00509053
0.00508676
0.0050832
0.0050799
0.00507688
0.00507415
0.00507176
0.00506972
0.00506805
0.00506677
0.00506589
0.0050654
0.00506527
0.00506553
0.00506625
1.91084e-06
2.44238e-06
2.46396e-06
2.08129e-06
1.35638e-06
3.04656e-07
-1.0533e-06
-2.68982e-06
-4.57721e-06
-6.6831e-06
-8.97527e-06
-1.14239e-05
-1.39981e-05
-1.6672e-05
-1.94192e-05
-2.2213e-05
-2.50307e-05
-2.78515e-05
-3.0655e-05
-3.34231e-05
-3.61384e-05
-3.87851e-05
-4.13489e-05
-4.38163e-05
-4.61754e-05
-4.84149e-05
-5.05244e-05
-5.24944e-05
-5.43164e-05
-5.59826e-05
-5.74861e-05
-5.88203e-05
-5.99787e-05
-6.09562e-05
-6.17482e-05
-6.23501e-05
-6.27576e-05
-6.29678e-05
-6.29777e-05
-6.27841e-05
-6.23842e-05
-6.17758e-05
-6.09574e-05
-5.99272e-05
-5.86836e-05
-5.72258e-05
-5.55525e-05
-5.36627e-05
-5.15559e-05
-4.92317e-05
-4.66895e-05
-4.39287e-05
-4.09495e-05
-3.77521e-05
-3.43365e-05
-3.07027e-05
-2.68512e-05
-2.27821e-05
-1.84956e-05
-1.39921e-05
-9.27249e-06
-4.33698e-06
8.14116e-07
6.18011e-06
1.17602e-05
1.7554e-05
2.35607e-05
2.97794e-05
3.62094e-05
4.28499e-05
4.97005e-05
5.67606e-05
6.40292e-05
7.15054e-05
7.9189e-05
8.70792e-05
9.5175e-05
0.000103476
0.000111981
0.00012069
0.000129602
0.000138717
0.000148033
0.000157549
0.000167267
0.000177184
0.000187301
0.000197616
0.000208129
0.00021884
0.000229747
0.000240851
0.00025215
0.000263645
0.000275335
0.000287219
0.000299297
0.000311569
0.000324033
0.00033669
0.000349538
0.000362579
0.00037581
0.000389232
0.000402844
0.000416646
0.000430638
0.000444818
0.000459187
0.000473743
0.000488488
0.000503419
0.000518538
0.000533843
0.000549334
0.00056501
0.000580871
0.000596918
0.000613148
0.000629562
0.00064616
0.00066294
0.000679903
0.000697047
0.000714373
0.000731879
0.000749566
0.000767432
0.000785478
0.000803703
0.000822105
0.000840684
0.000859441
0.000878373
0.000897481
0.000916764
0.000936221
0.000955851
0.000975654
0.000995628
0.00101577
0.00103609
0.00105657
0.00107723
0.00109805
0.00111903
0.00114019
0.0011615
0.00118298
0.00120463
0.00122643
0.0012484
0.00127052
0.0012928
0.00131524
0.00133784
0.00136058
0.00138349
0.00140654
0.00142974
0.00145309
0.00147659
0.00150024
0.00152403
0.00154796
0.00157203
0.00159625
0.0016206
0.00164509
0.00166971
0.00169446
0.00171935
0.00174436
0.0017695
0.00179477
0.00182015
0.00184566
0.00187129
0.00189704
0.0019229
0.00194887
0.00197495
0.00200114
0.00202743
0.00205383
0.00208033
0.00210693
0.00213362
0.0021604
0.00218728
0.00221424
0.00224129
0.00226842
0.00229563
0.00232291
0.00235027
0.0023777
0.0024052
0.00243277
0.00246039
0.00248807
0.00251581
0.00254361
0.00257145
0.00259933
0.00262726
0.00265523
0.00268323
0.00271127
0.00273934
0.00276743
0.00279554
0.00282367
0.00285182
0.00287997
0.00290814
0.00293631
0.00296447
0.00299264
0.00302079
0.00304894
0.00307707
0.00310518
0.00313326
0.00316132
0.00318935
0.00321734
0.00324529
0.0032732
0.00330107
0.00332887
0.00335663
0.00338432
0.00341195
0.00343951
0.003467
0.00349441
0.00352174
0.00354899
0.00357614
0.0036032
0.00363017
0.00365703
0.00368378
0.00371042
0.00373695
0.00376335
0.00378964
0.00381579
0.00384181
0.0038677
0.00389344
0.00391904
0.00394449
0.00396978
0.00399491
0.00401989
0.00404469
0.00406933
0.00409379
0.00411807
0.00414217
0.00416608
0.0041898
0.00421332
0.00423665
0.00425977
0.00428268
0.00430538
0.00432787
0.00435014
0.00437219
0.00439401
0.00441559
0.00443695
0.00445807
0.00447895
0.00449958
0.00451997
0.0045401
0.00455998
0.0045796
0.00459897
0.00461807
0.0046369
0.00465546
0.00467375
0.00469176
0.0047095
0.00472695
0.00474412
0.004761
0.0047776
0.00479391
0.00480992
0.00482563
0.00484105
0.00485617
0.00487098
0.0048855
0.00489971
0.00491361
0.0049272
0.00494048
0.00495345
0.00496611
0.00497845
0.00499048
0.00500219
0.00501359
0.00502467
0.00503543
0.00504587
0.00505599
0.00506579
0.00507528
0.00508444
0.00509328
0.0051018
0.00511001
0.00511789
0.00512545
0.0051327
0.00513963
0.00514624
0.00515253
0.00515852
0.00516418
0.00516954
0.00517459
0.00517932
0.00518375
0.00518788
0.0051917
0.00519522
0.00519844
0.00520137
0.005204
0.00520634
0.0052084
0.00521017
0.00521166
0.00521287
0.0052138
0.00521447
0.00521487
0.00521501
0.00521489
0.00521452
0.0052139
0.00521303
0.00521193
0.00521059
0.00520903
0.00520724
0.00520524
0.00520303
0.00520062
0.00519802
0.00519522
0.00519224
0.00518909
0.00518578
0.00518231
0.00517869
0.00517493
0.00517105
0.00516704
0.00516293
0.00515872
0.00515442
0.00515005
0.00514562
0.00514113
0.00513662
0.00513208
0.00512754
0.00512301
0.0051185
0.00511404
0.00510965
0.00510533
0.00510112
0.00509702
0.00509307
0.00508929
0.0050857
0.00508232
0.00507918
0.0050763
0.0050737
0.00507142
0.00506947
0.00506786
0.00506662
0.00506576
0.00506527
0.00506515
0.00506545
0.00506631
2.87431e-06
3.34029e-06
3.31167e-06
2.89466e-06
2.16008e-06
1.12464e-06
-1.90265e-07
-1.7597e-06
-3.55704e-06
-5.55335e-06
-7.72204e-06
-1.00337e-05
-1.24629e-05
-1.49844e-05
-1.75723e-05
-2.02045e-05
-2.28595e-05
-2.55166e-05
-2.81574e-05
-3.07636e-05
-3.33188e-05
-3.58081e-05
-3.82176e-05
-4.05344e-05
-4.2747e-05
-4.48439e-05
-4.6815e-05
-4.86508e-05
-5.03432e-05
-5.18843e-05
-5.32673e-05
-5.44851e-05
-5.55318e-05
-5.64024e-05
-5.70918e-05
-5.75952e-05
-5.79087e-05
-5.80292e-05
-5.79534e-05
-5.7678e-05
-5.72003e-05
-5.65184e-05
-5.56299e-05
-5.45331e-05
-5.32267e-05
-5.17093e-05
-4.99797e-05
-4.80369e-05
-4.58803e-05
-4.35093e-05
-4.0923e-05
-3.81211e-05
-3.51036e-05
-3.18703e-05
-2.84212e-05
-2.47566e-05
-2.08765e-05
-1.6781e-05
-1.24704e-05
-7.94504e-06
-3.20526e-06
1.74872e-06
6.9164e-06
1.2297e-05
1.78899e-05
2.36949e-05
2.97113e-05
3.59383e-05
4.23752e-05
4.90215e-05
5.58765e-05
6.29393e-05
7.02094e-05
7.76863e-05
8.53696e-05
9.32583e-05
0.000101352
0.000109649
0.000118149
0.000126853
0.000135759
0.000144867
0.000154175
0.000163683
0.000173392
0.000183299
0.000193405
0.000203708
0.00021421
0.000224908
0.000235802
0.000246892
0.000258178
0.000269658
0.000281332
0.0002932
0.000305262
0.000317517
0.000329963
0.000342602
0.000355433
0.000368454
0.000381666
0.000395069
0.000408661
0.000422442
0.000436412
0.000450571
0.000464918
0.000479452
0.000494174
0.000509082
0.000524177
0.000539458
0.000554924
0.000570575
0.000586411
0.000602431
0.000618635
0.000635022
0.000651592
0.000668344
0.000685279
0.000702394
0.00071969
0.000737167
0.000754823
0.000772659
0.000790673
0.000808866
0.000827236
0.000845782
0.000864505
0.000883403
0.000902476
0.000921724
0.000941145
0.000960739
0.000980505
0.00100044
0.00102055
0.00104083
0.00106127
0.00108188
0.00110266
0.00112361
0.00114472
0.00116599
0.00118743
0.00120903
0.00123079
0.00125271
0.00127479
0.00129703
0.00131942
0.00134196
0.00136466
0.00138752
0.00141052
0.00143367
0.00145697
0.00148042
0.00150401
0.00152775
0.00155163
0.00157565
0.00159981
0.0016241
0.00164853
0.00167309
0.00169779
0.00172262
0.00174757
0.00177265
0.00179785
0.00182318
0.00184863
0.00187419
0.00189987
0.00192567
0.00195157
0.00197759
0.00200371
0.00202994
0.00205627
0.00208269
0.00210922
0.00213584
0.00216255
0.00218936
0.00221625
0.00224322
0.00227028
0.00229741
0.00232462
0.0023519
0.00237926
0.00240668
0.00243416
0.00246171
0.00248931
0.00251697
0.00254468
0.00257244
0.00260024
0.00262809
0.00265597
0.00268389
0.00271184
0.00273982
0.00276782
0.00279585
0.00282389
0.00285195
0.00288002
0.00290809
0.00293617
0.00296425
0.00299232
0.00302039
0.00304844
0.00307648
0.00310449
0.00313249
0.00316045
0.00318839
0.00321628
0.00324414
0.00327196
0.00329972
0.00332744
0.0033551
0.00338269
0.00341023
0.00343769
0.00346508
0.0034924
0.00351963
0.00354678
0.00357383
0.0036008
0.00362766
0.00365443
0.00368108
0.00370763
0.00373406
0.00376036
0.00378655
0.00381261
0.00383853
0.00386432
0.00388996
0.00391547
0.00394082
0.00396601
0.00399105
0.00401593
0.00404064
0.00406518
0.00408955
0.00411374
0.00413774
0.00416156
0.00418518
0.00420862
0.00423185
0.00425488
0.0042777
0.00430031
0.00432271
0.00434489
0.00436685
0.00438858
0.00441009
0.00443136
0.00445239
0.00447318
0.00449374
0.00451404
0.00453409
0.00455389
0.00457344
0.00459272
0.00461175
0.0046305
0.00464899
0.00466721
0.00468515
0.00470281
0.0047202
0.0047373
0.00475412
0.00477065
0.00478689
0.00480284
0.0048185
0.00483385
0.00484892
0.00486368
0.00487814
0.00489229
0.00490614
0.00491969
0.00493292
0.00494585
0.00495846
0.00497077
0.00498276
0.00499443
0.00500579
0.00501684
0.00502757
0.00503798
0.00504808
0.00505786
0.00506732
0.00507646
0.00508529
0.0050938
0.00510199
0.00510986
0.00511742
0.00512466
0.00513159
0.00513821
0.00514451
0.0051505
0.00515617
0.00516154
0.00516661
0.00517136
0.00517581
0.00517997
0.00518382
0.00518737
0.00519063
0.00519359
0.00519627
0.00519865
0.00520076
0.00520258
0.00520413
0.0052054
0.0052064
0.00520713
0.0052076
0.00520782
0.00520778
0.00520749
0.00520695
0.00520618
0.00520517
0.00520393
0.00520247
0.00520079
0.0051989
0.00519681
0.00519452
0.00519204
0.00518937
0.00518652
0.00518351
0.00518034
0.00517701
0.00517354
0.00516993
0.0051662
0.00516236
0.00515841
0.00515437
0.00515024
0.00514605
0.00514179
0.00513749
0.00513316
0.00512881
0.00512445
0.00512011
0.00511579
0.00511152
0.00510731
0.00510318
0.00509915
0.00509524
0.00509147
0.00508785
0.00508442
0.0050812
0.00507819
0.00507544
0.00507296
0.00507076
0.00506888
0.00506733
0.00506612
0.00506527
0.00506478
0.00506466
0.00506498
0.00506593
4.28102e-06
4.62314e-06
4.5045e-06
4.0306e-06
3.26393e-06
2.22218e-06
9.24634e-07
-6.03653e-07
-2.33709e-06
-4.25178e-06
-6.32161e-06
-8.52275e-06
-1.08317e-05
-1.3223e-05
-1.56747e-05
-1.81663e-05
-2.06772e-05
-2.31888e-05
-2.56831e-05
-2.8143e-05
-3.05528e-05
-3.28983e-05
-3.51658e-05
-3.73435e-05
-3.94197e-05
-4.13833e-05
-4.32245e-05
-4.49341e-05
-4.65042e-05
-4.79271e-05
-4.91953e-05
-5.03024e-05
-5.12427e-05
-5.20107e-05
-5.26013e-05
-5.30099e-05
-5.32329e-05
-5.32668e-05
-5.31078e-05
-5.27529e-05
-5.21996e-05
-5.14456e-05
-5.04885e-05
-4.93266e-05
-4.79586e-05
-4.63826e-05
-4.45974e-05
-4.26023e-05
-4.03965e-05
-3.79789e-05
-3.53487e-05
-3.25057e-05
-2.94499e-05
-2.61808e-05
-2.26983e-05
-1.90026e-05
-1.50935e-05
-1.09712e-05
-6.63615e-06
-2.08838e-06
2.67201e-06
7.64479e-06
1.28294e-05
1.82252e-05
2.38319e-05
2.96489e-05
3.56755e-05
4.19113e-05
4.83557e-05
5.50083e-05
6.18682e-05
6.89345e-05
7.6207e-05
8.36853e-05
9.13687e-05
9.92564e-05
0.000107348
0.000115642
0.000124139
0.000132838
0.000141738
0.000150839
0.00016014
0.000169641
0.000179341
0.000189238
0.000199334
0.000209627
0.000220117
0.000230803
0.000241685
0.000252762
0.000264033
0.000275499
0.000287158
0.000299011
0.000311057
0.000323295
0.000335725
0.000348346
0.000361158
0.000374161
0.000387355
0.000400738
0.00041431
0.000428071
0.00044202
0.000456158
0.000470483
0.000484995
0.000499694
0.00051458
0.000529651
0.000544908
0.00056035
0.000575976
0.000591787
0.000607781
0.000623959
0.00064032
0.000656863
0.000673588
0.000690494
0.000707581
0.000724848
0.000742295
0.000759921
0.000777726
0.00079571
0.000813871
0.000832209
0.000850723
0.000869413
0.000888278
0.000907317
0.00092653
0.000945916
0.000965474
0.000985203
0.0010051
0.00102517
0.00104541
0.00106582
0.00108639
0.00110713
0.00112804
0.00114911
0.00117034
0.00119174
0.00121329
0.00123501
0.00125689
0.00127892
0.00130111
0.00132346
0.00134596
0.00136861
0.00139141
0.00141437
0.00143747
0.00146072
0.00148412
0.00150766
0.00153135
0.00155517
0.00157914
0.00160324
0.00162748
0.00165185
0.00167636
0.001701
0.00172577
0.00175067
0.00177569
0.00180083
0.0018261
0.00185148
0.00187699
0.0019026
0.00192834
0.00195418
0.00198013
0.00200618
0.00203235
0.00205861
0.00208497
0.00211143
0.00213798
0.00216462
0.00219136
0.00221817
0.00224508
0.00227206
0.00229912
0.00232626
0.00235347
0.00238075
0.00240809
0.0024355
0.00246297
0.00249049
0.00251807
0.0025457
0.00257338
0.00260111
0.00262887
0.00265668
0.00268451
0.00271238
0.00274028
0.0027682
0.00279614
0.0028241
0.00285207
0.00288006
0.00290805
0.00293604
0.00296403
0.00299201
0.00301999
0.00304795
0.0030759
0.00310383
0.00313173
0.00315961
0.00318745
0.00321526
0.00324303
0.00327075
0.00329843
0.00332605
0.00335361
0.00338112
0.00340856
0.00343593
0.00346323
0.00349045
0.00351759
0.00354464
0.00357161
0.00359848
0.00362525
0.00365192
0.00367848
0.00370493
0.00373127
0.00375748
0.00378357
0.00380954
0.00383537
0.00386106
0.00388662
0.00391202
0.00393728
0.00396239
0.00398734
0.00401212
0.00403674
0.00406119
0.00408546
0.00410956
0.00413348
0.0041572
0.00418074
0.00420408
0.00422723
0.00425017
0.00427291
0.00429543
0.00431774
0.00433984
0.00436171
0.00438336
0.00440478
0.00442597
0.00444692
0.00446764
0.00448811
0.00450833
0.00452831
0.00454803
0.0045675
0.00458671
0.00460566
0.00462434
0.00464276
0.00466091
0.00467878
0.00469637
0.00471369
0.00473073
0.00474748
0.00476395
0.00478013
0.00479602
0.00481162
0.00482692
0.00484193
0.00485663
0.00487104
0.00488515
0.00489895
0.00491245
0.00492564
0.00493852
0.00495109
0.00496335
0.00497531
0.00498695
0.00499828
0.00500929
0.00501999
0.00503037
0.00504044
0.0050502
0.00505964
0.00506876
0.00507757
0.00508607
0.00509425
0.00510211
0.00510966
0.0051169
0.00512383
0.00513044
0.00513675
0.00514274
0.00514843
0.00515381
0.00515889
0.00516367
0.00516814
0.00517231
0.00517619
0.00517977
0.00518307
0.00518607
0.00518878
0.00519121
0.00519336
0.00519523
0.00519683
0.00519816
0.00519922
0.00520002
0.00520056
0.00520084
0.00520088
0.00520067
0.00520021
0.00519953
0.00519861
0.00519746
0.0051961
0.00519452
0.00519274
0.00519076
0.00518858
0.00518621
0.00518366
0.00518094
0.00517806
0.00517502
0.00517183
0.0051685
0.00516504
0.00516146
0.00515776
0.00515397
0.00515008
0.00514612
0.00514208
0.00513799
0.00513386
0.0051297
0.00512552
0.00512134
0.00511717
0.00511302
0.00510893
0.00510489
0.00510093
0.00509706
0.00509331
0.0050897
0.00508623
0.00508294
0.00507984
0.00507696
0.00507431
0.00507192
0.0050698
0.00506797
0.00506646
0.00506527
0.00506442
0.00506392
0.00506378
0.00506409
0.00506504
6.10212e-06
6.26286e-06
6.0253e-06
5.46895e-06
4.64597e-06
3.57307e-06
2.26965e-06
7.59017e-07
-9.36908e-07
-2.79417e-06
-4.79119e-06
-6.90664e-06
-9.11712e-06
-1.14013e-05
-1.37389e-05
-1.61102e-05
-1.84969e-05
-2.08809e-05
-2.32454e-05
-2.55748e-05
-2.7854e-05
-3.00692e-05
-3.2208e-05
-3.42585e-05
-3.62092e-05
-3.80497e-05
-3.97704e-05
-4.13626e-05
-4.28185e-05
-4.41301e-05
-4.52904e-05
-4.62931e-05
-4.71326e-05
-4.78031e-05
-4.82995e-05
-4.86178e-05
-4.87543e-05
-4.87048e-05
-4.84658e-05
-4.80345e-05
-4.74081e-05
-4.65842e-05
-4.55605e-05
-4.43354e-05
-4.29071e-05
-4.12738e-05
-3.94345e-05
-3.73883e-05
-3.51338e-05
-3.26702e-05
-2.99969e-05
-2.71134e-05
-2.40193e-05
-2.07145e-05
-1.71988e-05
-1.34721e-05
-9.53408e-06
-5.38501e-06
-1.02517e-06
3.54548e-06
8.3269e-06
1.33187e-05
1.85205e-05
2.39319e-05
2.95527e-05
3.53822e-05
4.14198e-05
4.7665e-05
5.41175e-05
6.07768e-05
6.76419e-05
7.47125e-05
8.19882e-05
8.94684e-05
9.71526e-05
0.00010504
0.00011313
0.000121422
0.000129916
0.000138611
0.000147506
0.000156601
0.000165896
0.000175389
0.00018508
0.000194969
0.000205055
0.000215338
0.000225817
0.000236492
0.000247361
0.000258425
0.000269683
0.000281135
0.00029278
0.000304618
0.000316648
0.00032887
0.000341284
0.000353888
0.000366683
0.000379668
0.000392843
0.000406207
0.00041976
0.000433501
0.00044743
0.000461547
0.000475851
0.000490341
0.000505018
0.000519881
0.00053493
0.000550163
0.000565581
0.000581183
0.000596969
0.000612939
0.000629091
0.000645425
0.000661942
0.000678639
0.000695518
0.000712577
0.000729816
0.000747234
0.000764831
0.000782607
0.00080056
0.00081869
0.000836996
0.000855479
0.000874136
0.000892968
0.000911974
0.000931153
0.000950505
0.000970028
0.000989722
0.00100959
0.00102962
0.00104982
0.00107019
0.00109073
0.00111143
0.00113229
0.00115332
0.00117452
0.00119587
0.00121738
0.00123906
0.00126089
0.00128288
0.00130503
0.00132733
0.00134978
0.00137239
0.00139515
0.00141806
0.00144111
0.00146432
0.00148766
0.00151116
0.00153479
0.00155856