/*--------------------------------*- C++ -*----------------------------------*\
  =========                 |
  \\      /  F ield         | OpenFOAM: The Open Source CFD Toolbox
   \\    /   O peration     | Website:  https://openfoam.org
    \\  /    A nd           | Version:  7
     \\/     M anipulation  |
\*---------------------------------------------------------------------------*/
FoamFile
{
    version     2.0;
    format      ascii;
    class       volVectorField;
    location    "0.7";
    object      U;
}
// * * * * * * * * * * * * * * * * * * * * * * * * * * * * * * * * * * * * * //

dimensions      [0 1 -1 0 0 0 0];

internalField   nonuniform List<vector> 
20000
(
(-1.5134e-07 -3.68553e-08 0)
(-3.21113e-07 1.9491e-08 0)
(-3.44453e-07 2.39524e-08 0)
(-2.82626e-07 -1.14305e-08 0)
(-9.73207e-08 -5.82439e-08 0)
(2.31035e-07 -1.05729e-07 0)
(6.98326e-07 -1.49626e-07 0)
(1.2939e-06 -1.89131e-07 0)
(2.00487e-06 -2.23717e-07 0)
(2.81757e-06 -2.53537e-07 0)
(3.71809e-06 -2.78774e-07 0)
(4.69378e-06 -2.9954e-07 0)
(5.73274e-06 -3.1653e-07 0)
(6.82344e-06 -3.30253e-07 0)
(7.95551e-06 -3.40816e-07 0)
(9.11929e-06 -3.48557e-07 0)
(1.03058e-05 -3.53778e-07 0)
(1.15072e-05 -3.56623e-07 0)
(1.27164e-05 -3.57368e-07 0)
(1.39268e-05 -3.56347e-07 0)
(1.51322e-05 -3.53719e-07 0)
(1.63272e-05 -3.49557e-07 0)
(1.75072e-05 -3.44022e-07 0)
(1.86679e-05 -3.37364e-07 0)
(1.98055e-05 -3.29721e-07 0)
(2.09166e-05 -3.21132e-07 0)
(2.19982e-05 -3.11741e-07 0)
(2.30478e-05 -3.0172e-07 0)
(2.40628e-05 -2.91139e-07 0)
(2.50416e-05 -2.80036e-07 0)
(2.59823e-05 -2.68468e-07 0)
(2.68835e-05 -2.56547e-07 0)
(2.77438e-05 -2.44337e-07 0)
(2.85621e-05 -2.31815e-07 0)
(2.93376e-05 -2.19035e-07 0)
(3.00696e-05 -2.06112e-07 0)
(3.07573e-05 -1.93079e-07 0)
(3.14e-05 -1.79922e-07 0)
(3.19975e-05 -1.66642e-07 0)
(3.25491e-05 -1.53232e-07 0)
(3.30547e-05 -1.39717e-07 0)
(3.35139e-05 -1.26158e-07 0)
(3.39262e-05 -1.12549e-07 0)
(3.42915e-05 -9.88422e-08 0)
(3.46096e-05 -8.50516e-08 0)
(3.48801e-05 -7.12134e-08 0)
(3.51026e-05 -5.73086e-08 0)
(3.5277e-05 -4.33115e-08 0)
(3.54031e-05 -2.92357e-08 0)
(3.54805e-05 -1.50853e-08 0)
(3.55088e-05 -8.38417e-10 0)
(3.54878e-05 1.35051e-08 0)
(3.54172e-05 2.79258e-08 0)
(3.52966e-05 4.24357e-08 0)
(3.51258e-05 5.70661e-08 0)
(3.49045e-05 7.17985e-08 0)
(3.46325e-05 8.65805e-08 0)
(3.43094e-05 1.01397e-07 0)
(3.39352e-05 1.16269e-07 0)
(3.35097e-05 1.31203e-07 0)
(3.3033e-05 1.46165e-07 0)
(3.2505e-05 1.61108e-07 0)
(3.19258e-05 1.76016e-07 0)
(3.12957e-05 1.9086e-07 0)
(3.06152e-05 2.05581e-07 0)
(2.98848e-05 2.20124e-07 0)
(2.91052e-05 2.34443e-07 0)
(2.82772e-05 2.48499e-07 0)
(2.7402e-05 2.62241e-07 0)
(2.6481e-05 2.75579e-07 0)
(2.55158e-05 2.88422e-07 0)
(2.45081e-05 3.00703e-07 0)
(2.34602e-05 3.12345e-07 0)
(2.23747e-05 3.23244e-07 0)
(2.12543e-05 3.33292e-07 0)
(2.01022e-05 3.42357e-07 0)
(1.89221e-05 3.50309e-07 0)
(1.77179e-05 3.57037e-07 0)
(1.64942e-05 3.62405e-07 0)
(1.52561e-05 3.66244e-07 0)
(1.4009e-05 3.6839e-07 0)
(1.27589e-05 3.68674e-07 0)
(1.15125e-05 3.66902e-07 0)
(1.02769e-05 3.62873e-07 0)
(9.06018e-06 3.56381e-07 0)
(7.87084e-06 3.47177e-07 0)
(6.71817e-06 3.34997e-07 0)
(5.61211e-06 3.19568e-07 0)
(4.56343e-06 3.00593e-07 0)
(3.58359e-06 2.7775e-07 0)
(2.68476e-06 2.50723e-07 0)
(1.87979e-06 2.19192e-07 0)
(1.18202e-06 1.82834e-07 0)
(6.04761e-07 1.41424e-07 0)
(1.60426e-07 9.50989e-08 0)
(-1.39955e-07 4.49295e-08 0)
(-2.90388e-07 -6.99398e-09 0)
(-2.95906e-07 -5.41573e-08 0)
(-1.90281e-07 -8.17646e-08 0)
(-5.83456e-08 -5.83112e-08 0)
(-1.33235e-07 4.94082e-08 0)
(-2.97365e-07 9.35141e-08 0)
(-2.38172e-07 -3.06991e-08 0)
(1.06431e-07 -2.60467e-07 0)
(7.87867e-07 -5.28114e-07 0)
(1.82368e-06 -7.98994e-07 0)
(3.20607e-06 -1.05632e-06 0)
(4.91456e-06 -1.29216e-06 0)
(6.92243e-06 -1.50318e-06 0)
(9.19853e-06 -1.68896e-06 0)
(1.17107e-05 -1.84938e-06 0)
(1.44271e-05 -1.98519e-06 0)
(1.73162e-05 -2.0983e-06 0)
(2.03492e-05 -2.19028e-06 0)
(2.34987e-05 -2.26265e-06 0)
(2.67388e-05 -2.31719e-06 0)
(3.00454e-05 -2.35524e-06 0)
(3.33969e-05 -2.378e-06 0)
(3.6773e-05 -2.387e-06 0)
(4.01554e-05 -2.38379e-06 0)
(4.35277e-05 -2.3695e-06 0)
(4.68747e-05 -2.34508e-06 0)
(5.01827e-05 -2.3116e-06 0)
(5.34393e-05 -2.27013e-06 0)
(5.66339e-05 -2.22154e-06 0)
(5.97569e-05 -2.16657e-06 0)
(6.27995e-05 -2.10603e-06 0)
(6.5754e-05 -2.0407e-06 0)
(6.86139e-05 -1.97111e-06 0)
(7.13734e-05 -1.89777e-06 0)
(7.40274e-05 -1.82121e-06 0)
(7.65712e-05 -1.74196e-06 0)
(7.90013e-05 -1.66042e-06 0)
(8.13144e-05 -1.57679e-06 0)
(8.35075e-05 -1.49134e-06 0)
(8.55783e-05 -1.40445e-06 0)
(8.75247e-05 -1.31643e-06 0)
(8.9345e-05 -1.22736e-06 0)
(9.10378e-05 -1.13734e-06 0)
(9.26016e-05 -1.04648e-06 0)
(9.40352e-05 -9.54907e-07 0)
(9.53375e-05 -8.62724e-07 0)
(9.65077e-05 -7.69963e-07 0)
(9.75449e-05 -6.76605e-07 0)
(9.84482e-05 -5.82675e-07 0)
(9.92167e-05 -4.88225e-07 0)
(9.98496e-05 -3.9325e-07 0)
(0.000100346 -2.97704e-07 0)
(0.000100705 -2.01556e-07 0)
(0.000100927 -1.04805e-07 0)
(0.000101009 -7.46128e-09 0)
(0.000100951 9.04612e-08 0)
(0.000100753 1.8897e-07 0)
(0.000100413 2.8809e-07 0)
(9.99313e-05 3.87823e-07 0)
(9.93063e-05 4.88088e-07 0)
(9.85374e-05 5.88767e-07 0)
(9.76243e-05 6.89791e-07 0)
(9.65666e-05 7.91096e-07 0)
(9.5364e-05 8.92564e-07 0)
(9.40165e-05 9.94022e-07 0)
(9.25244e-05 1.09526e-06 0)
(9.08881e-05 1.1961e-06 0)
(8.91086e-05 1.29629e-06 0)
(8.7187e-05 1.39551e-06 0)
(8.51252e-05 1.49343e-06 0)
(8.29253e-05 1.58973e-06 0)
(8.05899e-05 1.68401e-06 0)
(7.81226e-05 1.77583e-06 0)
(7.55271e-05 1.86472e-06 0)
(7.28083e-05 1.95011e-06 0)
(6.99716e-05 2.03149e-06 0)
(6.70233e-05 2.10827e-06 0)
(6.39709e-05 2.17974e-06 0)
(6.08223e-05 2.24517e-06 0)
(5.75869e-05 2.30379e-06 0)
(5.42749e-05 2.35477e-06 0)
(5.08981e-05 2.39729e-06 0)
(4.74692e-05 2.43042e-06 0)
(4.40024e-05 2.45318e-06 0)
(4.05131e-05 2.46449e-06 0)
(3.70183e-05 2.46326e-06 0)
(3.35365e-05 2.44834e-06 0)
(3.00879e-05 2.41851e-06 0)
(2.66941e-05 2.37252e-06 0)
(2.33787e-05 2.30902e-06 0)
(2.01666e-05 2.22663e-06 0)
(1.70848e-05 2.12395e-06 0)
(1.41614e-05 1.99959e-06 0)
(1.14263e-05 1.85224e-06 0)
(8.91039e-06 1.68075e-06 0)
(6.64527e-06 1.48433e-06 0)
(4.6623e-06 1.26279e-06 0)
(2.9912e-06 1.0171e-06 0)
(1.65762e-06 7.50505e-07 0)
(6.79681e-07 4.70659e-07 0)
(6.17041e-08 1.92052e-07 0)
(-2.15901e-07 -5.59899e-08 0)
(-2.1884e-07 -2.18434e-07 0)
(-8.19021e-08 -1.90203e-07 0)
(-7.08513e-08 2.12955e-07 0)
(-7.61221e-08 8.14498e-08 0)
(2.56514e-07 -3.74995e-07 0)
(1.03243e-06 -1.00392e-06 0)
(2.30604e-06 -1.70382e-06 0)
(4.0946e-06 -2.4121e-06 0)
(6.38869e-06 -3.09177e-06 0)
(9.16291e-06 -3.72156e-06 0)
(1.23808e-05 -4.29156e-06 0)
(1.60008e-05 -4.79755e-06 0)
(1.99782e-05 -5.23874e-06 0)
(2.42669e-05 -5.61686e-06 0)
(2.88218e-05 -5.93437e-06 0)
(3.35996e-05 -6.19429e-06 0)
(3.8559e-05 -6.4007e-06 0)
(4.3661e-05 -6.55768e-06 0)
(4.88695e-05 -6.66879e-06 0)
(5.41505e-05 -6.73772e-06 0)
(5.94728e-05 -6.76818e-06 0)
(6.48078e-05 -6.76361e-06 0)
(7.01296e-05 -6.7272e-06 0)
(7.54145e-05 -6.66221e-06 0)
(8.06409e-05 -6.57159e-06 0)
(8.57892e-05 -6.45787e-06 0)
(9.08425e-05 -6.32344e-06 0)
(9.5785e-05 -6.17071e-06 0)
(0.000100603 -6.00185e-06 0)
(0.000105284 -5.8188e-06 0)
(0.000109817 -5.62319e-06 0)
(0.000114193 -5.41663e-06 0)
(0.000118404 -5.20066e-06 0)
(0.000122442 -4.97655e-06 0)
(0.000126301 -4.74539e-06 0)
(0.000129976 -4.50817e-06 0)
(0.000133462 -4.26574e-06 0)
(0.000136754 -4.01886e-06 0)
(0.00013985 -3.7682e-06 0)
(0.000142746 -3.51425e-06 0)
(0.00014544 -3.25742e-06 0)
(0.00014793 -2.99813e-06 0)
(0.000150213 -2.73669e-06 0)
(0.000152288 -2.47326e-06 0)
(0.000154153 -2.20793e-06 0)
(0.000155807 -1.94083e-06 0)
(0.000157248 -1.67207e-06 0)
(0.000158475 -1.40171e-06 0)
(0.000159486 -1.12972e-06 0)
(0.000160279 -8.56018e-07 0)
(0.000160855 -5.80586e-07 0)
(0.000161211 -3.0344e-07 0)
(0.000161345 -2.45989e-08 0)
(0.000161257 2.55939e-07 0)
(0.000160945 5.38182e-07 0)
(0.000160408 8.22092e-07 0)
(0.000159644 1.10756e-06 0)
(0.000158653 1.39442e-06 0)
(0.000157433 1.68249e-06 0)
(0.000155984 1.97153e-06 0)
(0.000154305 2.26122e-06 0)
(0.000152396 2.55119e-06 0)
(0.000150257 2.84096e-06 0)
(0.000147888 3.12997e-06 0)
(0.00014529 3.41757e-06 0)
(0.000142465 3.70306e-06 0)
(0.000139416 3.98562e-06 0)
(0.000136144 4.26431e-06 0)
(0.000132654 4.53813e-06 0)
(0.00012895 4.80591e-06 0)
(0.000125037 5.06637e-06 0)
(0.000120923 5.31815e-06 0)
(0.000116614 5.55978e-06 0)
(0.00011212 5.78966e-06 0)
(0.00010745 6.00602e-06 0)
(0.000102618 6.20694e-06 0)
(9.76348e-05 6.39035e-06 0)
(9.25164e-05 6.55411e-06 0)
(8.72792e-05 6.69597e-06 0)
(8.19416e-05 6.81348e-06 0)
(7.6524e-05 6.90408e-06 0)
(7.10487e-05 6.96504e-06 0)
(6.55403e-05 6.99347e-06 0)
(6.00254e-05 6.98636e-06 0)
(5.45329e-05 6.94061e-06 0)
(4.90942e-05 6.85301e-06 0)
(4.3743e-05 6.72017e-06 0)
(3.85153e-05 6.53871e-06 0)
(3.34496e-05 6.30522e-06 0)
(2.85862e-05 6.01639e-06 0)
(2.39677e-05 5.6691e-06 0)
(1.96381e-05 5.26068e-06 0)
(1.56425e-05 4.78921e-06 0)
(1.20258e-05 4.25409e-06 0)
(8.8316e-06 3.65689e-06 0)
(6.09983e-06 3.00281e-06 0)
(3.86331e-06 2.30302e-06 0)
(2.14315e-06 1.5788e-06 0)
(9.41479e-07 8.6776e-07 0)
(2.31351e-07 2.34082e-07 0)
(-5.7857e-08 -2.15922e-07 0)
(-5.46859e-08 -2.96289e-07 0)
(-1.04375e-08 2.23389e-07 0)
(2.00464e-07 -2.17418e-07 0)
(9.20427e-07 -1.14025e-06 0)
(2.22472e-06 -2.31312e-06 0)
(4.15636e-06 -3.59201e-06 0)
(6.73043e-06 -4.8831e-06 0)
(9.93555e-06 -6.12636e-06 0)
(1.37409e-05 -7.28639e-06 0)
(1.81041e-05 -8.34317e-06 0)
(2.29756e-05 -9.28683e-06 0)
(2.83014e-05 -1.01149e-05 0)
(3.40258e-05 -1.08284e-05 0)
(4.00934e-05 -1.14308e-05 0)
(4.64499e-05 -1.19271e-05 0)
(5.30427e-05 -1.23236e-05 0)
(5.98226e-05 -1.26268e-05 0)
(6.6743e-05 -1.28432e-05 0)
(7.37602e-05 -1.29799e-05 0)
(8.08336e-05 -1.30433e-05 0)
(8.7926e-05 -1.30395e-05 0)
(9.50031e-05 -1.29746e-05 0)
(0.000102033 -1.28546e-05 0)
(0.000108989 -1.26849e-05 0)
(0.000115843 -1.24703e-05 0)
(0.000122574 -1.22156e-05 0)
(0.00012916 -1.19253e-05 0)
(0.000135582 -1.16035e-05 0)
(0.000141825 -1.12536e-05 0)
(0.000147873 -1.08792e-05 0)
(0.000153714 -1.04832e-05 0)
(0.000159336 -1.00686e-05 0)
(0.00016473 -9.6378e-06 0)
(0.000169886 -9.19282e-06 0)
(0.000174798 -8.73572e-06 0)
(0.000179459 -8.26828e-06 0)
(0.000183863 -7.79194e-06 0)
(0.000188006 -7.30784e-06 0)
(0.000191882 -6.81702e-06 0)
(0.00019549 -6.3204e-06 0)
(0.000198825 -5.81876e-06 0)
(0.000201884 -5.31264e-06 0)
(0.000204665 -4.80242e-06 0)
(0.000207166 -4.28839e-06 0)
(0.000209385 -3.77079e-06 0)
(0.000211319 -3.24981e-06 0)
(0.000212966 -2.72553e-06 0)
(0.000214325 -2.19794e-06 0)
(0.000215394 -1.667e-06 0)
(0.00021617 -1.13271e-06 0)
(0.000216652 -5.95078e-07 0)
(0.000216838 -5.40906e-08 0)
(0.000216726 4.90237e-07 0)
(0.000216315 1.03784e-06 0)
(0.000215602 1.58859e-06 0)
(0.000214585 2.14227e-06 0)
(0.000213265 2.69857e-06 0)
(0.000211638 3.2571e-06 0)
(0.000209705 3.81734e-06 0)
(0.000207464 4.3787e-06 0)
(0.000204915 4.94043e-06 0)
(0.000202059 5.50158e-06 0)
(0.000198897 6.06104e-06 0)
(0.000195428 6.61755e-06 0)
(0.000191657 7.16968e-06 0)
(0.000187586 7.71588e-06 0)
(0.000183218 8.25434e-06 0)
(0.000178559 8.783e-06 0)
(0.000173616 9.29963e-06 0)
(0.000168395 9.80178e-06 0)
(0.000162905 1.02868e-05 0)
(0.000157158 1.07518e-05 0)
(0.000151165 1.11937e-05 0)
(0.000144939 1.16091e-05 0)
(0.000138497 1.19942e-05 0)
(0.000131857 1.23452e-05 0)
(0.000125038 1.2658e-05 0)
(0.000118063 1.29282e-05 0)
(0.000110956 1.31511e-05 0)
(0.000103744 1.3322e-05 0)
(9.6457e-05 1.34356e-05 0)
(8.91276e-05 1.34866e-05 0)
(8.17909e-05 1.34694e-05 0)
(7.44848e-05 1.33783e-05 0)
(6.72504e-05 1.32073e-05 0)
(6.01315e-05 1.29504e-05 0)
(5.31746e-05 1.26017e-05 0)
(4.64292e-05 1.21552e-05 0)
(3.99467e-05 1.16054e-05 0)
(3.37809e-05 1.09475e-05 0)
(2.79869e-05 1.01776e-05 0)
(2.26201e-05 9.29358e-06 0)
(1.77355e-05 8.29605e-06 0)
(1.33851e-05 7.19001e-06 0)
(9.61584e-06 5.98707e-06 0)
(6.46565e-06 4.70924e-06 0)
(3.95892e-06 3.39466e-06 0)
(2.09938e-06 2.10624e-06 0)
(8.61391e-07 9.43392e-07 0)
(1.88136e-07 5.96006e-08 0)
(-8.10668e-09 -2.92273e-07 0)
(4.68455e-08 6.42552e-08 0)
(4.92469e-07 -8.68361e-07 0)
(1.6483e-06 -2.39775e-06 0)
(3.52952e-06 -4.24079e-06 0)
(6.15409e-06 -6.2162e-06 0)
(9.5295e-06 -8.20077e-06 0)
(1.36375e-05 -1.0114e-05 0)
(1.84421e-05 -1.1905e-05 0)
(2.38953e-05 -1.35436e-05 0)
(2.99407e-05 -1.50139e-05 0)
(3.65174e-05 -1.63096e-05 0)
(4.35627e-05 -1.74305e-05 0)
(5.1013e-05 -1.83807e-05 0)
(5.88054e-05 -1.91672e-05 0)
(6.68793e-05 -1.97982e-05 0)
(7.51768e-05 -2.02829e-05 0)
(8.36426e-05 -2.06312e-05 0)
(9.22251e-05 -2.08534e-05 0)
(0.000100876 -2.09591e-05 0)
(0.000109551 -2.0958e-05 0)
(0.000118209 -2.08596e-05 0)
(0.000126811 -2.06727e-05 0)
(0.000135324 -2.04057e-05 0)
(0.000143715 -2.00667e-05 0)
(0.000151958 -1.96629e-05 0)
(0.000160025 -1.92016e-05 0)
(0.000167895 -1.86889e-05 0)
(0.000175547 -1.81307e-05 0)
(0.000182964 -1.75325e-05 0)
(0.000190128 -1.68993e-05 0)
(0.000197026 -1.62354e-05 0)
(0.000203647 -1.55448e-05 0)
(0.000209978 -1.48309e-05 0)
(0.000216011 -1.40971e-05 0)
(0.000221737 -1.3346e-05 0)
(0.000227149 -1.258e-05 0)
(0.000232242 -1.18012e-05 0)
(0.000237009 -1.10111e-05 0)
(0.000241447 -1.02114e-05 0)
(0.000245551 -9.40316e-06 0)
(0.000249317 -8.58731e-06 0)
(0.000252742 -7.76454e-06 0)
(0.000255824 -6.9354e-06 0)
(0.000258559 -6.10031e-06 0)
(0.000260944 -5.25952e-06 0)
(0.000262977 -4.41317e-06 0)
(0.000264656 -3.56131e-06 0)
(0.000265979 -2.70395e-06 0)
(0.000266942 -1.84109e-06 0)
(0.000267544 -9.72749e-07 0)
(0.000267781 -9.8969e-08 0)
(0.000267653 7.80208e-07 0)
(0.000267155 1.66467e-06 0)
(0.000266288 2.55418e-06 0)
(0.000265047 3.44834e-06 0)
(0.000263433 4.34662e-06 0)
(0.000261442 5.24835e-06 0)
(0.000259074 6.15273e-06 0)
(0.000256329 7.05873e-06 0)
(0.000253205 7.96506e-06 0)
(0.000249703 8.87019e-06 0)
(0.000245825 9.77233e-06 0)
(0.000241572 1.06695e-05 0)
(0.000236947 1.15593e-05 0)
(0.000231954 1.24391e-05 0)
(0.000226597 1.33061e-05 0)
(0.000220884 1.41569e-05 0)
(0.000214822 1.49879e-05 0)
(0.00020842 1.57952e-05 0)
(0.00020169 1.65744e-05 0)
(0.000194644 1.7321e-05 0)
(0.000187297 1.80298e-05 0)
(0.000179668 1.86954e-05 0)
(0.000171774 1.93119e-05 0)
(0.000163638 1.98731e-05 0)
(0.000155285 2.03726e-05 0)
(0.000146741 2.08032e-05 0)
(0.000138037 2.11577e-05 0)
(0.000129207 2.14284e-05 0)
(0.000120285 2.16071e-05 0)
(0.000111312 2.16856e-05 0)
(0.000102329 2.16552e-05 0)
(9.33837e-05 2.1507e-05 0)
(8.45241e-05 2.1232e-05 0)
(7.58028e-05 2.08213e-05 0)
(6.72752e-05 2.02658e-05 0)
(5.89995e-05 1.95572e-05 0)
(5.10362e-05 1.86877e-05 0)
(4.34479e-05 1.76508e-05 0)
(3.62983e-05 1.64418e-05 0)
(2.96509e-05 1.50592e-05 0)
(2.35681e-05 1.35057e-05 0)
(1.81085e-05 1.17908e-05 0)
(1.33248e-05 9.93392e-06 0)
(9.26007e-06 7.96876e-06 0)
(5.944e-06 5.95053e-06 0)
(3.38637e-06 3.96549e-06 0)
(1.57018e-06 2.1432e-06 0)
(4.64939e-07 6.73873e-07 0)
(4.31908e-08 -1.44773e-07 0)
(9.91927e-08 -2.49955e-07 0)
(7.78622e-07 -1.88388e-06 0)
(2.38109e-06 -4.17462e-06 0)
(4.85266e-06 -6.81333e-06 0)
(8.17906e-06 -9.59277e-06 0)
(1.23531e-05 -1.23681e-05 0)
(1.73468e-05 -1.50403e-05 0)
(2.31165e-05 -1.75448e-05 0)
(2.96076e-05 -1.98423e-05 0)
(3.6758e-05 -2.19103e-05 0)
(4.45011e-05 -2.37384e-05 0)
(5.27678e-05 -2.53249e-05 0)
(6.1488e-05 -2.66741e-05 0)
(7.05927e-05 -2.77943e-05 0)
(8.00145e-05 -2.86957e-05 0)
(8.96886e-05 -2.93907e-05 0)
(9.95531e-05 -2.98924e-05 0)
(0.00010955 -3.02142e-05 0)
(0.000119624 -3.03696e-05 0)
(0.000129725 -3.0372e-05 0)
(0.000139806 -3.02347e-05 0)
(0.000149823 -2.99698e-05 0)
(0.000159736 -2.95892e-05 0)
(0.000169511 -2.91043e-05 0)
(0.000179114 -2.85256e-05 0)
(0.000188515 -2.78631e-05 0)
(0.000197688 -2.71257e-05 0)
(0.000206609 -2.6322e-05 0)
(0.000215257 -2.54597e-05 0)
(0.000223614 -2.4546e-05 0)
(0.000231663 -2.35872e-05 0)
(0.00023939 -2.2589e-05 0)
(0.000246781 -2.15566e-05 0)
(0.000253826 -2.04946e-05 0)
(0.000260515 -1.9407e-05 0)
(0.000266839 -1.82972e-05 0)
(0.000272791 -1.71681e-05 0)
(0.000278365 -1.60223e-05 0)
(0.000283556 -1.4862e-05 0)
(0.000288357 -1.36888e-05 0)
(0.000292765 -1.25042e-05 0)
(0.000296776 -1.13091e-05 0)
(0.000300386 -1.01045e-05 0)
(0.000303591 -8.89087e-06 0)
(0.000306389 -7.66871e-06 0)
(0.000308776 -6.4382e-06 0)
(0.00031075 -5.19945e-06 0)
(0.000312307 -3.95252e-06 0)
(0.000313444 -2.69746e-06 0)
(0.00031416 -1.43435e-06 0)
(0.00031445 -1.63227e-07 0)
(0.000314312 1.11582e-06 0)
(0.000313743 2.40256e-06 0)
(0.000312742 3.69658e-06 0)
(0.000311305 4.99727e-06 0)
(0.00030943 6.30387e-06 0)
(0.000307117 7.61542e-06 0)
(0.000304362 8.93069e-06 0)
(0.000301166 1.02481e-05 0)
(0.000297528 1.15657e-05 0)
(0.000293449 1.28813e-05 0)
(0.00028893 1.41922e-05 0)
(0.000283973 1.54956e-05 0)
(0.000278582 1.6788e-05 0)
(0.000272761 1.80656e-05 0)
(0.000266516 1.9324e-05 0)
(0.000259855 2.05584e-05 0)
(0.000252787 2.17637e-05 0)
(0.000245323 2.2934e-05 0)
(0.000237476 2.40631e-05 0)
(0.000229261 2.51443e-05 0)
(0.000220697 2.61701e-05 0)
(0.000211802 2.71328e-05 0)
(0.0002026 2.80239e-05 0)
(0.000193117 2.88345e-05 0)
(0.000183381 2.95551e-05 0)
(0.000173423 3.01757e-05 0)
(0.00016328 3.0686e-05 0)
(0.000152988 3.10749e-05 0)
(0.00014259 3.13311e-05 0)
(0.00013213 3.14428e-05 0)
(0.000121659 3.13978e-05 0)
(0.000111228 3.11839e-05 0)
(0.000100893 3.07887e-05 0)
(9.07145e-05 3.01999e-05 0)
(8.0754e-05 2.94057e-05 0)
(7.10775e-05 2.8395e-05 0)
(6.17527e-05 2.71579e-05 0)
(5.28493e-05 2.56864e-05 0)
(4.44377e-05 2.39755e-05 0)
(3.65881e-05 2.20247e-05 0)
(2.93689e-05 1.98394e-05 0)
(2.28447e-05 1.74342e-05 0)
(1.70736e-05 1.48363e-05 0)
(1.21052e-05 1.2091e-05 0)
(7.97663e-06 9.2686e-06 0)
(4.70792e-06 6.47508e-06 0)
(2.29613e-06 3.86307e-06 0)
(7.44021e-07 1.648e-06 0)
(9.27164e-08 1.51856e-07 0)
(1.46238e-07 -7.09286e-07 0)
(1.0479e-06 -3.25787e-06 0)
(3.08655e-06 -6.47029e-06 0)
(6.13925e-06 -1.00296e-05 0)
(1.0155e-05 -1.37159e-05 0)
(1.51096e-05 -1.73695e-05 0)
(2.09619e-05 -2.08777e-05 0)
(2.7658e-05 -2.41653e-05 0)
(3.51355e-05 -2.71845e-05 0)
(4.33269e-05 -2.99069e-05 0)
(5.21597e-05 -3.23187e-05 0)
(6.1559e-05 -3.44167e-05 0)
(7.14497e-05 -3.6205e-05 0)
(8.17575e-05 -3.76928e-05 0)
(9.24095e-05 -3.88927e-05 0)
(0.000103335 -3.98201e-05 0)
(0.000114468 -4.04912e-05 0)
(0.000125744 -4.09229e-05 0)
(0.000137103 -4.11327e-05 0)
(0.000148489 -4.1138e-05 0)
(0.000159851 -4.09557e-05 0)
(0.00017114 -4.06019e-05 0)
(0.000182313 -4.00924e-05 0)
(0.00019333 -3.9442e-05 0)
(0.000204154 -3.86649e-05 0)
(0.000214753 -3.7774e-05 0)
(0.000225096 -3.67815e-05 0)
(0.000235156 -3.56988e-05 0)
(0.000244911 -3.45365e-05 0)
(0.00025434 -3.33038e-05 0)
(0.000263422 -3.20093e-05 0)
(0.000272143 -3.06609e-05 0)
(0.000280487 -2.92656e-05 0)
(0.000288443 -2.78295e-05 0)
(0.000295998 -2.63579e-05 0)
(0.000303143 -2.48557e-05 0)
(0.000309871 -2.33267e-05 0)
(0.000316173 -2.17746e-05 0)
(0.000322042 -2.02022e-05 0)
(0.000327474 -1.86119e-05 0)
(0.000332463 -1.70055e-05 0)
(0.000337005 -1.53845e-05 0)
(0.000341094 -1.37501e-05 0)
(0.000344728 -1.21032e-05 0)
(0.000347902 -1.04443e-05 0)
(0.000350613 -8.77372e-06 0)
(0.000352858 -7.09167e-06 0)
(0.000354632 -5.39832e-06 0)
(0.000355933 -3.69377e-06 0)
(0.000356757 -1.97806e-06 0)
(0.000357101 -2.5129e-07 0)
(0.000356962 1.48634e-06 0)
(0.000356336 3.23443e-06 0)
(0.000355221 4.99239e-06 0)
(0.000353614 6.75941e-06 0)
(0.000351513 8.53445e-06 0)
(0.000348916 1.03161e-05 0)
(0.00034582 1.21027e-05 0)
(0.000342226 1.38919e-05 0)
(0.000338132 1.56812e-05 0)
(0.00033354 1.74676e-05 0)
(0.00032845 1.92474e-05 0)
(0.000322866 2.10166e-05 0)
(0.000316791 2.27706e-05 0)
(0.000310231 2.45039e-05 0)
(0.000303192 2.62109e-05 0)
(0.000295683 2.78849e-05 0)
(0.000287714 2.95189e-05 0)
(0.000279298 3.11049e-05 0)
(0.00027045 3.26346e-05 0)
(0.000261187 3.40987e-05 0)
(0.000251529 3.54874e-05 0)
(0.000241498 3.679e-05 0)
(0.000231121 3.79952e-05 0)
(0.000220425 3.90909e-05 0)
(0.000209444 4.00646e-05 0)
(0.000198213 4.0903e-05 0)
(0.000186771 4.15919e-05 0)
(0.00017516 4.2117e-05 0)
(0.000163428 4.24632e-05 0)
(0.000151624 4.26148e-05 0)
(0.000139804 4.25562e-05 0)
(0.000128024 4.22713e-05 0)
(0.000116347 4.17442e-05 0)
(0.000104838 4.09593e-05 0)
(9.35659e-05 3.99017e-05 0)
(8.2602e-05 3.85576e-05 0)
(7.20202e-05 3.69151e-05 0)
(6.18958e-05 3.4965e-05 0)
(5.23052e-05 3.27023e-05 0)
(4.33241e-05 3.01274e-05 0)
(3.50264e-05 2.72487e-05 0)
(2.74823e-05 2.40859e-05 0)
(2.07566e-05 2.06733e-05 0)
(1.49061e-05 1.70661e-05 0)
(9.97826e-06 1.33474e-05 0)
(6.0061e-06 9.6377e-06 0)
(3.00446e-06 6.10542e-06 0)
(1.01235e-06 2.98036e-06 0)
(1.38859e-07 5.92515e-07 0)
(1.8759e-07 -1.30246e-06 0)
(1.29566e-06 -4.97249e-06 0)
(3.74881e-06 -9.26558e-06 0)
(7.35822e-06 -1.38703e-05 0)
(1.20371e-05 -1.85627e-05 0)
(1.77421e-05 -2.31757e-05 0)
(2.44168e-05 -2.75888e-05 0)
(3.19954e-05 -3.17192e-05 0)
(4.04073e-05 -3.5512e-05 0)
(4.95776e-05 -3.89347e-05 0)
(5.94281e-05 -4.19708e-05 0)
(6.9879e-05 -4.46158e-05 0)
(8.08504e-05 -4.68735e-05 0)
(9.22631e-05 -4.87546e-05 0)
(0.00010404 -5.0274e-05 0)
(0.000116105 -5.14496e-05 0)
(0.000128389 -5.23009e-05 0)
(0.000140822 -5.28489e-05 0)
(0.000153341 -5.3115e-05 0)
(0.000165885 -5.31205e-05 0)
(0.0001784 -5.28862e-05 0)
(0.000190832 -5.24326e-05 0)
(0.000203136 -5.17794e-05 0)
(0.000215266 -5.09454e-05 0)
(0.000227185 -4.99481e-05 0)
(0.000238855 -4.88042e-05 0)
(0.000250245 -4.75292e-05 0)
(0.000261326 -4.61377e-05 0)
(0.000272071 -4.46428e-05 0)
(0.000282457 -4.30568e-05 0)
(0.000292465 -4.13904e-05 0)
(0.000302076 -3.96539e-05 0)
(0.000311274 -3.78562e-05 0)
(0.000320044 -3.60052e-05 0)
(0.000328376 -3.41078e-05 0)
(0.000336258 -3.217e-05 0)
(0.000343681 -3.01972e-05 0)
(0.000350637 -2.81939e-05 0)
(0.000357117 -2.61638e-05 0)
(0.000363117 -2.41099e-05 0)
(0.00036863 -2.20347e-05 0)
(0.000373651 -1.99402e-05 0)
(0.000378175 -1.78279e-05 0)
(0.000382197 -1.5699e-05 0)
(0.000385714 -1.35541e-05 0)
(0.000388721 -1.13937e-05 0)
(0.000391215 -9.21815e-06 0)
(0.00039319 -7.02771e-06 0)
(0.000394645 -4.82247e-06 0)
(0.000395574 -2.60254e-06 0)
(0.000395974 -3.68082e-07 0)
(0.000395841 1.88057e-06 0)
(0.000395173 4.14287e-06 0)
(0.000393965 6.41804e-06 0)
(0.000392214 8.70502e-06 0)
(0.000389919 1.10024e-05 0)
(0.000387075 1.33083e-05 0)
(0.000383683 1.56205e-05 0)
(0.00037974 1.7936e-05 0)
(0.000375246 2.02515e-05 0)
(0.000370202 2.2563e-05 0)
(0.000364609 2.48657e-05 0)
(0.00035847 2.71545e-05 0)
(0.000351789 2.94232e-05 0)
(0.000344573 3.1665e-05 0)
(0.000336828 3.38722e-05 0)
(0.000328564 3.60365e-05 0)
(0.000319793 3.81485e-05 0)
(0.000310528 4.01982e-05 0)
(0.000300786 4.21746e-05 0)
(0.000290585 4.40658e-05 0)
(0.000279948 4.58591e-05 0)
(0.0002689 4.75409e-05 0)
(0.000257468 4.90966e-05 0)
(0.000245685 5.05108e-05 0)
(0.000233585 5.17675e-05 0)
(0.000221208 5.28496e-05 0)
(0.000208596 5.37393e-05 0)
(0.000195795 5.44184e-05 0)
(0.000182857 5.48676e-05 0)
(0.000169836 5.50676e-05 0)
(0.000156791 5.49987e-05 0)
(0.000143784 5.4641e-05 0)
(0.000130883 5.39749e-05 0)
(0.000118158 5.29814e-05 0)
(0.000105682 5.16424e-05 0)
(9.35313e-05 4.99415e-05 0)
(8.17855e-05 4.78648e-05 0)
(7.05248e-05 4.5402e-05 0)
(5.98305e-05 4.25479e-05 0)
(4.97836e-05 3.93041e-05 0)
(4.04635e-05 3.56817e-05 0)
(3.19464e-05 3.17045e-05 0)
(2.43042e-05 2.7413e-05 0)
(1.76026e-05 2.28702e-05 0)
(1.19009e-05 1.81684e-05 0)
(7.24742e-06 1.34378e-05 0)
(3.67636e-06 8.85561e-06 0)
(1.26304e-06 4.6567e-06 0)
(1.8057e-07 1.16729e-06 0)
(2.24137e-07 -2.01753e-06 0)
(1.52121e-06 -7.00393e-06 0)
(4.36016e-06 -1.25325e-05 0)
(8.4938e-06 -1.83045e-05 0)
(1.38007e-05 -2.40994e-05 0)
(2.02173e-05 -2.97495e-05 0)
(2.76713e-05 -3.51309e-05 0)
(3.60846e-05 -4.01563e-05 0)
(4.53765e-05 -4.47672e-05 0)
(5.54644e-05 -4.89281e-05 0)
(6.62641e-05 -5.26207e-05 0)
(7.76908e-05 -5.58396e-05 0)
(8.96597e-05 -5.85896e-05 0)
(0.000102087 -6.08826e-05 0)
(0.000114893 -6.27359e-05 0)
(0.000127997 -6.417e-05 0)
(0.000141325 -6.52081e-05 0)
(0.000154806 -6.58751e-05 0)
(0.000168371 -6.61964e-05 0)
(0.000181958 -6.61971e-05 0)
(0.000195508 -6.59028e-05 0)
(0.000208965 -6.5338e-05 0)
(0.00022228 -6.45267e-05 0)
(0.000235407 -6.34914e-05 0)
(0.000248302 -6.22539e-05 0)
(0.00026093 -6.08344e-05 0)
(0.000273253 -5.9252e-05 0)
(0.000285242 -5.75246e-05 0)
(0.00029687 -5.56683e-05 0)
(0.00030811 -5.36981e-05 0)
(0.000318942 -5.16277e-05 0)
(0.000329345 -4.94694e-05 0)
(0.000339303 -4.72344e-05 0)
(0.000348801 -4.49323e-05 0)
(0.000357825 -4.25718e-05 0)
(0.000366364 -4.01606e-05 0)
(0.000374408 -3.77052e-05 0)
(0.000381948 -3.52111e-05 0)
(0.000388976 -3.2683e-05 0)
(0.000395485 -3.01247e-05 0)
(0.000401468 -2.75393e-05 0)
(0.00040692 -2.49293e-05 0)
(0.000411836 -2.22967e-05 0)
(0.00041621 -1.96427e-05 0)
(0.000420038 -1.69683e-05 0)
(0.000423316 -1.42743e-05 0)
(0.000426038 -1.15609e-05 0)
(0.000428201 -8.82851e-06 0)
(0.0004298 -6.07728e-06 0)
(0.000430831 -3.30738e-06 0)
(0.00043129 -5.19067e-07 0)
(0.000431173 2.28722e-06 0)
(0.000430476 5.11077e-06 0)
(0.000429195 7.9506e-06 0)
(0.000427326 1.08053e-05 0)
(0.000424867 1.36732e-05 0)
(0.000421815 1.65517e-05 0)
(0.000418168 1.94381e-05 0)
(0.000413924 2.23287e-05 0)
(0.000409083 2.52193e-05 0)
(0.000403645 2.81047e-05 0)
(0.000397612 3.09792e-05 0)
(0.000390987 3.3836e-05 0)
(0.000383774 3.66676e-05 0)
(0.00037598 3.94654e-05 0)
(0.000367613 4.22198e-05 0)
(0.000358681 4.49203e-05 0)
(0.000349199 4.75553e-05 0)
(0.000339181 5.01123e-05 0)
(0.000328645 5.25776e-05 0)
(0.00031761 5.49364e-05 0)
(0.000306101 5.7173e-05 0)
(0.000294144 5.92702e-05 0)
(0.00028177 6.12104e-05 0)
(0.000269012 6.29744e-05 0)
(0.000255909 6.45423e-05 0)
(0.000242502 6.58933e-05 0)
(0.000228836 6.70055e-05 0)
(0.000214962 6.78565e-05 0)
(0.000200934 6.8423e-05 0)
(0.000186811 6.86816e-05 0)
(0.000172654 6.86083e-05 0)
(0.00015853 6.81793e-05 0)
(0.000144511 6.73713e-05 0)
(0.000130671 6.61617e-05 0)
(0.000117087 6.45292e-05 0)
(0.000103841 6.24547e-05 0)
(9.10151e-05 5.99224e-05 0)
(7.86954e-05 5.69208e-05 0)
(6.69675e-05 5.34442e-05 0)
(5.59176e-05 4.94951e-05 0)
(4.56305e-05 4.50866e-05 0)
(3.61892e-05 4.02457e-05 0)
(2.76733e-05 3.50175e-05 0)
(2.01586e-05 2.94703e-05 0)
(1.37174e-05 2.37023e-05 0)
(8.41406e-06 1.78486e-05 0)
(4.30292e-06 1.2089e-05 0)
(1.49367e-06 6.65662e-06 0)
(2.17861e-07 1.8658e-06 0)
(2.5639e-07 -2.84229e-06 0)
(1.7249e-06 -9.32717e-06 0)
(4.91892e-06 -1.62379e-05 0)
(9.5398e-06 -2.32945e-05 0)
(1.54337e-05 -3.02856e-05 0)
(2.25177e-05 -3.70472e-05 0)
(3.07038e-05 -4.3456e-05 0)
(3.99003e-05 -4.94241e-05 0)
(5.00163e-05 -5.4892e-05 0)
(6.09608e-05 -5.98229e-05 0)
(7.26434e-05 -6.41976e-05 0)
(8.49735e-05 -6.80115e-05 0)
(9.7862e-05 -7.12704e-05 0)
(0.000111221 -7.39881e-05 0)
(0.000124967 -7.61841e-05 0)
(0.000139017 -7.78824e-05 0)
(0.000153293 -7.91098e-05 0)
(0.00016772 -7.98951e-05 0)
(0.000182228 -8.02675e-05 0)
(0.000196752 -8.0257e-05 0)
(0.000211229 -7.98932e-05 0)
(0.000225603 -7.92052e-05 0)
(0.00023982 -7.82211e-05 0)
(0.000253834 -7.69677e-05 0)
(0.000267599 -7.54709e-05 0)
(0.000281076 -7.37548e-05 0)
(0.000294228 -7.18422e-05 0)
(0.000307024 -6.97542e-05 0)
(0.000319432 -6.75104e-05 0)
(0.000331429 -6.51286e-05 0)
(0.00034299 -6.26254e-05 0)
(0.000354095 -6.00155e-05 0)
(0.000364727 -5.73122e-05 0)
(0.000374868 -5.45273e-05 0)
(0.000384506 -5.16712e-05 0)
(0.000393628 -4.87532e-05 0)
(0.000402224 -4.57811e-05 0)
(0.000410283 -4.27616e-05 0)
(0.000417797 -3.97004e-05 0)
(0.00042476 -3.6602e-05 0)
(0.000431163 -3.34702e-05 0)
(0.000437002 -3.03082e-05 0)
(0.00044227 -2.71181e-05 0)
(0.000446961 -2.39015e-05 0)
(0.000451072 -2.06598e-05 0)
(0.000454596 -1.73936e-05 0)
(0.000457529 -1.41035e-05 0)
(0.000459866 -1.07899e-05 0)
(0.000461603 -7.45301e-06 0)
(0.000462734 -4.09297e-06 0)
(0.000463256 -7.10168e-07 0)
(0.000463163 2.69483e-06 0)
(0.000462451 6.12115e-06 0)
(0.000461116 9.56757e-06 0)
(0.000459155 1.30324e-05 0)
(0.000456563 1.65134e-05 0)
(0.000453337 2.00077e-05 0)
(0.000449475 2.35117e-05 0)
(0.000444976 2.7021e-05 0)
(0.000439839 3.05303e-05 0)
(0.000434063 3.40335e-05 0)
(0.000427651 3.75235e-05 0)
(0.000420605 4.09921e-05 0)
(0.00041293 4.443e-05 0)
(0.000404632 4.78269e-05 0)
(0.00039572 5.1171e-05 0)
(0.000386204 5.44496e-05 0)
(0.000376097 5.76487e-05 0)
(0.000365415 6.0753e-05 0)
(0.000354177 6.37461e-05 0)
(0.000342404 6.66099e-05 0)
(0.000330122 6.93254e-05 0)
(0.000317357 7.18722e-05 0)
(0.000304143 7.42287e-05 0)
(0.000290516 7.63722e-05 0)
(0.000276514 7.82786e-05 0)
(0.000262184 7.99229e-05 0)
(0.000247571 8.12792e-05 0)
(0.000232731 8.23207e-05 0)
(0.000217718 8.30199e-05 0)
(0.000202595 8.33489e-05 0)
(0.000187428 8.32796e-05 0)
(0.000172287 8.27841e-05 0)
(0.000157246 8.18351e-05 0)
(0.000142382 8.04063e-05 0)
(0.000127779 7.84732e-05 0)
(0.000113519 7.6014e-05 0)
(9.96914e-05 7.30107e-05 0)
(8.63846e-05 6.94502e-05 0)
(7.36894e-05 6.53263e-05 0)
(6.1697e-05 6.06417e-05 0)
(5.04983e-05 5.54106e-05 0)
(4.01832e-05 4.96621e-05 0)
(3.08398e-05 4.34438e-05 0)
(2.25548e-05 3.68272e-05 0)
(1.54139e-05 2.99126e-05 0)
(9.49806e-06 2.28362e-05 0)
(4.88092e-06 1.57757e-05 0)
(1.70402e-06 8.95673e-06 0)
(2.51076e-07 2.67703e-06 0)
(2.84808e-07 -3.76553e-06 0)
(1.90826e-06 -1.19161e-05 0)
(5.42643e-06 -2.03468e-05 0)
(1.04951e-05 -2.87999e-05 0)
(1.69323e-05 -3.70769e-05 0)
(2.46371e-05 -4.50209e-05 0)
(3.35051e-05 -5.25133e-05 0)
(4.34313e-05 -5.94684e-05 0)
(5.43143e-05 -6.58279e-05 0)
(6.60548e-05 -7.15555e-05 0)
(7.85552e-05 -7.66335e-05 0)
(9.17193e-05 -8.10584e-05 0)
(0.000105453 -8.48378e-05 0)
(0.000119666 -8.7988e-05 0)
(0.000134269 -9.05314e-05 0)
(0.000149178 -9.24956e-05 0)
(0.000164311 -9.39112e-05 0)
(0.000179592 -9.48108e-05 0)
(0.000194948 -9.52282e-05 0)
(0.00021031 -9.51979e-05 0)
(0.000225616 -9.47539e-05 0)
(0.000240806 -9.39299e-05 0)
(0.000255826 -9.27582e-05 0)
(0.000270626 -9.12703e-05 0)
(0.00028516 -8.9496e-05 0)
(0.000299388 -8.74636e-05 0)
(0.000313271 -8.51996e-05 0)
(0.000326777 -8.27286e-05 0)
(0.000339873 -8.00737e-05 0)
(0.000352535 -7.72557e-05 0)
(0.000364738 -7.42941e-05 0)
(0.00037646 -7.12061e-05 0)
(0.000387683 -6.80074e-05 0)
(0.00039839 -6.47118e-05 0)