/*--------------------------------*- C++ -*----------------------------------*\
  =========                 |
  \\      /  F ield         | OpenFOAM: The Open Source CFD Toolbox
   \\    /   O peration     | Website:  https://openfoam.org
    \\  /    A nd           | Version:  7
     \\/     M anipulation  |
\*---------------------------------------------------------------------------*/
FoamFile
{
    version     2.0;
    format      ascii;
    class       volVectorField;
    location    "1.5";
    object      U;
}
// * * * * * * * * * * * * * * * * * * * * * * * * * * * * * * * * * * * * * //

dimensions      [0 1 -1 0 0 0 0];

internalField   nonuniform List<vector> 
2413
(
(1.52851 0.0361932 0)
(1.53017 0.0353941 0)
(1.53227 0.0330568 0)
(1.53473 0.0285671 0)
(1.53626 0.0257411 0)
(1.53743 0.0246388 0)
(1.53928 0.021817 0)
(1.54172 0.0175162 0)
(1.54326 0.0155682 0)
(1.54483 0.0141751 0)
(1.54738 0.0107197 0)
(1.54903 0.00725463 0)
(1.55014 0.00596797 0)
(1.55185 0.00304302 0)
(1.5539 -0.00113034 0)
(1.55519 -0.00291012 0)
(1.5565 -0.00464748 0)
(1.55897 -0.0081079 0)
(1.56068 -0.0117185 0)
(1.56197 -0.0128176 0)
(1.56352 -0.0150747 0)
(1.56571 -0.0192234 0)
(1.56701 -0.0220936 0)
(1.56803 -0.0232326 0)
(1.5696 -0.02586 0)
(1.57181 -0.029909 0)
(1.57312 -0.0318421 0)
(1.57446 -0.033111 0)
(1.57681 -0.0360788 0)
(1.57842 -0.0398193 0)
(1.57947 -0.0412235 0)
(1.58022 -0.0430787 0)
(1.58222 -0.046959 0)
(1.58339 -0.0496137 0)
(1.58443 -0.0508714 0)
(1.58669 -0.0532054 0)
(1.58872 -0.0568529 0)
(1.58993 -0.05843 0)
(1.59099 -0.0599981 0)
(1.59262 -0.0642959 0)
(1.59322 -0.0670298 0)
(1.5938 -0.06861 0)
(1.59577 -0.0708848 0)
(1.59792 -0.0741521 0)
(1.59921 -0.0760955 0)
(1.60065 -0.0773681 0)
(1.60225 -0.0808675 0)
(1.60262 -0.0838346 0)
(1.60266 -0.0855282 0)
(1.60372 -0.0878976 0)
(1.60573 -0.0903712 0)
(1.60697 -0.0921022 0)
(1.60867 -0.0937042 0)
(1.61022 -0.0963056 0)
(1.6109 -0.0983339 0)
(1.61078 -0.100116 0)
(1.61081 -0.103004 0)
(1.61228 -0.105379 0)
(1.61325 -0.106651 0)
(1.61522 -0.108505 0)
(1.61694 -0.111071 0)
(1.61806 -0.112898 0)
(1.61885 -0.114342 0)
(1.61928 -0.11781 0)
(1.61918 -0.120044 0)
(1.61979 -0.122095 0)
(1.62168 -0.124019 0)
(1.6235 -0.126688 0)
(1.62459 -0.128053 0)
(1.6265 -0.130258 0)
(1.62759 -0.133147 0)
(1.62802 -0.135007 0)
(1.62781 -0.137528 0)
(1.62889 -0.140206 0)
(1.62983 -0.141935 0)
(1.63091 -0.14353 0)
(1.63286 -0.145402 0)
(1.63438 -0.14799 0)
(1.63539 -0.149299 0)
(1.63646 -0.15082 0)
(1.63694 -0.153857 0)
(1.63663 -0.15579 0)
(1.63682 -0.157651 0)
(1.63829 -0.15918 0)
(1.6399 -0.161356 0)
(1.64085 -0.162715 0)
(1.64237 -0.164126 0)
(1.64377 -0.166728 0)
(1.64422 -0.168914 0)
(1.64421 -0.170562 0)
(1.64374 -0.173132 0)
(1.64488 -0.175195 0)
(1.6457 -0.176739 0)
(1.64681 -0.178003 0)
(1.64853 -0.179963 0)
(1.41682 0.158036 0)
(1.41905 0.155732 0)
(1.42248 0.153086 0)
(1.4261 0.149683 0)
(1.42897 0.147583 0)
(1.43119 0.146164 0)
(1.43387 0.142188 0)
(1.43623 0.138165 0)
(1.43811 0.13649 0)
(1.44073 0.134285 0)
(1.44419 0.130998 0)
(1.4471 0.127584 0)
(1.4494 0.126288 0)
(1.45122 0.124077 0)
(1.45412 0.119635 0)
(1.45645 0.116244 0)
(1.45839 0.115028 0)
(1.46084 0.112763 0)
(1.46406 0.108919 0)
(1.46655 0.105496 0)
(1.46856 0.104381 0)
(1.47038 0.102231 0)
(1.47333 0.0980652 0)
(1.47564 0.0943772 0)
(1.47754 0.0932223 0)
(1.47948 0.0912285 0)
(1.48249 0.0875952 0)
(1.48502 0.0836691 0)
(1.48699 0.0824754 0)
(1.48879 0.080833 0)
(1.4916 0.0770621 0)
(1.49379 0.0731118 0)
(1.49551 0.0718342 0)
(1.49718 0.0699497 0)
(1.50003 0.0665528 0)
(1.50242 0.0627854 0)
(1.50425 0.0617398 0)
(1.50613 0.0600106 0)
(1.50882 0.0560432 0)
(1.5106 0.0526483 0)
(1.51198 0.0514941 0)
(1.51372 0.0491432 0)
(1.5165 0.045245 0)
(1.51834 0.0427489 0)
(1.51992 0.0417046 0)
(1.52249 0.0386566 0)
(1.52438 0.0348404 0)
(1.52557 0.0334082 0)
(1.52703 0.0309846 0)
(1.52953 0.0270143 0)
(1.53114 0.0247402 0)
(1.53254 0.0235899 0)
(1.53496 0.0204384 0)
(1.53677 0.0164071 0)
(1.53799 0.015039 0)
(1.53922 0.0131357 0)
(1.54163 0.00964977 0)
(1.54335 0.00630335 0)
(1.54471 0.00548778 0)
(1.54621 0.00345074 0)
(1.54823 -0.000655487 0)
(1.5494 -0.00285591 0)
(1.55049 -0.00424524 0)
(1.55261 -0.00669796 0)
(1.55485 -0.010067 0)
(1.55645 -0.0123371 0)
(1.55764 -0.0132245 0)
(1.5591 -0.0162422 0)
(1.56057 -0.020329 0)
(1.56145 -0.0218922 0)
(1.56301 -0.0238739 0)
(1.56557 -0.0264612 0)
(1.56734 -0.0290574 0)
(1.56907 -0.0309428 0)
(1.5709 -0.0338161 0)
(1.57181 -0.0363492 0)
(1.57219 -0.0387515 0)
(1.57328 -0.0415334 0)
(1.57561 -0.044048 0)
(1.57758 -0.0466327 0)
(1.5792 -0.0482574 0)
(1.58115 -0.0504052 0)
(1.58235 -0.0524381 0)
(1.58255 -0.0548074 0)
(1.58311 -0.0581588 0)
(1.5841 -0.0602229 0)
(1.58579 -0.0618792 0)
(1.58789 -0.0637832 0)
(1.58953 -0.065643 0)
(1.59097 -0.0668866 0)
(1.59218 -0.0697589 0)
(1.59214 -0.072502 0)
(1.5918 -0.0746607 0)
(1.59315 -0.0766864 0)
(1.59524 -0.0784779 0)
(1.59675 -0.0803142 0)
(1.59861 -0.0822734 0)
(1.60008 -0.0847954 0)
(1.60081 -0.086751 0)
(1.60058 -0.0890545 0)
(1.60075 -0.0920413 0)
(1.60234 -0.094189 0)
(1.60339 -0.0956491 0)
(1.60541 -0.0974976 0)
(1.60718 -0.099964 0)
(1.60837 -0.101925 0)
(1.60919 -0.103159 0)
(1.60965 -0.106309 0)
(1.60971 -0.108746 0)
(1.61015 -0.110446 0)
(1.61179 -0.112098 0)
(1.61365 -0.114302 0)
(1.61481 -0.115904 0)
(1.61641 -0.117445 0)
(1.61783 -0.120048 0)
(1.61843 -0.122167 0)
(1.61853 -0.124182 0)
(1.61895 -0.126836 0)
(1.62046 -0.128788 0)
(1.62134 -0.130231 0)
(1.62314 -0.131974 0)
(1.62493 -0.134258 0)
(1.62602 -0.136462 0)
(1.62691 -0.137532 0)
(1.62745 -0.140087 0)
(1.62755 -0.142902 0)
(1.62768 -0.144355 0)
(1.62892 -0.145992 0)
(1.63048 -0.1476 0)
(1.6316 -0.14977 0)
(1.63257 -0.150559 0)
(1.63369 -0.152299 0)
(1.39601 0.172632 0)
(1.39962 0.169725 0)
(1.40274 0.167202 0)
(1.40517 0.165569 0)
(1.40676 0.162765 0)
(1.40976 0.158567 0)
(1.41214 0.156297 0)
(1.4147 0.15478 0)
(1.41816 0.152237 0)
(1.42124 0.148757 0)
(1.42356 0.146879 0)
(1.42532 0.144942 0)
(1.42737 0.141651 0)
(1.43043 0.138 0)
(1.43294 0.135905 0)
(1.43524 0.134772 0)
(1.43824 0.131962 0)
(1.44086 0.127873 0)
(1.4427 0.126033 0)
(1.44435 0.124334 0)
(1.44713 0.121357 0)
(1.44999 0.117746 0)
(1.45231 0.115645 0)
(1.45431 0.114425 0)
(1.45638 0.111697 0)
(1.45916 0.107464 0)
(1.46115 0.105333 0)
(1.46305 0.104215 0)
(1.46588 0.101614 0)
(1.46853 0.0977588 0)
(1.47048 0.0956965 0)
(1.47206 0.0942884 0)
(1.47391 0.0915381 0)
(1.47687 0.0878369 0)
(1.47906 0.0855959 0)
(1.48105 0.0845912 0)
(1.48382 0.0817935 0)
(1.48599 0.0780034 0)
(1.4875 0.0761789 0)
(1.48874 0.0741102 0)
(1.49129 0.0712282 0)
(1.494 0.0678049 0)
(1.49594 0.0666272 0)
(1.4984 0.0646698 0)
(1.50063 0.061127 0)
(1.50186 0.0586716 0)
(1.50271 0.0563824 0)
(1.50504 0.0535297 0)
(1.50767 0.0503805 0)
(1.5095 0.0491272 0)
(1.51196 0.0470601 0)
(1.51394 0.0435761 0)
(1.51485 0.0412662 0)
(1.51542 0.0390033 0)
(1.51743 0.0363984 0)
(1.52003 0.0336091 0)
(1.52208 0.0315454 0)
(1.524 0.0303538 0)
(1.52601 0.0276166 0)
(1.52689 0.0246589 0)
(1.52722 0.0223546 0)
(1.52881 0.0199389 0)
(1.53143 0.0176686 0)
(1.53379 0.015102 0)
(1.53569 0.0137011 0)
(1.53773 0.0114305 0)
(1.53887 0.00846952 0)
(1.53908 0.00582161 0)
(1.54002 0.0032142 0)
(1.5423 0.00117031 0)
(1.54483 -0.00125113 0)
(1.54701 -0.00356877 0)
(1.54902 -0.00547328 0)
(1.55065 -0.00756518 0)
(1.55112 -0.0100643 0)
(1.55147 -0.0132887 0)
(1.55328 -0.0157886 0)
(1.55512 -0.017728 0)
(1.55749 -0.0197277 0)
(1.55948 -0.021696 0)
(1.56118 -0.0232347 0)
(1.56275 -0.0260095 0)
(1.56313 -0.0287016 0)
(1.56309 -0.0312253 0)
(1.5648 -0.0332367 0)
(1.56689 -0.0349325 0)
(1.56887 -0.0369306 0)
(1.57089 -0.039131 0)
(1.57245 -0.0411692 0)
(1.57338 -0.0430115 0)
(1.57334 -0.0457722 0)
(1.57372 -0.0484468 0)
(1.57523 -0.0503293 0)
(1.57727 -0.0520995 0)
(1.57919 -0.0542834 0)
(1.58063 -0.0555212 0)
(1.58208 -0.0572517 0)
(1.58268 -0.0602279 0)
(1.58224 -0.0624763 0)
(1.5824 -0.0647052 0)
(1.58415 -0.0662446 0)
(1.58608 -0.0682167 0)
(1.58744 -0.0695836 0)
(1.5892 -0.0713891 0)
(1.59038 -0.0738461 0)
(1.59086 -0.0757582 0)
(1.5906 -0.0780211 0)
(1.59113 -0.0806824 0)
(1.59296 -0.0826786 0)
(1.59416 -0.084253 0)
(1.59601 -0.0859168 0)
(1.59796 -0.0884316 0)
(1.59914 -0.0909302 0)
(1.60001 -0.0925693 0)
(1.60011 -0.0951517 0)
(1.60144 -0.0981566 0)
(1.6022 -0.099684 0)
(1.60362 -0.101354 0)
(1.60549 -0.103055 0)
(1.607 -0.105688 0)
(1.60813 -0.106609 0)
(1.60938 -0.108231 0)
(1.61009 -0.111049 0)
(1.61024 -0.112735 0)
(1.61047 -0.114378 0)
(1.61177 -0.115832 0)
(1.61314 -0.117805 0)
(1.61415 -0.118638 0)
(1.6156 -0.11993 0)
(1.61673 -0.12228 0)
(1.61725 -0.124031 0)
(1.61724 -0.125506 0)
(1.37756 0.185467 0)
(1.38013 0.183397 0)
(1.38162 0.180893 0)
(1.38408 0.177497 0)
(1.38734 0.17461 0)
(1.38991 0.173308 0)
(1.39316 0.171389 0)
(1.39631 0.168207 0)
(1.39864 0.165882 0)
(1.40038 0.16399 0)
(1.40229 0.161226 0)
(1.40542 0.158192 0)
(1.4084 0.155623 0)
(1.4108 0.154684 0)
(1.41352 0.152498 0)
(1.41623 0.148592 0)
(1.41812 0.146311 0)
(1.41979 0.144642 0)
(1.42239 0.142128 0)
(1.42548 0.138914 0)
(1.42808 0.13647 0)
(1.43024 0.1354 0)
(1.43217 0.133095 0)
(1.43481 0.129045 0)
(1.43684 0.126642 0)
(1.43875 0.125506 0)
(1.44138 0.123403 0)
(1.44428 0.120206 0)
(1.4466 0.117641 0)
(1.4486 0.116168 0)
(1.45007 0.114029 0)
(1.4525 0.110782 0)
(1.45487 0.108098 0)
(1.45704 0.106368 0)
(1.45987 0.104257 0)
(1.4625 0.10159 0)
(1.46448 0.0993675 0)
(1.46567 0.0971559 0)
(1.46691 0.0941749 0)
(1.46956 0.091604 0)
(1.47225 0.0893777 0)
(1.47493 0.087386 0)
(1.47757 0.085173 0)
(1.47958 0.0828599 0)
(1.4805 0.0803634 0)
(1.48118 0.0772543 0)
(1.48353 0.0747566 0)
(1.48622 0.0726589 0)
(1.48887 0.0705904 0)
(1.49142 0.0684298 0)
(1.4934 0.0663002 0)
(1.49428 0.0639674 0)
(1.49449 0.0608552 0)
(1.49649 0.0582825 0)
(1.49908 0.0562763 0)
(1.50161 0.0542776 0)
(1.50405 0.0522564 0)
(1.50606 0.0500847 0)
(1.50703 0.0476829 0)
(1.50703 0.0446987 0)
(1.50868 0.0421152 0)
(1.5112 0.0401999 0)
(1.5137 0.0381841 0)
(1.51605 0.0362051 0)
(1.51808 0.0341575 0)
(1.51927 0.0319213 0)
(1.51921 0.0291347 0)
(1.52021 0.0263781 0)
(1.52252 0.024529 0)
(1.52489 0.0226084 0)
(1.52721 0.0206406 0)
(1.52925 0.0187264 0)
(1.53073 0.0168116 0)
(1.53127 0.0140704 0)
(1.53162 0.0111277 0)
(1.53331 0.00902796 0)
(1.53567 0.00738775 0)
(1.53807 0.00527655 0)
(1.54016 0.00322467 0)
(1.54198 0.00117174 0)
(1.5431 -0.00119451 0)
(1.54339 -0.00410432 0)
(1.54434 -0.00681636 0)
(1.54655 -0.00876494 0)
(1.5489 -0.0109385 0)
(1.55074 -0.0125708 0)
(1.55279 -0.0144881 0)
(1.55427 -0.0168156 0)
(1.55483 -0.0188876 0)
(1.55458 -0.0215348 0)
(1.55616 -0.0238252 0)
(1.5577 -0.0252536 0)
(1.55957 -0.0266434 0)
(1.56149 -0.0284305 0)
(1.56295 -0.0302082 0)
(1.56399 -0.0316983 0)
(1.56409 -0.0339114 0)
(1.56396 -0.0365281 0)
(1.56471 -0.038307 0)
(1.56663 -0.0397761 0)
(1.56862 -0.0417376 0)
(1.57026 -0.0438515 0)
(1.57158 -0.0450752 0)
(1.57254 -0.0474249 0)
(1.57283 -0.0508819 0)
(1.5729 -0.0529968 0)
(1.57422 -0.0550878 0)
(1.57618 -0.0568277 0)
(1.57822 -0.0595076 0)
(1.57961 -0.0610992 0)
(1.58103 -0.0627251 0)
(1.58216 -0.0659093 0)
(1.5825 -0.0681779 0)
(1.58288 -0.0700734 0)
(1.58417 -0.0720537 0)
(1.58598 -0.0739003 0)
(1.58734 -0.0755491 0)
(1.58876 -0.0765551 0)
(1.59043 -0.0783764 0)
(1.59139 -0.0804127 0)
(1.59202 -0.0817869 0)
(1.59205 -0.0836528 0)
(1.59326 -0.085696 0)
(1.59432 -0.0871343 0)
(1.59551 -0.0882711 0)
(1.59731 -0.0897405 0)
(1.59873 -0.0920704 0)
(1.59974 -0.0932504 0)
(1.6004 -0.0948488 0)
(1.60129 -0.0982542 0)
(1.60158 -0.0999394 0)
(1.6024 -0.101637 0)
(1.3582 0.197281 0)
(1.36019 0.194322 0)
(1.36339 0.191857 0)
(1.3664 0.190063 0)
(1.36949 0.188422 0)
(1.3725 0.186094 0)
(1.37476 0.183734 0)
(1.37638 0.181405 0)
(1.37852 0.178918 0)
(1.38148 0.176647 0)
(1.38481 0.174283 0)
(1.38754 0.172755 0)
(1.38994 0.171215 0)
(1.39241 0.16793 0)
(1.39425 0.165172 0)
(1.39614 0.163146 0)
(1.399 0.161058 0)
(1.40219 0.158497 0)
(1.40501 0.156131 0)
(1.40734 0.154581 0)
(1.40887 0.152459 0)
(1.41108 0.149113 0)
(1.41364 0.14639 0)
(1.4159 0.144912 0)
(1.4187 0.14313 0)
(1.42155 0.140477 0)
(1.42377 0.138061 0)
(1.42538 0.136163 0)
(1.42723 0.133706 0)
(1.42997 0.131133 0)
(1.43252 0.128873 0)
(1.43476 0.127237 0)
(1.43684 0.125247 0)
(1.43904 0.12263 0)
(1.4414 0.120183 0)
(1.44375 0.118216 0)
(1.44591 0.116317 0)
(1.44747 0.113953 0)
(1.44885 0.111188 0)
(1.45118 0.108923 0)
(1.45399 0.106891 0)
(1.45677 0.104675 0)
(1.45916 0.102593 0)
(1.46089 0.100523 0)
(1.46145 0.0977773 0)
(1.46275 0.0950094 0)
(1.46535 0.0931449 0)
(1.46817 0.0911241 0)
(1.47088 0.0889539 0)
(1.47315 0.086947 0)
(1.47467 0.0847751 0)
(1.47502 0.0817884 0)
(1.47647 0.0790249 0)
(1.47904 0.0771544 0)
(1.48176 0.0751051 0)
(1.48431 0.0729486 0)
(1.48643 0.0709061 0)
(1.48772 0.068674 0)
(1.48796 0.0657663 0)
(1.48941 0.0632084 0)
(1.49183 0.0615004 0)
(1.49433 0.0597018 0)
(1.49669 0.0578216 0)
(1.49868 0.0559883 0)
(1.4999 0.0539677 0)
(1.49998 0.0512773 0)
(1.50103 0.0487418 0)
(1.50328 0.0471355 0)
(1.5057 0.0454207 0)
(1.50799 0.0435721 0)
(1.50997 0.0417581 0)
(1.51135 0.0397035 0)
(1.51159 0.0369331 0)
(1.51249 0.0341178 0)
(1.51471 0.0323223 0)
(1.51718 0.0303563 0)
(1.51958 0.0281868 0)
(1.52163 0.0261173 0)
(1.52321 0.0239296 0)
(1.52381 0.0211947 0)
(1.52455 0.0181072 0)
(1.52664 0.0159757 0)
(1.52878 0.0141292 0)
(1.53096 0.012374 0)
(1.53301 0.0105564 0)
(1.53468 0.00875178 0)
(1.53583 0.00682963 0)
(1.53596 0.00462602 0)
(1.5363 0.00231442 0)
(1.53809 0.000709431 0)
(1.54006 -0.00065817 0)
(1.54195 -0.00208861 0)
(1.54374 -0.00363186 0)
(1.5452 -0.00526146 0)
(1.54591 -0.00702735 0)
(1.54532 -0.00971074 0)
(1.54655 -0.0123179 0)
(1.54815 -0.0139869 0)
(1.54986 -0.0154023 0)
(1.55207 -0.0174231 0)
(1.55368 -0.0199179 0)
(1.5548 -0.0219149 0)
(1.55485 -0.0242921 0)
(1.55536 -0.0274632 0)
(1.55684 -0.0296417 0)
(1.55817 -0.031212 0)
(1.56034 -0.0331026 0)
(1.56208 -0.0354445 0)
(1.56338 -0.0372008 0)
(1.56437 -0.038872 0)
(1.56422 -0.041011 0)
(1.56504 -0.0436673 0)
(1.56623 -0.0452724 0)
(1.56748 -0.0464868 0)
(1.56931 -0.0478426 0)
(1.57088 -0.0494729 0)
(1.57221 -0.0509859 0)
(1.5733 -0.0523074 0)
(1.57362 -0.0542226 0)
(1.57464 -0.0567139 0)
(1.57546 -0.0581541 0)
(1.57691 -0.0597775 0)
(1.57884 -0.0614439 0)
(1.58057 -0.0636279 0)
(1.58177 -0.0646559 0)
(1.58348 -0.0669689 0)
(1.58434 -0.0695609 0)
(1.58467 -0.0712777 0)
(1.58563 -0.0736491 0)
(1.58738 -0.0759132 0)
(1.5883 -0.0772386 0)
(1.58988 -0.0787005 0)
(1.34102 0.207396 0)
(1.34415 0.20557 0)
(1.34726 0.20386 0)
(1.35008 0.202033 0)
(1.35234 0.199925 0)
(1.35403 0.197515 0)
(1.35618 0.195166 0)
(1.35913 0.193203 0)
(1.36228 0.191348 0)
(1.36521 0.189657 0)
(1.36779 0.187929 0)
(1.3698 0.185561 0)
(1.37149 0.18274 0)
(1.37377 0.180403 0)
(1.37669 0.17853 0)
(1.37987 0.17649 0)
(1.3828 0.174398 0)
(1.38526 0.172605 0)
(1.38707 0.170417 0)
(1.38878 0.167496 0)
(1.39121 0.164916 0)
(1.39397 0.162965 0)
(1.39695 0.161117 0)
(1.39987 0.15894 0)
(1.40233 0.156739 0)
(1.40411 0.154584 0)
(1.40562 0.152049 0)
(1.40798 0.149678 0)
(1.41076 0.147709 0)
(1.41347 0.145967 0)
(1.41598 0.144299 0)
(1.41802 0.142345 0)
(1.41946 0.139858 0)
(1.4214 0.137448 0)
(1.42401 0.135544 0)
(1.42666 0.133699 0)
(1.42899 0.131841 0)
(1.43063 0.129748 0)
(1.43174 0.127096 0)
(1.43395 0.124816 0)
(1.43668 0.122916 0)
(1.43934 0.120942 0)
(1.44166 0.119043 0)
(1.44325 0.116962 0)
(1.44391 0.114213 0)
(1.44574 0.111815 0)
(1.44844 0.109994 0)
(1.45122 0.107927 0)
(1.4537 0.105847 0)
(1.45562 0.103749 0)
(1.4565 0.101031 0)
(1.45767 0.0981041 0)
(1.46011 0.0961302 0)
(1.46278 0.0942245 0)
(1.46532 0.092219 0)
(1.46749 0.0903252 0)
(1.46897 0.0882987 0)
(1.46945 0.0856845 0)
(1.47077 0.083258 0)
(1.47312 0.0816652 0)
(1.47558 0.0800366 0)
(1.47791 0.0783186 0)
(1.4799 0.0766441 0)
(1.48118 0.0747653 0)
(1.48137 0.0722173 0)
(1.48259 0.0698506 0)
(1.48492 0.0683078 0)
(1.48739 0.0665662 0)
(1.4897 0.0646805 0)
(1.49165 0.0627702 0)
(1.49281 0.0605037 0)
(1.49318 0.0574653 0)
(1.49489 0.0549765 0)
(1.49728 0.0531307 0)
(1.49976 0.0511109 0)
(1.50203 0.0490248 0)
(1.50388 0.0469893 0)
(1.50497 0.0447324 0)
(1.50542 0.0418454 0)
(1.50706 0.039466 0)
(1.50906 0.0378358 0)
(1.51123 0.0363325 0)
(1.51342 0.0345559 0)
(1.51516 0.0330674 0)
(1.51663 0.0315295 0)
(1.51735 0.0293352 0)
(1.51745 0.0272189 0)
(1.51866 0.0253969 0)
(1.5207 0.0240908 0)
(1.52291 0.0223191 0)
(1.5247 0.0208652 0)
(1.52646 0.019491 0)
(1.52781 0.0170564 0)
(1.52816 0.0146976 0)
(1.52838 0.0122274 0)
(1.53012 0.0101561 0)
(1.53232 0.00812452 0)
(1.53387 0.00673666 0)
(1.53593 0.00475403 0)
(1.53738 0.00198256 0)
(1.53799 -0.000112295 0)
(1.53801 -0.00240516 0)
(1.53921 -0.00493497 0)
(1.54114 -0.00706409 0)
(1.54246 -0.00825357 0)
(1.54435 -0.0098133 0)
(1.54587 -0.012031 0)
(1.54674 -0.0138157 0)
(1.54706 -0.0152967 0)
(1.54705 -0.0174316 0)
(1.54865 -0.0193858 0)
(1.54994 -0.0205759 0)
(1.55141 -0.021538 0)
(1.55328 -0.023156 0)
(1.55471 -0.0252446 0)
(1.5558 -0.0267857 0)
(1.55622 -0.0287244 0)
(1.55759 -0.0312854 0)
(1.55877 -0.0331992 0)
(1.56004 -0.03482 0)
(1.56206 -0.0364611 0)
(1.56417 -0.0389716 0)
(1.56541 -0.040253 0)
(1.56699 -0.0419112 0)
(1.56832 -0.0446907 0)
(1.56887 -0.0464901 0)
(1.56943 -0.0482718 0)
(1.57104 -0.0500447 0)
(1.5726 -0.051857 0)
(1.57369 -0.0527741 0)
(1.57539 -0.0541913 0)
(1.57662 -0.0560916 0)
(1.32668 0.218038 0)
(1.32944 0.216339 0)
(1.3317 0.214426 0)
(1.33343 0.21216 0)
(1.33556 0.209937 0)
(1.33841 0.208168 0)
(1.34146 0.206581 0)
(1.34436 0.205032 0)
(1.3469 0.203396 0)
(1.34877 0.201325 0)
(1.35029 0.198767 0)
(1.35268 0.196544 0)
(1.3557 0.194793 0)
(1.35884 0.193037 0)
(1.36173 0.191289 0)
(1.36416 0.189492 0)
(1.36591 0.187149 0)
(1.36767 0.184341 0)
(1.3703 0.181961 0)
(1.37331 0.179958 0)
(1.37634 0.178052 0)
(1.37913 0.176105 0)
(1.3815 0.174008 0)
(1.38335 0.171659 0)
(1.38521 0.169207 0)
(1.38764 0.167081 0)
(1.39037 0.165292 0)
(1.3931 0.163695 0)
(1.39563 0.162145 0)
(1.39776 0.16041 0)
(1.39926 0.158214 0)
(1.4008 0.155757 0)
(1.40319 0.153774 0)
(1.40592 0.152085 0)
(1.40857 0.150385 0)
(1.41088 0.148672 0)
(1.41253 0.146682 0)
(1.41347 0.144075 0)
(1.4154 0.141773 0)
(1.41807 0.140062 0)
(1.42078 0.138274 0)
(1.42321 0.136462 0)
(1.42507 0.134503 0)
(1.42599 0.131854 0)
(1.42753 0.129174 0)
(1.43014 0.127277 0)
(1.43288 0.125318 0)
(1.43538 0.12331 0)
(1.43737 0.121288 0)
(1.43847 0.118786 0)
(1.43961 0.116038 0)
(1.44193 0.114141 0)
(1.4445 0.112463 0)
(1.44699 0.110703 0)
(1.44915 0.10901 0)
(1.45072 0.107219 0)
(1.45134 0.104907 0)
(1.45256 0.102646 0)
(1.45487 0.10117 0)
(1.45732 0.0996662 0)
(1.45966 0.0980321 0)
(1.46167 0.0964022 0)
(1.46296 0.0944687 0)
(1.46341 0.091801 0)
(1.4651 0.0895353 0)
(1.46756 0.087879 0)
(1.4701 0.0859709 0)
(1.47237 0.0839855 0)
(1.47413 0.0819285 0)
(1.47501 0.0792837 0)
(1.47599 0.0763298 0)
(1.47816 0.074293 0)
(1.48059 0.0725358 0)
(1.48293 0.0707018 0)
(1.485 0.0688555 0)
(1.48655 0.0670166 0)
(1.4872 0.0647587 0)
(1.48803 0.062201 0)
(1.48986 0.0604736 0)
(1.49195 0.0591456 0)
(1.49416 0.0576484 0)
(1.49615 0.0560383 0)
(1.49778 0.0546673 0)
(1.49883 0.0529037 0)
(1.4992 0.0505021 0)
(1.50019 0.0484075 0)
(1.50215 0.0468946 0)
(1.50447 0.0452265 0)
(1.50651 0.0433946 0)
(1.50818 0.0421574 0)
(1.50974 0.0397572 0)
(1.51049 0.0370331 0)
(1.51099 0.0347947 0)
(1.51268 0.0328343 0)
(1.51491 0.0308716 0)
(1.51659 0.0294012 0)
(1.51839 0.0279094 0)
(1.5199 0.0254947 0)
(1.52056 0.0232545 0)
(1.52071 0.0210806 0)
(1.52199 0.0188656 0)
(1.52395 0.0167986 0)
(1.52537 0.0155942 0)
(1.52708 0.0144262 0)
(1.52857 0.0125442 0)
(1.52942 0.0107699 0)
(1.52959 0.00919343 0)
(1.52979 0.0070782 0)
(1.53159 0.00532357 0)
(1.53324 0.00372077 0)
(1.53476 0.00266951 0)
(1.5367 0.000928293 0)
(1.53821 -0.00147708 0)
(1.53926 -0.00322661 0)
(1.53965 -0.0053346 0)
(1.54108 -0.00780935 0)
(1.5427 -0.00997156 0)
(1.54393 -0.0114434 0)
(1.54593 -0.0129097 0)
(1.54798 -0.0151689 0)
(1.54935 -0.0167738 0)
(1.55054 -0.0177024 0)
(1.55193 -0.0200827 0)
(1.55271 -0.0220797 0)
(1.55331 -0.0232621 0)
(1.55451 -0.0247089 0)
(1.55623 -0.0263447 0)
(1.55745 -0.0274249 0)
(1.55893 -0.028337 0)
(1.56057 -0.0302025 0)
(1.56156 -0.0321163 0)
(1.56209 -0.0334331 0)
(1.31275 0.227822 0)
(1.31439 0.225627 0)
(1.31644 0.223468 0)
(1.31924 0.221819 0)
(1.32227 0.220378 0)
(1.3252 0.218982 0)
(1.32778 0.217571 0)
(1.32969 0.215854 0)
(1.33088 0.213559 0)
(1.33288 0.211373 0)
(1.33582 0.20979 0)
(1.33909 0.208165 0)
(1.34219 0.206467 0)
(1.34482 0.204826 0)
(1.34671 0.202792 0)
(1.34792 0.200014 0)
(1.3502 0.197567 0)
(1.35334 0.195696 0)
(1.35674 0.193673 0)
(1.35975 0.191767 0)
(1.36224 0.189974 0)
(1.36401 0.187805 0)
(1.36552 0.185286 0)
(1.36793 0.183278 0)
(1.37081 0.181692 0)
(1.37375 0.180148 0)
(1.37648 0.178679 0)
(1.37884 0.177205 0)
(1.3805 0.175396 0)
(1.38154 0.173025 0)
(1.38353 0.170917 0)
(1.38625 0.169337 0)
(1.38908 0.167714 0)
(1.39167 0.166089 0)
(1.39382 0.164436 0)
(1.39507 0.162323 0)
(1.39599 0.159682 0)
(1.39826 0.157696 0)
(1.401 0.156055 0)
(1.40369 0.154285 0)
(1.40602 0.152507 0)
(1.40767 0.150422 0)
(1.40857 0.147618 0)
(1.41046 0.145127 0)
(1.41312 0.143295 0)
(1.4158 0.141416 0)
(1.41819 0.139574 0)
(1.42005 0.137692 0)
(1.42107 0.135375 0)
(1.42232 0.132973 0)
(1.42462 0.131349 0)
(1.42711 0.129902 0)
(1.42951 0.128386 0)
(1.43161 0.126896 0)
(1.4331 0.125234 0)
(1.43375 0.123012 0)
(1.43525 0.120948 0)
(1.43765 0.119547 0)
(1.44017 0.118 0)
(1.44251 0.116331 0)
(1.44443 0.114581 0)
(1.44551 0.112245 0)
(1.44653 0.109392 0)
(1.44878 0.107326 0)
(1.45138 0.10547 0)
(1.45386 0.103485 0)
(1.45597 0.101575 0)
(1.45744 0.0994663 0)
(1.45816 0.0967992 0)
(1.45967 0.0944172 0)
(1.46195 0.0928124 0)
(1.46434 0.0912262 0)
(1.46657 0.0895686 0)
(1.46847 0.087964 0)
(1.46977 0.0862062 0)
(1.47027 0.0839416 0)
(1.47142 0.0818146 0)
(1.47346 0.0804397 0)
(1.47566 0.0791088 0)
(1.47779 0.0776039 0)
(1.47965 0.0761232 0)
(1.48105 0.0744811 0)
(1.48168 0.072216 0)
(1.48265 0.0697717 0)
(1.48457 0.0680135 0)
(1.48679 0.0663761 0)
(1.48895 0.0645402 0)
(1.49074 0.0628745 0)
(1.49213 0.0609189 0)
(1.49297 0.0583999 0)
(1.49382 0.056087 0)
(1.4955 0.0543568 0)
(1.49753 0.0528491 0)
(1.49949 0.0513057 0)
(1.50121 0.0498731 0)
(1.50262 0.048199 0)
(1.50329 0.0460224 0)
(1.50354 0.0436179 0)
(1.50475 0.041645 0)
(1.50665 0.0400864 0)
(1.50845 0.0386762 0)
(1.51014 0.0375036 0)
(1.51169 0.0361008 0)
(1.51271 0.034413 0)
(1.51284 0.0324412 0)
(1.51312 0.029925 0)
(1.51504 0.028183 0)
(1.51699 0.0263681 0)
(1.51884 0.0247437 0)
(1.52098 0.0227588 0)
(1.52262 0.020466 0)
(1.5237 0.0186843 0)
(1.52392 0.0165542 0)
(1.52536 0.0142103 0)
(1.52657 0.0125658 0)
(1.5281 0.0111179 0)
(1.53011 0.00976321 0)
(1.53198 0.00799859 0)
(1.53342 0.00692206 0)
(1.5349 0.00561947 0)
(1.53593 0.00404888 0)
(1.53639 0.00259391 0)
(1.53685 0.000804872 0)
(1.53846 -0.000476674 0)
(1.53973 -0.00167022 0)
(1.54141 -0.00295022 0)
(1.54327 -0.00450957 0)
(1.54486 -0.00631471 0)
(1.54602 -0.00744625 0)
(1.54704 -0.00980914 0)
(1.54765 -0.0124214 0)
(1.54823 -0.0144588 0)
(1.29868 0.23619 0)
(1.30115 0.23444 0)
(1.30419 0.233094 0)
(1.30728 0.231732 0)
(1.31008 0.230447 0)
(1.3124 0.229119 0)
(1.31381 0.227353 0)
(1.31485 0.225109 0)
(1.31727 0.223449 0)
(1.32039 0.222101 0)
(1.32375 0.220432 0)
(1.32671 0.218786 0)
(1.32911 0.21714 0)
(1.33054 0.214905 0)
(1.33175 0.212139 0)
(1.33437 0.210192 0)
(1.33771 0.208444 0)
(1.34117 0.206397 0)
(1.34399 0.204661 0)
(1.34619 0.202929 0)
(1.34755 0.200653 0)
(1.3493 0.198395 0)
(1.35203 0.196909 0)
(1.35507 0.195508 0)
(1.35804 0.194057 0)
(1.36067 0.192721 0)
(1.36282 0.191296 0)
(1.3641 0.189386 0)
(1.36528 0.187108 0)
(1.36766 0.185465 0)
(1.37047 0.18405 0)
(1.37326 0.182492 0)
(1.37571 0.180965 0)
(1.37759 0.179296 0)
(1.37845 0.176999 0)
(1.37969 0.174499 0)
(1.38221 0.172807 0)
(1.38499 0.171137 0)
(1.38759 0.169349 0)
(1.38973 0.167509 0)
(1.39102 0.165161 0)
(1.3921 0.16233 0)
(1.39437 0.160213 0)
(1.39703 0.158484 0)
(1.39958 0.156745 0)
(1.40178 0.155064 0)
(1.40337 0.15325 0)
(1.40431 0.151065 0)
(1.40592 0.149126 0)
(1.40827 0.147826 0)
(1.4107 0.146574 0)
(1.41298 0.145256 0)
(1.41491 0.143871 0)
(1.41609 0.142074 0)
(1.41697 0.139745 0)
(1.41908 0.137984 0)
(1.42167 0.136476 0)
(1.42427 0.134719 0)
(1.42653 0.132961 0)
(1.4282 0.130965 0)
(1.42913 0.128242 0)
(1.4308 0.125676 0)
(1.43331 0.123857 0)
(1.43595 0.121998 0)
(1.43832 0.120191 0)
(1.44028 0.118469 0)
(1.4415 0.116464 0)
(1.44223 0.114021 0)
(1.444 0.112125 0)
(1.4463 0.110734 0)
(1.44864 0.109232 0)
(1.45076 0.10772 0)
(1.45251 0.106226 0)
(1.45357 0.104445 0)
(1.45409 0.10226 0)
(1.45566 0.100513 0)
(1.4578 0.0992673 0)
(1.46 0.0978838 0)
(1.46203 0.0963774 0)
(1.46368 0.0947422 0)
(1.46473 0.0925467 0)
(1.46582 0.0900059 0)
(1.46766 0.087974 0)
(1.46981 0.0862347 0)
(1.4719 0.0844583 0)
(1.47372 0.0826882 0)
(1.47508 0.0808233 0)
(1.47592 0.078654 0)
(1.47702 0.0765158 0)
(1.47874 0.0749155 0)
(1.48072 0.0735833 0)
(1.48269 0.0722293 0)
(1.48448 0.0708567 0)
(1.48595 0.0693548 0)
(1.48663 0.067525 0)
(1.4868 0.065257 0)
(1.48789 0.0633435 0)
(1.48978 0.0620108 0)
(1.49175 0.0607319 0)
(1.4936 0.0594852 0)
(1.49533 0.0580338 0)
(1.49667 0.0563469 0)
(1.49725 0.0543657 0)
(1.49734 0.0514884 0)
(1.49905 0.0492961 0)
(1.50107 0.0473061 0)
(1.50307 0.0453765 0)
(1.50542 0.0433113 0)
(1.50724 0.0410156 0)
(1.50853 0.0394762 0)
(1.50913 0.0381209 0)
(1.51 0.0357777 0)
(1.51106 0.0342023 0)
(1.51231 0.0332045 0)
(1.51406 0.0321862 0)
(1.516 0.0306967 0)
(1.51752 0.0294932 0)
(1.51902 0.0285757 0)
(1.52041 0.0271056 0)
(1.5213 0.0256415 0)
(1.52178 0.024311 0)
(1.52252 0.0223868 0)
(1.52429 0.0211674 0)
(1.5258 0.0197644 0)
(1.52758 0.0182313 0)
(1.52976 0.0161993 0)
(1.53147 0.0137456 0)
(1.53258 0.0123267 0)
(1.53348 0.0097776 0)
(1.53444 0.00684318 0)
(1.53507 0.00542954 0)
(1.53645 0.00394416 0)
(1.28707 0.244953 0)
(1.29015 0.243698 0)
(1.29322 0.242334 0)
(1.29592 0.241103 0)
(1.2981 0.239819 0)
(1.29929 0.238046 0)
(1.30048 0.235973 0)
(1.30308 0.234646 0)
(1.30626 0.233345 0)
(1.30954 0.23172 0)
(1.31232 0.230215 0)
(1.31449 0.228616 0)
(1.31566 0.226355 0)
(1.31711 0.22389 0)
(1.31988 0.22231 0)
(1.32327 0.220587 0)
(1.32655 0.218657 0)
(1.32914 0.217074 0)
(1.33102 0.21528 0)
(1.33224 0.212944 0)
(1.3344 0.211086 0)
(1.3373 0.209818 0)
(1.34045 0.208402 0)
(1.34331 0.207047 0)
(1.34578 0.205832 0)
(1.34766 0.204401 0)
(1.34871 0.202418 0)
(1.35037 0.200479 0)
(1.35298 0.199173 0)
(1.35582 0.197798 0)
(1.3585 0.196328 0)
(1.36079 0.194897 0)
(1.36235 0.193176 0)
(1.36301 0.190756 0)
(1.3647 0.188547 0)
(1.36733 0.186966 0)
(1.37005 0.185216 0)
(1.37247 0.183384 0)
(1.37431 0.181338 0)
(1.37542 0.178717 0)
(1.37702 0.176159 0)
(1.37944 0.174331 0)
(1.38193 0.172727 0)
(1.38422 0.171172 0)
(1.38609 0.169619 0)
(1.38734 0.167879 0)
(1.38852 0.166028 0)
(1.39054 0.164659 0)
(1.3929 0.163606 0)
(1.39524 0.162473 0)
(1.39736 0.161224 0)
(1.39894 0.159688 0)
(1.3998 0.157485 0)
(1.40143 0.155313 0)
(1.40395 0.153755 0)
(1.40682 0.151958 0)
(1.40941 0.150069 0)
(1.41153 0.148284 0)
(1.4129 0.146042 0)
(1.41399 0.143276 0)
(1.41616 0.141211 0)
(1.41879 0.139508 0)
(1.4214 0.137722 0)
(1.42366 0.136095 0)
(1.42548 0.134497 0)
(1.4265 0.132544 0)
(1.42738 0.130336 0)
(1.42932 0.128784 0)
(1.43157 0.127551 0)
(1.43378 0.126258 0)
(1.43578 0.124997 0)
(1.43737 0.123693 0)
(1.43811 0.122005 0)
(1.43873 0.119921 0)
(1.44059 0.118421 0)
(1.4428 0.117089 0)
(1.44497 0.115522 0)
(1.44684 0.113831 0)
(1.44831 0.111662 0)
(1.44964 0.109156 0)
(1.45136 0.106954 0)
(1.4534 0.105073 0)
(1.45532 0.103332 0)
(1.45699 0.101637 0)
(1.45823 0.0997816 0)
(1.45919 0.0977459 0)
(1.46058 0.0959015 0)
(1.46239 0.0944748 0)
(1.46443 0.093229 0)
(1.46647 0.0919395 0)
(1.46827 0.0908215 0)
(1.46983 0.089521 0)
(1.4707 0.0878821 0)
(1.47083 0.0859553 0)
(1.47151 0.0840839 0)
(1.47333 0.0828435 0)
(1.47555 0.0815338 0)
(1.47735 0.0804066 0)
(1.47936 0.0790096 0)
(1.48111 0.0767759 0)
(1.48224 0.0746766 0)
(1.48266 0.072209 0)
(1.4839 0.0692235 0)
(1.48616 0.0666278 0)
(1.48761 0.0650442 0)
(1.48969 0.0635445 0)
(1.49167 0.0613896 0)
(1.49304 0.0598074 0)
(1.49404 0.0590783 0)
(1.49495 0.0573587 0)
(1.49622 0.0552207 0)
(1.49735 0.054462 0)
(1.49864 0.053775 0)
(1.50039 0.0525879 0)
(1.50195 0.0510421 0)
(1.5032 0.0504751 0)
(1.50449 0.0493741 0)
(1.50591 0.0474486 0)
(1.50694 0.0460511 0)
(1.50785 0.0444133 0)
(1.50953 0.0427048 0)
(1.51138 0.0409196 0)
(1.51283 0.0392819 0)
(1.51503 0.0373023 0)
(1.51722 0.0341807 0)
(1.51844 0.0324846 0)
(1.51958 0.0308191 0)
(1.52075 0.0277315 0)
(1.52139 0.0261412 0)
(1.52215 0.0252555 0)
(1.52371 0.0241014 0)
(1.52529 0.022427 0)
(1.27702 0.253806 0)
(1.28007 0.252403 0)
(1.28271 0.251163 0)
(1.2848 0.249879 0)
(1.28595 0.248097 0)
(1.2874 0.246198 0)
(1.29009 0.245047 0)
(1.29325 0.243777 0)
(1.29638 0.242294 0)
(1.29899 0.240982 0)
(1.30098 0.239504 0)
(1.30204 0.23738 0)
(1.30374 0.235306 0)
(1.30655 0.233964 0)
(1.3099 0.23229 0)
(1.31295 0.230517 0)
(1.31534 0.22901 0)
(1.31693 0.22713 0)
(1.31818 0.224826 0)
(1.32057 0.223265 0)
(1.32355 0.222016 0)
(1.3267 0.220564 0)
(1.32942 0.219314 0)
(1.33171 0.218165 0)
(1.33327 0.216682 0)
(1.33435 0.214743 0)
(1.33645 0.213237 0)
(1.33915 0.212113 0)
(1.34198 0.210794 0)
(1.34454 0.209463 0)
(1.34667 0.20813 0)
(1.34795 0.206358 0)
(1.3487 0.203937 0)
(1.35077 0.202009 0)
(1.35343 0.200377 0)
(1.35602 0.198517 0)
(1.35823 0.196527 0)
(1.35983 0.194195 0)
(1.36119 0.191564 0)
(1.36315 0.189375 0)
(1.36545 0.187723 0)
(1.36767 0.186274 0)
(1.36962 0.184902 0)
(1.37112 0.183506 0)
(1.3723 0.182004 0)
(1.37398 0.180665 0)
(1.3762 0.179686 0)
(1.37852 0.17872 0)
(1.38072 0.177589 0)
(1.38254 0.176208 0)
(1.38361 0.174229 0)
(1.38476 0.171808 0)
(1.38705 0.170022 0)
(1.38992 0.168312 0)
(1.39296 0.166253 0)
(1.39539 0.164435 0)
(1.39727 0.162571 0)
(1.39838 0.160053 0)
(1.39998 0.157571 0)
(1.40245 0.155874 0)
(1.4052 0.154178 0)
(1.40773 0.152532 0)
(1.40989 0.151138 0)
(1.41157 0.149752 0)
(1.41244 0.148066 0)
(1.41328 0.146254 0)
(1.41518 0.145065 0)
(1.41733 0.144108 0)
(1.41949 0.143054 0)
(1.42147 0.141982 0)