/*--------------------------------*- C++ -*----------------------------------*\
  =========                 |
  \\      /  F ield         | OpenFOAM: The Open Source CFD Toolbox
   \\    /   O peration     | Website:  https://openfoam.org
    \\  /    A nd           | Version:  7
     \\/     M anipulation  |
\*---------------------------------------------------------------------------*/
FoamFile
{
    version     2.0;
    format      ascii;
    class       volVectorField;
    location    "0.399";
    object      U;
}
// * * * * * * * * * * * * * * * * * * * * * * * * * * * * * * * * * * * * * //

dimensions      [0 1 -1 0 0 0 0];

internalField   nonuniform List<vector> 
12359
(
(0.981808 0.000618042 -9.08446e-17)
(0.971866 -0.000156245 -3.78532e-17)
(0.999975 -1.87073e-05 1.76846e-17)
(0.928989 -0.000925973 -1.46447e-17)
(0.975913 -0.00123128 -8.10131e-17)
(0.876442 -0.000564088 -5.76554e-18)
(0.854014 0.0037722 -4.29823e-17)
(0.862456 0.00329306 -2.14854e-17)
(0.769892 0.0126884 2.926e-17)
(0.886842 -0.00261483 -7.97601e-17)
(0.808396 -0.0027403 1.40787e-16)
(0.722065 0.0171407 -3.04508e-16)
(0.219865 0.0595719 -1.67667e-16)
(0.921525 0.0024673 -5.88434e-17)
(0.937719 -0.000873089 2.37838e-17)
(0.5427 0.00345694 3.59684e-16)
(0.430289 0.0105351 2.30402e-16)
(0.994511 -0.000132589 7.56366e-17)
(0.995126 0.000117642 -7.45789e-18)
(0.955105 -0.00119418 -6.71355e-17)
(0.913395 0.000777633 -6.61345e-17)
(0.748033 0.0244024 4.14258e-17)
(0.961503 -0.00171035 -8.65456e-17)
(0.950659 -0.00267089 4.19855e-17)
(0.966426 -0.000220083 -8.82522e-17)
(0.957171 0.000377195 -2.34897e-17)
(0.998303 -8.82926e-05 -7.36377e-19)
(0.998439 -0.0001039 2.15468e-18)
(0.995781 2.55757e-05 2.12328e-17)
(0.997684 -2.46326e-05 -3.13262e-18)
(0.997197 -8.01983e-05 -6.91444e-18)
(0.999128 7.97314e-05 -1.74226e-17)
(0.999709 1.59048e-05 -8.02543e-18)
(0.997943 1.65627e-05 -2.95846e-18)
(0.999938 4.67862e-06 -9.10965e-17)
(0.997068 -2.42163e-05 -3.80806e-18)
(0.988812 -0.000114437 -1.26938e-16)
(0.983542 -0.000178136 1.29539e-16)
(0.980422 -0.000123822 -2.00818e-17)
(0.985901 1.10865e-05 2.19154e-16)
(0.974238 -0.000142414 5.95943e-17)
(0.985479 -0.000376405 -7.51768e-18)
(0.991585 -0.000294115 9.6902e-17)
(0.992445 -2.72924e-05 -1.7606e-16)
(0.996491 -3.88895e-05 -4.76932e-17)
(0.996229 -2.43213e-05 -4.92516e-17)
(0.996706 -0.000225335 -3.18282e-17)
(0.99747 7.03105e-05 -8.05031e-19)
(0.995558 7.38159e-05 5.62962e-17)
(0.998182 -7.11762e-06 2.7653e-19)
(0.998644 -6.02604e-05 -5.13393e-19)
(0.998779 6.52825e-06 -2.0724e-17)
(0.999292 1.89655e-05 -2.65282e-17)
(0.993947 -0.000175016 5.73236e-17)
(0.999319 7.85487e-05 -3.22694e-17)
(0.99968 2.46788e-05 -6.17287e-17)
(0.993246 0.00013905 -1.74991e-16)
(0.999718 -4.20261e-05 4.28988e-17)
(0.999818 -3.20438e-05 1.85823e-17)
(0.999941 1.85113e-05 2.41259e-17)
(0.999534 -4.69175e-06 -2.82785e-17)
(0.999951 1.97692e-05 4.10377e-17)
(0.998795 -3.76455e-05 -8.14249e-18)
(0.204196 0.121826 -6.84205e-16)
(0.993701 1.47017e-05 -4.40533e-17)
(0.899025 -0.00227198 -9.32429e-17)
(0.98983 0.000227165 -9.97924e-17)
(0.998912 -0.000108488 -2.16043e-17)
(0.988268 9.81878e-05 3.0532e-16)
(0.618817 0.0257284 1.54309e-16)
(-0.0611362 -0.106997 1.64648e-15)
(0.973932 -0.00165855 -1.35842e-16)
(0.999961 -8.98893e-06 1.52504e-16)
(0.987095 -0.00017361 3.70096e-16)
(0.941885 -0.0030607 -2.97847e-17)
(0.999904 -3.59735e-05 -4.43918e-17)
(0.999255 1.06448e-05 1.87224e-17)
(0.999934 -1.53897e-05 -1.55505e-16)
(0.989769 -0.000414767 -5.34982e-17)
(0.613355 0.00970906 7.11414e-17)
(0.925149 0.0590406 -1.32573e-17)
(1.00345 0.00235121 8.37396e-18)
(1.00001 -1.55884e-05 -1.81317e-18)
(0.998527 0.0125897 -1.46617e-17)
(1.10207 0.137696 2.20096e-18)
(1.02133 0.00122588 3.52895e-18)
(1.00351 0.00248905 7.95799e-18)
(1.0014 0.00017057 -3.12293e-19)
(1.11619 0.0489823 6.50104e-18)
(1.09704 0.151528 -2.83693e-18)
(0.999985 0.000117264 2.17801e-18)
(0.326027 0.219488 -4.13538e-16)
(0.999989 8.99419e-06 -1.9247e-17)
(0.9997 0.00621678 -1.01717e-17)
(0.999309 0.0101484 -8.78298e-19)
(1.03439 0.000475643 -2.79576e-18)
(1.00016 0.00530489 -4.97187e-19)
(0.999606 0.00600625 6.58612e-19)
(0.991715 0.0283314 -2.45964e-17)
(0.994188 0.0185263 2.83229e-17)
(0.93864 0.0787183 4.45202e-17)
(1 1.61589e-05 -2.12741e-17)
(1.02039 0.00131163 -3.27892e-18)
(1.20894 0.0616336 -2.9802e-17)
(1.0042 0.000875915 -1.67644e-17)
(1.03211 0.0209206 -1.17771e-17)
(1.00029 -5.06062e-05 -3.21255e-18)
(1.10308 0.138702 -8.39292e-20)
(1.02131 0.000173511 -3.24064e-18)
(1.03116 0.0187824 -1.46168e-17)
(1.00009 0.00469446 1.09206e-17)
(1.00317 0.00262551 6.03687e-18)
(0.939894 0.0479058 3.68755e-17)
(0.95326 0.0719385 5.40975e-17)
(0.999355 0.010217 -2.6554e-17)
(1.00324 0.000237232 -1.38892e-18)
(0.95815 0.0727708 -1.11396e-16)
(1.00437 0.002224 9.33922e-18)
(1.1168 0.0316927 -1.54113e-17)
(1 1.0969e-05 3.0938e-19)
(0.999946 0.00491543 9.66241e-18)
(0.873628 0.0231465 5.12282e-17)
(1.00153 0.000210079 -2.04038e-18)
(1.03595 0.00458769 2.53521e-19)
(1.00485 0.00188963 -1.1635e-17)
(1.0032 0.000659684 -1.27368e-17)
(1.0086 0.0909014 -7.05512e-17)
(0.998322 0.0122314 -1.69349e-17)
(0.999984 -6.38257e-06 1.43345e-16)
(1.0046 0.0024291 2.53795e-17)
(1.00279 -0.000301014 1.59154e-17)
(1.05253 0.0137072 -5.04941e-18)
(1.05425 0.0149014 -1.13411e-18)
(1.05358 0.0133645 -6.47571e-18)
(1.00026 8.13706e-05 1.98394e-19)
(1.03544 0.00619628 4.27762e-18)
(1.00304 0.000553117 -1.32194e-17)
(1.03545 0.00528552 4.87087e-18)
(1.00001 8.33155e-05 -3.57156e-17)
(1.00953 0.0872565 2.7988e-17)
(1 2.79633e-05 -3.57987e-18)
(0.982581 0.00226834 2.53884e-16)
(1.02966 0.0122304 -1.58373e-18)
(1.00032 1.73863e-06 -3.60143e-18)
(1.03966 0.0354508 -4.00084e-18)
(0.898914 0.026258 -1.99226e-16)
(1.00002 1.13614e-05 -8.19433e-19)
(1.09463 0.110856 -8.87348e-18)
(1.00471 0.000769875 -1.11319e-18)
(0.924651 0.0709383 2.0492e-17)
(1.03534 0.00265016 7.70082e-19)
(0.999981 5.14014e-05 4.04782e-17)
(1.03055 0.011816 -5.80744e-18)
(1.00165 -3.47996e-05 -1.23003e-17)
(1 -4.65258e-06 5.16209e-18)
(0.548821 1.29554 -1.3305e-16)
(0.941234 0.0842479 -5.38796e-17)
(1.05086 0.0161413 1.35331e-18)
(1 0.00501557 -1.08099e-17)
(0.999002 0.000539828 -6.34956e-18)
(1.00397 0.0424629 -2.3145e-18)
(0.998972 0.000594629 -2.6987e-17)
(1.03686 0.00443152 8.82955e-19)
(1.03174 0.00978713 -6.66616e-19)
(1.00006 1.18237e-05 1.12579e-18)
(1.00318 0.00034885 4.60236e-18)
(0.999976 0.0451375 -1.90991e-17)
(0.869712 0.0128494 1.10864e-16)
(1.03059 0.010235 -8.65994e-19)
(1.11729 0.0459667 3.33012e-18)
(0.999978 1.0201e-05 1.44427e-16)
(0.999982 4.43517e-05 8.06063e-17)
(1.03163 0.00800891 9.57548e-18)
(0.972065 0.00366563 5.61264e-16)
(1.00455 0.00115405 1.45442e-18)
(1.00832 0.0869611 6.06854e-17)
(0.996447 0.000513547 -1.25453e-16)
(0.996473 0.000713873 8.03759e-17)
(0.934546 0.0500372 -3.15265e-17)
(1.00805 0.0857522 -5.02342e-17)
(0.933772 0.00583534 -1.32605e-17)
(1.00001 3.36517e-05 2.85539e-18)
(0.999973 3.28703e-06 -2.20919e-18)
(1.00383 0.00256383 1.37578e-17)
(0.992167 0.0270321 9.30425e-18)
(0.817262 0.101815 -1.48413e-17)
(1.00427 0.00570154 1.02503e-17)
(1.00007 0.00976457 1.78959e-17)
(1.03639 0.00094395 7.98691e-19)
(1.00446 0.00549252 -3.37039e-17)
(0.999385 0.00997581 -1.85669e-18)
(1.0344 0.00255939 -2.19619e-18)
(1.0326 -0.000150161 1.02989e-19)
(1.00159 0.000167269 -8.87997e-20)
(1.03372 0.0180593 -4.61727e-18)
(1.19269 0.0279303 -7.40509e-18)
(1.01472 0.0117603 -4.27801e-18)
(1.00346 0.00562406 9.4628e-19)
(1.0302 0.0135095 7.23285e-18)
(1.0041 0.00248258 2.2542e-18)
(0.896305 0.0300974 2.75284e-16)
(1.03669 4.27497e-05 -1.00016e-19)
(0.992885 0.0178796 -8.37338e-18)
(1.03286 0.0180598 -1.10239e-17)
(1.03557 0.0346571 -1.35224e-17)
(1.00001 4.62221e-05 1.9169e-17)
(1.03673 0.0347108 -2.32183e-19)
(0.992692 0.0173592 -7.66165e-17)
(1.03896 0.00488725 8.77525e-19)
(1.0052 0.00341103 5.09e-19)
(1.00001 4.46803e-05 6.43208e-18)
(1.0458 0.00942498 -8.54575e-19)
(1.04455 0.0107458 1.86687e-18)
(1.10332 0.111385 1.70955e-17)
(0.839159 0.098292 -1.97746e-16)
(0.999974 2.87807e-05 -1.25598e-17)
(1.0038 0.00565679 -1.17843e-17)
(0.999194 0.0100246 -6.51652e-18)
(1.00418 0.00516112 -1.01056e-17)
(0.982569 0.000953563 3.76276e-16)
(0.944104 0.0669358 9.46254e-18)
(1.00525 0.00376417 -1.52837e-17)
(1.03525 0.00495831 1.4512e-19)
(0.362676 0.276772 2.33155e-16)
(1.00436 0.0025275 3.29447e-18)
(1.00001 3.37759e-05 -1.13891e-18)
(0.982128 0.00181265 -1.80558e-16)
(1.01626 -0.00136381 -5.16197e-19)
(1.00165 0.0829573 -3.97311e-17)
(1.00306 0.006242 1.10402e-17)
(1.00293 0.00660736 -9.85713e-19)
(1.00002 -3.53624e-06 1.87916e-18)
(1.03858 0.0372379 -3.33641e-18)
(0.992573 0.0220807 1.51855e-18)
(1.00066 0.00967816 8.07751e-18)
(0.993858 0.0199619 3.34425e-17)
(1.00001 2.69808e-05 1.04761e-19)
(1.0314 0.0132279 -6.70908e-18)
(1.00074 0.0101034 3.0478e-19)
(0.666428 0.270132 1.10051e-17)
(1.00012 7.51457e-05 -2.73496e-18)
(1.02237 -1.26867e-05 1.10028e-19)
(1.00023 0.00726666 -3.55275e-18)
(0.99029 0.155504 -1.58868e-18)
(1.00345 0.0475495 4.01129e-18)
(1.0942 0.110083 -1.97034e-18)
(0.999896 8.49081e-05 -6.4814e-17)
(1.03729 0.00408727 -2.123e-18)
(1.00435 0.000659654 -6.27234e-18)
(1.03319 -0.00102853 3.70069e-18)
(1.04196 0.00866627 -1.46926e-18)
(0.986111 0.000200648 -1.15489e-16)
(0.996944 0.000694375 2.98254e-17)
(1.00233 0.00640865 4.54277e-18)
(0.55067 0.476484 -1.32253e-16)
(1.25546 0.125461 2.42857e-17)
(0.999988 1.87125e-05 1.10659e-18)
(1.00542 0.00282995 -2.20561e-17)
(0.393309 0.376575 8.09945e-17)
(0.844653 -0.0121259 -5.40757e-17)
(0.993811 0.0182046 -1.05271e-17)
(1.00305 0.0462584 -9.55417e-18)
(1.00185 0.0818724 7.49417e-18)
(1.03264 0.0155448 2.44997e-18)
(0.974524 0.00108369 1.78169e-16)
(1.37262 0.340864 -1.2145e-17)
(1.11029 0.0316342 7.79603e-18)
(1.00481 0.0461198 -2.15012e-18)
(1.00489 0.0024009 -1.47132e-17)
(1.03444 0.00578912 -5.73752e-18)
(1.03115 0.00866679 -4.95218e-18)
(0.988517 0.0254413 -2.57873e-17)
(1.03046 0.0101409 -4.92275e-18)
(1.00236 0.00623106 4.52303e-18)
(1.00546 0.00327203 1.40715e-18)
(1.00008 4.79906e-05 -1.91447e-18)
(1.00499 0.00292759 3.44036e-18)
(1.17475 0.0742788 -3.80882e-17)
(1.00665 0.0467853 -9.10968e-18)
(1.00047 0.000142111 -1.62766e-18)
(1 4.76904e-05 5.42029e-18)
(1.0342 0.0161023 -6.97514e-18)
(1.00815 0.00181308 -8.79488e-18)
(0.991542 0.000640377 -7.33517e-16)
(1.0215 0.000119907 1.33617e-18)
(1.00002 1.64974e-05 -1.11866e-18)
(1.00258 0.074074 -2.29946e-17)
(1.00001 8.80961e-06 -1.79747e-19)
(0.999992 7.12701e-06 6.23223e-18)
(0.999262 0.000116341 -6.51793e-17)
(1.0363 0.00384414 1.66256e-18)
(1.00394 0.00229953 8.83211e-18)
(1.42317 0.381568 1.31272e-17)
(1.00029 5.49257e-05 -8.73785e-18)
(1.00038 4.75084e-05 1.39742e-17)
(1.0209 0.0015946 -5.63689e-18)
(1.00387 0.000804445 -2.90101e-18)
(0.953241 0.0638036 -6.00244e-17)
(1.00014 0.00930763 2.29363e-17)
(0.99875 0.000214871 2.32339e-16)
(0.999993 2.35063e-05 1.13905e-17)
(1.16341 0.0623236 2.46686e-17)
(1.00477 0.0726493 8.64779e-18)
(0.999992 2.4378e-05 -2.81397e-17)
(1.00382 0.00568721 1.01366e-17)
(0.999725 0.00836683 3.62774e-18)
(1.00389 0.000224664 1.99735e-17)
(1.00248 -0.000409761 -1.48791e-18)
(1.00309 -8.51262e-05 -9.19349e-19)
(1.00388 0.000833546 8.41844e-18)
(0.995664 0.00105853 -1.13497e-16)
(0.84035 0.0563098 2.94645e-16)
(1.00442 0.00207428 -5.19106e-18)
(0.99758 0.000171799 9.74474e-17)
(0.98614 0.000899988 2.24101e-16)
(1.02477 0.0251013 5.03797e-18)
(1.09642 0.0332027 4.45797e-18)
(1.00472 9.75691e-06 -9.13394e-18)
(0.991555 0.0239904 -2.85137e-19)
(0.589164 0.107327 2.87512e-16)
(0.999994 2.16939e-05 2.24789e-17)
(1.02582 0.0114639 -2.25598e-18)
(1.00055 3.18287e-05 1.47688e-18)
(1.01426 0.0122103 -2.87315e-18)
(1.00035 9.28879e-05 -2.28271e-18)
(1.00444 2.66078e-05 7.84575e-18)
(0.816527 0.0409233 -2.30935e-16)
(1.0264 0.0126662 1.84581e-18)
(0.829149 0.09797 -1.07585e-16)
(0.991682 4.25355e-05 -1.10428e-16)
(1.00058 0.00771433 -1.02356e-17)
(1.03304 0.00242162 -1.33652e-18)
(1.03459 0.00061002 -6.42845e-19)
(1.00039 0.00769203 -1.30346e-17)
(1.03295 0.00377717 -1.53791e-18)
(1.03327 0.00196336 -3.12566e-18)
(1.00076 0.000128537 4.1772e-19)
(0.999382 0.000561411 5.92913e-17)
(0.999358 0.000539316 4.81308e-17)
(0.99933 0.000524353 1.4111e-17)
(0.999314 0.000470749 3.59501e-18)
(0.694223 0.267909 -1.33758e-16)
(1.00001 3.84994e-05 8.29377e-18)
(0.947298 0.0714654 1.97778e-17)
(1.0379 0.00215006 -5.88026e-19)
(0.993014 0.0248182 -1.10864e-17)
(1.03155 0.010986 8.17142e-18)
(1.02788 0.0140712 -1.79035e-18)
(1.02019 0.000902224 -2.17559e-18)
(1.01308 0.0114229 7.13721e-18)
(1.02862 0.0128362 -3.88854e-18)
(1.01298 0.0119068 6.44312e-18)
(0.991135 0.0258668 1.41757e-18)
(1.02727 0.0268814 7.6081e-20)
(1.02579 0.02969 -4.77417e-18)
(0.954463 0.054114 5.88479e-17)
(0.982201 0.00181118 -1.27685e-16)
(1.03517 0.0748507 4.28765e-18)
(0.983726 0.00149185 2.37559e-16)
(0.984019 0.0015622 -1.43283e-16)
(1.02879 0.0142902 -1.0624e-18)
(0.939888 0.0946117 1.1794e-17)
(1.00294 0.00258649 -5.49787e-18)
(0.999413 6.66704e-05 -9.85453e-17)
(1.01556 0.010644 -2.58379e-19)
(0.999509 0.000167462 -9.7283e-17)
(1.00323 0.00291164 -9.22491e-18)
(0.849414 0.00693383 2.07246e-16)
(0.238426 0.247673 -2.70193e-16)
(1.00319 0.00275743 -9.59991e-18)
(0.999982 -3.26253e-06 2.36644e-18)
(1.00027 6.27143e-05 -5.52039e-18)
(0.99998 3.09606e-05 8.2573e-18)
(1.02821 0.0115361 2.50964e-18)
(1 2.32638e-05 -3.66775e-18)
(0.999991 1.11182e-05 -1.64794e-17)
(1.12306 0.0479359 -1.28431e-17)
(1.03161 0.0103369 1.07318e-18)
(1.09108 0.163558 3.59126e-17)
(1.00151 0.00304919 1.04874e-18)
(1.03358 0.0112711 5.50983e-18)
(1.0076 0.000670423 1.4543e-17)
(0.999825 0.00816033 -8.30031e-19)
(1.02994 0.0267026 -9.32471e-18)
(1.01615 0.0104809 -5.85468e-18)
(0.939912 0.00368056 -1.47105e-17)
(1.01564 0.00944508 -5.25263e-18)
(1.00284 0.00242573 -3.10303e-18)
(1.00053 0.000171493 3.30119e-18)
(1.03184 0.00848955 -1.72201e-18)
(1.03516 0.0104862 4.12454e-18)
(1.00521 0.0011301 -1.11116e-17)
(0.725064 0.0330526 -1.80416e-16)
(1.03127 0.0256605 3.4572e-18)
(1.0355 0.000687444 -2.08034e-18)
(0.998061 0.0336209 -1.23406e-17)
(1.00214 0.0411086 -4.49731e-17)
(0.999991 8.82234e-05 2.27683e-17)
(0.3882 0.525059 4.03377e-16)
(1.03635 0.0790865 4.07261e-18)
(1.00119 0.00340171 -7.53966e-18)
(0.979208 0.178983 1.753e-17)
(0.984671 0.000832947 -1.05615e-16)
(0.999976 6.2879e-05 5.78887e-18)
(1.00001 3.78725e-05 -2.3743e-18)
(0.999979 6.06476e-05 2.82905e-18)
(1.10033 0.166704 -2.14878e-17)
(0.949841 0.09789 -3.41744e-17)
(0.989438 0.027333 -2.0832e-17)
(1.02679 0.00912673 -1.12857e-17)
(1.03391 -0.00360438 5.94424e-19)
(0.999928 0.0111892 9.47151e-18)
(0.929549 0.00886657 -1.84653e-16)
(0.999326 0.032988 -4.50927e-17)
(1.04746 0.0121117 -1.93873e-18)
(1.10273 0.0314068 8.52724e-18)
(0.707874 0.0469197 -5.14269e-16)
(0.994776 0.0243324 -1.68266e-17)
(0.959779 0.0466082 -9.18943e-18)
(1.01813 0.00243998 -9.044e-19)
(1.02599 0.03367 -5.10344e-18)
(1.01156 0.0104944 2.86227e-18)
(1.01634 0.0116204 4.325e-18)
(0.997983 0.000199749 1.07292e-16)
(1.01204 0.0104449 3.73325e-18)
(1.02901 0.0105855 5.99989e-19)
(0.999998 1.58665e-05 -6.68853e-18)
(1.03301 -0.0144728 -9.36511e-17)
(0.990517 0.00089248 -1.83573e-16)
(1.06001 0.0121283 -2.15822e-18)
(1.0353 0.00977692 7.91468e-18)
(0.993915 0.00110969 2.21032e-16)
(0.955918 0.0553617 9.0944e-17)
(1.18026 0.234797 -6.77634e-18)
(1.02877 0.0141653 -3.42482e-18)
(1.00836 0.0152105 -2.52888e-17)
(1.03653 0.00153968 -2.58403e-19)
(1.03412 0.00825292 1.02114e-17)
(1.02952 0.0307734 -2.19655e-17)
(1.00439 0.00277707 8.75502e-18)
(0.999999 1.47534e-05 2.25798e-18)
(0.99695 0.0693205 2.91976e-17)
(1.00035 0.000111708 1.77627e-19)
(1.0507 0.0159246 -3.72971e-18)
(1.00255 5.45701e-05 8.58523e-18)
(0.966585 0.00232667 3.43768e-16)
(0.963187 0.0394198 -2.80306e-17)
(1.01041 0.000948695 1.37592e-18)
(1.10213 0.106536 -1.60419e-18)
(0.941084 0.0706909 1.06897e-18)
(0.994874 0.0165992 1.15216e-17)
(1.00109 0.00379497 8.21306e-18)
(0.568873 0.075118 -4.52211e-16)
(1.00064 6.56545e-06 2.52788e-18)
(1.00118 0.00280177 2.33666e-18)
(1.04326 0.0383786 3.46731e-18)
(0.999984 3.60683e-05 2.78563e-17)
(1.00126 0.00365293 3.58408e-18)
(1.00154 0.00259495 4.54605e-18)
(0.753342 0.213857 -7.47155e-18)
(0.685718 0.482032 -3.37657e-17)
(0.998829 0.0114888 2.78432e-17)
(1.00143 -8.37349e-05 -5.72777e-18)
(0.943515 0.0350077 -9.43848e-17)
(1.00089 0.039657 -3.1617e-17)
(1.0269 0.0107887 -3.84146e-18)
(1.02961 0.0137716 -1.16599e-18)
(1.03075 0.00925494 -6.22074e-18)
(1.00075 -4.70248e-05 7.58717e-19)
(0.999992 2.93849e-05 2.4914e-18)
(1.00126 0.0356716 8.52328e-18)
(0.99999 4.22064e-06 1.04541e-18)
(0.964449 0.0417222 6.66024e-17)
(1.02628 0.0104321 3.01942e-18)
(1.02501 0.0313434 1.0945e-17)
(0.996686 0.000552187 -7.01102e-17)
(0.998449 0.0647758 9.63455e-18)
(1.04512 0.0366786 3.78898e-18)
(0.99785 6.26971e-05 -5.6809e-17)
(1.00154 0.0116045 -3.04652e-19)
(1.00587 0.00172942 2.48736e-17)
(0.927616 0.046245 4.1108e-17)
(1.04302 0.0377261 9.13855e-18)
(0.999994 3.81529e-05 -5.43799e-17)
(1.00152 0.0371422 -2.51588e-17)
(1.03169 0.00734616 1.73758e-18)
(1.01667 -0.000142394 -4.01325e-18)
(1.00067 0.0381152 -2.54357e-17)
(1.00269 0.000122395 -5.14073e-18)
(0.937112 0.0929253 -1.03461e-17)
(1.02637 -0.000475187 -6.26347e-18)
(1.03541 0.00801583 6.70789e-18)
(1.02603 0.0311294 3.80356e-18)
(1.0009 -0.000161544 -6.19541e-18)
(1.00134 0.0114471 -1.12286e-17)
(1.05383 0.0573382 4.59114e-18)
(1.05515 0.0151419 -7.02417e-18)
(1 3.05843e-05 7.98555e-18)
(1.01104 0.015433 -1.06611e-17)
(0.990806 0.176337 5.87047e-17)
(1.0363 0.00191426 5.97381e-19)
(0.515337 0.456651 -1.29584e-16)
(1 5.18123e-05 -8.14985e-18)
(1.00236 0.00035894 -3.85314e-19)
(1.00072 8.58145e-05 -8.17466e-18)
(1.03155 0.0135542 2.63836e-19)
(0.995157 0.0184982 1.72112e-17)
(0.996215 0.013195 9.79389e-19)
(1.00317 0.0001489 1.68467e-18)
(1.0003 0.0361237 -2.41851e-17)
(1.0171 0.0117785 1.77259e-18)
(0.97385 0.00347899 -1.30458e-16)
(1.00909 0.0019482 9.26436e-19)
(1.08343 0.0824876 -4.83511e-18)
(1.00042 6.35177e-05 8.35278e-19)
(1.08853 0.0968552 -6.06973e-18)
(1.00146 0.00024199 -9.98751e-18)
(0.622663 0.648951 -9.50273e-17)
(1.02674 -1.99819e-05 -4.25592e-18)
(1.0514 0.059723 -2.7088e-18)
(0.999768 7.53538e-05 1.28911e-16)
(0.996828 0.000612833 1.39561e-17)
(1.02575 0.0264318 -3.10965e-18)
(1.00371 0.00213824 7.00479e-19)
(0.998817 0.000225718 -1.87552e-16)
(0.992119 0.000360815 4.0879e-17)
(0.994315 0.0218899 -2.40698e-17)
(0.99524 0.0190452 1.63715e-17)
(0.971747 0.156727 2.7681e-17)
(1.03392 0.0286104 -6.69023e-18)
(1.03323 0.029785 -1.23338e-17)
(1.00001 1.01905e-05 1.15367e-18)
(1.00412 0.00203864 -6.03982e-18)
(1.02699 0.011627 5.25065e-18)
(1.0544 0.0122066 -6.19089e-18)
(1 3.77052e-06 9.55502e-18)
(1.00048 7.33186e-05 -6.55382e-19)
(1.03234 0.00786076 6.42686e-19)
(1.00076 0.000140447 3.32127e-18)
(0.814182 0.0468896 -6.53542e-16)
(1.18172 0.268586 -3.67954e-17)
(1.12456 -0.0580229 -1.34154e-17)
(1.00001 4.90109e-06 5.35965e-18)
(1.00624 0.009152 -2.59098e-19)
(1.04056 0.00878676 -1.1934e-18)
(0.996268 0.0140195 2.62364e-17)
(1.00393 0.000978066 -7.15604e-19)
(0.317991 0.620946 1.73394e-16)
(1.0004 3.80804e-05 -3.05447e-19)
(0.936379 0.072988 1.64221e-17)
(0.963811 0.0453238 8.04593e-17)
(1.00658 0.00890709 -1.56e-17)
(1.00389 0.00100268 -1.18507e-17)
(0.998661 0.000206622 -2.4597e-16)
(1.00977 0.000640396 -4.51405e-18)
(1.03845 0.00247435 -2.75105e-19)
(1.0167 0.00835787 -4.75354e-18)
(0.99734 0.0115875 2.93394e-17)
(0.999997 6.75279e-06 -3.38166e-19)
(1 2.83898e-05 -1.9873e-16)
(0.995522 0.0163715 -2.09524e-17)
(0.996354 0.00120718 -1.08743e-16)
(0.995052 0.058293 -2.49252e-18)
(1.03131 0.0131409 -5.96095e-18)
(0.999073 2.76695e-05 -2.59623e-17)
(1.00045 0.000154471 -3.16829e-19)
(1.02678 0.0273556 -6.00031e-18)
(1.00783 -0.0236173 -1.63776e-17)
(0.997844 0.000224584 1.11558e-17)
(1.04712 0.0107042 -1.47655e-18)
(1.00023 1.6306e-06 -4.27364e-18)
(0.996459 0.0107118 -2.20365e-17)
(0.952668 0.07981 -6.11217e-19)
(1.03567 0.000665283 8.40667e-19)
(1.04024 0.00840252 -2.56209e-18)
(0.948689 0.0560755 6.36455e-17)
(1.00246 0.0180741 -1.22386e-17)
(1.03899 0.00360287 -1.56801e-18)
(1 3.69413e-05 2.30171e-18)
(0.999915 7.91512e-06 7.91992e-17)
(1.0319 0.00345015 4.31994e-19)
(1.01064 0.00962725 -1.60859e-18)
(1.00337 0.0184356 -1.03625e-17)
(1.01132 0.00927861 -4.45294e-18)
(0.999997 2.47328e-05 1.69834e-17)
(1.00051 0.000202174 1.75449e-19)
(1.00391 0.000566711 -1.02591e-17)
(0.999781 0.0294494 1.1134e-17)
(1.03821 0.00523201 -3.33199e-18)
(0.941273 0.0389543 8.47726e-17)
(0.990087 0.00091221 8.56102e-17)
(0.929861 0.0375622 -1.35873e-16)
(1.0293 0.0134837 2.83179e-18)
(1.0086 0.016919 1.06704e-17)
(0.93463 0.0430746 4.80734e-17)
(0.98529 0.0206262 -1.52493e-17)
(1.05722 0.00953045 -4.26109e-18)
(1.03183 0.0119466 4.67638e-19)
(0.98576 0.0208354 -2.39441e-17)
(0.994608 0.0554906 -1.273e-17)
(0.999919 8.25651e-05 -6.06463e-17)
(1.01143 0.0664718 -9.00706e-18)
(1.02594 0.0249538 1.49048e-17)
(1.00001 -1.32817e-05 5.19266e-18)
(1 2.11985e-05 9.04602e-17)
(1.00072 8.41462e-05 -1.1856e-17)
(0.999649 0.000448316 2.31889e-17)
(1.06441 0.0649465 4.39665e-18)
(1.01078 0.0161255 1.5148e-17)
(1.01372 -0.00171983 -4.94011e-18)
(0.944861 0.0405408 -1.15145e-16)
(0.992477 0.000488983 4.49283e-16)
(0.798437 0.0205108 5.83465e-16)
(1.03376 0.00190175 -2.16135e-19)
(1.03739 0.00277259 2.91874e-19)
(1.00382 0.00029656 5.77086e-18)
(1.05003 0.0371448 1.96207e-17)
(0.999996 5.87594e-05 -4.96009e-18)
(0.99846 0.0294606 -1.78244e-17)
(1.00048 0.00336724 1.14698e-17)
(0.937455 0.112035 -1.55976e-17)
(0.932471 0.0489557 8.02879e-17)
(1.0021 0.0162088 2.78185e-17)
(1.01667 0.0110077 2.31111e-18)
(0.419045 0.684258 1.66215e-16)
(1.03032 0.0113037 1.95676e-18)
(1.04316 0.0580615 -4.22224e-18)
(1.00913 0.0118198 3.86644e-18)
(0.977407 0.14384 -2.54713e-17)
(1.16658 0.204948 -1.89816e-17)
(1.00101 -0.000201147 5.49641e-19)
(0.998308 0.00326782 1.40724e-17)
(1 1.4702e-05 -3.24253e-18)
(1.05866 0.0615576 5.22099e-18)
(0.99848 0.00305806 -1.00739e-17)
(1.01605 0.00888768 -4.02648e-18)
(1.10334 0.09823 -1.18864e-18)
(1.00047 9.73711e-05 3.02655e-18)
(0.969661 0.00320798 1.32849e-16)
(0.992419 0.0494578 2.73334e-18)
(1.00667 0.0146095 1.54803e-17)
(0.997488 0.000207259 -6.92916e-17)
(1.00204 0.0166472 8.11448e-18)
(0.999167 0.000786771 -3.9274e-18)
(0.995253 0.0158249 1.89518e-17)
(0.999154 0.000664838 2.50289e-20)
(0.999204 0.000877748 1.01081e-17)
(0.995483 0.0132112 6.96089e-18)
(1.03489 0.00605102 8.14777e-19)
(1.03278 0.0072509 -6.9683e-18)
(1.00696 0.0161766 2.2769e-17)
(0.658026 0.0226474 -4.01682e-16)
(1.03666 0.0008144 -4.49933e-19)
(0.261032 0.313636 -4.30968e-16)
(1.02819 0.0123189 -8.61001e-18)
(1.02155 0.000498139 -1.9712e-19)
(0.995368 0.0143626 -4.14949e-18)
(1.02699 0.0134309 5.06964e-18)
(0.992449 0.0259246 -7.75602e-18)
(1.03377 0.000901331 -3.87398e-19)
(0.555454 0.376833 -2.9023e-16)
(0.951286 0.034804 2.66402e-17)
(0.993547 0.0250686 -8.6487e-18)
(1.00476 0.0222674 -6.49844e-18)
(0.994902 0.00127685 2.37195e-16)
(0.996352 0.000789206 -3.43632e-17)
(1.02636 0.0286792 -4.26766e-18)
(0.999991 1.94903e-05 1.25647e-17)
(1.05833 0.006066 -5.40443e-18)
(0.999259 4.52878e-05 -1.05807e-16)
(0.951071 0.0401607 -1.87299e-18)
(1.00201 0.070221 5.85948e-18)
(1.06211 0.0574251 8.61311e-18)
(1.03884 0.0238801 -4.32714e-18)
(1.03309 0.0130842 -5.92904e-18)
(0.99237 0.0490302 -3.91527e-18)
(1.0088 0.0130933 -7.33056e-18)
(1.03876 0.0234723 1.14998e-17)
(0.971723 0.0283767 2.7772e-17)
(1.04219 0.0588747 -5.59535e-19)
(1.00816 0.0212473 1.58126e-17)
(1.04457 0.0370774 -2.4996e-18)
(1.00563 0.0221532 -4.10482e-18)
(1.00001 2.55732e-05 -1.17195e-18)
(0.999152 0.0246731 3.51055e-17)
(0.698363 0.0533693 1.79678e-16)
(0.973494 0.130943 -4.30182e-18)
(1.00619 0.00535713 -8.85144e-18)
(1.00005 1.38548e-05 -2.28575e-18)
(0.999068 0.000185123 1.21057e-16)
(0.994764 0.00721936 3.6805e-18)
(0.967293 0.00370735 -2.93325e-16)
(1.03246 0.00586322 -7.7284e-19)
(1.02659 0.00111874 8.73225e-18)
(1.00086 7.47467e-05 7.51008e-18)
(1.00472 0.00672121 2.34938e-18)
(0.993894 0.0248663 -5.69779e-18)
(1.00619 0.00503448 -1.22231e-17)
(1.00856 0.000813017 -6.0172e-18)
(1.04537 0.0325895 -1.83269e-19)
(0.993719 0.00114267 -1.6539e-16)
(0.991073 0.0352325 1.65818e-17)
(1.03566 0.0135802 4.54751e-18)
(1.00518 0.00595125 5.42182e-18)
(1.00798 0.00660871 2.59375e-18)
(0.945519 0.0597682 1.81954e-17)
(0.999999 -9.17406e-06 -4.3845e-19)
(0.993583 0.0054219 2.64054e-18)
(1.31007 0.116396 -2.99249e-17)
(0.99991 3.74554e-05 2.6979e-16)
(1.04064 0.0349592 -3.34769e-19)
(0.998211 0.0723669 1.79952e-17)
(1.00698 0.00596783 -1.8098e-18)
(0.957865 0.0468837 5.49107e-17)
(1.03446 0.0133482 6.87036e-18)
(0.998062 0.0257001 3.48607e-17)
(1.02914 0.0317492 7.644e-18)
(0.999635 0.00309241 6.64605e-18)
(0.935359 0.0381174 8.74593e-17)
(1.0046 0.000936372 9.38915e-18)
(1.03216 0.000255852 4.00309e-18)
(1.03345 0.0138206 2.01953e-18)
(0.934067 0.040503 -8.67815e-17)
(0.999806 0.00302033 -1.07602e-17)
(1.03764 0.00308326 9.40677e-20)
(1.05355 0.0196511 -1.40596e-19)
(0.993613 0.0336505 8.02313e-18)
(1.00582 0.0128564 1.36577e-18)
(1.00439 0.00267062 -5.86827e-18)
(1.01294 0.0628504 -1.91125e-17)
(0.785902 0.202436 -1.99966e-16)
(0.995555 0.00098546 1.42243e-17)
(0.999968 3.97781e-05 -2.81682e-17)
(0.994614 0.0251968 -1.68351e-17)
(0.999991 4.83465e-05 5.4592e-18)
(1.1707 0.206434 1.66711e-17)
(1.00678 0.021906 -6.26864e-18)
(1.03818 0.0856107 2.45739e-17)
(1.01545 0.00696745 -1.1329e-17)
(1.02891 0.00158094 6.33188e-19)
(0.224304 0.0788739 -2.04553e-16)
(1.00643 0.0151858 2.45555e-18)
(1.09397 0.189788 1.34115e-17)
(1.03336 0.00627517 -4.91846e-18)
(1.09876 -0.0430383 -3.79605e-17)
(1.02674 0.0116196 -5.85525e-18)
(0.996832 0.0117998 -2.10426e-17)
(1.00617 0.0139004 -6.57576e-18)
(1.0172 -0.00124959 -1.59848e-18)
(1.09443 0.0863782 -8.83295e-19)
(1.08353 0.0818456 4.42066e-18)
(1.00129 0.000273116 4.69974e-18)
(1.00153 -0.000297983 1.13131e-18)
(0.93198 0.0435425 1.34822e-16)
(1.00202 -0.000299631 -8.53236e-18)
(0.692092 0.399686 1.43074e-16)
(1.02802 0.0303974 2.93968e-18)
(0.97011 0.171578 5.85047e-17)
(1.00439 0.00297167 5.64071e-18)
(0.108248 0.240057 -3.9643e-16)
(1.13758 0.214093 2.62545e-17)
(1.00587 0.0218601 9.40374e-19)
(0.999997 2.0463e-05 1.83403e-18)
(0.999895 0.00273285 6.65006e-19)
(0.95811 0.0321312 8.84403e-17)
(0.994499 0.00793417 -3.61907e-18)
(0.990399 0.000366989 4.8139e-16)
(0.997364 0.00918848 -1.951e-17)
(1.03042 0.0112416 -1.68918e-18)
(0.973738 0.0309838 6.40027e-17)
(1.06352 0.00477456 1.21326e-18)
(0.62746 0.0517888 1.65591e-17)
(1.00076 5.9364e-05 -6.06665e-18)
(0.9681 0.0354909 -2.02565e-17)
(1.03386 0.028785 1.18771e-17)
(0.927655 0.0512946 1.12013e-16)
(1.00452 0.012456 8.26825e-18)
(0.927144 0.0784418 -9.35198e-17)
(1.03532 0.00767865 4.09364e-18)
(0.952039 0.033809 -5.40363e-17)
(0.997207 0.000552004 -1.70656e-17)
(1.00007 -5.86881e-06 -9.22124e-19)
(1.03753 0.0219503 4.23124e-18)
(1.03924 0.0232836 -1.80677e-18)
(1.02734 7.63065e-05 -2.12282e-18)
(0.934877 0.0391645 -2.33567e-17)
(1.03556 0.0833982 8.23946e-18)
(1.02157 0.000186587 3.36129e-18)
(0.998071 0.0242382 2.87674e-17)
(1.0005 0.00387113 -3.83761e-18)
(1.00969 0.00817106 3.77394e-18)
(0.782606 0.0356289 -5.64625e-16)
(1.00935 0.00868636 -1.19854e-17)
(1.03356 0.0190584 -7.64765e-18)
(0.983305 0.0400186 3.72838e-18)
(1.02575 0.00879616 -2.59882e-18)
(1.01102 0.000291837 -1.02516e-17)
(0.996721 0.0114246 2.98682e-17)
(1.0523 0.0204602 3.53198e-18)
(1.01464 0.00651953 -8.32817e-18)
(1.00524 0.0128081 9.55409e-19)
(1.06226 0.0040513 -1.67325e-17)
(0.992104 0.0279993 -1.57293e-17)
(1.01949 0.000562541 6.28619e-18)
(0.819758 0.327494 -1.26829e-16)
(0.999996 -1.18958e-05 -1.83141e-19)
(1.01521 0.0075458 -1.02576e-17)
(0.999468 0.0195883 8.14964e-18)
(0.992641 0.00689173 1.99425e-17)
(1.00297 0.000562593 -7.90739e-18)
(0.997887 0.0234799 2.73157e-17)
(1.00001 4.77128e-06 -4.14593e-18)
(1.04728 0.105292 -1.59526e-17)
(1.00566 0.000627583 1.56669e-17)
(0.973477 0.00481566 4.75539e-16)
(1.03577 0.0307934 -2.78492e-18)
(0.954827 0.0456564 -9.93414e-18)
(1.01613 0.00876115 5.37594e-18)
(1.01594 0.00795197 -2.8935e-19)
(1.03721 0.0218774 1.05879e-18)
(1.16787 0.076125 1.333e-16)
(0.999867 9.62194e-05 1.36285e-16)
(0.992794 0.000684562 4.9036e-17)
(1.02109 2.26123e-05 1.35318e-18)
(1.11004 0.185818 -1.72999e-18)
(1.03903 0.023697 5.10104e-18)
(0.999859 0.0029332 3.32661e-18)
(0.27241 0.144049 -7.7037e-16)
(1.00004 1.1824e-05 -1.85222e-18)
(1.00511 0.0015297 -9.25194e-18)
(0.82026 -0.00331424 1.04862e-16)
(0.994722 0.0050551 3.75049e-18)
(0.999602 0.00321937 -1.10748e-17)
(0.999539 0.00349681 -5.46535e-18)
(0.982898 0.0385075 -1.39742e-17)
(0.961728 0.0265781 8.85364e-17)
(0.999829 6.84923e-05 4.078e-17)
(0.993677 0.00635507 1.33451e-17)
(0.934479 0.0700138 -8.83583e-17)
(0.997485 0.020636 -3.13271e-17)
(0.996178 0.0161703 -8.20357e-18)
(0.996966 0.00907206 -3.53876e-18)
(1.00099 2.02922e-05 1.3197e-18)
(0.956029 0.0320604 -6.33275e-17)
(1.06437 0.0536716 9.0779e-18)
(0.995367 0.0150083 -1.3231e-17)
(0.932585 0.0314687 -9.14024e-17)
(1.03226 0.00520705 -2.99817e-18)
(1.03289 -0.00277424 1.30821e-20)
(1.04308 0.101641 2.81621e-17)
(1.03174 0.0279455 -1.76037e-17)
(0.996675 0.00946495 1.2398e-17)
(1.00526 0.00145636 -1.17456e-17)
(1.08834 0.094484 -8.02663e-18)
(1.03557 0.00421975 -1.73038e-18)
(0.976082 0.0239998 7.74892e-17)
(1.0007 0.00371972 9.65049e-18)
(0.999619 0.00041106 -2.55455e-17)
(0.935131 0.012851 -3.03502e-16)
(1.04864 0.0373447 -4.17892e-18)
(1.01396 0.00623315 1.39494e-17)
(1.01139 0.0464292 -4.41317e-18)
(1.01448 0.00713979 8.89612e-18)
(0.997089 0.00934961 5.72224e-18)
(1.00534 0.00472648 1.25103e-17)
(0.967274 0.0325491 -2.78936e-17)
(0.896575 0.0177054 1.51169e-16)
(0.34759 0.42908 1.76606e-16)
(0.967083 0.0386084 6.61657e-17)
(0.999363 0.0174766 -6.23227e-18)
(1.00569 0.00407512 -1.65201e-18)
(0.97056 0.0355581 -3.80002e-17)
(0.509321 0.340968 -3.24911e-16)
(0.937175 0.0324551 2.5033e-16)
(0.999924 0.00274254 -2.41315e-18)
(1.04708 0.0306847 1.27203e-18)