/*--------------------------------*- C++ -*----------------------------------*\
  =========                 |
  \\      /  F ield         | OpenFOAM: The Open Source CFD Toolbox
   \\    /   O peration     | Website:  https://openfoam.org
    \\  /    A nd           | Version:  7
     \\/     M anipulation  |
\*---------------------------------------------------------------------------*/
FoamFile
{
    version     2.0;
    format      ascii;
    class       surfaceScalarField;
    location    "27";
    object      phi;
}
// * * * * * * * * * * * * * * * * * * * * * * * * * * * * * * * * * * * * * //

dimensions      [0 3 -1 0 0 0 0];

internalField   nonuniform List<scalar> 
67470
(
-0.00012802
0.000128374
-3.53712e-07
-0.000250269
0.000122402
-1.53156e-07
-0.000394437
0.000143919
2.49341e-07
-0.000529385
0.000133993
9.54284e-07
-0.000673102
0.000141845
1.87213e-06
-0.000817475
0.00014156
2.81321e-06
-0.000965681
0.000144811
3.39443e-06
-0.00111536
0.000146482
3.1934e-06
-0.0012645
0.000147254
1.89136e-06
-0.00141088
0.000146934
-5.56498e-07
-0.00154565
0.000138532
-3.76236e-06
-0.00166702
0.000128237
-6.86913e-06
-0.0017499
9.1673e-05
-8.78622e-06
-0.00179102
4.96737e-05
-8.55621e-06
-0.00174249
-4.26589e-05
-5.87233e-06
-0.00159431
-0.000146678
-1.49937e-06
-0.00128623
-0.000311195
3.11337e-06
-0.000770984
-0.000522039
6.79265e-06
-0.000141383
-0.000637641
8.03943e-06
-0.000866094
6.98889e-06
0.000717722
-0.00012767
0.000256043
-0.000249149
0.000243882
-0.00039207
0.000286839
-0.000525057
0.000266981
-0.000665801
0.000282588
-0.000805833
0.000281592
-0.000947814
0.000286793
-0.00108872
0.000287387
-0.00122569
0.000284229
-0.00135536
0.000276598
-0.00146764
0.00025081
-0.00155899
0.000219589
-0.00160331
0.000135994
-0.00159555
4.19101e-05
-0.00148647
-0.000151739
-0.0012722
-0.000360949
-0.000881372
-0.000702019
-0.000304107
-0.0010993
0.000410585
-0.00135233
-0.00179589
0.00134038
-0.000126971
0.000383015
-0.000246916
0.000363827
-0.000387345
0.000427267
-0.000516422
0.000396059
-0.000651242
0.000417408
-0.000782652
0.000413002
-0.000912321
0.000416462
-0.00103597
0.000411032
-0.00114915
0.000397408
-0.00124639
0.000373838
-0.0013155
0.000319927
-0.00134986
0.000253951
-0.00132204
0.000108165
-0.00122452
-5.56014e-05
-0.00100577
-0.000370495
-0.000674949
-0.000691768
-0.000136237
-0.00124073
0.00054853
-0.00178407
0.00139081
-0.00219461
-0.00283587
0.0024308
-0.000125932
0.000508947
-0.000243584
0.000481479
-0.00038029
0.000563973
-0.000503537
0.000519306
-0.000629544
0.000543415
-0.000748183
0.000531641
-0.000859723
0.000528003
-0.000958153
0.000509462
-0.00103693
0.000476189
-0.00108786
0.000424764
-0.00109635
0.000328418
-0.00105191
0.000209512
-0.000926473
-1.7273e-05
-0.000710735
-0.000271339
-0.00035071
-0.00073052
0.00012331
-0.00116579
0.000819842
-0.00193726
0.00165046
-0.00261469
0.00262457
-0.00316872
-0.00397648
0.00376517
-0.000124562
0.000633509
-0.000239176
0.000596093
-0.000370947
0.000695744
-0.000486482
0.00063484
-0.000600872
0.000657805
-0.000702767
0.000633536
-0.000790723
0.000615959
-0.000856686
0.000575425
-0.000891765
0.000511267
-0.000884742
0.000417742
-0.000818968
0.000262644
-0.000679939
7.04824e-05
-0.000440568
-0.000256645
-9.07434e-05
-0.000621164
0.00042173
-0.00124299
0.00105926
-0.00180332
0.00190059
-0.00277859
0.00286438
-0.00357848
0.00394957
-0.00425391
-0.00517347
0.00514656
-0.000122873
0.000756382
-0.00023372
0.000706941
-0.000359368
0.000821391
-0.00046536
0.000740832
-0.000565426
0.000757871
-0.00064681
0.000714919
-0.00070613
0.00067528
-0.000733138
0.000602432
-0.000716581
0.00049471
-0.000642279
0.00034344
-0.000492304
0.000112669
-0.000248607
-0.000173215
0.000112823
-0.000618074
0.000601829
-0.00111017
0.00126299
-0.00190416
0.00205477
-0.0025951
0.00302121
-0.00374503
0.0040865
-0.00464376
0.00524554
-0.00541295
-0.00637191
0.00644398
-0.000120881
0.000877263
-0.000227252
0.000813312
-0.000345613
0.000939752
-0.000440285
0.000835504
-0.000523424
0.00084101
-0.000580737
0.000772233
-0.000606773
0.000701315
-0.000589069
0.000584728
-0.000514205
0.000419846
-0.000365361
0.000194596
-0.000124501
-0.00012819
0.000229
-0.000526716
0.000716781
-0.00110586
0.00134072
-0.0017341
0.00213678
-0.00270022
0.00306256
-0.00352088
0.00412095
-0.00480343
0.00524492
-0.00576773
0.00643095
-0.00659899
-0.00752317
0.00758221
-0.000118604
0.000995867
-0.000219812
0.00091452
-0.000329751
0.00104969
-0.000411381
0.000917134
-0.000475088
0.000904718
-0.000504963
0.000802107
-0.000493418
0.00068977
-0.00042588
0.000517191
-0.000287069
0.000281034
-5.80367e-05
-3.4436e-05
0.000278676
-0.000464903
0.000742712
-0.000990752
0.0013536
-0.00171674
0.00210466
-0.00248517
0.00301471
-0.00361027
0.00404391
-0.00455007
0.00515496
-0.00591448
0.00629131
-0.00690409
0.00745433
-0.007762
-0.00859234
0.00852349
-0.000116064
0.00111193
-0.000211445
0.0010099
-0.000311855
0.0011501
-0.000378769
0.000984048
-0.000420623
0.000946571
-0.000419846
0.000801331
-0.000366702
0.000636626
-0.000244705
0.000395194
-3.70803e-05
7.34098e-05
0.000276115
-0.000347631
0.00071162
-0.000900409
0.00128506
-0.00156419
0.00201132
-0.002443
0.00287502
-0.00334886
0.0038726
-0.00460785
0.00496621
-0.00564368
0.00608738
-0.00703564
0.00719236
-0.00800907
0.00828854
-0.00885818
-0.00956094
0.00925714
-0.000113282
0.00122521
-0.000202201
0.00109882
-0.000291996
0.0012399
-0.000342563
0.00103462
-0.000360199
0.000964207
-0.000325662
0.000766794
-0.000227083
0.000538047
-4.63879e-05
0.000214498
0.00023435
-0.000207328
0.000634746
-0.000748027
0.0011697
-0.00143536
0.00184839
-0.00224289
0.00267746
-0.00327206
0.00363242
-0.00430382
0.00468551
-0.00566095
0.00579993
-0.0067581
0.00689021
-0.00812592
0.00792824
-0.0090471
0.00892854
-0.00985848
-0.0104265
0.00979415
-0.000110285
0.0013355
-0.000192131
0.00118067
-0.000270245
0.00131801
-0.00030286
0.00106723
-0.000293937
0.000955285
-0.000222576
0.000695433
-7.47943e-05
0.000390265
0.000168617
-2.89131e-05
0.000526108
-0.000564819
0.00101536
-0.00123728
0.00164784
-0.00206784
0.00242373
-0.00301878
0.00333728
-0.00418561
0.00435512
-0.00532166
0.00542751
-0.00673334
0.00652
-0.0078506
0.00754606
-0.00915199
0.00849485
-0.00999589
0.00938867
-0.0107523
-0.0111992
0.0101613
-0.000107097
0.00144259
-0.00018129
0.00125486
-0.000246666
0.00138339
-0.000259727
0.00108029
-0.000221886
0.000917444
-0.00011063
0.000584176
9.00095e-05
0.000189626
0.000399892
-0.000338796
0.000837011
-0.00100194
0.00141498
-0.00181525
0.0021393
-0.00279216
0.00299909
-0.00387857
0.00397287
-0.00515939
0.0050199
-0.00636869
0.00607516
-0.00778859
0.00711029
-0.00888573
0.00805135
-0.0100931
0.00890364
-0.0108482
0.00969675
-0.0115454
-0.0118961
0.0103936
-0.000103748
0.00154634
-0.000169733
0.00132084
-0.000221312
0.00143497
-0.000213197
0.00107218
-0.000144012
0.000848259
1.00895e-05
0.000430075
0.000267419
-6.77035e-05
0.000647107
-0.000718484
0.00116533
-0.00152016
0.00182916
-0.00247908
0.00263488
-0.00359788
0.00355924
-0.00480293
0.00456427
-0.00616442
0.0056055
-0.00740992
0.0066124
-0.0087955
0.00756713
-0.00984046
0.00841635
-0.0109423
0.0091778
-0.0116096
0.00988608
-0.0122537
-0.0125359
0.0105259
-0.000100264
0.00164661
-0.000157511
0.00137809
-0.00019422
0.00147167
-0.000163254
0.00104121
-6.01514e-05
0.000745156
0.000140501
0.000229423
0.000457594
-0.000384797
0.000909614
-0.0011705
0.00150823
-0.00211877
0.00225131
-0.00322216
0.00312266
-0.00446924
0.00408687
-0.00576714
0.00509251
-0.00717005
0.00609685
-0.00841426
0.00703395
-0.0097326
0.00789918
-0.0107057
0.00866132
-0.0117044
0.00934561
-0.0122939
0.00998841
-0.0128965
-0.0131355
0.010588
-9.66737e-05
0.00174328
-0.000144677
0.0014261
-0.000165405
0.0014924
-0.000109826
0.000985631
2.98985e-05
0.000605432
0.000280237
-2.09156e-05
0.000660485
-0.000765046
0.00118607
-0.00169609
0.00186131
-0.00279401
0.00267232
-0.00403317
0.00358869
-0.00538561
0.0045652
-0.00674365
0.00554329
-0.00814815
0.006488
-0.00935897
0.00734534
-0.0105899
0.00812375
-0.0114841
0.00881073
-0.0123914
0.00943441
-0.0129176
0.0100299
-0.013492
-0.0137082
0.0106027
-9.30046e-05
0.00183628
-0.000131276
0.00146437
-0.000134855
0.00149598
-5.27923e-05
0.000903568
0.000126228
0.000426411
0.000429854
-0.000324542
0.000875712
-0.0012109
0.001474
-0.00229438
0.00221821
-0.00353822
0.00308106
-0.00489601
0.00401869
-0.00632324
0.00498079
-0.00770575
0.00590958
-0.00907694
0.00678227
-0.0102316
0.00756001
-0.0113677
0.00826185
-0.0121859
0.00888831
-0.0130178
0.00946712
-0.0134964
0.0100302
-0.0140551
-0.0142639
0.0105859
-8.92824e-05
0.00192557
-0.000117347
0.00149243
-0.000102523
0.00148116
7.86705e-06
0.000793178
0.000229555
0.000204723
0.000589599
-0.000684586
0.00110225
-0.00172355
0.00176944
-0.00296157
0.00257077
-0.00433955
0.00346559
-0.00579083
0.00440038
-0.00725804
0.00532591
-0.00863128
0.0061921
-0.00994312
0.00698996
-0.0110295
0.00769522
-0.0120729
0.00833401
-0.0128247
0.00891413
-0.013598
0.00946119
-0.0140435
0.010003
-0.0145969
-0.0148091
0.0105482
-8.55308e-05
0.0020111
-0.000102917
0.00150982
-6.83133e-05
0.00144655
7.33461e-05
0.000651519
0.000340224
-6.2154e-05
0.000759411
-0.00110377
0.00133811
-0.00230226
0.00206682
-0.00369028
0.00290959
-0.00518232
0.00381489
-0.00669613
0.0047255
-0.00816865
0.00559915
-0.00950493
0.00639776
-0.0107417
0.00712504
-0.0117568
0.00776843
-0.0127163
0.00835786
-0.0134142
0.00890372
-0.0141438
0.00942908
-0.0145688
0.0099573
-0.0151251
-0.0153481
0.0104962
-8.17697e-05
0.00209287
-8.79996e-05
0.00151605
-3.20547e-05
0.00139061
0.000143135
0.000476329
0.000458614
-0.000377633
0.000938707
-0.00158387
0.00158012
-0.00294367
0.00235923
-0.00446938
0.00322524
-0.00604832
0.00412054
-0.00759143
0.00499072
-0.00903883
0.00580456
-0.0103188
0.00653721
-0.0114744
0.0072022
-0.0124218
0.00779515
-0.0133093
0.00834726
-0.0139663
0.00886837
-0.0146649
0.00937927
-0.0150797
0.00989905
-0.0156449
-0.0158833
0.0104343
-7.80149e-05
0.00217088
-7.25901e-05
0.00151062
6.61001e-06
0.00131141
0.000217966
0.000264973
0.00058496
-0.000744627
0.00112615
-0.00212505
0.00182385
-0.00364138
0.00263908
-0.00528462
0.0035096
-0.00691884
0.00437778
-0.00845961
0.0051974
-0.00985845
0.00594985
-0.0110712
0.00662231
-0.0121468
0.00723482
-0.0130343
0.00778795
-0.0138624
0.00831255
-0.0144909
0.0088159
-0.0151683
0.00931738
-0.0155812
0.00983188
-0.0161594
-0.0164162
0.0103648
-7.42757e-05
0.00224516
-5.66586e-05
0.00149301
4.70799e-05
0.00120767
0.000298346
1.37066e-05
0.000719181
-0.00116546
0.00131946
-0.00272533
0.00206386
-0.00438578
0.00289909
-0.00611985
0.00375698
-0.00777672
0.00458568
-0.00928831
0.00535037
-0.0106231
0.00604436
-0.0117652
0.00666444
-0.0127669
0.00723411
-0.013604
0.00775647
-0.0143848
0.00826102
-0.0149954
0.00875161
-0.0156589
0.00924699
-0.0160766
0.00975803
-0.0166704
-0.0169474
0.0102892
-7.05538e-05
0.00231571
-4.01436e-05
0.0014626
9.05781e-05
0.00107695
0.00038473
-0.000280445
0.000860698
-0.00164143
0.0015154
-0.00338003
0.00229428
-0.00516466
0.00313324
-0.00695881
0.00396459
-0.00860807
0.00474651
-0.0100702
0.00545642
-0.0113331
0.00609753
-0.0124063
0.00667348
-0.0133429
0.00720892
-0.0141394
0.00770779
-0.0148836
0.00819775
-0.0154854
0.00867897
-0.0161401
0.00917036
-0.016568
0.00967883
-0.0171789
-0.0174771
0.0102085
-6.68415e-05
0.00238255
-2.29594e-05
0.00141871
0.000137227
0.000916762
0.000477416
-0.000620633
0.00100828
-0.00217229
0.00170996
-0.00408171
0.00250949
-0.00596419
0.00333745
-0.00778678
0.00413242
-0.00940304
0.00486468
-0.0108025
0.00552303
-0.0119914
0.00611797
-0.0130013
0.00665756
-0.0138824
0.00716597
-0.0146478
0.00764694
-0.0153646
0.00812611
-0.0159646
0.00860021
-0.0166142
0.00908888
-0.0170566
0.00959506
-0.0176851
-0.0180051
0.0101231
-6.31198e-05
0.00244567
-5.14591e-06
0.00136074
0.000187422
0.000724194
0.000576427
-0.00100964
0.00115995
-0.00275582
0.00189869
-0.00482045
0.00270483
-0.00677033
0.00350982
-0.00859177
0.00426261
-0.0101558
0.00494571
-0.0114856
0.00555739
-0.0126031
0.00611298
-0.0135569
0.00662301
-0.0143925
0.00711015
-0.015135
0.00757741
-0.0158319
0.00804835
-0.0164355
0.00851677
-0.0170826
0.00900338
-0.0175432
0.00950715
-0.0181889
-0.0185312
0.0100333
-5.93551e-05
0.00250503
1.43058e-05
0.00128708
0.000241587
0.000496913
0.000681385
-0.00144944
0.00131308
-0.00338751
0.00207726
-0.00558463
0.00287707
-0.00757014
0.00365045
-0.00936515
0.0043587
-0.0108641
0.00499536
-0.0121223
0.00556595
-0.0131737
0.00608854
-0.0140794
0.0065747
-0.0148786
0.00704501
-0.0156053
0.00750156
-0.0162884
0.00796593
-0.0168999
0.00842953
-0.0175462
0.00891433
-0.018028
0.00941533
-0.0186899
-0.0190551
0.00993928
-5.54992e-05
0.00256053
3.50927e-05
0.00119649
0.000300103
0.000231903
0.000791413
-0.00194075
0.00146452
-0.00406062
0.00224192
-0.00636202
0.00302457
-0.00835279
0.00376095
-0.0101015
0.00442491
-0.011528
0.00501909
-0.0127164
0.00555418
-0.0137088
0.00604932
-0.0145746
0.00651619
-0.0153455
0.00697302
-0.0160621
0.00742098
-0.0167364
0.00787976
-0.0173587
0.00833904
-0.0180055
0.008822
-0.018511
0.00931976
-0.0191876
-0.0195766
0.00984124
-5.14844e-05
0.00261201
5.75755e-05
0.00108743
0.000363245
-7.37669e-05
0.000905109
-0.00248261
0.00161101
-0.00476652
0.00238984
-0.00714086
0.0031471
-0.00911005
0.00384389
-0.0107983
0.00446555
-0.0121497
0.00502176
-0.0132727
0.00552654
-0.0142135
0.00599893
-0.015047
0.00645012
-0.0157967
0.0068959
-0.0165079
0.00733671
-0.0171772
0.00779045
-0.0178124
0.00824565
-0.0184607
0.00872653
-0.0189919
0.00922051
-0.0196816
-0.0200953
0.00973925
-4.72208e-05
0.00265923
8.22527e-05
0.000957953
0.00043109
-0.000422604
0.00102061
-0.00307213
0.00174944
-0.00549535
0.00251933
-0.00791074
0.00324557
-0.00983629
0.00390235
-0.0114551
0.00448474
-0.0127321
0.00500754
-0.0137955
0.0054866
-0.0146926
0.00594008
-0.0155005
0.00637836
-0.016235
0.00681481
-0.0169443
0.00724943
-0.0176118
0.00769836
-0.0182613
0.00814954
-0.0189119
0.00862799
-0.0194703
0.00911765
-0.0201712
-0.0206111
0.00963343
-4.25924e-05
0.00270182
0.000109603
0.000805758
0.000503446
-0.000816447
0.00113573
-0.00370441
0.00187722
-0.00623685
0.00262972
-0.00866323
0.00332168
-0.0105283
0.00393954
-0.012073
0.00448618
-0.0132787
0.00497985
-0.0142891
0.00543714
-0.0151499
0.00587479
-0.0159381
0.00630223
-0.0166624
0.00673054
-0.0173726
0.00715957
-0.0180408
0.00760372
-0.0187055
0.00805084
-0.019359
0.0085264
-0.0199459
0.00901124
-0.0206561
-0.0211237
0.00952387
-3.74546e-05
0.00273928
0.000140079
0.000628225
0.000579801
-0.00125617
0.00124815
-0.00437276
0.00199245
-0.00698115
0.00272123
-0.00939201
0.00337752
-0.0111845
0.00395853
-0.012654
0.00447308
-0.0137933
0.00494152
-0.0147576
0.00538032
-0.0155887
0.00580455
-0.0163623
0.00622266
-0.0170805
0.00664363
-0.0177936
0.00706741
-0.0184646
0.00750667
-0.0191447
0.00794961
-0.0198019
0.0084218
-0.0204181
0.00890136
-0.0211356
-0.0216331
0.00941066
-3.16302e-05
0.00277091
0.000174055
0.00042254
0.000659318
-0.00174143
0.00135568
-0.00506912
0.00209398
-0.00771946
0.00279473
-0.0100928
0.00341538
-0.0118052
0.00396214
-0.0132007
0.00444814
-0.0142793
0.00489477
-0.0152042
0.00531776
-0.0160117
0.00573043
-0.016775
0.00614029
-0.0174904
0.00655442
-0.0182077
0.00697313
-0.0188833
0.00740728
-0.0195789
0.00784589
-0.0202405
0.00831418
-0.0208864
0.00878806
-0.0216095
-0.0221389
0.00929387
-2.49088e-05
0.00279582
0.000211761
0.00018587
0.00074086
-0.00227053
0.00145637
-0.00578463
0.00218137
-0.00844446
0.00285152
-0.0107629
0.00343751
-0.0123912
0.00395289
-0.0137161
0.00441362
-0.01474
0.00484135
-0.0156319
0.00525069
-0.016421
0.00565321
-0.0171775
0.00605556
-0.0178927
0.00646314
-0.0186153
0.00687683
-0.019297
0.00730562
-0.0200077
0.00773972
-0.0206746
0.00820359
-0.0213502
0.00867139
-0.0220773
-0.022641
0.00917357
-1.70466e-05
0.00281286
0.000253239
-8.44157e-05
0.000823054
-0.00284035
0.00154875
-0.00651032
0.00225474
-0.00915045
0.00289309
-0.0114013
0.00344606
-0.0129442
0.00393292
-0.014203
0.00437136
-0.0151785
0.00478265
-0.0160432
0.00518001
-0.0168184
0.00557343
-0.0175709
0.00596875
-0.0182881
0.00636995
-0.0190165
0.00677858
-0.0197057
0.00720171
-0.0204308
0.00763113
-0.021104
0.00809004
-0.0218092
0.00855141
-0.0225387
-0.0231394
0.00904978
-7.74023e-06
0.0028206
0.000298319
-0.000390475
0.000904384
-0.00344641
0.00163177
-0.00723771
0.00231462
-0.00983329
0.00292102
-0.0120077
0.00344296
-0.0134661
0.00390409
-0.0146641
0.00432284
-0.0155972
0.00471971
-0.0164401
0.00510642
-0.0172051
0.0054915
-0.017956
0.00588007
-0.0186766
0.00627497
-0.0194114
0.00667842
-0.0201091
0.00709558
-0.020848
0.00752015
-0.0215286
0.00797356
-0.0222626
0.00842811
-0.0229932
-0.0236338
0.00892254
3.23689e-06
0.00281737
0.000346638
-0.000733877
0.000983304
-0.00408308
0.0017049
-0.0079593
0.00236184
-0.0104902
0.00293686
-0.0125827
0.00342995
-0.0139592
0.00386794
-0.0151021
0.00426924
-0.0159985
0.00465335
-0.0168242
0.0050304
-0.0175821
0.00540768
-0.0183333
0.00578966
-0.0190586
0.00617826
-0.0198
0.00657638
-0.0205072
0.00698725
-0.0212588
0.00740684
-0.0219482
0.00785416
-0.0227099
0.0083015
-0.0234406
-0.0241243
0.00879191
1.55081e-05
0.00280186
0.000397673
-0.00111604
0.00105837
-0.00474378
0.00176797
-0.0086689
0.00239736
-0.0111196
0.0029421
-0.0131274
0.00340854
-0.0144256
0.00382573
-0.0155193
0.00421153
-0.0163843
0.00458419
-0.0171968
0.00495231
-0.0179503
0.00532217
-0.0187032
0.00569761
-0.0194341
0.00607988
-0.0201823
0.00647245
-0.0208998
0.00687675
-0.0216631
0.00729124
-0.0223627
0.00773184
-0.0231505
0.00817157
-0.0238803
-0.0246106
0.00865793
2.98527e-05
0.00277201
0.000450784
-0.00153697
0.00112836
-0.00542135
0.00182114
-0.00936168
0.00242222
-0.0117207
0.00293808
-0.0136433
0.00338004
-0.0148676
0.00377854
-0.0159178
0.00415043
-0.0167562
0.00451269
-0.0175591
0.00487243
-0.01831
0.0052351
-0.0190658
0.00560397
-0.0198029
0.00597988
-0.0205582
0.00636665
-0.0212866
0.00676417
-0.0220607
0.00717345
-0.022772
0.00760653
-0.0235836
0.00803837
-0.0243121
-0.0250928
0.00852053
4.60609e-05
0.00272595
0.000505241
-0.00199615
0.00119233
-0.00610844
0.0018648
-0.0100342
0.00243747
-0.0122934
0.00292603
-0.0141318
0.00334556
-0.0152871
0.00372722
-0.0162994
0.00408654
-0.0171155
0.0044392
-0.0179118
0.00479095
-0.0186617
0.00514657
-0.0194214
0.00550881
-0.0201652
0.00587828
-0.0209276
0.00625897
-0.0216673
0.00664959
-0.0224513
0.00705354
-0.0231759
0.00747812
-0.0240082
0.00790204
-0.0247361
-0.0255703
0.00837954
6.39328e-05
0.00266201
0.000560237
-0.00249246
0.0012497
-0.0067979
0.00189947
-0.0106839
0.00244412
-0.012838
0.00290703
-0.0145948
0.00330605
-0.0156861
0.00367246
-0.0166658
0.00402031
-0.0174634
0.00436399
-0.0182555
0.00470801
-0.0190058
0.00505664
-0.0197701
0.00541216
-0.0205207
0.0057751
-0.0212906
0.00614944
-0.0220416
0.00653308
-0.0228349
0.00693152
-0.0235744
0.0073466
-0.0244232
0.00776269
-0.0251522
-0.0260411
0.00823352
8.31524e-05
0.00257886
0.000614893
-0.0030242
0.00130017
-0.00748317
0.00192576
-0.0113095
0.0024431
-0.0133554
0.00288205
-0.0150337
0.00326229
-0.0160664
0.00361484
-0.0170184
0.0039521
-0.0178006
0.00428726
-0.0185906
0.00462371
-0.0193422
0.00496537
-0.0201117
0.00531406
-0.0208694
0.00567035
-0.0216469
0.00603806
-0.0224093
0.00641474
-0.0232116
0.0068073
-0.0239669
0.00721228
-0.0248282
0.00761955
-0.0255594
-0.026512
0.00809043
0.000103316
0.00247554
0.000668277
-0.00358916
0.00134368
-0.00815858
0.0019443
-0.0119101
0.00243526
-0.0138463
0.00285185
-0.0154503
0.00321489
-0.0164294
0.00355472
-0.0173582
0.00388208
-0.018128
0.00420904
-0.0189176
0.00453801
-0.0196712
0.00487265
-0.0204464
0.00521437
-0.0212111
0.00556388
-0.0219964
0.00592468
-0.0227701
0.00629437
-0.0235813
0.00668046
-0.024353
0.00707607
-0.0252238
0.00748322
-0.0259666
-0.0269498
0.00792107
0.000123994
0.00235155
0.000719476
-0.00418464
0.00138041
-0.00881951
0.00195578
-0.0124855
0.00242147
-0.014312
0.00281728
-0.0158461
0.00316453
-0.0167767
0.00349264
-0.0176863
0.00381066
-0.018446
0.00412968
-0.0192366
0.00445123
-0.0199927
0.0047788
-0.0207739
0.00511344
-0.0215458
0.00545605
-0.022339
0.00580973
-0.0231238
0.00617238
-0.0239439
0.00655136
-0.024732
0.00693835
-0.0256108
0.00734702
-0.0263752
-0.0273619
0.00775909
0.000144807
0.00220674
0.000767629
-0.00480746
0.00141061
-0.00946249
0.00196083
-0.0130357
0.00240242
-0.0147536
0.00277891
-0.0162226
0.00311161
-0.0171094
0.0034288
-0.0180035
0.00373792
-0.0187551
0.00404914
-0.0195478
0.00436327
-0.0203069
0.0046837
-0.0210944
0.00501114
-0.0218732
0.00534668
-0.0226745
0.00569306
-0.0234702
0.00604855
-0.0242994
0.00641994
-0.0251034
0.00680002
-0.0259909
0.00720104
-0.0267763
-0.0277675
0.00760659
0.000165493
0.00204125
0.000812018
-0.00545399
0.00143461
-0.0100851
0.00196003
-0.0135611
0.00237874
-0.0151723
0.00273726
-0.0165811
0.0030565
-0.0174286
0.00336344
-0.0183105
0.00366398
-0.0190556
0.0039675
-0.0198513
0.00427419
-0.0206136
0.00458737
-0.0214075
0.00490748
-0.0221933
0.00523582
-0.0230029
0.00557471
-0.0238091
0.00592285
-0.0246476
0.00628655
-0.0254671
0.00665874
-0.0263631
0.0070533
-0.0271708
-0.0281707
0.00745659
0.000185949
0.0018553
0.000852127
-0.00612017
0.00145283
-0.0106858
0.00195397
-0.0140623
0.002351
-0.0155693
0.00269281
-0.0169229
0.00299953
-0.0177353
0.00329675
-0.0186077
0.00358894
-0.0193478
0.0038848
-0.0201472
0.00418401
-0.0209128
0.00448984
-0.0217134
0.0048025
-0.022506
0.00512347
-0.0233238
0.00545471
-0.0241403
0.00579534
-0.0249882
0.00615098
-0.0258227
0.00651583
-0.0267279
0.00690209
-0.0275571
-0.028566
0.00729735
0.000206247
0.00164905
0.000887657
-0.00680158
0.00146566
-0.0112638
0.00194315
-0.0145398
0.00231972
-0.0159459
0.00264593
-0.0172491
0.00294093
-0.0180303
0.00322886
-0.0188956
0.00351288
-0.0196319
0.00380111
-0.0204354
0.00409277
-0.0212044
0.00439114
-0.0220117
0.00469622
-0.022811
0.00500966
-0.0236373
0.00533308
-0.0244637
0.00566601
-0.0253211
0.00601354
-0.0261703
0.00637032
-0.0270847
0.00674827
-0.027935
-0.0289544
0.00713663
0.000226608
0.00142245
0.000918517
-0.00749348
0.00147354
-0.0118188
0.00192808
-0.0149943
0.00228533
-0.0163032
0.00259695
-0.0175608
0.00288093
-0.0183143
0.0031599
-0.0191746
0.00343587
-0.0199078
0.00371644
-0.020716
0.00400048
-0.0214885
0.00429128
-0.0223025
0.00458866
-0.0231084
0.00489441
-0.023943
0.00520987
-0.0247792
0.00553493
-0.0256462
0.00587405
-0.0265094
0.0062228
-0.0274335
0.00659206
-0.0283043
-0.029333
0.00697068
0.000247355
0.00117509
0.000944787
-0.00819092
0.00147689
-0.0123509
0.00190919
-0.0154266
0.00224823
-0.0166422
0.00254617
-0.0178587
0.0028197
-0.0185878
0.00308998
-0.0194449
0.00335796
-0.0201758
0.00363083
-0.0209889
0.00390718
-0.0217648
0.0041903
-0.0225857
0.00447984
-0.023398
0.00477776
-0.024241
0.0050851
-0.0250865
0.00540209
-0.0259632
0.00573271
-0.02684
0.00607301
-0.0277738
0.00643312
-0.0286644
-0.0297027
0.00680279
0.000268849
0.000906243
0.000966663
-0.00888873
0.00147612
-0.0128604
0.0018869
-0.0158374
0.00220876
-0.0169641
0.00249382
-0.0181438
0.00275738
-0.0188514
0.00301915
-0.0197066
0.0032792
-0.0204358
0.00354432
-0.021254
0.00381289
-0.0220334
0.00408821
-0.022861
0.0043698
-0.0236796
0.00465974
-0.0245309
0.00495881
-0.0253856
0.00526756
-0.0262719
0.00558943
-0.0271619
0.00592114
-0.0281055
0.00627198
-0.0290152
-0.0300622
0.00663155
0.000291421
0.000614822
0.000984409
-0.00958172
0.00147159
-0.0133476
0.00186156
-0.0162274
0.00216721
-0.0172697
0.0024401
-0.0184167
0.00269408
-0.0191054
0.0029475
-0.0199601
0.00319961
-0.020688
0.00345694
-0.0215113
0.00371763
-0.0222941
0.00398504
-0.0231284
0.00425857
-0.0239531
0.00454036
-0.0248127
0.00483102
-0.0256763
0.00513135
-0.0265723
0.00544433
-0.0274749
0.00576719
-0.0284283
0.00610831
-0.0293564
-0.030412
0.00645812
0.000315306
0.000299515
0.000998312
-0.0102647
0.00146366
-0.0138129
0.0018335
-0.0165972
0.00212384
-0.01756
0.00238517
-0.018678
0.00262992
-0.0193501
0.00287507
-0.0202052
0.00311925
-0.0209321
0.0033687
-0.0217608
0.00362144
-0.0225468
0.00388081
-0.0233878
0.00414616
-0.0242184
0.00441968
-0.0250862
0.00470179
-0.0259584
0.00499353
-0.026864
0.00529742
-0.0277787
0.00561121
-0.0287421
0.00594252
-0.0296877
-0.0307516
0.00628205
0.000340589
-4.10736e-05
0.00100865
-0.0109328
0.00145263
-0.0142569
0.00180302
-0.0169476
0.00207889
-0.0178359
0.00232919
-0.0189283
0.00256496
-0.0195859
0.00280191
-0.0204422
0.00303813
-0.0211684
0.00327963
-0.0220023
0.00352433
-0.0227915
0.00377557
-0.023639
0.00403261
-0.0244755
0.00429772
-0.0253513
0.00457114
-0.0262318
0.00485411
-0.027147
0.00514876
-0.0280734
0.00545327
-0.0290466
0.00577444
-0.0300088
-0.0310809
0.00610375
0.000367159
-0.000408232
0.00101567
-0.0115813
0.00143877
-0.01468
0.00177039
-0.0172792
0.00203254
-0.0180981
0.00227227
-0.019168
0.00249928
-0.0198129
0.00272806
-0.0206709
0.0029563
-0.0213966
0.00318977
-0.0222357
0.00342633
-0.0230281
0.00366933
-0.023882
0.00391795
-0.0247241
0.00417451
-0.0256079
0.00443911
-0.0264964
0.00471315
-0.027421
0.00499838
-0.0283586
0.00529341
-0.0293417
0.00560433
-0.0303198
-0.0313997
0.00592313
0.000394691
-0.000802923
0.0010196
-0.0122062
0.00142232
-0.0150827
0.00173584
-0.0175928
0.00198497
-0.0183472
0.00221452
-0.0193976
0.00243293
-0.0200313
0.00265356
-0.0208916
0.00287376
-0.0216168
0.00309913
-0.0224611
0.00332747
-0.0232564
0.00356212
-0.0241167
0.00380222
-0.0249642
0.00405009
-0.0258557
0.00430574
-0.026752
0.00457069
-0.027686
0.00484635
-0.0286343
0.00513171
-0.029627
0.00543215
-0.0306202
-0.0317079
0.00574035
0.00042265
-0.00122557
0.00102061
-0.0128042
0.00140351
-0.0154656
0.00169958
-0.0178888
0.00193632
-0.0185839
0.00215602
-0.0196173
0.00236596
-0.0202413
0.00257843
-0.021104
0.00279056
-0.0218289
0.00300774
-0.0226783
0.00322777
-0.0234764
0.00345398
-0.0243429
0.00368544
-0.0251957
0.0039245
-0.0260948
0.00417107
-0.0269986
0.00442677
-0.0279417
0.00469271
-0.0289002
0.00496822
-0.0299025
0.00525803
-0.03091
-0.0320053
0.00555545
0.000450322
-0.0016759
0.00101886
-0.0133727
0.00138252
-0.0158292
0.00166179
-0.0181681
0.00188672
-0.0188089
0.00209685
-0.0198274
0.00229842
-0.0204429
0.00250272
-0.0213083
0.00270671
-0.0220329
0.00291564
-0.0228872
0.00312728
-0.0236881
0.00334493
-0.0245605
0.00356765
-0.0254184
0.00379778
-0.0263249
0.00403514
-0.027236
0.00428145
-0.028188
0.00453752
-0.0291563
0.004803
-0.030168
0.00508201
-0.031189
-0.0322918
0.00536851
0.000476874
-0.00215277
0.00101448
-0.0139103
0.00135951
-0.0161743
0.00162265
-0.0184312
0.00183629
-0.0190225
0.00203707
-0.0200282
0.00223035
-0.0206361
0.00242644
-0.0215044
0.00262225
-0.0222287
0.00282283
-0.0230878
0.003026
-0.0238912
0.003235
-0.0247695
0.00344889
-0.0256323
0.00366996
-0.026546
0.003898
-0.027464
0.00413476
-0.0284247
0.00438082
-0.0294024
0.00463611
-0.0304233
0.00490419
-0.0314571
-0.0325672
0.00517962
0.000501442
-0.00265421
0.00100757
-0.0144164
0.00133465
-0.0165013
0.0015823
-0.0186789
0.00178512
-0.0192253
0.00197674
-0.0202198
0.00216177
-0.0208212
0.00234962
-0.0216923
0.00253719
-0.0224163
0.00272937
-0.02328
0.00292398
-0.0240859
0.00312424
-0.0249698
0.00332918
-0.0258372
0.00354109
-0.0267579
0.00375969
-0.0276826
0.00398676
-0.0286518
0.00422268
-0.0296383
0.00446761
-0.0306682
0.00472461
-0.0317141
-0.0328314
0.00498883
0.000523224
-0.00317744
0.000998267
-0.0148915
0.00130808
-0.0168112
0.00154087
-0.0189117
0.00173328
-0.0194177
0.00191591
-0.0204024
0.00209273
-0.020998
0.00227229
-0.0218718
0.00245157
-0.0225956
0.00263526
-0.0234637
0.00282124
-0.0242718
0.00301267
-0.0251612
0.00320857
-0.0260331
0.0034112
-0.0269605
0.00362025
-0.0278917
0.0038375
-0.028869
0.00406315
-0.0298639
0.00429758
-0.0309027
0.00454336
-0.0319599
-0.0330843
0.00479623
0.000541574
-0.00371901
0.000986686
-0.0153366
0.00127993
-0.0171044
0.0014985
-0.0191303
0.00168087
-0.0196001
0.00185462
-0.0205762
0.00202324
-0.0211666
0.00219447
-0.0220431
0.00236542
-0.0227665
0.00254054
-0.0236388
0.00271782
-0.0244491
0.00290032
-0.0253437
0.0030871
-0.0262199
0.00328034
-0.0271538
0.00347973
-0.0280911
0.00368702
-0.0290763
0.00390228
-0.0300792
0.00412606
-0.0311264
0.00436051
-0.0321943
-0.0333257
0.00460189
0.000556066
-0.00427508
0.000972967
-0.0157535
0.00125035
-0.0173818
0.00145527
-0.0193352
0.00162793
-0.0197728
0.0017929
-0.0207411
0.00195334
-0.0213271
0.0021162
-0.0222059
0.00227875
-0.0229291
0.00244524
-0.0238053
0.00261374
-0.0246176
0.00278724
-0.0255172
0.00296479
-0.0263974
0.00314856
-0.0273375
0.00333817
-0.0282807
0.00353539
-0.0292736
0.00374014
-0.0302839
0.00395314
-0.0313394
0.00417612
-0.0324173
-0.0335555
0.00440589
0.000566525
-0.0048416
0.000957262
-0.0161442
0.00121946
-0.017644
0.0014113
-0.019527
0.00157453
-0.019936
0.00173081
-0.0208974
0.00188305
-0.0214793
0.00203749
-0.0223604
0.00219159
-0.0230832
0.00234938
-0.0239631
0.00250905
-0.0247773
0.00267346
-0.0256816
0.0028417
-0.0265657
0.00301588
-0.0275117
0.00319563
-0.0284604
0.00338265
-0.0294606
0.00357678
-0.0304781
0.00377886
-0.0315415
0.00399027
-0.0326287
-0.0337735
0.0042083
0.000573015
-0.00541462
0.000939733
-0.016511
0.00118738
-0.0178916
0.00136667
-0.0197063
0.00152073
-0.02009
0.00166835
-0.021045
0.00181241
-0.0216234
0.00195838
-0.0225063
0.00210398
-0.0232288
0.00225301
-0.0241121
0.00240376
-0.024928
0.00255901
-0.0258369
0.00271786
-0.0267245
0.00288236
-0.0276762
0.00305214
-0.0286302
0.00322886
-0.0296373
0.00341227
-0.0306615
0.00360331
-0.0317326
0.00380304
-0.0328284
-0.0339797
0.0040092
0.000575794
-0.00599041
0.000920549
-0.0168557
0.00115425
-0.0181253
0.00132146
-0.0198735
0.00146655
-0.0202351
0.00160558
-0.0211841
0.00174143
-0.0217592
0.00187888
-0.0226438
0.00201594
-0.0233659
0.00215614
-0.0242523
0.00229792
-0.0250698
0.00244392
-0.0259829
0.00259331
-0.0268739
0.00274805
-0.027831
0.00290776
-0.0287899
0.00307407
-0.0298036
0.00324665
-0.0308341
0.00342653
-0.0319124
0.00361448
-0.0330164
-0.0341738
0.00380867
0.000575252
-0.00656566
0.000899876
-0.0171803
0.00112016
-0.0183456
0.00127573
-0.0200291
0.00141205
-0.0203715
0.00154251
-0.0213145
0.00167014
-0.0218868
0.00179902
-0.0227727
0.0019275
-0.0234943
0.00205881
-0.0243836