/*--------------------------------*- C++ -*----------------------------------*\
  =========                 |
  \\      /  F ield         | OpenFOAM: The Open Source CFD Toolbox
   \\    /   O peration     | Website:  https://openfoam.org
    \\  /    A nd           | Version:  7
     \\/     M anipulation  |
\*---------------------------------------------------------------------------*/
FoamFile
{
    version     2.0;
    format      ascii;
    class       volVectorField;
    location    "1.323";
    object      U;
}
// * * * * * * * * * * * * * * * * * * * * * * * * * * * * * * * * * * * * * //

dimensions      [0 1 -1 0 0 0 0];

internalField   nonuniform List<vector> 
12359
(
(0.98189 -5.39752e-05 -1.11169e-16)
(0.97099 -0.00124738 1.26561e-17)
(0.999964 -6.13057e-06 -2.77005e-17)
(0.939772 0.00111714 2.30583e-16)
(0.978102 -0.000632626 -9.90067e-18)
(0.889318 0.000148592 -3.97539e-17)
(0.852345 -0.000822439 -1.34248e-17)
(0.873672 -5.85786e-05 -1.24378e-17)
(0.805666 0.00956322 -2.60269e-17)
(0.902109 0.000191686 -3.29011e-17)
(0.828476 0.0096105 2.67693e-17)
(0.744449 0.0273301 -3.545e-17)
(0.380558 0.0234702 -2.19587e-16)
(0.932178 -7.87507e-05 1.64698e-16)
(0.944029 0.000300325 1.05562e-16)
(0.565049 0.0240722 -3.39982e-17)
(0.483696 0.0278391 -8.09679e-17)
(0.994727 4.10515e-05 -5.27519e-17)
(0.995193 8.23151e-05 9.69401e-18)
(0.958024 -0.000513811 -9.76527e-17)
(0.921659 -0.00164727 1.55822e-16)
(0.774935 0.0180054 2.87915e-17)
(0.961836 -0.00115362 -7.80482e-17)
(0.953853 0.00014365 -3.06871e-17)
(0.966861 -0.00122014 -4.33927e-17)
(0.959555 -0.000182438 4.1328e-17)
(0.998689 -8.24065e-05 -1.43163e-17)
(0.998838 -0.000105411 -5.04404e-17)
(0.996003 -1.2044e-05 -7.2148e-17)
(0.998092 -5.21906e-05 -2.68879e-17)
(0.997746 -6.82716e-05 2.21653e-17)
(0.99942 1.63494e-05 -3.92564e-17)
(0.999747 -2.04523e-05 -2.39889e-17)
(0.99833 -8.84023e-05 -2.42004e-17)
(0.999909 -3.40823e-06 1.52656e-17)
(0.997462 -9.17155e-05 2.1024e-17)
(0.988808 -0.00038217 7.64167e-17)
(0.983169 -8.57766e-05 2.46654e-17)
(0.979484 -0.00072444 3.45917e-17)
(0.985439 -0.000600293 1.64826e-16)
(0.974132 -0.00103606 4.33879e-18)
(0.984215 -0.00012874 4.64267e-17)
(0.991195 -0.000209799 -8.82472e-17)
(0.992062 -0.00023628 4.27924e-17)
(0.996751 -0.000134286 -2.37367e-17)
(0.996409 -0.000101586 1.69069e-17)
(0.997121 -0.000140384 -5.88716e-18)
(0.997907 -3.86363e-05 1.21424e-17)
(0.995593 0.000108318 -5.89003e-18)
(0.998558 -7.35407e-05 6.29702e-18)
(0.999002 -7.90237e-05 -2.97256e-17)
(0.999057 -4.91562e-05 -1.83536e-17)
(0.999483 -2.85566e-05 -1.02976e-17)
(0.994173 2.70776e-05 3.2595e-17)
(0.999569 3.12346e-05 -1.20417e-17)
(0.999739 -1.95581e-05 -9.10548e-18)
(0.993074 -0.000194517 1.1736e-17)
(0.999785 -1.38045e-05 5.27932e-18)
(0.9998 -2.73644e-05 2.25623e-17)
(0.999862 2.45424e-05 -3.74409e-17)
(0.999693 -3.3289e-05 2.66791e-17)
(0.999939 2.09405e-05 4.77419e-17)
(0.999056 -5.89566e-05 -1.42245e-17)
(0.207042 0.0763546 -1.13424e-15)
(0.993697 1.50604e-05 -4.35557e-17)
(0.912595 -0.000659114 8.42764e-17)
(0.989806 -0.000140019 1.01796e-16)
(0.999225 -1.78452e-05 -2.82814e-18)
(0.987872 -0.000397644 5.75682e-17)
(0.640738 0.0301926 -4.12458e-18)
(0.0449418 0.0424246 1.46762e-15)
(0.976476 -0.00108076 -5.99451e-17)
(0.999965 -1.31491e-05 -8.46116e-18)
(0.986751 -0.000632521 1.01211e-16)
(0.948668 -0.00102564 -3.30075e-17)
(0.999886 2.16095e-06 -3.62243e-17)
(0.999407 -3.51177e-05 3.61224e-17)
(0.999923 -1.22606e-05 1.15361e-17)
(0.989513 -0.000442524 -8.04809e-17)
(0.705678 0.00308466 1.54072e-17)
(0.920733 0.0585558 -9.31935e-17)
(1.00378 0.00294828 1.98263e-18)
(1.00003 -1.22153e-05 4.748e-19)
(0.997951 0.0128671 4.40727e-18)
(1.09536 0.151117 2.48826e-17)
(1.02195 5.16276e-05 -1.26233e-19)
(1.00388 0.00261705 4.59778e-19)
(1.00162 -0.00010332 7.96552e-19)
(1.1128 0.079037 -1.56455e-17)
(1.08416 0.159539 2.50639e-17)
(0.999943 0.000199235 3.80748e-17)
(0.262154 0.190515 -4.38838e-16)
(1 -8.67828e-06 -5.25116e-18)
(0.999455 0.00627269 -7.70123e-18)
(0.999269 0.0111021 -1.23216e-17)
(1.04013 0.00317143 -1.53645e-18)
(1.0001 0.0053286 1.61894e-18)
(0.999486 0.00635635 -8.77261e-18)
(0.990371 0.0299633 2.98474e-18)
(0.994013 0.0191301 6.34733e-18)
(0.937113 0.0779871 1.75891e-17)
(1 2.53653e-05 2.74791e-18)
(1.02264 0.00153055 -1.08587e-18)
(1.274 0.100775 -3.60071e-17)
(1.00485 0.00122485 -2.69931e-18)
(1.03383 0.0237354 -5.54395e-18)
(1.00024 5.61913e-05 -3.13659e-18)
(1.08853 0.15275 3.40046e-17)
(1.01711 -0.00156468 -7.81527e-18)
(1.03385 0.022423 -5.67703e-18)
(1.00008 0.00504345 1.87913e-18)
(1.00365 0.00288066 -4.3204e-18)
(0.940639 0.0476322 4.72325e-17)
(0.95635 0.0748322 1.19549e-17)
(0.999084 0.0110611 -1.19664e-17)
(1.00358 0.000162734 4.54644e-18)
(0.952458 0.0787509 -3.77983e-17)
(1.00465 0.00250391 -1.15952e-17)
(1.12881 0.0631726 -1.00785e-17)
(1 1.34308e-05 -3.43434e-19)
(1.00002 0.00511874 2.31404e-18)
(0.858916 0.02686 5.75382e-17)
(1.00171 0.000160034 7.52992e-18)
(1.04043 0.00705364 3.54883e-18)
(1.00514 0.00235034 -8.7164e-18)
(1.00337 0.00100024 4.85758e-18)
(1.00793 0.0964084 -2.52101e-17)
(0.998254 0.0129399 -6.54164e-18)
(0.999992 1.31122e-05 8.35501e-18)
(1.00494 0.0022582 1.57001e-17)
(1.00267 -0.00036099 -3.03195e-18)
(1.05076 0.0216027 3.18194e-18)
(1.05291 0.0204393 -1.08006e-18)
(1.05129 0.0193561 1.53403e-18)
(1.00024 0.000101292 -1.91467e-18)
(1.0391 0.00806873 6.88526e-18)
(1.00289 0.000651979 8.31701e-18)
(1.03844 0.00792221 2.84008e-18)
(1 9.4626e-05 -5.28272e-17)
(1.00698 0.0927869 -1.12834e-17)
(1 2.15586e-05 -2.60336e-18)
(0.981727 0.00227035 -5.23234e-17)
(1.03184 0.0144606 2.70156e-18)
(1.00026 6.06281e-05 -1.46908e-18)
(1.03921 0.0429936 4.71533e-19)
(0.896505 0.0269527 -5.56084e-17)
(1.00002 2.00175e-05 1.14434e-18)
(1.0879 0.125789 2.0493e-17)
(1.00487 0.00137616 -8.87218e-18)
(0.921235 0.0606267 9.36631e-17)
(1.04298 0.00402112 -1.67002e-19)
(0.999996 2.41337e-05 -1.11753e-17)
(1.03188 0.0150392 5.07077e-18)
(1.00178 0.000199755 -8.01826e-18)
(1.00001 -3.92432e-06 -1.39467e-19)
(0.561643 1.3049 -2.31889e-17)
(0.934767 0.0881644 2.0978e-17)
(1.05028 0.0219133 1.29091e-18)
(1.00011 0.00554107 -2.31389e-18)
(0.999266 0.000415581 1.47303e-17)
(1.00181 0.0465252 6.26102e-18)
(0.999253 0.000587653 2.70273e-18)
(1.04112 0.00678171 2.27228e-18)
(1.03432 0.012441 -6.47327e-18)
(1.00004 7.21789e-05 8.70236e-19)
(1.0033 0.000354509 1.60074e-18)
(1.00136 0.0454726 6.35007e-18)
(0.875456 0.0141004 -1.27303e-18)
(1.03324 0.0119498 2.76501e-18)
(1.1206 0.0768647 -2.55212e-17)
(0.999976 1.00374e-05 -6.49383e-17)
(0.999981 6.10103e-05 4.95676e-17)
(1.03442 0.00963378 -5.28596e-18)
(0.970775 0.0025757 -6.57677e-17)
(1.00487 0.00123282 7.7674e-18)
(1.00365 0.0909997 3.91819e-19)
(0.996687 0.000503807 -8.54192e-17)
(0.996705 0.000882226 -1.52233e-18)
(0.935527 0.0509748 1.07303e-16)
(1.00354 0.088245 4.67775e-18)
(0.932384 0.00666115 1.7927e-16)
(1.00002 2.92069e-05 2.3861e-19)
(0.999985 2.047e-05 -2.23835e-17)
(1.00406 0.00285376 4.58703e-18)
(0.991312 0.0284106 7.21046e-19)
(0.864893 0.105559 1.99931e-16)
(1.00438 0.00581414 5.03016e-18)
(1.00008 0.0109293 -7.3682e-18)
(1.03878 0.00249501 -2.29408e-18)
(1.00471 0.00598657 -8.25348e-18)
(0.999817 0.0102775 -9.55884e-18)
(1.0375 0.000504831 -2.88374e-18)
(1.03514 0.00362258 -1.59972e-18)
(1.00185 0.000152792 6.96668e-18)
(1.03495 0.0213438 -3.75172e-19)
(1.09691 0.0889666 -2.37304e-17)
(1.01498 0.0130099 -4.5827e-18)
(1.00349 0.00618277 2.66244e-18)
(1.03151 0.0163234 -3.6006e-18)
(1.00465 0.00253639 9.79503e-18)
(0.891183 0.0294945 4.48895e-17)
(1.04047 0.00157448 -3.91941e-18)
(0.992962 0.0191012 -1.1914e-18)
(1.03402 0.0214667 -1.98968e-18)
(1.03593 0.0395303 -4.83203e-18)
(1.00001 3.02148e-05 -1.89797e-18)
(1.03689 0.0399718 -3.66484e-18)
(0.992449 0.018242 1.81129e-17)
(1.04308 0.00839071 3.1413e-18)
(1.00569 0.00410579 -4.3383e-18)
(1.00001 3.03247e-05 8.02472e-19)
(1.04652 0.01803 -4.78299e-18)
(1.04677 0.0181477 -2.92555e-18)
(1.06072 0.114902 -6.36287e-17)
(0.824245 0.0862798 1.76506e-17)
(0.999956 2.62818e-05 3.37204e-17)
(1.004 0.00606664 2.62464e-18)
(0.999065 0.0108102 5.22291e-18)
(1.00416 0.00615928 -2.44964e-18)
(0.981163 0.00105037 8.69775e-17)
(0.945599 0.0628296 6.16586e-17)
(1.00546 0.00378722 6.86711e-18)
(1.03968 0.00791004 -9.41611e-19)
(0.475846 0.376073 -1.01594e-16)
(1.00518 0.00283328 5.46934e-18)
(1.00001 3.87573e-05 -1.75226e-18)
(0.980804 0.0010836 -2.99776e-17)
(1.01868 0.00256287 -7.25433e-18)
(1.00079 0.088192 -2.77969e-18)
(1.00277 0.00676568 4.62777e-18)
(1.00297 0.00651801 8.38024e-18)
(1.00003 -2.70845e-05 -4.44004e-19)
(1.03821 0.0431353 -1.34563e-18)
(0.992856 0.0240542 9.86759e-18)
(1.0006 0.0107397 -7.46754e-18)
(0.993668 0.0215716 2.68522e-17)
(1.00001 2.44604e-05 -9.11594e-19)
(1.0326 0.0169126 7.46854e-18)
(1.00052 0.0108125 -6.74638e-18)
(0.631057 0.256636 -3.31685e-17)
(1.00007 4.19834e-05 2.27311e-19)
(1.02478 0.00139119 -1.59801e-18)
(1.00021 0.00791108 -2.79856e-18)
(0.983452 0.162915 1.18652e-18)
(1.00344 0.0488921 -3.70637e-18)
(1.08563 0.128782 3.91373e-17)
(0.999859 4.21667e-05 2.49802e-17)
(1.04262 0.00811077 3.45111e-18)
(1.0045 0.000931269 -2.48113e-18)
(1.03608 0.00287304 -5.057e-18)
(1.04442 0.0147554 -6.01304e-18)
(0.985012 0.000251516 -1.76541e-16)
(0.997022 0.000691811 1.50083e-17)
(1.00249 0.00644442 4.05383e-18)
(0.492168 0.435623 8.71845e-17)
(1.23641 0.135056 -2.43346e-17)
(0.999989 5.43895e-06 2.57469e-18)
(1.00578 0.00312936 -7.11907e-18)
(0.346569 0.304006 9.84422e-17)
(0.407922 0.0269248 -3.08522e-17)
(0.993205 0.0192517 -1.00773e-17)
(1.00203 0.0488022 1.00503e-17)
(1.00138 0.0814172 1.37809e-17)
(1.03477 0.0202125 3.82558e-18)
(0.973777 0.000845768 7.83967e-18)
(1.33199 0.349143 -2.7852e-17)
(1.11877 0.0642178 -4.36708e-18)
(1.00337 0.0503632 2.46974e-18)
(1.0055 0.00288199 -6.94652e-18)
(1.03871 0.00854951 2.81023e-18)
(1.03411 0.0111548 -3.84592e-19)
(0.987847 0.026994 1.03523e-17)
(1.03295 0.0136661 -5.23269e-18)
(1.00239 0.00667984 -1.32323e-18)
(1.00569 0.00348236 -6.77686e-18)
(1.00002 1.87444e-05 -8.45716e-19)
(1.00554 0.0032217 -3.35515e-18)
(1.15827 0.111756 -1.37689e-17)
(1.00417 0.0533692 -1.07402e-17)
(1.00034 0.000112024 -1.46303e-18)
(0.999999 5.53222e-05 9.30992e-18)
(1.03567 0.0199172 6.81856e-18)
(1.00792 0.00168929 9.13036e-18)
(0.991121 0.000638354 -8.48018e-17)
(1.02469 0.000762854 -3.85308e-18)
(1.00001 3.16622e-05 -2.54495e-18)
(0.999507 0.077685 2.01283e-18)
(1.00001 1.1831e-05 2.2094e-18)
(0.999998 -1.9768e-05 1.42275e-17)
(0.999438 0.00010607 8.29377e-18)
(1.0414 0.00669879 3.11667e-18)
(1.00412 0.00239296 6.81687e-18)
(1.40759 0.407494 -9.32614e-19)
(1.00038 7.13912e-05 1.87475e-19)
(1.00026 -0.000121836 3.69114e-18)
(1.02165 0.0012873 -3.70124e-18)
(1.00445 -0.000342303 1.34168e-18)
(0.943626 0.0681771 -1.48891e-17)
(0.999243 0.00980353 4.34586e-18)
(0.999067 0.000259391 -4.6401e-18)
(0.999954 5.72156e-05 -4.98795e-18)
(1.14677 0.100741 -3.82539e-17)
(1.00177 0.080946 1.42304e-18)
(0.999956 5.88002e-05 -7.77237e-18)
(1.00376 0.00600451 7.77156e-18)
(0.999699 0.00902198 -2.49949e-19)
(1.0045 0.0023567 9.34356e-18)
(1.00314 0.000755999 2.13301e-18)
(1.0028 -0.00036009 -5.84875e-18)
(1.00434 0.000911263 6.46564e-18)
(0.995482 0.00158439 4.07875e-17)
(0.831504 0.0652034 -4.46314e-18)
(1.00464 -0.00101113 -1.55297e-17)
(0.997865 0.000112571 1.30078e-17)
(0.985981 0.00107953 -3.08013e-18)
(1.02538 0.0284912 4.79994e-18)
(1.10391 0.0560527 3.71972e-17)
(1.00541 0.000461922 5.76192e-18)
(0.989683 0.0254892 1.77765e-17)
(0.574448 0.0747519 -1.07972e-16)
(0.999991 5.19363e-06 -1.528e-18)
(1.0278 0.0132691 -2.10559e-18)
(1.00047 0.000645035 -1.97185e-18)
(1.01481 0.0135947 -5.38265e-18)
(1.00027 1.9637e-05 1.46134e-18)
(1.00566 0.00219792 1.0698e-17)
(0.776418 0.0356077 3.75089e-16)
(1.02866 0.0154176 -3.03153e-18)
(0.830429 0.0881496 -6.73233e-17)
(0.990979 0.000353556 -7.96421e-17)
(1.00065 0.00832878 -5.95716e-18)
(1.03508 0.00030412 -2.74752e-18)
(1.03792 0.00338833 -2.55364e-18)
(1.00065 0.00785678 -4.78928e-18)
(1.03764 0.000282977 -4.64171e-18)
(1.03665 0.000208575 -4.88662e-18)
(1.00068 0.000138838 -1.10372e-18)
(0.999566 0.000489019 -3.42359e-18)
(0.999548 0.000418434 3.53755e-18)
(0.99952 0.000471098 -1.45563e-17)
(0.999547 0.000382463 -3.29493e-17)
(0.691857 0.276751 3.69374e-17)
(1.00003 4.99866e-05 -1.46006e-19)
(0.938712 0.0788195 1.70448e-17)
(1.04437 0.00466943 8.07573e-19)
(0.99269 0.0260682 4.48093e-19)
(1.03384 0.0144189 -5.94196e-18)
(1.02863 0.0162831 -5.24625e-18)
(1.02162 0.00174784 -7.96839e-18)
(1.01385 0.0128463 2.64619e-18)
(1.02943 0.0153544 -7.01954e-18)
(1.01357 0.0130309 5.4735e-18)
(0.990617 0.0273255 -8.34737e-18)
(1.02753 0.0297285 1.07833e-17)
(1.02619 0.033985 5.95906e-18)
(0.954616 0.0506099 4.67061e-17)
(0.982181 0.00233751 1.45224e-17)
(1.03079 0.0826498 1.70351e-17)
(0.98382 0.00191635 -2.6581e-17)
(0.982726 0.00102622 7.74669e-17)
(1.03106 0.0163988 -3.22737e-18)
(0.938019 0.0963824 3.73393e-18)
(1.00319 0.00282298 2.14202e-18)
(0.999625 7.66886e-05 2.14309e-17)
(1.01636 0.0120925 -8.19958e-18)
(0.999612 4.28023e-05 -6.7004e-17)
(1.00335 0.00322316 -6.84638e-18)
(0.713086 0.0223181 4.4571e-19)
(0.0711334 0.0829603 -2.9832e-16)
(1.0033 0.00300847 -1.11936e-18)
(0.999975 1.03041e-05 -2.1138e-17)
(1.00021 -4.45101e-05 9.07478e-19)
(0.99999 2.15207e-05 -6.84189e-18)
(1.02963 0.0135909 -1.30967e-18)
(1 2.39474e-05 -3.85402e-18)
(0.999995 2.23872e-05 -2.54706e-18)
(1.11864 0.0809944 -1.29821e-17)
(1.03412 0.0123045 -2.34262e-18)
(1.07937 0.175992 1.42179e-17)
(1.00147 0.00342051 9.26303e-19)
(1.03678 0.0144731 8.87517e-18)
(1.00756 0.000775128 3.53839e-18)
(0.999971 0.00895941 1.38431e-18)
(1.03175 0.0301126 -2.35539e-18)
(1.01647 0.0113673 -1.9634e-18)
(0.9376 0.00374374 1.53547e-16)
(1.01636 0.0108461 -4.74073e-18)
(1.00301 0.00268952 -2.33563e-18)
(1.00046 -0.000321325 -2.58503e-18)
(1.03462 0.0109729 -1.9592e-18)
(1.0366 0.0143703 7.48683e-18)
(1.00583 0.00103535 9.42515e-19)
(0.708466 0.0185031 1.63436e-16)
(1.03199 0.0295562 -9.77061e-18)
(1.03963 0.00251587 7.17464e-19)
(0.997871 0.035642 3.16934e-18)
(1.00109 0.0430166 4.65046e-19)
(0.999985 0.000129282 2.88668e-17)
(0.408406 0.57407 -2.41498e-16)
(1.03321 0.0845916 1.95907e-17)
(1.00128 0.00359638 -2.10419e-18)
(0.969709 0.182095 -1.1913e-17)
(0.984129 0.00105062 7.55158e-17)
(0.999971 6.46191e-05 7.1799e-19)
(1.00001 2.56448e-05 4.68076e-19)
(0.999989 5.13661e-05 2.46302e-18)
(1.09118 0.174016 8.10582e-18)
(0.944827 0.0962807 -3.58817e-18)
(0.988533 0.0288129 4.63842e-18)
(1.02886 0.0112551 -8.59409e-18)
(1.0408 0.00310147 7.23691e-19)
(0.999195 0.0117945 1.24598e-17)
(0.927309 0.00882042 2.22186e-16)
(0.998385 0.035432 6.49073e-18)
(1.04716 0.0196573 -6.63946e-18)
(1.11467 0.0560685 6.72541e-18)
(0.694114 0.0444912 5.07468e-17)
(0.993788 0.0260563 -1.12934e-17)
(0.953585 0.0538473 9.74921e-18)
(1.02001 0.000567943 -1.84047e-18)
(1.02564 0.0388232 2.66449e-18)
(1.01221 0.0114639 7.26816e-18)
(1.01674 0.0124567 -1.05697e-18)
(0.998423 0.000200576 1.92056e-18)
(1.01223 0.0116687 5.60535e-18)
(1.03138 0.0136683 -3.84244e-18)
(0.999989 1.24677e-05 4.87869e-19)
(0.530379 0.0226374 -4.54907e-17)
(0.990297 0.00120379 -8.34252e-17)
(1.05669 0.00940598 1.84601e-17)
(1.03754 0.0119091 -3.23963e-18)
(0.993404 0.00119786 3.82773e-17)
(0.948959 0.060541 1.88279e-17)
(1.16253 0.251365 2.61977e-18)
(1.02977 0.016582 -4.93674e-18)
(1.00872 0.0166932 -1.73299e-18)
(1.03877 0.00137933 -6.21875e-19)
(1.0381 0.0119229 -5.33506e-18)
(1.02873 0.0345702 -1.28687e-17)
(1.00463 0.00277144 4.45565e-18)
(1.00001 -5.2493e-07 3.75105e-19)
(0.99357 0.0711213 8.04649e-18)
(1.00025 5.11408e-05 -4.43066e-18)
(1.05148 0.0223494 4.06075e-18)
(1.00266 3.85986e-05 9.18527e-19)
(0.965169 0.0028728 5.51259e-17)
(0.962775 0.0414001 2.59468e-18)
(1.0112 0.00109898 4.9315e-19)
(1.09335 0.120139 8.24529e-18)
(0.941443 0.0693848 -1.81098e-17)
(0.99425 0.0175138 -1.98589e-19)
(1.001 0.00399571 1.63842e-18)
(0.591131 0.0990631 -4.61268e-16)
(1.00055 -0.000134438 -4.44516e-18)
(1.00154 0.00315765 2.55891e-18)
(1.04257 0.0443074 -2.53125e-17)
(0.999978 4.27714e-05 1.5149e-17)
(1.00113 0.00418429 7.14726e-19)
(1.00163 0.00285793 3.57799e-19)
(0.730637 0.221321 -6.76629e-17)
(0.658249 0.47263 3.12245e-17)
(0.998578 0.0119969 1.03956e-17)
(1.00154 -8.57806e-05 -4.42198e-18)
(0.933127 0.03432 1.22024e-17)
(0.999471 0.0431896 7.70307e-20)
(1.02864 0.0122497 -5.17714e-18)
(1.03207 0.017215 -1.81009e-18)
(1.03364 0.0122964 -1.16356e-18)
(1.00079 -5.82386e-05 -4.91863e-19)
(0.999997 3.7063e-05 -1.0268e-18)
(0.999737 0.037822 3.8277e-18)
(0.999983 1.3439e-05 -5.93907e-18)
(0.960897 0.0429849 1.88449e-17)
(1.02812 0.0120934 -1.29275e-18)
(1.02592 0.037234 5.56039e-18)
(0.996904 0.000708919 1.5724e-17)
(0.995388 0.0687346 1.02414e-18)
(1.04513 0.0442035 -1.54459e-17)
(0.998219 3.81835e-05 9.21286e-17)
(1.00152 0.0121969 -5.4687e-18)
(1.00611 0.00137645 5.10079e-19)
(0.929441 0.0461192 -2.78522e-18)
(1.04321 0.0443558 -2.54884e-17)
(0.999984 6.14354e-05 -2.2019e-17)
(0.999998 0.0397053 4.54987e-18)
(1.03482 0.00906151 -7.65923e-18)
(1.01634 -0.000619088 3.75204e-18)
(0.998893 0.0410287 -7.61998e-18)
(1.00325 0.000836116 5.69167e-18)
(0.929237 0.0952223 -5.57485e-18)
(1.02866 -0.0014578 -2.59067e-18)
(1.03882 0.00980373 1.86082e-18)
(1.02713 0.0344061 -5.10061e-18)
(1.00089 -0.000162813 -6.35126e-19)
(1.00105 0.0125419 7.61393e-21)
(1.05258 0.0647578 7.71301e-18)
(1.05372 0.0198533 -6.46194e-18)
(0.999999 1.4769e-05 2.04004e-18)
(1.01127 0.0168885 -3.69226e-18)
(0.984476 0.175231 1.56271e-17)
(1.04013 0.00210205 -1.90242e-18)
(0.517899 0.45542 -1.43228e-16)
(1 3.078e-05 -4.4295e-18)
(1.00234 0.00047658 -1.25066e-18)
(1.00061 4.44191e-05 -4.12736e-19)
(1.03275 0.0155655 7.51429e-18)
(0.994342 0.0193162 1.49371e-17)
(0.995505 0.0138129 1.16362e-17)
(1.00304 0.000510506 -3.78581e-18)
(0.9984 0.0377838 3.46781e-18)
(1.01738 0.0135224 -3.75108e-18)
(0.972915 0.00417891 -1.27544e-16)
(1.00985 0.00133245 -5.54182e-18)
(1.07894 0.0961874 8.383e-18)
(1.00032 -0.000104823 1.03704e-18)
(1.0826 0.111161 1.77281e-17)
(1.00142 -0.000161641 -4.27098e-18)
(0.618158 0.594949 6.43205e-18)
(1.02749 -0.00109402 -2.44473e-18)
(1.04987 0.0674318 1.5528e-17)
(0.999864 3.60483e-05 -3.16922e-17)
(0.997162 0.000770828 -1.98463e-17)
(1.02604 0.0293308 4.75218e-18)
(1.004 0.00224089 2.46682e-18)
(0.999124 0.000133083 -8.57728e-17)
(0.992316 0.000273045 1.94659e-16)
(0.994296 0.021221 2.83078e-18)
(0.994012 0.0205289 -2.9506e-18)
(0.964156 0.160647 1.61351e-17)
(1.03347 0.034347 6.23213e-18)
(1.03409 0.033954 4.19046e-18)
(1.00001 1.80292e-05 4.81084e-18)
(1.00437 0.00216279 -2.6387e-18)
(1.02834 0.0137682 1.88099e-18)
(1.05288 0.019454 -8.52402e-18)
(1.00001 2.76002e-06 -1.03839e-19)
(1.00027 0.000118185 -1.32528e-18)
(1.03455 0.010363 -6.81481e-18)
(1.00066 8.86052e-05 -5.7804e-19)
(0.788791 0.0434484 -1.11825e-16)
(1.15731 0.25479 1.97917e-17)
(1.03784 0.0197004 1.64473e-17)
(1.00001 9.39551e-06 -8.59628e-19)
(1.00682 0.00982198 2.89732e-18)
(1.04517 0.0147343 -6.08972e-18)
(0.995059 0.0149218 6.92149e-18)
(1.00446 0.000923815 1.02766e-18)
(0.365234 0.658655 1.13946e-16)
(1.00036 5.09119e-05 -4.35752e-18)
(0.930292 0.0780558 -1.21053e-17)
(0.957388 0.0482721 2.51298e-17)
(1.00712 0.0097099 6.09089e-19)
(1.00476 0.00132426 -3.30445e-18)
(0.999001 0.000129807 -8.67009e-17)
(1.01088 0.00159525 -2.48463e-18)
(1.04426 0.00499853 1.32281e-18)
(1.01732 0.00952821 -3.60391e-18)
(0.996684 0.0120111 1.28089e-17)
(0.999996 9.19214e-06 1.4165e-18)
(1 2.6429e-05 -4.01214e-18)
(0.994616 0.0178513 -2.14166e-17)
(0.996566 0.00156149 -6.30593e-17)
(0.992054 0.0618606 -9.10064e-18)
(1.03302 0.0145147 -2.79679e-18)
(0.999409 -1.56639e-05 -7.17385e-17)
(1.00032 0.000141927 5.3067e-20)
(1.02728 0.0312084 2.06944e-18)
(0.581945 0.000746371 -1.43912e-17)
(0.998015 0.000176667 -1.28107e-17)
(1.04708 0.0192696 -1.67328e-19)
(1.00017 5.69661e-05 8.62227e-19)
(0.996154 0.0119875 1.44123e-17)
(0.948934 0.0828811 1.78449e-17)
(1.04284 0.00214523 -3.9706e-18)
(1.04377 0.0143402 -7.37272e-18)
(0.950391 0.0558361 -2.93979e-17)
(1.00247 0.0194511 3.9055e-19)
(1.04354 0.00693282 5.01171e-18)
(1.00001 3.05309e-05 -1.13697e-19)
(0.999934 1.64058e-05 8.08504e-17)
(1.04374 0.00223097 -1.53818e-18)
(1.01086 0.0103371 7.90026e-19)
(1.00297 0.0198254 -3.46406e-18)
(1.01107 0.0103742 3.76431e-18)
(0.999997 4.95444e-05 -1.54852e-18)
(1.00029 0.000197196 -3.77854e-19)
(1.00373 0.000699346 -4.6145e-18)
(0.998841 0.0313629 2.44543e-18)
(1.04371 0.00895297 2.27809e-18)
(0.945821 0.0403737 1.74442e-20)
(0.990204 0.000950498 1.20122e-16)
(0.93154 0.0371699 -5.94482e-17)
(1.03141 0.0157262 -7.14677e-18)
(1.00855 0.0181372 2.6384e-18)
(0.936378 0.0458323 -6.57446e-17)
(0.985765 0.0217533 -2.37798e-17)
(1.05485 0.0066528 5.64684e-18)
(1.03362 0.0136445 -6.90336e-18)
(0.984495 0.0212124 -5.88017e-18)
(0.992896 0.0594375 -5.4434e-18)
(0.999882 7.89975e-05 -3.48292e-17)
(1.00949 0.0674048 -4.18723e-18)
(1.02686 0.0286423 -1.25379e-18)
(1.00002 -1.92791e-05 -3.83555e-19)
(0.999988 2.48125e-06 2.07152e-17)
(1.00071 0.000161715 5.37716e-18)
(0.999752 0.000308471 1.3664e-17)
(1.06315 0.0755107 6.15641e-18)
(1.01069 0.0175826 -4.89514e-19)
(1.01381 0.000116009 2.25006e-18)
(0.941189 0.0425799 -9.20029e-17)
(0.992032 0.000341494 -1.60759e-16)
(0.7999 0.0196936 1.87798e-16)
(1.04055 0.00253418 -2.54061e-18)
(1.04376 0.00450608 1.33793e-19)
(1.00385 0.000800279 3.88254e-18)
(1.04973 0.0444392 -1.53201e-17)
(1.00001 3.16404e-05 -1.17505e-17)
(0.997972 0.0308012 8.10382e-18)
(1.00054 0.00380436 -4.77303e-18)
(0.934368 0.112725 1.65375e-17)
(0.933899 0.0474232 -2.1104e-17)
(1.002 0.016953 -6.4606e-18)
(1.01743 0.0125383 -6.73468e-18)
(0.42878 0.658441 8.21968e-17)
(1.03151 0.0139806 -5.2777e-18)
(1.04118 0.0659509 5.16512e-18)
(1.0098 0.0130601 2.10086e-18)
(0.97523 0.149451 3.85718e-18)
(1.14567 0.213728 1.70336e-17)
(1.00107 3.76432e-05 -1.0483e-18)
(0.998311 0.00352049 -5.75887e-18)
(1 1.76957e-05 2.10763e-18)
(1.05684 0.0700924 3.02276e-18)
(0.998392 0.00337967 -3.7817e-18)
(1.01671 0.0100811 1.28737e-18)
(1.09624 0.118222 1.32348e-17)
(1.00025 0.000269263 1.67797e-19)
(0.972733 0.00284129 -2.15551e-16)
(0.990088 0.0528529 2.60984e-18)
(1.00693 0.0161367 5.53857e-18)
(0.997721 0.000265778 -7.8849e-18)
(1.00181 0.0175587 -7.37382e-18)
(0.999376 0.000734574 -7.26525e-19)
(0.99504 0.0161262 4.8104e-18)
(0.999376 0.000606236 -8.79764e-18)
(0.999393 0.000813048 1.3812e-17)
(0.995519 0.0137143 6.86633e-18)
(1.04004 0.00773362 1.86644e-18)
(1.036 0.00998013 1.96043e-18)
(1.00698 0.0172176 1.04325e-18)
(0.652489 0.0456329 -1.08977e-16)
(1.0418 0.00199508 -2.92744e-19)
(0.305713 0.287516 -2.86388e-16)
(1.0303 0.0161137 -2.15882e-18)
(1.02342 0.00021884 -8.89291e-18)
(0.995254 0.0151491 8.67077e-18)
(1.02899 0.0164307 -9.69328e-18)
(0.9917 0.0270985 -9.05536e-18)
(1.03645 -0.000614235 -4.31002e-18)
(0.538576 0.383754 -1.16538e-16)
(0.950608 0.0355484 -1.80371e-17)
(0.992527 0.0255095 4.68346e-18)
(1.00435 0.0236739 -1.86646e-17)
(0.994958 0.00105282 3.54138e-17)
(0.996523 0.00104122 -9.16585e-18)
(1.02625 0.0315955 7.37219e-20)
(0.999998 2.35586e-05 8.10687e-19)
(1.07031 -0.0148854 6.61007e-18)
(0.999526 1.89367e-05 -3.14992e-17)
(0.946689 0.0391936 -1.01221e-17)
(0.997706 0.0757482 -2.52463e-17)
(1.06115 0.0678099 8.66075e-18)
(1.03959 0.0286022 -3.87911e-18)
(1.03584 0.0164997 7.05871e-18)
(0.991713 0.0514452 6.71362e-18)
(1.00918 0.0135699 -8.1341e-19)
(1.0394 0.0285421 -2.42313e-18)
(0.971495 0.0305482 -1.91048e-17)
(1.04102 0.0664435 1.21065e-17)
(1.00763 0.0229745 -7.6919e-18)
(1.04497 0.0433151 -2.03622e-17)
(1.00509 0.0241108 -2.3355e-17)
(1.00001 1.82034e-05 -2.77346e-19)
(0.998202 0.0267626 -2.4049e-18)
(0.643498 0.0579383 1.20861e-17)
(0.970407 0.135323 2.87856e-17)
(1.00657 0.0057924 -5.91535e-18)
(1.00005 -3.75794e-05 1.1099e-18)
(0.999289 0.000175198 2.73487e-17)
(0.994458 0.00802084 2.42531e-18)
(0.968006 0.00309538 -1.19233e-16)
(1.03641 0.00812832 3.29031e-18)
(1.02909 0.00326881 1.36048e-18)
(1.00063 -5.40405e-05 2.5598e-18)
(1.00497 0.00716704 -1.75442e-18)
(0.992909 0.0279316 5.98074e-19)
(1.00663 0.00568609 3.94768e-18)
(1.00977 0.00171381 -3.69776e-18)
(1.0458 0.0385375 -6.94155e-18)
(0.993627 0.00158811 3.52435e-20)
(0.99086 0.036025 1.14712e-17)
(1.03776 0.0171167 -1.99952e-18)
(1.00525 0.00678787 -2.13342e-18)
(1.00802 0.00711604 3.73143e-19)
(0.940633 0.0634028 -1.01261e-17)
(0.999997 -2.43621e-05 -7.50611e-19)
(0.993262 0.00592914 -1.93108e-18)
(1.29337 0.1865 -7.42681e-18)
(0.999862 3.01212e-05 -2.26055e-16)
(1.04044 0.0416984 -4.42971e-18)
(0.995138 0.0756561 -3.77698e-18)
(1.00778 0.00704867 1.26106e-18)
(0.958849 0.0455044 -8.89633e-18)
(1.03722 0.0169973 -3.31292e-18)
(0.997425 0.0267693 -3.53571e-19)
(1.02913 0.0361733 -2.16166e-18)
(0.999672 0.00331056 6.16831e-18)
(0.939569 0.0378619 9.28827e-18)
(1.00559 -0.000311026 -2.50577e-19)
(1.03623 0.00154169 -2.86724e-18)
(1.03633 0.0170282 1.06204e-17)
(0.936821 0.0417866 -6.37421e-17)
(0.999799 0.00340288 6.71286e-19)
(1.04398 0.00662072 2.6986e-18)
(1.05464 0.027157 1.94893e-18)
(0.991698 0.0352776 -3.15826e-19)
(1.00602 0.0140318 -9.00569e-18)
(1.0046 0.0032781 6.67623e-18)
(1.01075 0.0656175 7.43132e-18)
(0.780182 0.204152 -1.1003e-16)
(0.995607 0.000945699 3.8328e-17)
(0.999964 3.82039e-05 4.50322e-17)
(0.993815 0.0258355 -6.24871e-18)
(0.999989 -1.98124e-05 2.50561e-18)
(1.14524 0.210565 3.21756e-17)
(1.00625 0.023415 -1.39423e-17)
(1.03549 0.0922052 3.21011e-18)
(1.01639 0.0079293 1.46525e-18)
(1.02937 0.00178348 -2.41183e-18)
(0.253 0.14451 -8.80759e-16)
(1.00648 0.0165048 4.74983e-18)
(1.08175 0.206945 1.33733e-17)
(1.03584 0.00832966 -2.36454e-18)
(0.945167 0.0172198 2.18882e-17)
(1.02882 0.013685 1.84245e-18)
(0.996886 0.0122777 2.25814e-17)
(1.00645 0.0147214 1.3947e-17)
(1.01629 -0.000901262 4.88666e-18)
(1.09099 0.102125 -1.99488e-19)
(1.07948 0.098346 5.98357e-18)
(1.00122 -0.000371179 -4.89779e-18)
(1.00152 0.000309302 1.75877e-18)
(0.923435 0.0463489 -1.21903e-16)
(1.00217 0.000121809 -5.51062e-18)
(0.685351 0.394809 -2.27111e-17)
(1.02789 0.0337469 -6.82573e-18)
(0.96511 0.170501 -2.58629e-18)
(1.00437 0.0031339 -4.32638e-18)
(0.0837708 0.301798 -4.67451e-16)
(1.12147 0.232781 -4.09168e-18)
(1.0058 0.0232464 -1.53274e-17)
(0.999993 8.90783e-06 2.14141e-18)
(0.999923 0.00295399 2.59437e-18)
(0.954476 0.0315734 -2.38605e-18)
(0.994199 0.0081448 -7.10583e-18)
(0.988885 0.000226164 2.39655e-17)
(0.996752 0.00995384 9.72653e-18)
(1.03201 0.0129638 1.77432e-18)
(0.970759 0.0313004 1.30363e-17)
(1.08172 -0.0101293 -1.08734e-18)
(0.605247 0.0373817 -1.33746e-16)
(1.00059 -3.46787e-05 -3.34646e-18)
(0.965684 0.0372531 -1.07397e-17)
(1.03357 0.0315883 -1.4558e-18)
(0.928232 0.0586653 -7.31539e-17)
(1.00463 0.0133985 1.25255e-18)
(0.93104 0.0771241 -3.86304e-18)
(1.03876 0.0103494 -3.1167e-18)
(0.95237 0.0351465 1.08952e-17)
(0.997445 0.000631454 -1.00363e-16)
(1.00007 2.10502e-05 1.33513e-18)
(1.0379 0.0264048 5.84049e-18)
(1.04084 0.0281773 -1.95484e-18)
(1.02844 -0.000200554 -4.09202e-18)
(0.922949 0.0386322 2.58506e-18)
(1.03292 0.0912304 8.79007e-18)
(1.02318 0.000794808 -6.5189e-18)
(0.997143 0.0252414 -7.17068e-18)
(1.00049 0.00417826 3.18266e-18)
(1.00991 0.0091069 -9.06665e-18)
(0.784444 0.0275946 2.16842e-16)
(1.00964 0.0091576 -7.34963e-18)
(1.03538 0.0235019 -8.52459e-18)
(0.981717 0.042006 -1.94321e-17)
(1.02759 0.0104858 -7.95705e-19)
(1.01176 0.000753823 -3.14806e-18)
(0.996306 0.0116784 1.26327e-17)
(1.05368 0.0257134 4.15607e-19)
(1.0154 0.00776677 -1.31214e-18)
(1.0051 0.0135653 1.12727e-17)
(1.06657 -0.0221014 -2.902e-17)
(0.990458 0.030475 2.27395e-17)
(1.02032 0.00258767 -5.62541e-18)
(0.788947 0.337425 -5.8075e-17)
(1 7.07331e-06 -5.92169e-21)
(1.01586 0.00838945 -3.3093e-18)
(0.998357 0.0217779 1.29475e-17)
(0.992221 0.0071535 -2.19002e-17)
(1.00332 3.85218e-05 9.00279e-19)
(0.99778 0.0248795 -1.71097e-18)
(1.00001 -8.0591e-06 -1.93498e-18)
(1.04164 0.111743 -3.31471e-18)
(1.00614 0.000963409 -5.78259e-18)
(0.969699 0.00529535 -1.56732e-16)
(1.0355 0.0366263 7.02751e-18)
(0.951735 0.0504861 -1.53998e-17)
(1.01722 0.0100532 1.12538e-18)
(1.01664 0.00873139 -1.89919e-18)
(1.03746 0.0269071 1.0269e-17)
(1.02176 0.119992 7.85024e-18)
(0.99987 7.05983e-05 3.32484e-17)
(0.993 0.000504844 -8.39281e-17)
(1.02304 0.000284154 -2.16209e-18)
(1.0973 0.203062 2.10558e-17)
(1.04072 0.0279061 -4.66709e-18)
(0.999888 0.00311725 6.25489e-18)
(0.240503 0.0925773 -1.01347e-15)
(1.00004 3.18497e-05 1.20839e-20)
(1.00497 0.0017122 3.7737e-18)
(0.648683 0.00651088 1.86049e-17)
(0.994464 0.00546157 2.0631e-17)
(0.999559 0.00348457 -3.73149e-18)
(0.999494 0.00376218 -1.64597e-18)
(0.982645 0.0389715 -3.89253e-18)
(0.958878 0.0288251 4.20456e-17)
(0.999862 4.02209e-05 -1.97522e-17)
(0.993504 0.00655439 3.12108e-17)
(0.936342 0.0677119 -1.83356e-17)
(0.997959 0.0215406 -1.62598e-18)
(0.995587 0.0179276 -3.79513e-18)
(0.996502 0.0096918 -1.08009e-17)
(1.00115 0.000101617 -2.00125e-18)
(0.956882 0.0311944 -9.53057e-19)
(1.0648 0.0638645 -3.28974e-19)
(0.994615 0.0160939 1.14359e-17)
(0.923863 0.0320734 3.11682e-17)
(1.03601 0.00729639 -4.72504e-18)
(1.03936 0.0048015 -4.1809e-18)
(1.03764 0.109399 -1.11321e-17)
(1.03252 0.0325451 2.42896e-18)
(0.996452 0.00986087 3.54976e-18)
(1.0051 0.00187476 -2.29816e-18)
(1.08259 0.11138 1.5683e-17)
(1.04098 0.00697067 3.20097e-18)
(0.975993 0.0258775 -1.73017e-19)
(1.00076 0.00427409 -2.48384e-18)
(0.99972 0.000232189 1.87991e-18)
(0.930078 0.0125178 1.33492e-16)
(1.0493 0.0446168 -8.65235e-18)
(1.01476 0.00732725 -1.29093e-19)
(1.01019 0.0510361 2.01934e-18)
(1.01491 0.00794626 -9.14126e-19)
(0.996913 0.0103383 2.21223e-17)
(1.00566 0.00469555 -1.11663e-18)
(0.963618 0.0363931 7.91175e-18)
(0.790237 0.0255672 -4.16564e-17)
(0.308458 0.431548 2.12401e-17)
(0.964759 0.0387515 -3.51315e-18)
(0.998714 0.0187342 -1.37151e-18)
(1.00554 0.00470997 -3.53256e-18)
(0.967638 0.0346271 -7.67317e-18)
(0.578457 0.308769 -7.64049e-17)
(0.939781 0.0328439 1.66157e-17)
(0.999863 0.00312404 -3.47395e-18)
(1.0477 0.0378595 -1.09615e-17)