/*--------------------------------*- C++ -*----------------------------------*\
  =========                 |
  \\      /  F ield         | OpenFOAM: The Open Source CFD Toolbox
   \\    /   O peration     | Website:  https://openfoam.org
    \\  /    A nd           | Version:  7
     \\/     M anipulation  |
\*---------------------------------------------------------------------------*/
FoamFile
{
    version     2.0;
    format      ascii;
    class       volScalarField;
    location    "17.5";
    object      p;
}
// * * * * * * * * * * * * * * * * * * * * * * * * * * * * * * * * * * * * * //

dimensions      [1 -1 -2 0 0 0 0];

internalField   nonuniform List<scalar> 
2413
(
1.08076
1.07614
1.07192
1.06772
1.06347
1.0585
1.05372
1.05019
1.04571
1.0405
1.03686
1.03271
1.02784
1.02345
1.01862
1.01461
1.01089
1.00609
1.00225
0.998951
0.995246
0.991409
0.987251
0.983531
0.97992
0.977284
0.977375
0.979572
0.9873
1.00821
1.04675
1.08744
1.11187
1.11841
1.11927
1.12005
1.12117
1.12152
1.12176
1.12321
1.12542
1.12729
1.13001
1.13193
1.13338
1.13594
1.13864
1.14119
1.14421
1.14859
1.15353
1.15911
1.16517
1.17145
1.17716
1.18251
1.18636
1.1896
1.18993
1.18934
1.18929
1.18903
1.18933
1.19101
1.19495
1.20146
1.21257
1.22994
1.24737
1.26086
1.26183
1.25964
1.25479
1.24788
1.23903
1.23049
1.2233
1.2164
1.20998
1.34059
1.34356
1.34122
1.33572
1.32898
1.32003
1.31254
1.30668
1.29983
1.29376
1.28979
1.28456
1.2797
1.2756
1.27033
1.2646
1.25989
1.25451
1.24858
1.24413
1.23878
1.23267
1.2283
1.22351
1.21839
1.21429
1.20969
1.20413
1.19933
1.19408
1.18846
1.18434
1.17973
1.17544
1.17168
1.16668
1.16215
1.15792
1.15206
1.14802
1.1444
1.13949
1.13605
1.13237
1.12794
1.12384
1.11982
1.11595
1.11171
1.10742
1.10405
1.09967
1.09509
1.09163
1.08752
1.08326
1.07914
1.07521
1.07091
1.06574
1.06164
1.05776
1.05247
1.04815
1.04443
1.04001
1.03564
1.031
1.0268
1.02317
1.01837
1.01401
1.01078
1.00698
1.00303
0.999132
0.995298
0.991522
0.988179
0.987059
0.988073
0.992762
1.00812
1.04285
1.08558
1.11782
1.12859
1.12976
1.1298
1.13071
1.1322
1.13232
1.13338
1.13571
1.13667
1.13893
1.14138
1.14156
1.14342
1.14482
1.14426
1.14555
1.14614
1.14654
1.1478
1.14949
1.15112
1.15284
1.15499
1.15693
1.15878
1.16013
1.16096
1.16262
1.1657
1.16995
1.17555
1.18364
1.19505
1.21203
1.23022
1.24568
1.24931
1.24832
1.24508
1.23951
1.23214
1.22367
1.21659
1.21098
1.20556
1.20017
1.3156
1.34076
1.35319
1.35135
1.34841
1.34175
1.33311
1.32518
1.31584
1.309
1.30479
1.30007
1.29488
1.29039
1.28466
1.27818
1.27333
1.26816
1.26252
1.25856
1.25425
1.24832
1.24333
1.23775
1.23112
1.22681
1.222
1.21701
1.21275
1.2077
1.20254
1.19816
1.19301
1.1882
1.18411
1.17871
1.17383
1.16983
1.16446
1.16003
1.15668
1.15195
1.14749
1.14399
1.13937
1.13431
1.13057
1.12679
1.12226
1.11808
1.11491
1.11111
1.10619
1.10244
1.09851
1.09363
1.08887
1.08509
1.08134
1.07661
1.07221
1.06885
1.06439
1.05924
1.05529
1.05145
1.04721
1.04257
1.0385
1.03526
1.03121
1.02627
1.02283
1.01931
1.01535
1.01175
1.00828
1.0047
1.00128
0.999334
0.999694
1.00273
1.01325
1.04187
1.08537
1.12341
1.14107
1.14463
1.14485
1.14531
1.14775
1.14819
1.14874
1.15167
1.15198
1.15279
1.15496
1.15423
1.15431
1.15484
1.15305
1.15232
1.15161
1.15021
1.14895
1.14795
1.14647
1.1447
1.1428
1.1411
1.13848
1.13602
1.13654
1.13839
1.14177
1.14676
1.15432
1.16521
1.18158
1.20216
1.21967
1.2287
1.23007
1.22924
1.22543
1.21919
1.21124
1.20302
1.19786
1.19382
1.1898
1.18563
1.26003
1.3172
1.34028
1.35736
1.3625
1.36024
1.35397
1.34608
1.33738
1.32845
1.32225
1.31586
1.30994
1.30527
1.30011
1.29454
1.28985
1.28483
1.27814
1.27279
1.26764
1.26101
1.25684
1.25257
1.24679
1.24241
1.2375
1.23119
1.22653
1.22078
1.21526
1.21149
1.20643
1.20163
1.19755
1.19201
1.18663
1.18245
1.17716
1.17198
1.16862
1.16405
1.15889
1.15542
1.1513
1.14597
1.14201
1.13831
1.13352
1.12865
1.12507
1.12107
1.11582
1.11218
1.10881
1.10432
1.09924
1.09519
1.09123
1.08645
1.08169
1.07852
1.07491
1.06997
1.06556
1.06206
1.05814
1.05346
1.04919
1.04625
1.0429
1.0382
1.03457
1.03161
1.02799
1.02428
1.02105
1.01768
1.01429
1.01211
1.01202
1.0141
1.02178
1.0431
1.08483
1.12772
1.15352
1.16216
1.16362
1.16488
1.16838
1.1693
1.16891
1.17124
1.17156
1.17061
1.1717
1.17055
1.16797
1.16693
1.16441
1.16068
1.15749
1.15412
1.15056
1.14721
1.14417
1.14126
1.13804
1.13462
1.12976
1.12666
1.1266
1.12725
1.12933
1.13347
1.14096
1.15333
1.17082
1.18974
1.20219
1.20701
1.20736
1.20484
1.19959
1.1932
1.18547
1.17916
1.17621
1.17324
1.16997
1.16633
1.17155
1.24123
1.29787
1.33928
1.36145
1.37297
1.37191
1.3681
1.36154
1.35225
1.34488
1.33774
1.33004
1.32354
1.31627
1.3081
1.30379
1.29964
1.29447
1.2901
1.28547
1.2784
1.27229
1.2672
1.26024
1.25578
1.25158
1.24554
1.24122
1.23634
1.23019
1.22594
1.22075
1.21461
1.21033
1.20474
1.19907
1.19525
1.19036
1.18514
1.18144
1.17702
1.17113
1.16688
1.16263
1.15686
1.15279
1.14944
1.14471
1.13984
1.13609
1.13194
1.1263
1.12182
1.1182
1.11364
1.10849
1.10484
1.10121
1.09651
1.09136
1.08789
1.08437
1.0798
1.07524
1.07203
1.06862
1.06408
1.05946
1.05639
1.05336
1.04939
1.0454
1.0428
1.03998
1.03648
1.03343
1.03029
1.02658
1.0245
1.02416
1.02553
1.03149
1.04739
1.08313
1.13016
1.16383
1.18061
1.18543
1.1878
1.19152
1.1929
1.19179
1.19286
1.19312
1.19055
1.18982
1.18839
1.18414
1.17952
1.17526
1.17022
1.16485
1.15946
1.15425
1.14937
1.14492
1.14062
1.13654
1.13198
1.1259
1.12392
1.12424
1.12539
1.12822
1.13366
1.1434
1.15732
1.17468
1.18871
1.1918
1.19174
1.18903
1.18314
1.17636
1.16941
1.16189
1.15707
1.15454
1.15148
1.14837
1.14482
1.10184
1.14953
1.21125
1.28152
1.33305
1.35623
1.37189
1.38175
1.37996
1.37644
1.37031
1.36197
1.35242
1.34483
1.3376
1.32937
1.32331
1.31816
1.31
1.30381
1.29916
1.29277
1.28803
1.28371
1.27757
1.27237
1.26758
1.26032
1.25493
1.25031
1.24389
1.23967
1.23515
1.22882
1.22417
1.21899
1.21258
1.20835
1.20359
1.19752
1.19347
1.18909
1.18312
1.17882
1.17488
1.16926
1.16436
1.16064
1.15563
1.15006
1.14634
1.1423
1.13661
1.13207
1.12831
1.12375
1.1181
1.11414
1.11061
1.10603
1.10103
1.09756
1.09408
1.08945
1.08453
1.0813
1.07819
1.07409
1.06968
1.06654
1.06341
1.05993
1.05615
1.05319
1.05106
1.04819
1.04503
1.04235
1.03846
1.03654
1.03628
1.03719
1.04172
1.05405
1.08223
1.12913
1.17172
1.19918
1.20976
1.21219
1.21469
1.21589
1.21416
1.21349
1.21312
1.21034
1.20711
1.20397
1.19931
1.19346
1.18706
1.18048
1.17391
1.1675
1.16151
1.15571
1.14999
1.14435
1.13871
1.13239
1.1266
1.12543
1.12615
1.12756
1.13082
1.13873
1.15178
1.1678
1.18297
1.18733
1.18721
1.18449
1.17799
1.16992
1.16185
1.15443
1.14729
1.14281
1.13943
1.13549
1.13177
1.12754
1.06209
1.08204
1.11848
1.18076
1.24722
1.3057
1.35285
1.37522
1.38721
1.39751
1.39636
1.39024
1.38119
1.37066
1.36082
1.351
1.3439
1.33899
1.3314
1.32367
1.31765
1.30963
1.30335
1.29872
1.29173
1.2865
1.28221
1.27577
1.27055
1.26606
1.2594
1.25393
1.24915
1.24214
1.23694
1.23242
1.22607
1.22152
1.21727
1.21102
1.20607
1.20169
1.19529
1.19008
1.18626
1.18079
1.17562
1.17198
1.16734
1.16115
1.15683
1.15277
1.14697
1.14187
1.13827
1.13374
1.12794
1.12389
1.12039
1.11592
1.11053
1.10697
1.10362
1.09921
1.09435
1.09094
1.08782
1.08378
1.07924
1.07638
1.07332
1.07005
1.06731
1.06387
1.06149
1.05944
1.05641
1.05399
1.05043
1.04866
1.04892
1.04966
1.05282
1.06226
1.08415
1.1262
1.17522
1.21519
1.23374
1.23513
1.23524
1.23566
1.23396
1.23142
1.22936
1.22626
1.22215
1.21738
1.21171
1.20532
1.19857
1.19163
1.18452
1.17757
1.17095
1.16447
1.15805
1.15141
1.14392
1.13662
1.13195
1.13204
1.13333
1.13441
1.13864
1.14911
1.16394
1.18066
1.1867
1.18717
1.18588
1.18062
1.17205
1.16296
1.15458
1.14748
1.14091
1.13627
1.13205
1.12742
1.12315
1.11851
1.03483
1.04085
1.05393
1.085
1.13568
1.2035
1.27642
1.32279
1.36076
1.38794
1.40034
1.40669
1.40626
1.40208
1.39423
1.38518
1.37406
1.36348
1.35292
1.3423
1.33638
1.32944
1.32274
1.31736
1.3097
1.30287
1.2977
1.29026
1.2842
1.27987
1.27342
1.26789
1.26342
1.25677
1.25089
1.24638
1.23997
1.23407
1.22974
1.22353
1.21769
1.21375
1.20823
1.20233
1.1983
1.19324
1.18666
1.18226
1.17789
1.17185
1.16711
1.1634
1.15809
1.15216
1.14827
1.1441
1.13823
1.13352
1.13013
1.12589
1.12052
1.11667
1.11344
1.10913
1.10395
1.10056
1.09754
1.09379
1.08934
1.08655
1.08381
1.07995
1.0776
1.07503
1.07213
1.07059
1.06828
1.0658
1.06317
1.06146
1.0619
1.06321
1.06555
1.07237
1.08885
1.12358
1.17476
1.22604
1.25227
1.25389
1.25273
1.25147
1.24951
1.24606
1.242
1.23754
1.23269
1.22745
1.22165
1.21529
1.20851
1.20149
1.19447
1.18763
1.18089
1.17429
1.16748
1.15971
1.15177
1.14507
1.14173
1.14224
1.14333
1.14477
1.15221
1.16542
1.18218
1.19117
1.1916
1.19029
1.18631
1.17848
1.16884
1.15935
1.15113
1.14456
1.13857
1.134
1.12931
1.12426
1.11941
1.11423
1.01013
1.01194
1.01533
1.0247
1.04436
1.08102
1.14296
1.2116
1.29046
1.34054
1.36624
1.38728
1.39966
1.40926
1.4111
1.4099
1.40511
1.39516
1.38439
1.37259
1.36246
1.35323
1.34292
1.33565
1.3276
1.31977
1.31454
1.30733
1.30036
1.29516
1.28809
1.28109
1.27639
1.27
1.2637
1.25946
1.25371
1.24715
1.24251
1.23684
1.22959
1.2249
1.22003
1.21352
1.20912
1.20501
1.19885
1.19331
1.18897
1.18318
1.17676
1.17283
1.1686
1.16284
1.15833
1.15459
1.1492
1.14364
1.13985
1.13595
1.13084
1.12635
1.12323
1.1195
1.11435
1.11055
1.10764
1.10386
1.09929
1.09672
1.09448
1.09104
1.08845
1.08659
1.08335
1.08133
1.08061
1.07872
1.07691
1.07557
1.07563
1.07764
1.07936
1.08382
1.09573
1.12239
1.17066
1.22871
1.26443
1.26792
1.26693
1.26409
1.26041
1.25597
1.25112
1.24601
1.2406
1.23485
1.22878
1.22249
1.216
1.20945
1.20304
1.19662
1.19001
1.18319
1.17564
1.16716
1.15936
1.15511
1.15446
1.15506
1.155
1.15889
1.16979
1.18593
1.1986
1.20059
1.1996
1.19566
1.18832
1.17826
1.16799
1.15833
1.15007
1.14396
1.13856
1.1338
1.12867
1.12338
1.11808
1.11247
0.986466
0.98737
0.98817
0.989591
0.99307
1.00222
1.02693
1.06703
1.13271
1.20516
1.27443
1.34547
1.37255
1.38805
1.39925
1.4039
1.40639
1.40584
1.40274
1.39751
1.39078
1.38118
1.36966
1.35977
1.35079
1.3406
1.33284
1.32474
1.31564
1.30964
1.30293
1.29557
1.29027
1.28409
1.27663
1.27141
1.26569
1.25837
1.25351
1.24891
1.24229
1.23678
1.23219
1.2257
1.21914
1.21485
1.20963
1.20344
1.19916
1.19472
1.18851
1.18281
1.17865
1.17338
1.16759
1.16407
1.16015
1.15471
1.15013
1.14617
1.14137
1.13641
1.13277
1.12962
1.12521
1.1208
1.11806
1.1148
1.11007
1.10709
1.10522
1.10227
1.09943
1.09828
1.09622
1.09349
1.09337
1.09289
1.09182
1.09086
1.09018
1.09197
1.09324
1.09564
1.10348
1.12287
1.16342
1.2238
1.26946
1.27681
1.27615
1.27324
1.26829
1.26259
1.25688
1.25131
1.24579
1.24022
1.2345
1.22842
1.22203
1.21557
1.20907
1.20266
1.19649
1.18981
1.1819
1.17465
1.16869
1.16571
1.16594
1.16627
1.16784
1.1764
1.19127
1.20655
1.21044
1.21016
1.20745
1.20097
1.19133
1.1801
1.16973
1.16017
1.15196
1.14585
1.14043
1.13514
1.12955
1.12398
1.1183
1.11231
0.973461
0.972541
0.971321
0.970641
0.969233
0.96921
0.971974
0.980674
1.0021
1.0445
1.10372
1.18588
1.25378
1.31881
1.37388
1.38838
1.39463
1.39865
1.39785
1.39765
1.39502
1.39026
1.38439
1.37859
1.37209
1.3625
1.35292
1.34444
1.33496
1.32655
1.31872
1.30946
1.30244
1.29646
1.28937
1.28345
1.278
1.27071
1.26396
1.25891
1.25262
1.2466
1.24263
1.2376
1.23083
1.22536
1.22031
1.21364
1.20769
1.20396
1.19939
1.19346
1.18883
1.18458
1.17871
1.17293
1.16949
1.1651
1.16014
1.15643
1.15243
1.14761
1.14283
1.13929
1.13566
1.13121
1.12827
1.12585
1.12186
1.11841
1.11652
1.11389
1.11135
1.11061
1.1096
1.10741
1.10673
1.10776
1.10734
1.10619
1.10492
1.10581
1.10651
1.10697
1.111
1.12403
1.15472
1.21034
1.26782
1.28074
1.2806
1.27821
1.27327
1.26699
1.26067
1.25472
1.24901
1.2435
1.23792
1.23203
1.22609
1.22022
1.21411
1.20799
1.20175
1.19429
1.18592
1.17894
1.17632
1.17641
1.17712
1.17724
1.18243
1.19491
1.21275
1.22081
1.22125
1.2197
1.21457
1.20568
1.19456
1.18308
1.17288
1.16383
1.156
1.1497
1.14393
1.13802
1.13165
1.12542
1.1193
1.11313
0.970599
0.969116
0.967034
0.964558
0.962836
0.960722
0.958468
0.957193
0.95855
0.965145
0.981108
1.01834
1.07493
1.1503
1.23087
1.28966
1.34479
1.38305
1.39254
1.39208
1.38988
1.38577
1.38406
1.38042
1.37336
1.36803
1.3627
1.35694
1.35042
1.34248
1.33423
1.32548
1.31677
1.30904
1.30062
1.29277
1.28741
1.28169
1.27507
1.26953
1.2637
1.25628
1.25063
1.24621
1.24051
1.23512
1.23065
1.2251
1.21811
1.21279
1.20848
1.2031
1.19793
1.19435
1.19005
1.18389
1.17906
1.17529
1.17002
1.16533
1.16215
1.15834
1.15392
1.14996
1.14657
1.14225
1.13794
1.13594
1.13341
1.13067
1.1287
1.12614
1.12445
1.12401
1.12383
1.12243
1.12079
1.12167
1.12176
1.1205
1.11925
1.11873
1.11805
1.11692
1.11819
1.12504
1.14642
1.18974
1.2508
1.28009
1.28214
1.28099
1.27718
1.27108
1.26428
1.25773
1.25177
1.2463
1.24072
1.23489
1.22906
1.22307
1.21695
1.21094
1.2044
1.19664
1.18972
1.18519
1.18285
1.18358
1.18481
1.18792
1.19804
1.21597
1.22908
1.23042
1.22978
1.22671
1.21974
1.20946
1.19785
1.18671
1.17685
1.16814
1.1605
1.15411
1.14835
1.14245
1.13594
1.1293
1.12267
1.11595
0.970727
0.968858
0.966984
0.964132
0.961793
0.960025
0.957452
0.954949
0.953643
0.951567
0.951504
0.955411
0.968141
0.995243
1.04716
1.11264
1.19657
1.26531
1.31516
1.35582
1.37866
1.38446
1.38309
1.37652
1.36876
1.36574
1.36315
1.35718
1.35132
1.3466
1.34133
1.33572
1.3293
1.3214
1.31319
1.30464
1.29649
1.28946
1.28268
1.2775
1.27305
1.267
1.26031
1.25494
1.2491
1.24247
1.23818
1.23419
1.22855
1.22288
1.2183
1.21318
1.20691
1.20231
1.19896
1.19435
1.18893
1.18513
1.18096
1.17533
1.17106
1.16762
1.16386
1.15995
1.15675
1.15377
1.15004
1.14646
1.14447
1.14321
1.14134
1.13861
1.13858
1.13817
1.13738
1.13728
1.13525
1.13454
1.13494
1.13323
1.13113
1.1296
1.12729
1.12476
1.12367
1.12589
1.1382
1.17011
1.22469
1.27355
1.28177
1.28147
1.27923
1.27425
1.26756
1.26061
1.25434
1.24855
1.24272
1.23701
1.23137
1.22545
1.21966
1.21366
1.20632
1.19849
1.19219
1.19009
1.19023
1.19111
1.19244
1.19908
1.21382
1.23313
1.23908
1.23892
1.23713
1.23216
1.22341
1.21204
1.20027
1.18977
1.18079
1.17297
1.16584
1.15927
1.15309
1.14687
1.14035
1.13404
1.12783
1.12138
0.971837
0.969521
0.967804
0.965071
0.962298
0.96052
0.958276
0.95533
0.953464
0.95166
0.94963
0.947875
0.948168
0.950377
0.959215
0.979123
1.01995
1.08304
1.15494
1.23407
1.28683
1.3263
1.35438
1.36621
1.3687
1.36806
1.36204
1.35257
1.34782
1.34515
1.3407
1.33568
1.33133
1.32664
1.32139
1.31506
1.30721
1.29954
1.29225
1.28442
1.2788
1.27409
1.26864
1.26349
1.25838
1.25187
1.2454
1.24108
1.23634
1.23103
1.227
1.22286
1.21738
1.21152
1.20719
1.20303
1.19766
1.19338
1.19025
1.18605
1.1812
1.17683
1.1733
1.17012
1.16644
1.16361
1.16148
1.15846
1.15598
1.15571
1.15501
1.1523
1.15206
1.15204
1.15
1.14996
1.14925
1.14629
1.14534
1.14402
1.14066
1.13756
1.13381
1.12957
1.12702
1.12671
1.1321
1.15252
1.19557
1.25449
1.27896
1.28062
1.27964
1.27645
1.27071
1.26381
1.25723
1.25102
1.24509
1.23949
1.23371
1.22766
1.22172
1.21499
1.20691
1.19963
1.19546
1.19522
1.19621
1.19707
1.20067
1.21152
1.23138
1.24432
1.2457
1.2451
1.24236
1.23593
1.22603
1.21436
1.20289
1.19286
1.18438
1.17716
1.17077
1.16488
1.15915
1.15318
1.14657
1.13979
1.13342
1.12724
0.974122
0.971187
0.969381
0.966826
0.963463
0.961627
0.959836
0.956794
0.954421
0.952821
0.95071
0.948537
0.947117
0.946334
0.94622
0.947462
0.953007
0.968876
0.999445
1.05372
1.12255
1.19433
1.25851
1.2964
1.32494
1.3429
1.34999
1.35142
1.35086
1.34628
1.33762
1.33187
1.32913
1.32572
1.32128
1.31758
1.31335
1.30824
1.30186
1.29459
1.28757
1.28132
1.27489
1.26909
1.26496
1.26035
1.25426
1.24898
1.2443
1.23843
1.23335
1.23001
1.22594
1.22069
1.21593
1.21183
1.20701
1.20132
1.1974
1.19447
1.19086
1.18636
1.18242
1.18026
1.17721
1.17358
1.17261
1.17115
1.16815
1.16778
1.16827
1.16574
1.16446
1.16449
1.16211
1.16055
1.15988
1.15718
1.15365
1.15107
1.14733
1.1429
1.13826
1.13195
1.12764
1.12655
1.1283
1.13934
1.1698
1.22316
1.27091
1.27941
1.27939
1.2776
1.27314
1.26683
1.26005
1.25345
1.24748
1.24186
1.23598
1.23009
1.22402
1.21659
1.20843
1.20155
1.19966
1.20036
1.20159
1.20337
1.2105
1.22646
1.24636
1.25204
1.252
1.25043
1.24605
1.23799
1.22723
1.21579
1.20545
1.19668
1.18911
1.18245
1.17625
1.1703
1.16455
1.15897
1.15342
1.14778
1.14207
1.13622
0.977294
0.973716
0.971494
0.969315
0.965927
0.963416
0.961745
0.959054
0.956015
0.954399
0.952365
0.949731
0.947988
0.946914
0.946142
0.94568
0.945607
0.946934
0.951392
0.963259
0.988611
1.03015
1.09114
1.15972
1.22483
1.26924
1.2948
1.31609
1.32973
1.33472
1.33563
1.33496
1.33089
1.32325
1.31835
1.31607
1.31298
1.30929
1.30619
1.30239
1.29681
1.29024
1.28399
1.27753
1.27095
1.26608
1.2609
1.25578
1.25176
1.24709
1.24101
1.23644
1.23261
1.22764
1.22284
1.21935
1.21559
1.2107
1.20568
1.20229
1.19936
1.19547
1.19103
1.18964
1.18822
1.18485
1.18406
1.18415
1.18128
1.17945
1.17997
1.17818
1.17525
1.17473
1.17264
1.16955
1.16731
1.16441
1.16017
1.15556
1.15058
1.14507
1.13993
1.13355
1.12775
1.12634
1.12656
1.1312
1.14975
1.19041
1.24792
1.27559
1.27847
1.27773
1.27485
1.26961
1.26293
1.25618
1.25019
1.24441
1.23854
1.23283
1.22633
1.21843
1.21113
1.2061
1.20424
1.20518
1.20702
1.21143
1.22238
1.24308
1.25688
1.25848
1.25796
1.25556
1.24992
1.24061
1.22931
1.21798
1.20842
1.20078
1.19423
1.18856
1.18329
1.17806
1.17278
1.16711
1.16131
1.15618
1.15171
1.14747
0.980302
0.976807
0.973837
0.97213
0.969463
0.966148
0.964278
0.962214
0.959049
0.956815
0.954909
0.952136
0.949853
0.948501
0.947163
0.946077
0.945885
0.946255
0.947356
0.94939
0.953155
0.962148
0.981518
1.01742
1.06611
1.12707
1.18843
1.24097
1.27198
1.28915
1.30649
1.31847
1.3212
1.3216
1.32086
1.31668
1.31052
1.3078
1.3062
1.30326
1.29999
1.29668
1.29222
1.28666
1.27999
1.27407
1.26881
1.26242
1.25722
1.25353
1.24843
1.24301
1.23931
1.2352
1.22963
1.2254
1.22227
1.21826
1.21353
1.21032
1.20828
1.20535
1.20101
1.19942
1.19935
1.19674
1.19517
1.19571
1.19401
1.19061
1.19028
1.18907
1.1852
1.18253
1.18004
1.17642
1.17237
1.16812
1.16324
1.15791
1.15255
1.14684
1.1412
1.13528
1.12818
1.12528
1.12518
1.12666
1.13582
1.16308
1.21284
1.26513
1.27723
1.27767
1.27624
1.27222
1.26603
1.25928
1.25303
1.24695
1.24125
1.23564
1.22873
1.22071
1.21466
1.21228
1.21142
1.21127
1.21363
1.22099
1.23634
1.25785
1.26516
1.26553
1.26452
1.26095
1.25406
1.24393
1.23275
1.22191
1.21335
1.20697
1.20122
1.19605
1.19149
1.18722
1.18326
1.17912
1.17455
1.17014
1.166
1.16313
0.983747
0.981185
0.977746
0.975441
0.973305
0.970007
0.967469
0.965851
0.963241
0.960546
0.959046
0.956891
0.954076
0.952132
0.950527
0.948674
0.947807
0.94766
0.947996
0.949005
0.951056
0.954133
0.958517
0.966472
0.98181
1.00871
1.05144
1.09979
1.15726
1.20577
1.24552
1.27086
1.28406
1.29841
1.30811
1.3092
1.3097
1.30935
1.30636
1.30175
1.29956
1.2978
1.295
1.29136
1.28748
1.28259
1.27728
1.27167
1.26531
1.26025
1.25564
1.24957
1.24496
1.24163
1.23691
1.23208
1.22927
1.22625
1.22169
1.21774
1.21675
1.21527
1.21188
1.21068
1.21107
1.20909
1.20613
1.20615
1.2049
1.20097
1.19894
1.1971
1.19353
1.18915
1.18486
1.18025
1.17527
1.17021
1.16498
1.15947
1.15398
1.14837
1.14249
1.13659
1.12931
1.12403
1.12361
1.12408
1.12781
1.14337
1.18007
1.23602
1.27301
1.27763
1.27718
1.27471
1.26964
1.26319
1.25659
1.2502
1.24449
1.23865
1.2316
1.22415
1.21855
1.21825
1.21911
1.21986
1.22386
1.23413
1.25359
1.26988
1.27276
1.27274
1.27135
1.26714
1.25955
1.24927
1.23892
1.22889
1.2213
1.21669
1.21254
1.2083
1.20466
1.20137
1.19882
1.19708
1.1954
1.19475
1.19324
1.19188
0.9868
0.985055
0.982198
0.979632
0.977937
0.975434
0.972349
0.970538
0.968603
0.965736
0.963829
0.962297
0.95985
0.957822
0.956476
0.954689
0.952813
0.951894
0.951528
0.951722
0.952734
0.95462
0.957445
0.96152
0.966481
0.973248
0.98605
1.00665
1.03908
1.08193
1.12556
1.17569
1.21371
1.24677
1.26808
1.27935
1.29111
1.29865
1.30022
1.30062
1.30033
1.29816
1.29446
1.29188
1.28987
1.28693
1.28306
1.27908
1.2743
1.26864
1.26397
1.25873
1.25293
1.24894
1.24478
1.23894
1.23597
1.23445
1.2311
1.22735
1.22667
1.2257
1.22275
1.22152
1.22203
1.22047
1.21699
1.21573
1.21386
1.20989
1.20598
1.20256
1.19854
1.19387
1.18886
1.18343
1.17763
1.17164
1.16553
1.1595
1.15377
1.14858
1.14345
1.13812
1.13189
1.12532
1.12307
1.12306
1.12394
1.13054
)
;

boundaryField
{
    inlet
    {
        type            fixedValue;
        value           nonuniform 0();
    }
    outlet
    {
        type            zeroGradient;
    }
    bottom
    {
        type            symmetryPlane;
    }
    top
    {
        type            symmetryPlane;
    }
    obstacle
    {
        type            zeroGradient;
    }
    front
    {
        type            empty;
    }
    back
    {
        type            empty;
    }
    procBoundary46to38
    {
        type            processor;
        value           nonuniform List<scalar> 
133
(
1.06797
1.06323
1.05928
1.0554
1.051
1.04586
1.04182
1.03818
1.03281
1.02802
1.02466
1.02002
1.0154
1.01132
1.00698
1.00367
0.999869
0.995799
0.992541
0.989172
0.985781
0.981973
0.978373
0.974972
0.971452
0.969906
0.970654
0.974415
0.985769
1.01181
1.05279
1.0904
1.10708
1.11186
1.11403
1.11557
1.11642
1.11681
1.11749
1.11877
1.12041
1.1222
1.1243
1.12602
1.12841
1.13142
1.13714
1.14476
1.1533
1.16295
1.17315
1.18312
1.19187
1.19911
1.20481
1.2086
1.21078
1.2122
1.21137
1.20907
1.20651
1.20445
1.20285
1.20216
1.20284
1.20534
1.21174
1.22487
1.2417
1.25804
1.26874
1.26859
1.26563
1.25987
1.25084
1.24057
1.23194
1.2237
1.21625
1.33158
1.32894
1.3227
1.31575
1.30935
1.30201
1.29656
1.29172
1.2853
1.28027
1.27635
1.27113
1.26597
1.2617
1.25586
1.25019
1.24572
1.2402
1.23503
1.23101
1.22601
1.22067
1.21619
1.21077
1.20481
1.20047
1.19562
1.19037
1.18642
1.18191
1.17653
1.17224
1.16734
1.16303
1.15895
1.15413
1.15044
1.14589
1.14083
1.13717
1.13269
1.12837
1.12495
1.1206
1.11666
1.11276
1.10854
1.10476
1.10043
1.09655
1.09285
1.08843
1.08471
1.08471
)
;
    }
    procBoundary46to39
    {
        type            processor;
        value           uniform 1.20404;
    }
    procBoundary46to45
    {
        type            processor;
        value           nonuniform List<scalar> 
17
(
1.32214
1.27303
1.19437
1.12068
1.0796
1.05487
1.03295
1.00854
0.985161
0.97446
0.973005
0.973672
0.975257
0.977439
0.979927
0.982509
0.985705
)
;
    }
    procBoundary46to47
    {
        type            processor;
        value           nonuniform List<scalar> 
17
(
1.19489
1.18104
1.16196
1.14049
1.12298
1.11392
1.1092
1.10697
1.10641
1.10723
1.1095
1.11506
1.12147
1.13056
1.14335
1.16159
1.19314
)
;
    }
    procBoundary46to53
    {
        type            processor;
        value           uniform 0.989049;
    }
    procBoundary46to54
    {
        type            processor;
        value           nonuniform List<scalar> 
133
(
1.15389
1.19977
1.25541
1.2762
1.27804
1.27703
1.27358
1.2679
1.26116
1.25466
1.24875
1.24242
1.23526
1.22915
1.22553
1.22496
1.22596
1.22827
1.23513
1.24979
1.27282
1.28288
1.28342
1.28295
1.28071
1.27554
1.26742
1.25767
1.24893
1.24089
1.23478
1.2325
1.2311
1.22956
1.22879
1.22897
1.23034
1.23084
1.23121
1.23499
1.2358
1.23501
0.99114
0.989393
0.987113
0.984094
0.982391
0.980699
0.977959
0.975953
0.974537
0.972257
0.969996
0.968707
0.966924
0.964652
0.963411
0.962142
0.960276
0.959007
0.958239
0.957644
0.95752
0.95795
0.959329
0.962008
0.96553
0.970353
0.975959
0.982256
0.99208
1.00838
1.0308
1.06414
1.10243
1.14292
1.18406
1.21614
1.24692
1.26538
1.27443
1.28389
1.28912
1.29171
1.29262
1.29254
1.29117
1.28792
1.28487
1.28245
1.27953
1.27544
1.27163
1.268
1.26279
1.25831
1.2553
1.25042
1.24542
1.24396
1.24113
1.2377
1.23765
1.23714
1.23411
1.23234
1.2322
1.23034
1.22638
1.2234
1.22059
1.21663
1.21181
1.20684
1.20159
1.19606
1.19046
1.18467
1.17871
1.17272
1.16672
1.16094
1.15534
1.14992
1.14466
1.13927
1.13331
1.12663
1.12243
1.12224
1.12257
1.15389
1.1248
)
;
    }
}


// ************************************************************************* //
