/*--------------------------------*- C++ -*----------------------------------*\
  =========                 |
  \\      /  F ield         | OpenFOAM: The Open Source CFD Toolbox
   \\    /   O peration     | Website:  https://openfoam.org
    \\  /    A nd           | Version:  7
     \\/     M anipulation  |
\*---------------------------------------------------------------------------*/
FoamFile
{
    version     2.0;
    format      ascii;
    class       volVectorField;
    location    "15.5";
    object      U;
}
// * * * * * * * * * * * * * * * * * * * * * * * * * * * * * * * * * * * * * //

dimensions      [0 1 -1 0 0 0 0];

internalField   nonuniform List<vector> 
2413
(
(1.98263 0.0134194 0)
(1.9828 0.0141469 0)
(1.9829 0.0144911 0)
(1.98307 0.0152436 0)
(1.98323 0.0161361 0)
(1.98337 0.0165787 0)
(1.98362 0.0171399 0)
(1.98382 0.0177472 0)
(1.98407 0.0180091 0)
(1.98438 0.0183016 0)
(1.9848 0.0188773 0)
(1.98529 0.0191898 0)
(1.98569 0.0197971 0)
(1.98585 0.0203974 0)
(1.98635 0.0212788 0)
(1.98682 0.0218418 0)
(1.98739 0.0226858 0)
(1.9875 0.0234049 0)
(1.98822 0.0242391 0)
(1.98896 0.0249127 0)
(1.98918 0.0257808 0)
(1.99008 0.0267743 0)
(1.99123 0.0276668 0)
(1.99191 0.0285526 0)
(1.99286 0.0293235 0)
(1.99374 0.0299501 0)
(1.99423 0.0308086 0)
(1.99434 0.0319896 0)
(1.99467 0.0326162 0)
(1.99503 0.0329777 0)
(1.99473 0.0338868 0)
(1.99439 0.0349059 0)
(1.99398 0.0356247 0)
(1.99318 0.0359855 0)
(1.99198 0.0362641 0)
(1.99007 0.0370745 0)
(1.98701 0.0376702 0)
(1.98193 0.037371 0)
(1.97398 0.0380646 0)
(1.96331 0.0400411 0)
(1.9521 0.0402031 0)
(1.94491 0.0405432 0)
(1.94366 0.0420855 0)
(1.94389 0.0435454 0)
(1.94502 0.0447857 0)
(1.94674 0.046496 0)
(1.94778 0.0474979 0)
(1.94991 0.0480327 0)
(1.95294 0.048739 0)
(1.9566 0.0497078 0)
(1.96061 0.0508701 0)
(1.96487 0.0516183 0)
(1.96938 0.0518472 0)
(1.97385 0.0523797 0)
(1.97823 0.0537537 0)
(1.98194 0.0551638 0)
(1.98532 0.0557788 0)
(1.98897 0.0553208 0)
(1.92711 -0.00710619 0)
(1.92983 -0.00962382 0)
(1.93221 -0.0117446 0)
(1.93498 -0.0112268 0)
(1.93756 -0.010696 0)
(1.94057 -0.012244 0)
(1.94328 -0.0136787 0)
(1.9463 -0.0133291 0)
(1.94905 -0.0129403 0)
(1.95162 -0.0142921 0)
(1.95372 -0.0155464 0)
(1.95593 -0.0150336 0)
(1.95787 -0.0145069 0)
(1.95975 -0.0157182 0)
(1.96156 -0.0168038 0)
(1.96396 -0.016272 0)
(1.96637 -0.0156197 0)
(1.96905 -0.0161252 0)
(1.97153 -0.0167715 0)
(1.974 -0.0166977 0)
(1.97624 -0.0162605 0)
(1.97809 -0.0164122 0)
(1.97966 -0.0171392 0)
(1.98104 -0.0175909 0)
(1.98237 -0.0172702 0)
(1.98378 -0.0169277 0)
(1.98563 -0.0170537 0)
(1.98777 -0.01743 0)
(1.98998 -0.0175266 0)
(1.99217 -0.0172649 0)
(1.99405 -0.0170263 0)
(1.99569 -0.0170382 0)
(1.99718 -0.0167225 0)
(1.99892 -0.0161531 0)
(2.00014 -0.0159498 0)
(2.00101 -0.0153396 0)
(2.00189 -0.0148511 0)
(2.00248 -0.0135596 0)
(2.00277 -0.0117544 0)
(2.00315 -0.0108314 0)
(2.00238 -0.00892437 0)
(2.00111 -0.00725702 0)
(1.99921 -0.00669982 0)
(1.99556 -0.00398071 0)
(1.99219 0.0001412 0)
(1.98958 0.000971207 0)
(1.98765 0.00102785 0)
(1.98582 0.00277373 0)
(1.98498 0.00462089 0)
(1.98463 0.0053389 0)
(1.98451 0.00539428 0)
(1.98465 0.00538566 0)
(1.9848 0.00547792 0)
(1.98491 0.00555155 0)
(1.98497 0.00573755 0)
(1.98491 0.00604163 0)
(1.98474 0.0063471 0)
(1.98451 0.00669368 0)
(1.98418 0.00706786 0)
(1.98381 0.00757518 0)
(1.98349 0.00812281 0)
(1.98333 0.00832984 0)
(1.9833 0.00804549 0)
(1.98318 0.00785169 0)
(1.98315 0.00841812 0)
(1.98311 0.00926747 0)
(1.98307 0.00956546 0)
(1.98294 0.00952862 0)
(1.98282 0.0101995 0)
(1.98272 0.0113784 0)
(1.9827 0.0118601 0)
(1.98284 0.0119684 0)
(1.98312 0.0125631 0)
(1.98324 0.013326 0)
(1.9833 0.0138965 0)
(1.98357 0.0145007 0)
(1.98378 0.0150135 0)
(1.98402 0.0158028 0)
(1.98422 0.0164648 0)
(1.98439 0.0166858 0)
(1.98468 0.0172013 0)
(1.98496 0.0177234 0)
(1.98531 0.0178663 0)
(1.98575 0.0181567 0)
(1.98634 0.0186466 0)
(1.98677 0.0190929 0)
(1.9871 0.0197358 0)
(1.98735 0.0203769 0)
(1.988 0.0210581 0)
(1.98858 0.0215952 0)
(1.98894 0.0223603 0)
(1.98921 0.0232116 0)
(1.99003 0.0238739 0)
(1.99084 0.0246523 0)
(1.99112 0.0256114 0)
(1.99218 0.0265003 0)
(1.99334 0.0274045 0)
(1.99406 0.0279394 0)
(1.99524 0.0285624 0)
(1.99603 0.0291972 0)
(1.99627 0.0301302 0)
(1.99638 0.0311523 0)
(1.99666 0.0316703 0)
(1.99674 0.0321596 0)
(1.99636 0.0330268 0)
(1.99593 0.0339169 0)
(1.99532 0.0345533 0)
(1.99431 0.0347451 0)
(1.99295 0.034874 0)
(1.99094 0.0356804 0)
(1.9879 0.0364899 0)
(1.98302 0.0362116 0)
(1.97551 0.0364151 0)
(1.96505 0.0389429 0)
(1.95412 0.0403591 0)
(1.94701 0.0404358 0)
(1.94571 0.0414402 0)
(1.94614 0.0426527 0)
(1.94682 0.0438031 0)
(1.94849 0.0451755 0)
(1.94961 0.0467308 0)
(1.95131 0.0474681 0)
(1.95406 0.0482917 0)
(1.95755 0.0495086 0)
(1.96143 0.0504592 0)
(1.96591 0.0502172 0)
(1.97047 0.0496037 0)
(1.97475 0.0500301 0)
(1.97912 0.051692 0)
(1.98267 0.0532181 0)
(1.98614 0.053765 0)
(1.98991 0.0532611 0)
(1.92554 -0.00628057 0)
(1.92843 -0.00888139 0)
(1.93102 -0.0110276 0)
(1.9339 -0.0105811 0)
(1.93656 -0.0102252 0)
(1.93972 -0.012134 0)
(1.94244 -0.0140252 0)
(1.94536 -0.0138887 0)
(1.94799 -0.0135093 0)
(1.95062 -0.015106 0)
(1.95276 -0.01686 0)
(1.95501 -0.0166023 0)
(1.95707 -0.0160639 0)
(1.95915 -0.0174208 0)
(1.96109 -0.0188103 0)
(1.96357 -0.0184806 0)
(1.96606 -0.017865 0)
(1.96885 -0.0185402 0)
(1.9714 -0.0195157 0)
(1.97389 -0.019591 0)
(1.97616 -0.0191603 0)
(1.9781 -0.0194419 0)
(1.97977 -0.0205048 0)
(1.98116 -0.0212512 0)
(1.98269 -0.0209935 0)
(1.98437 -0.0205848 0)
(1.98646 -0.0207326 0)
(1.98866 -0.0211094 0)
(1.99088 -0.021239 0)
(1.99317 -0.0209448 0)
(1.99517 -0.0204785 0)
(1.99699 -0.0204013 0)
(1.99872 -0.0205212 0)
(2.00034 -0.0202061 0)
(2.0019 -0.0197406 0)
(2.00314 -0.0193062 0)
(2.00391 -0.0186481 0)
(2.00486 -0.0178408 0)
(2.00513 -0.0162252 0)
(2.00563 -0.015296 0)
(2.00566 -0.014296 0)
(2.00472 -0.0125131 0)
(2.0033 -0.0116335 0)
(2.00057 -0.00966849 0)
(1.99721 -0.00555988 0)
(1.99435 -0.00356347 0)
(1.99168 -0.00326685 0)
(1.98913 -0.000799126 0)
(1.98742 0.00234199 0)
(1.98673 0.00371262 0)
(1.98644 0.00389053 0)
(1.98648 0.00385821 0)
(1.98654 0.0040817 0)
(1.98625 0.00452898 0)
(1.98589 0.00472976 0)
(1.98555 0.00501283 0)
(1.98529 0.00559386 0)
(1.98468 0.00626808 0)
(1.98418 0.00693239 0)
(1.98369 0.00759681 0)
(1.98328 0.00821124 0)
(1.98308 0.00853776 0)
(1.983 0.00854552 0)
(1.98287 0.00862233 0)
(1.98279 0.00922218 0)
(1.98276 0.00992599 0)
(1.98277 0.0101565 0)
(1.98273 0.0104217 0)
(1.98284 0.0113401 0)
(1.98289 0.0121585 0)
(1.9831 0.0122949 0)
(1.98337 0.012434 0)
(1.98369 0.0131637 0)
(1.98383 0.0138651 0)
(1.98401 0.0142644 0)
(1.98434 0.0147913 0)
(1.98461 0.0154139 0)
(1.98486 0.0160097 0)
(1.98516 0.0164056 0)
(1.98542 0.0165913 0)
(1.98573 0.0170095 0)
(1.98612 0.0174451 0)
(1.98652 0.0175885 0)
(1.98702 0.0179732 0)
(1.98759 0.0184931 0)
(1.98808 0.0190535 0)
(1.98835 0.019562 0)
(1.98885 0.0201843 0)
(1.98961 0.0207155 0)
(1.99026 0.021397 0)
(1.99047 0.0220974 0)
(1.99114 0.0229262 0)
(1.9919 0.0234947 0)
(1.99269 0.0244279 0)
(1.99304 0.0251883 0)
(1.99422 0.0259652 0)
(1.99522 0.0267052 0)
(1.99614 0.027222 0)
(1.99727 0.0277834 0)
(1.99788 0.0284663 0)
(1.99808 0.0293693 0)
(1.9981 0.0303138 0)
(1.99826 0.0308955 0)
(1.99814 0.0313965 0)
(1.99772 0.0320873 0)
(1.99713 0.0328411 0)
(1.99632 0.0334184 0)
(1.99514 0.033468 0)
(1.99368 0.0334593 0)
(1.99162 0.034327 0)
(1.98876 0.0353895 0)
(1.98428 0.0350427 0)
(1.97727 0.0351033 0)
(1.96704 0.0382895 0)
(1.95635 0.040192 0)
(1.94925 0.0401561 0)
(1.94779 0.0412457 0)
(1.9482 0.0420515 0)
(1.94854 0.0426912 0)
(1.94979 0.0438259 0)
(1.95112 0.0459785 0)
(1.95242 0.0470993 0)
(1.95492 0.0479902 0)
(1.95829 0.0491202 0)
(1.96231 0.0495533 0)
(1.96707 0.0485858 0)
(1.97151 0.0475338 0)
(1.97569 0.0480636 0)
(1.97986 0.0498731 0)
(1.98324 0.0513383 0)
(1.98685 0.0516037 0)
(1.99065 0.0510645 0)
(1.9243 -0.00570995 0)
(1.92739 -0.00836546 0)
(1.93007 -0.0105142 0)
(1.933 -0.010052 0)
(1.93561 -0.00967832 0)
(1.93867 -0.0119284 0)
(1.94128 -0.0142239 0)
(1.94412 -0.0140829 0)
(1.94669 -0.0135454 0)
(1.94945 -0.0153175 0)
(1.9517 -0.0175376 0)
(1.95404 -0.0175478 0)
(1.95616 -0.0170083 0)
(1.95845 -0.0183948 0)
(1.9606 -0.0201375 0)
(1.96317 -0.0200824 0)
(1.96563 -0.019535 0)
(1.96842 -0.0204523 0)
(1.97092 -0.0217757 0)
(1.97338 -0.022051 0)
(1.97565 -0.0217923 0)
(1.97769 -0.0223455 0)
(1.97948 -0.0235989 0)
(1.98094 -0.0243462 0)
(1.9825 -0.0240518 0)
(1.98427 -0.0235272 0)
(1.98639 -0.0234672 0)
(1.98858 -0.0237463 0)
(1.99074 -0.0238204 0)
(1.99306 -0.0234838 0)
(1.99518 -0.0229292 0)
(1.99708 -0.0227295 0)
(1.9989 -0.022942 0)
(2.00064 -0.02295 0)
(2.00228 -0.0224235 0)
(2.00377 -0.0219603 0)
(2.00492 -0.0214752 0)
(2.00599 -0.0210334 0)
(2.00684 -0.0201743 0)
(2.00719 -0.0190113 0)
(2.00772 -0.0182707 0)
(2.00718 -0.0166177 0)
(2.00642 -0.0153382 0)
(2.00483 -0.0141329 0)
(2.00179 -0.010316 0)
(1.99913 -0.00723254 0)
(1.99643 -0.00695399 0)
(1.99291 -0.00378777 0)
(1.98993 0.0013435 0)
(1.98851 0.00336153 0)
(1.98745 0.00336224 0)
(1.98716 0.00320986 0)
(1.98713 0.00360548 0)
(1.98683 0.00437915 0)
(1.98643 0.00479221 0)
(1.98595 0.00527907 0)
(1.98567 0.00613978 0)
(1.98504 0.00703591 0)
(1.98439 0.00753384 0)
(1.98375 0.00804879 0)
(1.98326 0.00866418 0)
(1.98292 0.00915475 0)
(1.98274 0.00947585 0)
(1.98256 0.00970598 0)
(1.98246 0.0101649 0)
(1.98251 0.0106082 0)
(1.98263 0.0108488 0)
(1.98283 0.0113298 0)
(1.98305 0.0121402 0)
(1.98327 0.0126207 0)
(1.98361 0.0126509 0)
(1.98392 0.0129245 0)
(1.98423 0.0137409 0)
(1.9844 0.0143083 0)
(1.98463 0.0145545 0)
(1.98501 0.0150136 0)
(1.98539 0.0155911 0)
(1.98574 0.0159641 0)
(1.98613 0.0161293 0)
(1.98645 0.0163032 0)
(1.98684 0.0166897 0)
(1.98727 0.017175 0)
(1.98762 0.0174387 0)
(1.98811 0.0178979 0)
(1.98873 0.0183738 0)
(1.9893 0.0189313 0)
(1.98966 0.01938 0)
(1.99029 0.0199428 0)
(1.99114 0.0203975 0)
(1.99181 0.0210428 0)
(1.9922 0.0217307 0)
(1.99304 0.0223883 0)
(1.99384 0.0230909 0)
(1.99436 0.023904 0)
(1.99489 0.0245453 0)
(1.99611 0.0253714 0)
(1.99705 0.0260054 0)
(1.99805 0.0265435 0)
(1.99905 0.0270619 0)
(1.99944 0.0277513 0)
(1.99959 0.0285634 0)
(1.99951 0.0294566 0)
(1.99953 0.0301346 0)
(1.99931 0.0305825 0)
(1.99881 0.0311213 0)
(1.99807 0.0318361 0)
(1.99709 0.0323699 0)
(1.99575 0.032295 0)
(1.99422 0.0321667 0)
(1.9922 0.0330484 0)
(1.98961 0.0341873 0)
(1.9856 0.0339194 0)
(1.97914 0.0340432 0)
(1.96933 0.0375704 0)
(1.95886 0.0399743 0)
(1.95168 0.0398289 0)
(1.9497 0.0406584 0)
(1.94972 0.0411135 0)
(1.95012 0.0418606 0)
(1.9512 0.0431922 0)
(1.95234 0.0454312 0)
(1.95349 0.0466764 0)
(1.95581 0.047434 0)
(1.95915 0.0482905 0)
(1.96338 0.0483195 0)
(1.96825 0.0469991 0)
(1.97252 0.0458401 0)
(1.97667 0.046598 0)
(1.98048 0.0484498 0)
(1.98375 0.0495627 0)
(1.98746 0.0493748 0)
(1.99109 0.0487926 0)
(1.92271 -0.00423926 0)
(1.92576 -0.00678112 0)
(1.92832 -0.00890022 0)
(1.93101 -0.00850406 0)
(1.93345 -0.00834903 0)
(1.93663 -0.0110443 0)
(1.93929 -0.0138323 0)
(1.94215 -0.0139025 0)
(1.94483 -0.0134791 0)
(1.94774 -0.0153674 0)
(1.95013 -0.0179877 0)
(1.95258 -0.0182077 0)
(1.95476 -0.0175007 0)
(1.95726 -0.0191476 0)
(1.95956 -0.0212287 0)
(1.96233 -0.0212795 0)
(1.96515 -0.0206704 0)
(1.96809 -0.0216463 0)
(1.97055 -0.0232428 0)
(1.97285 -0.0235608 0)
(1.97501 -0.0233316 0)
(1.97709 -0.0242243 0)
(1.97898 -0.0255333 0)
(1.98073 -0.025996 0)
(1.98253 -0.0259326 0)
(1.98453 -0.0258667 0)
(1.98678 -0.0259207 0)
(1.98916 -0.0263421 0)
(1.99127 -0.0266152 0)
(1.99354 -0.0263962 0)
(1.99574 -0.0258828 0)
(1.9978 -0.0258159 0)
(1.9997 -0.0262883 0)
(2.00153 -0.0264736 0)
(2.0034 -0.0260308 0)
(2.00476 -0.0255089 0)
(2.00619 -0.0252555 0)
(2.00744 -0.0250802 0)
(2.0087 -0.0247181 0)
(2.00958 -0.0238709 0)
(2.01001 -0.0228972 0)
(2.01015 -0.0217126 0)
(2.00982 -0.0202529 0)
(2.00914 -0.0193985 0)
(2.00725 -0.0169347 0)
(2.00503 -0.0134944 0)
(2.0025 -0.0123878 0)
(1.99901 -0.00950208 0)
(1.99481 -0.00315433 0)
(1.99232 -0.000169777 0)
(1.99049 5.2908e-05 0)
(1.98935 0.000781639 0)
(1.98855 0.0020758 0)
(1.98766 0.0034659 0)
(1.98687 0.00430952 0)
(1.98601 0.00492436 0)
(1.98569 0.00584048 0)
(1.98518 0.00680982 0)
(1.98456 0.00714626 0)
(1.98394 0.00766727 0)
(1.9834 0.00839456 0)
(1.98286 0.008839 0)
(1.98241 0.00934491 0)
(1.9823 0.0101409 0)
(1.98236 0.0108143 0)
(1.98248 0.0111423 0)
(1.98274 0.0114179 0)
(1.98311 0.0120073 0)
(1.98342 0.0127027 0)
(1.98376 0.0129852 0)
(1.98413 0.0130266 0)
(1.98449 0.0134808 0)
(1.9848 0.0142785 0)
(1.98503 0.0146822 0)
(1.98535 0.0147542 0)
(1.98577 0.0150196 0)
(1.98625 0.0154065 0)
(1.98669 0.0156671 0)
(1.98712 0.0158057 0)
(1.98744 0.0160243 0)
(1.98785 0.0164687 0)
(1.98831 0.0170201 0)
(1.98869 0.0172955 0)
(1.98923 0.0177142 0)
(1.98992 0.0181277 0)
(1.99058 0.0186507 0)
(1.99106 0.0191212 0)
(1.99173 0.019664 0)
(1.99264 0.0200831 0)
(1.99336 0.020652 0)
(1.99394 0.0212835 0)
(1.99482 0.0218283 0)
(1.9956 0.0226299 0)
(1.99595 0.0231847 0)
(1.99677 0.02385 0)
(1.99791 0.0247572 0)
(1.99875 0.0252545 0)
(1.99966 0.0257858 0)
(2.00045 0.0262569 0)
(2.00061 0.0269486 0)
(2.00075 0.0277001 0)
(2.00064 0.028554 0)
(2.00047 0.0292705 0)
(2.00014 0.0295987 0)
(1.99954 0.0299928 0)
(1.99866 0.0306746 0)
(1.99754 0.0312686 0)
(1.99613 0.0311806 0)
(1.99461 0.030999 0)
(1.99275 0.0318364 0)
(1.99049 0.0330039 0)
(1.98698 0.0329935 0)
(1.98115 0.0332118 0)
(1.97196 0.0367081 0)
(1.96168 0.0396112 0)
(1.95422 0.0393759 0)
(1.95127 0.0398581 0)
(1.95128 0.0405637 0)
(1.95181 0.0414213 0)
(1.95246 0.0428486 0)
(1.95358 0.0448801 0)
(1.95474 0.0460715 0)
(1.95685 0.0466127 0)
(1.96006 0.0472205 0)
(1.96432 0.0469647 0)
(1.96909 0.0454678 0)
(1.97324 0.0444596 0)
(1.97747 0.0455179 0)
(1.98108 0.0472489 0)
(1.98444 0.0478719 0)
(1.98814 0.0473125 0)
(1.99156 0.0467617 0)
(1.92197 -0.00364071 0)
(1.92487 -0.00618099 0)
(1.92723 -0.00822474 0)
(1.9297 -0.00764176 0)
(1.93186 -0.00736227 0)
(1.93489 -0.0102711 0)
(1.93741 -0.0133055 0)
(1.94022 -0.0134145 0)
(1.94281 -0.0128658 0)
(1.94577 -0.0149444 0)
(1.94818 -0.017952 0)
(1.95064 -0.0185509 0)
(1.95307 -0.0179664 0)
(1.95587 -0.0195438 0)
(1.95834 -0.0218533 0)
(1.96112 -0.0220656 0)
(1.96397 -0.0212675 0)
(1.96693 -0.0221685 0)
(1.96945 -0.0239168 0)
(1.97184 -0.0241414 0)
(1.97404 -0.0238022 0)
(1.97613 -0.0248773 0)
(1.97805 -0.0263039 0)
(1.97997 -0.026526 0)
(1.98188 -0.026467 0)
(1.98409 -0.0269206 0)
(1.98645 -0.0271853 0)
(1.9889 -0.0275594 0)
(1.99121 -0.0281357 0)
(1.99344 -0.0282483 0)
(1.99566 -0.0279026 0)
(1.99775 -0.0279655 0)
(1.9997 -0.0286569 0)
(2.00149 -0.0290585 0)
(2.00341 -0.0286413 0)
(2.00505 -0.0281264 0)
(2.00672 -0.0282645 0)
(2.0082 -0.0283281 0)
(2.00966 -0.028217 0)
(2.01096 -0.0276816 0)
(2.01169 -0.0265478 0)
(2.01212 -0.0255533 0)
(2.01204 -0.0241559 0)
(2.01205 -0.0233304 0)
(2.01136 -0.022046 0)
(2.0096 -0.0186398 0)
(2.00783 -0.0169014 0)
(2.00505 -0.0145917 0)
(2.00013 -0.00753029 0)
(1.99679 -0.00321635 0)
(1.9943 -0.00249002 0)
(1.99159 0.000208613 0)
(1.9895 0.0029555 0)
(1.9885 0.00477276 0)
(1.98713 0.00586484 0)
(1.98622 0.00609309 0)
(1.98565 0.00655982 0)
(1.98516 0.00707781 0)
(1.98458 0.00742314 0)
(1.98407 0.00799032 0)
(1.98357 0.00862005 0)
(1.98302 0.00915601 0)
(1.98256 0.00983534 0)
(1.98266 0.010524 0)
(1.98283 0.011271 0)
(1.98287 0.0115981 0)
(1.98312 0.0119386 0)
(1.98355 0.0125579 0)
(1.98391 0.013103 0)
(1.98431 0.0132497 0)
(1.98469 0.013297 0)
(1.98509 0.0137645 0)
(1.98543 0.0144104 0)
(1.98576 0.0146947 0)
(1.98616 0.01472 0)
(1.98659 0.0149019 0)
(1.98708 0.0152384 0)
(1.98757 0.0155585 0)
(1.988 0.0157726 0)
(1.98833 0.0159789 0)
(1.9888 0.016395 0)
(1.98933 0.0168804 0)
(1.98983 0.0171171 0)
(1.99045 0.0175 0)
(1.9912 0.0178533 0)
(1.99193 0.0183794 0)
(1.99249 0.0187922 0)
(1.99322 0.019297 0)
(1.99415 0.0197202 0)
(1.99484 0.020235 0)
(1.99551 0.0207702 0)
(1.99639 0.021286 0)
(1.99714 0.0220269 0)
(1.99761 0.0224158 0)
(1.99847 0.0230714 0)
(1.99954 0.0240641 0)
(2.00027 0.0245941 0)
(2.00103 0.0251382 0)
(2.00155 0.0255694 0)
(2.00156 0.0262022 0)
(2.00163 0.0268778 0)
(2.00156 0.0276857 0)
(2.00135 0.0284323 0)
(2.00093 0.0286628 0)
(2.0002 0.0289197 0)
(1.99914 0.0295857 0)
(1.9979 0.0302519 0)
(1.99642 0.0301936 0)
(1.99495 0.029927 0)
(1.99332 0.030635 0)
(1.99138 0.0318224 0)
(1.98837 0.0320945 0)
(1.98322 0.0324127 0)
(1.97476 0.0357078 0)
(1.96475 0.0391083 0)
(1.95658 0.0388771 0)
(1.95303 0.0391129 0)
(1.95264 0.0400612 0)
(1.9534 0.0412003 0)
(1.95376 0.0424484 0)
(1.95482 0.0440529 0)
(1.95593 0.0452555 0)
(1.95774 0.0456509 0)
(1.96073 0.0460537 0)
(1.9649 0.0456513 0)
(1.96955 0.0441017 0)
(1.97371 0.043275 0)
(1.97803 0.0444688 0)
(1.98166 0.0459982 0)
(1.98519 0.0462371 0)
(1.98884 0.0454607 0)
(1.99211 0.044934 0)
(1.92002 -0.000772239 0)
(1.92308 -0.00380979 0)
(1.92533 -0.00629974 0)
(1.92777 -0.00598428 0)
(1.92984 -0.00555973 0)
(1.93241 -0.00819792 0)
(1.93465 -0.0112191 0)
(1.93732 -0.0114022 0)
(1.93995 -0.010944 0)
(1.94306 -0.0131087 0)
(1.94566 -0.0163139 0)
(1.94831 -0.0170965 0)
(1.9509 -0.016342 0)
(1.95381 -0.0177164 0)
(1.95662 -0.020564 0)
(1.95939 -0.0213487 0)
(1.96223 -0.0207737 0)
(1.9652 -0.0219274 0)
(1.96784 -0.0243518 0)
(1.97034 -0.0249623 0)
(1.97278 -0.0244483 0)
(1.97503 -0.0255991 0)
(1.97693 -0.0272744 0)
(1.97891 -0.0273267 0)
(1.98073 -0.027161 0)
(1.98329 -0.0280681 0)
(1.98583 -0.0284999 0)
(1.98851 -0.0285177 0)
(1.99099 -0.028936 0)
(1.99323 -0.029255 0)
(1.99559 -0.029095 0)
(1.99788 -0.0292047 0)
(1.99992 -0.0300947 0)
(2.00165 -0.0308358 0)
(2.00357 -0.0306959 0)
(2.00543 -0.0303404 0)
(2.0074 -0.0307114 0)
(2.00933 -0.0313568 0)
(2.01101 -0.0316561 0)
(2.01241 -0.0314198 0)
(2.01344 -0.030607 0)
(2.01424 -0.029777 0)
(2.01461 -0.0288651 0)
(2.01479 -0.0277282 0)
(2.01505 -0.0271268 0)
(2.01417 -0.0249317 0)
(2.01291 -0.02238 0)
(2.01117 -0.0206026 0)
(2.00691 -0.014571 0)
(2.0032 -0.00888528 0)
(2.00003 -0.00771435 0)
(1.9962 -0.00395883 0)
(1.99189 0.000927768 0)
(1.98981 0.00282784 0)
(1.98846 0.00392478 0)
(1.98743 0.00465367 0)
(1.98685 0.005235 0)
(1.98593 0.00584767 0)
(1.98482 0.00664924 0)
(1.98425 0.00763706 0)
(1.9837 0.0084438 0)
(1.98333 0.00923207 0)
(1.98315 0.00995074 0)
(1.98323 0.0106371 0)
(1.98354 0.0115306 0)
(1.98353 0.0120349 0)
(1.98367 0.0124011 0)
(1.98406 0.0129356 0)
(1.98444 0.0133596 0)
(1.98485 0.0134708 0)
(1.9852 0.0135858 0)
(1.98556 0.0140364 0)
(1.98594 0.0145117 0)
(1.9864 0.0146764 0)
(1.98689 0.0146824 0)
(1.98738 0.014842 0)
(1.98787 0.0151244 0)
(1.98842 0.0154512 0)
(1.98889 0.0157071 0)
(1.98928 0.0158372 0)
(1.98982 0.0161734 0)
(1.99041 0.0165592 0)
(1.99102 0.0167914 0)
(1.99173 0.0171732 0)
(1.99254 0.0174582 0)
(1.99327 0.0179543 0)
(1.99387 0.0183011 0)
(1.99467 0.0187607 0)
(1.99555 0.0192838 0)
(1.9962 0.0197124 0)
(1.99692 0.0201871 0)
(1.99784 0.0207292 0)
(1.99868 0.0215542 0)
(1.99921 0.0219294 0)
(1.99999 0.0224744 0)
(2.00094 0.0233609 0)
(2.00149 0.0240067 0)
(2.00219 0.0246141 0)
(2.00245 0.0251025 0)
(2.00239 0.0257272 0)
(2.00248 0.0262743 0)
(2.0024 0.0269025 0)
(2.00209 0.0275307 0)
(2.00149 0.0276939 0)
(2.0006 0.027824 0)
(1.9994 0.028456 0)
(1.9981 0.0292272 0)
(1.99668 0.0292904 0)
(1.99536 0.0289662 0)
(1.99398 0.0295435 0)
(1.99236 0.0307532 0)
(1.98984 0.0312265 0)
(1.98538 0.0316131 0)
(1.97773 0.0346479 0)
(1.96804 0.0384684 0)
(1.95909 0.038473 0)
(1.95469 0.0384411 0)
(1.95404 0.0395422 0)
(1.95482 0.041075 0)
(1.95508 0.0419682 0)
(1.95589 0.0431904 0)
(1.95691 0.0444164 0)
(1.95843 0.0447034 0)
(1.96121 0.0449778 0)
(1.96526 0.0445988 0)
(1.96984 0.0431083 0)
(1.97404 0.0423358 0)
(1.97843 0.043406 0)
(1.9822 0.0447016 0)
(1.98584 0.044701 0)
(1.98939 0.0437407 0)
(1.99254 0.0431406 0)
(1.91896 0.0015499 0)
(1.92136 -0.000949598 0)
(1.92309 -0.00348958 0)
(1.92518 -0.00331571 0)
(1.92728 -0.00327551 0)
(1.93019 -0.0063831 0)
(1.93255 -0.00988914 0)
(1.93525 -0.0104216 0)
(1.93792 -0.0098042 0)
(1.94114 -0.0118442 0)
(1.94393 -0.0152724 0)
(1.94668 -0.0162234 0)
(1.94944 -0.0155118 0)
(1.95255 -0.0169895 0)
(1.95549 -0.0202579 0)
(1.95811 -0.0214862 0)
(1.96095 -0.0208179 0)
(1.96374 -0.0217747 0)
(1.96621 -0.0243718 0)
(1.96854 -0.0252343 0)
(1.9709 -0.0245865 0)
(1.9733 -0.0258382 0)
(1.97539 -0.0279418 0)
(1.97762 -0.0282136 0)
(1.97989 -0.0279376 0)
(1.98272 -0.0288985 0)
(1.98523 -0.0296476 0)
(1.98804 -0.0294206 0)
(1.99064 -0.0293252 0)
(1.99283 -0.0299207 0)
(1.99501 -0.0300526 0)
(1.99729 -0.0298398 0)
(1.99942 -0.0305858 0)
(2.00121 -0.0316409 0)
(2.00314 -0.0317748 0)
(2.00519 -0.0315645 0)
(2.0074 -0.0321517 0)
(2.00937 -0.0331165 0)
(2.01123 -0.0334728 0)
(2.01301 -0.0336512 0)
(2.01429 -0.033442 0)
(2.01492 -0.0328669 0)
(2.016 -0.0321493 0)
(2.01688 -0.0312639 0)
(2.01737 -0.0306165 0)
(2.01752 -0.0295418 0)
(2.01663 -0.0268159 0)
(2.01582 -0.0251913 0)
(2.01327 -0.0213521 0)
(2.00972 -0.0152682 0)
(2.00654 -0.013076 0)
(2.00182 -0.0085453 0)
(1.99604 -0.00135663 0)
(1.9927 0.00121923 0)
(1.99035 0.0023699 0)
(1.98879 0.00408708 0)
(1.98782 0.0052715 0)
(1.98643 0.00697002 0)
(1.98569 0.00775081 0)
(1.98463 0.00811763 0)
(1.98419 0.00855204 0)
(1.98412 0.00908604 0)
(1.98408 0.00976095 0)
(1.98392 0.010667 0)
(1.9841 0.0115843 0)
(1.98434 0.0124342 0)
(1.98436 0.0127623 0)
(1.98463 0.0131003 0)
(1.98501 0.0134442 0)
(1.98535 0.0135677 0)
(1.98563 0.0137439 0)
(1.98602 0.0141347 0)
(1.98651 0.0144863 0)
(1.98709 0.0146584 0)
(1.98769 0.014715 0)
(1.98821 0.0148195 0)
(1.9887 0.0150509 0)
(1.98932 0.0153498 0)
(1.98982 0.0155686 0)
(1.99032 0.0156718 0)
(1.99091 0.0159062 0)
(1.99155 0.0161138 0)
(1.99222 0.0163495 0)
(1.99302 0.0167182 0)
(1.99386 0.0170081 0)
(1.99455 0.0174142 0)
(1.99521 0.0178126 0)
(1.9961 0.0182399 0)
(1.99676 0.0186943 0)
(1.99757 0.0191909 0)
(1.99831 0.0196806 0)
(1.99924 0.0203125 0)
(2.00002 0.021008 0)
(2.00061 0.021433 0)
(2.00146 0.0221607 0)
(2.002 0.022795 0)
(2.00256 0.0235642 0)
(2.003 0.024089 0)
(2.00309 0.0246402 0)
(2.00317 0.0252083 0)
(2.00324 0.0256144 0)
(2.00304 0.0261672 0)
(2.0026 0.0267913 0)
(2.00186 0.0269512 0)
(2.00082 0.026893 0)
(1.99953 0.0273923 0)
(1.9982 0.02821 0)
(1.99692 0.0283756 0)
(1.99583 0.0280577 0)
(1.99471 0.0285097 0)
(1.99337 0.0297188 0)
(1.99133 0.0302964 0)
(1.98755 0.0307371 0)
(1.98073 0.0335686 0)
(1.97155 0.0376123 0)
(1.96195 0.0379994 0)
(1.95643 0.0377743 0)
(1.95554 0.0391828 0)
(1.95612 0.0407921 0)
(1.9562 0.0414967 0)
(1.9568 0.0427832 0)
(1.9576 0.0436647 0)
(1.95894 0.0437365 0)
(1.96151 0.0438321 0)
(1.96535 0.0434979 0)
(1.96986 0.0420696 0)
(1.9741 0.0411991 0)
(1.97861 0.0421269 0)
(1.9826 0.0433862 0)
(1.98628 0.0434298 0)
(1.98981 0.0424045 0)
(1.99288 0.0416759 0)
(1.91649 0.00604348 0)
(1.91912 0.00309678 0)
(1.9208 -0.000133803 0)
(1.92281 -0.00041282 0)
(1.9248 -4.46804e-05 0)
(1.92753 -0.00272965 0)
(1.92992 -0.00616321 0)
(1.93264 -0.00683284 0)
(1.93552 -0.00650412 0)
(1.93894 -0.00859795 0)
(1.94177 -0.0119461 0)
(1.94448 -0.0129989 0)
(1.94734 -0.0122597 0)
(1.95028 -0.0134529 0)
(1.95307 -0.016769 0)
(1.9555 -0.0182175 0)
(1.95808 -0.0174867 0)
(1.96073 -0.01859 0)
(1.96336 -0.0218672 0)
(1.96571 -0.0232404 0)
(1.96817 -0.0228204 0)
(1.97083 -0.0239897 0)
(1.97349 -0.0263946 0)
(1.9762 -0.0269841 0)
(1.97902 -0.0266605 0)
(1.98209 -0.0275836 0)
(1.98461 -0.0289061 0)
(1.98735 -0.0288352 0)
(1.98984 -0.028489 0)
(1.99237 -0.0297144 0)
(1.99444 -0.0307704 0)
(1.99679 -0.0306204 0)
(1.99896 -0.0310292 0)
(2.00082 -0.0323601 0)
(2.00276 -0.0328324 0)
(2.00502 -0.032614 0)
(2.00725 -0.0328747 0)
(2.00942 -0.0339823 0)
(2.01135 -0.0345871 0)
(2.01324 -0.0345617 0)
(2.01473 -0.0343806 0)
(2.01593 -0.0349532 0)
(2.01684 -0.0350457 0)
(2.01831 -0.0344676 0)
(2.01932 -0.0336696 0)
(2.01988 -0.0330162 0)
(2.01966 -0.0312101 0)
(2.01937 -0.0293976 0)
(2.0184 -0.0271335 0)
(2.01594 -0.0225498 0)
(2.01348 -0.0198551 0)
(2.00901 -0.0154447 0)
(2.00273 -0.00733361 0)
(1.99836 -0.00353919 0)
(1.99521 -0.0024309 0)
(1.99242 0.00042751 0)
(1.98957 0.00295027 0)
(1.98774 0.00558518 0)
(1.98673 0.00669309 0)
(1.98604 0.00708441 0)
(1.98551 0.00791304 0)
(1.9853 0.00892817 0)
(1.9853 0.00980095 0)
(1.98501 0.0107039 0)
(1.98501 0.0114547 0)
(1.98519 0.012328 0)
(1.98522 0.0128246 0)
(1.98533 0.0131147 0)
(1.9856 0.0135122 0)
(1.98584 0.0137138 0)
(1.98615 0.0138362 0)
(1.98661 0.013996 0)
(1.98722 0.0141823 0)
(1.98788 0.0143184 0)
(1.98853 0.0144818 0)
(1.98906 0.0146015 0)
(1.98958 0.0148523 0)
(1.99021 0.0151318 0)
(1.99076 0.0152275 0)
(1.99137 0.0153232 0)
(1.99202 0.0154896 0)
(1.99271 0.0156379 0)
(1.99338 0.01591 0)
(1.99422 0.0162126 0)
(1.99505 0.0165002 0)
(1.99572 0.0167992 0)
(1.99654 0.0171908 0)
(1.99737 0.0176756 0)
(1.99797 0.0180612 0)
(1.99893 0.0186756 0)
(1.9998 0.0193534 0)
(2.00048 0.0198766 0)
(2.00124 0.0204994 0)
(2.00206 0.0213308 0)
(2.00268 0.0219618 0)
(2.00308 0.0225943 0)
(2.00358 0.0232219 0)
(2.00375 0.0237158 0)
(2.00378 0.0242814 0)
(2.0039 0.0247223 0)
(2.00385 0.025081 0)
(2.00352 0.0256024 0)
(2.00296 0.026187 0)
(2.0021 0.0263187 0)
(2.00095 0.0260941 0)
(1.99958 0.0264556 0)
(1.99829 0.0272802 0)
(1.99722 0.0275089 0)
(1.99638 0.0272754 0)
(1.99552 0.0276136 0)
(1.99443 0.0287363 0)
(1.99282 0.0293768 0)
(1.98971 0.0298002 0)
(1.98369 0.0325296 0)
(1.9752 0.0364805 0)
(1.96538 0.0372579 0)
(1.95862 0.03721 0)
(1.95707 0.0390174 0)
(1.95712 0.040236 0)
(1.95681 0.0411806 0)
(1.95738 0.0425557 0)
(1.95825 0.0428618 0)
(1.95939 0.042805 0)
(1.96174 0.0427617 0)
(1.96541 0.0425449 0)
(1.96987 0.0412969 0)
(1.97413 0.0402478 0)
(1.97866 0.0409026 0)
(1.98279 0.0421497 0)
(1.98644 0.0423519 0)
(1.98997 0.0413148 0)
(1.99298 0.0404616 0)
(1.91404 0.0109412 0)
(1.91617 0.00845367 0)
(1.91777 0.00473583 0)
(1.91978 0.00387569 0)
(1.92207 0.00409487 0)
(1.92502 0.00165249 0)
(1.92757 -0.00182869 0)
(1.93026 -0.00271278 0)
(1.93308 -0.00209871 0)
(1.93629 -0.00387631 0)
(1.93935 -0.00763906 0)
(1.94206 -0.00924134 0)
(1.94493 -0.00877626 0)
(1.94804 -0.0103192 0)
(1.95113 -0.0142223 0)
(1.95359 -0.0163124 0)
(1.95623 -0.0159102 0)
(1.95899 -0.017202 0)
(1.96182 -0.0209575 0)
(1.96419 -0.0229262 0)
(1.96692 -0.022438 0)
(1.96982 -0.0232305 0)
(1.97268 -0.0255343 0)
(1.97548 -0.025971 0)
(1.97841 -0.0253343 0)
(1.98158 -0.0262449 0)
(1.98429 -0.0283134 0)
(1.98682 -0.0288503 0)
(1.98946 -0.0286577 0)
(1.99206 -0.0299797 0)
(1.99402 -0.0314862 0)
(1.9962 -0.0315109 0)
(1.99832 -0.0313105 0)
(2.00035 -0.0325892 0)
(2.00222 -0.0334587 0)
(2.00445 -0.0331879 0)
(2.0067 -0.0332326 0)
(2.00895 -0.034276 0)
(2.01085 -0.0349905 0)
(2.0128 -0.0347771 0)
(2.0144 -0.0345381 0)
(2.01576 -0.0353869 0)
(2.01694 -0.0360603 0)
(2.01823 -0.0361609 0)
(2.01983 -0.035396 0)
(2.0211 -0.0349036 0)
(2.02162 -0.0339832 0)
(2.02193 -0.0327729 0)
(2.02199 -0.0314841 0)
(2.02069 -0.0285478 0)
(2.01931 -0.0261039 0)
(2.01585 -0.0219321 0)
(2.01075 -0.0152065 0)
(2.00667 -0.0121345 0)
(2.00151 -0.00749977 0)
(1.99639 -0.0023928 0)
(1.993 0.000590414 0)
(1.98987 0.00410252 0)
(1.98843 0.00637345 0)
(1.98749 0.00665314 0)
(1.98695 0.00741808 0)
(1.98646 0.00889734 0)
(1.98642 0.00981494 0)
(1.98627 0.0104977 0)
(1.98613 0.0111759 0)
(1.98621 0.0119386 0)
(1.9862 0.0125111 0)
(1.98607 0.0128448 0)
(1.98625 0.013352 0)
(1.98652 0.0137213 0)
(1.98686 0.0138493 0)
(1.9874 0.0138934 0)
(1.98803 0.0139263 0)
(1.9887 0.0140877 0)
(1.98934 0.0143027 0)
(1.98994 0.0144748 0)
(1.99052 0.0146715 0)
(1.99114 0.0147819 0)
(1.99178 0.0148348 0)
(1.99245 0.0149164 0)
(1.99314 0.0150311 0)
(1.99385 0.0152118 0)
(1.99448 0.0154823 0)
(1.99537 0.0157349 0)
(1.99614 0.0159742 0)
(1.99692 0.0163614 0)
(1.99783 0.0167001 0)
(1.99858 0.0171955 0)
(1.99925 0.0176605 0)
(2.00031 0.0183258 0)
(2.00115 0.0191016 0)
(2.00177 0.0195908 0)
(2.00257 0.0203552 0)
(2.0033 0.0211355 0)
(2.00381 0.0217019 0)
(2.00419 0.022523 0)
(2.00447 0.0229455 0)
(2.00454 0.0233479 0)
(2.00456 0.0239027 0)
(2.00457 0.0243089 0)
(2.00438 0.0246547 0)
(2.00393 0.0251551 0)
(2.00325 0.0257055 0)
(2.00226 0.0257839 0)
(2.00101 0.0254199 0)
(1.99961 0.025671 0)
(1.99838 0.0264435 0)
(1.99755 0.0266732 0)
(1.99697 0.026548 0)
(1.99634 0.0268853 0)
(1.9955 0.0277839 0)
(1.99427 0.0284606 0)
(1.9918 0.0289195 0)
(1.98658 0.0314782 0)
(1.9789 0.0352355 0)
(1.96939 0.0360883 0)
(1.96157 0.0367671 0)
(1.95816 0.0387653 0)
(1.95757 0.0398166 0)
(1.95725 0.041201 0)
(1.95783 0.0420165 0)
(1.95879 0.0420727 0)
(1.9599 0.0418409 0)
(1.96207 0.041745 0)
(1.96554 0.0416381 0)
(1.96987 0.040624 0)
(1.9741 0.0394488 0)
(1.97854 0.0398642 0)
(1.98277 0.0411381 0)
(1.98641 0.0415436 0)
(1.98997 0.0405734 0)
(1.99301 0.0395947 0)
(1.91137 0.0160247 0)
(1.9134 0.0139984 0)
(1.91516 0.00992799 0)
(1.91716 0.00862183 0)
(1.91957 0.00888107 0)
(1.92266 0.00672379 0)
(1.92534 0.00323774 0)
(1.92793 0.00212851 0)
(1.93076 0.00264497 0)
(1.93389 0.000949625 0)
(1.93673 -0.00273972 0)
(1.93923 -0.00428806 0)
(1.94192 -0.00371199 0)
(1.94488 -0.0051866 0)
(1.94802 -0.00922147 0)
(1.95055 -0.0115256 0)
(1.95331 -0.0111949 0)
(1.95619 -0.0123493 0)
(1.95931 -0.0160154 0)
(1.96189 -0.0180249 0)
(1.96486 -0.0175888 0)
(1.9679 -0.0183655 0)
(1.97145 -0.0212461 0)
(1.97427 -0.0228234 0)
(1.97746 -0.0224787 0)
(1.98063 -0.0234025 0)
(1.98332 -0.0258868 0)
(1.98571 -0.0266446 0)
(1.98825 -0.0260522 0)
(1.99075 -0.0272587 0)
(1.99278 -0.0296683 0)
(1.99486 -0.0301893 0)
(1.99695 -0.0297988 0)
(1.99923 -0.0311562 0)
(2.00126 -0.032957 0)
(2.00356 -0.0330992 0)
(2.00589 -0.0329165 0)
(2.00824 -0.0340883 0)
(2.01009 -0.0353428 0)
(2.01206 -0.0352344 0)
(2.01374 -0.0347707 0)
(2.01523 -0.035562 0)
(2.01647 -0.0365141 0)
(2.01791 -0.0365853 0)
(2.01968 -0.035789 0)
(2.02119 -0.0355173 0)
(2.02255 -0.0352804 0)
(2.02381 -0.0350457 0)
(2.02429 -0.0344261 0)
(2.02377 -0.0327509 0)
(2.02322 -0.0308872 0)
(2.02151 -0.0279996 0)
(2.01841 -0.0231495 0)
(2.01563 -0.0211964 0)
(2.00992 -0.0156153 0)
(2.00314 -0.00659509 0)
(1.99885 -0.00438965 0)
(1.99636 -0.00184678 0)
(1.99246 0.0032715 0)
(1.99039 0.00523261 0)
(1.98915 0.00616951 0)
(1.98817 0.0082329 0)
(1.9879 0.00960506 0)
(1.9877 0.0101587 0)
(1.98759 0.0108238 0)
(1.98765 0.0115412 0)