/*--------------------------------*- C++ -*----------------------------------*\
  =========                 |
  \\      /  F ield         | OpenFOAM: The Open Source CFD Toolbox
   \\    /   O peration     | Website:  https://openfoam.org
    \\  /    A nd           | Version:  7
     \\/     M anipulation  |
\*---------------------------------------------------------------------------*/
FoamFile
{
    version     2.0;
    format      ascii;
    class       volScalarField;
    location    "3.8";
    object      p;
}
// * * * * * * * * * * * * * * * * * * * * * * * * * * * * * * * * * * * * * //

dimensions      [1 -1 -2 0 0 0 0];

internalField   nonuniform List<scalar> 
1008
(
5.23433
7.56284
7.23897
6.91795
6.58395
6.23883
1
1
1
1
1
1
1
1
1
1
1
1
1
1
1
1
1
1.00477
2.3041
6.44898
7.19034
6.89155
6.58413
6.26293
1
1
1
1
1
1
1
1
1
1
1
1
1
1
1
1
1
1.00002
1.1221
4.12973
7.05283
6.91648
6.62711
6.32063
1
1
1
1
1
1
1
1
1
1
1
1
1
1
1
1
1
1
1.00177
1.69147
5.59064
6.91927
6.63754
6.3341
1
1
1
1
1
1
1
1
1
1
1
1
1
1
1
1
1
1
1.00001
1.03743
2.82003
6.19507
6.65254
6.37825
1
1
1
1
1
1
1
1
1
1
1
1
1
1
1
1
1
1
1
1.00039
1.23296
4.15304
6.46676
6.43793
1
1
1
1
1
1
1
1
1
1
1
1
1
1
1
1
1
1
1
1
1.00586
1.74809
5.08518
6.38605
1
1
1
1
1
1
1
1
1
1
1
1
1
1
1
1
1
1
1
1
1.00004
1.04487
2.49457
5.59369
1
1
1
1
1
1
1
1
1
1
1
1
1
1
1
1
1
1
1
1
1
1.00057
1.16633
3.35037
1
1
1
1
1
1
1
1
1
1
1
1
1
1
1
1
1
1
1
1
1
1
1.00391
1.41679
1
1
1
1
1
1
1
1
1
1
1
1
1
1
1
1
1
1
1
1
1
1
1.00002
1.01774
1
1
1
1
1
1
1
1
1
1
1
1
1
1
1
1
1
1
1
1
1
1
1
1.0002
1
1
1
1
1
1
1
1
1
1
1
1
1
1
1
1
1
1
1
1
1
1
1
1
1
1
1
1
1
1
1
1
1
1
1
1
1
1
1
1
1
1
1
1
1
1
1
1
1
1
1
1
1
1
1
1
1
1
1
1
1
1
1
1
1
1
1
1
1
1
1
1
1
1
1
1
1
1
1
1
1
1
1
1
1
1
1
1
1
1
1
1
1
1
1
1
1
1
1
1
1
1
1
1
1
1
1
1
1
1
1
1
1
1
1
1
1
1
1
1
1
1
1
1
1
1
1
1
1
1
1
1
1
1
1
1
1
1
1
1
1
1
1
1
5.89106
5.54858
5.19512
4.86091
4.55377
4.24144
3.93654
3.68762
3.44555
3.20397
2.98273
2.79955
2.61719
2.45405
2.28576
2.3323
2.67843
3.39391
3.95733
3.97007
3.82488
3.66886
3.58267
3.55036
3.48936
3.39682
3.27619
3.14335
3.06132
2.99841
2.93233
2.86095
2.78536
5.93441
5.6026
5.27148
4.96196
4.66074
4.35122
4.07601
3.82979
3.58592
3.33631
3.13459
2.92835
2.7622
2.6053
2.70087
3.20894
3.87625
4.39452
4.41489
4.28895
4.07159
3.85535
3.75226
3.7131
3.66764
3.58638
3.48714
3.35244
3.2212
3.13555
3.06346
2.98861
2.90818
6.00101
5.67463
5.35946
5.05946
4.76198
4.46242
4.20907
3.96185
3.7095
3.47628
3.25395
3.08141
2.98432
3.19681
3.91621
4.50704
4.73971
4.78864
4.66769
4.52671
4.35715
4.13028
3.96563
3.88862
3.8317
3.74977
3.65122
3.53127
3.39252
3.27744
3.18708
3.10368
3.02266
6.02831
5.71658
5.42494
5.13464
4.83924
4.56512
4.32545
4.07307
3.81349
3.59046
3.39627
3.4176
3.79153
4.71434
5.32039
5.20704
5.06996
4.94454
4.85569
4.7669
4.62839
4.427
4.20695
4.0815
3.99612
3.90664
3.80399
3.6886
3.55504
3.4206
3.31204
3.21948
3.13281
6.07189
5.77844
5.49918
5.22063
4.93462
4.67963
4.4323
4.1641
3.94015
3.74718
3.90762
4.5635
5.38035
6.03354
5.99396
5.64375
5.2924
5.1141
5.03737
4.9793
4.84525
4.65979
4.4347
4.26877
4.16292
4.06582
3.95948
3.84445
3.71487
3.56828
3.4328
3.326
3.23574
6.14763
5.86151
5.5809
5.30761
5.02316
4.78419
4.51381
4.28329
4.18705
4.52266
5.49301
6.16441
6.38811
6.40112
6.19348
5.89838
5.57113
5.36318
5.26461
5.19028
5.05004
4.86772
4.65095
4.46771
4.34036
4.22956
4.11666
3.9945
3.8607
3.71089
3.55948
3.43255
3.33194
6.20946
5.92248
5.65116
5.37753
5.10418
4.87021
4.63908
4.74584
5.35427
6.48962
7.20898
7.08327
6.8406
6.5505
6.32839
6.12915
5.87179
5.64261
5.50081
5.39592
5.25518
5.06919
4.85186
4.65751
4.50628
4.3775
4.25377
4.12538
3.99048
3.84501
3.69135
3.54879
3.43028
6.22429
6.00498
5.73199
5.41887
5.20449
5.07983
5.459
6.48947
7.35492
7.86863
7.73627
7.35097
7.02329
6.76944
6.57465
6.3967
6.17338
5.91873
5.73416
5.6014
5.45487
5.26581
5.03938
4.8231
4.65986
4.51823
4.38214
4.24496
4.10547
3.96197
3.81298
3.66767
3.53751
5.77493
6.06982
5.8267
5.51256
5.62858
6.44253
7.80894
8.48136
8.53865
8.31319
7.92586
7.53172
7.21757
7.03341
6.835
6.62645
6.42635
6.18141
5.95012
5.78707
5.63578
5.44818
5.23136
5.00101
4.80551
4.65333
4.51171
4.36844
4.22251
4.07424
3.92178
3.7712
3.63222
4.10988
5.78267
5.80541
6.34344
7.703
9.10296
9.46538
9.03065
8.76393
8.48137
8.16248
7.83763
7.51075
7.32729
7.12874
6.87997
6.66602
6.44669
6.19622
5.97418
5.78873
5.60412
5.40329
5.18459
4.96681
4.77345
4.61651
4.47304
4.32587
4.17303
4.0195
3.86736
3.72614
1.82871
4.20499
6.54099
9.47735
10.248
10.3445
9.94823
9.33042
8.87197
8.61803
8.39502
8.11371
7.77442
7.552
7.36095
7.11016
6.8611
6.64632
6.41944
6.18492
5.95675
5.75378
5.55805
5.33745
5.1255
4.92682
4.73763
4.58061
4.44099
4.27977
4.10828
3.94919
3.79889
1.05447
2.38589
8.97306
12.1041
11.1777
10.6498
10.0735
9.49676
9.08645
8.83205
8.66751
8.42452
8.09747
7.84241
7.656
7.37498
7.04637
6.83698
6.65735
6.42665
6.18533
5.92088
5.65995
5.48179
5.30628
5.12297
4.92337
4.70387
4.5234
4.40149
4.26218
4.09819
3.93939
1.00095
2.38251
10.2794
12.0526
11.0067
10.4096
9.94628
9.54988
9.25931
9.04179
8.90718
8.64493
8.29468
8.00046
7.81087
7.62481
7.32589
6.99458
6.75692
6.59309
6.38915
6.13652
5.86259
5.56717
5.3071
5.12318
4.99309
4.85587
4.67849
4.47665
4.27224
4.07507
3.91557
1.00001
3.27817
10.1723
11.2295
10.727
10.4484
10.1328
9.82053
9.55076
9.29609
9.0534
8.77609
8.46234
8.18727
7.98519
7.77662
7.49965
7.17405
6.88868
6.65213
6.43127
6.20427
5.96268
5.69971
5.4408
5.21674
5.02596
4.85511
4.69442
4.52068
4.34202
4.17702
4.02276
1
3.59832
9.92939
10.6994
10.6377
10.4457
10.1856
9.91654
9.65894
9.42351
9.17759
8.90295
8.61571
8.34187
8.1254
7.91002
7.61342
7.28989
7.01456
6.75116
6.50106
6.26567
6.03049
5.78499
5.53571
5.29588
5.07935
4.8899
4.71667
4.55038
4.39084
4.23728
4.0831
1
3.53488
9.82764
10.6069
10.4413
10.349
10.1642
9.96473
9.74483
9.51302
9.25512
8.98156
8.71221
8.46864
8.2651
8.03931
7.71564
7.38427
7.11615
6.87307
6.62301
6.37491
6.11335
5.8379
5.57004
5.32875
5.12209
4.94026
4.76909
4.59916
4.42576
4.25356
4.08827
1
3.38768
9.87122
10.606
10.4471
10.3364
10.171
9.99248
9.77501
9.54081
9.28991
9.0364
8.78844
8.55063
8.30097
7.99818
7.67186
7.3783
7.15357
6.92467
6.65025
6.37005
6.09266
5.84564
5.62689
5.42248
5.22089
5.01464
4.8034
4.59862
4.41177
4.24803
4.10311
1
3.29876
9.84707
10.5999
10.432
10.3126
10.1495
9.97326
9.76019
9.5401
9.31219
9.08214
8.84425
8.5875
8.30051
8.00509
7.72686
7.47767
7.25638
6.97025
6.65976
6.36541
6.1184
5.89955
5.69008
5.482
5.26439
5.03001
4.79022
4.57587
4.40043
4.25297
4.11817
)
;

boundaryField
{
    inlet
    {
        type            fixedValue;
        value           uniform 1;
    }
    outlet
    {
        type            zeroGradient;
    }
    bottom
    {
        type            symmetryPlane;
    }
    top
    {
        type            symmetryPlane;
    }
    obstacle
    {
        type            zeroGradient;
    }
    defaultFaces
    {
        type            empty;
    }
    procBoundary2to0
    {
        type            processor;
        value           nonuniform List<scalar> 
58
(
7.08578
7.56141
7.26815
6.93323
6.57982
6.20975
1
1
1
1
1
1
1
1
1
1
1
1
1
1
1
1
1.00002
1.23444
1.23444
5.83454
5.47202
5.10078
4.74372
4.42525
4.11098
3.78877
3.52773
3.28677
3.05645
2.82151
2.6444
2.47303
2.31516
2.15287
2.00939
2.00926
2.22921
2.85339
3.29877
3.52296
3.51625
3.43513
3.37218
3.29635
3.18636
3.05231
2.96261
2.91038
2.85698
2.7954
2.73074
2.66006
)
;
    }
    procBoundary2to1
    {
        type            processor;
        value           nonuniform List<scalar> 2(2.69947 2.81909);
    }
    procBoundary2to3
    {
        type            processor;
        value           nonuniform List<scalar> 
16
(
2.93834
3.04735
3.14919
3.24217
3.32846
3.42476
3.51151
3.59811
3.67735
3.78064
3.80031
3.87286
3.92652
3.93427
3.96958
3.98736
)
;
    }
}


// ************************************************************************* //
