/*--------------------------------*- C++ -*----------------------------------*\
  =========                 |
  \\      /  F ield         | OpenFOAM: The Open Source CFD Toolbox
   \\    /   O peration     | Website:  https://openfoam.org
    \\  /    A nd           | Version:  7
     \\/     M anipulation  |
\*---------------------------------------------------------------------------*/
FoamFile
{
    version     2.0;
    format      ascii;
    class       surfaceScalarField;
    location    "45";
    object      phi;
}
// * * * * * * * * * * * * * * * * * * * * * * * * * * * * * * * * * * * * * //

dimensions      [0 3 -1 0 0 0 0];

internalField   nonuniform List<scalar> 
30080
(
-0.00047844
0.000448273
3.01669e-05
-0.000835396
0.000253961
0.000102995
-0.00127295
0.000211934
0.000225623
-0.0016824
0.000114402
0.000295041
-0.0020983
0.000238095
0.000177805
-0.00250059
0.000544494
-0.0001422
-0.0028672
0.000887549
-0.000520935
-0.00312754
0.00100032
-0.000739987
-0.00328335
0.000788625
-0.000632811
-0.00315922
6.77694e-05
-0.000191902
-0.00288503
-0.000618652
0.000344464
-0.00229131
-0.00133454
0.00074082
-0.00133506
-0.00174943
0.000793179
-0.000237181
-0.00157562
0.000477744
-0.0016351
9.01569e-05
0.00130776
-0.000474529
0.000922801
-0.000821285
0.000600717
-0.0012387
0.000629346
-0.00161253
0.000488235
-0.00197
0.000595568
-0.00228306
0.000857552
-0.00251439
0.00111887
-0.00258353
0.00106947
-0.00245549
0.000660585
-0.00198905
-0.000398677
-0.00135079
-0.00125691
-0.000249072
-0.00243626
0.000998293
-0.0029968
0.00254795
-0.00312528
-0.00366346
0.00457632
-0.00046575
0.00138855
-0.00079063
0.000925597
-0.00116678
0.0010055
-0.00147036
0.00079181
-0.00171512
0.000840335
-0.00186034
0.00100277
-0.00184458
0.00110312
-0.00158955
0.000814431
-0.00100387
7.49126e-05
4.48267e-06
-0.00140703
0.00119489
-0.00244732
0.00293669
-0.00417806
0.0047975
-0.0048576
0.00693968
-0.00526746
-0.00628845
0.00956466
-0.000452385
0.00184094
-0.000744303
0.00121752
-0.00105912
0.00132032
-0.00126076
0.000993451
-0.00134562
0.000925192
-0.00126013
0.000917277
-0.000913533
0.000756525
-0.000249813
0.000150711
0.000868709
-0.00104361
0.002436
-0.00297432
0.00427434
-0.00428566
0.00653269
-0.00643641
0.00892637
-0.00725128
0.0115614
-0.00790246
-0.00914282
0.0144157
-0.000434825
0.00227576
-0.000683458
0.00146615
-0.000917825
0.00155468
-0.000988651
0.00106428
-0.000873095
0.000809636
-0.000508314
0.000552496
0.00022433
2.38807e-05
0.0013737
-0.000998655
0.0030008
-0.00267072
0.00506904
-0.00504255
0.00743224
-0.00664887
0.0099568
-0.00896097
0.0125908
-0.00988523
0.0153967
-0.0107084
-0.011805
0.0180589
-0.00041353
0.00268929
-0.000609358
0.00166198
-0.000744532
0.00168986
-0.000657032
0.000976776
-0.00030457
0.000457174
0.000381994
-0.000134069
0.00152357
-0.00111769
0.00316768
-0.00264277
0.00525308
-0.00475612
0.00765636
-0.00744583
0.0102775
-0.00927
0.0127833
-0.0114668
0.0153289
-0.0124308
0.0179048
-0.0132843
-0.0140716
0.0201714
-0.000388968
0.00307826
-0.000523171
0.00179618
-0.000539679
0.00170636
-0.000265463
0.000702561
0.000356056
-0.000164344
0.00140283
-0.00118085
0.00295632
-0.00267118
0.00502355
-0.00471
0.00742843
-0.007161
0.00993593
-0.00995334
0.0124922
-0.0118263
0.0147571
-0.0137317
0.0169695
-0.0146432
0.0191235
-0.0154383
-0.0159783
0.0210302
-0.00036153
0.00343979
-0.000425685
0.00186033
-0.000301803
0.00158248
0.000190461
0.000210296
0.00111071
-0.00108459
0.00253138
-0.00260152
0.00445826
-0.00459806
0.00679819
-0.00704992
0.00929997
-0.00966278
0.0116702
-0.0123235
0.0139265
-0.0140826
0.0158615
-0.0156668
0.0176929
-0.0164746
0.0194979
-0.0172433
-0.0176859
0.0212055
-0.000331424
0.00377121
-0.000316874
0.00184578
-2.5301e-05
0.00129091
0.000716843
-0.000531848
0.00195625
-0.002324
0.00372216
-0.00436743
0.00591144
-0.00678734
0.0083204
-0.00945887
0.0106866
-0.0120289
0.012766
-0.014403
0.0146604
-0.015977
0.0163085
-0.0173149
0.0178799
-0.018046
0.0194925
-0.0188558
-0.0193035
0.02111
-0.000298535
0.00406975
-0.000195251
0.0017425
0.000285562
0.000810097
0.00131564
-0.00156192
0.00286543
-0.00387379
0.0048882
-0.00639021
0.00716805
-0.00906719
0.0094512
-0.011742
0.011542
-0.0141197
0.0133121
-0.0161731
0.0149165
-0.0175813
0.0163762
-0.0187746
0.0178161
-0.0194859
0.0193282
-0.020368
-0.0208656
0.0208903
-0.00026225
0.004332
-5.77393e-05
0.00153799
0.000645433
0.000106925
0.00197503
-0.00289152
0.00377904
-0.0056778
0.00591796
-0.00852913
0.00811638
-0.0112656
0.0101596
-0.0137852
0.0119586
-0.0159188
0.0134869
-0.0177014
0.0149041
-0.0189985
0.0162504
-0.0201208
0.017624
-0.0208594
0.0190746
-0.0218186
-0.0223885
0.0205975
-0.000221279
0.00455328
0.000108484
0.00120823
0.00105531
-0.000839896
0.00266115
-0.00449737
0.00461637
-0.00763302
0.00672351
-0.0106363
0.00873207
-0.0132742
0.0105185
-0.0155717
0.0120795
-0.0174798
0.0134429
-0.0190648
0.0147455
-0.0203011
0.0160197
-0.021395
0.0173565
-0.0221963
0.0187679
-0.0232299
-0.0238826
0.0202619
-0.000173445
0.00472672
0.000309939
0.000724843
0.00150881
-0.00203877
0.00332171
-0.00631027
0.00530713
-0.00961843
0.00727856
-0.0126077
0.00906657
-0.0150622
0.0106337
-0.0171388
0.0120192
-0.0188653
0.0132727
-0.0203183
0.0145025
-0.021531
0.0157302
-0.0226227
0.0170433
-0.0235095
0.0184221
-0.0246086
-0.0253509
0.0198904
-0.000115479
0.0048422
0.000551033
5.83312e-05
0.00198608
-0.00347382
0.00390373
-0.00822791
0.00581927
-0.011534
0.00761133
-0.0143998
0.00919547
-0.0166463
0.0105908
-0.0185342
0.0118496
-0.020124
0.0130284
-0.0214971
0.0142088
-0.0227113
0.0154037
-0.0238176
0.0166949
-0.0248007
0.0180414
-0.0259551
-0.0267956
0.019486
-4.2899e-05
0.0048851
0.000831375
-0.000815943
0.0024545
-0.00509694
0.0043729
-0.0101463
0.00615968
-0.0133208
0.007771
-0.0160111
0.00918315
-0.0180585
0.0104469
-0.019798
0.0116134
-0.0212906
0.0127394
-0.022623
0.0138811
-0.023853
0.0150494
-0.0249859
0.016317
-0.0260683
0.0176297
-0.0272678
-0.0282173
0.0190514
4.45953e-05
0.0048405
0.00114052
-0.00191186
0.00287786
-0.00683428
0.00471988
-0.0119883
0.00635559
-0.0149565
0.0078037
-0.0174592
0.00907566
-0.0193304
0.0102383
-0.0209606
0.0113358
-0.022388
0.0124206
-0.0237079
0.0135282
-0.0249606
0.0146724
-0.0261301
0.0159126
-0.0273086
0.0171897
-0.0285448
-0.0296148
0.0185872
0.000145173
0.00469533
0.00146079
-0.00322749
0.00322928
-0.00860277
0.00495322
-0.0137123
0.00643794
-0.0164412
0.00774538
-0.0187666
0.00890416
-0.0204892
0.00998758
-0.0220441
0.0110307
-0.0234311
0.0120802
-0.0247574
0.0131548
-0.0260353
0.0142751
-0.0272503
0.015483
-0.0285166
0.0167232
-0.029785
-0.0309855
0.0180939
0.000254746
0.00444059
0.00177051
-0.00474325
0.00349839
-0.0103306
0.00508951
-0.0153034
0.00643391
-0.0177856
0.0076223
-0.019955
0.00868918
-0.0215561
0.00970843
-0.0230633
0.0107061
-0.0244288
0.011722
-0.0257732
0.0127641
-0.0270774
0.0138592
-0.0283454
0.0150292
-0.0296866
0.0162314
-0.0309872
-0.0323249
0.0175708
0.000362359
0.00407823
0.0020472
-0.0064281
0.00368846
-0.0119719
0.00514672
-0.0167617
0.00636511
-0.019004
0.00745307
-0.021043
0.00844405
-0.022547
0.0094092
-0.0240285
0.0103663
-0.0253858
0.0113483
-0.0267553
0.0123578
-0.0280869
0.0134249
-0.0294126
0.0145517
-0.0308133
0.0157148
-0.0321503
-0.0336257
0.0170156
0.000460799
0.00361743
0.00227338
-0.00824068
0.0038091
-0.0135076
0.00514105
-0.0180936
0.00624797
-0.0201109
0.00725067
-0.0220457
0.00817737
-0.0234738
0.00909487
-0.024946
0.0100135
-0.0263044
0.0109606
-0.0277025
0.0119368
-0.029063
0.0129715
-0.0304473
0.0140501
-0.0318919
0.0151723
-0.0332725
-0.0348836
0.0164303
0.000551507
0.00306592
0.00244203
-0.0101312
0.00387157
-0.0149372
0.00508605
-0.0193081
0.00609458
-0.0211194
0.0070239
-0.022975
0.00789446
-0.0243443
0.00876815
-0.0258197
0.00964877
-0.027185
0.0105597
-0.0286134
0.0115013
-0.0300046
0.0124992
-0.0314452
0.013532
-0.0329247
0.0146246
-0.0343651
-0.0360743
0.0158153
0.000644513
0.00242141
0.00255785
-0.0120445
0.00388686
-0.0162662
0.00499289
-0.0204141
0.00591427
-0.0220408
0.00677926
-0.02384
0.00759927
-0.0251643
0.00843124
-0.0266516
0.00927352
-0.0280273
0.010147
-0.0294869
0.0110523
-0.0309099
0.0120094
-0.0324023
0.0129989
-0.0339142
0.0140736
-0.0354399
-0.0371759
0.0151753
0.000753275
0.00166813
0.00263069
-0.013922
0.00386414
-0.0174996
0.00486998
-0.02142
0.00571352
-0.0228844
0.00652082
-0.0246473
0.00729389
-0.0259374
0.00808499
-0.0274427
0.00888806
-0.0288304
0.00972278
-0.0303216
0.0105894
-0.0317765
0.011503
-0.033316
0.0124547
-0.0348659
0.0134786
-0.0364638
-0.0382187
0.0145213
0.000888346
0.000779787
0.00266989
-0.0157035
0.00381038
-0.0186401
0.00472367
-0.0223332
0.00549714
-0.0236578
0.00625146
-0.0254016
0.0069798
-0.0266657
0.0077301
-0.028193
0.00849292
-0.0295932
0.00928742
-0.0311161
0.010113
-0.0326021
0.010983
-0.034186
0.0118892
-0.0357721
0.0128648
-0.0374394
-0.0392246
0.0138707
0.00105264
-0.000272851
0.00268221
-0.0173331
0.00373046
-0.0196884
0.00455867
-0.0231615
0.00526862
-0.0243678
0.00597318
-0.0261062
0.00665803
-0.0273506
0.00736711
-0.0289021
0.00808857
-0.0303147
0.00884139
-0.031869
0.00962422
-0.0333849
0.0104476
-0.0350093
0.0113104
-0.0366349
0.0122332
-0.0383622
-0.0401722
0.0131808
0.00123577
-0.00150862
0.00267139
-0.0187687
0.00362769
-0.0206446
0.00437849
-0.0239123
0.00503049
-0.0250198
0.00568739
-0.0267631
0.00632933
-0.0279925
0.00699649
-0.0295693
0.00767548
-0.0309937
0.00838521
-0.0325787
0.00912313
-0.0341228
0.00990005
-0.0357863
0.0107137
-0.0374485
0.0115815
-0.03923
-0.0410738
0.0124831
0.00141361
-0.00292224
0.00263865
-0.0199937
0.00350446
-0.0215105
0.00418584
-0.0245936
0.00478463
-0.0256186
0.00539514
-0.0273736
0.0059943
-0.0285917
0.00661866
-0.0301936
0.00725413
-0.0316292
0.00791929
-0.0332438
0.00861108
-0.0348146
0.00933875
-0.0365139
0.0101034
-0.0382132
0.0109173
-0.0400439
-0.041916
0.0117596
0.00155604
-0.00447828
0.00258429
-0.021022
0.00336321
-0.0222894
0.00398294
-0.0252134
0.00453243
-0.0261681
0.00509722
-0.0279383
0.00565344
-0.0291479
0.00623408
-0.0307743
0.00682499
-0.0322201
0.00744431
-0.0338632
0.00808809
-0.0354584
0.00876633
-0.0371922
0.0094788
-0.0389256
0.0102344
-0.0407995
-0.0427055
0.0110239
0.00164107
-0.00611934
0.00250962
-0.0218905
0.00320901
-0.0229888
0.00377178
-0.0257761
0.00427495
-0.0266712
0.00479428
-0.0284577
0.00530724
-0.0296609
0.00584319
-0.0313102
0.00638859
-0.0327655
0.00696069
-0.0344353
0.00755553
-0.0360532
0.00818202
-0.0378186
0.00884117
-0.0395848
0.00954054
-0.0414989
-0.0434344
0.0102694
0.00166509
-0.00778443
0.00241785
-0.0226433
0.00304532
-0.0236162
0.00355402
-0.0262848
0.00401297
-0.0271302
0.00448686
-0.0289316
0.00495616
-0.0301302
0.00544646
-0.0318005
0.00594543
-0.0332644
0.00646922
-0.0349591
0.00701353
-0.0365975
0.00758773
-0.0383928
0.00819186
-0.0401889
0.00883075
-0.0421378
-0.0441052
0.00950159
0.00164077
-0.0094252
0.00231323
-0.0233158
0.0028745
-0.0241775
0.00333104
-0.0267414
0.00374718
-0.0275463
0.00417544
-0.0293598
0.00460064
-0.0305554
0.00504438
-0.0322443
0.0054961
-0.0337161
0.00597036
-0.0354333
0.00646337
-0.0370905
0.0069835
-0.038913
0.00753099
-0.0407364
0.00811096
-0.0427177
-0.0447136
0.00871929
0.00158607
-0.0110113
0.00219765
-0.0239273
0.00269824
-0.0246781
0.00310394
-0.0271471
0.00347812
-0.0279205
0.00386045
-0.0297422
0.00424113
-0.030936
0.00463748
-0.0326406
0.00504114
-0.0341198
0.00546495
-0.0358571
0.00590537
-0.037531
0.00637068
-0.0393783
0.0068606
-0.0412263
0.00737822
-0.0432354
-0.0452599
0.00792455
0.00151554
-0.0125268
0.0020726
-0.0244844
0.00251773
-0.0251232
0.00287363
-0.027503
0.00320631
-0.0282532
0.00354235
-0.0300782
0.0038781
-0.0312718
0.00422627
-0.0329888
0.00458117
-0.0344747
0.00495351
-0.0362295
0.00534067
-0.0379181
0.00574984
-0.0397875
0.00618059
-0.0416571
0.00663669
-0.0436915
-0.0457416
0.00711842
0.00143718
-0.013964
0.00194054
-0.0249877
0.00233396
-0.0255167
0.00264085
-0.0278099
0.00293223
-0.0285446
0.00322156
-0.0303675
0.00351201
-0.0315622
0.0038113
-0.0332881
0.00411679
-0.0347802
0.00443687
-0.0365496
0.00476978
-0.038251
0.00512202
-0.0401397
0.00549309
-0.0420282
0.00588518
-0.0440836
-0.0461583
0.00630183
0.00135445
-0.0153184
0.00180325
-0.0254365
0.00214774
-0.0258611
0.00240621
-0.0280683
0.00265631
-0.0287947
0.00289853
-0.0306098
0.00314334
-0.0318071
0.00339311
-0.0335378
0.00364865
-0.0350357
0.00391566
-0.0368166
0.00419372
-0.0385291
0.00448806
-0.040434
0.00479818
-0.0423383
0.00512696
-0.0444123
-0.046508
0.00547665
0.00126888
-0.0165873
0.00166215
-0.0258298
0.00195977
-0.0261588
0.00217024
-0.0282788
0.00237899
-0.0290034
0.00257366
-0.0308044
0.0027726
-0.032006
0.00297224
-0.0337375
0.0031774
-0.0352409
0.00339067
-0.0370298
0.00361316
-0.0387516
0.00384886
-0.0406697
0.00409775
-0.0425872
0.00436161
-0.0446762
-0.04679
0.0046436
0.00118132
-0.0177686
0.00151836
-0.0261669
0.00177066
-0.0264111
0.00193338
-0.0284415
0.00210072
-0.0291708
0.00224737
-0.0309511
0.00240035
-0.032159
0.00254922
-0.0338863
0.00270374
-0.0353954
0.00286259
-0.0371887
0.00302908
-0.0389181
0.0032054
-0.0408461
0.00339204
-0.0427738
0.00359124
-0.0448754
-0.0470038
0.00380513
0.00109238
-0.018861
0.00137278
-0.0264473
0.00158097
-0.0266192
0.00169602
-0.0285566
0.00182194
-0.0292967
0.00192006
-0.0310492
0.00202711
-0.032266
0.00212464
-0.0339839
0.0022283
-0.0354991
0.00233225
-0.0372927
0.0024422
-0.039028
0.00255863
-0.0409625
0.00268273
-0.0428979
0.00281578
-0.0450084
-0.0471499
0.00296183
0.0010026
-0.0198636
0.00122618
-0.0266708
0.00139118
-0.0267842
0.00145848
-0.0286239
0.00154311
-0.0293813
0.00159216
-0.0310983
0.00165334
-0.0323272
0.00169921
-0.0340297
0.00175161
-0.0355515
0.00180049
-0.0373415
0.00185335
-0.0390809
0.0019097
-0.0410188
0.00197048
-0.0429587
0.00203687
-0.0450748
-0.0472265
0.00211343
0.000912411
-0.020776
0.00107915
-0.0268376
0.00120177
-0.0269069
0.00122106
-0.0286432
0.00126463
-0.0294249
0.00126419
-0.0310978
0.00127938
-0.0323424
0.00127374
-0.0340241
0.00127419
-0.0355519
0.00126819
-0.0373355
0.0012633
-0.039076
0.00125958
-0.0410151
0.00125687
-0.042956
0.00125577
-0.0450737
-0.0472314
0.00126069
0.000822165
-0.0215982
0.000932066
-0.0269475
0.00101304
-0.0269879
0.000983899
-0.028614
0.000986663
-0.0294276
0.000936403
-0.0310476
0.000905436
-0.0323114
0.000848335
-0.033967
0.000796637
-0.0355002
0.00073528
-0.0372742
0.00067289
-0.0390136
0.000608346
-0.0409506
0.000542078
-0.0428897
0.00047487
-0.0450065
-0.0471601
0.000403582
0.000732296
-0.0223305
0.000785479
-0.0270007
0.000825626
-0.027028
0.000747598
-0.028536
0.000710069
-0.0293901
0.000609402
-0.0309469
0.000533416
-0.0322354
0.000423014
-0.0338566
0.000321951
-0.0353991
0.000201948
-0.0371542
8.56545e-05
-0.0388973
-4.34105e-05
-0.0408215
-0.000170853
-0.0427623
-0.000305226
-0.0448721
-0.0470157
-0.000449649
0.000643062
-0.0229736
0.000639579
-0.0269972
0.000639777
-0.0270282
0.00051199
-0.0284082
0.000435707
-0.0293138
0.000281699
-0.0307929
0.000166189
-0.0321199
-7.97363e-06
-0.0336824
-0.000151143
-0.035256
-0.000326359
-0.036979
-0.00050358
-0.0387201
-0.000688962
-0.0406361
-0.000882947
-0.0425683
-0.00108631
-0.0446688
-0.0468048
-0.00129713
0.000554729
-0.0235283
0.000494536
-0.026937
0.000456044
-0.0269897
0.000276104
-0.0282283
0.000166284
-0.029204
-4.809e-05
-0.0305785
-0.00020489
-0.0319631
-0.000417883
-0.0334695
-0.000628029
-0.0350458
-0.000851266
-0.0367557
-0.00108855
-0.0384828
-0.00133379
-0.0403909
-0.0015917
-0.0423104
-0.00186266
-0.0443978
-0.046525
-0.0021425
0.000467533
-0.0239958
0.000350242
-0.0268197
0.000275528
-0.026915
3.36928e-05
-0.0279865
-0.000104615
-0.0290657
-0.00035663
-0.0303265
-0.000578462
-0.0317413
-0.000831342
-0.0332166
-0.00109887
-0.0347783
-0.00137485
-0.0364797
-0.00166887
-0.0381888
-0.00197528
-0.0400845
-0.00229633
-0.0419893
-0.00263359
-0.0440606
-0.0461752
-0.00298336
0.000381725
-0.0243775
0.000205796
-0.0266438
0.000100932
-0.0268101
-0.000181537
-0.027704
-0.000385397
-0.0288618
-0.000667544
-0.0300443
-0.000945874
-0.0314629
-0.00124355
-0.0329189
-0.00156441
-0.0344574
-0.0018953
-0.0361489
-0.00224469
-0.0378394
-0.00261195
-0.0397172
-0.00299557
-0.0416057
-0.00339843
-0.0436577
-0.0457557
-0.00381794
0.000297648
-0.0246752
5.67524e-05
-0.0264029
-7.86027e-05
-0.0266748
-0.000396482
-0.0273861
-0.000658755
-0.0285996
-0.00097733
-0.0297258
-0.00130788
-0.0311324
-0.00165306
-0.0325737
-0.00202471
-0.0340858
-0.00241112
-0.0357625
-0.00281571
-0.0374348
-0.00324271
-0.0392902
-0.00368839
-0.04116
-0.00415602
-0.0431901
-0.0452672
-0.00464459
0.000215778
-0.024891
-7.37904e-05
-0.0261133
-0.000268892
-0.0264797
-0.000611219
-0.0270438
-0.000926809
-0.028284
-0.00128484
-0.0293677
-0.00166455
-0.0307527
-0.00205877
-0.0321795
-0.0024797
-0.0336648
-0.00292105
-0.0353211
-0.00338102
-0.0369748
-0.00386668
-0.0388046
-0.00437368
-0.040653
-0.00490546
-0.0426583
-0.0447107
-0.0054619
0.000136771
-0.0250277
-0.000192897
-0.0257836
-0.000450725
-0.0262218
-0.000824149
-0.0266704
-0.00118975
-0.0279184
-0.00158923
-0.0289683
-0.00201584
-0.0303261
-0.00245961
-0.0317357
-0.00292913
-0.0331953
-0.00342427
-0.034826
-0.00393948
-0.0364596
-0.00448301
-0.038261
-0.00505052
-0.0400855
-0.00564555
-0.0420633
-0.0440876
-0.00626868
6.19432e-05
-0.0250897
-0.000313246
-0.0254084
-0.000627294
-0.0259078
-0.00103469
-0.026263
-0.00144768
-0.0275054
-0.00188973
-0.0285262
-0.00236159
-0.0298542
-0.00285469
-0.0312426
-0.00337252
-0.0326775
-0.00392017
-0.0342783
-0.00449009
-0.0358897
-0.00509074
-0.0376604
-0.00571793
-0.0394583
-0.00637539
-0.0414058
-0.0433994
-0.00706361
-6.50901e-06
-0.0250832
-0.000432637
-0.0249823
-0.000799277
-0.0255412
-0.00124223
-0.02582
-0.00170049
-0.0270471
-0.00218566
-0.028041
-0.00270159
-0.0293383
-0.00324323
-0.030701
-0.00380918
-0.0321115
-0.00440818
-0.0336793
-0.00503197
-0.0352659
-0.00568897
-0.0370034
-0.00637495
-0.0387723
-0.00709388
-0.0406869
-0.0426479
-0.00784539
-0.000101605
-0.0249816
-0.000550478
-0.0245334
-0.000966845
-0.0251248
-0.00144632
-0.0253405
-0.00194808
-0.0265454
-0.00247639
-0.0275127
-0.00303553
-0.0287792
-0.00362462
-0.0301119
-0.00423836
-0.0314978
-0.00488766
-0.03303
-0.00556436
-0.0345892
-0.00627676
-0.036291
-0.00702054
-0.0380286
-0.0077998
-0.0399076
-0.0418352
-0.0086125
-0.000183784
-0.0247978
-0.000665846
-0.0240514
-0.00112996
-0.0246607
-0.00164653
-0.024824
-0.00219029
-0.0260016
-0.00276137
-0.0269416
-0.00336303
-0.0281775
-0.00399832
-0.0294766
-0.0046593
-0.0308368
-0.00535795
-0.0323314
-0.00608652
-0.0338607
-0.00685326
-0.0355242
-0.00765364
-0.0372282
-0.00849159
-0.0390696
-0.0409624
-0.00936434
-0.0002615
-0.0245363
-0.000778722
-0.0235342
-0.00128862
-0.0241508
-0.00184247
-0.0242701
-0.00242693
-0.0254171
-0.00304008
-0.0263285
-0.00368363
-0.027534
-0.00436387
-0.0287964
-0.00507132
-0.0301294
-0.00581836
-0.0315843
-0.00659775
-0.0330813
-0.0074177
-0.0347043
-0.00827339
-0.0363725
-0.00916807
-0.038175
-0.0400289
-0.0101016
-0.000335736
-0.0242005
-0.0008888
-0.0229811
-0.00144276
-0.0235968
-0.00203377
-0.0236791
-0.00265776
-0.0247931
-0.00331209
-0.0256742
-0.00399685
-0.0268492
-0.00472079
-0.0280724
-0.00547378
-0.0293764
-0.0062682
-0.0307899
-0.00709734
-0.0322521
-0.00796935
-0.0338323
-0.00887929
-0.0354626
-0.0098299
-0.0372244
-0.0390326
-0.0108262
-0.000406894
-0.0237937
-0.000995911
-0.0223921
-0.00159231
-0.0230004
-0.00222012
-0.0230513
-0.00288254
-0.0241307
-0.00357698
-0.0249797
-0.00430221
-0.026124
-0.0050686
-0.027306
-0.00586608
-0.0285789
-0.0067068
-0.0299492
-0.00758456
-0.0313744
-0.00850749
-0.0329093
-0.00947094
-0.0344991
-0.0104788
-0.0362165
-0.037978
-0.0115334
-0.000475141
-0.0233185
-0.00109988
-0.0217673
-0.00173718
-0.0223631
-0.00240121
-0.0223873
-0.00310102
-0.0234309
-0.00383437
-0.0242464
-0.00459922
-0.0253591
-0.00540682
-0.0264984
-0.00624765
-0.0277381
-0.00713349
-0.0290633
-0.00805868
-0.0304492
-0.00903132
-0.0319367
-0.0100473
-0.0334831
-0.0111117
-0.0351521
-0.0368791
-0.0122106
-0.000540563
-0.022778
-0.00120056
-0.0211073
-0.00187725
-0.0216864
-0.00257674
-0.0216878
-0.0033129
-0.0226948
-0.0040839
-0.0234754
-0.00488741
-0.0245556
-0.00573497
-0.0256509
-0.00661794
-0.0268551
-0.00754762
-0.0281337
-0.00851893
-0.0294779
-0.00953984
-0.0309158
-0.0106064
-0.0324165
-0.0117194
-0.0340391
-0.0357384
-0.0128601
-0.000603201
-0.0221748
-0.00129782
-0.0204127
-0.00201243
-0.0209718
-0.00274647
-0.0209537
-0.00351792
-0.0219233
-0.00432524
-0.0226681
-0.00516634
-0.0237145
-0.00605256
-0.0247647
-0.00697639
-0.0259313
-0.00794856
-0.0271615
-0.0089645
-0.0284619
-0.0100318
-0.0298485
-0.0111463
-0.0313019
-0.0123074
-0.032878
-0.034541
-0.0135049
-0.00066307
-0.0215117
-0.00139153
-0.0196843
-0.00214259
-0.0202208
-0.00291013
-0.0201862
-0.00371578
-0.0211176
-0.00455806
-0.0218258
-0.00543557
-0.022837
-0.00635914
-0.0238411
-0.00732247
-0.0249679
-0.00833568
-0.0261483
-0.00939461
-0.027403
-0.0105062
-0.028737
-0.0116682
-0.0301399
-0.0129039
-0.0316424
-0.0332455
-0.0141993
-0.000720205
-0.0207915
-0.00148162
-0.0189228
-0.00226769
-0.0194347
-0.0030676
-0.0193863
-0.00390633
-0.0202789
-0.00478221
-0.0209499
-0.00569491
-0.0219243
-0.00665448
-0.0228815
-0.00765593
-0.0239665
-0.00870866
-0.0250955
-0.00980901
-0.0263027
-0.0109635
-0.0275825
-0.0121705
-0.0289329
-0.0134352
-0.0303777
-0.0318724
-0.0148083
-0.000774535
-0.0200169
-0.00156787
-0.0181295
-0.00238743
-0.0186151
-0.00321845
-0.0185553
-0.00408903
-0.0194083
-0.00499704
-0.0200419
-0.00594357
-0.0209778
-0.00693766
-0.0218874
-0.00797571
-0.0229284
-0.0090663
-0.0240049
-0.0102064
-0.0251625
-0.0114024
-0.0263865
-0.0126532
-0.0276821
-0.0139717
-0.0290592
-0.0304696
-0.0153745
-0.000826083
-0.0191909
-0.00165024
-0.0173053
-0.00250179
-0.0177636
-0.00336259
-0.0176945
-0.00426374
-0.0185072
-0.00520243
-0.0191032
-0.00618138
-0.0199988
-0.00720852
-0.0208603
-0.00828158
-0.0218554
-0.00940832
-0.0228782
-0.0105866
-0.0239843
-0.011823
-0.0251501
-0.0131197
-0.0263853
-0.01449
-0.027689
-0.0290349
-0.0159247
-0.000874832
-0.018316
-0.00172863
-0.0164515
-0.00261062
-0.0168816
-0.00349981
-0.0168053
-0.0044302
-0.0175768
-0.00539809
-0.0181353
-0.00640799
-0.0189889
-0.00746662
-0.0198017
-0.00857308
-0.0207489
-0.00973424
-0.021717
-0.0109488
-0.0227697
-0.0122234
-0.0238755
-0.0135609
-0.0250478
-0.0149718
-0.0262781
-0.0275576
-0.0164491
-0.000920767
-0.0173953
-0.00180294
-0.0155694
-0.0027138
-0.0159707
-0.00362995
-0.0158891
-0.00458818
-0.0166186
-0.00558375
-0.0171397
-0.00662307
-0.0179496
-0.0077116
-0.0187131
-0.00884975
-0.0196108
-0.0100436
-0.0205232
-0.0112931
-0.0215203
-0.0126051
-0.0225635
-0.0139826
-0.0236702
-0.0154318
-0.0248289
-0.0260411
-0.0169483
-0.000963871
-0.0164314
-0.00187307
-0.0146602
-0.00281121
-0.0150326
-0.00375282
-0.0149475
-0.00473744
-0.015634
-0.00575913
-0.016118
-0.0068263
-0.0168824
-0.00794308
-0.0175964
-0.00911118
-0.0184427
-0.0103359
-0.0192984
-0.011618
-0.0202381
-0.0129643
-0.0212173
-0.0143777
-0.0222568
-0.0158635
-0.0233431
-0.0244848
-0.0174198
-0.00100413
-0.0154273
-0.00193895
-0.0137254
-0.00290273
-0.0140688
-0.00386826
-0.013982
-0.00487775
-0.0146245
-0.005924
-0.0150718
-0.00701738
-0.0157891
-0.00816071
-0.016453
-0.00935702
-0.0172464
-0.0106109
-0.0180446
-0.0119243
-0.0189248
-0.0133033
-0.0198382
-0.0147506
-0.0208095
-0.0162703
-0.0218235
-0.022892
-0.0178631
-0.00104152
-0.0143857
-0.00200049
-0.0127664
-0.00298825
-0.0130811
-0.00397612
-0.0129941
-0.00500892
-0.0135917
-0.00607812
-0.0140026
-0.00719601
-0.0146712
-0.00836415
-0.0152849
-0.00958682
-0.0160237
-0.0108678
-0.0167635
-0.01221
-0.0175826
-0.013619
-0.0184292
-0.0150977
-0.0193308
-0.01665
-0.0202712
-0.0212648
-0.0182773
-0.00107605
-0.0133097
-0.00205761
-0.0117848
-0.00306764
-0.012071
-0.00407626
-0.0119855
-0.00513075
-0.0125372
-0.00622125
-0.0129121
-0.00736195
-0.0135305
-0.00855315
-0.0140937
-0.00980037
-0.0147765
-0.0111068
-0.0154571
-0.012476
-0.0162133
-0.0139129
-0.0169923
-0.0154205
-0.0178232
-0.0170026
-0.018689
-0.0196057
-0.0186617
-0.00110768
-0.012202
-0.00211025
-0.0107823
-0.00314081
-0.0110405
-0.00416854
-0.0109578
-0.00524306
-0.0114626
-0.00635321
-0.0118019
-0.00751493
-0.0123687
-0.00872735
-0.0128813
-0.00999716
-0.0135067
-0.0113268
-0.0141275
-0.0127208
-0.0148194
-0.0141833
-0.0155298
-0.0157176
-0.0162889
-0.0173276
-0.017079
-0.0179174
-0.0190159
-0.00113643
-0.0110656
-0.00215833
-0.00976036
-0.00320767
-0.00999112
-0.00425284
-0.00991259
-0.00534569
-0.0103698
-0.00647378
-0.0106738
-0.00765474
-0.0111878
-0.00888658
-0.0116494
-0.0101771
-0.0122161
-0.0115281
-0.0127765
-0.0129447
-0.0134028
-0.0144305
-0.0140441
-0.0159891
-0.0147302
-0.0176244
-0.0154437
-0.0162025
-0.0193394
-0.00116231
-0.00990326
-0.00220178
-0.00872089
-0.00326811
-0.0089248
-0.00432904
-0.00885166
-0.00543849
-0.00926034
-0.00658281
-0.00952953
-0.00778116
-0.00998942
-0.00903053
-0.0104001
-0.0103398
-0.0109069
-0.01171
-0.0114062
-0.013147
-0.0119658
-0.0146538
-0.0125373
-0.0162345
-0.0131496
-0.0178926
-0.0137856
-0.0144634
-0.0196316
-0.00118545
-0.00871781
-0.00224057
-0.00766577
-0.00332206
-0.00784331
-0.00439704
-0.00777668
-0.00552132
-0.00813606
-0.00668013
-0.00837072
-0.00789402
-0.00877552
-0.00915905
-0.00913505
-0.010485
-0.00958088
-0.0118725
-0.0100187
-0.0133277
-0.0105106
-0.0148532
-0.0110118
-0.0164534
-0.0115494
-0.0181318
-0.0121072
-0.0127029
-0.0198923
-0.00120584
-0.00751197
-0.00227463
-0.00659698
-0.00336943
-0.0067485
-0.00445675
-0.00668936
-0.00559407
-0.00699874
-0.00676559
-0.0071992
-0.00799314
-0.00754797
-0.00927191
-0.00785629
-0.0106126
-0.0082402
-0.0120151
-0.00861622
-0.0134863
-0.00903947
-0.0150282
-0.00946985
-0.0166456
-0.00993201
-0.0183417
-0.0104111
-0.0109236
-0.020121
-0.0012234
-0.00628858
-0.00230392
-0.00551646
-0.00341017
-0.00564224
-0.00450809
-0.00559144
-0.00565662
-0.00585021
-0.00683907
-0.00601675
-0.00807838
-0.00630867
-0.00936897
-0.0065657
-0.0107223
-0.00688689
-0.0121378
-0.00720074
-0.0136226
-0.00755462
-0.0151786
-0.00791385
-0.0168107
-0.00829991
-0.018522
-0.00869978
-0.0091282
-0.0203174
-0.00123809
-0.00505049
-0.00232839
-0.00442617
-0.00344422
-0.00452641
-0.00455098
-0.00448468
-0.00570889
-0.00469229
-0.00690047
-0.00482517
-0.00814961
-0.00505954
-0.00945007
-0.00526523
-0.0108139
-0.00552301
-0.0122403
-0.00577443
-0.0137366
-0.00605831
-0.0153043
-0.00634609
-0.0169487
-0.00665555
-0.0186726
-0.00697584
-0.00731944
-0.0204814
-0.00124989
-0.0038006
-0.00234801
-0.00332804
-0.00347151
-0.00340291
-0.00458537
-0.00337083
-0.00575081
-0.00352685
-0.00694971
-0.00362627
-0.00820672
-0.00380252
-0.00951511
-0.00395685
-0.0108875
-0.00415067
-0.0123224
-0.00433946
-0.0138279
-0.00455282
-0.0154051
-0.00476893
-0.0170592
-0.00500138
-0.0187932
-0.00524184
-0.00550004
-0.0206126
-0.00125875
-0.00254185
-0.00236275
-0.00222405
-0.00349202
-0.00227363
-0.0046112
-0.00225165
-0.0057823
-0.00235576
-0.0069867
-0.00242187
-0.00824964
-0.00253958
-0.00956398
-0.00264251
-0.0109427
-0.00277195
-0.0123842
-0.00289797
-0.0138966
-0.00304045
-0.0154808
-0.0031847
-0.0171423
-0.00333986
-0.0188838
-0.00350032
-0.00367271
-0.0207111
-0.00126467
-0.00127717
-0.00237259
-0.00111613
-0.00350571
-0.00114051
-0.00462845
-0.00112891
-0.00580332
-0.00118088
-0.0070114
-0.0012138
-0.0082783
-0.00127267
-0.00959661
-0.00132419
-0.0109796
-0.00138898
-0.0124254
-0.00145214
-0.0139424
-0.00152347
-0.0155313
-0.00159576
-0.0171977
-0.00167345
-0.0189443
-0.00175382
-0.00184014
-0.0207768
-0.00126764
-9.53644e-06
-0.00237751
-6.25234e-06
-0.00351257
-5.46077e-06
-0.00463708
-4.39766e-06
-0.00581385
-4.11345e-06
-0.00702377
-3.88303e-06
-0.00829266
-3.77981e-06
-0.00961297
-3.88766e-06
-0.0109981
-3.88604e-06
-0.0124461
-4.12157e-06
-0.0139654
-4.18945e-06
-0.0155567
-4.45297e-06
-0.0172255
-4.59274e-06
-0.0189745
-4.82385e-06
-4.94532e-06
-0.0208097
-0.00126763
0.0012581
-0.00237751
0.00110363
-0.00351257
0.00112959
-0.00463709
0.00112012
-0.00581387
0.00117266
-0.00702379
0.00120604
-0.00829269
0.00126512
-0.00961301
0.00131643
-0.0109981
0.00138122
-0.0124461
0.0014439
-0.0139654
0.0015151
-0.0155567
0.00158686
-0.0172256
0.00166427
-0.0189746
0.00174417
0.00183023
-0.0208098
-0.00126467
0.00252276
-0.00237258
0.00221154
-0.00350572
0.00226273
-0.00462847
0.00224288
-0.00580336
0.00234756
-0.00701146
0.00241414
-0.00827839
0.00253205
-0.00959673
0.00263477
-0.0109797
0.00276421
-0.0124256
0.00288976
-0.0139426
0.00303209
-0.0155315
0.00317582
-0.017198
0.00333069
-0.0189445
0.00349068
0.0036628
-0.020777
-0.00125874
0.0037815
-0.00236274
0.00331555
-0.00349203
0.00339201
-0.00461124
0.00336209
-0.00578237
0.00351869
-0.00698681
0.00361858
-0.00824979
0.00379503
-0.00956417
0.00394915
-0.0109429
0.00414296
-0.0123844
0.00433128
-0.0138969
0.0045445
-0.0154811
0.00476007
-0.0171426
0.00499223
-0.0188842
0.00523221
0.00549012
-0.0207115
-0.00124986
0.00503137
-0.00234799
0.00441367
-0.00347152
0.00451554
-0.00458541
0.00447598
-0.0057509
0.00468418
-0.00694986
0.00481753
-0.00820693
0.00505211
-0.00951537
0.00525759
-0.0108878
0.00551536
-0.0123228
0.00576631
-0.0138283
0.00605003
-0.0154055
0.00633728
-0.0170597
0.00664643
-0.0187938
0.00696623
0.00730952
-0.0206132
-0.00123806
0.00626943
-0.00232836
0.00550397
-0.00344422
0.0056314
-0.00455104
0.0055828
-0.00570902
0.00584216
-0.00690067
0.00600918
-0.00814987
0.00630131
-0.00945041
0.00655813
-0.0108144
0.00687931
-0.0122407
0.00719268
-0.0137371
0.0075464
-0.0153049
0.00790509
-0.0169493
0.00829083
-0.0186733
0.00869019
0.00911827
-0.020482
-0.00122336
0.00749279
-0.00230389
0.0065845
-0.00341018
0.00673769
-0.00450816
0.00668078
-0.00565677
0.00699077
-0.00683931
0.00719172
-0.0080787
0.00754071
-0.00936938
0.00784881
-0.0107228
0.00823271
-0.0121384
0.00860825
-0.0136233
0.00903133
-0.0151794
0.00946116
-0.0168115
0.00992298
-0.0185229
0.0104015
0.0109137
-0.0203182
-0.00120579
0.00869858
-0.00227459
0.0076533
-0.00336944
0.00783254
-0.00445683
0.00776817
-0.00559424
0.00812818
-0.00676587
0.00836334
-0.00799352
0.00876836
-0.0092724
0.00912769
-0.0106132
0.00957349