/*--------------------------------*- C++ -*----------------------------------*\
  =========                 |
  \\      /  F ield         | OpenFOAM: The Open Source CFD Toolbox
   \\    /   O peration     | Website:  https://openfoam.org
    \\  /    A nd           | Version:  7
     \\/     M anipulation  |
\*---------------------------------------------------------------------------*/
FoamFile
{
    version     2.0;
    format      ascii;
    class       volVectorField;
    location    "4.4";
    object      U;
}
// * * * * * * * * * * * * * * * * * * * * * * * * * * * * * * * * * * * * * //

dimensions      [0 1 -1 0 0 0 0];

internalField   nonuniform List<vector> 
19392
(
(0.451498 0.00575394 3.08529e-17)
(0.343693 0.00752992 -2.14722e-16)
(0.80946 0.00282156 -3.08388e-17)
(0.999147 0.000277416 5.27965e-16)
(0.998039 -9.11006e-05 -1.14408e-14)
(0.999754 -0.000227817 3.0066e-16)
(0.485035 0.00333346 4.2616e-17)
(0.827333 0.00285567 4.57764e-18)
(0.844052 0.00195196 -9.85263e-18)
(0.272351 0.00465907 -9.52637e-17)
(0.291288 0.00451898 -1.12793e-16)
(0.996764 -0.000182083 -2.96481e-15)
(0.992896 4.46845e-05 -2.7078e-16)
(0.990738 -5.74508e-05 -4.45453e-16)
(0.987976 -0.0007128 -3.95658e-16)
(0.984206 -7.04338e-05 1.85607e-16)
(0.97229 0.00194568 6.88612e-18)
(0.215892 0.00451281 -4.19363e-16)
(0.177587 0.00440611 4.57494e-17)
(0.1405 0.00412844 1.5284e-16)
(0.253226 0.00485637 -8.97087e-17)
(0.0847837 0.00436264 5.00797e-17)
(0.047354 0.00456839 1.0257e-16)
(0.309941 0.00438625 -1.24165e-16)
(0.365782 0.00134054 -5.72761e-18)
(0.417454 0.00398594 9.91737e-18)
(0.999565 -0.000209777 -2.10813e-16)
(0.468884 0.00429647 3.59656e-17)
(0.999094 -7.79086e-05 -2.99018e-16)
(0.521053 0.00114863 5.36218e-17)
(0.566206 0.00436723 9.29431e-17)
(0.596944 0.00315886 1.16636e-16)
(0.0124022 0.00387321 4.78017e-17)
(0.998714 6.86555e-06 -5.83836e-16)
(0.626587 0.00490471 1.26367e-16)
(0.999938 -0.00013215 -1.21319e-16)
(0.664782 0.00499911 2.63499e-16)
(0.692526 0.00284941 1.09412e-16)
(0.717167 0.00245692 -6.12452e-17)
(0.740653 0.00271087 1.93085e-17)
(0.998261 -9.41945e-05 -4.33119e-15)
(0.76166 0.00159103 3.75857e-17)
(0.78128 0.00130326 -5.61514e-18)
(0.799977 0.000331439 -2.71871e-17)
(0.99984 6.59873e-05 8.95047e-17)
(0.818584 0.00227655 -1.28203e-17)
(0.83571 0.00238496 3.47061e-18)
(0.851784 0.00125832 1.1449e-17)
(0.866178 0.00301185 -9.92462e-18)
(0.196276 0.00438224 -3.46672e-17)
(0.159082 0.00434852 1.56322e-16)
(0.234319 0.00482844 1.39528e-16)
(0.550461 0.0080174 9.2511e-17)
(0.581792 0.00322485 1.0444e-16)
(0.0293412 0.00451596 1.56578e-16)
(0.611678 0.00354548 1.24362e-16)
(0.679513 0.0022949 1.38932e-16)
(0.998685 0.00020685 2.04518e-15)
(0.704975 0.0023759 -1.07002e-17)
(0.997175 -0.000132767 -2.15193e-15)
(0.729111 0.00266819 -8.32103e-18)
(0.752529 0.00265211 3.36203e-17)
(0.999706 -4.57191e-05 4.49311e-17)
(0.879903 0.00151267 -3.49875e-17)
(0.791067 -4.91722e-05 -4.19617e-17)
(0.400008 0.00418966 1.77689e-16)
(0.434598 0.00439021 3.42846e-18)
(0.892214 0.00174788 -1.49132e-17)
(0.997013 -0.000506384 9.70833e-16)
(0.995445 -0.000234662 -1.73059e-15)
(0.993514 -0.0001863 -9.70811e-16)
(0.903348 0.00164774 -1.57243e-18)
(0.997053 -8.96805e-05 -4.47105e-16)
(0.991391 -0.000102697 -2.86158e-16)
(0.886282 0.00154789 -2.20655e-17)
(0.769857 0.00379249 3.54607e-17)
(0.988728 -0.00064624 2.48903e-16)
(0.995893 -0.000204495 2.99822e-15)
(0.985719 -0.000288859 3.97188e-16)
(0.897889 0.00183507 -1.36474e-17)
(0.917816 0.000459147 -3.15534e-17)
(0.981666 -2.99344e-05 -1.11122e-16)
(0.978352 0.000343702 1.74402e-16)
(0.927194 0.00118245 -1.20609e-17)
(0.974407 0.00120814 -3.13076e-17)
(0.935211 0.000781267 1.98953e-17)
(0.989734 -0.000269681 5.47398e-16)
(0.968769 0.00109721 1.78458e-16)
(0.942795 -0.000130724 -5.9735e-17)
(0.964109 0.000207955 1.53688e-17)
(0.959211 0.000873262 1.16028e-16)
(0.987048 -0.000577044 -5.99215e-17)
(0.949955 -0.00057115 -6.69309e-17)
(0.982873 -3.62188e-05 -2.00129e-16)
(0.922475 0.00133178 -1.99383e-17)
(0.931312 0.00112753 8.67577e-18)
(0.93903 0.000356527 2.9278e-18)
(0.966318 9.20817e-05 7.27357e-17)
(0.382671 0.00412321 1.27417e-17)
(0.999463 2.38748e-08 1.04864e-15)
(0.502283 0.00560114 5.41224e-17)
(0.992065 -7.83829e-05 9.27221e-16)
(0.993971 -6.97271e-06 1.57956e-15)
(0.0659491 0.0044166 4.58723e-17)
(0.946379 -0.000381657 -9.51551e-17)
(0.908673 0.000707073 3.02005e-17)
(0.976278 0.000722766 4.60684e-17)
(0.326616 0.00600322 -1.61985e-16)
(0.980229 9.71278e-05 1.66376e-16)
(0.994875 1.16034e-05 -2.31481e-16)
(0.858137 0.00131294 1.74267e-17)
(0.103371 0.00427965 8.47467e-17)
(0.997772 0.000362069 1.00473e-14)
(0.121956 0.00425335 1.20252e-16)
(0.953487 -0.00059977 8.80253e-18)
(0.999253 0.000262647 1.09258e-15)
(0.999857 -4.72276e-05 3.30021e-17)
(0.636825 0.00482083 8.69556e-17)
(0.956089 -0.001647 3.97941e-17)
(0.873539 -0.000786262 -3.12521e-17)
(0.961801 -0.000681709 7.93575e-17)
(0.536428 0.00015192 5.91396e-17)
(0.99968 -0.000212222 2.75563e-17)
(0.652428 -0.00124554 2.12258e-16)
(0.91349 -8.63712e-05 1.7023e-17)
(0.970757 0.00045612 1.5148e-16)
(0.00279349 0.00109097 -2.96411e-17)
(0.0469294 0.211716 2.13212e-17)
(0.501705 0.0127826 6.63014e-17)
(0.999218 0.0117227 -2.05796e-17)
(0.0660491 0.00147563 -4.96514e-18)
(0.705861 0.340911 7.81155e-18)
(1.06167 -0.00789579 -1.21045e-18)
(1.17209 -0.417949 2.10835e-17)
(0.288455 0.0351887 1.03333e-17)
(0.913855 0.12501 -9.83165e-18)
(1.00286 0.00198733 -3.00945e-18)
(0.647645 0.182938 -9.05122e-17)
(1.03554 0.296147 2.38888e-17)
(-0.639621 -0.0243916 -3.41108e-18)
(0.430529 0.559695 6.16893e-19)
(1.04232 0.013602 -2.18544e-16)
(-0.0468081 0.567684 6.02175e-18)
(0.920594 0.103072 -4.78906e-17)
(-0.0645683 -0.0103124 3.1362e-18)
(-0.352529 0.499973 6.76826e-18)
(1.00452 0.00813065 -5.69561e-18)
(0.609913 0.726483 -2.59315e-17)
(-0.67857 0.0348989 -1.07323e-17)
(1.06053 0.00635317 -8.77125e-20)
(1.06173 0.0034129 2.65387e-19)
(1.00089 0.00409794 1.50904e-18)
(0.674312 0.315457 1.00309e-17)
(0.964862 0.0575458 4.89908e-18)
(0.859131 0.0776903 5.88306e-18)
(1.03846 0.0143528 1.86166e-16)
(0.669941 0.0894476 -4.19865e-17)
(1.31855 -0.381451 -4.43652e-18)
(0.993984 0.00233991 6.60255e-17)
(0.966149 0.00142778 3.30165e-16)
(-0.0627124 -0.0314748 8.34429e-18)
(0.818837 0.00634538 3.57661e-16)
(-0.00109825 -0.00107079 8.84526e-18)
(0.712211 0.506777 2.56422e-17)
(0.883668 0.0447398 9.42504e-18)
(0.259714 0.553254 -4.78082e-18)
(1.1952 0.284204 2.46081e-17)
(0.245649 0.531141 -2.9197e-17)
(1.21948 -0.471534 1.05779e-19)
(0.419973 0.202838 -1.48556e-16)
(0.998558 0.0143067 1.25664e-17)
(-0.0843711 -0.0492641 4.09346e-17)
(0.547006 0.320198 -6.60176e-17)
(0.997601 0.000237154 -1.07897e-14)
(1.0194 0.4921 2.01871e-17)
(-0.749742 0.00246345 -2.70894e-18)
(1.32438 -0.429066 -5.48703e-18)
(0.691404 -0.640291 2.46881e-18)
(1.08482 0.00411353 6.43468e-18)
(0.990108 0.168194 1.632e-17)
(0.202907 -0.00879539 5.29492e-18)
(1.02913 0.00575736 -1.50854e-18)
(0.246195 0.0654921 1.2093e-17)
(0.99427 0.00145787 1.84407e-17)
(1.02966 0.289414 1.76061e-17)
(0.606816 0.494449 1.06828e-17)
(0.999849 0.000219161 -1.05568e-17)
(0.948985 0.195969 -2.62771e-18)
(0.988401 0.2184 3.6541e-18)
(0.245771 0.527258 -2.62381e-17)
(0.359527 0.0197028 -3.65342e-16)
(0.561807 0.306283 -2.59172e-18)
(1.00222 0.0529749 -8.49036e-19)
(-0.115269 0.583647 3.25769e-18)
(-0.42323 0.284794 -6.65183e-18)
(0.988994 0.00861528 -2.9633e-17)
(1.03995 0.0105265 -7.64127e-17)
(-0.104592 -0.00961618 5.38099e-18)
(0.887465 0.0410732 1.2752e-17)
(0.815518 0.40375 3.30188e-17)
(-0.0690383 -0.20127 -2.3572e-17)
(1.14247 0.2222 9.88862e-18)
(1.05162 0.0405282 4.25873e-18)
(0.0866687 0.312491 1.40346e-17)
(1.10703 0.0139533 1.17157e-17)
(1.00289 0.00318038 -7.11312e-18)
(0.125979 -0.0284643 -2.68412e-18)
(-0.518066 0.0673969 -1.37561e-17)
(0.654296 0.185337 -5.42267e-17)
(0.0508352 -0.0045464 1.94984e-17)
(0.299829 0.610201 -5.70886e-18)
(1.0737 0.0237696 6.36131e-18)
(-0.534149 0.228242 -1.03265e-17)
(-0.717574 0.037198 -1.37481e-17)
(0.0690605 0.00334666 2.90286e-18)
(1.09184 0.0546156 4.94962e-18)
(1.36421 -0.137417 9.40478e-18)
(0.999602 0.00266995 -1.70165e-17)
(0.999955 0.000299301 -2.07361e-17)
(1.02291 0.00452766 2.11765e-18)
(1.00211 0.162107 2.42116e-17)
(0.695414 0.149096 -7.23261e-17)
(-0.0814462 -0.0523753 4.37846e-17)
(-0.00731913 -0.00684839 7.59931e-18)
(0.389722 0.431949 -1.01321e-18)
(0.187637 0.477353 1.25958e-19)
(1.01488 0.0369003 -2.74234e-18)
(0.847664 0.025395 1.38139e-17)
(0.146797 0.240532 9.37762e-17)
(0.956395 0.0353803 -7.05905e-18)
(0.983592 0.0124963 -2.28499e-17)
(1.00662 0.0285058 -2.1232e-18)
(0.699462 0.52503 2.10093e-17)
(0.0584225 -0.00536546 2.71336e-17)
(1.19757 -0.412706 1.89703e-18)
(-0.0908018 -0.00732855 3.32682e-17)
(0.884646 0.557411 1.59226e-17)
(-0.0318783 0.0232143 1.40348e-17)
(0.474226 0.654058 -2.02848e-17)
(1.05898 -0.00914395 -3.27733e-18)
(0.615891 0.496365 4.71066e-18)
(1.0097 0.48429 3.67879e-17)
(-0.479469 -0.122045 2.36597e-18)
(1.04122 0.0157739 -1.26174e-17)
(0.907156 0.123109 1.09216e-17)
(0.877354 0.389517 4.41943e-17)
(0.739261 0.768399 -2.56902e-17)
(0.632538 0.143375 -2.20363e-17)
(0.972684 0.00218752 -4.43633e-17)
(0.790999 0.0341688 -4.31555e-17)
(0.240622 0.364096 -3.982e-17)
(-0.0651362 -0.00308502 2.10571e-17)
(0.91036 0.0168499 -1.94281e-16)
(-0.16392 0.170367 8.56775e-19)
(-0.124234 -0.200051 -2.19928e-17)
(0.198349 0.314112 -5.18691e-17)
(1.02755 0.00451251 -4.38576e-18)
(0.848361 0.909889 -3.58438e-17)
(0.419526 0.302954 2.72776e-17)
(0.412454 0.201953 -1.40993e-16)
(0.86138 0.0235827 -5.16523e-17)
(0.395398 0.735235 -9.81422e-18)
(1.0006 0.058104 1.16683e-17)
(0.547968 0.161448 -7.92418e-18)
(1.00048 -0.000224329 -2.15184e-18)
(0.989385 0.00808833 -2.44353e-17)
(-0.0529333 -0.00838163 6.07226e-19)
(0.242669 0.540009 -2.89122e-17)
(0.47258 0.563863 -1.36332e-17)
(0.973861 0.000698703 1.41533e-16)
(0.606503 -0.608639 7.79259e-19)
(0.917249 0.127886 -1.45249e-17)
(-0.629199 -0.0875071 -1.8244e-17)
(0.360359 0.67884 -8.0917e-18)
(-0.434697 -0.130545 9.96665e-18)
(-0.00317621 0.245446 -1.86708e-17)
(0.964369 0.011401 -1.54685e-17)
(1.0306 0.0171268 5.9001e-14)
(0.998597 0.000714316 -3.23625e-15)
(0.674768 -0.64533 1.73368e-18)
(-0.0232886 -0.32097 5.85654e-18)
(0.847245 0.166067 1.56597e-17)
(-0.184601 0.187725 -2.92138e-19)
(0.338478 0.639992 -3.78726e-17)
(0.469751 0.557897 5.75786e-18)
(0.332966 0.278495 4.36687e-17)
(0.998999 -0.000503314 -1.87047e-17)
(0.0827755 0.00246714 1.55672e-17)
(0.496089 0.053204 3.21496e-17)
(0.237347 0.303466 2.30337e-17)
(1.00361 0.00228349 3.99663e-18)
(1.00796 0.0287243 -1.75933e-18)
(0.540616 0.0127361 7.34703e-17)
(-0.435303 -0.294118 -1.52219e-18)
(0.897145 0.264457 6.76699e-18)
(1.20443 -0.464696 2.20299e-18)
(1.16825 -0.400722 2.68795e-17)
(0.997642 0.000282968 -2.12665e-14)
(0.714736 -0.652399 7.35804e-20)
(1.08034 0.0314885 -4.32999e-18)
(1.26441 0.222147 1.48255e-17)
(1.36453 0.00842088 -7.28508e-18)
(0.159401 0.238041 7.3442e-17)
(0.804189 0.00855985 -1.33316e-16)
(0.949961 0.0534918 8.00181e-18)
(0.173616 0.298878 -5.94442e-18)
(0.0745578 -0.0099353 2.88958e-17)
(-0.0876108 -0.0302151 7.3309e-18)
(0.869686 0.276372 9.53274e-18)
(1.05303 0.0132861 3.55243e-17)
(1.09459 0.807125 -3.79579e-17)
(1 2.7617e-05 6.38688e-18)
(1.00767 0.0352417 -6.0422e-18)
(0.0653141 -0.000866449 1.30309e-17)
(0.475447 0.663019 -2.19753e-17)
(-0.0860089 -0.00562916 2.72276e-17)
(0.959942 -0.211391 -1.19123e-17)
(0.498784 0.0530853 1.43018e-16)
(1.17345 -0.0441251 2.91232e-18)
(1.13667 0.223792 9.64916e-19)
(0.924744 0.706424 -1.3436e-17)
(0.169044 0.471351 1.136e-17)
(-0.379891 0.288235 -1.07201e-17)
(0.217017 0.515178 -2.20003e-17)
(0.952379 0.00828164 -3.22194e-17)
(1.00072 0.000536821 1.37013e-18)
(-0.609479 -0.0894506 -1.53804e-17)
(0.369552 0.0210052 -2.29316e-16)
(0.863605 0.0226119 -6.02021e-17)
(0.303414 0.607634 -4.53184e-18)
(0.84648 0.0251192 7.77575e-17)
(0.976559 0.383151 3.15048e-17)
(0.95576 0.0074907 -1.40567e-16)
(0.957173 0.0283369 5.10476e-18)
(-0.00386377 0.539152 3.53485e-18)
(0.957718 0.033182 -6.8554e-18)
(-0.0166891 -0.00643512 8.21578e-18)
(-0.0597102 -0.001786 9.82906e-18)
(0.992054 0.93918 -3.17021e-17)
(0.732765 0.213565 2.53886e-17)
(1.12005 0.57653 -1.94115e-17)
(1.04445 0.111224 -1.79122e-17)
(0.955404 0.0290008 1.85251e-17)
(0.59352 0.404802 -6.57689e-18)
(1.27003 -0.0392639 1.85376e-18)
(0.890583 0.747486 -2.77238e-17)
(0.26496 0.570994 -3.33314e-18)
(0.918733 0.103211 3.41114e-17)
(0.764835 0.0665956 2.5537e-17)
(-0.589807 -0.0275624 -3.19718e-18)
(1.06575 0.0541175 7.6466e-18)
(0.936193 0.481709 4.1851e-17)
(0.0206027 -0.213532 -9.43277e-18)
(0.99879 0.000223724 1.28616e-16)
(0.824508 0.161986 3.55031e-17)
(0.553809 0.151795 2.65881e-17)
(0.98228 0.0145576 3.99971e-20)
(0.467342 0.63728 -1.73442e-17)
(1.22252 0.181446 1.85358e-17)
(0.492208 0.0643235 8.50934e-17)
(0.909901 0.123243 1.72734e-17)
(0.337418 0.63482 -3.67091e-17)
(0.130607 0.370764 8.772e-18)
(0.999994 0.000164737 6.82503e-18)
(1.29134 0.138673 -5.61136e-18)
(0.998672 0.000358958 -9.17652e-16)
(1.15681 0.110813 -8.64637e-18)
(0.971997 0.371407 3.19466e-17)
(0.0832655 0.00220919 1.5186e-17)
(0.25365 0.542992 -2.99049e-17)
(0.821973 0.263796 -8.12055e-18)
(0.786038 0.404269 2.61873e-17)
(0.942591 0.177868 6.49562e-18)
(0.984003 0.00497986 -2.63377e-17)
(-0.483547 -0.261978 -1.87816e-18)
(1.03 0.022899 -1.79038e-14)
(0.832737 0.189356 2.20338e-17)
(0.537916 0.864673 -3.4868e-17)
(0.90734 0.0195202 -4.10537e-17)
(-0.70761 0.000228467 -2.12664e-18)
(0.664087 0.474041 1.51552e-17)
(1.07736 0.0295951 -5.33957e-18)
(-0.0675117 0.00876271 2.06537e-17)
(1.34548 -0.154107 1.5308e-17)
(1.01253 0.0347413 1.90871e-18)
(1.0867 0.490519 1.01308e-17)
(0.45942 0.0125757 7.07841e-17)
(0.0215006 -0.00443754 -9.06414e-18)
(1.05135 0.0372833 3.6724e-18)
(-0.121988 -0.0186098 4.48365e-18)
(0.815317 0.166699 3.10662e-17)
(0.591363 0.392068 -7.55601e-18)
(1.00356 0.233076 -6.44732e-18)
(1.27946 0.227473 1.45073e-18)
(0.0785293 0.290009 1.49148e-17)
(0.922419 0.893224 -2.64124e-17)
(0.308548 -0.520612 2.19469e-19)
(0.799532 0.00625663 3.00016e-16)
(-0.546609 0.0476896 -1.34821e-17)
(0.706514 0.149579 4.97593e-18)
(0.673512 0.0921163 -3.29746e-17)
(0.991593 0.0184322 -5.00011e-18)
(1.0221 0.00456443 -9.49157e-18)
(-0.0733693 0.0504095 1.10632e-18)
(0.939548 0.179301 1.27194e-18)
(0.190496 0.49795 6.18379e-18)
(-0.0801927 -0.00691485 1.72107e-17)
(0.23295 0.360633 -3.49383e-17)
(0.241661 0.150994 5.5513e-18)
(1.00152 0.00502309 3.79499e-18)
(1.11109 -0.300012 1.52938e-17)
(0.97272 0.219015 1.0843e-18)
(1.06035 0.0444653 1.43629e-17)
(1.0959 0.0452309 -2.91772e-18)
(0.999347 0.00363908 -2.18001e-17)
(0.467909 0.0139306 3.99155e-17)
(0.8593 0.398896 4.30613e-17)
(1.13234 0.0558323 4.74285e-18)
(0.874563 0.929995 -3.76865e-17)
(0.047048 0.0332068 2.27109e-17)
(0.549514 0.0134791 6.63298e-17)
(-0.068687 0.00902232 2.82753e-17)
(1.17464 -0.01623 3.69766e-18)
(0.579202 0.640258 -1.88147e-17)
(0.0132862 -0.00673045 -6.5772e-18)
(1.1822 0.295249 1.71492e-17)
(-0.064583 0.202405 -2.63366e-17)
(0.92064 0.0641855 6.86659e-17)
(1.05272 0.0106036 1.39312e-17)
(1.08154 0.00145895 1.91434e-18)
(0.912954 0.769433 -1.42938e-17)
(0.982715 0.0259408 -7.73828e-18)
(0.513108 0.0119285 6.95996e-17)
(0.444509 0.0357678 -2.07363e-16)
(0.96367 0.1265 -1.1945e-17)
(1.06029 0.0443254 1.1048e-17)
(1.0502 0.158939 5.81847e-18)
(0.809219 0.127082 9.05667e-18)
(0.998702 0.000129658 6.2993e-16)
(0.863671 0.120941 1.37773e-17)
(-0.0581625 0.010465 -9.90146e-19)
(0.919597 0.00548173 2.04402e-16)
(-0.165669 -0.046689 5.66971e-18)
(0.417609 0.216835 -5.92074e-17)
(1.27473 -0.397704 -9.79789e-18)
(1.01192 0.032834 -8.66527e-19)
(0.234575 -0.00642569 -2.42176e-18)
(-0.16466 -0.044221 4.61069e-18)
(-0.568722 0.146723 -9.36821e-18)
(0.281111 -0.0171134 -5.11626e-18)
(0.257543 0.334692 -2.50713e-17)
(0.171361 0.085329 5.903e-18)
(0.431158 0.550054 -7.55878e-19)
(1.09461 0.40212 2.13595e-17)
(1.07699 -0.0345896 1.05356e-17)
(0.863161 0.28082 -1.15131e-17)
(0.978882 0.0238486 5.17673e-17)
(0.036991 -0.341252 4.62827e-18)
(0.962443 0.0240013 3.80325e-18)
(-0.105865 0.446136 1.20637e-17)
(1.00169 0.00267947 2.25819e-19)
(1.01018 0.00266207 1.65202e-18)
(0.844615 0.734329 -1.61956e-17)
(0.992066 0.00546366 -1.94044e-17)
(0.357385 0.665605 -4.33273e-17)
(-0.0918621 -0.00568536 3.65739e-17)
(-0.0776025 0.0134268 -1.39547e-18)
(0.868798 0.00352353 -1.42367e-16)
(0.0739419 0.000920831 1.25061e-17)
(0.561712 0.892576 -2.11742e-17)
(0.999956 -0.000164985 2.47542e-17)
(0.994111 0.0127403 7.78552e-18)
(1.16103 0.307742 1.53029e-17)
(0.970563 0.0183663 1.54379e-18)
(0.0816491 -0.0020688 4.2426e-19)
(1.00213 0.160465 1.86853e-17)
(0.770131 0.0619978 1.77379e-17)
(0.967262 0.607836 1.86865e-17)
(0.595191 0.423931 -5.15019e-18)
(1.08062 0.033964 -4.37495e-18)
(-0.625767 -0.00249765 -1.54751e-17)
(0.928873 0.365663 2.3328e-17)
(-0.0598581 -0.0368329 2.50981e-17)
(-0.055846 -0.000893682 1.75941e-17)
(0.446854 0.0371534 1.45374e-16)
(0.800721 0.356009 4.1515e-17)
(1.14809 0.221328 6.90178e-18)
(-0.00784891 -0.00435592 3.39864e-18)
(1.21917 0.182282 -7.36283e-19)
(-0.772201 0.0816018 1.99946e-17)
(1.09358 0.129066 2.91413e-18)
(1.04078 0.0139929 -3.7374e-17)
(1.02463 0.0773366 5.97257e-18)
(0.860873 0.110204 4.26916e-18)
(1.04673 0.158593 4.37792e-18)
(1.13035 -0.0635128 -1.03357e-17)
(0.196305 0.467774 3.29654e-18)
(0.996 0.00307672 1.62013e-18)
(0.928762 0.179429 3.16095e-18)
(-0.597711 0.253728 -3.74147e-18)
(1.34638 -0.387278 -5.09411e-18)
(0.316829 -0.533147 3.21333e-19)
(1.0374 0.015511 -1.69447e-15)
(0.935034 0.0478051 3.31435e-17)
(1.16607 0.385126 1.32856e-17)
(1.00342 0.00337515 4.0755e-18)
(1.07687 0.0267038 -2.44224e-19)
(0.0133125 0.0345286 -2.87137e-16)
(0.506581 0.809475 -4.23713e-17)
(0.179243 0.294085 -1.29461e-17)
(-0.494386 -0.277208 -1.93121e-18)
(0.997431 -0.225334 -1.08503e-17)
(1.00047 0.000970408 -4.80438e-17)
(0.86168 0.152412 -2.67097e-18)
(0.212143 0.31023 -6.3051e-17)
(0.96911 0.00228842 1.44553e-16)
(0.861556 0.117568 1.41014e-17)
(1.35065 -0.00933387 -4.0521e-18)
(0.976133 0.0017632 5.79113e-16)
(0.935404 0.295097 -7.2593e-18)
(-0.163382 0.0401144 -2.149e-18)
(-0.58416 0.0441566 1.00791e-17)
(0.841942 0.0395621 -3.48995e-17)
(1.14184 -0.257766 1.21414e-17)
(0.993399 0.014976 4.42953e-17)
(0.952857 0.125773 -9.04254e-18)
(0.895389 0.729817 -1.7185e-17)
(0.175101 0.125122 4.4062e-18)
(-0.348413 0.470971 1.06604e-17)
(0.596166 0.622425 -2.13514e-17)
(1.05066 0.00225849 3.32579e-18)
(0.959608 0.0352277 -7.99223e-19)
(0.95376 0.00741442 2.51213e-17)
(1.1519 -0.390286 3.00583e-17)
(0.958896 0.0753333 1.83215e-17)
(1.0295 0.00384974 -5.17415e-18)
(1.10536 0.0111507 9.73127e-18)
(0.956893 0.0067905 -1.2942e-16)
(0.194621 0.00462528 5.68669e-18)
(1.12799 0.0529737 2.27921e-18)
(-0.28155 -0.171007 2.06164e-18)
(0.991912 0.0199505 -1.07786e-18)
(0.967546 0.00201989 -7.05418e-17)
(0.0133701 -0.000316916 -9.32721e-19)
(1.01794 0.281397 1.24561e-17)
(1.16509 0.375793 1.65843e-17)
(0.99249 0.0200896 1.62124e-17)
(1.2362 0.0625819 1.29119e-17)
(0.367932 0.69668 -1.01797e-17)
(-0.0375493 0.0162042 6.88267e-19)
(-0.129357 -0.0641284 -4.0836e-17)
(0.406192 0.308077 9.59194e-18)
(0.862025 0.166738 -6.56428e-19)
(0.999636 0.000794575 1.69399e-17)
(0.942467 0.0144262 -2.69437e-17)
(0.0596515 -0.190988 -9.33623e-18)
(0.981061 0.026546 1.09174e-18)
(1.15071 0.139475 -5.62729e-18)
(0.992697 0.00465482 5.10684e-18)
(0.922263 0.00300247 1.30022e-16)
(1.04465 0.190115 -4.10815e-18)
(1.02385 0.00450186 5.68841e-19)
(0.599074 0.720287 -2.28573e-17)
(1.0035 0.00195453 -2.26298e-18)
(0.968483 0.0195437 1.94751e-17)
(0.871364 0.00443974 2.6353e-17)
(1.02734 0.0771965 4.00666e-18)
(0.479203 0.790484 -4.57534e-17)
(0.604768 0.907227 -3.20686e-17)
(1.26695 -0.0165439 8.75491e-18)
(0.852704 0.0831986 2.23603e-18)
(0.927132 0.00321803 1.16834e-16)
(1.22904 0.0820771 1.50645e-17)
(0.105431 0.179479 5.02111e-17)
(1.00989 0.228784 -6.41417e-18)
(0.684916 0.152729 1.62044e-18)
(1.05069 0.00203873 1.58853e-18)
(0.517263 0.00615463 7.69784e-17)
(0.838687 0.173796 1.93133e-17)
(0.775289 0.771305 -2.52978e-17)
(0.924844 0.12968 -3.95199e-18)
(0.962094 0.00773482 -3.61631e-17)
(0.0997721 0.0525673 2.2544e-17)
(0.823465 0.382598 4.23753e-17)
(-0.014343 0.20696 -3.90973e-17)
(1.01053 0.00257914 -3.79063e-18)
(0.462801 0.348934 -3.60576e-17)
(0.868348 0.022778 -1.0867e-16)
(1.04292 0.0170051 -2.38531e-15)
(0.0779165 -0.0135155 2.846e-17)
(1.08845 -0.302121 1.74253e-17)
(1.26534 -0.0216524 1.86126e-17)
(1.00037 0.0010139 9.3323e-18)
(0.425449 0.294998 -6.27868e-17)
(0.805677 0.0354309 -9.69855e-17)
(1.37451 -0.0106872 -1.23658e-18)
(0.790032 0.377085 3.39533e-17)
(0.617085 0.869025 -3.80138e-17)
(0.517914 0.216136 2.84655e-17)
(1.03743 0.0166209 -1.18859e-15)
(1.10763 0.173294 3.47308e-18)
(0.522416 0.854587 -2.40916e-17)
(0.013185 0.0369459 -8.52511e-17)
(0.284418 0.600515 -3.614e-18)
(0.871153 0.0222525 -1.14654e-16)
(0.949164 0.0527059 -4.55296e-18)
(1.14787 0.218711 1.34186e-17)
(1.05425 0.208432 3.32274e-18)
(0.795817 0.779116 -2.60011e-17)
(0.0852963 0.303467 9.19906e-18)
(0.375445 0.439038 8.56371e-18)
(0.457663 0.103106 4.92039e-17)
(1.15277 -0.237072 1.22108e-17)
(0.999035 0.000952841 1.72794e-16)
(0.20998 -0.012343 5.60088e-18)
(0.646579 0.483855 1.39698e-17)
(0.156739 0.431408 7.48642e-18)
(-0.130543 -0.0644354 1.63441e-17)
(0.88548 0.544139 1.61088e-17)
(0.991716 0.0187471 2.39985e-17)
(0.00798197 -0.000394459 3.40165e-18)
(1.10325 -0.127481 -5.69819e-20)
(0.951437 0.130079 -5.07598e-18)
(1.1835 0.544497 -3.27714e-17)
(-0.0839123 -0.00438641 3.95015e-17)
(0.993015 0.0164931 -7.34158e-18)
(0.968262 0.200656 -9.16496e-18)
(0.958979 0.00729544 -1.5757e-16)
(-0.0878243 0.464128 1.20401e-17)
(-0.0640307 0.00563795 4.64231e-17)
(0.225054 0.0834462 9.43381e-18)
(0.969029 0.0193778 1.17342e-17)
(1.00043 0.00116931 1.02143e-16)
(0.37121 0.728724 -1.74913e-17)
(1.24608 -0.448199 4.09155e-19)
(1.04957 0.0201731 -4.25974e-18)
(-0.403824 0.521188 3.65234e-18)
(1.2475 -0.046426 2.13258e-17)
(0.45078 0.538486 -5.37262e-18)
(1.16717 0.109485 -5.18074e-18)
(0.544995 0.24616 -3.36829e-18)
(1.09423 0.391157 2.68254e-17)
(0.921491 0.272584 8.16756e-18)
(1.2477 -0.0224023 1.75972e-17)
(-0.0834348 0.0974957 -4.78509e-19)
(1.00109 0.00228484 -9.35046e-18)
(1.08414 0.492864 9.1936e-18)
(1.11176 0.579191 -2.3462e-17)
(1.06347 0.00617692 -1.9863e-18)
(0.180773 0.282277 -8.34285e-18)
(0.336988 0.6495 -3.53347e-17)
(0.592521 0.887102 -3.42925e-17)
(1.06723 -0.0462082 7.13101e-18)
(0.958958 0.131582 3.8618e-18)
(0.462603 0.351054 -2.53802e-17)
(0.815922 0.0324213 -8.70407e-17)
(0.611173 0.533683 -5.5749e-18)
(0.419913 -0.591167 -2.78112e-18)
(-0.102421 -0.0586413 5.08672e-17)
(1.00556 0.0235589 7.04174e-18)
(0.0767944 0.28814 1.2096e-17)
(1.00049 -0.000794059 -1.04259e-18)
(1.2872 0.14939 -7.25754e-18)
(-0.0730061 -0.0039784 2.62003e-17)
(0.999733 0.000645534 6.60222e-18)
(0.944433 0.103704 -2.45837e-18)
(0.611978 0.531454 1.99587e-18)
(0.938108 0.0440692 -3.21203e-18)
(0.646534 -0.632897 2.30238e-18)
(0.439671 0.0457666 7.82388e-17)
(0.242654 0.376434 -4.55384e-17)
(1.00028 0.000618271 -1.38016e-17)
(1.00122 0.00048632 -9.69009e-18)
(0.472378 0.132363 -1.76945e-18)
(0.995636 0.00235344 -1.76041e-17)
(0.883788 0.27963 4.05434e-18)
(0.280579 0.033568 -6.18861e-19)
(1.28322 0.152762 1.54383e-17)
(0.964503 0.0579011 -5.72344e-18)
(0.23148 0.536618 3.8074e-18)
(0.0732285 -0.00416092 3.76728e-17)
(0.074428 -0.000530139 2.32201e-18)
(0.289558 0.188988 -4.02858e-18)
(0.836876 0.00652806 3.49714e-16)
(0.803812 0.478109 -9.01544e-18)
(0.0170403 0.0977031 8.19863e-17)
(0.465903 0.64852 -1.9408e-17)
(-0.092313 -0.00481355 4.63852e-17)
(-0.0875226 0.0223916 -1.71533e-18)
(0.125177 0.296311 4.33755e-17)
(0.349941 0.651091 -4.24462e-17)
(0.540596 0.295057 -7.7347e-17)
(1.00022 0.00116885 2.71934e-17)
(1.15316 0.520139 -2.80966e-17)
(-0.559565 0.167679 -1.05327e-17)
(-0.0415042 -0.0412427 1.15646e-17)
(0.315389 -0.0185493 2.70461e-18)
(0.398963 -0.574462 -1.70029e-18)
(1.36074 -0.279772 -3.79011e-18)
(-0.657641 0.0361361 -9.07477e-18)
(0.14839 -0.0576459 2.58763e-18)
(-0.301715 -0.00262666 -5.46729e-18)
(0.962924 0.00658659 -1.52303e-16)
(0.999729 0.000482887 -2.71283e-17)
(0.38731 0.732273 -3.02865e-17)
(0.625444 0.244179 1.30226e-18)
(-0.607146 -0.0180129 -1.39524e-17)
(-0.143035 0.0773721 4.74783e-19)
(0.33072 0.368515 -5.04031e-17)
(0.932671 0.469356 4.33407e-17)
(1.06543 0.0523334 1.13621e-17)
(0.642717 0.470042 1.20787e-17)
(0.22891 0.530226 9.40068e-18)
(0.877459 0.275616 -2.11553e-18)
(0.994535 0.0450082 -3.4476e-18)
(1.01426 0.0342357 1.61965e-18)
(-0.0368916 0.234339 -1.92011e-17)
(-0.071606 -0.00279782 3.28106e-18)
(0.959641 0.0141359 -1.06254e-18)
(-0.732748 0.073662 1.06054e-17)
(1.34939 -0.275617 8.34363e-18)
(1.04791 0.0123047 1.28323e-16)
(0.999997 0.00019901 -1.88039e-18)
(0.994278 0.113663 -1.91801e-19)
(1.10751 -0.145567 1.38129e-18)
(1.04828 0.0203773 -4.50167e-19)
(0.918072 0.722371 -2.0012e-17)
(1.07243 0.313809 4.39375e-18)
(0.125722 0.351453 5.50313e-17)
(1.28675 -0.14198 -1.78363e-18)
(1.16255 0.412992 -2.12346e-17)
(0.63635 0.469529 1.16611e-17)
(0.0999091 0.184039 5.84744e-17)
(1.00084 0.000414766 1.47642e-18)
(0.033998 0.175708 5.88665e-17)
(1.14283 -0.362708 2.93833e-17)
(0.730966 0.196402 6.48622e-17)
(6.7076e-05 -0.00543858 6.90421e-18)
(1.15017 0.106745 -4.5767e-18)
(0.101483 0.313378 7.09904e-17)
(0.449106 0.105724 3.86537e-17)
(0.580304 0.428157 -5.51879e-18)
(-0.0790735 -0.292761 -4.96378e-18)
(0.680511 0.152425 -8.43827e-17)
(1.1379 0.396799 8.77162e-18)
(0.921983 0.0583055 5.50105e-17)
(0.822831 0.00624643 3.45013e-17)
(0.999106 0.00467464 8.22368e-18)
(1.02066 0.00431629 7.68278e-18)
(0.992927 0.0213498 9.43154e-18)
(1.15531 -0.00961064 1.16452e-17)
(0.114409 0.0412503 1.18138e-17)
(-0.170618 0.35692 -6.83266e-18)
(1.0477 0.114762 -2.23141e-17)
(0.571005 0.322034 2.45441e-18)
(1.14279 0.137193 -5.73159e-18)
(0.339189 0.680299 -1.18686e-17)
(1.03741 0.0135167 3.86738e-17)
(1.13618 0.385137 1.42465e-17)
(1.04196 0.29752 1.89887e-17)
(0.447767 0.529267 -4.32313e-18)
(1.00107 0.00326206 -8.77549e-18)
(-0.0982004 0.508729 8.27691e-18)
(0.998768 0.00671293 -5.27375e-18)
(1.11985 0.314602 7.88036e-18)
(1.22825 0.265965 -1.35413e-17)
(0.312416 -0.0177418 6.19821e-18)
(1.00342 -0.000323476 1.3502e-17)
(0.875805 0.402393 3.6384e-17)
(0.980468 0.0211631 -2.37747e-17)
(0.318293 0.274517 -5.18437e-17)
(0.966183 0.00226951 1.64341e-16)
(1.28753 0.117653 2.50869e-18)
(1.22393 -0.0177655 1.62957e-17)
(0.472026 0.364367 -4.29547e-17)
(1.0471 0.00944304 -8.06864e-18)
(-0.125327 0.333244 -4.59195e-18)
(0.920986 0.128704 -1.59273e-17)
(0.764867 0.566287 2.3663e-17)
(0.887468 0.0606765 -2.38468e-17)
(0.99466 0.0040768 6.05537e-18)
(0.720754 0.222909 2.08596e-17)
(1.00483 0.00661407 -4.92673e-18)
(1.13657 0.480206 4.84078e-18)
(0.353499 0.145896 1.92854e-17)
(0.388083 0.576337 -8.92062e-18)
(0.0569913 0.241436 -5.56014e-17)
(1.16885 0.113455 -6.23155e-18)
(0.999981 0.000413384 5.19702e-18)
(1.03078 0.00461149 8.29812e-19)
(-0.126135 0.30495 -8.73515e-18)
(0.963331 0.0230558 1.33748e-17)
(1.00035 0.00176866 2.14347e-17)
(1.00002 0.000248975 -3.55739e-17)
(0.613706 0.0580869 -6.09987e-17)
(0.170682 0.443219 2.08325e-18)
(0.948908 0.0198514 2.18839e-17)
(0.823285 0.900847 -3.76135e-17)
(-0.261704 0.0327395 -7.1056e-18)
(1.02782 0.00593162 2.68387e-18)
(0.932792 0.176179 5.01902e-18)
(0.755564 0.319872 1.38713e-17)
(0.459232 0.365341 -2.03769e-17)
(0.809926 0.0325045 -8.80293e-17)
(0.927536 0.0892103 2.84817e-17)
(-0.409126 0.28565 -2.32031e-18)
(0.0195103 0.116567 1.08701e-16)
(1.01619 0.0362778 -3.51988e-19)
(-0.0404117 -0.0359096 1.05673e-17)
(1.03908 0.132189 -8.49058e-18)
(0.999339 0.00343073 -6.50098e-19)
(0.0310484 0.152902 4.65534e-17)
(1.0746 0.0273026 5.70588e-18)
(-0.0595947 -0.00273134 2.20039e-17)
(0.971203 0.0178285 2.68069e-18)
(0.929575 -0.24603 -9.2058e-18)
(0.917989 0.275509 -9.34793e-19)
(0.0289672 0.0143053 4.75752e-18)
(0.983891 0.0630565 -1.26311e-18)
(0.784927 0.0768843 -2.45942e-17)
(-0.0578336 0.329302 -6.378e-18)
(0.999579 -0.000170685 1.68176e-16)
(0.0287288 -0.00145552 -1.02283e-18)
(0.655197 0.0162689 -1.75153e-16)
(0.976883 0.00171368 -1.75757e-17)
(0.0137576 0.0274039 2.01486e-17)
(-0.0528742 0.0289375 5.76128e-18)
(-0.155651 0.298169 -1.49782e-17)
(1.07599 -0.0577519 3.18894e-19)
(1.00361 -0.000277741 2.80843e-18)
(0.924758 0.00432734 2.16955e-16)
(0.234087 -0.302588 -2.14973e-19)
(1.12328 0.0250975 2.41252e-18)
(1.0493 0.00422968 1.99207e-19)
(0.967111 0.595029 1.21611e-17)
(0.999505 0.00104662 1.22948e-17)
(0.0193482 -0.00120356 7.74993e-18)
(-0.583052 0.0545784 1.34286e-17)
(1.04546 0.0165801 -6.24582e-16)
(0.931596 0.0703066 2.44299e-17)
(0.0723628 -0.00823152 2.55478e-17)
(-0.102464 -0.0103304 5.38563e-18)
(-0.155433 -0.0262328 5.47706e-18)
(0.863925 0.211994 1.43305e-17)
(1.19197 0.276103 1.89511e-17)
(0.05108 0.224086 3.44379e-17)
(0.0718657 -0.00479036 4.48097e-17)
(0.514967 -0.563858 1.03722e-17)
(0.0182513 0.036765 2.62482e-17)
(0.960414 0.00679845 -2.11619e-16)
(0.476265 0.0210782 5.99552e-17)
(0.0574389 0.061217 1.65447e-16)
(0.897825 0.085202 2.2222e-17)
(0.988948 0.0117061 9.67331e-17)
(1.21828 0.437038 -3.10699e-17)
(-0.388812 0.0692857 -9.71255e-18)
(0.0974735 -0.0215266 -3.81839e-18)
(0.546281 0.24078 2.63027e-18)
(-0.0843613 -0.00517789 3.04908e-17)
(1.01768 0.0117432 -3.50987e-18)
(1.21375 0.190872 7.01574e-18)
(0.813921 0.00722167 -3.6093e-17)
(0.280979 0.203189 -4.31674e-17)
(-0.0504207 0.327725 -5.3791e-18)
(1.18933 -0.0160628 6.67147e-18)
(1.11389 -0.0224868 7.48397e-18)
(0.135946 0.2937 6.01443e-17)
(1.12134 -0.0414489 -7.54144e-18)
(1.05992 0.231148 -1.25775e-17)
(0.785448 0.032887 -3.69958e-17)
(0.317336 0.261216 -4.14606e-17)
(1.13186 -0.0567143 -8.93119e-18)
(0.68347 0.561581 1.8589e-17)
(0.948919 0.0226333 7.1589e-17)
(0.614167 0.105384 -7.65029e-17)
(0.889199 0.0569164 -2.32883e-17)
(0.333052 0.206725 -9.38364e-18)
(1.23846 -0.0110762 1.54744e-17)
(0.209134 0.159105 2.18458e-16)