/*--------------------------------*- C++ -*----------------------------------*\
  =========                 |
  \\      /  F ield         | OpenFOAM: The Open Source CFD Toolbox
   \\    /   O peration     | Website:  https://openfoam.org
    \\  /    A nd           | Version:  7
     \\/     M anipulation  |
\*---------------------------------------------------------------------------*/
FoamFile
{
    version     2.0;
    format      ascii;
    class       volVectorField;
    location    "2.5";
    object      U;
}
// * * * * * * * * * * * * * * * * * * * * * * * * * * * * * * * * * * * * * //

dimensions      [0 1 -1 0 0 0 0];

internalField   nonuniform List<vector> 
2413
(
(2 -5.42525e-15 0)
(2 -5.24647e-15 0)
(2 -4.79747e-15 0)
(2 -4.38505e-15 0)
(2 -4.0839e-15 0)
(2 -3.8003e-15 0)
(2 -3.44402e-15 0)
(2 -2.75338e-15 0)
(2 -2.23503e-15 0)
(2 -2.06605e-15 0)
(2 -1.58463e-15 0)
(2 -1.32178e-15 0)
(2 -1.48412e-15 0)
(2 -1.6265e-15 0)
(2 -1.83001e-15 0)
(2 -2.00523e-15 0)
(2 -2.23065e-15 0)
(2 -2.69106e-15 0)
(2 -3.02059e-15 0)
(2 -3.12287e-15 0)
(2 -2.99236e-15 0)
(2 -3.07459e-15 0)
(2 -3.51416e-15 0)
(2 -3.91475e-15 0)
(2 -4.17502e-15 0)
(2 -4.26207e-15 0)
(2 -4.33349e-15 0)
(2 -4.70958e-15 0)
(2 -4.79456e-15 0)
(2 -4.76977e-15 0)
(2 -4.92346e-15 0)
(2 -5.07434e-15 0)
(2 -5.05157e-15 0)
(2 -4.9103e-15 0)
(2 -5.21747e-15 0)
(2 -5.04127e-15 0)
(2 -4.94182e-15 0)
(2 -4.83604e-15 0)
(2 -4.47448e-15 0)
(2 -4.30741e-15 0)
(2 -4.07112e-15 0)
(2 -3.82842e-15 0)
(2 -3.5911e-15 0)
(2 -3.09912e-15 0)
(2 -2.51528e-15 0)
(2 -2.2818e-15 0)
(2 -1.39878e-15 0)
(2 -1.13334e-15 0)
(2 -9.56509e-16 0)
(2 -6.3787e-16 0)
(2 -4.92056e-16 0)
(2 -5.49452e-16 0)
(2 -6.72018e-16 0)
(2 -1.14001e-15 0)
(2 -1.39855e-15 0)
(2 -1.48256e-15 0)
(2 -1.41664e-15 0)
(2 -1.45604e-15 0)
(2 -1.5175e-15 0)
(2 -1.48091e-15 0)
(2 -1.39176e-15 0)
(2 -1.50513e-15 0)
(2 -1.6297e-15 0)
(2 -2.03726e-15 0)
(2 -2.009e-15 0)
(2 -1.40099e-15 0)
(2 -1.0443e-15 0)
(2 -1.03457e-15 0)
(2 -1.04896e-15 0)
(2 -8.50462e-16 0)
(2 -5.42718e-16 0)
(2 -3.04984e-16 0)
(2 -3.66716e-16 0)
(2 -9.65686e-17 0)
(2 1.5139e-15 0)
(2 2.35372e-15 0)
(2 2.23864e-15 0)
(2 2.04534e-15 0)
(2 1.65173e-15 0)
(2 1.40509e-15 0)
(2 8.79156e-16 0)
(2 6.02395e-16 0)
(2 3.94612e-16 0)
(2 6.05748e-16 0)
(2 3.07935e-16 0)
(2 1.76691e-16 0)
(2 2.46624e-16 0)
(2 5.34389e-16 0)
(2 7.68311e-16 0)
(2 3.94415e-16 0)
(2 2.27186e-16 0)
(2 4.20676e-16 0)
(2 1.63149e-15 0)
(2 2.65358e-15 0)
(2 2.8106e-15 0)
(2 2.70197e-15 0)
(2 2.30308e-15 0)
(2 1.89997e-15 0)
(2 1.78961e-15 0)
(2 1.69284e-15 0)
(2 1.44988e-15 0)
(2 1.22625e-15 0)
(2 1.29936e-15 0)
(2 1.52262e-15 0)
(2 1.17448e-15 0)
(2 6.94191e-16 0)
(2 8.36476e-16 0)
(2 1.54711e-15 0)
(2 1.96926e-15 0)
(2 2.08922e-15 0)
(2 2.21233e-15 0)
(2 2.49179e-15 0)
(2 2.47255e-15 0)
(2 2.39709e-15 0)
(2 3.05155e-15 0)
(2 4.04978e-15 0)
(2 -3.75306e-15 0)
(2 -3.29028e-15 0)
(2 -3.15385e-15 0)
(2 -2.99714e-15 0)
(2 -3.18573e-15 0)
(2 -3.67368e-15 0)
(2 -3.78442e-15 0)
(2 -3.86242e-15 0)
(2 -3.78445e-15 0)
(2 -3.86517e-15 0)
(2 -4.14594e-15 0)
(2 -4.34456e-15 0)
(2 -4.40534e-15 0)
(2 -4.59986e-15 0)
(2 -5.00462e-15 0)
(2 -5.0193e-15 0)
(2 -4.92134e-15 0)
(2 -4.99774e-15 0)
(2 -4.92558e-15 0)
(2 -4.64433e-15 0)
(2 -4.50877e-15 0)
(2 -4.38752e-15 0)
(2 -4.32299e-15 0)
(2 -4.24411e-15 0)
(2 -4.22063e-15 0)
(2 -4.08452e-15 0)
(2 -3.93923e-15 0)
(2 -4.02302e-15 0)
(2 -3.95849e-15 0)
(2 -3.85145e-15 0)
(2 -4.00709e-15 0)
(2 -3.95186e-15 0)
(2 -3.91203e-15 0)
(2 -3.85638e-15 0)
(2 -3.84008e-15 0)
(2 -4.0421e-15 0)
(2 -4.35046e-15 0)
(2 -4.51572e-15 0)
(2 -4.87123e-15 0)
(2 -5.22251e-15 0)
(2 -5.54418e-15 0)
(2 -5.5395e-15 0)
(2 -5.64204e-15 0)
(2 -5.62185e-15 0)
(2 -5.47896e-15 0)
(2 -5.40925e-15 0)
(2 -5.03371e-15 0)
(2 -4.72047e-15 0)
(2 -4.90379e-15 0)
(2 -5.09623e-15 0)
(2 -5.59219e-15 0)
(2 -5.65255e-15 0)
(2 -5.42562e-15 0)
(2 -5.11109e-15 0)
(2 -5.28452e-15 0)
(2 -4.96348e-15 0)
(2 -4.64319e-15 0)
(2 -4.58198e-15 0)
(2 -4.0824e-15 0)
(2 -3.45841e-15 0)
(2 -2.94159e-15 0)
(2 -2.27795e-15 0)
(2 -1.95724e-15 0)
(2 -1.8751e-15 0)
(2 -1.34376e-15 0)
(2 -1.03342e-15 0)
(2 -5.18792e-16 0)
(2 9.34089e-17 0)
(2 1.9369e-16 0)
(2 1.89876e-16 0)
(2 2.20015e-16 0)
(2 4.26042e-16 0)
(2 5.70781e-16 0)
(2 4.01389e-16 0)
(2 2.7424e-16 0)
(2 2.97235e-16 0)
(2 -8.31223e-16 0)
(2 -1.24917e-15 0)
(2 -1.50571e-15 0)
(2 -1.88845e-15 0)
(2 -1.84786e-15 0)
(2 -1.66313e-15 0)
(2 -1.4822e-15 0)
(2 -1.36302e-15 0)
(2 -7.75757e-16 0)
(2 -1.3392e-16 0)
(2 7.19171e-16 0)
(2 9.98586e-16 0)
(2 1.4701e-15 0)
(2 2.24672e-15 0)
(2 2.26799e-15 0)
(2 2.12648e-15 0)
(2 1.99326e-15 0)
(2 1.88603e-15 0)
(2 9.55181e-16 0)
(2 3.54877e-16 0)
(2 4.16518e-17 0)
(2 -1.03144e-16 0)
(2 8.59089e-17 0)
(2 3.56639e-16 0)
(2 4.28892e-16 0)
(2 4.83866e-16 0)
(2 2.27794e-16 0)
(2 1.51308e-15 0)
(2 2.0981e-15 0)
(2 2.18313e-15 0)
(2 1.89679e-15 0)
(2 1.8606e-15 0)
(2 1.44387e-15 0)
(2 8.46206e-16 0)
(2 5.70989e-16 0)
(2 1.4254e-15 0)
(2 2.13798e-15 0)
(2 1.99488e-15 0)
(2 1.68657e-15 0)
(2 1.66947e-15 0)
(2 1.18492e-15 0)
(2 5.83139e-16 0)
(2 6.84914e-16 0)
(2 1.65824e-15 0)
(2 2.08691e-15 0)
(2 2.21121e-15 0)
(2 2.08049e-15 0)
(2 1.81344e-15 0)
(2 1.53622e-15 0)
(2 1.55426e-15 0)
(2 1.61231e-15 0)
(2 1.86406e-15 0)
(2 1.87093e-15 0)
(2 2.01373e-15 0)
(2 2.26913e-15 0)
(2 2.35421e-15 0)
(2 -3.021e-15 0)
(2 -3.0584e-15 0)
(2 -2.8646e-15 0)
(2 -2.73976e-15 0)
(2 -2.67676e-15 0)
(2 -2.61682e-15 0)
(2 -2.80903e-15 0)
(2 -2.9055e-15 0)
(2 -2.9708e-15 0)
(2 -3.06884e-15 0)
(2 -3.14947e-15 0)
(2 -3.54503e-15 0)
(2 -3.88752e-15 0)
(2 -4.35341e-15 0)
(2 -4.50687e-15 0)
(2 -4.53441e-15 0)
(2 -4.91976e-15 0)
(2 -5.17542e-15 0)
(2 -5.07827e-15 0)
(2 -5.1082e-15 0)
(2 -5.20957e-15 0)
(2 -5.10377e-15 0)
(2 -4.93933e-15 0)
(2 -4.75771e-15 0)
(2 -4.54189e-15 0)
(2 -4.60996e-15 0)
(2 -4.67733e-15 0)
(2 -4.67575e-15 0)
(2 -4.50428e-15 0)
(2 -4.01031e-15 0)
(2 -3.94363e-15 0)
(2 -4.03167e-15 0)
(2 -4.52236e-15 0)
(2 -5.11624e-15 0)
(2 -5.72967e-15 0)
(2 -6.19757e-15 0)
(2 -6.54467e-15 0)
(2 -6.59038e-15 0)
(2 -6.37455e-15 0)
(2 -6.05079e-15 0)
(2 -5.58137e-15 0)
(2 -5.36597e-15 0)
(2 -5.10921e-15 0)
(2 -4.76062e-15 0)
(2 -4.50858e-15 0)
(2 -4.3026e-15 0)
(2 -4.18115e-15 0)
(2 -4.23712e-15 0)
(2 -4.95666e-15 0)
(2 -5.20618e-15 0)
(2 -4.74952e-15 0)
(2 -4.57906e-15 0)
(2 -4.88531e-15 0)
(2 -3.93163e-15 0)
(2 -3.44943e-15 0)
(2 -2.70853e-15 0)
(2 -2.5842e-15 0)
(2 -1.90135e-15 0)
(2 -4.85746e-16 0)
(2 -3.69445e-16 0)
(2 -3.65904e-16 0)
(2 -8.37338e-16 0)
(2 -1.0165e-15 0)
(2 -1.2325e-15 0)
(2 -1.71941e-15 0)
(2 -1.94928e-15 0)
(2 -1.81454e-15 0)
(2 -1.47171e-15 0)
(2 -1.55138e-15 0)
(2 -1.58532e-15 0)
(2 -1.30393e-15 0)
(2 -7.12761e-16 0)
(2 -3.01982e-16 0)
(2 -3.84917e-16 0)
(2 -4.88926e-16 0)
(2 -5.65249e-16 0)
(2 -5.19447e-16 0)
(2 -3.57055e-16 0)
(2 -1.45053e-16 0)
(2 -1.84022e-17 0)
(2 4.3903e-16 0)
(2 4.87852e-16 0)
(2 1.04719e-15 0)
(2 1.72526e-15 0)
(2 2.17243e-15 0)
(2 2.32839e-15 0)
(2 2.76681e-15 0)
(2 2.98155e-15 0)
(2 2.80925e-15 0)
(2 2.41485e-15 0)
(2 2.12374e-15 0)
(2 1.55786e-15 0)
(2 1.32511e-15 0)
(2 1.01319e-15 0)
(2 9.24908e-16 0)
(2 9.42465e-16 0)
(2 9.89104e-16 0)
(2 1.41837e-15 0)
(2 1.72307e-15 0)
(2 2.19167e-15 0)
(2 2.44842e-15 0)
(2 2.77394e-15 0)
(2 2.68653e-15 0)
(2 2.49885e-15 0)
(2 2.48465e-15 0)
(2 2.62983e-15 0)
(2 3.01767e-15 0)
(2 3.0641e-15 0)
(2 3.05162e-15 0)
(2 2.60154e-15 0)
(2 2.52518e-15 0)
(2 2.62123e-15 0)
(2 2.6804e-15 0)
(2 2.48942e-15 0)
(2 2.11608e-15 0)
(2 1.93984e-15 0)
(2 1.96467e-15 0)
(2 1.87915e-15 0)
(2 1.63117e-15 0)
(2 1.59977e-15 0)
(2 1.63327e-15 0)
(2 1.77025e-15 0)
(2 1.85963e-15 0)
(2 2.02482e-15 0)
(2 1.75623e-15 0)
(2 1.66884e-15 0)
(2 1.58304e-15 0)
(2 1.34903e-15 0)
(2 1.25235e-15 0)
(2 1.21311e-15 0)
(2 1.26288e-15 0)
(2 1.14727e-15 0)
(2 -1.26809e-15 0)
(2 -2.00694e-15 0)
(2 -2.32319e-15 0)
(2 -2.96251e-15 0)
(2 -3.13228e-15 0)
(2 -3.13917e-15 0)
(2 -3.20075e-15 0)
(2 -3.39336e-15 0)
(2 -3.83985e-15 0)
(2 -3.78259e-15 0)
(2 -4.22859e-15 0)
(2 -4.4091e-15 0)
(2 -4.41425e-15 0)
(2 -4.70595e-15 0)
(2 -4.70273e-15 0)
(2 -4.64494e-15 0)
(2 -4.76122e-15 0)
(2 -4.88002e-15 0)
(2 -5.11524e-15 0)
(2 -5.28003e-15 0)
(2 -5.59964e-15 0)
(2 -5.75824e-15 0)
(2 -5.69905e-15 0)
(2 -5.72952e-15 0)
(2 -5.71328e-15 0)
(2 -5.65257e-15 0)
(2 -5.73959e-15 0)
(2 -5.72667e-15 0)
(2 -5.73177e-15 0)
(2 -5.77119e-15 0)
(2 -5.79811e-15 0)
(2 -5.77386e-15 0)
(2 -5.92065e-15 0)
(2 -5.97372e-15 0)
(2 -6.18281e-15 0)
(2 -6.18904e-15 0)
(2 -5.89447e-15 0)
(2 -5.61685e-15 0)
(2 -5.31567e-15 0)
(2 -4.65969e-15 0)
(2 -4.16924e-15 0)
(2 -4.02086e-15 0)
(2 -3.45953e-15 0)
(2 -3.20289e-15 0)
(2 -3.24044e-15 0)
(2 -3.55876e-15 0)
(2 -3.75903e-15 0)
(2 -3.73235e-15 0)
(2 -3.84347e-15 0)
(2 -4.31274e-15 0)
(2 -2.88853e-15 0)
(2 -2.1988e-15 0)
(2 -1.97199e-15 0)
(2 -1.96241e-15 0)
(2 -1.68802e-15 0)
(2 -7.79172e-16 0)
(2 -4.86615e-17 0)
(2 -1.21005e-16 0)
(2 -1.08085e-15 0)
(2 -1.21288e-15 0)
(2 -1.49264e-15 0)
(2 -1.35058e-15 0)
(2 -1.31653e-15 0)
(2 -1.30345e-15 0)
(2 -1.39631e-15 0)
(2 -1.5758e-15 0)
(2 -1.70193e-15 0)
(2 -1.5205e-15 0)
(2 -1.36619e-15 0)
(2 -2.48139e-16 0)
(2 -5.51001e-16 0)
(2 -7.23523e-16 0)
(2 -1.06016e-15 0)
(2 -1.38838e-15 0)
(2 -1.69753e-15 0)
(2 -8.74061e-16 0)
(2 -2.4121e-17 0)
(2 5.68362e-16 0)
(2 1.44571e-15 0)
(2 2.16385e-15 0)
(2 2.47059e-15 0)
(2 1.7723e-15 0)
(2 1.48637e-15 0)
(2 1.38294e-15 0)
(2 1.53536e-15 0)
(2 1.76686e-15 0)
(2 1.67907e-15 0)
(2 1.62371e-15 0)
(2 1.30236e-15 0)
(2 1.03102e-15 0)
(2 5.79575e-16 0)
(2 3.67132e-16 0)
(2 -2.95901e-16 0)
(2 -4.56336e-16 0)
(2 6.59252e-17 0)
(2 1.06702e-15 0)
(2 1.2663e-15 0)
(2 1.58093e-15 0)
(2 1.87474e-15 0)
(2 2.55739e-15 0)
(2 2.74737e-15 0)
(2 2.60832e-15 0)
(2 2.71719e-15 0)
(2 2.77173e-15 0)
(2 2.77279e-15 0)
(2 2.81509e-15 0)
(2 2.8236e-15 0)
(2 2.85381e-15 0)
(2 2.88329e-15 0)
(2 2.64774e-15 0)
(2 2.41405e-15 0)
(2 1.38899e-15 0)
(2 1.08468e-15 0)
(2 1.07575e-15 0)
(2 1.12781e-15 0)
(2 1.04976e-15 0)
(2 9.17584e-16 0)
(2 8.24717e-16 0)
(2 7.61258e-16 0)
(2 1.22639e-15 0)
(2 1.64843e-15 0)
(2 1.70677e-15 0)
(2 1.93458e-15 0)
(2 1.824e-15 0)
(2 1.76252e-15 0)
(2 1.75961e-15 0)
(2 1.71289e-15 0)
(2 1.45377e-15 0)
(2 7.39971e-16 0)
(2 4.30028e-16 0)
(2 -2.30308e-16 0)
(2 -9.12208e-16 0)
(2 -3.40724e-16 0)
(2 -6.42608e-16 0)
(2 -8.46964e-16 0)
(2 -9.32987e-16 0)
(2 -1.17753e-15 0)
(2 -1.31823e-15 0)
(2 -1.55208e-15 0)
(2 -1.83214e-15 0)
(2 -2.07549e-15 0)
(2 -2.16665e-15 0)
(2 -2.23248e-15 0)
(2 -2.24903e-15 0)
(2 -2.34728e-15 0)
(2 -2.6703e-15 0)
(2 -2.79347e-15 0)
(2 -3.47593e-15 0)
(2 -3.68439e-15 0)
(2 -4.01029e-15 0)
(2 -4.16321e-15 0)
(2 -4.44385e-15 0)
(2 -4.54901e-15 0)
(2 -4.68433e-15 0)
(2 -5.12678e-15 0)
(2 -5.5473e-15 0)
(2 -5.80476e-15 0)
(2 -5.96914e-15 0)
(2 -5.97568e-15 0)
(2 -5.98539e-15 0)
(2 -5.89139e-15 0)
(2 -5.90986e-15 0)
(2 -5.7979e-15 0)
(2 -5.44863e-15 0)
(2 -4.81815e-15 0)
(2 -4.64777e-15 0)
(2 -4.82812e-15 0)
(2 -3.82687e-15 0)
(2 -2.97475e-15 0)
(2 -2.73471e-15 0)
(2 -2.57311e-15 0)
(2 -2.16923e-15 0)
(2 -2.03697e-15 0)
(2 -1.71961e-15 0)
(2 -1.1083e-15 0)
(2 -1.13914e-15 0)
(2 -1.14072e-15 0)
(2 -1.15549e-15 0)
(2 -1.37056e-15 0)
(2 -1.48141e-15 0)
(2 -9.79411e-16 0)
(2 -1.4501e-15 0)
(2 -1.02915e-15 0)
(2 -6.54971e-16 0)
(2 1.22676e-16 0)
(2 7.2381e-16 0)
(2 1.07044e-15 0)
(2 8.53118e-16 0)
(2 2.07668e-16 0)
(2 1.76783e-18 0)
(2 -3.76193e-16 0)
(2 -7.38567e-16 0)
(2 -9.84299e-16 0)
(2 -1.02543e-15 0)
(2 -1.04467e-15 0)
(2 -7.70778e-16 0)
(2 -4.3381e-16 0)
(2 -2.19364e-16 0)
(2 -1.95067e-16 0)
(2 -5.74027e-16 0)
(2 -8.47505e-16 0)
(2 -1.14497e-15 0)
(2 -1.21421e-15 0)
(2 -1.23216e-15 0)
(2 -5.69371e-16 0)
(2 9.35175e-17 0)
(2 7.73404e-16 0)
(2 1.1824e-15 0)
(2 1.28382e-15 0)
(2 1.23881e-15 0)
(2 1.09862e-15 0)
(2 1.01291e-15 0)
(2 9.88533e-16 0)
(2 1.60046e-15 0)
(2 1.86926e-15 0)
(2 1.77277e-15 0)
(2 1.21758e-15 0)
(2 1.28236e-15 0)
(2 1.41906e-15 0)
(2 1.39456e-15 0)
(2 8.83908e-16 0)
(2 5.94724e-16 0)
(2 4.4876e-16 0)
(2 3.11365e-16 0)
(2 1.78725e-16 0)
(2 -2.4498e-16 0)
(2 -1.10764e-16 0)
(2 3.59695e-16 0)
(2 5.58989e-16 0)
(2 7.43004e-16 0)
(2 9.74789e-16 0)
(2 9.32689e-16 0)
(2 9.39067e-16 0)
(2 1.06376e-15 0)
(2 1.14399e-15 0)
(2 1.03596e-15 0)
(2 6.64738e-16 0)
(2 3.29548e-16 0)
(2 1.19451e-16 0)
(2 5.15633e-16 0)
(2 7.23203e-16 0)
(2 9.82164e-16 0)
(2 1.14315e-15 0)
(2 1.11994e-15 0)
(2 1.09213e-15 0)
(2 1.19298e-15 0)
(2 1.44813e-15 0)
(2 1.50434e-15 0)
(2 1.47269e-15 0)
(2 1.76168e-15 0)
(2 1.80228e-15 0)
(2 1.82283e-15 0)
(2 1.83816e-15 0)
(2 7.58649e-16 0)
(2 4.03968e-16 0)
(2 2.55866e-16 0)
(2 3.09166e-16 0)
(2 3.10797e-16 0)
(2 3.0158e-16 0)
(2 2.42152e-16 0)
(2 4.18564e-17 0)
(2 -1.30347e-16 0)
(2 1.91597e-16 0)
(2 4.1189e-16 0)
(2 -5.48942e-17 0)
(2 -4.12534e-17 0)
(2 -4.2328e-17 0)
(2 -2.11482e-17 0)
(2 -1.54773e-17 0)
(2 -3.2486e-17 0)
(2 -7.3097e-17 0)
(2 -1.09963e-16 0)
(2 -1.33397e-16 0)
(2 -1.84386e-16 0)
(2 -3.64271e-16 0)
(2 -4.71892e-16 0)
(2 -6.01544e-16 0)
(2 -8.15807e-16 0)
(2 -9.01446e-16 0)
(2 -1.21874e-15 0)
(2 -1.61857e-15 0)
(2 -1.89917e-15 0)
(2 -2.00226e-15 0)
(2 -2.20106e-15 0)
(2 -2.18024e-15 0)
(2 -2.18764e-15 0)
(2 -2.40161e-15 0)
(2 -2.80224e-15 0)
(2 -3.09565e-15 0)
(2 -3.33019e-15 0)
(2 -3.28953e-15 0)
(2 -3.27963e-15 0)
(2 -3.2919e-15 0)
(2 -3.35812e-15 0)
(2 -3.40837e-15 0)
(2 -3.40468e-15 0)
(2 -3.45225e-15 0)
(2 -3.62025e-15 0)
(2 -3.6398e-15 0)
(2 -2.65449e-15 0)
(2 -2.09486e-15 0)
(2 -2.29165e-15 0)
(2 -2.59091e-15 0)
(2 -1.299e-15 0)
(2 -2.57765e-16 0)
(2 2.99131e-16 0)
(2 3.81458e-16 0)
(2 7.5996e-16 0)
(2 9.39912e-16 0)
(2 1.45343e-15 0)
(2 1.55272e-15 0)
(2 1.39997e-15 0)
(2 1.25603e-15 0)
(2 1.04572e-15 0)
(2 9.30175e-16 0)
(2 1.40325e-15 0)
(2 2.08884e-15 0)
(2 1.74256e-15 0)
(2 1.34198e-15 0)
(2 1.29899e-15 0)
(2 1.36907e-15 0)
(2 1.03614e-15 0)
(2 3.23564e-16 0)
(2 1.0065e-16 0)
(2 -4.85745e-17 0)
(2 -5.0205e-16 0)
(2 -8.6941e-16 0)
(2 -1.15223e-15 0)
(2 -1.28867e-15 0)
(2 -1.32558e-15 0)
(2 -1.39415e-15 0)
(2 -1.45795e-15 0)
(2 -1.51514e-15 0)
(2 -1.38934e-15 0)
(2 -1.07768e-15 0)
(2 -7.98971e-16 0)
(2 -4.71835e-16 0)
(2 -4.56494e-16 0)
(2 -4.33204e-16 0)
(2 -2.94342e-16 0)
(2 -4.05861e-16 0)
(2 -5.41261e-16 0)
(2 -9.18585e-16 0)
(2 -1.00519e-15 0)
(2 -5.95359e-16 0)
(2 -1.65642e-16 0)
(2 6.43791e-17 0)
(2 3.50812e-16 0)
(2 6.26111e-16 0)
(2 5.94132e-16 0)
(2 4.65623e-16 0)
(2 6.36416e-16 0)
(2 8.49358e-16 0)
(2 1.05822e-15 0)
(2 1.24349e-15 0)
(2 1.28659e-15 0)
(2 1.26632e-15 0)
(2 1.27559e-15 0)
(2 1.05667e-15 0)
(2 2.1181e-16 0)
(2 2.78204e-16 0)
(2 8.26451e-17 0)
(2 -3.75634e-16 0)
(2 -7.09655e-16 0)
(2 -8.41602e-16 0)
(2 -5.02166e-16 0)
(2 -1.90795e-16 0)
(2 -3.88903e-16 0)
(2 -5.63434e-16 0)
(2 -3.48837e-16 0)
(2 1.03043e-16 0)
(2 3.86156e-16 0)
(2 4.01999e-16 0)
(2 3.82765e-16 0)
(2 7.32603e-16 0)
(2 1.268e-15 0)
(2 1.4807e-15 0)
(2 1.59343e-15 0)
(2 1.71302e-15 0)
(2 1.74087e-15 0)
(2 1.76415e-15 0)
(2 1.21268e-15 0)
(2 1.15424e-15 0)
(2 5.41376e-16 0)
(2 -6.44377e-16 0)
(2 -1.06706e-15 0)
(2 -1.58979e-15 0)
(2 -1.96397e-15 0)
(2 -2.06243e-15 0)
(2 -2.10294e-15 0)
(2 -2.01191e-15 0)
(2 -2.00438e-15 0)
(2 -2.1176e-15 0)
(2 -1.67577e-15 0)
(2 -8.05509e-16 0)
(2 -1.28974e-16 0)
(2 -8.22914e-17 0)
(2 -6.98571e-17 0)
(2 -2.24715e-17 0)
(2 -9.80475e-18 0)
(2 6.83657e-17 0)
(2 1.24147e-16 0)
(2 1.06485e-16 0)
(2 6.4709e-17 0)
(2 7.72898e-17 0)
(2 7.22665e-17 0)
(2 5.95459e-17 0)
(2 9.95138e-17 0)
(2 9.19561e-17 0)
(2 -2.21952e-17 0)
(2 -7.22937e-17 0)
(2 -1.8052e-16 0)
(2 -2.25679e-16 0)
(2 -3.11724e-16 0)
(2 -5.23563e-16 0)
(2 -3.0105e-16 0)
(2 -3.67659e-18 0)
(2 3.28133e-16 0)
(2 5.55574e-16 0)
(2 6.20045e-16 0)
(2 5.2194e-16 0)
(2 4.34684e-16 0)
(2 2.98854e-16 0)
(2 1.51389e-16 0)
(2 -4.51263e-16 0)
(2 -7.25375e-16 0)
(2 -1.23269e-15 0)
(2 -1.21544e-15 0)
(2 -1.19474e-15 0)
(2 -1.1358e-15 0)
(2 -8.42493e-16 0)
(2 -7.41818e-16 0)
(2 -8.87895e-16 0)
(2 -1.09111e-15 0)
(2 -1.0346e-15 0)
(2 -9.72253e-16 0)
(2 -6.20612e-16 0)
(2 -1.97857e-16 0)
(2 -1.23214e-16 0)
(2 1.30028e-16 0)
(2 3.0343e-16 0)
(2 3.00091e-16 0)
(2 3.96875e-16 0)
(2 5.96184e-16 0)
(2 6.24198e-16 0)
(2 8.244e-16 0)
(2 1.0463e-15 0)
(2 1.19139e-15 0)
(2 6.40755e-16 0)
(2 -3.46605e-17 0)
(2 -6.1495e-16 0)
(2 -7.39142e-16 0)
(2 -6.56613e-16 0)
(2 -4.37652e-16 0)
(2 -2.20496e-16 0)
(2 -1.43127e-16 0)
(2 -1.51421e-16 0)
(2 -8.66566e-16 0)
(2 -1.15468e-15 0)
(2 -1.19306e-15 0)
(2 -1.79365e-15 0)
(2 -2.04438e-15 0)
(2 -2.07254e-15 0)
(2 -1.78795e-15 0)
(2 -1.81586e-15 0)
(2 -1.97617e-15 0)
(2 -2.1031e-15 0)
(2 -2.23884e-15 0)
(2 -2.29869e-15 0)
(2 -2.25445e-15 0)
(2 -2.5049e-15 0)
(2 -2.61187e-15 0)
(2 -3.3528e-15 0)
(2 -3.52064e-15 0)
(2 -3.48344e-15 0)
(2 -3.26101e-15 0)
(2 -3.1595e-15 0)
(2 -3.10862e-15 0)
(2 -2.76562e-15 0)
(2 -2.72825e-15 0)
(2 -2.58272e-15 0)
(2 -2.51206e-15 0)
(2 -1.61533e-15 0)
(2 -1.21625e-15 0)
(2 -9.65804e-16 0)
(2 -6.30338e-16 0)
(2 -6.87491e-16 0)
(2 -4.99453e-16 0)
(2 9.44847e-17 0)
(2 5.62958e-16 0)
(2 1.13557e-16 0)
(2 -5.96751e-17 0)
(2 -4.41355e-17 0)
(2 -9.54026e-18 0)
(2 1.33122e-17 0)
(2 1.87797e-17 0)
(2 3.93542e-17 0)
(2 2.13116e-16 0)
(2 1.96932e-16 0)
(2 2.20796e-16 0)
(2 9.98292e-16 0)
(2 1.15574e-15 0)
(2 9.60635e-16 0)
(2 7.75188e-16 0)
(2 5.01979e-16 0)
(2 1.28099e-16 0)
(2 1.20543e-16 0)
(2 4.80276e-16 0)
(2 5.14697e-16 0)
(2 4.27401e-16 0)
(2 2.02628e-16 0)
(2 -7.40424e-17 0)
(2 -1.16775e-16 0)
(2 -5.10248e-16 0)
(2 -9.13219e-16 0)
(2 -1.25945e-15 0)
(2 -1.39582e-15 0)
(2 -1.58405e-15 0)
(2 -1.81073e-15 0)
(2 -1.96415e-15 0)
(2 -2.20964e-15 0)
(2 -2.31977e-15 0)
(2 -2.38374e-15 0)
(2 -2.3904e-15 0)
(2 -2.38767e-15 0)
(2 -2.17886e-15 0)
(2 -1.68743e-15 0)
(2 -1.24292e-15 0)
(2 4.35514e-16 0)
(2 6.17421e-16 0)
(2 7.45628e-16 0)
(2 8.74093e-16 0)
(2 1.02481e-15 0)
(2 1.14084e-15 0)
(2 1.23912e-15 0)
(2 1.23771e-15 0)
(2 1.2886e-15 0)
(2 1.46501e-15 0)
(2 1.50573e-15 0)
(2 1.42605e-15 0)
(2 1.28e-15 0)
(2 1.23632e-15 0)
(2 1.66317e-15 0)
(2 1.89993e-15 0)
(2 2.18445e-15 0)
(2 2.457e-15 0)
(2 2.57383e-15 0)
(2 2.44579e-15 0)
(2 2.38637e-15 0)
(2 2.74885e-15 0)
(2 2.87945e-15 0)
(2 2.85217e-15 0)
(2 2.8971e-15 0)
(2 2.82651e-15 0)
(2 2.4123e-15 0)
(2 2.34233e-15 0)
(2 2.79509e-15 0)
(2 3.04462e-15 0)
(2 3.0228e-15 0)
(2 2.71403e-15 0)
(2 2.00339e-15 0)
(2 2.01198e-15 0)
(2 2.18617e-15 0)
(2 2.35906e-15 0)
(2 2.22635e-15 0)
(2 1.68017e-15 0)
(2 1.47074e-15 0)
(2 1.4178e-15 0)
(2 9.71074e-16 0)
(2 8.00993e-16 0)
(2 6.37365e-16 0)
(2 4.62769e-16 0)
(2 3.96833e-16 0)
(2 1.46628e-16 0)
(2 6.70291e-17 0)
(2 2.25002e-16 0)
(2 -1.63463e-16 0)
(2 -8.85823e-16 0)
(2 -1.21309e-15 0)
(2 -1.18083e-15 0)
(2 -1.30243e-15 0)
(2 -1.3057e-15 0)
(2 -1.1912e-15 0)
(2 -1.211e-15 0)
(2 -1.38836e-15 0)
(2 -1.63582e-15 0)
(2 -1.73996e-15 0)
(2 -1.5999e-15 0)
(2 -2.34099e-15 0)
(2 -2.47085e-15 0)
(2 -2.91777e-15 0)
(2 -3.15027e-15 0)
(2 -3.37116e-15 0)
(2 -3.48707e-15 0)
(2 -3.45874e-15 0)
(2 -3.41068e-15 0)
(2 -3.31334e-15 0)
(2 -3.57895e-15 0)
(2 -3.82548e-15 0)
(2 -3.76139e-15 0)
(2 -3.51775e-15 0)
(2 -3.38656e-15 0)
(2 -3.38774e-15 0)
(2 -3.55914e-15 0)
(2 -3.49139e-15 0)
(2 -3.18231e-15 0)
(2 -3.06946e-15 0)
(2 -3.13914e-15 0)
(2 -3.59013e-15 0)
(2 -3.90201e-15 0)
(2 -4.51203e-15 0)
(2 -4.74288e-15 0)
(2 -4.91056e-15 0)
(2 -4.5918e-15 0)
(2 -4.42347e-15 0)
(2 -4.34771e-15 0)
(2 -4.39005e-15 0)
(2 -3.81391e-15 0)
(2 -2.82702e-15 0)
(2 -2.78526e-15 0)
(2 -2.62375e-15 0)
(2 -1.16057e-15 0)
(2 -6.99312e-16 0)
(2 -2.84075e-16 0)
(2 -1.55063e-16 0)
(2 5.10312e-16 0)
(2 1.06452e-15 0)
(2 1.39098e-15 0)
(2 1.54125e-15 0)
(2 1.5353e-15 0)
(2 1.68827e-15 0)
(2 1.79155e-15 0)
(2 2.07901e-15 0)
(2 2.09546e-15 0)
(2 1.98283e-15 0)
(2 1.89462e-15 0)
(2 1.61629e-15 0)
(2 1.25257e-15 0)
(2 1.11434e-15 0)
(2 1.15389e-15 0)
(2 1.11684e-15 0)
(2 9.4424e-16 0)
(2 7.43204e-16 0)
(2 5.51544e-16 0)
(2 4.32202e-16 0)
(2 2.6384e-16 0)
(2 2.53737e-16 0)
(2 3.21288e-16 0)
(2 3.49757e-16 0)
(2 1.90743e-16 0)
(2 2.29688e-16 0)
(2 2.9925e-16 0)
(2 3.26282e-16 0)
(2 2.26079e-16 0)
(2 5.00089e-17 0)
(2 -1.04276e-16 0)
(2 -1.78518e-16 0)
(2 -1.93189e-16 0)
(2 -2.52776e-16 0)
(2 -3.58996e-16 0)
(2 2.27282e-15 0)
(2 2.45524e-15 0)
(2 2.67193e-15 0)
(2 2.76594e-15 0)
(2 2.77614e-15 0)
(2 2.63993e-15 0)
(2 2.53437e-15 0)
(2 2.76794e-15 0)
(2 3.11167e-15 0)
(2 3.51049e-15 0)
(2 3.77136e-15 0)
(2 3.71315e-15 0)
(2 3.75253e-15 0)
(2 3.94348e-15 0)
(2 4.13238e-15 0)
(2 4.12563e-15 0)
(2 4.16315e-15 0)
(2 5.02991e-15 0)
(2 5.70564e-15 0)
(2 5.84831e-15 0)
(2 6.30476e-15 0)
(2 6.70647e-15 0)
(2 6.53045e-15 0)
(2 6.2204e-15 0)
(2 5.48709e-15 0)
(2 4.78024e-15 0)
(2 4.51439e-15 0)
(2 4.17375e-15 0)
(2 4.12783e-15 0)
(2 4.21153e-15 0)
(2 4.47034e-15 0)
(2 4.35739e-15 0)
(2 3.86312e-15 0)
(2 3.72328e-15 0)
(2 3.25829e-15 0)
(2 2.85986e-15 0)
(2 2.72356e-15 0)
(2 3.18932e-15 0)
(2 3.43174e-15 0)
(2 3.16401e-15 0)
(2 2.44746e-15 0)
(2 1.58755e-15 0)
(2 1.20126e-15 0)
(2 5.09463e-16 0)
(2 -3.60256e-16 0)
(2 -8.72635e-16 0)
(2 -1.09425e-15 0)
(2 -1.25926e-15 0)
(2 -1.17239e-15 0)
(2 -1.06515e-15 0)
(2 -1.07555e-15 0)
(2 -1.14761e-15 0)
(2 -1.22867e-15 0)
(2 -1.45008e-15 0)
(2 -1.35608e-15 0)
(2 -1.14018e-15 0)
(2 -1.03091e-15 0)
(2 -6.52479e-16 0)
(2 -1.29123e-15 0)
(2 -3.04238e-15 0)
(2 -3.41683e-15 0)
(2 -3.81045e-15 0)
(2 -4.15334e-15 0)
(2 -3.99845e-15 0)
(2 -3.54578e-15 0)
(2 -3.45745e-15 0)
(2 -3.74745e-15 0)
(2 -4.11332e-15 0)
(2 -4.27532e-15 0)
(2 -4.28124e-15 0)
(2 -4.10103e-15 0)
(2 -3.78523e-15 0)
(2 -3.47179e-15 0)
(2 -3.29326e-15 0)
(2 -3.15353e-15 0)
(2 -2.20891e-15 0)
(2 -1.28639e-15 0)
(2 -8.95218e-16 0)
(2 -9.82747e-16 0)
(2 -1.45814e-15 0)
(2 -1.81311e-15 0)
(2 -2.73198e-15 0)
(2 -3.39511e-15 0)
(2 -3.75127e-15 0)
(2 -3.96852e-15 0)
(2 -4.13368e-15 0)
(2 -4.16941e-15 0)
(2 -4.7845e-15 0)
(2 -5.25719e-15 0)
(2 -4.40269e-15 0)
(2 -3.16081e-15 0)
(2 -2.91468e-15 0)
(2 -2.76349e-15 0)
(2 -2.05514e-15 0)
(2 -9.65021e-16 0)
(2 -8.54373e-16 0)
(2 -4.0844e-16 0)
(2 4.2951e-16 0)
(2 8.32283e-16 0)
(2 1.48967e-15 0)
(2 1.75655e-15 0)
(2 1.83272e-15 0)
(2 1.82545e-15 0)
(2 1.76128e-15 0)
(2 1.68363e-15 0)
(2 1.86839e-15 0)
(2 2.01436e-15 0)
(2 2.0368e-15 0)
(2 1.88963e-15 0)
(2 1.85049e-15 0)
(2 1.92956e-15 0)
(2 1.97492e-15 0)
(2 1.95015e-15 0)
(2 1.51444e-15 0)
(2 1.21135e-15 0)
(2 1.02977e-15 0)
(2 9.16921e-16 0)
(2 9.17736e-16 0)
(2 9.45141e-16 0)
(2 6.00779e-16 0)
(2 -1.26421e-16 0)
(2 -5.33714e-16 0)
(2 -5.80011e-16 0)
(2 -5.81459e-16 0)
(2 -4.23928e-16 0)
(2 -1.40593e-16 0)
(2 -4.81163e-17 0)
(2 6.40465e-17 0)
(2 2.37107e-16 0)
(2 2.01743e-16 0)
(2 1.7754e-16 0)
(2 1.97081e-16 0)
(2 3.86448e-15 0)
(2 3.37687e-15 0)
(2 3.25368e-15 0)
(2 3.34006e-15 0)
(2 3.32531e-15 0)
(2 3.20944e-15 0)
(2 3.44415e-15 0)
(2 4.51085e-15 0)
(2 4.53544e-15 0)
(2 4.45001e-15 0)
(2 4.52288e-15 0)
(2 4.59386e-15 0)
(2 4.783e-15 0)
(2 4.8834e-15 0)
(2 5.09558e-15 0)
(2 5.22664e-15 0)
(2 5.28577e-15 0)
(2 5.37969e-15 0)
(2 5.61131e-15 0)
(2 5.96104e-15 0)
(2 6.00462e-15 0)
(2 5.73365e-15 0)
(2 5.43716e-15 0)
(2 5.98401e-15 0)
(2 6.49057e-15 0)
(2 6.79903e-15 0)
(2 6.65644e-15 0)
(2 6.50787e-15 0)
(2 5.8782e-15 0)
(2 5.27771e-15 0)
(2 4.9601e-15 0)
(2 4.86706e-15 0)
(2 4.79353e-15 0)
(2 4.94618e-15 0)
(2 4.95835e-15 0)
(2 4.20605e-15 0)
(2 2.83299e-15 0)
(2 2.26367e-15 0)
(2 2.17821e-15 0)
(2 2.26658e-15 0)
(2 1.9255e-15 0)
(2 5.08832e-16 0)
(2 2.20042e-17 0)
(2 -1.15535e-16 0)
(2 -2.4227e-16 0)
(2 -1.37334e-17 0)
(2 -3.29307e-16 0)
(2 -4.93397e-16 0)
(2 -8.66892e-16 0)
(2 -8.91858e-16 0)
(2 -7.78981e-16 0)
(2 -4.89667e-16 0)
(2 3.28876e-17 0)
(2 2.5536e-16 0)
(2 -4.34545e-17 0)
(2 -5.04107e-16 0)
(2 -1.66869e-15 0)
(2 -2.19279e-15 0)
(2 -2.26676e-15 0)
(2 -2.28224e-15 0)
(2 -2.10122e-15 0)
(2 -2.02214e-15 0)
(2 -2.09094e-15 0)
(2 -1.57288e-15 0)
(2 -1.34711e-15 0)
(2 -1.41364e-15 0)
(2 -1.60151e-15 0)
(2 -1.7853e-15 0)
(2 -1.87066e-15 0)
(2 -2.09857e-15 0)
(2 -2.28778e-15 0)
(2 -2.40883e-15 0)
(2 -2.62605e-15 0)
(2 -2.60713e-15 0)
(2 -2.3838e-15 0)
(2 -2.01023e-15 0)
(2 -2.00847e-15 0)
(2 -2.31779e-15 0)
(2 -2.45075e-15 0)
(2 -2.38835e-15 0)
(2 -2.39819e-15 0)
(2 -2.27334e-15 0)
(2 -2.07911e-15 0)
(2 -2.30537e-15 0)
(2 -3.05046e-15 0)
(2 -4.06097e-15 0)
(2 -4.24558e-15 0)
(2 -4.15348e-15 0)
(2 -3.43527e-15 0)
(2 -3.13462e-15 0)
(2 -2.74237e-15 0)
(2 -2.32475e-15 0)
(2 -2.37968e-15 0)
(2 -2.69491e-15 0)
(2 -2.44164e-15 0)
(2 -2.25902e-15 0)
(2 -2.09202e-15 0)
(2 -1.91003e-15 0)
(2 -1.53564e-15 0)
(2 -1.06142e-15 0)
(2 -8.78038e-16 0)
(2 -4.40459e-16 0)
(2 -2.88211e-16 0)
(2 2.00917e-16 0)
(2 3.26595e-16 0)
(2 3.08023e-16 0)
(2 1.30558e-16 0)
(2 2.31372e-16 0)
(2 1.40768e-15 0)
(2 1.75323e-15 0)
(2 1.92487e-15 0)
(2 2.0417e-15 0)
(2 1.74293e-15 0)
(2 1.75993e-15 0)
(2 1.63621e-15 0)
(2 1.311e-15 0)
(2 1.14549e-15 0)
(2 9.76773e-16 0)
(2 7.59372e-16 0)
(2 2.52738e-16 0)
(2 7.09364e-17 0)
(2 9.62026e-17 0)
(2 -1.31153e-16 0)
(2 -1.83367e-16 0)
(2 -8.58066e-17 0)
(2 -1.26988e-16 0)
(2 -1.8306e-16 0)
(2 -1.76853e-16 0)
(2 -1.6831e-16 0)
(2 -2.73049e-16 0)
(2 -2.8993e-16 0)
(2 -2.90012e-16 0)
(2 3.19718e-15 0)
(2 3.18043e-15 0)
(2 3.35415e-15 0)
(2 3.51757e-15 0)
(2 3.75433e-15 0)
(2 4.20672e-15 0)
(2 4.7117e-15 0)
(2 5.00519e-15 0)
(2 4.9983e-15 0)
(2 4.99389e-15 0)
(2 5.09281e-15 0)
(2 5.2648e-15 0)
(2 5.37863e-15 0)
(2 5.48798e-15 0)
(2 5.50363e-15 0)
(2 5.64658e-15 0)
(2 5.6787e-15 0)
(2 5.54949e-15 0)
(2 4.95227e-15 0)
(2 4.78178e-15 0)
(2 4.60009e-15 0)
(2 4.2447e-15 0)
(2 4.20304e-15 0)
(2 4.08633e-15 0)
(2 4.24936e-15 0)
(2 4.47423e-15 0)
(2 4.47966e-15 0)
(2 4.4523e-15 0)
(2 4.33182e-15 0)
(2 4.00782e-15 0)
(2 3.47715e-15 0)
(2 3.64635e-15 0)
(2 4.05553e-15 0)
(2 4.36324e-15 0)
(2 4.91792e-15 0)
(2 3.73594e-15 0)
(2 2.87153e-15 0)
(2 2.21338e-15 0)
(2 1.36301e-15 0)
(2 7.02128e-16 0)
(2 3.65199e-16 0)
(2 8.52377e-16 0)
(2 1.61285e-15 0)
(2 1.74403e-15 0)
(2 1.64727e-15 0)
(2 1.42911e-15 0)
(2 1.39125e-15 0)
(2 1.27909e-15 0)
(2 9.44601e-16 0)
(2 9.08979e-16 0)
(2 9.53813e-16 0)
(2 9.68589e-16 0)
(2 7.25103e-16 0)
(2 5.34577e-16 0)
(2 1.09044e-15 0)
(2 5.07644e-17 0)
(2 -3.78998e-16 0)
(2 -5.5903e-16 0)
(2 -1.07215e-15 0)
(2 -1.21232e-15 0)
(2 -1.29437e-15 0)
(2 -1.22544e-15 0)
(2 -1.05664e-15 0)
(2 -1.62614e-15 0)
(2 -2.06872e-15 0)
(2 -2.30304e-15 0)
(2 -2.52095e-15 0)
(2 -2.64024e-15 0)
(2 -2.80381e-15 0)
(2 -2.88086e-15 0)
(2 -2.78067e-15 0)
(2 -2.70657e-15 0)
(2 -2.77434e-15 0)
(2 -2.88953e-15 0)
(2 -2.94788e-15 0)
(2 -3.62239e-15 0)
(2 -3.77187e-15 0)
(2 -3.74266e-15 0)
(2 -3.73314e-15 0)
(2 -3.66328e-15 0)
(2 -3.59863e-15 0)
(2 -3.05708e-15 0)
(2 -2.66089e-15 0)
(2 -2.49284e-15 0)
(2 -2.44788e-15 0)
(2 -2.60025e-15 0)
(2 -2.55707e-15 0)
(2 -2.40837e-15 0)
(2 -2.23832e-15 0)
(2 -2.23997e-15 0)
(2 -2.3131e-15 0)
(2 -2.37305e-15 0)
(2 -2.48795e-15 0)
(2 -2.94921e-15 0)
(2 -2.93819e-15 0)
(2 -2.89797e-15 0)
(2 -2.66768e-15 0)
(2 -2.57797e-15 0)
(2 -2.55431e-15 0)
(2 -2.53885e-15 0)
(2 -2.41067e-15 0)
(2 -1.87055e-15 0)
(2 -1.61102e-15 0)
(2 -1.57237e-15 0)
(2 -1.81137e-15 0)
(2 -1.66082e-15 0)
(2 -1.26631e-15 0)
(2 -9.97661e-16 0)
(2 -9.16824e-16 0)
(2 -8.70038e-16 0)
(2 -8.65265e-16 0)
(2 -9.5805e-16 0)
(2 -1.0075e-15 0)
(2 -1.13674e-15 0)
(2 -1.52677e-15 0)
(2 -1.10821e-15 0)
(2 -1.00967e-15 0)
(2 -5.17699e-16 0)
(2 -2.75989e-16 0)
(2 -2.67826e-16 0)
(2 -1.88301e-16 0)
(2 2.57831e-17 0)
(2 2.0507e-16 0)
(2 4.74902e-16 0)
(2 -7.59641e-17 0)
(2 -9.63858e-16 0)
(2 -1.01068e-15 0)
(2 -1.42701e-15 0)
(2 -2.18402e-15 0)
(2 -2.69618e-15 0)
(2 -2.74415e-15 0)
(2 -2.80301e-15 0)
(2 3.73777e-15 0)
(2 3.98747e-15 0)
(2 4.75111e-15 0)
(2 4.9202e-15 0)
(2 4.9279e-15 0)
(2 4.92447e-15 0)
(2 4.88877e-15 0)
(2 4.5459e-15 0)
(2 3.96574e-15 0)
(2 3.79544e-15 0)
(2 3.65757e-15 0)
(2 3.35934e-15 0)
(2 3.24769e-15 0)
(2 3.10087e-15 0)
(2 2.99642e-15 0)
(2 2.88304e-15 0)
(2 2.91355e-15 0)
(2 2.66106e-15 0)
(2 1.88406e-15 0)
(2 1.46221e-15 0)
(2 1.45307e-15 0)
(2 1.68555e-15 0)
(2 2.70506e-15 0)
(2 2.92731e-15 0)
(2 3.13768e-15 0)
(2 2.38158e-15 0)
(2 1.70519e-15 0)
(2 1.48011e-15 0)
(2 1.79608e-15 0)
(2 1.92393e-15 0)
(2 2.06794e-15 0)
(2 2.22703e-15 0)
(2 2.22109e-15 0)
(2 2.23906e-15 0)
(2 1.95538e-15 0)
(2 1.82478e-15 0)
(2 1.66853e-15 0)
(2 1.41006e-15 0)
(2 7.96749e-16 0)
(2 5.03859e-16 0)
(2 7.30007e-16 0)
(2 1.07864e-15 0)
(2 1.09026e-15 0)
(2 1.13178e-15 0)
(2 1.10162e-15 0)
(2 1.03941e-15 0)
(2 1.16843e-15 0)
(2 8.05441e-16 0)
(2 3.80139e-16 0)
(2 3.95211e-16 0)
(2 -5.30981e-18 0)
(2 -5.14887e-16 0)
(2 -9.77929e-16 0)
(2 -1.60156e-15 0)
(2 -1.60563e-15 0)
(2 -1.4831e-15 0)
(2 -1.37158e-15 0)
(2 -1.26374e-15 0)
(2 -1.30639e-15 0)
(2 -1.35129e-15 0)
(2 -1.57019e-15 0)
(2 -1.773e-15 0)
(2 -1.91384e-15 0)
(2 -2.20429e-15 0)
(2 -2.2888e-15 0)
(2 -2.15768e-15 0)
(2 -1.86725e-15 0)
(2 -1.64759e-15 0)
(2 -1.61283e-15 0)
(2 -1.61282e-15 0)
(2 -2.0974e-15 0)
(2 -2.3726e-15 0)
(2 -2.47307e-15 0)
(2 -2.69607e-15 0)
(2 -3.13387e-15 0)
(2 -3.18189e-15 0)
(2 -2.27989e-15 0)
(2 -2.12177e-15 0)
(2 -1.44657e-15 0)
(2 -1.12733e-15 0)
(2 -1.12164e-15 0)
(2 -1.31747e-15 0)
(2 -1.23526e-15 0)
(2 -7.2799e-16 0)
(2 -4.37598e-16 0)
(2 -1.09451e-16 0)
(2 -1.5097e-16 0)
(2 -5.16043e-16 0)
(2 -9.36629e-16 0)
(2 -1.23009e-15 0)
(2 -1.40183e-15 0)
(2 -1.40378e-15 0)
(2 -1.15727e-15 0)
(2 -9.77521e-16 0)
(2 -1.21151e-15 0)
(2 -1.3053e-15 0)
(2 -1.22754e-15 0)
(2 -7.83878e-16 0)
(2 -6.09812e-16 0)
(2 -6.39207e-16 0)
(2 -9.43292e-16 0)
(2 -1.12011e-15 0)
(2 -1.48095e-15 0)
(2 -1.73077e-15 0)
(2 -2.104e-15 0)
(2 -2.20258e-15 0)
(2 -2.1187e-15 0)
(2 -2.00458e-15 0)
(2 -2.00704e-15 0)
(2 -1.77436e-15 0)
(2 -1.62353e-15 0)
(2 -1.69226e-15 0)
(2 -1.95051e-15 0)
(2 -2.24725e-15 0)
(2 -2.05328e-15 0)
(2 -1.47077e-15 0)
(2 -1.41906e-15 0)
(2 -1.52236e-15 0)
(2 -1.64071e-15 0)
(2 -1.33744e-15 0)
(2 -1.19747e-15 0)
(2 -1.22872e-15 0)
(2 -1.3122e-15 0)
(2 -2.03731e-15 0)
(2 -2.20057e-15 0)
(2 -2.3005e-15 0)
(2 -2.05559e-15 0)
(2 -2.12222e-15 0)
(2 -2.24747e-15 0)
(2 -2.41559e-15 0)
(2 -2.34534e-15 0)
(2 -2.19537e-15 0)
(2 4.09212e-15 0)
(2 4.09629e-15 0)
(2 3.89671e-15 0)
(2 3.59973e-15 0)
(2 3.40591e-15 0)
(2 2.9712e-15 0)
(2 2.94198e-15 0)
(2 2.54988e-15 0)
(2 2.14565e-15 0)
(2 2.13923e-15 0)
(2 1.75263e-15 0)
(2 9.89463e-16 0)
(2 8.98699e-16 0)
(2 2.92122e-16 0)
(2 -1.13692e-16 0)
(2 -3.00484e-16 0)
(2 -3.48795e-16 0)
(2 -3.24767e-16 0)
(2 -1.71821e-16 0)
(2 1.1722e-16 0)