/*--------------------------------*- C++ -*----------------------------------*\
  =========                 |
  \\      /  F ield         | OpenFOAM: The Open Source CFD Toolbox
   \\    /   O peration     | Website:  https://openfoam.org
    \\  /    A nd           | Version:  7
     \\/     M anipulation  |
\*---------------------------------------------------------------------------*/
FoamFile
{
    version     2.0;
    format      ascii;
    class       volVectorField;
    location    "1.2";
    object      U;
}
// * * * * * * * * * * * * * * * * * * * * * * * * * * * * * * * * * * * * * //

dimensions      [0 1 -1 0 0 0 0];

internalField   nonuniform List<vector> 
20000
(
(-6.23806e-08 2.33447e-07 0)
(-3.64001e-07 2.47333e-07 0)
(-7.11721e-07 1.56785e-07 0)
(-7.25944e-07 2.82029e-08 0)
(-3.4696e-07 -1.08805e-07 0)
(4.28786e-07 -2.40155e-07 0)
(1.58387e-06 -3.61239e-07 0)
(3.08912e-06 -4.69257e-07 0)
(4.91187e-06 -5.64117e-07 0)
(7.01815e-06 -6.46123e-07 0)
(9.37403e-06 -7.16708e-07 0)
(1.19461e-05 -7.77077e-07 0)
(1.47033e-05 -8.27671e-07 0)
(1.76163e-05 -8.69264e-07 0)
(2.06576e-05 -9.0269e-07 0)
(2.38024e-05 -9.28601e-07 0)
(2.70274e-05 -9.47823e-07 0)
(3.03108e-05 -9.61058e-07 0)
(3.36325e-05 -9.68708e-07 0)
(3.69743e-05 -9.71119e-07 0)
(4.03196e-05 -9.68785e-07 0)
(4.3653e-05 -9.62269e-07 0)
(4.69606e-05 -9.51973e-07 0)
(5.02296e-05 -9.38193e-07 0)
(5.34483e-05 -9.2126e-07 0)
(5.66058e-05 -9.01481e-07 0)
(5.96928e-05 -8.79101e-07 0)
(6.27007e-05 -8.54358e-07 0)
(6.56213e-05 -8.27514e-07 0)
(6.84474e-05 -7.98812e-07 0)
(7.11725e-05 -7.68385e-07 0)
(7.37909e-05 -7.36367e-07 0)
(7.62973e-05 -7.02966e-07 0)
(7.86869e-05 -6.68369e-07 0)
(8.09553e-05 -6.32703e-07 0)
(8.30987e-05 -5.96056e-07 0)
(8.51136e-05 -5.58462e-07 0)
(8.6997e-05 -5.19997e-07 0)
(8.87459e-05 -4.80822e-07 0)
(9.03579e-05 -4.41051e-07 0)
(9.18308e-05 -4.00718e-07 0)
(9.31625e-05 -3.59866e-07 0)
(9.43513e-05 -3.18565e-07 0)
(9.53955e-05 -2.76868e-07 0)
(9.62937e-05 -2.34801e-07 0)
(9.70447e-05 -1.92422e-07 0)
(9.76476e-05 -1.49782e-07 0)
(9.81013e-05 -1.06913e-07 0)
(9.84051e-05 -6.38691e-08 0)
(9.85584e-05 -2.07074e-08 0)
(9.85608e-05 2.25267e-08 0)
(9.84121e-05 6.58184e-08 0)
(9.8112e-05 1.09149e-07 0)
(9.76608e-05 1.52447e-07 0)
(9.70584e-05 1.95647e-07 0)
(9.63055e-05 2.38699e-07 0)
(9.54026e-05 2.81551e-07 0)
(9.43507e-05 3.24147e-07 0)
(9.31507e-05 3.66404e-07 0)
(9.1804e-05 4.08245e-07 0)
(9.03121e-05 4.49611e-07 0)
(8.8677e-05 4.9043e-07 0)
(8.69009e-05 5.30603e-07 0)
(8.49864e-05 5.70024e-07 0)
(8.29364e-05 6.0858e-07 0)
(8.07543e-05 6.46152e-07 0)
(7.84438e-05 6.8261e-07 0)
(7.60091e-05 7.17809e-07 0)
(7.34551e-05 7.51603e-07 0)
(7.0787e-05 7.83849e-07 0)
(6.80109e-05 8.1438e-07 0)
(6.51332e-05 8.42999e-07 0)
(6.21613e-05 8.69487e-07 0)
(5.91029e-05 8.93619e-07 0)
(5.5967e-05 9.15159e-07 0)
(5.27632e-05 9.33865e-07 0)
(4.9502e-05 9.49473e-07 0)
(4.61948e-05 9.61672e-07 0)
(4.28543e-05 9.70122e-07 0)
(3.94939e-05 9.74484e-07 0)
(3.61285e-05 9.74405e-07 0)
(3.27742e-05 9.69473e-07 0)
(2.94486e-05 9.59243e-07 0)
(2.61703e-05 9.43263e-07 0)
(2.29596e-05 9.21031e-07 0)
(1.98384e-05 8.91977e-07 0)
(1.68303e-05 8.55501e-07 0)
(1.39604e-05 8.10981e-07 0)
(1.12555e-05 7.57734e-07 0)
(8.74429e-06 6.95017e-07 0)
(6.45687e-06 6.22079e-07 0)
(4.42464e-06 5.38189e-07 0)
(2.67983e-06 4.42701e-07 0)
(1.25426e-06 3.3529e-07 0)
(1.77292e-07 2.16514e-07 0)
(-5.27611e-07 8.90123e-08 0)
(-8.50295e-07 -4.0467e-08 0)
(-8.0902e-07 -1.54792e-07 0)
(-4.9772e-07 -2.16056e-07 0)
(-1.46675e-07 -1.46636e-07 0)
(-1.68871e-07 6.29799e-07 0)
(-4.92408e-07 6.44127e-07 0)
(-5.09267e-07 1.87486e-07 0)
(1.96256e-07 -4.73704e-07 0)
(1.79616e-06 -1.20848e-06 0)
(4.34102e-06 -1.94405e-06 0)
(7.82117e-06 -2.64459e-06 0)
(1.21889e-05 -3.29112e-06 0)
(1.73782e-05 -3.87489e-06 0)
(2.33133e-05 -4.39341e-06 0)
(2.99136e-05 -4.84826e-06 0)
(3.70993e-05 -5.24177e-06 0)
(4.47918e-05 -5.57698e-06 0)
(5.29149e-05 -5.85747e-06 0)
(6.13967e-05 -6.08657e-06 0)
(7.01699e-05 -6.2677e-06 0)
(7.91712e-05 -6.40479e-06 0)
(8.83418e-05 -6.50146e-06 0)
(9.7627e-05 -6.56068e-06 0)
(0.000106976 -6.58532e-06 0)
(0.000116342 -6.57828e-06 0)
(0.000125682 -6.54229e-06 0)
(0.000134957 -6.47979e-06 0)
(0.00014413 -6.39312e-06 0)
(0.000153168 -6.28455e-06 0)
(0.000162042 -6.15597e-06 0)
(0.000170723 -6.00906e-06 0)
(0.000179187 -5.84556e-06 0)
(0.00018741 -5.66715e-06 0)
(0.000195371 -5.47527e-06 0)
(0.000203053 -5.27111e-06 0)
(0.000210438 -5.05577e-06 0)
(0.000217511 -4.83038e-06 0)
(0.000224257 -4.59606e-06 0)
(0.000230664 -4.3537e-06 0)
(0.000236721 -4.10403e-06 0)
(0.000242418 -3.84776e-06 0)
(0.000247746 -3.58553e-06 0)
(0.000252695 -3.31801e-06 0)
(0.000257259 -3.04576e-06 0)
(0.000261431 -2.76926e-06 0)
(0.000265205 -2.48895e-06 0)
(0.000268577 -2.20528e-06 0)
(0.00027154 -1.91868e-06 0)
(0.000274091 -1.62945e-06 0)
(0.000276226 -1.3379e-06 0)
(0.000277943 -1.04436e-06 0)
(0.000279238 -7.49188e-07 0)
(0.000280109 -4.52717e-07 0)
(0.000280555 -1.55243e-07 0)
(0.000280574 1.42943e-07 0)
(0.000280166 4.41526e-07 0)
(0.000279329 7.40189e-07 0)
(0.000278065 1.03856e-06 0)
(0.000276373 1.33626e-06 0)
(0.000274256 1.63292e-06 0)
(0.000271714 1.92813e-06 0)
(0.000268751 2.22146e-06 0)
(0.000265369 2.51239e-06 0)
(0.000261573 2.80036e-06 0)
(0.000257367 3.08484e-06 0)
(0.000252756 3.36524e-06 0)
(0.000247748 3.6409e-06 0)
(0.000242349 3.91111e-06 0)
(0.000236569 4.17508e-06 0)
(0.000230417 4.43196e-06 0)
(0.000223903 4.68083e-06 0)
(0.000217041 4.92072e-06 0)
(0.000209844 5.15057e-06 0)
(0.000202328 5.3693e-06 0)
(0.000194509 5.57568e-06 0)
(0.000186407 5.76839e-06 0)
(0.000178043 5.946e-06 0)
(0.000169439 6.107e-06 0)
(0.000160621 6.24979e-06 0)
(0.000151616 6.37264e-06 0)
(0.000142454 6.47371e-06 0)
(0.000133168 6.55103e-06 0)
(0.000123794 6.60245e-06 0)
(0.00011437 6.62574e-06 0)
(0.000104938 6.61856e-06 0)
(9.55435e-05 6.57841e-06 0)
(8.62342e-05 6.50259e-06 0)
(7.70627e-05 6.38831e-06 0)
(6.80848e-05 6.23264e-06 0)
(5.93603e-05 6.03249e-06 0)
(5.09528e-05 5.78472e-06 0)
(4.29295e-05 5.48616e-06 0)
(3.53612e-05 5.13373e-06 0)
(2.83218e-05 4.72455e-06 0)
(2.18873e-05 4.25625e-06 0)
(1.61345e-05 3.72745e-06 0)
(1.11385e-05 3.13854e-06 0)
(6.96923e-06 2.49313e-06 0)
(3.68479e-06 1.80087e-06 0)
(1.3217e-06 1.08254e-06 0)
(-1.20367e-07 3.78595e-07 0)
(-7.04486e-07 -2.33879e-07 0)
(-6.13754e-07 -6.13002e-07 0)
(-2.16266e-07 -4.97663e-07 0)
(-1.24626e-07 8.5503e-07 0)
(-1.14932e-07 6.38521e-07 0)
(6.35532e-07 -5.56193e-07 0)
(2.48141e-06 -2.2267e-06 0)
(5.61148e-06 -4.0967e-06 0)
(1.01003e-05 -5.99956e-06 0)
(1.59446e-05 -7.83982e-06 0)
(2.30916e-05 -9.56272e-06 0)
(3.1458e-05 -1.11393e-05 0)
(4.09414e-05 -1.25569e-05 0)
(5.14311e-05 -1.38115e-05 0)
(6.28131e-05 -1.4905e-05 0)
(7.49731e-05 -1.58434e-05 0)
(8.77996e-05 -1.66341e-05 0)
(0.000101185 -1.72846e-05 0)
(0.000115028 -1.78038e-05 0)
(0.000129231 -1.82003e-05 0)
(0.000143704 -1.84829e-05 0)
(0.000158361 -1.86601e-05 0)
(0.000173126 -1.87399e-05 0)
(0.000187923 -1.87301e-05 0)
(0.000202687 -1.86376e-05 0)
(0.000217353 -1.84693e-05 0)
(0.000231866 -1.82317e-05 0)
(0.000246172 -1.79308e-05 0)
(0.000260224 -1.75722e-05 0)
(0.000273977 -1.71608e-05 0)
(0.000287391 -1.67015e-05 0)
(0.00030043 -1.61987e-05 0)
(0.000313059 -1.56565e-05 0)
(0.00032525 -1.50785e-05 0)
(0.000336973 -1.44682e-05 0)
(0.000348205 -1.38286e-05 0)
(0.000358923 -1.31625e-05 0)
(0.000369106 -1.24726e-05 0)
(0.000378736 -1.17612e-05 0)
(0.000387796 -1.10304e-05 0)
(0.000396272 -1.02823e-05 0)
(0.000404149 -9.51856e-06 0)
(0.000411416 -8.74071e-06 0)
(0.000418062 -7.95021e-06 0)
(0.000424076 -7.14849e-06 0)
(0.000429451 -6.33681e-06 0)
(0.000434178 -5.51629e-06 0)
(0.00043825 -4.68799e-06 0)
(0.000441662 -3.85287e-06 0)
(0.000444408 -3.01193e-06 0)
(0.000446485 -2.16612e-06 0)
(0.000447887 -1.31637e-06 0)
(0.000448613 -4.63574e-07 0)
(0.000448659 3.91378e-07 0)
(0.000448026 1.24751e-06 0)
(0.000446712 2.10382e-06 0)
(0.000444717 2.95929e-06 0)
(0.000442043 3.81282e-06 0)
(0.000438691 4.6633e-06 0)
(0.000434664 5.50952e-06 0)
(0.000429967 6.35014e-06 0)
(0.000424605 7.18375e-06 0)
(0.000418583 8.00878e-06 0)
(0.00041191 8.82355e-06 0)
(0.000404594 9.62631e-06 0)
(0.000396647 1.04151e-05 0)
(0.000388079 1.1188e-05 0)
(0.000378906 1.19425e-05 0)
(0.000369143 1.26762e-05 0)
(0.000358808 1.33866e-05 0)
(0.00034792 1.40708e-05 0)
(0.000336503 1.47258e-05 0)
(0.000324581 1.53483e-05 0)
(0.000312181 1.59348e-05 0)
(0.000299335 1.64815e-05 0)
(0.000286076 1.69844e-05 0)
(0.00027244 1.74393e-05 0)
(0.000258469 1.78414e-05 0)
(0.000244205 1.8186e-05 0)
(0.000229698 1.84677e-05 0)
(0.000214999 1.86811e-05 0)
(0.000200165 1.88203e-05 0)
(0.000185257 1.88792e-05 0)
(0.00017034 1.88512e-05 0)
(0.000155487 1.87295e-05 0)
(0.000140772 1.85069e-05 0)
(0.000126276 1.81761e-05 0)
(0.000112088 1.77294e-05 0)
(9.82979e-05 1.71591e-05 0)
(8.50033e-05 1.64575e-05 0)
(7.23061e-05 1.56172e-05 0)
(6.0312e-05 1.46315e-05 0)
(4.91301e-05 1.34949e-05 0)
(3.88706e-05 1.22041e-05 0)
(2.96425e-05 1.07594e-05 0)
(2.15497e-05 9.16692e-06 0)
(1.46849e-05 7.44275e-06 0)
(9.12108e-06 5.61877e-06 0)
(4.89873e-06 3.75324e-06 0)
(2.00794e-06 1.94734e-06 0)
(3.62837e-07 3.69704e-07 0)
(-2.38239e-07 -7.05023e-07 0)
(-1.55863e-07 -8.1006e-07 0)
(-1.40442e-08 8.19694e-07 0)
(5.07049e-07 -8.66852e-08 0)
(2.26444e-06 -2.40301e-06 0)
(5.49292e-06 -5.4542e-06 0)
(1.03466e-05 -8.83541e-06 0)
(1.68954e-05 -1.22874e-05 0)
(2.51334e-05 -1.56465e-05 0)
(3.50006e-05 -1.88141e-05 0)
(4.64007e-05 -2.17345e-05 0)
(5.92155e-05 -2.4378e-05 0)
(7.33127e-05 -2.6732e-05 0)
(8.85532e-05 -2.87958e-05 0)
(0.000104797 -3.05753e-05 0)
(0.000121904 -3.20811e-05 0)
(0.00013974 -3.33262e-05 0)
(0.000158175 -3.43251e-05 0)
(0.000177085 -3.50928e-05 0)
(0.000196352 -3.56441e-05 0)
(0.000215868 -3.59945e-05 0)
(0.000235528 -3.61587e-05 0)
(0.000255237 -3.61507e-05 0)
(0.000274906 -3.59837e-05 0)
(0.000294453 -3.56707e-05 0)
(0.000313801 -3.52236e-05 0)
(0.00033288 -3.46536e-05 0)
(0.000351627 -3.39713e-05 0)
(0.000369981 -3.31865e-05 0)
(0.00038789 -3.23084e-05 0)
(0.000405303 -3.13452e-05 0)
(0.000422176 -3.03047e-05 0)
(0.000438468 -2.91941e-05 0)
(0.000454141 -2.80201e-05 0)
(0.000469162 -2.67886e-05 0)
(0.000483501 -2.55051e-05 0)
(0.000497128 -2.41746e-05 0)
(0.00051002 -2.28016e-05 0)
(0.000522152 -2.13904e-05 0)
(0.000533506 -1.99448e-05 0)
(0.000544062 -1.84682e-05 0)
(0.000553803 -1.69637e-05 0)
(0.000562715 -1.54343e-05 0)
(0.000570784 -1.38825e-05 0)
(0.000577998 -1.23109e-05 0)
(0.000584347 -1.07216e-05 0)
(0.00058982 -9.11688e-06 0)
(0.00059441 -7.49861e-06 0)
(0.000598109 -5.86876e-06 0)
(0.000600912 -4.2292e-06 0)
(0.000602812 -2.58173e-06 0)
(0.000603807 -9.2818e-07 0)
(0.000603892 7.29648e-07 0)
(0.000603067 2.38989e-06 0)
(0.000601329 4.05057e-06 0)
(0.00059868 5.70963e-06 0)
(0.000595121 7.36494e-06 0)
(0.000590655 9.01423e-06 0)
(0.000585285 1.06551e-05 0)
(0.000579017 1.2285e-05 0)
(0.000571858 1.39009e-05 0)
(0.000563817 1.55e-05 0)
(0.000554903 1.7079e-05 0)
(0.00054513 1.86343e-05 0)
(0.000534512 2.01622e-05 0)
(0.000523064 2.16585e-05 0)
(0.000510807 2.31189e-05 0)
(0.000497762 2.45384e-05 0)
(0.000483952 2.59121e-05 0)
(0.000469405 2.72343e-05 0)
(0.000454152 2.84993e-05 0)
(0.000438225 2.97005e-05 0)
(0.000421663 3.08313e-05 0)
(0.000404507 3.18842e-05 0)
(0.000386802 3.28516e-05 0)
(0.000368598 3.37251e-05 0)
(0.000349949 3.4496e-05 0)
(0.000330913 3.51548e-05 0)
(0.000311556 3.56916e-05 0)
(0.000291948 3.6096e-05 0)
(0.000272162 3.63568e-05 0)
(0.000252282 3.64626e-05 0)
(0.000232393 3.6401e-05 0)
(0.000212589 3.61596e-05 0)
(0.000192971 3.57251e-05 0)
(0.000173645 3.50843e-05 0)
(0.000154723 3.42234e-05 0)
(0.000136325 3.31291e-05 0)
(0.000118574 3.17883e-05 0)
(0.000101601 3.0189e-05 0)
(8.55392e-05 2.8321e-05 0)
(7.05248e-05 2.6177e-05 0)
(5.66935e-05 2.37546e-05 0)
(4.41775e-05 2.10588e-05 0)
(3.31005e-05 1.81061e-05 0)
(2.35709e-05 1.49309e-05 0)
(1.5672e-05 1.1595e-05 0)
(9.45042e-06 8.20224e-06 0)
(4.89744e-06 4.92071e-06 0)
(1.92737e-06 2.0118e-06 0)
(3.67679e-07 -1.2727e-07 0)
(-4.32024e-08 -8.55334e-07 0)
(1.14439e-07 4.24785e-07 0)
(1.21909e-06 -1.69436e-06 0)
(4.10476e-06 -5.53427e-06 0)
(8.84431e-06 -1.03063e-05 0)
(1.55233e-05 -1.55111e-05 0)
(2.41906e-05 -2.08091e-05 0)
(3.48249e-05 -2.59753e-05 0)
(4.73522e-05 -3.08669e-05 0)
(6.16646e-05 -3.53968e-05 0)
(7.76299e-05 -3.95158e-05 0)
(9.50998e-05 -4.32008e-05 0)
(0.000113917 -4.64453e-05 0)
(0.000133921 -4.9254e-05 0)
(0.000154951 -5.16395e-05 0)
(0.000176851 -5.36193e-05 0)
(0.000199468 -5.52137e-05 0)
(0.000222656 -5.64443e-05 0)
(0.000246276 -5.73334e-05 0)
(0.000270198 -5.79038e-05 0)
(0.000294297 -5.81776e-05 0)
(0.000318458 -5.81763e-05 0)
(0.000342574 -5.79207e-05 0)
(0.000366545 -5.74308e-05 0)
(0.000390278 -5.67252e-05 0)
(0.000413687 -5.58216e-05 0)
(0.000436694 -5.47365e-05 0)
(0.000459227 -5.34857e-05 0)
(0.000481219 -5.20836e-05 0)
(0.000502609 -5.05434e-05 0)
(0.000523341 -4.88777e-05 0)
(0.000543365 -4.70979e-05 0)
(0.000562635 -4.52145e-05 0)
(0.000581109 -4.32374e-05 0)
(0.000598748 -4.11753e-05 0)
(0.000615518 -3.90362e-05 0)
(0.000631387 -3.68277e-05 0)
(0.000646326 -3.45565e-05 0)
(0.000660311 -3.22287e-05 0)
(0.000673318 -2.98499e-05 0)
(0.000685325 -2.74254e-05 0)
(0.000696315 -2.49597e-05 0)
(0.000706269 -2.24573e-05 0)
(0.000715173 -1.99221e-05 0)
(0.000723013 -1.73578e-05 0)
(0.000729777 -1.47679e-05 0)
(0.000735454 -1.21556e-05 0)
(0.000740036 -9.52415e-06 0)
(0.000743515 -6.87659e-06 0)
(0.000745884 -4.21592e-06 0)
(0.000747137 -1.5451e-06 0)
(0.000747272 1.13285e-06 0)
(0.000746285 3.81484e-06 0)
(0.000744175 6.49762e-06 0)
(0.000740943 9.17785e-06 0)
(0.000736589 1.18521e-05 0)
(0.000731119 1.45165e-05 0)
(0.000724536 1.71673e-05 0)
(0.000716847 1.97999e-05 0)
(0.000708061 2.24099e-05 0)
(0.000698188 2.49922e-05 0)
(0.000687242 2.75417e-05 0)
(0.000675238 3.00526e-05 0)
(0.000662194 3.25185e-05 0)
(0.00064813 3.49328e-05 0)
(0.00063307 3.72884e-05 0)
(0.000617041 3.95774e-05 0)
(0.000600073 4.17915e-05 0)
(0.0005822 4.39218e-05 0)
(0.00056346 4.59586e-05 0)
(0.000543893 4.78918e-05 0)
(0.000523548 4.97102e-05 0)
(0.000502474 5.14022e-05 0)
(0.000480729 5.29553e-05 0)
(0.000458372 5.43561e-05 0)
(0.000435472 5.55907e-05 0)
(0.000412101 5.6644e-05 0)
(0.000388337 5.75003e-05 0)
(0.000364267 5.81431e-05 0)
(0.000339982 5.85549e-05 0)
(0.000315582 5.87176e-05 0)
(0.000291172 5.86123e-05 0)
(0.000266866 5.82195e-05 0)
(0.000242784 5.75192e-05 0)
(0.000219054 5.64912e-05 0)
(0.00019581 5.51153e-05 0)
(0.000173195 5.33718e-05 0)
(0.000151355 5.12421e-05 0)
(0.000130442 4.871e-05 0)
(0.000110613 4.57623e-05 0)
(9.20235e-05 4.23914e-05 0)
(7.48295e-05 3.85975e-05 0)
(5.91807e-05 3.43931e-05 0)
(4.52162e-05 2.98081e-05 0)
(3.30571e-05 2.48987e-05 0)
(2.27984e-05 1.97593e-05 0)
(1.44978e-05 1.45397e-05 0)
(8.1602e-06 9.47028e-06 0)
(3.71909e-06 4.89258e-06 0)
(1.06383e-06 1.30142e-06 0)
(8.41288e-08 -5.40971e-07 0)
(2.39817e-07 -3.52142e-07 0)
(1.94034e-06 -4.23739e-06 0)
(5.99261e-06 -1.00221e-05 0)
(1.22863e-05 -1.68585e-05 0)
(2.0823e-05 -2.41809e-05 0)
(3.1616e-05 -3.15894e-05 0)
(4.46177e-05 -3.8809e-05 0)
(5.97354e-05 -4.56563e-05 0)
(7.68458e-05 -5.20145e-05 0)
(9.58024e-05 -5.78143e-05 0)
(0.000116443 -6.30198e-05 0)
(0.000138596 -6.76176e-05 0)
(0.000162084 -7.16105e-05 0)
(0.000186731 -7.50121e-05 0)
(0.000212362 -7.78436e-05 0)
(0.000238807 -8.01303e-05 0)
(0.000265902 -8.1901e-05 0)
(0.000293491 -8.31858e-05 0)
(0.000321423 -8.40151e-05 0)
(0.00034956 -8.44191e-05 0)
(0.000377769 -8.44277e-05 0)
(0.000405926 -8.407e-05 0)
(0.000433916 -8.33738e-05 0)
(0.000461632 -8.23654e-05 0)
(0.000488976 -8.10697e-05 0)
(0.000515855 -7.95106e-05 0)
(0.000542186 -7.77102e-05 0)
(0.000567891 -7.56892e-05 0)
(0.000592898 -7.34667e-05 0)
(0.000617143 -7.10607e-05 0)
(0.000640566 -6.84878e-05 0)
(0.000663113 -6.57631e-05 0)
(0.000684734 -6.29006e-05 0)
(0.000705384 -5.99132e-05 0)
(0.000725022 -5.68127e-05 0)
(0.00074361 -5.36099e-05 0)
(0.000761116 -5.03147e-05 0)
(0.000777507 -4.69359e-05 0)
(0.000792757 -4.34819e-05 0)
(0.000806841 -3.996e-05 0)
(0.000819735 -3.63774e-05 0)
(0.00083142 -3.27403e-05 0)
(0.000841877 -2.90545e-05 0)
(0.00085109 -2.53255e-05 0)
(0.000859045 -2.15584e-05 0)
(0.000865729 -1.77581e-05 0)
(0.00087113 -1.39293e-05 0)
(0.00087524 -1.00764e-05 0)
(0.00087805 -6.2039e-06 0)
(0.000879555 -2.3162e-06 0)
(0.000879748 1.58221e-06 0)
(0.000878628 5.48672e-06 0)
(0.000876193 9.39261e-06 0)
(0.000872442 1.32949e-05 0)
(0.000867378 1.71885e-05 0)
(0.000861005 2.10679e-05 0)
(0.000853327 2.49271e-05 0)
(0.000844355 2.87598e-05 0)
(0.000834096 3.25592e-05 0)
(0.000822565 3.6318e-05 0)
(0.000809777 4.00285e-05 0)
(0.000795749 4.36822e-05 0)
(0.000780502 4.72698e-05 0)
(0.000764062 5.07817e-05 0)
(0.000746456 5.42072e-05 0)
(0.000727715 5.75349e-05 0)
(0.000707876 6.07528e-05 0)
(0.000686978 6.38477e-05 0)
(0.000665066 6.68057e-05 0)
(0.000642189 6.96117e-05 0)
(0.000618402 7.22498e-05 0)
(0.000593764 7.4703e-05 0)
(0.000568342 7.69532e-05 0)
(0.000542207 7.89814e-05 0)
(0.000515438 8.07671e-05 0)
(0.00048812 8.22891e-05 0)
(0.000460344 8.35247e-05 0)
(0.000432211 8.44505e-05 0)
(0.000403827 8.50417e-05 0)
(0.000375306 8.52728e-05 0)
(0.000346772 8.51172e-05 0)
(0.000318354 8.45479e-05 0)
(0.000290191 8.35374e-05 0)
(0.000262428 8.20579e-05 0)
(0.000235219 8.00824e-05 0)
(0.000208724 7.75849e-05 0)
(0.000183108 7.45415e-05 0)
(0.000158543 7.09318e-05 0)
(0.0001352 6.67409e-05 0)
(0.000113255 6.19618e-05 0)
(9.28781e-05 5.65989e-05 0)
(7.42337e-05 5.06736e-05 0)
(5.74745e-05 4.42309e-05 0)
(4.2735e-05 3.73496e-05 0)
(3.01244e-05 3.01554e-05 0)
(1.97187e-05 2.28403e-05 0)
(1.15467e-05 1.56875e-05 0)
(5.57567e-06 9.10112e-06 0)
(1.77551e-06 3.64512e-06 0)
(2.09441e-07 1.50997e-07 0)
(3.56879e-07 -1.50168e-06 0)
(2.63428e-06 -7.71121e-06 0)
(7.83417e-06 -1.58718e-05 0)
(1.56666e-05 -2.51156e-05 0)
(2.6041e-05 -3.48394e-05 0)
(3.89249e-05 -4.46031e-05 0)
(5.42378e-05 -5.40931e-05 0)
(7.18624e-05 -6.30936e-05 0)
(9.1656e-05 -7.14625e-05 0)
(0.000113457 -7.91117e-05 0)
(0.000137088 -8.59922e-05 0)
(0.000162366 -9.20837e-05 0)
(0.000189099 -9.73864e-05 0)
(0.000217098 -0.000101915 0)
(0.000246172 -0.000105692 0)
(0.000276139 -0.00010875 0)
(0.000306818 -0.000111124 0)
(0.000338038 -0.00011285 0)
(0.000369637 -0.000113969 0)
(0.000401458 -0.000114518 0)
(0.000433357 -0.000114537 0)
(0.000465196 -0.000114063 0)
(0.000496847 -0.000113133 0)
(0.00052819 -0.000111781 0)
(0.000559115 -0.00011004 0)
(0.00058952 -0.000107942 0)
(0.000619309 -0.000105517 0)
(0.000648395 -0.000102792 0)
(0.000676698 -9.97919e-05 0)
(0.000704144 -9.65419e-05 0)
(0.000730665 -9.3064e-05 0)
(0.0007562 -8.93787e-05 0)
(0.000780693 -8.55047e-05 0)
(0.000804092 -8.14596e-05 0)
(0.00082635 -7.72593e-05 0)
(0.000847424 -7.29185e-05 0)
(0.000867276 -6.84506e-05 0)
(0.000885871 -6.38677e-05 0)
(0.000903176 -5.91811e-05 0)
(0.000919163 -5.4401e-05 0)
(0.000933807 -4.9537e-05 0)
(0.000947082 -4.45976e-05 0)
(0.000958969 -3.95909e-05 0)
(0.000969448 -3.45243e-05 0)
(0.000978503 -2.9405e-05 0)
(0.000986118 -2.42396e-05 0)
(0.000992282 -1.90346e-05 0)
(0.000996982 -1.3796e-05 0)
(0.00100021 -8.53014e-06 0)
(0.00100196 -3.24301e-06 0)
(0.00100222 2.05919e-06 0)
(0.00100099 7.37009e-06 0)
(0.000998277 1.26832e-05 0)
(0.000994068 1.79917e-05 0)
(0.000988369 2.32885e-05 0)
(0.000981186 2.85658e-05 0)
(0.000972525 3.38156e-05 0)
(0.000962393 3.90293e-05 0)
(0.000950805 4.41973e-05 0)
(0.000937772 4.93099e-05 0)
(0.000923314 5.43561e-05 0)
(0.00090745 5.93244e-05 0)
(0.000890205 6.42023e-05 0)
(0.000871606 6.89763e-05 0)
(0.000851686 7.3632e-05 0)
(0.00083048 7.81538e-05 0)
(0.00080803 8.25252e-05 0)
(0.00078438 8.67284e-05 0)
(0.000759581 9.07442e-05 0)
(0.000733689 9.45525e-05 0)
(0.000706767 9.81314e-05 0)
(0.000678883 0.000101458 0)
(0.00065011 0.000104508 0)
(0.000620531 0.000107256 0)
(0.000590234 0.000109674 0)
(0.000559315 0.000111733 0)
(0.000527878 0.000113405 0)
(0.000496035 0.000114656 0)
(0.000463904 0.000115455 0)
(0.000431616 0.000115768 0)
(0.000399305 0.00011556 0)
(0.000367118 0.000114797 0)
(0.000335207 0.000113441 0)
(0.000303734 0.000111459 0)
(0.000272868 0.000108816 0)
(0.000242783 0.000105479 0)
(0.000213663 0.00010142 0)
(0.000185691 9.66152e-05 0)
(0.000159056 9.10475e-05 0)
(0.000133947 8.47117e-05 0)
(0.000110547 7.76175e-05 0)
(8.90344e-05 6.97954e-05 0)
(6.95759e-05 6.13055e-05 0)
(5.23208e-05 5.22476e-05 0)
(3.73966e-05 4.27754e-05 0)
(2.49033e-05 3.3116e-05 0)
(1.4902e-05 2.35933e-05 0)
(7.40293e-06 1.46556e-05 0)
(2.46486e-06 6.90859e-06 0)
(3.26397e-07 1.21158e-06 0)
(4.63203e-07 -2.99943e-06 0)
(3.28284e-06 -1.20802e-05 0)
(9.58081e-06 -2.30446e-05 0)
(1.88985e-05 -3.5036e-05 0)
(3.1053e-05 -4.74384e-05 0)
(4.59625e-05 -5.97883e-05 0)
(6.35081e-05 -7.17465e-05 0)
(8.35425e-05 -8.30742e-05 0)
(0.000105901 -9.36094e-05 0)
(0.000130405 -0.000103248 0)
(0.000156862 -0.00011193 0)
(0.000185076 -0.00011963 0)
(0.000214842 -0.000126344 0)
(0.00024596 -0.000132086 0)
(0.000278226 -0.000136885 0)
(0.000311446 -0.000140777 0)
(0.000345427 -0.000143802 0)
(0.000379985 -0.000146006 0)
(0.000414947 -0.000147436 0)
(0.000450144 -0.00014814 0)
(0.000485418 -0.000148166 0)
(0.000520622 -0.00014756 0)
(0.000555616 -0.000146368 0)
(0.00059027 -0.000144634 0)
(0.000624464 -0.0001424 0)
(0.000658084 -0.000139704 0)
(0.000691028 -0.000136586 0)
(0.000723199 -0.000133078 0)
(0.000754508 -0.000129216 0)
(0.000784875 -0.000125028 0)
(0.000814225 -0.000120545 0)
(0.00084249 -0.000115791 0)
(0.000869606 -0.000110792 0)
(0.000895517 -0.00010557 0)
(0.000920171 -0.000100145 0)
(0.00094352 -9.45363e-05 0)
(0.000965521 -8.87614e-05 0)
(0.000986135 -8.28359e-05 0)
(0.00100533 -7.67745e-05 0)
(0.00102306 -7.05905e-05 0)
(0.00103931 -6.42961e-05 0)
(0.00105405 -5.79025e-05 0)
(0.00106726 -5.14204e-05 0)
(0.0010789 -4.48594e-05 0)
(0.00108898 -3.82288e-05 0)
(0.00109746 -3.15372e-05 0)
(0.00110433 -2.47933e-05 0)
(0.00110959 -1.80049e-05 0)
(0.00111321 -1.11802e-05 0)
(0.0011152 -4.32723e-06 0)
(0.00111554 2.54594e-06 0)
(0.00111423 9.43099e-06 0)
(0.00111127 1.63194e-05 0)
(0.00110666 2.32022e-05 0)
(0.0011004 3.00699e-05 0)
(0.00109249 3.69127e-05 0)
(0.00108294 4.37197e-05 0)
(0.00107177 5.04797e-05 0)
(0.00105898 5.71804e-05 0)
(0.00104459 6.38088e-05 0)
(0.00102862 7.03507e-05 0)
(0.00101109 7.6791e-05 0)
(0.000992029 8.31134e-05 0)
(0.00097147 8.93004e-05 0)
(0.000949446 9.53331e-05 0)
(0.000925997 0.000101191 0)
(0.000901169 0.000106854 0)
(0.000875013 0.000112297 0)
(0.000847583 0.000117496 0)
(0.000818944 0.000122425 0)
(0.000789162 0.000127057 0)
(0.000758315 0.00013136 0)
(0.000726483 0.000135305 0)
(0.000693758 0.000138858 0)
(0.000660237 0.000141983 0)
(0.000626025 0.000144645 0)
(0.000591236 0.000146806 0)
(0.000555994 0.000148425 0)
(0.000520428 0.000149461 0)
(0.00048468 0.000149873 0)
(0.000448899 0.000149616 0)
(0.000413241 0.000148647 0)
(0.000377874 0.000146922 0)
(0.000342972 0.000144398 0)
(0.000308716 0.000141034 0)
(0.000275296 0.000136791 0)
(0.000242905 0.000131635 0)
(0.000211744 0.000125539 0)
(0.000182011 0.000118486 0)
(0.000153908 0.000110473 0)
(0.000127633 0.000101512 0)
(0.000103376 9.16454e-05 0)
(8.13186e-05 8.09449e-05 0)
(6.16278e-05 6.9529e-05 0)
(4.44527e-05 5.75741e-05 0)
(2.99224e-05 4.53338e-05 0)
(1.81354e-05 3.31605e-05 0)
(9.14974e-06 2.1529e-05 0)
(3.11384e-06 1.10632e-05 0)
(4.32844e-07 2.61987e-06 0)
(5.58187e-07 -4.81815e-06 0)
(3.88e-06 -1.72909e-05 0)
(1.12103e-05 -3.14767e-05 0)
(2.19366e-05 -4.65509e-05 0)
(3.57901e-05 -6.19024e-05 0)
(5.26386e-05 -7.70605e-05 0)
(7.23213e-05 -9.16731e-05 0)
(9.46583e-05 -0.000105487 0)
(0.000119461 -0.000118325 0)
(0.00014653 -0.000130074 0)
(0.000175659 -0.000140664 0)
(0.000206635 -0.000150065 0)
(0.000239246 -0.000158272 0)
(0.000273275 -0.0001653 0)
(0.000308511 -0.000171179 0)
(0.000344748 -0.000175952 0)
(0.000381782 -0.000179665 0)
(0.000419422 -0.000182372 0)
(0.00045748 -0.000184128 0)
(0.000495779 -0.000184991 0)
(0.000534152 -0.000185017 0)
(0.000572442 -0.000184262 0)
(0.000610498 -0.000182782 0)
(0.000648183 -0.000180629 0)
(0.000685367 -0.000177855 0)
(0.000721929 -0.000174507 0)
(0.000757757 -0.000170632 0)
(0.000792748 -0.000166272 0)
(0.000826806 -0.000161469 0)
(0.000859844 -0.000156259 0)
(0.000891781 -0.000150679 0)
(0.000922542 -0.00014476 0)
(0.000952059 -0.000138532 0)
(0.000980271 -0.000132025 0)
(0.00100712 -0.000125263 0)
(0.00103255 -0.000118269 0)
(0.00105653 -0.000111066 0)
(0.00107899 -0.000103672 0)
(0.00109992 -9.61073e-05 0)
(0.00111926 -8.83872e-05 0)
(0.00113699 -8.05273e-05 0)
(0.00115308 -7.25418e-05 0)
(0.0011675 -6.44439e-05 0)
(0.00118023 -5.62458e-05 0)
(0.00119125 -4.79592e-05 0)
(0.00120054 -3.95951e-05 0)
(0.00120808 -3.11641e-05 0)
(0.00121386 -2.26763e-05 0)
(0.00121786 -1.4142e-05 0)
(0.00122008 -5.57131e-06 0)
(0.00122051 3.02548e-06 0)
(0.00121915 1.16379e-05 0)
(0.00121598 2.02552e-05 0)
(0.00121102 2.8866e-05 0)
(0.00120425 3.74584e-05 0)
(0.0011957 4.60198e-05 0)
(0.00118536 5.45366e-05 0)
(0.00117325 6.29946e-05 0)
(0.00115937 7.13784e-05 0)
(0.00114375 7.96713e-05 0)
(0.00112641 8.78558e-05 0)
(0.00110737 9.59126e-05 0)
(0.00108667 0.000103821 0)
(0.00106432 0.00011156 0)
(0.00104039 0.000119105 0)
(0.00101489 0.000126431 0)
(0.0009879 0.00013351 0)
(0.000959457 0.000140315 0)
(0.000929627 0.000146814 0)
(0.000898477 0.000152974 0)
(0.000866082 0.000158761 0)
(0.000832525 0.000164138 0)
(0.000797894 0.000169065 0)
(0.000762287 0.000173503 0)
(0.00072581 0.000177408 0)
(0.000688577 0.000180735 0)
(0.000650711 0.000183436 0)
(0.000612344 0.000185465 0)
(0.000573618 0.000186769 0)
(0.000534682 0.000187299 0)
(0.000495697 0.000187001 0)
(0.000456831 0.000185823 0)
(0.000418262 0.000183712 0)
(0.000380175 0.000180619 0)
(0.000342764 0.000176493 0)
(0.000306228 0.000171291 0)
(0.000270775 0.000164974 0)
(0.000236614 0.000157511 0)
(0.000203958 0.000148884 0)
(0.000173018 0.000139091 0)
(0.000144005 0.000128151 0)
(0.000117125 0.00011611 0)
(9.25748e-05 0.000103054 0)
(7.05403e-05 8.91133e-05 0)
(5.11955e-05 7.44823e-05 0)
(3.47018e-05 5.94321e-05 0)
(2.11979e-05 4.43318e-05 0)
(1.0791e-05 2.96671e-05 0)
(3.71535e-06 1.60623e-05 0)
(5.28657e-07 4.35041e-06 0)
(6.4278e-07 -6.92877e-06 0)
(4.425e-06 -2.3282e-05 0)
(1.27145e-05 -4.1091e-05 0)
(2.47626e-05 -5.95739e-05 0)
(4.02207e-05 -7.81387e-05 0)
(5.89075e-05 -9.63208e-05 0)
(8.06207e-05 -0.000113766 0)
(0.000105147 -0.000130214 0)
(0.000132269 -0.000145481 0)
(0.000161769 -0.000159446 0)
(0.000193423 -0.000172037 0)
(0.000227003 -0.000183217 0)
(0.000262284 -0.000192984 0)
(0.000299039 -0.000201353 0)
(0.000337048 -0.000208359 0)
(0.000376093 -0.000214049 0)
(0.000415963 -0.000218477 0)
(0.000456455 -0.000221703 0)
(0.000497375 -0.000223794 0)
(0.000538537 -0.000224813 0)
(0.000579766 -0.000224829 0)
(0.000620894 -0.000223906 0)
(0.000661765 -0.00022211 0)
(0.000702233 -0.000219503 0)
(0.00074216 -0.000216146 0)
(0.000781419 -0.000212095 0)
(0.000819892 -0.000207405 0)
(0.000857468 -0.000202128 0)
(0.000894045 -0.000196312 0)
(0.000929531 -0.000190003 0)
(0.000963839 -0.000183242 0)
(0.000996889 -0.00017607 0)
(0.00102861 -0.000168521 0)
(0.00105893 -0.00016063 0)
(0.00108779 -0.000152428 0)
(0.00111514 -0.000143943 0)
(0.00114093 -0.000135201 0)
(0.0011651 -0.000126226 0)
(0.00118762 -0.000117041 0)
(0.00120844 -0.000107665 0)
(0.00122754 -9.81168e-05 0)
(0.00124488 -8.84142e-05 0)
(0.00126043 -7.8573e-05 0)
(0.00127417 -6.86082e-05 0)
(0.00128606 -5.8534e-05 0)
(0.0012961 -4.83639e-05 0)
(0.00130427 -3.81107e-05 0)
(0.00131054 -2.77871e-05 0)
(0.00131491 -1.74055e-05 0)
(0.00131736 -6.97848e-06 0)
(0.00131789 3.48149e-06 0)
(0.00131649 1.39615e-05 0)
(0.00131315 2.44484e-05 0)
(0.00130788 3.4928e-05 0)
(0.00130068 4.53859e-05 0)
(0.00129155 5.58065e-05 0)
(0.0012805 6.61733e-05 0)
(0.00126754 7.64686e-05 0)
(0.00125269 8.66736e-05 0)
(0.00123596 9.67681e-05 0)
(0.00121738 0.00010673 0)
(0.00119697 0.000116537 0)
(0.00117477 0.000126163 0)
(0.0011508 0.000135581 0)
(0.00112512 0.000144762 0)
(0.00109777 0.000153677 0)
(0.0010688 0.000162291 0)
(0.00103826 0.00017057 0)
(0.00100624 0.000178476 0)
(0.00097279 0.00018597 0)
(0.000938001 0.000193009 0)
(0.000901959 0.000199549 0)
(0.000864759 0.000205543 0)
(0.000826505 0.000210942 0)
(0.00078731 0.000215694 0)
(0.000747296 0.000219745 0)
(0.000706594 0.000223039 0)
(0.000665344 0.000225519 0)
(0.000623697 0.000227124 0)
(0.000581811 0.000227794 0)
(0.000539856 0.000227468 0)
(0.000498011 0.000226083 0)
(0.000456461 0.000223579 0)
(0.000415404 0.000219897 0)
(0.000375042 0.000214981 0)
(0.000335587 0.00020878 0)
(0.000297254 0.00020125 0)
(0.000260264 0.000192358 0)
(0.000224841 0.000182084 0)
(0.000191208 0.000170426 0)
(0.00015959 0.000157405 0)
(0.000130206 0.000143076 0)
(0.000103272 0.00012753 0)
(7.89939e-05 0.000110908 0)
(5.75729e-05 9.34142e-05 0)
(3.92041e-05 7.53303e-05 0)
(2.4067e-05 5.70309e-05 0)
(1.23172e-05 3.90009e-05 0)
(4.26809e-06 2.18508e-05 0)
(6.14535e-07 6.37655e-06 0)
(7.17915e-07 -9.30396e-06 0)
(4.91965e-06 -2.9992e-05 0)
(1.40948e-05 -5.18043e-05 0)
(2.73741e-05 -7.401e-05 0)
(4.43361e-05 -9.60457e-05 0)
(6.47542e-05 -0.000117462 0)
(8.8386e-05 -0.000137912 0)
(0.000114983 -0.000157135 0)
(0.000144303 -0.000174948 0)
(0.000176102 -0.000191227 0)
(0.00021014 -0.000205898 0)
(0.000246176 -0.000218927 0)
(0.000283969 -0.000230309 0)
(0.000323283 -0.000240065 0)
(0.000363886 -0.000248233 0)
(0.000405553 -0.000254867 0)
(0.000448065 -0.000260028 0)
(0.000491209 -0.000263785 0)
(0.000534785 -0.000266211 0)
(0.000578598 -0.000267382 0)
(0.000622466 -0.000267373 0)
(0.000666215 -0.000266262 0)
(0.000709682 -0.000264121 0)
(0.000752714 -0.000261025 0)
(0.000795167 -0.000257042 0)
(0.000836908 -0.000252239 0)
(0.000877813 -0.000246681 0)
(0.000917765 -0.000240426 0)
(0.000956658 -0.000233532 0)
(0.000994393 -0.000226053 0)
(0.00103088 -0.000218036 0)
(0.00106603 -0.000209529 0)
(0.00109978 -0.000200574 0)
(0.00113204 -0.000191211 0)
(0.00116276 -0.000181476 0)
(0.00119187 -0.000171403 0)
(0.00121933 -0.000161023 0)
(0.00124507 -0.000150363 0)