/*--------------------------------*- C++ -*----------------------------------*\
  =========                 |
  \\      /  F ield         | OpenFOAM: The Open Source CFD Toolbox
   \\    /   O peration     | Website:  https://openfoam.org
    \\  /    A nd           | Version:  7
     \\/     M anipulation  |
\*---------------------------------------------------------------------------*/
FoamFile
{
    version     2.0;
    format      ascii;
    class       volScalarField;
    location    "13";
    object      p;
}
// * * * * * * * * * * * * * * * * * * * * * * * * * * * * * * * * * * * * * //

dimensions      [1 -1 -2 0 0 0 0];

internalField   nonuniform List<scalar> 
2413
(
0.742585
0.729697
0.718642
0.709413
0.70194
0.695929
0.691364
0.687648
0.686361
0.689089
0.694042
0.700592
0.707326
0.711928
0.713343
0.712617
0.71158
0.711525
0.712826
0.715204
0.718287
0.721848
0.725815
0.730177
0.734917
0.739981
0.745239
0.750537
0.755768
0.760959
0.766313
0.772093
0.778496
0.78546
0.792734
0.800024
0.807107
0.813869
0.820357
0.826479
0.8326
0.838608
0.844681
0.850653
0.856588
0.862375
0.868057
0.873608
0.879015
0.884214
0.889193
1.15261
1.1472
1.14105
1.13417
1.12671
1.11857
1.11001
1.10089
1.09131
1.08102
1.07007
1.05835
1.04605
1.033
1.01936
1.00543
0.991373
0.977522
0.963947
0.950645
0.937479
0.924392
0.911412
0.898751
0.886585
0.875373
0.866056
0.859434
0.855879
0.854593
0.853265
0.849198
0.840214
0.826482
0.809729
0.792125
0.775489
0.760649
0.747694
0.736654
0.727649
0.720505
0.714751
0.710159
0.706267
0.705545
0.708956
0.715043
0.72311
0.730989
0.735884
0.736748
0.734984
0.732835
0.731759
0.732073
0.733397
0.735349
0.737688
0.74035
0.743333
0.746656
0.750308
0.754214
0.758264
0.762321
0.766338
0.770446
0.774937
0.780129
0.78616
0.792927
0.800196
0.807651
0.814973
0.821939
0.828396
0.834527
0.840322
0.846006
0.851547
0.856994
0.862307
0.867472
0.872492
0.877346
0.881958
0.886352
1.14806
1.14276
1.13674
1.12987
1.1225
1.11444
1.10598
1.09698
1.08759
1.07754
1.06694
1.05559
1.04358
1.03112
1.01824
1.00513
0.991825
0.978498
0.965596
0.952845
0.940368
0.928078
0.915947
0.904096
0.892933
0.883228
0.875994
0.871976
0.871257
0.872675
0.873409
0.870116
0.860426
0.845533
0.828036
0.810355
0.793754
0.778953
0.765906
0.754829
0.745949
0.739029
0.733531
0.728863
0.725008
0.724649
0.728466
0.735537
0.744884
0.753662
0.758774
0.759278
0.756859
0.753942
0.751992
0.751238
0.751292
0.75186
0.75279
0.754071
0.755692
0.757654
0.759924
0.76244
0.765127
0.76793
0.770828
0.773924
0.777427
0.781617
0.78669
0.792676
0.799553
0.806979
0.814567
0.82198
0.828882
0.835236
0.84102
0.846419
0.851539
0.856468
0.861255
0.865862
0.870285
0.874511
0.878507
0.882352
1.14386
1.13876
1.1329
1.12604
1.11881
1.11088
1.10253
1.09363
1.08434
1.07443
1.06402
1.05294
1.04133
1.02931
1.01703
1.00467
0.992235
0.979935
0.967654
0.955457
0.943538
0.931692
0.920194
0.909294
0.899659
0.892073
0.887457
0.8862
0.887801
0.890521
0.891187
0.887176
0.877075
0.861778
0.843996
0.826527
0.810192
0.79568
0.783044
0.772443
0.763849
0.757117
0.751797
0.747198
0.743643
0.743472
0.747588
0.755534
0.766016
0.775521
0.780771
0.781034
0.778181
0.774674
0.771894
0.770125
0.769054
0.768429
0.768086
0.767963
0.767995
0.768273
0.768893
0.769959
0.771494
0.773438
0.775707
0.778278
0.781214
0.7847
0.788866
0.793922
0.799925
0.80666
0.81386
0.821173
0.828172
0.834652
0.840508
0.845787
0.850637
0.855133
0.859402
0.863459
0.867311
0.870959
0.874423
0.877828
1.13992
1.13504
1.12928
1.12247
1.1154
1.10766
1.09946
1.09067
1.08147
1.07164
1.06134
1.05046
1.03921
1.02769
1.01608
1.00447
0.992889
0.981382
0.969881
0.958518
0.947132
0.935878
0.925141
0.915166
0.906934
0.901157
0.898647
0.899357
0.902278
0.905488
0.90583
0.901017
0.890214
0.875458
0.858669
0.842029
0.826276
0.811895
0.799073
0.788462
0.780197
0.773883
0.769014
0.764951
0.761781
0.761517
0.765763
0.774581
0.786304
0.796591
0.801841
0.801714
0.798561
0.794967
0.791743
0.789138
0.786945
0.784872
0.78289
0.781108
0.779592
0.778419
0.777716
0.777571
0.778105
0.779264
0.781002
0.783216
0.785828
0.788851
0.792343
0.796518
0.801454
0.807182
0.813576
0.820356
0.827142
0.833605
0.83953
0.844809
0.849517
0.853712
0.857541
0.861133
0.864564
0.867851
0.870957
0.873918
1.13618
1.1314
1.12567
1.11897
1.11203
1.10448
1.09645
1.08782
1.0787
1.06898
1.05878
1.0481
1.03723
1.0262
1.01527
1.00442
0.993756
0.983133
0.972487
0.961754
0.950981
0.940566
0.930808
0.922192
0.915591
0.911553
0.910684
0.912399
0.915496
0.918113
0.917209
0.911137
0.899725
0.885142
0.869228
0.853565
0.838788
0.825282
0.813346
0.803334
0.795202
0.788878
0.784028
0.780416
0.777524
0.777252
0.781652
0.791387
0.804391
0.815606
0.82101
0.821145
0.818441
0.814309
0.810055
0.806213
0.802804
0.799681
0.796706
0.793854
0.791171
0.788779
0.786882
0.785614
0.785202
0.785629
0.78689
0.7888
0.791174
0.793901
0.796936
0.800352
0.804281
0.808858
0.814112
0.819924
0.826038
0.832102
0.837871
0.84313
0.847843
0.852024
0.855733
0.859133
0.862286
0.86525
0.868059
0.870758
1.13247
1.12764
1.12187
1.11533
1.10848
1.1011
1.09323
1.08479
1.0758
1.06623
1.0562
1.04579
1.03533
1.02483
1.01458
1.00447
0.994601
0.984756
0.974957
0.965169
0.955461
0.946164
0.93761
0.930349
0.925165
0.922367
0.922507
0.924605
0.927289
0.928584
0.926115
0.919177
0.907908
0.894051
0.879201
0.86455
0.850531
0.837605
0.826167
0.816659
0.808918
0.802843
0.798271
0.795275
0.793237
0.793015
0.797468
0.808139
0.822647
0.834384
0.83988
0.839789
0.836848
0.832532
0.827556
0.822752
0.81821
0.813959
0.809943
0.806133
0.80252
0.799239
0.796485
0.794469
0.79335
0.793161
0.793923
0.795498
0.797607
0.800085
0.802785
0.805672
0.808812
0.812346
0.81641
0.82105
0.826168
0.831513
0.836853
0.841903
0.846522
0.850681
0.854353
0.857673
0.860672
0.863426
0.866001
0.868428
1.12864
1.1237
1.11784
1.11145
1.10461
1.09738
1.08964
1.0814
1.07258
1.06325
1.05351
1.04349
1.03354
1.02363
1.01405
1.00464
0.995482
0.98635
0.977369
0.968479
0.959935
0.952014
0.945279
0.939835
0.936403
0.934804
0.934717
0.935862
0.937082
0.936944
0.933595
0.926248
0.915332
0.902357
0.888648
0.874946
0.861749
0.849597
0.838866
0.829697
0.822026
0.81589
0.81134
0.808675
0.807392
0.80774
0.812489
0.823864
0.839469
0.851357
0.856196
0.856628
0.853878
0.849
0.843591
0.838229
0.832981
0.827992
0.823241
0.818716
0.81439
0.810401
0.806933
0.804302
0.802564
0.801784
0.801865
0.8029
0.804543
0.806627
0.808957
0.811415
0.813995
0.81679
0.819925
0.823514
0.82757
0.832063
0.836776
0.841418
0.845803
0.849836
0.853444
0.856683
0.859557
0.862118
0.864444
0.866544
1.1246
1.1195
1.11359
1.10732
1.10042
1.09333
1.08569
1.07764
1.06904
1.06001
1.05068
1.04119
1.03184
1.02259
1.01368
1.00491
0.996406
0.98795
0.979803
0.971893
0.964682
0.958249
0.953259
0.949417
0.947506
0.94675
0.94682
0.947341
0.946598
0.944456
0.940158
0.932802
0.922574
0.910649
0.898
0.885165
0.872725
0.861226
0.850928
0.841959
0.834384
0.828338
0.823917
0.821463
0.820642
0.821599
0.826434
0.838226
0.854509
0.866358
0.87109
0.871671
0.868988
0.86396
0.858368
0.852677
0.847058
0.84167
0.836493
0.831518
0.826723
0.822281
0.818329
0.81518
0.812862
0.811498
0.811062
0.811334
0.812385
0.813889
0.8157
0.817662
0.81973
0.821932
0.824354
0.827093
0.830212
0.833743
0.83759
0.841649
0.845677
0.849494
0.852965
0.856042
0.858712
0.861022
0.863022
0.864683
1.12028
1.11505
1.10922
1.10302
1.09607
1.0891
1.08157
1.0737
1.06535
1.05671
1.04788
1.03901
1.03033
1.02177
1.01349
1.00532
0.997416
0.989631
0.98235
0.975484
0.969667
0.964728
0.96141
0.95904
0.958147
0.957727
0.957438
0.956849
0.954827
0.951766
0.94677
0.939312
0.92975
0.918807
0.907088
0.895064
0.883307
0.872322
0.862296
0.853451
0.845939
0.839936
0.835591
0.83331
0.832747
0.834169
0.839483
0.851413
0.867672
0.879499
0.884169
0.884942
0.882673
0.877978
0.87272
0.867157
0.861465
0.855829
0.850336
0.845003
0.839847
0.835006
0.830608
0.826874
0.823894
0.82173
0.820556
0.820047
0.820226
0.821025
0.82219
0.823636
0.825286
0.827106
0.82911
0.831329
0.833841
0.836668
0.839781
0.84312
0.846542
0.849914
0.853049
0.855811
0.858158
0.860121
0.861689
0.86292
1.11568
1.11045
1.1048
1.09862
1.09172
1.08486
1.07749
1.06983
1.06179
1.05359
1.04531
1.03711
1.02908
1.02117
1.01347
1.00587
0.99853
0.991424
0.985031
0.979226
0.974792
0.971272
0.969432
0.968232
0.967904
0.9677
0.966828
0.965074
0.96199
0.95826
0.953044
0.945953
0.937107
0.92697
0.915998
0.904692
0.893565
0.883063
0.873339
0.864685
0.857309
0.851363
0.847101
0.84491
0.844452
0.846121
0.851739
0.863632
0.879478
0.891262
0.89607
0.897299
0.895622
0.891445
0.886655
0.881281
0.875548
0.869688
0.863909
0.858229
0.852704
0.847417
0.842566
0.838313
0.834806
0.832023
0.830049
0.828816
0.828221
0.828191
0.828648
0.82953
0.830744
0.832216
0.833915
0.83582
0.837853
0.84006
0.842481
0.845084
0.847777
0.850469
0.853031
0.855352
0.857368
0.859024
0.860347
0.86134
1.11101
1.10586
1.1004
1.09425
1.08756
1.08081
1.07366
1.06627
1.0586
1.05088
1.04317
1.03559
1.02814
1.02079
1.01358
1.00648
0.999694
0.99327
0.987775
0.983029
0.979929
0.977681
0.976985
0.976616
0.976611
0.97637
0.974725
0.972046
0.968394
0.964244
0.958972
0.952237
0.943979
0.93445
0.924085
0.913417
0.902853
0.892794
0.883384
0.87497
0.867792
0.861965
0.857851
0.855738
0.855338
0.857063
0.862725
0.874388
0.889751
0.901545
0.906629
0.908295
0.907248
0.903598
0.899276
0.894231
0.888619
0.882672
0.87671
0.870798
0.865027
0.859441
0.854238
0.849557
0.845513
0.842182
0.839542
0.837584
0.836275
0.835565
0.835408
0.835735
0.836491
0.837609
0.838959
0.840454
0.842089
0.843894
0.845656
0.847573
0.849604
0.851652
0.853642
0.855518
0.857187
0.858569
0.859715
0.860544
1.1064
1.10132
1.09603
1.09002
1.08366
1.07706
1.0702
1.06314
1.0559
1.04869
1.04151
1.03447
1.02747
1.02058
1.01375
1.00708
1.00082
0.995071
0.990487
0.986794
0.984931
0.983685
0.983752
0.98407
0.984191
0.983587
0.981255
0.978049
0.974185
0.969864
0.964686
0.958291
0.950497
0.941446
0.931565
0.921412
0.911296
0.90164
0.89259
0.884509
0.877614
0.871974
0.86799
0.865878
0.865426
0.867067
0.872604
0.883954
0.898982
0.910926
0.916456
0.918417
0.918011
0.91504
0.911115
0.906363
0.900862
0.894889
0.88879
0.882683
0.876683
0.870861
0.865384
0.860402
0.85599
0.852233
0.849106
0.846625
0.844748
0.843453
0.842762
0.842648
0.842961
0.843642
0.84457
0.845628
0.846732
0.847932
0.84928
0.850664
0.851991
0.853448
0.85492
0.85634
0.857634
0.858763
0.859681
0.860342
1.10187
1.09688
1.09177
1.08602
1.07996
1.07356
1.06703
1.06038
1.05362
1.04692
1.04022
1.03362
1.02698
1.0204
1.01388
1.00759
1.00182
0.996758
0.993103
0.990417
0.989531
0.989042
0.989782
0.990505
0.990501
0.989467
0.986743
0.98333
0.979463
0.975145
0.970102
0.963977
0.956547
0.947951
0.938567
0.928948
0.919313
0.910109
0.901477
0.89377
0.887153
0.881697
0.877767
0.875589
0.874999
0.876436
0.881655
0.892509
0.907264
0.919478
0.925571
0.927645
0.927782
0.925464
0.921709
0.917148
0.911756
0.90583
0.8997
0.893529
0.887453
0.881579
0.876035
0.870957
0.866403
0.862437
0.859052
0.856234
0.853985
0.852307
0.851203
0.850642
0.850512
0.85069
0.851055
0.851542
0.852091
0.852712
0.853417
0.854293
0.855282
0.856272
0.85735
0.858481
0.859562
0.860514
0.861256
0.861746
1.09746
1.09261
1.08758
1.08215
1.07634
1.07021
1.06405
1.05785
1.05158
1.04535
1.03908
1.03283
1.02648
1.02015
1.01389
1.00796
1.00271
0.99834
0.995576
0.993726
0.993503
0.993803
0.995149
0.995945
0.995661
0.994303
0.991514
0.988135
0.984405
0.980191
0.975258
0.969325
0.962187
0.954037
0.945171
0.936111
0.927014
0.918316
0.910155
0.902859
0.896519
0.891247
0.887287
0.884969
0.884141
0.885236
0.889916
0.900072
0.914567
0.927166
0.93384
0.93608
0.936602
0.934848
0.931255
0.926944
0.921819
0.916075
0.910027
0.903851
0.897786
0.891958
0.886484
0.881477
0.876968
0.872981
0.869531
0.866584
0.864161
0.862255
0.860852
0.85989
0.85926
0.858857
0.858597
0.85843
0.858372
0.858463
0.858682
0.859043
0.859577
0.860358
0.861268
0.862133
0.863024
0.863805
0.864367
0.86464
1.09318
1.08848
1.08343
1.07823
1.07265
1.06692
1.06112
1.05536
1.04954
1.04374
1.03785
1.0319
1.02582
1.01975
1.01378
1.00825
1.00356
0.999888
0.997899
0.996627
0.996948
0.998109
0.999832
1.00051
1.00003
0.99851
0.995855
0.992659
0.989145
0.98508
0.980226
0.974422
0.967525
0.959778
0.951429
0.942931
0.934418
0.926255
0.918573
0.911662
0.905535
0.900393
0.896321
0.89382
0.892735
0.893411
0.897404
0.906726
0.920924
0.934007
0.941354
0.943914
0.944758
0.943438
0.940043
0.935973
0.931185
0.925692
0.919826
0.913775
0.907852
0.902247
0.896989
0.892179
0.88785
0.883962
0.880559
0.877612
0.87513
0.873092
0.871442
0.870099
0.868969
0.867984
0.867103
0.866336
0.865719
0.865297
0.865113
0.865133
0.865332
0.865768
0.866478
0.867324
0.867969
0.8685
0.868822
0.868839
1.08898
1.08434
1.0793
1.07424
1.06893
1.06358
1.05813
1.05277
1.04737
1.04194
1.03638
1.03072
1.0249
1.01913
1.01354
1.00852
1.00444
1.00142
1.00003
0.999255
1.00023
1.00209
1.00387
1.00442
1.00391
1.00244
1.00002
0.997074
0.99378
0.989864
0.985081
0.979367
0.972682
0.965274
0.957409
0.949441
0.941512
0.933878
0.926655
0.920092
0.914143
0.909098
0.904899
0.902195
0.900856
0.901056
0.904298
0.912705
0.926507
0.940167
0.9484
0.951524
0.952639
0.951683
0.948608
0.944814
0.940373
0.935173
0.929498
0.923661
0.917937
0.91259
0.907646
0.90305
0.898909
0.895161
0.891833
0.888932
0.886436
0.884298
0.882432
0.880758
0.879202
0.877742
0.876385
0.875171
0.874146
0.87334
0.872784
0.872499
0.872455
0.872618
0.872979
0.873543
0.874114
0.874329
0.874306
0.873986
1.08481
1.08018
1.07522
1.07023
1.06525
1.06022
1.05511
1.05008
1.04504
1.03991
1.03464
1.02927
1.02377
1.01837
1.01324
1.00879
1.00534
1.00293
1.00204
1.0018
1.00349
1.00583
1.00749
1.00797
1.00754
1.00628
1.00415
1.00146
0.998341
0.994526
0.989804
0.984162
0.977694
0.970592
0.963181
0.955694
0.948287
0.941122
0.934294
0.928032
0.922262
0.917328
0.913083
0.910238
0.908675
0.908455
0.910976
0.918355
0.931473
0.945698
0.955069
0.959061
0.96039
0.959776
0.957126
0.953565
0.94939
0.944485
0.939051
0.93349
0.928055
0.92294
0.91825
0.913861
0.909819
0.906179
0.902916
0.900051
0.897541
0.895311
0.893271
0.891362
0.889547
0.887834
0.886241
0.884804
0.88355
0.882492
0.881651
0.881037
0.880674
0.880525
0.880519
0.8806
0.88077
0.880793
0.880414
0.879738
1.0806
1.07604
1.07128
1.06642
1.06176
1.05701
1.05217
1.04742
1.04264
1.03773
1.03271
1.0276
1.02243
1.01745
1.01285
1.009
1.00616
1.00434
1.00384
1.00437
1.00675
1.00931
1.01092
1.0114
1.01109
1.01008
1.00825
1.00577
1.00277
0.999019
0.994386
0.988859
0.982666
0.975917
0.968954
0.961927
0.954985
0.948243
0.941776
0.935799
0.930247
0.925452
0.921245
0.918282
0.916486
0.915906
0.917716
0.923912
0.936033
0.950664
0.961345
0.966564
0.968177
0.967871
0.9657
0.962302
0.958329
0.95368
0.948537
0.943212
0.938014
0.93308
0.928476
0.924203
0.920211
0.91661
0.913402
0.910571
0.908067
0.905799
0.903697
0.901734
0.899895
0.898189
0.896609
0.895156
0.893826
0.892614
0.891538
0.890611
0.889839
0.889234
0.888757
0.888314
0.88785
0.88745
0.886876
0.88593
1.07636
1.07204
1.0676
1.06302
1.05865
1.05415
1.04956
1.04497
1.04033
1.03556
1.03071
1.02583
1.02097
1.01639
1.01229
1.00898
1.00671
1.00543
1.00536
1.0068
1.00973
1.01245
1.01418
1.01481
1.01466
1.01388
1.01231
1.00996
1.00703
1.00332
0.998812
0.993481
0.987639
0.981332
0.974839
0.968274
0.961753
0.955383
0.949236
0.943521
0.938213
0.933574
0.929459
0.926366
0.924314
0.923398
0.924439
0.929302
0.939961
0.9546
0.966701
0.973381
0.975736
0.975815
0.97408
0.970843
0.96704
0.962645
0.957807
0.952691
0.9476
0.94272
0.93812
0.933845
0.929923
0.926386
0.923284
0.92057
0.918172
0.916004
0.914021
0.912213
0.910566
0.909057
0.907644
0.906288
0.904963
0.903652
0.902364
0.90112
0.899924
0.898787
0.897705
0.896657
0.895571
0.894488
0.893538
0.892467
1.07213
1.06825
1.06425
1.06013
1.05606
1.05183
1.04745
1.04293
1.03836
1.03367
1.02892
1.02418
1.01954
1.01525
1.01151
1.00864
1.0068
1.00597
1.00652
1.00887
1.01223
1.01525
1.01722
1.01808
1.01812
1.01754
1.01617
1.01389
1.01102
1.0074
1.00312
0.998133
0.992751
0.986989
0.981004
0.974902
0.96877
0.962729
0.956866
0.951381
0.946302
0.941804
0.937793
0.934555
0.932212
0.930943
0.93115
0.934579
0.943333
0.957474
0.970995
0.979401
0.982915
0.983475
0.982156
0.979161
0.975495
0.971388
0.966837
0.961888
0.956829
0.951902
0.94729
0.94304
0.939223
0.935857
0.932974
0.930518
0.928387
0.926509
0.924848
0.923378
0.922057
0.920821
0.919608
0.918359
0.91705
0.915659
0.914189
0.912654
0.911053
0.909392
0.907682
0.905948
0.90423
0.902506
0.900894
0.899487
1.06794
1.06466
1.06122
1.05765
1.05393
1.05003
1.04585
1.04142
1.03692
1.03227
1.02755
1.02285
1.01828
1.01412
1.01058
1.00796
1.00641
1.00594
1.00718
1.01029
1.01408
1.01757
1.01996
1.02117
1.02144
1.02098
1.01977
1.0176
1.01481
1.01139
1.00747
1.003
0.998182
0.993006
0.987533
0.981858
0.976064
0.970297
0.964678
0.959392
0.9545
0.950096
0.94612
0.942676
0.93994
0.938213
0.937612
0.939573
0.946292
0.959206
0.973875
0.984274
0.989446
0.99075
0.98988
0.987264
0.983771
0.979976
0.975723
0.970932
0.965891
0.960953
0.956391
0.952294
0.948686
0.945622
0.943102
0.941044
0.939337
0.937911
0.936711
0.935666
0.934696
0.933715
0.932665
0.931493
0.930193
0.928746
0.927142
0.925376
0.923432
0.921307
0.919029
0.916644
0.914243
0.911901
0.909628
0.907531
1.06378
1.06118
1.05834
1.05533
1.05203
1.04851
1.0446
1.0403
1.03589
1.03129
1.02658
1.02187
1.01729
1.01315
1.00967
1.00713
1.00571
1.00552
1.00736
1.01103
1.01527
1.01929
1.02209
1.02365
1.02417
1.02384
1.02281
1.02087
1.0183
1.01526
1.01185
1.00802
1.00383
0.999252
0.99427
0.988963
0.983452
0.977926
0.972534
0.967432
0.962678
0.958324
0.954327
0.950673
0.947533
0.945194
0.943971
0.944603
0.949315
0.960253
0.9754
0.987868
0.995152
0.997627
0.99727
0.995225
0.992077
0.988591
0.984608
0.979997
0.975071
0.970276
0.965936
0.962123
0.958863
0.956213
0.954142
0.952547
0.951326
0.950395
0.949662
0.949004
0.948323
0.947533
0.946608
0.945514
0.944263
0.94284
0.941206
0.939322
0.93715
0.934675
0.931929
0.928987
0.925944
0.922922
0.919991
0.917159
1.05957
1.05766
1.05544
1.05294
1.05007
1.04697
1.0434
1.03934
1.03514
1.03071
1.02609
1.0214
1.01684
1.01264
1.00907
1.00644
1.00499
1.00503
1.00728
1.01129
1.01596
1.02042
1.02356
1.02537
1.02609
1.02591
1.02517
1.02364
1.02152
1.01908
1.01635
1.01323
1.00966
1.0056
1.00101
0.996
0.990729
0.985417
0.980219
0.975267
0.970599
0.966244
0.962157
0.95828
0.954753
0.95182
0.950046
0.949561
0.952403
0.960825
0.975245
0.989818
0.999648
1.00389
1.0044
1.00311
1.00045
0.997212
0.993505
0.98921
0.984629
0.980187
0.976167
0.972696
0.969854
0.967656
0.966032
0.964884
0.96412
0.963628
0.963269
0.9629
0.962427
0.961791
0.961014
0.96008
0.958996
0.957732
0.956209
0.954341
0.952067
0.949369
0.946285
0.942902
0.93932
0.935645
0.93199
0.928412
1.05537
1.05405
1.05232
1.05025
1.04779
1.04507
1.04189
1.03833
1.03447
1.03035
1.02597
1.02145
1.01694
1.01269
1.00898
1.00618
1.0046
1.00471
1.00711
1.01127
1.01616
1.02088
1.02423
1.02624
1.02722
1.02737
1.02702
1.02606
1.0246
1.02293
1.02099
1.0186
1.0156
1.01193
1.00766
1.00291
0.997884
0.992805
0.987808
0.982996
0.978375
0.973967
0.969734
0.965628
0.961744
0.95828
0.955867
0.954683
0.955917
0.961718
0.97375
0.989111
1.00148
1.00889
1.01149
1.01106
1.00895
1.00581
1.00228
0.998476
0.994513
0.990557
0.986866
0.983731
0.981292
0.979491
0.978246
0.977464
0.97704
0.976832
0.976679
0.976446
0.976094
0.975623
0.975069
0.974434
0.973694
0.97277
0.971528
0.969839
0.967627
0.964876
0.961631
0.957972
0.953986
0.949763
0.945414
0.941063
1.05102
1.05018
1.04891
1.04721
1.04512
1.04272
1.04001
1.03698
1.03355
1.02984
1.02582
1.02156
1.01721
1.01299
1.00922
1.0063
1.00462
1.00471
1.00707
1.01121
1.0161
1.02082
1.02422
1.02631
1.02749
1.02804
1.02814
1.02791
1.02736
1.02652
1.02534
1.02363
1.02115
1.01785
1.01389
1.00946
1.00479
1.00007
0.995373
0.990753
0.986189
0.981705
0.977297
0.972974
0.96882
0.96494
0.961856
0.960007
0.959766
0.963178
0.972232
0.986427
1.0002
1.01053
1.01649
1.01814
1.0171
1.01441
1.01106
1.00781
1.00448
1.00089
0.997456
0.994632
0.992549
0.991044
0.990093
0.989576
0.989378
0.989324
0.989245
0.989094
0.988898
0.988729
0.988615
0.988509
0.988299
0.987837
0.986941
0.985489
0.983397
0.980656
0.977336
0.97353
0.969304
0.9647
0.959807
0.954758
1.04667
1.04621
1.04524
1.04381
1.04201
1.0399
1.03763
1.03507
1.03211
1.02881
1.02516
1.02123
1.01714
1.01308
1.00937
1.00643
1.00474
1.00477
1.00708
1.01117
1.01603
1.02071
1.02411
1.02625
1.02755
1.02837
1.0289
1.02929
1.02946
1.0294
1.02904
1.02794
1.02588
1.02296
1.0194
1.01546
1.0113
1.00705
1.00274
0.998369
0.993888
0.98932
0.984719
0.980145
0.975654
0.971335
0.96761
0.964968
0.963693
0.965158
0.971102
0.982303
0.99649
1.00901
1.01782
1.02239
1.02326
1.02197
1.01977
1.01724
1.01427
1.01091
1.00769
1.00511
1.0032
1.00191
1.00121
1.00089
1.00086
1.00096
1.00104
1.00116
1.00137
1.00171
1.00217
1.00265
1.00297
1.00294
1.00233
1.001
0.998993
0.996311
0.993014
0.989192
0.984901
0.980124
0.974878
0.969276
1.04185
1.04163
1.04103
1.04
1.03854
1.03674
1.03475
1.03256
1.03006
1.02716
1.02394
1.0204
1.01663
1.01278
1.0092
1.00628
1.0046
1.00446
1.00667
1.01072
1.01556
1.02014
1.02351
1.02561
1.02693
1.02791
1.02888
1.02997
1.03099
1.03171
1.03188
1.03127
1.0296
1.02721
1.02425
1.02095
1.01741
1.01371
1.00985
1.00578
1.00144
0.9968
0.991961
0.987126
0.982561
0.978219
0.974145
0.970713
0.968335
0.967638
0.970068
0.977189
0.990279
1.00433
1.01571
1.02326
1.02676
1.02762
1.02702
1.02529
1.02274
1.0198
1.01706
1.01477
1.01304
1.01204
1.01165
1.01167
1.01196
1.01244
1.01297
1.01369
1.01459
1.01567
)
;

boundaryField
{
    inlet
    {
        type            fixedValue;
        value           nonuniform 0();
    }
    outlet
    {
        type            zeroGradient;
    }
    bottom
    {
        type            symmetryPlane;
    }
    top
    {
        type            symmetryPlane;
    }
    obstacle
    {
        type            zeroGradient;
    }
    front
    {
        type            empty;
    }
    back
    {
        type            empty;
    }
    procBoundary11to2
    {
        type            processor;
        value           nonuniform List<scalar> 
27
(
1.15721
1.1526
1.14834
1.14433
1.1405
1.13679
1.13306
1.12918
1.12505
1.12056
1.11582
1.11103
1.10628
1.10172
1.09741
1.09326
1.08913
1.08487
1.08042
1.0758
1.07105
1.06621
1.06128
1.05641
1.05155
1.04668
1.04162
)
;
    }
    procBoundary11to3
    {
        type            processor;
        value           nonuniform List<scalar> 
89
(
0.725317
0.712639
0.701758
0.692502
0.684836
0.678679
0.674061
0.670627
0.668772
0.67054
0.674377
0.679336
0.684755
0.688903
0.690757
0.69103
0.691108
0.692074
0.694319
0.697686
0.701848
0.706599
0.711816
0.717437
0.723376
0.729568
0.735919
0.742359
0.748868
0.755511
0.762441
0.769747
0.777373
0.785046
0.792466
0.79947
0.80606
0.81235
0.818461
0.824474
0.830617
0.836742
0.843029
0.84926
0.855484
0.861583
0.867661
0.873671
0.87959
0.885382
0.890922
1.1576
1.15213
1.14592
1.13905
1.13154
1.12333
1.11463
1.10532
1.0954
1.08471
1.07332
1.06133
1.04835
1.03457
1.02017
1.00579
0.991243
0.976813
0.962496
0.948375
0.934475
0.920697
0.90686
0.893064
0.879554
0.866793
0.855412
0.846178
0.83961
0.835439
0.832049
0.827195
0.818672
0.805917
0.790224
0.773411
0.757245
0.757245
)
;
    }
    procBoundary11to4
    {
        type            processor;
        value           uniform 0.893824;
    }
    procBoundary11to12
    {
        type            processor;
        value           nonuniform List<scalar> 
26
(
0.890508
0.886081
0.881184
0.876842
0.8734
0.87072
0.868401
0.866033
0.863854
0.862014
0.861033
0.860707
0.861934
0.864568
0.868489
0.873323
0.878763
0.884707
0.89109
0.898026
0.905675
0.914518
0.924919
0.936762
0.949692
0.963515
)
;
    }
    procBoundary11to19
    {
        type            processor;
        value           nonuniform List<scalar> 
89
(
1.01685
1.01795
1.01877
1.01904
1.01859
1.01728
1.01521
1.01249
1.00915
1.00524
1.00085
0.995935
0.990411
0.984343
1.03694
1.03719
1.03684
1.03602
1.0348
1.03323
1.03143
1.02951
1.02732
1.0248
1.02197
1.01881
1.01535
1.01174
1.00832
1.00547
1.00386
1.00358
1.00567
1.00958
1.01432
1.0188
1.02218
1.02435
1.02575
1.0269
1.02823
1.02982
1.03148
1.0329
1.03364
1.03351
1.03239
1.03061
1.02827
1.0257
1.02286
1.01979
1.01643
1.01271
1.00855
1.00395
0.999044
0.993946
0.988913
0.984298
0.979938
0.975458
0.971513
0.968991
0.969025
0.972697
0.982357
0.996241
1.0099
1.02091
1.02836
1.03148
1.03208
1.03116
1.02934
1.02736
1.02544
1.02346
1.02187
1.02116
1.02124
1.02184
1.02283
1.02412
1.02556
1.0272
1.02903
1.01685
1.03104
)
;
    }
}


// ************************************************************************* //
