/*--------------------------------*- C++ -*----------------------------------*\
  =========                 |
  \\      /  F ield         | OpenFOAM: The Open Source CFD Toolbox
   \\    /   O peration     | Website:  https://openfoam.org
    \\  /    A nd           | Version:  7
     \\/     M anipulation  |
\*---------------------------------------------------------------------------*/
FoamFile
{
    version     2.0;
    format      ascii;
    class       volScalarField;
    location    "1.775";
    object      p;
}
// * * * * * * * * * * * * * * * * * * * * * * * * * * * * * * * * * * * * * //

dimensions      [0 2 -2 0 0 0 0];

internalField   nonuniform List<scalar> 
6400
(
9.6282e-06
2.89266e-05
-0.000476953
-0.00151063
-0.00295434
-0.00469771
-0.00664033
-0.00869257
-0.0107771
-0.0128286
-0.0147917
-0.0166203
-0.018276
-0.0197269
-0.0209472
-0.0219163
-0.0226178
-0.0230398
-0.0231735
-0.0230137
-0.0225578
-0.021806
-0.0207606
-0.0194263
-0.0178095
-0.0159184
-0.0137629
-0.0113544
-0.00870537
-0.00582977
-0.00274261
0.00054006
0.00400123
0.00762302
0.0113868
0.0152731
0.0192619
0.0233327
0.0274643
0.0316352
0.0358236
0.0400073
0.0441642
0.0482719
0.0523081
0.0562509
0.0600783
0.0637689
0.0673018
0.0706567
0.0738142
0.0767558
0.0794642
0.0819232
0.0841181
0.086036
0.0876656
0.0889978
0.0900256
0.0907444
0.0911522
0.0912499
0.0910417
0.0905348
0.0897403
0.0886734
0.0873532
0.0858041
0.0840554
0.0821423
0.0801068
0.0779978
0.0758731
0.0737997
0.0718552
0.0701281
0.0687156
0.0677219
0.0672537
0.0672915
4.61998e-06
1.88136e-05
-0.000435009
-0.00131911
-0.00253409
-0.0040007
-0.00564297
-0.00738848
-0.00917191
-0.0109359
-0.0126309
-0.0142142
-0.0156497
-0.0169071
-0.0179614
-0.018792
-0.0193828
-0.0197213
-0.0197983
-0.0196078
-0.0191466
-0.0184137
-0.0174107
-0.0161412
-0.0146105
-0.0128257
-0.0107956
-0.00853039
-0.00604146
-0.00334154
-0.000444419
0.00263505
0.00588109
0.00927706
0.0128056
0.0164485
0.0201871
0.0240021
0.0278737
0.0317819
0.035706
0.0396255
0.0435195
0.0473671
0.0511477
0.0548405
0.0584253
0.0618821
0.0651915
0.0683348
0.071294
0.0740521
0.0765933
0.0789029
0.0809677
0.082776
0.0843179
0.0855855
0.0865729
0.0872766
0.0876956
0.0878316
0.0876893
0.0872764
0.0866044
0.0856881
0.0845466
0.0832034
0.0816865
0.0800292
0.0782705
0.0764552
0.074635
0.0728683
0.0712205
0.0697631
0.0685692
0.0677138
0.0672902
0.067329
0.000512487
0.000474488
2.02596e-05
-0.000796374
-0.00188809
-0.00319156
-0.00464553
-0.00618988
-0.00776893
-0.0093326
-0.0108366
-0.0122421
-0.0135159
-0.0146294
-0.015559
-0.0162849
-0.0167913
-0.0170659
-0.0170994
-0.0168854
-0.0164204
-0.0157028
-0.0147337
-0.0135156
-0.0120535
-0.0103534
-0.00842339
-0.00627263
-0.00391171
-0.00135237
0.00139254
0.00430917
0.00738274
0.0105976
0.0139375
0.0173852
0.0209231
0.024533
0.0281963
0.0318939
0.0356065
0.0393145
0.0429984
0.0466383
0.0502147
0.0537082
0.0570997
0.0603704
0.0635022
0.0664774
0.0692793
0.0718922
0.0743012
0.0764928
0.0784549
0.0801769
0.0816497
0.0828663
0.0838218
0.0845132
0.0849402
0.0851049
0.0850124
0.0846705
0.0840906
0.0832871
0.0822784
0.081087
0.0797391
0.078266
0.0767034
0.0750922
0.0734783
0.0719127
0.0704515
0.0691539
0.0680793
0.0672878
0.0668652
0.0668627
0.00154635
0.00136124
0.000837126
1.71725e-05
-0.00103189
-0.00225645
-0.00360472
-0.00502593
-0.00647242
-0.00790057
-0.00927115
-0.0105494
-0.011705
-0.0127119
-0.0135477
-0.0141941
-0.0146361
-0.0148616
-0.0148618
-0.0146303
-0.0141633
-0.0134591
-0.0125183
-0.0113431
-0.00993775
-0.00830787
-0.00646069
-0.00440479
-0.00215
0.000292697
0.00291126
0.00569265
0.00862294
0.0116874
0.0148704
0.018156
0.0215272
0.0249668
0.0284572
0.0319801
0.0355173
0.0390502
0.0425601
0.0460283
0.0494361
0.0527652
0.0559975
0.059115
0.0621008
0.0649381
0.0676112
0.0701052
0.0724061
0.0745014
0.0763797
0.0780312
0.0794476
0.0806224
0.0815513
0.0822317
0.0826638
0.0828498
0.0827947
0.0825065
0.0819958
0.0812768
0.0803667
0.0792865
0.0780609
0.0767185
0.075292
0.0738181
0.0723376
0.0708952
0.0695391
0.0683197
0.0672875
0.0664942
0.0660077
0.0658722
0.00299645
0.0025847
0.00193262
0.0010597
3.19607e-06
-0.00119203
-0.00248205
-0.00382454
-0.00517921
-0.00650852
-0.00777826
-0.00895769
-0.0100197
-0.0109405
-0.0117
-0.0122811
-0.0126698
-0.0128549
-0.0128278
-0.0125826
-0.0121154
-0.0114245
-0.0105102
-0.00937443
-0.00802098
-0.00645505
-0.0046833
-0.0027137
-0.00055545
0.00178115
0.00428476
0.00694311
0.00974302
0.0126705
0.015711
0.018849
0.0220686
0.0253534
0.0286867
0.032051
0.0354291
0.0388032
0.0421554
0.0454681
0.0487235
0.051904
0.0549925
0.057972
0.0608263
0.0635395
0.0660968
0.068484
0.070688
0.0726969
0.0745
0.0760882
0.0774537
0.0785907
0.0794949
0.0801645
0.0805993
0.080802
0.0807773
0.0805328
0.0800786
0.0794281
0.0785974
0.0776058
0.0764762
0.0752344
0.0739099
0.0725355
0.0711471
0.0697833
0.0684853
0.0672955
0.0662572
0.0654141
0.0648075
0.0644596
0.0047606
0.00407178
0.00324857
0.00228237
0.00117701
-3.04325e-05
-0.00130267
-0.00260498
-0.00390377
-0.00516718
-0.00636572
-0.00747263
-0.00846394
-0.0093186
-0.0100184
-0.0105479
-0.0108944
-0.0110476
-0.0109995
-0.0107445
-0.010279
-0.00960143
-0.00871191
-0.00761232
-0.00630605
-0.00479796
-0.00309428
-0.00120246
0.000868847
0.00310993
0.00551008
0.00805768
0.0107403
0.0135446
0.0164567
0.019462
0.0225454
0.0256911
0.0288833
0.0321053
0.0353406
0.0385724
0.0417835
0.0449572
0.0480763
0.0511243
0.0540846
0.0569412
0.0596785
0.0622815
0.0647359
0.0670284
0.0691465
0.0710789
0.0728154
0.0743474
0.0756676
0.0767704
0.0776521
0.0783105
0.078746
0.0789608
0.0789594
0.078749
0.0783391
0.0777419
0.0769723
0.0760481
0.0749898
0.0738208
0.0725675
0.0712587
0.0699256
0.0686015
0.0673212
0.0661199
0.0650348
0.0641024
0.0633327
0.0627216
0.00674801
0.00575387
0.0047297
0.0036386
0.00245043
0.00119576
-9.359e-05
-0.00138958
-0.00266462
-0.00389201
-0.00504666
-0.00610557
-0.00704791
-0.00785524
-0.00851145
-0.00900281
-0.0093179
-0.00944749
-0.00938445
-0.00912366
-0.00866189
-0.00799771
-0.00713135
-0.00606459
-0.00480067
-0.0033442
-0.00170105
0.000121722
0.00211594
0.00427239
0.0065809
0.00903045
0.0116092
0.0143045
0.0171031
0.0199911
0.022954
0.025977
0.0290445
0.0321411
0.0352507
0.0383571
0.0414442
0.0444957
0.0474954
0.0504272
0.0532754
0.0560246
0.0586598
0.0611668
0.0635317
0.0657419
0.0677854
0.0696513
0.07133
0.072813
0.0740935
0.0751661
0.0760271
0.0766746
0.0771086
0.0773311
0.0773464
0.0771609
0.0767833
0.0762248
0.0754989
0.0746218
0.0736118
0.0724899
0.0712792
0.070005
0.0686943
0.0673756
0.0660778
0.0648301
0.0636644
0.0626113
0.0616484
0.0607446
0.00887933
0.0075664
0.00632216
0.00508298
0.00378593
0.0024563
0.00112154
-0.000196122
-0.00147442
-0.00269124
-0.00382557
-0.00485789
-0.0057704
-0.00654717
-0.0071742
-0.00763951
-0.00793307
-0.00804679
-0.00797442
-0.0077115
-0.00725526
-0.00660456
-0.00575978
-0.00472275
-0.00349665
-0.00208593
-0.0004962
0.00126578
0.00319222
0.00527435
0.00750246
0.00986601
0.0123537
0.0149535
0.0176527
0.020438
0.0232956
0.0262112
0.02917
0.0321571
0.0351571
0.0381545
0.0411337
0.0440792
0.0469753
0.0498066
0.052558
0.0552145
0.0577619
0.0601863
0.0624744
0.0646141
0.0665937
0.0684027
0.0700318
0.0714728
0.0727191
0.0737653
0.0746077
0.0752444
0.0756751
0.0759015
0.0759274
0.0757585
0.0754026
0.0748698
0.0741722
0.0733242
0.0723423
0.0712449
0.0700522
0.0687862
0.0674702
0.0661281
0.0647841
0.0634618
0.0621891
0.0609918
0.0598161
0.0586052
0.0110875
0.00945181
0.00797642
0.00657296
0.00514757
0.00372148
0.00231875
0.000956616
-0.000347292
-0.00157496
-0.00270902
-0.0037332
-0.0046325
-0.00539341
-0.006004
-0.006454
-0.00673483
-0.00683956
-0.00676289
-0.00650109
-0.00605195
-0.00541469
-0.00458995
-0.00357968
-0.00238707
-0.00101649
0.000526583
0.00223564
0.00410318
0.00612079
0.00827917
0.0105682
0.0129771
0.0154942
0.0181074
0.020804
0.0235706
0.0263936
0.0292588
0.0321517
0.0350575
0.0379614
0.0408483
0.0437031
0.0465108
0.0492566
0.0519256
0.0545036
0.0569767
0.0593313
0.0615548
0.0636351
0.0655611
0.0673224
0.06891
0.0703157
0.0715331
0.0725566
0.0733827
0.074009
0.0744351
0.0746623
0.0746936
0.0745341
0.0741906
0.073672
0.0729892
0.0721548
0.0711833
0.0700909
0.0688952
0.0676151
0.0662704
0.0648815
0.0634679
0.0620489
0.0606492
0.059291
0.0578907
0.0563675
0.0133165
0.0113599
0.00964795
0.00806938
0.00650148
0.00496251
0.00347399
0.00204896
0.000701022
-0.000555375
-0.00170614
-0.00273793
-0.00363835
-0.00439617
-0.00500144
-0.00544557
-0.0057214
-0.00582318
-0.00574658
-0.00548868
-0.00504786
-0.00442381
-0.00361747
-0.00263098
-0.00146761
-0.000131744
0.00137124
0.00303497
0.00485218
0.00681474
0.00891369
0.0111393
0.0134811
0.015928
0.0184682
0.0210895
0.023779
0.0265236
0.0293096
0.032123
0.0349495
0.0377748
0.0405843
0.0433632
0.0460972
0.0487717
0.0513725
0.0538856
0.0562974
0.0585948
0.0607653
0.0627972
0.0646795
0.0664022
0.067956
0.0693332
0.0705269
0.0715318
0.072344
0.0729608
0.0733815
0.0736069
0.0736393
0.073483
0.0731439
0.0726297
0.0719499
0.0711155
0.0701393
0.0690353
0.0678186
0.0665056
0.065113
0.0636578
0.0621561
0.0606231
0.0590816
0.0575508
0.0559195
0.0540851
0.0155195
0.0132473
0.0112971
0.00953658
0.00781615
0.00615196
0.00456379
0.00306114
0.0016542
0.000354302
-0.00082735
-0.00188005
-0.00279379
-0.00355945
-0.00416896
-0.00461534
-0.00489281
-0.0049968
-0.00492398
-0.00467221
-0.00424054
-0.00362918
-0.00283942
-0.00187365
-0.000735294
0.000571221
0.00204053
0.00366635
0.00544157
0.00735828
0.00940777
0.0115806
0.0138667
0.0162554
0.0187351
0.0212941
0.02392
0.0265999
0.0293208
0.0320689
0.0348305
0.0375917
0.0403381
0.0430556
0.04573
0.0483473
0.0508934
0.0533547
0.0557179
0.0579702
0.0600992
0.0620934
0.0639419
0.0656346
0.0671626
0.0685178
0.0696934
0.0706839
0.0714849
0.0720936
0.0725087
0.0727304
0.0727605
0.0726023
0.0722608
0.0717426
0.0710558
0.0702101
0.0692162
0.0680865
0.0668339
0.0654722
0.0640157
0.0624787
0.060874
0.0592138
0.0575193
0.0558083
0.0539436
0.0518022
0.0176571
0.0150763
0.0128886
0.0109422
0.00906241
0.00726396
0.00556552
0.00397367
0.0024957
0.00114025
-8.39976e-05
-0.00116868
-0.00210596
-0.00288867
-0.00351048
-0.00396594
-0.00425062
-0.0043611
-0.00429501
-0.00405104
-0.00362891
-0.00302937
-0.00225413
-0.00130589
-0.000188251
0.00109425
0.00253621
0.00413141
0.0058728
0.00775263
0.0097624
0.0118929
0.0141344
0.0164764
0.0189078
0.0214172
0.0239924
0.0266211
0.0292904
0.0319871
0.0346978
0.0374088
0.0401062
0.0427762
0.0454049
0.0479784
0.0504831
0.0529055
0.0552326
0.0574516
0.0595503
0.0615173
0.0633417
0.0650134
0.0665233
0.0678634
0.0690265
0.0700069
0.0708
0.0714024
0.0718123
0.0720294
0.0720546
0.0718905
0.0715412
0.0710121
0.07031
0.0694432
0.0684209
0.0672537
0.0659526
0.0645293
0.062996
0.0613644
0.0596451
0.0578476
0.0559923
0.0540961
0.0519977
0.0495554
0.0196958
0.0168139
0.0143911
0.0122571
0.0102134
0.00827416
0.00645745
0.00476742
0.00320888
0.0017882
0.000511848
-0.000613903
-0.00158315
-0.00239051
-0.00303127
-0.00350143
-0.00379784
-0.00391818
-0.00386105
-0.00362593
-0.00321325
-0.00262429
-0.00186123
-0.00092711
0.000174224
0.0014381
0.00285903
0.0044308
0.00614641
0.00799818
0.00997777
0.0120762
0.0142839
0.0165906
0.0189855
0.0214576
0.0239949
0.0265853
0.0292163
0.031875
0.0345483
0.0372228
0.039885
0.0425211
0.0451175
0.0476605
0.0501368
0.0525329
0.054836
0.0570335
0.0591131
0.0610633
0.0628732
0.0645328
0.0660326
0.0673645
0.0685211
0.0694963
0.070285
0.0708835
0.0712894
0.0715016
0.0715204
0.0713476
0.0709862
0.0704406
0.0697164
0.0688206
0.0677611
0.0665466
0.0651867
0.0636912
0.0620705
0.0603344
0.0584913
0.0565488
0.0545272
0.0524428
0.050112
0.0473751
0.0216069
0.0184316
0.0157767
0.0134545
0.0112442
0.0091597
0.00721881
0.00542372
0.0037772
0.00228363
0.00094757
-0.000226554
-0.00123458
-0.00207273
-0.00273778
-0.0032271
-0.00353873
-0.00367144
-0.00362473
-0.00339892
-0.00299507
-0.00241506
-0.00166153
-0.000737883
0.00035174
0.00160248
0.00300875
0.00456426
0.00626205
0.00809448
0.0100533
0.0121296
0.0143141
0.0165966
0.0189668
0.0214135
0.0239253
0.0264902
0.0290959
0.0317298
0.0343791
0.0370305
0.0396707
0.0422862
0.0448636
0.0473893
0.0498499
0.0522323
0.0545235
0.0567109
0.0587824
0.0607263
0.0625316
0.064188
0.0656859
0.0670169
0.0681733
0.0691484
0.0699369
0.0705345
0.0709382
0.0711461
0.0711579
0.0709745
0.0705979
0.0700316
0.06928
0.068349
0.0672449
0.0659754
0.0645483
0.0629722
0.0612556
0.0594069
0.0574329
0.0553397
0.0531478
0.0508736
0.0483122
0.045287
0.0233653
0.0199037
0.0170202
0.0145103
0.0121319
0.00989905
0.00782971
0.00592444
0.00418425
0.00261185
0.00121014
-1.80908e-05
-0.00107024
-0.00194399
-0.00263748
-0.00314932
-0.00347871
-0.00362543
-0.00358989
-0.00337318
-0.00297704
-0.00240391
-0.00165691
-0.000739829
0.00034288
0.00158612
0.00298417
0.00453065
0.00621857
0.0080403
0.00998765
0.0120518
0.0142235
0.0164929
0.0188496
0.0212829
0.0237813
0.0263332
0.0289264
0.0315485
0.0341868
0.0368283
0.0394597
0.0420678
0.0446392
0.0471604
0.0496181
0.0519991
0.0542905
0.0564795
0.0585539
0.060502
0.0623125
0.0639749
0.0654794
0.066817
0.0679797
0.0689606
0.0697536
0.0703539
0.0707579
0.070963
0.0709681
0.0707732
0.0703796
0.0697895
0.0690067
0.0680354
0.0668813
0.0655505
0.0640497
0.062386
0.0605668
0.0585993
0.0564889
0.0542406
0.0518755
0.0494106
0.0466206
0.0433129
0.024949
0.0212075
0.0180987
0.015402
0.0128549
0.0104719
0.0082711
0.00625189
0.0044138
0.00275809
0.00128622
-4.85123e-07
-0.0011008
-0.00201375
-0.0027387
-0.00327543
-0.00362421
-0.00378577
-0.00376142
-0.003553
-0.0031629
-0.00259413
-0.00185029
-0.000935565
0.000145264
0.00138684
0.00278325
0.00432799
0.00601401
0.00783368
0.00977881
0.0118407
0.01401
0.0162771
0.0186317
0.0210631
0.0235602
0.0261114
0.0287046
0.0313277
0.033968
0.0366125
0.0392483
0.041862
0.0444403
0.0469699
0.0494373
0.0518292
0.0541327
0.056335
0.0584235
0.0603865
0.0622122
0.0638901
0.0654098
0.066762
0.0679382
0.068931
0.0697338
0.0703411
0.0707487
0.0709533
0.070953
0.0707469
0.0703353
0.0697198
0.0689028
0.067888
0.0666795
0.0652826
0.0637029
0.0619463
0.0600193
0.0579281
0.055677
0.0532703
0.0507298
0.0480737
0.0450569
0.0414713
0.026338
0.0223221
0.0189913
0.016109
0.0133932
0.0108588
0.00852462
0.00638886
0.00444981
0.00270753
0.00116219
-0.000186145
-0.00133751
-0.00229216
-0.00305058
-0.00361363
-0.00398256
-0.00415905
-0.0041452
-0.00394362
-0.00355735
-0.00298996
-0.00224552
-0.00132863
-0.000244388
0.00100156
0.00240306
0.00395349
0.00564567
0.00747194
0.00942409
0.0114934
0.0136707
0.0159463
0.0183099
0.0207511
0.0232588
0.0258214
0.0284272
0.0310639
0.0337189
0.0363795
0.0390325
0.0416648
0.044263
0.0468136
0.0493033
0.0517186
0.0540463
0.0562736
0.0583876
0.0603762
0.0622276
0.0639306
0.0654746
0.0668498
0.0680472
0.0690587
0.0698772
0.0704965
0.0709118
0.071119
0.0711153
0.0708992
0.07047
0.0698283
0.0689758
0.0679149
0.0666492
0.0651827
0.0635202
0.0616667
0.0596278
0.0574089
0.0550138
0.0524461
0.0497287
0.0468808
0.0436386
0.0397787
0.0275141
0.0232286
0.0196784
0.0166118
0.0137276
0.0110413
0.00857249
0.00631844
0.00427637
0.00244527
0.000824215
-0.000587865
-0.00179216
-0.00279
-0.00358296
-0.00417288
-0.00456194
-0.00475268
-0.004748
-0.00455121
-0.00416603
-0.00359655
-0.00284735
-0.00192341
-0.000830195
0.000426374
0.00183991
0.00340359
0.00511011
0.00695172
0.00892018
0.0110068
0.0132023
0.0154971
0.017881
0.0203434
0.0228735
0.0254598
0.0280904
0.0307533
0.0334358
0.0361252
0.0388084
0.0414722
0.0441031
0.0466876
0.0492122
0.0516633
0.0540276
0.0562918
0.0584429
0.0604683
0.062356
0.0640942
0.065672
0.067079
0.0683057
0.0693433
0.070184
0.0708212
0.071249
0.0714627
0.0714588
0.0712347
0.0707892
0.0701217
0.0692332
0.0681253
0.0668004
0.065262
0.0635139
0.0615605
0.0594067
0.0570572
0.0545154
0.0517844
0.0488886
0.0458484
0.0423816
0.0382497
0.0284604
0.0239088
0.0201417
0.016892
0.0138398
0.0110015
0.0083974
0.00602403
0.00387765
0.00195636
0.000258239
-0.0012188
-0.00247697
-0.00351864
-0.00434635
-0.00496288
-0.00537128
-0.00557491
-0.00557741
-0.0053828
-0.00499541
-0.00441991
-0.00366135
-0.00272513
-0.00161706
-0.000343357
0.00108935
0.00267402
0.0044032
0.006269
0.00826313
0.0103768
0.0126009
0.0149256
0.0173408
0.0198361
0.0224004
0.0250224
0.0276902
0.0303917
0.0331145
0.0358456
0.0385719
0.0412802
0.0439567
0.046588
0.0491603
0.0516599
0.054073
0.0563863
0.0585862
0.06066
0.0625949
0.064379
0.0660005
0.0674487
0.0687134
0.0697851
0.0706555
0.0713169
0.0717629
0.0719879
0.0719877
0.0717588
0.0712991
0.0706074
0.0696835
0.0685284
0.0671437
0.065532
0.0636966
0.0616411
0.05937
0.0568876
0.0541969
0.0513008
0.0482253
0.044992
0.0413005
0.0368977
0.0291606
0.0243459
0.0203635
0.0169318
0.0137122
0.0107219
0.00798232
0.00548915
0.00323787
0.00122573
-0.00055004
-0.00209246
-0.00340467
-0.00448999
-0.00535187
-0.00599399
-0.00642023
-0.0066347
-0.00664179
-0.00644616
-0.00605277
-0.00546683
-0.00469389
-0.00373977
-0.00261064
-0.00131301
0.000146234
0.00175983
0.00352013
0.00541913
0.0074484
0.00959912
0.011862
0.0142274
0.0166852
0.0192248
0.0218351
0.0245049
0.0272222
0.029975
0.0327507
0.0355364
0.0383188
0.0410845
0.0438198
0.0465109
0.0491438
0.0517046
0.0541793
0.056554
0.058815
0.0609489
0.0629426
0.0647834
0.0664592
0.0679585
0.0692705
0.0703851
0.071293
0.071986
0.0724567
0.0726988
0.0727072
0.0724775
0.0720069
0.0712932
0.0703356
0.0691341
0.0676898
0.0660044
0.0640807
0.0619219
0.0595318
0.0569148
0.0540733
0.0510105
0.0477537
0.0443262
0.0404094
0.0357353
0.0295993
0.0245232
0.020327
0.016714
0.0133274
0.0101855
0.00731043
0.00469742
0.00234115
0.000238141
-0.00161519
-0.00322269
-0.0045884
-0.00571647
-0.00661124
-0.00727722
-0.0077191
-0.00794174
-0.00795021
-0.00774982
-0.00734611
-0.00674486
-0.00595208
-0.00497405
-0.00381729
-0.00248864
-0.000995237
0.000655425
0.00245552
0.00439685
0.00647087
0.00866865
0.0109809
0.0133978
0.0159093
0.0185046
0.0211729
0.0239026
0.0266819
0.0294985
0.0323399
0.035193
0.0380446
0.0408809
0.0436881
0.0464522
0.0491589
0.051794
0.0543432
0.0567921
0.0591266
0.0613329
0.0633972
0.0653063
0.0670475
0.0686085
0.0699778
0.0711446
0.0720989
0.0728315
0.0733343
0.0736001
0.0736228
0.0733974
0.07292
0.0721877
0.0711989
0.0699529
0.06845
0.0666915
0.0646793
0.0624165
0.0599064
0.0571533
0.0541596
0.0509284
0.0474886
0.0438652
0.0397215
0.0347747
0.0297612
0.0244247
0.0200153
0.0162215
0.0126684
0.00937516
0.00636495
0.00363239
0.00117151
-0.00102187
-0.00295207
-0.00462375
-0.00604173
-0.00721101
-0.00813672
-0.00882419
-0.00927887
-0.00950636
-0.00951242
-0.00930297
-0.00888413
-0.00826221
-0.00744371
-0.00643535
-0.00524404
-0.00387694
-0.00234147
-0.000645358
0.00120337
0.00319636
0.00532489
0.00757992
0.00995202
0.0124314
0.0150078
0.0176706
0.0204086
0.0232105
0.0260641
0.0289573
0.0318773
0.0348109
0.0377447
0.040665
0.0435575
0.046408
0.0492019
0.0519246
0.0545614
0.0570977
0.0595187
0.06181
0.0639573
0.0659468
0.0677651
0.0693991
0.0708365
0.0720657
0.0730759
0.0738571
0.0744002
0.0746971
0.0747409
0.0745256
0.0740465
0.0733
0.0722836
0.0709957
0.0694362
0.0676057
0.0655057
0.0631388
0.0605082
0.057618
0.0544706
0.0510692
0.0474445
0.0436233
0.0392503
0.0340278
0.029631
0.0240343
0.0194118
0.0154375
0.0117182
0.00827399
0.00512905
0.00227752
-0.000287247
-0.00257005
-0.00457592
-0.00631028
-0.00777873
-0.00898704
-0.00994113
-0.0106471
-0.0111111
-0.0113396
-0.0113388
-0.0111155
-0.0106762
-0.0100277
-0.0091772
-0.00813169
-0.00689853
-0.00548521
-0.00389946
-0.00214924
-0.000242788
0.00181136
0.00400433
0.00632693
0.00876962
0.0113225
0.0139752
0.0167171
0.019537
0.0224232
0.0253638
0.0283463
0.0313578
0.0343851
0.0374146
0.0404321
0.0434235
0.046374
0.0492688
0.0520929
0.054831
0.0574681
0.0599889
0.0623785
0.0646219
0.0667045
0.0686121
0.070331
0.071848
0.0731507
0.0742272
0.0750667
0.0756592
0.0759957
0.0760683
0.0758701
0.0753954
0.0746399
0.0736002
0.0722741
0.0706607
0.0687602
0.0665736
0.0641031
0.0613519
0.0583238
0.0550215
0.0514481
0.0476363
0.0436146
0.0390092
0.033507
0.0291933
0.0233357
0.0185
0.0143451
0.0104598
0.00686485
0.00358573
0.000615995
-0.0020516
-0.00442248
-0.00650236
-0.00829739
-0.00981393
-0.0110585
-0.0120378
-0.0127587
-0.013228
-0.0134529
-0.0134404
-0.0131977
-0.0127321
-0.0120509
-0.0111616
-0.0100717
-0.00878898
-0.00732132
-0.00567675
-0.00386347
-0.00188995
0.000235091
0.00250262
0.00490328
0.00742741
0.010065
0.0128055
0.0156383
0.0185521
0.0215351
0.0245753
0.02766
0.0307762
0.0339106
0.0370492
0.0401778
0.0432817
0.0463462
0.0493558
0.0522952
0.0551487
0.0579007
0.0605352
0.0630368
0.0653898
0.0675788
0.0695889
0.0714054
0.0730144
0.0744023
0.0755565
0.076465
0.077117
0.0775025
0.0776125
0.0774392
0.076976
0.0762177
0.07516
0.0738002
0.0721365
0.0701687
0.0678973
0.0653243
0.0624527
0.0592863
0.0558277
0.0520805
0.0480792
0.0438539
0.0390119
0.0332248
0.0284326
0.0223127
0.0172628
0.0129271
0.00887559
0.00513033
0.00171766
-0.0013693
-0.0041384
-0.00659565
-0.00874745
-0.0106007
-0.0121624
-0.0134399
-0.0144407
-0.0151723
-0.0156424
-0.0158586
-0.0158289
-0.0155609
-0.0150625
-0.0143417
-0.0134063
-0.0122644
-0.0109241
-0.00939364
-0.00768135
-0.00579575
-0.00374553
-0.00153963
0.000812778
0.00330218
0.00591877
0.00865238
0.0114925
0.0144281
0.017448
0.0205404
0.0236929
0.0268928
0.0301271
0.033382
0.0366434
0.039897
0.0431276
0.0463202
0.049459
0.0525281
0.0555115
0.0583927
0.0611555
0.0637834
0.0662602
0.0685696
0.070696
0.0726236
0.0743377
0.0758236
0.0770677
0.078057
0.0787796
0.0792244
0.0793815
0.079242
0.0787984
0.0780445
0.0769751
0.0755869
0.0738773
0.0718456
0.069492
0.066818
0.0638266
0.0605216
0.0569056
0.0529825
0.0487887
0.0443563
0.039273
0.0331945
0.0273328
0.0209486
0.0156832
0.0111659
0.00694804
0.00305266
-0.00049287
-0.00369591
-0.00656493
-0.00910654
-0.0113278
-0.0132362
-0.0148397
-0.0161463
-0.0171643
-0.0179018
-0.0183674
-0.0185694
-0.0185163
-0.0182165
-0.0176785
-0.0169107
-0.0159216
-0.0147195
-0.0133131
-0.011711
-0.00992173
-0.00795421
-0.00581738
-0.00352035
-0.0010725
0.00151652
0.00423676
0.00707793
0.0100294
0.01308
0.0162184
0.0194327
0.0227105
0.026039
0.0294047
0.0327938
0.0361921
0.0395847
0.0429565
0.0462917
0.0495743
0.052788
0.055916
0.0589416
0.0618475
0.0646168
0.0672323
0.069677
0.0719342
0.0739873
0.0758204
0.077418
0.0787653
0.0798481
0.0806534
0.0811691
0.081384
0.0812882
0.0808733
0.0801319
0.0790582
0.0776478
0.0758976
0.0738062
0.0713734
0.0686005
0.0654902
0.0620465
0.0582721
0.0541709
0.0497815
0.0451379
0.0398076
0.0334301
0.0258772
0.0192259
0.0137433
0.00904343
0.00465887
0.00061354
-0.0030641
-0.00638194
-0.00934905
-0.0119726
-0.0142604
-0.0162207
-0.017862
-0.0191933
-0.0202235
-0.0209617
-0.021417
-0.0215985
-0.0215154
-0.0211767
-0.0205916
-0.0197689
-0.0187178
-0.017447
-0.0159656
-0.0142825
-0.0124067
-0.0103474
-0.00811366
-0.00571497
-0.00316085
-0.000461097
0.0023742
0.00533461
0.00840936
0.0115873
0.0148568
0.0182059
0.0216221
0.0250923
0.0286032
0.0321405
0.0356897
0.0392359
0.0427633
0.046256
0.0496976
0.0530711
0.0563592
0.0595446
0.0626093
0.0655356
0.0683054
0.0709009
0.0733044
0.0754983
0.0774655
0.0791894
0.0806541
0.0818442
0.0827455
0.0833445
0.0836291
0.0835882
0.0832122
0.0824926
0.0814228
0.0799974
0.0782127
0.0760665
0.0735583
0.0706891
0.0674614
0.0638791
0.0599451
0.0556636
0.0510751
0.0462156
0.0406321
0.0339469
0.0240486
0.0171267
0.0114248
0.00654111
0.00198926
-0.00220591
-0.00601489
-0.00944607
-0.0125092
-0.0152121
-0.0175631
-0.0195713
-0.0212462
-0.0225972
-0.0236342
-0.024367
-0.0248056
-0.0249597
-0.0248393
-0.0244541
-0.0238137
-0.0229278
-0.0218059
-0.0204573
-0.0188915
-0.0171178
-0.0151454
-0.012984
-0.0106428
-0.00813163
-0.00546013
-0.00263828
0.000323677
0.00341522
0.00662545
0.00994308
0.0133564
0.0168533
0.0204212
0.0240468
0.0277165
0.0314161
0.0351308
0.0388451
0.0425432
0.0462087
0.0498247
0.0533736
0.0568378
0.060199
0.0634388
0.0665384
0.0694789
0.0722416
0.0748077
0.0771585
0.0792758
0.0811418
0.0827393
0.0840516
0.0850632
0.0857595
0.0861268
0.086153
0.0858272
0.0851398
0.0840832
0.082651
0.0808388
0.0786437
0.0760646
0.0731021
0.0697587
0.0660383
0.0619437
0.0574794
0.0526881
0.0476077
0.0417638
0.0347611
0.021829
0.0146325
0.0087085
0.00363954
-0.00108034
-0.00542532
-0.0093648
-0.0129077
-0.0160645
-0.0188437
-0.0212543
-0.0233062
-0.0250095
-0.0263747
-0.0274124
-0.0281333
-0.0285481
-0.0286674
-0.0285018
-0.0280617
-0.0273574
-0.0263993
-0.0251972
-0.0237612
-0.0221011
-0.0202265
-0.0181472
-0.015873
-0.0134135
-0.0107786
-0.00797837
-0.00502281
-0.00192233
0.00131243
0.00467048
0.00814042
0.0117105
0.0153683
0.0191013
0.022896
0.0267387
0.0306149
0.0345095
0.0384071
0.0422912
0.046145
0.0499512
0.0536918
0.0573484
0.0609022
0.0643338
0.0676237
0.0707522
0.0736993
0.0764452
0.0789702
0.0812546
0.0832795
0.0850263
0.086477
0.0876146
0.0884231
0.0888875
0.0889943
0.0887312
0.0880877
0.0870547
0.0856251
0.0837933
0.0815558
0.078911
0.0758591
0.0724022
0.0685443
0.0642882
0.0596388
0.0546406
0.0493338
0.0432215
0.0358907
0.0191993
0.0117237
0.00557454
0.000318498
-0.00457033
-0.00906512
-0.0131342
-0.0167872
-0.0200351
-0.0228871
-0.0253532
-0.0274438
-0.0291701
-0.0305434
-0.0315751
-0.0322768
-0.03266
-0.0327363
-0.0325169
-0.0320129
-0.0312355
-0.0301954
-0.0289033
-0.0273696
-0.0256047
-0.0236187
-0.0214216
-0.0190235
-0.0164344
-0.0136644
-0.0107237
-0.00762252
-0.00437141
-0.000981119
0.00253727
0.00617229
0.00991206
0.0137442
0.0176559
0.0216336
0.0256635
0.0297308
0.0338204
0.0379163
0.0420019
0.04606
0.0500727
0.0540216
0.0578876
0.0616512
0.0652922
0.0687903
0.0721246
0.0752743
0.0782183
0.0809356
0.0834054
0.0856072
0.087521
0.0891274
0.090408
0.091345
0.0919222
0.0921245
0.0919381
0.0913513
0.0903536
0.0889369
0.0870946
0.0848224
0.0821179
0.0789809
0.0754133
0.0714189
0.0670007
0.0621634
0.0569542
0.051415
0.0450259
0.0373549
0.0161398
0.00837978
0.00200197
-0.00344322
-0.00850203
-0.0131467
-0.0173445
-0.0211055
-0.0244416
-0.0273628
-0.0298796
-0.0320037
-0.0337469
-0.0351214
-0.0361397
-0.0368142
-0.0371575
-0.0371817
-0.0368991
-0.0363216
-0.0354609
-0.0343286
-0.0329359
-0.0312938
-0.029413
-0.0273044
-0.0249781
-0.0224447
-0.0197143
-0.0167974
-0.0137042
-0.0104452
-0.00703113
-0.00347277
0.000218695
0.00403175
0.00795443
0.0119743
0.0160784
0.0202533
0.0244847
0.0287579
0.0330575
0.0373672
0.0416702
0.0459489
0.0501849
0.0543592
0.0584521
0.0624433
0.0663119
0.0700366
0.0735957
0.076967
0.0801283
0.0830572
0.0857316
0.0881296
0.0902295
0.0920104
0.0934522
0.0945357
0.0952427
0.0955567
0.0954625
0.0949465
0.0939973
0.0926051
0.0907625
0.0884642
0.085707
0.08249
0.078815
0.0746856
0.0701045
0.065077
0.0596522
0.0538742
0.047199
0.0391751
0.0126294
0.00457916
-0.00203122
-0.00766788
-0.0128979
-0.0176925
-0.0220179
-0.0258848
-0.029306
-0.032292
-0.0348546
-0.0370061
-0.0387593
-0.0401276
-0.0411244
-0.041763
-0.0420569
-0.0420193
-0.0416633
-0.0410018
-0.0400471
-0.0388115
-0.0373069
-0.0355449
-0.0335367
-0.0312936
-0.0288263
-0.0261456
-0.0232619
-0.0201857
-0.0169278
-0.0134986
-0.0099089
-0.00616971
-0.00229223
0.00171197
0.00583092
0.0100521
0.0143626
0.0187488
0.0231963
0.0276903
0.0322152
0.0367545
0.041291
0.0458069
0.0502832
0.0547004
0.0590382
0.0632755
0.0673907
0.0713614
0.0751648
0.0787777
0.0821765
0.0853376
0.0882372
0.0908518
0.0931583
0.0951339
0.0967568
0.0980059
0.0988615
0.0993051
0.0993198
0.0988905
0.0980041
0.0966495
0.0948181
0.0925034
0.0897013
0.0864105
0.082632
0.0783693
0.0736252
0.0684048
0.0627598
0.0567363
0.0497651
0.0413743
0.00864626
0.000299127
-0.00654822
-0.012379
-0.0177815
-0.0227261
-0.027178
-0.0311484
-0.034651
-0.0376974
-0.0402999
-0.0424721
-0.0442279
-0.0455817
-0.0465478
-0.0471409
-0.0473752
-0.0472652
-0.0468249
-0.0460679
-0.0450075
-0.0436568
-0.0420283
-0.0401342
-0.0379864
-0.0355964
-0.0329756
-0.030135
-0.0270854
-0.0238375
-0.0204021
-0.01679
-0.0130119
-0.00907886
-0.00500224
-0.000793587
0.00353512
0.0079714
0.0125022
0.017114
0.0217923
0.0265222
0.0312879
0.0360727
0.0408592
0.0456291
0.0503631
0.0550413
0.0596425
0.064145
0.0685263
0.072763
0.0768314
0.0807068
0.0843645
0.0877793
0.090926
0.0937792
0.096314
0.0985061
0.100331
0.101767
0.102792
0.103384
0.103526
0.103201
0.102394
0.101091
0.099284
0.0969638
0.094126
0.0907681
0.0868909
0.0824974
0.0775902
0.0721746
0.0663045
0.0600284
0.0527505
0.0439779
0.00416688
-0.00448436
-0.0115736
-0.0176013
-0.0231779
-0.0282726
-0.0328495
-0.0369208
-0.0405009
-0.0436023
-0.0462385
-0.048424
-0.050174
-0.0515039
-0.0524295
-0.0529664
-0.0531301
-0.052936
-0.0523992
-0.0515344
-0.0503558
-0.0488772
-0.0471118
-0.0450727
-0.0427722
-0.0402224
-0.0374351
-0.0344216
-0.031193
-0.0277604
-0.0241345
-0.0203263
-0.0163467
-0.0122067
-0.00791767
-0.00349112
0.00106097
0.00572615
0.0104914
0.0153432
0.0202671
0.0252481
0.0302702
0.0353166
0.0403697
0.0454109
0.0504204
0.0553778
0.0602615
0.0650488
0.0697165
0.0742402
0.0785949
0.0827549
0.0866939
0.0903853
0.093802
0.0969172
0.0997038
0.102136
0.104187
0.105832
0.107047
0.10781
0.1081
0.107898
0.107187
0.105953
0.104184
0.101871
0.0990078
0.0955909
0.0916205
0.0870992
0.0820294
0.0764163
0.0703162
0.06378
0.0561841
0.0470136
-0.000833416
-0.00979678
-0.0171332
-0.0233612
-0.0291135
-0.0343584
-0.0390588
-0.0432279
-0.046881
-0.0500315
-0.0526942
-0.0548848
-0.0566196
-0.0579156
-0.0587895
-0.0592585
-0.0593393
-0.0590484
-0.0584021
-0.057416
-0.0561055
-0.0544852
-0.0525693
-0.0503713
-0.0479044
-0.045181
-0.0422134
-0.0390133
-0.0355923
-0.0319614
-0.0281317
-0.0241141
-0.0199196
-0.0155593
-0.0110443
-0.00638626
-0.00159707
0.00331094
0.00832486
0.0134311
0.0186154
0.0238627
0.029157
0.0344813
0.0398178
0.0451477
0.0504508
0.0557062
0.0608918
0.0659842
0.0709591
0.0757914
0.0804548
0.0849223
0.0891662
0.0931582
0.0968696
0.100271
0.103335
0.106031
0.108333
0.110212
0.111642
0.112599
0.113059
0.113002
0.112407
0.111259
0.109545
0.107253
0.104376
0.100909
0.0968518
0.0922066
0.086975
0.0811623
0.0748273
0.0680232
0.0600973
0.0505119
-0.00638082
-0.0156652
-0.0232549
-0.0296865
-0.0356163
-0.0410115
-0.0458337
-0.0500971
-0.0538181
-0.0570112