/*--------------------------------*- C++ -*----------------------------------*\
  =========                 |
  \\      /  F ield         | OpenFOAM: The Open Source CFD Toolbox
   \\    /   O peration     | Website:  https://openfoam.org
    \\  /    A nd           | Version:  7
     \\/     M anipulation  |
\*---------------------------------------------------------------------------*/
FoamFile
{
    version     2.0;
    format      ascii;
    class       volScalarField;
    location    "19.5";
    object      rho;
}
// * * * * * * * * * * * * * * * * * * * * * * * * * * * * * * * * * * * * * //

dimensions      [1 -3 0 0 0 0 0];

internalField   nonuniform List<scalar> 
2413
(
1.47689
1.46823
1.45886
1.44698
1.43642
1.42747
1.41778
1.4075
1.46192
1.45355
1.44563
1.43586
1.42732
1.42052
1.4132
1.40503
1.45466
1.44793
1.44177
1.43383
1.42665
1.421
1.41477
1.40737
1.4553
1.44904
1.44329
1.43591
1.42858
1.4231
1.41734
1.41033
1.45774
1.45164
1.4464
1.43966
1.43255
1.42708
1.42157
1.415
1.46201
1.4557
1.45071
1.44463
1.43793
1.43295
1.42812
1.42237
1.46821
1.46214
1.45732
1.45178
1.44544
1.44081
1.43663
1.43178
1.47636
1.47076
1.46665
1.4619
1.4562
1.45224
1.44862
1.44428
1.48807
1.48281
1.47886
1.4743
1.46878
1.46498
1.46155
1.45745
1.5011
1.49598
1.49213
1.48769
1.4821
1.47823
1.47472
1.47044
1.51439
1.50918
1.50527
1.50058
1.49475
1.49064
1.48679
1.48222
1.52667
1.52128
1.51716
1.51234
1.50625
1.50185
1.49779
1.49282
1.53813
1.53237
1.52807
1.52295
1.51641
1.51185
1.50772
1.50257
1.54829
1.5424
1.53804
1.53293
1.52625
1.52128
1.51706
1.51196
1.55804
1.55175
1.5472
1.54207
1.53525
1.53019
1.52614
1.52128
1.56746
1.56121
1.55656
1.55146
1.54456
1.53901
1.53483
1.53005
1.5762
1.56997
1.56544
1.56066
1.55403
1.54828
1.54409
1.53936
1.58564
1.57911
1.57432
1.56959
1.56313
1.55729
1.55327
1.54874
1.59455
1.5883
1.5836
1.57913
1.57281
1.56649
1.56235
1.55802
1.48323
1.5043
1.52086
1.52762
1.52991
1.53244
1.53251
1.53139
1.52959
1.52744
1.5243
1.51984
1.51449
1.509
1.50402
1.49893
1.49376
1.48899
1.4847
1.47989
1.47603
1.47389
1.47207
1.46993
1.46727
1.46436
1.46096
1.4575
1.45576
1.45438
1.45325
1.45299
1.45313
1.45324
1.45317
1.45417
1.45745
1.46379
1.47447
1.48719
1.49801
1.5017
1.50201
1.5018
1.5011
1.49951
1.49762
1.49515
1.4912
1.48785
1.48485
1.48085
1.4775
1.4746
1.47073
1.46719
1.46445
1.46094
1.45686
1.45389
1.45068
1.44651
1.44325
1.44027
1.43646
1.43274
1.42969
1.42631
1.42201
1.41855
1.41529
1.411
1.40707
1.40398
1.40011
1.39588
1.39961
1.3938
1.38789
1.3818
1.37595
1.37026
1.36514
1.36041
1.35534
1.34995
1.34374
1.3384
1.33449
1.32998
1.32457
1.3203
1.31647
1.31186
1.3077
1.30438
1.30081
1.29614
1.29219
1.28931
1.28603
1.28246
1.27994
1.27738
1.27344
1.27065
1.26831
1.26462
1.26207
1.26047
1.25832
1.25824
1.25889
1.26046
1.2625
1.26616
1.27476
1.29052
1.31748
1.35587
1.39547
1.43741
1.46677
1.49014
1.50807
1.52163
1.52852
1.53071
1.53268
1.53291
1.53163
1.52918
1.52623
1.52311
1.51922
1.51429
1.50904
1.50427
1.49934
1.49427
1.48963
1.48534
1.48041
1.47668
1.4747
1.47294
1.47086
1.46861
1.46611
1.46331
1.46084
1.45988
1.45987
1.46027
1.46049
1.46118
1.46355
1.46837
1.47672
1.489
1.50009
1.50721
1.50909
1.50925
1.50924
1.50858
1.50733
1.50539
1.50184
1.49844
1.49535
1.49108
1.48748
1.48446
1.48049
1.47697
1.47426
1.47077
1.46675
1.46383
1.46076
1.45671
1.45346
1.45045
1.44644
1.44249
1.43925
1.43557
1.43122
1.42789
1.42463
1.42048
1.41664
1.41348
1.40975
1.40539
1.39852
1.39366
1.38855
1.38297
1.37745
1.37216
1.36715
1.36273
1.35827
1.35334
1.3476
1.34239
1.33856
1.33457
1.32954
1.32495
1.32136
1.31726
1.3129
1.30987
1.30721
1.30379
1.30114
1.29943
1.29717
1.29455
1.29278
1.29101
1.2882
1.28568
1.28382
1.28076
1.27713
1.27488
1.27165
1.26823
1.2668
1.26544
1.26505
1.26585
1.2674
1.26965
1.27445
1.28588
1.30494
1.33537
1.37375
1.41323
1.45111
1.47425
1.49506
1.5112
1.52282
1.52949
1.53119
1.53185
1.53126
1.52918
1.52673
1.52428
1.52218
1.51914
1.51475
1.50986
1.50515
1.50017
1.49466
1.49001
1.48595
1.48097
1.47814
1.47686
1.47499
1.47283
1.47105
1.46948
1.46781
1.46642
1.46603
1.46677
1.46905
1.47339
1.48001
1.49053
1.50251
1.51256
1.51661
1.517
1.5168
1.51592
1.51522
1.51411
1.51137
1.50844
1.50571
1.50166
1.49782
1.49456
1.49052
1.48684
1.48388
1.4803
1.47596
1.47297
1.46978
1.4656
1.46252
1.45959
1.45567
1.4519
1.44864
1.44484
1.44043
1.43692
1.43348
1.42909
1.42501
1.42175
1.41793
1.41366
1.40103
1.39645
1.3917
1.38631
1.38094
1.3759
1.37097
1.36639
1.3622
1.35791
1.35287
1.34794
1.34467
1.34154
1.33734
1.33291
1.32992
1.32675
1.32301
1.3203
1.31817
1.31542
1.31303
1.31163
1.30971
1.3071
1.30555
1.30399
1.30136
1.29911
1.29753
1.2952
1.29183
1.2895
1.28688
1.28246
1.27908
1.27631
1.27247
1.27083
1.27045
1.27061
1.27108
1.27225
1.27503
1.28177
1.29587
1.31749
1.34983
1.38645
1.42462
1.45973
1.47881
1.49695
1.51167
1.52257
1.52789
1.52915
1.52917
1.52786
1.52567
1.5244
1.523
1.52158
1.51905
1.51541
1.51076
1.50565
1.50085
1.4956
1.49109
1.4872
1.48305
1.48024
1.47922
1.4781
1.47641
1.47523
1.47485
1.47476
1.47546
1.47769
1.48227
1.48987
1.50175
1.51422
1.52257
1.52487
1.52499
1.52433
1.5236
1.5229
1.52085
1.51808
1.51557
1.51172
1.5076
1.50407
1.49996
1.49642
1.49348
1.48995
1.48582
1.48285
1.47962
1.47521
1.47162
1.46829
1.46371
1.45963
1.45648
1.45268
1.44864
1.44539
1.44204
1.43784
1.43391
1.43052
1.42668
1.42223
1.40398
1.39975
1.3956
1.39057
1.38547
1.38111
1.37669
1.37226
1.3683
1.36452
1.36026
1.35559
1.35241
1.34968
1.34625
1.34227
1.33992
1.33772
1.33447
1.33235
1.33082
1.32837
1.32595
1.32454
1.32257
1.31961
1.31764
1.31592
1.31323
1.31075
1.30924
1.30722
1.30415
1.30193
1.29972
1.29591
1.29188
1.28894
1.28472
1.28034
1.27779
1.27517
1.2729
1.27311
1.27372
1.27391
1.27464
1.27767
1.28603
1.30218
1.32531
1.35828
1.394
1.42938
1.46217
1.48016
1.49633
1.51014
1.52047
1.5246
1.52617
1.52644
1.52499
1.52307
1.52269
1.52212
1.52128
1.51887
1.51569
1.51176
1.50681
1.50182
1.49701
1.49343
1.49024
1.48618
1.48309
1.48248
1.48271
1.48292
1.4832
1.48427
1.4873
1.49298
1.50263
1.51502
1.52466
1.53026
1.53182
1.53162
1.53143
1.53133
1.53033
1.52809
1.52587
1.52245
1.51821
1.51443
1.51006
1.50614
1.50287
1.49898
1.49447
1.49178
1.48872
1.48438
1.48084
1.47755
1.47309
1.46893
1.46547
1.46131
1.45682
1.45318
1.44949
1.44487
1.44119
1.43816
1.43461
1.43079
1.40873
1.40451
1.40085
1.39648
1.39136
1.3875
1.38412
1.3802
1.3768
1.37393
1.37073
1.36659
1.36376
1.36173
1.35894
1.35517
1.35295
1.35108
1.34806
1.34576
1.34411
1.34169
1.33878
1.33697
1.33489
1.33154
1.32895
1.32696
1.32393
1.3208
1.31912
1.31699
1.31385
1.31165
1.30965
1.30663
1.30294
1.30012
1.29684
1.29164
1.28826
1.28531
1.28111
1.2789
1.27722
1.2753
1.2746
1.27472
1.27502
1.27612
1.2797
1.28892
1.30627
1.33008
1.36216
1.39788
1.4305
1.45936
1.47831
1.49395
1.50739
1.51819
1.52152
1.52255
1.52401
1.52323
1.52131
1.52115
1.52115
1.52064
1.51869
1.51569
1.5126
1.50926
1.50524
1.50036
1.496
1.49361
1.49178
1.48985
1.48935
1.49013
1.49257
1.49719
1.50458
1.51567
1.52654
1.53502
1.53903
1.5396
1.53959
1.5396
1.53904
1.53699
1.53504
1.53224
1.52818
1.52443
1.52041
1.51668
1.51339
1.50963
1.50479
1.50157
1.49809
1.49307
1.48899
1.48557
1.48113
1.47745
1.47432
1.47029
1.46603
1.46234
1.45861
1.45394
1.44994
1.44641
1.44209
1.43775
1.41662
1.41269
1.40955
1.40602
1.40137
1.39752
1.39506
1.39179
1.3882
1.3857
1.38312
1.37944
1.37639
1.37461
1.37216
1.36844
1.3659
1.36406
1.36114
1.35826
1.35646
1.35401
1.35052
1.3483
1.34604
1.34237
1.33923
1.33692
1.33382
1.33025
1.32814
1.326
1.32269
1.32019
1.31825
1.3153
1.31177
1.30921
1.3064
1.30221
1.29867
1.29595
1.29211
1.28779
1.28532
1.28234
1.2791
1.27813
1.27687
1.2759
1.27569
1.27621
1.27799
1.28269
1.29241
1.30956
1.33304
1.36264
1.39687
1.42988
1.4548
1.47452
1.49106
1.50358
1.51557
1.5205
1.52035
1.52115
1.52114
1.51949
1.5185
1.51919
1.52
1.51967
1.51756
1.51451
1.51106
1.50799
1.50507
1.5017
1.49944
1.49917
1.49987
1.50223
1.50737
1.5157
1.52633
1.53626
1.54394
1.54725
1.5478
1.54795
1.54792
1.54685
1.54511
1.54275
1.53873
1.53454
1.53045
1.52611
1.52264
1.51896
1.51464
1.5116
1.50817
1.50329
1.49899
1.49535
1.49056
1.48624
1.48273
1.4782
1.47358
1.47019
1.46678
1.46266
1.45914
1.45563
1.45135
1.4471
1.4266
1.42308
1.42061
1.41767
1.41367
1.40946
1.40742
1.40492
1.40119
1.39843
1.39619
1.39299
1.38936
1.38745
1.38521
1.38142
1.37825
1.37621
1.37315
1.36966
1.36752
1.36494
1.36113
1.35838
1.35597
1.35232
1.34864
1.34615
1.34312
1.33905
1.33668
1.33449
1.33103
1.32822
1.32617
1.32333
1.3198
1.31732
1.31489
1.31128
1.3081
1.30583
1.3028
1.29864
1.29576
1.29276
1.28815
1.2846
1.28207
1.27876
1.27732
1.27759
1.27803
1.27786
1.27832
1.28004
1.2846
1.29411
1.31023
1.33352
1.3626
1.39302
1.4272
1.45153
1.46907
1.48762
1.50198
1.51178
1.51782
1.51761
1.51684
1.51857
1.51858
1.518
1.51832
1.51893
1.51872
1.51799
1.51611
1.51371
1.51161
1.51098
1.51042
1.51075
1.51343
1.51939
1.52823
1.5388
1.54799
1.55336
1.55499
1.55524
1.55512
1.55457
1.55404
1.55295
1.55012
1.54591
1.54226
1.53802
1.53372
1.52942
1.52417
1.52045
1.51689
1.512
1.50808
1.50485
1.50053
1.49636
1.49263
1.48813
1.48324
1.47943
1.4754
1.4701
1.46639
1.46304
1.45893
1.4554
1.43952
1.43599
1.43358
1.43076
1.42707
1.42254
1.42018
1.41814
1.41453
1.41102
1.40886
1.40601
1.40186
1.39932
1.39697
1.39311
1.3892
1.38678
1.38375
1.37974
1.37722
1.37471
1.37079
1.36761
1.36517
1.36157
1.35753
1.35492
1.35194
1.34784
1.34506
1.34277
1.33941
1.33609
1.33389
1.3312
1.32736
1.32491
1.32274
1.31939
1.31658
1.31462
1.31212
1.30875
1.30606
1.30347
1.29953
1.29511
1.29233
1.2887
1.28475
1.28301
1.28128
1.27904
1.27863
1.27906
1.27938
1.2798
1.28097
1.28506
1.29449
1.31001
1.33134
1.36059
1.38984
1.41787
1.44649
1.46479
1.48098
1.49727
1.5065
1.51335
1.51618
1.51449
1.51546
1.51833
1.51898
1.51793
1.51732
1.51784
1.51869
1.5191
1.51899
1.51895
1.52068
1.52565
1.53274
1.54188
1.55221
1.5603
1.56341
1.56417
1.56416
1.56353
1.56263
1.56187
1.5599
1.55589
1.55282
1.5497
1.54559
1.54103
1.53614
1.53187
1.52779
1.52265
1.51777
1.51378
1.50878
1.50452
1.50127
1.49727
1.49273
1.48928
1.48549
1.48035
1.47631
1.47264
1.46801
1.4636
1.45299
1.44925
1.4467
1.44388
1.44029
1.43543
1.43232
1.43038
1.42699
1.42263
1.42007
1.41743
1.41324
1.40989
1.40741
1.4038
1.39929
1.39647
1.39348
1.38909
1.3862
1.3837
1.37981
1.37624
1.37369
1.37032
1.36606
1.36321
1.36045
1.35634
1.35326
1.35106
1.34782
1.34428
1.34202
1.33937
1.33556
1.33281
1.33064
1.32758
1.32456
1.3228
1.32066
1.31746
1.31521
1.31307
1.30979
1.30608
1.30324
1.30027
1.29592
1.29284
1.29055
1.28708
1.2845
1.28326
1.28186
1.28013
1.28015
1.28039
1.28094
1.28255
1.28654
1.29481
1.30905
1.32801
1.35341
1.3831
1.40827
1.43626
1.45757
1.47333
1.48907
1.49951
1.5067
1.51322
1.51632
1.51592
1.51591
1.51843
1.52039
1.52063
1.52064
1.52079
1.52308
1.52896
1.53654
1.544
1.55344
1.56409
1.57057
1.57323
1.57393
1.57405
1.57382
1.57301
1.57133
1.56789
1.56375
1.56031
1.55594
1.55124
1.54704
1.54308
1.5391
1.53425
1.52939
1.5252
1.5202
1.5153
1.51129
1.50683
1.50128
1.49736
1.49362
1.48903
1.48572
1.48245
1.47814
1.47385
1.46591
1.46194
1.45895
1.4559
1.45224
1.44739
1.44343
1.44128
1.43821
1.43347
1.43018
1.42766
1.42364
1.41946
1.41679
1.41335
1.40852
1.40532
1.40241
1.39806
1.39468
1.3922
1.38863
1.38467
1.38203
1.37895
1.37448
1.37146
1.36887
1.36494
1.36162
1.35939
1.35638
1.35264
1.35015
1.34769
1.34388
1.34084
1.33884
1.33594
1.3328
1.33107
1.32904
1.32595
1.32366
1.32178
1.31904
1.3157
1.31346
1.31109
1.30747
1.30439
1.3019
1.29853
1.29426
1.29152
1.28909
1.28529
1.28402
1.28351
1.28252
1.28248
1.28255
1.28296
1.28411
1.28742
1.29417
1.30603
1.32272
1.34426
1.37221
1.39813
1.42192
1.4492
1.4651
1.47808
1.49128
1.49882
1.50564
1.51353
1.51543
1.51735
1.51916
1.52013
1.52297
1.52877
1.53667
1.54241
1.55105
1.56368
1.57332
1.57956
1.58295
1.58382
1.58397
1.58352
1.58236
1.5801
1.57683
1.57331
1.56888
1.56347
1.55882
1.55425
1.54946
1.54426
1.53928
1.53549
1.53119
1.52675
1.52274
1.51846
1.51301
1.50855
1.50427
1.49883
1.49473
1.49118
1.48631
1.48217
1.47767
1.47365
1.47016
1.46677
1.4631
1.45839
1.45353
1.45104
1.44819
1.44345
1.43936
1.43686
1.43326
1.42861
1.42554
1.42235
1.41753
1.41377
1.41095
1.40684
1.40295
1.40055
1.39733
1.39311
1.39034
1.38749
1.38314
1.37972
1.37718
1.37361
1.36992
1.3677
1.36505
1.36119
1.35861
1.35631
1.35267
1.34943
1.34735
1.3447
1.34137
1.33938
1.33746
1.33432
1.33174
1.32998
1.32742
1.32424
1.32236
1.32045
1.31747
1.31488
1.31283
1.31007
1.30604
1.30287
1.29999
1.29579
1.29202
1.28989
1.28757
1.28478
1.28446
1.28447
1.28428
1.28382
1.28392
1.28454
1.28673
1.29186
1.3015
1.31665
1.33527
1.3584
1.38589
1.40907
1.43385
1.45748
1.46958
1.48336
1.49074
1.49729
1.50571
1.51432
1.51756
1.52233
1.53066
1.53684
1.54621
1.56145
1.57447
1.58094
1.58916
1.59382
1.59419
1.59356
1.59235
1.59031
1.58759
1.58483
1.581
1.57617
1.57219
1.56775
1.56277
1.55721
1.55178
1.54722
1.54233
1.53688
1.53227
1.5277
1.52302
1.51935
1.51555
1.51039
1.50586
1.50193
1.4971
1.49243
1.48796
1.48414
1.48043
1.47657
1.4728
1.4684
1.4632
1.46006
1.45726
1.453
1.44814
1.44537
1.4423
1.4375
1.43395
1.43101
1.42649
1.42222
1.41947
1.41577
1.41149
1.40889
1.406
1.40172
1.39856
1.39595
1.39192
1.38802
1.38562
1.38248
1.37854
1.37627
1.37385
1.37009
1.36717
1.36491
1.36162
1.35797
1.3559
1.35357
1.35008
1.34798
1.34616
1.3431
1.3402
1.33828
1.33589
1.33259
1.33064
1.329
1.32627
1.32376
1.32212
1.31979
1.31628
1.3135
1.31092
1.30735
1.3032
1.30056
1.29787
1.29382
1.29144
1.28975
1.2876
1.28513
1.28438
1.28422
1.28408
1.28414
1.28463
1.28613
1.28982
1.2968
1.30887
1.32587
1.34529
1.37034
1.39455
1.41656
1.44196
1.45993
1.47499
1.49025
1.49389
1.49986
1.51183
1.52301
1.53363
1.55025
1.56612
1.57628
1.58808
1.60124
1.6054
1.60579
1.60578
1.60461
1.60119
1.59723
1.59309
1.58766
1.58311
1.57906
1.57402
1.56888
1.56462
1.56059
1.55569
1.54989
1.54484
1.54019
1.53445
1.52946
1.52479
1.51954
1.51514
1.51172
1.50758
1.5033
1.49729
1.49367
1.49024
1.48588
1.48164
1.4777
1.47269
1.46858
1.46577
1.46212
1.45697
1.45374
1.45106
1.44659
1.44239
1.43947
1.43549
1.43073
1.4278
1.42469
1.42029
1.41735
1.4148
1.41072
1.407
1.40449
1.40088
1.39656
1.39402
1.39131
1.38738
1.38479
1.38266
1.37922
1.37585
1.37366
1.37069
1.36676
1.36458
1.36246
1.35911
1.35662
1.35482
1.35206
1.34866
1.34664
1.3444
1.34092
1.33885
1.33729
1.33475
1.33215
1.33051
1.32851
1.32525
1.32264
1.32055
1.31752
1.31392
1.31151
1.30899
1.30522
1.30171
1.29926
1.29629
1.29231
1.29034
1.28865
1.28679
1.28503
1.28474
1.28488
1.28474
1.28484
1.28552
1.28776
1.29248
1.30105
1.31504
1.33237
1.35411
1.37871
1.40034
1.42374
1.44682
1.46173
1.47997
1.50022
1.50742
1.52161
1.54186
1.55777
1.57463
1.59412
1.60432
1.61069
1.61791
1.61836
1.6172
1.61378
1.60903
1.60371
1.59833
1.59301
1.58761
1.58129
1.57448
1.57047
1.56612
1.56082
1.55606
1.55194
1.54699
1.54148
1.53651
1.53145
1.52645
1.52188
1.51696
1.51285
1.50607
1.5021
1.49924
1.49521
1.49021
1.48633
1.48225
1.47752
1.47419
1.47094
1.46621
1.4621
1.45951
1.45577
1.45098
1.44787
1.44454
1.4396
1.43627
1.43361
1.42947
1.42597
1.4235
1.41993
1.41568
1.41299
1.40999
1.40552
1.40254
1.40023
1.39652
1.39339
1.39142
1.38838
1.38462
1.38226
1.37968
1.37578
1.37315
1.37126
1.36821
1.36524
1.36354
1.36106
1.35744
1.35514
1.35301
1.34966
1.34707
1.34551
1.34321
1.34017
1.33846
1.33659
1.3334
1.3308
1.32897
1.32648
1.32331
1.32132
1.31935
1.31613
1.31278
1.31023
1.30717
1.3029
1.29953
1.29702
1.29423
1.2909
1.28976
1.28874
1.28733
1.28588
1.28542
1.28492
1.28481
1.28511
1.28654
1.28988
1.29569
1.30542
1.31974
1.33731
1.36007
1.38322
1.40394
1.4304
1.45299
1.47192
1.50405
1.52868
1.54706
1.574
1.5873
1.59931
1.61132
1.6217
1.62602
1.62568
1.62426
1.62013
1.61466
1.60869
1.60262
1.59608
1.58929
1.5837
1.57856
1.5733
1.56714
1.56195
1.55713
1.55177
1.54631
1.5418
1.53744
1.53339
1.52884
1.52402
1.51565
1.51105
1.50799
1.50437
1.49919
1.49439
1.49106
1.48667
1.48247
1.47952
1.47573
1.47099
1.46813
1.46501
1.46013
1.4564
1.45338
1.4489
1.44481
1.44233
1.43895
1.43485
1.43219
1.42923
1.42466
1.42143
1.41884
1.41472
1.41115
1.40903
1.40597
1.40231
1.40013
1.39765
1.39369
1.3908
1.38851
1.38482
1.38161
1.37987
1.37727
1.37397
1.37205
1.36996
1.36642
1.36362
1.36164
1.35855
1.35537
1.35383
1.35177
1.34856
1.34647
1.34464
1.34163
1.33858
1.33685
1.3347
1.33156
1.32977
1.32818
1.32542
1.3224
1.32023
1.3177
1.31386
1.31073
1.30821
1.30502
1.3014
1.29855
1.29581
1.29334
1.29034
1.28835
1.28781
1.28695
1.28602
1.2856
1.28536
1.28504
1.28538
1.28718
1.29113
1.29781
1.30851
1.32277
1.34059
1.36494
1.38739
1.41599
1.45124
1.47871
1.5166
1.55398
1.57593
1.60005
1.61659
1.621
1.62933
1.63419
1.63318
1.62933
1.62422
1.61826
1.6118
1.60449
1.59726
1.59141
1.58601
1.58085
1.57541
1.56925
1.56359
1.55832
1.55346
1.54867
1.54333
1.53854
1.53399
1.52473
1.52014
1.5169
1.51342
1.50869
1.50321
1.49989
1.49624
1.49137
1.4881
1.48497
1.48033
1.4767
1.47392
1.46971
1.46523
1.46217
1.45847
1.45363
1.45093
1.44828
1.44408
1.44084
1.43821
1.43414
1.43008
1.42751
1.42423
1.42002
1.41766
1.41529
1.41143
1.40862
1.40646
1.40282
1.39924
1.39704
1.39407
1.3904
1.38837
1.38631
1.38287
1.3804
1.37854
1.37529
1.37195
1.37002
1.36746
1.36404
1.36215
1.36037
1.35723
1.35453
1.35273
1.34995
1.34649
1.34471
1.34284
1.33984
1.33777
1.33631
1.33395
1.33079
1.3288
1.32673
1.32333
1.32058
1.31866
1.31595
1.31238
1.30976
1.30687
1.30329
1.3002
1.29707
1.29403
1.29201
1.29002
1.28732
1.2866
1.28627
1.28573
1.28504
1.2846
1.28436
1.28494
1.28712
1.29147
1.29888
1.31009
1.32506
1.34924
1.37765
1.41075
1.46034
1.4988
1.53753
1.58072
1.60252
1.61883
1.63161
1.63766
1.63981
1.63881
1.63613
1.63164
1.62461
1.61599
1.60801
1.59996
1.59295
1.58798
1.5824
1.57667
1.57142
1.56554
1.5607
1.55585
1.55049
1.54508
1.53408
1.5294
1.52594
1.52226
1.51772
1.51242
1.50873
1.50543
1.50097
1.49715
1.49426
1.49024
1.48559
1.48261
1.47909
1.47427
1.47085
1.46768
1.46311
1.4596
1.45732
1.45381
1.44969
1.44693
1.44368
1.43896
1.43593
1.43333
1.42926
1.42618
1.42421
1.421
1.41733
1.41502
1.41215
1.40795
1.40529
1.40297
1.39927
1.39666
1.39493
1.39194
1.38877
1.38685
1.38426
1.38052
1.37824
1.37618
1.37277
1.37032
1.36876
1.366
1.36279
1.36084
1.3585
1.35487
1.35261
1.35098
1.34819
1.34555
1.34414
1.34207
1.33882
1.33669
1.33489
1.332
1.32925
1.32771
1.32568
1.32236
1.31993
1.31777
1.31422
1.31064
1.30811
1.3047
1.30135
1.29917
1.29604
1.29304
1.29124
1.28938
1.28666
1.28545
1.28483
1.28435
1.28417
1.28393
1.28357
1.28415
1.28635
1.2915
1.30122
1.31605
1.34199
1.38106
1.42173
1.47682
1.53429
1.56488
1.59658
1.62323
1.63359
1.63837
1.63918
1.63861
1.63677
1.63311
1.62696
1.61876
1.60996
1.60332
1.5973
1.59098
1.58517
1.57926
1.57367
1.56793
1.56172
1.55649
1.54356
1.53901
1.53547
1.53154
1.52693
1.52194
1.51781
1.51425
1.51021
1.50626
1.50337
1.49993
1.49512
1.49134
1.48823
1.48388
1.47971
1.4766
1.47284
1.4684
1.46596
1.46321
1.45882
1.45534
1.45265
1.44855
1.4446
1.44213
1.43898
1.43503
1.43273
1.43027
1.42621
1.42314
1.42075
1.41692
1.41349
1.4115
1.40863
1.40529
1.40336
1.40106
1.39737
1.39488
1.39274
1.38913
1.38629
1.38458
1.3818
1.37872
1.37698
1.37479
1.37126
1.36886
1.36689
1.36354
1.36072
1.35921
1.35688
1.35376
1.35198
1.35013
1.34691
1.34424
1.34263
1.3402
1.33719
1.33575
1.33415
1.33121
1.32873
1.32698
1.32429
1.32066
1.31846
1.31611
1.31246
1.30966
1.30717
1.30329
1.29998
1.29776
1.29426
1.29145
1.28996
1.28821
1.28615
1.28502
1.28421
1.28336
1.28292
1.28265
1.28248
1.28335
1.28714
1.29747
1.31677
1.34689
1.39738
1.45357
1.50234
1.56678
1.60231
1.61762
1.6291
1.633
1.63512
1.63628
1.63487
1.62951
1.62277
1.61705
1.61201
1.60642
1.60038
1.59469
1.58871
1.58257
1.57604
1.56966
1.55284
1.54822
1.54468
1.54091
1.53622
1.53173
1.52753
1.52339
1.51942
1.51578
1.51232
1.509
1.50488
1.50014
1.49684
1.49329
1.48886
1.48537
1.48225
1.47809
1.47478
1.47222
1.46851
1.46396
1.46102
)
;

boundaryField
{
    inlet
    {
        type            calculated;
        value           nonuniform 0();
    }
    outlet
    {
        type            calculated;
        value           nonuniform 0();
    }
    bottom
    {
        type            symmetryPlane;
    }
    top
    {
        type            symmetryPlane;
    }
    obstacle
    {
        type            calculated;
        value           nonuniform 0();
    }
    front
    {
        type            empty;
    }
    back
    {
        type            empty;
    }
    procBoundary37to29
    {
        type            processor;
        value           nonuniform List<scalar> 
129
(
1.4881
1.48133
1.47315
1.46215
1.4524
1.44322
1.43221
1.42021
1.53015
1.53249
1.53335
1.53245
1.53125
1.52976
1.52771
1.52458
1.52026
1.51511
1.50988
1.50499
1.50036
1.49527
1.4898
1.4848
1.47967
1.47529
1.47286
1.47121
1.46948
1.46722
1.46437
1.46068
1.45646
1.45346
1.45103
1.44883
1.4477
1.44677
1.44598
1.44565
1.44557
1.44535
1.44579
1.44803
1.45278
1.46146
1.47369
1.48579
1.49263
1.49342
1.49312
1.49242
1.49173
1.49018
1.48806
1.48522
1.48111
1.47759
1.47437
1.47017
1.46667
1.46375
1.45986
1.45639
1.45376
1.45035
1.44648
1.44355
1.4404
1.43625
1.43288
1.42985
1.42602
1.42215
1.41909
1.41571
1.41134
1.40802
1.40493
1.40073
1.3971
1.39415
1.39031
1.38628
1.41039
1.40226
1.39404
1.38605
1.37835
1.3709
1.36461
1.35908
1.35352
1.34774
1.34131
1.33643
1.33236
1.32744
1.32213
1.31742
1.31268
1.3077
1.30334
1.29932
1.29482
1.28923
1.28484
1.28155
1.27733
1.27275
1.26967
1.26596
1.26142
1.25835
1.2555
1.25287
1.25188
1.25203
1.25311
1.25488
1.25777
1.26352
1.27555
1.29774
1.33393
1.37388
1.41906
1.45571
1.45571
)
;
    }
    procBoundary37to30
    {
        type            processor;
        value           nonuniform List<scalar> 3(1.39283 1.40221 1.41065);
    }
    procBoundary37to36
    {
        type            processor;
        value           uniform 1.48788;
    }
    procBoundary37to38
    {
        type            processor;
        value           nonuniform List<scalar> 
16
(
1.41885
1.42752
1.43444
1.44342
1.45222
1.45993
1.47015
1.47918
1.48894
1.4997
1.50935
1.51959
1.52967
1.53935
1.55139
1.5639
)
;
    }
    procBoundary37to44
    {
        type            processor;
        value           nonuniform List<scalar> 
18
(
1.47321
1.46413
1.46342
1.4655
1.46951
1.47517
1.48278
1.49404
1.50679
1.5201
1.53261
1.54409
1.55431
1.5639
1.57296
1.58152
1.59075
1.59954
)
;
    }
    procBoundary37to45
    {
        type            processor;
        value           nonuniform List<scalar> 
129
(
1.6045
1.59738
1.59193
1.58767
1.58209
1.576
1.57187
1.56774
1.45794
1.45347
1.45054
1.44813
1.44433
1.44114
1.43897
1.43561
1.43158
1.42902
1.4261
1.42201
1.41965
1.41756
1.4141
1.4115
1.40959
1.4063
1.40296
1.40091
1.39812
1.39465
1.39276
1.3907
1.38729
1.38501
1.38314
1.37986
1.37686
1.37506
1.37247
1.36922
1.36747
1.3656
1.36233
1.35991
1.35816
1.35525
1.35208
1.35042
1.34846
1.34542
1.34354
1.34209
1.33952
1.33659
1.3349
1.33278
1.32944
1.32736
1.32572
1.32291
1.31999
1.31796
1.31504
1.31109
1.30828
1.30531
1.301
1.29807
1.29605
1.29273
1.29027
1.28917
1.28737
1.28527
1.28399
1.28294
1.28203
1.28175
1.28189
1.28325
1.28779
1.30025
1.32856
1.36823
1.42612
1.49644
1.54626
1.59044
1.62419
1.63109
1.63188
1.6317
1.62988
1.6267
1.62218
1.61749
1.61277
1.60737
1.60395
1.6005
1.59594
1.59058
1.58463
1.56276
1.55794
1.55388
1.5499
1.54524
1.54098
1.53701
1.5326
1.52843
1.52551
1.52183
1.51793
1.51433
1.50974
1.50546
1.50222
1.49832
1.49408
1.49101
1.48785
1.48392
1.48083
1.47775
1.47318
1.45794
1.46917
)
;
    }
}


// ************************************************************************* //
