/*--------------------------------*- C++ -*----------------------------------*\
  =========                 |
  \\      /  F ield         | OpenFOAM: The Open Source CFD Toolbox
   \\    /   O peration     | Website:  https://openfoam.org
    \\  /    A nd           | Version:  7
     \\/     M anipulation  |
\*---------------------------------------------------------------------------*/
FoamFile
{
    version     2.0;
    format      ascii;
    class       surfaceScalarField;
    location    "15";
    object      phi;
}
// * * * * * * * * * * * * * * * * * * * * * * * * * * * * * * * * * * * * * //

dimensions      [0 3 -1 0 0 0 0];

internalField   nonuniform List<scalar> 
737
(
0.0725999
-8.07252e-06
0.0725976
-9.85654e-06
0.0725949
-1.17762e-05
0.0725921
-1.38352e-05
0.072589
-1.60362e-05
0.0725856
-1.83807e-05
0.072582
-2.08687e-05
0.072578
-2.34988e-05
0.0725737
-2.62671e-05
0.0725691
-2.91685e-05
0.0725642
-3.21928e-05
0.0725589
-3.53317e-05
-3.85636e-05
0.0734464
-6.15172e-06
0.0734443
-7.7383e-06
0.0734419
-9.4481e-06
0.0734394
-1.12846e-05
0.0734366
-1.32503e-05
0.0734336
-1.5347e-05
0.0734303
-1.75749e-05
0.0734267
-1.9933e-05
0.0734229
-2.2418e-05
0.0734187
-2.50257e-05
0.0734143
-2.77473e-05
0.0734095
-3.05754e-05
-3.34912e-05
0.0743036
-4.44552e-06
0.0743017
-5.85316e-06
0.0742996
-7.37256e-06
0.0742974
-9.00699e-06
0.0742949
-1.0759e-05
0.0742922
-1.26303e-05
0.0742892
-1.46212e-05
0.074286
-1.67313e-05
0.0742825
-1.89577e-05
0.0742788
-2.1297e-05
0.0742748
-2.37415e-05
0.0742705
-2.62848e-05
-2.89103e-05
0.0751716
-2.93661e-06
0.07517
-4.18228e-06
0.0751681
-5.52918e-06
0.0751661
-6.98041e-06
0.0751639
-8.53842e-06
0.0751614
-1.02049e-05
0.0751588
-1.19804e-05
0.0751559
-1.38647e-05
0.0751528
-1.58555e-05
0.0751495
-1.79498e-05
0.0751459
-2.01411e-05
0.075142
-2.24238e-05
-2.47834e-05
0.0760506
-1.60939e-06
0.0760491
-2.7086e-06
0.0760475
-3.89943e-06
0.0760457
-5.18476e-06
0.0760437
-6.56693e-06
0.0760415
-8.04761e-06
0.0760392
-9.62751e-06
0.0760366
-1.13065e-05
0.0760338
-1.30828e-05
0.0760309
-1.4954e-05
0.0760276
-1.69144e-05
0.0760242
-1.89591e-05
-2.10754e-05
0.0769405
-4.49724e-07
0.0769392
-1.41662e-06
0.0769378
-2.46641e-06
0.0769362
-3.60172e-06
0.0769344
-4.82476e-06
0.0769325
-6.13714e-06
0.0769304
-7.53965e-06
0.0769282
-9.03234e-06
0.0769257
-1.06138e-05
0.076923
-1.2282e-05
0.0769201
-1.40321e-05
0.076917
-1.58598e-05
-1.7754e-05
0.0778415
5.55475e-07
0.0778404
-2.92375e-07
0.0778391
-1.21476e-06
0.0778377
-2.21461e-06
0.0778362
-3.29384e-06
0.0778345
-4.45401e-06
0.0778327
-5.69595e-06
0.0778307
-7.01982e-06
0.0778285
-8.42455e-06
0.0778261
-9.90846e-06
0.0778235
-1.14673e-05
0.0778208
-1.30976e-05
-1.47895e-05
0.0787537
1.41965e-06
0.0787527
6.77809e-07
0.0787517
-1.30798e-07
0.0787504
-1.0082e-06
0.0787491
-1.95763e-06
0.0787476
-2.98034e-06
0.078746
-4.07716e-06
0.0787442
-5.24834e-06
0.0787423
-6.49304e-06
0.0787402
-7.80989e-06
0.0787379
-9.1953e-06
0.0787355
-1.06462e-05
-1.2154e-05
0.0796772
2.15178e-06
0.0796764
1.50646e-06
0.0796754
8.00322e-07
0.0796744
3.00782e-08
0.0796732
-8.00803e-07
0.079672
-1.69968e-06
0.0796705
-2.66561e-06
0.079669
-3.69894e-06
0.0796673
-4.79903e-06
0.0796655
-5.96474e-06
0.0796635
-7.19305e-06
0.0796613
-8.48131e-06
-9.82208e-06
0.0806121
2.76213e-06
0.0806114
2.20283e-06
0.0806106
1.58905e-06
0.0806097
9.18598e-07
0.0806087
1.88949e-07
0.0806076
-5.97251e-07
0.0806064
-1.44524e-06
0.080605
-2.35425e-06
0.0806036
-3.32383e-06
0.080602
-4.35307e-06
0.0806002
-5.43934e-06
0.0805983
-6.5804e-06
-7.7698e-06
0.0815584
3.26015e-06
0.0815579
2.77759e-06
0.0815572
2.24622e-06
0.0815565
1.66408e-06
0.0815556
1.02944e-06
0.0815547
3.40539e-07
0.0815536
-4.01112e-07
0.0815525
-1.19823e-06
0.0815512
-2.05025e-06
0.0815498
-2.95641e-06
0.0815483
-3.91453e-06
0.0815466
-4.92262e-06
-5.97513e-06
0.0825164
3.65437e-06
0.082516
3.24011e-06
0.0825154
2.78215e-06
0.0825148
2.2787e-06
0.0825141
1.72821e-06
0.0825133
1.12936e-06
0.0825124
4.80962e-07
0.0825115
-2.16107e-07
0.0825104
-9.62302e-07
0.0825092
-1.75772e-06
0.0825079
-2.60037e-06
0.0825064
-3.48857e-06
-4.41753e-06
0.0834861
3.95269e-06
0.0834858
3.59899e-06
0.0834853
3.20623e-06
0.0834848
2.77278e-06
0.0834843
2.2972e-06
0.0834836
1.77829e-06
0.0834829
1.21515e-06
0.0834821
6.07037e-07
0.0834811
-4.57585e-08
0.0834801
-7.41139e-07
0.083479
-1.47999e-06
0.0834778
-2.26028e-06
-3.07791e-06
0.0844676
4.16241e-06
0.0844674
3.86222e-06
0.0844671
3.52718e-06
0.0844667
3.1558e-06
0.0844662
2.74676e-06
0.0844657
2.29894e-06
0.0844651
1.81149e-06
0.0844644
1.28385e-06
0.0844637
7.15835e-07
0.0844628
1.06949e-07
0.0844619
-5.3766e-07
0.0844608
-1.22104e-06
-1.93853e-06
0.0854611
4.29035e-06
0.085461
4.03723e-06
0.0854607
3.75309e-06
0.0854605
3.43656e-06
0.0854601
3.08644e-06
0.0854597
2.70166e-06
0.0854592
2.28145e-06
0.0854587
1.82523e-06
0.0854581
1.33286e-06
0.0854574
8.04435e-07
0.0854566
2.40546e-07
0.0854557
-3.55461e-07
-9.82995e-07
0.0864667
4.34286e-06
0.0864666
4.13096e-06
0.0864665
3.89152e-06
0.0864663
3.62329e-06
0.0864661
3.32515e-06
0.0864658
2.99614e-06
0.0864654
2.6355e-06
0.086465
2.24271e-06
0.0864645
1.81756e-06
0.086464
1.36013e-06
0.0864633
8.71166e-07
0.0864626
3.51246e-07
-1.95921e-07
0.0874845
4.32588e-06
0.0874845
4.14989e-06
0.0874844
3.94951e-06
0.0874843
3.72362e-06
0.0874842
3.47119e-06
0.087484
3.19134e-06
0.0874837
2.88335e-06
0.0874834
2.5467e-06
0.0874831
2.18118e-06
0.0874826
1.78681e-06
0.0874821
1.36418e-06
0.0874816
9.13947e-07
4.37983e-07
0.0885146
4.24501e-06
0.0885147
4.1001e-06
0.0885147
3.93368e-06
0.0885147
3.74474e-06
0.0885146
3.53233e-06
0.0885145
3.29565e-06
0.0885144
3.03402e-06
0.0885142
2.74695e-06
0.0885139
2.4342e-06
0.0885136
2.09575e-06
0.0885132
1.73206e-06
0.0885128
1.34367e-06
9.32246e-07
0.0895572
4.1055e-06
0.0895573
3.98732e-06
0.0895574
3.85026e-06
0.0895575
3.69339e-06
0.0895575
3.51587e-06
0.0895575
3.31695e-06
0.0895574
3.09602e-06
0.0895573
2.85259e-06
0.0895572
2.58644e-06
0.089557
2.29748e-06
0.0895567
1.98607e-06
0.0895564
1.65265e-06
1.29858e-06
0.0906124
3.91234e-06
0.0906126
3.81697e-06
0.0906128
3.70511e-06
0.0906129
3.57594e-06
0.090613
3.42869e-06
0.090613
3.26269e-06
0.090613
3.07736e-06
0.090613
2.87227e-06
0.090613
2.64717e-06
0.0906129
2.40195e-06
0.0906127
2.13687e-06
0.0906125
1.85229e-06
1.54932e-06
0.0916804
3.67024e-06
0.0916806
3.59419e-06
0.0916808
3.50383e-06
0.091681
3.39844e-06
0.0916812
3.27734e-06
0.0916813
3.13992e-06
0.0916814
2.98566e-06
0.0916814
2.81415e-06
0.0916815
2.62514e-06
0.0916814
2.41853e-06
0.0916814
2.19448e-06
0.0916813
1.9533e-06
1.69584e-06
0.0927613
3.38376e-06
0.0927615
3.32389e-06
0.0927618
3.25174e-06
0.092762
3.16666e-06
0.0927622
3.06804e-06
0.0927624
2.95535e-06
0.0927626
2.82813e-06
0.0927627
2.68599e-06
0.0927628
2.52871e-06
0.0927629
2.35615e-06
0.0927629
2.16844e-06
0.0927629
1.96581e-06
1.74894e-06
0.0938552
3.05723e-06
0.0938555
3.01081e-06
0.0938558
2.95396e-06
0.0938561
2.88612e-06
0.0938563
2.80677e-06
0.0938566
2.71543e-06
0.0938568
2.6117e-06
0.093857
2.49525e-06
0.0938572
2.36584e-06
0.0938573
2.22335e-06
0.0938574
2.06786e-06
0.0938575
1.89955e-06
1.71895e-06
0.0949623
2.69489e-06
0.0949627
2.65952e-06
0.094963
2.61545e-06
0.0949633
2.56219e-06
0.0949636
2.4993e-06
0.0949639
2.42638e-06
0.0949642
2.34308e-06
0.0949644
2.24909e-06
0.0949647
2.14422e-06
0.0949648
2.02836e-06
0.094965
1.90154e-06
0.0949651
1.76389e-06
1.61583e-06
0.0960828
2.30087e-06
0.0960832
2.27451e-06
0.0960835
2.24105e-06
0.0960839
2.2001e-06
0.0960842
2.15128e-06
0.0960846
2.09428e-06
0.0960849
2.02877e-06
0.0960852
1.95453e-06
0.0960855
1.87138e-06
0.0960857
1.7792e-06
0.0960859
1.67802e-06
0.0960861
1.56794e-06
1.44926e-06
0.0972168
1.8792e-06
0.0972172
1.86013e-06
0.0972176
1.83548e-06
0.097218
1.80493e-06
0.0972184
1.7682e-06
0.0972187
1.72502e-06
0.0972191
1.67515e-06
0.0972194
1.6184e-06
0.0972197
1.55461e-06
0.09722
1.48371e-06
0.0972203
1.40569e-06
0.0972205
1.32062e-06
1.22874e-06
0.0983644
1.43417e-06
0.0983648
1.42099e-06
0.0983653
1.40367e-06
0.0983657
1.38199e-06
0.0983661
1.35574e-06
0.0983665
1.3247e-06
0.0983669
1.28872e-06
0.0983673
1.24764e-06
0.0983676
1.20135e-06
0.098368
1.1498e-06
0.0983683
1.09297e-06
0.0983686
1.03092e-06
9.63796e-07
0.0995259
9.69452e-07
0.0995264
9.61165e-07
0.0995268
9.50141e-07
0.0995273
9.3623e-07
0.0995277
9.19293e-07
0.0995281
8.99203e-07
0.0995285
8.75851e-07
0.0995289
8.49144e-07
0.0995293
8.19013e-07
0.0995297
7.85417e-07
0.09953
7.48349e-07
0.0995304
7.07842e-07
6.6399e-07
0.100701
4.90219e-07
0.100702
4.86092e-07
0.100702
4.80601e-07
0.100703
4.73678e-07
0.100703
4.65256e-07
0.100704
4.5528e-07
0.100704
4.43701e-07
0.100705
4.30479e-07
0.100705
4.15585e-07
0.100705
3.99001e-07
0.100706
3.80724e-07
0.100706
3.60768e-07
3.39175e-07
0.101891
0.101892
0.101892
0.101893
0.101893
0.101894
0.101894
0.101894
0.101895
0.101895
0.101896
0.101896
)
;

boundaryField
{
    inlet
    {
        type            calculated;
        value           nonuniform 0();
    }
    outlet
    {
        type            calculated;
        value           nonuniform 0();
    }
    cylinder
    {
        type            calculated;
        value           nonuniform 0();
    }
    top
    {
        type            symmetryPlane;
        value           uniform 0;
    }
    bottom
    {
        type            symmetryPlane;
        value           nonuniform 0();
    }
    defaultFaces
    {
        type            empty;
        value           nonuniform 0();
    }
    procBoundary54to45
    {
        type            processor;
        value           nonuniform List<scalar> 8(-0.0726021 -0.0734483 -0.0743053 -0.0751731 -0.0760519 -0.0769416 -0.0778425 -0.0787546);
    }
    procBoundary54to46
    {
        type            processor;
        value           nonuniform List<scalar> 
13
(
1.02271e-05
1.22287e-05
1.43795e-05
1.66833e-05
1.91428e-05
2.17593e-05
2.45325e-05
2.74606e-05
3.05388e-05
3.3761e-05
3.71157e-05
4.05929e-05
4.41686e-05
)
;
    }
    procBoundary54to47
    {
        type            processor;
        value           nonuniform List<scalar> 3(0.0725533 0.0734045 0.0742659);
    }
    procBoundary54to53
    {
        type            processor;
        value           nonuniform List<scalar> 
22
(
-0.0796779
-0.0806127
-0.0815589
-0.0825168
-0.0834864
-0.0844679
-0.0854613
-0.0864668
-0.0874845
-0.0885145
-0.0895571
-0.0906123
-0.0916802
-0.092761
-0.0938549
-0.0949619
-0.0960824
-0.0972163
-0.098364
-0.0995254
-0.100701
-0.101891
)
;
    }
    procBoundary54to55
    {
        type            processor;
        value           nonuniform List<scalar> 
27
(
0.0751379
0.0760205
0.0769137
0.0778178
0.0787329
0.079659
0.0805962
0.0815448
0.0825049
0.0834764
0.0844597
0.0854548
0.0864618
0.087481
0.0885123
0.089556
0.0906123
0.0916811
0.0927628
0.0938575
0.0949653
0.0960863
0.0972208
0.0983688
0.0995307
0.100706
0.101896
)
;
    }
}


// ************************************************************************* //
