/*--------------------------------*- C++ -*----------------------------------*\
  =========                 |
  \\      /  F ield         | OpenFOAM: The Open Source CFD Toolbox
   \\    /   O peration     | Website:  https://openfoam.org
    \\  /    A nd           | Version:  7
     \\/     M anipulation  |
\*---------------------------------------------------------------------------*/
FoamFile
{
    version     2.0;
    format      ascii;
    class       volVectorField;
    location    "14";
    object      U;
}
// * * * * * * * * * * * * * * * * * * * * * * * * * * * * * * * * * * * * * //

dimensions      [0 1 -1 0 0 0 0];

internalField   nonuniform List<vector> 
2413
(
(1.79792 0.0647067 0)
(1.81372 0.0532513 0)
(1.82821 0.0434153 0)
(1.84189 0.0336896 0)
(1.85446 0.0257463 0)
(1.86652 0.0187814 0)
(1.87701 0.00950569 0)
(1.88674 0.00561023 0)
(1.89513 0.0010766 0)
(1.90265 -0.00771949 0)
(1.91025 -0.00980729 0)
(1.91661 -0.0123381 0)
(1.9216 -0.0198483 0)
(1.92727 -0.0220424 0)
(1.9324 -0.0241073 0)
(1.93603 -0.0299638 0)
(1.94025 -0.0346795 0)
(1.94409 -0.0385508 0)
(1.94771 -0.0419278 0)
(1.95164 -0.047236 0)
(1.95442 -0.0539832 0)
(1.95745 -0.0589133 0)
(1.96213 -0.0636509 0)
(1.96467 -0.0689526 0)
(1.96648 -0.0739328 0)
(1.97115 -0.0794093 0)
(1.97346 -0.084449 0)
(1.97564 -0.0894264 0)
(1.98026 -0.0954801 0)
(1.98251 -0.100671 0)
(1.98409 -0.10527 0)
(1.9879 -0.111226 0)
(1.99008 -0.117028 0)
(1.99073 -0.120919 0)
(1.99277 -0.126637 0)
(1.99411 -0.131949 0)
(1.99223 -0.136039 0)
(1.99086 -0.142071 0)
(1.99155 -0.14739 0)
(1.98761 -0.152433 0)
(1.9837 -0.158114 0)
(1.98146 -0.162137 0)
(1.9742 -0.169227 0)
(1.96887 -0.172436 0)
(1.95976 -0.177492 0)
(1.94838 -0.18439 0)
(1.93971 -0.188645 0)
(1.92679 -0.195511 0)
(1.91687 -0.201707 0)
(1.90501 -0.207945 0)
(1.89477 -0.212559 0)
(1.8846 -0.217288 0)
(1.87413 -0.218043 0)
(1.86072 -0.214615 0)
(1.84502 -0.207502 0)
(1.83004 -0.19904 0)
(1.80433 -0.171722 0)
(1.76145 -0.118848 0)
(1.67162 -0.0185393 0)
(1.58273 0.074677 0)
(1.50003 0.144184 0)
(1.46026 0.174108 0)
(1.4274 0.189048 0)
(1.42531 0.187662 0)
(1.42179 0.181928 0)
(1.40751 0.182076 0)
(1.39053 0.193213 0)
(1.36747 0.209639 0)
(1.34248 0.23178 0)
(1.31662 0.249827 0)
(1.29048 0.258398 0)
(1.26481 0.259826 0)
(1.23976 0.255207 0)
(1.20818 0.255855 0)
(1.17492 0.257026 0)
(1.14361 0.25287 0)
(1.10998 0.254139 0)
(1.07879 0.250599 0)
(1.05348 0.247379 0)
(1.0335 0.245328 0)
(1.01862 0.238307 0)
(1.00584 0.224461 0)
(0.994581 0.201329 0)
(0.982615 0.17538 0)
(0.966536 0.151542 0)
(0.945949 0.125735 0)
(0.916803 0.0995605 0)
(0.885688 0.066677 0)
(1.97032 0.127086 0)
(1.97738 0.110439 0)
(1.98282 0.0945141 0)
(1.99173 0.0779523 0)
(1.99441 0.0635762 0)
(2.00062 0.0506505 0)
(2.00406 0.0390033 0)
(2.00399 0.028564 0)
(2.00677 0.0190875 0)
(2.00922 0.0105185 0)
(2.00772 0.00346203 0)
(2.00767 -0.00284338 0)
(2.00851 -0.00769977 0)
(2.00755 -0.0124276 0)
(2.00598 -0.0170546 0)
(2.00528 -0.0207831 0)
(2.00489 -0.0234241 0)
(2.00313 -0.0275472 0)
(2.00226 -0.0307222 0)
(2.00235 -0.0331851 0)
(2.00189 -0.0368319 0)
(2.0006 -0.0398361 0)
(2.0012 -0.0426545 0)
(2.0018 -0.0469384 0)
(2.00087 -0.0493814 0)
(2.00159 -0.0532159 0)
(2.00321 -0.0589117 0)
(2.00324 -0.0620142 0)
(2.0043 -0.0665044 0)
(2.00629 -0.0731307 0)
(2.0065 -0.0769239 0)
(2.00684 -0.0814225 0)
(2.00836 -0.0886765 0)
(2.00792 -0.093499 0)
(2.00855 -0.0991282 0)
(2.0078 -0.103983 0)
(2.0055 -0.109339 0)
(2.00383 -0.116545 0)
(2.00247 -0.123335 0)
(1.99802 -0.127448 0)
(1.99219 -0.133875 0)
(1.99019 -0.138099 0)
(1.98197 -0.144589 0)
(1.97562 -0.148928 0)
(1.96723 -0.153108 0)
(1.95454 -0.159985 0)
(1.94489 -0.163594 0)
(1.93151 -0.169083 0)
(1.91958 -0.17451 0)
(1.90815 -0.179755 0)
(1.89717 -0.185038 0)
(1.88788 -0.19064 0)
(1.87898 -0.194046 0)
(1.87144 -0.198406 0)
(1.86284 -0.19792 0)
(1.85018 -0.193437 0)
(1.83532 -0.186187 0)
(1.81993 -0.174481 0)
(1.79128 -0.140815 0)
(1.72898 -0.0645913 0)
(1.64354 0.0336553 0)
(1.5446 0.130668 0)
(1.47973 0.184361 0)
(1.45639 0.199626 0)
(1.44734 0.211625 0)
(1.442 0.215564 0)
(1.43854 0.217757 0)
(1.43376 0.225047 0)
(1.42572 0.234827 0)
(1.41177 0.246429 0)
(1.39634 0.269109 0)
(1.37937 0.298904 0)
(1.3659 0.311543 0)
(1.3557 0.313207 0)
(1.34975 0.309027 0)
(1.33926 0.307658 0)
(1.32123 0.30165 0)
(1.30105 0.295226 0)
(1.28215 0.288544 0)
(1.26614 0.277567 0)
(1.25388 0.265126 0)
(1.24199 0.251385 0)
(1.22735 0.240278 0)
(1.21245 0.22983 0)
(1.19842 0.219147 0)
(1.18266 0.201873 0)
(1.16059 0.180281 0)
(1.1386 0.148839 0)
(2.02923 0.193607 0)
(2.03372 0.184003 0)
(2.03333 0.175239 0)
(2.03711 0.163063 0)
(2.03821 0.150089 0)
(2.0381 0.138948 0)
(2.04002 0.124983 0)
(2.03951 0.111469 0)
(2.03922 0.0987755 0)
(2.03889 0.0856342 0)
(2.03857 0.0710924 0)
(2.03641 0.0602712 0)
(2.03424 0.0497913 0)
(2.03347 0.0370257 0)
(2.03145 0.0263107 0)
(2.02738 0.0210279 0)
(2.02735 0.0117059 0)
(2.02566 0.00242194 0)
(2.02156 -0.000302299 0)
(2.02121 -0.00647629 0)
(2.01985 -0.0131805 0)
(2.01661 -0.015575 0)
(2.01635 -0.0206991 0)
(2.01514 -0.0247816 0)
(2.01304 -0.0263631 0)
(2.01344 -0.0309074 0)
(2.0133 -0.0355535 0)
(2.01174 -0.0374995 0)
(2.01203 -0.0413983 0)
(2.01257 -0.0459553 0)
(2.01235 -0.0505534 0)
(2.01164 -0.0541672 0)
(2.01122 -0.0585818 0)
(2.01145 -0.0654336 0)
(2.01038 -0.0704713 0)
(2.00912 -0.0742879 0)
(2.00734 -0.0795105 0)
(2.00416 -0.0863284 0)
(2.0021 -0.0927435 0)
(1.99759 -0.0964591 0)
(1.99098 -0.101844 0)
(1.98852 -0.106588 0)
(1.98028 -0.111667 0)
(1.97304 -0.117152 0)
(1.96533 -0.120842 0)
(1.95189 -0.127248 0)
(1.94126 -0.13097 0)
(1.92837 -0.135532 0)
(1.91534 -0.140678 0)
(1.90476 -0.146188 0)
(1.89326 -0.151474 0)
(1.88425 -0.157316 0)
(1.87583 -0.161439 0)
(1.86967 -0.165609 0)
(1.86287 -0.167507 0)
(1.85487 -0.17061 0)
(1.84803 -0.169695 0)
(1.83757 -0.165496 0)
(1.82741 -0.15944 0)
(1.80984 -0.141466 0)
(1.77403 -0.0985418 0)
(1.6847 0.00332234 0)
(1.59371 0.10367 0)
(1.52898 0.170955 0)
(1.47355 0.215086 0)
(1.45718 0.238612 0)
(1.45868 0.243236 0)
(1.46673 0.242315 0)
(1.4698 0.244455 0)
(1.46675 0.254859 0)
(1.46432 0.272523 0)
(1.45945 0.285877 0)
(1.45335 0.302228 0)
(1.44861 0.327584 0)
(1.44669 0.345748 0)
(1.45118 0.351098 0)
(1.45687 0.346975 0)
(1.4607 0.340641 0)
(1.46129 0.340741 0)
(1.46021 0.336703 0)
(1.45697 0.325786 0)
(1.44983 0.316802 0)
(1.44001 0.305071 0)
(1.43319 0.278541 0)
(1.4273 0.250871 0)
(1.41855 0.228909 0)
(1.40457 0.20705 0)
(1.38611 0.183424 0)
(2.06126 0.139204 0)
(2.0607 0.141131 0)
(2.05806 0.145827 0)
(2.05577 0.145981 0)
(2.05275 0.144768 0)
(2.05006 0.146487 0)
(2.04731 0.145522 0)
(2.04417 0.143342 0)
(2.04128 0.139724 0)
(2.03807 0.13578 0)
(2.03439 0.130101 0)
(2.03194 0.122812 0)
(2.0291 0.114705 0)
(2.02661 0.105814 0)
(2.02489 0.0951267 0)
(2.0234 0.0837163 0)
(2.02183 0.0741282 0)
(2.02014 0.0638024 0)
(2.01962 0.0508851 0)
(2.01791 0.0422509 0)
(2.01628 0.0347605 0)
(2.01648 0.0240083 0)
(2.01509 0.0172491 0)
(2.01256 0.01292 0)
(2.01345 0.00422015 0)
(2.01348 -0.00314509 0)
(2.01107 -0.00445522 0)
(2.01088 -0.00954315 0)
(2.01212 -0.0182108 0)
(2.01081 -0.0204966 0)
(2.00914 -0.0228185 0)
(2.01024 -0.0296268 0)
(2.00945 -0.0337719 0)
(2.00744 -0.0371299 0)
(2.00623 -0.0425803 0)
(2.00502 -0.0476705 0)
(2.00301 -0.0511713 0)
(1.99923 -0.0559584 0)
(1.99681 -0.0628349 0)
(1.99313 -0.0689873 0)
(1.98712 -0.0734521 0)
(1.98362 -0.0791427 0)
(1.97573 -0.0846977 0)
(1.96839 -0.0910942 0)
(1.96089 -0.0954921 0)
(1.9478 -0.101252 0)
(1.93723 -0.105688 0)
(1.92406 -0.110329 0)
(1.91205 -0.115212 0)
(1.90076 -0.119995 0)
(1.89001 -0.125127 0)
(1.8808 -0.129901 0)
(1.87221 -0.134167 0)
(1.86571 -0.136875 0)
(1.85956 -0.140108 0)
(1.85413 -0.145313 0)
(1.84882 -0.146488 0)
(1.8439 -0.148024 0)
(1.83668 -0.14461 0)
(1.82785 -0.140381 0)
(1.81765 -0.13238 0)
(1.79351 -0.103432 0)
(1.73842 -0.0375749 0)
(1.65136 0.0670188 0)
(1.5463 0.175735 0)
(1.50898 0.219771 0)
(1.48617 0.237712 0)
(1.48184 0.255958 0)
(1.47981 0.270025 0)
(1.4885 0.273823 0)
(1.49778 0.275741 0)
(1.50592 0.281377 0)
(1.5087 0.291045 0)
(1.51158 0.307721 0)
(1.51383 0.324906 0)
(1.51969 0.343573 0)
(1.52761 0.360981 0)
(1.53855 0.37116 0)
(1.5537 0.37456 0)
(1.57384 0.366224 0)
(1.5905 0.353742 0)
(1.60312 0.337977 0)
(1.61092 0.326309 0)
(1.61625 0.312598 0)
(1.61688 0.30205 0)
(1.61461 0.291213 0)
(1.60472 0.286525 0)
(1.59248 0.267636 0)
(2.08168 0.0606721 0)
(2.07995 0.0688544 0)
(2.0751 0.0832289 0)
(2.07118 0.0942222 0)
(2.06964 0.0936301 0)
(2.06361 0.102253 0)
(2.05912 0.109893 0)
(2.05689 0.109552 0)
(2.04915 0.114419 0)
(2.04462 0.116675 0)
(2.03972 0.11868 0)
(2.03393 0.120923 0)
(2.02851 0.122368 0)
(2.02378 0.122874 0)
(2.01934 0.122031 0)
(2.01472 0.120089 0)
(2.01203 0.116341 0)
(2.00913 0.112023 0)
(2.00667 0.105891 0)
(2.00503 0.098159 0)
(2.00446 0.0883483 0)
(2.0038 0.0792361 0)
(2.00303 0.0695687 0)
(2.0033 0.0575212 0)
(2.00332 0.0474776 0)
(2.00276 0.0401676 0)
(2.0035 0.0309988 0)
(2.005 0.0205817 0)
(2.0042 0.0152959 0)
(2.00238 0.0113961 0)
(2.00418 0.00280773 0)
(2.00482 -0.00586517 0)
(2.00276 -0.00814635 0)
(2.00058 -0.0108658 0)
(2.00083 -0.0179551 0)
(1.99986 -0.0254931 0)
(1.99756 -0.0305388 0)
(1.99456 -0.0334412 0)
(1.99028 -0.0373428 0)
(1.98757 -0.0442361 0)
(1.98325 -0.0502479 0)
(1.97639 -0.0533813 0)
(1.97003 -0.0582991 0)
(1.96182 -0.0639921 0)
(1.95286 -0.0678158 0)
(1.94178 -0.0716569 0)
(1.93059 -0.0761696 0)
(1.91757 -0.0806624 0)
(1.90413 -0.0841195 0)
(1.89225 -0.0879327 0)
(1.88182 -0.0922063 0)
(1.87282 -0.0965195 0)
(1.86508 -0.101381 0)
(1.85776 -0.104889 0)
(1.85232 -0.109277 0)
(1.84678 -0.112052 0)
(1.84241 -0.115449 0)
(1.83929 -0.118308 0)
(1.83656 -0.121684 0)
(1.83225 -0.122604 0)
(1.8266 -0.118282 0)
(1.81903 -0.113649 0)
(1.80574 -0.0985833 0)
(1.77173 -0.0575767 0)
(1.688 0.0415107 0)
(1.6176 0.13063 0)
(1.54098 0.211501 0)
(1.49577 0.264103 0)
(1.49403 0.271167 0)
(1.5047 0.282614 0)
(1.51198 0.288403 0)
(1.52228 0.294177 0)
(1.53352 0.299063 0)
(1.54388 0.302992 0)
(1.55444 0.30998 0)
(1.56565 0.319424 0)
(1.57525 0.330628 0)
(1.58687 0.34489 0)
(1.60147 0.360481 0)
(1.61975 0.371784 0)
(1.63987 0.375397 0)
(1.6611 0.371871 0)
(1.68279 0.365035 0)
(1.70645 0.351499 0)
(1.72687 0.333116 0)
(1.74161 0.31463 0)
(1.74803 0.301148 0)
(1.75239 0.279896 0)
(2.11481 -0.1113 0)
(2.10888 -0.088708 0)
(2.10248 -0.0641906 0)
(2.09692 -0.0411372 0)
(2.09005 -0.0181746 0)
(2.082 0.00319094 0)
(2.07672 0.0205331 0)
(2.06883 0.0426003 0)
(2.0604 0.0607166 0)
(2.05838 0.0648665 0)
(2.04733 0.0827107 0)
(2.03982 0.0959827 0)
(2.03774 0.09404 0)
(2.02886 0.102526 0)
(2.02211 0.112772 0)
(2.01784 0.111546 0)
(2.01308 0.112138 0)
(2.00787 0.11497 0)
(2.0035 0.116085 0)
(1.99978 0.11527 0)
(1.99521 0.113376 0)
(1.99353 0.111328 0)
(1.99184 0.108604 0)
(1.99034 0.104246 0)
(1.98947 0.0974982 0)
(1.98944 0.0888733 0)
(1.99032 0.0795454 0)
(1.99104 0.0703569 0)
(1.99142 0.0605383 0)
(1.99285 0.0487873 0)
(1.99344 0.04055 0)
(1.99242 0.0347613 0)
(1.99309 0.0256485 0)
(1.99463 0.013705 0)
(1.99263 0.00980336 0)
(1.98832 0.00748315 0)
(1.98873 -0.000898841 0)
(1.98814 -0.0106963 0)
(1.9846 -0.0153149 0)
(1.97901 -0.016795 0)
(1.9733 -0.0223672 0)
(1.97139 -0.0290588 0)
(1.96412 -0.0350545 0)
(1.95448 -0.0387227 0)
(1.94641 -0.0421291 0)
(1.93652 -0.0449956 0)
(1.92321 -0.049138 0)
(1.91123 -0.0527132 0)
(1.89929 -0.0570721 0)
(1.88737 -0.0620929 0)
(1.87695 -0.0666424 0)
(1.86778 -0.0703504 0)
(1.85986 -0.073035 0)
(1.85265 -0.0768651 0)
(1.84801 -0.0824421 0)
(1.84388 -0.0878178 0)
(1.83959 -0.0916085 0)
(1.83608 -0.093459 0)
(1.83375 -0.0971255 0)
(1.83086 -0.0968578 0)
(1.83022 -0.0998686 0)
(1.82317 -0.0970929 0)
(1.81939 -0.094589 0)
(1.81171 -0.0864858 0)
(1.79119 -0.0592943 0)
(1.74717 -0.00243697 0)
(1.65454 0.107072 0)
(1.57759 0.20056 0)
(1.54955 0.240029 0)
(1.52409 0.275839 0)
(1.51869 0.298116 0)
(1.52918 0.30641 0)
(1.54138 0.309177 0)
(1.55706 0.310711 0)
(1.57127 0.312975 0)
(1.58641 0.319067 0)
(1.60204 0.322504 0)
(1.61771 0.325072 0)
(1.63375 0.331927 0)
(1.64981 0.334486 0)
(1.66681 0.342414 0)
(1.68514 0.350948 0)
(1.7059 0.356169 0)
(1.72951 0.355737 0)
(1.75255 0.352237 0)
(1.77391 0.346119 0)
(1.79374 0.33549 0)
(1.81278 0.317538 0)
(2.13228 -0.217529 0)
(2.13016 -0.21628 0)
(2.12721 -0.209974 0)
(2.12379 -0.200523 0)
(2.11958 -0.190054 0)
(2.11382 -0.174985 0)
(2.10742 -0.154483 0)
(2.10094 -0.132111 0)
(2.09358 -0.108429 0)
(2.08439 -0.0794527 0)
(2.07507 -0.0529855 0)
(2.06785 -0.030439 0)
(2.05647 0.000323665 0)
(2.04571 0.0261453 0)
(2.04359 0.0351925 0)
(2.03001 0.0616532 0)
(2.0202 0.083718 0)
(2.01865 0.0816805 0)
(2.01027 0.09235 0)
(2.00275 0.10812 0)
(1.99755 0.107693 0)
(1.99509 0.10625 0)
(1.99103 0.108892 0)
(1.98764 0.110576 0)
(1.98449 0.110173 0)
(1.98184 0.10797 0)
(1.98083 0.105379 0)
(1.9804 0.103094 0)
(1.98014 0.099901 0)
(1.98039 0.094353 0)
(1.98069 0.0872085 0)
(1.98165 0.0774439 0)
(1.98202 0.0683993 0)
(1.98164 0.0604687 0)
(1.98083 0.051456 0)
(1.9816 0.0389872 0)
(1.9803 0.0302643 0)
(1.9754 0.026948 0)
(1.97541 0.017362 0)
(1.9738 0.00701786 0)
(1.96891 0.00305295 0)
(1.96349 -0.0024115 0)
(1.95648 -0.00635882 0)
(1.94733 -0.0120321 0)
(1.94117 -0.017566 0)
(1.93203 -0.0210261 0)
(1.91824 -0.0233806 0)
(1.90511 -0.0260516 0)
(1.89342 -0.0296169 0)
(1.88214 -0.0349417 0)
(1.8703 -0.038771 0)
(1.8602 -0.0418762 0)
(1.85273 -0.0446909 0)
(1.84586 -0.046992 0)
(1.83937 -0.0505155 0)
(1.83519 -0.0562803 0)
(1.83168 -0.0607321 0)
(1.8294 -0.0651917 0)
(1.82761 -0.0686675 0)
(1.82633 -0.0714206 0)
(1.82518 -0.0726554 0)
(1.82366 -0.0740753 0)
(1.82037 -0.0743329 0)
(1.8171 -0.0715633 0)
(1.81336 -0.0693284 0)
(1.80465 -0.0570448 0)
(1.77328 -0.0170038 0)
(1.71538 0.0581968 0)
(1.6433 0.15447 0)
(1.56794 0.253719 0)
(1.55333 0.274374 0)
(1.5543 0.293365 0)
(1.55379 0.305675 0)
(1.56329 0.319781 0)
(1.57524 0.324941 0)
(1.59168 0.327175 0)
(1.61017 0.325848 0)
(1.62721 0.327694 0)
(1.64839 0.325728 0)
(1.66658 0.326794 0)
(1.68563 0.325435 0)
(1.70429 0.323995 0)
(1.72114 0.325936 0)
(1.74056 0.32372 0)
(1.75892 0.32445 0)
(1.77834 0.324325 0)
(1.79705 0.323414 0)
(1.81613 0.317492 0)
(2.12729 -0.21868 0)
(2.12729 -0.224624 0)
(2.1265 -0.226104 0)
(2.12609 -0.228349 0)
(2.12557 -0.231527 0)
(2.12456 -0.234028 0)
(2.12214 -0.234417 0)
(2.11939 -0.23283 0)
(2.11635 -0.230091 0)
(2.11253 -0.224462 0)
(2.10731 -0.214258 0)
(2.10094 -0.199238 0)
(2.09356 -0.18109 0)
(2.0851 -0.157317 0)
(2.07558 -0.127483 0)
(2.06556 -0.0979594 0)
(2.05709 -0.0704677 0)
(2.04471 -0.0345082 0)
(2.03223 -0.00118716 0)
(2.02815 0.0151221 0)
(2.01867 0.0395138 0)
(2.00442 0.0737927 0)
(2.00076 0.0764916 0)
(1.99899 0.0819299 0)
(1.9885 0.0992126 0)
(1.98427 0.105904 0)
(1.98126 0.102401 0)
(1.97914 0.103894 0)
(1.97786 0.104742 0)
(1.97606 0.104719 0)
(1.97361 0.103454 0)
(1.97217 0.100736 0)
(1.97142 0.0976326 0)
(1.97082 0.0941021 0)
(1.97008 0.0892676 0)
(1.96912 0.082426 0)
(1.96795 0.0743424 0)
(1.96694 0.0649566 0)
(1.96539 0.0567404 0)
(1.96375 0.0474564 0)
(1.95988 0.0402644 0)
(1.95633 0.0319754 0)
(1.95177 0.0233814 0)
(1.94433 0.0169846 0)
(1.93341 0.0129925 0)
(1.92429 0.00829275 0)
(1.91508 0.00286353 0)
(1.90262 -0.00321826 0)
(1.88844 -0.00482376 0)
(1.8756 -0.00665316 0)
(1.86549 -0.0108702 0)
(1.8565 -0.0162123 0)
(1.84884 -0.0216628 0)
(1.84337 -0.0259859 0)
(1.8379 -0.0287897 0)
(1.83224 -0.0307152 0)
(1.82747 -0.0340062 0)
(1.82532 -0.0385605 0)
(1.82469 -0.0432904 0)
(1.82392 -0.0473766 0)
(1.82323 -0.0504546 0)
(1.8231 -0.0548738 0)
(1.82258 -0.0566637 0)
(1.82176 -0.0564545 0)
(1.81728 -0.0530109 0)
(1.81548 -0.0512103 0)
(1.81113 -0.0453697 0)
(1.79838 -0.0251961 0)
(1.76147 0.0250892 0)
(1.69022 0.119837 0)
(1.64621 0.188518 0)
(1.58501 0.271533 0)
(1.56775 0.30346 0)
(1.58042 0.310352 0)
(1.58931 0.317587 0)
(1.59955 0.326765 0)
(1.6116 0.333493 0)
(1.6287 0.335021 0)
(1.64855 0.333062 0)
(1.66712 0.330702 0)
(1.68919 0.325232 0)
(1.70774 0.323482 0)
(1.72654 0.320434 0)
(1.74828 0.312006 0)
(1.76537 0.307478 0)
(1.78355 0.302531 0)
(1.7988 0.298292 0)
(1.81488 0.290208 0)
(2.1212 -0.20986 0)
(2.12292 -0.218652 0)
(2.12208 -0.2228 0)
(2.12196 -0.22398 0)
(2.12342 -0.229244 0)
(2.12153 -0.233581 0)
(2.11925 -0.234071 0)
(2.11806 -0.23649 0)
(2.11767 -0.239667 0)
(2.11542 -0.242057 0)
(2.11263 -0.243104 0)
(2.1109 -0.244334 0)
(2.10818 -0.244624 0)
(2.10472 -0.243826 0)
(2.10095 -0.240749 0)
(2.09618 -0.233934 0)
(2.0906 -0.22284 0)
(2.08405 -0.207826 0)
(2.07604 -0.186071 0)
(2.06686 -0.157227 0)
(2.05642 -0.125627 0)
(2.04704 -0.0954711 0)
(2.03591 -0.0600356 0)
(2.02132 -0.0184031 0)
(2.01475 0.00312678 0)
(2.01122 0.0212769 0)
(1.9943 0.0567992 0)
(1.98789 0.0715731 0)
(1.99019 0.0702968 0)
(1.98213 0.082087 0)
(1.97776 0.0952205 0)
(1.97315 0.094794 0)
(1.97196 0.0908088 0)
(1.97064 0.0921942 0)
(1.96765 0.0934062 0)
(1.96488 0.0931134 0)
(1.96154 0.0913902 0)
(1.95895 0.0887509 0)
(1.95665 0.0854758 0)
(1.95443 0.0820855 0)
(1.95092 0.0776757 0)
(1.94753 0.0708318 0)
(1.94292 0.0640511 0)
(1.93561 0.0578411 0)
(1.929 0.0492276 0)
(1.91941 0.0421507 0)
(1.90751 0.0369683 0)
(1.89562 0.03141 0)
(1.88496 0.0236551 0)
(1.87279 0.0190484 0)
(1.86037 0.0180768 0)
(1.8495 0.0146389 0)
(1.8427 0.00772052 0)
(1.83774 0.000244186 0)
(1.83354 -0.00527745 0)
(1.82896 -0.00845545 0)
(1.8245 -0.00982034 0)
(1.81969 -0.0103095 0)
(1.81586 -0.0132027 0)
(1.8151 -0.0181673 0)
(1.81653 -0.0234018 0)
(1.81773 -0.0283641 0)
(1.81895 -0.0334184 0)
(1.82053 -0.0378481 0)
(1.82107 -0.0381413 0)
(1.81936 -0.0368395 0)
(1.81675 -0.0324881 0)
(1.81538 -0.0308009 0)
(1.81045 -0.0227523 0)
(1.79189 0.00561912 0)
(1.75482 0.0626954 0)
(1.68475 0.159261 0)
(1.64811 0.22214 0)
(1.62233 0.271034 0)
(1.60231 0.317123 0)
(1.60634 0.32477 0)
(1.62298 0.327342 0)
(1.63613 0.330601 0)
(1.64964 0.334723 0)
(1.66536 0.337336 0)
(1.68434 0.335414 0)
(1.70315 0.330538 0)
(1.72261 0.324372 0)
(1.74335 0.315109 0)
(1.75991 0.310024 0)
(1.7808 0.300744 0)
(1.7973 0.292561 0)
(1.81185 0.285686 0)
(2.11167 -0.187025 0)
(2.11335 -0.19434 0)
(2.11404 -0.203171 0)
(2.11423 -0.205965 0)
(2.11391 -0.208349 0)
(2.11475 -0.215738 0)
(2.1138 -0.223024 0)
(2.11265 -0.223912 0)
(2.11249 -0.228034 0)
(2.11154 -0.233804 0)
(2.10894 -0.235812 0)
(2.10862 -0.240156 0)
(2.10617 -0.242426 0)
(2.10339 -0.244364 0)
(2.1022 -0.246391 0)
(2.09953 -0.247498 0)
(2.0975 -0.248447 0)
(2.09525 -0.249457 0)
(2.09282 -0.249068 0)
(2.08973 -0.246613 0)
(2.08585 -0.24174 0)
(2.08069 -0.233171 0)
(2.07423 -0.218894 0)
(2.06651 -0.199124 0)
(2.05721 -0.17239 0)
(2.04689 -0.140247 0)
(2.03658 -0.107395 0)
(2.02793 -0.0764759 0)
(2.01403 -0.035042 0)
(2.00361 -0.0036531 0)
(2.00047 0.0128314 0)
(1.9921 0.0351553 0)
(1.97918 0.0659025 0)
(1.97463 0.0716642 0)
(1.97604 0.0703557 0)
(1.96761 0.0803594 0)
(1.96324 0.090095 0)
(1.95778 0.0886281 0)
(1.95485 0.0855934 0)
(1.95248 0.0861923 0)
(1.94841 0.0858223 0)
(1.9428 0.084375 0)
(1.93651 0.083777 0)
(1.92939 0.0826905 0)
(1.92223 0.0798962 0)
(1.91285 0.0783981 0)
(1.90125 0.0760084 0)
(1.88918 0.0717873 0)
(1.87723 0.065526 0)
(1.86472 0.0583067 0)
(1.85531 0.0487187 0)
(1.84633 0.0419527 0)
(1.83581 0.038087 0)
(1.82767 0.0322608 0)
(1.82467 0.0241911 0)
(1.82308 0.0168182 0)
(1.82067 0.0110966 0)
(1.81798 0.00745674 0)
(1.81491 0.00563433 0)
(1.81131 0.00470173 0)
(1.80796 0.00341293 0)
(1.80894 -0.00175672 0)
(1.81204 -0.00802625 0)
(1.81461 -0.0116044 0)
(1.818 -0.0170953 0)
(1.82118 -0.0239998 0)
(1.82239 -0.0246955 0)
(1.82081 -0.0219297 0)
(1.81913 -0.0163601 0)
(1.81809 -0.0139638 0)
(1.81287 -0.00305216 0)
(1.79152 0.0303565 0)
(1.75209 0.0938036 0)
(1.70271 0.173377 0)
(1.65988 0.24977 0)
(1.65567 0.275322 0)
(1.64279 0.309679 0)
(1.64428 0.331013 0)
(1.65356 0.332356 0)
(1.67064 0.332659 0)
(1.68557 0.333754 0)
(1.70051 0.335473 0)
(1.71699 0.333633 0)
(1.73498 0.327171 0)
(1.75148 0.31972 0)
(1.77052 0.309834 0)
(1.78603 0.300812 0)
(1.80136 0.291122 0)
(2.1063 -0.17303 0)
(2.10828 -0.179474 0)
(2.10939 -0.187372 0)
(2.10929 -0.19237 0)
(2.1092 -0.194328 0)
(2.10916 -0.198741 0)
(2.10941 -0.206639 0)
(2.10806 -0.210509 0)
(2.10695 -0.212708 0)
(2.10707 -0.219504 0)
(2.10487 -0.222569 0)
(2.10341 -0.225349 0)
(2.10222 -0.229938 0)
(2.09992 -0.233061 0)
(2.09878 -0.238114 0)
(2.09674 -0.239375 0)
(2.0944 -0.240923 0)
(2.0934 -0.24425 0)
(2.09135 -0.246166 0)
(2.08894 -0.247284 0)
(2.08775 -0.248308 0)
(2.08606 -0.249532 0)
(2.08398 -0.250155 0)
(2.08162 -0.249299 0)
(2.07871 -0.24777 0)
(2.07513 -0.243824 0)
(2.07057 -0.235553 0)
(2.06489 -0.222479 0)
(2.05757 -0.205011 0)
(2.04849 -0.180214 0)
(2.03854 -0.149498 0)
(2.02738 -0.115871 0)
(2.01829 -0.0867715 0)
(2.00736 -0.0543167 0)
(1.99352 -0.0153479 0)
(1.98564 0.00523316 0)
(1.9817 0.0196141 0)
(1.97339 0.0381837 0)
(1.96122 0.0632443 0)
(1.95645 0.0663846 0)
(1.9562 0.0661157 0)
(1.9459 0.0759016 0)
(1.93862 0.0845111 0)
(1.9321 0.0828459 0)
(1.92397 0.0849977 0)
(1.91265 0.0893662 0)
(1.90004 0.092407 0)
(1.8855 0.0935358 0)
(1.86935 0.0944078 0)
(1.85405 0.0927022 0)
(1.84303 0.0889969 0)
(1.83601 0.0829259 0)
(1.82767 0.072294 0)
(1.82053 0.0625359 0)
(1.81389 0.058013 0)
(1.80895 0.0517949 0)
(1.80971 0.0416161 0)
(1.8109 0.0323654 0)
(1.81022 0.0262713 0)
(1.80858 0.0216848 0)
(1.80657 0.0200462 0)
(1.80441 0.0199043 0)
(1.80323 0.0170987 0)
(1.80413 0.0138388 0)
(1.80897 0.00776447 0)
(1.81404 0.00108161 0)
(1.81883 -0.00387544 0)
(1.82351 -0.0118005 0)
(1.82484 -0.0124701 0)
(1.82495 -0.00855326 0)
(1.82442 -0.00331256 0)
(1.82329 0.000419884 0)
(1.81755 0.0134161 0)
(1.7995 0.0464291 0)
(1.75916 0.112639 0)
(1.72853 0.178882 0)
(1.68701 0.252523 0)
(1.68585 0.279073 0)
(1.68132 0.30086 0)
(1.68138 0.325522 0)
(1.69019 0.330707 0)
(1.70452 0.330529 0)
(1.71828 0.328513 0)
(1.73172 0.329133 0)
(1.74592 0.327824 0)
(1.7608 0.323245 0)
(1.77583 0.315127 0)
(1.78861 0.306673 0)
(2.09843 -0.154559 0)
(2.10133 -0.161763 0)
(2.10144 -0.166993 0)
(2.1014 -0.1711 0)
(2.10171 -0.174838 0)
(2.10128 -0.178089 0)
(2.10205 -0.184825 0)
(2.101 -0.189231 0)
(2.09938 -0.191385 0)
(2.09986 -0.197301 0)
(2.09845 -0.201977 0)
(2.09659 -0.204596 0)
(2.0963 -0.210001 0)
(2.09424 -0.213489 0)
(2.09343 -0.218783 0)
(2.09226 -0.223909 0)
(2.09026 -0.225245 0)
(2.08968 -0.229795 0)
(2.08837 -0.235771 0)
(2.08654 -0.236496 0)
(2.0857 -0.238731 0)
(2.08415 -0.243001 0)
(2.08242 -0.243539 0)
(2.07997 -0.243657 0)
(2.07842 -0.245043 0)
(2.07643 -0.246091 0)
(2.07415 -0.246342 0)
(2.07225 -0.246119 0)
(2.06989 -0.24611 0)
(2.06712 -0.245065 0)
(2.06368 -0.241687 0)
(2.05911 -0.234929 0)
(2.05289 -0.224166 0)
(2.04508 -0.207776 0)
(2.03632 -0.186311 0)
(2.02624 -0.159103 0)
(2.01517 -0.127027 0)
(2.00382 -0.0938283 0)
(1.99598 -0.0689821 0)
(1.98272 -0.0347018 0)
(1.97207 -0.00582621 0)
(1.96082 0.0195183 0)
(1.95945 0.0250391 0)
(1.94617 0.0454486 0)
(1.9329 0.0717058 0)
(1.9235 0.0711368 0)
(1.91805 0.0720535 0)
(1.89634 0.0859977 0)
(1.8768 0.10053 0)
(1.85915 0.104835 0)
(1.84261 0.103235 0)
(1.82702 0.107447 0)
(1.81341 0.106285 0)
(1.80895 0.102122 0)
(1.80387 0.092503 0)
(1.80064 0.0802437 0)
(1.79772 0.0738328 0)
(1.79476 0.0677631 0)
(1.79652 0.0575707 0)
(1.8006 0.0463086 0)
(1.80194 0.0387254 0)
(1.80204 0.0346145 0)
(1.80186 0.0306919 0)
(1.80173 0.0296468 0)
(1.80215 0.0285907 0)
(1.8051 0.0230746 0)
(1.80925 0.0188406 0)
(1.81459 0.0137185 0)
(1.8212 0.00670652 0)
(1.8273 -0.00122874 0)
(1.82987 -0.0019799 0)
(1.83022 0.00128466 0)
(1.83168 0.00570988 0)
(1.83133 0.0111381 0)
(1.82659 0.023619 0)
(1.81165 0.0556887 0)
(1.78089 0.111709 0)
(1.7522 0.175939 0)
(1.72493 0.234978 0)
(1.71171 0.279378 0)
(1.71909 0.290455 0)
(1.71759 0.312805 0)
(1.72478 0.32265 0)
(1.73347 0.32314 0)
(1.74705 0.322392 0)
(1.75983 0.32069 0)
(1.77174 0.319333 0)
(1.78206 0.316422 0)
(2.09241 -0.141001 0)
(2.09574 -0.148283 0)
(2.09605 -0.155053 0)
(2.09558 -0.156621 0)
(2.09707 -0.161515 0)
(2.09719 -0.16639 0)
(2.09768 -0.172404 0)
(2.09694 -0.176057 0)
(2.09515 -0.178166 0)
(2.09551 -0.183877 0)
(2.09405 -0.187797 0)
(2.09237 -0.190157 0)
(2.09167 -0.194631 0)
(2.08973 -0.197468 0)
(2.08831 -0.201132 0)
(2.08714 -0.205941 0)
(2.08542 -0.20779 0)
(2.08391 -0.210201 0)
(2.08343 -0.216111 0)
(2.08189 -0.219554 0)
(2.08015 -0.220733 0)
(2.08008 -0.225862 0)
(2.07885 -0.230812 0)
(2.07686 -0.231546 0)
(2.07624 -0.235262 0)
(2.07481 -0.240152 0)
(2.0728 -0.240912 0)
(2.0709 -0.242851 0)
(2.07021 -0.244979 0)
(2.06798 -0.24636 0)
(2.06588 -0.246365 0)
(2.06377 -0.246247 0)
(2.0609 -0.246702 0)
(2.05795 -0.246675 0)
(2.05446 -0.244892 0)
(2.05019 -0.242003 0)
(2.04472 -0.236298 0)
(2.03819 -0.226433 0)
(2.03032 -0.211487 0)
(2.0213 -0.19219 0)
(2.01129 -0.167806 0)
(2.00027 -0.139702 0)
(1.98755 -0.104276 0)
(1.97642 -0.0765244 0)
(1.96299 -0.0436915 0)
(1.95463 -0.0204985 0)
(1.93223 0.0235172 0)
(1.91526 0.0506953 0)
(1.91126 0.0516751 0)
(1.8831 0.076571 0)
(1.85284 0.112135 0)
(1.83085 0.11812 0)
(1.81764 0.11344 0)
(1.80426 0.117997 0)
(1.79137 0.117028 0)
(1.78834 0.114435 0)
(1.78556 0.107034 0)
(1.78454 0.0960718 0)
(1.78461 0.0859959 0)
(1.78384 0.0800028 0)
(1.78607 0.070632 0)
(1.79205 0.0592584 0)
(1.7968 0.0491363 0)
(1.79865 0.0433816 0)
(1.79987 0.0406181 0)
(1.80168 0.0371517 0)
(1.80401 0.0355268 0)
(1.8073 0.0330265 0)
(1.813 0.026112 0)
(1.81788 0.0218416 0)
(1.82343 0.0177951 0)
(1.83153 0.00940536 0)
(1.83502 0.00541116 0)
(1.83859 0.00902855 0)
(1.83957 0.0125418 0)
(1.84232 0.0175013 0)
(1.8388 0.0277159 0)
(1.82713 0.0545946 0)
(1.8074 0.0985597 0)
(1.78016 0.158891 0)
(1.76368 0.210299 0)
(1.74561 0.260481 0)
(1.7547 0.274328 0)
(1.74789 0.297435 0)
(1.75263 0.310585 0)
(1.76207 0.310682 0)
(1.77388 0.311222 0)
(1.78252 0.309935 0)
(2.08664 -0.12707 0)
(2.08841 -0.132042 0)
(2.08944 -0.139724 0)
(2.08937 -0.141923 0)
(2.0895 -0.143768 0)
(2.09076 -0.149477 0)
(2.09044 -0.155001 0)
(2.08939 -0.156888 0)
(2.08817 -0.159314 0)
(2.08874 -0.165449 0)
(2.08723 -0.16985 0)
(2.08507 -0.171203 0)
(2.08524 -0.176018 0)
(2.08358 -0.179773 0)
(2.08125 -0.181821 0)
(2.08116 -0.186967 0)
(2.07976 -0.189931 0)
(2.07835 -0.192092 0)
(2.07845 -0.197424 0)
(2.07703 -0.200941 0)
(2.07542 -0.202464 0)
(2.07545 -0.207153 0)
(2.07422 -0.211479 0)
(2.07252 -0.21302 0)
(2.07152 -0.216124 0)
(2.07058 -0.220958 0)
(2.06898 -0.224226 0)
(2.06714 -0.225351 0)
(2.06632 -0.228726 0)
(2.06487 -0.232484 0)
(2.06313 -0.233641 0)
(2.06006 -0.23532 0)
(2.05865 -0.237579 0)
(2.05508 -0.238845 0)
(2.05212 -0.240176 0)
(2.0493 -0.240582 0)
(2.04598 -0.241484 0)
(2.04254 -0.241983 0)
(2.03909 -0.241991 0)
(2.03531 -0.241746 0)
(2.03118 -0.240114 0)
(2.02611 -0.235461 0)
(2.02008 -0.227575 0)
(2.01242 -0.214714 0)
(2.00289 -0.195759 0)
(1.99211 -0.170522 0)
(1.97936 -0.14225 0)
(1.96189 -0.10208 0)
(1.9466 -0.0639894 0)
(1.91475 -0.00687157 0)
(1.89743 0.0190822 0)
(1.88144 0.0437414 0)
(1.83421 0.10128 0)
(1.80883 0.125858 0)
(1.79555 0.120524 0)
(1.78707 0.12089 0)
(1.77652 0.121476 0)
(1.7739 0.120524 0)
(1.77218 0.115418 0)
(1.773 0.106071 0)
(1.77566 0.0941498 0)
(1.77778 0.0866879 0)
(1.77897 0.0803569 0)
(1.78381 0.070179 0)
(1.79128 0.0598877 0)
(1.79749 0.0505815 0)
(1.80094 0.0460836 0)
(1.80418 0.0446887 0)
(1.80861 0.0403521 0)
(1.81329 0.0365353 0)
(1.81858 0.0332359 0)
(1.82504 0.0264502 0)
(1.82924 0.0239796 0)
(1.8356 0.0206646 0)
(1.84173 0.0142218 0)
(1.84532 0.0126862 0)
(1.85021 0.0161573 0)
(1.85283 0.0209862 0)
(1.85145 0.0275797 0)
(1.84539 0.0455492 0)
(1.83324 0.079511 0)
(1.81471 0.126862 0)
(1.79983 0.176971 0)
(1.78431 0.223543 0)
(1.7826 0.249886 0)
(1.78181 0.268834 0)
(1.77958 0.295141 0)
(1.7854 0.294855 0)
(2.08016 -0.113216 0)
(2.08193 -0.118161 0)
(2.08399 -0.125768 0)
(2.08439 -0.129923 0)
(2.08438 -0.131245 0)
(2.08533 -0.135965 0)
(2.08583 -0.142628 0)
(2.08504 -0.145693 0)
(2.08441 -0.147495 0)
(2.085 -0.152873 0)
(2.08374 -0.158956 0)
(2.08164 -0.160219 0)
(2.08144 -0.163596 0)
(2.08054 -0.16879 0)
(2.07824 -0.170594 0)
(2.07774 -0.174488 0)
(2.07663 -0.178105 0)
(2.07509 -0.179578 0)
(2.07494 -0.183743 0)
(2.07346 -0.187126 0)
(2.07162 -0.187838 0)
(2.07152 -0.191668 0)
(2.07017 -0.195688 0)
(2.068 -0.196392 0)
(2.06783 -0.200313 0)
(2.06648 -0.204093 0)
(2.06445 -0.206091 0)
(2.0637 -0.209874 0)
(2.06229 -0.211943 0)
(2.06132 -0.215596 0)
(2.06007 -0.220237 0)
(2.05734 -0.221889 0)
(2.05601 -0.225801 0)
(2.05364 -0.230132 0)
(2.04988 -0.23249 0)
(2.04851 -0.236053 0)
(2.04537 -0.238315 0)
(2.04148 -0.240355 0)
(2.03961 -0.24196 0)
(2.03654 -0.243113 0)
(2.03293 -0.243059 0)
(2.02972 -0.243439 0)
(2.02642 -0.243445 0)
(2.02276 -0.2431 0)
(2.01857 -0.241879 0)
(2.01381 -0.239321 0)
(2.0078 -0.234058 0)
(1.99994 -0.224068 0)
(1.98978 -0.20824 0)
(1.97392 -0.180781 0)
(1.95381 -0.14011 0)
(1.92892 -0.0922329 0)
(1.88898 -0.0211302 0)
(1.87311 0.00860007 0)
(1.83326 0.062471 0)
(1.79582 0.12596 0)
(1.7757 0.126859 0)
(1.7736 0.121386 0)
(1.76688 0.12072 0)
(1.76487 0.120446 0)
(1.76418 0.118416 0)
(1.76627 0.111376 0)
(1.77046 0.0997425 0)
(1.77538 0.0881206 0)
(1.77907 0.0835212 0)
(1.7822 0.077805 0)
(1.78941 0.0677628 0)
(1.79777 0.0587941 0)
(1.80518 0.0502812 0)
(1.80985 0.0466724 0)
(1.81419 0.0457707 0)
(1.81998 0.0409395 0)
(1.82571 0.0364061 0)
(1.83134 0.0337608 0)
(1.83772 0.0275884 0)
(1.84262 0.024562 0)
(1.84811 0.0230322 0)
(1.85273 0.0184454 0)
(1.85781 0.018897 0)
(1.8625 0.0204209 0)
(1.86578 0.0249443 0)
(1.86383 0.0349875 0)
(1.8573 0.056568 0)
(1.84653 0.0898801 0)
(1.83342 0.132017 0)
(1.82149 0.173515 0)
(1.81492 0.207586 0)
(1.80775 0.238498 0)
(2.0741 -0.0997839 0)
(2.07724 -0.106582 0)
(2.07833 -0.112158 0)
(2.07873 -0.11501 0)
(2.07871 -0.1165 0)
(2.07901 -0.120254 0)
(2.07977 -0.126397 0)
(2.0792 -0.130479 0)
(2.07871 -0.131534 0)
(2.07812 -0.134667 0)
(2.07724 -0.140604 0)
(2.07536 -0.143288 0)
(2.07404 -0.14513 0)
(2.07407 -0.150337 0)
(2.07229 -0.153359 0)
(2.07068 -0.155633 0)
(2.07057 -0.160529 0)
(2.06914 -0.162513 0)
(2.06827 -0.165279 0)
(2.0678 -0.170081 0)
(2.06629 -0.171594 0)
(2.06559 -0.174097 0)
(2.06508 -0.179054 0)
(2.06329 -0.180388 0)
(2.06256 -0.18301 0)
(2.06188 -0.187565 0)
(2.05974 -0.189052 0)
(2.05911 -0.192456 0)