0.05 	0.0005 	0.005 	-4.98212e-05 	1.02939e-08 	0
0.05 	0.0015 	0.005 	-0.000141287 	7.17192e-08 	0
0.05 	0.0025 	0.005 	-0.000225123 	2.05784e-07 	0
0.05 	0.0035 	0.005 	-0.0003018 	3.97938e-07 	0
0.05 	0.0045 	0.005 	-0.000371748 	6.40712e-07 	0
0.05 	0.0055 	0.005 	-0.000435387 	9.29211e-07 	0
0.05 	0.0065 	0.005 	-0.000493132 	1.25845e-06 	0
0.05 	0.0075 	0.005 	-0.000545408 	1.62373e-06 	0
0.05 	0.0085 	0.005 	-0.000592649 	2.02088e-06 	0
0.05 	0.0095 	0.005 	-0.000635302 	2.44618e-06 	0
0.05 	0.0105 	0.005 	-0.000673825 	2.89637e-06 	0
0.05 	0.0115 	0.005 	-0.000708678 	3.36865e-06 	0
0.05 	0.0125 	0.005 	-0.000740327 	3.86071e-06 	0
0.05 	0.0135 	0.005 	-0.000769228 	4.37073e-06 	0
0.05 	0.0145 	0.005 	-0.000795828 	4.89728e-06 	0
0.05 	0.0155 	0.005 	-0.000820555 	5.43934e-06 	0
0.05 	0.0165 	0.005 	-0.000843814 	5.99624e-06 	0
0.05 	0.0175 	0.005 	-0.000865983 	6.56764e-06 	0
0.05 	0.0185 	0.005 	-0.000887412 	7.15344e-06 	0
0.05 	0.0195 	0.005 	-0.000908418 	7.75378e-06 	0
0.05 	0.0205 	0.005 	-0.000929286 	8.36904e-06 	0
0.05 	0.0215 	0.005 	-0.000950272 	8.99978e-06 	0
0.05 	0.0225 	0.005 	-0.0009716 	9.64672e-06 	0
0.05 	0.0235 	0.005 	-0.000993466 	1.03108e-05 	0
0.05 	0.0245 	0.005 	-0.00101604 	1.09929e-05 	0
0.05 	0.0255 	0.005 	-0.00103948 	1.16942e-05 	0
0.05 	0.0265 	0.005 	-0.0010639 	1.2416e-05 	0
0.05 	0.0275 	0.005 	-0.00108942 	1.31596e-05 	0
0.05 	0.0285 	0.005 	-0.00111614 	1.39264e-05 	0
0.05 	0.0295 	0.005 	-0.00114414 	1.47178e-05 	0
0.05 	0.0305 	0.005 	-0.0011735 	1.55356e-05 	0
0.05 	0.0315 	0.005 	-0.00120429 	1.63814e-05 	0
0.05 	0.0325 	0.005 	-0.00123657 	1.72568e-05 	0
0.05 	0.0335 	0.005 	-0.00127041 	1.81639e-05 	0
0.05 	0.0345 	0.005 	-0.00130585 	1.91044e-05 	0
0.05 	0.0355 	0.005 	-0.00134297 	2.00806e-05 	0
0.05 	0.0365 	0.005 	-0.0013818 	2.10947e-05 	0
0.05 	0.0375 	0.005 	-0.00142242 	2.2149e-05 	0
0.05 	0.0385 	0.005 	-0.00146487 	2.32461e-05 	0
0.05 	0.0395 	0.005 	-0.00150921 	2.43887e-05 	0
0.05 	0.0405 	0.005 	-0.00155551 	2.55796e-05 	0
0.05 	0.0415 	0.005 	-0.00160381 	2.68217e-05 	0
0.05 	0.0425 	0.005 	-0.0016542 	2.81183e-05 	0
0.05 	0.0435 	0.005 	-0.00170672 	2.94726e-05 	0
0.05 	0.0445 	0.005 	-0.00176146 	3.08882e-05 	0
0.05 	0.0455 	0.005 	-0.00181848 	3.23691e-05 	0
0.05 	0.0465 	0.005 	-0.00187785 	3.39194e-05 	0
0.05 	0.0475 	0.005 	-0.00193966 	3.55434e-05 	0
0.05 	0.0485 	0.005 	-0.00200397 	3.72459e-05 	0
0.05 	0.0495 	0.005 	-0.00207088 	3.90319e-05 	0
0.05 	0.0505 	0.005 	-0.00214047 	4.09067e-05 	0
0.05 	0.0515 	0.005 	-0.00221283 	4.28759e-05 	0
0.05 	0.0525 	0.005 	-0.00228806 	4.49458e-05 	0
0.05 	0.0535 	0.005 	-0.00236624 	4.71228e-05 	0
0.05 	0.0545 	0.005 	-0.00244749 	4.9414e-05 	0
0.05 	0.0555 	0.005 	-0.0025319 	5.18269e-05 	0
0.05 	0.0565 	0.005 	-0.00261958 	5.43696e-05 	0
0.05 	0.0575 	0.005 	-0.00271065 	5.70508e-05 	0
0.05 	0.0585 	0.005 	-0.00280523 	5.98797e-05 	0
0.05 	0.0595 	0.005 	-0.00290343 	6.28662e-05 	0
0.05 	0.0605 	0.005 	-0.00300538 	6.60211e-05 	0
0.05 	0.0615 	0.005 	-0.00311121 	6.93557e-05 	0
0.05 	0.0625 	0.005 	-0.00322107 	7.28823e-05 	0
0.05 	0.0635 	0.005 	-0.00333508 	7.66142e-05 	0
0.05 	0.0645 	0.005 	-0.0034534 	8.05654e-05 	0
0.05 	0.0655 	0.005 	-0.00357618 	8.47514e-05 	0
0.05 	0.0665 	0.005 	-0.00370357 	8.91884e-05 	0
0.05 	0.0675 	0.005 	-0.00383575 	9.38942e-05 	0
0.05 	0.0685 	0.005 	-0.00397287 	9.88876e-05 	0
0.05 	0.0695 	0.005 	-0.00411512 	0.000104189 	0
0.05 	0.0705 	0.005 	-0.00426267 	0.000109821 	0
0.05 	0.0715 	0.005 	-0.00441572 	0.000115806 	0
0.05 	0.0725 	0.005 	-0.00457447 	0.00012217 	0
0.05 	0.0735 	0.005 	-0.00473911 	0.00012894 	0
0.05 	0.0745 	0.005 	-0.00490986 	0.000136146 	0
0.05 	0.0755 	0.005 	-0.00508694 	0.00014382 	0
0.05 	0.0765 	0.005 	-0.00527057 	0.000151995 	0
0.05 	0.0775 	0.005 	-0.00546099 	0.000160709 	0
0.05 	0.0785 	0.005 	-0.00565844 	0.000170001 	0
0.05 	0.0795 	0.005 	-0.00586318 	0.000179914 	0
0.05 	0.0805 	0.005 	-0.00607546 	0.000190493 	0
0.05 	0.0815 	0.005 	-0.00629556 	0.000201789 	0
0.05 	0.0825 	0.005 	-0.00652375 	0.000213855 	0
0.05 	0.0835 	0.005 	-0.00676034 	0.000226748 	0
0.05 	0.0845 	0.005 	-0.00700562 	0.000240531 	0
0.05 	0.0855 	0.005 	-0.00725991 	0.00025527 	0
0.05 	0.0865 	0.005 	-0.00752352 	0.000271039 	0
0.05 	0.0875 	0.005 	-0.00779679 	0.000287915 	0
0.05 	0.0885 	0.005 	-0.00808008 	0.000305982 	0
0.05 	0.0895 	0.005 	-0.00837374 	0.000325331 	0
0.05 	0.0905 	0.005 	-0.00867814 	0.00034606 	0
0.05 	0.0915 	0.005 	-0.00899366 	0.000368274 	0
0.05 	0.0925 	0.005 	-0.00932071 	0.000392089 	0
0.05 	0.0935 	0.005 	-0.0096597 	0.000417626 	0
0.05 	0.0945 	0.005 	-0.0100111 	0.00044502 	0
0.05 	0.0955 	0.005 	-0.0103752 	0.000474413 	0
0.05 	0.0965 	0.005 	-0.0107526 	0.00050596 	0
0.05 	0.0975 	0.005 	-0.0111438 	0.000539829 	0
0.05 	0.0985 	0.005 	-0.0115492 	0.0005762 	0
0.05 	0.0995 	0.005 	-0.0119693 	0.000615268 	0
0.05 	0.1005 	0.005 	-0.0124046 	0.000657245 	0
0.05 	0.1015 	0.005 	-0.0128558 	0.000702356 	0
0.05 	0.1025 	0.005 	-0.0133232 	0.000750849 	0
0.05 	0.1035 	0.005 	-0.0138076 	0.000802987 	0
0.05 	0.1045 	0.005 	-0.0143094 	0.000859059 	0
0.05 	0.1055 	0.005 	-0.0148294 	0.000919372 	0
0.05 	0.1065 	0.005 	-0.0153681 	0.000984262 	0
0.05 	0.1075 	0.005 	-0.0159261 	0.00105409 	0
0.05 	0.1085 	0.005 	-0.0165041 	0.00112924 	0
0.05 	0.1095 	0.005 	-0.0171029 	0.00121014 	0
