/*--------------------------------*- C++ -*----------------------------------*\
  =========                 |
  \\      /  F ield         | OpenFOAM: The Open Source CFD Toolbox
   \\    /   O peration     | Website:  https://openfoam.org
    \\  /    A nd           | Version:  7
     \\/     M anipulation  |
\*---------------------------------------------------------------------------*/
FoamFile
{
    version     2.0;
    format      ascii;
    class       surfaceScalarField;
    location    "0.426";
    object      phi;
}
// * * * * * * * * * * * * * * * * * * * * * * * * * * * * * * * * * * * * * //

dimensions      [0 3 -1 0 0 0 0];

internalField   nonuniform List<scalar> 
18389
(
-7.97834e-05
7.97834e-05
4.3522e-05
-4.3522e-05
-5.20444e-05
5.20444e-05
4.00387e-05
-4.00387e-05
-5.18002e-05
5.18002e-05
-3.98631e-05
3.98631e-05
-3.48149e-05
3.48149e-05
3.90048e-05
-3.90048e-05
-3.49332e-05
3.49332e-05
4.13421e-05
-4.13421e-05
4.43344e-05
-4.43343e-05
-3.4407e-05
3.4407e-05
-1.12592e-05
1.12592e-05
-4.2789e-05
4.2789e-05
4.34381e-05
-4.34381e-05
2.42139e-05
-2.42139e-05
1.85923e-05
-1.85923e-05
4.58836e-05
-4.58836e-05
4.59224e-05
-4.59224e-05
4.33372e-05
-4.33372e-05
-4.2579e-05
4.2579e-05
3.53641e-05
-3.53641e-05
4.29562e-05
-4.29562e-05
-5.84982e-05
5.84982e-05
-4.97486e-05
4.97486e-05
-4.17901e-05
4.17902e-05
-4.45311e-05
4.45311e-05
4.56122e-05
-4.56122e-05
4.58441e-05
-4.58441e-05
4.41273e-05
-4.41273e-05
-4.1329e-05
4.1329e-05
-6.30618e-05
6.30618e-05
4.31154e-05
-4.31154e-05
-4.47328e-05
4.47328e-05
4.086e-05
-4.086e-05
4.6686e-05
-4.6686e-05
-4.55464e-05
4.55464e-05
5.36134e-05
-5.36134e-05
-5.89336e-05
5.89336e-05
3.7874e-05
-3.7874e-05
4.49103e-05
-4.49103e-05
4.53956e-05
-4.53956e-05
-4.10105e-05
4.10105e-05
4.49095e-05
-4.49095e-05
4.58615e-05
-4.58615e-05
-4.58467e-05
4.58467e-05
-4.58385e-05
4.58385e-05
-4.06543e-05
4.06543e-05
-4.58802e-05
4.58802e-05
4.5927e-05
-4.59269e-05
4.59432e-05
-4.59432e-05
4.46076e-05
-4.46076e-05
3.77249e-05
-3.77249e-05
-4.57596e-05
4.57596e-05
-5.55329e-05
5.55329e-05
-4.38116e-05
4.38116e-05
4.57538e-05
-4.57538e-05
-4.59926e-05
4.59926e-05
4.32267e-05
-4.32267e-05
-5.93205e-05
5.93205e-05
-4.71397e-05
4.71397e-05
4.96061e-05
-4.96061e-05
4.57229e-05
-4.57229e-05
-8.3636e-06
8.36362e-06
4.57756e-05
-4.57756e-05
4.14569e-05
-4.14568e-05
5.12127e-05
-5.12127e-05
-4.58585e-05
4.58585e-05
4.23282e-05
-4.23281e-05
3.09425e-05
-3.09425e-05
3.78276e-07
-3.78276e-07
-4.40884e-05
4.40884e-05
3.28686e-05
-3.28686e-05
-3.65749e-05
3.65749e-05
3.97287e-05
-3.97287e-05
2.66255e-05
-2.66255e-05
2.61928e-05
-2.61928e-05
2.70488e-05
-2.70488e-05
2.43966e-05
-2.43966e-05
1.25216e-05
-1.25216e-05
0.00107805
-0.000887046
-0.000191
0.00546514
-0.00207444
-0.00339069
-0.00594646
0.00594644
2.41896e-08
0.00335524
-0.0026011
-0.000754143
-0.00156617
0.00177066
-0.000204497
-0.00675563
0.00284268
0.00391295
0.00121362
0.00425152
0.00725566
-0.00587606
-0.0013796
0.00120305
-0.00190992
0.000706868
-0.000867514
-0.000698654
-0.0014421
-0.000314624
0.00175672
0.000142068
-8.88341e-07
-0.00014118
0.000778593
-0.00222069
-0.003603
0.000122013
0.00348098
-0.00320273
0.00289475
0.000307977
-0.00570464
0.00723649
-0.00153186
-0.00370857
0.00289702
0.000811535
-0.000562787
-0.00304022
-0.00175177
0.00239098
-0.0006392
-0.00046207
0.00255854
-0.00209646
-0.00161079
0.00111742
0.000493369
0.000583529
0.000581831
-0.00159722
-0.00515841
0.00132159
-0.00180947
0.000487876
0.00577821
-0.00385872
-0.00191949
-0.000672084
0.00331032
-0.00263823
-0.00583502
0.00583528
0.000472546
0.00129812
-0.00633825
0.000969159
0.0053691
0.00231631
-0.0029884
-0.00378931
0.00311418
0.000675125
0.00214818
-0.00422262
0.0010887
-0.000201362
-0.000887336
0.00150832
-0.00129184
-0.000216482
-0.00280339
-0.000399328
0.00534972
-0.0053513
0.000375941
0.00113238
0.00522737
-0.0013367
-0.00389068
0.00197673
-0.000773674
0.00308568
0.00190869
-0.00499437
-0.000721098
-0.00306822
-8.80209e-05
-0.000156573
0.000244594
0.00393585
0.00331981
0.00115234
-0.0048735
0.00372115
0.00162482
0.00360255
-0.00498194
0.00632073
-0.00133879
-0.00114834
-0.000582172
0.00173051
0.00133692
0.00201832
0.00013529
0.000103627
-0.000238917
0.00501984
-0.00339502
0.00645832
-0.00084029
-0.00561803
0.00321674
-0.00266509
-0.000551654
0.00221603
0.000455758
-0.00267179
0.00295668
-0.000740648
0.00650404
-0.00539867
-0.00110536
0.000495693
-0.00385497
0.00335928
6.97332e-05
0.00638859
0.00479036
-0.00429466
-0.00053576
0.00105939
-0.000523623
-0.00176669
0.000618347
0.00191705
0.00224911
-0.00416616
0.00025361
-0.000333818
8.02077e-05
-0.00125568
-0.00284931
0.00410499
-2.63194e-05
0.00653037
-0.0028149
0.00230057
0.000514332
0.000389115
-1.24653e-05
-0.00037665
-0.00569234
-0.000254122
0.00188276
-0.00141022
0.000828192
0.00495002
0.00089829
0.00017976
0.00263882
-0.00643411
0.0037953
-0.0011202
0.000584444
0.00264269
-0.00389837
0.00619647
-0.00226061
0.00109211
0.00117728
-0.000779476
0.0010329
-0.000253421
-0.00111395
-0.000496846
0.00188179
0.00133495
-0.000594379
0.00142952
-0.00123738
-0.00019214
-0.00265386
0.00198994
0.000663925
0.00116675
0.000262769
0.00112271
-0.00495729
0.00383458
-0.00474824
0.00140935
0.00333889
-0.00455443
0.00611815
-0.00156372
-0.0050623
8.03657e-05
-0.00202103
-0.000632829
-0.000215273
0.000127252
-0.00121577
0.00463871
-0.00342295
-0.00119485
-0.000715068
0.000103302
-0.000192023
8.87204e-05
0.000126283
-2.29806e-05
-0.00125156
0.00463077
-0.00337921
-0.000156192
2.4521e-05
0.000131671
-0.00556626
0.00170754
-0.00119892
-0.000567766
-0.000449392
-1.89197e-05
0.000468311
-0.000543192
9.37987e-05
0.00101203
7.66645e-05
-0.00181133
0.000612407
-0.000150465
1.70157e-05
0.000133449
0.00136803
-0.00234446
0.00097643
0.0002711
-0.00013581
-0.00392546
0.00513909
-0.00245727
0.000705508
-9.518e-05
-0.000416912
0.000512092
0.0056853
-0.00216807
-0.00351723
7.95466e-05
0.0025058
-0.00258535
0.00444671
-0.00559427
0.00114757
0.00263445
0.00305085
0.00291464
-0.00283509
-0.00613156
0.000426928
-0.00645024
0.00361879
0.00283146
0.00229274
0.00390373
-0.00438646
0.00137132
0.00301513
0.00151619
-0.000194596
-0.00102127
0.00401689
-0.00299561
0.00463903
-0.00162608
-0.00301295
-0.00459585
0.00374579
0.000850068
0.00369262
-0.00502932
5.88636e-05
0.000330252
-0.00137703
0.00582375
-8.96584e-05
0.00214765
-0.00205798
-0.00207015
0.00261342
0.000164512
-0.00277793
-0.0012774
0.00264542
-0.000639542
0.00325296
0.0016424
-0.00173206
0.000887524
0.00396899
-0.00485652
-0.00504171
0.00384221
0.00119951
0.00255191
-0.00359413
0.00104222
-0.00331048
0.00411636
-0.000805878
0.00035512
-0.0036656
-0.000898962
0.000898962
-0.000453462
0.000358282
-0.000126946
-0.000973483
0.00110043
0.00506906
-0.00184206
-0.003227
-0.00243321
-0.000370193
0.00290099
0.000157896
1.64508e-05
-0.000174348
-0.00147355
0.00112768
0.000345875
-0.00014172
-0.0049
0.0050387
-0.00388636
0.000226152
-8.40838e-05
0.00444216
0.00057768
0.0040676
-0.00151568
0.00016503
-7.13351e-06
-0.00633446
-0.000994205
-0.000817123
0.00430067
-0.00190342
-0.00239725
0.00275645
0.00154423
0.00107757
-0.00563199
-0.00226569
-0.000549206
-0.00112269
-0.000956574
0.00207926
4.28096e-05
-0.00272423
0.00268142
-0.00235846
0.00123578
-0.0022181
0.00530379
-0.0046106
0.00159181
0.0030188
0.00254861
0.000675171
-0.000338113
-0.000337058
-0.0060157
0.000582911
0.00543279
-0.00418091
0.00581665
-0.00163574
0.00182422
0.00163141
-0.00345564
-0.00168299
0.000898721
0.00078427
-0.00271365
0.00207943
0.000634216
0.00112417
0.000758593
0.000247192
-0.000328943
8.17516e-05
0.00487874
-0.00399122
-0.00638817
0.00557593
0.000812242
-0.00478512
-0.00166513
0.00334846
0.000627096
-0.00397555
0.000153986
-0.000162204
8.21791e-06
0.000590467
-0.000125274
-0.000465193
-0.00451815
0.00261473
0.000374604
-0.000587153
0.000212549
3.80082e-05
-0.000936973
-0.00257571
0.0044844
-0.00530362
-0.000322784
0.00562641
0.000199407
0.000208537
-0.000407944
0.00119974
-0.00119974
0.00168558
-0.000723712
-0.00211344
0.00181487
0.000298572
0.00439561
-0.00302429
-0.000162418
6.22642e-06
-0.00123841
0.00127641
0.000674489
0.00130224
0.00234469
-0.00026525
-0.00401748
-0.00128614
0.00111877
-0.00497375
0.00321203
-0.00446358
0.00083392
-0.0021375
0.00130358
0.00335937
-0.00457514
-0.00271026
-0.0018079
-0.00483561
0.00469389
-0.000676812
-0.00533888
-0.00515839
0.00148781
-0.00148304
-4.77339e-06
0.00223802
0.000106669
-0.00601452
0.00204869
0.00396583
-0.00121933
0.000526014
0.000693312
0.00144386
0.00295176
-0.00462599
-0.00101573
0.00564173
-0.00021287
0.000138566
7.43035e-05
-0.00550692
0.00132601
0.00375313
-0.00493692
0.0011838
-0.00150181
-0.000611624
-0.000536677
-0.000637497
0.000138327
-0.000203784
6.54569e-05
0.00497769
-0.00385499
-0.0013006
0.00512505
-0.00382446
-0.000380487
-0.000857919
-0.00586133
0.000439596
0.00539568
-0.00616103
0.0045638
-0.000924945
-0.00546323
-0.00109915
-0.000374401
-0.00181851
0.00285868
-0.00104016
-0.000419079
0.000321984
9.70958e-05
-0.00173206
0.00141744
0.00162651
-0.000138694
0.000820662
-3.67472e-05
-0.00169532
0.00279697
0.00121711
-0.00303562
0.00605286
-0.000476924
0.005279
7.07135e-05
-0.00528156
0.00439004
0.00114445
-0.00553449
0.000556537
-0.000768845
0.000212308
-4.01048e-05
-0.000413357
-1.23779e-05
0.00606523
-0.000162173
0.000156816
5.35684e-06
0.000133407
2.05788e-05
0.00254214
-0.00335526
0.000813124
-0.0019017
0.000699698
0.001202
0.00791844
-0.00345345
-0.00446498
0.00116949
0.00126671
-0.00243621
0.000105018
-0.000171663
6.66463e-05
-0.000805875
0.00133188
0.00115547
0.00318248
-0.00433795
-0.00561479
0.000165775
0.00544901
-0.00401658
0.00299531
0.00173482
0.00479554
0.00458338
0.00333505
-2.22586e-05
0.000191827
-0.000169568
-0.00130017
0.00438999
-0.00308981
0.000302131
-0.000342236
-0.000131396
-8.1474e-05
0.00410114
-0.00227692
0.00476158
-0.0050076
0.000246019
-0.00322751
0.00605432
-0.00282682
0.00252773
0.00157341
0.00574629
-0.000984705
-0.00138881
-0.00562132
0.00137257
0.00424875
0.000654673
0.000520476
-0.00117515
0.00126935
-0.000614681
0.00058538
-0.00111007
0.000524686
0.00110586
0.000278563
0.000396608
-0.000678226
0.00443136
0.00152112
-0.000393441
0.00351843
-0.00610585
0.00258743
0.00153475
-0.00258544
0.00105069
-0.00431491
0.00115776
0.00315716
0.00291624
-0.0042164
-0.00490724
-0.00125379
-0.00409608
0.00126414
0.00283193
0.0012412
0.00314878
-0.0032642
-0.000831889
0.00222693
-0.00105744
-0.000674265
-0.00253564
0.0032099
0.00241237
0.000610831
-0.0030232
-0.00159118
0.00120453
0.000386646
0.00027006
0.0014982
-0.00196725
0.000469058
-0.00011096
-0.000222859
-0.000264458
0.000153498
-0.00434917
-0.000246682
-0.000291832
0.00117525
-0.000883419
0.00435128
-0.00464446
0.000293174
-8.84013e-05
0.000117742
-2.93403e-05
0.000970197
0.00338188
-0.00435207
-0.000156976
6.85754e-05
-0.00475153
0.000709997
0.00404154
-0.000799866
0.00011238
0.000687484
8.09759e-05
-8.18641e-05
-0.000400236
0.000864669
-0.000347471
-0.000517199
-0.00603612
0.000637448
-0.00254968
-0.000128185
0.00267785
-0.00317155
0.00441274
0.00218084
-0.00108874
-0.00116718
-0.00118376
-1.10958e-05
-0.00351794
-0.00123029
0.00152501
-0.000421111
-0.0011039
0.00191952
0.00183834
-0.00375786
0.0050389
-0.00160706
-0.00343184
0.000790117
-0.00541611
-0.00137177
0.00300318
0.00195272
0.000788876
-0.00274159
-0.00349895
0.00446915
-0.000153215
2.75034e-06
0.00093272
-0.00443166
-0.00449683
-0.000147636
-0.000998218
-0.00461657
0.00462137
0.00147974
0.00355916
0.00415887
0.00114122
-0.0053001
3.60391e-05
5.95714e-05
-9.56106e-05
-0.00140937
0.00336209
0.00369898
0.00353751
-0.00140294
0.0023716
-0.000968652
-0.00248025
0.000459224
-0.000878391
0.000751443
-0.000207495
0.000406903
-0.000203748
0.00170195
0.00376368
-0.00184416
-0.00107966
-0.000603332
-0.000107237
-0.00015722
0.00355043
-0.00163337
-0.00240371
0.00465282
0.000674548
-0.00309589
0.00242134
0.000657495
0.00076706
-0.00105889
0.00210063
-0.00130798
-0.00327401
0.00458198
-0.0021478
0.00478661
-0.000551306
0.00344606
0.000238276
-0.00022126
-0.00236325
0.000960317
0.00230798
-0.00386917
0.00156121
-0.00122721
5.79244e-05
-2.18854e-05
0.00215134
-0.00279932
0.000647982
-0.00117067
-0.000420509
-0.00353035
0.00449951
0.00118633
0.00168372
-0.00287005
-0.00169276
0.00366408
-0.00197132
0.00423808
-0.000856204
0.000234311
1.41217e-05
-0.000248433
-0.00372225
0.00202949
-0.0014204
0.00471076
-0.00329036
0.000877965
0.00130288
0.000188455
0.00101129
0.000253044
-0.000300748
4.77029e-05
0.00169687
0.000217795
-0.00191466
0.00301916
-0.00458339
0.00156424
-5.28763e-05
0.000374353
-0.000321477
0.00156594
-0.000361411
0.00140484
-0.000591609
-0.00081323
0.00282717
-0.00392275
0.00109558
0.00268167
-0.00374193
0.00106026
-0.00514952
0.00192202
0.00389473
-0.000875568
-0.000629856
-0.00237937
0.00300923
0.00140675
-0.00511724
0.00371049
0.00336052
-0.00145893
-0.00190159
-0.00068979
0.0017295
-0.00103971
0.00477165
-0.00303683
-0.000704418
-0.00196066
-0.00598145
0.00514116
3.97989e-06
0.000121774
-0.000125754
-0.00158077
0.00120429
0.000376481
-0.00490481
0.00630464
-0.00139983
-0.00188652
0.000704237
0.00118229
0.000407174
0.00268716
-0.00208892
-0.000598237
0.00343464
0.000489813
-0.00392446
0.000123949
-1.89317e-05
0.00517237
0.000336983
-0.00550935
-0.00194075
0.00379755
-0.0018568
0.00276557
-0.000630315
-0.00213526
0.000462547
0.000402123
-0.000437895
0.00387253
0.00202581
-0.00396656
0.000707103
-0.00026919
-0.000437912
-0.000652764
-2.5008e-06
0.000655266
-0.00315241
-0.00576685
0.00576518
-0.000275741
0.000954107
-0.000678367
-0.00229008
-0.000190178
-0.00454765
0.00323967
-0.000864819
0.00112077
0.00360807
-0.00502006
0.001412
0.000410677
-0.00296034
0.0023348
-0.00244
0.000105186
-0.00157143
0.00148227
8.91625e-05
-0.00121334
-0.000367427
-0.00339218
0.00342415
-0.00223782
0.000457276
0.000133191
-0.00174044
0.00105065
-0.00279142
0.000735267
0.00205615
0.000242336
-8.02462e-06
-0.00347701
0.00102215
0.00245487
-0.00144378
0.00560265
0.000337862
-0.000957256
0.000619395
0.00212561
0.00063996
-0.00127776
0.000304275
0.00111869
0.00121611
-0.0014206
0.00494642
-0.00352582
-0.00485458
0.00577168
-0.000917101
-0.00117138
0.00228459
0.00410399
0.00107639
4.10272e-05
0.00585983
-0.0055185
-0.000341327
0.00354214
-0.00465294
0.0011108
0.0030885
-0.000676127
0.00542676
-0.00181869
-0.00250514
-0.000971868
-0.00218381
-0.000307522
0.00249134
0.00241953
-0.00196378
-0.00160818
-0.00423997
0.00274886
0.00149111
-0.000334083
0.0012328
0.00120464
0.0036507
-0.00485534
-0.0003198
0.000694404
0.00305959
-0.00238504
-0.00472402
-0.00125743
0.00647066
-0.0012983
0.00423449
0.00206363
0.000494904
0.00285558
-0.00212695
-0.000728628
0.00473679
-0.00245219
-6.8403e-05
-0.0033276
-0.000864019
0.00419162
0.000388621
-8.66167e-05
-0.000302004
-0.00514147
0.00610508
-0.000963612
-0.000718652
0.00190505
-0.0011864
-0.000697097
0.00525277
-0.00455568
0.00119494
-0.00191359
-0.000113746
-0.00576231
-0.000779476
0.00203133
0.00382849
-0.000257548
-0.00192626
0.000251398
-4.20555e-06
0.00036254
-0.000487814
0.00335899
-0.000816853
-0.00522606
-0.000271557
-0.000147522
0.000150219
-0.000133605
-1.66141e-05
-0.00248407
0.000125599
-0.000420436
0.00159583
-0.00102207
-0.000573766
0.00246193
0.000602295
-0.00306423
-0.000721382
0.0031833
-0.00520293
-0.000271522
0.00547445
0.00375114
0.00137392
0.00440463
-0.00122215
-0.00012806
0.00254759
0.00540384
-0.000206639
-0.00519721
-0.00608762
0.00425295
0.00183468
0.00321017
-0.00126815
-0.00435317
0.00020315
-0.000225408
0.000561059
0.000843778
0.00115303
0.000201557
-0.00135459
0.0042123
0.00119154
-0.000961535
0.00317115
-0.00220962
0.00471945
-0.00137099
-0.00218098
0.00279355
-0.000612563
-0.00117622
-0.000100892
0.000288237
-0.000187345
0.00344668
-0.00414378
0.00134661
-0.000988696
-0.00035791
0.00160038
-0.000396091
-0.0032499
0.00228836
0.0054864
-0.00434196
-3.06218e-05
0.000352606
-0.00535434
0.00044952
0.00542667
-0.00190825
-0.000997944
-0.00361501
0.00461296
-0.000645329
0.00288296
-0.00223763
0.00549726
-0.00286243
-0.00263483
-8.83958e-05
0.000590703
-0.000677144
0.000660559
1.65849e-05
-0.000696589
0.00173492
-0.00103833
-0.00315009
-0.00116482
0.000155531
-1.72035e-05
-0.0012248
-0.00478971
-0.0030739
0.00239963
-0.000902725
-0.000297015
-7.26238e-05
-8.95488e-05
-0.00122419
-0.000805922
-0.0052302
-0.00283904
0.00219371
-0.000814334
0.00119027
0.00111895
0.00436749
-0.00548644
0.0033804
-0.00275331
0.000466789
0.000770044
-0.00288357
0.00211353
0.00497746
-0.00491839
-5.90606e-05
-0.00320953
0.00361559
-0.000406055
0.000207788
-9.56027e-05
-0.000112186
-0.00495743
-0.00147669
-0.001761
0.00368982
-0.00192882
0.00298035
-0.0022103
-0.00378376
0.00202277
0.00139503
-0.00258174
0.0011867
-0.00363304
0.00568173
0.00649959
-0.00219591
-0.00430368
-0.00239885
0.00237614
2.27177e-05
0.00559471
-0.00162574
0.00118479
-0.000924799
-0.000259993
-9.09267e-06
0.000262137
0.000250596
-0.000774045
0.000523449
-0.0030483
0.00364983
-0.000968161
0.000849964
-0.00105133
0.00236383
-0.000632302
-0.00173153
0.0022126
-0.00051573
0.00451712
0.000631367
0.00173246
-0.0017584
0.00106182
0.000408603
-0.000464696
5.60925e-05
0.00221993
-0.00174628
-0.000473648
0.000823348
-0.0051478
-0.000544542
0.000369495
-0.000588348
0.000218853
-0.00410148
0.00547404
0.000941928
-0.00111659
0.000174665
-0.00153464
0.00216379
-0.000629153
-0.00148724
-0.00275273
-0.00537375
-0.000165801
0.00553956
0.000297456
0.00010829
4.193e-05
0.000127595
-0.000128025
4.30724e-07
0.00410175
-0.0028971
-0.00379511
-0.00231073
0.00346639
0.00303319
-0.00259016
0.00071788
0.00187228
-0.000844663
0.00223969
-0.00229866
-0.000100192
0.00272987
-0.00377746
0.00104759
0.00130947
-0.000134222
0.000459445
0.000552588
-0.0032777
0.000962569
0.00231513
0.000910478
-0.000621277
-3.14887e-05
-0.00426971
0.001717
0.00011126
-0.00182825
-0.00396323
0.00146227
0.00250096
0.000516171
0.00147474
-0.000913681
-0.000246085
-0.00466031
0.0049064
0.000784107
-0.00247672
0.00169261
0.0012022
0.00131232
-0.000458088
-0.00172665
0.00218475
0.00258
-0.00179589
0.0044667
-0.00353398
-0.000762351
-0.00264095
-0.00022726
0.000251781
-0.000707742
0.00176663
-0.00105889
0.00266182
-0.0036663
0.00100447
0.000136425
2.03911e-05
-0.00236576
-0.00091195
0.00142116
-0.00163614
0.000214981
-0.0027748
0.000685878
0.00127616
-0.00141851
0.000142356
0.00161851
-0.00180761
0.000189102
0.000674607
-0.00372157
-0.00115193
0.00133772
-0.00488642
0.00354869
-0.000911186
0.003573
0.000118417
-7.8913e-05
-3.95035e-05
0.00473409
-0.00361513
-0.000308387
-0.001522
-0.00401116
-0.00149576
0.00209379
0.000699747
-0.00100651
-0.000922525
-0.00450891
-0.00162266
-0.000378616
0.00124387
-0.000933234
-0.00031064
-0.0014965
-0.00108896
0.000654287
0.00226008
-0.00291437
-0.000114244
0.000670781
-0.000715962
3.88178e-05
-0.00246307
0.00196646
0.00139405
-0.000686348
0.00163288
-0.000946532
-8.68508e-05
-0.000116933
0.000319076
-0.00194803
0.000446218
0.00161679
-0.00230813
0.000691345
-0.00333773
0.00258662
0.000751102
0.00120432
0.00240846
-0.00361278
-0.00175473
0.00104698
-0.00294204
-0.00102118
-0.000782354
-0.00255538
-0.00167815
0.001255
0.000423151
0.00176639
-4.93909e-05
-0.000759651
-0.00243617
0.00319581
-0.000665803
0.00291328
-0.00225899
-0.000858543
-0.00394762
0.00480617
-0.0023429
0.0023424
4.99483e-07
-0.000799866
-0.00156676
0.000544695
-0.00240603
0.00381839
-0.00141237
0.00323299
0.00288516
0.000194336
3.6212e-05
-0.000230549
0.00234053
-0.000602262
-0.00173827
0.000188175
-0.000184195
-0.00358932
0.00492705
-0.00329141
0.00523729
-0.00194588
-0.00351031
-0.00150975
-0.00091609
0.00323165
-0.00231556
0.00285686
0.00177312
-0.00417916
-0.00499372
-0.000147738
-0.000780176
0.00284308
-0.0020629
-0.000431668
0.000378791
-0.000531588
0.00167602
-0.00114444
-0.00402451
0.00334227
0.00068224
-0.00326916
0.00235307
-0.00386664
0.000673492
0.00319315
0.0014101
-0.00101519
-0.000394905
-0.00589955
0.000696625
0.00184696
-0.00141138
-0.000435576
0.00144128
-0.000427351
-0.00101393
7.83758e-05
0.000129413
0.00292885
-0.00062828
-0.000218527
-0.00348715
-0.000379497
0.000429711
-0.00305689
-0.00096763
-0.00233676
-6.14044e-06
-0.00292484
0.00229498
0.000720231
0.00260213
-0.00332237
0.000585334
-0.000861076
0.00141013
-0.00671703
0.0053069
-0.00577556
0.000990434
-0.00233368
0.003538
0.000695431
0.000258677
-0.00273321
0.00345344
-8.61708e-05
0.00506363
0.00060686
0.00171188
-0.00231875
-0.00177791
0.00124633
0.00274894
-0.00369511
0.000946166
0.00509937
0.000672274
0.00154765
0.000322369
0.000384733
-0.000363997
-0.000404847
0.000180996
-0.00174862
0.00176684
-0.000888875
0.000863715
0.000611019
-0.000581522
0.00300999
-0.00242846
-0.0015095
0.00184252
-0.000333016
-0.00489188
0.00380314
0.00108874
-0.00479526
0.00150385
-4.13543e-05
3.76351e-05
3.71914e-06
-0.00281237
-0.000853928
0.0010918
-0.00129698
0.000205186
0.00134851
-0.00493784
0.00116555
-1.25178e-05
0.00123307
0.000693526
0.00218943
-0.00366672
0.00085436
0.000182105
-0.00503669
0.00189917
0.00123042
0.000674633
-0.00527418
-0.000492667
0.00565144
0.00118783
0.00710739
-0.00218424
-0.00492315
0.00079482
-0.000383754
-0.000411067
0.000709127
-0.00138577
0.000782434
-0.0038609
-0.00125634
0.000288237
-0.000949923
-0.000409698
0.00135962
0.00233176
0.00400854
-0.00486707
0.002703
0.00083415
-0.00353716
0.00125092
-0.000965561
-0.00028536
0.000744725
0.0015958
-0.00013514
0.000138358
-3.21809e-06
-0.000709233
0.00288358
-0.00217435
0.00362023
0.00109053
-0.001265
-0.000413146
0.00141529
-0.00151273
9.74424e-05
4.62213e-05
7.21954e-05
-0.00447767
0.000967361
-0.0016562
0.000442861
-0.00364886
0.00292747
-0.000951356
6.43084e-05
0.00093307
0.00268151
-0.00361458
0.000849764
-0.00127024
0.00418298
-0.00291274
0.000317685
0.000279889
4.6549e-05
-0.000326439
7.8412e-05
-0.00539166
0.00531325
-0.00263884
-0.000770021
0.00340886
-0.00348557
0.00261061
0.00087497
-0.00276392
-0.000261826
-0.00171324
-0.00490352
0.000892366
-0.00145711
-0.000879644
-0.0010627
0.00379257
0.00171039
-0.00372458
0.00201419
0.000105717
2.18774e-05
0.00372474
-0.00201434
0.00286692
0.000950789
-0.0038177
-0.00130338
0.00174144
-0.000438061
0.00357407
0.00109534
-0.00466942
0.0071768
-0.0019721
-0.00520469
-0.00212853
-0.000710501
-0.00173818
0.00234503
0.00377291
-0.0049249
0.00115198
-0.00280329
0.00373636
0.00116327
-5.49252e-05
-0.00110835
0.00148031
0.000910663
-0.00550468
0.000597435
0.000433496
0.000361323
0.00292156
-0.00111898
-0.00251972
0.00248066
3.9061e-05
0.000504504
-0.00184083
0.00133633
-0.00387046
-0.00119183
0.00108821
-0.00254533
-0.00529911
0.000151314
-0.0012624
-0.000516595
0.00177899
0.00563291
-0.00449169
0.000104453
0.000284169
-0.00301909
0.00318361
0.00144102
-0.00107501
-0.000366013
0.00346875
0.00475582
-0.00095269
0.000634002
-0.00327284
0.00114154
-0.00102917
-5.28808e-05
0.000461484
0.000394084
-1.97313e-05
-0.00206083
-0.000450077
0.00154187
-0.000898961
-0.00349739
0.000764192
-2.80985e-05
-1.32558e-05
0.00599843
-0.00492085
0.00522181
-0.00439362
-3.52695e-05
-0.000687484
0.000722753
0.00194902
-0.000458098
-0.00149092
0.00335868
-0.000756548
-0.00256849
0.0033611
-0.000792606
-0.00183362
0.000530245
0.00127933
-0.000952787
-0.000326543
-0.000118773
-0.000210169
0.00205938
-0.000547954
-0.00151142
-0.00138214
-0.00239369
-0.00012602
0.00209249
-0.00274655
0.000654065
0.0028069
-0.00074974
-0.00205717
0.00410342
-0.0043495
0.00031377
0.0022369
-0.000620116
-0.00068101
0.000835931
-0.00367441
0.00502291
0.00123737
0.000457359
-0.00171976
-0.00285998
0.00209767
0.00363318
0.00158864
-0.001155
-0.00382504
-0.00113225
0.00130516
-0.0017179
0.00041274
0.00367574
-0.00318594
-0.000193981
0.00113591
-3.84659e-05
-0.000271634
0.000310101
-0.000685461
-0.0019047
0.00377223
-0.00490629
0.00113407
-0.00186558
0.0023499
-0.000484323
-0.00115266
0.00213324
0.000750341
-0.00226398
0.00375462
-0.00149065
0.00150746
-0.00114384
-0.000363624
-0.00109159
0.000291727
0.000216071
-0.000451552
0.000235481
-0.000425734
-0.00123047
-0.00247918
0.00250619
-2.70027e-05
0.00144604
-0.00371002
0.00162655
-0.000371549
0.000369937
-0.00040933
3.93934e-05
-0.000827673
0.000594293
0.00023338
-0.000794389
-0.00284447
0.000819628
0.00202484
-0.00199273
-0.000880896
-0.000733486
0.00161438
-0.00523981
0.00389431
0.0013455
-0.00134067
0.0013054
-0.000576326
-0.000115979
0.000692305
0.00286844
-0.00073521
-0.000770189
-0.000160307
0.000930497
0.00183864
-0.00138128
0.00169885
-0.000393689
-0.000199125
-0.000636532
-0.00420362
0.00484015
-0.0014
0.00283062
0.00427677
-0.0023988
-8.03761e-05
0.00312345
-0.00473051
0.00073268
0.00158227
-0.00231495
0.00201644
-0.00279661
0.00198086
-0.000706873
-0.00127399
-0.00179621
0.000455624
0.00134058
0.00431502
0.00286178
-0.00551475
0.0013345
0.00418025
-0.00125018
-0.00398962
-0.000459917
-0.00133629
-0.00100619
-0.000560568
-0.00129308
-0.000424822
0.00114082
-0.000531318
0.00151287
-0.000981552
-0.00175734
0.00129742
-0.000944228
-0.000207322
0.00115155
0.00217249
-0.00286704
0.000694562
-1.17666e-05
0.000206103
0.0010357
0.00606055
-0.00140874
-0.00465181
-0.00203417
-0.00187309
0.00134544
0.000527658
0.0012715
-0.000979392
-0.000292108
-0.00229782
-0.00102003
0.00331787
-0.00267503
0.00358006
-0.000905032
-0.000917786
0.00112188
1.7816e-05
-0.00113969
0.00376095
-0.00493433
0.00117338
0.00174772
-0.00135578
-0.000391935
0.00242707
-0.00122487
0.00273432
-0.00063594
-0.000191733
-0.00408998
0.00229892
-0.00180255
-0.000496362
0.000560223
-0.00200936
0.00144914
-0.00251724
-0.000838019
0.000860461
-0.000659051
-0.000201411
-0.000179752
-0.00364115
0.000966117
0.000672208
-0.000456136
0.00259292
0.000987141
0.000318715
0.00130854
0.000672317
-0.00160397
0.00233665
-0.00150863
0.00100071
0.000507925
0.00354291
-0.00067598
-0.00381003
0.00610278
-0.00114534
-0.00248846
0.00683066
-0.00434219
-0.000886436
0.00356795
-0.00414181
0.000932297
-0.00210105
0.00424923
-0.000681119
-0.00162701
-0.0024487
0.00171787
0.000730836
-0.00127818
0.000638437
-0.000625064
-1.3372e-05
-0.00137661
-0.00077662
-0.000153532
0.000930152
-0.00156841
0.00136781
0.000200607
0.00204163
0.000801442
6.253e-05
-0.0012999
-0.000548339
-0.000837427
-0.0024168
-0.000474188
-0.0013989
-0.000171128
0.00159229
-0.000180651
0.00341062
-0.000513598
0.00133869
0.00019981
-0.000777001
-0.00103247
-0.00193026
0.00247681
-0.000546547
-0.00105224
-0.00572891
0.00351082
0.00150938
-0.000645666
0.00288978
-0.00120606
0.000954906
-0.0013592
-0.00453061
0.00588981
0.000620004
-0.00255027
0.000739915
-0.00368536
0.00270063
0.000984728
0.000894945
-0.00142626
0.00223027
-0.0031176
0.000887329
0.00119434
-0.00342923
0.00223489
0.000860246
0.00168854
-0.00254879
-0.000174409
0.00179292
0.00274801
0.00108173
0.00361663
-0.000413521
0.000783015
0.00315902
-0.00402304
0.000977057
-0.00327488
0.000433847
0.00412481
0.00148268
-1.02526e-05
-0.000276589
0.000286841
-0.00619236
0.00385668
0.00233569
-0.000824811
-0.00261716
0.00344198
0.00263995
-0.0017797
-0.00369601
0.000892723
-0.00132177
-0.000435568
-0.000152723
0.00131948
0.00372321
0.0012232
0.000224521
0.00130965
-0.000993837
-0.000315812
0.000940193
0.000569189
-0.000313876
0.00376836
-0.00493229
0.00116394
0.00307643
-0.000846175
-0.0013991
0.0019036
0.00125949
-0.00355331
0.00229381
-0.00116598
0.00145663
0.000678159
-0.00213479
0.000192933
-0.000203186
0.00219884
-0.00086192
-0.00126138
0.000330257
0.000928901
-0.000355313
-0.000573588
0.00353171
-0.00227222
-0.000504188
0.00229237
-0.00178819
0.00102052
-0.00296546
0.00209061
0.000874857
0.000106675
-9.57144e-07
0.00466089
0.000540752
-0.00569918
-0.00519286
0.00392648
0.00126638
-0.00107554
-0.00269543
0.00377097
0.00222132
0.00372512
0.00282808
-0.00375283
0.000924755
-0.00147093
0.0011035
-0.000944196
0.00336998
-0.00242579
0.00149739
0.000561984
-0.00378512
-0.00240724
0.00106879
-0.00230536
0.00321109
-0.00090574
0.00342685
-0.000816233
0.000396078
-0.000802844
0.00254531
0.000881538
-0.000634895
0.00431064
-0.0013098
0.00171663
-0.000406833
0.00198375
-0.00128405
-0.000389195
0.00607684
-0.0049131
-0.000460647
0.000858232
-0.0024622
-0.00539147
-0.00172305
0.000413256
-0.00067816
0.000101834
-0.000867931
0.000213705
-0.00147111
0.00065797
0.00157893
-0.000905405
0.000135216
0.000804748
0.00251628
-0.00332104
-0.00109511
0.0018737
-0.00194706
-0.000474103
0.00196123
-0.00148713
-0.000873632
-0.00209182
-0.00195178
0.00147768
-0.0026578
0.00346254
-0.00164412
0.000575633
0.00106848
-0.00097536
0.00356827
0.00599612
-0.00229714
-0.00130403
-0.000419016
-0.00174264
0.00110691
0.000635722
0.000903147
-0.0045181
0.00361495
-0.00131734
0.000546534
0.000770804
-0.00403433
-0.00115854
0.000191878
-0.0011361
0.00193483
-0.000704406
-0.00134042
-0.00380087
0.0051413
0.00100324
7.31514e-05
0.00329687
-0.00252829
-0.000768579
0.00018503
0.00125625
0.000877237
-0.000670578
-0.000206659
-0.00134876
-0.00101449
-0.00107043
0.00510019
-0.00402975
0.000631369
-0.00249695
0.000170759
0.00124453
0.00377249
-0.00495959
0.0011871
0.0028756
-0.00205597
0.000102056
-0.000168434
6.63783e-05
0.00102737
0.00013807
0.000104266
0.00235882
0.00370173
-0.000589109
-0.000808486
0.0013976
0.000652318
0.00177216
-0.00242448
0.00239807
-0.00171151
-0.000686562
0.000475402
0.00147362
0.00042595
-0.000512563
-0.000804776
0.000600298
-0.00532432
0.000690302
-2.97432e-05
-0.0011598
-0.00130728
-0.00378977
0.00509704
0.00103372
0.00143747
-0.00189557
0.00254678
-0.000395077
-0.00490892
0.005304
0.000120826
-1.87693e-05
0.000644366
0.00129046
0.00272973
0.000941028
-0.00367075
0.00137559
0.000471365
0.00258739
-0.00364141
0.00454456
0.00277424
0.000843234
-0.00361747
0.00164002
-0.00084799
-0.000792032
0.0013292
-0.00101981
-0.000309388
0.000423549
0.00105852
-0.00469994
0.000218186
-6.68761e-06
0.00019962
0.00602731
-0.00129323
0.0015266
-0.00212886
0.00252236
-0.0018278
-0.000694556
0.000854758
-0.0025456
0.00169085
0.00523513
-0.00281749
-0.000924432
-0.00159394
0.00500948
0.00148596
-0.00178137
0.000295417
0.000499868
-0.000103749
-0.000396118
-0.000991791
-0.00314091
0.00413271
0.000742423
0.00181982
-0.00256224
0.00176748
-0.000281518
0.00225033
0.00141119
-0.000864658
-0.000937207
0.000160586