/*--------------------------------*- C++ -*----------------------------------*\
  =========                 |
  \\      /  F ield         | OpenFOAM: The Open Source CFD Toolbox
   \\    /   O peration     | Website:  https://openfoam.org
    \\  /    A nd           | Version:  7
     \\/     M anipulation  |
\*---------------------------------------------------------------------------*/
FoamFile
{
    version     2.0;
    format      ascii;
    class       volScalarField;
    location    "0.299";
    object      p;
}
// * * * * * * * * * * * * * * * * * * * * * * * * * * * * * * * * * * * * * //

dimensions      [0 2 -2 0 0 0 0];

internalField   nonuniform List<scalar> 
12359
(
0.0677253
0.0768449
0.0524061
0.10816
0.0710049
0.154135
0.188702
0.170649
0.226743
0.142206
0.207213
0.280356
0.492071
0.115403
0.103831
0.395419
0.449161
0.0564249
0.0560996
0.0885408
0.123745
0.254125
0.0829433
0.0944302
0.0796435
0.0853249
0.0534295
0.0532905
0.055469
0.0538787
0.0542339
0.0528422
0.052545
0.0536257
0.0524346
0.0544183
0.0614951
0.0662971
0.069738
0.0636861
0.0746584
0.0649245
0.0591024
0.0583771
0.0548462
0.055167
0.0546422
0.0540199
0.0557676
0.053511
0.0532201
0.0530245
0.0527547
0.056829
0.0526909
0.0525815
0.0578843
0.0525308
0.0525397
0.0524906
0.0525991
0.0524125
0.0530776
0.509221
0.0573636
0.131925
0.0606629
0.0530265
0.0619242
0.350959
0.534798
0.0728821
0.0523981
0.0629024
0.0991747
0.0524285
0.052765
0.0524136
0.0597762
0.31895
0.129868
0.0478632
0.0515943
0.0531691
-0.0581451
0.0280224
0.0476932
0.0503487
-0.0582208
-0.0523153
0.0521993
0.471018
0.0521858
0.0519255
0.0519187
0.00912289
0.0514207
0.0521601
0.0604362
0.0569372
0.108946
0.0523051
0.028303
-0.110637
0.0466193
0.0156402
0.0513889
-0.0555132
0.0319553
0.015295
0.0514358
0.0479945
0.111341
0.0915517
0.0521483
0.0486934
0.0948738
0.046966
-0.0607117
0.0516227
0.0516099
0.176316
0.0502656
0.00693165
0.0467581
0.0484126
0.0397604
0.0529397
0.0524079
0.0466579
0.0489475
-0.00223668
-0.00335642
-0.00211762
0.0514221
0.00795726
0.0487577
0.00817964
0.0523373
0.0386736
0.0517416
0.0690452
0.0170315
0.0513969
0.0102224
0.145954
0.0516006
-0.0450709
0.0464918
0.129616
0.00198871
0.0523224
0.0172927
0.0501254
0.0521249
-0.172863
0.109468
-0.00163002
0.0514462
0.0529632
0.0475278
0.0529524
0.0049703
0.0141979
0.0515722
0.0484934
0.0486524
0.176022
0.0158617
-0.0627647
0.05241
0.0524171
0.0146864
0.0797091
0.0466727
0.0433128
0.0555178
0.0553002
0.111658
0.0445503
0.114906
0.0520997
0.052407
0.0475262
0.058914
0.207997
0.0470291
0.0511918
0.00583403
0.0466684
0.0514531
0.00944126
0.0138143
0.0500608
0.014706
-0.113961
0.0354182
0.0478095
0.0177833
0.0471045
0.150724
0.00474147
0.0579177
0.0158093
0.0140413
0.0520806
0.0131574
0.0585106
0.00251234
0.0458607
0.0518656
1.75972e-05
0.000133714
-0.589609
0.199312
0.0523341
0.047539
0.0521621
0.0473258
0.0696695
0.102521
0.0460202
0.00710794
0.466937
0.0462857
0.0518411
0.0705613
0.0317504
0.0469743
0.048576
0.0484665
0.0515732
0.0113144
0.0583025
0.0507366
0.0572268
0.0516184
0.0167394
0.0509089
0.283878
0.0515392
0.0259074
0.0512057
0.0560584
0.046989
-0.0448627
0.0525065
0.00279902
0.0473458
0.0140576
0.0027828
0.0657308
0.0548786
0.048838
0.332031
-0.607653
0.0516283
0.0457592
0.383053
-0.039193
0.0574406
0.0478917
0.0466736
0.0142416
0.0781937
-0.495727
-0.0555985
0.0468278
0.0460535
0.00831072
0.0146598
0.0629687
0.0157745
0.0490814
0.0457129
0.05155
0.0459291
-0.109815
0.04542
0.0512848
0.0522919
0.0139523
0.0438282
0.0608453
0.0262833
0.051681
0.0486804
0.0523154
0.052296
0.0529367
0.00521105
0.0474665
-0.487891
0.0514012
0.0513901
0.0281968
0.0474589
0.102748
0.0521492
0.0532569
0.0522139
-0.0984987
0.046497
0.0522195
0.0477344
0.0516604
0.0467252
0.0483979
0.0489026
0.0472342
0.0565393
0.202409
0.0466056
0.0543294
0.0663407
0.0244328
-0.04505
0.0465426
0.0610525
0.373104
0.0522889
0.0218201
0.051275
0.0357177
0.0513886
0.0460993
0.222047
0.0209975
0.206744
0.06021
0.050771
0.0138786
0.00671198
0.0506326
0.013291
0.0143579
0.0510502
0.0526685
0.0526637
0.0527267
0.0526996
0.284094
0.0516628
0.106712
0.00115429
0.0578695
0.0154203
0.0211769
0.0284823
0.036594
0.0202771
0.0368189
0.0598131
0.0224819
0.023872
0.0935004
0.0699787
0.0168645
0.0681197
0.0681008
0.0184585
0.10758
0.0482971
0.0527665
0.034054
0.0527278
0.048108
-0.214514
0.508049
0.0482916
0.0523603
0.0514394
0.0520007
0.0201755
0.052124
0.0521109
-0.0683051
0.0145906
-0.0484586
0.0501378
0.01192
0.0438256
0.0514966
0.0171667
0.033962
0.111398
0.0342685
0.0486025
0.0512612
0.0140563
0.0117717
0.0456434
0.297264
0.017387
0.00805999
0.0521104
0.0488891
0.0523394
0.404241
0.0143055
0.0502124
0.0634495
0.0671972
0.0517551
0.0517311
0.0519462
-0.0569026
0.102053
0.062119
0.0206986
0.00177824
0.0523012
0.115194
0.0518441
-0.000366323
-0.0490396
0.303186
0.0570204
0.0934543
0.031442
0.0242384
0.0385532
0.0336932
0.0539412
0.038587
0.017625
0.0521201
-0.0370714
0.061366
-0.00422531
0.00992262
0.0582305
0.098315
-0.152789
0.0197024
0.0421947
0.00811785
0.00990387
0.0210265
0.0471893
0.0518931
0.0556329
0.0513872
-0.00282756
0.0489854
0.0850527
0.0875149
0.040186
-0.0532548
0.10691
0.0565427
0.050508
0.394053
0.0510997
0.0501982
0.00763041
0.0523652
0.0503574
0.0501838
0.241811
0.186383
0.0527268
0.0503404
0.111602
0.0502029
0.0210144
0.0168983
0.0151443
0.0509939
0.0519816
0.0506737
0.0522384
0.0873406
0.0216211
0.0246042
0.0551065
0.0543371
0.00487718
0.0540271
0.0496932
0.0454632
0.121548
0.00676517
0.0523159
0.050285
0.0139679
0.0337525
0.0510206
0.0485343
0.115599
0.0215813
0.00883851
0.0229048
0.0509426
0.0499771
-0.00324741
-0.00372176
0.0522222
0.0394321
0.0507818
0.00649369
0.293149
0.0519297
0.0491841
0.0510647
0.0170462
0.056452
0.0557738
0.0486223
0.0522734
0.0327109
0.0781335
0.0423005
-0.032638
0.0513174
-0.038203
0.0503732
-0.134914
0.0207849
-0.000199625
0.0525255
0.054861
0.0240019
0.0476008
0.0531649
0.05932
0.0571986
0.0572311
0.0714252
0.0155338
0.0152762
0.0516062
0.0473301
0.0213661
-0.00322852
0.0516056
0.0512653
0.0141367
0.05106
0.226183
-0.154435
-0.0534912
0.0516071
0.0444311
0.0014384
0.0560548
0.0469921
0.453113
0.051309
0.116682
0.0902987
0.0443352
0.0472121
0.0533115
0.0406323
0.000654628
0.0331181
0.054487
0.0516321
0.0524093
0.056431
0.0554968
0.057466
0.016252
0.0529615
0.0513086
0.0226057
-0.0443368
0.0541245
0.000163997
0.0514484
0.0550456
0.0971726
0.00184356
0.00272889
0.0985761
0.0485694
0.00194696
0.0517836
0.0524544
0.00338241
0.0400107
0.0480552
0.0401386
0.0520518
0.0512755
0.0479916
0.0515217
0.00151246
0.104283
0.0616184
0.11917
0.0176859
0.0420989
0.114263
0.0651354
-0.00396241
0.0152192
0.0662005
0.0568327
0.0524766
0.0408317
0.0230417
0.0516023
0.052373
0.0510415
0.0525134
-0.0128117
0.0398547
0.036818
0.106412
0.0596762
0.239164
0.00609422
0.00237959
0.0476445
0.000830324
0.0520377
0.0523648
0.0511634
0.110518
0.116008
0.0491993
0.0331857
0.210133
0.0175297
0.00723015
0.0410998
0.0646799
-0.132122
0.0507062
0.0533726
0.0520664
-0.00742419
0.0532524
0.0340298
-0.0524484
0.0513051
0.0795542
0.0592235
0.044049
0.0544564
0.0493879
0.0527718
0.0559433
0.052829
0.0527102
0.0555097
0.00683602
0.011991
0.044017
0.339488
0.00169232
0.426371
0.0193174
0.0269318
0.0558163
0.0203673
0.0590141
0.0110391
0.331449
0.0995661
0.0579482
0.0462376
0.0567978
0.0554846
0.0234216
0.0518875
-0.00432402
0.052826
0.101467
0.0506683
-0.011196
0.00988251
0.0131057
0.0585477
0.0416589
0.0102034
0.0795711
0.00729161
0.0428463
0.0053697
0.0455469
0.0516408
0.0524654
-0.234019
0.0718309
0.0447501
0.0515598
0.0530347
0.0569845
0.0849659
0.0120814
0.0200391
0.0510304
0.046291
0.0574874
0.0446017
0.0425107
0.00424286
0.0581635
0.0590727
0.0109799
0.046289
0.043051
0.106407
0.0516041
0.0582234
-0.285334
0.0525091
0.00930183
0.0540951
0.0434864
0.0903722
0.0111648
0.053576
0.0205459
0.0519826
0.112472
0.0462144
0.0140884
0.0128988
0.114378
0.0518442
0.000979044
-0.00318372
0.0586456
0.0450192
0.0469675
0.0392027
0.234843
0.0561065
0.0523436
0.0571416
0.0521381
-0.125638
0.0443588
0.0119295
0.0342767
0.0206367
0.531859
0.0445822
-0.0575456
0.0125139
-0.050366
0.0207325
0.054356
0.0445575
0.0343628
-0.0451164
-0.0334842
0.0503917
0.0504376
0.119393
0.0498014
0.204095
0.0221342
0.0698813
0.047185
0.392206
-0.106294
0.0448841
0.0516492
0.0517137
0.0955028
0.0570387
0.0617887
0.0544869
0.0170602
0.0791511
-0.0151608
0.35895
0.0510788
0.0848433
0.0162742
0.12393
0.046434
0.116414
0.00908814
0.0964828
0.0546379
0.0515641
0.0113966
0.00836628
0.0203048
0.119334
0.0144072
0.0278634
0.0535562
0.0511126
0.0414447
0.249416
0.0413713
0.0135862
0.0686168
0.0222479
0.0388355
0.0551148
-0.0022125
0.0351135
0.0459443
-0.00739673
0.0604704
0.029135
0.19241
0.051633
0.0347965
0.052205
0.0590316
0.048599
0.0532249
0.0516059
0.00344535
0.0457477
0.0797724
0.0146354
0.0968917
0.0333814
0.0339852
0.0120801
-0.21201
0.0524896
0.0588171
0.0281511
-0.0718761
0.00887091
0.0517599
0.519322
0.051574
0.0466366
-0.178081
0.0570446
0.0520723
0.0521067
0.0671941
0.0913917
0.0524932
0.0580546
0.111012
0.0527517
0.0553715
0.0548179
0.0506937
0.0922446
-0.0138985
0.0560851
0.117362
0.0125382
0.0131403
0.00684006
0.0171039
0.0548399
0.0465457
-0.038175
0.00560316
0.074935
0.0508485
0.0525398
0.119058
0.000810387
0.0359774
0.0394634
0.0356834
0.0544321
0.0458647
0.0854165
-0.253371
0.348239
0.0842762
0.0524886
0.0459129
0.0814573
0.353112
0.112321
0.0517924
0.00249836
-0.00984341
-0.249749
0.0386985
-0.178653
0.052511
0.0546597
0.0525505
0.00834876
0.0768502
-0.174699
0.0462386
-0.0868704
0.0495891
0.0529114
0.011985
0.0563303
0.00335577
-0.0343603
0.0578033
0.0378062
0.0270605
0.0390898
0.0576452
0.0770259
0.0746669
0.0333983
0.078514
0.0578281
0.0525883
0.054974
0.053062
0.106673
0.0253166
-0.00472729
0.00487447
0.087433
0.0265839
0.0254543
0.0450098
-0.0103321
0.0367609
0.0571984
0.0520801
0.00205369
0.110169
0.0463415
0.0421817
0.0587585
0.0253703
0.104162
0.116597
0.0257996
0.273935
0.0244945
0.0883335
-0.031043
0.0559981
0.0187375
0.0129434
0.0500999
0.0364776
0.0426466
0.0464147
0.0517757
0.0480542
-0.0111135
0.0012028
0.0472573
-0.0994153
0.102533
0.0529712
0.0515213
0.00378674
0.0529175
0.0781025
0.0153285
0.00678243
0.0528233
0.0550272
0.0515229
0.0528925
0.119464
-0.134058
0.0529475
0.0564439
0.051613
-0.144608
0.0237179
0.0168218
0.0513919
0.0528541
0.0546264
0.0266835
0.0851857
0.0297567
0.0501735
0.0550357
0.0527717
0.0229161
0.0857114
0.041971
0.0523702
0.0329904
0.0271376
0.0773406
0.0481192
-0.0137792
0.144521
0.0500248
0.0348732
0.054776
0.0459133
-0.207106
0.0576721
0.052981
0.0132045
0.106347
0.084095
-0.141674
0.0780402
0.0375741
0.0290796
0.058749
0.0424262
0.0372998
0.0579839
0.146582
0.05245
-0.337524
0.0850059
0.178844
0.0423389
-0.00425517
0.0971869
1.21707e-05
0.264994
0.00814515
0.0286017
0.0364633
0.0408309
0.0515895
0.0462741
0.0897018
0.00247966
0.0581834
0.0501153
0.00765421
0.0189488
0.00769787
0.0820052
0.00263363
0.00726741
0.0510218
0.072379
-0.040153
0.0885339
0.0515592
0.0375171
0.0556299
0.0515599
0.0713123
0.0524995
0.0462852
0.243604
0.0937226
-0.0140127
0.0525325
0.0519574
0.0521694
0.0583315
0.0558484
7.68378e-05
0.0559909
0.0518587
-0.015664
0.0235075
0.0073001
0.0709755
0.0518602
0.04437
0.092491
0.0368854
0.0525627
-0.0385298
0.0130175
0.113474
0.0524214
-0.255456
0.0988373
0.0527648
0.00361733
0.0391109
-0.0119833
0.0383063
0.0033205
0.0962785
0.0518742
0.0541247
0.0246231
0.0397116
0.0567921
-0.00428462
0.0571993
0.0573598
0.0977005
0.0494142
0.0555995
0.0380286
0.0117027
0.0510907
0.0572347
0.0553303
0.0514841
0.0981752
-0.0374326
0.0281576
0.0584377
0.0558355
0.0442604
0.0515384
-0.192353
0.0811623
0.0523065
0.0730333
0.0443607
0.100837
0.153203
0.000905432
0.057272
0.00743218
0.000540168
0.0513886
0.0428297
0.00200653
0.046696
0.0523543
0.0744225
0.0295185
0.0559215
0.0523803
0.0435412
0.0857616
0.052916
0.0329873
0.0525057
0.0424659
0.069095
0.134419
0.0519798
-0.202443
0.0820687
0.0180478
-0.103123
0.0940836
0.0339373
-0.0288946
0.0588569
0.139823
0.209787
0.055808
0.0466964
0.046637
0.0541237
0.0559719
0.00827892
-0.077932
-0.143767
0.0102683
0.147757
-0.00554255
0.0114772
-0.03878
0.0518214
0.0543501
0.0476706
0.0270704
0.0516318
0.00959251
0.0390705
-0.00487399
0.0516577
0.0547143
0.049723
-0.158075
0.119446
0.0799578
0.0636174
0.124421
0.0468278
0.0528883
-0.0145853
0.0388303
-0.010766
0.00875813
0.0246128
0.00663878
0.017224
0.0593577
0.0512388
0.0516025
-0.127376
0.0428111
0.0428441
0.0540478
0.00472068
0.0204382
0.05202
0.0218183
-0.0113626
-0.000404704
0.0958659
0.0556382
0.05203
0.00645436
0.0584486
0.0517943
0.00156241
0.00958653
0.0555176
0.138
0.0012386
0.0521127
0.0520294
0.0514375
0.108557
-0.142377
0.0411898
0.0122246
0.0548672
0.055167
0.0130755
0.0522757
0.181492
0.0172641
-0.0359878
0.153102
0.0328194
0.0511772
0.0516472
0.0355045
0.0586165
0.051271
-0.185446
0.00730613
0.0460409
0.218506
0.103039
0.0464047
0.0516081
0.0520523
0.0545654
-0.0679465
0.160262
0.035288
0.0792636
0.068599
0.00805314
-0.077654
0.0260812
0.0567293
0.0549831
0.0182533
0.0436522
0.0510645
0.0542869
0.00596282
0.055866
0.0349698
0.0575973
0.0833853
-0.00819284
0.0492877
0.0543895
-0.000932294
0.00509824
0.0611217
0.0541421
0.0783879
-0.000224351
0.040482
0.0189715
0.0759568
0.0193433
-0.0254509
0.0555333
0.156196
0.0513099
0.105154
0.00263951
0.0522418
0.0517412
0.388973
0.0522821
0.0581785
0.0273775
0.0570771
0.0571983
0.0601034
0.0521971
0.0521442
7.89236e-05
-0.0234951
0.0500585
0.344387
0.0397377
0.0540886
0.243829
0.0987348
0.0565599
0.0478644
0.0537676
0.089788
-0.280674
0.0569128
0.0499967
0.0514077
0.0542774
0.0658136
0.0182432
0.0564626
0.0667824
0.055293
-0.159617
-0.00464991
0.00973386
0.111439
0.0394673
0.0541763
0.00612841
-0.117598
0.055426
0.0516008
0.0541133
0.046889
0.0570078
0.050935
-0.00124006
0.0475013
0.0461832
0.304438
-0.00114463
-0.00525109
0.00552204
0.0568598
0.00222274
0.0870252
-0.0889532
0.050003
0.0113497
0.0522654
0.240734
0.051656
0.0517846
0.0319952
0.0514354
0.0275044
0.061429
0.0571243
0.0497832
-0.0796697
0.087576
0.0128978
0.0543545
0.0373939
-0.0365505
-0.00491104
0.0807567
0.076795
0.0523355
0.0576685
0.0486274
0.0541328
0.050045
0.0543154
0.0913987
0.0752418
0.00893687
-0.104477
0.0264961
-0.00691705
0.0337933
-0.110879
0.0509093
-0.0266394
0.0541988
-0.0102533
-0.0026907
0.027159
0.0517724
0.0310326
0.0121099
0.0342251
-0.00662595
0.239645
-0.104372
0.0541495
-0.000106467
0.0470941
-0.00211079
0.0901763
0.00592036
0.0472557
0.0600972
0.0119831
0.0549593
0.0383162
0.0522506
0.0463386
0.0516571
0.0577863
0.00769892
0.00141698
0.0518253
0.0859615
-0.0779084
0.488638
0.051241
0.0751917
0.0293384
0.200283
0.0329369
-0.185187
-0.0343546
0.0495928
0.0262908
0.0672549
0.177023
0.0454329
0.0695514
0.0794222
0.0496983
-0.0869431
-0.00200089
0.0540736
0.0261984
-0.0260889
0.0777937
-0.0774545
0.0404471
0.0794749
0.0562887
0.0512447
0.0578105
0.0468874
-0.0731249
-0.000333659
-0.0617215
0.0528003
-0.0700795
0.0318063
0.00556889
0.112196
0.0269352
0.029751
-0.0515233
0.0402249
0.0393292
0.00643572
0.0691127
0.0271074
0.0103834
0.0715923
-0.0897005
0.0870251
0.0360933
0.0883793
0.0527734
0.112025
0.000110353
0.0994945
0.0555366
-0.0319746
0.0518705
0.0353209
0.0103613
-0.000511177
0.0592646
0.00725915
0.04525
0.506423
0.0577489
0.00657534
0.0927443
5.50624e-05
0.0087687
0.0520423
0.0331237
0.0516072
0.459786
0.0520694
0.0517493
0.0514368
-0.0112446
0.0462242
0.0459484
-0.00711091
0.0299252
0.0660812
0.0463061
0.0517188
0.107442
0.0501436
0.105651
0.00939891
0.087414
0.040915
0.0441985
0.0277451
-0.0120965
0.0110855
0.0454861
0.536808
0.0520574
0.0517727
0.0578985
-0.0802998
0.0554878
0.0329998
0.0789875
0.0558617
0.0437583
0.00485025
-0.0197893
0.0349792
-0.0423771
0.0567893
0.0474268
0.0161598
0.0211687
-0.000222264
0.0541298
0.0276549
0.0736115
0.203692
0.0390878
0.0517677
0.0465187
0.17875
0.0523792
0.05238
-0.0345625
0.0335662
-0.0399687
0.0438788
0.0516601
0.191757
-0.01094
0.0464513
0.057119
0.0500323
-0.100621
0.0523872
0.0352953
-0.024049
0.0523797
0.0517055
0.0108916
0.0512678
0.0523901
0.0152046
0.0514884
0.0516285
0.0231877
0.0513454
-0.0106464
0.0516573
0.0585204
0.121203
0.00959991
0.0523922
0.00731643
-0.181274
0.0439226
0.0757768
0.0498273
0.0335325
0.0503949
-0.0153751
-0.00319379
0.0478828
0.0517111
0.13381
0.0300113
0.0177272
0.0135051
0.130471
0.0512814
0.00790321
0.0516984
-0.0163109
-0.00369738
-0.00202494
0.00949646
0.156946
-0.0696878
0.0064171
0.0122718
0.0477503
0.0543137
0.0029602
0.138231
0.100084
0.0355591
-0.07095
0.0512435
-0.0600916
0.20503
0.0510667
-0.00476367
-0.0104569
0.082438
0.00969498
0.00896679
0.0743409
0.0517218
-0.00954476
-0.0644927
0.246709
0.0568831
0.00367833
-0.0267238
0.14537
0.0535727
0.0516741
0.00735421
-0.0498146
0.0415493
0.0691776
0.0519585
0.051263
0.058926
0.0566387
0.0273113
0.0574287
0.051661
-0.0141236
0.0381073
-0.0218602
0.0178001
0.0519264
0.0517097
0.146434
0.0564215
0.0817796
0.0608704
-0.0361595
0.0826395
0.05095
-0.0210287
0.0609859
0.0516385
0.0299103
0.0388278
0.0437078
0.0948029
0.027511
-0.117786
0.0416296
0.0514516
-0.0236608
0.0513969
-0.00451388
0.0328628
-0.025459
-0.0444869
0.097512
-0.0280926
0.0519627
-0.00600786
0.0556727
0.0735073
-0.019875
0.0210722
-0.0203235
-0.0626945
0.17202
-0.00851749
0.060049
0.0509174
0.0515356
0.0513749
-0.0277647
0.139632
0.0509733
-0.0117394
-0.0155918
0.0165547
0.00434656
0.0296555
0.110261
-0.0234867
0.0564532
0.0140023
0.0266176
0.0522611
0.052278
0.053568
0.0567291
0.0132759
0.0518532
0.0540821
0.0578961
0.0756142
0.000669417
0.0514498
-0.0157242
0.0516527
0.00635019
0.0147693
0.0539261
0.042443
0.0034435
-0.0167338
0.0385417
0.0779826
0.0565377
0.028412
0.0340508
0.0517249
0.0557443
0.0559341
0.0539866
0.0517751
0.0711562
0.051762
0.126424
0.0145373
-0.0907372
0.0517824
0.0612716
0.0518843
0.051704
0.125429
0.0605488
0.0511035
0.335071
0.135345
0.0387498
0.0665293
0.0385689
0.121466
0.0225933
0.010525
0.0557342
0.0578626
0.0517097
0.0524106
-0.00878953
0.0513051
0.0536255
0.125887
0.0539593
0.0556304
0.0302943
0.0516809
-0.0311354
0.0518125
0.0535726
0.00909928
0.0109898
-0.0564167
0.109964
0.0721548
0.0537957
0.00916201
0.0537385
0.026704
0.00694694
0.0578062
-0.026302
0.0524314
0.0284236
0.0717314
0.0540831
0.102865
0.0517982
0.0577001
0.0517156
0.0306671
0.0512231
0.0537755
0.0261422
0.0477213
0.0722576
0.0288069
0.0517433
0.028604
0.0140649
0.057672
0.0100807
-0.0115624
0.0517027
0.0325531
0.109709
0.00467952
0.058151
0.0454709
0.0458221
0.0269685
0.058791
0.153645
0.0565164
0.0518591
0.0518917
-0.0155179
-0.00682202
-0.0175582
0.296715
0.101409
0.0523868
0.0279363
0.0128977
0.052216
-0.0455142
0.0559905
0.103013
-0.000364789
0.0536203
0.145486
-0.00578145
-0.0128693
0.0247784
0.0303986
0.0521332
0.0513831
0.0632869
0.051733
0.0516769
0.137753
0.0540807
0.0657006
0.0509741
0.040848
0.0456596
0.384758
0.0437152
0.0463552
-0.00624854
0.105006
0.0948117
0.0360303
0.110308
0.0517376
0.0473076
0.00618842
0.0729211
0.124636
0.0533088
-0.000387638
0.0406977
0.050171
0.0540207
0.0517023
0.0639661
0.0437735
0.0521914
0.031406
0.260351
0.0522827
0.0135247
0.0337121
0.0513952
0.0649081
0.0542902
0.0291665
0.0517473
0.0516457
0.0167773
0.0306354
0.0928433
0.143686
-0.238334
0.0575369
0.0661212
-0.0296523
0.0346013
0.0542344
0.0414293
-0.00134302
0.0517594
0.0552929
0.0516997
0.031186
0.0659136
0.0205109
0.0517702
0.0630148
0.0364234
0.0562169
0.118164
0.0476794
0.0515257
0.0517666
0.0308188
0.0248243
0.315427
0.0623589
0.0839311
0.00626221
0.00645117
0.0515019
0.101239
0.0517536
0.0517147
0.0522606
-0.000705411
0.0568807
0.0363657
0.00794307
0.0211745
0.00782349
0.0312919
0.0660866
0.114649
0.0491358
0.0129014
0.0930904
0.0342432
0.130713
0.0556284
-0.163168
0.143581
0.135295
0.0511958
-0.112816
0.00740199
0.00946307
0.138342
-8.28678e-05
0.0607822
0.0584551
0.0410672
0.0380773
0.0353094
0.212234
0.0756816
0.0560656
0.0156308
0.0561478
0.0385106
0.0258932
0.0948397
0.0381431
0.0698837
0.0853259
0.00641196
0.0976036
0.0336488
0.0525386
0.0620735
0.051018
0.0455802
0.0503718
0.0564313
0.0218422
-0.0369482
0.0514073
0.162015
0.0508005
0.0435877
0.0110834
0.0318195
0.0349446
0.0501175
0.00859393
0.0136334
0.254427
0.051741
0.010293
0.0379881
0.0148846
0.0522693
0.0519629
0.150019
0.0255405
0.0347055
-0.0989642
0.0283254
0.0400985
0.136354
0.0167277
0.118808
0.0576239
0.0202992
0.0395848
0.0477408
-0.0215459
0.00804922
0.0214105
0.034561
0.0511238
0.00748167
0.00714301
-0.000625897
0.042089
0.0384016
0.417671
-0.037211
0.0507366
-0.00924848
0.0224612
-0.0918027
0.0516746
0.0330309
0.0342162
0.0516753
0.00535982
0.0300837
0.0550794
3.72057e-05
-0.0177117
-0.0013839
0.0577284
0.0252871
0.0522996
0.0470957
-0.0232211
0.0840139
0.0308096
0.00836196
0.147425
0.0260706
0.0217031
0.0231088
0.00833571
-0.0219336
0.0500979
0.0237942
0.0183333
0.0939821
0.283268
0.0147907
0.0365372
0.0229964
0.0516739
0.0939531
0.0329807
0.0106316
0.0514246
0.0376778
0.00720761
0.0154532
0.150387
0.0121202
0.032102
0.0312794
0.0566299
0.00513128
0.0287159
0.0759763
0.0613265
0.0577097
0.0116918
0.0382517
0.0440586
0.0407655
0.0517692
0.00673159
0.0641597
0.0316208
-0.00158924
-0.0397504
0.046315
0.0306901
0.0184168
0.0260846
0.0517906
0.10123
0.100132
0.0744574
0.0522444
0.235009
0.00824323
0.0547886
0.0908162
0.0512662
0.0596885
0.0350337
0.0275202
0.0540866
-0.0909345
0.0529744
0.0613441
0.0449941
-0.00892984
-0.0256874
6.49395e-06
0.0644168
0.0109515
0.0522758
0.0311657
0.0766405
0.052991
0.151499
0.0192341
0.0296515
0.009401
0.0686383
0.023957
0.0390913
0.0514328
0.0516065
0.048692
0.0652416
0.121715
0.0182395
0.147529
0.083859
0.0915695
0.0536266
0.0714734
0.00844743
0.05166
-0.0167864
-0.0139125
0.0546603
0.0517222
0.0429571
0.0498374
0.0515788
0.0667769
0.0367041
0.132772
0.0182419
0.0368921
0.0904279
-0.00729425
0.00684399
0.0870747
0.0150082
0.0261133
0.0720267
0.0513331
0.0647083
0.0303298
0.122717
0.127039
0.223621
0.0516162
0.124001
0.0346686
0.033933
0.106276
0.10875
0.101251
-0.0189976
0.0229247
0.0683405
0.0233873
0.0421617
0.0478901
0.0927701
0.0510562
0.0189221
-0.022629
0.0615611
-0.0207704
0.0506618
0.0843619
0.0570086
0.0331826
0.104393
0.16122
0.0228057
0.0454613
0.0192195
0.0356216
0.072746
0.000114291
0.08408
-0.000656179
0.0516254
0.0233532
-0.145254
0.0985809
0.0383235
-0.0321302
0.0117196
0.044026
0.0506852
0.104005
0.094731
0.0359268
0.059286
0.053326
0.00709855
0.046303
0.00619296
0.0824871
0.0371918
0.142826
0.0516361
0.0479355
0.00433497
0.0402332
0.0409168
0.0679485
0.0585618
0.0321357
0.167786
0.109802
0.0514558
0.00740752
0.0469183
0.0513691
0.133792
0.0510432
0.0241574
0.0270388
0.05104
0.0511417
0.0544833
0.00862257
0.0631499
0.0991429
0.0300736
0.127215
0.0338681
0.0355544
0.0391075
0.0804122
0.0518254
0.0414907
0.0397515
0.0289943
-0.0150812
0.0110185
0.0685541
0.046284
0.0575585
0.0339914
0.0449941
0.0629017
0.0242054
0.107151
0.0340277
0.0513977
0.00958799
0.0885172
0.00864374
0.051538
0.135248
-0.0193287
0.0480669
0.0994147
0.00727761
0.0557017
0.0978717
0.00546871
0.0910193
0.115383
0.00601404
0.0497568
0.0808527
0.0779157
0.0156119
0.0486398
0.0337827
0.0515961
0.05084
0.0513036
0.0156032
0.0194452
0.0219485
0.0837614
-0.0435931
0.169595
-0.0395678
0.0299797
0.0429221
-0.0273653
0.0517368
-0.0795118
0.0356887
0.0252771
0.0208134
0.030963
0.0669737
0.0439674
0.0347432
0.0564048
0.0515164
0.0796955
-0.0255126
0.0160208
0.00754393
0.0194784
0.0546082
0.0297313
0.0182836
0.0571153
0.0262186
0.040949
0.119952
0.0875261
0.083034
0.0946816
-0.00118387
0.000159355
0.00719079
0.0252603
-0.00113063
0.017084
0.0604849
0.0451408
0.131716
0.0759419
0.00878106
0.0517933
0.0970186
0.12576
0.075691
0.0807073
0.0590163
0.0189118
0.114955
0.0313603
0.0249739
0.0360305
0.0354275
0.0506204
0.0306691
0.0314409
0.056104
0.0225648
0.0324694
0.0468617
0.104959
0.0461508
0.040263
0.0770555
0.0578777
0.0509656
0.0534057
0.00320027
0.0182384
0.0524061
0.0738151
-0.0355454
0.00791938
0.0580899
0.0218852
-0.0136638
-0.0300688
-0.00263253
0.0361095
0.0367592
0.0575779
0.0355149
0.0278157
-0.000121404
-0.000839866
0.00478367
0.00083616
0.0373444
0.0505987
0.050338
0.130543
0.0644208
0.0363941
0.0411618
-0.000431043
0.0470958
0.0294936
0.149768
0.0890743
0.0132129
0.0566495
0.01864
0.0512321
0.0104381
0.00122148
0.0301102
0.0512923
0.0612006
0.166545
0.0445433
0.0904159
-0.0110246
0.0516587
0.0369728
0.0957361
0.102588
0.0720893
0.0522389
0.0479622
0.0490005
0.0521993
0.0513216
0.0434492
0.00828474
0.0513018
0.058587
0.0562203
-0.410176
0.120779
0.0489746
0.0516124
0.0124294
0.0189496
0.0255744
0.0782366
0.0200202
0.0508189
0.0448231
0.00644621
0.0521309
0.0163987
0.0939342
0.0731033
0.0499971
0.0142707
0.0518971
0.0416249
0.0396915
0.0443435
-0.00123936
0.0613789
0.0370756
0.0356794
0.111993
0.0831464
0.051232
0.0517268
0.0388721
0.0335274
0.016184
0.0228244
0.0422452
0.00945319
0.0817958
0.0522208
0.0404874
0.00716412
0.0429482
0.0865323
0.0657121
0.0541068
0.149213
0.0243302
0.127488
0.140091
0.0299816
-0.00212585
0.000113588
0.125056
0.0428341
0.0089724
0.0759261
0.0387275
0.0243699
0.0902896
0.0740898
0.0533554
0.00375752
0.0334072
0.030703
0.0429985
0.00733899
0.0532278
0.0820703
0.053044
0.0596467
0.0876819
0.0573421
0.0454063
0.107015
0.00905296
0.0928103
0.0312815
0.0740505
0.010216
0.0638753
0.0139755
0.052773
0.0331664
0.0114678
0.0694347
0.0291639
0.0527393
0.0445234
0.0175853
0.0476702
0.0373199
0.0584742
0.0388051
0.024797
0.000585531
0.0970175
0.105677
0.101551
0.0436032
0.0439184
0.0380078
0.0214244
0.0310996
0.0519783
0.056751
0.0719317
0.0267985
0.0605763
0.00644744
0.0336522
0.0591777
0.0355865
0.0347393
0.0459991
0.0326578
0.0402379
0.134565
0.263483
0.0249518
0.0290074
0.0322386
0.0344148
0.042109
0.0374674
0.0361857
0.025109
0.0154606
0.0503711
0.0515987
0.0505771
0.00795909
0.0514985
0.0319645
0.0453512
0.0330082
0.0617421
0.0362683
0.123315
-0.00412309
0.0511902
0.0368251
0.092438
0.0440616
0.0629848
0.0893286
0.0560842
0.0513957
0.0314384
0.00641315
0.0872369
0.00581998
0.115988
0.0845043
0.00517889
0.0654176
0.0703023
0.0126925
0.0454884
0.0507602
0.052818
0.0389873
0.051127
0.0348275
-0.0248982
0.0503242
0.081865
0.0457923
0.0645849
0.0652747
0.158413
0.0573588
0.0444839
0.00622242
0.0157805
0.088497
0.0333237
0.0850357
0.0526723
0.0403702
0.0671391
0.0481356
0.0350312
0.0522371
0.0527062
0.0339851
0.0510763
0.0372489
0.0633902
0.0825724
0.0170042
0.0508566
0.00826983
0.0036344
0.0696871
0.0603271
0.0533657
0.0701394
0.132917
0.0515817
0.0428593
0.0493061
0.0628206
0.0415773
0.0378758
0.0420803
0.0757401
0.0849688
0.0346078
0.0809816
0.0914989
0.0620486
0.108995
0.0595903
0.0801461
0.0296323
0.0449999
0.0243157
0.0523107
0.0668606
0.0530317
0.0849779
0.00314325
0.0572126
-0.00853298
0.0470336
0.0290898
0.11813
0.0093955
0.0493221
0.0512659
0.00694427
0.108549
0.0290395
0.0315317
0.0185301
0.0469537
0.0821614
0.0404449
0.0499586
0.0388363
0.00984946
0.0453781
0.0429926
0.386153
0.042034
0.0530614
0.0611934
0.0666529
0.0454996
0.034265
0.0516054
0.103139
0.0434952
0.0515907
0.015638
0.0393873
0.0315968
0.0435322
0.0652612
0.0449885
0.0471731
0.0464879
0.0365034
0.0817568
0.0516282
0.0417098
0.0595808
0.0477468
0.0425788
0.0573904
0.057285
0.0616808
0.0619439
0.051683
0.0458543
0.0533297
0.0312829
-0.0010266
-0.000246592
0.147084
0.0763567
-0.00663129
0.0334533
0.0510126
0.0541374
0.0605335
0.0757291
0.0519453
0.0300535
0.077615
0.0587386
0.0283766
-0.00642094
0.0238152
0.0509537
0.0403396
0.05149
0.0953883
0.235822
0.042267
0.0593018
0.0443269
0.00750448
0.0512633
0.0742544
0.0296764
0.0480257
0.0520978
0.0359869
0.0980148
0.0410776
0.0583372
0.0281576
0.0445952
0.0461524
0.0892276
0.0623963
0.0431873
0.0535726
0.0418022
0.0569851
0.0406439
0.0518925
0.0417082
0.0513659
0.0568993
0.0129521
0.0702987
0.0187947
0.0754639
0.0754719
0.0553737
0.0414896
0.0380833
0.0789391
0.0933396
0.0124946
0.0444299
0.0574761
0.0603136
0.0423226
0.050104
0.0463885
0.0387084
0.0303962
0.0302861
0.0470964
0.0166948
0.0422155
0.0810349
0.0430932
0.0453894
0.0405801
0.0261841
0.0855291
0.0559479
-0.0010862
0.0420104
0.0440347
0.0120886
0.054291
0.000777177
0.0537386
0.0444393
0.0489962
0.0495248
0.052464
0.0453078
0.00559233
0.0516062
0.0232036
0.0735529
0.053871
0.0599049
0.0358703
0.0973698
0.0624846
0.0519763
0.0376118
-0.0504316
0.0517145
0.0064617
-0.0617488
0.0676112
0.0869755
0.0551665
0.0435789
0.0319847
0.0732632
0.0608612
0.0515558
0.0938271
0.0129986
0.0826902
0.051631
0.0510732
0.045914
0.0467954
0.0474606
0.0678724
0.0782362
0.0484106
-0.00117621
0.0486899
0.05546
0.0440831
0.0343971
-2.69764e-05
0.0510946
0.0447434
0.0259609
0.0455633
0.0487228
0.0538516
0.127611
0.0750672
0.0520449
0.0642042
0.0555069
0.044407
0.0774447
0.0615802
0.046538
0.0647247
0.0395561
0.0644572
0.0863448
0.0041424
0.0258761
0.0521359
0.0719829
0.0497475
0.0539646
0.052918
0.0445057
0.00234924
0.000588882
0.0607909
0.0359219
0.0377967
0.0301951
0.0507122
0.0503591
0.0520449
0.0725227
0.0374841
0.0516705
0.0444979
0.0564804
0.0255309
0.0112341
0.0516752
0.0511968
0.0391182
0.0505406
0.0501061
0.0450355
0.0477943
0.0424879
0.0680007
0.0635904
0.0365088
0.0494419
0.0549899
0.0598018
0.0449761
0.0516188
0.0455147
0.0333907
0.00197585
0.00650285
0.0382543
0.122723
0.0454239
-0.0515025
0.090236
0.0449215
0.0436333
0.0557264
0.0508707
0.0516744
0.0561002
0.0585263
0.0444894
0.0531475
0.0508729
0.0980291
0.00706374
0.0358512
0.0518184
0.0568849
0.0648443
0.0719912
0.0351196
0.0537936
0.0515601
0.0500924
0.0457689
0.0308687
0.0288892
0.00766146
0.0636044
0.049931
0.0426199
0.0580316
0.0556162
0.0552035
0.0489447
0.0599321
0.0516905
0.0173303
-0.00180742
0.0509149
0.0682631
0.044331
0.0472586
0.04893
0.0528526
-0.0319888
0.0650852
0.000113997
0.0458401
0.0103824
0.0542617
0.069224
0.128848
0.0572818
0.0518542
0.0330584
0.0259196
0.111766
0.0447256
0.0684992
0.0475634
0.0512307
0.0669885
0.0492311
0.121923
-5.59814e-06
0.0799943
0.0547362
0.0502261
0.0516624
0.0498637
-0.0239677
0.0415158
0.051147
0.0582618
0.0499416
0.0511783
0.0510592
0.0125835
0.00471928
0.0564381
0.0504615
0.0835216
0.0575117
0.103277
0.398065
0.0234855
0.0461398
0.076032