/*--------------------------------*- C++ -*----------------------------------*\
  =========                 |
  \\      /  F ield         | OpenFOAM: The Open Source CFD Toolbox
   \\    /   O peration     | Website:  https://openfoam.org
    \\  /    A nd           | Version:  7
     \\/     M anipulation  |
\*---------------------------------------------------------------------------*/
FoamFile
{
    version     2.0;
    format      ascii;
    class       volVectorField;
    location    "1.397";
    object      U;
}
// * * * * * * * * * * * * * * * * * * * * * * * * * * * * * * * * * * * * * //

dimensions      [0 1 -1 0 0 0 0];

internalField   nonuniform List<vector> 
12359
(
(0.981977 0.00013551 3.07547e-17)
(0.969773 -0.00102964 8.59859e-18)
(0.999965 -8.54091e-06 3.48404e-17)
(0.940445 -0.000238611 2.52849e-17)
(0.97881 -0.00110121 6.07406e-18)
(0.889972 -0.000300864 3.85633e-17)
(0.852127 -0.000387424 -8.3383e-18)
(0.873007 -0.00102602 6.54308e-18)
(0.807364 0.00944943 -1.47983e-17)
(0.902319 -0.000725687 4.92701e-17)
(0.830567 0.00962034 4.25722e-18)
(0.746728 0.0294202 9.61152e-17)
(0.373835 0.0182113 -2.6233e-16)
(0.931013 -0.000259119 1.86351e-16)
(0.945753 -7.27377e-05 -3.68887e-17)
(0.564107 0.0251132 -2.23186e-17)
(0.482463 0.0289005 -7.77285e-17)
(0.994657 9.26302e-05 2.77269e-17)
(0.995159 8.62522e-05 -4.90855e-17)
(0.958032 -0.000994886 1.05692e-16)
(0.920751 -0.000138533 1.63433e-16)
(0.777376 0.0194328 -3.89002e-17)
(0.963647 -0.000108165 -7.61459e-17)
(0.953817 0.000622686 -2.74636e-17)
(0.966669 -0.00050077 3.26293e-18)
(0.96218 -0.000638902 -9.64857e-17)
(0.998681 -0.000102502 1.6855e-17)
(0.998826 -7.76315e-05 -4.32854e-18)
(0.996042 1.99941e-05 2.38758e-17)
(0.998152 -1.60917e-05 -2.88835e-17)
(0.997636 -0.000109392 1.66944e-17)
(0.999368 3.1005e-06 8.32155e-18)
(0.999758 -2.00237e-05 -1.14349e-17)
(0.998283 -3.53384e-05 -3.13917e-17)
(0.999907 -5.42942e-06 -1.33358e-17)
(0.99742 -0.000107836 2.48389e-18)
(0.988718 -0.000336621 7.17208e-17)
(0.983419 -0.000250508 1.76597e-17)
(0.980368 -0.000336624 -5.00078e-17)
(0.985607 -0.000318695 7.91314e-17)
(0.973397 -0.00144237 -5.74346e-17)
(0.984623 7.0798e-05 1.12995e-16)
(0.991366 -0.000259956 4.12376e-17)
(0.992131 -0.000104957 -5.53082e-17)
(0.996777 -0.000145415 2.79797e-17)
(0.996408 -8.08966e-05 -3.92991e-17)
(0.997085 -0.000120003 2.1765e-18)
(0.997915 -8.31138e-05 -1.2749e-17)
(0.995642 4.63108e-05 -1.92843e-17)
(0.998473 -0.000109297 -3.30831e-18)
(0.998947 -0.000101439 -3.95911e-17)
(0.999108 -2.45016e-05 -2.86682e-17)
(0.99943 -3.17372e-05 1.14776e-17)
(0.994215 4.08051e-05 -6.98866e-17)
(0.999562 4.28059e-05 2.33528e-18)
(0.999716 -3.73809e-05 1.14862e-17)
(0.992743 -0.000119949 -1.07349e-18)
(0.999764 -1.87371e-05 -1.3889e-17)
(0.999798 -1.59278e-05 -3.62537e-19)
(0.999888 1.64469e-05 3.04439e-17)
(0.999669 -1.52695e-05 6.76112e-18)
(0.999922 2.37063e-05 -4.88709e-17)
(0.999049 -7.64328e-05 -3.37539e-17)
(0.218368 0.0779935 -1.20292e-15)
(0.993602 -0.000100709 6.33323e-19)
(0.912121 -0.000300803 9.56722e-17)
(0.989671 4.98821e-05 4.71409e-18)
(0.999151 -1.99033e-05 -5.38284e-17)
(0.987861 -0.000716906 1.00318e-16)
(0.638471 0.0322202 1.51831e-17)
(0.0592232 0.0491438 1.016e-15)
(0.976287 -0.00150038 -4.57644e-17)
(0.999963 -1.51304e-05 -1.14472e-17)
(0.986644 -0.000739672 1.09127e-16)
(0.948683 -0.000696421 -9.36382e-18)
(0.999862 6.84624e-06 1.7541e-18)
(0.999432 -3.43904e-05 -2.1304e-17)
(0.999931 -1.13815e-05 1.70398e-17)
(0.989486 -0.000564326 -6.62447e-17)
(0.70509 0.00167872 -5.57681e-17)
(0.921428 0.0627441 -4.57966e-18)
(1.00375 0.0029924 7.02326e-19)
(1.00004 1.66419e-05 3.51818e-18)
(0.997927 0.0127273 3.4127e-18)
(1.0941 0.149397 -1.25296e-18)
(1.02288 0.00183062 -4.89254e-18)
(1.00385 0.0028069 -1.69206e-19)
(1.0016 0.000143168 -5.47328e-18)
(1.111 0.0766393 -1.17219e-17)
(1.08387 0.15945 -9.91708e-18)
(0.999937 0.00022372 1.576e-17)
(0.257063 0.193723 -4.56893e-16)
(1 -2.56186e-06 -1.57964e-17)
(0.999655 0.00654601 5.6706e-18)
(0.999193 0.0114579 -4.31891e-18)
(1.0381 -0.00196678 -3.75721e-18)
(1.00007 0.00549798 -4.06335e-18)
(0.999322 0.00633051 -3.58171e-19)
(0.990058 0.0306192 1.47178e-18)
(0.99396 0.0191153 -8.89141e-18)
(0.937188 0.0783418 1.39583e-17)
(1 2.45843e-05 -2.48692e-18)
(1.02178 0.00136683 -2.80085e-18)
(1.27492 0.10812 -6.3953e-19)
(1.00495 0.00106347 5.45187e-18)
(1.03378 0.0237908 4.16977e-18)
(1.0004 -5.93518e-05 -4.47278e-18)
(1.08913 0.152001 8.28182e-19)
(1.01916 0.00250019 -9.80794e-19)
(1.0338 0.0226793 1.19687e-18)
(0.999967 0.00508056 -1.99991e-18)
(1.00358 0.00301047 1.55484e-18)
(0.939834 0.044696 -1.03298e-16)
(0.956597 0.0748346 2.44476e-17)
(0.999016 0.0111241 1.77198e-17)
(1.0026 -0.000801638 -1.19233e-18)
(0.951571 0.0792572 3.94573e-17)
(1.00461 0.00248688 1.192e-17)
(1.12644 0.0637074 -1.34797e-17)
(0.999999 1.83866e-05 -8.68889e-19)
(0.999954 0.0052541 -3.60032e-18)
(0.856208 0.0252496 -1.17246e-16)
(1.00185 0.000124678 -4.93698e-18)
(1.03996 0.00796336 2.45793e-18)
(1.00484 0.00269604 -3.91816e-18)
(1.00334 0.000200227 8.41877e-19)
(1.00759 0.0949162 9.82511e-18)
(0.9981 0.0130445 1.63935e-17)
(0.999985 9.5604e-06 -8.13207e-18)
(1.00483 0.0023636 -5.68844e-19)
(1.00276 0.000588382 3.35366e-18)
(1.05085 0.0228811 5.19095e-18)
(1.05351 0.0215562 4.24183e-18)
(1.05156 0.0203331 5.19767e-18)
(1.00023 2.8974e-05 1.40903e-18)
(1.03916 0.00832484 6.25275e-18)
(1.0029 -0.000752516 -9.09621e-18)
(1.03933 0.00772321 4.37229e-19)
(1 0.000104913 -1.0154e-17)
(1.00743 0.0935914 -9.2145e-18)
(1 3.00769e-05 -1.98181e-18)
(0.981809 0.00214817 -6.32938e-17)
(1.0321 0.0142857 -9.66216e-18)
(1.00027 1.92005e-05 2.33412e-19)
(1.03897 0.041841 1.20487e-18)
(0.895894 0.0269682 1.57229e-17)
(1.00003 -7.76785e-06 -4.98145e-18)
(1.08644 0.12487 -1.56918e-17)
(1.0052 0.0012776 8.36123e-18)
(0.920028 0.0644711 -1.06693e-16)
(1.04242 -0.00214041 -2.18009e-18)
(0.999996 3.23743e-05 8.82995e-18)
(1.03185 0.0152976 -1.06422e-17)
(1.00192 0.000323334 3.58197e-18)
(1.00001 -3.18029e-06 1.14747e-19)
(0.552327 1.30283 -4.91262e-17)
(0.934355 0.0897633 1.1085e-17)
(1.05002 0.0226061 3.428e-18)
(1.00005 0.00553242 5.76235e-18)
(0.99926 0.000435364 1.96275e-17)
(1.00216 0.0462745 -1.36312e-18)
(0.999215 0.000601962 -8.32935e-18)
(1.04132 0.00711095 3.57589e-18)
(1.0347 0.0126637 -2.08444e-18)
(1.00004 8.82465e-05 -1.063e-18)
(1.00329 0.000234351 -1.98908e-18)
(1.00074 0.0462408 -3.88602e-18)
(0.873722 0.013678 -1.58426e-17)
(1.03309 0.0125146 4.71087e-19)
(1.11892 0.0752804 -4.21113e-18)
(0.999979 1.24102e-05 2.23462e-17)
(0.999963 6.92019e-05 -2.50776e-17)
(1.0342 0.0103724 3.27224e-18)
(0.9708 0.00266068 -3.3873e-17)
(1.00478 0.00105842 4.1469e-19)
(1.00359 0.0918314 -4.10857e-18)
(0.996676 0.000518296 -2.34403e-17)
(0.996696 0.000898412 1.93499e-17)
(0.936256 0.048065 -8.00062e-17)
(1.00346 0.0879281 -3.39749e-18)
(0.932359 0.00668312 2.33125e-16)
(1.00002 3.71161e-05 5.06264e-19)
(0.999979 2.13383e-05 -2.12982e-18)
(1.00397 0.00300386 -1.82195e-18)
(0.991191 0.0284532 3.82187e-18)
(0.863381 0.108106 1.8852e-16)
(1.00425 0.00610658 -6.9e-18)
(1.00002 0.0108422 -8.31696e-18)
(1.04306 0.00165408 1.85812e-18)
(1.00456 0.00606736 1.42603e-17)
(0.999635 0.0103281 -8.51863e-19)
(1.03842 -0.00176657 -3.33254e-18)
(1.03757 0.000277821 -4.14383e-18)
(1.00195 0.000317449 -7.2199e-18)
(1.03472 0.0215601 -4.12217e-18)
(1.09398 0.0963611 -1.77437e-17)
(1.01494 0.013052 5.7573e-18)
(1.00346 0.00629849 3.80433e-19)
(1.03142 0.0166682 -1.77844e-19)
(1.00452 0.00252939 -1.05915e-17)
(0.889511 0.028744 1.00008e-16)
(1.04032 0.00307647 1.35117e-18)
(0.992759 0.0190459 6.24816e-18)
(1.03393 0.0216202 5.57178e-19)
(1.0354 0.0399098 5.72607e-18)
(1.00001 4.40799e-05 -2.98213e-18)
(1.03691 0.0394842 6.62421e-18)
(0.992419 0.0184783 -9.9833e-19)
(1.04315 0.00896125 1.53854e-18)
(1.00545 0.00400995 6.33934e-18)
(1.00001 3.88881e-05 9.5305e-19)
(1.04667 0.0177396 4.36136e-18)
(1.04671 0.0184518 6.67613e-19)
(1.04566 0.111887 -3.36958e-17)
(0.826881 0.086335 -3.56275e-17)
(0.99996 1.7807e-05 -2.86695e-17)
(1.00391 0.00615244 -3.48403e-18)
(0.998908 0.0106777 -8.12332e-18)
(1.00409 0.00599946 2.82316e-18)
(0.980664 0.00120987 2.43654e-17)
(0.945342 0.0625405 -3.10916e-17)
(1.00551 0.00390832 -5.19113e-18)
(1.04077 0.00659308 1.73763e-18)
(0.473273 0.37499 -5.12657e-17)
(1.00543 0.00210457 -5.50496e-18)
(1.00002 4.84749e-05 -2.6525e-18)
(0.98125 0.00111362 1.03025e-16)
(1.01978 -0.00180464 3.34544e-18)
(1.00011 0.0880635 -6.54206e-19)
(1.00268 0.00680268 -2.48659e-18)
(1.00283 0.00657693 6.00231e-18)
(1.00003 -2.75627e-05 -2.11181e-19)
(1.03835 0.0423715 5.715e-18)
(0.992759 0.02413 5.16523e-18)
(1.00045 0.0106444 -3.60867e-18)
(0.993447 0.0217426 9.2405e-18)
(1.00001 2.98999e-05 -5.19917e-19)
(1.03252 0.0169014 -5.42378e-18)
(1.00034 0.010599 -6.37744e-18)
(0.635984 0.258338 -3.63429e-17)
(1.00009 9.29016e-05 -1.71283e-18)
(1.02486 -0.000477125 -4.70017e-18)
(1.00006 0.00787385 -1.1375e-17)
(0.981911 0.162787 4.68801e-18)
(1.00305 0.0497401 7.75084e-18)
(1.08534 0.127371 -4.93649e-18)
(0.999862 5.73915e-05 -4.51999e-17)
(1.04301 0.00745608 1.46141e-18)
(1.00465 -0.000193712 -8.18547e-18)
(1.03725 -0.00119204 -2.98644e-18)
(1.04467 0.0146257 4.57747e-18)
(0.985037 0.000262889 -2.03357e-16)
(0.997055 0.000743724 -1.64968e-17)
(1.00238 0.00654714 -7.68592e-19)
(0.482042 0.439488 1.04135e-16)
(1.22353 0.129866 3.38925e-18)
(0.999989 1.04526e-05 3.42747e-18)
(1.00541 0.00338772 6.77624e-20)
(0.350263 0.296179 1.38522e-16)
(0.402495 0.0295261 -1.26989e-18)
(0.993236 0.0193728 9.91689e-18)
(1.00236 0.0476302 3.39553e-18)
(1.00017 0.0831635 -1.71099e-17)
(1.03482 0.0194947 -5.32081e-18)
(0.973727 0.00101216 1.42661e-16)
(1.32438 0.343407 2.20585e-17)
(1.11841 0.0667392 -1.14527e-17)
(1.00274 0.0517704 3.63038e-18)
(1.00535 0.0028819 2.73692e-18)
(1.03903 0.00863467 2.9792e-18)
(1.03403 0.0113232 1.98806e-18)
(0.987302 0.0274574 -1.79663e-18)
(1.03318 0.0134701 -1.89612e-18)
(1.00227 0.0069194 1.36431e-18)
(1.00561 0.00380562 -2.13646e-20)
(1.00001 1.41352e-05 -1.1315e-19)
(1.00544 0.00309991 3.49837e-20)
(1.15207 0.115351 -1.10895e-17)
(1.0044 0.0524694 1.32874e-17)
(1.00035 7.18812e-05 2.16047e-18)
(0.999999 5.82822e-05 -2.69188e-18)
(1.0354 0.0201764 -3.59057e-18)
(1.00762 0.000523521 -9.32856e-18)
(0.991046 0.000581557 -2.57156e-17)
(1.02349 0.000171583 -4.54001e-18)
(1.00001 3.526e-05 -1.84365e-18)
(0.998612 0.0789769 6.37369e-19)
(1 1.17973e-05 -4.38872e-18)
(0.999996 -1.5438e-05 -3.87674e-18)
(0.999423 0.000125507 2.15941e-17)
(1.041 0.00648068 -1.53821e-18)
(1.00402 0.00254601 -8.11295e-18)
(1.40264 0.405465 3.73494e-17)
(1.00021 -6.59701e-05 4.04309e-18)
(1.00028 0.000217247 7.27549e-19)
(1.02191 0.00234175 -3.8196e-18)
(1.00414 0.0014875 6.00197e-18)
(0.943555 0.0690075 5.54555e-18)
(0.99907 0.00997073 -3.6341e-18)
(0.999042 0.00025696 -1.85087e-17)
(0.999951 7.20089e-05 2.98645e-19)
(1.14158 0.100829 -1.68383e-17)
(1.00145 0.0807691 -5.41828e-18)
(0.999958 6.46114e-05 5.27275e-18)
(1.00362 0.00622882 -5.66783e-18)
(0.999507 0.00918725 2.62509e-18)
(1.00504 -0.000910943 -4.40298e-18)
(1.00388 -0.000265503 -3.09388e-18)
(1.00289 0.000488054 -2.00105e-20)
(1.00453 0.000836986 2.81375e-18)
(0.99546 0.00160443 3.13512e-17)
(0.832164 0.0644006 3.03795e-17)
(1.00519 0.00387958 1.45077e-17)
(0.997917 2.91627e-05 1.30235e-16)
(0.985613 0.001125 -1.44524e-16)
(1.0253 0.0282319 1.11346e-17)
(1.10406 0.0590872 -2.62216e-17)
(1.00483 -0.000423385 -8.41021e-18)
(0.989458 0.0258941 -4.42707e-19)
(0.576123 0.0750753 -1.2571e-16)
(0.999994 5.52907e-06 2.38753e-18)
(1.02792 0.0134886 2.16524e-18)
(1.00047 -0.000420763 4.94077e-19)
(1.0146 0.0135943 5.07553e-18)
(1.00034 0.000204021 -2.81106e-18)
(1.00533 -0.00175149 2.71406e-18)
(0.771943 0.0337488 2.38292e-16)
(1.02865 0.0149848 -1.93854e-18)
(0.829715 0.0894826 -1.11604e-16)
(0.990879 0.000489693 7.8528e-18)
(1.00047 0.00842239 -8.64655e-18)
(1.03831 0.0026069 -3.45896e-18)
(1.04218 0.000287376 1.44781e-18)
(1.00057 0.00810998 3.07251e-20)
(1.03525 0.00147422 -4.7284e-18)
(1.03718 0.00224994 -4.95238e-18)
(1.00069 0.000100701 4.20424e-20)
(0.999549 0.000500618 7.02436e-18)
(0.999542 0.000398539 -8.92824e-18)
(0.999521 0.000460723 -1.40276e-17)
(0.99953 0.000357482 -1.66348e-17)
(0.690287 0.279275 -3.07818e-17)
(1.00003 5.62011e-05 2.8689e-19)
(0.939075 0.0774514 8.76439e-18)
(1.04383 0.00507694 -1.60145e-18)
(0.992403 0.0261219 7.08668e-18)
(1.03344 0.0145775 5.05604e-18)
(1.02843 0.0165428 -9.43432e-18)
(1.02121 0.00278109 4.37846e-18)
(1.01398 0.0128904 5.85494e-18)
(1.02929 0.0152925 -2.63688e-18)
(1.01349 0.012961 5.3374e-18)
(0.990804 0.0269493 9.24698e-18)
(1.02754 0.0300354 2.77175e-18)
(1.02612 0.0335941 3.00637e-18)
(0.954714 0.0503317 -1.43934e-17)
(0.981834 0.00239584 -3.86316e-17)
(1.03108 0.0826372 -1.30844e-17)
(0.983442 0.00195249 5.59579e-18)
(0.982329 0.00089672 -5.3239e-17)
(1.03085 0.0171427 -9.84319e-18)
(0.93845 0.0973477 3.50652e-18)
(1.00308 0.00291992 -3.99574e-18)
(0.999605 8.64868e-05 -1.90209e-17)
(1.01642 0.0120086 5.07207e-18)
(0.9996 5.66058e-05 1.6968e-17)
(1.00341 0.00322207 1.28873e-18)
(0.713493 0.0296793 4.92242e-18)
(0.0633146 0.0809393 -2.86539e-16)
(1.00329 0.00310371 -1.48018e-18)
(0.999972 1.88753e-05 2.33203e-17)
(1.00021 3.45348e-05 -9.52331e-19)
(0.999989 3.16505e-05 2.18322e-18)
(1.02959 0.0139606 -2.83303e-19)
(0.999997 2.32235e-05 3.05991e-18)
(0.999993 2.5403e-05 -5.5881e-19)
(1.11646 0.0821001 -1.64735e-17)
(1.03436 0.0122592 3.12905e-18)
(1.07918 0.177744 -9.38083e-18)
(1.00143 0.00352458 3.84686e-18)
(1.03661 0.0145806 9.69249e-19)
(1.0075 0.000901111 1.43294e-18)
(0.999866 0.00895844 -7.21528e-18)
(1.03167 0.0305951 8.78447e-18)
(1.01671 0.0115757 -6.14831e-18)
(0.937203 0.00362186 2.08187e-16)
(1.01625 0.0107442 4.62072e-19)
(1.00297 0.00276301 -1.63373e-18)
(1.00025 0.000198679 1.7734e-18)
(1.03452 0.0117594 2.33327e-18)
(1.03715 0.0146314 6.2482e-18)
(1.00567 0.00155586 3.8145e-18)
(0.70663 0.0216087 1.92838e-16)
(1.03177 0.0296984 6.81426e-18)
(1.03905 -1.1615e-05 -2.78996e-18)
(0.997764 0.0355484 -6.90433e-18)
(1.0005 0.0431829 -8.83224e-18)
(0.999984 0.000131188 -4.76328e-17)
(0.40948 0.572507 -1.87427e-16)
(1.03276 0.0846519 -1.50603e-17)
(1.00125 0.00371977 1.99142e-18)
(0.969068 0.182605 -3.01274e-18)
(0.984312 0.0011929 -1.30279e-16)
(0.999969 8.33476e-05 1.99066e-18)
(1.00001 3.57038e-05 4.67135e-19)
(0.999991 6.11188e-05 1.95885e-18)
(1.09045 0.175687 -4.90191e-18)
(0.944211 0.0959386 2.70506e-18)
(0.988495 0.0286407 -3.18182e-18)
(1.02878 0.0114058 -1.70693e-18)
(1.04604 -0.000279112 -1.86607e-18)
(0.999197 0.0116982 -7.84435e-18)
(0.926283 0.00781793 1.7552e-16)
(0.998272 0.0355772 -6.29532e-18)
(1.04755 0.0201007 -4.37093e-18)
(1.11447 0.0581131 -2.32397e-17)
(0.701124 0.0442677 1.78862e-17)
(0.993725 0.0258856 1.69975e-17)
(0.953461 0.0541416 1.68252e-17)
(1.01869 -0.000793116 4.76875e-18)
(1.02546 0.0390594 1.2101e-18)
(1.01208 0.0116146 -3.59788e-18)
(1.01644 0.013001 2.8548e-18)
(0.998387 0.000198189 3.37191e-17)
(1.01228 0.0115999 -3.50272e-18)
(1.03183 0.0128444 -5.05362e-18)
(0.999989 2.14857e-05 1.66175e-18)
(0.512157 0.0238895 -4.67528e-17)
(0.990313 0.00122671 -1.29937e-16)
(1.05611 0.00968119 1.60995e-18)
(1.03804 0.0125384 -2.85226e-18)
(0.993365 0.00126166 9.28201e-17)
(0.948673 0.0599011 -3.38793e-17)
(1.16508 0.252796 -4.26963e-17)
(1.02988 0.0166109 -1.11155e-17)
(1.00848 0.016663 -3.0064e-18)
(1.04225 0.00078781 -2.19661e-18)
(1.03813 0.0126495 7.68912e-19)
(1.02882 0.0347522 6.18149e-18)
(1.00441 0.00295323 -6.12723e-18)
(1.00001 2.61423e-06 2.8237e-18)
(0.993709 0.0711065 -1.1663e-17)
(1.00028 7.30725e-05 9.23317e-19)
(1.05164 0.0233451 3.77677e-18)
(1.0026 0.000238259 3.6592e-18)
(0.965273 0.0029752 8.92342e-17)
(0.961694 0.0413581 -1.59335e-18)
(1.01125 0.00159813 3.50469e-18)
(1.0941 0.123099 1.71446e-17)
(0.940731 0.0688487 2.97528e-17)
(0.994226 0.017536 1.61814e-17)
(1.00092 0.00410321 -3.58184e-19)
(0.591849 0.102453 -4.91315e-16)
(1.00052 0.000129927 1.28464e-18)
(1.00152 0.00318136 1.81075e-18)
(1.04283 0.0454704 7.80173e-18)
(0.999975 4.55557e-05 -2.6257e-17)
(1.00109 0.00423773 4.03001e-20)
(1.00152 0.00296322 3.39324e-18)
(0.732325 0.224435 5.15398e-17)
(0.667039 0.459183 -2.07505e-17)
(0.998313 0.0121271 -2.38427e-18)
(1.00127 -0.000451463 -3.83474e-18)
(0.9323 0.0343692 4.0556e-18)
(0.999371 0.0428309 -6.36603e-19)
(1.02863 0.0124319 -9.65221e-19)
(1.03227 0.0166793 -5.63399e-18)
(1.03344 0.0123666 2.1015e-18)
(1.00069 -8.22278e-05 1.69295e-18)
(0.999995 4.74656e-05 2.62524e-18)
(0.999731 0.0380939 -6.26413e-18)
(0.999978 1.11078e-05 2.78192e-18)
(0.961341 0.0428947 3.54467e-18)
(1.02798 0.0126029 3.74655e-18)
(1.02571 0.0369709 2.79751e-18)
(0.996916 0.00077477 2.63375e-18)
(0.995422 0.0692198 6.46238e-18)
(1.04488 0.0441531 -2.52402e-17)
(0.998231 4.85049e-05 -1.59265e-16)
(1.00135 0.0118912 1.41035e-18)
(1.00575 0.00197372 -1.04445e-18)
(0.929586 0.0463832 -2.00657e-17)
(1.04298 0.0459468 -6.60918e-18)
(0.999985 7.26812e-05 9.5195e-19)
(0.999869 0.0398415 5.51098e-18)
(1.03471 0.00921447 -1.42348e-18)
(1.0169 0.000525463 -2.15702e-18)
(0.998912 0.0409494 -5.97836e-19)
(1.00323 -0.00015288 -4.5739e-19)
(0.929536 0.0927279 1.68024e-17)
(1.0285 0.00400631 -1.17136e-18)
(1.03896 0.00970931 -5.56062e-19)
(1.02687 0.0346286 8.85726e-18)
(1.00077 0.000135304 5.32838e-18)
(1.00117 0.0121276 -8.9196e-18)
(1.05212 0.0662742 2.73493e-18)
(1.05375 0.0204616 -2.37693e-19)
(0.999994 2.19037e-05 -3.34721e-19)
(1.01107 0.0168378 8.03544e-18)
(0.984418 0.176966 -3.04359e-17)
(1.03993 0.00382877 4.28499e-18)
(0.506151 0.466222 -5.20676e-17)
(1 3.62957e-05 -6.34214e-18)
(1.00268 0.000519592 6.52271e-18)
(1.00059 0.000144402 -4.08887e-19)
(1.03251 0.0157247 -8.34561e-18)
(0.994282 0.0195708 -1.51298e-17)
(0.995296 0.0139054 1.55489e-18)
(1.00335 0.000427198 8.3351e-18)
(0.998347 0.0379548 2.76267e-19)
(1.01767 0.0130829 5.32129e-19)
(0.972581 0.00407283 6.06553e-17)
(1.00928 0.00143284 2.87569e-18)
(1.0783 0.0985948 -1.24956e-17)
(1.00012 0.00014041 3.42348e-18)
(1.08211 0.112477 4.94936e-18)
(1.00155 0.000356124 6.03707e-18)
(0.631523 0.625942 -1.38082e-17)
(1.03019 0.0015158 2.83931e-19)
(1.04907 0.0684601 5.85718e-18)
(0.999848 2.9419e-05 -7.92958e-17)
(0.997158 0.000786278 -2.37124e-17)
(1.02598 0.0294193 1.30961e-17)
(1.00397 0.00239564 -4.7685e-18)
(0.999116 0.00012966 -4.19229e-17)
(0.992448 0.000227964 1.84778e-16)
(0.994089 0.0211556 -4.53661e-18)
(0.993647 0.0206475 1.53175e-17)
(0.963202 0.160736 -1.44836e-17)
(1.03353 0.0349374 -1.07413e-17)
(1.0341 0.0342057 -1.07637e-17)
(1 2.32607e-05 -7.31161e-19)
(1.0043 0.00240441 4.98605e-18)
(1.02837 0.0136858 -1.80763e-18)
(1.05276 0.0195786 1.00715e-18)
(1.00001 -2.04381e-06 1.84934e-19)
(1.00041 0.000247005 -1.96851e-18)
(1.03489 0.0101283 1.29209e-18)
(1.00063 0.000148025 1.04724e-18)
(0.789078 0.0425964 -1.75378e-16)
(1.1557 0.258719 -3.4354e-17)
(1.03958 0.0222415 3.29011e-17)
(1.00001 1.64002e-05 1.8343e-18)
(1.00684 0.00981718 -6.91268e-19)
(1.04504 0.014713 3.74609e-19)
(0.994897 0.0148599 1.40689e-17)
(1.00454 0.00102872 4.53589e-20)
(0.368065 0.653223 1.27973e-16)
(1.00027 -1.76283e-05 -2.1488e-18)
(0.928872 0.0771817 -7.77628e-18)
(0.957579 0.0481903 -1.67166e-18)
(1.00692 0.00992456 -3.42595e-18)
(1.00401 0.000864422 1.77087e-18)
(0.998983 0.000143976 -5.51153e-17)
(1.01104 0.000461415 3.38912e-18)
(1.04459 0.00447071 -2.66204e-18)
(1.01736 0.00932934 7.43994e-21)
(0.99668 0.012068 8.68363e-18)
(0.999996 7.24946e-06 4.21842e-19)
(1 2.90837e-05 4.79385e-17)
(0.994415 0.017662 1.50064e-17)
(0.996567 0.00168584 2.22295e-17)
(0.991449 0.0615817 -1.74773e-17)
(1.03286 0.0148459 -3.90612e-19)
(0.999436 8.07339e-06 -1.01401e-17)
(1.00033 0.000239402 6.41542e-19)
(1.02703 0.0316462 7.36282e-18)
(0.568125 0.000116782 -4.39106e-18)
(0.998034 0.000225739 1.20193e-16)
(1.04724 0.0196793 -3.96509e-18)
(1.00019 4.5471e-05 -1.63362e-18)
(0.996195 0.0118301 9.88813e-18)
(0.949523 0.0823858 -2.18363e-17)
(1.04399 0.0015405 -2.69325e-18)
(1.04407 0.0144735 7.32133e-18)
(0.950549 0.0564363 6.26586e-17)
(1.00227 0.0197861 -1.41109e-17)
(1.04351 0.00710673 2.12582e-18)
(1.00001 4.80348e-05 -6.60765e-19)
(0.99994 3.11613e-05 -5.77712e-17)
(1.04076 -0.00112329 -3.54203e-19)
(1.01085 0.0103325 6.43203e-19)
(1.00272 0.0201978 -5.19156e-18)
(1.01098 0.0104346 -9.51553e-18)
(0.999997 5.961e-05 2.9549e-18)
(1.0004 0.000169499 1.09635e-18)
(1.00388 0.000252208 5.18347e-18)
(0.998832 0.0310149 -1.56573e-17)
(1.04389 0.0084864 -1.18082e-18)
(0.945919 0.0410928 -1.32015e-17)
(0.99014 0.000941872 -1.67728e-16)
(0.930724 0.0369293 1.3515e-17)
(1.03168 0.0156094 -8.05862e-18)
(1.00857 0.0182204 -1.40086e-17)
(0.935773 0.0463911 -1.67182e-17)
(0.985266 0.0219117 1.14469e-17)
(1.05501 0.00674946 1.60989e-17)
(1.03373 0.0135087 4.10838e-18)
(0.984401 0.0217782 4.68604e-18)
(0.993092 0.0599805 -1.70018e-18)
(0.999882 9.83627e-05 -1.67302e-17)
(1.00881 0.0671066 -3.19571e-18)
(1.0267 0.0288976 1.3589e-17)
(1.00002 -5.75621e-06 3.13492e-18)
(0.999993 2.05591e-06 2.42488e-17)
(1.00071 -4.12485e-05 -2.12475e-18)
(0.999746 0.000321893 -3.38045e-18)
(1.06264 0.0756675 5.03172e-18)
(1.01054 0.0175133 2.00367e-18)
(1.01359 0.00214064 -1.52819e-19)
(0.941509 0.0444081 4.57529e-17)
(0.991964 0.000306025 1.39112e-16)
(0.800777 0.0184504 1.30651e-16)
(1.04023 0.00287069 2.27682e-18)
(1.04298 0.00575181 9.36755e-19)
(1.00423 -0.000268894 5.79091e-19)
(1.04963 0.0449374 -6.2664e-18)
(1.00001 4.4759e-05 -6.03354e-18)
(0.997652 0.0307462 -4.8497e-18)
(1.00041 0.00396252 3.68997e-19)
(0.934934 0.114211 1.06701e-17)
(0.935038 0.0528731 3.28308e-17)
(1.00182 0.0169498 -1.43322e-17)
(1.01732 0.0126174 -4.59912e-18)
(0.446267 0.645746 9.11492e-18)
(1.03149 0.0141562 -4.9239e-18)
(1.04118 0.0659959 8.7456e-19)
(1.00947 0.0133723 7.54952e-18)
(0.97342 0.148223 1.66459e-17)
(1.14434 0.213012 -3.85825e-17)
(1.00096 -0.000239843 5.33816e-19)
(0.998282 0.00357896 -7.22085e-18)
(1 1.83925e-05 1.40113e-20)
(1.05657 0.0712563 8.67289e-18)
(0.998381 0.00341955 -6.89229e-18)
(1.01639 0.010026 1.24303e-18)
(1.09621 0.119149 1.08639e-17)
(1.00043 -0.00019444 -8.30414e-19)
(0.972615 0.00339599 -1.28102e-16)
(0.99062 0.0528057 2.11769e-18)
(1.00686 0.0158652 -2.9451e-19)
(0.997718 0.000254224 2.01876e-17)
(1.0015 0.0176889 -3.78124e-18)
(0.999358 0.000753787 1.49338e-17)
(0.994765 0.0164482 1.9726e-18)
(0.999363 0.000645814 -2.29554e-18)
(0.999367 0.000813602 1.28728e-18)
(0.995547 0.0139998 1.02791e-17)
(1.03928 0.0086706 4.69942e-18)
(1.03665 0.00966648 -5.70642e-18)
(1.00683 0.0174405 4.72829e-18)
(0.654383 0.045709 7.79711e-17)
(1.04333 0.00293419 -9.27435e-19)
(0.309999 0.289769 -2.42744e-16)
(1.03023 0.0164048 -7.03584e-18)
(1.02353 0.000473568 1.15366e-19)
(0.995248 0.0148425 -8.06719e-20)
(1.02917 0.0162998 -7.65894e-18)
(0.991418 0.0274176 -2.6807e-18)
(1.04033 0.00421112 -3.06308e-18)
(0.541777 0.38562 -1.63563e-16)
(0.950791 0.0358971 3.54646e-17)
(0.992379 0.0252602 -8.10526e-18)
(1.00442 0.0237774 1.33896e-18)
(0.99495 0.00106902 -1.88415e-18)
(0.996509 0.00108098 1.47153e-17)
(1.02629 0.0317709 8.47511e-18)
(0.999998 3.38869e-05 -1.2626e-18)
(1.07233 -0.0130905 1.36288e-17)
(0.999517 1.49317e-05 2.19533e-18)
(0.946764 0.0383694 -1.30131e-17)
(0.997685 0.0754194 1.76046e-17)
(1.06047 0.068593 -2.33428e-18)
(1.03968 0.0287225 7.27413e-21)
(1.03576 0.0169047 -1.61281e-18)
(0.991784 0.0517651 -8.45542e-18)
(1.0091 0.0136899 6.82875e-18)
(1.03932 0.0285675 -2.59078e-18)
(0.97092 0.0310839 1.29122e-17)
(1.04226 0.0662985 -6.13513e-18)
(1.00765 0.0230388 -2.06661e-17)
(1.0447 0.0443427 -1.81635e-17)
(1.00505 0.0238592 5.30969e-18)
(1.00001 2.42645e-05 -7.19393e-19)
(0.998152 0.0268764 -6.84887e-18)
(0.663712 0.0638874 3.88834e-17)
(0.970688 0.137872 -2.1031e-17)
(1.00642 0.00596983 6.26241e-21)
(1.00005 -1.30493e-05 -1.18138e-18)
(0.999271 0.000160706 -3.38864e-17)
(0.994329 0.00789122 1.55541e-17)
(0.967528 0.00276558 -7.12165e-17)
(1.03627 0.00889169 -5.03133e-18)
(1.03007 4.15628e-05 -2.72979e-18)
(1.00076 -3.8514e-05 2.02712e-18)
(1.00492 0.00710886 -2.93205e-18)
(0.993039 0.0280651 -1.40332e-17)
(1.00648 0.00573948 -6.0091e-18)
(1.00904 0.00101275 -3.03521e-19)
(1.04585 0.0392356 -1.72197e-17)
(0.993684 0.00158356 3.39305e-17)
(0.990459 0.0359642 -5.70737e-18)
(1.03767 0.0175289 8.84786e-18)
(1.00529 0.00672845 3.89373e-18)
(1.00798 0.00707714 -6.68061e-19)
(0.941006 0.0636212 1.85829e-17)
(1 -1.92006e-05 -1.91998e-18)
(0.993251 0.00582107 1.99663e-17)
(1.2888 0.175841 -1.93316e-18)
(0.999862 3.95438e-05 2.17909e-16)
(1.04037 0.0421511 5.78636e-19)
(0.995185 0.0746894 2.30276e-18)
(1.00762 0.00705039 -3.58851e-18)
(0.958489 0.0454926 3.11593e-17)
(1.03749 0.0174236 1.0148e-17)
(0.997348 0.0266545 -8.08989e-18)
(1.02881 0.0365074 6.63573e-18)
(0.999633 0.00340707 -1.55965e-18)
(0.938665 0.038304 -2.68216e-17)
(1.00486 0.00178497 7.67938e-18)
(1.03493 -0.000467222 -2.06096e-18)
(1.03638 0.017427 1.34601e-18)
(0.937125 0.0411871 1.07492e-17)
(0.999815 0.00343522 -4.62428e-19)
(1.04404 0.00690169 2.44726e-18)
(1.05494 0.0273351 -4.98765e-19)
(0.991619 0.0353282 1.00447e-17)
(1.00592 0.0141362 1.13727e-17)
(1.00464 0.00314045 -1.13677e-18)
(1.0105 0.0677002 -8.73438e-18)
(0.777469 0.202861 -1.05072e-17)
(0.995562 0.000989303 -5.2459e-18)
(0.999958 3.9041e-05 -4.01204e-17)
(0.993393 0.0261745 6.92158e-18)
(0.999985 -6.90276e-06 -5.59795e-18)
(1.14592 0.209729 -2.13325e-17)
(1.00622 0.0235666 -1.14152e-17)
(1.03499 0.0917504 -7.44818e-18)
(1.01618 0.0082496 -2.87361e-18)
(1.0294 -0.000409329 -1.08785e-19)
(0.257101 0.142751 -7.66959e-16)
(1.00638 0.0161627 -6.74177e-19)
(1.07924 0.207417 8.96313e-18)
(1.03563 0.0089859 -4.74914e-18)
(0.940072 0.0210998 4.96481e-18)
(1.02884 0.013902 -7.658e-19)
(0.996675 0.0123889 6.94894e-18)
(1.00641 0.0151324 -6.4538e-18)
(1.01707 0.00172509 -2.77448e-18)
(1.09082 0.105601 1.90983e-17)
(1.07892 0.099088 -1.47376e-18)
(1.00142 0.000194564 5.5463e-18)
(1.0018 -0.000306388 1.65231e-18)
(0.924362 0.0461569 6.62364e-17)
(1.00203 -0.000231729 7.16779e-18)
(0.693084 0.391316 2.18657e-17)
(1.028 0.034433 6.38651e-18)
(0.965019 0.169565 -2.34055e-17)
(1.00424 0.00335433 2.94563e-18)
(0.0720996 0.311143 -4.72297e-16)
(1.11984 0.233466 -1.09048e-17)
(1.00575 0.0232839 -5.1584e-18)
(0.999994 1.69758e-05 2.59214e-18)
(0.99991 0.00297119 5.78885e-18)
(0.955158 0.0318487 2.01553e-17)
(0.994258 0.00822152 -3.45898e-18)
(0.988896 0.000188836 -5.95015e-17)
(0.996866 0.00998985 -1.06334e-17)
(1.03197 0.013952 -1.41928e-17)
(0.970644 0.0310141 9.24479e-18)
(1.07588 -0.0114595 -2.71995e-17)
(0.605144 0.0400008 -4.97356e-17)
(1.00076 -9.4169e-05 3.18443e-18)
(0.965696 0.0376149 -1.64248e-17)
(1.03357 0.0320737 7.53163e-19)
(0.927265 0.0557489 8.55929e-17)
(1.0046 0.0134552 1.49526e-19)
(0.930492 0.079299 4.12395e-17)
(1.03873 0.0103089 -1.79185e-18)
(0.9517 0.0347609 -7.32071e-18)
(0.997438 0.000622444 -1.15114e-16)
(1.00007 1.23951e-05 -3.25401e-18)
(1.03813 0.0273114 -8.54936e-18)
(1.04097 0.0285209 -5.07192e-18)
(1.02853 0.00186752 1.76657e-18)
(0.922477 0.0387042 -4.61907e-17)
(1.03258 0.0903631 -6.48551e-18)
(1.02362 0.000271436 4.53637e-19)
(0.996993 0.025346 -7.50462e-18)
(1.00044 0.00412656 -5.61995e-18)
(1.00973 0.00917238 2.56533e-18)
(0.787318 0.0274103 2.85029e-17)
(1.0097 0.00920534 -1.40739e-18)
(1.03554 0.0240504 -1.2785e-18)
(0.981581 0.0419389 -4.1581e-18)
(1.02739 0.0108339 -3.49173e-18)
(1.01183 0.000442566 -1.36676e-18)
(0.996152 0.0117221 -3.82984e-18)
(1.05336 0.0257922 -3.84887e-18)
(1.01548 0.00761112 -2.36797e-18)
(1.00507 0.0137182 1.8107e-18)
(1.06936 -0.0189555 -9.68326e-18)
(0.990088 0.0306187 -2.12948e-17)
(1.02096 0.00173907 3.38646e-18)
(0.788455 0.335568 -5.99785e-18)
(1 1.01234e-05 -5.10816e-19)
(1.01565 0.00848858 -4.88541e-18)
(0.998303 0.0217245 -2.7198e-18)
(0.992112 0.00727897 5.49168e-18)
(1.00316 0.00092551 4.34104e-18)
(0.9977 0.0250373 1.4563e-19)
(1.00002 6.86913e-06 1.05217e-18)
(1.0416 0.111006 -3.21991e-19)
(1.00566 0.00116184 -8.45317e-18)
(0.970072 0.0049244 2.89321e-17)
(1.0353 0.0365633 -4.36043e-18)
(0.951067 0.0499368 -6.98766e-18)
(1.01714 0.0100793 -1.12859e-18)
(1.01646 0.00886818 -4.13712e-18)
(1.03752 0.0271548 -7.73427e-18)
(1.01918 0.130255 -2.07713e-17)
(0.999863 6.40698e-05 -3.86224e-17)
(0.993017 0.000448641 2.2364e-17)
(1.02208 0.00069669 -3.062e-18)
(1.09682 0.203367 -3.935e-18)
(1.04057 0.0283373 -2.83082e-20)
(0.999821 0.00319407 1.71977e-18)
(0.244407 0.0828311 -1.09265e-15)
(1.00004 3.03086e-05 1.22304e-18)
(1.00508 0.00151039 -1.1028e-17)
(0.639403 0.0105097 3.14691e-17)
(0.994366 0.00541193 1.04686e-17)
(0.99953 0.00357154 1.38959e-18)
(0.999462 0.00388698 1.58974e-18)
(0.98279 0.0394985 1.11186e-17)
(0.958744 0.0285285 6.80103e-18)
(0.999852 3.44928e-05 -7.96567e-17)
(0.993353 0.00672891 1.81269e-17)
(0.936674 0.0665983 7.25361e-18)
(0.997782 0.021758 -7.76179e-19)
(0.995388 0.0180246 4.45341e-18)
(0.996448 0.00981571 -1.57492e-17)
(1.00106 0.000175177 -2.29502e-18)
(0.956744 0.031564 3.04918e-17)
(1.0647 0.0649329 8.8469e-18)
(0.994464 0.016312 9.46015e-18)
(0.923665 0.0318445 -2.65221e-17)
(1.03629 0.00700634 -9.9084e-20)
(1.03689 -0.000971952 -4.25509e-18)
(1.03835 0.10913 -1.69738e-18)
(1.03233 0.0323873 -4.4269e-18)
(0.996395 0.00991855 -9.77614e-18)
(1.00512 0.00162377 -5.13795e-18)
(1.08252 0.109452 -1.29721e-17)
(1.04082 0.00798728 -4.95865e-21)
(0.975729 0.0257198 -1.17192e-17)
(1.00069 0.00425068 -1.11184e-19)
(0.999709 0.000232889 -1.30888e-17)
(0.92959 0.0127372 -1.97662e-17)
(1.04967 0.0453384 7.46624e-19)
(1.0147 0.0073899 -6.5542e-18)
(1.01018 0.0509302 -1.14752e-17)
(1.01503 0.00803826 -8.24787e-18)
(0.996722 0.0102056 -7.21981e-18)
(1.0054 0.00505406 -2.13916e-18)
(0.962842 0.0354967 1.41553e-19)
(0.79618 0.0237768 -5.59791e-17)
(0.307708 0.423902 4.66703e-17)
(0.964525 0.0386724 1.5469e-17)
(0.998418 0.0185914 -5.8881e-18)
(1.00554 0.00475984 -2.14832e-18)
(0.967947 0.0346243 1.4656e-17)
(0.577291 0.307049 4.38401e-18)
(0.93911 0.0331242 -1.11486e-16)
(0.999835 0.00321507 2.09938e-18)
(1.04757 0.0381359 -8.61064e-18)