/*--------------------------------*- C++ -*----------------------------------*\
  =========                 |
  \\      /  F ield         | OpenFOAM: The Open Source CFD Toolbox
   \\    /   O peration     | Website:  https://openfoam.org
    \\  /    A nd           | Version:  7
     \\/     M anipulation  |
\*---------------------------------------------------------------------------*/
FoamFile
{
    version     2.0;
    format      ascii;
    class       surfaceScalarField;
    location    "1.46";
    object      phi;
}
// * * * * * * * * * * * * * * * * * * * * * * * * * * * * * * * * * * * * * //

dimensions      [0 3 -1 0 0 0 0];

internalField   nonuniform List<scalar> 
18389
(
-7.97373e-05
7.97373e-05
4.34672e-05
-4.34672e-05
-5.20443e-05
5.20444e-05
4.01655e-05
-4.01655e-05
-5.18278e-05
5.18278e-05
-4.00324e-05
4.00324e-05
-3.4735e-05
3.4735e-05
3.90642e-05
-3.90642e-05
-3.574e-05
3.574e-05
4.14853e-05
-4.14853e-05
4.5123e-05
-4.5123e-05
-3.46971e-05
3.46971e-05
-1.58266e-05
1.58266e-05
-4.28652e-05
4.28652e-05
4.34756e-05
-4.34756e-05
2.45543e-05
-2.45543e-05
1.95179e-05
-1.95179e-05
4.58987e-05
-4.58987e-05
4.59315e-05
-4.59315e-05
4.33408e-05
-4.33408e-05
-4.2599e-05
4.2599e-05
3.56755e-05
-3.56755e-05
4.3014e-05
-4.3014e-05
-5.84591e-05
5.84591e-05
-4.97381e-05
4.97381e-05
-4.18071e-05
4.18071e-05
-4.45457e-05
4.45458e-05
4.56279e-05
-4.56279e-05
4.58613e-05
-4.58613e-05
4.41472e-05
-4.41472e-05
-4.1347e-05
4.13471e-05
-6.30742e-05
6.30742e-05
4.31167e-05
-4.31167e-05
-4.47518e-05
4.47518e-05
4.08602e-05
-4.08602e-05
4.67041e-05
-4.67041e-05
-4.55543e-05
4.55543e-05
5.35784e-05
-5.35784e-05
-5.8919e-05
5.8919e-05
3.78803e-05
-3.78803e-05
4.48718e-05
-4.48718e-05
4.53858e-05
-4.53858e-05
-4.10146e-05
4.10146e-05
4.49065e-05
-4.49065e-05
4.58774e-05
-4.58774e-05
-4.5861e-05
4.5861e-05
-4.58615e-05
4.58615e-05
-4.06687e-05
4.06687e-05
-4.58915e-05
4.58915e-05
4.5944e-05
-4.5944e-05
4.59579e-05
-4.59579e-05
4.46212e-05
-4.46212e-05
3.77326e-05
-3.77326e-05
-4.57704e-05
4.57704e-05
-5.55465e-05
5.55466e-05
-4.38141e-05
4.38141e-05
4.57563e-05
-4.57563e-05
-4.59945e-05
4.59945e-05
4.32277e-05
-4.32277e-05
-5.93196e-05
5.93197e-05
-4.71474e-05
4.71474e-05
4.96054e-05
-4.96054e-05
4.57375e-05
-4.57375e-05
-1.25137e-05
1.25137e-05
4.57775e-05
-4.57775e-05
4.15248e-05
-4.15248e-05
5.12165e-05
-5.12165e-05
-4.58711e-05
4.58712e-05
4.23172e-05
-4.23172e-05
3.16286e-05
-3.16286e-05
3.25501e-06
-3.25501e-06
-4.41241e-05
4.41241e-05
3.28686e-05
-3.28685e-05
-3.65736e-05
3.65736e-05
3.97735e-05
-3.97735e-05
2.66256e-05
-2.66256e-05
2.61999e-05
-2.61999e-05
2.70487e-05
-2.70487e-05
2.4393e-05
-2.4393e-05
1.34297e-05
-1.34297e-05
0.00107516
-0.000882138
-0.000193023
0.0054671
-0.00207592
-0.00339118
-0.00594623
0.00594618
4.88161e-08
0.0033541
-0.002598
-0.00075611
-0.00154372
0.00176205
-0.000218324
-0.00676686
0.00284513
0.00392174
0.00121521
0.0042519
0.00725565
-0.00587616
-0.00137949
0.00116403
-0.00191393
0.00074991
-0.000869878
-0.000673846
-0.00144237
-0.000314614
0.00175699
0.000158943
-3.1192e-06
-0.000155823
0.000778393
-0.00222077
-0.00360336
0.000123273
0.00348008
-0.00320239
0.00289137
0.000311019
-0.00571915
0.0072728
-0.00155366
-0.00370938
0.00289674
0.000812631
-0.000564386
-0.00303898
-0.00174662
0.00238781
-0.000641192
-0.000465339
0.00255839
-0.00209305
-0.00160855
0.00110855
0.000500004
0.000583529
0.00058183
-0.00160148
-0.00516539
0.00123083
-0.00178643
0.000555602
0.00578143
-0.00386227
-0.00191915
-0.000654576
0.00330952
-0.00265495
-0.0058351
0.00583554
0.000488976
0.00127307
-0.00634404
0.00097161
0.00537244
0.00233015
-0.00298473
-0.00379008
0.00311354
0.000676542
0.00214834
-0.00422425
0.00108957
-0.000204151
-0.000885419
0.00150254
-0.00128889
-0.000213648
-0.00280102
-0.000401357
0.0053506
-0.00535368
0.000367775
0.00113476
0.00522949
-0.0013376
-0.0038919
0.00200062
-0.000836591
0.00308565
0.00190873
-0.00499437
-0.000722325
-0.00306776
-8.86133e-05
-0.000155287
0.0002439
0.00393554
0.0033201
0.00117487
-0.00489944
0.00372456
0.00162787
0.00360163
-0.00498068
0.00632137
-0.00134069
-0.00113251
-0.000593867
0.00172638
0.00133833
0.00201577
0.000135293
0.000103627
-0.00023892
0.0050233
-0.00339543
0.00645974
-0.000841697
-0.00561805
0.0032222
-0.00265496
-0.000567232
0.0022323
0.000441722
-0.00267403
0.00295559
-0.00072328
0.00650382
-0.00539839
-0.00110541
0.000512372
-0.00387874
0.00336637
7.09973e-05
0.00638875
0.00481724
-0.00430487
-0.000535794
0.00105936
-0.000523565
-0.00175733
0.000624817
0.00191715
0.00224902
-0.00416617
0.000253431
-0.000333595
8.01633e-05
-0.00127392
-0.00284435
0.00411827
-2.6124e-05
0.00652995
-0.00281856
0.00228918
0.000529389
0.000387381
-1.22469e-05
-0.000375134
-0.00569227
-0.000253959
0.00187445
-0.00138547
0.000827592
0.00495384
0.000892866
0.000182299
0.00264686
-0.00646599
0.00381914
-0.0011202
0.000584407
0.0026371
-0.00391102
0.00619692
-0.00226136
0.0010921
0.00117728
-0.000787014
0.00102862
-0.000241605
-0.00111045
-0.000498104
0.00190078
0.00132141
-0.000595839
0.00142983
-0.00123773
-0.000192098
-0.00265446
0.00198512
0.000669346
0.0011671
0.000262735
0.0011459
-0.00498882
0.00384292
-0.00476474
0.00142499
0.00333975
-0.00455431
0.00611794
-0.00156363
-0.00506279
8.21124e-05
-0.0020169
-0.000637565
-0.000213814
0.000125201
-0.00123344
0.00465675
-0.00342331
-0.00122816
-0.000685773
0.000103316
-0.000192026
8.87097e-05
0.000126295
-2.29797e-05
-0.00126597
0.00464609
-0.00338011
-0.000156004
2.44208e-05
0.000131583
-0.00556874
0.00170648
-0.00118735
-0.000569981
-0.000449528
-1.89442e-05
0.000468472
-0.000543405
9.38756e-05
0.00101348
7.60835e-05
-0.00180708
0.000619736
-0.000150242
1.71036e-05
0.000133138
0.00136798
-0.00234447
0.000976496
0.000271105
-0.000135811
-0.00392597
0.00514118
-0.00245635
0.00070974
-9.45595e-05
-0.000428255
0.000522815
0.00568678
-0.00217019
-0.00351659
7.62988e-05
0.00250786
-0.00258416
0.00447467
-0.0056217
0.00114704
0.00263384
0.00305294
0.00291314
-0.00283684
-0.00616316
0.000444024
-0.00647166
0.00362868
0.00284298
0.00229407
0.00390285
-0.00439352
0.00138666
0.00300686
0.00149976
-0.000268926
-0.00102832
0.00402284
-0.00299451
0.00463987
-0.00162741
-0.00301247
-0.00461264
0.00374693
0.000865722
0.00369351
-0.00503111
5.8788e-05
0.000328593
-0.00137964
0.00585432
-9.3438e-05
0.00214917
-0.00205572
-0.00206337
0.00260469
0.000178657
-0.00278335
-0.00127743
0.0026454
-0.000652944
0.00325763
0.00164033
-0.00173376
0.000917303
0.00397276
-0.00489007
-0.00504258
0.00384425
0.00119834
0.00255186
-0.00359409
0.00104224
-0.00334272
0.00412085
-0.000778129
0.000332458
-0.00367518
-0.000869968
0.000869968
-0.00044863
0.00035407
-0.000126984
-0.00097347
0.00110045
0.00507058
-0.00184361
-0.00322696
-0.00243317
-0.000367858
0.00290039
0.000157764
1.65563e-05
-0.00017432
-0.00146838
0.00112182
0.000346561
-0.000141038
-0.00490155
0.00506759
-0.00389272
0.000259829
-0.000100887
0.00444486
0.000578436
0.00406759
-0.00151572
0.000164855
-7.09125e-06
-0.00633573
-0.00098063
-0.000826456
0.00430083
-0.00190522
-0.00239561
0.002756
0.00154483
0.0010777
-0.00563199
-0.0022557
-0.00056286
-0.00111876
-0.000959203
0.00207796
3.83912e-05
-0.00272167
0.00268328
-0.00235727
0.00123852
-0.00221814
0.0053038
-0.00462553
0.00160926
0.00301627
0.00254625
0.000670681
-0.000334547
-0.000336134
-0.00601387
0.000583085
0.00543079
-0.00418568
0.00583131
-0.00164563
0.00182597
0.00162898
-0.00345496
-0.00166945
0.000899961
0.000769487
-0.00271571
0.00207876
0.000636949
0.00109624
0.00077821
0.000247197
-0.000328939
8.17432e-05
0.00491489
-0.0039976
-0.00638606
0.00557257
0.000813492
-0.00479313
-0.00167853
0.00334064
0.000654509
-0.00399514
0.000153925
-0.000162118
8.19271e-06
0.000590577
-0.000125339
-0.000465238
-0.00451877
0.00261355
0.000371823
-0.000559419
0.000187596
5.63862e-05
-0.000926356
-0.00257569
0.00448442
-0.00530583
-0.000323253
0.00562909
0.000204439
0.000179616
-0.000384055
0.000614285
-0.000614285
0.00168383
-0.00073059
-0.00210951
0.00180965
0.000299865
0.00440619
-0.00301953
-0.000162274
6.27069e-06
-0.00119804
0.00125443
0.000725277
0.00127534
0.00234911
-0.00027034
-0.00402066
-0.00128517
0.00111267
-0.00499143
0.00321337
-0.00447934
0.00083647
-0.00213509
0.00129862
0.00335876
-0.0045922
-0.00271197
-0.0018068
-0.00483722
0.00469618
-0.000675628
-0.00533824
-0.00516047
0.00150033
-0.00145023
-5.00988e-05
0.0022293
0.00011981
-0.00601389
0.00204851
0.00396539
-0.00121934
0.000525993
0.000693339
0.0014603
0.00294589
-0.00462524
-0.0010184
0.00564365
-0.000212796
0.000138493
7.43026e-05
-0.00551665
0.00133097
0.00375302
-0.00493691
0.00118389
-0.00149027
-0.000619235
-0.000536673
-0.000637503
0.000138372
-0.000203836
6.54638e-05
0.00500672
-0.00386083
-0.00130102
0.00512612
-0.00382511
-0.000397323
-0.00080072
-0.00586122
0.000439367
0.00539617
-0.00617107
0.00456959
-0.000921275
-0.00546479
-0.00109194
-0.000376434
-0.00181591
0.00285693
-0.00104102
-0.000419203
0.000322095
9.71087e-05
-0.00173202
0.00141741
0.00159633
-9.60039e-05
0.000829015
-3.67475e-05
-0.00169528
0.00279626
0.00121861
-0.00303451
0.0060464
-0.000473825
0.0052781
7.24949e-05
-0.00528268
0.00439213
0.00114331
-0.00553544
0.000556455
-0.000768898
0.000212443
-4.04027e-05
-0.000408227
-2.188e-05
0.00606828
-0.000162227
0.00015687
5.3569e-06
0.000133302
2.06226e-05
0.0025343
-0.00335928
0.000824984
-0.0019253
0.000741628
0.00118367
0.00792599
-0.00345873
-0.00446725
0.0011719
0.00126267
-0.00243458
0.000105367
-0.000175315
6.99485e-05
-0.000805871
0.00133186
0.00116709
0.00318065
-0.00434774
-0.00561439
0.000166226
0.00544816
-0.00402199
0.00299367
0.00173528
0.00479466
0.00458731
0.00333867
-2.23992e-05
0.000188568
-0.000166169
-0.00131536
0.00440127
-0.0030859
0.000301235
-0.000341637
-0.000131307
-8.14898e-05
0.00410128
-0.00227532
0.00478056
-0.00503129
0.000250737
-0.00324375
0.00609625
-0.0028525
0.00252637
0.00157492
0.00578101
-0.00100045
-0.0014026
-0.0056205
0.00137234
0.00424816
0.000654637
0.000520697
-0.00117533
0.00126956
-0.000614924
0.00058535
-0.00111025
0.000524902
0.00110605
0.000276805
0.000393877
-0.000678294
0.00443132
0.00151625
-0.000394431
0.00355183
-0.00614192
0.0025901
0.00153213
-0.00258393
0.0010518
-0.00432677
0.00117243
0.00315434
0.00291093
-0.0042263
-0.00491462
-0.00125645
-0.00410229
0.00127116
0.00283113
0.0012545
0.00314677
-0.00326449
-0.000837801
0.00222608
-0.00105419
-0.000686549
-0.00252736
0.0032139
0.00240336
0.000623708
-0.00302706
-0.00158775
0.00119872
0.000389031
0.000269987
0.00148187
-0.00196369
0.000481824
-0.000110854
-0.000222741
-0.000264356
0.000153502
-0.00435607
-0.000256569
-0.000292241
0.00117024
-0.000877996
0.00435155
-0.00464616
0.000294611
-8.84209e-05
0.000117768
-2.93468e-05
0.000976724
0.00338104
-0.00435776
-0.000157002
6.85811e-05
-0.00475277
0.000711284
0.0040415
-0.000716507
0.000123765
0.00059274
5.84716e-05
-6.15907e-05
-0.000401218
0.000864669
-0.000347471
-0.000517198
-0.00603567
0.000637274
-0.00254969
-0.000128169
0.00267785
-0.00316836
0.00442285
0.00218082
-0.00108872
-0.00116719
-0.00116908
-5.90754e-05
-0.0035189
-0.00124583
0.00150412
-0.000399851
-0.00110427
0.00191857
0.00183913
-0.0037577
0.00505289
-0.00162223
-0.00343066
0.000795103
-0.00542034
-0.00137407
0.00300305
0.00196605
0.000776943
-0.00274299
-0.00349755
0.00447428
-0.000152942
2.6997e-06
0.000939212
-0.00443676
-0.00449767
-0.000148499
-0.000998317
-0.00461607
0.00463835
0.00149723
0.00355566
0.00416216
0.00114249
-0.00530465
3.61101e-05
5.93201e-05
-9.54303e-05
-0.00140268
0.00336873
0.00372217
0.00355063
-0.001397
0.002369
-0.000971988
-0.00248167
0.000464771
-0.000878422
0.000751436
-0.000208108
0.000412547
-0.000217968
0.00169984
0.00376336
-0.00184478
-0.0010661
-0.000603358
-0.000107143
-0.000157212
0.00355041
-0.00163325
-0.00240374
0.00465277
0.000674515
-0.00309588
0.00242137
0.000634241
0.000761943
-0.00105418
0.00209914
-0.00131996
-0.00327336
0.00459332
-0.00215009
0.00479695
-0.000554282
0.00344565
0.00023786
-0.000220756
-0.00236241
0.000965415
0.00233399
-0.00387184
0.00153787
-0.00120002
5.73774e-05
-2.12673e-05
0.00214576
-0.00279646
0.000650715
-0.00116648
-0.00042127
-0.00353399
0.0045056
0.00119914
0.00167118
-0.00287033
-0.00168828
0.00366556
-0.00197728
0.00424349
-0.000862454
0.000234406
1.41171e-05
-0.000248524
-0.0037233
0.00203501
-0.00143675
0.00472602
-0.00328927
0.000878052
0.00130277
0.000176281
0.000438003
0.000253012
-0.000300704
4.76917e-05
0.00169931
0.000216903
-0.00191621
0.00301794
-0.00459667
0.00157873
-5.27857e-05
0.000374214
-0.000321428
0.00156028
-0.000361562
0.00139547
-0.000608806
-0.000786662
0.00282112
-0.00392906
0.00110794
0.00267831
-0.00374355
0.00106524
-0.00517445
0.0019307
0.00391009
-0.000892148
-0.00064074
-0.0023717
0.00301244
0.00140802
-0.00511861
0.00371058
0.00336053
-0.00145892
-0.00190161
-0.000678887
0.00172298
-0.0010441
0.00477143
-0.00303615
-0.000688055
-0.0019669
-0.00598264
0.00514095
3.84847e-06
0.000121655
-0.000125504
-0.00157714
0.00119782
0.00037933
-0.00491091
0.00631261
-0.00140171
-0.00188127
0.000728771
0.0011525
0.000405802
0.00268637
-0.00208684
-0.000599524
0.00343583
0.000488948
-0.00392478
0.000126586
-2.12195e-05
0.00517229
0.000335744
-0.00550803
-0.00194064
0.00379766
-0.00185703
0.00277215
-0.000648429
-0.00212372
0.000462562
0.000402107
-0.000436581
0.00387241
0.0020262
-0.00396683
0.000700485
-0.000265849
-0.000434635
-0.000639991
1.63747e-05
0.000623618
-0.00315228
-0.00576596
0.00576492
-0.000274448
0.000949166
-0.000674719
-0.00228625
-0.000195418
-0.00455899
0.00323903
-0.000878606
0.00113785
0.00360827
-0.00501901
0.00141074
0.000410654
-0.00296033
0.00232925
-0.00244176
0.000112499
-0.00157141
0.00148227
8.91376e-05
-0.00120786
-0.000369289
-0.00339191
0.00342988
-0.00223073
0.000457284
0.000133293
-0.00173184
0.00105296
-0.00279877
0.000755018
0.00204375
0.000242432
-8.02533e-06
-0.00347814
0.00102463
0.00245351
-0.00144455
0.00560671
0.000339416
-0.000952421
0.000613006
0.00211491
0.000657242
-0.00127775
0.000304278
0.00110985
0.00121941
-0.00143567
0.00496501
-0.00352934
-0.00485187
0.00577407
-0.000922203
-0.0011764
0.00228629
0.00410246
0.00107182
3.67235e-05
0.00586533
-0.00552112
-0.000344211
0.00356604
-0.00466611
0.00110007
0.00309402
-0.000690666
0.00542648
-0.00181821
-0.00250233
-0.000975808
-0.00216894
-0.00032586
0.00249481
0.00241184
-0.00197012
-0.00160816
-0.00424266
0.00274601
0.00149665
-0.000324647
0.00122461
0.00122076
0.00366272
-0.00488347
-0.000293275
0.000665098
0.00305956
-0.00238504
-0.00472421
-0.00125844
0.00647016
-0.00129787
0.00424635
0.00206007
0.000498317
0.002855
-0.002125
-0.000730006
0.00473828
-0.00245199
-7.27706e-05
-0.00332513
-0.000871802
0.00419694
0.000387948
-8.64637e-05
-0.000301484
-0.00514666
0.00610917
-0.000962511
-0.000739029
0.00190186
-0.00116283
-0.000697225
0.00525296
-0.00455575
0.00116947
-0.00190849
-0.000114463
-0.00576169
-0.000787014
0.0020262
0.00383914
-0.000241329
-0.00192761
0.000251398
-4.20104e-06
0.000362646
-0.000487985
0.00336316
-0.000828861
-0.00522699
-0.000271643
-0.000147561
0.000150202
-0.00013358
-1.66218e-05
-0.00248334
0.000126065
-0.000423269
0.00158874
-0.00101038
-0.000578359
0.002475
0.000590462
-0.00306546
-0.000710599
0.00318559
-0.00520294
-0.000271468
0.00547441
0.00375103
0.0013751
0.00441563
-0.00123497
-0.000138567
0.00255041
0.00540387
-0.000206667
-0.00519721
-0.00608715
0.00425177
0.0018354
0.00321041
-0.0012675
-0.004353
0.000201959
-0.000224358
0.000581177
0.000814289
0.00106413
0.000102551
-0.00116669
0.00421228
0.00119159
-0.00095875
0.00317211
-0.00221336
0.004742
-0.00140136
-0.00217815
0.00279265
-0.000614501
-0.00117661
-0.00013187
0.000311492
-0.000179622
0.00344601
-0.00414324
0.00134322
-0.000985365
-0.000357858
0.00159464
-0.000396823
-0.00325119
0.00229244
0.00548698
-0.00434367
-3.06311e-05
0.000352726
-0.00535914
0.000448224
0.00545757
-0.00190574
-0.00100436
-0.00361411
0.00461847
-0.000647166
0.0028829
-0.00223573
0.00549725
-0.00286245
-0.0026348
-8.83981e-05
0.000593325
-0.000677331
0.000660626
1.67051e-05
-0.000687303
0.00172841
-0.00104111
-0.00314865
-0.00117812
0.000155576
-1.72033e-05
-0.00122458
-0.00478932
-0.00307787
0.00239131
-0.00042002
-0.000194264
-7.26392e-05
-8.95876e-05
-0.00120034
-0.000805653
-0.00523002
-0.00283834
0.00219118
-0.000818449
0.00118622
0.00112475
0.00438861
-0.00551335
0.0034083
-0.00275379
0.000468332
0.000774393
-0.0028846
0.00211021
0.00499252
-0.00494854
-4.39755e-05
-0.00320959
0.00361559
-0.000405994
0.000207798
-9.56104e-05
-0.000112188
-0.00496697
-0.00149904
-0.00175622
0.00369085
-0.00193463
0.002982
-0.00220761
-0.00378449
0.00202827
0.00139497
-0.00258174
0.00118676
-0.00363285
0.00568136
0.00649761
-0.00219579
-0.00430183
-0.00240087
0.00237314
2.77325e-05
0.00562483
-0.00165207
0.00118654
-0.000924627
-0.000261913
-9.12161e-06
0.000262133
0.000249233
-0.000772778
0.000523545
-0.00304529
0.00365201
-0.000973704
0.000844038
-0.00104819
0.00236216
-0.00063159
-0.00173057
0.00220993
-0.000510626
0.00453119
0.000629627
0.00173253
-0.00175326
0.00106596
0.000408594
-0.000464692
5.60975e-05
0.00221006
-0.00174576
-0.000464304
0.000835803
-0.00514776
-0.000544509
0.000369492
-0.000588343
0.000218851
-0.0041005
0.00547284
0.000942164
-0.00111664
0.000174474
-0.00151935
0.00216545
-0.000646091
-0.00149289
-0.00274978
-0.00537848
-0.000158452
0.00553693
0.000301122
0.000108313
4.18894e-05
0.000128561
-0.000128496
-6.46573e-08
0.00412624
-0.00290549
-0.00380442
-0.0023375
0.00346339
0.00303422
-0.00259718
0.000738986
0.00185819
-0.000844713
0.00223968
-0.00229652
-0.000104348
0.00272877
-0.0037776
0.00104883
0.00130558
-0.000135348
0.000462086
0.0005514
-0.00327823
0.000965879
0.00231235
0.000918346
-0.000593568
-4.64253e-05
-0.00428111
0.00172755
9.57113e-05
-0.00182325
-0.00396655
0.00146697
0.00249958
0.000522642
0.00146055
-0.000879376
-0.000246228
-0.00466061
0.00490684
0.000784983
-0.00247695
0.00169197
0.00120221
0.00131231
-0.00047701
-0.00170948
0.0021865
0.00258025
-0.00179526
0.00447211
-0.0035329
-0.000785027
-0.00264115
-0.000227448
0.000251869
-0.000701202
0.00176273
-0.00106153
0.00265891
-0.0036682
0.00100928
0.000136474
2.03965e-05
-0.00236271
-0.000915522
0.00142155
-0.00163643
0.000214875
-0.00277443
0.000687591
0.00127653
-0.00141877
0.000142237
0.00161892
-0.00180791
0.00018899
0.000676856
-0.00372992
-0.00116951
0.00135675
-0.00490892
0.00355217
-0.000915565
0.00357447
0.000116539
-7.73606e-05
-3.91786e-05
0.00476571
-0.00364095
-0.000339978
-0.00153496
-0.004013
-0.00150365
0.00209105
0.000701594
-0.00101812
-0.00092422
-0.00452757
-0.0016356
-0.000379803
0.00124301
-0.00093131
-0.000311705
-0.00149481
-0.00108913
0.000659498
0.00225568
-0.00291518
-0.000114296
0.000670751
-0.000716096
3.8765e-05
-0.00245415
0.00196646
0.00139407
-0.000730308
0.00165413
-0.000923826
-8.68729e-05
-0.000116963
0.000318389
-0.00194561
0.000455342
0.00159967
-0.00231136
0.000711687
-0.00334698
0.0025778
0.00076917
0.00119086
0.00242104
-0.0036119
-0.00175201
0.00105081
-0.00294069
-0.00102585
-0.000800537
-0.00254644
-0.00167601
0.00125161
0.000424394
0.00176222
-3.4669e-05
-0.000765127
-0.00243223
0.00319735
-0.000683858
0.00291478
-0.00225528
-0.000858503
-0.00394763
0.00480614
-0.00234426
0.0023386
5.66201e-06
-0.000716506
-0.0015587
0.000548327
-0.00240505
0.00381995
-0.00141491
0.0032328
0.00288513
0.000194398
3.62207e-05
-0.000230619
0.00234007
-0.000603077
-0.00173699
0.000188056
-0.000184208
-0.00359094
0.0049477
-0.00329298
0.00525071
-0.00195773
-0.00351014
-0.00150887
-0.000913015
0.0032318
-0.00231879
0.0028555
0.00177652
-0.00418158
-0.00499844
-0.000148212
-0.000799393
0.00285063
-0.00205123
-0.000431698
0.000378912
-0.000527769
0.00167433
-0.00114656
-0.00404036
0.00334133
0.000699027
-0.00326948
0.00235646
-0.00387021
0.000676036
0.00319417
0.00140822
-0.00101135
-0.000396875
-0.00589958
0.000696635
0.00184653
-0.00141051
-0.000436011
0.0013955
-0.000398504
-0.000996997
7.83769e-05
0.000129422
0.00293369
-0.000644512
-0.000222631
-0.00348773
-0.000382484
0.000428165
-0.00305321
-0.000987157
-0.00233535
-8.89869e-06
-0.00292719
0.00228645
0.000721272
0.00260142
-0.00332269
0.000583883
-0.000858332
0.00141279
-0.00671963
0.00530685
-0.0057901
0.000996965
-0.00234914
0.00354
0.000690582
0.000258584
-0.00273254
0.00345381
-0.000101573
0.00509409
0.000627398
0.00169948
-0.00232688
-0.00177471
0.00124694
0.00274622
-0.00369629
0.000950061
0.00510153
0.000665747
0.00154431
0.000314254
0.00038623
-0.000364124
-0.000404774
0.00018094
-0.00174466
0.00176684
-0.000888794
0.000845576
0.000614972
-0.000587206
0.00301141
-0.0024242
-0.00149497
0.0018409
-0.000345922
-0.00489729
0.00380211
0.00109518
-0.00480393
0.00151094
-4.10059e-05
3.91087e-05
1.89725e-06
-0.0028094
-0.000858797
0.0010703
-0.00128949
0.000219194
0.00136618
-0.00495713
0.00100868
5.54533e-05
0.00124726
0.000695649
0.00218725
-0.00366791
0.000858523
0.000186043
-0.00503791
0.00189824
0.00120466
0.000697203
-0.00527346
-0.000492506
0.00565046
0.00118345
0.00710743
-0.00218482
-0.00492261
0.0007865
-0.000377535
-0.000408966
0.000722322
-0.00138066
0.000777298
-0.00386109
-0.00125752
0.000311492
-0.000924423
-0.000420836
0.00134526
0.00232758
0.00400857
-0.00486706
0.00270227
0.000835172
-0.00353745
0.0012499
-0.000963823
-0.000286078
0.000745549
0.00159452
-0.000135034
0.000138271
-3.2369e-06
-0.000710595
0.00288371
-0.00217311
0.00362257
0.00110345
-0.00126105
-0.000414961
0.00141483
-0.0015328
0.000117964
4.77155e-05
6.88237e-05
-0.00447593
0.000965794
-0.00165216
0.000444298
-0.00364605
0.00293544
-0.000950514
6.83759e-05
0.000937115
0.00267879
-0.00361591
0.000845121
-0.00126016
0.00419474
-0.00293458
0.000318588
0.000279976
4.6581e-05
-0.000326558
7.83141e-05
-0.00539171
0.00531339
-0.00262951
-0.000787314
0.00341683
-0.00349713
0.0026044
0.000892736
-0.00277773
-0.000261839
-0.00171294
-0.00491059
0.000897591
-0.00145255
-0.000882806
-0.0010638
0.00379257
0.00170704
-0.00372638
0.00201934
0.000105692
2.28695e-05
0.0037265
-0.00201946
0.00286026
0.000967245
-0.00382749
-0.00130049
0.00174079
-0.000440294
0.00357361
0.00110606
-0.00467967
0.00718614
-0.001975
-0.00521113
-0.00212652
-0.000711821
-0.00172346
0.00235085
0.00377246
-0.00493039
0.00115792
-0.00280091
0.00373802
0.00113295
-1.01559e-05
-0.0011228
0.00148233
0.000905477
-0.00551308
0.00059845
0.000429997
0.000356502
0.00292156
-0.00112483
-0.00252224
0.0024791
4.31429e-05
0.000505117
-0.00184039
0.00133527
-0.00387112
-0.00119167
0.00109128
-0.00254383
-0.00529917
0.000151415
-0.00124349
-0.000529342
0.00177284
0.00563676
-0.00449427
0.000104301
0.000283648
-0.00301385
0.00319252
0.00143916
-0.00107025
-0.00036891
0.00346775
0.00476118
-0.000959075
0.00065069
-0.0032802
0.00106055
-0.000936789
-5.28865e-05
0.000461481
0.000393965
-1.97513e-05
-0.00206545
-0.000457668
0.00152797
-0.000919344
-0.00349772
0.000765188
-2.7921e-05
-1.30849e-05
0.00599849
-0.00492078
0.0052224
-0.0043948
2.61089e-05
-0.00059274
0.000566631
0.00194874
-0.000458618
-0.00149012
0.00335903
-0.000757613
-0.00256767
0.00336124
-0.000793562
-0.00183269
0.000532198
0.00127849
-0.000951658
-0.000326832
-0.000118768
-0.000210171
0.00205901
-0.00054854
-0.00151047
-0.0013798
-0.00239361
-0.000128621
0.00208887
-0.00274567
0.000656806
0.0028066
-0.000751293
-0.00205531
0.00410307
-0.00434929
0.000314668
0.00224279
-0.00064311
-0.000683385
0.000833116
-0.00367633
0.0050425
0.00125344
0.000471841
-0.00171533
-0.0028691
0.00209601
0.00363402
0.00158838
-0.00113029
-0.00383809
-0.00115073
0.00130258
-0.00171692
0.000414346
0.00367511
-0.00318617
-0.000193829
0.00113599
-3.86675e-05
-0.000270576
0.000309244
-0.000706312
-0.00189087
0.00377181
-0.00491109
0.00113928
-0.00185842
0.00235204
-0.000493619
-0.00115858
0.00213192
0.000751783
-0.00226286
0.00375605
-0.0014932
0.00150409
-0.00113977
-0.000364319
-0.000993314
0.000276811
0.000189844
-0.000433287
0.000243443
-0.000425779
-0.00122638
-0.00248069
0.00250368
-2.29862e-05
0.00144916
-0.00371203
0.00162351
-0.000371895
0.00036537
-0.000417244
5.18747e-05
-0.000825492
0.000592522
0.00023297
-0.000795457
-0.00285356
0.000839813
0.00201375
-0.00199636
-0.000851583
-0.000710114
0.00156169
-0.00524534
0.00389587
0.00134947
-0.00119785
0.00122396
-0.00057639
-0.000115926
0.000692316
0.00286855
-0.000736637
-0.000770369
-0.000160191
0.00093056
0.00183876
-0.00136692
0.00169737
-0.000394789
-0.000137299
-0.000635801
-0.00420669
0.00484249
-0.00138209
0.00283024
0.00427719
-0.00239837
-8.23139e-05
0.00311748
-0.00473971
0.00073361
0.00158115
-0.00231476
0.00200353
-0.00280292
0.00199615
-0.000743532
-0.00125262
-0.00179594
0.000456064
0.00133988
0.0043204
0.00286574
-0.00552332
0.00133947
0.00418385
-0.00125467
-0.00399067
-0.000460357
-0.00133559
-0.000997302
-0.0005614
-0.0012915
-0.000425428
0.00114707
-0.00053444
0.00150546
-0.000971023
-0.0017571
0.00129674
-0.000944493
-0.000207197
0.00115169
0.00217024
-0.00286716
0.000696927
-1.17675e-05
0.000206165
0.00103179
0.00607142
-0.00141283
-0.00465859
-0.00203533
-0.00187197
0.00133057
0.000541393
0.00127077
-0.000977792
-0.00029298
-0.00228919
-0.00103176
0.00332096
-0.0026676
0.00358628
-0.000918681
-0.000921698
0.00111104
1.1582e-05
-0.00112262
0.00376068
-0.0049391
0.00117841
0.00174754
-0.00135516
-0.00039237
0.00242707
-0.00122486
0.00274251
-0.000634555
-0.000190937
-0.00409453
0.00228908
-0.00180181
-0.000487271
0.000560981
-0.00200891
0.00144792
-0.00251191
-0.000847378
0.000858939
-0.000657309
-0.000201631
-0.000180256
-0.0036452
0.000977596
0.000668192
-0.000478347
0.00258915
0.000997129
0.000319115
0.00129124
0.000704915
-0.00160275
0.00233636
-0.00149858
0.000982584
0.000515993
0.00355539
-0.000695129
-0.00380939
0.00610346
-0.00115041
-0.00248998
0.00683563
-0.00434564
-0.00089094
0.00356974
-0.0041418
0.000932213
-0.00210176
0.0042501
-0.000702411
-0.00160895
-0.00245127
0.00170359
0.000747676
-0.00128008
0.000361736
-0.000425109
6.33742e-05
-0.00137291
-0.000776878
-0.0001535
0.000930378
-0.00156278
0.00135745
0.000205328
0.00203085
0.000819778
6.24287e-05
-0.00130016
-0.000554917
-0.000825738
-0.0024234
-0.000484242
-0.00138772
-0.000171048
0.0015926
-0.000180758
0.00341178
-0.000515037
0.00133896
0.000199193
-0.000834139
-0.000952296
-0.0019297
0.00247716
-0.000547465
-0.00104014
-0.00572889
0.00351076
0.00146801
-0.000622435
0.00288625
-0.00121507
0.000969626
-0.00135877
-0.00453029
0.00588906
0.000620969
-0.00255067
0.000742034
-0.00369173
0.00269597
0.000995762
0.00088572
-0.00142016
0.00222292
-0.00311929
0.000896361
0.00119697
-0.00343027
0.00223329
0.000861268
0.00168742
-0.00254868
-0.000174305
0.00179322
0.00273921
0.00107831
0.0036192
-0.00041352
0.00078301
0.00315728
-0.00402908
0.000987932
-0.00327712
0.00043632
0.00412558
0.00146303
-1.07975e-05
-0.000275615
0.000286412
-0.00619334
0.00385636
0.00233698
-0.000833123
-0.00261274
0.00344587
0.00263964
-0.00177837
-0.00369725
0.000896341
-0.00132111
-0.000435988
-0.000152671
0.00131977
0.00372779
0.00123722
0.000224384
0.0013082
-0.00099123
-0.000316975
0.000874488
0.000593523
-0.000313912
0.0037679
-0.00493668
0.00116879
0.00307898
-0.000856075
-0.00139802
0.00190313
0.00125662
-0.00355469
0.00229807
-0.00117121
0.00145535
0.00067902
-0.00213437
0.000191797
-0.000202594
0.00219837
-0.000860041
-0.00124891
0.000330413
0.000924356
-0.000347429
-0.000576927
0.00353325
-0.00227663
-0.000521624
0.00230121
-0.00177959
0.00101789
-0.00297393
0.00207693
0.000897001
0.00010667
-9.78429e-07
0.0046787
0.000543239
-0.00570864
-0.00519843
0.00392813
0.00127031
-0.00108042
-0.00269339
0.00377381
0.00222118
0.003725
0.0028261
-0.00375449
0.000928398
-0.00146821
0.00109892
-0.000967881
0.00338084
-0.00241296
0.00149638
0.000562632
-0.00378474
-0.0024086
0.00108732
-0.00230063
0.00321791
-0.000917279
0.00343993
-0.000835524
0.000397132
-0.000822727
0.00253873
0.000901205
-0.000635907
0.00431102
-0.00130771
0.00171579
-0.000408087
0.00200513
-0.0012635
-0.000389898
0.0060768
-0.00491736
-0.000461118
0.00085919
-0.00246195
-0.00539163
-0.0017219
0.000414187
-0.000678151
0.000101761
-0.000871147
0.000211438
-0.00146708
0.00068162
0.00156116
-0.000905437
0.000135068
0.00080582
0.0025156
-0.00332143
-0.00109518
0.00187357
-0.00194656
-0.000474669
0.00196115
-0.00148648
-0.000895723
-0.0020782
-0.00195183
0.00147717
-0.00265703
0.00346284
-0.00163659
0.000589497
0.0010471
-0.000985733
0.00357488
0.00602951
-0.00230735
-0.00130153
-0.000420358
-0.00173798
0.0010961
0.000641877
0.000906863
-0.00452136
0.0036145
-0.00131017
0.000546789
0.000763374
-0.00403474
-0.00116369
0.000191715
-0.00113621
0.00193569
-0.000731028
-0.00135593
-0.00380732
0.00516325
0.00100012
7.17041e-05
0.00329737
-0.00252751
-0.00076986
0.00013712
0.00125838
0.00087571
-0.000668663
-0.000207047
-0.00134365
-0.00101876
-0.00109372
0.0051365
-0.00404277
0.000638761
-0.00249718
0.000146811
0.00126802
0.00377211
-0.004964
0.0011919
0.00288284
-0.00204303
0.000101869
-0.000168204
6.6335e-05
0.00102949
0.000138131
0.0001043
0.00235983
0.00371159
-0.000585633
-0.000801973
0.00138761
0.000653987
0.0017705
-0.00242449
0.00240305
-0.00169575
-0.000707304
0.000475996
0.00147274
0.000426429
-0.000512664
-0.000797501
0.000601081
-0.00532529
0.000690527
-2.99013e-05
-0.00116457
-0.00132157
-0.00379748
0.00511905
0.00103281
0.00143674
-0.00189536
0.00254661
-0.000394823
-0.0049088
0.00530363
0.000120555
-1.86855e-05
0.000670668
0.00126502
0.00272633
0.000949096
-0.00367542
0.00137462
0.000471906
0.00258719
-0.00364136
0.00454822
0.00277355
0.000844247
-0.0036178
0.00162625
-0.000825969
-0.000800279
0.00132748
-0.00101793
-0.000309546
0.000424297
0.00106054
-0.0047019
0.000218401
-6.76253e-06
0.000198559
0.00606508
-0.00129938
0.00152544
-0.00212851
0.0025297
-0.00181818
-0.000711521
0.000871463
-0.00254449
0.00167303
0.00523402
-0.00281497
-0.000928567
-0.0015798
0.00501315
0.00148636
-0.00178137
0.00029501
0.000499371
-0.000103703
-0.000395667
-0.00100061
-0.0031388
0.00413941
0.000743402
0.0018184
-0.0025618
0.00176754
-0.000281178
0.00224628
0.00140409
-0.000857308