/*--------------------------------*- C++ -*----------------------------------*\
  =========                 |
  \\      /  F ield         | OpenFOAM: The Open Source CFD Toolbox
   \\    /   O peration     | Website:  https://openfoam.org
    \\  /    A nd           | Version:  7
     \\/     M anipulation  |
\*---------------------------------------------------------------------------*/
FoamFile
{
    version     2.0;
    format      ascii;
    class       volScalarField;
    location    "15";
    object      p;
}
// * * * * * * * * * * * * * * * * * * * * * * * * * * * * * * * * * * * * * //

dimensions      [0 2 -2 0 0 0 0];

internalField   nonuniform List<scalar> 
385
(
0.0161803
0.0238408
0.0315122
0.0391821
0.066201
0.0468376
0.0708331
0.0544656
0.0754255
0.0620528
0.0799715
0.0695858
0.0844648
0.0770509
0.0888984
0.0844343
0.0932658
0.160323
0.0917222
0.0975602
0.169057
0.0989008
0.101775
0.0706596
0.177647
0.105956
0.105903
0.0742365
0.186077
0.112875
0.109938
0.0777289
0.194328
0.119643
0.113873
0.0811314
0.202384
0.126246
0.117701
0.0844384
0.210229
0.132673
0.121417
0.0876447
0.0787313
0.217846
0.138908
0.125013
0.0907451
0.0809067
0.225219
0.144941
0.128483
0.0937345
0.083002
0.232331
0.150757
0.131822
0.0966079
0.0850142
0.239169
0.156345
0.135023
0.0993605
0.0869401
0.0699008
0.245716
0.161693
0.13808
0.101988
0.0887767
0.0714805
0.251959
0.16679
0.140989
0.104485
0.0905211
0.0729801
0.257883
0.171625
0.143743
0.106848
0.0921706
0.0743973
0.0651554
0.263476
0.176187
0.146338
0.109073
0.0937226
0.07573
0.0661986
0.268725
0.180467
0.148768
0.111156
0.0951745
0.0769762
0.0671738
0.273617
0.184455
0.15103
0.113093
0.0965241
0.0781341
0.0680796
0.278143
0.188142
0.153119
0.114881
0.0977691
0.0792018
0.0689145
0.282291
0.19152
0.155031
0.116516
0.0989076
0.0801778
0.0696775
0.286052
0.194583
0.156763
0.117997
0.0999376
0.0810606
0.0703674
0.289417
0.197323
0.15831
0.11932
0.100858
0.0818487
0.0709832
0.292379
0.199733
0.159671
0.120482
0.101666
0.082541
0.0715241
0.294931
0.20181
0.160842
0.121483
0.102361
0.0831364
0.0719892
0.297066
0.203547
0.161822
0.122319
0.102942
0.0836341
0.0723778
0.298781
0.204942
0.162608
0.12299
0.103409
0.0840331
0.0726894
0.30007
0.205991
0.163198
0.123495
0.103759
0.0843329
0.0729234
0.300932
0.206691
0.163593
0.123832
0.103993
0.0845331
0.0730797
0.301363
0.207042
0.16379
0.124
0.10411
0.0846332
0.0731579
0.301363
0.207042
0.16379
0.124
0.10411
0.0846332
0.0731579
0.300932
0.206691
0.163593
0.123832
0.103993
0.0845331
0.0730797
0.30007
0.205991
0.163198
0.123495
0.103759
0.0843329
0.0729234
0.298781
0.204942
0.162608
0.12299
0.103409
0.0840331
0.0726894
0.297066
0.203547
0.161822
0.122319
0.102942
0.0836341
0.0723778
0.294931
0.20181
0.160842
0.121483
0.102361
0.0831364
0.0719892
0.292379
0.199733
0.159671
0.120482
0.101666
0.082541
0.0715241
0.289417
0.197323
0.15831
0.11932
0.100858
0.0818487
0.0709833
0.286052
0.194583
0.156763
0.117997
0.0999376
0.0810606
0.0703674
0.282291
0.19152
0.155031
0.116516
0.0989076
0.0801778
0.0696775
0.278143
0.188142
0.153119
0.114881
0.0977691
0.0792018
0.0689145
0.273617
0.184455
0.15103
0.113093
0.0965241
0.0781341
0.0680796
0.268725
0.180467
0.148769
0.111156
0.0951745
0.0769762
0.0671738
0.263476
0.176187
0.146338
0.109073
0.0937226
0.07573
0.0661986
0.257883
0.171625
0.143743
0.106848
0.0921706
0.0743973
0.0651554
0.251959
0.16679
0.140989
0.104485
0.0905211
0.0729801
0.0640455
0.245716
0.161693
0.13808
0.101988
0.0887767
0.0714805
0.0628707
0.239169
0.156345
0.135023
0.0993605
0.0869401
0.0699008
0.232331
0.150757
0.131822
0.0966079
0.0850142
0.0682433
0.225219
0.144941
0.128483
0.0937345
0.083002
0.0665104
0.217846
0.138908
0.125013
0.0907451
0.0809067
0.0647047
0.210229
0.132673
0.121417
0.0876447
0.0787314
0.202384
0.126246
0.117701
0.0844384
0.0764794
0.194328
0.119642
0.113873
0.0811313
0.0741542
0.186077
0.112875
0.109938
0.0777289
0.0717591
0.177648
0.105956
0.105903
0.0742365
0.169057
0.0989006
0.101775
0.0706596
0.160323
0.0917221
0.0975603
0.0670038
0.0844342
0.0932659
0.0632748
0.0770508
0.0888985
0.059478
0.0695856
0.0844648
0.0556194
0.0620527
0.0799716
0.0544654
0.0754255
0.0468374
0.0708332
0.0391819
0.0662011
0.031512
0.0615357
0.0238406
0.0568433
0.0161801
0.0521299
0.0474017
0.0426644
0.0379236
0.0331849
)
;

boundaryField
{
    inlet
    {
        type            zeroGradient;
    }
    outlet
    {
        type            fixedValue;
        value           nonuniform 0();
    }
    cylinder
    {
        type            zeroGradient;
    }
    top
    {
        type            symmetryPlane;
    }
    bottom
    {
        type            symmetryPlane;
    }
    defaultFaces
    {
        type            empty;
    }
    procBoundary26to18
    {
        type            processor;
        value           nonuniform List<scalar> 
30
(
0.0616325
0.0616325
0.0603327
0.0589731
0.0575556
0.0628287
0.0628287
0.0608852
0.0588768
0.0568065
0.0692978
0.0692978
0.0667738
0.0641908
0.0615524
0.0588624
0.0561245
0.0517044
0.0517044
0.0477388
0.0437283
0.0396784
0.0355948
0.0314829
0.0273482
0.023196
0.0190316
0.0148602
0.0106869
0.0284533
)
;
    }
    procBoundary26to19
    {
        type            processor;
        value           nonuniform List<scalar> 10(0.105841 0.0965688 0.0872846 0.0780029 0.0687385 0.00854288 0.00854288 0.000940639 -0.0066151 -0.0141133);
    }
    procBoundary26to25
    {
        type            processor;
        value           nonuniform List<scalar> 
32
(
0.0553895
0.0562877
0.0571271
0.0579066
0.058625
0.0592813
0.0598747
0.0604043
0.0608693
0.0612692
0.0616032
0.0618711
0.0620723
0.0622066
0.0622738
0.0622738
0.0622066
0.0620723
0.0618711
0.0616032
0.0612692
0.0608693
0.0604043
0.0598747
0.0592813
0.058625
0.0579066
0.0571271
0.0562877
0.0553895
0.0544337
0.0534216
)
;
    }
    procBoundary26to27
    {
        type            processor;
        value           nonuniform List<scalar> 
73
(
0.0687381
0.0780026
0.0872843
0.0965686
0.105841
0.115085
0.124285
0.133426
0.14249
0.151462
0.151462
0.0816043
0.102388
0.123022
0.143449
0.163608
0.183442
0.202893
0.221904
0.24042
0.258386
0.275748
0.292454
0.308457
0.323706
0.338158
0.351767
0.364495
0.376301
0.387151
0.397012
0.405854
0.41365
0.420377
0.426015
0.430545
0.433955
0.436234
0.437376
0.437376
0.436234
0.433955
0.430545
0.426015
0.420377
0.41365
0.405854
0.397012
0.387151
0.376301
0.364495
0.351767
0.338158
0.323706
0.308457
0.292455
0.275748
0.258386
0.24042
0.221904
0.202893
0.183442
0.163608
0.143448
0.123022
0.102388
0.0816043
0.151462
0.151462
0.14249
0.133426
0.124285
0.115085
)
;
    }
    procBoundary26to34
    {
        type            processor;
        value           nonuniform List<scalar> 
28
(
0.0521299
0.0568432
0.0615356
0.0615356
0.0396784
0.0437283
0.0477388
0.0517044
0.0556194
0.0594781
0.0632748
0.0670038
0.0670038
0.0667738
0.0692978
0.0717591
0.0741541
0.0764794
0.0764794
0.0628287
0.0647047
0.0665104
0.0682433
0.0682433
0.0616325
0.0628707
0.0640455
0.0640455
)
;
    }
    procBoundary26to35
    {
        type            processor;
        value           uniform 0.00854299;
    }
}


// ************************************************************************* //
