/*--------------------------------*- C++ -*----------------------------------*\
  =========                 |
  \\      /  F ield         | OpenFOAM: The Open Source CFD Toolbox
   \\    /   O peration     | Website:  https://openfoam.org
    \\  /    A nd           | Version:  7
     \\/     M anipulation  |
\*---------------------------------------------------------------------------*/
FoamFile
{
    version     2.0;
    format      ascii;
    class       surfaceScalarField;
    location    "0.48";
    object      phi;
}
// * * * * * * * * * * * * * * * * * * * * * * * * * * * * * * * * * * * * * //

dimensions      [0 3 -1 0 0 0 0];

internalField   nonuniform List<scalar> 
18389
(
-7.98161e-05
7.98161e-05
4.34711e-05
-4.34711e-05
-5.20439e-05
5.20439e-05
4.00701e-05
-4.00701e-05
-5.18301e-05
5.18301e-05
-3.99022e-05
3.99022e-05
-3.45766e-05
3.45766e-05
3.91968e-05
-3.91968e-05
-3.50803e-05
3.50803e-05
4.13945e-05
-4.13945e-05
4.43373e-05
-4.43373e-05
-3.40055e-05
3.40055e-05
-1.18804e-05
1.18804e-05
-4.28125e-05
4.28125e-05
4.34285e-05
-4.34285e-05
2.3947e-05
-2.3947e-05
1.8219e-05
-1.8219e-05
4.58863e-05
-4.58863e-05
4.59192e-05
-4.59192e-05
4.33189e-05
-4.33189e-05
-4.25235e-05
4.25235e-05
3.52983e-05
-3.52983e-05
4.2991e-05
-4.2991e-05
-5.84534e-05
5.84534e-05
-4.97814e-05
4.97814e-05
-4.18027e-05
4.18027e-05
-4.45331e-05
4.45331e-05
4.56121e-05
-4.56121e-05
4.58456e-05
-4.58456e-05
4.41289e-05
-4.41288e-05
-4.13314e-05
4.13315e-05
-6.30629e-05
6.30629e-05
4.31165e-05
-4.31165e-05
-4.47338e-05
4.47338e-05
4.086e-05
-4.086e-05
4.66831e-05
-4.66831e-05
-4.55548e-05
4.55548e-05
5.3599e-05
-5.3599e-05
-5.88807e-05
5.88807e-05
3.78787e-05
-3.78787e-05
4.48475e-05
-4.48475e-05
4.53685e-05
-4.53685e-05
-4.10113e-05
4.10113e-05
4.49037e-05
-4.49037e-05
4.58607e-05
-4.58607e-05
-4.58469e-05
4.58469e-05
-4.5841e-05
4.5841e-05
-4.06538e-05
4.06538e-05
-4.58778e-05
4.58778e-05
4.5929e-05
-4.5929e-05
4.59423e-05
-4.59423e-05
4.46094e-05
-4.46094e-05
3.77251e-05
-3.77251e-05
-4.57633e-05
4.57633e-05
-5.55359e-05
5.5536e-05
-4.38127e-05
4.38127e-05
4.57551e-05
-4.57551e-05
-4.59945e-05
4.59945e-05
4.32258e-05
-4.32258e-05
-5.93175e-05
5.93175e-05
-4.71436e-05
4.71436e-05
4.9605e-05
-4.9605e-05
4.57241e-05
-4.5724e-05
-8.22491e-06
8.22493e-06
4.57733e-05
-4.57733e-05
4.1456e-05
-4.1456e-05
5.12103e-05
-5.12103e-05
-4.58604e-05
4.58604e-05
4.23223e-05
-4.23223e-05
3.07455e-05
-3.07455e-05
3.24964e-07
-3.24965e-07
-4.41274e-05
4.41274e-05
3.28688e-05
-3.28688e-05
-3.65795e-05
3.65795e-05
3.9705e-05
-3.9705e-05
2.66262e-05
-2.66262e-05
2.61947e-05
-2.61947e-05
2.70492e-05
-2.70492e-05
2.43955e-05
-2.43955e-05
1.28377e-05
-1.28377e-05
0.00107289
-0.000882566
-0.000190324
0.00546604
-0.0020751
-0.00339093
-0.00594647
0.00594644
3.38807e-08
0.00335514
-0.00260151
-0.000753627
-0.00156901
0.00177111
-0.000202094
-0.00675752
0.00284146
0.00391607
0.00121391
0.00425214
0.0072554
-0.00587624
-0.00137917
0.00119962
-0.00191248
0.00071286
-0.000869922
-0.000699093
-0.0014421
-0.00031462
0.00175672
0.000140722
-1.94521e-06
-0.000138776
0.000778586
-0.00222069
-0.00360261
0.000121421
0.00348117
-0.00320327
0.0028938
0.000309473
-0.00569943
0.00723365
-0.00153423
-0.00370835
0.00289709
0.000811253
-0.000563083
-0.00303952
-0.00174899
0.00238855
-0.000639553
-0.00046226
0.00255894
-0.00209668
-0.00161241
0.00111446
0.000497943
0.000583533
0.000581826
-0.00159732
-0.00516021
0.00130917
-0.00181356
0.000504391
0.00577867
-0.00386011
-0.00191855
-0.000671212
0.00331177
-0.00264056
-0.00583528
0.00583522
0.000468617
0.00130249
-0.00633323
0.000979579
0.00535365
0.00231763
-0.00298884
-0.00378938
0.00311375
0.000675628
0.00214805
-0.00422314
0.0010886
-0.000203188
-0.000885414
0.00150531
-0.00128838
-0.000216925
-0.00280377
-0.000399491
0.00535106
-0.0053477
0.000370751
0.00113456
0.0052273
-0.00133634
-0.00389096
0.00198017
-0.000780544
0.0030857
0.00190866
-0.00499436
-0.000720786
-0.0030686
-8.86369e-05
-0.000155647
0.000244284
0.00393589
0.00331951
0.00115401
-0.00487683
0.00372281
0.00162527
0.00360203
-0.00498282
0.00632103
-0.00133822
-0.00114451
-0.000590255
0.00173476
0.00133785
0.00201729
0.000135292
0.000103626
-0.000238918
0.00502031
-0.00339504
0.00645719
-0.000840855
-0.00561634
0.00321752
-0.00266439
-0.000553128
0.00221583
0.000454786
-0.00267063
0.00295406
-0.000738221
0.00650414
-0.0053988
-0.00110533
0.000494802
-0.00385517
0.00336037
6.71036e-05
0.00639009
0.00479222
-0.00429741
-0.000535782
0.00105939
-0.000523608
-0.00176454
0.000620031
0.00191703
0.00224911
-0.00416613
0.000253473
-0.000333758
8.02852e-05
-0.00125892
-0.00284789
0.0041068
-2.61448e-05
0.00653029
-0.00281358
0.00229899
0.00051459
0.000389154
-1.23523e-05
-0.000376801
-0.00569236
-0.000254111
0.00188082
-0.0014122
0.000826795
0.00495188
0.000899502
0.000173391
0.00263657
-0.00644171
0.00380514
-0.00112021
0.000584433
0.00264072
-0.00389964
0.00619693
-0.00226103
0.0010921
0.00117728
-0.000775137
0.00102023
-0.000245091
-0.00111417
-0.000498232
0.00188278
0.00133475
-0.000594591
0.00142955
-0.00123739
-0.000192156
-0.00265544
0.00198964
0.0006658
0.00116675
0.000262798
0.00112448
-0.00496119
0.00383671
-0.00474905
0.00141099
0.00333805
-0.00455438
0.00611812
-0.00156374
-0.00506246
7.96434e-05
-0.00202313
-0.000632308
-0.000215162
0.000126525
-0.00121831
0.0046411
-0.00342279
-0.00120038
-0.000712105
0.000103305
-0.000192023
8.87177e-05
0.000126284
-2.29788e-05
-0.00125246
0.00463053
-0.00337806
-0.000156068
2.43761e-05
0.000131692
-0.00556686
0.00170676
-0.00120227
-0.000562269
-0.000449386
-1.89218e-05
0.000468307
-0.000543218
9.3831e-05
0.00101331
7.52889e-05
-0.00181215
0.000609884
-0.000150337
1.69883e-05
0.000133348
0.00136804
-0.00234447
0.00097643
0.000271103
-0.00013581
-0.00392566
0.00513958
-0.00245794
0.00070896
-9.41759e-05
-0.000416761
0.000510937
0.0056858
-0.00216865
-0.00351716
7.7726e-05
0.00250725
-0.00258498
0.0044499
-0.00559902
0.00114912
0.00263531
0.00305049
0.00291378
-0.00283605
-0.00613579
0.000436368
-0.00645219
0.00362092
0.00283127
0.00229321
0.00390371
-0.00438824
0.00137374
0.00301449
0.00151317
-0.000204
-0.00102179
0.00401729
-0.0029955
0.00463834
-0.00162489
-0.00301346
-0.0045977
0.00374714
0.000850562
0.00369352
-0.00502986
5.77798e-05
0.000331374
-0.00136734
0.00581725
-9.11707e-05
0.00214877
-0.00205759
-0.00207061
0.00261369
0.00016601
-0.00277969
-0.00127739
0.00264543
-0.000639907
0.00325359
0.00164265
-0.00173381
0.000890875
0.00396934
-0.00486023
-0.00504231
0.00384318
0.00119913
0.00255194
-0.00359409
0.00104215
-0.00331297
0.00411405
-0.000801071
0.000355691
-0.00366866
-0.000918009
0.000918009
-0.000452432
0.000358256
-0.000126972
-0.000973458
0.00110043
0.00506881
-0.00184142
-0.00322739
-0.00243432
-0.000369463
0.00290017
0.000157852
1.65795e-05
-0.000174432
-0.00147218
0.00112828
0.000343905
-0.000143488
-0.00489882
0.00503961
-0.0038856
0.000221086
-8.03646e-05
0.00444361
0.000576696
0.00406761
-0.00151567
0.000164903
-7.05064e-06
-0.00633652
-0.000990462
-0.000821692
0.00429981
-0.00190316
-0.00239666
0.00275771
0.0015421
0.00107768
-0.00563205
-0.00226628
-0.000547297
-0.00112037
-0.00095767
0.00207803
4.13708e-05
-0.00272344
0.00268207
-0.00235978
0.00123942
-0.00221807
0.00530378
-0.00461257
0.00159388
0.00301869
0.00254862
0.000667516
-0.000337091
-0.000330425
-0.00601556
0.000582798
0.00543276
-0.00418316
0.00582183
-0.00163867
0.00182508
0.00163029
-0.00345538
-0.00167792
0.000904769
0.000773145
-0.00271367
0.00208461
0.00062906
0.00111564
0.000765176
0.000247204
-0.000328943
8.17401e-05
0.00488407
-0.0039932
-0.00638594
0.00557488
0.000811057
-0.00478161
-0.00167058
0.00334956
0.000625782
-0.00397534
0.00015399
-0.00016222
8.23054e-06
0.000590457
-0.00012527
-0.000465187
-0.00451805
0.0026149
0.000375509
-0.000570108
0.000194599
3.64893e-05
-0.000954501
-0.00257578
0.00448444
-0.00530415
-0.000322554
0.0056267
0.00019969
0.000213454
-0.000413144
0.00113389
-0.00113389
0.00168651
-0.000724023
-0.00210969
0.00181895
0.000290745
0.00439642
-0.00302268
-0.000162378
6.31006e-06
-0.00125727
0.00129376
0.000679758
0.00130041
0.00235048
-0.00026587
-0.00401968
-0.00128446
0.00111923
-0.00497441
0.00321236
-0.00446482
0.00083586
-0.0021378
0.00130195
0.00335972
-0.00457804
-0.00271097
-0.00180709
-0.00483664
0.00469315
-0.0006767
-0.00533886
-0.00515919
0.00148723
-0.00147755
-9.68067e-06
0.00223004
0.000120437
-0.00601445
0.00204859
0.00396587
-0.00121933
0.000526007
0.000693315
0.00144654
0.00294988
-0.00462794
-0.00101421
0.00564216
-0.000212846
0.000138576
7.42697e-05
-0.00550891
0.00132575
0.00375317
-0.00493688
0.00118371
-0.00149545
-0.000614245
-0.000536683
-0.000637498
0.000138333
-0.00020379
6.54562e-05
0.00497813
-0.00385366
-0.00130034
0.00512509
-0.00382475
-0.000455301
-0.000801969
-0.00586142
0.000439573
0.00539564
-0.00616104
0.00456372
-0.000921455
-0.00546449
-0.00109686
-0.000375323
-0.00181837
0.00285805
-0.00103969
-0.000419085
0.00032198
9.71052e-05
-0.00173206
0.00141744
0.00161935
-0.000132123
0.000828485
-3.67487e-05
-0.00169531
0.00279693
0.00121666
-0.00303502
0.00605388
-0.000478995
0.00528239
6.86639e-05
-0.00528059
0.00439077
0.00114505
-0.00553583
0.000556518
-0.000768898
0.000212381
-4.04586e-05
-0.000411973
-1.05166e-05
0.00606439
-0.000162168
0.000156817
5.35148e-06
0.000133408
2.05817e-05
0.00254149
-0.00335554
0.000814044
-0.00190506
0.00069816
0.0012069
0.00792152
-0.00345415
-0.00446737
0.00117042
0.00126437
-0.0024348
0.000105486
-0.000172081
6.6596e-05
-0.000805876
0.00133188
0.00115596
0.00318325
-0.00433921
-0.00561466
0.000165784
0.00544887
-0.0040165
0.00299472
0.00173497
0.00479532
0.00458579
0.00333572
-2.05111e-05
0.000191316
-0.000170804
-0.00130091
0.00439005
-0.00308913
0.000300523
-0.000340982
-0.00013135
-8.1496e-05
0.00410149
-0.00227641
0.00474867
-0.00500913
0.000260467
-0.00323883
0.0060679
-0.00282907
0.00252823
0.00157326
0.00574439
-0.000995722
-0.0013882
-0.00562135
0.00137261
0.00424874
0.000654705
0.000520473
-0.00117518
0.00126938
-0.000614679
0.000585412
-0.00111009
0.000524684
0.00110589
0.000279725
0.000387792
-0.000678214
0.00443139
0.00152127
-0.000392992
0.00352169
-0.00611057
0.00258889
0.0015356
-0.00258472
0.00104912
-0.00431367
0.00115749
0.00315618
0.00291631
-0.00421722
-0.00490426
-0.00125679
-0.00409769
0.00126601
0.00283168
0.00124128
0.00314877
-0.0032653
-0.0008324
0.0022282
-0.00105779
-0.000674336
-0.00253514
0.00320947
0.00241077
0.000612451
-0.00302322
-0.00159094
0.0012055
0.000385435
0.000270052
0.00149185
-0.00196579
0.000473947
-0.000110899
-0.000222859
-0.000264396
0.000153497
-0.00435175
-0.000245951
-0.000297146
0.00117861
-0.000881467
0.00435154
-0.00464471
0.000293172
-8.84091e-05
0.000117751
-2.93414e-05
0.000970424
0.00338191
-0.00435233
-0.000156978
6.85693e-05
-0.00475186
0.000710333
0.00404154
-0.000776761
0.00010035
0.000676409
8.17422e-05
-8.36873e-05
-0.000400309
0.000864674
-0.000347479
-0.000517196
-0.00603619
0.000637385
-0.00254966
-0.000128191
0.00267784
-0.00317093
0.0044122
0.00218084
-0.00108874
-0.00116719
-0.00118465
-1.57239e-05
-0.00351845
-0.0012306
0.0015172
-0.000412085
-0.00110511
0.00191944
0.00183791
-0.00375734
0.00504025
-0.00160772
-0.00343253
0.000791164
-0.0054191
-0.00137344
0.00300373
0.00195387
0.000787331
-0.0027412
-0.00349897
0.0044694
-0.000153079
2.74231e-06
0.000933261
-0.00443223
-0.00449695
-0.000147781
-0.000998109
-0.00461655
0.00462334
0.00148321
0.00355704
0.0041603
0.00114178
-0.00530208
3.67479e-05
5.92482e-05
-9.59962e-05
-0.00141003
0.0033639
0.00370305
0.0035306
-0.00140305
0.00237257
-0.000969508
-0.0024811
0.000457972
-0.000878402
0.000751429
-0.000210654
0.000410345
-0.000208926
0.00170078
0.00376404
-0.00184461
-0.00108276
-0.00059516
-0.000107191
-0.000157205
0.00355047
-0.00163344
-0.0024037
0.00465281
0.0006745
-0.0030959
0.0024214
0.000647276
0.000760706
-0.00105785
0.00210023
-0.0013085
-0.00327482
0.00458331
-0.00218168
0.00481825
-0.000550765
0.00344456
0.000238431
-0.000221443
-0.00236342
0.000960371
0.00230883
-0.00386782
0.001559
-0.0012253
5.79156e-05
-2.11678e-05
0.00214888
-0.00279734
0.000648463
-0.00117115
-0.000419784
-0.00352606
0.00450564
0.00118988
0.00167709
-0.00286697
-0.00169242
0.00366408
-0.00197167
0.00423798
-0.000856069
0.000234322
1.41129e-05
-0.000248435
-0.00372353
0.00203111
-0.00142262
0.00471231
-0.00328969
0.00087797
0.00130287
0.000160841
0.000973045
0.000253023
-0.000300726
4.77023e-05
0.00169386
0.000215251
-0.00190911
0.00301946
-0.00458311
0.00156365
-5.28644e-05
0.000374346
-0.000321482
0.00156657
-0.000361074
0.00141532
-0.000601856
-0.000813467
0.00282523
-0.00392244
0.0010972
0.00268125
-0.0037415
0.00106026
-0.00516009
0.00192126
0.00389681
-0.000877343
-0.000628868
-0.002379
0.00300787
0.00140623
-0.00511696
0.00371073
0.00336055
-0.00145893
-0.00190163
-0.000688747
0.00173254
-0.00104379
0.00477166
-0.0030367
-0.00070462
-0.00195977
-0.0059823
0.00514145
4.03193e-06
0.000121713
-0.000125745
-0.00158201
0.00120216
0.000379859
-0.00490624
0.00630652
-0.00140029
-0.00189064
0.000710314
0.00118033
0.0004071
0.00268704
-0.00208963
-0.000597413
0.00343455
0.000489772
-0.00392433
0.000124801
-1.93147e-05
0.00517221
0.000337371
-0.00550957
-0.00194073
0.0037976
-0.00185687
0.00276665
-0.000633835
-0.00213282
0.000462552
0.000402122
-0.000438084
0.00387263
0.00202571
-0.00396644
0.000701639
-0.000267609
-0.00043403
-0.000673702
2.26797e-05
0.000651024
-0.00315229
-0.00576473
0.005764
-0.000274588
0.000953385
-0.000678799
-0.00228961
-0.000191494
-0.00454741
0.0032389
-0.000865434
0.00112266
0.00360794
-0.00501993
0.001412
0.000410696
-0.00296035
0.00233294
-0.00244097
0.000108023
-0.00157143
0.00148228
8.91467e-05
-0.00121362
-0.000368395
-0.00339145
0.0034279
-0.00223802
0.000457241
0.000133216
-0.00173709
0.00104834
-0.00279072
0.000735733
0.00205499
0.000242332
-8.0093e-06
-0.00347739
0.00102276
0.00245463
-0.001442
0.0056023
0.000339703
-0.000955756
0.000616053
0.00212454
0.000642114
-0.00127775
0.000304293
0.00111802
0.00121492
-0.00142025
0.00494788
-0.00352763
-0.00484869
0.00576658
-0.000917889
-0.00117158
0.00228395
0.00410614
0.00107367
4.07845e-05
0.00585586
-0.00551758
-0.000338282
0.00354289
-0.00465361
0.00111072
0.00308946
-0.000678691
0.00542713
-0.0018192
-0.00250417
-0.000973218
-0.00218375
-0.000308723
0.00249248
0.00241726
-0.00196249
-0.00160818
-0.00424011
0.00274838
0.00149174
-0.000331584
0.00123635
0.00120575
0.00365121
-0.00485696
-0.000311693
0.000687203
0.00305957
-0.00238506
-0.00472481
-0.0012575
0.00647054
-0.00129833
0.0042346
0.00206108
0.000497863
0.00285596
-0.0021276
-0.000728362
0.00473604
-0.00245209
-6.84055e-05
-0.0033266
-0.000865616
0.00419222
0.00038848
-8.64551e-05
-0.000302025
-0.00514129
0.00610573
-0.000964434
-0.000723183
0.00190896
-0.00118578
-0.000697306
0.00525306
-0.00455576
0.00119071
-0.00191389
-0.000113375
-0.00576286
-0.000775137
0.00202844
0.00382743
-0.000257629
-0.00192612
0.000251406
-4.20177e-06
0.000362552
-0.000487822
0.00336037
-0.000818878
-0.00522601
-0.000271569
-0.000147516
0.000150199
-0.000133583
-1.6616e-05
-0.00248204
0.000122247
-0.00042096
0.00159802
-0.00101985
-0.000578163
0.00246165
0.000600186
-0.00306184
-0.00072264
0.00318428
-0.00520292
-0.000271508
0.00547442
0.00375075
0.00137435
0.00440667
-0.00122342
-0.000129209
0.00254648
0.00540385
-0.000206651
-0.0051972
-0.00608741
0.00425269
0.00183472
0.00321028
-0.00126838
-0.00435298
0.0002047
-0.000225211
0.00058037
0.000834951
0.00114871
0.000192441
-0.00134116
0.00421232
0.00119154
-0.000962134
0.0031712
-0.00220907
0.00472372
-0.00137416
-0.00218024
0.00279275
-0.000612509
-0.00117609
-0.000106954
0.000293842
-0.000186888
0.0034465
-0.00414381
0.00134731
-0.000987677
-0.000359636
0.00159909
-0.000396936
-0.00325108
0.00228894
0.00548844
-0.00434339
-3.06322e-05
0.000352613
-0.00535729
0.00045105
0.0054293
-0.00190761
-0.000998554
-0.00361488
0.00461344
-0.000645667
0.0028832
-0.00223753
0.00549727
-0.00286246
-0.00263481
-8.83973e-05
0.000590367
-0.000677152
0.000660533
1.66192e-05
-0.000695003
0.00173592
-0.00104092
-0.00314959
-0.00116408
0.000155536
-1.72028e-05
-0.00122484
-0.0047896
-0.00307398
0.00239964
-0.000822181
-0.000311706
-7.26145e-05
-8.95535e-05
-0.00122327
-0.000806064
-0.00523013
-0.00283876
0.00219309
-0.000822514
0.00119326
0.00112365
0.00436918
-0.00549282
0.00338382
-0.00275804
0.000469712
0.000771901
-0.00288398
0.00211208
0.00497851
-0.00492014
-5.8371e-05
-0.00320944
0.00361557
-0.000406122
0.000207788
-9.56054e-05
-0.000112183
-0.00496623
-0.0014755
-0.0017597
0.00368992
-0.00193022
0.00298115
-0.00220924
-0.0037836
0.0020239
0.00139505
-0.00258175
0.00118669
-0.00363308
0.00568167
0.00650009
-0.002196
-0.00430409
-0.00239885
0.00237605
2.28001e-05
0.00559512
-0.00162578
0.00118675
-0.000925883
-0.000260872
-9.12249e-06
0.000262146
0.000249435
-0.000773645
0.00052421
-0.00304907
0.00365002
-0.000968772
0.000846882
-0.00105007
0.00236448
-0.000633196
-0.00173129
0.00221121
-0.000517342
0.00451721
0.000632068
0.00173242
-0.00175693
0.00106193
0.000408601
-0.000464693
5.60921e-05
0.00221962
-0.00174619
-0.000473429
0.00082523
-0.0051478
-0.000544561
0.000369494
-0.000588348
0.000218853
-0.00410147
0.00547408
0.000941952
-0.00111663
0.000174685
-0.00153517
0.00216177
-0.000626605
-0.00148777
-0.00275235
-0.00537881
-0.000155012
0.00553382
0.000301343
0.000108311
4.18887e-05
0.000127158
-0.000127376
2.17816e-07
0.00410613
-0.00290037
-0.00379588
-0.00231468
0.00346715
0.00303293
-0.00259192
0.000720488
0.00187143
-0.000844626
0.00223967
-0.00229883
-0.000100019
0.00272998
-0.00377769
0.0010477
0.00131258
-0.000133967
0.000462367
0.000550946
-0.00327725
0.000962316
0.00231494
0.000911376
-0.000614416
-5.92876e-05
-0.00427051
0.00171906
0.000108008
-0.00182706
-0.00396447
0.00146344
0.00250103
0.000515256
0.00147517
-0.000894807
-0.00024678
-0.00466016
0.00490694
0.000784145
-0.00247671
0.00169257
0.00120221
0.00131232
-0.000458298
-0.00172634
0.00218464
0.00258001
-0.00179587
0.0044673
-0.00353404
-0.000774997
-0.00264092
-0.000227412
0.000251788
-0.000705642
0.0017659
-0.00106026
0.0026613
-0.00366656
0.00100525
0.000136422
2.03948e-05
-0.00236476
-0.000912499
0.00142116
-0.00163617
0.000215009
-0.00277521
0.000685586
0.00127617
-0.00141854
0.000142371
0.00161851
-0.00180764
0.000189131
0.000675725
-0.00372269
-0.00115413
0.00134179
-0.00488961
0.00354781
-0.000911846
0.00357313
0.000118643
-7.86355e-05
-4.00078e-05
0.0047365
-0.00361284
-0.000317607
-0.00152652
-0.00400988
-0.00149904
0.00209315
0.000699599
-0.00100612
-0.000922343
-0.00450883
-0.00162696
-0.000356653
0.00124178
-0.000932211
-0.000309566
-0.00149728
-0.00108745
0.000654822
0.00225916
-0.00291398
-0.000114199
0.000670716
-0.000715986
3.88339e-05
-0.00246153
0.00196645
0.0013941
-0.000686144
0.0016305
-0.000944353
-8.68529e-05
-0.000116937
0.000315895
-0.00194809
0.000452644
0.00161581
-0.00230872
0.000692908
-0.00333792
0.00258563
0.000752277
0.00120428
0.00240723
-0.0036115
-0.001755
0.00104936
-0.00294284
-0.00102163
-0.000784783
-0.00255313
-0.00167793
0.00125562
0.000422314
0.00176725
-4.8193e-05
-0.000760532
-0.00243571
0.00319624
-0.000666182
0.00291356
-0.00225873
-0.000858544
-0.00394758
0.00480613
-0.00234279
0.00234139
1.40142e-06
-0.000776761
-0.00156542
0.00054557
-0.0024057
0.00381803
-0.00141234
0.00323289
0.00288523
0.000194336
3.62224e-05
-0.000230559
0.00234058
-0.000602359
-0.00173822
0.000188169
-0.000184137
-0.00358756
0.00492935
-0.00328964
0.00523845
-0.00194881
-0.0035103
-0.00150963
-0.000916599
0.0032317
-0.0023151
0.00285785
0.00177405
-0.00417976
-0.00499396
-0.000147333
-0.000781464
0.00284534
-0.00206387
-0.000431657
0.000378792
-0.000532793
0.00167751
-0.00114472
-0.00402626
0.00334227
0.000683986
-0.00327037
0.00235377
-0.00386727
0.000672706
0.00319456
0.00141075
-0.00101479
-0.000395959
-0.00589958
0.000696659
0.00184693
-0.00141131
-0.000435617
0.00144725
-0.000410784
-0.00103647
7.83784e-05
0.000129409
0.00293026
-0.000631271
-0.000215547
-0.00348779
-0.000379482
0.000427943
-0.00305592
-0.000970343
-0.00233697
-5.82241e-06
-0.00292111
0.00229224
0.00072014
0.0026022
-0.00332234
0.000586594
-0.000861181
0.0014088
-0.00671621
0.00530741
-0.00576697
0.000985353
-0.00233383
0.00353811
0.000695928
0.000257458
-0.00273322
0.00345336
-8.78167e-05
0.00506633
0.000606613
0.00171144
-0.00231806
-0.00177602
0.00124323
0.00274802
-0.00369486
0.000946832
0.00509975
0.000675619
0.001544
0.000316475
0.000385164
-0.000364072
-0.000404826
0.000180992
-0.00174822
0.00176684
-0.000888867
0.000887923
0.000587248
-0.00058143
0.0030098
-0.00242837
-0.00150598
0.00184209
-0.000336106
-0.00489236
0.00380339
0.00108897
-0.0047956
0.00150596
-4.16955e-05
3.81646e-05
3.53101e-06
-0.00281264
-0.000853908
0.00109664
-0.0012975
0.000200866
0.00135059
-0.00493815
0.00116358
-1.48697e-05
0.00123573
0.000694078
0.00218912
-0.00366677
0.000854136
0.000188718
-0.00503741
0.00190102
0.00123093
0.000678035
-0.00527289
-0.000491845
0.00565063
0.00118658
0.00710752
-0.00218463
-0.00492289
0.000791711
-0.000377819
-0.000413893
0.000710457
-0.00138619
0.000791029
-0.00386046
-0.0012565
0.000293842
-0.000957049
-0.000405901
0.00136295
0.00233213
0.00400853
-0.00486707
0.00270294
0.000834259
-0.00353721
0.00125116
-0.000965752
-0.000285407
0.000744873
0.0015957
-0.000135109
0.000138341
-3.23233e-06
-0.000709308
0.00288365
-0.00217434
0.00362081
0.0010915
-0.00126264
-0.000415291
0.00141299
-0.00151139
9.83999e-05
4.60395e-05
7.26038e-05
-0.00447756
0.00096726
-0.00165554
0.000441914
-0.00364935
0.0029267
-0.000951713
6.91463e-05
0.000933279
0.00268118
-0.00361446
0.000849084
-0.00126928
0.00418313
-0.00291386
0.000318946
0.000279878
4.65704e-05
-0.000326449
7.84264e-05
-0.00539161
0.00531318
-0.00263523
-0.000774426
0.00340966
-0.0034873
0.00261257
0.000874739
-0.00276716
-0.000259827
-0.0017149
-0.00490988
0.000899996
-0.00145687
-0.000880099
-0.00106254
0.00379253
0.00171054
-0.00372625
0.00201571
0.000105632
2.15264e-05
0.00372515
-0.00201461
0.00286413
0.00095176
-0.00381588
-0.00130462
0.00174109
-0.000436463
0.00357311
0.00109722
-0.00467033
0.00717901
-0.00197471
-0.00520429
-0.00212842
-0.000710338
-0.001736
0.00234261
0.00377264
-0.00492539
0.00115274
-0.00280354
0.00373682
0.00116063
-5.33601e-05
-0.00110727
0.00148135
0.00090719
-0.00550654
0.000602282
0.000440137
0.000351573
0.00292149
-0.00111971
-0.00252099
0.00248087
4.01225e-05
0.000504573
-0.00184082
0.00133624
-0.00387021
-0.00119224
0.00108789
-0.00254476
-0.00529912
0.000151319
-0.00125738
-0.000519274
0.00177665
0.00563415
-0.00449237
0.000104463
0.000284018
-0.00301914
0.00318516
0.00144127
-0.00107275
-0.000368524
0.00346875
0.00475643
-0.00095305
0.000635955
-0.00327118
0.00115063
-0.00105029
-5.28781e-05
0.000461479
0.000394047
-1.97012e-05
-0.00206841
-0.000438451
0.00153508
-0.000901678
-0.00349741
0.000764198
-2.81321e-05
-1.35635e-05
0.00599849
-0.0049208
0.00522018
-0.00439339
-2.15256e-05
-0.000676409
0.000697935
0.00194901
-0.000458148
-0.00149086
0.00335885
-0.000756656
-0.00256856
0.00336119
-0.000792628
-0.00183481
0.000530192
0.00127957
-0.000953382
-0.000326193
-0.000118766
-0.000210176
0.0020593
-0.000547973
-0.00151133
-0.00138067
-0.00239518
-0.000125808
0.00209016
-0.00274573
0.000655571
0.00280673
-0.000750109
-0.00205663
0.0041033
-0.00435007
0.000313824
0.00223799
-0.000622179
-0.000682067
0.000836028
-0.003675
0.00502559
0.00123555
0.000461975
-0.00171935
-0.00286202
0.00209743
0.00363231
0.00158787
-0.00114871
-0.00382564
-0.00113555
0.00130472
-0.00171806
0.000413342
0.00367573
-0.00318597
-0.000193999
0.00113595
-3.88125e-05
-0.000271158
0.000309971
-0.000690361
-0.00190156
0.00377235
-0.00490659
0.00113425
-0.00186397
0.00235407
-0.0004901
-0.00115305
0.00213376
0.000749884
-0.00226295
0.00375421
-0.00149126
0.00150679
-0.0011434
-0.000363383
-0.00104022
0.000263458
0.000206423
-0.000438856
0.000232433
-0.000424789
-0.00123075
-0.0024783
0.00250556
-2.72584e-05
0.00144713
-0.00371009
0.00162632
-0.000370699
0.000362941
-0.000427524
6.45833e-05
-0.000827024
0.000593115
0.000233909
-0.00079447
-0.00284539
0.00082195
0.00202344
-0.00199347
-0.000814583
-0.000744378
0.00155896
-0.00524016
0.00389429
0.00134587
-0.00132248
0.00130096
-0.000576367
-0.000115952
0.000692318
0.00286901
-0.000735253
-0.000770218
-0.000160315
0.000930534
0.00184127
-0.0013793
0.00169768
-0.000392954
-0.000171847
-0.000635696
-0.00420342
0.00483912
-0.0013955
0.0028311
0.00427641
-0.00239921
-7.90825e-05
0.00312313
-0.00473085
0.000732648
0.0015822
-0.00231485
0.00201546
-0.00279692
0.00198159
-0.000706644
-0.00127494
-0.00179618
0.000455661
0.00134052
0.00431548
0.00286352
-0.00551382
0.00133546
0.00417836
-0.00125116
-0.003989
-0.000459951
-0.00133623
-0.0010045
-0.000560923
-0.00129417
-0.000423889
0.00114156
-0.000531717
0.00151147
-0.000979751
-0.00175732
0.00129736
-0.00094424
-0.000207348
0.00115159
0.0021725
-0.00286768
0.000695181
-1.17668e-05
0.000206103
0.00103543
0.00605547
-0.00140764
-0.00464783
-0.00203506
-0.0018733
0.00134447
0.00052883
0.00127177
-0.000979051
-0.000292718
-0.00229425
-0.00102407
0.00331833
-0.00267178
0.00357966
-0.000907879
-0.000918755
0.00113197
-3.88442e-06
-0.00112809
0.00376074
-0.00493497
0.00117422
0.0017477
-0.00135573
-0.000391964
0.00242707
-0.00122486
0.00273595
-0.000635874
-0.00019115
-0.00408984
0.00229288
-0.00179966
-0.000493215
0.000560247
-0.00200932
0.00144907
-0.00251862
-0.000836918
0.000860605
-0.000658649
-0.000201957
-0.00018053
-0.00364116
0.000969383
0.000666352
-0.000459929
0.00259593
0.00098373
0.000318388
0.00131105
0.000670535
-0.00160389
0.00233653
-0.00150658
0.000992122
0.000514457
0.00354705
-0.000682915
-0.00380937
0.00610259
-0.00114584
-0.00249059
0.00683119
-0.0043406
-0.000887086
0.00356827
-0.00414181
0.000932376
-0.00210096
0.004249
-0.000682586
-0.00162613
-0.00244664
0.00171809
0.00072855
-0.00127911
0.000596472
-0.000597458
9.86744e-07
-0.00137587
-0.000776634
-0.000153534
0.000930168
-0.00156402
0.00136632
0.000197703
0.00204202
0.000803321
6.25438e-05
-0.00129993
-0.000556893
-0.000829295
-0.00241896
-0.000472813
-0.00140049
-0.000171153
0.00159232
-0.000180666
0.00341133
-0.000514248
0.00133871
0.000199619
-0.000800573
-0.00101298
-0.00193025
0.00247682
-0.000546578
-0.00104877
-0.0057289
0.00351083
0.00148527
-0.000597344
0.0028872
-0.00121011
0.000957223
-0.0013592
-0.00453048
0.00588967
0.000620043
-0.00255029
0.000740596
-0.00368716
0.00270242
0.000984734
0.000894279
-0.001426
0.00222767
-0.00311758
0.000889904
0.00119506
-0.00342946
0.00223439
0.000860421
0.00168841
-0.00254883
-0.000174436
0.00179294
0.0027492
0.001082
0.00361515
-0.000413516
0.000783009
0.00315886
-0.00402447
0.000979985
-0.00327423
0.000435031
0.00412503
0.00147919
-1.06953e-05
-0.000276178
0.000286873
-0.00619248
0.00385609
0.00233639
-0.000825791
-0.00261636
0.00344215
0.00263991
-0.00177949
-0.00369598
0.00089244
-0.00132172
-0.000435595
-0.000152738
0.00131949
0.00372463
0.00122325
0.000224732
0.00130927
-0.000993059
-0.000316209
0.000896666
0.000588602
-0.000313867
0.00376842
-0.00493254
0.00116413
0.00307526
-0.000847605
-0.00139903
0.0019036
0.00125975
-0.00355403
0.00229428
-0.00116656
0.0014565
0.000678232
-0.00213474
0.000192456
-0.000203152
0.00219964
-0.000861794
-0.00126988
0.000330216
0.000934583
-0.000348474
-0.000586109
0.0035322
-0.00227245
-0.000508398
0.00229394
-0.00178554
0.00102149
-0.00296522
0.00208712
0.000878107
0.000106925
-1.29281e-06
0.00466212
0.000542265
-0.00570249
-0.00519384
0.00392664
0.00126721
-0.00107597
-0.00269551
0.00377149
0.0022213
0.00372514
0.00282737
-0.00375298
0.000925616
-0.00147174
0.00110334
-0.000946442
0.00336905
-0.00242261
0.00149728
0.000562017
-0.00378488
-0.0024076
0.00106952
-0.00230405
0.00320927
-0.000905226
0.00342811
-0.000815546
0.000395572
-0.000803376
0.00254514
0.000882979
-0.000634731
0.00431047
-0.00130931
0.00171696
-0.000407648
0.00198608
-0.00128792
-0.000389737
0.00607691
-0.00491865
-0.000460157
0.000858322
-0.00246221
-0.00539151
-0.00172276
0.000413446
-0.00067816
0.000101793
-0.000868609
0.000212842
-0.00146969
0.0006593
0.00157868
-0.000905438
0.00013522
0.000804782
0.00251626
-0.00332106
-0.00109512
0.0018737
-0.001947
-0.000474139
0.00196121
-0.00148707
-0.00087459
-0.00209062
-0.00195178
0.00147764
-0.00265778
0.00346255
-0.0016438
0.000581444
0.00106236
-0.000977234
0.00357316
0.00600477
-0.00230172
-0.00130371
-0.00041904
-0.00173876
0.00109987
0.000638892
0.000904105
-0.004519
0.00361489
-0.00131232
0.000540887
0.000771432
-0.00403463
-0.00115921
0.000191908
-0.00113615
0.00193513
-0.000704204
-0.00134043
-0.00380289
0.00514332
0.00100342
7.02564e-05
0.00329708
-0.00252834
-0.000768738
0.000150591
0.00129666
0.000877108
-0.000670299
-0.000206809
-0.00134831
-0.00101511
-0.00107315
0.00510731
-0.00403415
0.000631138
-0.00249511
0.0001677
0.00124529
0.00377246
-0.0049601
0.00118764
0.00287594
-0.00205399
0.000102032
-0.000168329
6.62971e-05
0.00102775
0.000138087
0.000104244
0.00235396
0.00370151
-0.000573207
-0.000818567
0.00139177
0.000652482
0.00177227
-0.00242475
0.00239987
-0.00171136
-0.000688505
0.000475455
0.00147355
0.000425976
-0.000510211
-0.00080211
0.000599391
-0.0053242
0.000690324
-2.97913e-05
-0.00116007
-0.00130828
-0.00378904
0.00509732
0.00103474
0.0014374
-0.00189554
0.00254674
-0.000395041
-0.00490877
0.00530381
0.00012078
-1.87483e-05
0.000645404
0.00128973
0.00272998
0.000940222
-0.00367019
0.00137552
0.000471406
0.00258802
-0.00364181
0.00454591
0.00277412
0.000843353
-0.00361747
0.00167145
-0.000856419
-0.000815031
0.00132864
-0.00101979
-0.00030884
0.000422784
0.00105823
-0.00470005
0.000218459
-6.79285e-06
0.000199249
0.00602063
-0.00128414
0.0015265
-0.00212886
0.00252566
-0.00183009
-0.000695562
0.000853799
-0.00254403
0.00169023
0.00523489
-0.00281688
-0.000924616
-0.00159284
0.00500945
0.00148598
-0.00178142
0.000295448
0.000499867
-0.000103704
-0.000396162
-0.000992447
-0.00314074
0.00413319
0.000742397
0.0018196
-0.002562
0.00176753
-0.000281556
0.00224926
0.00140746