/*--------------------------------*- C++ -*----------------------------------*\
  =========                 |
  \\      /  F ield         | OpenFOAM: The Open Source CFD Toolbox
   \\    /   O peration     | Website:  https://openfoam.org
    \\  /    A nd           | Version:  7
     \\/     M anipulation  |
\*---------------------------------------------------------------------------*/
FoamFile
{
    version     2.0;
    format      ascii;
    class       volScalarField;
    location    "0.906";
    object      p;
}
// * * * * * * * * * * * * * * * * * * * * * * * * * * * * * * * * * * * * * //

dimensions      [0 2 -2 0 0 0 0];

internalField   nonuniform List<scalar> 
12359
(
0.0635053
0.0726419
0.0478364
0.10559
0.0669986
0.152735
0.183988
0.167057
0.224417
0.140656
0.205632
0.273381
0.485772
0.112915
0.100566
0.394729
0.439574
0.0519509
0.0516309
0.0856621
0.121816
0.248435
0.0790187
0.0909753
0.0755388
0.0819205
0.0488872
0.0487486
0.0509234
0.049337
0.0497165
0.0482954
0.0479841
0.0491264
0.0478626
0.0499015
0.0570479
0.0618534
0.065444
0.0593546
0.0706461
0.0605301
0.0546138
0.0539595
0.0503802
0.0506664
0.0501184
0.0495558
0.0512619
0.048989
0.0486216
0.0485107
0.0482226
0.0523607
0.0481634
0.0480064
0.053335
0.0479762
0.0479623
0.047908
0.0480478
0.0478646
0.0485548
0.513237
0.0528288
0.130131
0.0562465
0.0484344
0.0576789
0.345242
0.530518
0.0686156
0.0478275
0.0584357
0.0961629
0.0478633
0.0482059
0.0478433
0.0555191
0.314396
0.1227
0.0430865
0.046995
0.0484722
-0.0588923
0.0216807
0.0429056
0.045749
-0.072873
-0.053357
0.0476389
0.469694
0.0475969
0.0472041
0.0470924
0.00475576
0.046672
0.0472297
0.055944
0.0524331
0.105998
0.0477372
0.021869
-0.130324
0.0421329
0.0115642
0.0467712
-0.0575489
0.0245804
0.0119078
0.0467948
0.0431869
0.108099
0.0895118
0.0475997
0.043805
0.091309
0.042072
-0.0766678
0.0470307
0.0469334
0.173619
0.04558
0.00478353
0.0417723
0.0437291
0.0352677
0.0483679
0.047836
0.0416396
0.044387
-0.00265496
-0.00397071
-0.00267696
0.0468166
0.00554371
0.0442379
0.00542516
0.0477647
0.0357545
0.0471525
0.0649797
0.0129693
0.0467866
0.00671812
0.145212
0.0470044
-0.0496685
0.0419583
0.125065
0.00331397
0.047748
0.012973
0.0455168
0.0475502
-0.168735
0.105923
-0.00186887
0.0468022
0.0483594
0.0435473
0.0484095
0.00332378
0.0103263
0.0469766
0.0438923
0.0445854
0.172074
0.0116592
-0.0746466
0.0478442
0.0478637
0.0104869
0.0755399
0.0423882
0.0399079
0.0509574
0.0507454
0.109014
0.0402128
0.112893
0.0475281
0.0478376
0.0428133
0.0549398
0.205472
0.0419904
0.0464062
0.00364495
0.0417328
0.0466903
0.00612672
0.00563221
0.0454347
0.0108655
-0.135851
0.030184
0.042965
0.0136409
0.0421763
0.149082
0.00333507
0.0536946
0.0116902
0.0100644
0.0475071
0.00907939
0.0542686
0.00170158
0.040764
0.0472809
0.000199371
0.000243352
-0.545234
0.200626
0.0477671
0.0424497
0.0475969
0.0422283
0.0657264
0.0998238
0.0408283
0.0046523
0.471835
0.0414819
0.0472597
0.0663855
0.0253828
0.0427544
0.0437559
0.0435492
0.0469865
0.00757445
0.0537219
0.0458037
0.052769
0.047025
0.0125924
0.0460089
0.28995
0.0469496
0.0198438
0.0464295
0.0530004
0.0423992
-0.0491377
0.0479388
0.00148081
0.0430496
0.00635733
0.00130068
0.0612412
0.0503913
0.0441039
0.327605
-0.591546
0.0470368
0.0407771
0.398491
-0.0511011
0.0531989
0.0434343
0.0429638
0.010605
0.0739133
-0.464959
-0.0699628
0.0421541
0.0410525
0.00581633
0.010637
0.05885
0.0118257
0.044231
0.0407164
0.0469789
0.0408807
-0.120418
0.0409495
0.0467065
0.0477238
0.0100846
0.0380895
0.056305
0.020746
0.0470921
0.0453243
0.0477424
0.0477253
0.0483331
0.00324522
0.0427752
-0.468319
0.0467712
0.0467648
0.0219744
0.0430932
0.0990557
0.0474309
0.0486842
0.047657
-0.107479
0.042523
0.0476589
0.0427307
0.0469985
0.0430269
0.0436914
0.0441185
0.0429851
0.0519443
0.202511
0.0427341
0.0497824
0.0619263
0.0202296
-0.0572018
0.0423387
0.0568825
0.370401
0.0477171
0.0169308
0.0466618
0.0305393
0.0467556
0.0419851
0.224431
0.0163535
0.202541
0.0558424
0.0461027
0.00525595
0.00279246
0.0459278
0.00523044
0.00472255
0.046508
0.0481174
0.0481017
0.0481666
0.0481487
0.290238
0.0470708
0.103802
0.000780728
0.0536228
0.0112493
0.0164743
0.022561
0.031273
0.0156968
0.0317978
0.0556923
0.0182319
0.019462
0.0907091
0.0658064
0.0127165
0.0639775
0.0639142
0.0142294
0.103299
0.0436602
0.0481919
0.0287529
0.048151
0.0433295
-0.198614
0.500787
0.0435472
0.0477979
0.0468251
0.0474261
0.0154814
0.0475544
0.0475388
-0.0777324
0.0106863
-0.0505908
0.0454794
0.00854714
0.0383571
0.0466694
0.0139601
0.0285825
0.10875
0.0287274
0.0438943
0.046656
0.0101567
0.00830197
0.0409596
0.291912
0.0137266
0.00502512
0.0480256
0.0448766
0.0477804
0.383723
0.0107572
0.0456273
0.0614027
0.0629695
0.0471687
0.0471415
0.0473681
-0.0593195
0.0972779
0.0580022
0.0158816
0.003083
0.0471968
0.11278
0.0474165
-0.000169997
-0.0624193
0.297497
0.0524951
0.0901225
0.0249878
0.0204598
0.0331817
0.0284468
0.0494008
0.0330963
0.0132778
0.0475593
-0.0515718
0.056841
-0.00651409
0.00715866
0.0537707
0.0944073
-0.151783
0.0152132
0.0373241
0.00339647
0.00686892
0.016978
0.0421632
0.0473175
0.0507792
0.0467647
-0.00333712
0.0444977
0.0816759
0.0838944
0.0330102
-0.0570926
0.102603
0.0521838
0.0458996
0.387068
0.0466189
0.0454592
0.00348275
0.0478
0.0457632
0.0454403
0.233426
0.207216
0.048114
0.0458274
0.108408
0.0463647
0.0160986
0.0130154
0.0110336
0.0464718
0.047409
0.0460855
0.0476678
0.0833872
0.0166925
0.0200517
0.0505727
0.0494994
0.00117208
0.0494945
0.0449242
0.0407211
0.119185
0.00290168
0.0477492
0.0457227
0.00981581
0.0271211
0.0467289
0.04404
0.111424
0.0154828
0.00589527
0.018716
0.0464308
0.0451767
-0.00743042
-0.00445391
0.0476619
0.0345041
0.0468427
0.00403862
0.28092
0.0473506
0.0446236
0.0465727
0.0126925
0.0520606
0.0511773
0.0440361
0.047514
0.0275995
0.074214
0.0353287
-0.0374819
0.046701
-0.0431717
0.0458883
-0.117452
0.0149428
-0.00461817
0.0479531
0.0503703
0.0195939
0.0428728
0.0486104
0.054982
0.0523007
0.0526169
0.0690773
0.0121877
0.0118501
0.0470146
0.0425381
0.0165343
-0.00357781
0.0470149
0.0467046
0.0099836
0.0465108
0.224222
-0.155924
-0.107087
0.0470145
0.0390773
0.000957302
0.0514794
0.042772
0.452278
0.0467228
0.113267
0.086766
0.0388901
0.0430686
0.0487341
0.0333866
0.000621889
0.0276457
0.0498198
0.0470418
0.0478342
0.0518929
0.0509422
0.0534128
0.0120794
0.0483668
0.0467273
0.018401
-0.0799516
0.049679
-6.47037e-05
0.0468512
0.0503751
0.0935776
0.00173366
0.00125225
0.0946485
0.0438809
0.00120272
0.0472021
0.0478945
0.00379301
0.0345526
0.0432302
0.0344493
0.047473
0.0466967
0.0434002
0.0473038
0.00123919
0.101872
0.057163
0.116761
0.0134352
0.0372875
0.11139
0.0610786
-0.00529274
0.0111636
0.0619824
0.0520979
0.0479122
0.0359218
0.0187433
0.0470103
0.047812
0.0465177
0.0479477
-0.0179265
0.0349191
0.0303678
0.103663
0.0552686
0.233546
0.00414291
0.00129748
0.0432496
-0.00308913
0.0474575
0.048209
0.0464219
0.104177
0.1121
0.0442055
0.0279514
0.229121
0.0134621
0.00384119
0.0359824
0.06409
-0.130867
0.046174
0.0488199
0.0474932
-0.0120092
0.0486999
0.0284559
-0.0568906
0.0467213
0.0756804
0.0554196
0.0390511
0.0499123
0.0445459
0.0482074
0.0516768
0.0482591
0.0481463
0.0510996
0.00504372
0.00821997
0.0391407
0.330279
0.00168748
0.419903
0.0148431
0.0208917
0.0513849
0.0159729
0.0546524
0.00524306
0.316927
0.0962822
0.0538025
0.0414472
0.052237
0.0509379
0.0192975
0.0473158
-0.00700538
0.0482904
0.0974625
0.0464955
-0.0160346
0.00640898
0.00943924
0.0541382
0.0365009
0.00684815
0.0755582
0.00372294
0.0381236
0.00140282
0.0407733
0.0470507
0.0478903
-0.214122
0.0684903
0.0394466
0.0469638
0.0484662
0.052522
0.0811212
0.00819372
0.0138227
0.046541
0.041101
0.0532884
0.0393492
0.0357551
0.000485586
0.0537053
0.0553915
0.00772906
0.0408866
0.0377114
0.101751
0.0470147
0.0537662
-0.262542
0.0479438
0.00553139
0.0492396
0.0380971
0.0869675
0.00809611
0.0486847
0.0168486
0.0473515
0.11005
0.0417495
0.00700802
0.00925485
0.111089
0.0472216
0.000928841
-0.00641513
0.0543565
0.0399808
0.0420709
0.0343711
0.236295
0.0516759
0.0477864
0.0527524
0.0475731
-0.129262
0.0395493
0.00799347
0.0285379
0.013996
0.520963
0.0395086
-0.0578951
0.00857618
-0.0883403
0.0159982
0.0497299
0.0395387
0.0275265
-0.0499636
-0.0375295
0.0459377
0.0458687
0.116529
0.0453491
0.210417
0.0178674
0.0679184
0.0424253
0.391745
-0.106118
0.0400877
0.0470555
0.0470985
0.0918624
0.0525713
0.0574291
0.0498332
0.0127086
0.0751316
-0.0245295
0.348933
0.0466191
0.0807913
0.0122026
0.118268
0.0413955
0.112896
0.00621257
0.0928962
0.0501509
0.04696
0.00791412
0.00517766
0.0143278
0.116194
0.0106633
0.0210309
0.0489829
0.0464875
0.035703
0.245098
0.0357728
0.0101457
0.0645617
0.017255
0.0321093
0.0504467
-0.00562959
0.0295352
0.040884
-0.0134569
0.0559295
0.0232532
0.19849
0.047042
0.0293202
0.0479086
0.0546559
0.0439749
0.0484126
0.0470141
-3.52549e-05
0.0408316
0.0754913
0.0105211
0.0929981
0.027925
0.028183
0.00865285
-0.194418
0.0479284
0.054255
0.0215773
-0.0719276
0.00561417
0.0471403
0.508979
0.0469873
0.0419014
-0.166054
0.0525816
0.0474664
0.0474946
0.0632065
0.087758
0.0479517
0.0536275
0.107415
0.0484685
0.0508653
0.0502389
0.0461838
0.0888268
-0.01873
0.0518876
0.115028
0.00833987
0.00389358
0.00369567
0.013273
0.0502106
0.0417116
-0.0423327
0.00391474
0.0707088
0.0461406
0.0479696
0.11623
-0.00307978
0.0300726
0.035175
0.0298902
0.0497558
0.0406571
0.0820704
-0.235928
0.361032
0.0805317
0.0476802
0.0406386
0.0775344
0.34871
0.108984
0.0471752
-0.00126482
-0.0144738
-0.250274
0.0322864
-0.160946
0.0479436
0.050124
0.047984
0.00444413
0.0725634
-0.165965
0.0421689
-0.0868172
0.0451307
0.0481705
0.00888463
0.0518444
-0.000527107
-0.0436355
0.0533743
0.0313284
0.0213486
0.0327081
0.0532209
0.0733324
0.0704668
0.0277701
0.0767995
0.0533984
0.0480193
0.0505197
0.0485173
0.102452
0.0198133
-0.00914782
0.000473121
0.0838647
0.0222074
0.0205448
0.0400343
-0.0134068
0.0310319
0.0527293
0.0475053
-0.0019439
0.10652
0.0423276
0.0376829
0.0543844
0.0211074
0.100652
0.113661
0.0210386
0.242051
0.0197877
0.0849424
-0.0405166
0.0514793
0.0162013
0.00957597
0.0454161
0.0307142
0.0346268
0.0414806
0.0471966
0.0432321
-0.0156764
-0.00320315
0.0424247
-0.148074
0.09801
0.0484086
0.0481744
0.000258546
0.0483161
0.0756661
0.0115123
0.00284889
0.0482594
0.0505136
0.0468078
0.0483193
0.116674
-0.14112
0.0483799
0.0544686
0.0470205
-0.149045
0.0193006
0.0125972
0.0467848
0.0482828
0.0500688
0.0222762
0.0832508
0.0255878
0.0454471
0.0505031
0.0482044
0.0186889
0.0826673
0.0347393
0.0478041
0.0277952
0.0228244
0.0731806
0.0434536
-0.0185841
0.143458
0.0454033
0.0300669
0.0502366
0.0408698
-0.185755
0.0532253
0.0484593
0.00929672
0.102571
0.0801882
-0.142176
0.0740789
0.0316816
0.0251119
0.0543666
0.0367997
0.031523
0.053585
0.145183
0.0477609
-0.332216
0.081319
0.179274
0.0368008
-0.00565524
0.0935426
-0.00258046
0.260717
0.00563468
0.0222981
0.0300702
0.0359283
0.0469867
0.04118
0.0859166
0.000581649
0.0537657
0.0454707
0.00499026
0.014684
0.00450831
0.0780315
-0.000963581
0.00417414
0.0462722
0.0686503
-0.0511958
0.0850764
0.0469741
0.0309191
0.0511221
0.0469817
0.067032
0.0479305
0.0412647
0.24299
0.0898381
-0.0187006
0.0479683
0.047378
0.0475873
0.0538905
0.0513544
-0.00275324
0.0514859
0.0472625
-0.0184979
0.0191766
0.00525937
0.0667179
0.047772
0.0387657
0.089438
0.0306208
0.0479956
-0.0434769
0.00869582
0.10974
0.0477613
-0.238068
0.0954333
0.0479584
0.00256756
0.0355038
-0.0205927
0.0324495
-0.000426712
0.0924681
0.0471823
0.0495665
0.018877
0.0375362
0.0523704
-0.00884965
0.0527429
0.0528965
0.0950969
0.0447888
0.051069
0.0321795
0.00783597
0.04717
0.0528079
0.050839
0.0468924
0.0945328
-0.0433123
0.0234418
0.0539755
0.0513643
0.0386222
0.0469396
-0.196567
0.0769798
0.0477377
0.0689266
0.0387035
0.0972957
0.150731
0.00119235
0.0528038
0.00347918
-0.003625
0.0467424
0.0378794
-0.00246365
0.0428112
0.0477841
0.0704786
0.0245129
0.0514256
0.0478081
0.0388187
0.0819727
0.0483537
0.0293005
0.0479469
0.0343456
0.0650418
0.130262
0.0473981
-0.203602
0.0779566
0.0135571
-0.122412
0.0905358
0.0287885
-0.0337197
0.0544569
0.139251
0.20569
0.0511213
0.0416358
0.0415517
0.0495454
0.051471
0.00539727
-0.0806943
-0.146526
0.00721935
0.146313
-0.00662108
0.00841775
-0.0565578
0.0472407
0.0497731
0.0452883
0.022133
0.0470462
0.00686358
0.033115
-0.0101182
0.0470655
0.0502972
0.045125
-0.154428
0.117303
0.0758887
0.0592513
0.119863
0.0417745
0.0483198
-0.0184059
0.0329316
-0.0141144
0.0058901
0.0192327
0.00271869
0.0126043
0.0549411
0.046594
0.0469898
-0.124918
0.0389861
0.0360449
0.0509772
0.00304963
0.0160499
0.0474361
0.0169271
-0.0154561
-0.000250037
0.0923309
0.050936
0.0474558
0.00328152
0.054039
0.0472031
-0.00284939
0.00582434
0.0510115
0.136445
0.000548581
0.0475442
0.0474328
0.0468558
0.104923
-0.143063
0.0378162
0.00836215
0.0503282
0.0506848
0.00881698
0.0477059
0.17794
0.0125294
-0.0512162
0.151856
0.0267137
0.0465744
0.0470711
0.0293287
0.0542298
0.0465144
-0.182508
0.00368768
0.0414338
0.217344
0.0990305
0.0418445
0.0470149
0.04743
0.050479
-0.0756237
0.159254
0.0306272
0.0751345
0.0647232
0.00437135
-0.0789582
0.0206164
0.0522889
0.0507102
0.014361
0.0378534
0.0465773
0.0497471
0.00216202
0.0513694
0.0296181
0.0531686
0.0795858
-0.0129096
0.044438
0.0498533
-0.00529926
0.00213762
0.0566915
0.049619
0.0744097
-0.000734442
0.0360827
0.0151753
0.0720034
0.0133861
-0.0339818
0.0509973
0.156452
0.0466558
0.102836
-0.0017273
0.0476695
0.0471509
0.373756
0.0476853
0.0538579
0.0236762
0.0525943
0.0527349
0.0557069
0.0475947
0.0475746
0.000149868
-0.0274348
0.045439
0.329431
0.0337387
0.0495475
0.233926
0.0972432
0.0530524
0.0427888
0.0492033
0.0863111
-0.273624
0.0524369
0.0453772
0.0468148
0.0496904
0.0616243
0.0141657
0.0519848
0.0624883
0.0507692
-0.156817
-0.00869575
0.00628384
0.108222
0.033562
0.0496402
0.00316868
-0.119426
0.050728
0.047019
0.0495745
0.0441939
0.0525561
0.0463053
-0.00425175
0.0424467
0.0413522
0.312241
-0.00136799
-0.00803767
0.00262907
0.0523678
0.000234735
0.0847167
-0.0896536
0.0451796
0.00836774
0.0476925
0.241167
0.0470631
0.0470295
0.0264169
0.0468496
0.0229923
0.0571304
0.0526403
0.0450373
-0.0935461
0.0853713
0.00882788
0.0498154
0.0331588
-0.0559684
-0.00905283
0.076515
0.0727814
0.047647
0.0532711
0.0438907
0.0495908
0.0454314
0.04978
0.0877948
0.0723399
0.00530895
-0.108697
0.0215076
-0.0105084
0.0299391
-0.1119
0.0462696
-0.0323116
0.0496609
-0.014742
-0.00765338
0.0224805
0.0472133
0.0266875
0.00879644
0.0286319
-0.00876153
0.230762
-0.106256
0.0496109
-0.00426642
0.0433376
-0.00687456
0.0881227
0.00154972
0.0425892
0.0556021
0.00782987
0.0504208
0.034065
0.0475347
0.0425193
0.0470755
0.0533476
0.00503063
0.00114429
0.0472339
0.0822017
-0.0841214
0.486266
0.0466507
0.0711766
0.0208544
0.191285
0.0289021
-0.182798
-0.0364447
0.044801
0.0217503
0.0649136
0.174391
0.0461396
0.0654746
0.0758985
0.0450968
-0.0887734
-0.00570474
0.0496611
0.022703
-0.0352815
0.0740734
-0.0902701
0.034441
0.0762527
0.0519498
0.0466616
0.0533772
0.0418384
-0.077029
-0.000526295
-0.0654859
0.0482234
-0.0872993
0.0272418
0.00185053
0.108772
0.0220737
0.0247127
-0.0568605
0.0342344
0.032382
0.00400229
0.0679465
0.0232091
0.00690856
0.0674907
-0.0924538
0.0831116
0.0318218
0.0863068
0.0482331
0.111194
-0.000118369
0.0992676
0.0509569
-0.0381426
0.0472965
0.0310918
0.00661364
-0.00110906
0.0550232
0.0049064
0.0428324
0.505724
0.0533398
0.00422057
0.0893032
-9.5895e-05
0.00553943
0.0473433
0.0286062
0.0470342
0.462604
0.0474972
0.0471697
0.0468597
-0.0158658
0.0414115
0.0414946
-0.0107946
0.0247981
0.0619313
0.041306
0.0471387
0.104832
0.0455404
0.101605
0.00549211
0.0838714
0.0369214
0.0388165
0.0230383
-0.0159743
0.00728072
0.0404652
0.533227
0.0474779
0.0471951
0.0534778
-0.142286
0.0509853
0.0269495
0.0758505
0.0513607
0.0383892
0.00147871
-0.0249463
0.0306608
-0.0485501
0.0523017
0.042452
0.0119167
0.0162455
-0.000710141
0.0495912
0.0218262
0.0696356
0.19278
0.0340306
0.0471801
0.0423508
0.175948
0.0478025
0.0478073
-0.0380351
0.0293789
-0.041705
0.0384092
0.0470691
0.187351
-0.0157448
0.0421887
0.0526263
0.045401
-0.115098
0.0478102
0.0311514
-0.0291895
0.0478103
0.0471254
0.00746871
0.0466884
0.0478199
0.0107465
0.0486447
0.0470221
0.0193244
0.0467568
-0.0144851
0.0470604
0.0559642
0.117351
0.00665096
0.047821
0.0034343
-0.174661
0.0384526
0.0717041
0.0453487
0.0314695
0.0457894
-0.0195587
-0.00737885
0.0429035
0.0471318
0.129411
0.0270142
0.0126191
0.00882872
0.127313
0.0466979
0.00413174
0.0471196
-0.0215674
-0.00782651
-0.00598701
0.00632526
0.154284
-0.0922745
0.00404598
0.00813822
0.0455239
0.0497456
-0.000465395
0.134093
0.0962447
0.029549
-0.0746842
0.0466848
-0.0653213
0.208447
0.0464837
-0.00949412
-0.018273
0.078018
0.00633812
0.00507098
0.0704184
0.0471356
-0.0143206
-0.0663555
0.264161
0.0524104
0.00162488
-0.0326733
0.139766
0.0490232
0.0470934
0.00500532
-0.0552834
0.0381429
0.0662845
0.047373
0.0466719
0.0539668
0.052163
0.0224992
0.0529349
0.047082
-0.0181198
0.0317289
-0.027894
0.0128562
0.047349
0.04713
0.140918
0.0519136
0.0775958
0.0582853
-0.0476901
0.0784347
0.0463535
-0.025295
0.0564289
0.0470633
0.0241003
0.0360532
0.0380579
0.0924448
0.0225587
-0.153384
0.0378396
0.0468279
-0.028916
0.0468202
-0.00791796
0.0281929
-0.0275534
-0.0498929
0.0941641
-0.0333509
0.0473849
-0.0106326
0.0511792
0.0696685
-0.0252309
0.0175427
-0.0254688
-0.0660031
0.170305
-0.0133648
0.0612224
0.0463003
0.0469481
0.0467974
-0.0336745
0.139169
0.0463299
-0.0166917
-0.0211022
0.0124038
0.000768779
0.0243663
0.10736
-0.0305024
0.0518339
0.0100078
0.0224975
0.0476843
0.0477034
0.0490093
0.0522366
0.00874238
0.0472746
0.0495825
0.0535681
0.0716052
0.000315062
0.0467683
-0.0208961
0.0470584
0.00186636
0.0111098
0.0493771
0.0386329
-0.000163431
-0.021824
0.0334508
0.0753573
0.0520349
0.0239417
0.0292105
0.047146
0.0512408
0.0514033
0.0494395
0.0471953
0.0669982
0.0471819
0.123676
0.0108403
-0.0938331
0.0472081
0.0569753
0.0473057
0.0471506
0.12036
0.056085
0.0464948
0.32054
0.131793
0.0348463
0.0622295
0.0362175
0.118126
0.0166583
0.00681707
0.0533042
0.053451
0.0471303
0.0477592
-0.0135215
0.0467161
0.0490752
0.120522
0.049416
0.0511256
0.0238307
0.0470764
-0.0373511
0.0472357
0.0490194
0.00631549
0.0073194
-0.073931
0.107157
0.0679995
0.0492547
0.00551595
0.0491995
0.0228074
0.00392835
0.0533332
-0.0299074
0.0478767
0.0235568
0.0676501
0.0498408
0.0992178
0.0472197
0.0532987
0.0471303
0.0267671
0.046629
0.0510402
0.021475
0.0427618
0.0681442
0.0244337
0.0471634
0.024435
0.010249
0.0531732
0.00667278
-0.0155384
0.0471228
0.0281528
0.107151
0.00107816
0.0538149
0.0413333
0.0413272
0.0222969
0.0544707
0.148537
0.051875
0.0472721
0.0472997
-0.0217423
-0.0106055
-0.023494
0.28352
0.0984464
0.0482877
0.0231967
0.00878823
0.0476303
-0.0597343
0.0514875
0.102261
-0.00033967
0.049069
0.14245
-0.0101867
-0.0180418
0.020196
0.0267312
0.0475616
0.0467486
0.0582502
0.0471542
0.0470964
0.133557
0.0495192
0.0615392
0.0463719
0.0349223
0.0420645
0.372548
0.0380663
0.041144
-0.010959
0.101624
0.0917711
0.0315368
0.106539
0.0470641
0.0435726
0.0033285
0.0699122
0.1222
0.0487163
-0.000702867
0.0373294
0.0481137
0.0495364
0.0471198
0.0623421
0.0380353
0.0476191
0.0276302
0.257513
0.0477118
0.00974493
0.0289106
0.0466728
0.0606303
0.0497528
0.024993
0.0471434
0.0470522
0.0121156
0.026881
0.0891515
0.140278
-0.23511
0.0531606
0.0618857
-0.039557
0.0303369
0.0496921
0.0376191
-0.000940922
0.0471817
0.0507822
0.0471204
0.0274832
0.0623858
0.0154058
0.0471911
0.058678
0.0309638
0.0517083
0.116128
0.0428132
0.0469441
0.0471868
0.0267673
0.0199515
0.308682
0.0579809
0.0798667
0.00431116
0.00313521
0.0469141
0.098389
0.0471751
0.0471379
0.0476917
-0.00432791
0.0523825
0.0323812
0.00534648
0.0174565
0.00436495
0.0275305
0.0615414
0.111459
0.044364
0.00937899
0.0895509
0.0300965
0.12603
0.0511218
-0.161363
0.140047
0.132407
0.0466231
-0.115367
0.00388797
0.00577529
0.135309
-0.000319253
0.056088
0.0537954
0.0351366
0.0311881
0.0284144
0.209239
0.0713353
0.0515468
0.0120785
0.0516351
0.0321226
0.0208324
0.0914437
0.0325212
0.065688
0.0810806
0.00454412
0.0937294
0.0287756
0.0479626
0.0577183
0.0464668
0.0420401
0.0457505
0.0519835
0.0166301
-0.0492069
0.046784
0.163656
0.0461658
0.0378365
0.00735503
0.0275863
0.0307727
0.045509
0.00557307
0.0100804
0.250594
0.0471654
0.00707908
0.0335941
0.00795815
0.0476985
0.0473857
0.149231
0.0210315
0.0293385
-0.12822
0.0240648
0.036472
0.136414
0.0120367
0.117605
0.0531287
0.0152855
0.0338908
0.0427816
-0.0286353
0.0054185
0.0173546
0.0304364
0.0465301
0.00453931
0.00417529
-0.00103453
0.0363234
0.0342752
0.414628
-0.0415441
0.0461483
-0.0142926
0.0172151
-0.110135
0.0470953
0.0291986
0.029809
0.0470932
0.00242142
0.0243775
0.0505449
-0.00010158
-0.0238234
-0.00163497
0.0532736
0.0211217
0.0477278
0.0420368
-0.0281136
0.0800417
0.0242632
0.00522624
0.144747
0.0219315
0.017221
0.0187051
0.00568813
-0.0289996
0.0455107
0.0190138
0.013269
0.089977
0.278348
0.0112009
0.0322437
0.0172094
0.0470948
0.0905338
0.0287367
0.0071801
0.0468442
0.0325529
0.00507942
0.0117924
0.147435
0.00862422
0.026059
0.0268572
0.0521515
0.00177648
0.0235985
0.0716029
0.0568246
0.0533512
0.00833157
0.0331965
0.0390465
0.035196
0.0471815
0.0047258
0.0600527
0.0263446
-0.00361201
-0.0471937
0.0411929
0.0247675
0.0141902
0.0213121
0.0472107
0.0972641
0.0971757
0.070086
0.0476733
0.226558
0.00524108
0.0503088
0.0876632
0.0466883
0.0552919
0.0295644
0.0238045
0.0515471
-0.106983
0.0484142
0.0569828
0.0399779
-0.0135476
-0.0319139
-0.000494025
0.0601187
0.00748355
0.047704
0.0266789
0.0727001
0.0484314
0.146889
0.0146381
0.0251903
0.00656453
0.0645705
0.0192312
0.0349987
0.046858
0.0470139
0.0442111
0.0609839
0.120257
0.0128848
0.144433
0.0805274
0.0875599
0.0490799
0.0673492
0.00549642
0.0470643
-0.0245159
-0.0193145
0.0501225
0.0471428
0.0369507
0.0452469
0.0469949
0.0625981
0.0311373
0.129992
0.0139009
0.0327099
0.0868879
-0.0115815
0.00443402
0.0843774
0.010699
0.0210103
0.0681744
0.0467533
0.0604066
0.0244302
0.119746
0.127975
0.21708
0.0470313
0.124196
0.0301891
0.029076
0.102841
0.104928
0.0977539
-0.0252628
0.0184381
0.0644408
0.0183103
0.0364616
0.0433466
0.0889548
0.046448
0.0142318
-0.0301715
0.0571711
-0.0270891
0.0460437
0.081463
0.0525208
0.0270794
0.10008
0.161048
0.0190621
0.0404426
0.0145414
0.0308482
0.0688356
-0.000109629
0.080076
-0.00308685
0.0470422
0.0187724
-0.14665
0.0961478
0.0326653
-0.0424048
0.00840299
0.0389916
0.0461203
0.101449
0.0908537
0.0310814
0.0546075
0.0487639
0.0045298
0.0411
0.00256678
0.0784467
0.0331817
0.14016
0.0470482
0.0430933
0.00371954
0.0341848
0.0348282
0.0638404
0.0541128
0.0264733
0.165853
0.104889
0.0468743
0.0039302
0.0416725
0.04679
0.131357
0.046434
0.0191186
0.0218476
0.0464364
0.046554
0.0499326
0.00590176
0.0589725
0.0956277
0.0256854
0.127863
0.0299548
0.0306139
0.0345099
0.0759375
0.0472485
0.0366156
0.0340629
0.0238117
-0.0215595
0.00774548
0.0644479
0.0423227
0.0529388
0.0281758
0.0399071
0.0587625
0.0186861
0.104213
0.0295119
0.0468203
0.00686672
0.0848514
0.00584363
0.046957
0.133376
-0.0249481
0.0432323
0.0961428
0.00462116
0.0511766
0.0935697
0.0016973
0.0872358
0.11224
0.00274831
0.0454108
0.0767252
0.0738996
0.0118901
0.0438918
0.0278181
0.0470116
0.0462149
0.0467202
0.0109229
0.0150525
0.0181906
0.0804216
-0.0631786
0.167429
-0.0605735
0.0252549
0.0396621
-0.0403343
0.0474356
-0.10192
0.0298859
0.0204005
0.0156579
0.0257611
0.0624737
0.0384315
0.0299017
0.0519386
0.0469343
0.0756351
-0.037108
0.0113741
0.00505708
0.0147034
0.0500075
0.0252819
0.0140962
0.0526412
0.0215781
0.0353532
0.116706
0.0836074
0.0787851
0.0914004
-0.00182771
-0.000106328
0.00466876
0.0201831
-0.0050923
0.0120467
0.0559381
0.0405784
0.12911
0.0718908
0.00529834
0.0472054
0.0937577
0.124907
0.071662
0.0773509
0.0545806
0.0145728
0.11192
0.0253167
0.0214877
0.0313029
0.0301538
0.0460168
0.0255846
0.0271003
0.0514557
0.0174226
0.0268953
0.0418115
0.102125
0.041066
0.0382172
0.0735724
0.0531443
0.046369
0.0488178
0.00165256
0.0136931
0.0478361
0.0696223
-0.0512281
0.00520766
0.0536274
0.016656
-0.0192009
-0.0407296
-0.00533313
0.02976
0.0305083
0.0531018
0.0305087
0.0234158
-0.000373266
-0.00132607
0.00123483
0.000742033
0.031396
0.0460115
0.045737
0.126937
0.0601239
0.0322781
0.0350604
-0.000411386
0.0420953
0.0246799
0.146877
0.0847756
0.00957492
0.0521556
0.0140673
0.0466565
0.00677519
0.000582524
0.0242912
0.04671
0.0567757
0.1644
0.0390743
0.0865833
-0.0167924
0.04708
0.0317316
0.0922482
0.0991917
0.0679011
0.0476545
0.0430592
0.0441557
0.0476233
0.0467319
0.038432
0.00568304
0.0467204
0.0542088
0.0517423
-0.34674
0.11655
0.0441853
0.0470284
0.00905405
0.0142659
0.0213676
0.0747478
0.0151475
0.0462387
0.0395787
0.00379108
0.0475522
0.0116351
0.0909225
0.0690847
0.0453752
0.0101582
0.0473195
0.0366297
0.0346717
0.0389385
-0.00379316
0.0572457
0.0320347
0.0304429
0.108575
0.0791591
0.0466546
0.0471451
0.0328429
0.0295472
0.0116237
0.0184107
0.0373201
0.00604707
0.0781499
0.0476494
0.0342983
0.00496576
0.0359854
0.0825657
0.0615587
0.0495171
0.148283
0.0197667
0.123458
0.138254
0.0247291
-0.00258929
0.000117127
0.122976
0.036693
0.00437077
0.0722222
0.033234
0.0178287
0.0875605
0.0697453
0.0486751
0.00204551
0.029166
0.0245255
0.0379296
0.00496152
0.0486761
0.0783456
0.0484919
0.0548681
0.0832936
0.0528698
0.0402701
0.104081
0.00612406
0.0891524
0.0251127
0.0699464
0.00719142
0.059293
0.0101894
0.0482238
0.0268337
0.00792127
0.0651768
0.0250805
0.0481816
0.0394646
0.0121404
0.0432639
0.0319796
0.0539854
0.0335763
0.0197158
-0.00195073
0.093579
0.101646
0.0986627
0.0385164
0.0381082
0.0315675
0.0163397
0.0259693
0.0474028
0.0522785
0.0677374
0.021639
0.0561847
0.00357584
0.0276227
0.0548289
0.0300908
0.0292347
0.0411847
0.0262911
0.0345795
0.132192
0.258373
0.0201773
0.0211178
0.0245706
0.0274268
0.0337734
0.0314077
0.0304424
0.021067
0.010675
0.045783
0.0470133
0.0459902
0.00520534
0.0469237
0.0267651
0.0400174
0.0284805
0.0574571
0.0308544
0.120736
-0.00821973
0.0466031
0.032529
0.0884219
0.038983
0.0584528
0.0865558
0.0515666
0.0468089
0.0275961
0.00378779
0.0840793
0.00216729
0.112888
0.081162
0.0029564
0.0611508
0.0661792
0.00829605
0.0403663
0.0460793
0.0482443
0.0334235
0.0465597
0.0291661
-0.0363218
0.0457368
0.0779633
0.040712
0.0603174
0.061039
0.157149
0.052866
0.0394172
0.00436464
0.0110526
0.0844919
0.0287254
0.0810695
0.0481034
0.0348791
0.0629311
0.0433343
0.030199
0.0476644
0.0481369
0.0279704
0.0465058
0.0316317
0.0592393
0.0782888
0.0120336
0.0462839
0.00565548
0.000321843
0.0655911
0.0577959
0.0487797
0.0660061
0.130114
0.046999
0.0378651
0.0443927
0.0583404
0.0358171
0.0323863
0.0362263
0.0716477
0.0811841
0.0297964
0.0773142
0.0879106
0.0579041
0.106416
0.0555687
0.0759676
0.0242448
0.0399099
0.0187308
0.0477405
0.0622839
0.0484529
0.0813389
0.00141147
0.0525669
-0.0131136
0.0420333
0.0241879
0.11495
0.00631144
0.0445245
0.0466887
0.00322553
0.105225
0.025095
0.0271553
0.0129275
0.0420794
0.0787945
0.0347106
0.04533
0.0330614
0.00720825
0.0401587
0.037584
0.394093
0.036132
0.0484885
0.056807
0.0624688
0.0403224
0.0285239
0.0470213
0.100096
0.0400912
0.0470067
0.0108062
0.0337778
0.0255453
0.0385094
0.0610618
0.0396541
0.0421069
0.0414135
0.0306743
0.0780551
0.047044
0.0360817
0.0553262
0.0427651
0.0366789
0.052908
0.0528546
0.0572773
0.057739
0.047102
0.0406501
0.0486249
0.0265246
-0.00170294
-0.00078441
0.143449
0.0723317
-0.0113131
0.0271889
0.0464211
0.0496029
0.0560571
0.0718622
0.0473682
0.0248019
0.0736859
0.0544571
0.0235066
-0.0105646
0.0189779
0.0463482
0.0344292
0.046898
0.0920974
0.230421
0.0364002
0.0548678
0.0402877
0.00533599
0.0466867
0.070223
0.0255003
0.0429703
0.047523
0.0301916
0.0945326
0.0360335
0.0541014
0.0232701
0.0395052
0.0410483
0.0851939
0.0581515
0.037521
0.0490146
0.0359387
0.0525207
0.0350933
0.0473138
0.0367289
0.0467719
0.0524156
0.00933721
0.0662057
0.0137605
0.0714683
0.0713513
0.0508462
0.0356536
0.0321761
0.0751338
0.0894881
0.00887173
0.0390989
0.0540181
0.0559045
0.0373554
0.0454784
0.0414054
0.0344
0.0257771
0.0257572
0.0420618
0.0129596
0.036415
0.0771935
0.0379658
0.0403204
0.036809
0.0216696
0.0817061
0.0514058
-0.000692636
0.0361312
0.0386218
0.00789196
0.0497753
0.000621184
0.0492032
0.0390236
0.0441876
0.0446
0.0478973
0.0399072
0.00370397
0.0470199
0.0180785
0.0693833
0.049349
0.0555325
0.0295539
0.0941295
0.0582947
0.0473994
0.0316794
-0.0679379
0.0471349
0.00469574
-0.0831251
0.0633561
0.0831925
0.0506427
0.0384973
0.027454
0.0692005
0.0563638
0.0469327
0.0898796
0.0094871
0.0796262
0.0470497
0.0465194
0.040696
0.0417584
0.042446
0.0636617
0.0733988
0.0434888
-0.00147704
0.0439883
0.0509384
0.0389724
0.0299158
0.000200518
0.0465265
0.0394641
0.0212153
0.0406541
0.043809
0.0493372
0.125562
0.0706174
0.0474699
0.0602629
0.0508893
0.0392679
0.0727439
0.0572351
0.0414035
0.0606221
0.0335134
0.0603347
0.0826494
0.000144328
0.0211191
0.0475597
0.0676381
0.0448521
0.0494172
0.0483466
0.03944
0.00104215
0.000264868
0.0563604
0.029158
0.0306985
0.025734
0.0460821
0.0457682
0.0474697
0.0687875
0.0312191
0.0470874
0.0391783
0.0519118
0.0200422
0.00763488
0.047096
0.0466219
0.0330455
0.0457737
0.0454386
0.0399225
0.04265
0.0368566
0.063784
0.0594473
0.0315472
0.0448004
0.0503064
0.0554153
0.0396045
0.047033
0.0402752
0.0276622
0.000885607
0.00455681
0.0317242
0.12088
0.0399747
-0.0616902
0.0863678
0.0394087
0.037858
0.0510592
0.0460581
0.0470952
0.0510595
0.0541701
0.0389931
0.0485978
0.0463127
0.0940759
0.0043542
0.0308788
0.0472386
0.0523742
0.0605313
0.0679883
0.0293726
0.0492511
0.046972
0.0454793
0.0404612
0.0267676
0.0242804
0.00392615
0.0591919
0.045271
0.0357401
0.0535396
0.0510795
0.0506924
0.0443023
0.055622
0.0471032
0.0133992
-0.00248859
0.0463546
0.0635865
0.0388839
0.0421403
0.0440354
0.0482929
-0.0459814
0.0609543
-0.000361618
0.0406601
0.00652422
0.0496858
0.0669638
0.125893
0.0527003
0.0472753
0.0275162
0.0182026
0.108551
0.0397382
0.0643353
0.0424136
0.0466511
0.0625113
0.0445906
0.118557
0.000241738
0.0765226
0.0502162
0.045422
0.0470804
0.0450812
-0.0282514
0.035415
0.0465771
0.0538244
0.0453308
0.0465901
0.0465134
0.00926451
0.0026554
0.0519764
0.0458002
0.0797702