/*--------------------------------*- C++ -*----------------------------------*\
  =========                 |
  \\      /  F ield         | OpenFOAM: The Open Source CFD Toolbox
   \\    /   O peration     | Website:  https://openfoam.org
    \\  /    A nd           | Version:  7
     \\/     M anipulation  |
\*---------------------------------------------------------------------------*/
FoamFile
{
    version     2.0;
    format      ascii;
    class       volVectorField;
    location    "0.906";
    object      U;
}
// * * * * * * * * * * * * * * * * * * * * * * * * * * * * * * * * * * * * * //

dimensions      [0 1 -1 0 0 0 0];

internalField   nonuniform List<vector> 
12359
(
(0.981799 -0.000133767 1.27975e-16)
(0.968145 -0.00100735 1.87754e-16)
(0.999964 -1.09606e-05 2.99063e-18)
(0.934627 -0.00189449 8.63523e-18)
(0.975884 -0.00116352 -7.94182e-17)
(0.881898 -0.000674772 5.77076e-17)
(0.85419 0.000370154 1.05823e-16)
(0.869217 0.0023239 1.21632e-16)
(0.802018 0.0128575 6.64546e-17)
(0.896802 -0.0014143 -4.2456e-18)
(0.827108 0.00854797 2.18537e-17)
(0.739136 0.0243245 -1.76899e-16)
(0.341615 0.0445216 -2.48107e-16)
(0.922414 -0.00041303 2.50583e-17)
(0.943044 -0.00145162 -6.16004e-18)
(0.55226 0.0326689 1.26943e-16)
(0.468793 0.0396614 -3.76885e-18)
(0.994806 -8.86029e-07 1.04173e-16)
(0.995099 0.000154128 7.53126e-18)
(0.955546 -0.00114611 6.38674e-17)
(0.913225 0.000851353 -5.32647e-17)
(0.770397 0.0208601 -2.82892e-17)
(0.962615 -0.000813624 1.08944e-16)
(0.953683 0.00145468 7.58772e-18)
(0.966594 -0.000494832 1.90207e-16)
(0.959065 -0.00141803 -6.35173e-17)
(0.998561 -5.88357e-05 -2.68183e-17)
(0.998731 -7.64094e-05 -3.63942e-17)
(0.995819 -2.29559e-06 1.19875e-17)
(0.997823 -1.59167e-05 -3.14295e-17)
(0.997322 -0.000106775 -1.42523e-17)
(0.999402 -6.44986e-06 -3.9109e-17)
(0.999764 -1.5724e-05 1.48297e-17)
(0.998192 -2.86486e-05 8.59255e-19)
(0.999929 -2.00967e-05 1.6519e-17)
(0.997154 -8.80693e-05 -8.70974e-17)
(0.988571 -0.000245781 9.7777e-17)
(0.982741 4.69966e-05 -2.19479e-16)
(0.978136 -0.000841083 -7.82372e-17)
(0.985489 -0.000598446 1.46087e-16)
(0.97089 -0.00131405 9.69359e-17)
(0.983697 2.59795e-05 1.5178e-16)
(0.991266 -0.000346995 5.5403e-17)
(0.992168 -0.00014789 -7.44761e-17)
(0.996678 -0.000124058 7.867e-18)
(0.996146 -0.000123776 2.54358e-17)
(0.996982 -7.35157e-05 -1.15946e-16)
(0.997579 -3.15768e-05 -3.55915e-17)
(0.99544 6.87362e-05 -1.7504e-17)
(0.998449 -3.71101e-05 4.8162e-18)
(0.998924 -7.75293e-05 -3.9665e-17)
(0.999202 -1.79793e-05 3.42813e-17)
(0.999475 -3.42419e-05 -4.21641e-18)
(0.994156 6.78074e-05 -7.05561e-17)
(0.999523 2.99344e-05 3.08554e-17)
(0.999755 -2.04049e-05 -1.84605e-17)
(0.992929 -0.000142177 6.16153e-18)
(0.999773 -1.30141e-05 -2.48605e-17)
(0.999796 9.71308e-06 -1.94781e-17)
(0.999877 1.47823e-05 2.39595e-17)
(0.999696 -1.74305e-05 -2.16233e-17)
(0.999919 2.3813e-05 4.36123e-18)
(0.999079 -6.2131e-05 1.0875e-17)
(0.201394 0.0584271 -1.1462e-15)
(0.993688 -0.000130639 9.30776e-17)
(0.907928 0.00152974 -8.33275e-17)
(0.989682 -0.000186006 5.10848e-17)
(0.999215 -1.56805e-05 -5.33253e-18)
(0.988048 -0.000204287 3.72153e-17)
(0.627024 0.0237958 -8.28113e-18)
(-0.00740993 -0.00516488 6.61295e-15)
(0.973442 -0.00144316 -2.56927e-16)
(0.999954 -1.99323e-05 -1.74283e-17)
(0.986934 -0.000544198 -2.28724e-17)
(0.94884 -0.00105809 -4.23201e-17)
(0.99987 5.50885e-06 3.28562e-18)
(0.999412 -3.43191e-05 6.88105e-18)
(0.999949 -2.38274e-05 4.76252e-18)
(0.989897 -0.000290855 -1.05242e-16)
(0.678081 -0.00317 -3.69397e-18)
(0.920918 0.0658297 -9.03302e-17)
(1.00372 0.00279838 2.79236e-18)
(1.00003 -2.55717e-06 3.7096e-18)
(0.99831 0.0129455 2.08673e-17)
(1.09607 0.14199 -1.62667e-17)
(1.02197 -0.000207677 3.75841e-19)
(1.00384 0.00251353 -8.77811e-18)
(1.00159 6.93838e-05 3.81685e-18)
(1.11259 0.0700451 2.6579e-17)
(1.0885 0.162047 1.18216e-17)
(0.99996 0.00015352 -7.06234e-18)
(0.236955 0.157161 -4.53657e-16)
(1 1.05294e-05 -1.81352e-18)
(0.999497 0.00622795 8.49912e-18)
(0.999643 0.010839 -3.16789e-17)
(1.0378 0.00133633 2.06405e-18)
(1.00018 0.00535235 -7.27713e-19)
(0.999582 0.00611348 -1.29688e-17)
(0.991034 0.0297306 -7.39002e-18)
(0.99414 0.0185159 -1.23378e-17)
(0.939483 0.0820042 1.45448e-17)
(1 2.01919e-05 -9.53557e-19)
(1.02153 0.0018892 -2.38072e-18)
(1.24448 0.0879299 -4.37456e-18)
(1.00485 0.0010078 9.13918e-18)
(1.03303 0.0218772 -4.77364e-18)
(1.00033 -6.67913e-06 -3.70459e-19)
(1.09372 0.140502 -2.87269e-17)
(1.01932 -0.000310004 -1.73504e-19)
(1.0335 0.0210412 -2.16368e-18)
(1.00005 0.00480693 -1.18169e-17)
(1.00356 0.00282546 -2.36185e-18)
(0.936741 0.0459005 -1.02376e-16)
(0.956633 0.0724315 5.42169e-17)
(0.998959 0.0111822 -4.70156e-18)
(1.0029 0.000143922 2.23677e-18)
(0.951713 0.0769635 4.01595e-17)
(1.00459 0.00237489 8.25849e-18)
(1.13169 0.0460399 1.69067e-17)
(0.999999 1.66959e-05 -1.10132e-18)
(0.999978 0.00518778 -4.40965e-18)
(0.862876 0.0249312 -1.56461e-16)
(1.0017 0.000272723 5.11389e-19)
(1.03781 0.00650044 4.18222e-18)
(1.00489 0.00230396 1.03211e-18)
(1.00328 0.0004006 7.06383e-19)
(1.00848 0.0948668 1.97753e-17)
(0.998019 0.0130932 -4.47612e-18)
(0.999987 7.89613e-06 8.15941e-18)
(1.00472 0.00233351 -9.83939e-18)
(1.00269 0.000455813 4.30676e-19)
(1.04979 0.0194632 -1.05492e-18)
(1.05176 0.0181619 -2.31317e-18)
(1.05019 0.0172758 3.00895e-18)
(1.00022 -2.83289e-06 9.06864e-19)
(1.03766 0.00781413 1.30753e-18)
(1.00294 1.10416e-05 -4.05276e-18)
(1.03771 0.00683651 8.94365e-19)
(1 9.36311e-05 -2.74382e-17)
(1.0093 0.0921178 -1.5677e-17)
(1 2.91912e-05 -1.56573e-18)
(0.982123 0.00244712 6.95152e-17)
(1.03138 0.0139321 2.95532e-18)
(1.00024 6.65489e-05 -2.85399e-18)
(1.03961 0.039949 7.44864e-19)
(0.89807 0.027259 3.70753e-17)
(1.00002 9.21769e-06 -9.37626e-19)
(1.0888 0.119085 -2.22975e-17)
(1.005 0.000980319 8.80839e-18)
(0.920834 0.0625419 -5.33693e-17)
(1.0399 0.00181077 5.47392e-19)
(1 2.90595e-05 -5.372e-18)
(1.03159 0.0142425 -5.5078e-19)
(1.00172 -6.09941e-05 -2.43733e-18)
(1.00001 -6.06918e-06 2.53706e-18)
(0.586184 1.32603 2.58758e-17)
(0.935135 0.0874751 4.45622e-18)
(1.04935 0.019381 -7.38984e-19)
(1.00005 0.00537622 9.39136e-18)
(0.999266 0.00061375 5.25679e-18)
(1.00264 0.0452947 -2.31827e-17)
(0.999196 0.000749852 -5.50608e-18)
(1.03912 0.00675289 4.59424e-19)
(1.03347 0.0115153 -5.82668e-19)
(1.00004 2.49463e-05 -1.61387e-18)
(1.00318 0.000325044 -7.43538e-18)
(1.00136 0.0452957 -1.16523e-17)
(0.873115 0.0158955 6.31778e-17)
(1.03257 0.0111228 -2.72518e-18)
(1.12528 0.069206 -7.81007e-18)
(0.99999 1.2168e-05 7.26481e-17)
(0.999967 3.62247e-05 1.2314e-16)
(1.03335 0.00914683 7.8901e-19)
(0.973582 0.00188983 3.27233e-16)
(1.00482 0.000915105 2.29893e-18)
(1.00436 0.0904 -8.60852e-18)
(0.996459 0.000472122 9.81119e-17)
(0.996559 0.000801771 -8.39442e-18)
(0.934626 0.0493869 -5.92812e-17)
(1.00477 0.0867149 2.27185e-17)
(0.937623 0.00616311 3.18132e-16)
(1.00001 3.60441e-05 1.29789e-18)
(0.999971 2.00702e-05 8.84848e-18)
(1.00391 0.00283114 -5.33766e-18)
(0.991556 0.0284517 -1.0291e-17)
(0.843514 0.104921 9.4918e-17)
(1.00432 0.00583284 -1.82013e-17)
(1.00032 0.0103738 -1.04466e-17)
(1.03941 0.00116037 -5.04579e-19)
(1.00459 0.00547133 5.91864e-18)
(0.999399 0.0102691 -1.1037e-17)
(1.03678 0.00435273 4.90379e-19)
(1.03638 -0.00175233 2.06088e-18)
(1.00179 0.000495043 9.65667e-19)
(1.03426 0.0197759 4.65171e-18)
(1.11095 0.0686125 2.72585e-17)
(1.01499 0.0125753 -1.93203e-18)
(1.00355 0.00618955 -9.28866e-18)
(1.031 0.0152766 3.57713e-18)
(1.00458 0.00251445 -7.81337e-18)
(0.898337 0.0288705 1.46417e-16)
(1.04075 0.00258936 1.03903e-19)
(0.99322 0.0183767 5.23912e-18)
(1.03312 0.0195123 6.73799e-18)
(1.03625 0.0373917 -5.96239e-18)
(1.00002 3.88985e-05 -3.16801e-18)
(1.03681 0.0375662 -1.41099e-18)
(0.992289 0.0181443 9.64383e-18)
(1.0411 0.00714211 3.78924e-18)
(1.00549 0.00386107 8.16516e-18)
(1.00001 3.85573e-05 1.91723e-19)
(1.04544 0.0153769 -6.04523e-18)
(1.04514 0.015932 -6.38829e-18)
(1.06288 0.116149 -1.46284e-18)
(0.842756 0.0842437 9.0209e-17)
(0.999964 4.05059e-05 5.95036e-18)
(1.00396 0.00597809 3.81757e-18)
(0.99914 0.0101412 -6.69516e-18)
(1.00413 0.00585698 2.75412e-18)
(0.981582 0.00138999 -7.03973e-17)
(0.946049 0.0614594 1.61993e-17)
(1.00563 0.00389373 7.92673e-18)
(1.03839 0.00620838 -3.82086e-18)
(0.447847 0.368219 -1.7976e-16)
(1.00521 0.00221776 5.56971e-18)
(1.00002 4.73374e-05 -3.36582e-18)
(0.981463 0.000995406 -2.36087e-16)
(1.01729 -0.000724154 -4.89266e-18)
(1.00137 0.0865159 1.34955e-17)
(1.00271 0.00679388 -1.37554e-17)
(1.00297 0.0063024 -6.98412e-18)
(1.00004 1.04594e-06 -1.07002e-18)
(1.03857 0.0399416 -1.19724e-18)
(0.992601 0.0236504 1.38876e-17)
(1.00074 0.0105208 9.73024e-18)
(0.994019 0.0210636 -1.18062e-17)
(1.00001 2.24001e-05 -1.14784e-18)
(1.03204 0.0157586 5.61733e-19)
(1.00063 0.0105008 3.84499e-18)
(0.635312 0.255846 5.71937e-17)
(1.00007 4.1534e-05 -1.15735e-18)
(1.02461 0.0019888 -3.17606e-18)
(1.00014 0.00785921 -1.20422e-17)
(0.985247 0.158177 1.78348e-17)
(1.00335 0.0488713 -6.17884e-18)
(1.08806 0.125059 -1.46272e-17)
(0.999882 4.84532e-05 2.1839e-17)
(1.04146 0.00607911 2.00904e-18)
(1.00415 0.000575196 -3.49317e-18)
(1.03534 -0.00104604 1.27133e-19)
(1.04296 0.0126679 6.88922e-18)
(0.985288 0.000483162 -1.87399e-16)
(0.996794 0.000650296 3.76687e-17)
(1.00235 0.00630024 -1.07533e-18)
(0.482359 0.449454 8.1087e-17)
(1.22696 0.13745 5.34893e-17)
(0.999989 6.84576e-06 2.37963e-18)
(1.00548 0.00312808 3.7605e-18)
(0.380465 0.2939 2.27319e-16)
(0.503465 0.0102535 5.33033e-17)
(0.993445 0.0190793 9.68522e-18)
(1.0034 0.0468796 -1.33008e-17)
(1.00096 0.0824826 2.65726e-17)
(1.03421 0.0184811 4.53559e-18)
(0.973228 0.000606462 3.75638e-16)
(1.34567 0.364065 2.40114e-17)
(1.11565 0.0492021 3.45289e-17)
(1.00345 0.050785 -9.17449e-18)
(1.00538 0.002662 -4.22349e-18)
(1.03767 0.00806602 -5.79231e-18)
(1.03293 0.0101027 2.35851e-18)
(0.987846 0.0271582 6.59117e-18)
(1.03212 0.0131694 -4.41723e-18)
(1.00239 0.00637233 5.26236e-18)
(1.00568 0.00353457 6.8231e-18)
(1.00004 3.13288e-05 8.1328e-19)
(1.00551 0.00282395 -1.03854e-18)
(1.16672 0.101217 -9.90948e-18)
(1.00535 0.0504553 7.26048e-18)
(1.00039 0.000128445 7.91161e-20)
(0.999997 5.84619e-05 8.89869e-18)
(1.03481 0.0184662 2.53595e-18)
(1.00754 0.00140464 -5.42376e-18)
(0.990922 0.000551711 1.0733e-16)
(1.02336 4.65372e-05 -5.73006e-19)
(1.00001 3.02047e-05 -2.34759e-18)
(1.0007 0.07667 7.9218e-18)
(1.00001 1.44869e-05 1.36959e-17)
(0.999999 -1.50449e-05 1.70448e-18)
(0.99945 9.21256e-05 -9.77916e-17)
(1.0396 0.00580686 -1.49783e-18)
(1.00409 0.00242254 1.19278e-18)
(1.41489 0.445105 2.05267e-17)
(1.00024 -5.31668e-05 -5.59925e-18)
(1.00024 8.04404e-05 5.4496e-18)
(1.0212 0.00100534 -1.54692e-18)
(1.00415 0.000861569 -4.48036e-18)
(0.946304 0.0662828 -3.92937e-17)
(0.999061 0.00973307 7.31495e-18)
(0.998985 0.00030645 -6.46059e-17)
(0.999971 4.94112e-05 -6.51967e-18)
(1.15129 0.089342 -6.04253e-19)
(1.00268 0.0792238 2.85353e-17)
(0.99997 4.36052e-05 3.11845e-18)
(1.00366 0.00601203 -1.17243e-18)
(0.999719 0.00875514 5.27651e-18)
(1.00464 -0.000623543 5.22549e-18)
(1.00299 -0.000520956 -2.81052e-18)
(1.00328 0.00048279 3.04483e-18)
(1.00433 0.000884031 7.09628e-18)
(0.995422 0.00145235 -2.37228e-17)
(0.820536 0.0651144 -2.43886e-17)
(1.00463 0.00151051 9.11092e-18)
(0.997773 7.51177e-05 -5.43914e-17)
(0.986049 0.00101115 -1.73454e-16)
(1.02535 0.0269429 1.46768e-17)
(1.09972 0.0491006 4.15291e-17)
(1.00523 0.000100776 -4.60314e-18)
(0.989591 0.025479 -1.03593e-17)
(0.578998 0.0566325 4.56583e-17)
(0.999992 1.56394e-05 -8.28366e-18)
(1.02745 0.0126278 -4.69355e-18)
(1.00042 3.86239e-05 -2.40036e-18)
(1.01435 0.0132577 -1.53851e-18)
(1.00029 9.74736e-05 6.70735e-18)
(1.00538 -0.000847371 3.2145e-18)
(0.798313 0.0408132 2.33653e-16)
(1.02786 0.0144239 -2.08308e-18)
(0.823976 0.0900989 -1.73768e-16)
(0.991211 0.000384371 3.80783e-17)
(1.00054 0.00810494 -7.00084e-18)
(1.03623 0.00241412 -3.80684e-19)
(1.03982 -0.000772188 -1.61771e-18)
(1.00064 0.00775877 -6.10738e-18)
(1.03517 0.00506207 -1.66251e-18)
(1.03603 0.00367521 3.55926e-19)
(1.00076 0.000191333 -3.74719e-18)
(0.999585 0.000445201 1.65326e-17)
(0.999574 0.000424755 1.07873e-17)
(0.999553 0.00045826 2.07411e-17)
(0.999545 0.000389096 -2.23211e-18)
(0.691038 0.279388 -7.55857e-17)
(1.00003 4.9949e-05 2.88319e-18)
(0.939445 0.081489 -3.20359e-17)
(1.04203 0.00367567 -2.38946e-20)
(0.992825 0.0254829 8.84754e-18)
(1.033 0.0135148 3.67737e-19)
(1.02838 0.0153483 -2.40955e-18)
(1.02092 0.00201213 -3.65406e-18)
(1.01362 0.0124468 -4.61987e-18)
(1.02882 0.0147922 -1.13113e-17)
(1.01331 0.0124694 1.73146e-18)
(0.99129 0.0267576 1.71322e-17)
(1.0273 0.0285108 3.99811e-18)
(1.02658 0.0323763 -1.92295e-19)
(0.9562 0.0503427 2.43103e-17)
(0.981193 0.00229208 -6.633e-17)
(1.03269 0.0807761 -7.73924e-19)
(0.983251 0.00182915 -8.47288e-17)
(0.982499 0.00101216 1.49891e-16)
(1.03058 0.0154142 5.44679e-18)
(0.941412 0.0957767 4.69888e-17)
(1.0031 0.00271943 -7.90611e-18)
(0.999625 9.12385e-05 -1.9001e-17)
(1.01611 0.011655 -3.18872e-18)
(0.999673 4.90576e-05 -5.01381e-18)
(1.0034 0.00315532 -8.87034e-18)
(0.762996 0.0191544 -7.64683e-17)
(0.143281 0.107627 -1.42623e-16)
(1.00325 0.00296483 1.32799e-17)
(0.99998 9.46042e-06 -2.5048e-17)
(1.0002 7.37545e-06 -1.50952e-18)
(0.999989 2.73292e-05 5.83536e-18)
(1.0288 0.0131956 -7.18851e-18)
(0.999999 2.96606e-05 -6.40514e-18)
(0.999993 2.1493e-05 -3.47492e-20)
(1.11995 0.0687656 1.07658e-17)
(1.03324 0.0112983 6.19441e-19)
(1.08378 0.174942 2.84398e-17)
(1.00152 0.00327411 4.35122e-18)
(1.03599 0.0132205 1.39329e-18)
(1.00691 0.000943053 -9.05079e-18)
(1.00015 0.00868938 -3.22961e-18)
(1.03193 0.0287504 6.83951e-18)
(1.01635 0.0109959 -1.37955e-18)
(0.934656 0.00345533 -1.02313e-16)
(1.01621 0.0104606 3.44707e-18)
(1.00294 0.0025862 -1.27725e-18)
(1.00049 0.000265557 -6.22111e-18)
(1.03401 0.0103742 1.52721e-20)
(1.03585 0.013623 1.50549e-18)
(1.00563 0.00126913 -1.09369e-17)
(0.707229 0.0202101 1.24865e-16)
(1.0318 0.0279223 2.40621e-18)
(1.03631 -0.000914878 1.32905e-18)
(0.998093 0.034714 -5.95178e-18)
(1.00134 0.0421003 1.51039e-17)
(0.999996 0.000121689 -9.06762e-18)
(0.415063 0.568955 -1.82556e-16)
(1.03433 0.0823779 -7.61878e-18)
(1.00118 0.00347921 -2.54672e-18)
(0.971322 0.180176 3.11162e-17)
(0.984722 0.00103994 2.42565e-16)
(0.999976 6.45192e-05 -1.73516e-18)
(1.00001 3.31788e-05 -1.12848e-18)
(0.999995 5.15604e-05 -2.74669e-19)
(1.09034 0.17411 2.06267e-17)
(0.947047 0.0960707 -2.69745e-18)
(0.988408 0.0282726 3.76043e-18)
(1.02838 0.0108099 5.37526e-19)
(1.03872 -0.0028521 -2.31338e-18)
(0.999173 0.0111723 3.73614e-19)
(0.935995 0.00978206 1.00602e-16)
(0.998773 0.0348034 -3.23973e-18)
(1.04693 0.0175887 -8.41911e-18)
(1.11226 0.0422368 2.82493e-17)
(0.714811 0.0444319 -6.1533e-17)
(0.993855 0.0255518 -1.89544e-18)
(0.955758 0.0542077 1.84889e-18)
(1.01863 0.00122817 2.51963e-18)
(1.02547 0.0384157 2.59475e-18)
(1.01193 0.0111929 9.03677e-19)
(1.01654 0.0121285 7.52482e-19)
(0.998259 0.000238191 -9.17603e-17)
(1.0121 0.0111913 -6.86613e-18)
(1.03115 0.0123081 4.7448e-18)
(0.999994 1.36228e-05 -3.30609e-18)
(0.671826 0.00407889 1.51424e-17)
(0.990465 0.00106769 -3.35725e-16)
(1.05495 0.00665022 5.57406e-18)
(1.03674 0.0110757 -2.47033e-18)
(0.993509 0.00116096 3.14885e-17)
(0.950827 0.0587148 -3.08934e-18)
(1.17477 0.255354 -3.56246e-17)
(1.02942 0.0158339 -4.98702e-18)
(1.00865 0.0161656 -4.13217e-18)
(1.03866 -0.00060578 -1.16666e-18)
(1.03713 0.0113622 -2.45131e-18)
(1.02889 0.0332588 3.72676e-18)
(1.00442 0.00278189 3.31018e-18)
(1.00001 -5.51956e-07 2.85574e-18)
(0.994179 0.0703697 1.29737e-17)
(1.00025 9.08901e-05 3.50718e-18)
(1.05073 0.0198143 -2.97825e-18)
(1.00263 2.508e-05 -2.92233e-18)
(0.96726 0.0030515 1.0514e-16)
(0.962451 0.0404567 1.86862e-17)
(1.01087 0.000410112 8.8387e-18)
(1.09882 0.116586 2.9794e-17)
(0.943505 0.0664002 2.45679e-17)
(0.994641 0.0173525 3.23311e-17)
(1.00095 0.00398402 7.20342e-18)
(0.577807 0.103424 -5.76931e-16)
(1.00071 0.000162848 -3.93816e-18)
(1.00139 0.00302676 3.01599e-18)
(1.04281 0.0424521 -8.3267e-18)
(0.99998 4.09791e-05 5.16771e-17)
(1.00121 0.00407853 7.23485e-18)
(1.00158 0.0026908 2.47959e-18)
(0.738173 0.221339 3.14008e-17)
(0.689362 0.452847 -1.37818e-16)
(0.998425 0.0117121 1.19973e-17)
(1.00141 6.2357e-06 7.08335e-19)
(0.938212 0.0343011 1.52188e-17)
(0.999921 0.041701 1.6859e-17)
(1.02793 0.0116184 -3.04098e-18)
(1.03168 0.0164186 -6.52383e-19)
(1.03292 0.0118124 2.1223e-18)
(1.00077 -7.70689e-05 8.28519e-19)
(0.999995 3.8592e-05 -3.71868e-18)
(1.00011 0.0373476 -1.54264e-17)
(0.999992 7.74118e-06 2.32571e-18)
(0.963296 0.043944 1.11812e-17)
(1.02789 0.0112652 -5.61625e-18)
(1.0257 0.0355187 1.86062e-18)
(0.996807 0.000701117 -1.8725e-17)
(0.996672 0.0679552 1.79287e-17)
(1.04485 0.0421903 2.46728e-18)
(0.997882 7.66741e-05 -1.05945e-17)
(1.00146 0.0116485 -1.06959e-17)
(1.00589 0.00192585 8.97312e-19)
(0.928644 0.0472286 -3.88789e-17)
(1.04293 0.0428252 2.95469e-18)
(0.999976 6.32046e-05 2.15461e-17)
(1.00085 0.0389705 5.24304e-18)
(1.03323 0.00891884 -7.25898e-19)
(1.01712 0.00124797 -7.74411e-18)
(0.999371 0.0401618 -3.48215e-18)
(1.00276 -0.000538465 4.47505e-18)
(0.929768 0.0917911 -1.5538e-17)
(1.02882 0.00371886 -3.78522e-18)
(1.03753 0.0088458 -1.50603e-18)
(1.02676 0.032923 -9.4459e-18)
(1.00082 0.000188183 5.17579e-18)
(1.00127 0.0117635 -1.62501e-17)
(1.05289 0.0615773 -1.93132e-18)
(1.05205 0.0168694 -1.4826e-19)
(1 2.71978e-05 -2.65992e-19)
(1.0114 0.0164696 1.11651e-17)
(0.985966 0.172481 -6.84186e-18)
(1.03915 0.00215534 -3.15306e-18)
(0.497563 0.48634 4.03256e-17)
(0.999999 3.95738e-05 7.07221e-20)
(1.00258 0.000414764 5.97036e-18)
(1.00066 0.000231729 4.69341e-18)
(1.03158 0.0150457 1.90742e-19)
(0.994712 0.0191343 3.81455e-18)
(0.995753 0.0136168 9.5736e-18)
(1.00328 0.000113272 1.55272e-17)
(0.998758 0.037115 5.1621e-18)
(1.01711 0.0127573 5.24952e-18)
(0.973186 0.00458177 1.37882e-16)
(1.00889 0.000706398 -2.08071e-18)
(1.08156 0.0887807 -1.09177e-17)
(1.00034 5.32591e-05 8.07556e-19)
(1.08655 0.105412 4.14442e-18)
(1.00142 9.68393e-05 -1.53121e-18)
(0.638856 0.640626 7.56357e-17)
(1.02939 0.00209781 -3.92747e-18)
(1.05053 0.0646124 -1.53476e-17)
(0.999848 2.97543e-05 -2.21263e-16)
(0.996997 0.000781091 9.02026e-18)
(1.02583 0.0279628 1.4941e-17)
(1.00404 0.00219048 1.39381e-18)
(0.999083 0.000156259 -2.25876e-16)
(0.992135 0.00026873 1.92407e-16)
(0.994237 0.0209019 -6.69203e-18)
(0.994214 0.020298 5.15185e-17)
(0.966895 0.161562 2.93422e-17)
(1.03365 0.0328056 -7.88541e-18)
(1.0341 0.0322636 -5.99155e-18)
(1 1.44938e-05 -1.52504e-18)
(1.00427 0.00203893 2.43681e-18)
(1.02785 0.0129767 -4.88444e-18)
(1.05117 0.0169031 3.97383e-18)
(1.00001 3.06332e-06 1.10629e-18)
(1.00038 -1.09573e-05 2.74316e-18)
(1.03364 0.00940185 4.03439e-18)
(1.00073 0.000187113 -2.50084e-18)
(0.803424 0.0492103 -5.10253e-16)
(1.1676 0.259153 1.07264e-17)
(1.0739 -0.00904528 1.26912e-17)
(1.00001 1.67392e-05 -8.28369e-19)
(1.00664 0.00937471 -4.1813e-18)
(1.0433 0.0128252 7.38441e-19)
(0.995461 0.0146587 1.05507e-17)
(1.00434 0.000819755 3.88258e-18)
(0.348035 0.669364 1.10817e-16)
(1.00035 1.04829e-05 1.71805e-18)
(0.927755 0.0745815 7.10742e-17)
(0.959145 0.0485353 8.86673e-18)
(1.00723 0.00948448 -1.89316e-18)
(1.00402 0.000828994 1.31579e-18)
(0.998937 0.000206996 -1.66702e-16)
(1.01067 4.32663e-05 1.01328e-18)
(1.04228 0.00401346 9.36114e-19)
(1.01712 0.00873274 -6.00103e-18)
(0.996895 0.0119168 -1.87309e-18)
(0.999997 1.32532e-05 8.5121e-20)
(0.999996 1.84285e-05 -1.70357e-17)
(0.994622 0.017214 1.06265e-17)
(0.996498 0.00141641 2.68132e-17)
(0.99235 0.0615162 -1.40586e-17)
(1.03225 0.0130669 -2.55117e-18)
(0.999408 -1.1714e-05 5.67923e-18)
(1.00034 0.000228012 -6.79302e-20)
(1.02746 0.0300876 1.00254e-17)
(0.691415 -0.0100824 9.29691e-17)
(0.997781 0.000226763 6.54696e-17)
(1.04664 0.0167509 5.00006e-19)
(1.00017 2.81358e-05 -6.24489e-19)
(0.996486 0.0116671 4.50164e-18)
(0.951235 0.0829965 -3.49615e-17)
(1.04064 0.00196377 -2.28546e-18)
(1.04274 0.0121983 3.12298e-18)
(0.951729 0.0563844 2.6051e-18)
(1.00231 0.0190936 -1.59999e-17)
(1.04145 0.00583589 1.30308e-18)
(1.00001 3.7439e-05 -1.87955e-18)
(0.999932 1.89891e-05 4.81221e-17)
(1.03751 0.00339233 -6.02806e-19)
(1.01064 0.0100222 -7.47829e-18)
(1.00291 0.0193714 -7.46605e-19)
(1.01096 0.00996646 -2.97344e-18)
(0.999995 4.69708e-05 -1.24418e-18)
(1.00039 0.000228787 1.86193e-18)
(1.00388 0.000420715 -1.20807e-17)
(0.999109 0.030123 4.75282e-19)
(1.04209 0.00725053 1.36966e-19)
(0.943829 0.0395901 1.65927e-17)
(0.990103 0.00100524 -1.31903e-16)
(0.927056 0.036777 -2.22031e-16)
(1.03099 0.0147053 -3.56292e-18)
(1.00856 0.0176357 1.9752e-18)
(0.93513 0.0467342 -4.75019e-17)
(0.985638 0.0211549 -7.49899e-18)
(1.05125 0.00516739 4.30926e-18)
(1.03278 0.0123708 -9.4516e-19)
(0.985528 0.0212388 -3.26365e-18)
(0.993163 0.0590956 4.41517e-18)
(0.999897 8.16646e-05 -1.38443e-17)
(1.00906 0.0662227 2.24045e-18)
(1.02683 0.0277686 1.012e-17)
(1.00001 -1.08031e-05 2.20886e-18)
(0.99999 4.57146e-06 6.64681e-17)
(1.00078 -2.82244e-05 1.34057e-18)
(0.999744 0.000289332 1.26519e-17)
(1.06361 0.0714812 -7.36137e-18)
(1.01076 0.0168941 -3.98445e-18)
(1.01373 0.00115544 -5.24394e-18)
(0.94053 0.0437461 3.41509e-17)
(0.992132 0.000224167 5.09908e-17)
(0.791581 0.0195565 1.29652e-16)
(1.03867 0.00247062 -1.41073e-18)
(1.04114 0.00440673 1.52134e-18)
(1.00389 -0.000363181 8.85238e-18)
(1.04956 0.0418192 8.26197e-18)
(1.00001 3.69336e-05 -1.03221e-17)
(0.998454 0.0300648 -6.44914e-18)
(1.0005 0.00376357 -4.64369e-18)
(0.935763 0.111775 2.56132e-17)
(0.931933 0.050212 1.3778e-16)
(1.00201 0.016296 1.55842e-17)
(1.01699 0.0123024 3.04605e-18)
(0.427952 0.660576 5.67036e-17)
(1.03047 0.0134324 -5.83861e-19)
(1.04215 0.0627329 -2.61328e-18)
(1.0096 0.0127733 -5.10248e-18)
(0.97605 0.149246 5.66357e-17)
(1.15586 0.214321 -2.66379e-17)
(1.00112 -0.000179554 6.0135e-18)
(0.99826 0.00345015 -7.48009e-18)
(1 1.10062e-05 1.77733e-18)
(1.05785 0.0664582 -7.76893e-18)
(0.998429 0.00319836 2.08654e-19)
(1.01638 0.0102363 3.99818e-18)
(1.09672 0.115626 5.88017e-18)
(1.00034 0.000158547 4.19911e-18)
(0.971248 0.00284844 1.91767e-17)
(0.990788 0.0518472 4.34012e-18)
(1.00684 0.0155504 9.62235e-18)
(0.997426 0.000242441 -8.73005e-17)
(1.00167 0.0173137 6.43766e-18)
(0.999345 0.000931377 -9.65737e-18)
(0.994748 0.0160469 3.90353e-19)
(0.999368 0.000729193 6.77337e-18)
(0.999361 0.00102512 4.14066e-18)
(0.995175 0.0138159 -2.65302e-17)
(1.0379 0.00755217 8.95661e-18)
(1.03527 0.00933322 -2.98099e-18)
(1.00682 0.0170539 9.19411e-19)
(0.665577 0.0445287 -1.81108e-16)
(1.0421 -0.00199043 -7.85764e-19)
(0.285228 0.240744 -1.80668e-16)
(1.02993 0.0152608 -2.24364e-18)
(1.02271 -0.00076387 -1.6574e-18)
(0.995055 0.0146075 9.89934e-18)
(1.02855 0.0154313 -5.07439e-18)
(0.99228 0.0266843 -3.61674e-18)
(1.0358 0.000624377 -1.08551e-19)
(0.568488 0.386735 -4.94846e-17)
(0.948362 0.0341588 2.11436e-17)
(0.993037 0.0251059 7.03117e-18)
(1.00451 0.0232798 -1.67659e-17)
(0.995022 0.000997867 4.88156e-17)
(0.996369 0.000945733 3.19318e-17)
(1.02635 0.0304468 8.42543e-18)
(0.999996 2.52397e-05 -1.18295e-18)
(1.05616 -0.0190993 -1.80288e-18)
(0.999482 8.36519e-06 -2.78225e-17)
(0.947368 0.0395337 -3.88718e-17)
(0.999264 0.0736276 7.76241e-18)
(1.06288 0.0635711 2.85002e-18)
(1.03944 0.0262576 -1.53897e-18)
(1.03513 0.0152705 6.33474e-18)
(0.9922 0.050736 2.1569e-17)
(1.00916 0.0132308 -1.9715e-18)
(1.0389 0.0264134 5.46947e-19)
(0.970155 0.0298085 -5.74039e-18)
(1.04147 0.0637515 5.39212e-18)
(1.00791 0.0227272 -6.42129e-18)
(1.045 0.0410334 2.41895e-18)
(1.00527 0.0235766 -9.7852e-18)
(1.00001 1.81504e-05 -1.58639e-18)
(0.998487 0.0262569 -9.05289e-18)
(0.639433 0.0509389 -1.96365e-17)
(0.972341 0.135673 4.72788e-17)
(1.00651 0.00566044 2.04837e-18)
(1.00005 1.3572e-05 1.0335e-19)
(0.999315 0.00017765 4.47015e-17)
(0.994562 0.00765331 1.82764e-17)
(0.967148 0.00256685 1.24295e-16)
(1.03504 0.00774715 4.2832e-18)
(1.03054 0.000770379 4.79723e-19)
(1.00081 -8.00978e-05 2.28968e-18)
(1.00489 0.00686042 -9.64143e-18)
(0.993379 0.0272244 -1.23645e-17)
(1.00649 0.00542008 -4.27723e-19)
(1.00869 0.0014421 6.17613e-18)
(1.04544 0.0363674 2.50214e-18)
(0.993711 0.00138745 -1.1673e-17)
(0.991573 0.0355723 2.39958e-17)
(1.03681 0.0158315 -1.55284e-18)
(1.00513 0.00641995 8.50486e-18)
(1.00785 0.00678997 -7.58602e-18)
(0.940604 0.0633369 1.81504e-17)
(1 -8.78385e-06 -4.83893e-19)
(0.993472 0.00545975 3.54893e-18)
(1.28537 0.183034 1.21732e-17)
(0.999872 1.88679e-05 -2.4846e-16)
(1.04091 0.0397071 -6.41491e-18)
(0.996379 0.0738844 -5.08645e-18)
(1.00761 0.0067428 -3.07415e-18)
(0.959298 0.0444592 6.24397e-18)
(1.03668 0.0161181 -2.03491e-19)
(0.997883 0.0262357 -1.79918e-18)
(1.02883 0.03486 -2.61045e-18)
(0.999691 0.0031424 4.30287e-18)
(0.934285 0.0379958 2.4424e-17)
(1.00503 0.00124092 9.45205e-18)
(1.03393 0.000597432 8.26369e-19)
(1.03552 0.0159649 9.36178e-18)
(0.935514 0.0414846 -9.43989e-17)
(0.999823 0.00328298 -4.84945e-19)
(1.04179 0.00651071 1.18422e-18)
(1.05329 0.0238732 -3.75844e-18)
(0.992011 0.0347081 -1.0555e-18)
(1.00608 0.0136228 7.54634e-19)
(1.00459 0.00291767 2.11511e-18)
(1.01109 0.0658083 2.03289e-17)
(0.791299 0.206449 5.32616e-17)
(0.995624 0.000920555 8.83904e-17)
(0.999966 3.35519e-05 5.07528e-17)
(0.993953 0.02572 -1.62541e-17)
(0.999988 6.87636e-06 -2.01804e-18)
(1.1546 0.209499 9.47752e-18)
(1.00671 0.0227475 -1.50685e-17)
(1.03619 0.0904436 -4.35474e-18)
(1.01618 0.00765304 -7.20277e-18)
(1.02925 -2.48171e-05 -2.43103e-18)
(0.253773 0.136833 -8.96049e-16)
(1.00655 0.0159135 1.96785e-17)
(1.08653 0.202312 3.85175e-17)
(1.03438 0.00833112 5.09733e-18)
(0.996044 -0.007252 2.92307e-17)
(1.02843 0.0128888 -5.98576e-18)
(0.996731 0.0122973 -5.35104e-18)
(1.00643 0.0144273 -2.04391e-18)
(1.01697 0.000552131 -3.53195e-18)
(1.0934 0.0952379 8.47896e-18)
(1.08178 0.0925153 -9.72275e-18)
(1.00142 0.000189593 -4.54795e-19)
(1.00137 -0.000274666 -1.80638e-18)
(0.926078 0.0449997 5.6643e-17)
(1.00197 0.000138964 2.26844e-18)
(0.695901 0.398378 -9.0831e-17)
(1.02816 0.0327221 2.63629e-18)
(0.966577 0.17083 -5.59485e-18)
(1.00436 0.00309649 -5.08435e-19)
(0.0828181 0.308907 -5.50939e-16)
(1.12627 0.231003 9.83865e-18)
(1.00595 0.0227584 -9.75627e-18)
(0.999996 1.8798e-05 2.12938e-18)
(0.999934 0.00283783 -4.82043e-18)
(0.953218 0.0322156 -8.70058e-18)
(0.994334 0.00801932 -1.53619e-17)
(0.989209 0.000164911 -6.71934e-17)
(0.997147 0.00972838 1.36703e-17)
(1.03126 0.0120254 -6.7714e-20)
(0.972263 0.0312168 1.20502e-17)
(1.08703 -0.0207858 1.26906e-17)
(0.627115 0.0341228 5.15194e-17)
(1.0006 -1.79727e-05 2.18985e-18)
(0.96536 0.0364306 5.44188e-18)
(1.03358 0.0299123 8.11767e-18)
(0.92576 0.0564842 2.3741e-17)
(1.00451 0.0130313 -1.22251e-17)
(0.932853 0.077224 2.66181e-17)
(1.03746 0.00986714 -5.12167e-18)
(0.953424 0.035354 -5.95203e-17)
(0.997334 0.000516342 -5.47701e-17)
(1.00009 2.73176e-05 2.67118e-18)
(1.03767 0.0249234 4.06016e-18)
(1.04107 0.0261903 -6.29981e-18)
(1.02755 0.00130295 -9.74602e-19)
(0.928149 0.0371897 1.21414e-17)
(1.03389 0.0888701 -8.73955e-18)
(1.02272 -0.000267986 -1.34161e-18)
(0.997433 0.0245742 -9.91115e-18)
(1.00051 0.003846 7.92922e-19)
(1.00983 0.00874684 -3.34985e-18)
(0.787219 0.03142 -2.93794e-16)
(1.00964 0.00891799 -4.56438e-18)
(1.03502 0.0228045 5.15712e-18)
(0.982306 0.0415765 1.54794e-17)
(1.02698 0.0100281 -3.0583e-18)
(1.01137 -0.00030532 -1.87998e-17)
(0.996361 0.0114447 3.17012e-17)
(1.05257 0.0229848 2.80345e-18)
(1.01514 0.00714336 -1.35161e-17)
(1.00528 0.0133252 -2.27375e-18)
(1.06989 -0.0338632 2.34954e-17)
(0.990403 0.0297491 3.81228e-18)
(1.02006 0.00205788 -8.20533e-19)
(0.79884 0.334637 -7.37021e-17)
(1 6.61975e-06 -1.2212e-19)
(1.01543 0.00792436 -9.52657e-18)
(0.998444 0.0211266 -2.11755e-17)
(0.992285 0.00721822 5.07611e-18)
(1.00305 0.000761837 -7.02126e-18)
(0.997869 0.0244755 -9.56262e-19)
(1.00001 3.80634e-06 -1.86695e-18)
(1.0434 0.10946 2.39284e-17)
(1.0058 0.000987667 -2.18796e-18)
(0.971187 0.00439159 2.84612e-16)
(1.03526 0.0349641 -4.0613e-18)
(0.951402 0.0511382 -1.39753e-18)
(1.01691 0.00935555 6.07375e-18)
(1.01655 0.00864756 -1.44912e-18)
(1.03704 0.0259962 4.74519e-18)
(1.06728 0.11076 -5.78011e-17)
(0.999867 6.34923e-05 5.40679e-18)
(0.993045 0.000680429 -7.71168e-17)
(1.02082 5.37197e-05 -4.22232e-18)
(1.10393 0.200909 3.33808e-17)
(1.03996 0.0263489 -4.55772e-18)
(0.99984 0.00300894 2.59053e-18)
(0.244254 0.105302 -9.39254e-16)
(1.00003 3.96026e-05 -8.02403e-19)
(1.00511 0.00152713 3.19268e-18)
(0.707673 0.0147978 2.75825e-17)
(0.994545 0.00500267 -1.20762e-18)
(0.99954 0.00346611 5.55211e-18)
(0.999561 0.00358664 -4.21356e-18)
(0.983663 0.0387847 1.69023e-17)
(0.958359 0.0285613 -5.56533e-17)
(0.99983 2.76363e-05 1.61257e-17)
(0.993601 0.00648619 -2.43331e-18)
(0.938271 0.0690397 -3.28213e-17)
(0.9983 0.0210388 -4.41608e-18)
(0.99568 0.0175614 1.9413e-17)
(0.996562 0.0095519 -9.69394e-18)
(1.00109 0.000147624 1.38104e-18)
(0.956931 0.0303966 2.4948e-17)
(1.06481 0.0593695 1.05249e-17)
(0.994882 0.0158112 -7.51975e-18)
(0.931209 0.0318217 -9.68776e-17)
(1.03511 0.00655948 -5.28504e-19)
(1.03486 -0.00251237 -1.4837e-18)
(1.03922 0.110259 8.5906e-18)
(1.03246 0.0306151 6.31743e-18)
(0.996483 0.0097928 -8.36937e-18)
(1.00521 0.00159758 2.54401e-18)
(1.08438 0.107943 -2.99266e-18)
(1.03905 0.00628841 -4.37919e-18)
(0.976477 0.0256412 -1.63226e-17)
(1.00075 0.00416463 9.25719e-18)
(0.999724 0.000248307 7.51523e-18)
(0.926602 0.0137135 1.53969e-16)
(1.04948 0.041419 1.91371e-18)
(1.0147 0.00705673 -1.32048e-18)
(1.01138 0.0488398 7.28442e-18)
(1.01492 0.00777407 -6.95685e-18)
(0.996956 0.0100725 4.83882e-18)
(1.00562 0.00471663 6.49657e-18)
(0.964112 0.0358536 1.94652e-17)
(0.812308 0.00745496 2.6889e-19)
(0.29168 0.443697 2.25222e-16)
(0.966136 0.0376768 5.73604e-18)
(0.998871 0.0180922 -1.40946e-17)
(1.00569 0.00440562 -2.85623e-18)
(0.969285 0.0341709 3.71179e-17)
(0.573836 0.314767 -1.13312e-16)
(0.935229 0.0336654 7.34663e-18)
(0.999878 0.0029839 4.6889e-18)
(1.0479 0.0349915 5.20471e-18)