0.05 	0.0005 	0.005 	0.000134369 	-9.72114e-09 	0
0.05 	0.0015 	0.005 	0.000388012 	-8.34666e-08 	0
0.05 	0.0025 	0.005 	0.000627853 	-2.62922e-07 	0
0.05 	0.0035 	0.005 	0.000855039 	-5.45554e-07 	0
0.05 	0.0045 	0.005 	0.00107062 	-9.34661e-07 	0
0.05 	0.0055 	0.005 	0.00127557 	-1.43532e-06 	0
0.05 	0.0065 	0.005 	0.00147085 	-2.05111e-06 	0
0.05 	0.0075 	0.005 	0.00165733 	-2.78455e-06 	0
0.05 	0.0085 	0.005 	0.00183584 	-3.63736e-06 	0
0.05 	0.0095 	0.005 	0.00200718 	-4.61057e-06 	0
0.05 	0.0105 	0.005 	0.00217208 	-5.70452e-06 	0
0.05 	0.0115 	0.005 	0.00233126 	-6.91896e-06 	0
0.05 	0.0125 	0.005 	0.00248537 	-8.25308e-06 	0
0.05 	0.0135 	0.005 	0.00263505 	-9.70556e-06 	0
0.05 	0.0145 	0.005 	0.00278089 	-1.12746e-05 	0
0.05 	0.0155 	0.005 	0.00292345 	-1.29581e-05 	0
0.05 	0.0165 	0.005 	0.00306328 	-1.47533e-05 	0
0.05 	0.0175 	0.005 	0.00320086 	-1.66574e-05 	0
0.05 	0.0185 	0.005 	0.00333668 	-1.86671e-05 	0
0.05 	0.0195 	0.005 	0.00347118 	-2.0779e-05 	0
0.05 	0.0205 	0.005 	0.00360478 	-2.29892e-05 	0
0.05 	0.0215 	0.005 	0.00373788 	-2.52938e-05 	0
0.05 	0.0225 	0.005 	0.00387084 	-2.76888e-05 	0
0.05 	0.0235 	0.005 	0.00400401 	-3.01699e-05 	0
0.05 	0.0245 	0.005 	0.0041377 	-3.2733e-05 	0
0.05 	0.0255 	0.005 	0.0042722 	-3.53737e-05 	0
0.05 	0.0265 	0.005 	0.00440778 	-3.80879e-05 	0
0.05 	0.0275 	0.005 	0.00454467 	-4.08717e-05 	0
0.05 	0.0285 	0.005 	0.0046831 	-4.37213e-05 	0
0.05 	0.0295 	0.005 	0.00482323 	-4.66331e-05 	0
0.05 	0.0305 	0.005 	0.00496522 	-4.96043e-05 	0
0.05 	0.0315 	0.005 	0.0051092 	-5.26323e-05 	0
0.05 	0.0325 	0.005 	0.00525526 	-5.57156e-05 	0
0.05 	0.0335 	0.005 	0.00540346 	-5.88532e-05 	0
0.05 	0.0345 	0.005 	0.00555384 	-6.20454e-05 	0
0.05 	0.0355 	0.005 	0.00570637 	-6.52935e-05 	0
0.05 	0.0365 	0.005 	0.00586101 	-6.86005e-05 	0
0.05 	0.0375 	0.005 	0.00601769 	-7.1971e-05 	0
0.05 	0.0385 	0.005 	0.00617626 	-7.54117e-05 	0
0.05 	0.0395 	0.005 	0.00633657 	-7.89317e-05 	0
0.05 	0.0405 	0.005 	0.00649838 	-8.25425e-05 	0
0.05 	0.0415 	0.005 	0.00666144 	-8.62589e-05 	0
0.05 	0.0425 	0.005 	0.00682542 	-9.00992e-05 	0
0.05 	0.0435 	0.005 	0.00698994 	-9.40855e-05 	0
0.05 	0.0445 	0.005 	0.00715457 	-9.82445e-05 	0
0.05 	0.0455 	0.005 	0.00731882 	-0.000102608 	0
0.05 	0.0465 	0.005 	0.00748211 	-0.000107213 	0
0.05 	0.0475 	0.005 	0.00764382 	-0.000112104 	0
0.05 	0.0485 	0.005 	0.00780323 	-0.00011733 	0
0.05 	0.0495 	0.005 	0.00795955 	-0.000122952 	0
0.05 	0.0505 	0.005 	0.00811192 	-0.000129035 	0
0.05 	0.0515 	0.005 	0.00825938 	-0.000135658 	0
0.05 	0.0525 	0.005 	0.00840088 	-0.000142906 	0
0.05 	0.0535 	0.005 	0.00853526 	-0.000150879 	0
0.05 	0.0545 	0.005 	0.00866128 	-0.000159689 	0
0.05 	0.0555 	0.005 	0.00877757 	-0.00016946 	0
0.05 	0.0565 	0.005 	0.00888265 	-0.000180333 	0
0.05 	0.0575 	0.005 	0.00897495 	-0.000192464 	0
0.05 	0.0585 	0.005 	0.00905272 	-0.000206027 	0
0.05 	0.0595 	0.005 	0.00911413 	-0.000221214 	0
0.05 	0.0605 	0.005 	0.00915718 	-0.000238238 	0
0.05 	0.0615 	0.005 	0.00917974 	-0.000257334 	0
0.05 	0.0625 	0.005 	0.00917952 	-0.000278758 	0
0.05 	0.0635 	0.005 	0.00915408 	-0.000302791 	0
0.05 	0.0645 	0.005 	0.00910081 	-0.00032974 	0
0.05 	0.0655 	0.005 	0.00901694 	-0.000359939 	0
0.05 	0.0665 	0.005 	0.00889952 	-0.00039375 	0
0.05 	0.0675 	0.005 	0.0087454 	-0.000431563 	0
0.05 	0.0685 	0.005 	0.00855125 	-0.0004738 	0
0.05 	0.0695 	0.005 	0.00831356 	-0.000520912 	0
0.05 	0.0705 	0.005 	0.00802858 	-0.000573384 	0
0.05 	0.0715 	0.005 	0.00769236 	-0.000631732 	0
0.05 	0.0725 	0.005 	0.00730075 	-0.000696502 	0
0.05 	0.0735 	0.005 	0.00684935 	-0.000768274 	0
0.05 	0.0745 	0.005 	0.00633353 	-0.00084766 	0
0.05 	0.0755 	0.005 	0.00574842 	-0.0009353 	0
0.05 	0.0765 	0.005 	0.0050889 	-0.00103186 	0
0.05 	0.0775 	0.005 	0.00434961 	-0.00113804 	0
0.05 	0.0785 	0.005 	0.00352489 	-0.00125455 	0
0.05 	0.0795 	0.005 	0.00260884 	-0.00138213 	0
0.05 	0.0805 	0.005 	0.00159528 	-0.00152153 	0
0.05 	0.0815 	0.005 	0.000477742 	-0.00167351 	0
0.05 	0.0825 	0.005 	-0.000750541 	-0.00183881 	0
0.05 	0.0835 	0.005 	-0.00209662 	-0.00201819 	0
0.05 	0.0845 	0.005 	-0.00356784 	-0.00221238 	0
0.05 	0.0855 	0.005 	-0.00517185 	-0.00242207 	0
0.05 	0.0865 	0.005 	-0.00691661 	-0.00264791 	0
0.05 	0.0875 	0.005 	-0.00881037 	-0.0028905 	0
0.05 	0.0885 	0.005 	-0.0108617 	-0.00315034 	0
0.05 	0.0895 	0.005 	-0.0130794 	-0.00342785 	0
0.05 	0.0905 	0.005 	-0.0154726 	-0.00372331 	0
0.05 	0.0915 	0.005 	-0.0180508 	-0.00403686 	0
0.05 	0.0925 	0.005 	-0.0208234 	-0.00436844 	0
0.05 	0.0935 	0.005 	-0.0238004 	-0.00471781 	0
0.05 	0.0945 	0.005 	-0.0269918 	-0.00508446 	0
0.05 	0.0955 	0.005 	-0.0304077 	-0.00546758 	0
0.05 	0.0965 	0.005 	-0.0340581 	-0.00586606 	0
0.05 	0.0975 	0.005 	-0.0379534 	-0.00627838 	0
0.05 	0.0985 	0.005 	-0.0421034 	-0.00670261 	0
0.05 	0.0995 	0.005 	-0.0465181 	-0.00713634 	0
0.05 	0.1005 	0.005 	-0.0512066 	-0.00757663 	0
0.05 	0.1015 	0.005 	-0.056178 	-0.00801995 	0
0.05 	0.1025 	0.005 	-0.0614402 	-0.00846212 	0
0.05 	0.1035 	0.005 	-0.0670004 	-0.0088983 	0
0.05 	0.1045 	0.005 	-0.0728645 	-0.00932286 	0
0.05 	0.1055 	0.005 	-0.0790367 	-0.0097294 	0
0.05 	0.1065 	0.005 	-0.0855196 	-0.0101107 	0
0.05 	0.1075 	0.005 	-0.0923135 	-0.0104587 	0
0.05 	0.1085 	0.005 	-0.0994159 	-0.0107644 	0
0.05 	0.1095 	0.005 	-0.106821 	-0.0110179 	0
