/*--------------------------------*- C++ -*----------------------------------*\
  =========                 |
  \\      /  F ield         | OpenFOAM: The Open Source CFD Toolbox
   \\    /   O peration     | Website:  https://openfoam.org
    \\  /    A nd           | Version:  7
     \\/     M anipulation  |
\*---------------------------------------------------------------------------*/
FoamFile
{
    version     2.0;
    format      ascii;
    class       volScalarField;
    location    "19.5";
    object      p;
}
// * * * * * * * * * * * * * * * * * * * * * * * * * * * * * * * * * * * * * //

dimensions      [1 -1 -2 0 0 0 0];

internalField   nonuniform List<scalar> 
2413
(
0.952815
0.949384
0.946192
0.94455
0.94323
0.942569
0.942662
0.943236
0.944267
0.945713
0.947582
0.94924
0.951657
0.955728
0.960505
0.966099
0.971483
0.975512
0.98
0.985015
0.989212
0.993733
1.00038
1.01111
1.02705
1.04632
1.06524
1.07521
1.0767
1.07683
1.07695
1.07568
1.07242
1.06793
1.06265
1.05763
1.05336
1.04933
1.0458
1.04262
1.03916
1.03559
1.03197
1.02826
1.02459
1.02032
1.01579
1.01205
1.00814
1.0035
0.999405
0.995431
0.990989
0.986328
0.982028
0.977915
0.973425
0.96808
0.96304
0.958886
0.954276
0.948469
0.943599
0.939442
0.934665
0.928942
0.924429
0.920337
0.915422
0.910361
0.906216
0.901727
0.897334
0.893766
0.88963
0.884776
0.881076
0.877823
0.8739
0.868918
0.864919
0.862032
0.858863
0.854714
0.850499
0.847944
0.845507
0.842292
0.838083
0.835449
0.83375
0.831491
0.828312
0.824954
0.823584
0.822414
0.820212
0.817812
0.816861
0.815946
0.813671
0.813496
0.814543
0.817885
0.82677
0.846289
0.899854
1.00376
1.10304
1.1556
1.17261
1.18179
1.1889
1.18828
1.18955
1.19098
1.02248
1.01904
1.01446
1.01095
1.0081
1.00421
1.00092
0.998109
0.99412
0.990097
0.986545
0.982103
0.977908
0.974396
0.970105
0.965395
0.962138
0.958771
0.955185
0.952504
0.950275
0.948274
0.946603
0.946131
0.9462
0.946608
0.947515
0.948648
0.950305
0.952153
0.954654
0.958379
0.963221
0.967506
0.971245
0.97564
0.980193
0.985052
0.991598
1.00077
1.01323
1.02966
1.04891
1.06269
1.06655
1.0675
1.06807
1.06714
1.06438
1.06045
1.05567
1.05092
1.04699
1.0433
1.04002
1.03717
1.03424
1.03133
1.02854
1.0256
1.02249
1.01898
1.01503
1.01127
1.00748
1.0029
0.998963
0.995549
0.991571
0.987222
0.982989
0.979008
0.975077
0.97034
0.965634
0.961909
0.957963
0.95273
0.94803
0.944177
0.939859
0.934655
0.93047
0.926724
0.922081
0.917201
0.913455
0.909457
0.904756
0.901083
0.897527
0.89292
0.888768
0.885534
0.881947
0.877555
0.873378
0.870218
0.867197
0.863549
0.859319
0.856143
0.853613
0.850872
0.847176
0.84371
0.842108
0.840492
0.837897
0.834615
0.832999
0.832868
0.83206
0.830472
0.830694
0.832854
0.834521
0.835567
0.838742
0.843437
0.850426
0.866367
0.903429
0.981008
1.09366
1.17134
1.19214
1.19573
1.1939
1.19089
1.18991
1.18934
1.03136
1.02792
1.02351
1.01971
1.01657
1.01213
1.00783
1.00476
1.00079
0.997338
0.99444
0.99066
0.98676
0.983461
0.979397
0.975227
0.971902
0.968122
0.963859
0.960602
0.957622
0.954995
0.95248
0.950865
0.949483
0.948899
0.949028
0.949691
0.950618
0.951697
0.952727
0.954451
0.957083
0.960968
0.965201
0.969254
0.973975
0.978753
0.984556
0.992924
1.00424
1.01988
1.03964
1.05686
1.06421
1.06654
1.06747
1.06702
1.06488
1.0611
1.05636
1.05116
1.04636
1.04185
1.03763
1.0342
1.03114
1.02836
1.02595
1.02329
1.02013
1.01666
1.01296
1.00943
1.00611
1.00224
0.998419
0.995107
0.991261
0.986949
0.98286
0.978896
0.975341
0.971603
0.967084
0.963254
0.959815
0.955364
0.950941
0.94751
0.943741
0.938969
0.93506
0.93156
0.927151
0.922602
0.919166
0.915601
0.911049
0.907372
0.904288
0.900259
0.895892
0.892757
0.889384
0.885373
0.881537
0.878095
0.875094
0.87198
0.868309
0.865182
0.862467
0.859938
0.857182
0.853799
0.851684
0.851044
0.849964
0.847881
0.84772
0.850221
0.851446
0.852418
0.857645
0.860619
0.863581
0.868533
0.871863
0.87439
0.878542
0.888434
0.910289
0.963363
1.06755
1.16347
1.1922
1.19319
1.19138
1.18769
1.18416
1.18046
1.03848
1.03516
1.03101
1.02779
1.02507
1.02098
1.01658
1.01331
1.00917
1.00512
1.00206
0.998098
0.994319
0.991429
0.987878
0.983653
0.980643
0.977235
0.973244
0.969777
0.966297
0.962417
0.959157
0.956432
0.954348
0.953014
0.95168
0.951253
0.951319
0.951722
0.9524
0.952808
0.953474
0.955165
0.958286
0.962043
0.9667
0.97245
0.978198
0.9857
0.99567
1.00955
1.02903
1.04955
1.06294
1.06739
1.06847
1.06821
1.06662
1.06326
1.05877
1.05363
1.04852
1.0437
1.03904
1.03503
1.03168
1.02854
1.0256
1.02256
1.01908
1.01533
1.01181
1.00854
1.00537
1.00173
0.997827
0.99441
0.990791
0.986657
0.982788
0.979037
0.9754
0.972145
0.968333
0.964221
0.96094
0.957277
0.95297
0.94957
0.946198
0.941828
0.938142
0.935081
0.931186
0.926925
0.923822
0.920709
0.916466
0.912739
0.909985
0.906604
0.902139
0.899019
0.896061
0.892057
0.888601
0.885412
0.882202
0.879416
0.876314
0.873736
0.871559
0.86959
0.8683
0.86629
0.865545
0.866816
0.869474
0.87008
0.872843
0.879256
0.881048
0.883996
0.891616
0.893273
0.895285
0.901131
0.901063
0.900384
0.902482
0.906511
0.917154
0.950408
1.03186
1.14098
1.18706
1.18833
1.18544
1.17937
1.17193
1.16518
1.04769
1.04405
1.03913
1.03493
1.03187
1.0278
1.024
1.02139
1.01775
1.0138
1.01086
1.00719
1.00301
0.999958
0.996167
0.9922
0.989144
0.985656
0.981207
0.977834
0.974521
0.970825
0.967386
0.963898
0.960404
0.957963
0.956006
0.954687
0.953931
0.953551
0.953231
0.952697
0.952379
0.952381
0.9531
0.955094
0.958373
0.963113
0.969049
0.976493
0.986632
0.998873
1.01542
1.03705
1.05644
1.06641
1.06929
1.06945
1.06841
1.06613
1.06256
1.05784
1.05242
1.04703
1.04184
1.0373
1.03382
1.03048
1.02706
1.02386
1.02052
1.01686
1.01324
1.00969
1.00608
1.00225
0.998169
0.994641
0.991372
0.987573
0.983959
0.980711
0.977035
0.973385
0.969746
0.965618
0.961983
0.958904
0.955155
0.951554
0.948481
0.944674
0.940866
0.937966
0.934574
0.930354
0.927298
0.924575
0.920742
0.916755
0.914194
0.911423
0.907188
0.903804
0.901495
0.898139
0.894694
0.892306
0.889654
0.887263
0.885318
0.883137
0.882854
0.884285
0.885716
0.886146
0.889768
0.895906
0.897567
0.900307
0.908123
0.911719
0.911815
0.9164
0.921928
0.920973
0.920563
0.922381
0.921333
0.919175
0.917501
0.916413
0.919579
0.938437
0.996815
1.10242
1.17148
1.17915
1.17691
1.16972
1.15954
1.14987
1.0567
1.05322
1.04855
1.04445
1.04099
1.03649
1.03222
1.02934
1.02558
1.02131
1.01865
1.01545
1.01156
1.00878
1.00544
1.00117
0.997985
0.994514
0.990249
0.986745
0.983227
0.978584
0.974879
0.971601
0.968188
0.965065
0.961874
0.958843
0.957006
0.956097
0.955204
0.954312
0.953438
0.952372
0.951802
0.951903
0.952795
0.955186
0.95938
0.96526
0.973691
0.985048
0.9997
1.01985
1.04232
1.05899
1.06713
1.06885
1.06857
1.06727
1.06467
1.06107
1.05668
1.05174
1.04687
1.04217
1.03789
1.03396
1.02987
1.02606
1.02284
1.01949
1.01596
1.01224
1.00835
1.00453
1.0005
0.996647
0.993446
0.98973
0.985657
0.98229
0.978751
0.974827
0.971717
0.968291
0.964256
0.961068
0.957744
0.953774
0.950771
0.947638
0.943844
0.940837
0.938046
0.934301
0.930785
0.928225
0.9252
0.921136
0.91814
0.915649
0.912043
0.907866
0.906019
0.904167
0.901242
0.900156
0.899597
0.899511
0.901062
0.901807
0.904266
0.910423
0.91302
0.916344
0.923801
0.927337
0.92893
0.933836
0.939045
0.93836
0.937912
0.940777
0.94154
0.938468
0.935942
0.935031
0.933127
0.929454
0.92512
0.921273
0.921902
0.930785
0.967754
1.05329
1.14441
1.16688
1.16634
1.16076
1.15037
1.13829
1.06459
1.06053
1.05571
1.05265
1.04975
1.04562
1.04188
1.03872
1.03481
1.03024
1.02726
1.02397
1.0197
1.0169
1.01378
1.00978
1.00666
1.00343
0.999067
0.995503
0.992227
0.988004
0.984113
0.980637
0.97606
0.972233
0.969132
0.965983
0.962833
0.959754
0.957385
0.955718
0.954673
0.953645
0.952495
0.951927
0.951964
0.952485
0.954
0.957251
0.962697
0.970871
0.982504
0.998685
1.02062
1.04145
1.05585
1.06392
1.06605
1.0656
1.064
1.06136
1.05816
1.05472
1.0513
1.04775
1.04374
1.0396
1.03556
1.03153
1.02768
1.02378
1.0197
1.01578
1.01191
1.00853
1.00505
1.00091
0.996918
0.993061
0.988596
0.984662
0.981338
0.977362
0.973976
0.971445
0.967981
0.964209
0.961055
0.957542
0.953951
0.951007
0.947521
0.943953
0.941489
0.938498
0.934549
0.931888
0.929728
0.926463
0.923107
0.921094
0.918857
0.915592
0.913944
0.914462
0.914977
0.915255
0.917641
0.923903
0.92719
0.930461
0.938557
0.942774
0.945126
0.951687
0.953743
0.955101
0.958374
0.957641
0.957104
0.957148
0.955054
0.952765
0.951137
0.948241
0.94476
0.94138
0.937551
0.933164
0.928339
0.922808
0.919619
0.92276
0.944312
1.00688
1.10329
1.15451
1.15776
1.15484
1.14607
1.13336
1.07501
1.07037
1.06482
1.0614
1.05809
1.05364
1.05029
1.04735
1.04356
1.03928
1.03639
1.03312
1.02879
1.02584
1.02272
1.01851
1.01518
1.01197
1.00776
1.00418
1.00102
0.996795
0.992699
0.989596
0.98569
0.981391
0.977677
0.973556
0.969605
0.966431
0.96358
0.960764
0.957592
0.955433
0.953311
0.95233
0.952494
0.952775
0.953509
0.955135
0.957968
0.962704
0.970546
0.981559
0.997293
1.01702
1.03584
1.05113
1.05962
1.06082
1.06022
1.05916
1.05724
1.05489
1.0523
1.04974
1.0472
1.0445
1.04143
1.03818
1.03487
1.03139
1.02746
1.02341
1.01929
1.01482
1.01063
1.00641
1.00189
0.998368
0.99478
0.990784
0.987271
0.98353
0.979426
0.975807
0.972376
0.968094
0.964507
0.961879
0.958776
0.955901
0.952988
0.949612
0.946749
0.944248
0.940956
0.937057
0.934968
0.932835
0.930001
0.929361
0.929808
0.930309
0.932385
0.937262
0.940695
0.9443
0.951534
0.956993
0.960014
0.966381
0.971309
0.971617
0.974823
0.977036
0.975261
0.974251
0.973998
0.971991
0.969262
0.967178
0.963893
0.960023
0.956339
0.952377
0.947438
0.942303
0.937191
0.931715
0.925983
0.920492
0.916657
0.917519
0.928352
0.969776
1.05431
1.13575
1.15162
1.15043
1.14419
1.13238
1.08419
1.0802
1.07534
1.07189
1.06814
1.06342
1.05994
1.05666
1.05243
1.04799
1.04505
1.04175
1.03752
1.0346
1.03159
1.02747
1.02412
1.02102
1.01685
1.01308
1.00998
1.00599
1.00203
0.998691
0.994657
0.989966
0.986519
0.982881
0.978481
0.974091
0.970644
0.967386
0.964093
0.961177
0.958159
0.954492
0.953033
0.953162
0.954
0.955509
0.957793
0.961226
0.966215
0.973252
0.983462
0.997364
1.01264
1.02872
1.04121
1.04865
1.05343
1.05507
1.05529
1.05459
1.05257
1.04952
1.04694
1.0454
1.04417
1.04288
1.04126
1.03912
1.03625
1.03267
1.02889
1.02486
1.02045
1.01612
1.01176
1.00733
1.00329
0.999273
0.994913
0.990974
0.987126
0.983088
0.979936
0.97657
0.972632
0.969187
0.966017
0.962491
0.959234
0.955883
0.952949
0.951472
0.94993
0.947869
0.946344
0.94621
0.947911
0.95135
0.953086
0.957655
0.965385
0.969412
0.974454
0.982568
0.985403
0.987558
0.992869
0.994016
0.99238
0.992361
0.99277
0.991287
0.987538
0.985034
0.982469
0.978979
0.975015
0.970931
0.966491
0.961257
0.956115
0.951009
0.945758
0.940571
0.935777
0.93078
0.925008
0.919069
0.915061
0.915072
0.920339
0.945159
1.00937
1.10184
1.14593
1.14704
1.14319
1.1334
1.09411
1.08932
1.08428
1.08117
1.07756
1.07318
1.0699
1.06668
1.06215
1.05784
1.05453
1.05082
1.04646
1.04341
1.04031
1.03616
1.03272
1.02973
1.02569
1.02193
1.01894
1.01514
1.01102
1.00786
1.00411
0.999767
0.996042
0.992087
0.98755
0.983689
0.980058
0.976202
0.971691
0.967887
0.964777
0.961139
0.957667
0.955804
0.955491
0.956075
0.957853
0.960999
0.965411
0.971311
0.97903
0.98819
0.998281
1.00978
1.02113
1.03069
1.03901
1.04371
1.04733
1.04939
1.04882
1.04755
1.04655
1.04547
1.04457
1.04391
1.04333
1.0427
1.04161
1.03998
1.03768
1.03476
1.03125
1.02729
1.02329
1.01928
1.01509
1.01112
1.00688
1.00226
0.998398
0.994432
0.990088
0.986517
0.982651
0.977968
0.975212
0.972722
0.969732
0.967671
0.965507
0.963695
0.964584
0.967331
0.968557
0.972225
0.980583
0.984842
0.989379
0.998524
1.00204
1.00372
1.01003
1.01201
1.01055
1.01151
1.01265
1.01117
1.00782
1.0055
1.00263
0.999025
0.994814
0.990688
0.986479
0.98133
0.975932
0.970467
0.965097
0.959893
0.954725
0.949738
0.944945
0.94004
0.935318
0.930908
0.92594
0.920374
0.916307
0.915662
0.918182
0.931831
0.975359
1.05737
1.13098
1.14466
1.14298
1.13626
1.10503
1.10012
1.09507
1.0915
1.08748
1.08268
1.07935
1.07605
1.07148
1.0675
1.06411
1.06001
1.05582
1.05257
1.04931
1.04523
1.04168
1.03862
1.03465
1.03065
1.02765
1.02396
1.0198
1.01672
1.01318
1.00866
1.00539
1.0019
0.997615
0.993741
0.989895
0.985675
0.98182
0.978015
0.973691
0.968946
0.964759
0.961209
0.959706
0.959638
0.96043
0.962365
0.965618
0.970677
0.977532
0.98561
0.994138
1.00183
1.00876
1.01525
1.02193
1.02859
1.03502
1.03919
1.04038
1.0417
1.04283
1.04273
1.0431
1.04321
1.04266
1.04235
1.04242
1.042
1.04095
1.03944
1.03756
1.03541
1.03292
1.03004
1.02662
1.02284
1.01913
1.01496
1.01099
1.00767
1.00353
0.99959
0.996418
0.992306
0.989188
0.987247
0.985854
0.986772
0.987606
0.990316
0.997508
1.00147
1.0053
1.01428
1.01924
1.02124
1.02804
1.03093
1.02964
1.03082
1.03214
1.03073
1.02709
1.0251
1.02274
1.01926
1.01535
1.01143
1.00713
1.00208
0.996906
0.991596
0.986117
0.980574
0.975159
0.969921
0.964831
0.959912
0.954867
0.94994
0.94538
0.940937
0.936516
0.932607
0.928473
0.923092
0.919025
0.918237
0.91948
0.926879
0.953782
1.01659
1.09966
1.14119
1.14284
1.13925
1.11479
1.10988
1.10509
1.10162
1.09751
1.09288
1.08953
1.08607
1.08113
1.0771
1.0735
1.06908
1.06497
1.06162
1.05818
1.05405
1.05053
1.04737
1.04357
1.0396
1.0366
1.03311
1.02885
1.0257
1.02238
1.01797
1.01458
1.01128
1.00686
1.00338
1.00009
0.995971
0.991849
0.98802
0.983929
0.97926
0.974654
0.970209
0.966041
0.965051
0.965535
0.966505
0.96851
0.972112
0.977588
0.984869
0.993065
1.00043
1.00569
1.00922
1.01228
1.01616
1.02039
1.02466
1.02837
1.03186
1.03463
1.03608
1.03823
1.03993
1.04016
1.04092
1.0413
1.04122
1.04045
1.03932
1.03852
1.03749
1.03611
1.03443
1.03227
1.0298
1.02743
1.02496
1.02205
1.01971
1.01706
1.01398
1.01286
1.01177
1.01152
1.01328
1.01759
1.02157
1.02598
1.03428
1.03943
1.04247
1.04995
1.0529
1.05217
1.05382
1.05544
1.05392
1.05004
1.04844
1.04585
1.04203
1.03777
1.03303
1.02834
1.02346
1.01828
1.01286
1.00735
1.002
0.996769
0.991705
0.986718
0.981649
0.976439
0.971267
0.96628
0.961606
0.957069
0.952629
0.948532
0.944605
0.940545
0.936976
0.933561
0.928825
0.924267
0.92288
0.923306
0.927038
0.942357
0.985421
1.06033
1.12678
1.14284
1.14145
1.12517
1.11972
1.11493
1.11123
1.10727
1.10237
1.09905
1.09546
1.09059
1.08671
1.08307
1.07848
1.07436
1.07088
1.06725
1.06313
1.05959
1.05626
1.05231
1.04832
1.04518
1.04169
1.03749
1.03445
1.03136
1.02717
1.02377
1.02068
1.0166
1.01297
1.00979
1.00581
1.002
0.998446
0.994254
0.989868
0.985063
0.980352
0.976056
0.973206
0.972846
0.973036
0.973737
0.975644
0.979594
0.986057
0.99395
1.00097
1.00554
1.00847
1.0109
1.01265
1.01373
1.01488
1.01672
1.01877
1.02181
1.02478
1.02777
1.03113
1.03393
1.03657
1.03847
1.03899
1.03853
1.03781
1.0373
1.03688
1.03598
1.03464
1.03337
1.03234
1.03141
1.03052
1.02975
1.02889
1.02913
1.03115
1.03449
1.03882
1.04647
1.05277
1.05885
1.06738
1.07228
1.07569
1.07861
1.07995
1.0808
1.07841
1.07483
1.0742
1.07186
1.06799
1.06331
1.05859
1.05423
1.04933
1.04424
1.03859
1.03245
1.02661
1.02117
1.0157
1.01018
1.0047
0.999238
0.993886
0.988855
0.984012
0.979147
0.974359
0.969797
0.96555
0.961623
0.957708
0.953947
0.950286
0.946372
0.942663
0.939394
0.935276
0.930295
0.928168
0.928171
0.929974
0.938436
0.965602
1.02288
1.0983
1.13912
1.14231
1.13538
1.13053
1.12535
1.12117
1.11668
1.11203
1.10865
1.10508
1.10004
1.09593
1.09228
1.08767
1.08367
1.08029
1.0763
1.07193
1.06839
1.06493
1.061
1.0574
1.05422
1.05084
1.04664
1.04334
1.04011
1.03578
1.03237
1.02942
1.02553
1.02213
1.01917
1.01545
1.0117
1.00837
1.0043
0.999939
0.996027
0.991293
0.986752
0.983418
0.981406
0.981547
0.981936
0.982543
0.98483
0.9897
0.996493
1.00316
1.0078
1.01054
1.01194
1.01277
1.01321
1.01333
1.0129
1.01166
1.0116
1.01247
1.01459
1.0182
1.02201
1.02555
1.02859
1.03091
1.03326
1.03477
1.03579
1.03578
1.0352
1.0351
1.03557
1.03611
1.03678
1.03815
1.04115
1.04494
1.05119
1.05841
1.06608
1.07725
1.08508
1.09049
1.09883
1.10262
1.10284
1.10425
1.1052
1.1045
1.10117
1.09739
1.09303
1.08892
1.08482
1.07952
1.0737
1.06767
1.06185
1.05631
1.05074
1.0448
1.03834
1.03201
1.02614
1.02048
1.01497
1.00952
1.00407
0.998651
0.993614
0.989045
0.984677
0.980418
0.976223
0.972183
0.968414
0.964762
0.961368
0.95811
0.954658
0.951047
0.947496
0.94322
0.938313
0.93537
0.934603
0.935276
0.939978
0.956423
0.995986
1.06165
1.12131
1.13882
1.14521
1.13991
1.13519
1.13111
1.12712
1.12221
1.1182
1.11409
1.10907
1.10493
1.10131
1.0969
1.09285
1.08956
1.08557
1.08119
1.0777
1.07404
1.06939
1.06583
1.06268
1.05919
1.05554
1.05241
1.04919
1.04499
1.04129
1.0382
1.03416
1.03067
1.02795
1.02436
1.02072
1.01751
1.01371
1.00937
1.00546
1.00138
0.996845
0.993532
0.99122
0.991045
0.991539
0.991537
0.992351
0.995587
1.00154
1.00828
1.01221
1.01353
1.01424
1.01483
1.01503
1.01465
1.01338
1.01155
1.00948
1.00763
1.00717
1.00784
1.00954
1.01187
1.01497
1.01829
1.02156
1.02467
1.02781
1.03072
1.03377
1.03662
1.03979
1.04317
1.04801
1.05495
1.06318
1.07357
1.08369
1.09254
1.10353
1.11102
1.11485
1.12013
1.12305
1.122
1.1214
1.12135
1.11932
1.11584
1.1117
1.10743
1.10351
1.09917
1.09433
1.08881
1.08275
1.07665
1.07062
1.06463
1.05854
1.05223
1.0456
1.03918
1.0332
1.0275
1.022
1.01662
1.01136
1.00624
1.00155
0.99731
0.993345
0.989604
0.98589
0.982113
0.978285
0.974122
0.969706
0.965635
0.961958
0.958431
0.954929
0.950818
0.946061
0.942748
0.941604
0.941506
0.94388
0.953891
0.980818
1.0298
1.09124
1.133
1.15751
1.15197
1.14674
1.14151
1.13656
1.13177
1.12755
1.12338
1.11856
1.11436
1.11069
1.10613
1.10187
1.09838
1.09426
1.08962
1.08645
1.08312
1.0788
1.07529
1.07211
1.06799
1.06389
1.06059
1.05718
1.0531
1.04984
1.04691
1.0431
1.03933
1.03653
1.0329
1.02901
1.02603
1.02256
1.01848
1.01475
1.01105
1.00672
1.00291
1.00031
0.999084
0.999623
1.00008
1.0006
1.00312
1.00847
1.01565
1.01828
1.01872
1.01913
1.01911
1.01848
1.01727
1.01513
1.01244
1.0102
1.0082
1.00622
1.00476
1.00364
1.004
1.00478
1.00638
1.00922
1.01221
1.01479
1.01814
1.02352
1.0312
1.04124
1.05412
1.06733
1.07946
1.09354
1.10484
1.11224
1.12094
1.12589
1.12723
1.12955
1.13154
1.13057
1.1286
1.12727
1.12535
1.12245
1.11924
1.11601
1.1126
1.10913
1.10538
1.10106
1.09623
1.0911
1.08598
1.08056
1.07455
1.06833
1.06228
1.05602
1.04983
1.0441
1.03859
1.03329
1.02834
1.02358
1.01886
1.01426
1.00988
1.00559
1.00144
0.997374
0.993419
0.989676
0.985766
0.981346
0.976634
0.972205
0.967944
0.96377
0.959292
0.954224
0.950203
0.949032
0.948915
0.950337
0.957224
0.976224
1.01187
1.06187
1.11239
1.17035
1.16412
1.15844
1.15319
1.1478
1.1423
1.13716
1.13228
1.12722
1.12318
1.11985
1.11602
1.11191
1.10819
1.10378
1.09855
1.09467
1.09115
1.0867
1.08361
1.08088
1.07702
1.07304
1.0696
1.06579
1.06121
1.05782
1.05489
1.0513
1.04769
1.04494
1.04151
1.037
1.03376
1.03038
1.02643
1.02315
1.01981
1.01592
1.01222
1.00949
1.00775
1.00739
1.00739
1.00767
1.00976
1.01457
1.02231
1.02553
1.02567
1.02585
1.0257
1.02408
1.02168
1.0191
1.01583
1.01234
1.00954
1.00687
1.00485
1.00398
1.00404
1.00463
1.00654
1.00985
1.01499
1.02242
1.03159
1.04318
1.0548
1.06675
1.08045
1.09156
1.10286
1.11362
1.11933
1.12434
1.12941
1.12978
1.13025
1.13101
1.13072
1.12887
1.12727
1.12585
1.12372
1.1208
1.11753
1.11392
1.10961
1.10499
1.10018
1.09514
1.09006
1.0852
1.08058
1.07612
1.07179
1.06733
1.06288
1.05862
1.05426
1.04995
1.0456
1.04112
1.03683
1.03275
1.02868
1.02447
1.02015
1.01577
1.01144
1.00719
1.00272
0.998164
0.994261
0.991185
0.988233
0.985002
0.981215
0.976745
0.971546
0.965799
0.960852
0.95887
0.958546
0.959233
0.963506
0.976796
1.00328
1.04267
1.0897
1.18562
1.17925
1.17255
1.1658
1.15894
1.1526
1.14756
1.14298
1.13837
1.13388
1.12932
1.12412
1.11975
1.11632
1.11279
1.10851
1.10455
1.10065
1.09575
1.0918
1.08856
1.08449
1.08074
1.07783
1.07431
1.07006
1.06659
1.06339
1.05943
1.05546
1.05252
1.04932
1.04507
1.04183
1.03871
1.03454
1.03095
1.02763
1.02376
1.01982
1.0166
1.01484
1.01469
1.01488
1.01498
1.01654
1.02054
1.02772
1.03235
1.0326
1.03237
1.03244
1.03135
1.02842
1.02517
1.02177
1.01722
1.01386
1.01105
1.00909
1.00987
1.01124
1.01368
1.01865
1.02486
1.03439
1.04468
1.05653
1.06973
1.07975
1.09111
1.09989
1.10665
1.11401
1.11815
1.12157
1.12503
1.12639
1.12648
1.1264
1.12587
1.12396
1.12143
1.1197
1.11748
1.11399
1.11048
1.10737
1.10379
1.1
1.09658
1.0931
1.08916
1.08524
1.08164
1.07801
1.07428
1.07088
1.06762
1.06433
1.06129
1.05814
1.05476
1.05123
1.04742
1.04359
1.04012
1.03645
1.03292
1.02968
1.02625
1.02249
1.01863
1.01424
1.00971
1.00592
1.00259
0.999003
0.994818
0.990125
0.985124
0.979929
0.97445
0.969336
0.966684
0.966297
0.966752
0.969736
0.979701
1.00161
1.03472
1.07262
1.19879
1.19328
1.18653
1.1793
1.17242
1.16574
1.15963
1.15404
1.14857
1.14401
1.1397
1.135
1.1302
1.12548
1.12022
1.11574
1.11231
1.10915
1.10538
1.10146
1.09772
1.09296
1.08842
1.08513
1.08161
1.07783
1.07501
1.07201
1.06814
1.06407
1.06043
1.05669
1.05202
1.04871
1.04612
1.04268
1.03926
1.036
1.03215
1.02802
1.02405
1.02098
1.01975
1.02039
1.02108
1.02253
1.02612
1.03259
1.03896
1.04034
1.03998
1.03924
1.03841
)
;

boundaryField
{
    inlet
    {
        type            fixedValue;
        value           nonuniform 0();
    }
    outlet
    {
        type            zeroGradient;
    }
    bottom
    {
        type            symmetryPlane;
    }
    top
    {
        type            symmetryPlane;
    }
    obstacle
    {
        type            zeroGradient;
    }
    front
    {
        type            empty;
    }
    back
    {
        type            empty;
    }
    procBoundary38to30
    {
        type            processor;
        value           nonuniform List<scalar> 
133
(
0.942731
0.940425
0.938854
0.938472
0.938643
0.939454
0.940922
0.942509
0.944225
0.946312
0.948939
0.952946
0.959252
0.966349
0.973153
0.980825
0.986938
0.991343
0.995668
1.00018
1.00489
1.01098
1.02024
1.03508
1.05502
1.07545
1.09127
1.09551
1.09491
1.09377
1.09235
1.08941
1.08456
1.07854
1.07184
1.06602
1.06072
1.05544
1.05116
1.04719
1.0429
1.03838
1.03333
1.02885
1.02511
1.02069
1.01588
1.0117
1.0074
1.00242
0.99811
0.993895
0.98898
0.983555
0.978421
0.973655
0.968485
0.962348
0.956979
0.952483
0.947478
0.941377
0.936502
0.932242
0.927307
0.921363
0.916772
0.912552
0.907834
0.90287
0.898254
0.89389
0.890112
0.886312
0.881418
0.876833
0.873677
0.870466
0.866253
0.861301
0.858078
0.855269
0.851763
0.847198
0.843341
0.840787
0.838053
0.834464
0.830385
0.828249
0.826371
0.823953
0.820768
0.817969
0.816736
0.815026
0.812389
0.810493
0.808916
0.806947
0.803487
0.802227
0.802834
0.805653
0.816945
0.858128
0.946885
1.05048
1.10938
1.13526
1.14753
1.15598
1.16594
1.17093
1.17361
1.17998
1.01413
1.01093
1.00687
1.00371
1.0007
0.996686
0.993065
0.98966
0.985074
0.981091
0.977476
0.972817
0.968581
0.964893
0.960263
0.955933
0.955933
)
;
    }
    procBoundary38to31
    {
        type            processor;
        value           uniform 1.18889;
    }
    procBoundary38to37
    {
        type            processor;
        value           nonuniform List<scalar> 
16
(
1.02582
1.03457
1.04175
1.05137
1.0599
1.06832
1.07882
1.08731
1.09778
1.10886
1.11856
1.12993
1.14005
1.15136
1.16305
1.17659
)
;
    }
    procBoundary38to39
    {
        type            processor;
        value           nonuniform List<scalar> 
17
(
1.18656
1.17627
1.15859
1.14054
1.12687
1.12121
1.12018
1.1213
1.12483
1.13036
1.13582
1.13935
1.14141
1.13761
1.13051
1.1209
1.10588
)
;
    }
    procBoundary38to45
    {
        type            processor;
        value           nonuniform List<scalar> 2(1.19206 1.20321);
    }
    procBoundary38to46
    {
        type            processor;
        value           nonuniform List<scalar> 
133
(
1.03609
1.0329
1.03021
1.02699
1.02287
1.02098
1.0223
1.02637
1.03022
1.03789
1.04609
1.05643
1.06881
1.07757
1.08948
1.09759
1.10341
1.11055
1.11332
1.11603
1.11866
1.11847
1.11867
1.11889
1.11805
1.11627
1.1151
1.11369
1.11069
1.10835
1.10712
1.10469
1.10126
1.09902
1.09694
1.09395
1.09069
1.08846
1.08602
1.08267
1.0796
1.07689
1.07368
1.07028
1.06739
1.06448
1.06114
1.05781
1.05441
1.05103
1.04775
1.04448
1.04127
1.0381
1.03509
1.03214
1.02903
1.02576
1.02223
1.01863
1.01505
1.01143
1.00786
1.0044
1.00098
0.997747
0.994736
0.991719
0.988222
0.984003
0.979342
0.976634
0.976224
0.976552
0.978922
0.987015
1.00564
1.034
1.065
1.20248
1.19955
1.19601
1.19124
1.18544
1.1793
1.17331
1.16772
1.16172
1.15534
1.14931
1.14403
1.13984
1.13575
1.13108
1.12637
1.12195
1.11674
1.11194
1.10841
1.10525
1.10166
1.09759
1.09405
1.09016
1.08565
1.08237
1.07915
1.07525
1.07183
1.06855
1.0649
1.06051
1.05677
1.05365
1.0497
1.04593
1.04302
1.03936
1.03551
1.03186
1.0286
1.02663
1.02624
1.02625
1.02715
1.03021
1.03594
1.04342
1.04732
1.04808
1.04784
1.03609
1.04726
)
;
    }
}


// ************************************************************************* //
