/*--------------------------------*- C++ -*----------------------------------*\
  =========                 |
  \\      /  F ield         | OpenFOAM: The Open Source CFD Toolbox
   \\    /   O peration     | Website:  https://openfoam.org
    \\  /    A nd           | Version:  7
     \\/     M anipulation  |
\*---------------------------------------------------------------------------*/
FoamFile
{
    version     2.0;
    format      ascii;
    class       volScalarField;
    location    "4";
    object      T;
}
// * * * * * * * * * * * * * * * * * * * * * * * * * * * * * * * * * * * * * //

dimensions      [0 0 0 1 0 0 0];

internalField   nonuniform List<scalar> 
2413
(
1.19483
1.19603
1.19598
1.19575
1.19507
1.19374
1.19211
1.19045
1.1932
1.19497
1.1952
1.19508
1.19457
1.19347
1.19181
1.18991
1.19121
1.19319
1.19373
1.1936
1.19322
1.19221
1.1906
1.18874
1.18919
1.1911
1.19192
1.19182
1.19143
1.19054
1.18901
1.18719
1.18776
1.18944
1.19025
1.19013
1.18974
1.18893
1.18754
1.18591
1.18694
1.18828
1.18889
1.18881
1.18844
1.18769
1.18643
1.18507
1.18678
1.18788
1.18821
1.18808
1.18763
1.18686
1.18572
1.18464
1.1873
1.18798
1.18809
1.18789
1.18732
1.18654
1.18552
1.18476
1.18855
1.18866
1.18855
1.18809
1.18739
1.18662
1.18579
1.18544
1.1902
1.19003
1.18956
1.18874
1.18794
1.1872
1.18678
1.18679
1.19229
1.19181
1.19096
1.18992
1.18907
1.18859
1.18855
1.18877
1.19469
1.19386
1.19272
1.19163
1.19086
1.19068
1.19081
1.19137
1.19714
1.19601
1.19487
1.19387
1.19323
1.19321
1.19359
1.19456
1.19961
1.19867
1.19738
1.19622
1.19589
1.1961
1.19695
1.19843
1.20254
1.20154
1.19981
1.19884
1.19892
1.19959
1.20104
1.20302
1.20578
1.20459
1.20255
1.20208
1.20258
1.20391
1.20589
1.20796
1.20894
1.20787
1.20626
1.20636
1.20733
1.20904
1.21105
1.21299
1.20427
1.21145
1.21126
1.21178
1.21311
1.21474
1.21622
1.2179
1.17301
1.21501
1.21691
1.21783
1.21896
1.2202
1.22153
1.22285
1.15506
1.15387
1.15323
1.15235
1.15128
1.15078
1.15013
1.14912
1.14858
1.14818
1.14748
1.14661
1.14629
1.14594
1.14521
1.1446
1.14417
1.14359
1.14267
1.14166
1.14087
1.13993
1.13868
1.13756
1.13648
1.13517
1.13368
1.13216
1.13064
1.12882
1.12667
1.12438
1.1219
1.11893
1.11509
1.11085
1.1097
1.1095
1.10889
1.10856
1.10872
1.10874
1.1084
1.10812
1.10789
1.10748
1.10693
1.10607
1.10467
1.1024
1.09779
1.09068
1.08124
1.07112
1.06415
1.06248
1.06265
1.18903
1.18807
1.18751
1.18718
1.18727
1.18725
1.18746
1.18769
1.1892
1.1926
1.1988
1.20622
1.21572
1.22287
1.22818
1.23203
1.23602
1.24121
1.24545
1.24854
1.24995
1.24964
1.24805
1.24504
1.24059
1.23555
1.23024
1.22529
1.22112
1.2178
1.21545
1.21388
1.21249
1.21107
1.20966
1.20816
1.20662
1.20493
1.20304
1.20108
1.19895
1.19665
1.19439
1.19207
1.18958
1.18714
1.18479
1.18247
1.18029
1.17806
1.17604
1.17419
1.17214
1.17041
1.16882
1.16692
1.16541
1.16404
1.16275
1.16176
1.16065
1.15962
1.15896
1.15808
1.15691
1.15628
1.15546
1.15441
1.15382
1.15313
1.15215
1.15157
1.15107
1.15035
1.1495
1.1491
1.14869
1.14794
1.14727
1.1468
1.14615
1.14519
1.14415
1.14328
1.14226
1.14093
1.13975
1.13861
1.13719
1.13562
1.134
1.13236
1.13038
1.12802
1.1255
1.12273
1.11954
1.11556
1.11255
1.11247
1.11232
1.11168
1.1115
1.11154
1.11143
1.111
1.11058
1.11014
1.10947
1.10847
1.10704
1.10434
1.09933
1.09179
1.08215
1.07317
1.06647
1.06414
1.06434
1.06477
1.18834
1.18729
1.18664
1.18619
1.18585
1.18543
1.18482
1.18397
1.18291
1.18254
1.18386
1.18756
1.195
1.20342
1.2131
1.22165
1.22841
1.23586
1.24146
1.24551
1.24844
1.24904
1.2486
1.24689
1.24382
1.23983
1.235
1.22992
1.22527
1.22149
1.21868
1.21654
1.21479
1.21318
1.21143
1.20962
1.20793
1.20616
1.2042
1.20227
1.20023
1.198
1.19577
1.19349
1.19114
1.18876
1.18637
1.18409
1.18201
1.17994
1.17799
1.17628
1.17446
1.17285
1.17147
1.16982
1.16833
1.16711
1.16589
1.16486
1.16378
1.16286
1.16209
1.16109
1.16009
1.15947
1.15866
1.15765
1.15699
1.15629
1.15537
1.15474
1.15414
1.15338
1.15255
1.15205
1.15155
1.15076
1.15002
1.14947
1.14876
1.14777
1.14669
1.14574
1.14464
1.14323
1.14198
1.14075
1.13925
1.13756
1.13585
1.13407
1.13196
1.12939
1.12664
1.12362
1.12042
1.11687
1.11535
1.11544
1.11528
1.11466
1.11447
1.11433
1.11404
1.11352
1.1129
1.11213
1.11096
1.10929
1.10627
1.1008
1.09289
1.0831
1.0742
1.06917
1.06636
1.06624
1.06655
1.0669
1.18713
1.186
1.18528
1.18474
1.18421
1.18361
1.18281
1.1817
1.18027
1.17865
1.17773
1.17796
1.18027
1.18532
1.19312
1.20315
1.21403
1.22451
1.2325
1.23928
1.2442
1.24633
1.24632
1.24545
1.24347
1.24047
1.237
1.23321
1.22951
1.2261
1.22321
1.22085
1.21871
1.21663
1.21457
1.21238
1.21019
1.20813
1.20603
1.20388
1.20173
1.19953
1.19732
1.19504
1.19278
1.1906
1.18833
1.1861
1.18404
1.18207
1.18024
1.17863
1.17699
1.17545
1.17425
1.17292
1.17152
1.17039
1.16931
1.1682
1.16714
1.16625
1.16534
1.16424
1.16345
1.16279
1.16191
1.16096
1.1603
1.15962
1.15876
1.15807
1.15739
1.15659
1.15577
1.15513
1.15451
1.15366
1.15284
1.15219
1.15141
1.15039
1.14928
1.14825
1.14708
1.1456
1.14426
1.14293
1.14133
1.13953
1.1377
1.13577
1.13353
1.1308
1.12783
1.12475
1.12185
1.11921
1.11851
1.11854
1.11828
1.11766
1.11736
1.11706
1.11657
1.11589
1.11487
1.11355
1.11155
1.10789
1.10216
1.09402
1.08404
1.07556
1.07064
1.06938
1.06874
1.06859
1.06888
1.06904
1.18565
1.18461
1.18397
1.18352
1.18302
1.1824
1.18153
1.18033
1.17877
1.17696
1.17529
1.17481
1.17498
1.17642
1.17952
1.18544
1.19506
1.20611
1.21697
1.22705
1.23513
1.23954
1.24224
1.24194
1.24072
1.23848
1.23573
1.23288
1.23058
1.22882
1.22728
1.22551
1.22372
1.22168
1.21933
1.21683
1.21427
1.21163
1.20908
1.2066
1.20409
1.20163
1.19935
1.19703
1.19471
1.19263
1.19055
1.18846
1.18643
1.18446
1.1828
1.18128
1.17972
1.17834
1.17724
1.17611
1.17489
1.17384
1.17286
1.17174
1.17064
1.16972
1.16871
1.16761
1.16691
1.1662
1.16525
1.16435
1.16374
1.16304
1.16222
1.1615
1.16079
1.15995
1.15912
1.15833
1.15758
1.15665
1.15574
1.15499
1.15413
1.15304
1.15191
1.15082
1.14958
1.14805
1.14661
1.14518
1.14346
1.14153
1.13956
1.13746
1.13508
1.13225
1.12919
1.12635
1.12399
1.12219
1.12173
1.12163
1.12125
1.12061
1.12014
1.11963
1.11887
1.11778
1.1162
1.11366
1.10935
1.10309
1.09486
1.08536
1.07716
1.0725
1.07163
1.07158
1.07129
1.07098
1.07118
1.07115
1.18461
1.18382
1.18337
1.18303
1.18259
1.18194
1.18094
1.17954
1.17783
1.17594
1.17409
1.17343
1.17362
1.17433
1.17578
1.17835
1.18309
1.19038
1.19898
1.20885
1.21886
1.22643
1.23158
1.23497
1.23502
1.2342
1.23253
1.23063
1.22865
1.22824
1.22776
1.22754
1.22714
1.2262
1.22465
1.22248
1.21985
1.21696
1.21389
1.21085
1.20792
1.20501
1.20233
1.19989
1.19747
1.19523
1.19317
1.19122
1.18928
1.18723
1.18563
1.18426
1.18273
1.18152
1.1805
1.17944
1.17838
1.17743
1.17645
1.17534
1.17425
1.17324
1.17215
1.17115
1.17042
1.16964
1.16863
1.1678
1.16723
1.1665
1.1657
1.165
1.16425
1.16336
1.16248
1.1616
1.1607
1.15972
1.15872
1.15784
1.15688
1.15574
1.15457
1.15343
1.15211
1.15057
1.14902
1.14748
1.14563
1.14355
1.14143
1.13917
1.13664
1.13379
1.13085
1.12849
1.12665
1.12534
1.1249
1.12464
1.12413
1.12339
1.12268
1.12181
1.12059
1.11882
1.11567
1.11068
1.10394
1.09526
1.08649
1.07947
1.07468
1.07384
1.07407
1.0741
1.07384
1.07341
1.07337
1.0731
1.18409
1.18357
1.18331
1.18309
1.18275
1.18206
1.18084
1.17915
1.17722
1.17527
1.17346
1.17306
1.17322
1.17382
1.17509
1.17736
1.1813
1.18567
1.18997
1.19498
1.2015
1.20844
1.21468
1.22
1.22403
1.22579
1.22604
1.22612
1.22558
1.22561
1.22595
1.22645
1.22709
1.22765
1.22727
1.22637
1.22478
1.22253
1.21976
1.2166
1.21328
1.21005
1.20696
1.20409
1.20149
1.19906
1.19671
1.19466
1.19279
1.19074
1.18899
1.1876
1.18618
1.185
1.18397
1.18297
1.18201
1.18109
1.18009
1.17899
1.17794
1.17681
1.17565
1.17474
1.17391
1.17305
1.17204
1.17131
1.17072
1.16994
1.16913
1.16844
1.16766
1.16673
1.16578
1.16486
1.16386
1.16281
1.16173
1.16073
1.15967
1.15845
1.15723
1.15604
1.15467
1.15309
1.15145
1.14976
1.14778
1.14555
1.14328
1.14087
1.13826
1.13547
1.13288
1.13102
1.12954
1.12842
1.12792
1.12746
1.12679
1.12581
1.12467
1.12328
1.12104
1.1173
1.11194
1.10461
1.09583
1.0872
1.0815
1.07772
1.07636
1.07644
1.07679
1.07672
1.07635
1.07571
1.07537
1.07478
1.18398
1.18377
1.18371
1.18363
1.18332
1.18254
1.18112
1.17922
1.17715
1.17538
1.17403
1.17346
1.17354
1.17402
1.17513
1.17738
1.18084
1.18497
1.18908
1.1921
1.19441
1.19655
1.19952
1.20314
1.20716
1.21113
1.21425
1.21673
1.21873
1.22077
1.22232
1.22391
1.22529
1.22654
1.22694
1.22662
1.22597
1.22495
1.22342
1.22136
1.21879
1.21587
1.21287
1.20985
1.20695
1.20432
1.20182
1.19938
1.1973
1.19532
1.19327
1.19161
1.19031
1.18898
1.1877
1.18676
1.18585
1.18486
1.18382
1.18274
1.18171
1.18052
1.17929
1.17833
1.1774
1.17645
1.17553
1.17481
1.17414
1.1733
1.17251
1.17181
1.17097
1.17
1.16902
1.16806
1.16699
1.16587
1.16475
1.16363
1.16247
1.16117
1.15988
1.15862
1.15718
1.15552
1.15378
1.15192
1.1498
1.14741
1.14502
1.14253
1.13993
1.13731
1.13514
1.13364
1.13238
1.13131
1.13066
1.12996
1.12895
1.12757
1.12572
1.1228
1.11849
1.11274
1.10522
1.09644
1.08848
1.08306
1.08049
1.0797
1.07919
1.07923
1.07946
1.07925
1.07868
1.07778
1.07711
1.07621
1.18445
1.18446
1.18461
1.1846
1.18433
1.18348
1.18196
1.18005
1.17833
1.17717
1.17617
1.17553
1.17555
1.17587
1.17678
1.17881
1.18173
1.18536
1.1891
1.19184
1.1934
1.19447
1.19462
1.19488
1.19516
1.19621
1.19855
1.20242
1.20674
1.21136
1.21535
1.21853
1.22143
1.2234
1.22486
1.2249
1.22467
1.22412
1.22321
1.22204
1.22073
1.21924
1.21742
1.21525
1.21291
1.21049
1.20804
1.20559
1.20319
1.20106
1.19894
1.19685
1.19523
1.19376
1.19217
1.19097
1.19002
1.18897
1.18781
1.18668
1.18567
1.18444
1.18312
1.18204
1.18097
1.18002
1.17913
1.17831
1.17754
1.17666
1.17586
1.1751
1.17422
1.1732
1.17221
1.17123
1.1701
1.16891
1.16777
1.16658
1.16531
1.16394
1.16256
1.16117
1.15961
1.15784
1.15595
1.1539
1.15161
1.14912
1.14663
1.14415
1.14163
1.13928
1.13747
1.13617
1.13499
1.13389
1.13294
1.13185
1.13035
1.1279
1.12418
1.11935
1.11306
1.1054
1.09737
1.09028
1.08514
1.08294
1.08271
1.08258
1.08209
1.08202
1.08202
1.08162
1.08075
1.07956
1.07863
1.07753
1.18542
1.18556
1.18599
1.18606
1.18581
1.18501
1.18371
1.18233
1.18123
1.1803
1.17947
1.17883
1.17882
1.17906
1.1799
1.18162
1.18421
1.18737
1.1903
1.1923
1.19353
1.1938
1.19373
1.19323
1.19215
1.19044
1.1901
1.19091
1.19389
1.19848
1.20386
1.20915
1.21389
1.21739
1.2204
1.22163
1.22183
1.22166
1.22116
1.22042
1.21954
1.21862
1.2177
1.21683
1.21597
1.21484
1.21329
1.21148
1.20952
1.20751
1.20547
1.20331
1.20127
1.19951
1.19774
1.19605
1.19477
1.19362
1.19233
1.19106
1.18996
1.1887
1.18728
1.18606
1.1849
1.18386
1.18288
1.18194
1.18107
1.18015
1.17929
1.17846
1.17753
1.17649
1.17547
1.17445
1.17328
1.17204
1.17088
1.16963
1.16826
1.1668
1.16531
1.16375
1.162
1.16006
1.158
1.15573
1.15326
1.15071
1.14819
1.14579
1.14345
1.14136
1.1398
1.13859
1.13735
1.136
1.13461
1.13275
1.12969
1.12548
1.11993
1.11311
1.10546
1.09813
1.09265
1.0879
1.0856
1.08553
1.08569
1.08549
1.08492
1.08468
1.08443
1.08377
1.08258
1.08118
1.08007
1.07889
1.18697
1.18734
1.18794
1.18816
1.18795
1.18738
1.18665
1.18587
1.18504
1.18428
1.18348
1.18286
1.18286
1.1831
1.1839
1.18554
1.18808
1.19089
1.19317
1.19432
1.19461
1.19454
1.19384
1.19253
1.19075
1.18878
1.18801
1.1881
1.18849
1.18993
1.1931
1.19754
1.20268
1.20743
1.21173
1.2144
1.2165
1.21731
1.21752
1.21736
1.21693
1.21641
1.21602
1.21561
1.21534
1.21505
1.21464
1.21408
1.21327
1.21216
1.21079
1.20923
1.20751
1.20575
1.20398
1.20213
1.20035
1.19895
1.19758
1.19613
1.19479
1.19345
1.19198
1.19059
1.1893
1.18812
1.18702
1.18596
1.18496
1.18395
1.18301
1.18209
1.1811
1.18004
1.17896
1.17787
1.17665
1.17538
1.17419
1.17289
1.1714
1.16983
1.1682
1.16642
1.16444
1.16231
1.16007
1.15762
1.15499
1.15239
1.14994
1.14766
1.1455
1.14365
1.14222
1.14089
1.13937
1.13749
1.13478
1.13111
1.12641
1.12037
1.11317
1.10576
1.09941
1.09465
1.09115
1.08891
1.08854
1.08865
1.08876
1.08844
1.08771
1.08724
1.08672
1.08579
1.08425
1.08277
1.08167
1.08053
1.18928
1.18988
1.19045
1.19103
1.1911
1.19088
1.19046
1.18995
1.18938
1.18879
1.18786
1.18736
1.18737
1.18761
1.18843
1.19016
1.19268
1.19525
1.19699
1.19747
1.19733
1.19681
1.19543
1.19326
1.19087
1.18865
1.1871
1.18701
1.18731
1.18814
1.18959
1.19141
1.19342
1.19644
1.20016
1.20374
1.20683
1.2091
1.21095
1.21199
1.2125
1.21293
1.2131
1.21314
1.21323
1.21345
1.2135
1.2134
1.21323
1.21297
1.21254
1.212
1.2112
1.21015
1.20896
1.20764
1.20612
1.2046
1.20319
1.20164
1.2001
1.1987
1.19725
1.19574
1.19431
1.19299
1.19175
1.19053
1.18939
1.18828
1.18724
1.18621
1.18515
1.18402
1.18285
1.18167
1.18041
1.17909
1.17785
1.17646
1.17485
1.17313
1.17133
1.16933
1.1671
1.16481
1.16243
1.15985
1.15717
1.15461
1.15227
1.15013
1.14812
1.14632
1.14473
1.14298
1.14042
1.13679
1.13239
1.12705
1.12057
1.11356
1.10694
1.10147
1.097
1.09384
1.09293
1.09232
1.09192
1.09199
1.09194
1.0914
1.09043
1.08972
1.08894
1.08778
1.08603
1.08462
1.08362
1.08258
1.19226
1.19315
1.19394
1.19486
1.19506
1.19494
1.19469
1.1944
1.19413
1.19346
1.19256
1.19217
1.19217
1.19241
1.19329
1.19509
1.1976
1.19992
1.20111
1.20124
1.20092
1.20002
1.19822
1.19542
1.19227
1.18965
1.18778
1.18724
1.18746
1.18823
1.18931
1.19034
1.19138
1.19204
1.19277
1.19461
1.19661
1.19864
1.20078
1.20286
1.20478
1.20648
1.20787
1.20903
1.2099
1.21053
1.21097
1.21126
1.21149
1.21171
1.21165
1.21152
1.21132
1.21105
1.21066
1.21011
1.2094
1.20852
1.20751
1.20637
1.20503
1.20375
1.20256
1.2012
1.19973
1.19833
1.197
1.19568
1.1944
1.19318
1.19203
1.1909
1.18974
1.18853
1.18729
1.18603
1.18473
1.18334
1.18197
1.18046
1.17868
1.1768
1.17481
1.17262
1.17019
1.16776
1.16532
1.16269
1.16007
1.15768
1.15544
1.15329
1.15122
1.14912
1.14653
1.143
1.13881
1.13382
1.12775
1.12094
1.11434
1.10893
1.10443
1.09984
1.09703
1.09659
1.09655
1.09615
1.09561
1.09554
1.09523
1.09441
1.09316
1.09222
1.09124
1.08994
1.08811
1.08693
1.08605
1.08506
1.19584
1.19714
1.19823
1.19902
1.19938
1.19935
1.19921
1.19899
1.19882
1.19819
1.19738
1.1971
1.19713
1.19744
1.19843
1.20035
1.2028
1.2047
1.20534
1.2053
1.20481
1.20362
1.2014
1.19811
1.19467
1.19215
1.1901
1.1886
1.18862
1.18895
1.18955
1.19017
1.19077
1.19121
1.19144
1.19121
1.19097
1.19116
1.19194
1.19327
1.19511
1.19737
1.19977
1.20207
1.2041
1.20569
1.20689
1.20779
1.20846
1.20897
1.20937
1.2096
1.2098
1.20995
1.2099
1.20975
1.2095
1.20919
1.2088
1.20834
1.20776
1.20707
1.20633
1.20546
1.20435
1.2032
1.20203
1.20076
1.19946
1.19821
1.19701
1.19581
1.19459
1.19334
1.19207
1.19075
1.18939
1.18793
1.18642
1.18479
1.18288
1.18086
1.17872
1.17639
1.17381
1.17126
1.16879
1.16613
1.16353
1.16117
1.15876
1.15618
1.15302
1.14935
1.14534
1.14081
1.13528
1.12877
1.12192
1.11594
1.11144
1.10745
1.10356
1.10102
1.10077
1.10091
1.10086
1.10036
1.09961
1.09927
1.09861
1.09746
1.09594
1.09489
1.09383
1.09248
1.0907
1.08969
1.08887
1.08783
1.20012
1.20168
1.20288
1.20336
1.20372
1.20388
1.20379
1.20357
1.2033
1.2028
1.20209
1.20192
1.20199
1.20247
1.20376
1.20599
1.20838
1.20953
1.2096
1.20943
1.20879
1.20731
1.20462
1.20106
1.19792
1.19535
1.19277
1.19133
1.19087
1.19078
1.19086
1.19099
1.19117
1.19123
1.19109
1.19048
1.18934
1.18863
1.18871
1.18898
1.18956
1.19054
1.19204
1.19396
1.19614
1.19836
1.20038
1.20215
1.20364
1.2048
1.20576
1.20654
1.20704
1.20753
1.20787
1.20802
1.20814
1.20809
1.20799
1.20788
1.20773
1.20751
1.20723
1.20697
1.2065
1.20581
1.20504
1.20413
1.20309
1.20204
1.20097
1.19988
1.19873
1.19754
1.19629
1.19499
1.1936
1.19214
1.19057
1.18887
1.18689
1.18473
1.18245
1.17999
1.17735
1.17466
1.17202
1.16902
1.1658
1.16261
1.15918
1.15549
1.15167
1.14745
1.14235
1.1363
1.12964
1.12325
1.1182
1.11422
1.1104
1.10766
1.10643
1.10593
1.10574
1.10576
1.10551
1.10471
1.10358
1.10288
1.10191
1.10051
1.09888
1.0978
1.09671
1.0953
1.09359
1.09264
1.09174
1.09057
1.20486
1.2065
1.20751
1.20776
1.2082
1.20835
1.20823
1.2079
1.20752
1.20714
1.20658
1.20651
1.20671
1.2075
1.20927
1.2118
1.21393
1.21457
1.21448
1.21402
1.21298
1.2109
1.20758
1.20396
1.20122
1.19822
1.1958
1.19457
1.19393
1.19357
1.19327
1.19287
1.19229
1.19157
1.1908
1.18996
1.18903
1.18817
1.18801
1.1881
1.18837
1.18881
1.18937
1.19004
1.19085
1.1919
1.19332
1.19504
1.19687
1.19864
1.20025
1.20169
1.2029
1.20386
1.20468
1.20525
1.20559
1.20582
1.20599
1.20615
1.2063
1.20646
1.2065
1.20646
1.20626
1.20589
1.20548
1.20494
1.20423
1.20346
1.20267
1.20183
1.2009
1.19987
1.19876
1.19759
1.19632
1.19492
1.19332
1.19144
1.18927
1.18688
1.18434
1.1814
1.17817
1.17489
1.17168
1.16823
1.16468
1.16125
1.15743
1.15305
1.14821
1.14268
1.13629
1.12962
1.12398
1.12012
1.11689
1.11375
1.11203
1.11167
1.11154
1.11107
1.11043
1.11003
1.10942
1.10817
1.10675
1.1058
1.10467
1.10318
1.10153
1.10048
1.09934
1.09779
1.09611
1.09505
1.09396
1.0926
1.20978
1.2113
1.212
1.2123
1.21271
1.21278
1.21263
1.21223
1.21186
1.21145
1.21105
1.21106
1.2114
1.21258
1.21474
1.21731
1.21915
1.21958
1.21941
1.2187
1.21718
1.21445
1.21074
1.20749
1.2044
1.2011
1.19905
1.19791
1.19717
1.19661
1.19603
1.19529
1.19427
1.19304
1.19173
1.19036
1.18909
1.18807
1.1875
1.18751
1.18763
1.18792
1.18835
1.18887
1.18944
1.19004
1.1906
1.19117
1.1919
1.19284
1.19406
1.19552
1.19709
1.19857
1.19985
1.20096
1.20185
1.20256
1.20303
1.20352
1.20391
1.20424
1.2047
1.20506
1.20482
1.20459
1.20436
1.2041
1.20365
1.20304
1.20242
1.20177
1.20105
1.20024
1.19931
1.19824
1.19698
1.19546
1.19364
1.1915
1.18904
1.18626
1.18321
1.18001
1.17655
1.17304
1.16944
1.16563
1.16155
1.1573
1.1525
1.14689
1.14075
1.13433
1.12832
1.12374
1.12114
1.11902
1.11695
1.11592
1.1156
1.1154
1.11492
1.11413
1.11303
1.11222
1.11127
1.10977
1.10832
1.10725
1.10611
1.10465
1.10305
1.10199
1.10075
1.09899
1.09726
1.09606
1.09486
1.09333
1.21461
1.21581
1.21654
1.21685
1.21712
1.21718
1.21701
1.21661
1.21623
1.21571
1.21543
1.21549
1.21605
1.21759
1.22
1.22267
1.22436
1.22464
1.22438
1.22338
1.22124
1.2178
1.21395
1.21088
1.20722
1.20416
1.20242
1.20137
1.20058
1.19986
1.19904
1.198
1.19664
1.19497
1.19319
1.19158
1.19023
1.18935
1.18881
1.18853
1.18842
1.18848
1.18862
1.18885
1.1891
1.18939
1.18974
1.19017
1.19066
1.1912
1.19175
1.19234
1.19301
1.19383
1.19473
1.19573
1.19685
1.19791
1.19886
1.19978
1.20063
1.20128
1.20195
1.20275
1.20265
1.20249
1.20241
1.20231
1.20208
1.20155
1.20102
1.20048
1.19989
1.19919
1.19834
1.19729
1.19598
1.19437
1.19245
1.1901
1.18724
1.18396
1.18028
1.17636
1.1723
1.16819
1.16399
1.1594
1.15441
1.14904
1.14304
1.13642
1.13022
1.12569
1.12307
1.12133
1.12017
1.11909
1.11812
1.11762
1.11711
1.11636
1.11556
1.11448
1.11297
1.11194
1.1109
1.10946
1.10815
1.10714
1.10605
1.10449
1.10282
1.10168
1.10034
1.09853
1.0968
1.09559
1.09436
1.09272
1.21927
1.22021
1.22102
1.22144
1.22168
1.22174
1.22158
1.22116
1.22059
1.21999
1.21984
1.22002
1.22088
1.22269
1.22531
1.22792
1.22916
1.22924
1.22892
1.22766
1.22491
1.221
1.21739
1.2139
1.21017
1.20764
1.20607
1.20498
1.20404
1.20305
1.20186
1.20042
1.19883
1.19717
1.19542
1.19381
1.1926
1.19181
1.19121
1.19077
1.19042
1.19009
1.18984
1.18966
1.18955
1.18959
1.18972
1.18993
1.19025
1.19063
1.19105
1.19149
1.19195
1.1924
1.19283
1.19326
1.19374
1.19435
1.19507
1.19582
1.19666
1.19749
1.19824
1.19904
1.19956
1.19968
1.19982
1.20006
1.19986
1.1994
1.19897
1.19854
1.19804
1.19741
1.19659
1.19553
1.19413
1.19227
1.18978
1.18659
1.1827
1.1783
1.17362
1.16878
1.16384
1.15881
1.15368
1.14807
1.1422
1.1363
1.13032
1.12553
1.12303
1.12191
1.12116
1.12012
1.11949
1.11889
1.118
1.11731
1.11652
1.11547
1.1144
1.11315
1.11153
1.11038
1.10932
1.10796
1.1067
1.10571
1.10459
1.10298
1.10144
1.1002
1.09876
1.09687
1.0951
1.09398
1.09279
1.09117
1.22391
1.2247
1.22538
1.22605
1.22636
1.22639
1.22622
1.22575
1.22491
1.22428
1.22426
1.2246
1.2257
1.22775
1.23059
1.23311
1.23401
1.23399
1.23348
1.23176
1.22836
1.22422
1.22039
1.2162
1.2128
1.21069
1.20941
1.20846
1.20752
1.20641
1.20501
1.20331
1.2014
1.19946
1.19769
1.19632
1.1954
1.19475
1.19422
1.19375
1.19329
1.19282
1.19232
1.19188
)
;

boundaryField
{
    inlet
    {
        type            fixedValue;
        value           nonuniform 0();
    }
    outlet
    {
        type            inletOutlet;
        inletValue      nonuniform 0();
        value           nonuniform 0();
    }
    bottom
    {
        type            symmetryPlane;
    }
    top
    {
        type            symmetryPlane;
    }
    obstacle
    {
        type            zeroGradient;
    }
    front
    {
        type            empty;
    }
    back
    {
        type            empty;
    }
    procBoundary29to21
    {
        type            processor;
        value           nonuniform List<scalar> 
129
(
1.19565
1.19625
1.19599
1.1956
1.19472
1.19317
1.19139
1.18964
1.15202
1.1509
1.15029
1.14932
1.14829
1.14788
1.14729
1.1463
1.14573
1.14541
1.14476
1.14386
1.1436
1.14329
1.14258
1.14199
1.14162
1.14111
1.14024
1.13925
1.13855
1.13769
1.1365
1.13544
1.13441
1.1332
1.13181
1.13038
1.12898
1.12732
1.12535
1.12327
1.12107
1.11839
1.11495
1.1105
1.10758
1.10692
1.10626
1.10577
1.10594
1.10608
1.10573
1.10556
1.10552
1.10528
1.10495
1.10444
1.10367
1.10242
1.10031
1.09626
1.08935
1.07949
1.06907
1.06237
1.06064
1.1882
1.18752
1.18755
1.18784
1.18846
1.18944
1.19169
1.19581
1.20232
1.21039
1.21922
1.22565
1.23096
1.23394
1.2355
1.23743
1.24001
1.24344
1.24706
1.24882
1.24846
1.24698
1.24416
1.2403
1.23538
1.23047
1.22607
1.2217
1.21813
1.21551
1.21362
1.21225
1.21099
1.20981
1.20858
1.20714
1.2056
1.20388
1.20191
1.19986
1.19769
1.19537
1.1931
1.19079
1.18828
1.18588
1.18353
1.18115
1.17882
1.17643
1.17432
1.17224
1.16996
1.16814
1.16633
1.16435
1.16281
1.16129
1.15994
1.15891
1.15779
1.15658
1.15595
1.15595
)
;
    }
    procBoundary29to22
    {
        type            processor;
        value           nonuniform List<scalar> 3(1.0626 1.06468 1.06677);
    }
    procBoundary29to30
    {
        type            processor;
        value           nonuniform List<scalar> 
16
(
1.06883
1.07071
1.07232
1.07366
1.07481
1.07598
1.07737
1.07909
1.08115
1.08362
1.08632
1.08895
1.09085
1.09155
1.09106
1.0897
)
;
    }
    procBoundary29to36
    {
        type            processor;
        value           nonuniform List<scalar> 
19
(
1.19242
1.19068
1.18866
1.1869
1.18577
1.18532
1.18547
1.18637
1.18804
1.19015
1.19254
1.19516
1.19791
1.20021
1.2027
1.20474
1.18524
1.13719
1.07974
)
;
    }
    procBoundary29to37
    {
        type            processor;
        value           nonuniform List<scalar> 
129
(
1.11698
1.20118
1.22142
1.2236
1.22468
1.22579
1.22699
1.22805
1.19148
1.19116
1.19095
1.19085
1.19089
1.19099
1.19116
1.19139
1.19164
1.19189
1.19215
1.19247
1.19283
1.19324
1.19371
1.19423
1.19474
1.19527
1.19576
1.19604
1.19629
1.19646
1.19665
1.1971
1.19716
1.19696
1.19666
1.19628
1.19573
1.19494
1.19383
1.19229
1.19014
1.18715
1.18319
1.17831
1.17276
1.1669
1.16109
1.15541
1.14992
1.14457
1.13939
1.13406
1.12888
1.125
1.12229
1.12107
1.12075
1.12036
1.11965
1.11883
1.11844
1.11782
1.11685
1.11597
1.11502
1.11374
1.1125
1.11126
1.10974
1.10849
1.1074
1.1061
1.10483
1.10392
1.10285
1.10127
1.09979
1.09841
1.09693
1.09507
1.09332
1.09231
1.09113
1.08955
1.22876
1.2293
1.23004
1.23078
1.23093
1.23096
1.23079
1.23028
1.22922
1.22872
1.22882
1.22937
1.23065
1.23295
1.23577
1.23751
1.23783
1.2378
1.23722
1.23515
1.23149
1.22755
1.22337
1.2191
1.216
1.21405
1.21272
1.2116
1.21044
1.20913
1.20763
1.20595
1.20416
1.20227
1.20071
1.19972
1.19892
1.19821
1.19762
1.19709
1.19653
1.19589
1.19531
1.19148
1.19475
)
;
    }
}


// ************************************************************************* //
