/*--------------------------------*- C++ -*----------------------------------*\
  =========                 |
  \\      /  F ield         | OpenFOAM: The Open Source CFD Toolbox
   \\    /   O peration     | Website:  https://openfoam.org
    \\  /    A nd           | Version:  7
     \\/     M anipulation  |
\*---------------------------------------------------------------------------*/
FoamFile
{
    version     2.0;
    format      ascii;
    class       volVectorField;
    location    "54";
    object      U;
}
// * * * * * * * * * * * * * * * * * * * * * * * * * * * * * * * * * * * * * //

dimensions      [0 1 -1 0 0 0 0];

internalField   nonuniform List<vector> 
41600
(
(-0.0332875 0.0123065 -3.137e-20)
(-0.079865 0.0137 -5.42434e-20)
(-0.124619 0.0122487 3.96482e-23)
(-0.15319 0.00829786 -6.31633e-20)
(-0.175305 0.00204073 9.68534e-20)
(-0.192886 -0.00757999 -2.27356e-19)
(-0.205794 -0.020045 -3.31891e-20)
(-0.216636 -0.0345351 2.6209e-19)
(-0.224344 -0.0491194 -5.78245e-20)
(-0.230444 -0.0612863 -9.38368e-20)
(-0.234486 -0.0680976 -3.79724e-20)
(-0.237089 -0.0667009 1.17877e-19)
(-0.238095 -0.0549531 -6.94221e-20)
(-0.237114 -0.03195 -7.27413e-20)
(-0.234072 0.00111222 -7.23844e-20)
(-0.228263 0.0413482 1.73729e-20)
(-0.220281 0.0827415 3.65818e-21)
(-0.20987 0.119565 -1.05124e-19)
(-0.196098 0.143639 2.03994e-20)
(-0.17962 0.150028 2.834e-20)
(-0.15319 0.132734 -1.29843e-19)
(-0.124327 0.0953142 1.15939e-19)
(-0.0791497 0.0391335 -3.61234e-20)
(-0.0456365 -0.023992 1.03549e-20)
(0.00325391 -0.0840753 3.56037e-20)
(-0.0334773 0.016636 -1.46007e-19)
(-0.0797574 0.0181484 2.76195e-19)
(-0.124174 0.0164085 -6.73164e-20)
(-0.152449 0.0115869 3.47138e-20)
(-0.174293 0.00499023 -2.84748e-19)
(-0.191648 -0.00509372 3.52482e-19)
(-0.204347 -0.0178581 -5.71982e-20)
(-0.214994 -0.0326902 -3.42117e-19)
(-0.222512 -0.0475886 8.89026e-20)
(-0.228432 -0.060084 -3.09629e-19)
(-0.232329 -0.0672228 5.41712e-20)
(-0.23485 -0.0662003 1.87406e-19)
(-0.23586 -0.0548879 1.91351e-19)
(-0.234919 -0.0325164 4.02952e-19)
(-0.23177 -0.000156968 1.33323e-19)
(-0.225403 0.0391221 1.52743e-19)
(-0.215675 0.0795844 2.2949e-20)
(-0.201945 0.115206 3.3493e-19)
(-0.182096 0.137562 2.7656e-20)
(-0.157347 0.142207 -1.03502e-19)
(-0.119124 0.121668 -1.30344e-19)
(-0.0799231 0.0821626 -2.45513e-19)
(-0.0187724 0.0242234 -1.18481e-19)
(0.0213974 -0.0383652 -9.41835e-21)
(0.0840625 -0.0962088 -8.05031e-20)
(-0.0337807 0.020929 3.1013e-20)
(-0.0795721 0.0225639 -9.25799e-20)
(-0.123391 0.0205503 -1.51891e-19)
(-0.151048 0.0148738 1.13553e-19)
(-0.172231 0.00796006 2.66862e-19)
(-0.188899 -0.0025617 -4.11682e-19)
(-0.200844 -0.0156001 2.40014e-19)
(-0.210665 -0.0307515 1.80209e-20)
(-0.217262 -0.0459482 3.81456e-19)
(-0.222163 -0.058763 5.46561e-19)
(-0.224952 -0.0662287 3.90117e-19)
(-0.226275 -0.0655867 2.05547e-20)
(-0.226013 -0.0547328 -2.0069e-21)
(-0.22362 -0.033045 -3.74985e-19)
(-0.218712 -0.00151104 -3.97079e-19)
(-0.209896 0.036583 -2.0005e-19)
(-0.19645 0.0757355 3.43663e-20)
(-0.177385 0.109655 -3.52679e-19)
(-0.149456 0.129711 9.94788e-20)
(-0.11539 0.132087 -1.47157e-19)
(-0.0635803 0.108456 1.43286e-19)
(-0.0154206 0.066275 4.8245e-19)
(0.0625749 0.00767492 3.46863e-19)
(0.107768 -0.0540636 -1.03583e-19)
(0.184866 -0.108651 -8.51204e-20)
(-0.0341966 0.0251615 -2.49868e-19)
(-0.079309 0.0269206 4.38049e-20)
(-0.12227 0.0246523 5.16135e-19)
(-0.148984 0.0181384 -3.59543e-19)
(-0.169109 0.0109309 2.46061e-19)
(-0.184626 -3.54499e-06 1.10177e-18)
(-0.195265 -0.013291 -6.28154e-19)
(-0.20362 -0.0287395 1.04853e-18)
(-0.208566 -0.0442194 5.42721e-19)
(-0.211618 -0.0573465 6.48185e-19)
(-0.212367 -0.0651435 1.75711e-19)
(-0.211426 -0.0648965 -7.41652e-19)
(-0.208695 -0.0545357 -4.27293e-19)
(-0.203463 -0.0335938 2.69336e-19)
(-0.195287 -0.00301243 3.52057e-19)
(-0.182329 0.033679 2.55918e-20)
(-0.163487 0.0711884 -1.9071e-19)
(-0.13753 0.102983 2.49705e-19)
(-0.100081 0.120396 -7.05211e-19)
(-0.0565935 0.119952 -5.05897e-19)
(0.00969133 0.0938704 3.94858e-19)
(0.065057 0.0486188 -1.17096e-19)
(0.158773 -0.00982327 1.56315e-19)
(0.207348 -0.0703076 2.40994e-19)
(0.296665 -0.121322 9.0289e-20)
(-0.0347238 0.0293217 3.04352e-20)
(-0.0789678 0.0312035 -6.18059e-19)
(-0.120809 0.0286997 6.01014e-19)
(-0.146253 0.0213638 -8.45892e-20)
(-0.164922 0.0138843 -9.61959e-19)
(-0.178815 0.00256135 -9.29562e-19)
(-0.187588 -0.0109507 2.92027e-19)
(-0.193832 -0.0266734 -9.29886e-19)
(-0.196393 -0.04242 -6.30537e-19)
(-0.19678 -0.0558506 -1.0457e-18)
(-0.194589 -0.0639841 -9.34079e-20)
(-0.190392 -0.0641502 2.90001e-19)
(-0.184108 -0.0543263 6.62625e-19)
(-0.174807 -0.0341992 -4.16377e-19)
(-0.16207 -0.00469702 5.62396e-19)
(-0.143558 0.0303957 -4.77544e-19)
(-0.118017 0.0660001 -4.62203e-19)
(-0.0841179 0.0953192 -2.34024e-19)
(-0.0362693 0.110168 -1.71665e-19)
(0.0161323 0.10608 6.02431e-19)
(0.096702 0.0784567 -7.12178e-19)
(0.158359 0.0303589 3.47126e-19)
(0.264688 -0.0274153 -4.75099e-19)
(0.315827 -0.0861697 -3.07953e-19)
(0.413379 -0.13324 -1.71912e-20)
(-0.0353608 0.0333915 1.19314e-19)
(-0.078549 0.0353915 5.67022e-19)
(-0.119009 0.0326736 -1.58392e-18)
(-0.142854 0.0245306 1.00694e-18)
(-0.159663 0.0168009 5.89179e-19)
(-0.171451 0.00511305 -1.7384e-19)
(-0.17779 -0.00859888 8.37181e-19)
(-0.181268 -0.0245706 -1.13912e-19)
(-0.180705 -0.0405637 2.92916e-19)
(-0.177616 -0.0542832 1.03149e-18)
(-0.171622 -0.0627527 6.37925e-19)
(-0.163251 -0.0633461 -3.74122e-20)
(-0.152461 -0.0541048 -3.66746e-19)
(-0.138055 -0.0348623 1.37429e-18)
(-0.119731 -0.0065617 -2.78606e-19)
(-0.0945811 0.0267636 7.20778e-19)
(-0.0614514 0.0602909 2.53533e-19)
(-0.0190087 0.0868065 7.8072e-19)
(0.0395077 0.0993344 1.4203e-19)
(0.100265 0.0912083 -6.72872e-19)
(0.193523 0.0626146 5.16521e-19)
(0.262042 0.0124133 -7.06186e-19)
(0.376483 -0.044195 -2.18483e-19)
(0.429791 -0.100741 -5.7768e-19)
(0.530802 -0.143112 -1.12938e-19)
(-0.0361061 0.0373561 -2.30541e-19)
(-0.0780533 0.0394661 -7.86074e-19)
(-0.116872 0.0365562 6.0255e-19)
(-0.138786 0.02762 -1.6396e-18)
(-0.153325 0.019661 -6.66716e-19)
(-0.162522 0.00763139 2.32729e-19)
(-0.165845 -0.00625503 -1.33941e-18)
(-0.165888 -0.0224476 8.65978e-19)
(-0.161452 -0.0386603 -6.74349e-19)
(-0.154075 -0.0526429 -3.59379e-19)
(-0.143436 -0.0614345 -5.08048e-19)
(-0.130039 -0.0624545 9.73186e-19)
(-0.11392 -0.053833 -1.03723e-18)
(-0.0935732 -0.0355353 -6.15142e-19)
(-0.0689191 -0.00854891 -2.56498e-19)
(-0.0363943 0.0228674 -5.79581e-19)
(0.00479727 0.054223 4.92388e-19)
(0.0559682 0.0776452 -2.15884e-19)
(0.124859 0.0880371 9.31424e-20)
(0.194075 0.0762232 7.04006e-19)
(0.296863 0.0466988 5.64262e-19)
(0.373504 -0.00461065 -1.01784e-18)
(0.491081 -0.0592956 1.08526e-18)
(0.545789 -0.113218 1.07004e-18)
(0.644783 -0.149986 -9.01193e-20)
(-0.0369581 0.0412005 1.0211e-18)
(-0.077482 0.043408 8.14802e-19)
(-0.114398 0.0403293 3.1258e-19)
(-0.134048 0.0306126 1.76698e-18)
(-0.145903 0.0224445 9.71694e-19)
(-0.152011 0.0100959 1.97051e-18)
(-0.151724 -0.00393866 -1.08792e-18)
(-0.147645 -0.0203195 2.80375e-19)
(-0.138567 -0.0367159 8.23649e-20)
(-0.126079 -0.0509197 -5.73862e-19)
(-0.109963 -0.0599976 -2.19276e-19)
(-0.090731 -0.0614161 -1.0163e-18)
(-0.0685617 -0.0534291 1.23797e-18)
(-0.0416205 -0.0361079 1.3756e-19)
(-0.0101479 -0.01053 -8.03257e-19)
(0.0301535 0.0188621 -9.55688e-20)
(0.0795055 0.0480039 -5.47247e-19)
(0.139379 0.0681899 -2.52755e-19)
(0.217488 0.0765478 9.20912e-19)
(0.295911 0.0616825 7.87482e-19)
(0.404584 0.0311859 1.51776e-19)
(0.489625 -0.0202351 1.40225e-18)
(0.605373 -0.0720115 2.24219e-19)
(0.65986 -0.122813 7.19595e-20)
(0.75085 -0.153333 3.77566e-19)
(-0.0379151 0.0449104 -8.9555e-19)
(-0.0768367 0.0471982 6.10769e-19)
(-0.111589 0.0439746 -5.92561e-20)
(-0.128639 0.0334888 3.44046e-19)
(-0.137389 0.0251308 4.70621e-19)
(-0.1399 0.0124857 -2.85953e-18)
(-0.135392 -0.00166921 1.74267e-18)
(-0.12648 -0.0182003 -2.31444e-18)
(-0.111969 -0.0347333 -6.50948e-19)
(-0.0935257 -0.0490963 -8.83336e-19)
(-0.0710926 -0.0583955 -1.47127e-18)
(-0.0452456 -0.0601455 2.59265e-20)
(-0.016367 -0.0527692 -2.19135e-19)
(0.0176759 -0.0364051 -8.85036e-19)
(0.0562656 -0.0122935 1.5512e-18)
(0.104456 0.0149932 1.1785e-18)
(0.161717 0.0418918 -5.08099e-19)
(0.230173 0.0589172 -4.12809e-19)
(0.315751 0.0650906 -4.8797e-19)
(0.403669 0.0479915 -1.44336e-18)
(0.515131 0.0167166 -1.06575e-18)
(0.606758 -0.0338964 4.01123e-20)
(0.71582 -0.0818021 -2.03012e-18)
(0.76741 -0.128859 -2.85125e-19)
(0.844842 -0.152953 -1.04678e-18)
(-0.0389755 0.048472 1.0412e-18)
(-0.0761192 0.0508178 -1.73497e-18)
(-0.108448 0.0474733 -1.37015e-18)
(-0.12256 0.0362285 -2.02973e-18)
(-0.127776 0.0276991 5.64679e-19)
(-0.126166 0.0147801 4.68186e-19)
(-0.116806 0.000534133 8.49206e-19)
(-0.102327 -0.0161029 1.93101e-19)
(-0.081561 -0.0327125 4.03064e-19)
(-0.0562988 -0.0471502 -8.20577e-19)
(-0.0267014 -0.0565714 1.46715e-18)
(0.00652113 -0.0585399 -2.50824e-19)
(0.0427286 -0.0516874 1.31748e-18)
(0.0842711 -0.0362149 -3.22786e-19)
(0.130152 -0.0135632 4.75675e-19)
(0.186105 0.0115973 -2.04557e-18)
(0.250751 0.0361999 -4.55082e-19)
(0.327374 0.0503185 -1.34147e-18)
(0.418675 0.0541039 -7.24429e-19)
(0.514852 0.0354601 -7.00934e-19)
(0.626493 0.0039469 9.25667e-19)
(0.720644 -0.0449442 -5.02602e-19)
(0.818451 -0.088258 4.38124e-19)
(0.863679 -0.131007 1.24717e-19)
(0.92358 -0.149028 2.94032e-19)
(-0.0401375 0.0518729 1.19713e-19)
(-0.0753315 0.0542477 1.91093e-18)
(-0.104977 0.0508066 -1.75976e-19)
(-0.115807 0.0388116 9.13314e-19)
(-0.11705 0.0301284 -3.38925e-18)
(-0.110781 0.0169582 -1.79571e-19)
(-0.0959164 0.00265289 -1.43337e-18)
(-0.0751061 -0.0140388 1.36144e-18)
(-0.0472415 -0.0306509 1.77981e-18)
(-0.0142846 -0.0450542 1.67946e-19)
(0.0233153 -0.0544622 3.64163e-19)
(0.0646279 -0.0564905 -3.53794e-19)
(0.108726 -0.0500112 -8.22118e-19)
(0.158042 -0.0353176 -1.40788e-18)
(0.211295 -0.0140412 -2.52597e-19)
(0.274646 0.00905368 5.61668e-19)
(0.345968 0.0313091 2.07952e-18)
(0.429695 0.0428115 -2.62161e-20)
(0.525154 0.0442077 6.51174e-19)
(0.626599 0.0244857 9.50999e-19)
(0.735464 -0.00653881 -2.03991e-18)
(0.826491 -0.0528324 -2.77269e-19)
(0.909179 -0.0911902 9.83337e-19)
(0.944688 -0.129353 -9.54513e-19)
(0.985449 -0.142137 2.98456e-19)
(-0.0413994 0.0551009 -2.45367e-18)
(-0.0744756 0.0574693 -1.61324e-18)
(-0.101177 0.0539556 1.67883e-18)
(-0.108377 0.0412179 -1.05034e-18)
(-0.105197 0.0323976 4.54938e-18)
(-0.0937104 0.0190002 -1.24775e-18)
(-0.0726609 0.00467025 2.86439e-18)
(-0.0447297 -0.012016 6.38334e-19)
(-0.00890744 -0.0285419 -1.64371e-18)
(0.032604 -0.042777 1.88866e-18)
(0.0789892 -0.0520039 8.33334e-19)
(0.128996 -0.0538997 -2.1625e-20)
(0.181419 -0.047596 -1.34114e-18)
(0.238577 -0.0335194 8.368e-19)
(0.299107 -0.013472 -1.44093e-18)
(0.369172 0.00768174 8.82729e-19)
(0.446243 0.0276075 -9.5757e-19)
(0.535186 0.0367129 2.12228e-19)
(0.632917 0.0359502 -4.41074e-19)
(0.735306 0.0155221 -3.35877e-19)
(0.837569 -0.0143153 1.02653e-18)
(0.919516 -0.0573317 2.62328e-19)
(0.984521 -0.0907659 -4.46709e-20)
(1.00817 -0.124456 -4.60252e-19)
(1.03073 -0.133144 -1.97182e-19)
(-0.0427595 0.0581453 2.25534e-18)
(-0.0735537 0.0604639 6.59733e-19)
(-0.0970487 0.0569011 -3.88645e-19)
(-0.100263 0.0434272 9.24536e-19)
(-0.0921947 0.0344863 -3.87945e-18)
(-0.0749067 0.0208877 2.95356e-18)
(-0.0469657 0.00657256 -1.06156e-18)
(-0.0111008 -0.0100374 -1.30418e-18)
(0.0335333 -0.0263707 -5.08199e-19)
(0.0844016 -0.0402833 -2.0264e-18)
(0.140225 -0.0491344 -1.3307e-18)
(0.199316 -0.0506908 1.14848e-18)
(0.260233 -0.0443375 2.06797e-18)
(0.324957 -0.0307054 3.12502e-18)
(0.392308 -0.0117138 -1.17014e-18)
(0.46794 0.0076428 6.47765e-19)
(0.549367 0.0253377 1.06511e-18)
(0.64088 0.0322015 1.88876e-18)
(0.738105 0.0296146 8.97137e-19)
(0.836415 0.00885574 1.78706e-18)
(0.927791 -0.0192695 5.3105e-19)
(0.995906 -0.058658 1.87772e-18)
(1.04255 -0.0875427 -1.93692e-18)
(1.05409 -0.117218 2.16351e-18)
(1.06141 -0.122989 7.73976e-20)
(-0.0442162 0.0609963 -3.77297e-19)
(-0.0725675 0.0632132 -1.10369e-18)
(-0.0925917 0.059624 -1.39596e-18)
(-0.091454 0.0454196 8.83395e-19)
(-0.078013 0.0363748 3.46256e-18)
(-0.0543106 0.0226049 -7.1515e-19)
(-0.0187412 0.00835146 -9.78818e-19)
(0.0258849 -0.00809797 -1.46617e-18)
(0.0801498 -0.0241111 -1.06021e-18)
(0.141058 -0.0375295 -8.22348e-20)
(0.206745 -0.0457931 -3.70624e-19)
(0.274969 -0.0468086 -3.19545e-18)
(0.344106 -0.040192 -1.91917e-18)
(0.415624 -0.026862 4.01826e-19)
(0.488745 -0.00878391 8.67148e-19)
(0.568203 0.0088956 -1.59906e-18)
(0.651875 0.0244771 -1.91755e-18)
(0.742708 0.0292466 -1.27606e-18)
(0.835759 0.0251624 3.01279e-19)
(0.925071 0.00443463 -1.34083e-18)
(1.00196 -0.0216828 -1.46982e-18)
(1.05384 -0.0574337 -3.49812e-18)
(1.08349 -0.0823452 1.04125e-18)
(1.08448 -0.108642 -8.65984e-19)
(1.08056 -0.112497 4.59213e-19)
(-0.0457679 0.063645 1.1312e-18)
(-0.0715181 0.0656991 1.00773e-18)
(-0.087803 0.0621051 1.70356e-18)
(-0.081934 0.0471761 -1.41961e-18)
(-0.0626109 0.0380454 -4.28227e-18)
(-0.0318452 0.0241409 -2.92197e-18)
(0.0121203 0.0100063 9.7634e-19)
(0.0663362 -0.00617981 1.40887e-19)
(0.130974 -0.0217232 3.90924e-18)
(0.202407 -0.0344585 1.4616e-18)
(0.27804 -0.0419214 9.27508e-19)
(0.354974 -0.0422211 3.34056e-18)
(0.431456 -0.0351834 -1.03176e-18)
(0.508381 -0.022077 -1.47961e-18)
(0.585487 -0.00485789 9.5664e-19)
(0.666399 0.0112079 1.11326e-18)
(0.749479 0.0247466 7.98983e-19)
(0.836052 0.0275778 7.02588e-19)
(0.921018 0.0222738 -5.5125e-19)
(0.997501 0.00187678 3.60369e-19)
(1.0581 -0.0221396 1.36198e-18)
(1.09397 -0.0544852 3.9232e-18)
(1.1096 -0.0760419 -2.10542e-18)
(1.10266 -0.0996007 7.37228e-19)
(1.09146 -0.102257 -8.61381e-19)
(-0.047413 0.0660838 -1.67205e-18)
(-0.0704062 0.0679038 1.32227e-18)
(-0.0826769 0.0643253 1.88287e-18)
(-0.0716782 0.0486786 9.72575e-20)
(-0.045933 0.0394829 1.35027e-18)
(-0.00741218 0.0254906 1.07164e-18)
(0.0457471 0.0115484 -3.1498e-18)
(0.110358 -0.00424752 2.01006e-18)
(0.185974 -0.0191478 -3.4555e-18)
(0.268122 -0.0309997 -1.21781e-18)
(0.353318 -0.0374653 6.61793e-20)
(0.43797 -0.0369221 2.03047e-18)
(0.520239 -0.029398 2.93908e-18)
(0.600548 -0.0165251 -5.92078e-19)
(0.679165 -0.000227241 1.36431e-18)
(0.758681 0.0142159 7.3379e-19)
(0.83794 0.0257209 7.0289e-19)
(0.916831 0.0267694 2.73512e-19)
(0.99051 0.0204774 -6.32211e-19)
(1.05222 0.000634948 -1.26504e-18)
(1.0969 -0.0213161 -2.11222e-18)
(1.11903 -0.0505966 8.0159e-19)
(1.12427 -0.0693462 2.84507e-18)
(1.1122 -0.0907035 1.32487e-18)
(1.09697 -0.0926082 -7.93159e-19)
(-0.0491499 0.0683063 9.00023e-19)
(-0.0692311 0.0698099 -1.22138e-18)
(-0.0772038 0.0662659 -3.01113e-18)
(-0.0606523 0.0499107 2.40215e-19)
(-0.0279054 0.0406763 1.33997e-18)
(0.0191127 0.0266584 -7.12308e-19)
(0.0822869 0.0130056 4.86903e-19)
(0.158041 -0.00224452 1.33347e-18)
(0.245028 -0.0163044 -1.05439e-18)
(0.337682 -0.0270715 5.73754e-18)
(0.431494 -0.032383 -3.13395e-19)
(0.522244 -0.0309383 -1.23249e-18)
(0.608092 -0.0229761 -1.9492e-18)
(0.689241 -0.0104447 -7.10738e-20)
(0.766467 0.00476296 -1.74981e-18)
(0.841613 0.0175132 -1.24142e-18)
(0.913997 0.026963 -7.14726e-19)
(0.982564 0.026389 -4.55873e-20)
(1.04323 0.0193166 -9.70154e-19)
(1.09029 0.000195186 2.03985e-18)
(1.12117 -0.0197854 -2.93248e-18)
(1.13273 -0.0463514 9.82518e-19)
(1.13104 -0.0627309 -1.14065e-18)
(1.11619 -0.0822925 1.88807e-19)
(1.09922 -0.0836969 1.69964e-18)
(-0.050977 0.070307 -1.22862e-18)
(-0.0679907 0.0714005 5.76163e-19)
(-0.0713692 0.0679083 1.2937e-18)
(-0.0488089 0.050859 -3.63063e-19)
(-0.00843166 0.0416207 1.27167e-18)
(0.0478826 0.0276613 2.76244e-18)
(0.121902 0.0144257 3.73263e-19)
(0.209431 -9.01748e-05 -2.62061e-18)
(0.307873 -0.0130939 3.12574e-18)
(0.410315 -0.022592 -4.81973e-18)
(0.511175 -0.026657 -1.29996e-18)
(0.605808 -0.0243413 -1.47404e-18)
(0.692548 -0.0161038 3.27291e-19)
(0.771731 -0.0041094 2.50241e-19)
(0.844646 0.00977453 4.46941e-19)
(0.912786 0.0207376 3.26794e-19)
(0.975989 0.0281294 -3.62838e-20)
(1.03286 0.0261164 2.1917e-19)
(1.08047 0.0184655 3.22412e-18)
(1.11459 0.000195422 1.67995e-18)
(1.13458 -0.0179323 3.81783e-19)
(1.13874 -0.0421017 -1.24229e-18)
(1.13283 -0.0564494 -5.25864e-19)
(1.11689 -0.0745122 -1.11006e-18)
(1.09961 -0.0755486 -1.14075e-18)
(-0.0528928 0.072082 7.97855e-19)
(-0.0666812 0.0726593 1.23016e-18)
(-0.0651522 0.0692347 -7.34973e-19)
(-0.0360847 0.0515132 1.17379e-19)
(0.012612 0.0423192 1.93535e-18)
(0.0790806 0.0285328 1.44727e-18)
(0.164759 0.0158808 4.59416e-18)
(0.2645 0.00232015 2.06676e-18)
(0.374055 -0.00940795 -3.77864e-19)
(0.484976 -0.0174954 1.77526e-18)
(0.59071 -0.0203101 3.69604e-18)
(0.686557 -0.0172549 4.07346e-19)
(0.7713 -0.0089997 3.5455e-19)
(0.845795 0.00220435 8.90516e-19)
(0.911898 0.0145246 -1.28475e-18)
(0.971153 0.0236306 1.0746e-19)
(1.02397 0.0290213 -9.20954e-19)
(1.06913 0.0257882 -2.49989e-18)
(1.10497 0.0177571 -1.0634e-18)
(1.12862 0.00043742 1.07411e-18)
(1.14061 -0.0159698 8.69813e-19)
(1.13997 -0.0380201 2.43724e-18)
(1.13177 -0.0506045 -1.61833e-18)
(1.11579 -0.0673895 3.49979e-19)
(1.099 -0.0681276 3.49665e-19)
(-0.0548953 0.0736284 -1.26138e-19)
(-0.065296 0.0735706 -2.7277e-18)
(-0.0585238 0.0702281 8.30275e-19)
(-0.0223962 0.0518676 9.62731e-19)
(0.0353809 0.0427869 -4.4089e-18)
(0.112917 0.0293266 1.33246e-18)
(0.210998 0.0174697 -5.29512e-19)
(0.323092 0.00510988 3.76665e-18)
(0.442881 -0.0051448 -2.16683e-18)
(0.560343 -0.0117537 -5.97653e-18)
(0.668291 -0.0134183 2.7711e-20)
(0.762465 -0.00985256 -1.21509e-18)
(0.84246 -0.00189557 -1.75174e-18)
(0.909988 0.00825225 -1.21407e-18)
(0.967536 0.0188176 2.11317e-19)
(1.017 0.0260603 -4.61626e-19)
(1.05938 0.0295807 3.65594e-19)
(1.09388 0.0253743 1.45093e-18)
(1.11993 0.0171427 7.00387e-19)
(1.13564 0.000837526 -3.24108e-18)
(1.14204 -0.0139978 -1.07195e-19)
(1.13848 -0.0341696 -2.61739e-18)
(1.12921 -0.0452142 8.07765e-19)
(1.11379 -0.0608933 3.70627e-19)
(1.09788 -0.0613721 -1.06945e-18)
(-0.0569828 0.0749443 -1.36321e-18)
(-0.0638255 0.0741196 9.40069e-19)
(-0.051445 0.0708725 3.25473e-19)
(-0.007636 0.0519231 -9.56797e-19)
(0.0600655 0.0430536 3.96202e-18)
(0.14962 0.030121 -3.3098e-18)
(0.260704 0.0193162 -4.30848e-18)
(0.384865 0.00840851 -2.74464e-18)
(0.513385 -0.000230192 2.61559e-18)
(0.634883 -0.00539419 5.10368e-18)
(0.742108 -0.00611434 8.74751e-19)
(0.831813 -0.00234077 3.49246e-18)
(0.904768 0.00499081 2.76952e-18)
(0.963751 0.0138512 4.35517e-19)
(1.01191 0.0225566 2.46014e-19)
(1.05163 0.028008 2.63593e-18)
(1.08437 0.0298506 2.65752e-18)
(1.10986 0.0249208 2.53447e-18)
(1.12823 0.0166329 1.50836e-18)
(1.13816 0.00137011 2.12217e-18)
(1.14079 -0.0120565 -5.52835e-19)
(1.13558 -0.030557 1.86352e-18)
(1.12597 -0.0402565 1.53553e-18)
(1.1114 -0.0549691 -2.27836e-19)
(1.09653 -0.0552134 1.11389e-18)
(-0.0591529 0.0760293 9.17253e-19)
(-0.0622561 0.0742926 2.75722e-19)
(-0.0438645 0.0711541 2.38521e-19)
(0.00833159 0.0516893 -2.70257e-18)
(0.0868923 0.0431682 -7.22855e-18)
(0.189415 0.031021 -6.39139e-21)
(0.313848 0.0215627 6.25667e-18)
(0.449236 0.0123311 -2.22199e-18)
(0.584344 0.00536017 4.52826e-18)
(0.706963 0.00149202 4.01743e-19)
(0.810536 0.001423 -2.82179e-18)
(0.893373 0.00506841 -4.98537e-18)
(0.957681 0.0114827 -2.66061e-18)
(1.00735 0.0188947 4.77661e-19)
(1.04613 0.0257333 2.03721e-18)
(1.07686 0.0295335 2.60147e-20)
(1.10131 0.0299234 5.56869e-19)
(1.11957 0.0244982 -1.37565e-18)
(1.13214 0.016254 -2.26741e-18)
(1.13796 0.00203034 -2.35579e-19)
(1.13812 -0.010159 -1.24479e-18)
(1.13205 -0.0271641 4.87196e-19)
(1.1225 -0.0356944 -2.30712e-18)
(1.1089 -0.0495569 -1.82119e-18)
(1.09508 -0.0495847 8.05144e-20)
(-0.061403 0.0768837 -1.0113e-18)
(-0.0605694 0.074077 1.84505e-18)
(-0.0357161 0.0710616 5.94197e-19)
(0.0256745 0.0511866 1.53372e-18)
(0.11612 0.0432033 3.45373e-18)
(0.232493 0.0321579 -1.85525e-18)
(0.370232 0.0243563 -3.85599e-18)
(0.515352 0.0169555 3.32236e-18)
(0.654346 0.0115853 -5.03794e-18)
(0.775019 0.00875541 -2.80845e-18)
(0.872316 0.00899276 3.98108e-19)
(0.946511 0.0121872 3.80868e-18)
(1.00134 0.0174628 3.22475e-18)
(1.04168 0.0233508 -1.53968e-18)
(1.07174 0.0284023 2.88936e-19)
(1.09467 0.0307336 -1.94909e-18)
(1.1123 0.0298993 3.12986e-18)
(1.12498 0.0241687 2.88237e-19)
(1.13328 0.0160265 -1.88647e-18)
(1.13623 0.00281693 1.2017e-18)
(1.13478 -0.00830811 1.6815e-18)
(1.12833 -0.0239644 1.40707e-18)
(1.11904 -0.0314883 1.53949e-18)
(1.10643 -0.0445982 1.99937e-18)
(1.09361 -0.0444246 -8.57659e-19)
(-0.0637297 0.077509 2.33891e-18)
(-0.0587416 0.0734623 1.05199e-18)
(-0.0269148 0.0705865 2.36876e-19)
(0.0445962 0.0504499 5.37187e-18)
(0.148027 0.0432594 1.35038e-18)
(0.278963 0.0336839 -2.50682e-18)
(0.429426 0.0278259 -6.01358e-18)
(0.582107 0.0222999 -7.02975e-18)
(0.721914 0.0183364 -2.02131e-18)
(0.837719 0.0162084 -1.79273e-18)
(0.926665 0.0164009 7.78773e-19)
(0.991176 0.0188737 1.9706e-18)
(1.0364 0.0228767 -1.05986e-18)
(1.06799 0.0272459 5.76728e-18)
(1.09038 0.0306514 -5.80299e-18)
(1.10684 0.03171 2.11982e-19)
(1.11907 0.0298634 -2.49334e-18)
(1.12756 0.0239746 1.55582e-18)
(1.13273 0.0159604 2.36494e-18)
(1.13369 0.00372619 -2.72592e-18)
(1.1312 -0.00650319 -2.07005e-18)
(1.12464 -0.0209302 -3.27526e-18)
(1.11572 -0.0276021 -8.10795e-20)
(1.10405 -0.0400392 -9.68934e-19)
(1.09215 -0.0396787 1.63183e-19)
(-0.0661292 0.0779077 -9.78221e-19)
(-0.0567421 0.0724411 -4.54751e-18)
(-0.0173531 0.0697239 -2.60589e-18)
(0.065337 0.0495328 -6.33621e-18)
(0.182893 0.0434668 6.77972e-19)
(0.328797 0.0357591 -6.58866e-19)
(0.490738 0.0320592 -7.79365e-19)
(0.648213 0.0283114 5.88479e-18)
(0.785668 0.0254509 3.43917e-19)
(0.8941 0.0236534 -1.80414e-18)
(0.973308 0.0234861 -1.45687e-18)
(1.0278 0.0250414 -3.85074e-18)
(1.06389 0.0277234 -4.46727e-18)
(1.08766 0.0306425 -2.811e-18)
(1.10359 0.0325768 -3.62652e-19)
(1.11486 0.0325515 7.36632e-19)
(1.12293 0.0298782 2.19647e-18)
(1.12832 0.0239375 1.66044e-18)
(1.1312 0.0160563 -1.38785e-18)
(1.13078 0.00475078 1.98118e-18)
(1.12763 -0.00474306 2.0941e-18)
(1.12111 -0.0180362 1.35521e-18)
(1.11257 -0.0240043 -1.24314e-19)
(1.10179 -0.0358313 8.756e-21)
(1.09072 -0.0352995 1.58349e-18)
(-0.0685962 0.0780828 -2.23724e-19)
(-0.0545304 0.0710041 -2.76982e-18)
(-0.0068995 0.0684798 3.07948e-19)
(0.0881728 0.0485113 3.93989e-18)
(0.220961 0.0439838 -2.13712e-18)
(0.381769 0.0385312 6.10256e-18)
(0.553221 0.037079 -4.83742e-18)
(0.712323 0.0348697 -2.2453e-18)
(0.844462 0.0327371 4.59681e-18)
(0.943631 0.030911 5.4657e-18)
(1.01242 0.0301338 3.50624e-19)
(1.05715 0.0306571 1.73693e-18)
(1.08494 0.0320397 1.24987e-18)
(1.10201 0.0336181 -3.29817e-18)
(1.11269 0.0342669 -6.30636e-18)
(1.1199 0.0333269 -6.87572e-19)
(1.12483 0.0299849 -3.7981e-19)
(1.12794 0.0240632 -1.20139e-18)
(1.12915 0.0163083 1.88039e-18)
(1.12777 0.00588013 -9.16746e-19)
(1.12418 -0.00302667 -1.54313e-18)
(1.11777 -0.0152602 1.06012e-18)
(1.10963 -0.0206691 -2.48813e-19)
(1.09966 -0.0319302 8.83396e-19)
(1.08932 -0.0312463 3.30094e-19)
(-0.0711249 0.0780379 3.73104e-18)
(-0.052055 0.0691443 6.56278e-18)
(0.0046082 0.066871 2.26116e-18)
(0.113407 0.0474886 1.25515e-18)
(0.262395 0.0449879 5.50613e-18)
(0.437412 0.0421109 -2.81188e-19)
(0.615732 0.0428337 2.71099e-18)
(0.773174 0.0418046 -4.60736e-19)
(0.897494 0.0400033 -4.58633e-18)
(0.986202 0.0378389 -1.59312e-18)
(1.04452 0.0362795 -1.47833e-18)
(1.08016 0.0357286 5.96323e-18)
(1.1007 0.0358836 2.52009e-18)
(1.11221 0.0362521 1.54839e-18)
(1.11874 0.0357955 9.57174e-19)
(1.12285 0.0340854 7.57287e-19)
(1.12544 0.0302071 -6.23203e-20)
(1.12687 0.0243462 -1.83301e-18)
(1.12683 0.0167073 -1.10317e-18)
(1.12478 0.00710109 4.01622e-19)
(1.12089 -0.00135278 2.92237e-18)
(1.11463 -0.0125837 2.90755e-19)
(1.10688 -0.017575 7.73565e-19)
(1.09764 -0.0282956 -2.76593e-18)
(1.08794 -0.0274851 -1.33494e-18)
(-0.0737076 0.077777 -4.04649e-18)
(-0.0492543 0.0668616 -5.51164e-18)
(0.0173688 0.0649248 -5.48813e-18)
(0.141353 0.0465982 -9.81195e-19)
(0.307219 0.0466592 -8.65583e-18)
(0.495001 0.0465458 -5.49245e-19)
(0.677046 0.0492022 -2.89866e-18)
(0.829721 0.0489235 1.61643e-19)
(0.944341 0.0470818 4.7932e-18)
(1.02205 0.0443401 2.34299e-19)
(1.07033 0.0419014 2.36202e-18)
(1.09783 0.040292 -5.64903e-18)
(1.11222 0.0393217 -2.39772e-18)
(1.11925 0.038617 -8.17314e-19)
(1.12258 0.0372201 3.32539e-18)
(1.12434 0.0348601 -1.3174e-18)
(1.1252 0.0305552 -2.71729e-19)
(1.12538 0.024774 4.37066e-18)
(1.12441 0.0172429 -1.37952e-18)
(1.12189 0.00839872 9.75108e-19)
(1.11779 0.000280707 -1.80591e-18)
(1.11169 -0.00999116 -2.26387e-18)
(1.10431 -0.0147045 -2.3304e-18)
(1.09572 -0.0248909 2.48458e-18)
(1.08659 -0.0239884 -2.4502e-18)
(-0.0763353 0.077304 2.5355e-18)
(-0.0460522 0.0641588 3.53422e-18)
(0.0316186 0.0626891 2.47707e-19)
(0.172313 0.046004 -8.16187e-19)
(0.355261 0.0491554 4.41928e-18)
(0.553595 0.0518076 4.25657e-18)
(0.735978 0.0560132 5.53074e-18)
(0.881214 0.0560388 1.73686e-18)
(0.984927 0.0538434 -2.1515e-18)
(1.05168 0.0503619 2.57491e-18)
(1.09068 0.0470104 -4.90781e-19)
(1.1111 0.0443981 3.56472e-18)
(1.12042 0.0424192 -2.15155e-18)
(1.12392 0.0407745 6.00065e-19)
(1.12482 0.0385832 1.69786e-19)
(1.12484 0.0356713 7.58134e-19)
(1.12443 0.0310309 -3.39136e-18)
(1.12366 0.0253311 -3.71451e-18)
(1.12199 0.0179045 7.13998e-19)
(1.11912 0.00975691 -3.06249e-18)
(1.11486 0.00187742 -8.67292e-19)
(1.10893 -0.00747087 4.24883e-20)
(1.1019 -0.0120431 1.78365e-20)
(1.09389 -0.0216818 1.15263e-18)
(1.08527 -0.0207345 3.08938e-18)
(-0.0789967 0.0766225 1.05774e-18)
(-0.0423548 0.0610421 -3.0955e-18)
(0.0476325 0.0602395 2.40153e-18)
(0.206534 0.045894 -1.29565e-18)
(0.406119 0.0525832 2.27755e-18)
(0.612111 0.0577926 -6.07181e-19)
(0.791509 0.0630733 -4.25012e-18)
(0.92723 0.0629892 2.44144e-19)
(1.01947 0.0602015 -5.02373e-19)
(1.07571 0.0558883 -3.01525e-20)
(1.1064 0.0516392 2.18479e-18)
(1.12081 0.0481041 -2.98644e-18)
(1.12605 0.0452362 2.39064e-18)
(1.12684 0.0427749 4.20746e-19)
(1.12593 0.0399144 2.25583e-18)
(1.12466 0.0365304 1.49993e-18)
(1.1233 0.0316292 1.86323e-18)
(1.12182 0.0260007 -4.59745e-19)
(1.11961 0.0186819 2.41224e-18)
(1.11648 0.0111591 1.55506e-18)
(1.11209 0.00344296 9.66542e-19)
(1.10636 -0.00501486 9.7559e-19)
(1.09964 -0.00957785 1.35318e-18)
(1.09213 -0.0186366 -5.40251e-19)
(1.08397 -0.0177075 -2.31039e-18)
(-0.0816781 0.0757356 -1.57342e-18)
(-0.0380482 0.0575235 7.06759e-19)
(0.0657216 0.0576854 4.90039e-18)
(0.244161 0.0464652 5.2406e-18)
(0.45915 0.0569757 -3.52156e-18)
(0.669443 0.0643397 -3.55879e-18)
(0.842867 0.0701943 -3.55132e-19)
(0.967649 0.0696507 -1.22184e-18)
(1.04837 0.0661088 3.53419e-18)
(1.09488 0.06093 3.68264e-19)
(1.11829 0.0558319 1.39657e-18)
(1.12772 0.051467 9.02314e-19)
(1.12973 0.0478249 6.94698e-19)
(1.12847 0.044658 -4.06601e-18)
(1.12623 0.0412338 -3.06336e-18)
(1.12402 0.0374427 -4.44563e-18)
(1.12196 0.0323413 -1.43697e-18)
(1.11991 0.0267669 3.6446e-19)
(1.11729 0.0195649 -3.35777e-18)
(1.11395 0.0125892 -7.86613e-19)
(1.10948 0.00498499 -5.23958e-19)
(1.10393 -0.00261931 -1.28387e-18)
(1.09748 -0.00729636 2.19608e-19)
(1.09044 -0.0157261 -3.51768e-19)
(1.08269 -0.0148971 -1.66007e-19)
(-0.0843633 0.0746447 -1.92847e-18)
(-0.0329948 0.0536227 1.65785e-18)
(0.0862227 0.055177 -1.06739e-19)
(0.285184 0.0478994 -2.75317e-18)
(0.513513 0.0622818 2.70286e-18)
(0.724568 0.0712581 2.47581e-18)
(0.889554 0.077213 -1.0389e-18)
(1.0026 0.0759394 -2.91883e-18)
(1.07219 0.0715502 -1.17433e-18)
(1.10987 0.0655157 -6.40234e-18)
(1.12705 0.059638 -5.26045e-18)
(1.13243 0.0545393 9.2813e-19)
(1.13195 0.0502286 2.59032e-18)
(1.12917 0.046454 2.52718e-18)
(1.12597 0.0425538 -2.83016e-18)
(1.12306 0.0384091 2.43707e-18)
(1.12048 0.0331558 9.15815e-19)
(1.11798 0.0276155 6.44942e-20)
(1.11505 0.0205434 2.3633e-18)
(1.11153 0.0140323 -5.27619e-19)
(1.107 0.0065129 -2.35765e-19)
(1.10164 -0.000284729 1.32208e-18)
(1.09543 -0.00518511 -4.92393e-19)
(1.0888 -0.0129234 2.09301e-18)
(1.08143 -0.0122988 -1.66741e-18)
(-0.0870326 0.0733493 7.53124e-19)
(-0.0270296 0.0493701 -3.88102e-18)
(0.109479 0.0529084 -4.69577e-18)
(0.329393 0.0503338 -3.49313e-18)
(0.568242 0.0683756 4.06822e-18)
(0.776642 0.0783548 -3.02287e-18)
(0.93134 0.0840019 4.83279e-18)
(1.03238 0.0818073 3.40062e-18)
(1.09149 0.0765342 -9.74394e-19)
(1.12136 0.0696844 1.034e-18)
(1.1333 0.0631072 3.25381e-18)
(1.13545 0.0573683 -6.21964e-19)
(1.13307 0.052483 -8.09848e-19)
(1.12919 0.0481857 -4.66591e-19)
(1.12531 0.043881 1.15379e-18)
(1.12189 0.0394282 -3.14715e-18)
(1.11891 0.0340605 -1.94441e-18)
(1.11605 0.0285343 2.30866e-18)
(1.11288 0.021607 -7.42183e-19)
(1.10921 0.0154756 -2.87937e-19)
(1.10466 0.00803708 1.5434e-18)
(1.09945 0.00198446 -7.15385e-19)
(1.09346 -0.00322834 -2.02049e-18)
(1.08722 -0.0102059 -1.79712e-18)
(1.08019 -0.00991394 2.82336e-18)
(-0.0896627 0.0718462 9.21824e-20)
(-0.0199568 0.0448115 1.11137e-18)
(0.135807 0.0511125 1.49707e-18)
(0.376364 0.0538328 5.78135e-18)
(0.622346 0.075079 -6.45095e-18)
(0.825041 0.0854568 2.33216e-18)
(0.968219 0.0904714 -2.97938e-18)
(1.05741 0.0872358 9.25693e-19)
(1.1069 0.0810848 -2.29326e-18)
(1.12995 0.0734795 -1.75156e-18)
(1.13756 0.0662861 -2.79582e-18)
(1.13717 0.0599942 -1.35733e-18)
(1.13339 0.0546168 1.83098e-18)
(1.12873 0.0498692 -2.02128e-18)
(1.12436 0.045219 -1.92017e-18)
(1.12058 0.0404964 5.22573e-18)
(1.11729 0.0350426 4.77898e-18)
(1.11414 0.0295137 -6.02269e-19)
(1.11077 0.0227446 2.73541e-19)
(1.10697 0.0169091 7.80124e-19)
(1.10243 0.00956811 -1.15957e-18)
(1.09736 0.00418063 1.32126e-18)
(1.09157 -0.00140715 1.45073e-18)
(1.08567 -0.00755646 -1.95767e-18)
(1.07897 -0.00774878 -2.46118e-18)
(-0.092226 0.0701283 8.97794e-19)
(-0.0115475 0.0400145 2.29332e-18)
(0.165456 0.0500459 -4.5488e-18)
(0.425463 0.0583732 -3.30819e-18)
(0.674911 0.0821937 3.15859e-18)
(0.869377 0.0924232 3.10636e-18)
(1.00036 0.0965661 4.39006e-18)
(1.07818 0.092228 -3.00098e-18)
(1.11897 0.0852357 1.80755e-18)
(1.13618 0.0769453 1.18284e-18)
(1.14026 0.0692174 -4.24023e-19)
(1.13791 0.0624513 -3.99356e-18)
(1.13311 0.0566525 -6.6459e-18)
(1.12791 0.0515163 -2.84164e-18)
(1.12321 0.0465682 5.03016e-18)
(1.11915 0.0416097 -9.04605e-19)