/*--------------------------------*- C++ -*----------------------------------*\
  =========                 |
  \\      /  F ield         | OpenFOAM: The Open Source CFD Toolbox
   \\    /   O peration     | Website:  https://openfoam.org
    \\  /    A nd           | Version:  7
     \\/     M anipulation  |
\*---------------------------------------------------------------------------*/
FoamFile
{
    version     2.0;
    format      ascii;
    class       volScalarField;
    location    "20";
    object      p;
}
// * * * * * * * * * * * * * * * * * * * * * * * * * * * * * * * * * * * * * //

dimensions      [1 -1 -2 0 0 0 0];

internalField   nonuniform List<scalar> 
2413
(
0.887766
0.902551
0.916907
0.931333
0.945661
0.959687
0.974103
0.988736
1.00445
1.0211
1.03917
1.05785
1.0761
1.09247
1.10519
1.11283
1.11659
1.1155
1.10796
1.09124
1.07376
1.05578
1.0497
1.05367
1.06572
1.08696
1.11233
1.13602
1.15506
1.16616
1.16692
1.15912
1.13632
1.09998
1.05899
1.02275
0.988276
0.953316
0.912185
0.861803
0.822968
0.811188
0.811662
0.82521
0.846515
0.865278
0.881665
0.8998
0.926353
0.96501
1.0134
1.06796
1.12593
1.18367
1.24142
1.29814
1.35503
1.41057
1.45982
1.49491
1.52108
1.54422
1.56619
1.58933
1.6122
1.63431
1.65529
1.67553
1.69525
1.71517
1.73551
1.7565
1.77846
1.80139
1.82434
1.8473
1.87091
1.89508
1.92034
1.94749
1.97687
2.00859
2.04527
2.08749
2.13184
2.17923
2.22911
2.27702
0.886448
0.900816
0.91563
0.930552
0.945506
0.960115
0.974744
0.989332
1.00448
1.0198
1.03537
1.05092
1.06574
1.07901
1.0904
1.09968
1.10291
1.101
1.09588
1.08763
1.07837
1.0697
1.0642
1.06466
1.0725
1.08811
1.10986
1.13311
1.15404
1.16802
1.1704
1.16362
1.14277
1.10874
1.06793
1.02847
0.991235
0.954818
0.914216
0.863935
0.819263
0.801071
0.798887
0.806175
0.824734
0.844387
0.864612
0.889139
0.921059
0.962735
1.01294
1.06922
1.12618
1.18442
1.24353
1.29962
1.35289
1.40375
1.44948
1.48678
1.51449
1.53835
1.56139
1.58433
1.60719
1.62942
1.65103
1.67167
1.69164
1.71127
1.73105
1.75115
1.77131
1.79202
1.814
1.8373
1.8619
1.88808
1.91581
1.94496
1.9753
2.00701
2.04127
2.07833
2.1164
2.15914
2.20462
2.25345
0.885409
0.89889
0.913382
0.928594
0.944157
0.959307
0.9746
0.99
1.0061
1.02259
1.03809
1.05209
1.06431
1.07383
1.08011
1.08306
1.08237
1.08024
1.07925
1.08121
1.08394
1.08482
1.08488
1.08426
1.08612
1.09263
1.10494
1.12204
1.1403
1.15473
1.15863
1.15407
1.13795
1.11066
1.07521
1.03402
0.993031
0.954722
0.914233
0.867218
0.820179
0.791942
0.785405
0.786313
0.797107
0.816381
0.838816
0.86886
0.907647
0.954718
1.00913
1.06872
1.12893
1.19
1.24991
1.30905
1.3631
1.41136
1.45365
1.48809
1.51648
1.54145
1.56445
1.58662
1.60803
1.62844
1.64793
1.66697
1.68586
1.70509
1.72499
1.74565
1.76703
1.78929
1.81267
1.83707
1.86254
1.88901
1.91658
1.94515
1.97475
2.00533
2.03823
2.0738
2.10987
2.14971
2.19224
2.23681
0.888113
0.900357
0.913702
0.927389
0.94125
0.955309
0.969712
0.984784
1.00018
1.01556
1.02952
1.04155
1.05126
1.05775
1.06082
1.06097
1.06067
1.06145
1.06649
1.07502
1.08714
1.09757
1.10386
1.1061
1.10453
1.10235
1.10442
1.11261
1.12574
1.13862
1.14549
1.14433
1.13463
1.11475
1.08544
1.04673
1.0027
0.960369
0.916909
0.871607
0.824695
0.786719
0.770326
0.769105
0.772839
0.789224
0.816643
0.848663
0.892792
0.943384
1.00071
1.06337
1.12631
1.1886
1.24942
1.30835
1.36129
1.40766
1.44849
1.48252
1.51124
1.53699
1.56076
1.58311
1.6046
1.62512
1.6449
1.66424
1.6833
1.70225
1.72135
1.74081
1.76071
1.78122
1.80259
1.82498
1.84868
1.8736
1.8998
1.92723
1.95564
1.98482
2.01496
2.04829
2.08306
2.12178
2.16297
2.20721
0.890959
0.903237
0.916038
0.928629
0.940892
0.953926
0.967317
0.980961
0.994091
1.00601
1.0163
1.02452
1.03097
1.0354
1.03852
1.04151
1.04548
1.05041
1.05957
1.07209
1.08749
1.10445
1.11754
1.1244
1.1236
1.11713
1.10972
1.10733
1.11162
1.12009
1.12769
1.13017
1.12563
1.11289
1.08933
1.05581
1.01438
0.968732
0.921113
0.873698
0.827511
0.784774
0.757996
0.752573
0.753406
0.764517
0.796585
0.831208
0.879767
0.936499
0.996996
1.06416
1.12982
1.19414
1.25489
1.31094
1.36195
1.40661
1.44569
1.47961
1.50913
1.53571
1.56021
1.5829
1.60458
1.62509
1.64468
1.66361
1.68195
1.69982
1.71741
1.73498
1.75286
1.7714
1.79095
1.81166
1.83387
1.85748
1.88243
1.90871
1.93607
1.96464
1.99361
2.02646
2.06091
2.09783
2.13664
2.17744
0.894107
0.904325
0.914333
0.924833
0.935673
0.947119
0.958407
0.969437
0.978784
0.986385
0.992821
0.998599
1.0044
1.01021
1.01713
1.02527
1.03487
1.0458
1.0587
1.07302
1.08884
1.10564
1.12251
1.13504
1.13878
1.13314
1.12081
1.10899
1.10294
1.10343
1.10803
1.11119
1.11046
1.10211
1.08553
1.05787
1.02185
0.977802
0.928249
0.878348
0.830936
0.787217
0.756702
0.744348
0.742281
0.751313
0.780461
0.816153
0.864904
0.926171
0.990328
1.0607
1.12881
1.19405
1.25424
1.30952
1.35849
1.40171
1.43994
1.47358
1.50329
1.53027
1.55526
1.57863
1.60097
1.62218
1.64244
1.6617
1.67986
1.69691
1.71294
1.72835
1.74366
1.75945
1.7763
1.79449
1.81416
1.83525
1.8577
1.88155
1.9063
1.93209
1.96088
1.99143
2.02325
2.05745
2.09527
2.13437
0.897676
0.904932
0.912466
0.920409
0.928504
0.936442
0.943546
0.949522
0.953984
0.958127
0.963307
0.970274
0.979288
0.989812
1.00228
1.01517
1.02814
1.04221
1.05726
1.07253
1.0891
1.10611
1.12275
1.13704
1.1464
1.14565
1.13457
1.11753
1.10136
1.09188
1.08974
1.09025
1.08972
1.08436
1.07281
1.0535
1.02513
0.988542
0.942124
0.89017
0.841651
0.797718
0.764648
0.747445
0.742109
0.751179
0.776032
0.811487
0.86099
0.923127
0.991275
1.06339
1.13276
1.19809
1.25842
1.31298
1.35894
1.39982
1.43656
1.46867
1.49741
1.52372
1.5483
1.57184
1.59465
1.61671
1.63804
1.65828
1.67702
1.69408
1.70931
1.72317
1.7362
1.7492
1.7628
1.7775
1.79356
1.81091
1.82997
1.8506
1.87121
1.8984
1.92413
1.95269
1.98272
2.01597
2.05034
2.08457
0.895515
0.899034
0.90319
0.907621
0.91202
0.915698
0.918416
0.920582
0.923432
0.928248
0.93584
0.945975
0.959463
0.975274
0.991757
1.0083
1.02408
1.03968
1.05531
1.07095
1.08781
1.10516
1.12165
1.13674
1.14785
1.15158
1.1457
1.12965
1.10825
1.08917
1.07695
1.07207
1.06878
1.0646
1.05603
1.04054
1.01911
0.990975
0.95216
0.906758
0.86192
0.820364
0.788884
0.770949
0.763349
0.769414
0.786762
0.817051
0.863803
0.923987
0.994454
1.06858
1.14048
1.20715
1.26717
1.31993
1.36568
1.4046
1.43822
1.46762
1.49379
1.51767
1.54024
1.56228
1.58412
1.60577
1.62712
1.64757
1.66655
1.68375
1.69877
1.71219
1.72408
1.73554
1.74686
1.75872
1.77107
1.78477
1.80024
1.81723
1.83727
1.85982
1.88325
1.90954
1.93821
1.96835
2.00036
2.03314
0.890955
0.890284
0.889588
0.889012
0.888666
0.888565
0.889092
0.891275
0.896069
0.90361
0.913721
0.926482
0.942241
0.960442
0.979789
0.998991
1.01746
1.03578
1.05331
1.07001
1.08646
1.1027
1.11964
1.1352
1.14659
1.15294
1.15082
1.14008
1.1199
1.09587
1.07475
1.06139
1.05261
1.04573
1.03863
1.02804
1.01052
0.987184
0.957483
0.922228
0.884512
0.850934
0.826275
0.812435
0.806207
0.807864
0.815953
0.837415
0.875643
0.930627
1.00248
1.07893
1.15287
1.22087
1.2806
1.33204
1.37623
1.41354
1.44494
1.47153
1.49444
1.51489
1.53409
1.55302
1.57221
1.59187
1.61187
1.63168
1.65067
1.66789
1.68296
1.69606
1.70772
1.71829
1.72845
1.739
1.74877
1.75959
1.771
1.78606
1.80381
1.82371
1.84527
1.8698
1.89552
1.92315
1.9524
1.98549
0.877245
0.871285
0.866463
0.862668
0.860119
0.859477
0.861464
0.866535
0.87442
0.884134
0.89593
0.909879
0.926323
0.945283
0.966033
0.987478
1.00879
1.02908
1.048
1.06615
1.08352
1.10021
1.11598
1.13074
1.14357
1.15131
1.15277
1.14611
1.13054
1.107
1.08167
1.06063
1.04613
1.036
1.0266
1.01541
1.00046
0.981591
0.957602
0.930637
0.903949
0.881618
0.868702
0.86662
0.868047
0.865647
0.861677
0.868896
0.891946
0.937371
1.00648
1.08509
1.16301
1.2338
1.2943
1.34491
1.38744
1.42313
1.45291
1.47751
1.49777
1.51504
1.53061
1.54567
1.56111
1.57723
1.59392
1.61103
1.62807
1.64384
1.65828
1.67132
1.68289
1.69285
1.70312
1.71372
1.72101
1.72939
1.7407
1.75232
1.76739
1.78618
1.80663
1.82907
1.8526
1.87805
1.90886
1.94517
0.852321
0.843921
0.838624
0.836161
0.836188
0.838614
0.843699
0.850905
0.859933
0.870464
0.882483
0.896264
0.912202
0.930606
0.951369
0.973726
0.996743
1.01944
1.04137
1.06141
1.07968
1.09628
1.1117
1.12545
1.138
1.14678
1.15054
1.1491
1.13811
1.11771
1.09136
1.06675
1.04819
1.03429
1.02269
1.01121
0.997693
0.980651
0.961518
0.940543
0.923087
0.912361
0.914809
0.931386
0.942346
0.936127
0.921907
0.914842
0.921142
0.950637
1.01184
1.0906
1.17234
1.24546
1.30663
1.35705
1.39852
1.4325
1.4601
1.48248
1.50064
1.51543
1.52807
1.53987
1.55178
1.5642
1.57705
1.59034
1.60345
1.61634
1.62867
1.64024
1.65067
1.65976
1.66988
1.68039
1.68672
1.69335
1.70533
1.71544
1.72951
1.74686
1.76574
1.78723
1.80913
1.83815
1.87217
1.89855
0.82219
0.817671
0.816828
0.818028
0.821351
0.826303
0.83263
0.840143
0.849019
0.859108
0.87049
0.883275
0.897801
0.914844
0.934838
0.957714
0.982553
1.00782
1.03222
1.05483
1.07549
1.09327
1.10803
1.12014
1.13155
1.14046
1.14591
1.14809
1.14228
1.12691
1.10323
1.07659
1.05357
1.03685
1.02441
1.01294
1.00052
0.985925
0.970372
0.956283
0.946936
0.946347
0.967228
1.00556
1.02228
1.01092
0.987843
0.969303
0.963304
0.975254
1.02023
1.09308
1.17473
1.25081
1.31311
1.36242
1.40193
1.43403
1.45998
1.48052
1.49658
1.50914
1.51952
1.52896
1.53829
1.54787
1.55794
1.56807
1.57825
1.58838
1.59807
1.60714
1.61526
1.62299
1.63187
1.64112
1.64676
1.65309
1.666
1.67593
1.68862
1.70437
1.72054
1.7405
1.76077
1.78806
1.81246
1.84175
0.797863
0.798999
0.802454
0.807124
0.812569
0.818711
0.824969
0.83213
0.840381
0.849637
0.859997
0.871599
0.884714
0.899924
0.918279
0.940482
0.966171
0.993917
1.02159
1.04723
1.06981
1.08921
1.10431
1.11559
1.12567
1.13492
1.14163
1.14561
1.14409
1.13378
1.11426
1.0887
1.06401
1.04367
1.02807
1.0161
1.0051
0.993977
0.983001
0.975666
0.973018
0.981867
1.02117
1.07302
1.09231
1.0808
1.05383
1.02787
1.01436
1.01623
1.04236
1.10201
1.17504
1.2476
1.31131
1.36181
1.40077
1.43109
1.45495
1.47362
1.48791
1.49884
1.50778
1.51594
1.52406
1.53235
1.5407
1.54862
1.55618
1.56369
1.57065
1.57714
1.58257
1.58846
1.5957
1.60327
1.60766
1.61419
1.62558
1.63511
1.64654
1.65967
1.67335
1.68697
1.71094
1.73182
1.75247
1.77956
0.781435
0.786834
0.793563
0.800528
0.807279
0.813847
0.819681
0.825833
0.832857
0.84079
0.849858
0.860303
0.87247
0.886541
0.90327
0.923882
0.948979
0.977598
1.00749
1.03623
1.06171
1.08316
1.09955
1.11117
1.12141
1.13049
1.13874
1.14377
1.14512
1.13955
1.12486
1.10159
1.07531
1.05172
1.0338
1.02081
1.01016
1.00119
0.994729
0.992564
0.999416
1.02651
1.08429
1.13064
1.14395
1.13452
1.10964
1.08351
1.06767
1.06553
1.07996
1.123
1.1837
1.24499
1.30309
1.35346
1.39318
1.42311
1.44538
1.4618
1.4739
1.4831
1.49089
1.49837
1.50612
1.51415
1.52193
1.52864
1.53464
1.54028
1.54504
1.54937
1.55303
1.55673
1.56279
1.56869
1.5717
1.57912
1.58737
1.59622
1.60647
1.61613
1.62657
1.6391
1.65602
1.66892
1.687
1.70326
0.770075
0.778636
0.787308
0.795223
0.802295
0.80887
0.81455
0.819922
0.826127
0.833213
0.841378
0.850881
0.862077
0.875155
0.890582
0.909351
0.932785
0.960934
0.991894
1.02269
1.05054
1.07422
1.09261
1.10621
1.11795
1.12811
1.13775
1.14489
1.14771
1.14529
1.13428
1.11452
1.08929
1.06406
1.04281
1.02643
1.01536
1.00911
1.00756
1.01192
1.02867
1.07245
1.1309
1.16818
1.17976
1.17322
1.15545
1.13397
1.12011
1.11775
1.1261
1.15527
1.20092
1.24862
1.29682
1.34203
1.38041
1.41021
1.4318
1.44672
1.45711
1.46492
1.47186
1.47906
1.48691
1.4952
1.50287
1.50894
1.51425
1.51895
1.52235
1.52509
1.52811
1.52969
1.53475
1.53894
1.54199
1.5486
1.55433
1.56137
1.56957
1.5748
1.58021
1.59065
1.59904
1.60399
1.61511
1.62593
0.762325
0.77237
0.781585
0.789645
0.796709
0.803185
0.808981
0.814057
0.81985
0.826435
0.83399
0.842825
0.853467
0.866161
0.881179
0.898872
0.920514
0.946861
0.976686
1.00741
1.03637
1.06195
1.08284
1.09963
1.11416
1.12737
1.13833
1.14839
1.15359
1.15311
1.14469
1.12667
1.10133
1.07469
1.05181
1.03492
1.02552
1.0227
1.02608
1.03763
1.06389
1.11215
1.16228
1.19319
1.20568
1.20486
1.19623
1.18352
1.17412
1.17299
1.1794
1.19738
1.22704
1.25882
1.29256
1.32822
1.36181
1.39017
1.41185
1.42698
1.43715
1.44453
1.45116
1.45847
1.4667
1.47546
1.48312
1.48854
1.49329
1.49778
1.50091
1.5033
1.50613
1.50783
1.51104
1.5142
1.51717
1.5229
1.52683
1.53116
1.5351
1.53749
1.53905
1.54233
1.54099
1.54084
1.54195
1.54495
0.755421
0.765404
0.77437
0.782255
0.789284
0.795964
0.802334
0.807771
0.813784
0.820431
0.827892
0.836546
0.847035
0.85961
0.874529
0.891596
0.91162
0.93541
0.962382
0.990918
1.0191
1.04548
1.06898
1.0899
1.10864
1.12598
1.14085
1.15321
1.16244
1.16361
1.15776
1.14247
1.11836
1.0904
1.06515
1.04685
1.03778
1.03661
1.0446
1.06305
1.09759
1.14087
1.1787
1.20517
1.22135
1.22859
1.22995
1.22809
1.22695
1.22946
1.23718
1.24915
1.26475
1.27933
1.29331
1.31467
1.33972
1.36373
1.38363
1.39909
1.41083
1.42003
1.42834
1.43707
1.44639
1.45587
1.46389
1.46864
1.47262
1.47724
1.48063
1.48343
1.48559
1.48956
1.49191
1.49509
1.49758
1.50185
1.50405
1.50644
1.50497
1.50406
1.50076
1.49687
1.48769
1.48085
1.47397
1.46642
0.746936
0.756153
0.764713
0.772672
0.78016
0.78754
0.794956
0.801213
0.807908
0.814939
0.822581
0.831211
0.841465
0.853756
0.868579
0.885604
0.904709
0.926513
0.950536
0.975895
1.00168
1.02728
1.05239
1.07707
1.1005
1.12229
1.14213
1.15804
1.17172
1.17625
1.17142
1.15839
1.13506
1.10698
1.08157
1.06398
1.0567
1.05846
1.07056
1.09508
1.12953
1.16185
1.18879
1.21103
1.22957
1.24367
1.25512
1.26393
1.27303
1.28279
1.29395
1.30555
1.31347
1.31301
1.30517
1.30392
1.31517
1.3322
1.34865
1.36317
1.376
1.38799
1.39982
1.41168
1.42343
1.43435
1.4434
1.4487
1.45252
1.45731
1.46156
1.46521
1.46895
1.47268
1.47594
1.47847
1.47929
1.48148
1.48367
1.48232
1.4791
1.47296
1.46501
1.45615
1.44159
1.42904
1.41451
1.39929
0.738031
0.746516
0.754677
0.762603
0.770268
0.777917
0.785983
0.792989
0.800546
0.808365
0.816719
0.82585
0.836483
0.849166
0.86433
0.881518
0.90039
0.920878
0.942451
0.964508
0.98705
1.0104
1.0351
1.06123
1.08786
1.11416
1.1395
1.16127
1.1779
1.18853
1.18659
1.17594
1.15443
1.12632
1.10127
1.08493
1.0795
1.0852
1.10187
1.13067
1.15971
1.18164
1.19991
1.21798
1.23758
1.25791
1.27734
1.29439
1.3114
1.32818
1.34424
1.35836
1.36508
1.35672
1.33111
1.3021
1.2918
1.29984
1.31193
1.32449
1.33647
1.34823
1.36114
1.37494
1.38872
1.40154
1.4124
1.41995
1.42562
1.4313
1.43606
1.43993
1.44542
1.45024
1.45381
1.45716
1.45938
1.46242
1.46168
1.45828
1.45475
1.44507
1.43381
1.42078
1.40354
1.38653
1.36706
1.34768
0.731536
0.739211
0.746778
0.754349
0.761969
0.769878
0.778357
0.786199
0.794715
0.80339
0.812498
0.822281
0.83347
0.846512
0.861611
0.878649
0.897263
0.916995
0.936617
0.956269
0.976147
0.996946
1.01979
1.04512
1.07293
1.10238
1.13187
1.1594
1.18144
1.19795
1.20067
1.19272
1.17418
1.14738
1.12359
1.10979
1.10797
1.11794
1.1407
1.16902
1.19122
1.20564
1.21688
1.22924
1.24635
1.2696
1.29428
1.31801
1.3412
1.36282
1.38363
1.40024
1.40931
1.40114
1.36587
1.31448
1.27495
1.26723
1.27435
1.28444
1.29584
1.30831
1.32146
1.33573
1.35038
1.36406
1.37593
1.38601
1.39477
1.40261
1.40963
1.41739
1.424
1.42926
1.43371
1.43677
1.43919
1.44099
1.43927
1.43635
1.4303
1.41935
1.40818
1.39158
1.37406
1.35537
1.33599
1.31547
0.728253
0.735342
0.742374
0.749573
0.75704
0.764993
0.773393
0.781624
0.790509
0.799517
0.809254
0.819795
0.831689
0.845295
0.860614
0.877686
0.896099
0.914914
0.932871
0.950379
0.968252
0.987142
1.00797
1.03147
1.05854
1.08869
1.12076
1.15301
1.18124
1.2022
1.2117
1.20797
1.19301
1.16901
1.14674
1.13618
1.13934
1.15675
1.18398
1.2093
1.22642
1.23649
1.24353
1.25107
1.26427
1.28641
1.31258
1.3402
1.3672
1.39133
1.41413
1.43212
1.44241
1.43688
1.40367
1.33985
1.27574
1.24258
1.24174
1.24841
1.25895
1.27036
1.282
1.29516
1.30934
1.32372
1.3372
1.34953
1.36136
1.37151
1.38165
1.39082
1.39836
1.40475
1.41015
1.414
1.41744
1.41869
1.41744
1.4147
1.40771
1.39753
1.38771
1.37049
1.35332
1.33306
1.31472
1.29632
0.726618
0.733263
0.740013
0.747055
0.754392
0.76231
0.77067
0.779253
0.788538
0.798098
0.808504
0.819833
0.832491
0.84673
0.862455
0.87965
0.897717
0.915508
0.93206
0.947911
0.963991
0.981307
1.00057
1.02263
1.04819
1.07724
1.10969
1.14435
1.17691
1.2024
1.21808
1.2203
1.20949
1.18925
1.16844
1.16135
1.17138
1.19609
1.2255
1.24925
1.26526
1.27515
1.28175
1.28737
1.29665
1.31359
1.33471
1.35911
1.38373
1.40735
1.4299
1.44874
1.46144
1.46165
1.43627
1.37773
1.29633
1.23414
1.21584
1.21798
1.22613
1.23671
1.247
1.25889
1.27165
1.28459
1.29858
1.31234
1.32566
1.33844
1.35008
1.36069
1.36944
1.37721
1.38357
1.38951
1.3941
1.39651
1.39698
1.39541
1.38923
1.38043
1.37071
1.35517
1.34032
1.32296
1.30994
1.29789
0.727232
0.733417
0.739785
0.746623
0.754014
0.762191
0.770827
0.779769
0.789473
0.799468
0.810429
0.822456
0.8359
0.850954
0.867344
0.885008
0.903151
0.920383
0.935951
0.950469
0.964876
0.980454
0.99823
1.01902
1.04304
1.07065
1.10215
1.13693
1.17142
1.20006
1.21953
1.22656
1.22004
1.20362
1.18552
1.18285
1.20028
1.23011
1.26086
1.28534
1.3029
1.31479
1.32302
1.32961
1.33746
1.34855
1.36201
1.3779
1.39466
1.41439
1.4346
1.45353
1.46761
1.47239
1.45839
1.41484
1.33142
1.24628
1.20111
1.19503
1.19941
1.20883
1.21794
1.2285
1.23988
1.25178
1.26484
1.27833
1.29205
1.30551
1.31846
1.32996
1.34017
1.34963
1.35826
1.3662
1.37234
1.37636
1.37751
1.37659
1.37175
1.36649
1.36023
1.35042
1.33966
1.32607
1.31573
1.30589
0.730368
0.736097
0.742082
0.74868
0.755995
0.764045
0.772954
0.782136
0.792195
0.80262
0.814036
0.826671
0.840817
0.856594
0.873672
0.891782
0.909963
0.92665
0.94151
0.955334
0.969057
0.983679
1.00034
1.0199
1.04251
1.06875
1.09904
1.1329
1.16747
1.19554
1.21524
1.22452
1.22172
1.20831
1.19359
1.19673
1.22023
1.25384
1.28614
1.31242
1.33237
1.3469
1.35785
1.36617
1.37393
1.38291
1.39207
1.40184
1.41244
1.42524
1.43867
1.45333
1.46523
1.47159
1.46802
1.44078
1.37656
1.2776
1.20377
1.17842
1.17884
1.18635
1.19548
1.20594
1.21625
1.22683
1.23845
1.25076
1.26384
1.27719
1.29023
1.30247
1.31493
1.32669
1.33765
1.34725
1.35489
1.3598
1.36242
1.36235
1.36071
1.35864
1.35448
1.34808
1.33974
1.33016
1.32325
1.31695
0.735776
0.741078
0.746722
0.753141
0.76039
0.768293
0.777324
0.786631
0.7969
0.807619
0.819397
0.832576
0.847497
0.864129
0.881935
0.900628
0.918973
0.935141
0.949101
0.961924
0.974518
0.988099
1.0037
1.02217
1.04365
1.0689
1.09812
1.13034
1.16283
1.18834
1.2061
1.21525
1.21415
1.20211
1.19074
1.19918
1.2271
1.26338
1.29741
1.32539
1.34711
1.36335
1.37621
1.38669
1.39514
1.40329
1.41012
1.41619
1.42284
1.43001
1.43779
1.44753
1.45645
1.46365
1.46549
1.45471
1.41551
1.32614
1.22393
1.1719
1.16358
1.16871
1.17778
1.18888
1.19877
1.20846
1.21916
1.23098
1.24334
1.25587
1.26898
1.28301
1.29682
1.30993
1.32191
1.33254
1.34092
1.34694
1.35097
1.35305
1.35461
1.35488
1.35312
1.35075
1.34612
1.34045
1.33566
1.33046
0.742568
0.74754
0.752973
0.759346
0.76664
0.774519
0.783589
0.792939
0.803254
0.814138
0.82616
0.839626
0.854886
0.871849
0.889957
0.908801
0.926942
0.942385
0.955349
0.967074
0.978631
0.991266
1.00593
1.02324
1.04342
1.06743
1.09536
1.1259
1.15614
1.17838
1.19198
1.19911
1.19764
1.18569
1.17667
1.18879
1.21958
1.25642
1.29018
1.31804
1.33992
1.35678
1.37035
1.38272
1.39351
1.40289
1.41058
1.41636
1.42182
1.42704
1.43295
1.43941
1.4462
1.45253
1.45811
1.45832
1.43759
1.37653
1.26869
1.18058
1.15375
1.15564
1.16277
1.17482
1.18597
1.19638
1.20679
1.21787
1.22968
1.24251
1.25646
1.27095
1.2853
1.29914
1.31202
1.32322
1.33229
1.33962
1.34543
1.35012
1.35326
1.3558
1.35658
1.35631
1.35363
1.34995
1.34527
1.34002
0.750146
0.754986
0.76042
0.766959
0.774487
0.782483
0.791557
0.800829
0.810842
0.821383
0.832951
0.845934
0.860314
0.876623
0.894601
0.913582
0.93185
0.947113
0.959603
0.970712
0.981258
0.992285
1.00525
1.02116
1.0403
1.06322
1.08992
1.11901
1.14713
1.16564
1.17364
1.17722
1.17305
1.15905
1.15093
1.16579
1.19886
1.23607
1.26888
1.29543
1.31608
1.3321
1.34567
1.35848
1.37131
1.38318
1.39343
1.40172
1.40926
1.41599
1.42283
1.42947
1.43629
1.44217
1.44842
1.45239
1.44709
1.41687
1.32881
1.2151
1.1551
1.14864
1.15234
1.16393
1.17677
1.18785
1.19836
1.20957
1.22198
1.23559
1.24997
1.26447
1.27896
1.29277
1.30535
1.31643
1.32627
1.33514
1.34239
1.34943
1.3542
1.35978
1.36249
1.36332
1.36209
1.3591
1.35461
1.34852
0.75905
0.763868
0.769421
0.776149
0.783731
0.791584
0.800018
0.808331
0.816965
0.826044
0.836243
0.848352
0.862706
0.879055
0.897033
0.915903
0.933887
0.948745
0.960629
0.971068
0.980963
0.991302
1.00334
1.01796
1.03571
1.05728
1.08261
1.11015
1.13605
1.1508
1.15401
1.15372
1.14552
1.12876
1.12091
1.13729
1.17104
)
;

boundaryField
{
    inlet
    {
        type            fixedValue;
        value           nonuniform 0();
    }
    outlet
    {
        type            zeroGradient;
    }
    bottom
    {
        type            symmetryPlane;
    }
    top
    {
        type            symmetryPlane;
    }
    obstacle
    {
        type            zeroGradient;
    }
    front
    {
        type            empty;
    }
    back
    {
        type            empty;
    }
    procBoundary4to3
    {
        type            processor;
        value           nonuniform List<scalar> 
27
(
0.872899
0.871904
0.872811
0.87684
0.879263
0.884341
0.890878
0.892752
0.891976
0.884775
0.865827
0.834245
0.801656
0.778909
0.763676
0.752933
0.745052
0.73721
0.729228
0.723687
0.721015
0.719911
0.720987
0.724589
0.730474
0.737672
0.745478
)
;
    }
    procBoundary4to5
    {
        type            processor;
        value           nonuniform List<scalar> 
27
(
2.32504
2.30392
2.28348
2.25287
2.21856
2.17306
2.12087
2.06774
2.01853
1.97827
1.92754
1.87597
1.80214
1.72617
1.64547
1.55356
1.46597
1.38986
1.3345
1.30232
1.28956
1.29562
1.30554
1.31798
1.32852
1.33492
1.34097
)
;
    }
    procBoundary4to11
    {
        type            processor;
        value           uniform 0.754602;
    }
    procBoundary4to12
    {
        type            processor;
        value           nonuniform List<scalar> 
89
(
1.20748
1.23857
1.26315
1.28197
1.29685
1.31025
1.32402
1.33863
1.35353
1.3673
1.37933
1.38969
1.39941
1.40866
1.41728
1.42522
1.43195
1.43782
1.44456
1.44907
1.43661
1.38504
1.2767
1.17574
1.14472
1.14516
1.1527
1.1669
1.17992
1.1916
1.20394
1.21735
1.23179
1.24652
1.26154
1.27627
1.29039
1.30352
1.31533
1.32597
1.33588
1.34435
1.35281
1.35834
1.36469
1.36867
1.37035
1.3693
1.36709
1.36195
1.35397
0.764473
0.769015
0.774346
0.780837
0.788099
0.795636
0.803577
0.811334
0.81923
0.827535
0.836923
0.84818
0.861629
0.877483
0.895176
0.913794
0.931567
0.946255
0.957804
0.967821
0.977205
0.986869
0.998133
1.01187
1.02885
1.04969
1.0741
1.10063
1.12493
1.13628
1.13628
1.13328
1.12194
1.1036
1.09719
1.1155
1.20748
1.14983
)
;
    }
}


// ************************************************************************* //
