2 	-9.56759 	-5.01458e-18 	1.01893 	-0.0112885 	1.46821e-21
2 	-8.72694 	-8.05291e-18 	1.02145 	-0.0126228 	-7.37608e-22
2 	-7.90114 	-6.99372e-18 	1.02449 	-0.0152099 	2.32324e-21
2 	-7.08993 	-4.53666e-18 	1.02819 	-0.0159964 	-2.44929e-22
2 	-6.29305 	-2.1116e-18 	1.03334 	-0.0212152 	3.89714e-22
2 	-5.51024 	6.54737e-19 	1.04119 	-0.0231842 	-1.36095e-21
2 	-4.97537 	1.57527e-18 	1.0464 	-0.0276412 	-5.26911e-20
2 	-4.72636 	1.80524e-18 	1.04841 	-0.0251074 	3.81285e-20
2 	-4.48132 	7.5954e-19 	1.05414 	-0.0292555 	2.142e-20
2 	-4.24028 	-1.98432e-19 	1.0564 	-0.0269565 	-1.11777e-19
2 	-4.03372 	-1.88566e-18 	1.06204 	-0.0335341 	-8.29116e-20
2 	-3.79935 	-4.00265e-18 	1.0647 	-0.0309303 	-1.36022e-19
2 	-3.62237 	-1.73472e-18 	1.07218 	-0.0370497 	-5.54936e-20
2 	-3.41748 	-2.22713e-18 	1.07518 	-0.0341751 	-3.98773e-20
2 	-3.23899 	-2.81515e-18 	1.07815 	-0.0310209 	-1.43023e-19
2 	-3.10375 	-1.62886e-18 	1.08612 	-0.0401165 	-7.31143e-20
2 	-2.87636 	-3.1225e-18 	1.0896 	-0.0367203 	1.79614e-19
2 	-2.75613 	-4.16334e-18 	1.09974 	-0.0462086 	1.4184e-20
2 	-2.64488 	-4.51028e-18 	1.1037 	-0.0426945 	4.09571e-19
2 	-2.43934 	-1.85487e-18 	1.10766 	-0.0389748 	-2.77321e-19
2 	-2.32087 	1.6478e-18 	1.11162 	-0.035047 	-1.63409e-19
2 	-2.23181 	1.07406e-18 	1.12321 	-0.0484568 	3.71622e-19
2 	-2.08179 	8.91641e-19 	1.12781 	-0.0442352 	-2.49778e-19
2 	-1.92439 	-2.20418e-19 	1.13235 	-0.0397911 	3.09008e-19
2 	-1.83556 	-1.36575e-18 	1.13674 	-0.0351 	-4.96338e-19
2 	-1.76525 	-1.98842e-18 	1.14983 	-0.0504514 	1.76297e-19
2 	-1.64242 	-1.73472e-18 	1.15321 	-0.0457809 	-2.86552e-20
2 	-1.51488 	-7.38535e-19 	1.15509 	-0.040758 	-1.18577e-19
2 	-1.39472 	-8.45796e-19 	1.15441 	-0.0353125 	-3.44082e-19
2 	-1.31301 	-7.67892e-20 	1.14948 	-0.0293455 	1.47886e-19
2 	-1.25763 	-1.70425e-18 	1.1316 	-0.0481857 	2.47401e-20
2 	-1.17283 	-1.73472e-18 	1.1041 	-0.0407696 	-5.06339e-19
2 	-1.06955 	-1.73472e-18 	1.05952 	-0.0322689 	-3.17776e-20
2 	-0.970532 	-5.4922e-18 	0.991086 	-0.0225543 	6.71213e-19
2 	-0.87522 	-7.65064e-18 	0.89225 	-0.0119089 	-3.98598e-19
2 	-0.783133 	-9.02632e-18 	0.761127 	-0.00147207 	2.9368e-19
2 	-0.693839 	-1.07109e-17 	0.604523 	0.0069787 	-1.92172e-19
2 	-0.606949 	-5.29218e-19 	0.436327 	0.012114 	-3.27499e-19
2 	-0.548396 	3.17165e-19 	0.271161 	0.0137949 	8.52446e-20
2 	-0.506446 	6.99514e-19 	0.123155 	-0.00576282 	1.92987e-19
2 	-0.438991 	-3.46945e-18 	0.00589206 	-0.00633956 	1.96561e-19
2 	-0.357296 	-9.36751e-18 	-0.0938298 	-0.00690418 	-9.17278e-20
2 	-0.276742 	-1.11022e-17 	-0.176053 	-0.00703887 	-1.30346e-19
2 	-0.197059 	-9.71445e-18 	-0.240039 	-0.0064966 	1.21642e-19
2 	-0.117992 	-1.00614e-17 	-0.284392 	-0.00522843 	1.09718e-19
2 	-0.03929 	-1.38778e-17 	-0.307436 	-0.00340081 	-4.56166e-20
2 	0.03929 	-1.76942e-17 	-0.308011 	-0.0013561 	-4.6857e-20
2 	0.117992 	-1.94289e-17 	-0.286128 	0.000480627 	1.04135e-19
2 	0.197059 	-1.94289e-17 	-0.24298 	0.00174734 	9.61888e-20
2 	0.276742 	-1.76942e-17 	-0.180318 	0.00228263 	-1.18283e-19
2 	0.357296 	-1.94289e-17 	-0.099615 	0.00218799 	-1.5807e-19
2 	0.438991 	-2.60209e-17 	-0.00153603 	0.00181687 	2.19184e-19
2 	0.506446 	-3.01898e-17 	0.11412 	0.00166528 	1.8927e-19
2 	0.548396 	-3.30008e-17 	0.254068 	-0.00498919 	8.51725e-20
2 	0.606949 	-3.17542e-17 	0.417834 	-0.00387288 	8.87062e-20
2 	0.693839 	-2.4504e-17 	0.586783 	0.000799778 	-1.78892e-19
2 	0.783133 	-8.73122e-19 	0.745948 	0.00885348 	1.80524e-19
2 	0.87522 	-2.48984e-18 	0.880216 	0.0188351 	-4.95062e-19
2 	0.970532 	-1.37223e-18 	0.981666 	0.02885 	6.25529e-19
2 	1.06955 	0 	1.0519 	0.0377723 	-5.63686e-20
2 	1.17283 	-1.73472e-18 	1.09772 	0.0454304 	-5.2576e-19
2 	1.25763 	-3.49992e-18 	1.12616 	0.052049 	9.35883e-20
2 	1.31301 	-7.77052e-18 	1.14787 	0.03478 	1.3826e-19
2 	1.39472 	-1.17746e-17 	1.15288 	0.0398321 	-1.91352e-19
2 	1.51488 	-1.06265e-17 	1.15363 	0.0444998 	-1.28096e-19
2 	1.64242 	-4.85723e-18 	1.15182 	0.0488666 	-9.75053e-20
2 	1.76525 	2.33536e-18 	1.14851 	0.0529864 	7.03657e-20
2 	1.83556 	6.42748e-18 	1.13706 	0.0374191 	-4.169e-19
2 	1.92439 	8.10626e-18 	1.13247 	0.041748 	2.25339e-19
2 	2.08179 	1.02591e-17 	1.12779 	0.0458817 	-2.52059e-19
2 	2.23181 	1.07221e-17 	1.12309 	0.0498376 	4.3942e-19
2 	2.32087 	1.12958e-17 	1.11211 	0.0360379 	-1.48806e-19
2 	2.43934 	1.02882e-17 	1.108 	0.0398364 	-1.97099e-19
2 	2.64488 	8.67362e-18 	1.10391 	0.0434395 	3.68891e-19
2 	2.75613 	8.75806e-18 	1.09986 	0.046849 	1.8786e-20
2 	2.87636 	3.90084e-18 	1.08991 	0.0371082 	1.43612e-19
2 	3.10375 	3.36358e-18 	1.08635 	0.0404663 	-6.25323e-20
2 	3.23899 	4.6059e-18 	1.07841 	0.0311792 	-1.4235e-19
2 	3.41748 	5.48433e-19 	1.07539 	0.034331 	5.04043e-22
2 	3.62237 	-1.83309e-18 	1.07234 	0.0371994 	-5.16526e-20
2 	3.79935 	-2.87393e-18 	1.06485 	0.0309795 	-1.5544e-19
2 	4.03372 	-5.89806e-18 	1.06216 	0.033591 	-6.56842e-20
2 	4.24028 	4.19272e-19 	1.05649 	0.0269597 	-1.08076e-19
2 	4.48132 	-7.04424e-19 	1.05422 	0.0292686 	3.53497e-21
2 	4.72636 	-3.62345e-19 	1.04847 	0.0250924 	7.51187e-20
2 	4.97537 	-1.80662e-18 	1.04645 	0.0276347 	-4.39282e-20
2 	5.51024 	-4.17665e-18 	1.04123 	0.0231744 	-1.82343e-21
2 	6.29305 	-6.0559e-18 	1.03336 	0.0212053 	-6.26088e-22
2 	7.08993 	-9.02056e-18 	1.02821 	0.0159921 	-1.19628e-21
2 	7.90114 	-8.32667e-18 	1.02451 	0.0152089 	2.67213e-21
2 	8.72694 	-4.51028e-18 	1.02147 	0.012628 	-5.11586e-22
2 	9.56759 	-4.51028e-18 	1.01895 	0.0112968 	2.63138e-21
