/*--------------------------------*- C++ -*----------------------------------*\
  =========                 |
  \\      /  F ield         | OpenFOAM: The Open Source CFD Toolbox
   \\    /   O peration     | Website:  https://openfoam.org
    \\  /    A nd           | Version:  7
     \\/     M anipulation  |
\*---------------------------------------------------------------------------*/
FoamFile
{
    version     2.0;
    format      ascii;
    class       volScalarField;
    location    "5";
    object      p;
}
// * * * * * * * * * * * * * * * * * * * * * * * * * * * * * * * * * * * * * //

dimensions      [0 2 -2 0 0 0 0];

internalField   nonuniform List<scalar> 
385
(
0.00582733
0.00730762
0.0070131
0.00671888
0.00643171
0.00615343
0.00588646
0.00740642
0.00710641
0.00680528
0.00651056
0.00622416
0.00594892
0.00751095
0.00720529
0.00689693
0.00659419
0.00629909
0.00601495
0.00762152
0.0073101
0.00699416
0.00668294
0.00637854
0.00608481
0.00773847
0.0074212
0.00709736
0.0067772
0.00646286
0.00615882
0.00786216
0.00753901
0.00720696
0.00687738
0.00655245
0.00623733
0.00799299
0.00766398
0.00732345
0.00698397
0.00664776
0.00632076
0.00813138
0.00779659
0.00744733
0.00709751
0.0067493
0.00640959
0.00827777
0.00793738
0.0075792
0.00721858
0.00685767
0.00650435
0.00843266
0.00808693
0.00771969
0.00734787
0.00697351
0.00660567
0.00859655
0.00824586
0.0078695
0.0074861
0.00709756
0.00671424
0.00876997
0.00841484
0.00802939
0.00763411
0.00723066
0.00683088
0.00895349
0.0085946
0.00820021
0.00779279
0.00737374
0.0069565
0.0087859
0.00838285
0.00796317
0.00752785
0.00709215
0.00898957
0.0085783
0.00814636
0.00769417
0.00723903
0.00920646
0.00878765
0.00834359
0.00787402
0.00739849
0.0094375
0.00901203
0.0085562
0.00806888
0.00757209
0.00968363
0.00925269
0.00878569
0.00828042
0.00776157
0.00994584
0.00951095
0.00903366
0.00851047
0.00796893
0.0102251
0.00978822
0.0093019
0.00876109
0.00819644
0.0105226
0.010086
0.0095923
0.00903458
0.00844667
0.0108392
0.0104058
0.00990695
0.00933345
0.00872249
0.00572945
0.0056705
0.00560827
0.00555108
0.00549743
0.00544408
0.00538974
0.00533465
0.00527934
0.00522402
0.00516868
0.00578683
0.00572533
0.00566027
0.00560085
0.00554535
0.00549018
0.00543392
0.00537687
0.0053196
0.00526235
0.00520511
0.00584735
0.00578307
0.00571493
0.00565307
0.00559556
0.00553842
0.00548008
0.00542088
0.00536149
0.00530215
0.00524284
0.00591125
0.00584394
0.00577242
0.0057079
0.00564822
0.00558893
0.00552832
0.0054668
0.00540508
0.00534347
0.00528192
0.00597882
0.00590819
0.00583297
0.00576556
0.00570351
0.00564189
0.0055788
0.00551474
0.0054505
0.00538642
0.00532243
0.00605038
0.00597613
0.00589685
0.00582627
0.00576165
0.00569748
0.0056317
0.00556486
0.00549789
0.00543111
0.00536447
0.00612632
0.00604809
0.00596435
0.0058903
0.00582288
0.00575594
0.00568722
0.00561736
0.00554739
0.00547768
0.00540816
0.00620707
0.00612449
0.00603582
0.00595796
0.00588749
0.00581755
0.00574561
0.00567244
0.0055992
0.0055263
0.00545363
0.00629314
0.00620578
0.00611167
0.00602963
0.00595584
0.0058826
0.00580715
0.00573036
0.00565354
0.00557715
0.00550105
0.00638512
0.0062925
0.00619236
0.00610573
0.0060283
0.00595148
0.00587218
0.00579142
0.00571069
0.00563049
0.00555064
0.00648369
0.00638529
0.00627845
0.00618674
0.00610534
0.0060246
0.00594108
0.00585597
0.00577095
0.00568657
0.00560262
0.00658962
0.00648484
0.00637056
0.00627323
0.00618749
0.00610247
0.00601432
0.00592443
0.0058347
0.00574573
0.00565729
0.00670381
0.00659199
0.00646939
0.00636585
0.00627536
0.00618566
0.00609242
0.00599725
0.00590235
0.00580835
0.00571498
0.00682729
0.0067077
0.0065758
0.00646535
0.00636966
0.00627482
0.00617598
0.00607501
0.0059744
0.00587488
0.00577609
0.00696125
0.00683306
0.00669073
0.0065726
0.0064712
0.00637075
0.00626573
0.00615835
0.00605144
0.00594583
0.00584107
0.00710707
0.00696934
0.00681529
0.0066886
0.00658094
0.00647432
0.00636249
0.00624801
0.00613414
0.00602181
0.00591049
0.0072663
0.00711802
0.00695076
0.00681451
0.00669997
0.00658658
0.00646722
0.00634487
0.0062233
0.00610355
0.00598498
0.00744078
0.00728077
0.00709861
0.00695167
0.00682957
0.00670874
0.00658103
0.00644995
0.00631985
0.00619188
0.00606529
0.00763258
0.00745955
0.00726054
0.00710163
0.0069712
0.00684219
0.00670524
0.00656444
0.00642486
0.00628778
0.00615231
0.0078441
0.0076566
0.0074385
0.00726616
0.00712659
0.00698858
0.00684135
0.00668973
0.0065396
0.00639242
0.0062471
0.00807808
0.00787451
0.00763477
0.00744735
0.00729771
0.00714979
0.00699114
0.00682744
0.00666556
0.00650715
0.00635088
0.00833768
0.00811625
0.00785196
0.00764759
0.00748686
0.00732803
0.00715666
0.00697947
0.00680448
0.00663356
0.00646511
0.00629772
0.00838524
0.00809308
0.00786964
0.00769673
0.00752587
0.00734031
0.00714803
0.0069584
0.00677354
0.00659151
0.00641066
0.0075449
0.00733571
0.00712972
0.0069293
0.00673212
0.00653624
0.00667666
)
;

boundaryField
{
    inlet
    {
        type            zeroGradient;
    }
    outlet
    {
        type            fixedValue;
        value           nonuniform 0();
    }
    cylinder
    {
        type            zeroGradient;
    }
    top
    {
        type            symmetryPlane;
    }
    bottom
    {
        type            symmetryPlane;
    }
    defaultFaces
    {
        type            empty;
    }
    procBoundary9to0
    {
        type            processor;
        value           nonuniform List<scalar> 4(0.00760215 0.00770519 0.00781396 0.00792873);
    }
    procBoundary9to1
    {
        type            processor;
        value           nonuniform List<scalar> 
19
(
0.00577133
0.00721427
0.00692507
0.00663741
0.00635735
0.00608663
0.00608663
0.00567501
0.00567501
0.0056184
0.00555875
0.00550362
0.00545167
0.00539999
0.00534741
0.00529414
0.00524063
0.00518708
0.00513349
)
;
    }
    procBoundary9to2
    {
        type            processor;
        value           nonuniform List<scalar> 2(0.00511325 0.00514779);
    }
    procBoundary9to8
    {
        type            processor;
        value           nonuniform List<scalar> 
19
(
0.00804978
0.00817741
0.00831194
0.00845372
0.00860309
0.00876043
0.00892612
0.00910055
0.00928413
0.0091477
0.0091477
0.0093532
0.00957061
0.00980056
0.0100437
0.0103006
0.010572
0.0108583
0.0111602
)
;
    }
    procBoundary9to10
    {
        type            processor;
        value           nonuniform List<scalar> 
24
(
0.00518347
0.00522033
0.00525843
0.00529784
0.00533867
0.00538102
0.00542504
0.00547091
0.00551884
0.00556906
0.00562187
0.00567762
0.00573671
0.00579963
0.00586695
0.00593933
0.00601757
0.00610261
0.00619555
0.00619555
0.00613115
0.00623074
0.00634138
0.00646507
)
;
    }
    procBoundary9to17
    {
        type            processor;
        value           nonuniform List<scalar> 
20
(
0.011176
0.0107492
0.0102481
0.0096605
0.00902719
0.0086265
0.0086265
0.00868539
0.00836159
0.00811674
0.00793043
0.0077463
0.0077463
0.00777369
0.00754555
0.00732125
0.00710347
0.00688937
0.00688937
0.00683455
)
;
    }
}


// ************************************************************************* //
