/*--------------------------------*- C++ -*----------------------------------*\
  =========                 |
  \\      /  F ield         | OpenFOAM: The Open Source CFD Toolbox
   \\    /   O peration     | Website:  https://openfoam.org
    \\  /    A nd           | Version:  7
     \\/     M anipulation  |
\*---------------------------------------------------------------------------*/
FoamFile
{
    version     2.0;
    format      ascii;
    class       volScalarField;
    location    "32";
    object      p;
}
// * * * * * * * * * * * * * * * * * * * * * * * * * * * * * * * * * * * * * //

dimensions      [0 2 -2 0 0 0 0];

internalField   nonuniform List<scalar> 
26800
(
-0.227018
-0.230529
-0.237361
-0.237132
-0.238519
-0.236269
-0.233775
-0.22931
-0.223745
-0.216695
-0.207748
-0.197491
-0.184539
-0.170412
-0.153859
-0.135037
-0.118129
-0.0953872
-0.0783159
-0.0585483
-0.227199
-0.230593
-0.237459
-0.237201
-0.238594
-0.236345
-0.23386
-0.229413
-0.223866
-0.216859
-0.207932
-0.197749
-0.184812
-0.170762
-0.154277
-0.135406
-0.118749
-0.0958271
-0.0790521
-0.059233
-0.227561
-0.23072
-0.237653
-0.237338
-0.23874
-0.236494
-0.234024
-0.229608
-0.224095
-0.217163
-0.208269
-0.198213
-0.185308
-0.171376
-0.155005
-0.136032
-0.119815
-0.0967034
-0.0800964
-0.0605792
-0.228099
-0.230906
-0.237937
-0.237537
-0.23895
-0.236706
-0.234257
-0.229881
-0.224409
-0.217573
-0.208715
-0.198811
-0.185934
-0.172132
-0.155873
-0.136866
-0.12088
-0.097902
-0.0811872
-0.0623289
-0.228808
-0.231145
-0.238304
-0.237789
-0.239214
-0.236969
-0.234541
-0.230209
-0.224779
-0.218042
-0.209215
-0.199472
-0.186586
-0.17286
-0.156734
-0.137669
-0.121773
-0.0992859
-0.0821457
-0.0641113
-0.229683
-0.231431
-0.238742
-0.238082
-0.239518
-0.237266
-0.234857
-0.230565
-0.22517
-0.218517
-0.20971
-0.200034
-0.187191
-0.173382
-0.15745
-0.138301
-0.122243
-0.100652
-0.082976
-0.0656508
-0.230714
-0.231755
-0.239239
-0.238405
-0.239847
-0.237579
-0.235182
-0.230918
-0.225543
-0.218946
-0.210134
-0.200417
-0.187625
-0.173555
-0.15782
-0.138658
-0.122207
-0.101706
-0.0837061
-0.0668784
-0.231894
-0.232108
-0.239782
-0.238742
-0.240183
-0.237887
-0.235491
-0.231234
-0.225866
-0.219244
-0.210402
-0.200512
-0.187762
-0.173282
-0.157652
-0.138623
-0.121695
-0.102248
-0.0842941
-0.0678484
-0.233212
-0.23248
-0.240353
-0.239078
-0.240509
-0.238167
-0.235758
-0.231478
-0.226072
-0.219358
-0.210429
-0.20021
-0.187456
-0.172506
-0.156834
-0.138092
-0.12079
-0.102251
-0.0846711
-0.0686387
-0.234659
-0.23286
-0.240938
-0.239398
-0.240806
-0.238397
-0.235955
-0.231612
-0.226114
-0.219211
-0.210118
-0.199426
-0.18657
-0.171194
-0.155363
-0.137025
-0.119578
-0.101808
-0.0848128
-0.0692896
-0.236224
-0.233239
-0.241519
-0.239684
-0.241057
-0.238558
-0.236047
-0.231591
-0.225929
-0.218721
-0.209369
-0.1981
-0.185028
-0.169336
-0.153332
-0.135464
-0.118142
-0.101062
-0.0847444
-0.0698097
-0.237899
-0.233607
-0.242079
-0.23992
-0.24124
-0.238627
-0.236006
-0.231368
-0.225447
-0.217813
-0.208092
-0.196209
-0.182839
-0.166971
-0.150883
-0.133519
-0.116553
-0.100132
-0.084511
-0.0701987
-0.239673
-0.233955
-0.242603
-0.24009
-0.241344
-0.238573
-0.235791
-0.230887
-0.224596
-0.216426
-0.206235
-0.193769
-0.180085
-0.164185
-0.148164
-0.131318
-0.114869
-0.0990956
-0.084155
-0.0704606
-0.241539
-0.234276
-0.243078
-0.240192
-0.241337
-0.238371
-0.235359
-0.230093
-0.223314
-0.214526
-0.203801
-0.19084
-0.176894
-0.161095
-0.145294
-0.128974
-0.113135
-0.0979965
-0.083707
-0.0706053
-0.243489
-0.234564
-0.243491
-0.240193
-0.241212
-0.237991
-0.234665
-0.228932
-0.22156
-0.212114
-0.200843
-0.187513
-0.173405
-0.157815
-0.142361
-0.126567
-0.111378
-0.0968543
-0.0831865
-0.0706445
-0.245518
-0.234815
-0.2438
-0.240105
-0.240945
-0.2374
-0.233664
-0.227366
-0.219322
-0.209226
-0.197455
-0.183896
-0.169738
-0.154444
-0.139417
-0.124147
-0.109617
-0.0956773
-0.0826051
-0.0705894
-0.247621
-0.235026
-0.244027
-0.239897
-0.24051
-0.236567
-0.232321
-0.225373
-0.21662
-0.205929
-0.193742
-0.180089
-0.165986
-0.151052
-0.136493
-0.121744
-0.10786
-0.094468
-0.0819705
-0.0704488
-0.249796
-0.235198
-0.244163
-0.239554
-0.239879
-0.235463
-0.230613
-0.222957
-0.213506
-0.202305
-0.18981
-0.176176
-0.162215
-0.147686
-0.133604
-0.11937
-0.10611
-0.0932267
-0.0812885
-0.0702293
-0.252043
-0.235356
-0.244176
-0.239067
-0.23903
-0.234066
-0.228533
-0.220143
-0.210046
-0.198437
-0.185746
-0.172223
-0.158468
-0.144372
-0.130756
-0.117035
-0.104365
-0.0919537
-0.0805641
-0.0699346
-0.254362
-0.235505
-0.244053
-0.238429
-0.23795
-0.232362
-0.226093
-0.216976
-0.206315
-0.194403
-0.181621
-0.168274
-0.15477
-0.141123
-0.127949
-0.114739
-0.10262
-0.0906495
-0.0798008
-0.0695663
-0.256756
-0.235636
-0.243789
-0.23764
-0.236633
-0.230341
-0.223317
-0.213508
-0.202384
-0.190268
-0.177484
-0.164358
-0.151137
-0.137942
-0.125184
-0.112482
-0.100869
-0.089316
-0.079
-0.0691248
-0.259228
-0.235759
-0.243368
-0.236715
-0.235078
-0.228004
-0.220242
-0.209802
-0.198317
-0.186084
-0.17337
-0.160493
-0.147576
-0.134826
-0.122459
-0.110262
-0.0991052
-0.0879564
-0.0781606
-0.0686098
-0.26178
-0.235877
-0.242774
-0.235675
-0.23329
-0.22536
-0.216912
-0.205912
-0.194165
-0.181888
-0.1693
-0.156688
-0.14409
-0.131768
-0.119772
-0.108075
-0.0973208
-0.0865747
-0.0772797
-0.0680203
-0.264413
-0.235976
-0.242014
-0.234535
-0.231275
-0.222433
-0.213373
-0.201892
-0.189969
-0.177707
-0.165288
-0.152948
-0.140677
-0.128763
-0.117125
-0.105913
-0.0955106
-0.0851758
-0.0763521
-0.0673535
-0.267124
-0.236021
-0.241118
-0.233287
-0.229042
-0.219253
-0.209669
-0.197784
-0.185761
-0.17356
-0.161338
-0.149272
-0.137334
-0.125805
-0.114517
-0.103768
-0.0936714
-0.0837641
-0.075367
-0.0666016
-0.269896
-0.235966
-0.240134
-0.231901
-0.226609
-0.215855
-0.205838
-0.193623
-0.181562
-0.169458
-0.157452
-0.145662
-0.134057
-0.122887
-0.111948
-0.101629
-0.0918049
-0.0823423
-0.0743022
-0.0657508
-0.272659
-0.235794
-0.239116
-0.230337
-0.223994
-0.212276
-0.201915
-0.189436
-0.177387
-0.165407
-0.153631
-0.142113
-0.130838
-0.120008
-0.109417
-0.0994906
-0.0899193
-0.0809068
-0.0731198
-0.0647862
-0.275368
-0.235483
-0.238091
-0.228566
-0.221216
-0.208551
-0.197927
-0.185243
-0.173247
-0.16141
-0.149871
-0.138625
-0.127673
-0.117165
-0.10692
-0.0973467
-0.0880288
-0.0794454
-0.0717757
-0.0637107
-0.277951
-0.235043
-0.237043
-0.226575
-0.218294
-0.204709
-0.193897
-0.181057
-0.169147
-0.157468
-0.146169
-0.135192
-0.124556
-0.114356
-0.104454
-0.0951982
-0.0861484
-0.077941
-0.0702568
-0.0625632
-0.280278
-0.234553
-0.235906
-0.224372
-0.215245
-0.200778
-0.189841
-0.176888
-0.16509
-0.153579
-0.142522
-0.131811
-0.121482
-0.111581
-0.102012
-0.0930488
-0.084286
-0.0763839
-0.0686336
-0.0614099
-0.28221
-0.234151
-0.234586
-0.221973
-0.212085
-0.196779
-0.185774
-0.172744
-0.161078
-0.149741
-0.138925
-0.128478
-0.118447
-0.108836
-0.0995903
-0.0909037
-0.0824393
-0.0747839
-0.0670718
-0.0602616
-0.283617
-0.234016
-0.232996
-0.219393
-0.208831
-0.192731
-0.181705
-0.168626
-0.157109
-0.145951
-0.135375
-0.125188
-0.115447
-0.106121
-0.0971851
-0.0887665
-0.0805996
-0.073163
-0.0656519
-0.0590744
-0.284398
-0.234354
-0.231091
-0.216644
-0.205496
-0.188647
-0.17764
-0.164537
-0.153182
-0.142204
-0.131869
-0.121939
-0.112478
-0.103431
-0.0947944
-0.0866378
-0.0787616
-0.0715503
-0.0642844
-0.0578708
-0.284493
-0.235357
-0.228883
-0.213733
-0.202094
-0.184538
-0.173583
-0.160476
-0.149294
-0.138499
-0.128403
-0.118726
-0.109539
-0.100765
-0.0924166
-0.084517
-0.076926
-0.0699379
-0.0629409
-0.0567482
-0.283882
-0.237166
-0.226437
-0.210664
-0.198635
-0.180413
-0.169538
-0.156442
-0.145443
-0.134831
-0.124972
-0.115545
-0.106626
-0.0981201
-0.09005
-0.0824038
-0.0750895
-0.068329
-0.0616033
-0.055636
-0.282569
-0.239819
-0.22385
-0.207437
-0.195128
-0.176278
-0.165505
-0.152434
-0.141626
-0.131197
-0.121574
-0.112393
-0.103736
-0.0954938
-0.0876934
-0.0802967
-0.073253
-0.0667162
-0.0602567
-0.0545376
-0.280573
-0.243227
-0.221229
-0.204052
-0.191578
-0.172137
-0.161483
-0.14845
-0.137839
-0.127593
-0.118206
-0.109268
-0.100868
-0.092884
-0.0853453
-0.078195
-0.0714136
-0.0650979
-0.0589021
-0.0534168
-0.277915
-0.247148
-0.218663
-0.200508
-0.187987
-0.167992
-0.157472
-0.144486
-0.134079
-0.124016
-0.114865
-0.106165
-0.0980182
-0.0902885
-0.0830047
-0.0760972
-0.0695712
-0.0634719
-0.0575312
-0.0522753
-0.274621
-0.251203
-0.216214
-0.196804
-0.184354
-0.163844
-0.153469
-0.14054
-0.130342
-0.120464
-0.111547
-0.103084
-0.0951858
-0.0877055
-0.0806703
-0.0740025
-0.0677237
-0.0618369
-0.0561468
-0.0511036
-0.270729
-0.254914
-0.213907
-0.19294
-0.180676
-0.159693
-0.149473
-0.13661
-0.126626
-0.116932
-0.10825
-0.100021
-0.0923684
-0.085133
-0.078341
-0.0719096
-0.0658707
-0.0601927
-0.0547447
-0.0499047
-0.266315
-0.257767
-0.211736
-0.18892
-0.176948
-0.155538
-0.145481
-0.132691
-0.122928
-0.113419
-0.104972
-0.0969735
-0.0895641
-0.0825696
-0.0760159
-0.0698174
-0.064011
-0.0585384
-0.053327
-0.0486774
-0.261506
-0.259295
-0.209667
-0.184751
-0.173168
-0.151376
-0.141491
-0.128782
-0.119243
-0.109921
-0.101709
-0.0939402
-0.0867711
-0.0800136
-0.073694
-0.0677249
-0.0621442
-0.0568745
-0.0518917
-0.0474238
-0.256492
-0.259161
-0.207651
-0.180444
-0.16933
-0.147205
-0.1375
-0.12488
-0.115571
-0.106437
-0.09846
-0.0909187
-0.0839877
-0.0774638
-0.0713745
-0.0656312
-0.0602698
-0.0552005
-0.0504402
-0.0461448
-0.25153
-0.257218
-0.205633
-0.176014
-0.165432
-0.143022
-0.133505
-0.120982
-0.111907
-0.102963
-0.0952225
-0.0879074
-0.0812124
-0.0749188
-0.0690564
-0.0635353
-0.0583875
-0.0535169
-0.0489717
-0.0448416
-0.246913
-0.253524
-0.203565
-0.171477
-0.161473
-0.138825
-0.129505
-0.117085
-0.10825
-0.0994979
-0.0919945
-0.0849045
-0.0784439
-0.0723777
-0.0667391
-0.0614366
-0.0564974
-0.0518235
-0.047487
-0.0435156
-0.242945
-0.248313
-0.201407
-0.166854
-0.157452
-0.13461
-0.125496
-0.113188
-0.104597
-0.0960394
-0.0887742
-0.0819086
-0.0756808
-0.0698393
-0.0644218
-0.0593343
-0.0545993
-0.0501205
-0.0459858
-0.0421679
-0.239894
-0.241935
-0.199131
-0.162159
-0.15337
-0.130375
-0.121476
-0.109288
-0.100945
-0.0925856
-0.0855599
-0.0789181
-0.0729218
-0.0673027
-0.0621039
-0.057228
-0.0526932
-0.0484078
-0.0444689
-0.0408
-0.237969
-0.234777
-0.196722
-0.157408
-0.149227
-0.126118
-0.117442
-0.105382
-0.0972932
-0.0891347
-0.0823501
-0.0759319
-0.0701661
-0.0647674
-0.0597848
-0.0551173
-0.0507793
-0.0466853
-0.042936
-0.039413
-0.237294
-0.227201
-0.194172
-0.152613
-0.145025
-0.121835
-0.113393
-0.10147
-0.0936391
-0.085685
-0.0791432
-0.0729487
-0.0674126
-0.0622324
-0.0574641
-0.0530018
-0.0488577
-0.044953
-0.0413876
-0.0380084
-0.237912
-0.219498
-0.191479
-0.147783
-0.140764
-0.117525
-0.109326
-0.0975482
-0.0899811
-0.0822351
-0.0759379
-0.0699675
-0.0646604
-0.0596974
-0.0551413
-0.0508814
-0.0469285
-0.043211
-0.0398239
-0.0365871
-0.239799
-0.211877
-0.188643
-0.142922
-0.136446
-0.113184
-0.105239
-0.0936157
-0.0863174
-0.0787836
-0.0727332
-0.0669874
-0.0619089
-0.0571617
-0.0528162
-0.048756
-0.044992
-0.0414594
-0.0382451
-0.0351502
-0.242873
-0.204473
-0.185668
-0.138033
-0.132069
-0.108812
-0.101129
-0.0896707
-0.0826466
-0.0753292
-0.0695279
-0.0640076
-0.0591574
-0.054625
-0.0504883
-0.0466255
-0.0430485
-0.0396983
-0.036652
-0.0336984
-0.247014
-0.197356
-0.182554
-0.133116
-0.127634
-0.104404
-0.0969959
-0.0857114
-0.0789672
-0.0718709
-0.0663211
-0.0610273
-0.0564054
-0.052087
-0.0481577
-0.0444901
-0.0410984
-0.0379281
-0.0350454
-0.0322327
-0.252076
-0.190552
-0.1793
-0.128169
-0.12314
-0.0999597
-0.0928368
-0.0817362
-0.0752782
-0.0684076
-0.0631121
-0.058046
-0.0536526
-0.0495474
-0.0458241
-0.04235
-0.0391417
-0.0361492
-0.0334267
-0.030755
-0.257898
-0.184059
-0.175903
-0.123188
-0.118585
-0.0954758
-0.0886501
-0.0777438
-0.0715784
-0.0649385
-0.0599001
-0.0550631
-0.0508985
-0.0470061
-0.0434877
-0.0402051
-0.0371787
-0.0343616
-0.0317974
-0.0292684
-0.26431
-0.177853
-0.172359
-0.118166
-0.113968
-0.0909502
-0.0844344
-0.0737324
-0.0678672
-0.0614626
-0.0566846
-0.0520784
-0.048143
-0.0444631
-0.0411486
-0.0380558
-0.0352094
-0.0325654
-0.0301584
-0.0277761
-0.271135
-0.171896
-0.168658
-0.113097
-0.109286
-0.0863802
-0.0801887
-0.0697006
-0.0641439
-0.0579795
-0.0534651
-0.0490916
-0.045386
-0.0419184
-0.0388067
-0.0359022
-0.0332342
-0.0307609
-0.0285102
-0.0262789
-0.278201
-0.166145
-0.164794
-0.107972
-0.104537
-0.0817628
-0.0759126
-0.0656469
-0.060408
-0.0544888
-0.0502411
-0.0461027
-0.0426277
-0.0393724
-0.0364624
-0.0337446
-0.0312534
-0.028949
-0.026853
-0.0247719
-0.285335
-0.16055
-0.160754
-0.102782
-0.0997202
-0.0770941
-0.0716059
-0.0615707
-0.0566579
-0.0509908
-0.0470124
-0.0431118
-0.0398681
-0.0368251
-0.0341159
-0.0315834
-0.0292679
-0.0271319
-0.0251881
-0.0232425
-0.292369
-0.155057
-0.15653
-0.0975185
-0.0948335
-0.0723704
-0.0672674
-0.0574722
-0.0528914
-0.0474862
-0.0437796
-0.0401187
-0.0371076
-0.0342766
-0.0317678
-0.0294189
-0.0272785
-0.0253121
-0.0235198
-0.021674
-0.299145
-0.149615
-0.152109
-0.0921686
-0.0898773
-0.0675902
-0.0628933
-0.0533513
-0.0491084
-0.0439729
-0.0405453
-0.0371219
-0.0343466
-0.0317268
-0.0294193
-0.0272518
-0.0252863
-0.0234905
-0.021851
-0.0200597
-0.305511
-0.144167
-0.147479
-0.0867204
-0.0848502
-0.0627557
-0.0584803
-0.0492023
-0.0453184
-0.0404427
-0.0373147
-0.0341189
-0.0315858
-0.0291754
-0.0270714
-0.0250832
-0.0232933
-0.0216669
-0.0201719
-0.0184258
-0.311325
-0.138663
-0.142633
-0.0811624
-0.079747
-0.0578683
-0.0540365
-0.0450067
-0.0415459
-0.0368798
-0.0340921
-0.0311087
-0.0288257
-0.026624
-0.0247239
-0.0229144
-0.0213014
-0.0198422
-0.0184546
-0.016829
-0.316457
-0.13305
-0.13756
-0.0754868
-0.0745608
-0.0529086
-0.0495984
-0.0407343
-0.0378165
-0.033277
-0.0308693
-0.0280993
-0.0260634
-0.0240781
-0.022373
-0.0207473
-0.019311
-0.0180096
-0.0167162
-0.0152577
-0.320788
-0.127277
-0.132255
-0.0696876
-0.0693031
-0.0478126
-0.0452277
-0.0363739
-0.0341082
-0.0296697
-0.0276152
-0.0251096
-0.0232977
-0.0215346
-0.0200227
-0.0185821
-0.0173209
-0.0161664
-0.0149728
-0.013696
-0.324209
-0.121296
-0.126708
-0.0637422
-0.0640351
-0.0424913
-0.040945
-0.0319901
-0.0303033
-0.0261344
-0.0243351
-0.0221262
-0.0205345
-0.0189923
-0.0176752
-0.0164193
-0.0153303
-0.0143154
-0.0132313
-0.0121338
-0.326626
-0.115062
-0.120906
-0.0575823
-0.0588631
-0.036953
-0.0366167
-0.0276949
-0.026405
-0.0226294
-0.0210484
-0.0191412
-0.0177763
-0.0164522
-0.0153318
-0.0142597
-0.0133397
-0.0124613
-0.0114931
-0.0105672
-0.327956
-0.108539
-0.114855
-0.0511013
-0.0538128
-0.0314609
-0.0320433
-0.0234759
-0.0224532
-0.0191268
-0.0177664
-0.0161531
-0.0150237
-0.0139161
-0.0129934
-0.0121041
-0.0113503
-0.0106074
-0.00975804
-0.00899594
-0.328129
-0.101697
-0.108609
-0.04428
-0.0486312
-0.0261435
-0.0272977
-0.0192903
-0.0184789
-0.0156127
-0.0144929
-0.0131642
-0.0122765
-0.0113855
-0.0106608
-0.00995358
-0.00936388
-0.0087559
-0.00802607
-0.00742168
-0.327085
-0.094476
-0.102273
-0.0373647
-0.043072
-0.0209409
-0.02244
-0.0151053
-0.0144999
-0.0120839
-0.0112279
-0.0101775
-0.00953518
-0.00886174
-0.00833525
-0.0078093
-0.00738215
-0.00690851
-0.00629772
-0.00584665
-0.324779
-0.0867459
-0.0958816
-0.0303788
-0.0371972
-0.015786
-0.0175138
-0.0109022
-0.0105245
-0.00854233
-0.00797011
-0.00719575
-0.00680071
-0.00634606
-0.00601791
-0.00567265
-0.00540675
-0.00506659
-0.00457411
-0.0042731
-0.321175
-0.0783561
-0.0892198
-0.0235388
-0.0310845
-0.0106329
-0.0125454
-0.00667216
-0.00655547
-0.00499215
-0.00471892
-0.00422116
-0.00407441
-0.00383971
-0.0037101
-0.00354505
-0.0034392
-0.0032315
-0.00285672
-0.00270314
-0.316247
-0.0693956
-0.0822228
-0.0167832
-0.0247906
-0.00545279
-0.00755133
-0.0024133
-0.00259303
-0.00143785
-0.00147441
-0.00125547
-0.0013578
-0.00134403
-0.00141321
-0.00142795
-0.00148097
-0.0014047
-0.00114722
-0.00113879
-0.309987
-0.0603743
-0.0745271
-0.0100329
-0.0183537
-0.000229015
-0.0025409
0.00187257
0.00136329
0.00211642
0.00176253
0.00169973
0.00134751
0.00113953
0.000871286
0.000677154
0.000466495
0.000412311
0.0005526
0.000417694
-0.302426
-0.0511006
-0.0662878
-0.00323263
-0.0118009
0.0050471
0.00248022
0.00618157
0.00531375
0.00566709
0.00499043
0.00464287
0.00403987
0.00360944
0.00314188
0.00276877
0.00240173
0.00221789
0.00224074
0.00196376
-0.293651
-0.0414236
-0.0575891
0.00364969
-0.00515197
0.0103787
0.00750864
0.0105089
0.00925802
0.00921102
0.00820746
0.00757231
0.0067176
0.0060641
0.00539701
0.00484538
0.00432318
0.00401012
0.00391475
0.00349686
-0.283742
-0.0312546
-0.0484922
0.0106322
0.00157802
0.0157653
0.0125419
0.0148494
0.0131951
0.0127454
0.0114116
0.0104863
0.00937897
0.00850185
0.00763509
0.00690548
0.00622919
0.00578673
0.00557157
0.00501481
-0.272539
-0.0207396
-0.0390412
0.0177243
0.00837705
0.0212037
0.017578
0.019198
0.0171233
0.0162674
0.0146005
0.0133829
0.0120222
0.010921
0.00985454
0.00894756
0.00811806
0.00754521
0.00720764
0.00651546
-0.259693
-0.0101915
-0.0292736
0.0249302
0.015235
0.0266892
0.0226147
0.0235497
0.0210405
0.0197744
0.0177719
0.0162603
0.0146455
0.0133198
0.0120538
0.0109701
0.0099881
0.00928311
0.00881956
0.00799516
-0.245474
0.000558921
-0.0192194
0.0322502
0.0221428
0.0322156
0.0276492
0.0278994
0.024944
0.0232638
0.0209235
0.0191162
0.017247
0.0156965
0.0142312
0.0129716
0.0118376
0.0109985
0.0104048
0.00944791
-0.229975
0.0115639
-0.0089064
0.0396814
0.0290921
0.0377762
0.0326786
0.0322424
0.0288308
0.0267326
0.0240527
0.0219487
0.0198247
0.0180495
0.0163851
0.0149505
0.0136651
0.0126899
0.0119619
0.0108685
-0.213271
0.0228451
0.00163943
0.0472178
0.0360746
0.0433635
0.0376992
0.0365739
0.0326978
0.0301781
0.027157
0.0247554
0.0223767
0.0203767
0.0185137
0.0169049
0.0154691
0.0143563
0.0134903
0.0122602
-0.195438
0.0344065
0.0123929
0.0548515
0.0430819
0.0489697
0.0427068
0.040889
0.0365413
0.0335971
0.0302336
0.027534
0.0249009
0.0226765
0.0206153
0.0188334
0.0172483
0.015997
0.0149902
0.0136367
-0.17655
0.0462421
0.0233291
0.0625726
0.0501053
0.0545865
0.0476969
0.0451828
0.0403577
0.0369865
0.0332801
0.0302824
0.0273953
0.0249468
0.0226881
0.0207345
0.0190026
0.0176122
0.0164612
0.0150031
-0.156688
0.0583392
0.0344231
0.0703694
0.0571359
0.0602056
0.0526643
0.0494505
0.0441431
0.0403432
0.0362934
0.032998
0.0298578
0.0271856
0.0247303
0.0226079
0.0207327
0.0192018
0.0178959
0.0163202
-0.135932
0.0706795
0.0456497
0.0782292
0.0641642
0.0658183
0.0576037
0.053687
0.0478936
0.0436638
0.039271
0.0356785
0.0322861
0.0293911
0.0267409
0.0244536
0.0224393
0.0207613
0.0192694
0.017498
-0.114368
0.0832408
0.0569835
0.0861378
0.0711804
0.0714157
0.062509
0.0578872
0.0516051
0.0469449
0.0422097
0.0383214
0.034678
0.0315613
0.0287192
0.0262723
0.0241208
0.0222769
0.0205403
0.0184854
-0.0920816
0.095997
0.0683983
0.0940803
0.078174
0.0769888
0.0673743
0.0620458
0.0552732
0.050183
0.0451068
0.0409241
0.0370313
0.0336947
0.0306647
0.0280638
0.0257717
0.0237297
0.0216861
0.0193931
-0.0691628
0.108919
0.0798676
0.102041
0.0851343
0.0825284
0.0721932
0.0661575
0.0588938
0.0533747
0.0479593
0.043484
0.0393437
0.0357899
0.0325771
0.0298259
0.0273828
0.0251095
0.0227527
0.0204454
-0.0457028
0.121976
0.0913646
0.110003
0.0920499
0.0880253
0.076959
0.070217
0.0624625
0.0565163
0.050764
0.0459986
0.0416131
0.0378458
0.0344554
0.0315542
0.0289453
0.0264262
0.0238302
0.0217494
-0.0217946
0.135134
0.102862
0.117949
0.0989094
0.0934699
0.0816649
0.0742187
0.0659748
0.0596041
0.053518
0.0484651
0.0438375
0.039861
0.0362976
0.0332436
0.0304556
0.0277014
0.0249484
0.023274
0.00246748
0.148358
0.114331
0.125862
0.105701
0.0988529
0.086304
0.0781569
0.0694261
0.0626345
0.056218
0.0508808
0.0460149
0.041834
0.038101
0.0348896
0.0319165
0.0289611
0.0261507
0.0247165
0.0269885
0.161611
0.125744
0.133724
0.112411
0.104164
0.0908691
0.0820261
0.0728119
0.0656038
0.0588608
0.0532434
0.0481434
0.043763
0.0398624
0.0364898
0.0333362
0.0302232
0.0274066
0.0260438
0.0516728
0.174856
0.137074
0.141517
0.119029
0.109395
0.0953531
0.0858207
0.0761277
0.0685082
0.0614435
0.0555501
0.0502208
0.0456456
0.0415789
0.0380438
0.0347209
0.0314862
0.0286693
0.0272844
0.0764249
0.188052
0.14829
0.149221
0.125542
0.114535
0.0997488
0.0895349
0.0793688
0.0713439
0.0639628
0.0577984
0.0522451
0.0474795
0.0432482
0.0395523
0.0360753
0.0327432
0.0299123
0.0284575
0.101149
0.201161
0.159364
0.156819
0.131936
0.119574
0.104049
0.093163
0.0825308
0.0741073
0.0664157
0.0599859
0.0542141
0.0492624
0.0448684
0.041016
0.0373994
0.0339838
0.0311238
0.0295802
0.125751
0.214143
0.170269
0.164291
0.138198
0.124503
0.108246
0.0966994
0.0856089
0.0767947
0.068799
0.0621101
0.0561254
0.0509919
0.0464383
0.0424354
0.0386919
0.0351998
0.0322978
0.0306565
0.150137
0.226958
0.180974
0.17162
0.144317
0.129313
0.112333
0.100138
0.0885988
0.0794023
0.0711097
0.0641683
0.0579766
0.052666
0.0479564
0.0438099
0.0399496
0.036385
0.0334333
0.0316897
0.174215
0.239564
0.191452
0.178786
0.150279
0.133993
0.116303
0.103475
0.0914959
0.0819266
0.0733449
0.066158
0.0597657
0.0542826
0.0494217
0.0451387
0.0411697
0.0375349
0.0345283
0.0326794
0.197893
0.251923
0.201675
0.185771
0.156071
0.138535
0.120148
0.106702
0.0942959
0.084364
0.0755016
0.0680769
0.0614901
0.0558399
0.0508329
0.0464203
0.0423495
0.0386466
0.035582
0.0336252
0.221083
0.263993
0.211616
0.192558
0.161682
0.142929
0.123862
0.109816
0.0969943
0.0867109
0.0775769
0.0699223
0.0631479
0.0573361
0.0521886
0.047653
0.0434861
0.0397175
0.0365931
0.0345265
0.243699
0.275737
0.221247
0.199129
0.167098
0.147166
0.127438
0.112811
0.099587
0.088964
0.079568
0.0716919
0.0647369
0.0587696
0.0534875
0.0488351
0.0445777
0.0407458
0.0375603
0.0353827
0.265656
0.287116
0.230542
0.205466
0.172307
0.151237
0.130869
0.115681
0.10207
0.09112
0.081472
0.0733833
0.0662551
0.0601386
0.0547279
0.049965
0.0456222
0.0417295
0.0384824
0.0361935
0.286874
0.298092
0.239476
0.211553
0.177299
0.155134
0.134148
0.118423
0.104439
0.0931755
0.0832864
0.0749944
0.0677005
0.0614416
0.0559086
0.051041
0.0466179
0.0426671
0.0393582
0.0369584
0.307274
0.308628
0.248023
0.217373
0.182061
0.158848
0.13727
0.12103
0.10669
0.0951275
0.0850084
0.0765227
0.0690713
0.0626768
0.0570279
0.0520617
0.0475632
0.043557
0.0401868
0.0376774
0.326782
0.318691
0.25616
0.222911
0.186583
0.162372
0.140228
0.123498
0.10882
0.0969731
0.0866357
0.0779664
0.0703657
0.0638429
0.0580845
0.0530257
0.0484567
0.0443981
0.0409673
0.0383504
0.345327
0.328246
0.263864
0.228151
0.190854
0.165698
0.143017
0.125823
0.110825
0.0987093
0.0881659
0.0793234
0.0715819
0.0649383
0.059077
0.0539315
0.0492969
0.0451888
0.0416989
0.0389773
0.362841
0.337261
0.271114
0.233081
0.194864
0.168818
0.145631
0.128001
0.112701
0.100333
0.0895967
0.0805917
0.0727184
0.0659617
0.0600042
0.054778
0.0500826
0.0459281
0.0423808
0.0395582
0.37926
0.345706
0.277889
0.237685
0.198603
0.171726
0.148064
0.130027
0.114446
0.101843
0.090926
0.0817697
0.0737736
0.0669116
0.0608648
0.055564
0.0508126
0.0466148
0.0430123
0.0400932
0.394527
0.353552
0.284169
0.241952
0.202064
0.174415
0.150313
0.131898
0.116057
0.103235
0.0921518
0.0828556
0.0747461
0.0677869
0.0616577
0.0562884
0.0514858
0.047248
0.043593
0.0405824
0.408585
0.360773
0.289937
0.24587
0.205237
0.17688
0.152372
0.133611
0.11753
0.104509
0.0932722
0.0838478
0.0756345
0.0685864
0.0623819
0.0569502
0.0521012
0.0478267
0.0441224
0.041026
0.421385
0.367343
0.295177
0.249428
0.208116
0.179114
0.154238
0.135161
0.118863
0.105661
0.0942855
0.084745
0.0764377
0.069309
0.0630365
0.0575485
0.0526578
0.04835
0.0445999
0.0414243
0.43288
0.373241
0.299873
0.252615
0.210692
0.181113
0.155906
0.136547
0.120054
0.106689
0.0951902
0.0855459
0.0771545
0.0699538
0.0636205
0.0580825
0.0531548
0.0488171
0.0450253
0.0417774
0.44303
0.378447
0.304012
0.255425
0.21296
0.182872
0.157373
0.137766
0.121101
0.107593
0.095985
0.0862492
0.0777839
0.0705199
0.0641333
0.0585513
0.0535913
0.0492275
0.0453981
0.0420856
0.451799
0.382942
0.307582
0.257847
0.214915
0.184387
0.158636
0.138815
0.122002
0.108371
0.0966684
0.086854
0.0783251
0.0710066
0.064574
0.0589544
0.0539668
0.0495803
0.0457182
0.0423493
0.459154
0.386711
0.310573
0.259876
0.216551
0.185655
0.159693
0.139692
0.122755
0.109021
0.0972396
0.0873594
0.0787772
0.0714131
0.0649422
0.0592912
0.0542806
0.0498752
0.0459852
0.0425685
0.46507
0.389742
0.312976
0.261506
0.217865
0.186673
0.160541
0.140395
0.123359
0.109542
0.0976977
0.0877645
0.0791397
0.071739
0.0652373
0.0595612
0.0545323
0.0501117
0.0461991
0.0427436
0.469525
0.392025
0.314784
0.262733
0.218853
0.187438
0.161179
0.140924
0.123813
0.109933
0.0980418
0.0880689
0.0794119
0.0719838
0.065459
0.0597641
0.0547214
0.0502893
0.0463596
0.0428747
0.472505
0.393551
0.315993
0.263553
0.219513
0.18795
0.161604
0.141277
0.124116
0.110195
0.0982715
0.0882721
0.0795937
0.0721472
0.065607
0.0598994
0.0548476
0.0504079
0.0464667
0.042962
0.473997
0.394315
0.316598
0.263963
0.219843
0.188206
0.161817
0.141454
0.124268
0.110326
0.0983864
0.0883737
0.0796846
0.0722289
0.065681
0.0599672
0.0549107
0.0504672
0.0465202
0.0430056
0.473997
0.394315
0.316598
0.263963
0.219843
0.188206
0.161817
0.141454
0.124268
0.110326
0.0983864
0.0883737
0.0796846
0.0722289
0.065681
0.0599671
0.0549107
0.0504672
0.0465202
0.0430056
0.472504
0.393551
0.315993
0.263553
0.219513
0.18795
0.161604
0.141277
0.124116
0.110195
0.0982715
0.0882721
0.0795936
0.0721472
0.0656069
0.0598994
0.0548476
0.0504079
0.0464667
0.042962
0.469525
0.392025
0.314784
0.262733
0.218853
0.187438
0.161178
0.140924
0.123813
0.109933
0.0980417
0.0880689
0.0794119
0.0719838
0.065459
0.059764
0.0547213
0.0502893
0.0463596
0.0428746
0.465069
0.389742
0.312976
0.261506
0.217864
0.186673
0.160541
0.140395
0.123359
0.109542
0.0976976
0.0877645
0.0791396
0.0717389
0.0652373
0.0595612
0.0545322
0.0501116
0.0461991
0.0427435
0.459153
0.386711
0.310573
0.259876
0.216551
0.185655
0.159693
0.139691
0.122755
0.10902
0.0972395
0.0873593
0.0787771
0.071413
0.0649421
0.0592912
0.0542806
0.0498752
0.0459852
0.0425684
0.451798
0.382941
0.307582
0.257847
0.214915
0.184387
0.158636
0.138814
0.122002
0.108371
0.0966683
0.0868539
0.0783249
0.0710065
0.0645739
0.0589543
0.0539667
0.0495803
0.0457181
0.0423492
0.44303
0.378446
0.304011
0.255424
0.21296
0.182871
0.157373
0.137766
0.121101
0.107593
0.0959848
0.0862491
0.0777838
0.0705198
0.0641332
0.0585512
0.0535912
0.0492274
0.045398
0.0420856
0.432879
0.373241
0.299872
0.252615
0.210692
0.181112
0.155906
0.136547
0.120054
0.106689
0.09519
0.0855457
0.0771543
0.0699537
0.0636204
0.0580824
0.0531547
0.048817
0.0450252
0.0417773
0.421384
0.367343
0.295176
0.249427
0.208115
0.179113
0.154238
0.135161
0.118863
0.10566
0.0942853
0.0847448
0.0764375
0.0693088
0.0630364
0.0575484
0.0526577
0.0483499
0.0445998
0.0414242
0.408584
0.360772
0.289937
0.245869
0.205237
0.176879
0.152372
0.13361
0.117529
0.104508
0.0932719
0.0838476
0.0756343
0.0685862
0.0623818
0.0569501
0.0521011
0.0478266
0.0441223
0.0410259
0.394525
0.353552
0.284168
0.241951
0.202064
0.174415
0.150313
0.131898
0.116056
0.103235
0.0921515
0.0828553
0.0747459
0.0677867
0.0616575
0.0562883
0.0514857
0.0472479
0.0435929
0.0405823
0.379259
0.345705
0.277888
0.237684
0.198603
0.171726
0.148064
0.130027
0.114446
0.101843
0.0909257
0.0817694
0.0737733
0.0669114
0.0608646
0.0555639
0.0508125
0.0466147
0.0430122
0.0400931
0.362839
0.33726
0.271113
0.23308
0.194863
0.168818
0.14563
0.128
0.112701
0.100333
0.0895964
0.0805915
0.0727181
0.0659614
0.060004
0.0547779
0.0500824
0.0459279
0.0423806
0.0395581
0.345325
0.328245
0.263863
0.22815
0.190853
0.165697
0.143016
0.125823
0.110824
0.0987089
0.0881656
0.0793231
0.0715816
0.0649381
0.0590768
0.0539314
0.0492967
0.0451886
0.0416987
0.0389772
0.32678
0.31869
0.256159
0.22291
0.186582
0.162372
0.140228
0.123498
0.108819
0.0969727
0.0866354
0.0779661
0.0703654
0.0638427
0.0580843
0.0530255
0.0484565
0.0443979
0.0409672
0.0383503
0.307272
0.308627
0.248022
0.217372
0.18206
0.158848
0.137269
0.121029
0.10669
0.0951271
0.085008
0.0765224
0.069071
0.0626766
0.0570276
0.0520615
0.047563
0.0435569
0.0401867
0.0376773
0.286872
0.29809
0.239474
0.211552
0.177298
0.155133
0.134147
0.118422
0.104438
0.093175
0.0832859
0.074994
0.0677002
0.0614413
0.0559083
0.0510408
0.0466177
0.0426669
0.0393581
0.0369583
0.265654
0.287114
0.230541
0.205465
0.172306
0.151236
0.130868
0.115681
0.102069
0.0911195
0.0814716
0.0733829
0.0662548
0.0601383
0.0547277
0.0499647
0.045622
0.0417293
0.0384822
0.0361933
0.243696
0.275736
0.221246
0.199128
0.167097
0.147165
0.127437
0.11281
0.0995865
0.0889635
0.0795675
0.0716915
0.0647366
0.0587693
0.0534872
0.0488349
0.0445775
0.0407456
0.0375601
0.0353826
0.221081
0.263992
0.211615
0.192557
0.161681
0.142928
0.123861
0.109815
0.0969937
0.0867104
0.0775764
0.0699219
0.0631476
0.0573358
0.0521883
0.0476527
0.0434859
0.0397173
0.0365929
0.0345264
0.19789
0.251921
0.201674
0.18577
0.15607
0.138534
0.120147
0.106701
0.0942952
0.0843634
0.0755011
0.0680764
0.0614898
0.0558396
0.0508326
0.04642
0.0423492
0.0386464
0.0355819
0.0336251
0.174212
0.239563
0.191451
0.178785
0.150278
0.133992
0.116302
0.103474
0.0914953
0.081926
0.0733444
0.0661576
0.0597653
0.0542822
0.0494214
0.0451385
0.0411695
0.0375347
0.0345281
0.0326793
0.150134
0.226956
0.180972
0.171618
0.144316
0.129312
0.112332
0.100138
0.0885981
0.0794017
0.0711092
0.0641678
0.0579762
0.0526656
0.0479561
0.0438097
0.0399494
0.0363848
0.0334331
0.0316896
0.125748
0.214142
0.170267
0.16429
0.138197
0.124502
0.108245
0.0966985
0.0856082
0.076794
0.0687984
0.0621096
0.0561249
0.0509916
0.0464379
0.0424351
0.0386916
0.0351995
0.0322976
0.0306564
0.101146
0.20116
0.159362
0.156817
0.131934
0.119573
0.104048
0.0931621
0.08253
0.0741067
0.0664151
0.0599854
0.0542136
0.049262
0.0448681
0.0410157
0.0373992
0.0339836
0.0311236
0.02958
0.0764215
0.18805
0.148288
0.14922
0.12554
0.114533
0.0997477
0.0895339
0.079368
0.0713432
0.0639622
0.0577979
0.0522447
0.0474791
0.0432479
0.039552
0.0360751
0.032743
0.0299121
0.0284573
0.0516693
0.174854
0.137072
0.141515
0.119028
0.109394
0.095352
0.0858197
0.0761268
0.0685074
0.0614429