/*--------------------------------*- C++ -*----------------------------------*\
  =========                 |
  \\      /  F ield         | OpenFOAM: The Open Source CFD Toolbox
   \\    /   O peration     | Website:  https://openfoam.org
    \\  /    A nd           | Version:  7
     \\/     M anipulation  |
\*---------------------------------------------------------------------------*/
FoamFile
{
    version     2.0;
    format      ascii;
    class       volScalarField;
    location    "5.5";
    object      p;
}
// * * * * * * * * * * * * * * * * * * * * * * * * * * * * * * * * * * * * * //

dimensions      [1 -1 -2 0 0 0 0];

internalField   nonuniform List<scalar> 
2413
(
0.479408
0.48248
0.485653
0.489208
0.492958
0.496788
0.500571
0.504183
0.507677
0.511067
0.514373
0.517606
0.520776
0.523927
0.527106
0.530286
0.533364
0.536281
0.539044
0.541693
0.544301
0.546958
0.549704
0.552531
0.555392
0.558218
0.560926
0.563459
0.565803
0.567964
0.569946
0.571824
0.573757
0.576027
0.578546
0.581187
0.583805
0.58637
0.589379
0.592531
0.595935
0.599334
0.601891
0.603661
0.60535
0.606899
0.608071
0.609377
0.610647
0.612598
0.614939
0.984485
0.960595
0.940925
0.924302
0.909265
0.89511
0.882372
0.871703
0.863292
0.857084
0.853008
0.850964
0.850251
0.850124
0.849883
0.848458
0.844628
0.838258
0.828873
0.818262
0.810215
0.806139
0.804973
0.805937
0.807775
0.806474
0.801613
0.795671
0.787005
0.766148
0.735077
0.691914
0.639886
0.586202
0.540536
0.508555
0.49092
0.48388
0.48296
0.484778
0.487135
0.489093
0.491592
0.494445
0.49773
0.501133
0.50452
0.507839
0.511077
0.514259
0.517353
0.520312
0.52315
0.525894
0.528549
0.531105
0.53363
0.536186
0.538771
0.541377
0.543973
0.546493
0.548859
0.551035
0.552975
0.554657
0.556194
0.557758
0.559567
0.561574
0.563761
0.565887
0.568469
0.571409
0.574513
0.577831
0.581192
0.583962
0.585945
0.587815
0.589261
0.590599
0.592195
0.593932
0.595972
0.59721
0.598838
0.601493
0.99298
0.97036
0.951552
0.935398
0.920705
0.906507
0.893078
0.881188
0.871275
0.863521
0.858092
0.854549
0.852459
0.851604
0.851752
0.851879
0.849663
0.84447
0.836963
0.827682
0.820255
0.816173
0.814425
0.814171
0.815241
0.816781
0.818046
0.817057
0.814633
0.812258
0.806169
0.791655
0.770927
0.738738
0.695692
0.643889
0.591065
0.54572
0.514216
0.496946
0.489776
0.48864
0.489832
0.491569
0.493274
0.495134
0.497591
0.50067
0.503831
0.506953
0.50987
0.512596
0.515188
0.517728
0.52027
0.522833
0.525366
0.527794
0.530099
0.532302
0.53441
0.536337
0.53799
0.539385
0.540569
0.541697
0.542949
0.544383
0.546
0.547724
0.550179
0.552909
0.555934
0.559433
0.563156
0.565569
0.567943
0.570125
0.57183
0.573408
0.574983
0.576954
0.578095
0.580131
0.582831
0.585613
0.588471
0.591288
1.00063
0.979199
0.961202
0.945618
0.931449
0.917648
0.904096
0.891556
0.880806
0.872199
0.865555
0.860512
0.856947
0.854995
0.854426
0.854626
0.854163
0.850633
0.843958
0.835886
0.828745
0.824173
0.821973
0.821562
0.822189
0.823532
0.825591
0.82713
0.827251
0.82593
0.824419
0.822763
0.817317
0.806139
0.790977
0.767349
0.733809
0.689465
0.638932
0.5877
0.545169
0.516507
0.500808
0.494216
0.492251
0.492821
0.494162
0.495667
0.497616
0.499798
0.502109
0.504436
0.506805
0.509218
0.511646
0.514031
0.516289
0.518418
0.52036
0.522018
0.523327
0.524385
0.5252
0.525908
0.526673
0.527615
0.528628
0.529893
0.531774
0.534284
0.537458
0.541484
0.544824
0.547014
0.549756
0.552396
0.554639
0.556202
0.557583
0.559045
0.560289
0.563504
0.566466
0.569805
0.573325
0.576778
0.579588
0.58253
1.00761
0.987373
0.970284
0.955098
0.941226
0.927888
0.914705
0.902024
0.890649
0.881289
0.873894
0.868083
0.863662
0.86069
0.858993
0.858133
0.857555
0.855766
0.851135
0.844247
0.836907
0.831341
0.828342
0.827884
0.828569
0.829811
0.831546
0.832894
0.834061
0.834339
0.833315
0.831846
0.829675
0.826143
0.820287
0.810335
0.799431
0.782668
0.756647
0.721649
0.67844
0.629591
0.583106
0.545395
0.520146
0.506093
0.499255
0.496413
0.495484
0.495462
0.496112
0.497466
0.499214
0.501123
0.502998
0.504681
0.506329
0.50784
0.509078
0.510012
0.510552
0.51091
0.51132
0.51187
0.51236
0.513006
0.514278
0.516534
0.519633
0.523628
0.526485
0.529304
0.532258
0.534998
0.537084
0.538682
0.540135
0.541153
0.542493
0.545677
0.548567
0.551986
0.555222
0.558633
0.562138
0.566143
0.570816
0.574559
1.01365
0.994625
0.978454
0.963552
0.949727
0.936661
0.923975
0.911807
0.900716
0.890956
0.882817
0.8764
0.871486
0.867786
0.865124
0.863295
0.861942
0.860365
0.857274
0.852128
0.845166
0.838737
0.834746
0.833659
0.834419
0.835725
0.837021
0.838205
0.839573
0.840109
0.839932
0.838601
0.836206
0.83386
0.830744
0.825514
0.818685
0.810533
0.801772
0.78794
0.768083
0.742142
0.706722
0.664059
0.619608
0.578402
0.545477
0.522976
0.509564
0.502352
0.498841
0.497305
0.496786
0.4967
0.496724
0.496736
0.496725
0.496706
0.496775
0.496917
0.49729
0.497622
0.497678
0.497916
0.498695
0.500327
0.503078
0.506483
0.509217
0.512403
0.515603
0.518012
0.519606
0.521095
0.522678
0.523648
0.525174
0.52723
0.529553
0.532199
0.53497
0.538066
0.541678
0.546181
0.550862
0.555382
0.560461
0.564553
1.01885
1.00097
0.985815
0.97136
0.957653
0.94483
0.932699
0.921151
0.910342
0.900522
0.892068
0.885381
0.880137
0.875879
0.872389
0.869676
0.867747
0.866309
0.864355
0.860001
0.854048
0.847665
0.842924
0.840793
0.840815
0.841894
0.843128
0.844221
0.844956
0.845214
0.845229
0.844162
0.841897
0.839134
0.835907
0.832574
0.827712
0.821821
0.815665
0.808937
0.799503
0.786417
0.770211
0.749756
0.721723
0.687091
0.648386
0.609367
0.574051
0.545552
0.525181
0.511929
0.503873
0.499065
0.49594
0.493552
0.491301
0.489101
0.487229
0.486012
0.485345
0.485381
0.485786
0.486937
0.489104
0.49165
0.494094
0.497138
0.499975
0.502005
0.503562
0.504796
0.505952
0.506814
0.507974
0.508643
0.510125
0.51122
0.513611
0.516288
0.519809
0.523746
0.527871
0.532904
0.537187
0.543149
0.549162
0.553877
1.02359
1.00659
0.992437
0.978545
0.964963
0.952254
0.940536
0.929683
0.919676
0.910661
0.902714
0.895911
0.890229
0.885355
0.881267
0.87806
0.875638
0.873615
0.871399
0.868015
0.863255
0.857739
0.852845
0.849845
0.848536
0.848496
0.849176
0.849998
0.850205
0.849541
0.848597
0.847413
0.845444
0.842409
0.838635
0.835308
0.831368
0.826427
0.820548
0.814645
0.807807
0.800566
0.791125
0.779958
0.765708
0.748096
0.725198
0.698015
0.66675
0.633337
0.600325
0.57001
0.544409
0.524674
0.510717
0.501283
0.494699
0.48965
0.485448
0.482026
0.479699
0.479661
0.480813
0.48212
0.483624
0.485895
0.487925
0.489518
0.490767
0.491517
0.491867
0.492021
0.492091
0.491946
0.492381
0.492027
0.493317
0.494936
0.497874
0.500949
0.504874
0.508936
0.513843
0.519799
0.525176
0.531533
0.537315
0.5419
1.02721
1.01099
0.997844
0.984753
0.971616
0.959207
0.947896
0.937687
0.928571
0.920652
0.913655
0.907297
0.901462
0.896084
0.891332
0.887357
0.884156
0.881478
0.879056
0.876274
0.872324
0.867237
0.862139
0.85835
0.856146
0.855161
0.855021
0.855369
0.855219
0.853907
0.851776
0.849587
0.847462
0.844489
0.840468
0.836383
0.832158
0.827578
0.822135
0.816644
0.810919
0.805048
0.797296
0.788792
0.778663
0.767691
0.754034
0.738108
0.719145
0.697027
0.671674
0.643982
0.615328
0.587379
0.561709
0.539813
0.522686
0.510209
0.501181
0.494611
0.489879
0.486883
0.48579
0.485547
0.485432
0.485419
0.485561
0.485233
0.484335
0.483043
0.481428
0.48001
0.478459
0.477235
0.476971
0.477383
0.478829
0.480612
0.483859
0.487073
0.491636
0.496455
0.501665
0.508254
0.51441
0.520305
0.525415
0.530209
1.02886
1.01321
1.00061
0.988004
0.975193
0.963067
0.95218
0.942609
0.93432
0.927289
0.921261
0.916019
0.911024
0.905889
0.900631
0.895666
0.89146
0.888174
0.885612
0.88342
0.880509
0.876394
0.87163
0.867459
0.864527
0.862669
0.861537
0.860935
0.860139
0.858572
0.856046
0.853026
0.850155
0.846936
0.843031
0.838559
0.833854
0.829116
0.823823
0.818144
0.811998
0.805427
0.798084
0.790623
0.781738
0.772543
0.761783
0.750389
0.736947
0.721992
0.705096
0.686414
0.665847
0.643567
0.620129
0.59697
0.575589
0.556865
0.540862
0.527696
0.517492
0.510247
0.504863
0.500624
0.496712
0.492687
0.4887
0.484969
0.481235
0.47766
0.473795
0.470542
0.467835
0.466459
0.465855
0.466357
0.46798
0.469908
0.472482
0.475536
0.480216
0.486121
0.492308
0.498909
0.505056
0.510782
0.516105
0.521947
1.03145
1.01597
1.00381
0.991668
0.979058
0.966855
0.955915
0.94659
0.938777
0.932302
0.927067
0.92289
0.919225
0.915389
0.910931
0.906031
0.901369
0.897525
0.894601
0.892087
0.88929
0.885601
0.881153
0.876978
0.873743
0.871452
0.869677
0.86804
0.866291
0.864219
0.861605
0.858369
0.854955
0.851404
0.847528
0.842847
0.837489
0.831802
0.825977
0.819801
0.813168
0.806196
0.798795
0.790652
0.781643
0.772724
0.762711
0.752668
0.741045
0.728956
0.715751
0.701945
0.687209
0.671637
0.655152
0.638004
0.620037
0.602039
0.584233
0.567304
0.553433
0.542229
0.532311
0.523043
0.513933
0.504879
0.496375
0.488663
0.482463
0.476141
0.47054
0.466503
0.463244
0.461358
0.46031
0.460036
0.460831
0.462092
0.464851
0.468511
0.472955
0.478286
0.484673
0.491174
0.497605
0.503821
0.509716
0.516299
1.03469
1.01909
1.00711
0.995123
0.982449
0.969973
0.958811
0.949525
0.942048
0.936052
0.931437
0.928053
0.925377
0.92259
0.919164
0.914884
0.910376
0.906406
0.903284
0.90066
0.89808
0.894994
0.891124
0.887114
0.883671
0.881024
0.878762
0.876427
0.873993
0.871454
0.868668
0.865276
0.861229
0.856841
0.852355
0.847427
0.8421
0.836494
0.830389
0.823764
0.816607
0.808943
0.800812
0.791901
0.782548
0.772911
0.762862
0.752867
0.742097
0.731339
0.719913
0.708594
0.69658
0.6836
0.669815
0.655382
0.63992
0.624175
0.609191
0.595208
0.581961
0.568706
0.55571
0.543041
0.530591
0.518269
0.50657
0.496287
0.487008
0.478998
0.47297
0.468113
0.464152
0.460925
0.458548
0.457564
0.457531
0.458262
0.459962
0.46301
0.467521
0.472588
0.478557
0.484776
0.490658
0.496689
0.503433
0.511149
1.03919
1.02281
1.01087
0.999042
0.986306
0.973482
0.961881
0.952303
0.944798
0.938986
0.934728
0.931762
0.929591
0.927526
0.925024
0.921779
0.917937
0.91417
0.911001
0.908397
0.906076
0.903676
0.900721
0.897347
0.894107
0.891389
0.888828
0.886038
0.883015
0.879845
0.876557
0.872794
0.868485
0.863849
0.858951
0.853883
0.848734
0.843168
0.83685
0.829825
0.822044
0.813491
0.804325
0.794504
0.784673
0.774856
0.765096
0.754625
0.743439
0.732006
0.719856
0.707736
0.695666
0.683551
0.671176
0.658828
0.646342
0.633878
0.621736
0.609754
0.597398
0.584155
0.570569
0.557254
0.544071
0.531063
0.51753
0.505449
0.494779
0.485815
0.478608
0.472562
0.467071
0.463166
0.460004
0.457778
0.456552
0.456409
0.457417
0.459812
0.463688
0.467982
0.472574
0.477404
0.482979
0.489629
0.497529
0.506268
1.04757
1.02893
1.01623
1.00418
0.991119
0.977696
0.965314
0.955056
0.946987
0.940957
0.9367
0.933866
0.931979
0.930408
0.928654
0.926322
0.923368
0.920185
0.917335
0.915073
0.913293
0.911619
0.909601
0.906955
0.903914
0.901056
0.898521
0.895849
0.892707
0.889381
0.885953
0.882085
0.877941
0.873387
0.868213
0.862689
0.856771
0.850341
0.843511
0.835927
0.827584
0.818554
0.809263
0.799869
0.790449
0.78002
0.769032
0.757596
0.745458
0.733138
0.720691
0.70827
0.695935
0.683946
0.672253
0.661118
0.650218
0.639128
0.627718
0.616233
0.604556
0.592215
0.579604
0.566715
0.554148
0.541124
0.528373
0.515886
0.50423
0.494472
0.4862
0.478966
0.47268
0.467633
0.463116
0.460106
0.457893
0.456708
0.456706
0.458569
0.461366
0.464467
0.468329
0.47222
0.476811
0.483056
0.491078
0.500521
1.05959
1.0371
1.02256
1.00982
0.996481
0.982705
0.96973
0.958762
0.949959
0.943385
0.938714
0.935606
0.93361
0.932108
0.930644
0.928811
0.926495
0.923938
0.921603
0.919872
0.918736
0.917749
0.916553
0.914731
0.912364
0.90998
0.907813
0.905639
0.903096
0.900003
0.896192
0.891699
0.886778
0.881317
0.875587
0.869712
0.863634
0.857262
0.850394
0.842964
0.835072
0.826776
0.817787
0.807914
0.797368
0.786498
0.775251
0.764085
0.752878
0.741449
0.729938
0.718187
0.706046
0.693899
0.681638
0.669485
0.657496
0.645633
0.633757
0.621832
0.609941
0.597841
0.585747
0.573527
0.561181
0.548988
0.536935
0.524903
0.513479
0.503375
0.494153
0.48596
0.479091
0.472838
0.467796
0.463537
0.460268
0.458514
0.457625
0.458325
0.459532
0.460714
0.462217
0.464336
0.46845
0.474488
0.48197
0.490692
1.07784
1.04983
1.03152
1.01687
1.00274
0.988458
0.974893
0.963227
0.95352
0.946174
0.940869
0.937261
0.934962
0.933309
0.931851
0.930203
0.928221
0.926089
0.92423
0.922997
0.922328
0.921949
0.921489
0.920645
0.919418
0.917925
0.915777
0.913367
0.910498
0.907145
0.903407
0.899475
0.895301
0.890539
0.885233
0.879461
0.873268
0.866632
0.859437
0.85177
0.843552
0.834823
0.825298
0.815458
0.805059
0.794651
0.783982
0.772834
0.761365
0.749519
0.737551
0.725624
0.713505
0.701278
0.688868
0.676376
0.663974
0.651673
0.639476
0.627376
0.615177
0.602938
0.590674
0.57819
0.566266
0.554507
0.543153
0.53229
0.521668
0.511631
0.502326
0.493743
0.48586
0.478878
0.472886
0.468082
0.464258
0.461602
0.459739
0.458686
0.457988
0.457374
0.457464
0.458291
0.460238
0.463285
0.468647
0.477195
1.09808
1.06658
1.04388
1.02618
1.01034
0.995159
0.980944
0.96849
0.958121
0.949929
0.94396
0.939749
0.936946
0.93485
0.933051
0.931226
0.929271
0.927324
0.92573
0.92475
0.924318
0.924266
0.924304
0.92422
0.923818
0.922965
0.921642
0.919841
0.917594
0.914866
0.911541
0.907683
0.903369
0.898565
0.893352
0.887653
0.881394
0.874588
0.86726
0.859483
0.851163
0.842194
0.83305
0.823637
0.813351
0.802298
0.790692
0.778792
0.766845
0.754735
0.742721
0.730827
0.718929
0.706946
0.694769
0.682281
0.66969
0.657131
0.644739
0.632478
0.620147
0.607754
0.595189
0.583107
0.571113
0.55947
0.548525
0.538121
0.528096
0.51814
0.508663
0.499956
0.492171
0.485306
0.479234
0.473997
0.469312
0.465221
0.462265
0.459312
0.45671
0.453668
0.45099
0.448777
0.447807
0.448372
0.451781
0.458361
1.11565
1.08456
1.05897
1.03823
1.0202
1.00356
0.988242
0.974701
0.963849
0.954615
0.947793
0.942881
0.939473
0.936895
0.93474
0.93268
0.930618
0.928665
0.927115
0.926113
0.925645
0.925571
0.925711
0.926043
0.926557
0.926684
0.92606
0.924765
0.922786
0.920224
0.91717
0.913709
0.9098
0.905278
0.900232
0.894685
0.888649
0.882229
0.875447
0.868306
0.860504
0.851917
0.842299
0.832007
0.821142
0.809952
0.798588
0.786993
0.77526
0.763222
0.750959
0.738533
0.726054
0.713485
0.700898
0.688132
0.675298
0.662504
0.649635
0.636963
0.624514
0.611819
0.599473
0.587294
0.575376
0.563989
0.553104
0.54268
0.532651
0.523174
0.514414
0.506341
0.49893
0.491918
0.485496
0.479631
0.473567
0.468706
0.463863
0.458985
0.453871
0.448131
0.442301
0.43673
0.432386
0.43005
0.43161
0.437538
1.12626
1.09982
1.0745
1.05204
1.03202
1.01372
0.997044
0.982255
0.970258
0.960464
0.952656
0.946964
0.942892
0.939818
0.937312
0.935049
0.932922
0.930996
0.929457
0.928441
0.927999
0.928046
0.928433
0.928991
0.929559
0.929874
0.929753
0.928982
0.92752
0.925488
0.922897
0.919747
0.91613
0.912011
0.907486
0.90253
0.897003
0.890891
0.884156
0.876855
0.868866
0.860256
0.851023
0.841258
0.83079
0.819632
0.807966
0.795903
0.783547
0.77092
0.75816
0.745221
0.7323
0.719302
0.706436
0.693525
0.680593
0.667415
0.654241
0.641246
0.628169
0.615519
0.603067
0.591002
0.579156
0.56776
0.556874
0.546557
0.537001
0.528059
0.519661
0.511454
0.5037
0.496589
0.48994
0.483386
0.476997
0.470827
0.464425
0.457703
0.450168
0.441452
0.431885
0.423383
0.41515
0.410753
0.410986
0.414865
1.12729
1.10763
1.08624
1.06486
1.04441
1.02515
1.00734
0.991369
0.977906
0.967177
0.958397
0.951642
0.946626
0.942862
0.939901
0.937424
0.935253
0.933384
0.931854
0.930767
0.930209
0.930177
0.930652
0.93153
0.932498
0.933189
0.933368
0.93291
0.931812
0.930084
0.927819
0.924976
0.921586
0.917685
0.913364
0.908598
0.90338
0.897687
0.891443
0.884709
0.877296
0.869057
0.859801
0.84969
0.838824
0.827432
0.815607
0.803444
0.791001
0.778219
0.76525
0.752032
0.738757
0.72535
0.71203
0.698712
0.685424
0.671966
0.658492
0.645063
0.631825
0.618957
0.606488
0.594499
0.582959
0.571796
0.561062
0.550807
0.541206
0.531963
0.52338
0.515395
0.507936
0.500701
0.493629
0.486481
0.479471
0.472131
0.464574
0.455857
0.446062
0.434263
0.421828
0.409793
0.398837
0.392268
0.38958
0.389961
1.12295
1.10782
1.09112
1.07313
1.05438
1.03558
1.01743
1.00062
0.985913
0.973687
0.963769
0.955942
0.949917
0.945395
0.941922
0.939203
0.937009
0.935228
0.933824
0.932882
0.932396
0.932363
0.932729
0.933356
0.934033
0.934609
0.934931
0.934831
0.934174
0.932956
0.931138
0.928706
0.92573
0.922359
0.918627
0.914521
0.909941
0.904742
0.898817
0.892175
0.88472
0.876459
0.867329
0.857384
0.846694
0.835363
0.823554
0.811309
0.798712
0.78572
0.77249
0.759021
0.745412
0.73157
0.717633
0.703771
0.690135
0.67595
0.662225
0.648455
0.635059
0.622179
0.609898
0.598197
0.587062
0.576306
0.565848
0.55563
0.545789
0.536512
0.527803
0.51961
0.51184
0.504282
0.496803
0.489098
0.481194
0.473084
0.463932
0.453458
0.441684
0.426934
0.412923
0.397041
0.384757
0.376776
0.371652
0.364776
1.11915
1.1056
1.09143
1.07636
1.06033
1.04353
1.02648
1.00994
0.994703
0.981389
0.970163
0.960988
0.953626
0.94784
0.943351
0.93992
0.937357
0.935457
0.934129
0.933361
0.933082
0.933275
0.933929
0.934894
0.935909
0.936751
0.937284
0.937426
0.937118
0.936315
0.934927
0.932911
0.930292
0.927231
0.923759
0.919894
0.915568
0.910689
0.905157
0.898954
0.891947
0.88405
0.875136
0.86528
0.854594
0.843267
0.831491
0.819282
0.806673
0.793578
0.780079
0.766278
0.752295
0.737993
0.723515
0.70925
0.694533
0.68019
0.665955
0.652018
0.638565
0.625741
0.61356
0.601942
0.59084
0.580127
0.569764
0.559679
0.549996
0.540736
0.532006
0.523714
0.515709
0.5078
0.499841
0.491501
0.482957
0.474011
0.4635
0.451506
0.438165
0.421966
0.405407
0.387769
0.373666
0.364377
0.355594
0.343196
1.11814
1.10502
1.09174
1.07801
1.06363
1.04857
1.03309
1.01758
1.00262
0.988844
0.976653
0.966274
0.95761
0.950533
0.944948
0.940637
0.937395
0.935027
0.933469
0.932662
0.932527
0.932944
0.933815
0.934969
0.936199
0.937343
0.938268
0.938873
0.939055
0.938753
0.93788
0.936397
0.934291
0.931685
0.928615
0.925144
0.921186
0.916609
0.911294
0.905209
0.898288
0.890538
0.881903
0.872419
0.862147
0.851181
0.839671
0.827597
0.814957
0.801718
0.787896
0.773732
0.759305
0.74453
0.7296
0.71478
0.699501
0.684627
0.67003
0.655898
0.642291
0.629327
0.617028
0.605427
0.594463
0.583999
0.57387
0.564003
0.554426
0.545216
0.536385
0.527896
0.519548
0.51133
0.503042
0.494385
0.485392
0.475569
0.463883
0.450215
0.435437
0.418169
0.399756
0.381946
0.36735
0.357893
0.347551
0.334468
1.11861
1.10555
1.09257
1.07948
1.06605
1.0522
1.03812
1.02402
1.01014
0.996833
0.984446
0.973386
0.963623
0.955132
0.947981
0.942129
0.937548
0.934161
0.931897
0.930621
0.930207
0.930544
0.931489
0.932876
0.93448
0.936061
0.93747
0.938625
0.939435
0.939801
0.939632
0.938822
0.937335
0.93527
0.932653
0.929568
0.925971
0.921813
0.916993
0.911462
0.905075
0.897805
0.889522
0.880268
0.870067
0.859107
0.847581
0.835485
0.822857
0.809606
0.795695
0.781354
0.766588
0.751286
0.735993
0.720427
0.704931
0.689644
0.674801
0.660436
0.646645
0.633498
0.621112
0.609467
0.598508
0.58809
0.578066
0.568336
0.558877
0.549748
0.540914
0.532398
0.523975
0.515601
0.506969
0.497877
0.48808
0.477001
0.464066
0.449198
0.433024
0.416001
0.397327
0.379688
0.364339
0.354211
0.344963
0.335741
1.12224
1.10879
1.09557
1.08237
1.06903
1.05552
1.042
1.0286
1.01543
1.0026
0.990365
0.979006
0.968627
0.959315
0.951171
0.944239
0.938545
0.934066
0.930766
0.928612
0.927545
0.927467
0.928202
0.929559
0.931305
0.933218
0.935103
0.936828
0.938274
0.939365
0.940053
0.940232
0.939777
0.938639
0.936818
0.93441
0.931356
0.927599
0.922989
0.917548
0.911185
0.90407
0.896075
0.887306
0.877658
0.867201
0.856012
0.844048
0.831479
0.818083
0.803988
0.789236
0.77388
0.758036
0.742469
0.72644
0.710652
0.695085
0.679932
0.665351
0.651407
0.638146
0.625617
0.613849
0.602803
0.592388
0.582448
0.572887
0.563613
0.554666
0.545965
0.537474
0.528982
0.520418
0.511436
0.50172
0.490922
0.478947
0.465182
0.449394
0.432477
0.414975
0.396425
0.379142
0.365173
0.355731
0.349074
0.345355
1.12739
1.11328
1.09959
1.08615
1.07283
1.05956
1.04639
1.03337
1.02062
1.00827
0.996506
0.985419
0.975083
0.965534
0.956812
0.948966
0.942085
0.936263
0.931599
0.928161
0.925946
0.924893
0.924871
0.925714
0.927235
0.9292
0.931377
0.933588
0.935676
0.93749
0.938915
0.939748
0.939843
0.939208
0.93793
0.936123
0.93374
0.930793
0.927122
0.922763
0.917415
0.91124
0.903938
0.8957
0.886321
0.875853
0.864417
0.852098
0.839283
0.825814
0.811624
0.796854
0.781299
0.765448
0.749377
0.733132
0.71701
0.701218
0.685882
0.671088
0.656941
0.643492
0.630766
0.618806
0.607568
0.597024
0.58704
0.577539
0.568399
0.559565
0.550942
0.542448
0.533866
0.525037
0.515604
0.505421
0.494122
0.481374
0.466653
0.450162
0.433035
0.415659
0.397688
0.381691
0.369859
0.362168
0.358697
0.360602
1.13546
1.12111
1.10701
1.09303
1.07913
1.06538
1.05187
1.03873
1.026
1.01373
1.00202
0.990913
0.980477
0.970738
0.961719
0.953436
0.945926
0.939279
0.933617
0.929034
0.925613
0.923402
0.922372
0.922385
0.923211
0.924673
0.926564
0.928702
0.930902
0.932995
0.934889
0.936528
0.937851
0.938656
0.938767
0.938144
0.936739
0.934624
0.931634
0.927814
0.922857
0.91705
0.910059
0.902216
0.893327
0.883405
0.872423
0.860566
0.847977
0.834676
0.820312
0.805086
0.789086
0.772929
0.756409
0.739904
0.723614
0.707657
0.69215
0.677189
0.662871
0.64926
0.636379
0.624253
0.61285
0.602173
0.592139
0.582662
0.573584
0.564786
0.556131
0.547455
0.538573
0.529287
0.519295
0.508414
0.496418
0.48306
0.468535
0.45242
0.434707
0.416675
0.398771
0.383288
0.372894
0.368553
0.370028
0.379688
1.14383
1.12908
1.11464
1.10042
1.08639
1.07258
1.059
1.0457
1.03274
1.02027
1.00842
0.997286
0.986907
0.977265
0.968321
0.960032
0.95238
0.945406
0.939183
0.933792
0.929338
0.925914
0.92357
0.922255
0.921812
0.922191
0.923292
0.924909
0.926887
0.929011
0.931175
0.933248
0.935088
0.936529
0.937436
0.937726
0.937233
0.935954
0.933803
0.930888
0.926955
0.922177
0.916136
0.909213
0.901087
0.891718
0.880799
0.868544
0.855455
0.841723
0.827349
0.812351
0.796789
0.780656
0.764099
0.747418
0.730869
0.714663
0.698983
0.683947
0.669573
0.655899
0.642891
0.630557
0.618871
0.607832
0.597419
0.587598
0.578264
0.569271
0.560427
0.551552
0.542397
0.532721
)
;

boundaryField
{
    inlet
    {
        type            fixedValue;
        value           nonuniform 0();
    }
    outlet
    {
        type            zeroGradient;
    }
    bottom
    {
        type            symmetryPlane;
    }
    top
    {
        type            symmetryPlane;
    }
    obstacle
    {
        type            zeroGradient;
    }
    front
    {
        type            empty;
    }
    back
    {
        type            empty;
    }
    procBoundary12to4
    {
        type            processor;
        value           nonuniform List<scalar> 
89
(
0.481061
0.48575
0.490206
0.494396
0.498595
0.502677
0.506606
0.510238
0.513618
0.516854
0.520024
0.523209
0.526461
0.52977
0.533117
0.536473
0.539817
0.543095
0.546252
0.549242
0.552092
0.554875
0.55767
0.560548
0.563534
0.566595
0.569645
0.572592
0.575381
0.577997
0.580463
0.582817
0.585092
0.587325
0.589601
0.592158
0.595027
0.597947
0.60094
0.60384
0.606786
0.609954
0.613381
0.616944
0.619587
0.621364
0.623037
0.624726
0.626471
0.627469
0.629146
0.974952
0.950036
0.929964
0.913227
0.89812
0.884275
0.872486
0.863424
0.856881
0.852515
0.850036
0.849156
0.849061
0.848458
0.847073
0.844759
0.838504
0.828753
0.817247
0.806045
0.798056
0.794992
0.795164
0.794155
0.786394
0.774474
0.758608
0.727572
0.683566
0.63044
0.575466
0.528432
0.495761
0.478313
0.472368
0.472878
0.476077
0.476077
)
;
    }
    procBoundary12to5
    {
        type            processor;
        value           nonuniform List<scalar> 
27
(
0.616889
0.603654
0.594116
0.585711
0.578671
0.569358
0.558672
0.545699
0.534752
0.52775
0.523137
0.51935
0.515791
0.511127
0.501384
0.48902
0.469277
0.450028
0.421283
0.382498
0.340949
0.322011
0.321165
0.330371
0.345568
0.364836
0.388638
)
;
    }
    procBoundary12to11
    {
        type            processor;
        value           nonuniform List<scalar> 
26
(
1.01429
1.02196
1.02893
1.03536
1.04081
1.04552
1.04989
1.05336
1.05479
1.05757
1.06167
1.06846
1.08064
1.09778
1.11867
1.13689
1.14797
1.14996
1.14411
1.13646
1.13225
1.13124
1.13191
1.13603
1.14195
1.15007
)
;
    }
    procBoundary12to19
    {
        type            processor;
        value           uniform 1.15878;
    }
    procBoundary12to20
    {
        type            processor;
        value           nonuniform List<scalar> 
89
(
0.522299
0.510879
0.498333
0.484276
0.468936
0.452205
0.434796
0.417313
0.400058
0.385937
0.37756
0.376469
0.383635
0.400899
1.1525
1.138
1.12362
1.10929
1.09513
1.08126
1.06758
1.05402
1.04068
1.02783
1.01566
1.00427
0.993743
0.984041
0.975095
0.966805
0.959089
0.951896
0.945219
0.9391
0.93364
0.928963
0.925222
0.92256
0.921026
0.92048
0.920798
0.921592
0.922871
0.924458
0.92628
0.928248
0.930183
0.931874
0.93331
0.934386
0.93491
0.934711
0.933748
0.931991
0.929266
0.925581
0.920527
0.914142
0.906311
0.897241
0.886964
0.875546
0.863383
0.850117
0.836321
0.820847
0.804278
0.787425
0.770665
0.754037
0.737605
0.721525
0.705943
0.690965
0.676605
0.662874
0.649738
0.637156
0.625129
0.613687
0.60287
0.592664
0.582972
0.573626
0.564424
0.555111
0.545419
0.522299
0.535113
)
;
    }
}


// ************************************************************************* //
