/*--------------------------------*- C++ -*----------------------------------*\
  =========                 |
  \\      /  F ield         | OpenFOAM: The Open Source CFD Toolbox
   \\    /   O peration     | Website:  https://openfoam.org
    \\  /    A nd           | Version:  7
     \\/     M anipulation  |
\*---------------------------------------------------------------------------*/
FoamFile
{
    version     2.0;
    format      ascii;
    class       volScalarField;
    location    "19";
    object      T;
}
// * * * * * * * * * * * * * * * * * * * * * * * * * * * * * * * * * * * * * //

dimensions      [0 0 0 1 0 0 0];

internalField   nonuniform List<scalar> 
2418
(
1.03725
1.03612
1.03501
1.03392
1.03291
1.03193
1.03071
1.02914
1.02787
1.02775
1.02803
1.02931
1.03343
1.04361
1.05869
1.072
1.07999
1.08149
1.08184
1.08221
1.08138
1.08035
1.0811
1.08135
1.08097
1.08197
1.08269
1.0821
1.08214
1.08259
1.082
1.08089
1.08053
1.07967
1.07843
1.07703
1.07549
1.07394
1.07299
1.073
1.07307
1.07356
1.0384
1.03738
1.0367
1.03648
1.03607
1.03604
1.03631
1.03704
1.03842
1.04027
1.0427
1.04582
1.04905
1.05206
1.0552
1.05818
1.06005
1.06199
1.06366
1.06457
1.06549
1.06581
1.0661
1.06659
1.0668
1.06716
1.06777
1.06873
1.07021
1.07204
1.07294
1.07296
1.07251
1.07167
1.07075
1.06974
1.06858
1.06732
1.06605
1.06476
1.06358
1.06267
1.06176
1.06081
1.06002
1.05925
1.0585
1.05793
1.05734
1.05671
1.05626
1.05573
1.05506
1.0547
1.05438
1.05385
1.05353
1.05355
1.05337
1.05308
1.05314
1.05321
1.05279
1.05263
1.05265
1.05213
1.05178
1.05184
1.05148
1.051
1.05099
1.05084
1.05023
1.04999
1.04981
1.04921
1.0486
1.0482
1.0476
1.04681
1.04612
1.04541
1.04453
1.0437
1.04291
1.04201
1.0411
1.04017
1.03922
1.03825
1.03726
1.03628
1.03531
1.03438
1.03347
1.03268
1.03192
1.03068
1.02912
1.02869
1.02879
1.0293
1.03118
1.03688
1.04825
1.06482
1.07842
1.08651
1.09201
1.09474
1.09481
1.09446
1.0953
1.09464
1.09348
1.09365
1.09303
1.09171
1.09119
1.09023
1.08888
1.08743
1.0861
1.08472
1.08312
1.08129
1.07954
1.07789
1.07753
1.07794
1.07831
1.07988
1.04154
1.04082
1.04054
1.04058
1.0409
1.04193
1.04363
1.04631
1.04901
1.05188
1.05563
1.05858
1.06084
1.06333
1.06569
1.06687
1.06785
1.06924
1.06964
1.06978
1.06992
1.06974
1.06929
1.06867
1.06817
1.06796
1.06792
1.06822
1.06909
1.07079
1.072
1.07212
1.07176
1.07107
1.07019
1.06917
1.06808
1.06696
1.06581
1.06458
1.06339
1.06226
1.06117
1.06011
1.0591
1.05815
1.05737
1.05669
1.05603
1.05547
1.05493
1.05422
1.05353
1.05299
1.05236
1.05171
1.05128
1.05092
1.05046
1.05
1.04974
1.04941
1.04895
1.0487
1.04841
1.04777
1.04747
1.04739
1.04688
1.04653
1.04661
1.04649
1.04593
1.04582
1.04578
1.04521
1.04467
1.04453
1.04411
1.04334
1.04293
1.04247
1.04169
1.04106
1.04054
1.03981
1.03901
1.03832
1.0376
1.03679
1.03597
1.03516
1.03438
1.03363
1.03294
1.03228
1.03166
1.03089
1.0298
1.02935
1.02951
1.03025
1.03177
1.03459
1.04201
1.05618
1.07437
1.08866
1.09872
1.1051
1.10767
1.10817
1.1083
1.10696
1.10533
1.10397
1.10224
1.10042
1.09863
1.09662
1.09461
1.09248
1.09036
1.08848
1.0865
1.08457
1.08318
1.08246
1.08288
1.08394
1.0851
1.0881
1.045
1.04552
1.04655
1.04798
1.05045
1.05295
1.05623
1.05955
1.06188
1.06507
1.06743
1.0687
1.0704
1.0715
1.07222
1.07249
1.07269
1.07291
1.0728
1.07254
1.07208
1.07163
1.07108
1.07031
1.06947
1.06868
1.06832
1.06814
1.06802
1.06883
1.06981
1.07059
1.07093
1.07081
1.07032
1.06946
1.0684
1.06728
1.06611
1.06491
1.06369
1.06245
1.06133
1.06031
1.05934
1.05846
1.0576
1.0567
1.0558
1.05502
1.05428
1.05353
1.05288
1.05229
1.05161
1.05098
1.05041
1.04982
1.04916
1.04852
1.04792
1.04729
1.04667
1.046
1.04525
1.04456
1.04405
1.0435
1.04282
1.04239
1.04219
1.04176
1.04122
1.04109
1.04101
1.04046
1.04
1.03994
1.03955
1.03883
1.03855
1.03823
1.0375
1.03698
1.03673
1.03618
1.03538
1.03498
1.03454
1.03395
1.03339
1.03291
1.03247
1.03209
1.03189
1.0318
1.03183
1.03181
1.03186
1.0321
1.03291
1.03456
1.037
1.04069
1.04618
1.05505
1.07003
1.08676
1.09977
1.10948
1.11388
1.11558
1.1165
1.1162
1.11519
1.11373
1.11177
1.1094
1.10671
1.10366
1.10073
1.09782
1.09503
1.09269
1.09048
1.08872
1.0879
1.08778
1.08926
1.09121
1.09367
1.09764
1.0505
1.05341
1.0562
1.06014
1.06369
1.06601
1.06947
1.07147
1.07283
1.07483
1.07519
1.07538
1.07612
1.07613
1.07599
1.07585
1.0756
1.07512
1.07448
1.07369
1.07285
1.07198
1.071
1.07002
1.06904
1.0681
1.0674
1.06702
1.06675
1.06709
1.06801
1.06897
1.07001
1.07037
1.07021
1.06971
1.069
1.06815
1.06718
1.0661
1.0649
1.06359
1.06225
1.06096
1.05982
1.05885
1.05793
1.05699
1.05601
1.05502
1.05415
1.05347
1.05294
1.05243
1.05183
1.05114
1.05028
1.04937
1.04849
1.04769
1.04694
1.04615
1.04535
1.04449
1.04363
1.04287
1.04212
1.04128
1.0404
1.03963
1.03895
1.03827
1.03764
1.03714
1.03661
1.03591
1.03538
1.03497
1.03434
1.03376
1.03344
1.03295
1.03222
1.03184
1.03176
1.03134
1.03076
1.03054
1.03036
1.03012
1.02998
1.02989
1.02979
1.03002
1.03065
1.03157
1.03251
1.03353
1.0348
1.03647
1.03876
1.0417
1.04494
1.04823
1.05163
1.05624
1.06476
1.07921
1.09374
1.10603
1.11453
1.11756
1.11852
1.11826
1.11736
1.11634
1.11532
1.11401
1.11188
1.10939
1.10653
1.10358
1.10061
1.0979
1.09557
1.09428
1.09378
1.09449
1.09732
1.09997
1.10345
1.10647
1.06068
1.06456
1.06876
1.07275
1.07489
1.07694
1.07941
1.07992
1.08028
1.08088
1.08082
1.0804
1.08008
1.07958
1.07889
1.07815
1.07739
1.07652
1.07552
1.07441
1.07325
1.07204
1.07078
1.06961
1.06851
1.06747
1.06659
1.06616
1.06592
1.06602
1.06674
1.06743
1.06858
1.06982
1.06999
1.06981
1.06933
1.06866
1.06792
1.06712
1.06619
1.06509
1.06386
1.06263
1.06147
1.06032
1.05914
1.05803
1.05698
1.05598
1.05506
1.0542
1.05332
1.05242
1.05157
1.05078
1.04994
1.04905
1.04812
1.04718
1.04623
1.04531
1.04445
1.04359
1.04276
1.04191
1.04103
1.04011
1.03918
1.03829
1.03745
1.03661
1.03577
1.03492
1.03403
1.03312
1.03224
1.03136
1.03046
1.02968
1.029
1.0282
1.02745
1.02701
1.02665
1.02624
1.02588
1.02568
1.02561
1.02572
1.02603
1.0266
1.02704
1.02728
1.02761
1.02906
1.03219
1.03567
1.03943
1.04279
1.04564
1.04815
1.04999
1.05159
1.05311
1.05521
1.05893
1.06655
1.079
1.09263
1.10561
1.11225
1.11504
1.11621
1.11596
1.11487
1.11396
1.113
1.11201
1.11089
1.10931
1.10747
1.10558
1.10368
1.10224
1.10156
1.10159
1.10396
1.10743
1.11077
1.11316
1.11355
1.07103
1.07503
1.07835
1.08045
1.08209
1.08334
1.0839
1.08421
1.08439
1.08426
1.08403
1.08355
1.08287
1.08202
1.08101
1.07989
1.07872
1.07749
1.07623
1.07496
1.07368
1.07238
1.07112
1.06993
1.06884
1.06777
1.06679
1.06612
1.06576
1.06568
1.06604
1.06641
1.06724
1.06849
1.06913
1.06955
1.06961
1.06941
1.06896
1.06832
1.06755
1.06658
1.06538
1.06409
1.06282
1.06158
1.06038
1.05927
1.05825
1.05726
1.05629
1.05527
1.05417
1.05304
1.05198
1.05102
1.05013
1.04925
1.04836
1.04747
1.04653
1.04554
1.04449
1.04343
1.04243
1.0414
1.04042
1.03951
1.03858
1.03768
1.0368
1.03592
1.03501
1.03402
1.03295
1.03189
1.03082
1.02974
1.02866
1.02766
1.02682
1.02596
1.02514
1.02439
1.02376
1.02332
1.02285
1.02252
1.02246
1.02268
1.02334
1.02476
1.02747
1.03077
1.03457
1.03866
1.04168
1.04442
1.04721
1.04937
1.05093
1.05153
1.05167
1.05202
1.0525
1.05314
1.05441
1.05718
1.06335
1.07336
1.08609
1.09709
1.10328
1.10809
1.10953
1.10935
1.11003
1.11043
1.11036
1.10966
1.10861
1.10774
1.10707
1.10693
1.10714
1.10776
1.11033
1.11468
1.11809
1.11991
1.12006
1.11931
1.07819
1.08083
1.0826
1.08407
1.08529
1.08617
1.08671
1.08722
1.08725
1.08692
1.08613
1.08521
1.08444
1.08365
1.08253
1.08134
1.08004
1.07862
1.07723
1.0759
1.07459
1.07326
1.07198
1.07079
1.06964
1.06853
1.06749
1.06663
1.06602
1.06582
1.06591
1.06591
1.06618
1.0673
1.06807
1.06903
1.06975
1.06985
1.06965
1.0692
1.06862
1.06792
1.06707
1.06609
1.06502
1.06385
1.06259
1.06132
1.06007
1.0588
1.05755
1.05633
1.05519
1.05412
1.05308
1.05203
1.05097
1.04988
1.0488
1.04777
1.04676
1.04574
1.04461
1.04346
1.04235
1.04121
1.04008
1.03911
1.03819
1.03733
1.03647
1.03559
1.03466
1.0336
1.03243
1.0313
1.03024
1.02919
1.02812
1.02708
1.02626
1.02555
1.02493
1.02422
1.02371
1.0236
1.0239
1.02479
1.02652
1.02863
1.03165
1.03528
1.03831
1.04175
1.04537
1.04726
1.04843
1.05046
1.0516
1.05168
1.05151
1.05096
1.05042
1.05026
1.05016
1.05002
1.05015
1.05088
1.05312
1.0583
1.06651
1.0767
1.08574
1.09152
1.09657
1.09938
1.10118
1.1029
1.10465
1.10509
1.10498
1.10522
1.10579
1.10707
1.1093
1.11289
1.11814
1.12301
1.12556
1.12591
1.12535
1.12378
1.08002
1.08202
1.08349
1.08471
1.08576
1.08647
1.08674
1.08696
1.08703
1.08672
1.08597
1.0854
1.08469
1.08358
1.08239
1.08132
1.0802
1.07905
1.07796
1.07687
1.07575
1.07454
1.07331
1.07212
1.07092
1.06977
1.06871
1.06768
1.06679
1.06626
1.06609
1.06599
1.06602
1.06659
1.06698
1.06746
1.06872
1.06934
1.06941
1.06937
1.06913
1.06868
1.06808
1.06737
1.0666
1.06573
1.0647
1.06351
1.06217
1.06074
1.05931
1.05794
1.05664
1.0555
1.05445
1.0534
1.05233
1.05119
1.05001
1.04883
1.04768
1.04658
1.04543
1.04426
1.04316
1.04205
1.0409
1.03978
1.03867
1.03756
1.03639
1.03527
1.03421
1.03313
1.03202
1.03097
1.03004
1.02915
1.02829
1.02742
1.02673
1.02628
1.02614
1.02636
1.02728
1.02885
1.03095
1.03434
1.03748
1.04083
1.04495
1.04743
1.0497
1.05265
1.05357
1.05398
1.05459
1.05506
1.05479
1.05401
1.0531
1.05217
1.05111
1.04991
1.04879
1.04789
1.04751
1.04749
1.04807
1.05041
1.05509
1.06131
1.06825
1.07376
1.0781
1.08203
1.08609
1.08981
1.09282
1.09569
1.09903
1.10206
1.10473
1.10789
1.11172
1.11707
1.12297
1.12745
1.12839
1.12809
1.12705
1.12518
1.07897
1.08083
1.08224
1.0831
1.08437
1.08515
1.08494
1.0849
1.08513
1.08468
1.08389
1.08381
1.08347
1.08271
1.08218
1.08149
1.08046
1.07947
1.07854
1.07762
1.0767
1.07566
1.07456
1.07344
1.07232
1.07125
1.07021
1.06917
1.06817
1.06735
1.0668
1.06648
1.06637
1.06661
1.06672
1.06681
1.06777
1.06863
1.06901
1.06945
1.06964
1.06954
1.06927
1.06884
1.0682
1.06732
1.06624
1.06503
1.06379
1.06255
1.06134
1.06013
1.05886
1.05759
1.05632
1.05504
1.05384
1.05272
1.05161
1.0504
1.04908
1.04778
1.04651
1.04527
1.04414
1.04312
1.04208
1.04091
1.03968
1.03845
1.03721
1.03607
1.03505
1.034
1.03292
1.03184
1.03095
1.03027
1.02973
1.02943
1.02976
1.03091
1.03231
1.03477
1.03798
1.04089
1.04522
1.04876
1.05109
1.05467
1.05661
1.05729
1.05847
1.059
1.05854
1.05792
1.05748
1.05677
1.05587
1.05476
1.05359
1.05239
1.05106
1.0496
1.04813
1.04654
1.046
1.04611
1.04634
1.04729
1.04997
1.05438
1.05949
1.06311
1.065
1.06672
1.06916
1.07233
1.0759
1.08025
1.08535
1.09138
1.09807
1.1051
1.11234
1.11944
1.12507
1.12816
1.12812
1.12726
1.12538
1.12339
1.07751
1.07819
1.07941
1.07991
1.08077
1.08186
1.08173
1.08173
1.08244
1.0823
1.08185
1.08216
1.08208
1.08143
1.08126
1.0809
1.08021
1.07963
1.07905
1.0784
1.07753
1.07669
1.07586
1.07487
1.07391
1.07296
1.07193
1.07087
1.06989
1.06893
1.06812
1.06754
1.06711
1.0671
1.06729
1.06725
1.06761
1.06839
1.06898
1.06974
1.07025
1.07039
1.07034
1.07006
1.06953
1.06879
1.06782
1.06667
1.06543
1.06417
1.06306
1.06204
1.06096
1.05982
1.05862
1.05731
1.05602
1.05484
1.05371
1.05254
1.05129
1.05001
1.0487
1.04733
1.04586
1.04433
1.0429
1.04158
1.04039
1.0394
1.03845
1.0375
1.03674
1.03603
1.03529
1.03453
1.03441
1.03492
1.03575
1.03738
1.04032
1.04324
1.04702
1.05154
1.05449
1.05808
1.06149
1.06258
1.06405
1.06566
1.06541
1.06505
1.06477
1.06412
1.06308
1.06182
1.06051
1.05903
1.05746
1.05586
1.05426
1.05266
1.05108
1.04947
1.04789
1.04631
1.04549
1.0454
1.04564
1.04617
1.04771
1.05094
1.0558
1.0599
1.06046
1.06063
1.06077
1.06129
1.0625
1.06504
1.06938
1.07585
1.08473
1.09572
1.10654
1.11569
1.12161
1.12291
1.123
1.12273
1.1217
1.12053
1.07581
1.07546
1.07593
1.07637
1.07651
1.0775
1.07788
1.07783
1.07877
1.07917
1.07892
1.07955
1.07998
1.07956
1.07969
1.07969
1.07909
1.07869
1.07853
1.07803
1.07731
1.07699
1.07652
1.07582
1.07507
1.07439
1.07347
1.07251
1.07169
1.07072
1.06974
1.069
1.06824
1.06807
1.06815
1.06801
1.06817
1.06868
1.06932
1.0702
1.07085
1.07125
1.07127
1.07118
1.07092
1.07045
1.06975
1.06889
1.06794
1.06684
1.06562
1.06434
1.06299
1.06169
1.06051
1.0593
1.05805
1.0568
1.05555
1.05433
1.05314
1.05205
1.05094
1.04965
1.04822
1.0467
1.04533
1.04418
1.04313
1.04215
1.04133
1.04039
1.03988
1.04021
1.04085
1.04205
1.04463
1.04733
1.05069
1.05535
1.0588
1.06244
1.06684
1.06847
1.06989
1.07219
1.07264
1.07203
1.07173
1.0713
1.07045
1.0694
1.06829
1.06701
1.06554
1.06404
1.06251
1.06087
1.05914
1.05738
1.05561
1.05378
1.05205
1.05036
1.04858
1.0468
1.04545
1.04515
1.04539
1.0457
1.04642
1.04863
1.05263
1.05753
1.05901
1.05924
1.05922
1.05906
1.05906
1.05957
1.06133
1.06527
1.07262
1.08342
1.09396
1.1018
1.10855
1.1121
1.1137
1.11565
1.1167
1.11613
1.07619
1.0756
1.07468
1.07386
1.07298
1.0731
1.07374
1.07379
1.07424
1.07534
1.07547
1.07606
1.07715
1.07708
1.07727
1.07796
1.07788
1.07747
1.07752
1.07742
1.07676
1.07647
1.07633
1.0757
1.07518
1.07479
1.07411
1.07351
1.07285
1.07212
1.07137
1.07062
1.0698
1.0694
1.06926
1.06914
1.06915
1.06917
1.06978
1.07047
1.07108
1.07188
1.07204
1.07207
1.07221
1.07212
1.07178
1.07121
1.0705
1.06958
1.06845
1.06717
1.06584
1.06457
1.06342
1.06226
1.06104
1.0598
1.05847
1.05707
1.05559
1.05407
1.05264
1.05123
1.05011
1.0493
1.04882
1.04853
1.04812
1.04799
1.0485
1.0492
1.05087
1.05338
1.05644
1.06104
1.06502
1.06873
1.07352
1.07638
1.07841
1.08128
1.08234
1.0822
1.08235
1.0823
1.08153
1.08014
1.0785
1.07674
1.07492
1.07313
1.07137
1.06954
1.06767
1.06587
1.0641
1.06236
1.06069
1.059
1.05733
1.05558
1.05375
1.052
1.0502
1.04817
1.04637
1.04566
1.04559
1.04567
1.04591
1.04703
1.04983
1.05421
1.05783
1.0586
1.05881
1.05882
1.05908
1.0601
1.06284
1.06761
1.0742
1.07982
1.08443
1.08839
1.09206
1.09635
1.09905
1.10179
1.10528
1.10622
1.07693
1.07586
1.07486
1.07389
1.07297
1.07195
1.07126
1.07056
1.07043
1.07087
1.07131
1.07156
1.07281
1.07356
1.07366
1.07466
1.07532
1.07502
1.07527
1.07581
1.07548
1.07521
1.07535
1.07514
1.07463
1.07443
1.07421
1.07359
1.0732
1.07287
1.07221
1.07174
1.07129
1.07067
1.07048
1.07038
1.07015
1.07005
1.07052
1.07097
1.07145
1.0725
1.07288
1.07313
1.07367
1.07388
1.07374
1.07339
1.0728
1.07202
1.07108
1.07004
1.06899
1.06789
1.06679
1.06568
1.06445
1.06331
1.06217
1.06093
1.05968
1.05837
1.05738
1.05659
1.0561
1.05616
1.05689
1.05795
1.05971
1.06261
1.06555
1.06962
1.0739
1.07714
1.0819
1.08527
1.08717
1.09018
1.09115
1.09108
1.0915
1.09163
1.09093
1.08969
1.08858
1.08736
1.08587
1.08421
1.08248
1.08059
1.07858
1.07654
1.0745
1.07245
1.07042
1.06846
1.06652
1.06462
1.06279
1.06101
1.05928
1.05756
1.05581
1.05407
1.05235
1.05032
1.04826
1.0467
1.04578
1.04571
1.04582
1.04607
1.04773
1.05103
1.05572
1.05841
1.05895
1.05954
1.06073
1.06324
1.06753
1.07282
1.07783
1.08088
1.08136
1.08157
1.08192
1.08275
1.08459
1.08656
1.08985
1.09305
1.07848
1.07701
1.0757
1.07447
1.07343
1.07261
1.0718
1.07111
1.07024
1.06958
1.06881
1.06821
1.06838
1.06914
1.06939
1.0699
1.07128
1.07164
1.07178
1.07279
1.07314
1.07286
1.07328
1.07363
1.07327
1.0733
1.07337
1.07283
1.0726
1.0725
1.07183
1.07149
1.07132
1.07076
1.07069
1.07061
1.07034
1.0706
1.07079
1.07086
1.07158
1.07272
1.0732
1.07405
1.07509
1.07531
1.07557
1.07558
1.07546
1.07534
1.07498
1.0744
1.0737
1.07287
1.07191
1.07096
1.0699
1.0689
1.06832
1.06797
1.06801
1.0685
1.06979
1.07113
1.07307
1.07565
1.07846
1.08128
1.08527
1.0888
1.09248
1.09658
1.09874
1.10126
1.10424
1.10443
1.10477
1.10496
1.10438
1.10312
1.10172
1.10011
1.09815
1.09602
1.09388
1.09166
1.08941
1.08724
1.08514
1.08308
1.08105
1.079
1.07691
1.07484
1.07282
1.07084
1.06891
1.06699
1.06503
1.06312
1.06128
1.05945
1.05772
1.056
1.05424
1.05241
1.05025
1.04805
1.04633
1.04579
1.04569
1.04574
1.04665
1.04881
1.05245
1.05669
1.05901
1.06107
1.06416
1.06889
1.07446
1.07932
1.08141
1.08143
1.08098
1.07986
1.07839
1.07702
1.0767
1.07694
1.07767
1.07976
1.08051
1.07884
1.07727
1.0758
1.07453
1.07339
1.07235
1.07132
1.07028
1.06927
1.06842
1.06759
1.0666
1.0659
1.06545
1.0654
1.06598
1.06695
1.06713
1.06786
1.06901
1.06895
1.0693
1.07046
1.07039
1.0706
1.07132
1.07106
1.07107
1.07135
1.07096
1.07087
1.07087
1.07057
1.07071
1.07075
1.07049
1.07073
1.07117
1.07116
1.07161
1.07297
1.07365
1.0746
1.07603
1.07672
1.07774
1.07858
1.07917
1.08007
1.08091
1.08136
1.08167
1.08205
1.08224
1.08259
1.08351
1.08397
1.08503
1.08665
1.0882
1.09118
1.09363
1.09629
1.09948
1.10283
1.10535
1.10797
1.11089
1.11154
1.11308
1.11427
1.11385
1.11402
1.1139
1.11326
1.11236
1.11132
1.10999
1.10835
1.10661
1.10464
1.1024
1.10004
1.09764
1.09516
1.09268
1.09026
1.08785
1.08549
1.08327
1.08113
1.07904
1.07704
1.0751
1.07314
1.07121
1.06928
1.06729
1.06534
1.06343
1.06152
1.05973
1.05799
1.05615
1.05438
1.0524
1.05001
1.04778
1.0462
1.04592
1.04635
1.04671
1.04752
1.04988
1.05411
1.05875
1.06369
1.06958
1.07659
1.08226
1.08398
1.08378
1.08272
1.0811
1.07919
1.07718
1.0755
1.07408
1.07312
1.07231
1.07222
1.08285
1.08116
1.0795
1.07789
1.07635
1.07487
1.07351
1.07219
1.07093
1.06974
1.06869
1.06767
1.06665
1.06567
1.06472
1.06374
1.06328
1.06292
1.06295
1.063
1.06379
1.06425
1.06438
1.06547
1.06604
1.06633
1.06749
1.06782
1.06812
1.06903
1.06925
1.06972
1.07012
1.07032
1.07095
1.07146
1.07161
1.07206
1.07285
1.07323
1.07377
1.07498
1.07634
1.07779
1.07967
1.0816
1.08361
1.08576
1.088
1.09037
1.09269
1.09495
1.09737
1.0996
1.1017
1.10427
1.10668
1.10901
1.11178
1.11401
1.11701
1.1198
1.12165
1.1244
1.12641
1.12881
1.12991
1.13079
1.13141
1.13085
1.13008
1.12919
1.1277
1.12579
1.12359
1.12128
1.11884
1.11647
1.11424
1.11221
1.11015
1.10787
1.10546
1.10306
1.10064
1.09824
1.09574
1.09323
1.09084
1.08828
1.08569
1.08325
1.08096
1.07881
1.07676
1.07474
1.07279
1.07088
1.06896
1.06707
1.06517
1.06329
1.06146
1.05964
1.05774
1.05588
1.05403
1.05186
1.04943
1.04702
1.04593
1.04596
1.0463
1.04682
1.04828
1.0517
1.05755
1.06515
1.07502
1.08469
1.08735
1.08719
1.08623
1.08431
1.08181
1.0793
1.07701
1.07503
1.07326
1.07176
1.07044
1.06937
1.08501
1.08333
1.08164
1.07996
1.07829
1.07668
1.07511
1.07359
1.07213
1.07068
1.06935
1.06806
1.0668
1.06568
1.0646
1.0635
1.06233
1.06136
1.06038
1.05954
1.05951
1.05961
1.05949
1.0599
1.06059
1.06102
1.06197
1.06295
1.06381
1.0649
1.06605
1.06715
1.06824
1.06942
1.07064
1.0718
1.0731
1.07452
1.07598
1.07748
1.07907
1.08096
1.08318
1.08548
1.08797
1.09079
1.09402
1.09751
1.10094
1.10453
1.10846
1.11213
1.11541
1.11895
1.12174
1.12429
1.12701
1.12998
1.1316
1.13328
1.13597
1.1366
1.13757
1.13908
1.13916
1.13925
1.13908
1.13875
1.13834
1.13753
1.13634
1.13482
1.13294
1.13057
1.12787
1.12495
1.12185
1.11874
1.11574
1.1128
1.10998
1.10726
1.10465
1.10214
1.09972
1.09741
1.09518
1.09302
1.09087
1.08882
1.08678
1.0848
1.08293
1.08099
1.07891
1.07682
1.07475
1.07272
1.07081
1.06901
1.06723
1.06546
1.06362
1.06173
1.05983
1.05792
1.05602
1.05409
1.05182
1.04891
1.04682
1.04655
1.04666
1.04687
1.04781
1.05059
1.05665
1.06635
1.08031
1.08953
1.09025
1.0898
1.08831
1.08583
1.08283
1.07988
1.07733
1.07513
1.0732
1.07136
1.06971
1.06816
1.087
1.08526
1.08353
1.08181
1.08011
1.07844
1.07676
1.07509
1.07346
1.07183
1.07025
1.06869
1.06723
1.06582
1.06444
1.06321
1.06203
1.06095
1.06001
1.05907
1.05821
1.05742
1.05688
1.0564
1.05633
1.05655
1.05718
1.05822
1.0594
1.06083
1.06248
1.0643
1.0662
1.06827
1.07047
1.07265
1.07493
1.07728
1.07962
1.08201
1.08441
1.08692
1.08965
1.09245
1.09554
1.09893
1.10261
1.10671
1.111
1.11529
1.11965
1.12424
1.12867
1.133
1.13794
1.14192
1.14568
1.1497
1.15248
1.15512
1.15725
1.15778
1.15837
1.15808
1.1569
1.155
1.15262
1.14993
1.14708
1.144
1.14081
1.13763
1.13435
1.1311
1.12802
1.12504
1.12217
1.11928
1.11627
1.11321
1.11023
1.10739
1.10468
1.10208
1.09963
1.09734
1.09521
1.09312
1.091
1.08899
1.087
1.08501
1.08297
1.08098
1.07915
1.07731
1.07537
1.07344
1.07148
1.06938
1.06737
1.06547
1.06346
1.06153
1.05971
1.05773
1.05577
1.05395
1.0517
1.04874
1.04645
1.04594
1.04592
1.04621
1.04725
1.04997
1.05575
1.06696
1.08306
1.09194
1.0924
1.09181
1.09
1.0871
1.08371
1.08044
1.07765
1.07529
1.07318
1.07126
1.06945
1.06767
)
;

boundaryField
{
    inlet
    {
        type            fixedValue;
        value           nonuniform 0();
    }
    outlet
    {
        type            inletOutlet;
        inletValue      nonuniform 0();
        value           nonuniform 0();
    }
    bottom
    {
        type            symmetryPlane;
    }
    top
    {
        type            symmetryPlane;
    }
    obstacle
    {
        type            zeroGradient;
    }
    front
    {
        type            empty;
    }
    back
    {
        type            empty;
    }
    procBoundary54to46
    {
        type            processor;
        value           nonuniform List<scalar> 
133
(
1.03867
1.0375
1.03619
1.03488
1.0336
1.03195
1.02983
1.02796
1.02721
1.02723
1.02799
1.0309
1.03968
1.05409
1.06868
1.07557
1.07599
1.07543
1.0741
1.07237
1.06993
1.06851
1.06845
1.06856
1.06848
1.06916
1.07057
1.07077
1.0711
1.0725
1.07274
1.07214
1.0723
1.07274
1.07228
1.07141
1.07082
1.06993
1.06866
1.06814
1.06821
1.06818
1.03564
1.03492
1.03435
1.03374
1.03304
1.03276
1.03259
1.03251
1.03267
1.03315
1.03395
1.03525
1.03718
1.03962
1.04228
1.04548
1.04863
1.05106
1.05361
1.056
1.05793
1.05937
1.06074
1.06265
1.06362
1.06487
1.06678
1.06869
1.07077
1.07256
1.0728
1.07259
1.07214
1.07154
1.07089
1.07005
1.06905
1.06789
1.06677
1.06572
1.06461
1.06385
1.06325
1.06245
1.06177
1.06126
1.06054
1.05995
1.05959
1.05898
1.05867
1.05862
1.05815
1.05779
1.05783
1.05763
1.05738
1.05753
1.05767
1.05737
1.05736
1.05741
1.0569
1.0566
1.05663
1.05621
1.05575
1.05566
1.05529
1.05465
1.0544
1.05404
1.05333
1.05292
1.05256
1.05195
1.05129
1.05067
1.04995
1.04914
1.04829
1.04738
1.04638
1.0453
1.04422
1.04314
1.04203
1.04089
1.03973
1.0385
1.0385
)
;
    }
    procBoundary54to47
    {
        type            processor;
        value           uniform 1.07507;
    }
    procBoundary54to53
    {
        type            processor;
        value           nonuniform List<scalar> 
18
(
1.03927
1.04217
1.0449
1.04827
1.05614
1.06655
1.07462
1.07762
1.07744
1.07707
1.07631
1.07694
1.07814
1.08
1.08221
1.08459
1.08673
1.08872
)
;
    }
    procBoundary54to55
    {
        type            processor;
        value           nonuniform List<scalar> 
18
(
1.08264
1.09153
1.10046
1.10726
1.11313
1.11771
1.12157
1.12267
1.12166
1.11961
1.11561
1.10731
1.09512
1.0816
1.07259
1.06842
1.06665
1.06607
)
;
    }
}


// ************************************************************************* //
