/*--------------------------------*- C++ -*----------------------------------*\
  =========                 |
  \\      /  F ield         | OpenFOAM: The Open Source CFD Toolbox
   \\    /   O peration     | Website:  https://openfoam.org
    \\  /    A nd           | Version:  7
     \\/     M anipulation  |
\*---------------------------------------------------------------------------*/
FoamFile
{
    version     2.0;
    format      ascii;
    class       volVectorField;
    location    "1";
    object      U;
}
// * * * * * * * * * * * * * * * * * * * * * * * * * * * * * * * * * * * * * //

dimensions      [0 1 -1 0 0 0 0];

internalField   nonuniform List<vector> 
135168
(
(2 1.4089e-17 0)
(2 1.01129e-17 0)
(2 2.30779e-18 0)
(2 3.61447e-17 0)
(2 6.07504e-17 0)
(2 7.03728e-17 0)
(2 6.52643e-17 0)
(2 7.07706e-17 0)
(2 5.42513e-17 0)
(2 9.70816e-17 0)
(2 1.41215e-16 0)
(2 2.09798e-16 0)
(2 -6.29547e-17 0)
(2 -2.06481e-17 0)
(2 2.67657e-16 0)
(2 3.82054e-16 0)
(2 3.58316e-16 0)
(2 3.02379e-16 0)
(2 2.14126e-16 0)
(2 3.98629e-17 0)
(2 -2.35949e-16 0)
(2 -3.21964e-16 0)
(2 -2.53342e-16 0)
(2 -1.83847e-16 0)
(2 -5.67942e-17 0)
(2 -1.67219e-17 0)
(2 -1.96323e-16 0)
(2 3.41149e-16 0)
(2 5.64469e-16 0)
(2 7.13614e-16 0)
(2 7.30826e-16 0)
(2 7.51976e-16 0)
(2 8.36807e-16 0)
(2 7.38498e-16 0)
(2 1.52484e-16 0)
(2 1.13956e-16 0)
(2 -2.0038e-17 0)
(2 -6.38142e-17 0)
(2 -3.3941e-18 0)
(2 1.99059e-16 0)
(2 2.78405e-16 0)
(2 2.49736e-16 0)
(2 1.72867e-16 0)
(2 1.53696e-16 0)
(2 1.41027e-16 0)
(2 1.54169e-16 0)
(2 8.61304e-17 0)
(2 6.55272e-17 0)
(2 6.6088e-18 0)
(2 -5.82094e-17 0)
(2 -1.30818e-16 0)
(2 -1.87546e-16 0)
(2 -2.28947e-16 0)
(2 -2.16743e-16 0)
(2 -1.86274e-16 0)
(2 -1.7588e-16 0)
(2 -1.79769e-16 0)
(2 -1.81833e-16 0)
(2 -2.33474e-16 0)
(2 -2.83055e-16 0)
(2 -3.98321e-16 0)
(2 -4.39652e-16 0)
(2 -4.102e-16 0)
(2 -5.32773e-16 0)
(2 -5.0325e-16 0)
(2 -4.08014e-16 0)
(2 -3.31254e-16 0)
(2 1.44518e-16 0)
(2 4.47693e-16 0)
(2 5.75014e-16 0)
(2 8.02595e-16 0)
(2 1.05418e-15 0)
(2 1.16692e-15 0)
(2 1.2184e-15 0)
(2 1.21865e-15 0)
(2 1.21163e-15 0)
(2 1.21071e-15 0)
(2 1.24462e-15 0)
(2 1.38629e-15 0)
(2 1.31744e-15 0)
(2 1.07946e-15 0)
(2 9.92795e-16 0)
(2 9.7874e-16 0)
(2 1.10494e-15 0)
(2 1.14973e-15 0)
(2 1.36467e-15 0)
(2 1.50986e-15 0)
(2 1.47904e-15 0)
(2 1.38618e-15 0)
(2 1.24568e-15 0)
(2 1.09447e-15 0)
(2 1.09619e-15 0)
(2 1.0895e-15 0)
(2 1.03872e-15 0)
(2 9.72088e-16 0)
(2 9.7764e-16 0)
(2 8.57858e-16 0)
(2 6.90515e-16 0)
(2 8.3557e-16 0)
(2 1.09957e-15 0)
(2 9.78177e-16 0)
(2 8.46231e-16 0)
(2 9.18182e-16 0)
(2 9.41386e-16 0)
(2 8.4673e-16 0)
(2 6.7846e-16 0)
(2 5.41779e-16 0)
(2 5.51005e-16 0)
(2 6.68522e-16 0)
(2 7.43786e-16 0)
(2 7.65963e-16 0)
(2 7.87428e-16 0)
(2 8.1596e-16 0)
(2 9.42481e-16 0)
(2 1.00592e-15 0)
(2 9.58488e-16 0)
(2 9.08579e-16 0)
(2 8.27246e-16 0)
(2 9.28551e-16 0)
(2 1.01857e-15 0)
(2 1.02657e-15 0)
(2 1.0475e-15 0)
(2 1.05791e-15 0)
(2 1.02008e-15 0)
(2 7.91096e-16 0)
(2 7.39756e-16 0)
(2 8.01476e-16 0)
(2 8.9456e-16 0)
(2 9.15255e-16 0)
(2 8.66106e-16 0)
(2 8.08138e-16 0)
(2 5.96021e-16 0)
(2 3.66739e-16 0)
(2 2.52294e-16 0)
(2 2.35027e-16 0)
(2 2.70523e-16 0)
(2 3.37843e-16 0)
(2 6.86937e-16 0)
(2 7.70531e-16 0)
(2 4.1994e-16 0)
(2 2.5827e-16 0)
(2 5.43274e-16 0)
(2 6.03789e-16 0)
(2 6.16283e-16 0)
(2 6.53055e-16 0)
(2 8.06923e-16 0)
(2 9.24943e-16 0)
(2 9.73104e-16 0)
(2 9.61427e-16 0)
(2 9.34537e-16 0)
(2 9.43894e-16 0)
(2 9.97676e-16 0)
(2 9.41055e-16 0)
(2 8.97893e-16 0)
(2 7.64621e-16 0)
(2 6.93196e-16 0)
(2 5.76395e-16 0)
(2 4.78381e-16 0)
(2 4.89351e-16 0)
(2 5.07472e-16 0)
(2 4.24037e-16 0)
(2 3.52095e-16 0)
(2 1.60932e-16 0)
(2 -2.71512e-18 0)
(2 -4.4802e-17 0)
(2 -1.48405e-17 0)
(2 3.39938e-17 0)
(2 6.32391e-17 0)
(2 1.26424e-16 0)
(2 1.27155e-16 0)
(2 1.79437e-16 0)
(2 -7.55261e-17 0)
(2 -4.19228e-16 0)
(2 -5.49999e-16 0)
(2 -5.56763e-16 0)
(2 -7.26002e-16 0)
(2 -7.75084e-16 0)
(2 -8.52933e-16 0)
(2 -9.29019e-16 0)
(2 -5.36422e-16 0)
(2 -3.18978e-16 0)
(2 -1.91538e-16 0)
(2 -5.21792e-16 0)
(2 -6.00901e-16 0)
(2 -6.08607e-16 0)
(2 -5.57256e-16 0)
(2 -5.385e-16 0)
(2 -3.5222e-16 0)
(2 -3.88317e-16 0)
(2 -4.67251e-16 0)
(2 -5.45614e-16 0)
(2 -6.60976e-16 0)
(2 -7.3588e-16 0)
(2 -6.48017e-16 0)
(2 -9.9823e-16 0)
(2 -1.05708e-15 0)
(2 -9.1564e-16 0)
(2 -1.04121e-15 0)
(2 -1.06069e-15 0)
(2 -1.01914e-15 0)
(2 -1.13256e-15 0)
(2 -1.1345e-15 0)
(2 -9.00199e-16 0)
(2 -4.12367e-16 0)
(2 2.29849e-16 0)
(2 9.02205e-16 0)
(2 1.05672e-15 0)
(2 1.17822e-15 0)
(2 1.13205e-15 0)
(2 1.04299e-15 0)
(2 9.03231e-16 0)
(2 9.91573e-16 0)
(2 7.11389e-16 0)
(2 6.42093e-16 0)
(2 4.65437e-16 0)
(2 3.43439e-16 0)
(2 4.73808e-16 0)
(2 5.65501e-16 0)
(2 5.58495e-16 0)
(2 4.48115e-16 0)
(2 3.26675e-16 0)
(2 2.07981e-16 0)
(2 2.19504e-16 0)
(2 2.21426e-16 0)
(2 2.69834e-16 0)
(2 3.98261e-16 0)
(2 2.14963e-16 0)
(2 -7.21171e-17 0)
(2 -3.64165e-16 0)
(2 -3.51282e-16 0)
(2 -2.11579e-16 0)
(2 -6.46424e-17 0)
(2 1.36695e-16 0)
(2 3.64116e-16 0)
(2 6.49492e-16 0)
(2 5.9758e-16 0)
(2 5.35859e-16 0)
(2 3.27406e-16 0)
(2 2.98155e-17 0)
(2 -1.55926e-17 0)
(2 6.37905e-17 0)
(2 -1.19879e-16 0)
(2 -5.78957e-16 0)
(2 -9.13229e-16 0)
(2 -7.73156e-16 0)
(2 -8.95374e-16 0)
(2 -8.68727e-16 0)
(2 -8.0485e-16 0)
(2 -6.58196e-16 0)
(2 -7.85002e-16 0)
(2 -9.88872e-16 0)
(2 -1.38596e-15 0)
(2 -1.80036e-15 0)
(2 -2.01792e-15 0)
(2 -1.87813e-15 0)
(2 -1.88722e-15 0)
(2 -1.89209e-15 0)
(2 -1.93809e-15 0)
(2 -1.73344e-15 0)
(2 -1.49556e-15 0)
(2 -1.42975e-15 0)
(2 -1.3653e-15 0)
(2 -1.32879e-15 0)
(2 -1.19287e-15 0)
(2 -1.06444e-15 0)
(2 -9.11384e-16 0)
(2 -7.81979e-16 0)
(2 -6.93198e-16 0)
(2 -5.95608e-16 0)
(2 -5.87752e-16 0)
(2 -5.81622e-16 0)
(2 -7.01206e-16 0)
(2 -9.44946e-16 0)
(2 -1.15088e-15 0)
(2 -1.17598e-15 0)
(2 -1.19942e-15 0)
(2 -8.91901e-16 0)
(2 -5.91983e-16 0)
(2 -5.01848e-16 0)
(2 -4.44268e-16 0)
(2 -3.81635e-16 0)
(2 -3.52191e-16 0)
(2 -1.3147e-16 0)
(2 -5.57332e-17 0)
(2 -7.57338e-17 0)
(2 -9.44811e-17 0)
(2 -3.76646e-16 0)
(2 -6.58016e-16 0)
(2 -8.08516e-16 0)
(2 -9.04886e-16 0)
(2 -9.74437e-16 0)
(2 -1.10757e-15 0)
(2 -1.38924e-15 0)
(2 -1.69944e-15 0)
(2 -2.23166e-15 0)
(2 -1.94061e-15 0)
(2 -1.0552e-15 0)
(2 -5.71224e-16 0)
(2 -4.80506e-16 0)
(2 -4.67496e-16 0)
(2 -4.45895e-16 0)
(2 -6.34207e-16 0)
(2 -9.36368e-16 0)
(2 -1.14231e-15 0)
(2 -1.29744e-15 0)
(2 -1.3625e-15 0)
(2 -1.36919e-15 0)
(2 -1.44545e-15 0)
(2 -1.40898e-15 0)
(2 -1.16034e-15 0)
(2 -1.2167e-15 0)
(2 -9.83745e-16 0)
(2 -9.63074e-16 0)
(2 -8.54509e-16 0)
(2 -7.65497e-16 0)
(2 -4.29874e-16 0)
(2 -4.08223e-16 0)
(2 -2.31922e-16 0)
(2 -4.28906e-17 0)
(2 1.13883e-16 0)
(2 2.06103e-16 0)
(2 4.73649e-16 0)
(2 5.66791e-16 0)
(2 4.96602e-16 0)
(2 6.42795e-16 0)
(2 8.99766e-16 0)
(2 9.75595e-16 0)
(2 9.41448e-16 0)
(2 8.09096e-16 0)
(2 5.44368e-16 0)
(2 3.1678e-16 0)
(2 1.15088e-16 0)
(2 1.04659e-16 0)
(2 5.09962e-17 0)
(2 -5.08489e-17 0)
(2 -3.43278e-17 0)
(2 -6.613e-16 0)
(2 -1.09322e-15 0)
(2 -1.57393e-15 0)
(2 -1.76687e-15 0)
(2 -1.62047e-15 0)
(2 -1.31381e-15 0)
(2 -1.29887e-15 0)
(2 -1.21953e-15 0)
(2 -1.0378e-15 0)
(2 -7.44539e-16 0)
(2 -5.30234e-16 0)
(2 1.70152e-16 0)
(2 4.49648e-16 0)
(2 3.82185e-16 0)
(2 1.54606e-16 0)
(2 1.33462e-16 0)
(2 1.90902e-16 0)
(2 2.47152e-16 0)
(2 4.29483e-16 0)
(2 5.64328e-16 0)
(2 3.69397e-16 0)
(2 2.02202e-16 0)
(2 2.3541e-16 0)
(2 2.62945e-16 0)
(2 3.20935e-16 0)
(2 -1.57864e-16 0)
(2 -4.33068e-16 0)
(2 -4.12889e-16 0)
(2 -3.04765e-16 0)
(2 -7.95462e-16 0)
(2 -7.62974e-16 0)
(2 -7.21773e-16 0)
(2 -1.16152e-15 0)
(2 -1.44729e-15 0)
(2 -1.28866e-15 0)
(2 -1.39686e-15 0)
(2 -2.25656e-15 0)
(2 -3.10135e-15 0)
(2 -3.43301e-15 0)
(2 -2.9387e-15 0)
(2 -2.18657e-15 0)
(2 -1.79203e-15 0)
(2 -1.47474e-15 0)
(2 -1.12984e-15 0)
(2 -6.56388e-16 0)
(2 -1.03653e-16 0)
(2 1.90898e-16 0)
(2 1.89447e-15 0)
(2 -4.78573e-18 0)
(2 -6.46504e-18 0)
(2 -4.12363e-17 0)
(2 -5.32637e-17 0)
(2 -6.18929e-17 0)
(2 -7.8729e-17 0)
(2 -2.61418e-17 0)
(2 3.12538e-17 0)
(2 -6.25737e-17 0)
(2 -8.28495e-17 0)
(2 -4.95047e-17 0)
(2 -2.30547e-17 0)
(2 -6.74647e-18 0)
(2 1.92913e-16 0)
(2 2.14391e-16 0)
(2 3.28714e-16 0)
(2 3.40755e-16 0)
(2 3.78401e-16 0)
(2 4.74049e-16 0)
(2 2.29277e-16 0)
(2 -3.89217e-18 0)
(2 4.29848e-17 0)
(2 4.209e-16 0)
(2 5.35887e-16 0)
(2 5.8738e-16 0)
(2 5.07263e-16 0)
(2 3.59042e-16 0)
(2 7.94854e-16 0)
(2 1.28986e-15 0)
(2 1.47941e-15 0)
(2 1.73051e-15 0)
(2 1.75865e-15 0)
(2 1.59247e-15 0)
(2 1.14324e-15 0)
(2 6.52118e-16 0)
(2 1.66696e-16 0)
(2 1.2569e-16 0)
(2 8.16438e-17 0)
(2 1.6117e-16 0)
(2 4.31089e-16 0)
(2 5.31131e-16 0)
(2 4.86859e-16 0)
(2 3.76657e-16 0)
(2 3.47327e-16 0)
(2 3.3763e-16 0)
(2 3.36564e-16 0)
(2 2.80305e-16 0)
(2 2.07218e-16 0)
(2 1.49285e-16 0)
(2 7.75471e-17 0)
(2 4.64454e-17 0)
(2 -1.22249e-17 0)
(2 -1.77965e-16 0)
(2 -2.43948e-16 0)
(2 -3.15852e-16 0)
(2 -2.00316e-16 0)
(2 -1.12834e-16 0)
(2 -3.66515e-17 0)
(2 -2.72477e-16 0)
(2 -3.00166e-16 0)
(2 -4.54177e-16 0)
(2 -5.69722e-16 0)
(2 -4.10122e-16 0)
(2 -4.6962e-16 0)
(2 -7.50131e-16 0)
(2 -7.86361e-16 0)
(2 -7.58298e-16 0)
(2 -7.10612e-16 0)
(2 -3.42582e-17 0)
(2 3.00154e-16 0)
(2 3.59834e-16 0)
(2 5.53842e-16 0)
(2 9.53051e-16 0)
(2 1.05742e-15 0)
(2 1.00968e-15 0)
(2 7.71109e-16 0)
(2 7.45493e-16 0)
(2 8.32165e-16 0)
(2 4.77432e-16 0)
(2 -7.75137e-17 0)
(2 -4.66813e-16 0)
(2 -6.90957e-16 0)
(2 -6.7737e-16 0)
(2 -3.83926e-16 0)
(2 -2.45956e-16 0)
(2 7.36855e-17 0)
(2 1.01446e-16 0)
(2 9.25347e-17 0)
(2 -1.39365e-16 0)
(2 -3.45365e-16 0)
(2 -5.75645e-16 0)
(2 1.50943e-17 0)
(2 2.1059e-16 0)
(2 6.04578e-16 0)
(2 8.31435e-16 0)
(2 8.53957e-16 0)
(2 9.83708e-16 0)
(2 8.72846e-16 0)
(2 3.87949e-16 0)
(2 -3.98087e-16 0)
(2 -4.67382e-16 0)
(2 -3.94212e-16 0)
(2 -2.10442e-16 0)
(2 -8.26593e-17 0)
(2 2.54269e-17 0)
(2 -1.14631e-17 0)
(2 -1.64937e-16 0)
(2 -1.04801e-16 0)
(2 -1.50893e-17 0)
(2 1.11502e-16 0)
(2 2.35042e-16 0)
(2 2.91288e-16 0)
(2 4.31269e-16 0)
(2 5.76593e-16 0)
(2 5.87271e-16 0)
(2 5.99659e-16 0)
(2 6.0445e-16 0)
(2 6.42269e-16 0)
(2 7.09284e-16 0)
(2 7.81453e-16 0)
(2 9.13763e-16 0)
(2 8.69433e-16 0)
(2 8.57418e-16 0)
(2 7.69247e-16 0)
(2 7.41935e-16 0)
(2 7.7077e-16 0)
(2 8.22681e-16 0)
(2 8.72849e-16 0)
(2 7.62888e-16 0)
(2 7.46891e-16 0)
(2 5.05233e-16 0)
(2 4.42166e-16 0)
(2 4.94483e-16 0)
(2 1.85556e-16 0)
(2 2.14766e-16 0)
(2 4.30902e-16 0)
(2 5.73856e-16 0)
(2 8.21318e-16 0)
(2 9.44658e-16 0)
(2 4.84181e-16 0)
(2 -1.88879e-17 0)
(2 -2.32494e-16 0)
(2 -3.14807e-16 0)
(2 -3.48815e-16 0)
(2 -3.19587e-16 0)
(2 -1.73563e-16 0)
(2 1.37458e-16 0)
(2 3.1063e-16 0)
(2 4.03155e-16 0)
(2 4.66853e-16 0)
(2 5.90717e-16 0)
(2 7.33679e-16 0)
(2 7.93501e-16 0)
(2 7.07389e-16 0)
(2 7.43041e-16 0)
(2 7.9597e-16 0)
(2 8.26871e-16 0)
(2 8.19281e-16 0)
(2 8.04189e-16 0)
(2 7.81454e-16 0)
(2 6.95247e-16 0)
(2 5.17607e-16 0)
(2 3.63918e-16 0)
(2 4.71202e-17 0)
(2 -4.08267e-17 0)
(2 -9.6586e-17 0)
(2 -5.39249e-17 0)
(2 -4.93887e-17 0)
(2 3.55304e-17 0)
(2 9.69415e-17 0)
(2 -8.21973e-18 0)
(2 -3.12975e-16 0)
(2 -4.91973e-16 0)
(2 -5.12011e-16 0)
(2 -3.28405e-16 0)
(2 -9.73242e-16 0)
(2 -1.18383e-15 0)
(2 -1.4277e-15 0)
(2 -1.61909e-15 0)
(2 -1.85908e-15 0)
(2 -1.96798e-15 0)
(2 -2.1107e-15 0)
(2 -2.31787e-15 0)
(2 -2.36468e-15 0)
(2 -2.31723e-15 0)
(2 -2.24054e-15 0)
(2 -2.36966e-15 0)
(2 -2.33391e-15 0)
(2 -2.56928e-15 0)
(2 -2.86108e-15 0)
(2 -3.10728e-15 0)
(2 -3.42269e-15 0)
(2 -3.49342e-15 0)
(2 -2.91102e-15 0)
(2 -2.60142e-15 0)
(2 -2.74087e-15 0)
(2 -2.93031e-15 0)
(2 -3.04129e-15 0)
(2 -2.53609e-15 0)
(2 -1.75298e-15 0)
(2 -1.26862e-15 0)
(2 -1.0656e-15 0)
(2 -9.81838e-16 0)
(2 -6.06565e-16 0)
(2 -8.62325e-17 0)
(2 5.68013e-16 0)
(2 7.36427e-16 0)
(2 6.85305e-16 0)
(2 9.41224e-16 0)
(2 1.35394e-15 0)
(2 1.66602e-15 0)
(2 1.90135e-15 0)
(2 1.9536e-15 0)
(2 1.86087e-15 0)
(2 1.77113e-15 0)
(2 1.70394e-15 0)
(2 1.86229e-15 0)
(2 1.90483e-15 0)
(2 1.49316e-15 0)
(2 1.14923e-15 0)
(2 9.90752e-16 0)
(2 8.53979e-16 0)
(2 8.09055e-16 0)
(2 9.92786e-16 0)
(2 1.2457e-15 0)
(2 1.44646e-15 0)
(2 1.50789e-15 0)
(2 1.21477e-15 0)
(2 6.56361e-16 0)
(2 7.16129e-16 0)
(2 9.82277e-16 0)
(2 1.12317e-15 0)
(2 1.00824e-15 0)
(2 8.93491e-16 0)
(2 8.45041e-16 0)
(2 8.41959e-16 0)
(2 7.48633e-16 0)
(2 4.44163e-16 0)
(2 1.25482e-16 0)
(2 3.73101e-17 0)
(2 -5.20243e-17 0)
(2 -2.35336e-16 0)
(2 -3.33302e-16 0)
(2 1.46111e-17 0)
(2 2.52433e-16 0)
(2 -1.39677e-16 0)
(2 -5.98441e-16 0)
(2 -9.3333e-16 0)
(2 -8.80241e-16 0)
(2 -1.08931e-15 0)
(2 -1.85067e-15 0)
(2 -2.11815e-15 0)
(2 -1.87852e-15 0)
(2 -1.41273e-15 0)
(2 -1.27492e-15 0)
(2 -1.05498e-15 0)
(2 -8.40176e-16 0)
(2 -8.52204e-16 0)
(2 -6.70585e-16 0)
(2 -5.58726e-16 0)
(2 -5.98426e-16 0)
(2 -5.91551e-16 0)
(2 -4.6653e-16 0)
(2 -3.301e-16 0)
(2 -4.66493e-16 0)
(2 -4.31599e-16 0)
(2 -3.40518e-16 0)
(2 -2.55132e-16 0)
(2 -1.68323e-16 0)
(2 -1.55947e-16 0)
(2 -3.41046e-16 0)
(2 -4.62315e-16 0)
(2 -8.07517e-16 0)
(2 -8.76774e-16 0)
(2 -6.96192e-16 0)
(2 -4.26077e-16 0)
(2 -4.7403e-17 0)
(2 1.99173e-16 0)
(2 2.58113e-16 0)
(2 2.44838e-16 0)
(2 2.14612e-16 0)
(2 2.50851e-16 0)
(2 4.18354e-16 0)
(2 7.77992e-16 0)
(2 9.47809e-16 0)
(2 9.10322e-16 0)
(2 7.6465e-16 0)
(2 4.77699e-16 0)
(2 5.3868e-16 0)
(2 -1.54077e-17 0)
(2 -4.22641e-16 0)
(2 -5.28002e-16 0)
(2 -8.59268e-16 0)
(2 -9.50813e-16 0)
(2 -8.97423e-16 0)
(2 -5.32988e-16 0)
(2 -1.87611e-16 0)
(2 -2.00163e-16 0)
(2 -1.85527e-16 0)
(2 4.84919e-17 0)
(2 5.59271e-16 0)
(2 -2.87078e-16 0)
(2 -2.13056e-15 0)
(2 -2.46786e-15 0)
(2 -2.37471e-15 0)
(2 -2.15426e-15 0)
(2 -1.96097e-15 0)
(2 -2.5761e-15 0)
(2 -2.74919e-15 0)
(2 -2.57042e-15 0)
(2 -2.43983e-15 0)
(2 -2.38056e-15 0)
(2 -2.33247e-15 0)
(2 -2.15654e-15 0)
(2 -1.79219e-15 0)
(2 -6.14388e-16 0)
(2 -4.19411e-16 0)
(2 -1.18562e-16 0)
(2 9.85716e-16 0)
(2 1.31751e-15 0)
(2 1.51194e-15 0)
(2 1.47013e-15 0)
(2 1.37971e-15 0)
(2 1.29931e-15 0)
(2 1.28123e-15 0)
(2 1.25718e-15 0)
(2 1.29424e-15 0)
(2 1.43884e-15 0)
(2 1.58245e-15 0)
(2 1.73611e-15 0)
(2 1.84618e-15 0)
(2 1.86388e-15 0)
(2 1.74271e-15 0)
(2 1.79487e-15 0)
(2 1.59948e-15 0)
(2 1.05443e-15 0)
(2 2.2113e-16 0)
(2 -6.08775e-16 0)
(2 -1.24062e-15 0)
(2 -1.54122e-15 0)
(2 -1.55323e-15 0)
(2 -1.55455e-15 0)
(2 -1.16072e-15 0)
(2 -2.42004e-16 0)
(2 6.8361e-18 0)
(2 -3.65423e-17 0)
(2 -1.49626e-16 0)
(2 -9.27667e-17 0)
(2 4.26183e-16 0)
(2 8.5653e-16 0)
(2 9.94797e-16 0)
(2 1.24164e-15 0)
(2 1.24331e-15 0)
(2 1.27396e-15 0)
(2 1.33603e-15 0)
(2 5.73045e-16 0)
(2 3.09252e-16 0)
(2 5.09408e-17 0)
(2 1.18936e-17 0)
(2 -4.70414e-16 0)
(2 -6.90986e-16 0)
(2 -8.89968e-16 0)
(2 -8.92989e-16 0)
(2 -7.32595e-16 0)
(2 -1.05857e-15 0)
(2 -2.03502e-15 0)
(2 -2.18981e-15 0)
(2 -2.22595e-15 0)
(2 -2.20284e-15 0)
(2 -2.2223e-15 0)
(2 -1.80773e-15 0)
(2 -1.63023e-15 0)
(2 -1.98518e-15 0)
(2 -2.04845e-15 0)
(2 -1.43308e-15 0)
(2 -5.1203e-16 0)
(2 -1.23868e-16 0)
(2 2.69762e-16 0)
(2 7.29641e-16 0)
(2 1.01531e-15 0)
(2 1.36591e-15 0)
(2 1.57324e-15 0)
(2 1.70204e-15 0)
(2 2.0109e-15 0)
(2 -4.40357e-17 0)
(2 -5.63375e-18 0)
(2 3.87724e-18 0)
(2 -6.88579e-18 0)
(2 -5.40494e-17 0)
(2 -4.90454e-17 0)
(2 -1.08249e-16 0)
(2 -2.64581e-16 0)
(2 -3.73651e-16 0)
(2 -3.77173e-16 0)
(2 -4.0719e-16 0)
(2 -4.12372e-16 0)
(2 -2.86391e-16 0)
(2 -1.20556e-16 0)
(2 -7.43701e-17 0)
(2 2.27086e-17 0)
(2 8.64905e-17 0)
(2 1.00749e-16 0)
(2 3.5484e-16 0)
(2 4.65925e-16 0)
(2 5.34728e-16 0)
(2 5.50317e-16 0)
(2 5.24491e-16 0)
(2 5.58424e-16 0)
(2 4.45624e-16 0)
(2 3.83808e-16 0)
(2 3.88472e-16 0)
(2 4.39148e-16 0)
(2 6.68817e-16 0)
(2 6.42908e-16 0)
(2 4.66804e-16 0)
(2 3.42129e-16 0)
(2 2.96722e-16 0)
(2 2.81824e-16 0)
(2 3.02057e-16 0)
(2 3.98938e-16 0)
(2 4.82254e-16 0)
(2 4.53254e-16 0)
(2 4.08395e-16 0)
(2 2.55917e-16 0)
(2 2.59864e-16 0)
(2 2.74958e-16 0)
(2 4.58716e-16 0)
(2 5.55959e-16 0)
(2 6.49374e-16 0)
(2 5.90848e-16 0)
(2 4.75734e-16 0)
(2 2.85818e-16 0)
(2 5.81408e-17 0)
(2 2.5554e-17 0)
(2 -1.81281e-17 0)
(2 -3.10151e-17 0)
(2 -6.90523e-17 0)
(2 -8.34377e-17 0)
(2 -3.21138e-16 0)
(2 -3.86728e-16 0)
(2 -3.95687e-16 0)
(2 -4.30616e-16 0)
(2 -4.98523e-16 0)
(2 -5.22648e-16 0)
(2 -5.86996e-16 0)
(2 -6.46298e-16 0)
(2 -3.52538e-16 0)
(2 -1.08715e-16 0)
(2 -5.00263e-17 0)
(2 -1.48378e-16 0)
(2 -2.48732e-16 0)
(2 -1.47979e-16 0)
(2 -1.46571e-16 0)
(2 2.57784e-17 0)
(2 1.75055e-16 0)
(2 2.37882e-16 0)
(2 3.32512e-16 0)
(2 1.47567e-16 0)
(2 -3.28637e-16 0)
(2 -2.07212e-16 0)
(2 -5.00913e-16 0)
(2 -1.53655e-15 0)
(2 -1.35728e-15 0)
(2 -1.27606e-15 0)
(2 -1.21522e-15 0)
(2 -1.28339e-15 0)
(2 -1.32566e-15 0)
(2 -1.34458e-15 0)
(2 -1.30096e-15 0)
(2 -1.78033e-15 0)
(2 -1.93377e-15 0)
(2 -1.92944e-15 0)
(2 -1.75027e-15 0)
(2 -1.49221e-15 0)
(2 -1.38718e-15 0)
(2 -1.62201e-15 0)
(2 -1.42038e-15 0)
(2 -9.41002e-16 0)
(2 -8.7574e-16 0)
(2 -6.39979e-16 0)
(2 -5.38352e-16 0)
(2 -6.43274e-16 0)
(2 -9.65858e-16 0)
(2 -1.08195e-15 0)
(2 -1.25622e-15 0)
(2 -1.42118e-15 0)
(2 -1.45762e-15 0)
(2 -1.43347e-15 0)
(2 -1.46838e-15 0)
(2 -1.22112e-15 0)
(2 -8.62748e-16 0)
(2 -8.47913e-16 0)
(2 -7.95216e-16 0)
(2 -5.05634e-16 0)
(2 -2.82818e-16 0)
(2 -1.82708e-16 0)
(2 -6.25168e-17 0)
(2 -3.65384e-18 0)
(2 -5.84124e-17 0)
(2 4.18576e-17 0)
(2 1.6069e-16 0)
(2 2.81804e-16 0)
(2 4.935e-16 0)
(2 7.41243e-16 0)
(2 1.01549e-15 0)
(2 1.30343e-15 0)
(2 1.34112e-15 0)
(2 1.37096e-15 0)
(2 1.25468e-15 0)
(2 1.20771e-15 0)
(2 1.23199e-15 0)
(2 1.18659e-15 0)
(2 1.21912e-15 0)
(2 1.31851e-15 0)
(2 1.36224e-15 0)
(2 1.72768e-15 0)
(2 1.9897e-15 0)
(2 2.66728e-15 0)
(2 2.93387e-15 0)
(2 2.86942e-15 0)
(2 2.46147e-15 0)
(2 1.95597e-15 0)
(2 1.84021e-15 0)
(2 1.66531e-15 0)
(2 1.5599e-15 0)
(2 1.50061e-15 0)
(2 7.92449e-16 0)
(2 5.5758e-16 0)
(2 4.23816e-16 0)
(2 3.96179e-16 0)
(2 4.7914e-16 0)
(2 5.48106e-16 0)
(2 6.4667e-16 0)
(2 7.41146e-16 0)
(2 8.36809e-16 0)
(2 9.37467e-16 0)
(2 1.035e-15 0)
(2 1.08405e-15 0)
(2 1.16934e-15 0)
(2 1.23183e-15 0)
(2 1.30419e-15 0)
(2 1.24612e-15 0)
(2 1.19659e-15 0)
(2 1.09284e-15 0)
(2 1.05423e-15 0)
(2 9.74959e-16 0)
(2 9.49654e-16 0)
(2 7.40043e-16 0)
(2 6.00006e-16 0)
(2 5.18916e-16 0)
(2 4.44256e-16 0)
(2 3.59979e-16 0)
(2 2.18015e-16 0)
(2 1.43509e-16 0)
(2 -5.33127e-18 0)
(2 -1.83297e-16 0)
(2 -4.45235e-16 0)
(2 -7.70955e-16 0)
(2 -1.40152e-15 0)
(2 -1.69727e-15 0)
(2 -2.07488e-15 0)
(2 -2.08164e-15 0)
(2 -1.91405e-15 0)
(2 -1.55604e-15 0)
(2 -1.34687e-15 0)
(2 -1.35584e-15 0)
(2 -1.13938e-15 0)
(2 -8.60479e-16 0)
(2 -7.97188e-16 0)
(2 -9.28485e-16 0)
(2 -8.97445e-16 0)
(2 -8.81718e-16 0)
(2 -1.03385e-15 0)
(2 -1.20603e-15 0)
(2 -1.49455e-15 0)
(2 -1.77667e-15 0)
(2 -2.0441e-15 0)
(2 -2.66167e-15 0)
(2 -3.06613e-15 0)
(2 -3.17474e-15 0)
(2 -2.49487e-15 0)
(2 -1.45615e-15 0)
(2 -1.0986e-15 0)
(2 -9.57037e-16 0)
(2 -5.91831e-16 0)
(2 -2.81187e-16 0)
(2 -2.88679e-16 0)
(2 -3.80533e-16 0)
(2 -4.49622e-16 0)
(2 -4.93108e-16 0)
(2 -3.65021e-16 0)
(2 -6.78992e-17 0)
(2 3.7447e-16 0)
(2 4.54519e-16 0)
(2 1.19008e-15 0)
(2 1.60137e-15 0)
(2 1.68133e-15 0)
(2 1.52855e-15 0)
(2 1.53095e-15 0)
(2 1.41849e-15 0)
(2 1.22225e-15 0)
(2 1.13228e-15 0)
(2 9.88871e-16 0)
(2 8.66509e-16 0)
(2 9.81089e-16 0)
(2 9.09845e-16 0)
(2 9.73113e-16 0)
(2 1.59094e-15 0)
(2 1.9064e-15 0)
(2 2.37339e-15 0)
(2 2.49655e-15 0)
(2 2.60401e-15 0)
(2 2.72709e-15 0)
(2 2.14683e-15 0)
(2 1.96853e-15 0)
(2 1.75079e-15 0)
(2 1.34597e-15 0)
(2 1.06453e-15 0)
(2 7.2804e-16 0)
(2 4.313e-16 0)
(2 9.03405e-17 0)
(2 -1.95066e-16 0)
(2 -2.57152e-16 0)
(2 -2.56256e-16 0)
(2 -2.73893e-16 0)
(2 -5.12947e-16 0)
(2 -5.52354e-16 0)
(2 4.15565e-16 0)
(2 9.22337e-16 0)
(2 8.55128e-16 0)
(2 1.83773e-16 0)
(2 -4.25347e-16 0)
(2 -5.81205e-16 0)
(2 -7.06366e-16 0)
(2 -1.16404e-15 0)
(2 -1.31179e-15 0)
(2 -1.3901e-15 0)
(2 -1.26553e-15 0)
(2 -1.14339e-15 0)
(2 -7.60299e-16 0)
(2 7.7701e-16 0)
(2 1.06622e-15 0)
(2 1.51474e-15 0)
(2 1.68784e-15 0)
(2 1.59398e-15 0)
(2 1.35562e-15 0)
(2 1.34194e-15 0)
(2 1.28542e-15 0)
(2 2.05975e-16 0)
(2 -8.87099e-17 0)
(2 -2.01735e-16 0)
(2 -2.54986e-16 0)
(2 -2.27711e-16 0)
(2 -1.01402e-16 0)
(2 4.75339e-17 0)
(2 4.50051e-16 0)
(2 7.36338e-16 0)
(2 9.44978e-16 0)
(2 9.92384e-16 0)
(2 1.29476e-15 0)
(2 1.43565e-15 0)
(2 1.38049e-15 0)
(2 1.38138e-15 0)
(2 1.44087e-15 0)
(2 1.47958e-15 0)
(2 1.51465e-15 0)
(2 1.40697e-15 0)
(2 1.29631e-15 0)
(2 1.3154e-15 0)
(2 1.70912e-15 0)
(2 2.14816e-15 0)
(2 2.30507e-15 0)
(2 2.5096e-15 0)
(2 2.56455e-15 0)
(2 2.39865e-15 0)
(2 2.14256e-15 0)
(2 2.03e-15 0)
(2 1.98894e-15 0)
(2 2.02571e-15 0)
(2 1.78087e-15 0)
(2 1.51455e-15 0)
(2 5.78141e-16 0)
(2 1.65552e-16 0)
(2 4.8047e-17 0)
(2 -1.65186e-16 0)
(2 -5.68857e-16 0)
(2 -8.61606e-16 0)
(2 -5.4473e-16 0)
(2 -5.99085e-17 0)
(2 7.17566e-17 0)
(2 2.96717e-16 0)
(2 1.99589e-16 0)
(2 -3.58192e-16 0)
(2 -3.61449e-16 0)
(2 -3.83665e-16 0)
(2 -5.24868e-16 0)
(2 -5.82715e-16 0)
(2 -5.89289e-16 0)
(2 -3.9365e-16 0)
(2 -3.05027e-16 0)
(2 1.37931e-16 0)
(2 2.08782e-16 0)
(2 4.53548e-16 0)
(2 8.77146e-16 0)
(2 1.05935e-15 0)
(2 1.06277e-15 0)
(2 8.94679e-16 0)
(2 7.43699e-16 0)
(2 6.90188e-16 0)
(2 7.06568e-16 0)
(2 7.77058e-16 0)
(2 8.35634e-16 0)
(2 7.9838e-16 0)
(2 8.02271e-16 0)
(2 9.15516e-16 0)
(2 8.96531e-16 0)
(2 1.08749e-15 0)
(2 1.22956e-15 0)
(2 1.48843e-15 0)
(2 1.61999e-15 0)
(2 1.54411e-15 0)
(2 1.2477e-15 0)
(2 9.94031e-16 0)
(2 9.169e-16 0)
(2 6.782e-16 0)
(2 5.86865e-16 0)
(2 5.47263e-16 0)
(2 6.08117e-16 0)
(2 5.90288e-16 0)
(2 2.87529e-16 0)
(2 7.09725e-17 0)
(2 -2.12105e-16 0)
(2 4.87365e-16 0)
(2 6.35978e-16 0)
(2 5.19874e-16 0)
(2 4.52824e-16 0)
(2 2.23411e-16 0)
(2 2.37101e-16 0)
(2 -1.58929e-16 0)
(2 -4.36365e-16 0)
(2 -7.68797e-16 0)
(2 -8.44245e-16 0)
(2 -8.0961e-16 0)
(2 -1.0224e-15 0)
(2 -9.04925e-16 0)
(2 -5.89711e-16 0)
(2 -2.47538e-16 0)
(2 -3.18515e-16 0)
(2 3.71262e-16 0)
(2 7.46092e-16 0)
(2 7.37925e-16 0)
(2 5.78399e-16 0)
(2 4.85434e-16 0)
(2 7.39922e-16 0)
(2 1.17664e-15 0)
(2 1.27999e-15 0)
(2 1.66453e-15 0)
(2 1.85952e-15 0)
(2 2.3875e-15 0)
(2 2.9461e-15 0)
(2 3.22555e-15 0)
(2 3.27236e-15 0)
(2 3.32065e-15 0)
(2 3.25566e-15 0)
(2 3.10569e-15 0)
(2 3.12113e-15 0)
(2 2.7766e-15 0)
(2 2.78457e-15 0)
(2 1.41014e-17 0)
(2 1.83685e-17 0)
(2 4.31013e-17 0)
(2 8.24616e-17 0)
(2 1.09793e-16 0)
(2 5.99382e-17 0)
(2 -1.17499e-17 0)
(2 -1.00902e-17 0)
(2 -8.3866e-17 0)
(2 -2.88136e-16 0)
(2 -4.27641e-16 0)
(2 -4.05158e-16 0)
(2 -2.81508e-16 0)
(2 -3.055e-16 0)
(2 -3.62493e-16 0)
(2 -3.31511e-16 0)
(2 -2.64637e-16 0)
(2 -2.10909e-16 0)
(2 -1.56919e-16 0)
(2 3.42601e-17 0)
(2 1.8197e-16 0)
(2 3.42008e-16 0)
(2 3.08183e-16 0)
(2 2.8405e-16 0)
(2 -2.20266e-17 0)
(2 -1.99951e-16 0)
(2 -7.82253e-17 0)
(2 1.36229e-17 0)
(2 8.8111e-18 0)
(2 -1.25421e-16 0)
(2 -1.60536e-16 0)
(2 -1.15591e-16 0)
(2 2.57965e-17 0)
(2 8.34489e-17 0)
(2 4.00042e-16 0)
(2 7.39391e-16 0)
(2 9.0304e-16 0)
(2 7.86648e-16 0)
(2 2.21675e-16 0)
(2 3.7211e-17 0)
(2 -4.47505e-17 0)
(2 -1.16803e-16 0)
(2 -1.63046e-16 0)
(2 -1.80415e-16 0)
(2 -1.73915e-16 0)
(2 -1.77571e-16 0)
(2 -1.66767e-16 0)
(2 -1.35176e-16 0)
(2 -1.33486e-16 0)
(2 -1.25449e-16 0)
(2 -1.06192e-16 0)
(2 -6.99096e-17 0)
(2 -1.43601e-17 0)
(2 -2.19973e-17 0)
(2 -2.84598e-17 0)
(2 -3.15251e-17 0)
(2 -2.52295e-17 0)
(2 -3.13044e-17 0)
(2 1.66485e-17 0)
(2 3.67824e-17 0)
(2 3.91375e-17 0)
(2 -6.06809e-17 0)
(2 -1.91743e-16 0)
(2 -1.91906e-16 0)
(2 -1.2596e-16 0)
(2 -1.86075e-17 0)
(2 2.50037e-16 0)
(2 3.26574e-16 0)
(2 5.03414e-16 0)
(2 6.89549e-16 0)
(2 7.02231e-16 0)
(2 5.37815e-16 0)
(2 1.13946e-16 0)
(2 -1.49994e-16 0)
(2 -1.56351e-16 0)
(2 -1.24273e-16 0)
(2 -1.58047e-16 0)
(2 -2.02491e-17 0)
(2 4.87261e-16 0)
(2 5.5065e-16 0)
(2 7.78916e-16 0)
(2 1.35152e-15 0)
(2 1.49639e-15 0)
(2 1.43337e-15 0)
(2 1.40551e-15 0)
(2 7.92555e-16 0)
(2 4.76234e-16 0)
(2 1.48751e-16 0)
(2 3.89834e-16 0)
(2 4.9998e-16 0)
(2 6.09948e-16 0)
(2 5.22406e-17 0)
(2 -1.12852e-16 0)
(2 -2.85961e-16 0)
(2 -5.9545e-16 0)
(2 -8.12744e-16 0)
(2 -8.32188e-16 0)
(2 -6.92904e-16 0)
(2 -5.62118e-16 0)
(2 -3.24163e-16 0)
(2 -1.24483e-16 0)
(2 -3.67591e-18 0)
(2 -4.02734e-18 0)
(2 -5.54495e-17 0)
(2 -1.06795e-16 0)
(2 -9.39166e-17 0)
(2 3.01568e-17 0)
(2 1.3609e-16 0)
(2 1.60932e-16 0)
(2 1.74163e-16 0)
(2 1.83625e-16 0)
(2 9.56402e-17 0)
(2 -8.80843e-17 0)
(2 -2.02998e-16 0)
(2 -1.13622e-16 0)
(2 -1.57414e-16 0)
(2 -2.40025e-16 0)
(2 -3.4024e-16 0)
(2 -2.98367e-16 0)
(2 -6.67049e-17 0)
(2 7.5561e-17 0)
(2 5.00952e-16 0)
(2 5.11574e-16 0)
(2 6.27102e-16 0)
(2 7.07874e-16 0)
(2 7.39259e-16 0)
(2 8.7089e-16 0)
(2 1.00721e-15 0)
(2 1.12895e-15 0)
(2 1.45873e-15 0)
(2 1.63483e-15 0)
(2 2.00864e-15 0)
(2 2.6866e-15 0)
(2 2.78931e-15 0)
(2 2.60658e-15 0)
(2 2.15114e-15 0)
(2 1.86866e-15 0)
(2 1.92396e-15 0)
(2 2.01025e-15 0)
(2 1.93467e-15 0)
(2 1.87635e-15 0)
(2 1.74221e-15 0)
(2 1.67071e-15 0)
(2 1.5618e-15 0)
(2 1.35403e-15 0)
(2 1.27526e-15 0)
(2 1.2269e-15 0)
(2 1.17849e-15 0)
(2 1.15877e-15 0)
(2 1.14323e-15 0)
(2 1.13919e-15 0)
(2 1.11445e-15 0)
(2 1.09583e-15 0)
(2 1.0735e-15 0)
(2 1.0224e-15 0)
(2 1.01731e-15 0)
(2 9.94347e-16 0)
(2 9.85202e-16 0)
(2 9.67479e-16 0)
(2 9.3905e-16 0)
(2 8.76315e-16 0)
(2 8.14069e-16 0)
(2 7.88235e-16 0)
(2 6.37643e-16 0)
(2 5.19651e-16 0)
(2 4.55322e-16 0)
(2 3.64884e-16 0)
(2 3.84458e-16 0)
(2 3.5565e-16 0)
(2 2.49139e-16 0)
(2 1.71904e-16 0)
(2 1.64995e-16 0)
(2 3.90065e-17 0)
(2 -1.0687e-16 0)
(2 -1.86781e-16 0)
(2 -3.08829e-16 0)
(2 -4.48363e-16 0)
(2 -5.61829e-16 0)
(2 -9.35899e-16 0)
(2 -1.29683e-15 0)
(2 -1.37237e-15 0)
(2 -1.21893e-15 0)
(2 -9.76294e-16 0)
(2 -8.72353e-16 0)
(2 -7.33216e-16 0)
(2 -6.0986e-16 0)
(2 -3.21274e-16 0)
(2 -1.96359e-16 0)
(2 -1.3359e-16 0)
(2 8.18746e-17 0)
(2 5.71616e-17 0)
(2 -7.38731e-17 0)
(2 -3.91634e-16 0)
(2 -6.09606e-16 0)
(2 -7.48845e-16 0)
(2 -7.1296e-16 0)
(2 -7.13068e-16 0)
(2 -1.907e-16 0)
(2 1.18016e-18 0)
(2 -5.94116e-16 0)
(2 -8.56622e-16 0)
(2 -7.97005e-16 0)
(2 -7.21614e-16 0)
(2 -7.31932e-16 0)
(2 -7.23244e-16 0)
(2 -6.21988e-16 0)
(2 -3.86456e-16 0)
(2 7.03582e-17 0)
(2 1.6707e-16 0)
(2 -7.69888e-17 0)
(2 -3.41793e-16 0)
(2 -7.38814e-16 0)
(2 -1.0137e-15 0)
(2 -1.18791e-15 0)
(2 -1.29687e-15 0)
(2 -1.33945e-15 0)
(2 -1.37434e-15 0)
(2 -1.3316e-15 0)
(2 -1.21277e-15 0)
(2 -1.12181e-15 0)
(2 -8.57391e-16 0)
(2 -6.09965e-16 0)
(2 -3.86486e-16 0)
(2 -3.24381e-16 0)
(2 -3.46776e-16 0)
(2 -4.19139e-16 0)
(2 -5.22338e-16 0)
(2 -5.05126e-16 0)
(2 -5.57277e-16 0)
(2 -6.53636e-16 0)
(2 -7.46761e-16 0)
(2 -8.12151e-16 0)
(2 -8.32136e-16 0)
(2 -9.29253e-16 0)
(2 -1.03909e-15 0)
(2 -1.35852e-15 0)
(2 -1.38762e-15 0)
(2 -1.25183e-15 0)
(2 -1.15002e-15 0)
(2 -8.19301e-16 0)
(2 -5.76589e-16 0)
(2 -2.76538e-16 0)
(2 -3.60737e-17 0)
(2 4.14611e-16 0)
(2 1.90187e-16 0)
(2 -1.38534e-16 0)
(2 -4.51347e-16 0)
(2 -3.58485e-16 0)
(2 -2.04117e-16 0)
(2 -1.37263e-16 0)
(2 -3.34605e-16 0)
(2 -4.56741e-16 0)
(2 -5.97855e-16 0)
(2 -8.66927e-16 0)
(2 -1.08561e-15 0)
(2 -1.06176e-15 0)
(2 9.32972e-17 0)
(2 3.76092e-16 0)
(2 2.56578e-16 0)
(2 -2.54838e-16 0)
(2 -3.91092e-16 0)
(2 -7.0562e-16 0)
(2 -9.52118e-16 0)
(2 -1.22161e-15 0)
(2 -1.20783e-15 0)
(2 -1.28227e-15 0)
(2 -1.64362e-15 0)
(2 -1.81738e-15 0)
(2 -1.71741e-15 0)
(2 -1.24454e-15 0)
(2 -6.51805e-16 0)
(2 -3.30088e-16 0)
(2 1.15121e-16 0)
(2 2.88766e-16 0)
(2 1.73614e-16 0)
(2 -7.89404e-17 0)
(2 -6.21907e-16 0)
(2 -6.64175e-16 0)
(2 -7.51437e-16 0)
(2 -7.86654e-16 0)
(2 -3.44899e-16 0)
(2 4.02097e-16 0)
(2 4.22798e-16 0)
(2 2.32744e-16 0)
(2 2.68347e-16 0)
(2 5.67915e-16 0)
(2 8.39035e-16 0)
(2 1.40216e-15 0)
(2 1.43002e-15 0)
(2 1.34715e-15 0)
(2 1.32087e-15 0)
(2 1.20952e-15 0)
(2 1.13134e-15 0)
(2 9.56445e-16 0)
(2 8.81333e-16 0)
(2 8.58148e-16 0)
(2 3.80439e-16 0)
(2 5.81794e-17 0)
(2 -1.3971e-16 0)
(2 -6.58672e-16 0)
(2 -6.25424e-16 0)
(2 -1.94369e-16 0)
(2 5.08583e-16 0)
(2 1.04825e-15 0)
(2 1.06366e-15 0)
(2 1.13711e-15 0)
(2 1.27491e-15 0)
(2 1.37497e-15 0)
(2 1.39882e-15 0)
(2 1.37737e-15 0)
(2 1.19987e-15 0)
(2 1.19961e-15 0)
(2 1.22689e-15 0)
(2 1.15117e-15 0)
(2 1.04829e-15 0)
(2 5.80944e-16 0)
(2 2.08432e-16 0)
(2 2.06801e-16 0)
(2 7.04514e-17 0)
(2 -4.98366e-17 0)
(2 -2.66964e-16 0)
(2 -3.20492e-16 0)
(2 -2.81235e-16 0)
(2 -3.39738e-16 0)
(2 -3.89144e-16 0)
(2 -3.2609e-16 0)
(2 -3.20146e-16 0)
(2 -5.49842e-16 0)
(2 -7.26642e-16 0)
(2 -9.21775e-16 0)
(2 -9.50196e-16 0)
(2 -8.69072e-16 0)
(2 -7.76127e-16 0)
(2 -5.63588e-16 0)
(2 1.06702e-16 0)
(2 7.20202e-16 0)
(2 1.00559e-15 0)
(2 1.10496e-15 0)
(2 9.7955e-16 0)
(2 8.77355e-16 0)
(2 7.35951e-16 0)
(2 6.84804e-16 0)
(2 1.76802e-16 0)
(2 -4.25737e-17 0)
(2 -7.57711e-16 0)
(2 -1.47412e-15 0)
(2 -1.64122e-15 0)
(2 -1.58043e-15 0)
(2 -1.40946e-15 0)
(2 -1.4939e-15 0)
(2 -1.89408e-15 0)
(2 -1.97853e-15 0)
(2 -1.48449e-15 0)
(2 -1.53681e-15 0)
(2 -1.41938e-15 0)
(2 -1.32069e-15 0)
(2 -1.21702e-15 0)
(2 -1.31955e-15 0)
(2 -1.63914e-15 0)
(2 -1.65882e-15 0)
(2 -1.90216e-15 0)
(2 -1.77528e-15 0)
(2 -1.64893e-15 0)
(2 -1.54808e-15 0)
(2 -9.15591e-16 0)
(2 -6.59758e-16 0)
(2 -3.8748e-16 0)
(2 -1.07125e-16 0)
(2 5.29461e-16 0)
(2 7.50652e-16 0)
(2 6.25908e-16 0)
(2 7.39796e-16 0)
(2 9.91143e-16 0)
(2 1.35828e-15 0)
(2 1.37628e-15 0)
(2 1.23653e-15 0)
(2 1.20064e-15 0)
(2 1.65008e-15 0)
(2 1.74911e-15 0)
(2 1.74547e-15 0)
(2 1.74502e-15 0)
(2 1.82036e-15 0)
(2 1.84016e-15 0)
(2 1.7788e-15 0)
(2 4.14862e-18 0)
(2 -3.92952e-17 0)
(2 3.39112e-17 0)
(2 5.06642e-17 0)
(2 4.99624e-17 0)
(2 8.52148e-17 0)
(2 1.33852e-16 0)
(2 7.48804e-17 0)
(2 1.38626e-16 0)
(2 5.30709e-17 0)
(2 -8.49015e-17 0)
(2 -1.05358e-16 0)
(2 3.782e-17 0)
(2 -2.042e-17 0)
(2 -1.27151e-16 0)
(2 -1.34025e-16 0)
(2 -7.55563e-17 0)
(2 -2.21638e-17 0)
(2 2.21436e-17 0)
(2 3.7867e-16 0)
(2 4.4503e-16 0)
(2 4.55323e-16 0)
(2 3.94999e-16 0)
(2 2.81794e-16 0)
(2 2.41466e-16 0)
(2 9.56868e-17 0)
(2 5.20398e-19 0)
(2 -3.87891e-17 0)
(2 -1.76984e-16 0)
(2 -2.27106e-16 0)
(2 -1.86126e-16 0)
(2 -1.23722e-16 0)
(2 -4.32764e-17 0)
(2 1.52538e-16 0)
(2 1.78678e-16 0)
(2 9.23125e-17 0)
(2 -1.17238e-16 0)
(2 -4.43317e-16 0)
(2 -5.87936e-16 0)
(2 -6.70726e-16 0)
(2 -7.73347e-16 0)
(2 -9.15527e-16 0)
(2 -1.09427e-15 0)
(2 -1.23694e-15 0)
(2 -1.30686e-15 0)
(2 -1.30992e-15 0)
(2 -1.1655e-15 0)
(2 -9.98914e-16 0)
(2 -9.08533e-16 0)
(2 -8.05847e-16 0)
(2 -7.6035e-16 0)
(2 -6.16631e-16 0)
(2 -4.58764e-16 0)
(2 -3.87493e-16 0)
(2 -3.357e-16 0)
(2 -2.07913e-16 0)
(2 -1.52387e-16 0)
(2 -1.27398e-16 0)
(2 -2.16466e-16 0)