/*--------------------------------*- C++ -*----------------------------------*\
  =========                 |
  \\      /  F ield         | OpenFOAM: The Open Source CFD Toolbox
   \\    /   O peration     | Website:  https://openfoam.org
    \\  /    A nd           | Version:  7
     \\/     M anipulation  |
\*---------------------------------------------------------------------------*/
FoamFile
{
    version     2.0;
    format      ascii;
    class       volVectorField;
    location    "98";
    object      U;
}
// * * * * * * * * * * * * * * * * * * * * * * * * * * * * * * * * * * * * * //

dimensions      [0 1 -1 0 0 0 0];

internalField   nonuniform List<vector> 
41600
(
(-0.063563 0.170177 -6.6343e-20)
(-0.148471 0.0483867 -1.15571e-19)
(-0.191602 -0.166498 1.4198e-22)
(-0.174305 -0.413489 -1.30454e-19)
(-0.152677 -0.580872 1.80651e-19)
(-0.133849 -0.64943 -3.88349e-19)
(-0.0862367 -0.591465 -5.45948e-20)
(0.0257141 -0.389455 4.31178e-19)
(0.174657 -0.106675 -9.31848e-20)
(0.321134 0.164985 -1.39161e-19)
(0.438821 0.370701 -4.81968e-20)
(0.513668 0.497601 1.26999e-19)
(0.553171 0.560099 -6.46416e-20)
(0.556388 0.581398 -6.03847e-20)
(0.522539 0.591109 -5.84102e-20)
(0.471006 0.563675 1.52577e-20)
(0.469689 0.43134 3.16334e-21)
(0.530486 0.199748 -1.18594e-19)
(0.626975 -0.0570535 2.30423e-20)
(0.700894 -0.254873 3.02652e-20)
(0.749574 -0.37761 -1.20732e-19)
(0.769923 -0.431084 9.26641e-20)
(0.76001 -0.457723 -2.60054e-20)
(0.719691 -0.465476 6.87446e-21)
(0.669719 -0.429327 2.72916e-20)
(-0.065519 0.178122 -3.15251e-19)
(-0.145987 0.0545327 5.97979e-19)
(-0.18261 -0.164592 -1.50513e-19)
(-0.159628 -0.415328 7.02396e-20)
(-0.137609 -0.582919 -5.36591e-19)
(-0.12499 -0.653974 6.0024e-19)
(-0.0925307 -0.605 -8.9017e-20)
(0.00385433 -0.414402 -5.56031e-19)
(0.142753 -0.137474 1.39963e-19)
(0.284248 0.134893 -4.19244e-19)
(0.402435 0.346686 6.90022e-20)
(0.481388 0.481827 1.91202e-19)
(0.526756 0.553208 1.75948e-19)
(0.533682 0.584514 3.40516e-19)
(0.502043 0.601571 1.10533e-19)
(0.459664 0.569466 1.48849e-19)
(0.47755 0.421071 2.70336e-20)
(0.55411 0.176239 4.05546e-19)
(0.661025 -0.0831733 3.34276e-20)
(0.7338 -0.273314 -1.15625e-19)
(0.777764 -0.387988 -1.17351e-19)
(0.791785 -0.431489 -1.86218e-19)
(0.778275 -0.447968 -7.29297e-20)
(0.735054 -0.447906 -6.68219e-21)
(0.681212 -0.417291 -5.73188e-20)
(-0.0674257 0.185829 6.14658e-20)
(-0.142752 0.0605116 -1.95824e-19)
(-0.171971 -0.162643 -3.51577e-19)
(-0.142309 -0.41668 2.44511e-19)
(-0.118795 -0.583824 5.05893e-19)
(-0.110969 -0.656411 -6.94613e-19)
(-0.0926993 -0.61606 3.76165e-19)
(-0.0129367 -0.437959 3.40327e-20)
(0.115522 -0.168257 5.29837e-19)
(0.251362 0.103747 7.44767e-19)
(0.369084 0.320818 4.47919e-19)
(0.451531 0.463829 8.21578e-21)
(0.502053 0.544426 -2.73346e-21)
(0.512134 0.586196 -3.18399e-19)
(0.483829 0.609845 -3.55737e-19)
(0.452723 0.571427 -1.92368e-19)
(0.491333 0.40719 4.86491e-20)
(0.583708 0.1512 -4.555e-19)
(0.699459 -0.108402 1.33943e-19)
(0.769476 -0.289012 -1.61054e-19)
(0.808479 -0.395269 1.33637e-19)
(0.814995 -0.42944 3.38628e-19)
(0.797363 -0.436664 2.09443e-19)
(0.752096 -0.429041 -5.58836e-20)
(0.696277 -0.403106 -4.54943e-20)
(-0.069315 0.193204 -5.60474e-19)
(-0.138824 0.0662733 1.04072e-19)
(-0.159748 -0.160682 1.20008e-18)
(-0.122459 -0.417576 -7.91218e-19)
(-0.0964109 -0.583636 4.75633e-19)
(-0.0919297 -0.656728 1.84058e-18)
(-0.0865309 -0.624317 -9.3965e-19)
(-0.0243407 -0.459678 1.44707e-18)
(0.093046 -0.198698 6.57064e-19)
(0.222674 0.0718674 7.57397e-19)
(0.339062 0.293349 1.56497e-19)
(0.424367 0.443812 -7.21204e-19)
(0.479175 0.533895 -3.77209e-19)
(0.492012 0.586302 2.33397e-19)
(0.468334 0.615589 3.14443e-19)
(0.450688 0.569392 2.17066e-20)
(0.511212 0.389928 -2.439e-19)
(0.619396 0.125182 3.43223e-19)
(0.741839 -0.132098 -9.5194e-19)
(0.807262 -0.30172 -5.61913e-19)
(0.841148 -0.39925 3.40614e-19)
(0.839098 -0.424732 -9.34469e-20)
(0.816831 -0.42398 7.22372e-20)
(0.770449 -0.409333 1.17885e-19)
(0.714043 -0.386948 5.62903e-20)
(-0.0711603 0.200232 5.50574e-20)
(-0.134214 0.0717846 -1.41301e-18)
(-0.145988 -0.158736 1.45606e-18)
(-0.1002 -0.418049 -2.0501e-19)
(-0.0706771 -0.582421 -1.87266e-18)
(-0.0681082 -0.654964 -1.54961e-18)
(-0.0739347 -0.62949 4.42029e-19)
(-0.0299615 -0.479028 -1.28692e-18)
(0.0753668 -0.22845 -8.49241e-19)
(0.198309 0.0395666 -1.22037e-18)
(0.312602 0.264544 -1.42275e-19)
(0.400075 0.422008 2.82137e-19)
(0.458203 0.521746 5.70353e-19)
(0.473605 0.584672 -3.59881e-19)
(0.455943 0.618482 5.44462e-19)
(0.454028 0.563267 -5.66797e-19)
(0.5373 0.369549 -6.74781e-19)
(0.66098 0.0987676 -3.62135e-19)
(0.787554 -0.153589 -2.65049e-19)
(0.846463 -0.311211 6.72888e-19)
(0.875064 -0.399809 -5.80898e-19)
(0.863544 -0.417212 2.13159e-19)
(0.836312 -0.410083 -2.46564e-19)
(0.789662 -0.389224 -1.4014e-19)
(0.73376 -0.368921 -7.99156e-21)
(-0.0729653 0.206853 2.61086e-19)
(-0.128963 0.0770034 1.30712e-18)
(-0.13075 -0.156831 -3.82635e-18)
(-0.0756663 -0.41813 2.2859e-18)
(-0.0418441 -0.580255 1.14612e-18)
(-0.0398255 -0.651213 -2.80433e-19)
(-0.0549653 -0.631378 1.1624e-18)
(-0.0293414 -0.495495 -1.45609e-19)
(0.0625248 -0.25706 2.83755e-19)
(0.178327 0.00715636 1.03956e-18)
(0.289857 0.234682 5.18786e-19)
(0.378732 0.398675 -2.62149e-20)
(0.439204 0.508094 -3.07612e-19)
(0.457214 0.581141 1.16576e-18)
(0.446986 0.618218 -2.61913e-19)
(0.463166 0.553027 8.65361e-19)
(0.569631 0.346381 3.29251e-19)
(0.707908 0.0725564 1.22986e-18)
(0.835745 -0.172241 1.82388e-19)
(0.886363 -0.317291 -7.2979e-19)
(0.909401 -0.396895 4.2812e-19)
(0.887701 -0.406824 -4.21505e-19)
(0.855598 -0.395118 -9.44563e-20)
(0.809183 -0.369148 -2.27382e-19)
(0.754799 -0.349103 -4.28305e-20)
(-0.0747254 0.213033 -5.43146e-19)
(-0.123108 0.0818915 -1.86197e-18)
(-0.114093 -0.154995 1.4688e-18)
(-0.0489971 -0.417848 -3.79276e-18)
(-0.0101843 -0.577221 -1.32023e-18)
(-0.00748043 -0.645621 3.80243e-19)
(-0.0298467 -0.629889 -1.7971e-18)
(-0.0220131 -0.508534 9.65873e-19)
(0.0546422 -0.283998 -7.32504e-19)
(0.16271 -0.0250466 -4.10405e-19)
(0.270881 0.204047 -5.0796e-19)
(0.360328 0.374071 7.298e-19)
(0.422244 0.493024 -7.751e-19)
(0.443135 0.575551 -5.34761e-19)
(0.441754 0.614508 -2.50003e-19)
(0.478445 0.538705 -7.26978e-19)
(0.608128 0.320852 7.52567e-19)
(0.759316 0.0471695 -3.24996e-19)
(0.885319 -0.187517 1.21307e-19)
(0.926238 -0.319814 7.57031e-19)
(0.943247 -0.390529 4.36458e-19)
(0.910896 -0.393665 -5.50278e-19)
(0.874691 -0.379182 4.74131e-19)
(0.828371 -0.349516 4.03338e-19)
(0.776579 -0.32762 -3.22825e-20)
(-0.0764365 0.218733 2.38798e-18)
(-0.11669 0.086409 1.93837e-18)
(-0.0960762 -0.153253 7.86457e-19)
(-0.02033 -0.417228 4.13266e-18)
(0.0240204 -0.573399 1.91779e-18)
(0.0284663 -0.638375 3.12554e-18)
(0.00103352 -0.625055 -1.33286e-18)
(-0.00760145 -0.51757 2.20374e-19)
(0.0519864 -0.308675 7.85784e-20)
(0.15141 -0.0566974 -5.0271e-19)
(0.255631 0.17293 -2.00634e-19)
(0.344789 0.348446 -7.60698e-19)
(0.407403 0.476589 9.15542e-19)
(0.431653 0.567757 8.23705e-20)
(0.440533 0.607092 -7.77181e-19)
(0.500116 0.52039 -1.13708e-19)
(0.652555 0.293499 -8.70096e-19)
(0.814113 0.0232528 -4.06109e-19)
(0.935019 -0.199021 1.30577e-18)
(0.965354 -0.318702 8.09906e-19)
(0.975646 -0.380799 8.84793e-20)
(0.932504 -0.378019 7.54969e-19)
(0.893785 -0.36231 6.79928e-20)
(0.846542 -0.330646 1.50725e-20)
(0.798468 -0.304747 1.25129e-19)
(-0.0780954 0.223921 -2.11727e-18)
(-0.109755 0.090516 1.49747e-18)
(-0.0767525 -0.151627 -1.42267e-19)
(0.0102008 -0.416287 8.45061e-19)
(0.0604884 -0.568864 9.37328e-19)
(0.0675134 -0.629698 -4.51509e-18)
(0.0371258 -0.617048 2.22154e-18)
(0.0140892 -0.522143 -2.30542e-18)
(0.0550084 -0.330372 -5.13931e-19)
(0.144391 -0.0873825 -5.98499e-19)
(0.243991 0.141626 -9.22684e-19)
(0.332017 0.322028 9.75524e-21)
(0.394794 0.458816 -1.48616e-19)
(0.423026 0.557631 -6.65447e-19)
(0.44365 0.595753 1.51383e-18)
(0.528344 0.498242 1.5659e-18)
(0.702448 0.264957 -8.24065e-19)
(0.871009 0.00146203 -6.74719e-19)
(0.983535 -0.206512 -6.74878e-19)
(1.00295 -0.313963 -1.46054e-18)
(1.00566 -0.367865 -7.45641e-19)
(0.952085 -0.360359 3.02484e-20)
(0.913103 -0.344482 -7.92617e-19)
(0.86307 -0.312699 -1.02467e-19)
(0.819791 -0.280968 -3.12797e-19)
(-0.0797003 0.228568 2.4998e-18)
(-0.102349 0.0941711 -4.27151e-18)
(-0.0561715 -0.150142 -3.56259e-18)
(0.0424668 -0.415039 -4.86654e-18)
(0.0989495 -0.56369 1.11952e-18)
(0.109139 -0.619813 7.36072e-19)
(0.0777379 -0.606172 9.98205e-19)
(0.0429917 -0.521955 2.53878e-19)
(0.0643325 -0.348265 3.38743e-19)
(0.141729 -0.116569 -3.8361e-19)
(0.235835 0.110449 8.8297e-19)
(0.321942 0.295021 -1.4052e-19)
(0.38457 0.439716 7.15882e-19)
(0.417479 0.545057 -1.90401e-19)
(0.451514 0.580335 4.06354e-19)
(0.563207 0.472511 -2.64536e-18)
(0.757045 0.235936 -7.12194e-19)
(0.92853 -0.0175822 -2.15678e-18)
(1.02961 -0.209903 -9.41354e-19)
(1.03822 -0.305707 -6.6073e-19)
(1.03241 -0.35199 6.09058e-19)
(0.969544 -0.341282 -2.614e-19)
(0.932611 -0.325679 1.82515e-19)
(0.877576 -0.295611 3.09954e-20)
(0.839794 -0.256999 9.71146e-20)
(-0.0812506 0.232647 3.10052e-19)
(-0.094522 0.0973316 4.75888e-18)
(-0.034375 -0.148819 -5.0093e-19)
(0.0763442 -0.413492 2.20786e-18)
(0.139151 -0.55794 -6.73612e-18)
(0.15283 -0.608928 -2.69518e-19)
(0.122066 -0.592842 -1.63521e-18)
(0.07872 -0.51694 1.18942e-18)
(0.0806614 -0.361497 1.11056e-18)
(0.14371 -0.143552 2.49778e-19)
(0.231115 0.0797647 1.63383e-19)
(0.314573 0.267624 -1.32495e-19)
(0.376933 0.419308 -4.83509e-19)
(0.415214 0.529917 -7.54962e-19)
(0.464655 0.560757 -2.71322e-19)
(0.604688 0.443583 7.50922e-19)
(0.815259 0.207205 3.32476e-18)
(0.985042 -0.0333543 5.87091e-20)
(1.07212 -0.209255 9.06206e-19)
(1.07033 -0.294152 9.04188e-19)
(1.05522 -0.333583 -1.34212e-18)
(0.985197 -0.321377 -1.18898e-19)
(0.951722 -0.305979 3.56648e-19)
(0.890148 -0.279082 -2.67333e-19)
(0.857828 -0.233777 8.59671e-20)
(-0.082747 0.236138 -6.01687e-18)
(-0.086323 0.0999527 -4.06072e-18)
(-0.0113968 -0.147677 4.44018e-18)
(0.111712 -0.411647 -2.5789e-18)
(0.180847 -0.551611 9.05158e-18)
(0.198115 -0.597282 -1.83875e-18)
(0.169242 -0.577558 3.09742e-18)
(0.120553 -0.50731 4.67256e-19)
(0.1046 -0.369283 -9.87953e-19)
(0.150927 -0.167427 9.25623e-19)
(0.229972 0.050046 2.49502e-19)
(0.310042 0.240055 4.53874e-20)
(0.372129 0.39764 -5.42188e-19)
(0.416452 0.512089 6.00889e-19)
(0.483745 0.537035 -1.18791e-18)
(0.652612 0.41201 1.1181e-18)
(0.875678 0.179569 -1.47512e-18)
(1.03884 -0.0454751 3.93751e-19)
(1.1101 -0.204765 -5.12037e-19)
(1.09845 -0.279631 -2.83145e-19)
(1.07371 -0.313218 6.6273e-19)
(0.999624 -0.301081 1.28963e-19)
(0.969257 -0.285668 -1.0642e-20)
(0.901474 -0.262629 -1.13998e-19)
(0.873447 -0.212327 -4.26946e-20)
(-0.084192 0.239025 5.56301e-18)
(-0.0778017 0.101987 1.67079e-18)
(0.0127385 -0.146734 -1.0378e-18)
(0.148454 -0.409492 2.27166e-18)
(0.223802 -0.544705 -7.70716e-18)
(0.244557 -0.585062 4.37212e-18)
(0.218401 -0.560853 -1.17511e-18)
(0.167469 -0.493573 -9.81068e-19)
(0.13644 -0.37106 -2.38658e-19)
(0.16428 -0.18711 -6.58728e-19)
(0.232836 0.0219459 -4.33117e-19)
(0.308644 0.212604 3.0653e-19)
(0.370447 0.374812 6.23904e-19)
(0.421514 0.491447 1.38071e-18)
(0.509609 0.509324 -7.98339e-19)
(0.706542 0.378544 7.28344e-19)
(0.936592 0.153834 1.55847e-18)
(1.08826 -0.0537451 2.71748e-18)
(1.14277 -0.196757 1.05059e-18)
(1.12185 -0.262612 1.47625e-18)
(1.08798 -0.291588 3.04125e-19)
(1.01327 -0.28061 8.34136e-19)
(0.983896 -0.265261 -6.29105e-19)
(0.912636 -0.245776 5.5036e-19)
(0.886652 -0.19339 2.55437e-20)
(-0.0855894 0.241296 -9.31814e-19)
(-0.0690053 0.103386 -2.85237e-18)
(0.0380158 -0.146004 -3.79727e-18)
(0.186451 -0.407015 2.1999e-18)
(0.267797 -0.537248 6.85311e-18)
(0.291767 -0.57237 -1.07406e-18)
(0.268724 -0.543243 -9.95003e-19)
(0.218212 -0.476493 -9.32334e-19)
(0.175969 -0.366642 -4.10692e-19)
(0.184843 -0.201436 1.19677e-19)
(0.240501 -0.00363457 -5.52166e-20)
(0.310859 0.1857 -5.27431e-19)
(0.372228 0.350994 -4.79178e-19)
(0.430984 0.467889 -4.49682e-21)
(0.543193 0.477979 6.74729e-19)
(0.765659 0.344131 -1.7315e-18)
(0.996047 0.130757 -2.63978e-18)
(1.13185 -0.0581564 -1.73815e-18)
(1.16952 -0.185671 3.03912e-19)
(1.14004 -0.243696 -1.09386e-18)
(1.09855 -0.269378 -8.41325e-19)
(1.02602 -0.260061 -1.48956e-18)
(0.994972 -0.245356 3.55772e-19)
(0.924513 -0.228295 -2.30767e-19)
(0.898012 -0.177129 8.08192e-20)
(-0.0869452 0.242943 2.85805e-18)
(-0.0599789 0.104103 2.60206e-18)
(0.064431 -0.145505 4.6364e-18)
(0.22558 -0.404203 -3.52642e-18)
(0.312612 -0.529235 -8.42882e-18)
(0.339403 -0.559287 -4.14603e-18)
(0.319489 -0.525178 9.34825e-19)
(0.27141 -0.457009 1.59431e-19)
(0.222364 -0.356352 1.44192e-18)
(0.213586 -0.209361 4.04108e-19)
(0.254142 -0.0255185 1.11724e-19)
(0.317412 0.159997 3.96492e-19)
(0.377953 0.326446 -4.20102e-20)
(0.445936 0.441414 -5.10695e-19)
(0.585467 0.443638 5.69763e-19)
(0.828642 0.309889 1.18523e-18)
(1.05194 0.110965 1.09294e-18)
(1.1684 -0.0588931 9.03385e-19)
(1.18993 -0.172065 -5.58492e-19)
(1.15293 -0.223585 2.98003e-19)
(1.10612 -0.247138 7.78573e-19)
(1.03719 -0.239613 1.6524e-18)
(1.003 -0.226342 -6.67716e-19)
(0.937083 -0.210457 1.75353e-19)
(0.908593 -0.163033 -1.53174e-19)
(-0.0882662 0.243964 -4.22272e-18)
(-0.0507621 0.104095 3.46759e-18)
(0.0919873 -0.145253 5.19689e-18)
(0.265714 -0.401045 2.40674e-19)
(0.358024 -0.520658 2.65967e-18)
(0.387162 -0.545857 1.53874e-18)
(0.370103 -0.507004 -2.9242e-18)
(0.325701 -0.436126 1.201e-18)
(0.274206 -0.341046 -1.1315e-18)
(0.250988 -0.21023 -1.28016e-19)
(0.275202 -0.0423221 -3.60201e-20)
(0.329372 0.136457 -1.08225e-19)
(0.388503 0.301572 1.45504e-19)
(0.468223 0.412273 -1.23962e-19)
(0.637181 0.40731 6.26307e-19)
(0.893554 0.277053 6.71317e-19)
(1.10217 0.0948993 7.89016e-19)
(1.19706 -0.0563251 3.13503e-19)
(1.20386 -0.156608 -5.72797e-19)
(1.16088 -0.202999 -8.84984e-19)
(1.1113 -0.225254 -1.13055e-18)
(1.04605 -0.219616 3.47648e-19)
(1.00932 -0.208244 8.70819e-19)
(0.949391 -0.192958 2.9595e-19)
(0.919452 -0.150223 -1.28416e-19)
(-0.0895611 0.244359 2.29433e-18)
(-0.0413768 0.103293 -3.20413e-18)
(0.120685 -0.145232 -8.30801e-18)
(0.306715 -0.397523 5.96744e-19)
(0.403808 -0.511511 2.62662e-18)
(0.434761 -0.532101 -9.30995e-19)
(0.4201 -0.488956 5.10553e-19)
(0.379868 -0.414782 6.84014e-19)
(0.329633 -0.322039 -2.08072e-19)
(0.296684 -0.204061 4.98471e-19)
(0.305088 -0.0526851 5.85122e-20)
(0.348296 0.116373 -7.90509e-20)
(0.405618 0.277033 2.22349e-20)
(0.50062 0.381202 -2.89212e-21)
(0.698383 0.370429 -8.03344e-19)
(0.957782 0.246851 -1.04436e-18)
(1.14476 0.082738 -8.24856e-19)
(1.21737 -0.0509984 -7.83497e-20)
(1.21152 -0.140046 -7.55071e-19)
(1.16456 -0.182578 1.4263e-18)
(1.11438 -0.204031 -1.52033e-18)
(1.05245 -0.200455 3.95183e-19)
(1.01508 -0.190917 -3.58038e-19)
(0.960369 -0.176464 3.90115e-20)
(0.930975 -0.138076 2.49215e-19)
(-0.0908416 0.244133 -3.14653e-18)
(-0.031828 0.101627 1.5286e-18)
(0.150531 -0.145422 3.59102e-18)
(0.348433 -0.393618 -9.08783e-19)
(0.449731 -0.501794 2.48519e-18)
(0.481935 -0.518032 3.8366e-18)
(0.469121 -0.471161 4.02393e-19)
(0.432942 -0.393737 -1.32883e-18)
(0.386594 -0.300911 7.74501e-19)
(0.349278 -0.191727 -3.15622e-19)
(0.344667 -0.0556917 1.80953e-19)
(0.376216 0.101225 1.33503e-19)
(0.432291 0.253907 -2.87676e-20)
(0.546335 0.349637 1.00891e-20)
(0.767656 0.334779 1.92312e-19)
(1.01808 0.220325 2.88777e-19)
(1.1781 0.0743465 -5.07551e-20)
(1.22933 -0.0436134 1.69175e-19)
(1.2135 -0.123139 2.58046e-18)
(1.16476 -0.162827 1.07024e-18)
(1.11549 -0.183772 2.25382e-19)
(1.05692 -0.182349 -4.4425e-19)
(1.02053 -0.174348 -1.55888e-19)
(0.969736 -0.161224 -2.51348e-19)
(0.942641 -0.126469 -1.60388e-19)
(-0.0921208 0.243294 2.05125e-18)
(-0.0221065 0.0990597 3.28844e-18)
(0.181544 -0.145823 -2.04533e-18)
(0.390712 -0.389313 2.90901e-19)
(0.495558 -0.491511 3.68957e-18)
(0.528425 -0.50366 1.92277e-18)
(0.516885 -0.45367 3.96091e-18)
(0.484237 -0.373507 1.02327e-18)
(0.443154 -0.279238 -9.73651e-20)
(0.40645 -0.17492 -1.29043e-20)
(0.39365 -0.0513854 -3.91511e-19)
(0.415162 0.0922491 -8.78932e-20)
(0.472325 0.233694 -7.0086e-20)
(0.607324 0.319623 -8.09986e-21)
(0.841352 0.302163 -3.38921e-19)
(1.07083 0.198094 5.82877e-20)
(1.20113 0.0692454 -7.34684e-19)
(1.23349 -0.0349728 -2.08045e-18)
(1.21073 -0.106572 -8.47235e-19)
(1.16225 -0.144122 5.44555e-19)
(1.11491 -0.164744 3.96226e-19)
(1.0601 -0.165337 9.15553e-19)
(1.02533 -0.158713 -4.51134e-19)
(0.977936 -0.147102 7.65934e-20)
(0.953617 -0.115611 4.52926e-20)
(-0.0934125 0.241852 -3.24576e-19)
(-0.0121773 0.0955607 -7.2881e-18)
(0.213736 -0.146423 2.31814e-18)
(0.433383 -0.384589 2.38787e-18)
(0.541054 -0.480676 -8.52194e-18)
(0.573986 -0.489006 1.72563e-18)
(0.563159 -0.436488 -4.81431e-19)
(0.533325 -0.354357 1.73509e-18)
(0.497763 -0.258327 -4.02527e-19)
(0.465359 -0.155851 4.93889e-20)
(0.450186 -0.0410991 -4.94744e-20)
(0.466037 0.089746 2.75797e-19)
(0.528292 0.217871 3.61469e-19)
(0.68174 0.293148 7.03779e-20)
(0.9135 0.273835 1.16445e-19)
(1.11267 0.180136 -2.57198e-19)
(1.21368 0.0666467 3.8198e-19)
(1.23093 -0.0258917 1.19643e-18)
(1.20431 -0.0908967 4.61594e-19)
(1.15773 -0.126734 -1.84874e-18)
(1.11305 -0.147107 -5.28781e-20)
(1.06233 -0.149419 -9.31779e-19)
(1.02928 -0.144166 2.31669e-19)
(0.985402 -0.133917 7.74272e-20)
(0.963432 -0.105671 -1.47773e-19)
(-0.0947314 0.239818 -3.54061e-18)
(-0.00196958 0.0911059 2.51782e-18)
(0.247107 -0.147197 9.15855e-19)
(0.47627 -0.379428 -2.39236e-18)
(0.585987 -0.46931 7.52875e-18)
(0.618386 -0.474096 -4.42126e-18)
(0.607738 -0.419609 -3.57702e-18)
(0.57997 -0.336356 -1.2799e-18)
(0.549389 -0.239033 4.6952e-19)
(0.523227 -0.136747 -1.16892e-19)
(0.510965 -0.0273132 -1.55031e-19)
(0.527283 0.0925573 -8.77909e-19)
(0.598581 0.206946 -6.36658e-19)
(0.762539 0.271089 3.36856e-21)
(0.977044 0.249976 7.74701e-20)
(1.14142 0.165755 1.2646e-18)
(1.2166 0.0655898 1.76807e-18)
(1.22313 -0.0170865 1.86165e-18)
(1.19537 -0.0764969 8.7651e-19)
(1.15182 -0.110822 1.11015e-18)
(1.11033 -0.130908 -2.40586e-19)
(1.06373 -0.134619 6.69803e-19)
(1.03251 -0.13072 4.18073e-19)
(0.992198 -0.121625 -5.13754e-20)
(0.972082 -0.0966206 1.4864e-19)
(-0.0960918 0.237204 2.38052e-18)
(0.0086275 0.0856938 7.43409e-19)
(0.281649 -0.148112 6.79527e-19)
(0.519192 -0.373814 -6.71836e-18)
(0.630133 -0.457438 -1.37538e-17)
(0.66141 -0.458967 -6.56431e-20)
(0.650444 -0.403025 5.11035e-18)
(0.624047 -0.319459 -9.99073e-19)
(0.597512 -0.22174 7.82751e-19)
(0.577888 -0.119348 -3.73368e-20)
(0.572008 -0.0129768 4.78875e-19)
(0.594411 0.0981621 1.27027e-18)
(0.676062 0.199688 6.36167e-19)
(0.839308 0.252627 -2.69579e-20)
(1.02622 0.229658 3.51288e-19)
(1.15687 0.153839 -1.24327e-19)
(1.21171 0.0651554 4.4507e-19)
(1.21179 -0.00908044 -8.04743e-19)
(1.18492 -0.0635804 -1.317e-18)
(1.14509 -0.0964379 -1.40168e-19)
(1.10704 -0.116125 -5.12935e-19)
(1.06442 -0.120955 1.63825e-19)
(1.03521 -0.118303 -6.31438e-19)
(0.998225 -0.110258 -3.90957e-19)
(0.979759 -0.0883099 4.57833e-21)
(-0.0975071 0.234017 -2.64088e-18)
(0.0197704 0.0793504 4.9829e-18)
(0.317332 -0.149132 1.66605e-18)
(0.56196 -0.367734 3.85359e-18)
(0.673279 -0.445095 6.57001e-18)
(0.702869 -0.443659 -2.44544e-18)
(0.691127 -0.38674 -3.20257e-18)
(0.665489 -0.303573 1.50091e-18)
(0.64198 -0.206464 -8.61322e-19)
(0.628071 -0.104626 7.64274e-20)
(0.629769 -0.000591704 -8.86416e-20)
(0.661168 0.103501 -9.53111e-19)
(0.750504 0.193469 -7.64576e-19)
(0.902746 0.235818 1.3722e-19)
(1.05869 0.211468 1.18559e-20)
(1.16091 0.143297 -8.14441e-19)
(1.20141 0.0646641 1.64215e-18)
(1.19848 -0.00216157 2.23099e-19)
(1.1738 -0.052201 -9.46284e-19)
(1.13797 -0.0835491 5.21917e-19)
(1.1034 -0.102703 6.78293e-19)
(1.06454 -0.108409 4.61548e-19)
(1.03744 -0.106848 4.13179e-19)
(1.00347 -0.0998174 4.25199e-19)
(0.986609 -0.0806158 -1.24271e-19)
(-0.098989 0.230263 6.10807e-18)
(0.0316642 0.0721375 2.85045e-18)
(0.354106 -0.150213 6.56538e-19)
(0.604388 -0.361176 1.32653e-17)
(0.715227 -0.432319 2.55015e-18)
(0.7426 -0.428219 -3.20747e-18)
(0.729669 -0.370761 -4.89628e-18)
(0.704266 -0.288602 -3.18734e-18)
(0.682849 -0.193017 -4.18256e-19)
(0.673334 -0.0928155 6.54915e-21)
(0.681926 0.00843116 -1.20142e-19)
(0.721758 0.106152 -4.76313e-19)
(0.813377 0.185702 2.57556e-19)
(0.948535 0.218915 -5.12717e-19)
(1.07606 0.194303 -7.44624e-19)
(1.15679 0.133407 9.52634e-20)
(1.1881 0.0637583 -1.19541e-18)
(1.18448 0.00359234 7.98634e-19)
(1.16261 -0.0423012 1.21647e-18)
(1.13076 -0.0720714 -1.22443e-18)
(1.09955 -0.0905592 -7.99105e-19)
(1.06423 -0.0969389 -1.06957e-18)
(1.03924 -0.0962935 -1.55685e-20)
(1.00802 -0.09027 -2.00691e-19)
(0.992705 -0.073455 1.41364e-20)
(-0.100545 0.225939 -2.556e-18)
(0.0445615 0.0641582 -1.2287e-17)
(0.391893 -0.151306 -7.29303e-18)
(0.646289 -0.354135 -1.55976e-17)
(0.755798 -0.419153 1.21777e-18)
(0.780468 -0.412695 -8.5136e-19)
(0.765988 -0.3551 -6.35618e-19)
(0.740374 -0.274461 2.67708e-18)
(0.720266 -0.181146 2.83014e-20)
(0.713783 -0.0836587 -5.32988e-20)
(0.727505 0.0138356 1.96998e-19)
(0.772735 0.105082 8.03115e-19)
(0.86118 0.175188 8.92393e-19)
(0.977864 0.201293 2.62964e-19)
(1.08238 0.177751 -8.16229e-20)
(1.14793 0.123884 2.08274e-19)
(1.17368 0.0623492 9.14512e-19)
(1.17064 0.00824433 7.25824e-19)
(1.15171 -0.0337607 -6.21359e-19)
(1.12366 -0.061892 8.30436e-19)
(1.0956 -0.0796036 7.9055e-19)
(1.06358 -0.0864887 4.42271e-19)
(1.04065 -0.0865835 -2.99788e-20)
(1.01196 -0.081556 4.98687e-21)
(0.998061 -0.0667909 2.55592e-19)
(-0.102179 0.221035 -5.85272e-19)
(0.0587566 0.0555612 -7.48489e-18)
(0.430585 -0.152355 8.64176e-19)
(0.687484 -0.346609 9.62928e-18)
(0.794834 -0.405646 -3.97452e-18)
(0.81637 -0.397135 7.82134e-18)
(0.800036 -0.339769 -3.94555e-18)
(0.773847 -0.26108 -1.03832e-18)
(0.754411 -0.170603 9.76139e-19)
(0.749779 -0.0766838 7.34617e-20)
(0.76655 0.0161339 -7.23318e-20)
(0.813493 0.10059 -3.86428e-19)
(0.895192 0.162289 -2.70492e-19)
(0.995026 0.183344 2.13729e-19)
(1.08204 0.161913 -6.63861e-19)
(1.13704 0.114721 -2.00239e-19)
(1.1594 0.060498 -2.00634e-19)
(1.15748 0.0119242 -5.76324e-19)
(1.14133 -0.026435 8.27696e-19)
(1.11681 -0.0528878 -3.83737e-19)
(1.09162 -0.0697438 -5.50349e-19)
(1.06268 -0.0769934 3.25562e-19)
(1.0417 -0.0776632 -7.12437e-20)
(1.01535 -0.0736089 1.88356e-19)
(1.00273 -0.0606075 6.46543e-20)
(-0.103887 0.215531 9.76858e-18)
(0.074573 0.04654 1.77304e-17)
(0.470047 -0.153303 6.28945e-18)
(0.7278 -0.338604 2.99914e-18)
(0.832201 -0.391846 1.01125e-17)
(0.850232 -0.38159 -3.63043e-19)
(0.831801 -0.324782 2.23858e-18)
(0.804748 -0.248392 -2.46585e-19)
(0.785485 -0.16117 -1.07369e-18)
(0.781751 -0.071396 -4.76369e-20)
(0.799696 0.0161329 9.06478e-20)
(0.845419 0.0937034 -8.66599e-19)
(0.918948 0.148145 -3.77874e-19)
(1.00458 0.16582 -1.80996e-20)
(1.07839 0.14704 1.06821e-19)
(1.12577 0.105998 1.70473e-19)
(1.14591 0.0583156 -5.60474e-20)
(1.14521 0.0147785 -7.28268e-19)
(1.13159 -0.0201767 -4.49056e-19)
(1.11027 -0.0449363 1.45092e-19)
(1.08767 -0.0608901 1.02899e-18)
(1.06159 -0.0683808 8.95762e-20)
(1.04244 -0.069481 2.05035e-19)
(1.01825 -0.0663657 -6.09577e-19)
(1.00676 -0.0548748 -2.21312e-19)
(-0.105657 0.209395 -1.05948e-17)
(0.0923442 0.0373276 -1.48753e-17)
(0.510109 -0.154085 -1.52585e-17)
(0.76708 -0.330129 -2.38758e-18)
(0.867788 -0.377805 -1.58527e-17)
(0.882011 -0.366106 -6.81678e-19)
(0.861301 -0.310148 -2.47175e-18)
(0.833172 -0.236341 8.07119e-20)
(0.8137 -0.152661 1.22776e-18)
(0.810131 -0.0673653 1.71192e-20)
(0.827837 0.014615 -1.88097e-19)
(0.870597 0.0855424 7.61642e-19)
(0.93594 0.133868 2.44351e-19)
(1.00988 0.149318 8.49122e-20)
(1.07344 0.133303 3.42241e-19)
(1.115 0.0977861 -3.04507e-19)
(1.13352 0.0559118 -1.1818e-19)
(1.13393 0.016946 1.63047e-18)
(1.12254 -0.0148468 -5.16628e-19)
(1.10408 -0.0379219 3.44307e-19)
(1.08378 -0.0529569 -6.25222e-19)
(1.0604 -0.060576 -6.90262e-19)
(1.04289 -0.0619895 -6.09125e-19)
(1.02071 -0.0597612 5.49215e-19)
(1.01022 -0.049573 -4.41225e-19)
(-0.107467 0.202586 6.63538e-18)
(0.112389 0.0281849 9.52984e-18)
(0.550579 -0.154633 7.18912e-19)
(0.805179 -0.321201 -1.95446e-18)
(0.90151 -0.363576 8.05378e-18)
(0.911692 -0.350729 5.50298e-18)
(0.888583 -0.295875 4.73205e-18)
(0.859236 -0.224873 9.01204e-19)
(0.839277 -0.144915 -5.89381e-19)
(0.835338 -0.0642454 3.11834e-19)
(0.851888 0.0122041 7.16812e-21)
(0.890904 0.0769682 -2.64663e-19)
(0.948668 0.120187 1.89135e-19)
(1.01292 0.134138 6.7179e-20)
(1.06824 0.120753 3.86576e-20)
(1.10511 0.0901186 1.75712e-19)
(1.1223 0.0533795 -1.04237e-18)
(1.12364 0.01855 -1.33884e-18)
(1.11419 -0.0103185 2.81903e-19)
(1.09825 -0.0317385 -1.10994e-18)
(1.08 -0.0458618 -2.91829e-19)
(1.05913 -0.0535048 1.5226e-20)
(1.04308 -0.0551437 8.0602e-21)
(1.02278 -0.0537355 2.58553e-19)
(1.01318 -0.0446785 5.70208e-19)
(-0.109284 0.195052 2.76029e-18)
(0.134983 0.0193834 -8.31808e-18)
(0.591239 -0.154877 6.6526e-18)
(0.841968 -0.311841 -3.09484e-18)
(0.933307 -0.34921 4.07576e-18)
(0.939284 -0.335502 -7.29907e-19)
(0.913715 -0.28197 -3.64932e-18)
(0.883074 -0.213936 1.88187e-19)
(0.862444 -0.137798 -1.1373e-19)
(0.857775 -0.0617667 8.78764e-20)
(0.872648 0.00934687 2.72417e-20)
(0.907715 0.0685219 1.86216e-19)
(0.958677 0.107462 -9.31631e-20)
(1.01479 0.12036 8.90824e-20)
(1.0633 0.109361 2.89596e-19)
(1.09622 0.0830038 3.34404e-19)
(1.11223 0.0507928 5.8123e-19)
(1.11431 0.0196968 -1.34377e-19)
(1.10651 -0.00647829 8.56118e-19)
(1.09278 -0.0262901 5.44681e-19)
(1.07636 -0.0395262 3.19449e-19)
(1.05783 -0.0470961 2.93064e-19)
(1.04302 -0.0489014 3.58116e-19)
(1.02452 -0.0482323 -1.22651e-19)
(1.01572 -0.0401631 -4.38814e-19)
(-0.111062 0.186738 -4.1174e-18)
(0.160328 0.0111832 1.91167e-18)
(0.631854 -0.154745 1.34885e-17)
(0.877339 -0.302077 1.2332e-17)
(0.963142 -0.334759 -6.35573e-18)
(0.964821 -0.320461 -4.55483e-18)
(0.936786 -0.268437 -2.86971e-19)
(0.904834 -0.203487 -6.24257e-19)
(0.883427 -0.131196 1.22258e-18)
(0.877809 -0.059723 1.60879e-19)
(0.890758 0.00634303 1.47416e-19)
(0.921961 0.0605024 -1.48773e-20)
(0.966885 0.0958277 -4.84997e-20)
(1.01608 0.107947 -1.22137e-19)
(1.05882 0.0990612 -3.61706e-19)
(1.08833 0.0764333 -9.63056e-19)
(1.10325 0.0482098 -4.03642e-19)
(1.10587 0.0204764 1.32261e-19)
(1.09949 -0.00322626 -1.16297e-18)
(1.08766 -0.0214909 -2.68871e-19)
(1.07289 -0.0338747 -1.71031e-19)
(1.0565 -0.0412846 -3.82325e-19)
(1.04273 -0.0432222 6.0569e-20)
(1.02598 -0.0431978 -8.74283e-20)
(1.01787 -0.0359998 -3.85681e-20)
(-0.11274 0.177587 -5.02973e-18)
(0.188532 0.00380948 4.44263e-18)
(0.67218 -0.15417 -3.37836e-19)
(0.911199 -0.29194 -6.51668e-18)
(0.991003 -0.320271 4.83766e-18)
(0.988354 -0.305643 3.1943e-18)
(0.957897 -0.255275 -9.72832e-19)
(0.924665 -0.193481 -1.72778e-18)
(0.902442 -0.125011 -3.4359e-19)
(0.895768 -0.0579587 -1.26739e-18)
(0.906717 0.00338683 -4.40345e-19)
(0.934271 0.0530593 5.55163e-20)
(0.973849 0.0852979 7.24456e-20)
(1.01709 0.096813 1.93354e-19)
(1.05488 0.0897727 -4.16722e-19)
(1.0814 0.0703892 5.23405e-19)
(1.09527 0.0456747 2.62372e-19)
(1.09827 0.0209648 2.92827e-20)
(1.09308 -0.00047495 8.077e-19)
(1.08288 -0.0172638 -1.75093e-19)
(1.06961 -0.0288364 -7.36173e-20)
(1.05515 -0.0360114 3.96446e-19)
(1.04227 -0.0380665 -1.29913e-19)
(1.02723 -0.0385811 5.07548e-19)
(1.01969 -0.0321632 -3.55497e-19)
(-0.114237 0.167552 1.96124e-18)
(0.219586 -0.00256919 -1.0322e-17)
(0.71197 -0.153089 -1.2858e-17)
(0.943477 -0.281466 -8.09788e-18)
(1.0169 -0.305792 7.2425e-18)
(1.00995 -0.291076 -3.92183e-18)
(0.97716 -0.242484 4.42848e-18)
(0.942721 -0.183881 2.08796e-18)
(0.919693 -0.119166 -3.63075e-19)
(0.911933 -0.0563584 1.20658e-19)
(0.920907 0.000601076 3.68768e-19)
(0.945079 0.0462576 5.26661e-21)
(0.979922 0.0758327 8.10592e-21)
(1.018 0.086855 7.76661e-21)
(1.05148 0.0814129 1.523e-19)
(1.07533 0.0648481 -7.15379e-19)
(1.0882 0.0432208 -5.53864e-19)
(1.09144 0.0212251 7.34188e-19)
(1.08725 0.00185177 -2.45953e-19)
(1.07843 -0.01354 -9.34569e-20)
(1.06654 -0.024345 4.93183e-19)
(1.05376 -0.0312239 -2.13326e-19)
(1.04168 -0.0333939 -5.58838e-19)
(1.02829 -0.0343353 -4.40427e-19)
(1.0212 -0.0286309 6.05351e-19)
(-0.115456 0.156605 2.38136e-19)
(0.253364 -0.00785705 2.98699e-18)
(0.750983 -0.151451 4.0668e-18)
(0.974116 -0.270697 1.3301e-17)
(1.04085 -0.291366 -1.15008e-17)
(1.0297 -0.276786 3.02995e-18)
(0.994694 -0.23006 -2.73121e-18)
(0.959152 -0.174653 6.58242e-19)
(0.935367 -0.113595 -9.7901e-19)
(0.926545 -0.0548369 -5.89322e-19)
(0.933626 -0.00193896 -4.66703e-19)
(0.954694 0.0401142 -1.36725e-19)
(0.985333 0.0673672 2.3538e-19)
(1.01889 0.0779682 -2.04591e-19)
(1.04859 0.0739017 -3.66657e-19)
(1.07005 0.0597837 1.20261e-18)
(1.08195 0.0408726 1.3417e-18)
(1.0853 0.0213097 -1.93064e-19)
(1.08194 0.00382006 8.95462e-20)
(1.0743 -0.010258 2.5728e-19)
(1.06367 -0.0203395 -3.70933e-19)
(1.05235 -0.0268744 3.96932e-19)
(1.04101 -0.0291639 3.93909e-19)
(1.0292 -0.0304186 -4.97495e-19)
(1.02242 -0.025385 -5.51343e-19)
(-0.116276 0.144747 2.31539e-18)
(0.289631 -0.012038 6.08391e-18)
(0.788995 -0.14922 -1.23157e-17)
(1.00308 -0.259674 -7.62869e-18)
(1.0629 -0.277032 5.66357e-18)
(1.04768 -0.262794 4.11831e-18)
(1.01062 -0.217998 4.19663e-18)
(0.974101 -0.165765 -1.97955e-18)
(0.949634 -0.108246 8.26636e-19)
(0.939806 -0.0533326 2.44426e-19)
(0.945107 -0.0041898 -1.47911e-19)
(0.96334 0.034619 -6.48043e-19)
(0.990235 0.0598274 -7.98906e-19)
(1.01982 0.0700525 -4.4351e-19)
(1.04618 0.0671637 9.43001e-19)
(1.06547 0.0551688 -2.06268e-19)
(1.07643 0.0386476 -1.95835e-20)
(1.0798 0.0212621 3.6202e-19)
(1.07712 0.00548744 -8.68514e-21)
(1.07048 -0.00736343 3.23084e-19)
(1.06099 -0.0167646 -4.12331e-19)
(1.05092 -0.0229189 2.55383e-19)
(1.0403 -0.0253368 8.3935e-19)
(1.02996 -0.026794 4.97249e-19)
(1.02336 -0.0224082 1.00243e-20)
(-0.11655 0.13202 -6.39595e-18)
(0.328063 -0.0151721 -5.53497e-18)
(0.825802 -0.146373 7.46918e-18)
(1.03035 -0.248444 -6.01632e-18)
(1.08312 -0.262825 2.98966e-18)
(1.06399 -0.249116 -7.5414e-18)
(1.02506 -0.206291 -4.51237e-18)
(0.987703 -0.157188 -7.13665e-20)
(0.962645 -0.103076 8.99392e-19)
(0.951887 -0.0518016 -3.82849e-19)
(0.955532 -0.00612935 6.8122e-19)
(0.971182 0.0297468 2.52697e-19)