/*--------------------------------*- C++ -*----------------------------------*\
  =========                 |
  \\      /  F ield         | OpenFOAM: The Open Source CFD Toolbox
   \\    /   O peration     | Website:  https://openfoam.org
    \\  /    A nd           | Version:  7
     \\/     M anipulation  |
\*---------------------------------------------------------------------------*/
FoamFile
{
    version     2.0;
    format      ascii;
    class       volVectorField;
    location    "0.3";
    object      U;
}
// * * * * * * * * * * * * * * * * * * * * * * * * * * * * * * * * * * * * * //

dimensions      [0 1 -1 0 0 0 0];

internalField   nonuniform List<vector> 
22500
(
(1.05287e-06 -1.09356e-06 0)
(4.03771e-06 -1.75793e-06 0)
(7.21399e-06 -1.44908e-06 0)
(8.42097e-06 -7.01058e-07 0)
(6.86954e-06 2.12767e-07 0)
(2.33598e-06 1.12586e-06 0)
(-5.18665e-06 1.98377e-06 0)
(-1.5572e-05 2.7758e-06 0)
(-2.86211e-05 3.49019e-06 0)
(-4.41243e-05 4.12778e-06 0)
(-6.18597e-05 4.69352e-06 0)
(-8.16078e-05 5.19302e-06 0)
(-0.000103159 5.6319e-06 0)
(-0.000126313 6.0157e-06 0)
(-0.000150888 6.34965e-06 0)
(-0.000176709 6.63854e-06 0)
(-0.000203621 6.88684e-06 0)
(-0.000231479 7.09866e-06 0)
(-0.000260151 7.27778e-06 0)
(-0.000289518 7.42768e-06 0)
(-0.000319471 7.55149e-06 0)
(-0.000349913 7.65206e-06 0)
(-0.000380756 7.73196e-06 0)
(-0.00041192 7.79353e-06 0)
(-0.000443336 7.83888e-06 0)
(-0.000474938 7.86992e-06 0)
(-0.000506672 7.88831e-06 0)
(-0.000538486 7.89556e-06 0)
(-0.000570335 7.89297e-06 0)
(-0.000602179 7.88171e-06 0)
(-0.000633983 7.86276e-06 0)
(-0.000665713 7.83699e-06 0)
(-0.00069734 7.80513e-06 0)
(-0.00072884 7.76779e-06 0)
(-0.000760187 7.72547e-06 0)
(-0.000791359 7.67857e-06 0)
(-0.000822338 7.62742e-06 0)
(-0.000853102 7.57225e-06 0)
(-0.000883635 7.51323e-06 0)
(-0.000913918 7.45044e-06 0)
(-0.000943936 7.38394e-06 0)
(-0.00097367 7.3137e-06 0)
(-0.00100311 7.23969e-06 0)
(-0.00103222 7.1618e-06 0)
(-0.00106101 7.07993e-06 0)
(-0.00108944 6.99392e-06 0)
(-0.00111751 6.90359e-06 0)
(-0.00114519 6.80877e-06 0)
(-0.00117246 6.70925e-06 0)
(-0.00119931 6.6048e-06 0)
(-0.00122571 6.49521e-06 0)
(-0.00125164 6.38025e-06 0)
(-0.00127708 6.25969e-06 0)
(-0.001302 6.13329e-06 0)
(-0.0013264 6.00084e-06 0)
(-0.00135022 5.8621e-06 0)
(-0.00137346 5.71686e-06 0)
(-0.00139609 5.5649e-06 0)
(-0.00141808 5.406e-06 0)
(-0.0014394 5.23998e-06 0)
(-0.00146002 5.06666e-06 0)
(-0.00147992 4.88586e-06 0)
(-0.00149907 4.69743e-06 0)
(-0.00151743 4.50124e-06 0)
(-0.00153497 4.29717e-06 0)
(-0.00155167 4.08511e-06 0)
(-0.00156749 3.86497e-06 0)
(-0.0015824 3.63668e-06 0)
(-0.00159638 3.40021e-06 0)
(-0.00160938 3.15555e-06 0)
(-0.00162138 2.90271e-06 0)
(-0.00163234 2.64173e-06 0)
(-0.00164224 2.37267e-06 0)
(-0.00165104 2.09564e-06 0)
(-0.00165871 1.81074e-06 0)
(-0.00166523 1.51815e-06 0)
(-0.00167057 1.21805e-06 0)
(-0.00167468 9.10659e-07 0)
(-0.00167756 5.96254e-07 0)
(-0.00167917 2.75128e-07 0)
(-0.00167949 -5.23787e-08 0)
(-0.0016785 -3.85894e-07 0)
(-0.00167617 -7.25014e-07 0)
(-0.00167248 -1.0693e-06 0)
(-0.00166741 -1.41825e-06 0)
(-0.00166095 -1.77136e-06 0)
(-0.00165309 -2.12805e-06 0)
(-0.0016438 -2.48771e-06 0)
(-0.00163309 -2.84971e-06 0)
(-0.00162095 -3.21338e-06 0)
(-0.00160736 -3.57801e-06 0)
(-0.00159233 -3.94285e-06 0)
(-0.00157586 -4.30713e-06 0)
(-0.00155795 -4.67003e-06 0)
(-0.00153862 -5.03072e-06 0)
(-0.00151786 -5.38832e-06 0)
(-0.0014957 -5.74194e-06 0)
(-0.00147216 -6.09066e-06 0)
(-0.00144725 -6.43356e-06 0)
(-0.001421 -6.76966e-06 0)
(-0.00139344 -7.09801e-06 0)
(-0.00136459 -7.41759e-06 0)
(-0.00133451 -7.72741e-06 0)
(-0.00130322 -8.02648e-06 0)
(-0.00127077 -8.31376e-06 0)
(-0.0012372 -8.58825e-06 0)
(-0.00120258 -8.84891e-06 0)
(-0.00116695 -9.09473e-06 0)
(-0.00113038 -9.3247e-06 0)
(-0.00109292 -9.53783e-06 0)
(-0.00105466 -9.73309e-06 0)
(-0.00101565 -9.90951e-06 0)
(-0.000975968 -1.00661e-05 0)
(-0.000935703 -1.02019e-05 0)
(-0.000894933 -1.03159e-05 0)
(-0.000853745 -1.04073e-05 0)
(-0.000812229 -1.04752e-05 0)
(-0.000770479 -1.05185e-05 0)
(-0.000728594 -1.05365e-05 0)
(-0.000686673 -1.05283e-05 0)
(-0.000644822 -1.0493e-05 0)
(-0.000603148 -1.04298e-05 0)
(-0.000561762 -1.03379e-05 0)
(-0.000520778 -1.02165e-05 0)
(-0.000480315 -1.00649e-05 0)
(-0.000440492 -9.88208e-06 0)
(-0.000401434 -9.66741e-06 0)
(-0.000363265 -9.42005e-06 0)
(-0.000326117 -9.13921e-06 0)
(-0.000290121 -8.82406e-06 0)
(-0.000255412 -8.47376e-06 0)
(-0.000222127 -8.08746e-06 0)
(-0.000190406 -7.66426e-06 0)
(-0.000160391 -7.20324e-06 0)
(-0.000132227 -6.70346e-06 0)
(-0.000106058 -6.16397e-06 0)
(-8.20303e-05 -5.58388e-06 0)
(-6.02892e-05 -4.96236e-06 0)
(-4.09779e-05 -4.29883e-06 0)
(-2.42342e-05 -3.59309e-06 0)
(-1.01866e-05 -2.846e-06 0)
(1.05051e-06 -2.06099e-06 0)
(9.38755e-06 -1.24258e-06 0)
(1.47763e-05 -3.98921e-07 0)
(1.72385e-05 4.41079e-07 0)
(1.69124e-05 1.23065e-06 0)
(1.41212e-05 1.88736e-06 0)
(9.47642e-06 2.23208e-06 0)
(4.15382e-06 1.95752e-06 0)
(7.59409e-07 7.61545e-07 0)
(1.7449e-06 -4.10422e-06 0)
(5.60578e-06 -5.63099e-06 0)
(7.91562e-06 -3.23933e-06 0)
(5.29182e-06 1.18612e-06 0)
(-3.90024e-06 6.52775e-06 0)
(-2.03516e-05 1.21346e-05 0)
(-4.42176e-05 1.76506e-05 0)
(-7.53695e-05 2.29049e-05 0)
(-0.00011347 2.77985e-05 0)
(-0.000158075 3.22913e-05 0)
(-0.000208688 3.63744e-05 0)
(-0.000264791 4.00549e-05 0)
(-0.000325867 4.33493e-05 0)
(-0.000391417 4.62794e-05 0)
(-0.000460961 4.88693e-05 0)
(-0.000534048 5.11439e-05 0)
(-0.000610257 5.31284e-05 0)
(-0.000689198 5.48469e-05 0)
(-0.000770509 5.6323e-05 0)
(-0.000853861 5.75786e-05 0)
(-0.000938951 5.86346e-05 0)
(-0.0010255 5.95102e-05 0)
(-0.00111327 6.02233e-05 0)
(-0.00120202 6.07904e-05 0)
(-0.00129155 6.12265e-05 0)
(-0.00138168 6.15454e-05 0)
(-0.00147225 6.17593e-05 0)
(-0.00156309 6.18795e-05 0)
(-0.00165409 6.1916e-05 0)
(-0.00174512 6.18774e-05 0)
(-0.00183606 6.17717e-05 0)
(-0.00192683 6.16057e-05 0)
(-0.00201733 6.13851e-05 0)
(-0.00210749 6.11151e-05 0)
(-0.00219722 6.07998e-05 0)
(-0.00228647 6.04427e-05 0)
(-0.00237517 6.00466e-05 0)
(-0.00246327 5.96137e-05 0)
(-0.00255069 5.91457e-05 0)
(-0.0026374 5.86437e-05 0)
(-0.00272334 5.81086e-05 0)
(-0.00280845 5.75405e-05 0)
(-0.00289269 5.69395e-05 0)
(-0.00297601 5.63052e-05 0)
(-0.00305836 5.56372e-05 0)
(-0.00313968 5.49345e-05 0)
(-0.00321992 5.41962e-05 0)
(-0.00329903 5.34211e-05 0)
(-0.00337695 5.2608e-05 0)
(-0.00345362 5.17555e-05 0)
(-0.00352899 5.08621e-05 0)
(-0.00360299 4.99264e-05 0)
(-0.00367556 4.89467e-05 0)
(-0.00374664 4.79216e-05 0)
(-0.00381615 4.68495e-05 0)
(-0.00388402 4.57289e-05 0)
(-0.0039502 4.45583e-05 0)
(-0.00401459 4.33362e-05 0)
(-0.00407713 4.20613e-05 0)
(-0.00413773 4.07321e-05 0)
(-0.00419632 3.93476e-05 0)
(-0.00425282 3.79065e-05 0)
(-0.00430715 3.64078e-05 0)
(-0.00435921 3.48506e-05 0)
(-0.00440893 3.32341e-05 0)
(-0.00445623 3.15577e-05 0)
(-0.004501 2.98208e-05 0)
(-0.00454317 2.80232e-05 0)
(-0.00458265 2.61645e-05 0)
(-0.00461935 2.42449e-05 0)
(-0.00465318 2.22645e-05 0)
(-0.00468406 2.02237e-05 0)
(-0.00471191 1.81231e-05 0)
(-0.00473662 1.59636e-05 0)
(-0.00475814 1.37461e-05 0)
(-0.00477636 1.14719e-05 0)
(-0.00479121 9.14255e-06 0)
(-0.00480262 6.75984e-06 0)
(-0.0048105 4.32577e-06 0)
(-0.0048148 1.84262e-06 0)
(-0.00481543 -6.87039e-07 0)
(-0.00481234 -3.26037e-06 0)
(-0.00480547 -5.87428e-06 0)
(-0.00479476 -8.5254e-06 0)
(-0.00478016 -1.12101e-05 0)
(-0.00476162 -1.39244e-05 0)
(-0.00473912 -1.6664e-05 0)
(-0.00471261 -1.94247e-05 0)
(-0.00468207 -2.22014e-05 0)
(-0.00464748 -2.49893e-05 0)
(-0.00460884 -2.7783e-05 0)
(-0.00456613 -3.05771e-05 0)
(-0.00451936 -3.33658e-05 0)
(-0.00446855 -3.6143e-05 0)
(-0.00441371 -3.89026e-05 0)
(-0.00435488 -4.16381e-05 0)
(-0.0042921 -4.43428e-05 0)
(-0.00422541 -4.70101e-05 0)
(-0.00415488 -4.96329e-05 0)
(-0.00408057 -5.22042e-05 0)
(-0.00400257 -5.47166e-05 0)
(-0.00392097 -5.71629e-05 0)
(-0.00383586 -5.95356e-05 0)
(-0.00374736 -6.18272e-05 0)
(-0.0036556 -6.403e-05 0)
(-0.00356069 -6.61365e-05 0)
(-0.0034628 -6.8139e-05 0)
(-0.00336207 -7.00298e-05 0)
(-0.00325867 -7.18013e-05 0)
(-0.00315278 -7.34458e-05 0)
(-0.00304459 -7.49558e-05 0)
(-0.0029343 -7.63237e-05 0)
(-0.00282211 -7.75421e-05 0)
(-0.00270825 -7.86035e-05 0)
(-0.00259295 -7.95007e-05 0)
(-0.00247645 -8.02265e-05 0)
(-0.00235901 -8.07737e-05 0)
(-0.00224089 -8.11356e-05 0)
(-0.00212236 -8.13051e-05 0)
(-0.0020037 -8.12756e-05 0)
(-0.00188521 -8.10405e-05 0)
(-0.00176719 -8.05934e-05 0)
(-0.00164995 -7.9928e-05 0)
(-0.00153381 -7.90381e-05 0)
(-0.0014191 -7.79177e-05 0)
(-0.00130616 -7.6561e-05 0)
(-0.00119533 -7.49621e-05 0)
(-0.00108697 -7.31155e-05 0)
(-0.00098144 -7.10158e-05 0)
(-0.000879104 -6.86578e-05 0)
(-0.00078034 -6.60366e-05 0)
(-0.000685528 -6.31475e-05 0)
(-0.000595053 -5.99864e-05 0)
(-0.000509303 -5.65499e-05 0)
(-0.000428669 -5.28354e-05 0)
(-0.00035354 -4.88419e-05 0)
(-0.000284303 -4.45703e-05 0)
(-0.000221332 -4.00248e-05 0)
(-0.00016499 -3.52139e-05 0)
(-0.000115612 -3.01534e-05 0)
(-7.34942e-05 -2.48696e-05 0)
(-3.8873e-05 -1.94065e-05 0)
(-1.18936e-05 -1.38313e-05 0)
(7.42039e-06 -8.25153e-06 0)
(1.92466e-05 -2.84156e-06 0)
(2.40718e-05 2.11778e-06 0)
(2.27668e-05 6.1659e-06 0)
(1.67319e-05 8.59729e-06 0)
(8.32079e-06 8.33804e-06 0)
(1.9474e-06 4.15011e-06 0)
(1.45301e-06 -7.27043e-06 0)
(3.24704e-06 -7.94532e-06 0)
(6.60688e-07 -6.60522e-07 0)
(-9.69422e-06 1.1098e-05 0)
(-2.97093e-05 2.51098e-05 0)
(-6.03149e-05 3.99902e-05 0)
(-0.000101818 5.48604e-05 0)
(-0.000154111 6.92109e-05 0)
(-0.000216803 8.2749e-05 0)
(-0.000289327 9.53207e-05 0)
(-0.000371015 0.000106859 0)
(-0.000461151 0.00011735 0)
(-0.000559 0.000126813 0)
(-0.000663835 0.00013529 0)
(-0.000774952 0.000142832 0)
(-0.000891676 0.000149497 0)
(-0.00101337 0.000155346 0)
(-0.00113944 0.000160443 0)
(-0.00126933 0.000164846 0)
(-0.00140252 0.000168616 0)
(-0.00153855 0.000171807 0)
(-0.00167698 0.000174473 0)
(-0.00181741 0.000176662 0)
(-0.00195949 0.000178421 0)
(-0.00210288 0.000179792 0)
(-0.0022473 0.000180814 0)
(-0.00239246 0.000181521 0)
(-0.00253813 0.000181946 0)
(-0.00268409 0.000182118 0)
(-0.00283014 0.000182061 0)
(-0.00297611 0.000181799 0)
(-0.00312182 0.000181352 0)
(-0.00326713 0.000180737 0)
(-0.00341191 0.000179969 0)
(-0.00355603 0.00017906 0)
(-0.00369938 0.000178021 0)
(-0.00384186 0.000176861 0)
(-0.00398335 0.000175586 0)
(-0.00412378 0.000174202 0)
(-0.00426304 0.000172713 0)
(-0.00440106 0.000171122 0)
(-0.00453773 0.000169429 0)
(-0.00467299 0.000167635 0)
(-0.00480675 0.00016574 0)
(-0.00493891 0.000163743 0)
(-0.00506941 0.000161641 0)
(-0.00519814 0.000159432 0)
(-0.00532502 0.000157113 0)
(-0.00544996 0.00015468 0)
(-0.00557287 0.000152131 0)
(-0.00569365 0.000149461 0)
(-0.0058122 0.000146666 0)
(-0.00592842 0.000143741 0)
(-0.0060422 0.000140684 0)
(-0.00615344 0.000137489 0)
(-0.00626202 0.000134152 0)
(-0.00636783 0.000130669 0)
(-0.00647076 0.000127037 0)
(-0.00657067 0.00012325 0)
(-0.00666746 0.000119307 0)
(-0.00676099 0.000115202 0)
(-0.00685114 0.000110934 0)
(-0.00693778 0.0001065 0)
(-0.00702076 0.000101896 0)
(-0.00709997 9.7121e-05 0)
(-0.00717526 9.21731e-05 0)
(-0.00724651 8.7051e-05 0)
(-0.00731356 8.17539e-05 0)
(-0.00737629 7.62814e-05 0)
(-0.00743456 7.06336e-05 0)
(-0.00748823 6.48113e-05 0)
(-0.00753716 5.88156e-05 0)
(-0.00758123 5.26485e-05 0)
(-0.0076203 4.63124e-05 0)
(-0.00765423 3.98105e-05 0)
(-0.00768291 3.31466e-05 0)
(-0.0077062 2.6325e-05 0)
(-0.00772399 1.93511e-05 0)
(-0.00773616 1.22308e-05 0)
(-0.0077426 4.97076e-06 0)
(-0.00774321 -2.42164e-06 0)
(-0.00773788 -9.93814e-06 0)
(-0.00772653 -1.75697e-05 0)
(-0.00770907 -2.53067e-05 0)
(-0.00768542 -3.31383e-05 0)
(-0.00765552 -4.10534e-05 0)
(-0.0076193 -4.90398e-05 0)
(-0.00757672 -5.70845e-05 0)
(-0.00752774 -6.51738e-05 0)
(-0.00747233 -7.32934e-05 0)
(-0.00741047 -8.1428e-05 0)
(-0.00734217 -8.95618e-05 0)
(-0.00726742 -9.76783e-05 0)
(-0.00718626 -0.00010576 0)
(-0.00709872 -0.000113789 0)
(-0.00700484 -0.000121748 0)
(-0.00690469 -0.000129616 0)
(-0.00679836 -0.000137376 0)
(-0.00668593 -0.000145005 0)
(-0.00656752 -0.000152485 0)
(-0.00644325 -0.000159795 0)
(-0.00631327 -0.000166912 0)
(-0.00617773 -0.000173817 0)
(-0.00603681 -0.000180487 0)
(-0.00589071 -0.0001869 0)
(-0.00573964 -0.000193035 0)
(-0.00558382 -0.000198869 0)
(-0.00542351 -0.00020438 0)
(-0.00525895 -0.000209546 0)
(-0.00509043 -0.000214346 0)
(-0.00491826 -0.000218756 0)
(-0.00474274 -0.000222756 0)
(-0.0045642 -0.000226323 0)
(-0.004383 -0.000229436 0)
(-0.00419949 -0.000232074 0)
(-0.00401407 -0.000234216 0)
(-0.00382713 -0.000235841 0)
(-0.00363909 -0.000236928 0)
(-0.00345037 -0.000237459 0)
(-0.00326142 -0.000237413 0)
(-0.0030727 -0.000236772 0)
(-0.0028847 -0.000235516 0)
(-0.0026979 -0.000233627 0)
(-0.0025128 -0.000231087 0)
(-0.00232993 -0.00022788 0)
(-0.00214982 -0.000223988 0)
(-0.00197301 -0.000219395 0)
(-0.00180005 -0.000214086 0)
(-0.00163152 -0.000208046 0)
(-0.001468 -0.000201262 0)
(-0.00131006 -0.000193721 0)
(-0.0011583 -0.000185413 0)
(-0.00101331 -0.000176329 0)
(-0.000875702 -0.000166463 0)
(-0.000746067 -0.000155814 0)
(-0.000624998 -0.000144387 0)
(-0.000513072 -0.000132193 0)
(-0.000410849 -0.000119256 0)
(-0.000318852 -0.000105614 0)
(-0.000237555 -9.13318e-05 0)
(-0.000167361 -7.65037e-05 0)
(-0.000108569 -6.12748e-05 0)
(-6.13326e-05 -4.58614e-05 0)
(-2.56025e-05 -3.05878e-05 0)
(-1.04488e-06 -1.59248e-05 0)
(1.3058e-05 -2.58144e-06 0)
(1.79485e-05 8.39043e-06 0)
(1.54911e-05 1.55084e-05 0)
(8.55839e-06 1.6737e-05 0)
(2.20966e-06 9.4465e-06 0)
(7.15382e-07 -8.48793e-06 0)
(-1.17173e-06 -5.32191e-06 0)
(-1.11325e-05 9.69979e-06 0)
(-3.17302e-05 3.16452e-05 0)
(-6.47679e-05 5.73057e-05 0)
(-0.000111221 8.45117e-05 0)
(-0.000171427 0.000111836 0)
(-0.000245274 0.000138383 0)
(-0.000332332 0.000163603 0)
(-0.00043196 0.000187181 0)
(-0.000543381 0.000208957 0)
(-0.000665742 0.000228871 0)
(-0.000798156 0.000246931 0)
(-0.000939728 0.000263188 0)
(-0.00108958 0.000277718 0)
(-0.00124687 0.000290617 0)
(-0.00141078 0.000301987 0)
(-0.00158055 0.000311934 0)
(-0.00175545 0.000320566 0)
(-0.00193483 0.000327987 0)
(-0.00211807 0.000334298 0)
(-0.00230458 0.000339596 0)
(-0.00249385 0.000343972 0)
(-0.0026854 0.000347512 0)
(-0.00287878 0.000350293 0)
(-0.0030736 0.000352389 0)
(-0.00326949 0.000353866 0)
(-0.00346612 0.000354786 0)
(-0.00366319 0.000355202 0)
(-0.00386043 0.000355165 0)
(-0.00405758 0.000354717 0)
(-0.00425444 0.000353898 0)
(-0.00445078 0.000352741 0)
(-0.00464643 0.000351275 0)
(-0.00484121 0.000349526 0)
(-0.00503495 0.000347513 0)
(-0.00522752 0.000345255 0)
(-0.00541876 0.000342765 0)
(-0.00560855 0.000340054 0)
(-0.00579676 0.00033713 0)
(-0.00598326 0.000333999 0)
(-0.00616794 0.000330664 0)
(-0.00635067 0.000327127 0)
(-0.00653134 0.000323388 0)
(-0.00670984 0.000319443 0)
(-0.00688604 0.000315291 0)
(-0.00705983 0.000310928 0)
(-0.00723107 0.000306347 0)
(-0.00739966 0.000301542 0)
(-0.00756545 0.000296509 0)
(-0.00772833 0.000291238 0)
(-0.00788815 0.000285723 0)
(-0.00804478 0.000279957 0)
(-0.00819807 0.00027393 0)
(-0.00834789 0.000267637 0)
(-0.00849407 0.000261068 0)
(-0.00863647 0.000254216 0)
(-0.00877494 0.000247075 0)
(-0.0089093 0.000239636 0)
(-0.0090394 0.000231893 0)
(-0.00916506 0.00022384 0)
(-0.00928612 0.000215472 0)
(-0.00940241 0.000206782 0)
(-0.00951375 0.000197767 0)
(-0.00961996 0.000188423 0)
(-0.00972086 0.000178747 0)
(-0.00981627 0.000168735 0)
(-0.00990601 0.000158388 0)
(-0.00998991 0.000147705 0)
(-0.0100678 0.000136685 0)
(-0.0101394 0.000125332 0)
(-0.0102047 0.000113646 0)
(-0.0102634 0.000101633 0)
(-0.0103153 8.92966e-05 0)
(-0.0103604 7.66435e-05 0)
(-0.0103983 6.36811e-05 0)
(-0.010429 5.04182e-05 0)
(-0.0104524 3.68649e-05 0)
(-0.0104681 2.30328e-05 0)
(-0.0104762 8.93487e-06 0)
(-0.0104764 -5.41451e-06 0)
(-0.0104687 -1.99995e-05 0)
(-0.0104529 -3.48026e-05 0)
(-0.0104289 -4.98051e-05 0)
(-0.0103966 -6.49866e-05 0)
(-0.0103559 -8.03252e-05 0)
(-0.0103068 -9.57975e-05 0)
(-0.0102491 -0.000111379 0)
(-0.0101829 -0.000127043 0)
(-0.0101081 -0.000142762 0)
(-0.0100246 -0.000158507 0)
(-0.00993256 -0.000174247 0)
(-0.00983189 -0.000189951 0)
(-0.00972264 -0.000205586 0)
(-0.00960487 -0.000221118 0)
(-0.00947863 -0.00023651 0)
(-0.00934403 -0.000251728 0)
(-0.00920116 -0.000266733 0)
(-0.00905015 -0.000281487 0)
(-0.00889115 -0.000295951 0)
(-0.00872433 -0.000310086 0)
(-0.00854989 -0.00032385 0)
(-0.00836803 -0.000337203 0)
(-0.00817899 -0.000350104 0)
(-0.00798303 -0.00036251 0)
(-0.00778042 -0.000374379 0)
(-0.00757148 -0.000385668 0)
(-0.00735653 -0.000396336 0)
(-0.00713591 -0.00040634 0)
(-0.00691001 -0.000415638 0)
(-0.0066792 -0.000424186 0)
(-0.00644393 -0.000431943 0)
(-0.00620461 -0.000438867 0)
(-0.00596172 -0.000444917 0)
(-0.00571574 -0.000450052 0)
(-0.00546719 -0.000454231 0)
(-0.00521658 -0.000457414 0)
(-0.00496447 -0.000459563 0)
(-0.00471144 -0.000460638 0)
(-0.00445807 -0.000460602 0)
(-0.00420498 -0.000459418 0)
(-0.0039528 -0.00045705 0)
(-0.00370219 -0.000453463 0)
(-0.0034538 -0.000448624 0)
(-0.00320834 -0.000442498 0)
(-0.00296651 -0.000435054 0)
(-0.00272902 -0.000426263 0)
(-0.00249661 -0.000416097 0)
(-0.00227002 -0.000404528 0)
(-0.00205003 -0.000391533 0)
(-0.00183739 -0.000377093 0)
(-0.00163289 -0.000361189 0)
(-0.00143729 -0.000343811 0)
(-0.00125138 -0.000324956 0)
(-0.00107592 -0.000304627 0)
(-0.000911682 -0.000282843 0)
(-0.000759388 -0.000259639 0)
(-0.000619738 -0.000235073 0)
(-0.000493377 -0.000209239 0)
(-0.000380878 -0.000182273 0)
(-0.000282711 -0.000154378 0)
(-0.000199205 -0.000125845 0)
(-0.000130505 -9.70938e-05 0)
(-7.65014e-05 -6.87224e-05 0)
(-3.67542e-05 -4.15775e-05 0)
(-1.03921e-05 -1.68585e-05 0)
(4.00575e-06 3.76488e-06 0)
(8.51215e-06 1.79872e-05 0)
(6.15474e-06 2.2784e-05 0)
(1.85742e-06 1.40559e-05 0)
(-1.97256e-07 -6.94714e-06 0)
(-6.5546e-06 3.91617e-06 0)
(-2.53051e-05 2.98073e-05 0)
(-5.77223e-05 6.47346e-05 0)
(-0.000105226 0.00010467 0)
(-0.00016868 0.000146768 0)
(-0.000248343 0.000189083 0)
(-0.000344042 0.000230332 0)
(-0.000455292 0.000269694 0)
(-0.000581388 0.000306666 0)
(-0.000721472 0.000340971 0)
(-0.000874593 0.000372484 0)
(-0.00103975 0.000401185 0)
(-0.00121593 0.000427125 0)
(-0.00140212 0.000450401 0)
(-0.00159733 0.000471141 0)
(-0.00180062 0.000489488 0)
(-0.0020111 0.000505596 0)
(-0.0022279 0.000519625 0)
(-0.00245022 0.000531729 0)
(-0.00267733 0.000542063 0)
(-0.00290853 0.000550773 0)
(-0.00314319 0.000557999 0)
(-0.00338071 0.000563873 0)
(-0.00362056 0.000568518 0)
(-0.00386224 0.000572049 0)
(-0.0041053 0.00057457 0)
(-0.00434933 0.000576178 0)
(-0.00459396 0.000576958 0)
(-0.00483884 0.00057699 0)
(-0.00508366 0.000576344 0)
(-0.00532813 0.000575081 0)
(-0.005572 0.000573256 0)
(-0.00581503 0.000570917 0)
(-0.00605698 0.000568103 0)
(-0.00629767 0.000564849 0)
(-0.00653689 0.000561183 0)
(-0.00677446 0.00055713 0)
(-0.00701022 0.000552706 0)
(-0.007244 0.000547927 0)
(-0.00747565 0.000542801 0)
(-0.007705 0.000537336 0)
(-0.0079319 0.000531533 0)
(-0.00815622 0.000525395 0)
(-0.00837779 0.000518918 0)
(-0.00859647 0.000512098 0)
(-0.0088121 0.000504929 0)
(-0.00902454 0.000497404 0)
(-0.00923363 0.000489513 0)
(-0.0094392 0.000481247 0)
(-0.00964109 0.000472594 0)
(-0.00983914 0.000463545 0)
(-0.0100332 0.000454086 0)
(-0.010223 0.000444206 0)
(-0.0104085 0.000433892 0)
(-0.0105894 0.000423134 0)
(-0.0107656 0.000411919 0)
(-0.0109368 0.000400235 0)
(-0.0111029 0.000388073 0)
(-0.0112636 0.000375421 0)
(-0.0114188 0.000362271 0)
(-0.0115683 0.000348612 0)
(-0.0117118 0.000334438 0)
(-0.0118491 0.000319742 0)
(-0.01198 0.000304517 0)
(-0.0121043 0.00028876 0)
(-0.0122218 0.000272466 0)
(-0.0123322 0.000255635 0)
(-0.0124353 0.000238265 0)
(-0.012531 0.000220358 0)
(-0.0126189 0.000201917 0)
(-0.0126989 0.000182947 0)
(-0.0127707 0.000163453 0)
(-0.0128342 0.000143443 0)
(-0.0128891 0.000122929 0)
(-0.0129353 0.000101922 0)
(-0.0129725 8.04371e-05 0)
(-0.0130005 5.84901e-05 0)
(-0.0130192 3.61001e-05 0)
(-0.0130284 1.32879e-05 0)
(-0.0130279 -9.92311e-06 0)
(-0.0130176 -3.35073e-05 0)
(-0.0129973 -5.74368e-05 0)
(-0.0129669 -8.16811e-05 0)
(-0.0129263 -0.000106208 0)
(-0.0128754 -0.000130981 0)
(-0.012814 -0.000155964 0)
(-0.0127422 -0.000181117 0)
(-0.0126598 -0.000206398 0)
(-0.0125668 -0.000231762 0)
(-0.0124632 -0.000257163 0)
(-0.012349 -0.000282552 0)
(-0.0122243 -0.000307878 0)
(-0.0120889 -0.000333088 0)
(-0.0119431 -0.000358129 0)
(-0.0117869 -0.000382942 0)
(-0.0116205 -0.000407471 0)
(-0.0114438 -0.000431656 0)
(-0.0112572 -0.000455434 0)
(-0.0110608 -0.000478745 0)
(-0.0108547 -0.000501523 0)
(-0.0106393 -0.000523705 0)
(-0.0104148 -0.000545225 0)
(-0.0101815 -0.000566016 0)
(-0.00993969 -0.000586012 0)
(-0.00968972 -0.000605144 0)
(-0.00943197 -0.000623345 0)
(-0.00916684 -0.000640547 0)
(-0.00889475 -0.000656682 0)
(-0.00861617 -0.000671681 0)
(-0.00833157 -0.000685477 0)
(-0.00804146 -0.000698003 0)
(-0.0077464 -0.000709191 0)
(-0.00744694 -0.000718974 0)
(-0.00714367 -0.000727288 0)
(-0.00683722 -0.000734067 0)
(-0.00652823 -0.000739246 0)
(-0.00621739 -0.000742764 0)
(-0.00590537 -0.000744558 0)
(-0.00559292 -0.000744568 0)
(-0.00528078 -0.000742735 0)
(-0.00496972 -0.000739001 0)
(-0.00466053 -0.00073331 0)
(-0.00435404 -0.000725609 0)
(-0.00405107 -0.000715846 0)
(-0.0037525 -0.000703972 0)
(-0.00345918 -0.000689939 0)
(-0.00317202 -0.000673706 0)
(-0.00289191 -0.000655233 0)
(-0.00261978 -0.000634485 0)
(-0.00235655 -0.000611435 0)
(-0.00210316 -0.000586062 0)
(-0.00186053 -0.000558356 0)
(-0.00162959 -0.000528318 0)
(-0.00141125 -0.000495968 0)
(-0.00120641 -0.000461348 0)
(-0.00101591 -0.000424527 0)
(-0.00084056 -0.000385618 0)
(-0.000681103 -0.000344785 0)
(-0.000538177 -0.000302266 0)
(-0.000412298 -0.000258399 0)
(-0.000303818 -0.000213655 0)
(-0.000212872 -0.00016869 0)
(-0.000139318 -0.000124409 0)
(-8.26664e-05 -8.20561e-05 0)
(-4.19887e-05 -4.33248e-05 0)
(-1.58213e-05 -1.05084e-05 0)
(-2.04771e-06 1.33324e-05 0)
(2.23266e-06 2.42275e-05 0)
(1.20771e-06 1.68392e-05 0)
(-1.11953e-06 -2.39334e-06 0)
(-1.22687e-05 2.05371e-05 0)
(-4.05267e-05 6.07107e-05 0)
(-8.55997e-05 0.0001115 0)
(-0.000148386 0.000168266 0)
(-0.000229514 0.000227624 0)
(-0.000329062 0.000287184 0)
(-0.000446734 0.000345313 0)
(-0.00058196 0.000400926 0)
(-0.000733957 0.000453331 0)
(-0.000901792 0.000502125 0)
(-0.00108443 0.000547106 0)
(-0.00128079 0.000588216 0)
(-0.00148976 0.000625497 0)
(-0.00171022 0.00065906 0)
(-0.00194109 0.000689061 0)
(-0.0021813 0.000715684 0)
(-0.00242985 0.000739131 0)
(-0.00268578 0.000759614 0)
(-0.00294817 0.000777343 0)
(-0.00321618 0.000792527 0)
(-0.00348901 0.000805369 0)
(-0.00376594 0.000816064 0)
(-0.00404627 0.000824794 0)
(-0.00432938 0.000831734 0)
(-0.00461469 0.000837044 0)
(-0.00490167 0.000840872 0)
(-0.00518985 0.000843356 0)
(-0.00547876 0.00084462 0)
(-0.00576801 0.000844775 0)
(-0.00605722 0.000843923 0)
(-0.00634606 0.000842154 0)
(-0.0066342 0.000839546 0)
(-0.00692136 0.000836168 0)
(-0.00720727 0.000832079 0)
(-0.00749168 0.00082733 0)
(-0.00777436 0.000821963 0)
(-0.00805509 0.000816013 0)
(-0.00833366 0.000809507 0)
(-0.00860987 0.000802467 0)
(-0.00888353 0.000794907 0)
(-0.00915446 0.000786838 0)
(-0.00942246 0.000778266 0)
(-0.00968736 0.000769192 0)
(-0.00994898 0.000759614 0)
(-0.0102071 0.000749527 0)
(-0.0104616 0.000738923 0)
(-0.0107123 0.000727792 0)
(-0.010959 0.000716121 0)
(-0.0112014 0.000703898 0)
(-0.0114395 0.000691108 0)
(-0.011673 0.000677735 0)
(-0.0119016 0.000663763 0)
(-0.0121253 0.000649175 0)
(-0.0123437 0.000633954 0)
(-0.0125567 0.000618084 0)
(-0.012764 0.000601549 0)
(-0.0129654 0.000584332 0)
(-0.0131608 0.000566419 0)
(-0.0133497 0.000547795 0)
(-0.0135321 0.000528446 0)
(-0.0137076 0.000508362 0)
(-0.013876 0.00048753 0)
(-0.0140371 0.000465942 0)
(-0.0141907 0.00044359 0)
(-0.0143363 0.000420467 0)
(-0.0144739 0.000396569 0)
(-0.0146031 0.000371894 0)
(-0.0147237 0.000346442 0)
(-0.0148355 0.000320216 0)
(-0.0149381 0.000293218 0)
(-0.0150314 0.000265458 0)
(-0.0151151 0.000236944 0)
(-0.0151888 0.000207688 0)
(-0.0152525 0.000177706 0)
(-0.0153059 0.000147016 0)
(-0.0153487 0.000115639 0)
(-0.0153807 8.35988e-05 0)
(-0.0154018 5.09234e-05 0)
(-0.0154116 1.76431e-05 0)
(-0.0154101 -1.6208e-05 0)
(-0.0153971 -5.05927e-05 0)
(-0.0153723 -8.54704e-05 0)
(-0.0153356 -0.000120797 0)
(-0.015287 -0.000156525 0)
(-0.0152262 -0.000192603 0)
(-0.0151533 -0.000228978 0)
(-0.015068 -0.000265592 0)
(-0.0149704 -0.000302383 0)
(-0.0148603 -0.000339288 0)
(-0.0147379 -0.000376239 0)
(-0.014603 -0.000413165 0)
(-0.0144558 -0.000449995 0)
(-0.0142962 -0.000486651 0)
(-0.0141243 -0.000523054 0)
(-0.0139403 -0.000559123 0)
(-0.0137443 -0.000594774 0)
(-0.0135364 -0.000629921 0)
(-0.0133168 -0.000664475 0)
(-0.0130857 -0.000698347 0)
(-0.0128434 -0.000731444 0)
(-0.0125902 -0.000763674 0)
(-0.0123263 -0.00079494 0)
(-0.0120522 -0.000825149 0)
(-0.0117681 -0.000854202 0)
(-0.0114745 -0.000882002 0)
(-0.0111718 -0.000908452 0)
(-0.0108605 -0.000933452 0)
(-0.0105411 -0.000956906 0)
(-0.0102141 -0.000978713 0)
(-0.00988 -0.000998777 0)
(-0.00953952 -0.001017 0)
(-0.00919323 -0.00103328 0)
(-0.0088418 -0.00104753 0)
(-0.00848593 -0.00105965 0)
(-0.00812632 -0.00106955 0)
(-0.00776373 -0.00107713 0)
(-0.00739895 -0.0010823 0)
(-0.00703279 -0.00108498 0)
(-0.00666609 -0.00108508 0)
(-0.00629973 -0.0010825 0)
(-0.00593458 -0.00107718 0)
(-0.00557158 -0.00106903 0)
(-0.00521168 -0.00105797 0)
(-0.00485584 -0.00104393 0)
(-0.00450505 -0.00102684 0)
(-0.00416033 -0.00100664 0)
(-0.0038227 -0.000983261 0)
(-0.0034932 -0.000956661 0)
(-0.00317289 -0.000926793 0)
(-0.00286283 -0.000893621 0)
(-0.00256409 -0.000857125 0)
(-0.00227771 -0.000817299 0)
(-0.00200475 -0.000774157 0)
(-0.00174624 -0.00072774 0)
(-0.00150318 -0.000678123 0)
(-0.00127651 -0.000625425 0)
(-0.00106713 -0.000569825 0)
(-0.000875848 -0.000511578 0)
(-0.000703355 -0.00045104 0)
(-0.000550206 -0.000388706 0)
(-0.000416773 -0.000325248 0)
(-0.0003032 -0.000261577 0)
(-0.000209345 -0.000198915 0)
(-0.000134721 -0.000138899 0)
(-7.84261e-05 -8.3699e-05 0)
(-3.90604e-05 -3.61798e-05 0)
(-1.46166e-05 -7.63624e-08 0)
(-2.46748e-06 1.98317e-05 0)
(4.48773e-07 1.72494e-05 0)
(-1.99904e-06 5.22195e-06 0)
(-1.79735e-05 4.47969e-05 0)
(-5.59611e-05 0.000102869 0)
(-0.000114012 0.000172478 0)
(-0.000192419 0.000248595 0)
(-0.00029149 0.000327447 0)
(-0.000411052 0.000406299 0)
(-0.000550626 0.000483226 0)
(-0.000709516 0.000556911 0)
(-0.000886845 0.000626491 0)
(-0.0010816 0.000691438 0)
(-0.00129266 0.000751474 0)
(-0.00151887 0.000806496 0)
(-0.00175904 0.000856535 0)
(-0.00201198 0.000901708 0)
(-0.0022765 0.000942197 0)
(-0.00255146 0.000978227 0)
(-0.00283577 0.00101004 0)
(-0.00312837 0.00103791 0)
(-0.00342826 0.0010621 0)
(-0.0037345 0.00108288 0)
(-0.00404622 0.0011005 0)
(-0.0043626 0.00111522 0)
(-0.00468287 0.00112728 0)
(-0.00500633 0.00113691 0)
(-0.00533232 0.00114431 0)
(-0.00566025 0.00114969 0)
(-0.00598957 0.00115323 0)
(-0.00631976 0.00115509 0)
(-0.00665036 0.00115542 0)
(-0.00698095 0.00115435 0)
(-0.00731112 0.00115202 0)
(-0.00764052 0.00114852 0)
(-0.00796881 0.00114395 0)
(-0.00829568 0.00113839 0)
(-0.00862084 0.00113191 0)
(-0.00894401 0.00112456 0)
(-0.00926493 0.00111639 0)
(-0.00958338 0.00110745 0)
(-0.0098991 0.00109777 0)
(-0.0102119 0.00108735 0)
(-0.0105215 0.00107623 0)
(-0.0108277 0.0010644 0)
(-0.0111304 0.00105188 0)
(-0.0114292 0.00103866 0)
(-0.0117241 0.00102473 0)
(-0.0120147 0.00101009 0)
(-0.0123009 0.000994716 0)
(-0.0125824 0.000978604 0)
(-0.0128591 0.000961731 0)
(-0.0131307 0.000944081 0)
(-0.0133969 0.000925631 0)
(-0.0136576 0.000906362 0)
(-0.0139125 0.000886251 0)
(-0.0141614 0.000865278 0)
(-0.014404 0.000843419 0)
(-0.0146401 0.000820655 0)
(-0.0148694 0.000796964 0)
(-0.0150917 0.000772326 0)
(-0.0153066 0.000746724 0)
(-0.0155139 0.000720139 0)
(-0.0157134 0.000692556 0)
(-0.0159047 0.000663961 0)
(-0.0160876 0.000634341 0)
(-0.0162618 0.000603688 0)
(-0.016427 0.000571992 0)
(-0.0165829 0.00053925 0)
(-0.0167293 0.000505459 0)
(-0.0168658 0.000470618 0)
(-0.0169921 0.000434733 0)
(-0.0171081 0.000397808 0)
(-0.0172133 0.000359855 0)
(-0.0173075 0.000320887 0)
(-0.0173905 0.000280922 0)
(-0.017462 0.000239979 0)
(-0.0175216 0.000198085 0)
(-0.0175693 0.000155267 0)
(-0.0176046 0.00011156 0)
(-0.0176275 6.70012e-05 0)
(-0.0176376 2.16316e-05 0)
(-0.0176348 -2.45023e-05 0)
(-0.0176188 -7.13495e-05 0)
(-0.0175895 -0.000118855 0)
(-0.0175467 -0.000166959 0)
(-0.0174903 -0.000215596 0)
(-0.0174202 -0.000264699 0)
(-0.0173361 -0.000314193 0)
(-0.0172381 -0.000364001 0)
(-0.0171261 -0.00041404 0)
(-0.017 -0.000464223 0)
(-0.0168599 -0.000514459 0)
(-0.0167056 -0.000564653 0)
(-0.0165374 -0.000614706 0)
(-0.0163551 -0.000664516 0)
(-0.016159 -0.000713975 0)
(-0.015949 -0.000762973 0)
(-0.0157255 -0.000811398 0)
(-0.0154885 -0.000859132 0)
(-0.0152384 -0.000906057 0)
(-0.0149752 -0.000952051 0)
(-0.0146993 -0.000996991 0)
(-0.0144111 -0.00104075 0)
(-0.0141109 -0.0010832 0)
(-0.013799 -0.00112421 0)
(-0.0134758 -0.00116365 0)
(-0.013142 -0.0012014 0)
(-0.0127978 -0.00123731 0)
(-0.0124439 -0.00127125 0)
(-0.0120808 -0.0013031 0)
(-0.0117091 -0.00133272 0)
(-0.0113295 -0.00135997 0)
(-0.0109427 -0.00138473 0)
(-0.0105492 -0.00140686 0)
(-0.01015 -0.00142624 0)
(-0.00974569 -0.00144273 0)
(-0.00933718 -0.00145621 0)
(-0.0089253 -0.00146656 0)
(-0.00851093 -0.00147366 0)
(-0.00809498 -0.00147737 0)
(-0.0076784 -0.00147759 0)
(-0.00726216 -0.0014742 0)
(-0.00684728 -0.0014671 0)
(-0.00643478 -0.00145617 0)
(-0.00602572 -0.00144131 0)
(-0.0056212 -0.00142243 0)
(-0.00522231 -0.00139944 0)
(-0.0048302 -0.00137225 0)
(-0.004446 -0.00134079 0)
(-0.00407087 -0.001305 0)
(-0.00370599 -0.00126482 0)
(-0.00335252 -0.00122021 0)
(-0.00301165 -0.00117115 0)
(-0.00268454 -0.00111766 0)
(-0.00237234 -0.00105976 0)
(-0.00207618 -0.000997515 0)
(-0.00179713 -0.000931054 0)
(-0.00153623 -0.00086055 0)
(-0.00129444 -0.000786261 0)
(-0.00107263 -0.000708546 0)
(-0.000871521 -0.000627895 0)
(-0.00069172 -0.000544969 0)