/*--------------------------------*- C++ -*----------------------------------*\
  =========                 |
  \\      /  F ield         | OpenFOAM: The Open Source CFD Toolbox
   \\    /   O peration     | Website:  https://openfoam.org
    \\  /    A nd           | Version:  7
     \\/     M anipulation  |
\*---------------------------------------------------------------------------*/
FoamFile
{
    version     2.0;
    format      ascii;
    class       volScalarField;
    location    "0.5";
    object      p;
}
// * * * * * * * * * * * * * * * * * * * * * * * * * * * * * * * * * * * * * //

dimensions      [0 2 -2 0 0 0 0];

internalField   nonuniform List<scalar> 
40000
(
7.49579e-07
2.30567e-06
6.39736e-07
-3.99008e-06
-1.11745e-05
-2.04784e-05
-3.14195e-05
-4.35657e-05
-5.65328e-05
-7.00001e-05
-8.36524e-05
-9.72664e-05
-0.000110634
-0.000123577
-0.000135951
-0.000147635
-0.000158529
-0.000168548
-0.000177623
-0.000185702
-0.000192741
-0.000198709
-0.000203578
-0.000207334
-0.000209964
-0.000211462
-0.000211826
-0.000211057
-0.000209158
-0.000206138
-0.000202004
-0.000196767
-0.000190437
-0.000183025
-0.000174542
-0.000165001
-0.000154413
-0.000142792
-0.000130147
-0.00011649
-0.000101831
-8.61784e-05
-6.95423e-05
-5.19305e-05
-3.33509e-05
-1.38109e-05
6.68313e-06
2.81254e-05
5.0511e-05
7.38354e-05
9.80949e-05
0.000123286
0.000149406
0.000176451
0.000204421
0.000233312
0.000263123
0.000293853
0.000325498
0.000358058
0.00039153
0.000425912
0.000461202
0.000497397
0.000534494
0.000572488
0.000611374
0.000651149
0.000691805
0.000733335
0.000775732
0.000818986
0.000863087
0.000908024
0.000953783
0.00100035
0.00104771
0.00109585
0.00114474
0.00119438
0.00124472
0.00129576
0.00134746
0.00139981
0.00145276
0.00150628
0.00156036
0.00161493
0.00166999
0.00172547
0.00178134
0.00183756
0.00189409
0.00195087
0.00200785
0.00206499
0.00212223
0.00217951
0.00223679
0.002294
0.00235108
0.00240797
0.00246461
0.00252094
0.00257689
0.00263239
0.00268738
0.00274179
0.00279555
0.0028486
0.00290087
0.00295228
0.00300278
0.00305229
0.00310074
0.00314808
0.00319423
0.00323913
0.00328272
0.00332493
0.00336572
0.00340502
0.00344278
0.00347895
0.00351347
0.0035463
0.0035774
0.00360673
0.00363426
0.00365994
0.00368375
0.00370566
0.00372566
0.00374373
0.00375985
0.00377402
0.00378623
0.00379648
0.00380478
0.00381114
0.00381556
0.00381808
0.00381871
0.00381747
0.00381441
0.00380956
0.00380295
0.00379463
0.00378466
0.00377307
0.00375994
0.00374531
0.00372925
0.00371182
0.0036931
0.00367316
0.00365207
0.0036299
0.00360675
0.00358268
0.00355778
0.00353214
0.00350585
0.00347898
0.00345164
0.0034239
0.00339586
0.00336762
0.00333926
0.00331087
0.00328255
0.00325439
0.00322648
0.00319892
0.00317179
0.00314519
0.0031192
0.00309393
0.00306946
0.00304588
0.00302329
0.00300176
0.00298139
0.00296227
0.00294448
0.0029281
0.00291323
0.00289993
0.00288828
0.00287834
0.00287018
0.00286383
0.00285932
0.00285663
0.00285571
0.0028564
0.00285843
0.00286135
0.00286451
0.00286675
3.48195e-07
1.52558e-06
-1.58936e-07
-4.27421e-06
-1.04576e-05
-1.8403e-05
-2.77863e-05
-3.82675e-05
-4.95219e-05
-6.12687e-05
-7.32563e-05
-8.52666e-05
-9.71051e-05
-0.000108605
-0.000119626
-0.000130049
-0.000139774
-0.000148714
-0.000156799
-0.000163972
-0.000170188
-0.000175407
-0.000179601
-0.000182748
-0.000184833
-0.000185846
-0.00018578
-0.000184633
-0.000182403
-0.000179096
-0.000174715
-0.000169269
-0.000162764
-0.000155208
-0.000146611
-0.000136982
-0.000126331
-0.000114669
-0.000102005
-8.83483e-05
-7.37074e-05
-5.80902e-05
-4.15047e-05
-2.39584e-05
-5.45843e-06
1.39881e-05
3.4375e-05
5.56972e-05
7.79501e-05
0.00010113
0.000125232
0.000150254
0.000176192
0.000203043
0.000230805
0.000259476
0.000289052
0.000319533
0.000350916
0.000383198
0.000416377
0.00045045
0.000485413
0.000521265
0.000558
0.000595614
0.000634103
0.000673459
0.000713677
0.000754749
0.000796665
0.000839416
0.000882992
0.00092738
0.000972568
0.00101854
0.00106528
0.00111278
0.001161
0.00120994
0.00125957
0.00130986
0.0013608
0.00141234
0.00146447
0.00151715
0.00157035
0.00162404
0.00167817
0.00173271
0.00178762
0.00184285
0.00189837
0.00195411
0.00201005
0.00206611
0.00212227
0.00217845
0.00223461
0.00229069
0.00234662
0.00240236
0.00245784
0.002513
0.00256777
0.00262209
0.0026759
0.00272913
0.00278172
0.0028336
0.0028847
0.00293496
0.00298432
0.0030327
0.00308004
0.00312628
0.00317136
0.00321522
0.00325779
0.00329902
0.00333884
0.00337722
0.00341408
0.0034494
0.00348311
0.00351517
0.00354554
0.00357419
0.00360108
0.00362618
0.00364945
0.00367089
0.00369046
0.00370816
0.00372396
0.00373787
0.00374988
0.00375998
0.0037682
0.00377453
0.00377899
0.0037816
0.00378238
0.00378136
0.00377857
0.00377404
0.00376782
0.00375995
0.00375047
0.00373944
0.00372691
0.00371294
0.00369758
0.00368092
0.003663
0.0036439
0.0036237
0.00360247
0.00358029
0.00355723
0.00353337
0.0035088
0.00348361
0.00345788
0.00343168
0.00340512
0.00337828
0.00335125
0.00332411
0.00329696
0.00326988
0.00324296
0.0032163
0.00318998
0.00316408
0.00313871
0.00311394
0.00308986
0.00306656
0.00304412
0.00302263
0.00300217
0.00298282
0.00296466
0.00294777
0.00293223
0.0029181
0.00290545
0.00289434
0.00288482
0.00287692
0.00287068
0.00286607
0.00286308
0.00286162
0.00286155
0.00286263
0.0028645
0.00286676
0.002869
2.5935e-06
3.56172e-06
1.80876e-06
-2.11047e-06
-7.79585e-06
-1.50153e-05
-2.35027e-05
-3.29685e-05
-4.31418e-05
-5.37774e-05
-6.46527e-05
-7.55658e-05
-8.63382e-05
-9.68152e-05
-0.000106864
-0.00011637
-0.000125233
-0.000133367
-0.000140705
-0.000147188
-0.000152768
-0.000157405
-0.000161069
-0.000163735
-0.000165385
-0.000166007
-0.00016559
-0.00016413
-0.000161624
-0.000158075
-0.000153485
-0.000147857
-0.000141198
-0.000133513
-0.00012481
-0.000115098
-0.000104384
-9.26775e-05
-7.99867e-05
-6.63194e-05
-5.16834e-05
-3.60858e-05
-1.95334e-05
-2.03315e-06
1.64083e-05
3.57844e-05
5.60897e-05
7.73191e-05
9.94681e-05
0.000122533
0.00014651
0.000171396
0.000197187
0.000223881
0.000251475
0.000279966
0.000309352
0.00033963
0.000370799
0.000402855
0.000435795
0.000469617
0.000504317
0.00053989
0.000576333
0.00061364
0.000651807
0.000690827
0.000730692
0.000771396
0.000812927
0.000855277
0.000898435
0.000942387
0.000987121
0.00103262
0.00107887
0.00112586
0.00117356
0.00122195
0.00127101
0.00132072
0.00137105
0.00142198
0.00147347
0.00152549
0.00157802
0.00163101
0.00168443
0.00173824
0.0017924
0.00184687
0.00190161
0.00195656
0.00201168
0.00206693
0.00212225
0.00217759
0.00223289
0.0022881
0.00234317
0.00239803
0.00245262
0.00250688
0.00256076
0.00261419
0.0026671
0.00271944
0.00277113
0.00282212
0.00287234
0.00292173
0.00297022
0.00301775
0.00306425
0.00310967
0.00315394
0.003197
0.0032388
0.00327927
0.00331837
0.00335604
0.00339223
0.0034269
0.00345999
0.00349146
0.00352128
0.00354941
0.00357581
0.00360046
0.00362333
0.00364439
0.00366363
0.00368103
0.00369658
0.00371028
0.00372212
0.0037321
0.00374024
0.00374653
0.003751
0.00375366
0.00375453
0.00375365
0.00375104
0.00374674
0.00374079
0.00373323
0.0037241
0.00371346
0.00370137
0.00368786
0.00367302
0.0036569
0.00363956
0.00362108
0.00360153
0.00358098
0.0035595
0.00353717
0.00351408
0.0034903
0.00346592
0.00344102
0.00341567
0.00338998
0.00336402
0.00333788
0.00331164
0.0032854
0.00325924
0.00323325
0.00320751
0.00318211
0.00315713
0.00313266
0.00310879
0.00308559
0.00306315
0.00304156
0.00302088
0.0030012
0.0029826
0.00296515
0.00294892
0.00293398
0.00292038
0.0029082
0.00289748
0.00288826
0.00288056
0.0028744
0.00286978
0.00286665
0.00286493
0.00286452
0.00286521
0.00286676
0.00286901
0.00287216
7.60546e-06
7.98374e-06
5.92758e-06
1.96778e-06
-3.5382e-06
-1.03771e-05
-1.83157e-05
-2.71086e-05
-3.65255e-05
-4.63514e-05
-5.63864e-05
-6.64477e-05
-7.63738e-05
-8.60235e-05
-9.52724e-05
-0.00010401
-0.000112141
-0.000119585
-0.000126275
-0.000132153
-0.000137169
-0.000141285
-0.000144469
-0.000146695
-0.000147945
-0.000148203
-0.000147457
-0.000145702
-0.000142933
-0.00013915
-0.000134354
-0.000128547
-0.000121734
-0.000113918
-0.000105106
-9.53048e-05
-8.45217e-05
-7.27641e-05
-6.00389e-05
-4.63533e-05
-3.17135e-05
-1.61261e-05
4.02284e-07
1.78655e-05
3.62573e-05
5.55719e-05
7.58043e-05
9.69498e-05
0.000119004
0.000141964
0.000165825
0.000190584
0.000216238
0.000242785
0.000270221
0.000298543
0.00032775
0.000357838
0.000388805
0.000420648
0.000453364
0.000486949
0.0005214
0.000556712
0.000592881
0.000629902
0.000667769
0.000706474
0.000746012
0.000786373
0.000827548
0.000869526
0.000912297
0.000955847
0.00100016
0.00104523
0.00109103
0.00113755
0.00118477
0.00123267
0.00128122
0.0013304
0.00138018
0.00143055
0.00148146
0.00153289
0.0015848
0.00163717
0.00168995
0.00174311
0.0017966
0.00185039
0.00190443
0.00195868
0.00201309
0.0020676
0.00212218
0.00217677
0.00223132
0.00228577
0.00234006
0.00239414
0.00244795
0.00250143
0.00255452
0.00260716
0.00265929
0.00271084
0.00276175
0.00281196
0.00286141
0.00291003
0.00295776
0.00300454
0.0030503
0.003095
0.00313856
0.00318093
0.00322205
0.00326187
0.00330033
0.00333738
0.00337298
0.00340707
0.00343962
0.00347058
0.0034999
0.00352757
0.00355354
0.00357779
0.00360028
0.00362101
0.00363995
0.00365708
0.0036724
0.0036859
0.00369758
0.00370744
0.00371549
0.00372173
0.00372619
0.00372887
0.00372981
0.00372903
0.00372656
0.00372243
0.00371669
0.00370937
0.00370053
0.00369021
0.00367846
0.00366535
0.00365092
0.00363525
0.0036184
0.00360043
0.00358141
0.00356143
0.00354054
0.00351884
0.00349639
0.00347327
0.00344957
0.00342537
0.00340075
0.00337579
0.00335058
0.0033252
0.00329974
0.00327427
0.0032489
0.00322369
0.00319874
0.00317412
0.00314993
0.00312623
0.00310313
0.00308068
0.00305898
0.0030381
0.00301812
0.00299911
0.00298114
0.00296428
0.0029486
0.00293416
0.00292102
0.00290923
0.00289884
0.00288987
0.00288235
0.00287629
0.00287169
0.0028685
0.00286668
0.00286614
0.00286675
0.0028683
0.00287089
0.00287507
1.5112e-05
1.44285e-05
1.18099e-05
7.59697e-06
2.04874e-06
-4.63044e-06
-1.22355e-05
-2.05629e-05
-2.94161e-05
-3.86069e-05
-4.79582e-05
-5.73086e-05
-6.65139e-05
-7.54455e-05
-8.3987e-05
-9.20357e-05
-9.95035e-05
-0.000106315
-0.000112404
-0.000117714
-0.000122199
-0.000125819
-0.000128542
-0.000130344
-0.000131202
-0.000131102
-0.000130031
-0.000127981
-0.000124947
-0.000120928
-0.000115922
-0.000109931
-0.000102957
-9.50035e-05
-8.60754e-05
-7.61783e-05
-6.53187e-05
-5.35028e-05
-4.07366e-05
-2.7026e-05
-1.23766e-05
3.20602e-06
1.97158e-05
3.71469e-05
5.54935e-05
7.47504e-05
9.49131e-05
0.000115977
0.00013794
0.000160796
0.000184542
0.000209176
0.000234694
0.000261093
0.000288371
0.000316525
0.000345552
0.00037545
0.000406215
0.000437845
0.000470336
0.000503684
0.000537887
0.000572938
0.000608834
0.000645569
0.000683138
0.000721532
0.000760744
0.000800767
0.000841589
0.0008832
0.00092559
0.000968745
0.00101265
0.00105729
0.00110266
0.00114872
0.00119547
0.00124288
0.00129093
0.0013396
0.00138886
0.00143868
0.00148903
0.00153989
0.00159122
0.00164298
0.00169515
0.00174768
0.00180054
0.00185368
0.00190705
0.00196063
0.00201435
0.00206818
0.00212205
0.00217593
0.00222976
0.00228348
0.00233705
0.00239039
0.00244346
0.0024962
0.00254855
0.00260045
0.00265183
0.00270264
0.00275282
0.0028023
0.00285102
0.00289892
0.00294594
0.00299201
0.00303709
0.0030811
0.003124
0.00316571
0.0032062
0.0032454
0.00328326
0.00331973
0.00335477
0.00338833
0.00342036
0.00345083
0.00347969
0.00350692
0.00353248
0.00355634
0.00357848
0.00359888
0.00361753
0.0036344
0.00364949
0.00366279
0.00367431
0.00368404
0.00369199
0.00369817
0.00370259
0.00370528
0.00370626
0.00370555
0.00370319
0.00369921
0.00369364
0.00368653
0.00367793
0.00366789
0.00365645
0.00364367
0.00362961
0.00361434
0.00359791
0.0035804
0.00356187
0.00354239
0.00352204
0.00350089
0.00347902
0.0034565
0.00343342
0.00340986
0.00338589
0.0033616
0.00333707
0.00331239
0.00328763
0.00326288
0.00323822
0.00321373
0.0031895
0.00316561
0.00314213
0.00311915
0.00309674
0.00307499
0.00305396
0.00303374
0.00301439
0.00299598
0.00297859
0.00296228
0.0029471
0.00293312
0.00292039
0.00290896
0.00289886
0.00289013
0.00288279
0.00287684
0.00287229
0.00286911
0.00286726
0.0028667
0.00286733
0.00286901
0.002872
0.00287714
2.47189e-05
2.26331e-05
1.92276e-05
1.45552e-05
8.76716e-06
2.04949e-06
-5.42261e-06
-1.34793e-05
-2.1952e-05
-3.06771e-05
-3.95013e-05
-4.82842e-05
-5.68979e-05
-6.52252e-05
-7.316e-05
-8.06091e-05
-8.74916e-05
-9.37361e-05
-9.92809e-05
-0.000104073
-0.000108066
-0.000111223
-0.000113514
-0.000114912
-0.000115398
-0.000114953
-0.000113565
-0.000111227
-0.000107933
-0.000103679
-9.84641e-05
-9.22871e-05
-8.51498e-05
-7.70549e-05
-6.80064e-05
-5.8009e-05
-4.70678e-05
-3.51882e-05
-2.23754e-05
-8.63423e-06
6.03046e-06
2.16136e-05
3.81095e-05
5.55129e-05
7.38189e-05
9.30225e-05
0.00011312
0.000134107
0.000155979
0.000178735
0.00020237
0.000226881
0.000252265
0.00027852
0.000305642
0.000333629
0.000362479
0.000392189
0.000422755
0.000454174
0.000486443
0.000519559
0.000553517
0.000588312
0.000623939
0.000660394
0.00069767
0.000735759
0.000774654
0.000814346
0.000854825
0.00089608
0.0009381
0.000980872
0.00102438
0.00106862
0.00111356
0.00115918
0.00120548
0.00125243
0.0013
0.00134818
0.00139693
0.00144624
0.00149606
0.00154638
0.00159715
0.00164835
0.00169994
0.00175188
0.00180413
0.00185666
0.00190941
0.00196235
0.00201544
0.00206862
0.00212184
0.00217505
0.00222821
0.00228126
0.00233414
0.00238681
0.0024392
0.00249125
0.00254291
0.00259412
0.00264482
0.00269494
0.00274444
0.00279324
0.00284129
0.00288853
0.00293489
0.00298032
0.00302476
0.00306815
0.00311043
0.00315154
0.00319144
0.00323007
0.00326738
0.00330332
0.00333784
0.00337089
0.00340245
0.00343246
0.00346089
0.00348771
0.00351288
0.00353639
0.00355819
0.00357829
0.00359665
0.00361327
0.00362814
0.00364124
0.00365259
0.00366219
0.00367003
0.00367613
0.00368051
0.00368319
0.00368419
0.00368352
0.00368124
0.00367736
0.00367194
0.003665
0.0036566
0.00364678
0.00363559
0.0036231
0.00360936
0.00359443
0.00357837
0.00356125
0.00354313
0.0035241
0.00350421
0.00348355
0.00346218
0.0034402
0.00341766
0.00339466
0.00337127
0.00334758
0.00332366
0.00329959
0.00327546
0.00325134
0.00322732
0.00320348
0.00317989
0.00315665
0.00313381
0.00311147
0.00308969
0.00306856
0.00304813
0.0030285
0.00300972
0.00299186
0.00297498
0.00295915
0.00294442
0.00293085
0.00291849
0.00290737
0.00289755
0.00288903
0.00288186
0.00287603
0.00287155
0.00286841
0.00286659
0.00286606
0.00286678
0.00286864
0.002872
0.0028779
3.59974e-05
3.22922e-05
2.79136e-05
2.26164e-05
1.64188e-05
9.48694e-06
1.97136e-06
-5.9858e-06
-1.42413e-05
-2.26559e-05
-3.10992e-05
-3.94498e-05
-4.75937e-05
-5.54262e-05
-6.28531e-05
-6.97911e-05
-7.6166e-05
-8.19118e-05
-8.69714e-05
-9.1295e-05
-9.48405e-05
-9.75725e-05
-9.94614e-05
-0.000100482
-0.000100614
-9.98413e-05
-9.81512e-05
-9.55356e-05
-9.19882e-05
-8.75046e-05
-8.20823e-05
-7.57203e-05
-6.84196e-05
-6.0182e-05
-5.10108e-05
-4.091e-05
-2.98838e-05
-1.79367e-05
-5.07273e-06
8.70367e-06
2.33882e-05
3.89763e-05
5.54628e-05
7.2843e-05
9.11122e-05
0.000110267
0.000130302
0.000151215
0.000173003
0.000195661
0.000219187
0.000243579
0.000268832
0.000294945
0.000321915
0.00034974
0.000378416
0.00040794
0.00043831
0.000469523
0.000501575
0.000534462
0.00056818
0.000602725
0.00063809
0.000674272
0.000711263
0.000749055
0.000787642
0.000827014
0.00086716
0.000908072
0.000949736
0.000992139
0.00103527
0.00107911
0.00112364
0.00116886
0.00121473
0.00126123
0.00130835
0.00135606
0.00140434
0.00145315
0.00150248
0.00155228
0.00160254
0.0016532
0.00170425
0.00175564
0.00180733
0.00185929
0.00191146
0.00196382
0.00201631
0.00206889
0.0021215
0.00217411
0.00222665
0.00227908
0.00233134
0.00238337
0.00243513
0.00248656
0.00253759
0.00258817
0.00263824
0.00268774
0.00273662
0.0027848
0.00283224
0.00287887
0.00292464
0.00296948
0.00301334
0.00305615
0.00309787
0.00313844
0.00317781
0.00321592
0.00325272
0.00328816
0.00332221
0.00335481
0.00338593
0.00341552
0.00344355
0.00346999
0.0034948
0.00351797
0.00353947
0.00355927
0.00357737
0.00359374
0.00360839
0.00362131
0.00363249
0.00364194
0.00364967
0.00365569
0.00366001
0.00366265
0.00366364
0.003663
0.00366076
0.00365696
0.00365163
0.00364483
0.00363658
0.00362694
0.00361596
0.0036037
0.00359022
0.00357557
0.00355982
0.00354302
0.00352526
0.0035066
0.00348711
0.00346686
0.00344594
0.0034244
0.00340234
0.00337983
0.00335694
0.00333376
0.00331037
0.00328684
0.00326326
0.0032397
0.00321624
0.00319297
0.00316995
0.00314727
0.003125
0.00310322
0.003082
0.00306141
0.00304152
0.00302241
0.00300412
0.00298674
0.00297032
0.00295491
0.00294058
0.00292737
0.00291533
0.0029045
0.00289491
0.0028866
0.00287957
0.00287386
0.00286947
0.00286639
0.00286462
0.00286416
0.00286498
0.002867
0.00287067
0.00287712
4.85349e-05
4.30734e-05
3.75964e-05
3.1546e-05
2.4798e-05
1.7506e-05
9.80203e-06
1.80224e-06
-6.37498e-06
-1.46139e-05
-2.28043e-05
-3.08404e-05
-3.86228e-05
-4.606e-05
-5.30697e-05
-5.95776e-05
-6.55168e-05
-7.08278e-05
-7.54582e-05
-7.93628e-05
-8.25028e-05
-8.48459e-05
-8.63639e-05
-8.70328e-05
-8.68333e-05
-8.57499e-05
-8.37716e-05
-8.08895e-05
-7.70971e-05
-7.23899e-05
-6.67648e-05
-6.02206e-05
-5.27575e-05
-4.43773e-05
-3.50826e-05
-2.48767e-05
-1.3763e-05
-1.7455e-06
1.11726e-05
2.49876e-05
3.96957e-05
5.52924e-05
7.17731e-05
8.91336e-05
0.00010737
0.000126478
0.000146456
0.000167298
0.000189003
0.000211568
0.000234989
0.000259263
0.000284389
0.000310364
0.000337184
0.000364849
0.000393354
0.000422697
0.000452875
0.000483885
0.000515724
0.000548387
0.000581871
0.00061617
0.000651281
0.000687196
0.000723909
0.000761414
0.000799701
0.000838763
0.000878588
0.000919168
0.000960489
0.00100254
0.0010453
0.00108877
0.00113292
0.00117773
0.00122319
0.00126928
0.00131597
0.00136324
0.00141106
0.00145942
0.00150827
0.0015576
0.00160736
0.00165753
0.00170807
0.00175895
0.00181012
0.00186154
0.00191318
0.001965
0.00201694
0.00206896
0.00212102
0.00217306
0.00222504
0.00227689
0.00232858
0.00238005
0.00243123
0.00248208
0.00253254
0.00258254
0.00263205
0.00268098
0.00272929
0.00277692
0.0028238
0.00286988
0.0029151
0.00295941
0.00300274
0.00304504
0.00308625
0.00312633
0.0031652
0.00320284
0.00323918
0.00327418
0.0033078
0.00333998
0.00337069
0.0033999
0.00342756
0.00345365
0.00347814
0.00350099
0.00352219
0.00354172
0.00355957
0.00357571
0.00359015
0.00360288
0.0036139
0.0036232
0.00363081
0.00363673
0.00364097
0.00364356
0.00364452
0.00364388
0.00364166
0.0036379
0.00363264
0.00362592
0.00361778
0.00360828
0.00359747
0.00358539
0.00357211
0.00355768
0.00354218
0.00352566
0.00350819
0.00348984
0.00347068
0.00345078
0.00343022
0.00340907
0.00338741
0.00336531
0.00334285
0.00332012
0.00329718
0.00327411
0.00325101
0.00322793
0.00320496
0.00318218
0.00315966
0.00313747
0.0031157
0.00309441
0.00307368
0.00305356
0.00303414
0.00301548
0.00299763
0.00298067
0.00296464
0.00294961
0.00293562
0.00292273
0.00291097
0.00290038
0.002891
0.00288286
0.00287598
0.00287038
0.00286607
0.00286305
0.00286134
0.00286095
0.00286186
0.00286401
0.00286788
0.00287469
6.19576e-05
5.46697e-05
4.8015e-05
4.11116e-05
3.37017e-05
2.5934e-05
1.79239e-05
9.76279e-06
1.54494e-06
-6.63444e-06
-1.46817e-05
-2.25063e-05
-3.00237e-05
-3.71557e-05
-4.38305e-05
-4.99827e-05
-5.55531e-05
-6.04888e-05
-6.4743e-05
-6.82756e-05
-7.10518e-05
-7.30416e-05
-7.42189e-05
-7.45617e-05
-7.40527e-05
-7.26779e-05
-7.04266e-05
-6.72904e-05
-6.32629e-05
-5.83395e-05
-5.25171e-05
-4.57945e-05
-3.8172e-05
-2.96507e-05
-2.02329e-05
-9.92138e-06
1.2807e-06
1.33705e-05
2.63451e-05
4.02012e-05
5.49352e-05
7.05432e-05
8.7021e-05
0.000104365
0.000122571
0.000141637
0.000161559
0.000182334
0.000203959
0.000226433
0.000249751
0.000273912
0.000298912
0.000324751
0.000351426
0.000378933
0.00040727
0.000436435
0.000466426
0.000497238
0.000528868
0.000561312
0.000594566
0.000628626
0.000663487
0.000699143
0.000735587
0.000772812
0.000810809
0.000849571
0.000889087
0.000929346
0.000970337
0.00101205
0.00105446
0.00109757
0.00114135
0.00118578
0.00123085
0.00127654
0.00132283
0.00136968
0.00141708
0.001465
0.00151342
0.00156229
0.0016116
0.0016613
0.00171137
0.00176177
0.00181246
0.00186339
0.00191454
0.00196585
0.00201729
0.0020688
0.00212035
0.00217187
0.00222333
0.00227467
0.00232583
0.00237678
0.00242744
0.00247777
0.0025277
0.00257719
0.00262618
0.0026746
0.0027224
0.00276952
0.0028159
0.00286149
0.00290622
0.00295005
0.0029929
0.00303474
0.00307549
0.00311512
0.00315356
0.00319076
0.00322669
0.00326129
0.00329451
0.00332631
0.00335666
0.00338552
0.00341284
0.00343861
0.00346279
0.00348535
0.00350628
0.00352556
0.00354316
0.00355908
0.00357332
0.00358586
0.00359671
0.00360587
0.00361335
0.00361916
0.00362331
0.00362584
0.00362674
0.00362607
0.00362384
0.0036201
0.00361487
0.0036082
0.00360014
0.00359073
0.00358003
0.00356809
0.00355496
0.00354071
0.0035254
0.00350909
0.00349185
0.00347375
0.00345486
0.00343524
0.00341498
0.00339415
0.00337282
0.00335107
0.00332897
0.00330661
0.00328406
0.00326139
0.00323868
0.00321602
0.00319346
0.0031711
0.00314901
0.00312725
0.00310591
0.00308504
0.00306472
0.00304502
0.00302601
0.00300773
0.00299027
0.00297366
0.00295798
0.00294327
0.00292957
0.00291695
0.00290543
0.00289506
0.00288586
0.00287787
0.00287111
0.0028656
0.00286136
0.00285841
0.00285674
0.0028564
0.00285737
0.00285961
0.0028636
0.00287057
7.59582e-05
6.68055e-05
5.89178e-05
5.10899e-05
4.29358e-05
3.46028e-05
2.61914e-05
1.77691e-05
9.4097e-06
1.19175e-06
-6.80656e-06
-1.45102e-05
-2.18488e-05
-2.8756e-05
-3.517e-05
-4.10346e-05
-4.6298e-05
-5.09142e-05
-5.48427e-05
-5.80483e-05
-6.05003e-05
-6.21712e-05
-6.30379e-05
-6.3081e-05
-6.22852e-05
-6.06381e-05
-5.813e-05
-5.47531e-05
-5.05013e-05
-4.53704e-05
-3.93577e-05
-3.2462e-05
-2.46837e-05
-1.60241e-05
-6.48501e-06
3.93119e-06
1.52219e-05
2.73847e-05
4.0417e-05
5.43156e-05
6.90774e-05
8.46987e-05
0.000101176
0.000118505
0.000136684
0.000155709
0.000175578
0.000196288
0.000217837
0.000240221
0.000263439
0.000287489
0.000312368
0.000338074
0.000364604
0.000391958
0.000420131
0.000449122
0.000478928
0.000509545
0.000540971
0.000573201
0.000606232
0.000640059
0.000674677
0.000710081
0.000746263
0.000783217
0.000820934
0.000859406
0.000898623
0.000938575
0.000979248
0.00102063
0.00106271
0.00110548
0.0011489
0.00119298
0.00123768
0.001283
0.0013289
0.00137536
0.00142236
0.00146988
0.00151788
0.00156634
0.00161522
0.00166449
0.00171412
0.00176408
0.00181432
0.0018648
0.00191549
0.00196635
0.00201732
0.00206837
0.00211944
0.0021705
0.00222149
0.00227236
0.00232305
0.00237352
0.00242371
0.00247357
0.00252304
0.00257206
0.00262058
0.00266854
0.00271588
0.00276255
0.00280849
0.00285363
0.00289793
0.00294132
0.00298375
0.00302517
0.00306552
0.00310474
0.00314279
0.00317962
0.00321517
0.0032494
0.00328227
0.00331374
0.00334375
0.00337229
0.00339931
0.00342478
0.00344868
0.00347098
0.00349165
0.00351068
0.00352806
0.00354377
0.00355781
0.00357017
0.00358085
0.00358986
0.00359721
0.0036029
0.00360695
0.00360939
0.00361023
0.0036095
0.00360724
0.00360348
0.00359825
0.0035916
0.00358358
0.00357422
0.00356359
0.00355174
0.00353872
0.00352459
0.00350942
0.00349327
0.0034762
0.00345829
0.00343961
0.00342022
0.0034002
0.00337962
0.00335855
0.00333708
0.00331528
0.00329322
0.00327098
0.00324864
0.00322627
0.00320395
0.00318174
0.00315974
0.003138
0.0031166
0.00309562
0.00307511
0.00305515
0.0030358
0.00301712
0.00299918
0.00298204
0.00296574
0.00295035
0.00293591
0.00292246
0.00291007
0.00289875
0.00288856
0.00287951
0.00287165
0.00286499
0.00285956
0.00285538
0.00285246
0.00285083
0.00285051
0.00285151
0.00285377
0.00285779
0.00286478
9.02294e-05
7.92196e-05
7.00713e-05
6.12728e-05
5.23162e-05
4.33491e-05
3.44589e-05
2.56933e-05
1.71097e-05
8.77133e-06
7.40844e-07
-6.92116e-06
-1.41566e-05
-2.09102e-05
-2.71301e-05
-3.27685e-05
-3.77816e-05
-4.21303e-05
-4.57804e-05
-4.87015e-05
-5.08667e-05
-5.22521e-05
-5.28376e-05
-5.26071e-05
-5.15474e-05
-4.96477e-05
-4.68993e-05
-4.32957e-05
-3.88314e-05
-3.35027e-05
-2.73075e-05
-2.02453e-05
-1.23164e-05
-3.52222e-06
6.13541e-06
1.66545e-05
2.80329e-05
4.02684e-05
5.33584e-05
6.73003e-05
8.20908e-05
9.77264e-05
0.000114204
0.000131521
0.000149674
0.00016866
0.000188479
0.000209126
0.0002306
0.000252898
0.000276018
0.000299959
0.000324718
0.000350294
0.000376684
0.000403887
0.0004319
0.00046072
0.000490346
0.000520773
0.000551999
0.00058402
0.000616833
0.000650433
0.000684816
0.000719974
0.000755903
0.000792594
0.000830041
0.000868234
0.000907163
0.000946819
0.000987189
0.00102826
0.00107002
0.00111246
0.00115555
0.00119929
0.00124364
0.0012886
0.00133414
0.00138024
0.00142687
0.001474
0.00152162
0.00156969
0.00161817
0.00166705
0.00171628
0.00176583
0.00181566
0.00186573
0.001916
0.00196644
0.00201699
0.00206762
0.00211827
0.0021689
0.00221947
0.00226991
0.00232018
0.00237023
0.00242
0.00246943
0.00251848
0.00256709
0.0026152
0.00266275
0.00270969
0.00275596
0.0028015
0.00284625
0.00289016
0.00293317
0.00297523
0.00301628
0.00305626
0.00309513
0.00313284
0.00316932
0.00320454
0.00323845
0.00327101
0.00330217
0.00333189
0.00336014
0.00338688
0.00341209
0.00343573
0.00345778
0.00347822
0.00349702
0.00351419
0.0035297
0.00354355
0.00355573
0.00356625
0.0035751
0.00358231
0.00358787
0.00359181
0.00359415
0.0035949
0.00359411
0.00359178
0.00358798
0.00358272
0.00357606
0.00356803
0.00355869
0.00354809
0.00353628
0.00352332
0.00350927
0.00349419
0.00347814
0.0034612
0.00344342
0.00342489
0.00340566
0.00338582
0.00336543
0.00334457
0.00332332
0.00330174
0.00327992
0.00325794
0.00323585
0.00321375
0.00319171
0.00316979
0.00314807
0.00312663
0.00310552
0.00308483
0.00306462
0.00304496
0.0030259
0.00300751
0.00298984
0.00297296
0.00295692
0.00294177
0.00292755
0.00291432
0.00290211
0.00289096
0.00288091
0.00287199
0.00286423
0.00285765
0.00285227
0.00284813
0.00284523
0.0028436
0.00284328
0.00284426
0.0028465
0.00285047
0.00285737
0.00010453
9.16814e-05
8.12643e-05
7.14682e-05
6.16679e-05
5.20137e-05
4.25839e-05
3.34104e-05
2.45356e-05
1.6008e-05
7.87594e-06
1.87419e-07
-7.01064e-06
-1.36734e-05
-1.97583e-05
-2.52259e-05
-3.00402e-05
-3.41695e-05
-3.75852e-05
-4.02614e-05
-4.21751e-05
-4.33067e-05
-4.364e-05
-4.31615e-05
-4.18604e-05
-3.97276e-05
-3.67561e-05
-3.29402e-05
-2.82756e-05
-2.27597e-05
-1.6391e-05
-9.16956e-06
-1.09619e-06
7.82769e-06
1.76002e-05
2.82196e-05
3.96838e-05
5.19907e-05
6.5138e-05
7.91226e-05
9.39418e-05
0.000109592
0.000126071
0.000143377
0.000161505
0.000180455
0.000200224
0.00022081
0.000242211
0.000264425
0.00028745
0.000311284
0.000335926
0.000361375
0.000387627
0.000414682
0.000442538
0.000471191
0.00050064
0.000530882
0.000561913
0.000593731
0.000626332
0.000659711
0.000693864
0.000728786
0.000764469
0.000800907
0.000838093
0.000876017
0.000914671
0.000954043
0.000994123
0.0010349
0.00107636
0.00111848
0.00116126
0.00120467
0.0012487
0.00129333
0.00133853
0.00138428
0.00143056
0.00147735
0.00152461
0.00157231
0.00162044
0.00166894
0.0017178
0.00176698
0.00181643
0.00186613
0.00191603
0.00196608
0.00201626
0.0020665
0.00211678
0.00216703
0.00221721
0.00226728
0.00231717
0.00236684
0.00241624
0.00246531
0.00251399
0.00256223
0.00260998
0.00265717
0.00270375
0.00274967
0.00279486
0.00283928
0.00288285
0.00292553
0.00296726
0.00300799
0.00304766
0.00308622
0.00312362
0.00315981
0.00319474
0.00322836
0.00326064
0.00329153
0.00332099
0.00334898
0.00337548
0.00340044
0.00342385
0.00344567
0.0034659
0.0034845
0.00350146
0.00351678
0.00353044
0.00354245
0.00355281
0.00356151
0.00356857
0.003574
0.00357781
0.00358004
0.00358069
0.0035798
0.0035774
0.00357352
0.0035682
0.00356149
0.00355343
0.00354407
0.00353346
0.00352166
0.00350871
0.00349469
0.00347965
0.00346366
0.00344679
0.00342909
0.00341065
0.00339153
0.00337181
0.00335155
0.00333084
0.00330974
0.00328833
0.00326669
0.00324489
0.00322301
0.00320111
0.00317928
0.00315758
0.00313609
0.00311488
0.00309401
0.00307356
0.00305358
0.00303415
0.00301532
0.00299716
0.00297972
0.00296305
0.00294722
0.00293226
0.00291822
0.00290515
0.00289309
0.00288207
0.00287214
0.00286331
0.00285562
0.00284909
0.00284375
0.00283962
0.00283672
0.00283508
0.00283472
0.00283565
0.00283782
0.00284167
0.00284838
0.000118637
0.000103985
9.23042e-05
8.14963e-05
7.08239e-05
6.04441e-05
5.04299e-05
4.07986e-05
3.15782e-05
2.28038e-05
1.45117e-05
6.73888e-06
-4.78449e-07
-7.10506e-06
-1.31071e-05
-1.84536e-05
-2.31164e-05
-2.70701e-05
-3.02912e-05
-3.27589e-05
-3.44547e-05
-3.53633e-05
-3.54719e-05
-3.47702e-05
-3.32497e-05
-3.09033e-05
-2.77255e-05
-2.37122e-05
-1.88602e-05
-1.31682e-05
-6.63558e-06
7.36919e-07
8.94798e-06
1.79958e-05
2.78786e-05
3.85948e-05
5.01422e-05
6.25185e-05
7.57213e-05
8.97477e-05
0.000104595
0.00012026
0.000136741
0.000154035
0.00017214
0.000191054
0.000210775
0.000231301
0.000252631
0.000274762
0.000297694
0.000321424
0.000345952
0.000371275
0.000397393
0.000424304
0.000452005
0.000480495
0.000509771
0.000539832
0.000570673
0.000602293
0.000634688
0.000667853
0.000701784
0.000736476
0.000771922
0.000808116
0.00084505
0.000882717
0.000921106
0.000960208
0.00100001
0.0010405
0.00108168
0.00112351
0.00116599
0.0012091
0.00125282
0.00129713
0.00134202
0.00138745
0.00143341
0.00147986
0.0015268
0.00157417
0.00162196
0.00167013
0.00171865
0.00176749
0.00181661
0.00186596
0.00191552
0.00196524
0.00201507
0.00206498
0.00211492
0.00216483
0.00221468
0.00226441
0.00231398
0.00236332
0.00241239
0.00246113
0.0025095
0.00255742
0.00260486
0.00265174
0.00269802
0.00274363
0.00278853
0.00283265
0.00287593
0.00291833
0.00295978
0.00300023
0.00303963
0.00307793
0.00311507
0.003151
0.00318568
0.00321906
0.00325109
0.00328175
0.00331098
0.00333874
0.00336502
0.00338977
0.00341297
0.00343459
0.00345461
0.00347302
0.00348979
0.00350493
0.00351842
0.00353026
0.00354045
0.003549
0.00355591
0.0035612
0.00356488
0.00356698
0.00356751
0.00356651
0.003564
0.00356003
0.00355463
0.00354785
0.00353972
0.0035303
0.00351965
0.00350781
0.00349484
0.0034808
0.00346576
0.00344978
0.00343292
0.00341526
0.00339686
0.00337779
0.00335813
0.00333795
0.00331732
0.00329632
0.00327502
0.0032535
0.00323183
0.00321008