/*--------------------------------*- C++ -*----------------------------------*\
  =========                 |
  \\      /  F ield         | OpenFOAM: The Open Source CFD Toolbox
   \\    /   O peration     | Website:  https://openfoam.org
    \\  /    A nd           | Version:  7
     \\/     M anipulation  |
\*---------------------------------------------------------------------------*/
FoamFile
{
    version     2.0;
    format      ascii;
    class       volScalarField;
    location    "1.239";
    object      p;
}
// * * * * * * * * * * * * * * * * * * * * * * * * * * * * * * * * * * * * * //

dimensions      [0 2 -2 0 0 0 0];

internalField   nonuniform List<scalar> 
12359
(
0.065919
0.0750312
0.0502698
0.107946
0.069476
0.154712
0.186053
0.169131
0.225961
0.142571
0.207036
0.27772
0.486002
0.115167
0.102664
0.396139
0.440183
0.0544076
0.0540558
0.087948
0.123526
0.251257
0.0811474
0.0933547
0.0777537
0.0842435
0.0513175
0.0511859
0.0534041
0.0517841
0.0521639
0.0507298
0.0504165
0.0515762
0.0502981
0.0523418
0.0593415
0.0641955
0.0677647
0.0617034
0.0730232
0.062802
0.0570435
0.0563615
0.0528126
0.0530957
0.0525913
0.0520144
0.0537133
0.0514361
0.0510711
0.0509547
0.0506595
0.0547812
0.0505824
0.0504421
0.0557866
0.0504012
0.0503975
0.050333
0.0504817
0.0502966
0.051
0.515694
0.0552723
0.132384
0.058638
0.0508761
0.0600466
0.348788
0.530879
0.0711707
0.0502618
0.060879
0.0980204
0.0503055
0.0506579
0.0502756
0.0579586
0.318008
0.12471
0.0459524
0.0493843
0.050917
-0.0574548
0.022667
0.0457683
0.0480987
-0.069203
-0.0517337
0.0500703
0.477723
0.0500122
0.0497709
0.0496919
0.00418623
0.0492462
0.0498806
0.0581444
0.0548167
0.107321
0.0501629
0.0237485
-0.122519
0.0453423
0.0127931
0.0491113
-0.056173
0.0260946
0.0132468
0.0493394
0.0460066
0.110072
0.0910901
0.0500466
0.0467104
0.0928657
0.0450406
-0.0744113
0.0494183
0.0494793
0.174714
0.0479486
0.00489384
0.0447382
0.0466708
0.0378946
0.0507202
0.0502616
0.044651
0.0471389
-0.00235165
-0.00398446
-0.00277504
0.0491728
0.00585152
0.0470008
0.00583114
0.0501917
0.038169
0.0495517
0.067118
0.0141196
0.0491258
0.00812435
0.146992
0.0493963
-0.0462108
0.0451018
0.126615
0.00234682
0.050175
0.0142018
0.0478947
0.0499723
-0.162113
0.108428
-0.00151663
0.0493656
0.0508062
0.045639
0.0508496
0.0035506
0.0112077
0.0493675
0.0467964
0.0468442
0.173641
0.0127736
-0.0708797
0.0502736
0.050298
0.0115003
0.0778606
0.0456698
0.0419315
0.0534062
0.0531862
0.111543
0.0425049
0.115243
0.0499518
0.050263
0.0456559
0.0570843
0.205624
0.0445987
0.0488892
0.00224265
0.0443456
0.0491827
0.00444868
0.00729417
0.0478264
0.0119492
-0.130374
0.0322589
0.0456028
0.01478
0.0451487
0.151116
0.00174859
0.0559133
0.01288
0.011526
0.0499315
0.010504
0.056515
0.00187823
0.0435654
0.0496936
8.32303e-05
0.000226362
-0.529741
0.203104
0.0501985
0.0451461
0.0500155
0.04491
0.0680012
0.101401
0.0437349
0.00465283
0.468359
0.0444637
0.0496717
0.0687629
0.0278671
0.0456223
0.0463849
0.0461854
0.0493766
0.00897475
0.0559748
0.0482882
0.0551477
0.0494126
0.013677
0.0484597
0.292579
0.0493317
0.0212221
0.0488969
0.0547221
0.0445811
-0.0466616
0.0503748
0.00175316
0.0464251
0.00810066
0.00154895
0.0634586
0.0528395
0.0467029
0.324165
-0.577591
0.0494256
0.0437866
0.399567
-0.0533312
0.0554957
0.0455751
0.0453899
0.0116451
0.0762108
-0.456347
-0.0691798
0.0445288
0.0440873
0.00616492
0.0115839
0.0610474
0.0128871
0.0468304
0.0436213
0.0493864
0.0438111
-0.114352
0.0433107
0.0490723
0.0501506
0.0110681
0.0410903
0.058725
0.0212535
0.0494862
0.0476928
0.0501695
0.0501515
0.0507751
0.00350415
0.0456995
-0.45785
0.0491342
0.0490516
0.0240075
0.0463472
0.101087
0.0498773
0.0511224
0.0500913
-0.103195
0.0446737
0.0500896
0.0453523
0.0494957
0.0466326
0.0465462
0.0470183
0.0461889
0.0544144
0.204541
0.0463742
0.0522478
0.0640617
0.0218844
-0.056718
0.0463185
0.0590538
0.371647
0.0501418
0.0183871
0.0489958
0.0325723
0.0490976
0.0457668
0.228383
0.017646
0.206201
0.0582715
0.0486139
0.00566691
0.00167209
0.0484883
0.00574042
0.00683104
0.0488536
0.0505481
0.0505415
0.0506041
0.0505883
0.292396
0.0494631
0.105032
0.000867294
0.0559618
0.0125438
0.0178196
0.0246448
0.0333475
0.0169115
0.0339067
0.0578818
0.0198086
0.0212057
0.092879
0.0680513
0.0147741
0.0662462
0.0660976
0.0154441
0.104866
0.0464455
0.0506446
0.0307757
0.0506073
0.0461425
-0.187767
0.502595
0.0463439
0.0502318
0.0491919
0.0498438
0.0167191
0.0499774
0.0499616
-0.0751887
0.0116788
-0.0479105
0.0480987
0.00958911
0.0412664
0.0491664
0.0154107
0.0304638
0.111146
0.0307504
0.0466585
0.0490201
0.0111953
0.00900845
0.0441636
0.297074
0.0151376
0.00303926
0.0502072
0.047187
0.0502127
0.3846
0.0128824
0.0481923
0.0627647
0.0651824
0.0495699
0.0495387
0.0497827
-0.0566652
0.0992463
0.0600838
0.0173072
0.000157104
0.0498252
0.115155
0.0496161
-0.000129707
-0.0611603
0.303922
0.0547005
0.0923499
0.0268314
0.0220787
0.0353543
0.0304174
0.0518486
0.035283
0.0144536
0.049983
-0.0541775
0.0592516
-0.00683575
0.00785658
0.0562122
0.0968899
-0.146442
0.0165292
0.0394787
0.00212226
0.00750809
0.0184981
0.0451
0.0497313
0.0527353
0.049118
-0.00312192
0.0471478
0.0837409
0.0861941
0.0354457
-0.0548441
0.104943
0.0545494
0.0484806
0.394537
0.0489798
0.0480364
0.0048927
0.0502381
0.0483881
0.048033
0.236996
0.206797
0.0504869
0.0480239
0.110231
0.0484514
0.0175323
0.0141921
0.0121989
0.0488198
0.0498278
0.0481675
0.0500981
0.085771
0.0182035
0.021725
0.053027
0.0518188
0.00234254
0.0519298
0.0473773
0.0439034
0.120796
0.00418383
0.0501756
0.0478939
0.0107446
0.0290603
0.0488863
0.046822
0.11328
0.0177892
0.0064625
0.0203736
0.0488107
0.0475974
-0.00573455
-0.00451587
0.0500943
0.0366744
0.0499181
0.00315028
0.282062
0.0497647
0.0472937
0.0489018
0.0137306
0.0544308
0.0536162
0.0468914
0.0495443
0.0293349
0.0765628
0.0380015
-0.0351393
0.0491406
-0.040539
0.0482218
-0.116557
0.0165875
-0.00283348
0.0503837
0.0528318
0.0212952
0.0457878
0.0510562
0.0574132
0.0546057
0.0549145
0.0712593
0.0136299
0.0132771
0.0494
0.0454894
0.0180037
-0.0035728
0.0494005
0.0490289
0.0109213
0.0488773
0.224154
-0.150363
-0.118753
0.049399
0.0415225
0.00102445
0.0539341
0.0459075
0.452221
0.0491132
0.114172
0.0889699
0.0413931
0.0463439
0.0511834
0.035841
0.000411455
0.0294502
0.0523091
0.049431
0.0502659
0.05427
0.0533909
0.0555362
0.0131524
0.0508234
0.0490948
0.0200336
-0.086119
0.0521393
-7.30164e-06
0.0492177
0.0528273
0.0948
0.00148759
0.00149656
0.096989
0.0461055
0.00137707
0.0496062
0.0503338
0.00253737
0.0367595
0.0455325
0.036695
0.0498934
0.0490512
0.0463629
0.0494325
0.00131872
0.103847
0.0596159
0.118502
0.0147427
0.0394498
0.113059
0.0634158
-0.00546347
0.0123498
0.0644463
0.0541615
0.0503458
0.0377882
0.0203903
0.0493926
0.0502463
0.0488576
0.0503809
-0.0160208
0.0371135
0.0327381
0.10527
0.0576834
0.234243
0.00306329
0.00152417
0.0462037
-0.00196546
0.0498763
0.0504174
0.0489949
0.105892
0.114847
0.0465616
0.0297868
0.22842
0.0147122
0.005706
0.0382612
0.0655654
-0.127168
0.0485527
0.0513146
0.0499148
-0.0102475
0.0511941
0.0304582
-0.0544428
0.0490546
0.0779637
0.0573622
0.04134
0.0523723
0.0468774
0.0506515
0.0540595
0.050705
0.0505908
0.0534846
0.00529962
0.00899993
0.0413454
0.337323
0.000956619
0.415093
0.0160987
0.0219382
0.0537618
0.0173241
0.0569545
0.00484987
0.319689
0.0988389
0.056156
0.043634
0.0546816
0.0533717
0.0209644
0.0497286
-0.00900774
0.0507137
0.0998941
0.0486783
-0.0144452
0.00736697
0.0105572
0.0561016
0.0387322
0.00790804
0.077757
0.00543755
0.0402419
0.00279237
0.042975
0.0494411
0.0501314
-0.203168
0.0706608
0.0421045
0.0493554
0.050909
0.0550349
0.0833392
0.0088914
0.0153764
0.0488387
0.0436967
0.0554681
0.0420744
0.0385968
0.00165564
0.0561834
0.0575578
0.00848096
0.043522
0.0402171
0.104272
0.0494012
0.0562558
-0.256033
0.0503732
0.00695466
0.0513867
0.0406376
0.0892033
0.00903964
0.0510135
0.0183566
0.0498918
0.11159
0.0449593
0.00850838
0.0102902
0.112754
0.0497699
0.000836534
-0.00604547
0.0564624
0.0423539
0.0449835
0.0362997
0.23851
0.0541201
0.0502118
0.0550281
0.0499953
-0.124574
0.0417355
0.0101874
0.030688
0.0161281
0.518341
0.041857
-0.0549638
0.00901513
-0.0933195
0.0172157
0.0521956
0.0418236
0.0297929
-0.0473278
-0.035959
0.0482999
0.0479847
0.118302
0.0476453
0.212229
0.0194126
0.070254
0.0453528
0.406756
-0.102233
0.0423515
0.0494461
0.0496368
0.0939144
0.0550766
0.0598042
0.0522373
0.0137297
0.0772533
-0.0307477
0.356015
0.0489077
0.0830999
0.0136856
0.120323
0.0437624
0.114537
0.00674209
0.095311
0.0526003
0.049357
0.00892223
0.00621392
0.0156756
0.117821
0.0126984
0.0224507
0.0512427
0.0490524
0.0381011
0.243606
0.0381276
0.01116
0.0667179
0.0186924
0.0342315
0.0528931
-0.00518212
0.0313864
0.0432226
-0.0154568
0.0581211
0.0248841
0.200268
0.0494309
0.0312173
0.0500724
0.0570674
0.046857
0.0507187
0.0493972
0.00192096
0.0442191
0.0778987
0.0118702
0.095013
0.0298094
0.0303845
0.00976873
-0.184583
0.0503572
0.0567049
0.0224768
-0.0687266
0.00662165
0.049691
0.506306
0.049369
0.0450575
-0.154211
0.0550715
0.049974
0.0500352
0.0653927
0.0895184
0.050382
0.0560255
0.109077
0.0507076
0.0532323
0.052751
0.0485527
0.0906552
-0.0172165
0.0542511
0.116434
0.0090551
0.0046267
0.00578595
0.0147935
0.0526393
0.0448716
-0.0402269
0.00397521
0.0731968
0.0487319
0.0504083
0.118255
-0.00170921
0.0323754
0.0372023
0.0319839
0.0521896
0.0434396
0.0840613
-0.22686
0.361875
0.0827109
0.0500086
0.0434181
0.0799618
0.348919
0.111436
0.04971
-0.000130148
-0.012548
-0.242398
0.0348061
-0.147734
0.0503771
0.052612
0.0504207
0.00663655
0.0749005
-0.157218
0.0457569
-0.0832032
0.0474218
0.0505529
0.00971868
0.0542981
0.000650899
-0.0425924
0.0558296
0.0336594
0.0226394
0.0352717
0.0556436
0.0758109
0.0727469
0.029732
0.0792371
0.0558593
0.0504561
0.0529453
0.0509531
0.104789
0.0204147
-0.0074885
0.00285104
0.0858794
0.0238744
0.0220907
0.0423411
-0.0108623
0.0331056
0.0551847
0.0499281
-0.000695866
0.109186
0.0460069
0.0399878
0.0567797
0.022786
0.102883
0.116005
0.0226252
0.240876
0.0212875
0.0868289
-0.0397608
0.0539756
0.0187754
0.0105542
0.0477883
0.0329845
0.0376202
0.0438493
0.049602
0.0460125
-0.014097
-0.00170749
0.0453764
-0.137144
0.100551
0.050849
0.051058
0.0013445
0.0507593
0.078051
0.0129224
0.0049913
0.050705
0.0529942
0.0493716
0.0507665
0.118914
-0.132631
0.0508683
0.0573482
0.049407
-0.143034
0.0209724
0.0135219
0.0491484
0.0507685
0.0524876
0.0239421
0.085109
0.027473
0.0480314
0.052969
0.0506539
0.0204578
0.0848222
0.037664
0.0502384
0.0296363
0.0245534
0.0752858
0.0464571
-0.016786
0.145343
0.0478791
0.0320273
0.0527318
0.043213
-0.174043
0.0557029
0.0509003
0.0100292
0.104917
0.082537
-0.136252
0.0765576
0.0339614
0.0269616
0.0567657
0.0392854
0.0336124
0.0560081
0.146646
0.0501854
-0.326494
0.0834995
0.181343
0.0392862
-0.00572262
0.0956941
-0.00206478
0.26174
0.00607616
0.0244044
0.0324409
0.038136
0.0493686
0.0436409
0.0882122
0.000884217
0.0561642
0.047873
0.00544246
0.016048
0.00535535
0.080295
9.08134e-05
0.00503402
0.0488628
0.0705655
-0.0506852
0.0874162
0.0493587
0.0332776
0.0535782
0.0493674
0.0691847
0.0503628
0.0436852
0.244089
0.0918544
-0.0173003
0.0503965
0.0498771
0.0500095
0.0563285
0.0538311
-0.00227537
0.0539534
0.0497873
-0.0162141
0.0207773
0.00367442
0.0688874
0.0501772
0.0414595
0.0915483
0.0329491
0.0504257
-0.0416903
0.0090039
0.111742
0.0502518
-0.232231
0.0975052
0.0501603
0.00236526
0.0376818
-0.0249644
0.0347204
0.000628119
0.0944328
0.0493665
0.0520198
0.0199333
0.0399721
0.0547914
-0.00732925
0.0552057
0.0553625
0.0969594
0.0474745
0.0535081
0.0345155
0.00844338
0.049885
0.0552667
0.0532439
0.049266
0.0963318
-0.0411814
0.0252487
0.0564504
0.0537164
0.041258
0.0494613
-0.189812
0.0795632
0.0501623
0.0710398
0.0413984
0.09937
0.152865
0.000504816
0.0552879
0.00502125
-0.00216501
0.0490877
0.0400754
-0.000952273
0.0462941
0.0502149
0.0728245
0.0260986
0.0538782
0.0502414
0.0409263
0.0843528
0.0507949
0.0313835
0.0503802
0.0372027
0.0672679
0.132247
0.0498146
-0.197229
0.0803469
0.0151719
-0.116713
0.0927908
0.0307151
-0.0306891
0.0568958
0.141925
0.209042
0.0535724
0.0440249
0.0439523
0.0520399
0.0539499
0.00630006
-0.0770769
-0.137688
0.00801585
0.148122
-0.00686325
0.00945389
-0.0584331
0.0497237
0.0522613
0.0476597
0.0238539
0.0495824
0.00743411
0.0354303
-0.0113386
0.0494572
0.0527319
0.0477572
-0.143269
0.11951
0.0782477
0.0616822
0.121762
0.0442551
0.0507997
-0.0160517
0.0352201
-0.0118567
0.00672208
0.0204774
0.00412124
0.0136946
0.0573543
0.0491422
0.0495324
-0.120942
0.0415524
0.0389669
0.0533912
0.000529663
0.0176384
0.049853
0.0183098
-0.0132172
-0.000124222
0.0945486
0.053304
0.0499395
0.00426662
0.056496
0.049719
-0.000622379
0.00704048
0.0534865
0.138459
0.000609761
0.0499654
0.0499432
0.0492577
0.107391
-0.131819
0.041103
0.00964903
0.0528107
0.0531457
0.00938778
0.0501319
0.180328
0.0135114
-0.0534121
0.153524
0.0287533
0.0491824
0.0495587
0.0314183
0.0566132
0.0491121
-0.175785
0.00494348
0.0436319
0.221148
0.101415
0.0452517
0.0493987
0.0499778
0.052479
-0.0738465
0.160735
0.0325074
0.0776127
0.0670612
0.00557546
-0.0759334
0.0231254
0.0547192
0.0530963
0.0158315
0.0406078
0.0488736
0.0522178
0.00332948
0.0538296
0.0316225
0.0556357
0.081661
-0.0112306
0.0470254
0.0523366
-0.00369935
0.00289277
0.0591241
0.0520606
0.0767087
-0.000720933
0.038566
0.0167601
0.0741171
0.0143495
-0.0333862
0.0534893
0.158432
0.0492007
0.105425
-0.000172024
0.0501119
0.0496485
0.371756
0.0502047
0.0562898
0.0255699
0.0550318
0.0551949
0.0581299
0.0501061
0.0500018
0.000161443
-0.0254901
0.0480361
0.331035
0.0362716
0.0520196
0.236797
0.099343
0.0547011
0.0453272
0.0516995
0.0884247
-0.263426
0.0548658
0.0479536
0.0493132
0.0522033
0.0638965
0.0155401
0.0544326
0.0648231
0.0532323
-0.150985
-0.0060973
0.0067274
0.110513
0.0359884
0.0521125
0.0038693
-0.115853
0.0531799
0.0494955
0.0520442
0.0467564
0.0549853
0.0488729
-0.00373229
0.0449727
0.044377
0.308079
-0.00103665
-0.00927325
0.00339052
0.0548293
0.000679312
0.0869605
-0.0873201
0.0477617
0.00931295
0.0501197
0.242945
0.0494526
0.0495578
0.0297917
0.0493497
0.0247503
0.0595308
0.0550986
0.047647
-0.0920462
0.0871677
0.00956032
0.0522939
0.0351528
-0.0584591
-0.00760804
0.078859
0.0749709
0.0502361
0.0557006
0.046763
0.0520818
0.0480117
0.0522552
0.0901186
0.074995
0.00647389
-0.103688
0.0242393
-0.0084555
0.0321244
-0.108397
0.0488241
-0.0295424
0.0521318
-0.0109704
-0.00632968
0.0241863
0.0497616
0.0285355
0.00988841
0.0306444
-0.0158362
0.233662
-0.101756
0.0520829
-0.00189579
0.0464499
-0.00522239
0.090613
0.00382046
0.0454486
0.0580312
0.00860035
0.0528927
0.0359089
0.0500453
0.0446691
0.0495192
0.0558199
0.00576496
0.000980479
0.0497421
0.0845509
-0.0823894
0.496225
0.0491395
0.0733531
0.0253908
0.194058
0.0308208
-0.176771
-0.0341735
0.0474145
0.0234488
0.0670579
0.176378
0.0490795
0.0675825
0.0780496
0.0477458
-0.0859047
-0.00495611
0.0520806
0.0252502
-0.0350443
0.0762755
-0.0881082
0.0368261
0.0792771
0.054329
0.0491421
0.0558201
0.0442967
-0.0734815
-0.00053251
-0.0633904
0.0507004
-0.0844435
0.0290683
0.00351121
0.1108
0.0237183
0.026423
-0.054638
0.0366977
0.0347944
0.00457032
0.0700822
0.0250084
0.00817141
0.069946
-0.0888064
0.0852871
0.0338625
0.0884339
0.050666
0.113676
-0.0001522
0.101443
0.0533669
-0.0358857
0.0497747
0.0329349
0.00681388
-0.00108457
0.0573488
0.00537442
0.0455351
0.507174
0.0558165
0.00421893
0.0914225
-0.000114917
0.00659645
0.0498228
0.0304694
0.0495237
0.463798
0.0499201
0.0496562
0.0492589
-0.0145086
0.0444303
0.0435824
-0.0120486
0.026591
0.0640863
0.0441676
0.0495713
0.107056
0.0481151
0.104179
0.00775864
0.0860599
0.0392658
0.0414112
0.0247352
-0.0130152
0.00866153
0.0428163
0.526726
0.0498977
0.0496329
0.0558761
-0.135658
0.0533891
0.0288944
0.0789561
0.0538466
0.0410059
0.00242061
-0.0229511
0.032581
-0.0462405
0.0547658
0.0449694
0.0127849
0.017711
-0.000729553
0.0520656
0.0230384
0.0720121
0.193929
0.0361278
0.0496796
0.0445832
0.177839
0.0502352
0.0502405
-0.0350409
0.0313783
-0.0397397
0.0409993
0.0494615
0.189239
-0.0144152
0.0455357
0.0550784
0.0479796
-0.109305
0.0502389
0.0330335
-0.0274138
0.0502388
0.04956
0.00864362
0.0491567
0.0502488
0.0118125
0.0508415
0.0495404
0.0211888
0.0492336
-0.0127967
0.0494508
0.0582804
0.119408
0.00754367
0.0502499
0.00461967
-0.169304
0.041193
0.0738676
0.0477167
0.0337953
0.0483077
-0.0177422
-0.00603208
0.0453743
0.0495526
0.132112
0.0293074
0.0139611
0.0098624
0.129533
0.0491741
0.005348
0.0495372
-0.0201396
-0.00557854
-0.00504048
0.00728681
0.15551
-0.0875806
0.00468948
0.00846747
0.0477624
0.052257
0.000320725
0.136037
0.0985757
0.0315881
-0.0723911
0.0490663
-0.0625818
0.200679
0.0490779
-0.00814958
-0.0230753
0.0802859
0.00673047
0.00633788
0.0726905
0.0496244
-0.0119566
-0.064109
0.261859
0.0548589
0.00213588
-0.0310683
0.142234
0.0515172
0.0495354
0.00524545
-0.0530057
0.0405449
0.0686266
0.0497876
0.049163
0.0565822
0.0546038
0.024169
0.0553933
0.0495048
-0.0155978
0.0339689
-0.0265457
0.0142223
0.0498038
0.0495711
0.143333
0.0544107
0.0797498
0.06078
-0.046999
0.0811478
0.0488913
-0.0222233
0.058862
0.0495465
0.0259796
0.0383064
0.0408085
0.0943207
0.0242323
-0.140429
0.0404471
0.0493551
-0.0273993
0.0492214
-0.00611452
0.030088
-0.0254705
-0.0475515
0.096161
-0.0313376
0.0498422
-0.00908378
0.0536174
0.071724
-0.0235858
0.0192306
-0.0233808
-0.0630125
0.172416
-0.0118409
0.0639364
0.0488655
0.049434
0.0492033
-0.0313325
0.140255
0.0488868
-0.0145627
-0.019791
0.0133893
0.00177019
0.0262186
0.109344
-0.0294449
0.054196
0.0109427
0.0243078
0.0501074
0.0501292
0.05148
0.0547313
0.00945897
0.0497237
0.0520457
0.0559873
0.0739743
0.000471686
0.0493152
-0.0190257
0.0494488
0.00368745
0.0143726
0.0518531
0.0415548
0.000919513
-0.0203992
0.035484
0.0773184
0.0544998
0.0256731
0.0311337
0.0495869
0.0536754
0.0539327
0.0519243
0.0496142
0.0693826
0.0495997
0.125806
0.0121757
-0.0902139
0.0496536
0.0592587
0.0497586
0.0496754
0.121878
0.0585507
0.0490426
0.315091
0.133772
0.036899
0.0646219
0.0383378
0.120222
0.0184506
0.00809672
0.0557477
0.0558792
0.0495482
0.0502562
-0.0120219
0.0491997
0.0515383
0.122904
0.0518915
0.0535963
0.0255401
0.0495936
-0.0356071
0.0496845
0.0514816
0.00720083
0.0086327
-0.0721637
0.109834
0.070518
0.0517062
0.0066018
0.0516467
0.0246851
0.0035749
0.0558144
-0.0272987
0.0503184
0.0255935
0.0698221
0.0520907
0.101581
0.0496364
0.0557577
0.0495288
0.0286387
0.0491202
0.0532645
0.0230207
0.0452888
0.0706576
0.0261656
0.0495816
0.026429
0.0114206
0.0556358
0.00761061
-0.0136416
0.049551
0.0299624
0.109582
0.00221696
0.0561935
0.0434827
0.0435161
0.0239125
0.0568865
0.151023
0.0542701
0.0497793
0.0498082
-0.0221035
-0.00805829
-0.0222617
0.282346
0.100778
0.0504249
0.0249042
0.0101894
0.0501229
-0.0597123
0.05397
0.104372
-0.00033988
0.0515282
0.143968
-0.00787491
-0.016871
0.0218502
0.0285767
0.0500393
0.0491068
0.0607634
0.0495718
0.0495391
0.136574
0.0519846
0.0637946
0.0489259
0.0373204
0.0448639
0.365351
0.0408461
0.0440189
-0.00942907
0.103905
0.0940659
0.0335991
0.109002
0.0496285
0.0458763
0.00403524
0.0727962
0.123933
0.0511734
-0.000663616
0.0394829
0.050321
0.0519731
0.049623
0.0642028
0.0407989
0.0500512
0.0296331
0.258832
0.0501551
0.0109684
0.0307963
0.0492469
0.0630226
0.0522269
0.0268372
0.0496694
0.0495656
0.0129832
0.0287456
0.0910589
0.141763
-0.226173
0.0556396
0.0642366
-0.0395768
0.0322793
0.0521627
0.0397475
-0.000856845
0.0496195
0.0532542
0.049543
0.0294601
0.0645571
0.016888
0.0496064
0.0611298
0.0330303
0.0541823
0.118443
0.0455046
0.0493497
0.0496059
0.0287105
0.0215614
0.30857
0.0604615
0.08256
0.00467825
0.00406406
0.0493971
0.0992912
0.0496123
0.0495784
0.0501201
-0.00267257
0.0548422
0.0343011
0.00598339
0.0190633
0.00542384
0.0294019
0.0641362
0.113575
0.0470148
0.0103178
0.0916438
0.032001
0.127806
0.0536042
-0.153354
0.142457
0.134452
0.0490647
-0.111718
0.0049862
0.00704866
0.137063
-0.000337135
0.0585485
0.0562124
0.0376056
0.0337026
0.0299882
0.212116
0.073818
0.0540028
0.0134325
0.0541071
0.0344584
0.0224053
0.0935664
0.0346875
0.0681563
0.0836096
0.00503744
0.0960735
0.0306502
0.0503964
0.0601546
0.0490905
0.044928
0.048294
0.0544023
0.0183076
-0.049346
0.0493208
0.166088
0.0487514
0.040631
0.00778121
0.0293972
0.0326442
0.0480747
0.00648156
0.0113142
0.251405
0.0496086
0.00797236
0.0355492
0.00920658
0.050128
0.0498021
0.150448
0.0225685
0.0313532
-0.120787
0.0260516
0.0385514
0.137351
0.0128317
0.12031
0.0555673
0.0166484
0.0362017
0.0453157
-0.0280372
0.00606033
0.0192216
0.0323229
0.0490496
0.00542243
0.00508937
-0.00105436
0.038875
0.036312
0.417202
-0.0381135
0.0487088
-0.0136959
0.0186988
-0.106964
0.0495213
0.031272
0.0317124
0.0495003
0.00312329
0.0262756
0.0530218
-4.03566e-05
-0.0231938
-0.0015933
0.0556002
0.0227962
0.0501613
0.0446782
-0.0249181
0.0819129
0.0255986
0.00615152
0.145923
0.023652
0.0187102
0.0202902
0.0063986
-0.0280885
0.0480924
0.0204927
0.0144752
0.0925004
0.27908
0.0124237
0.0342213
0.0178819
0.0495155
0.0926037
0.0305635
0.00817876
0.049336
0.034704
0.00538973
0.0130272
0.148571
0.00988506
0.027931
0.0288216
0.0546006
0.0026561
0.0252386
0.0737976
0.0592008
0.0556756
0.00939924
0.0352984
0.0413359
0.037649
0.0496732
0.00506182
0.0624805
0.0283502
-0.00422878
-0.0451197
0.0440968
0.0255501
0.0154826
0.0228642
0.0496299
0.0993988
0.0989847
0.0721773
0.0501058
0.228099
0.00609912
0.0526531
0.0894362
0.0491281
0.0577112
0.0315885
0.0257524
0.0538514
-0.102945
0.0508865
0.0593416
0.0423078
-0.012146
-0.0303091
-0.000469413
0.0625687
0.00847568
0.05014
0.028517
0.0749936
0.0509087
0.14939
0.0159996
0.0269527
0.00739822
0.0669224
0.02074
0.037241
0.0492972
0.0493994
0.0464208
0.0633927
0.122815
0.0143154
0.146799
0.083069
0.0899251
0.051533
0.0698139
0.00637906
0.0495703
-0.024999
-0.0196487
0.052614
0.0495812
0.0397825
0.0478448
0.0493923
0.064838
0.0332685
0.132181
0.0152009
0.0347277
0.0891189
-0.0112182
0.00485227
0.0863095
0.0115379
0.0226775
0.0703767
0.0491946
0.0628134
0.0262956
0.122324
0.130256
0.218645
0.0494324
0.127004
0.0321162
0.0309216
0.104069
0.107523
0.0995699
-0.0248937
0.0199798
0.0670105
0.0196826
0.0389925
0.0455839
0.0911662
0.0489678
0.015502
-0.0298056
0.0595657
-0.0259193
0.0486067
0.0836504
0.0549599
0.0290318
0.102272
0.163461
0.0209447
0.0427653
0.0155799
0.0327736
0.0714897
-3.34176e-05
0.0823997
-0.00267751
0.0494463
0.0202816
-0.142025
0.0986537
0.0349051
-0.0421822
0.00957396
0.0413217
0.0485751
0.103382
0.0931717
0.0330841
0.0567238
0.0512053
0.00517093
0.0435599
0.00371183
0.0809713
0.0350378
0.141598
0.0494378
0.0457461
0.00139128
0.0365988
0.0373558
0.0660574
0.0565802
0.028436
0.167537
0.107448
0.0492735
0.00500293
0.0443764
0.0492346
0.13347
0.0489823
0.0206866
0.023567
0.0489495
0.0490791
0.0524329
0.00668016
0.0612697
0.0975168
0.0275075
0.130046
0.0319471
0.0326563
0.0365803
0.0784071
0.0496587
0.0388331
0.036404
0.0255446
-0.0223092
0.00837361
0.0668036
0.0443863
0.0553294
0.0302582
0.0422682
0.0611183
0.0198228
0.106479
0.0314863
0.0492596
0.00743826
0.0872052
0.00665012
0.0494145
0.135241
-0.0233068
0.0459107
0.0982567
0.00524864
0.0536492
0.0963534
0.00292715
0.0893427
0.114255
0.00362619
0.0476064
0.0793618
0.0759778
0.0132055
0.0466634
0.0299098
0.0494082
0.048833
0.0491912
0.0120299
0.0163666
0.0198472
0.0824697
-0.0647361
0.169296
-0.0645184
0.0270265
0.0423923
-0.0428994
0.0495717
-0.0997951
0.0319594
0.0220105
0.017026
0.0275665
0.0646931
0.0412162
0.0318813
0.0543387
0.0493926
0.0779278
-0.0388644
0.0122842
0.00564718
0.015954
0.0524598
0.0270746
0.0154024
0.055047
0.0231544
0.037758
0.119055
0.0856885
0.0809503
0.0934776
-0.00180958
-0.000205411
0.00521441
0.021669
-0.00462726
0.0132189
0.0582136
0.0428374
0.131025
0.0742866
0.00636077
0.0496984
0.0955326
0.126886
0.0739197
0.079498
0.0570487
0.0158998
0.114415
0.0271462
0.0232763
0.0333037
0.0322193
0.048573
0.027272
0.028872
0.0539064
0.0189598
0.0288543
0.0444729
0.104495
0.0435403
0.0401388
0.0755869
0.0556631
0.0488809
0.0513161
0.00206459
0.0149577
0.0502715
0.0719874
-0.0530029
0.00581458
0.0560347
0.0180596
-0.0194946
-0.0406731
-0.0055516
0.0319629
0.0329599
0.0555672
0.0325867
0.0251182
-0.000298653
-0.00128439
0.00269268
0.000717861
0.0336825
0.0485131
0.0482355
0.129114
0.0625108
0.0342257
0.0375227
-0.000416259
0.0446326
0.0263651
0.149075
0.0872706
0.0107308
0.0546267
0.0153778
0.0490972
0.00802026
0.000688155
0.0261275
0.0491762
0.0591365
0.166596
0.0419129
0.0890641
-0.0171472
0.0495129
0.0338872
0.093936
0.101476
0.0700851
0.0501717
0.0457424
0.0467983
0.0500561
0.0492134
0.0407191
0.00626573
0.0491615
0.0566401
0.0541756
-0.335858
0.119348
0.0468122
0.0494257
0.010053
0.0154933
0.0232926
0.0768362
0.0163095
0.0486997
0.0423327
0.00439807
0.0499784
0.0126567
0.0926566
0.0712407
0.0479396
0.0110095
0.0497423
0.038852
0.0368412
0.0417722
-0.0034234
0.059521
0.0342662
0.032493
0.110872
0.0815514
0.0490893
0.0495561
0.0351267
0.0315659
0.0127184
0.0195139
0.0395509
0.0070725
0.0803871
0.0500832
0.036865
0.00528204
0.0390809
0.0850778
0.0637994
0.0520479
0.151068
0.021275
0.125325
0.140386
0.0265912
-0.00267046
8.92988e-05
0.125023
0.0394887
0.00610505
0.0743799
0.0355164
0.0192384
0.0893428
0.0722894
0.0511839
0.00244472
0.0310926
0.0264171
0.0401614
0.00521378
0.0511444
0.0803787
0.0509624
0.0572004
0.0859675
0.0553047
0.0432817
0.106241
0.00691343
0.0914708
0.0269422
0.0723636
0.00804958
0.0616254
0.0111815
0.0506815
0.0287976
0.0090431
0.0676016
0.0269995
0.05064
0.0418031
0.0135306
0.0454742
0.0341335
0.0564656
0.0358446
0.0213347
-0.00143165
0.0953836
0.104313
0.100508
0.0408615
0.0409553
0.0338343
0.0176694
0.0276943
0.0498264
0.0546957
0.0701965
0.0233063
0.0584427
0.00426664
0.0295944
0.0572464
0.0321922
0.031326
0.0434516
0.0281407
0.0369188
0.134015
0.259493
0.0217108
0.0236828
0.0251877
0.029231
0.0359562
0.033876
0.0327425
0.0228461
0.0118413
0.0482865
0.0494114
0.048495
0.00594883
0.0494111
0.0286841
0.0428175
0.0303727
0.059766
0.0328992
0.123073
-0.00746864
0.0490811
0.0345414
0.0910134
0.0413319
0.060794
0.0888976
0.0540207
0.049309
0.0296034
0.00277056
0.0865352
0.00335506
0.115313
0.0834734
0.00340575
0.0634977
0.0684078
0.00869373
0.0427253
0.0487001
0.0506794
0.0356781
0.048981
0.0312235
-0.0381663
0.0482241
0.0801876
0.0431785
0.0626839
0.0633607
0.159554
0.0552905
0.0418078
0.00449921
0.0120549
0.0870644
0.0306199
0.0833612
0.0505656
0.037219
0.0652366
0.045652
0.032082
0.0500925
0.0505954
0.03001
0.0489469
0.0338613
0.061509
0.0807106
0.0131062
0.0487454
0.00623761
0.00112833
0.0677685
0.0598343
0.0512961
0.0682598
0.131855
0.0493996
0.0401219
0.0468611
0.0606867
0.0382056
0.0345076
0.0387631
0.073957
0.0833134
0.0316496
0.0792611
0.0902396
0.0602387
0.108199
0.057864
0.078154
0.0261637
0.0423096
0.0194566
0.0501702
0.0646857
0.0509161
0.0834527
0.00185816
0.0550094
-0.012774
0.0447693
0.0260349
0.117692
0.00713036
0.0469799
0.0491219
0.00469759
0.107551
0.0268017
0.0289962
0.0138304
0.0443999
0.0807495
0.0371378
0.04794
0.035411
0.00787875
0.0429533
0.0399399
0.392633
0.0386967
0.0509502
0.0591083
0.06467
0.0427347
0.0306439
0.0494234
0.102363
0.0423131
0.0494063
0.0115162
0.0361049
0.0273892
0.040785
0.0634406
0.0424576
0.0445995
0.0438887
0.0328484
0.0801313
0.0494404
0.0385111
0.0576056
0.0451571
0.0393299
0.0553773
0.0552794
0.0596107
0.0601031
0.0495125
0.0431567
0.0510796
0.0283804
-0.00163363
-0.000717018
0.145697
0.0748255
-0.00996445
0.0293276
0.0489377
0.0520558
0.0584369
0.0741474
0.0498066
0.0266339
0.0758561
0.0567057
0.0252717
-0.0101809
0.0205155
0.048857
0.0367798
0.0492808
0.0940494
0.232717
0.0389604
0.0571911
0.0424996
0.00564971
0.0491167
0.072597
0.0273868
0.0455262
0.0499536
0.0322779
0.0969955
0.0382876
0.0565152
0.0249101
0.0418168
0.0435032
0.0876948
0.0605088
0.0400619
0.0514786
0.0383965
0.0549636
0.0375427
0.0497363
0.0389693
0.0491223
0.0548554
0.0102574
0.0685017
0.0153404
0.0738373
0.073882
0.0533172
0.038103
0.0344498
0.0773811
0.0919691
0.010069
0.0418577
0.0563494
0.0582785
0.039563
0.0480799
0.0439219
0.0366432
0.0275886
0.0275185
0.0448469
0.014333
0.0389477
0.0795826
0.0402545
0.0427261
0.038826
0.0233672
0.0838667
0.0538003
-0.000601754
0.038743
0.041418
0.00849023
0.0522247
0.000612116
0.0516478
0.0417931
0.0466092
0.0472508
0.050327
0.0424894
0.00358663
0.0494152
0.0195913
0.0717327
0.0517984
0.0578511
0.0317297
0.0961604
0.0606147
0.0498269
0.0339644
-0.0668942
0.0495606
0.0049002
-0.0804158
0.065685
0.0854158
0.0531168
0.0408675
0.0293437
0.0714431
0.0587673
0.0494882
0.0921955
0.0104948
0.0816644
0.0494557
0.0489111
0.0431706
0.0443203
0.0449821
0.0658679
0.0758531
0.045898
-0.00167538
0.0467449
0.053412
0.0413263
0.0319161
0.000209899
0.04895
0.0422935
0.0228813
0.0440495
0.0462698
0.0517729
0.127993
0.0729383
0.0498952
0.06261
0.0532528
0.0419935
0.0748364
0.0596621
0.0438825
0.0629184
0.0360073
0.0627021
0.0848321
0.0018617
0.0226855
0.04999
0.0698445
0.0475413
0.0518886
0.0508057
0.0418496
0.00135949
0.000379615
0.0588821
0.0309408
0.0333951
0.0275347
0.0486623
0.0482608
0.0499038
0.0708156
0.0335076
0.0494857
0.0419694
0.0542642
0.0213732
0.00964248
0.0495274
0.0490655
0.0354415
0.0482468
0.0480654
0.0423183
0.0451952
0.039394
0.0662054
0.0617874
0.0335722
0.0474898
0.0527713
0.05756
0.0424349
0.0494297
0.0427346
0.0296104
0.00100681
0.00501521
0.0340652
0.123233
0.0427896
-0.0594461
0.0881848
0.0422458
0.0406666
0.0535021
0.0486443
0.0495327
0.0532068
0.056557
0.0417502
0.0510683
0.0487269
0.0963692
0.00500971
0.0328464
0.0496584
0.0547458
0.0629468
0.0702107
0.031417
0.0517051
0.0493574
0.0480357
0.0432788
0.0288828
0.026063
0.00512666
0.061524
0.047894
0.038377
0.0559211
0.0535791
0.0531474
0.0470412
0.0579602
0.0495079
0.0147526
-0.00260275
0.0487512
0.0661328
0.0418082
0.044699
0.0466145
0.0507534
-0.0475869
0.0632773
-0.000453028
0.0431306
0.00675984
0.0521275
0.0690519
0.127527
0.0551655
0.0496972
0.0294165
0.0198183
0.1109
0.0430087
0.0666966
0.0449635
0.0490952
0.0646861
0.0472879
0.120849
0.000123755
0.0787488
0.0526618
0.0479966
0.0494794
0.047747
-0.0266148
0.0380019
0.0490004
0.0562266
0.047887
0.0490678
0.0489043
0.0102507
0.00319246
0.0543915
0.0484292
0.0820061
0.0553009