/*--------------------------------*- C++ -*----------------------------------*\
  =========                 |
  \\      /  F ield         | OpenFOAM: The Open Source CFD Toolbox
   \\    /   O peration     | Website:  https://openfoam.org
    \\  /    A nd           | Version:  7
     \\/     M anipulation  |
\*---------------------------------------------------------------------------*/
FoamFile
{
    version     2.0;
    format      ascii;
    class       volScalarField;
    location    "19";
    object      T;
}
// * * * * * * * * * * * * * * * * * * * * * * * * * * * * * * * * * * * * * //

dimensions      [0 0 0 1 0 0 0];

internalField   nonuniform List<scalar> 
2413
(
1.311
1.30249
1.29916
1.29901
1.29949
1.30166
1.30605
1.31191
1.31684
1.31852
1.31844
1.31729
1.314
1.30839
1.30142
1.29426
1.28751
1.28113
1.27471
1.26788
1.2604
1.25227
1.2436
1.23463
1.22569
1.21724
1.20975
1.20349
1.19839
1.19406
1.18997
1.18545
1.17991
1.17298
1.16497
1.15699
1.15026
1.14498
1.14037
1.13554
1.13022
1.12561
1.12343
1.1228
1.12241
1.12275
1.12412
1.12659
1.12992
1.13381
1.13799
1.14241
1.1471
1.15202
1.15708
1.16229
1.16764
1.17314
1.17879
1.18454
1.19024
1.19553
1.20043
1.20492
1.20904
1.21287
1.21626
1.21907
1.22153
1.22379
1.22569
1.22714
1.22822
1.22901
1.22951
1.22975
1.22976
1.22968
1.22954
1.22935
1.22911
1.22892
1.22873
1.22835
1.22787
1.22743
1.22701
1.22655
1.22604
1.22552
1.22517
1.22506
1.22503
1.22505
1.22519
1.22546
1.22589
1.22658
1.22763
1.22892
1.23026
1.23184
1.23372
1.23593
1.23845
1.24123
1.24421
1.24734
1.25056
1.25382
1.25705
1.2602
1.26325
1.26619
1.26893
1.27146
1.27371
1.27576
1.27773
1.27966
1.28166
1.28378
1.28606
1.28844
1.29073
1.29277
1.29444
1.29573
1.29672
1.29755
1.29831
1.29909
1.31319
1.30486
1.30083
1.30039
1.30084
1.30295
1.30736
1.31343
1.31871
1.32043
1.32025
1.31884
1.31531
1.30963
1.3027
1.2955
1.2886
1.28202
1.27546
1.26857
1.26115
1.25318
1.24474
1.23599
1.2272
1.21875
1.21104
1.20435
1.19871
1.19387
1.18934
1.18452
1.17886
1.17206
1.16432
1.15656
1.14999
1.14501
1.14092
1.1368
1.13228
1.1284
1.12679
1.12592
1.12549
1.12571
1.12676
1.12868
1.13127
1.13442
1.13801
1.14193
1.14613
1.15067
1.15557
1.16075
1.16611
1.1715
1.17683
1.18201
1.18709
1.1919
1.19632
1.20046
1.20428
1.20772
1.21076
1.2133
1.21535
1.2171
1.2186
1.21988
1.22083
1.22152
1.2219
1.22199
1.22205
1.22203
1.22188
1.22169
1.22149
1.22123
1.22108
1.2211
1.22085
1.2204
1.22003
1.21961
1.2191
1.21856
1.21809
1.21771
1.21738
1.21718
1.2172
1.21742
1.21792
1.21866
1.21984
1.22142
1.22309
1.22505
1.2273
1.22981
1.23253
1.23538
1.23831
1.24128
1.24425
1.24722
1.25016
1.25305
1.25587
1.25859
1.26126
1.2639
1.26656
1.26928
1.27204
1.27482
1.27762
1.28047
1.28335
1.2862
1.28887
1.29119
1.29313
1.29468
1.29591
1.29692
1.29778
1.29861
1.31543
1.30784
1.30291
1.30131
1.30138
1.30272
1.30617
1.31147
1.31666
1.31885
1.31882
1.31769
1.31461
1.30974
1.30384
1.29741
1.29093
1.28457
1.27812
1.27132
1.26404
1.25629
1.24817
1.23981
1.23143
1.22328
1.21568
1.20885
1.20289
1.19769
1.19289
1.18799
1.18258
1.1764
1.16947
1.16221
1.1554
1.14973
1.14516
1.14103
1.1372
1.1348
1.13395
1.13345
1.1335
1.13411
1.13548
1.13744
1.13984
1.14266
1.14592
1.14954
1.15332
1.15725
1.1614
1.16576
1.17018
1.17453
1.17868
1.18238
1.1858
1.18924
1.19233
1.19507
1.1976
1.19963
1.20118
1.20238
1.20317
1.20337
1.20336
1.20337
1.20329
1.20319
1.20312
1.20291
1.20268
1.2026
1.20242
1.20211
1.20213
1.20211
1.20181
1.20194
1.20217
1.2018
1.20172
1.20173
1.20149
1.20106
1.20052
1.19986
1.19919
1.19859
1.19808
1.19801
1.19824
1.19868
1.19948
1.20065
1.20207
1.20379
1.20575
1.2079
1.21022
1.2127
1.21539
1.21826
1.22132
1.22455
1.22793
1.23146
1.2351
1.23887
1.24277
1.24677
1.25086
1.25502
1.25919
1.26331
1.26729
1.27105
1.27455
1.27771
1.28047
1.28272
1.28448
1.2858
1.28681
1.28764
1.28838
1.28913
1.30767
1.30411
1.3006
1.29943
1.29953
1.30062
1.30327
1.30754
1.31245
1.31556
1.3159
1.31528
1.3134
1.31007
1.30534
1.29972
1.29384
1.2879
1.28173
1.27508
1.26798
1.26057
1.25295
1.24522
1.2375
1.22994
1.22268
1.21586
1.20959
1.20381
1.19839
1.19314
1.18786
1.1824
1.17676
1.171
1.16538
1.16036
1.15606
1.15211
1.14895
1.14718
1.14606
1.14522
1.1449
1.14503
1.14577
1.14728
1.14937
1.15185
1.15462
1.15767
1.16098
1.16445
1.16802
1.17165
1.17507
1.17806
1.18069
1.183
1.18458
1.18585
1.187
1.1872
1.18686
1.186
1.18485
1.18346
1.18151
1.17932
1.17736
1.17583
1.17437
1.17279
1.17148
1.17033
1.16914
1.16856
1.16845
1.16809
1.16805
1.16883
1.16867
1.16863
1.16925
1.16908
1.16894
1.16932
1.16935
1.16909
1.16872
1.16812
1.16729
1.16633
1.16536
1.16458
1.16443
1.16445
1.16461
1.16505
1.16585
1.16704
1.16859
1.17045
1.17262
1.17513
1.17801
1.18126
1.18488
1.18882
1.19302
1.19745
1.20203
1.20668
1.21137
1.21602
1.22057
1.225
1.22931
1.23352
1.23766
1.24171
1.24558
1.24922
1.25255
1.25551
1.2581
1.26035
1.26233
1.26412
1.26581
1.26746
1.28266
1.28489
1.28581
1.28671
1.28796
1.28977
1.29243
1.29626
1.30101
1.30564
1.30863
1.3091
1.30865
1.30701
1.30404
1.30038
1.29613
1.29119
1.28559
1.27945
1.27299
1.26631
1.25931
1.25202
1.24465
1.23741
1.23038
1.22358
1.21712
1.21102
1.20506
1.19911
1.19339
1.1879
1.18256
1.17747
1.17283
1.16876
1.16524
1.16214
1.1599
1.15885
1.15817
1.15765
1.15754
1.1577
1.1583
1.15939
1.1608
1.16241
1.16427
1.16635
1.16872
1.17133
1.17374
1.17591
1.17806
1.18004
1.18168
1.18273
1.18274
1.18219
1.18093
1.17886
1.17538
1.17089
1.16643
1.16249
1.15819
1.15329
1.149
1.14581
1.14304
1.14018
1.13776
1.13584
1.13385
1.13205
1.13182
1.13187
1.13116
1.13158
1.1325
1.13224
1.13259
1.13335
1.13306
1.13334
1.13398
1.13382
1.13355
1.13324
1.13265
1.1318
1.13078
1.12971
1.12888
1.12818
1.12759
1.12754
1.12769
1.12811
1.1289
1.13016
1.13182
1.13378
1.13609
1.13875
1.14172
1.14501
1.14858
1.15239
1.1564
1.16058
1.16489
1.16929
1.17373
1.17822
1.18277
1.18738
1.19205
1.19672
1.20135
1.20591
1.21031
1.21454
1.21855
1.22233
1.22588
1.22921
1.23232
1.23527
1.23713
1.24719
1.25499
1.26071
1.26521
1.26928
1.27337
1.27782
1.28296
1.28874
1.29391
1.29729
1.29922
1.2995
1.29904
1.2975
1.29455
1.29035
1.28539
1.28012
1.27454
1.26848
1.26192
1.25506
1.24812
1.24127
1.23462
1.228
1.22141
1.2152
1.20916
1.20277
1.19643
1.19098
1.18596
1.18099
1.17654
1.17272
1.16916
1.16591
1.16382
1.16283
1.16206
1.16186
1.16199
1.16237
1.16299
1.16392
1.16525
1.16696
1.16884
1.17064
1.17227
1.17394
1.17613
1.17859
1.18026
1.18056
1.18054
1.18011
1.17845
1.17502
1.1702
1.16486
1.15888
1.15165
1.14417
1.13774
1.13231
1.12613
1.12006
1.11566
1.11255
1.10902
1.10595
1.10396
1.10194
1.09976
1.09886
1.09882
1.09798
1.09782
1.09874
1.09865
1.09864
1.09935
1.09925
1.09928
1.09993
1.09996
1.09976
1.09982
1.0997
1.09922
1.09864
1.09788
1.09703
1.09614
1.0952
1.09466
1.09416
1.09374
1.09387
1.09438
1.09502
1.09604
1.09745
1.09911
1.10111
1.10338
1.10586
1.10862
1.11163
1.11484
1.11827
1.12189
1.12571
1.12974
1.13396
1.13835
1.14284
1.14744
1.15211
1.15673
1.16126
1.16566
1.16988
1.1739
1.17775
1.18144
1.18496
1.18834
1.16786
1.1829
1.19714
1.21001
1.22139
1.23156
1.24065
1.24879
1.25628
1.26351
1.27047
1.27689
1.28222
1.2862
1.28815
1.2881
1.2873
1.28527
1.28194
1.2778
1.27309
1.26783
1.26217
1.2559
1.24902
1.24191
1.23507
1.22859
1.2218
1.21502
1.20903
1.20319
1.1966
1.19072
1.18618
1.18171
1.17737
1.17383
1.17091
1.16806
1.16586
1.16463
1.16409
1.16409
1.16427
1.16465
1.16537
1.16652
1.16797
1.1694
1.17082
1.17233
1.17361
1.17445
1.17501
1.17536
1.17513
1.17382
1.17125
1.16766
1.16328
1.15719
1.14941
1.14112
1.13354
1.12554
1.11687
1.10911
1.10348
1.09801
1.0916
1.08651
1.08398
1.0812
1.07787
1.07641
1.07515
1.07349
1.0726
1.07216
1.07114
1.07085
1.07161
1.07183
1.07149
1.07207
1.0726
1.07257
1.07323
1.07352
1.07345
1.07382
1.07388
1.07363
1.07345
1.07305
1.07237
1.07171
1.07079
1.06973
1.06871
1.06788
1.06729
1.06662
1.06661
1.06708
1.06771
1.06867
1.07005
1.07154
1.07339
1.07532
1.07724
1.07928
1.08134
1.08349
1.08585
1.08838
1.09107
1.09397
1.09707
1.10034
1.10377
1.10731
1.11091
1.11454
1.11814
1.12172
1.12528
1.12881
1.13227
1.13565
1.09874
1.11129
1.12474
1.13876
1.15296
1.16698
1.18061
1.1936
1.20572
1.21659
1.22674
1.23667
1.24557
1.25316
1.25877
1.26279
1.26666
1.26872
1.26856
1.26734
1.26439
1.26032
1.256
1.25094
1.24522
1.23864
1.23156
1.22583
1.22043
1.21336
1.20694
1.20259
1.19694
1.19003
1.18605
1.1825
1.17788
1.17418
1.17154
1.16877
1.1658
1.16397
1.16316
1.16287
1.16284
1.16288
1.16311
1.1636
1.16416
1.16455
1.16499
1.16512
1.16489
1.16396
1.16218
1.15959
1.15595
1.15169
1.14641
1.14028
1.13349
1.12633
1.11801
1.10898
1.10071
1.09364
1.08614
1.07871
1.07337
1.06969
1.06483
1.06015
1.05851
1.05724
1.05446
1.05347
1.05334
1.05249
1.05197
1.05162
1.05074
1.05046
1.05098
1.05122
1.05078
1.05104
1.05171
1.05158
1.05194
1.05242
1.05235
1.05277
1.05311
1.053
1.05326
1.05323
1.05295
1.05282
1.05236
1.05148
1.05068
1.04985
1.04863
1.04762
1.04714
1.04672
1.04668
1.047
1.04746
1.0482
1.04941
1.05055
1.052
1.05342
1.05485
1.05647
1.05797
1.05944
1.06106
1.06269
1.06434
1.06613
1.06807
1.07014
1.07232
1.07461
1.07699
1.07947
1.08204
1.08466
1.08729
1.08992
1.0539
1.06039
1.06814
1.07721
1.08761
1.09906
1.11132
1.1242
1.13733
1.15013
1.16236
1.17399
1.18521
1.19593
1.2055
1.21366
1.22054
1.22646
1.23122
1.23411
1.23475
1.23428
1.23246
1.23097
1.22877
1.22501
1.21977
1.21427
1.21061
1.20576
1.19866
1.1934
1.18978
1.18378
1.17903
1.17595
1.17162
1.16783
1.16502
1.16214
1.15837
1.15521
1.15377
1.15289
1.15172
1.15042
1.14933
1.14854
1.14778
1.14686
1.14568
1.14401
1.14139
1.13787
1.13368
1.12851
1.12198
1.11521
1.10874
1.10209
1.0951
1.08834
1.08156
1.07422
1.0671
1.06165
1.05672
1.05108
1.04672
1.04488
1.0424
1.03896
1.03828
1.03814
1.03682
1.0359
1.03644
1.03634
1.03617
1.03637
1.03625
1.03624
1.03678
1.03707
1.03668
1.03689
1.03764
1.03744
1.03762
1.03803
1.03782
1.03803
1.03839
1.03826
1.03851
1.03875
1.03868
1.03891
1.03885
1.0385
1.03834
1.03787
1.03705
1.03664
1.03603
1.03516
1.03477
1.03442
1.03394
1.03399
1.03425
1.03453
1.03495
1.03554
1.03651
1.0374
1.03818
1.0394
1.04067
1.04159
1.04263
1.04382
1.04498
1.04607
1.0472
1.04843
1.04976
1.05108
1.05247
1.05398
1.05557
1.05716
1.03082
1.03274
1.03554
1.03952
1.04463
1.05099
1.05858
1.06725
1.07681
1.08705
1.09778
1.10847
1.11899
1.1292
1.13884
1.14805
1.15628
1.16386
1.17085
1.17634
1.181
1.18428
1.1861
1.18793
1.1878
1.18652
1.18446
1.18146
1.179
1.17676
1.17289
1.16747
1.16519
1.1624
1.15721
1.15362
1.15048
1.14654
1.14267
1.13963
1.13558
1.13053
1.12736
1.12521
1.12296
1.1204
1.11769
1.11539
1.11352
1.11147
1.10907
1.10657
1.10319
1.09848
1.0931
1.08746
1.08077
1.0738
1.06781
1.06253
1.05733
1.05234
1.0479
1.04336
1.03863
1.0349
1.03255
1.02935
1.02645
1.02617
1.02569
1.024
1.02388
1.0243
1.02396
1.02345
1.02413
1.02504
1.02509
1.02529
1.0258
1.02636
1.02735
1.02773
1.02744
1.02767
1.02832
1.02808
1.02809
1.02849
1.02822
1.0282
1.02845
1.02817
1.02816
1.02829
1.02822
1.02833
1.02835
1.02836
1.02849
1.02826
1.0281
1.02816
1.0278
1.02749
1.02758
1.02721
1.02676
1.02663
1.02628
1.02579
1.02563
1.02558
1.02563
1.02571
1.02596
1.0265
1.02699
1.02747
1.02809
1.02892
1.02951
1.03002
1.03074
1.03158
1.03229
1.03292
1.03374
1.03465
1.03547
1.03623
1.01893
1.01899
1.01988
1.0204
1.02142
1.02382
1.02706
1.03087
1.03534
1.0408
1.04719
1.05377
1.06037
1.06718
1.07415
1.08125
1.08785
1.09382
1.09961
1.10468
1.10967
1.11415
1.11677
1.11973
1.122
1.12287
1.12257
1.12252
1.12272
1.12216
1.12073
1.11776
1.11582
1.11482
1.11196
1.10833
1.10598
1.10272
1.09829
1.09495
1.09191
1.0865
1.08153
1.07869
1.07673
1.07417
1.07117
1.06871
1.06707
1.06547
1.06365
1.06198
1.05968
1.05614
1.05206
1.04784
1.04232
1.03641
1.03194
1.02898
1.02643
1.02408
1.02217
1.02033
1.01812
1.01624
1.01574
1.01465
1.01356
1.01399
1.01448
1.01405
1.01423
1.01536
1.01571
1.01561
1.01633
1.01769
1.01845
1.01857
1.01904
1.01998
1.02136
1.02185
1.0216
1.02194
1.0226
1.02234
1.02227
1.02276
1.02262
1.02246
1.02276
1.02268
1.02239
1.0225
1.02244
1.0221
1.02205
1.02218
1.02201
1.02174
1.02181
1.02186
1.02165
1.02176
1.02193
1.0217
1.02178
1.02183
1.0214
1.02134
1.02137
1.02101
1.02066
1.02068
1.02062
1.02037
1.02031
1.02037
1.02042
1.02056
1.02085
1.02108
1.02121
1.02151
1.02197
1.02225
1.02261
1.0232
1.02364
1.02396
1.01301
1.01285
1.01231
1.0118
1.0118
1.01205
1.01311
1.01445
1.01536
1.017
1.0192
1.02149
1.02368
1.02613
1.02892
1.03205
1.03483
1.03726
1.03977
1.04195
1.04479
1.04767
1.04938
1.05133
1.0533
1.05513
1.05493
1.05505
1.05624
1.05633
1.05516
1.05511
1.05478
1.05342
1.05177
1.05006
1.04826
1.04575
1.04209
1.03968
1.03763
1.03298
1.02727
1.02528
1.02443
1.02309
1.02134
1.01987
1.01982
1.01996
1.01993
1.02024
1.02031
1.01946
1.01791
1.01632
1.01306
1.00865
1.00584
1.00551
1.00555
1.00577
1.00593
1.00587
1.00556
1.00533
1.00567
1.00573
1.0057
1.00639
1.0077
1.00794
1.00844
1.00985
1.01073
1.01083
1.01158
1.01305
1.01423
1.01456
1.01485
1.01596
1.0176
1.01811
1.01792
1.01835
1.01899
1.01877
1.01874
1.0192
1.0191
1.01884
1.0191
1.01915
1.01881
1.01887
1.01908
1.01877
1.01863
1.01883
1.01858
1.01837
1.0185
1.01829
1.0181
1.01826
1.01815
1.01799
1.01817
1.01811
1.01791
1.01804
1.01802
1.01775
1.01776
1.01786
1.01752
1.0174
1.01747
1.01736
1.01708
1.01713
1.01733
1.01733
1.01713
1.0172
1.01749
1.01746
1.01742
1.01753
1.01775
1.01779
1.00996
1.00976
1.00887
1.00797
1.0077
1.00784
1.00828
1.00842
1.0086
1.00875
1.00906
1.00937
1.00897
1.00838
1.00785
1.00727
1.00624
1.00501
1.00373
1.00259
1.00249
1.00191
1.00111
1.0005
1.00013
1.00034
0.999601
0.99842
0.998847
0.998784
0.997
0.996908
0.997191
0.996219
0.994712
0.99476
0.994017
0.99172
0.989266
0.988351
0.987087
0.983662
0.979469
0.979399
0.979444
0.979928
0.98057
0.981378
0.983352
0.985771
0.987842
0.990788
0.99358
0.995732
0.996485
0.996191
0.995074
0.992407
0.99167
0.992312
0.993893
0.99584
0.997519
0.998732
0.999238
0.999597
1.00031
1.00101
1.00141
1.0024
1.00396
1.00463
1.00539
1.00689
1.0079
1.00814
1.00885
1.01046
1.01187
1.01244
1.01261
1.01375
1.01553
1.01613
1.01601
1.01653
1.01717
1.01698
1.01701
1.01741
1.01727
1.01694
1.01716
1.01722
1.01688
1.01693
1.01717
1.01689
1.01674
1.01696
1.01675
1.01662
1.01675
1.0165
1.01636
1.01649
1.01622
1.01608
1.01624
1.01603
1.01589
1.01604
1.01592
1.0157
1.01574
1.01582
1.01546
1.01541
1.01551
1.01535
1.01501
1.01503
1.01515
1.01508
1.01473
1.01472
1.01478
1.01477
1.01459
1.01459
1.01467
1.01465
1.00834
1.0079
1.00687
1.006
1.00599
1.00636
1.00718
1.00724
1.00715
1.00712
1.00701
1.00661
1.00578
1.00424
1.00215
0.99955
0.99639
0.993158
0.989815
0.986965
0.984309
0.981266
0.978839
0.976447
0.973985
0.972043
0.97032
0.967824
0.966393
0.965474
0.962827
0.961556
0.961501
0.960245
0.958849
0.959075
0.958879
0.956628
0.954942
0.955173
0.954637
0.952606
0.95239
0.95215
0.952463
0.954561
0.95712
0.959666
0.96328
0.967056
0.970951
0.975137
0.979293
0.985164
0.987171
0.986608
0.986214
0.985749
0.985477
0.986424
0.988696
0.991676
0.994388
0.995774
0.996586
0.997211
0.998066
0.998929
0.999499
1.00052
1.00206
1.00291
1.00383
1.00539
1.00648
1.00696
1.00771
1.00939
1.01091
1.01166
1.01182
1.01282
1.01456
1.01527
1.01524
1.01588
1.01651
1.01631
1.01642
1.01679
1.01659
1.01639
1.01661
1.01658
1.01622
1.01626
1.01645
1.01622
1.0161
1.01632
1.01614
1.01606
1.01619
1.0159
1.01586
1.01585
1.01548
1.01543
1.01544
1.01508
1.01496
1.01505
1.01479
1.01454
1.01463
1.01463
1.01441
1.01435
1.01455
1.01444
1.01415
1.01406
1.01413
1.01399
1.01364
1.01346
1.01334
1.01326
1.01305
1.0129
1.01291
1.01291
1.00701
1.00652
1.00565
1.00545
1.00571
1.00651
1.00767
1.00772
1.00759
1.0074
1.00725
1.00661
1.00564
1.00408
1.00172
0.998569
0.994877
0.990992
0.986985
0.983297
0.979228
0.975512
0.972281
0.969058
0.965423
0.962211
0.96011
0.95737
0.953967
0.952241
0.950138
0.947716
0.946606
0.944878
0.943563
0.943635
0.944016
0.942598
0.94152
0.941796
0.940932
0.939894
0.94039
0.940034
0.940681
0.943499
0.946821
0.950589
0.954916
0.959516
0.964095
0.968716
0.974432
0.982001
0.98396
0.983737
0.983388
0.984118
0.984573
0.985324
0.987356
0.990655
0.993594
0.995053
0.995918
0.996675
0.997561
0.998443
0.998991
0.999825
1.00122
1.00215
1.00317
1.00481
1.00602
1.00668
1.00727
1.00891
1.01055
1.01149
1.01162
1.01253
1.0143
1.01495
1.01499
1.01575
1.01622
1.01603
1.01627
1.01658
1.01638
1.01635
1.01658
1.01645
1.01615
1.01629
1.01635
1.01605
1.01603
1.01626
1.01606
1.01597
1.01615
1.01597
1.01586
1.01597
1.01572
1.01559
1.01567
1.0154
1.01524
1.01533
1.01511
1.01485
1.01488
1.01471
1.01444
1.01445
1.01441
1.01409
1.0139
1.01382
1.01361
1.01339
1.01319
1.01297
1.01292
1.01288
1.01249
1.01203
1.01183
1.01187
1.00573
1.00551
1.00527
1.00537
1.00598
1.00724
1.0086
1.00863
1.00848
1.00819
1.00781
1.00705
1.00606
1.00449
1.00209
0.998859
0.995129
0.991121
0.987159
0.983173
0.978745
0.975154
0.971787
0.968346
0.964241
0.960807
0.958213
0.955241
0.951107
0.94854
0.946699
0.94384
0.941723
0.940154
0.938389
0.937886
0.938093
0.937676
0.936612
0.936437
0.935674
0.935646
0.936298
0.936147
0.937133
0.939948
0.943702
0.948139
0.952728
0.957568
0.962245
0.967417
0.974065
0.981388
0.983986
0.984263
0.983988
0.984167
0.985248
0.986215
0.988044
0.991172
0.99413
0.995606
0.996436
0.997147
0.997947
0.998764
0.999233
0.999861
1.00119
1.00223
1.00294
1.00422
1.00544
1.00617
1.00692
1.00861
1.01021
1.01127
1.01144
1.01214
1.01367
1.01439
1.01462
1.01559
1.01613
1.01602
1.01637
1.01664
1.01645
1.01651
1.01673
1.01653
1.01626
1.01642
1.01639
1.01605
1.0161
1.01628
1.01604
1.01596
1.01618
1.01605
1.01587
1.016
1.01589
1.01568
1.01577
1.01563
1.01543
1.01551
1.01534
1.01505
1.01507
1.01486
1.01449
1.01446
1.0144
1.01409
1.01383
1.01373
1.01351
1.01326
1.01311
1.01287
1.01262
1.01252
1.0124
1.01217
1.01201
1.01198
1.00455
1.00469
1.00497
1.00547
1.00659
1.00823
1.00952
1.0095
1.00935
1.00898
1.00849
1.0077
1.00677
1.0052
1.00275
0.99949
0.99578
0.991816
0.988001
0.983874
0.979667
0.976213
0.972763
0.969135
0.964951
0.961754
0.958857
0.955556
0.951191
0.948386
0.946439
0.943605
0.940824
0.939397
0.938035
0.936882
0.936515
0.936885
0.936798
0.935898
0.93548
0.93624
0.936519
0.936371
0.937673
0.940151
0.94385
0.948396
0.952973
0.957881
0.962776
0.968399
0.975615
0.982676
0.985383
0.98641
0.986423
0.986231
0.987268
0.98833
0.989872
0.992597
0.995665
0.997312
0.998172
0.998836
0.999535
1.00022
1.00059
1.00121
1.00255
1.00352
1.00387
1.00495
1.00614
1.00684
1.00718
1.00844
1.00994
1.01096
1.01125
1.01213
1.01364
1.0144
1.01474
1.0158
1.01632
1.01626
1.01666
1.01685
1.01668
1.01678
1.01694
1.01669
1.01646
1.0166
1.01646
1.01611
1.01618
1.01627
1.016
1.01592
1.01614
1.01604
1.01581
1.01594
1.01595
1.01572
1.0158
1.01577
1.01557
1.01563
1.01552
1.01524
1.01524
1.01507
1.01467
1.01455
1.01452
1.01421
1.01391
1.01381
1.01354
1.01325
1.0131
1.01295
1.01263
1.01249
1.01246
1.01229
1.01207
1.01203
1.00372
1.00409
1.00473
1.00572
1.00726
1.00904
1.01005
1.01005
1.00993
1.00963
1.00919
1.00845
1.00745
1.00581
1.00336
1.00023
0.996713
0.99304
0.989446
0.985332
0.981576
0.978274
0.974886
0.971041
0.96704
0.964082
0.961013
0.957398
0.952992
0.950297
0.948074
0.94497
0.942024
0.940669
0.939291
0.93805
0.937674
0.93804
0.938146
0.937541
0.937707
0.938376
0.938145
0.938618
0.940316
0.942408
0.945785
0.950054
0.954533
0.959484
0.964814
0.971011
0.979019
0.986394
0.988706
0.989721
0.990151
0.989822
0.990356
0.991454
0.992554
0.994712
0.997532
0.999235
1.00002
1.00053
1.00106
1.00166
1.00209
1.00229
1.00326
1.00416
1.00456
1.00533
1.00646
1.00718
1.00763
1.00892
1.01036
1.01142
1.01177
1.01239
1.01359
1.01424
1.01461
1.01563
1.01605
1.01613
1.01663
1.01677
1.0167
1.01691
1.01699
1.01673
1.01662
1.01672
1.01649
1.01616
1.01625
1.01623
1.01594
1.01588
1.01606
1.01593
1.01567
1.01575
1.01588
1.01569
1.01569
1.01575
1.01558
1.01559
1.01556
1.01532
1.01526
1.01512
1.01475
1.01455
1.01454
1.01428
1.01395
1.01384
1.01359
1.01329
1.01314
1.01301
1.01268
1.01243
1.01244
1.01236
1.01214
1.01208
1.00312
1.00365
1.00457
1.00603
1.00794
1.00968
1.01035
1.01038
1.01021
1.00995
1.00946
1.00874
1.00772
1.00603
1.00363
1.00068
0.997426
0.994151
0.990763
0.986918
0.98365
0.980534
0.977271
0.973296
0.969852
0.967005
0.963882
0.959974
0.955832
0.953359
0.950933
0.947521
0.944688
0.943417
0.941907
0.940462
0.940049
)
;

boundaryField
{
    inlet
    {
        type            fixedValue;
        value           nonuniform 0();
    }
    outlet
    {
        type            inletOutlet;
        inletValue      nonuniform 0();
        value           nonuniform 0();
    }
    bottom
    {
        type            symmetryPlane;
    }
    top
    {
        type            symmetryPlane;
    }
    obstacle
    {
        type            zeroGradient;
    }
    front
    {
        type            empty;
    }
    back
    {
        type            empty;
    }
    procBoundary6to5
    {
        type            processor;
        value           nonuniform List<scalar> 
14
(
1.31981
1.32127
1.32175
1.30932
1.27794
1.2249
1.15247
1.08735
1.04873
1.02946
1.01917
1.01298
1.00992
1.00822
)
;
    }
    procBoundary6to7
    {
        type            processor;
        value           nonuniform List<scalar> 
18
(
1.29999
1.29953
1.28996
1.26912
1.23808
1.19156
1.13889
1.09249
1.05872
1.03702
1.02445
1.01789
1.01445
1.01261
1.01174
1.01179
1.01188
1.01205
)
;
    }
    procBoundary6to13
    {
        type            processor;
        value           nonuniform List<scalar> 5(1.0071 1.00594 1.00467 1.00369 1.00297);
    }
    procBoundary6to14
    {
        type            processor;
        value           nonuniform List<scalar> 
133
(
0.940362
0.940339
0.939838
0.940259
0.940632
0.940625
0.941761
0.943625
0.945686
0.948974
0.953101
0.957556
0.962495
0.968075
0.97467
0.983407
0.991039
0.992776
0.993129
0.993605
0.993586
0.993234
0.993792
0.994846
0.996738
0.999447
1.00128
1.00211
1.00254
1.00288
1.00337
1.00378
1.00369
1.00423
1.00516
1.00567
1.00634
1.00731
1.008
1.00833
1.00925
1.01068
1.01176
1.0122
1.01281
1.0138
1.01432
1.0147
1.01568
1.01602
1.01615
1.01669
1.01679
1.01673
1.01693
1.01692
1.01662
1.01664
1.01665
1.01628
1.01609
1.01615
1.01589
1.01572
1.01578
1.01576
1.01563
1.01544
1.01543
1.01562
1.0155
1.01533
1.01538
1.0153
1.01522
1.01524
1.01517
1.01507
1.01488
1.0145
1.01423
1.01422
1.01408
1.01375
1.01361
1.01341
1.01313
1.01296
1.01285
1.01254
1.01226
1.01227
1.01224
1.01208
1.01205
1.00251
1.00327
1.00454
1.00649
1.00857
1.00997
1.0104
1.0104
1.01031
1.01015
1.00961
1.00881
1.00758
1.00575
1.00338
1.00065
0.997714
0.994864
0.991764
0.988432
0.985569
0.982681
0.979503
0.975695
0.972663
0.969847
0.966753
0.962769
0.959195
0.956848
0.954249
0.950559
0.94738
0.94603
0.944393
0.942896
0.940362
0.942554
)
;
    }
}


// ************************************************************************* //
