/*--------------------------------*- C++ -*----------------------------------*\
  =========                 |
  \\      /  F ield         | OpenFOAM: The Open Source CFD Toolbox
   \\    /   O peration     | Website:  https://openfoam.org
    \\  /    A nd           | Version:  7
     \\/     M anipulation  |
\*---------------------------------------------------------------------------*/
FoamFile
{
    version     2.0;
    format      ascii;
    class       surfaceScalarField;
    location    "0.948";
    object      phi;
}
// * * * * * * * * * * * * * * * * * * * * * * * * * * * * * * * * * * * * * //

dimensions      [0 3 -1 0 0 0 0];

internalField   nonuniform List<scalar> 
18389
(
-7.97444e-05
7.97444e-05
4.34331e-05
-4.34331e-05
-5.2044e-05
5.2044e-05
4.00887e-05
-4.00886e-05
-5.17867e-05
5.17867e-05
-3.9916e-05
3.9916e-05
-3.47833e-05
3.47833e-05
3.90637e-05
-3.90637e-05
-3.55874e-05
3.55874e-05
4.14005e-05
-4.14005e-05
4.47828e-05
-4.47828e-05
-3.46032e-05
3.46032e-05
-1.3958e-05
1.3958e-05
-4.27733e-05
4.27733e-05
4.34481e-05
-4.34481e-05
2.43446e-05
-2.43446e-05
1.86926e-05
-1.86926e-05
4.58907e-05
-4.58907e-05
4.59249e-05
-4.59249e-05
4.33539e-05
-4.33539e-05
-4.25339e-05
4.25339e-05
3.56822e-05
-3.56821e-05
4.29938e-05
-4.29938e-05
-5.85626e-05
5.85626e-05
-4.97004e-05
4.97004e-05
-4.18019e-05
4.18019e-05
-4.45424e-05
4.45424e-05
4.56254e-05
-4.56254e-05
4.58505e-05
-4.58505e-05
4.41378e-05
-4.41378e-05
-4.1336e-05
4.1336e-05
-6.3074e-05
6.3074e-05
4.31165e-05
-4.31165e-05
-4.47442e-05
4.47442e-05
4.08597e-05
-4.08597e-05
4.66915e-05
-4.66915e-05
-4.55459e-05
4.55459e-05
5.35788e-05
-5.35788e-05
-5.88699e-05
5.88699e-05
3.78649e-05
-3.78649e-05
4.48362e-05
-4.48362e-05
4.53741e-05
-4.53741e-05
-4.10081e-05
4.10081e-05
4.49018e-05
-4.49018e-05
4.58652e-05
-4.58652e-05
-4.58488e-05
4.58488e-05
-4.58501e-05
4.58501e-05
-4.06608e-05
4.06608e-05
-4.58808e-05
4.58808e-05
4.59394e-05
-4.59394e-05
4.59581e-05
-4.59581e-05
4.46232e-05
-4.46232e-05
3.77315e-05
-3.77315e-05
-4.57643e-05
4.57643e-05
-5.55447e-05
5.55447e-05
-4.38138e-05
4.38138e-05
4.57501e-05
-4.57501e-05
-4.59938e-05
4.59938e-05
4.32277e-05
-4.32277e-05
-5.93193e-05
5.93193e-05
-4.71467e-05
4.71467e-05
4.96054e-05
-4.96054e-05
4.57384e-05
-4.57384e-05
-9.33383e-06
9.33384e-06
4.57743e-05
-4.57742e-05
4.15351e-05
-4.15351e-05
5.1202e-05
-5.1202e-05
-4.58729e-05
4.58729e-05
4.23267e-05
-4.23267e-05
3.14285e-05
-3.14285e-05
1.28298e-06
-1.28298e-06
-4.40791e-05
4.40791e-05
3.28685e-05
-3.28685e-05
-3.65732e-05
3.65732e-05
3.98052e-05
-3.98052e-05
2.66257e-05
-2.66257e-05
2.6199e-05
-2.6199e-05
2.70489e-05
-2.70489e-05
2.43979e-05
-2.43979e-05
1.32595e-05
-1.32595e-05
0.00107581
-0.000881996
-0.000193808
0.00546673
-0.00207527
-0.00339146
-0.00594645
0.00594639
5.35652e-08
0.0033546
-0.00259989
-0.000754714
-0.00154855
0.00176652
-0.000217971
-0.00676016
0.00283819
0.00392197
0.00121442
0.00425232
0.0072562
-0.00587629
-0.00137991
0.0011822
-0.0019208
0.000738605
-0.000864827
-0.000683724
-0.00144221
-0.000314614
0.00175683
0.000148787
8.49402e-06
-0.000157281
0.000778514
-0.00222073
-0.00360308
0.000122796
0.00348028
-0.003203
0.00289253
0.000310473
-0.00571449
0.00725968
-0.00154519
-0.00370903
0.00289693
0.000812086
-0.000563591
-0.00303949
-0.00174841
0.0023893
-0.000640886
-0.000464143
0.00255809
-0.00209395
-0.00160822
0.00110968
0.000498534
0.000583528
0.000581832
-0.00159986
-0.0051603
0.00126572
-0.00180002
0.000534306
0.00578114
-0.00386221
-0.00191892
-0.000661194
0.00331058
-0.00264939
-0.00583446
0.00583511
0.000483387
0.00128313
-0.00633081
0.00097455
0.00535626
0.00232522
-0.00298642
-0.00378986
0.00311381
0.000676049
0.00214839
-0.00422366
0.00108701
-0.000202655
-0.000884357
0.00150496
-0.00128992
-0.000215039
-0.00280235
-0.000400647
0.00535034
-0.00535357
0.00037101
0.00113395
0.00522853
-0.00133706
-0.00389148
0.00200281
-0.000820611
0.00308568
0.00190869
-0.00499437
-0.000721687
-0.00306818
-8.90633e-05
-0.000154566
0.00024363
0.00393578
0.00332043
0.00116605
-0.00489092
0.00372487
0.00162674
0.00360179
-0.00498162
0.006321
-0.00133938
-0.00113737
-0.000590397
0.00172777
0.00133873
0.00201586
0.000135292
0.000103626
-0.000238919
0.00502238
-0.00339564
0.00645937
-0.000841132
-0.00561824
0.00321625
-0.00265736
-0.000558897
0.00221955
0.000450435
-0.00267
0.00295062
-0.000731067
0.00650333
-0.00539833
-0.00110499
0.000505549
-0.00386885
0.0033633
7.07322e-05
0.00638865
0.00480591
-0.00430035
-0.000535781
0.00105938
-0.000523594
-0.00176034
0.000622971
0.00191709
0.00224907
-0.00416615
0.000253398
-0.000333576
8.01781e-05
-0.00126656
-0.00284632
0.00411288
-2.65148e-05
0.00652985
-0.0028167
0.00229489
0.000521808
0.000389692
-1.26576e-05
-0.000377034
-0.00569233
-0.000254115
0.00187763
-0.00139424
0.000828511
0.00495263
0.000891822
0.000183986
0.00265346
-0.00646498
0.00381153
-0.0011202
0.000584422
0.00263921
-0.00390577
0.00619645
-0.00226067
0.0010921
0.00117728
-0.00077611
0.00103267
-0.000256557
-0.00111182
-0.000496398
0.00189
0.00132625
-0.000595208
0.00142988
-0.00123767
-0.000192214
-0.00265444
0.00198715
0.000667289
0.00116696
0.000262924
0.00113882
-0.00497729
0.00383846
-0.0047583
0.00141883
0.00333945
-0.00455434
0.00611806
-0.00156372
-0.00506282
8.12034e-05
-0.00201934
-0.000635098
-0.000215259
0.000126196
-0.00122741
0.00465091
-0.0034235
-0.00122084
-0.000699961
0.000103309
-0.000192024
8.87145e-05
0.000126289
-2.29797e-05
-0.00126093
0.00464014
-0.00337921
-0.000156121
2.43733e-05
0.000131748
-0.00556827
0.00170606
-0.00119221
-0.00056813
-0.000449443
-1.89092e-05
0.000468351
-0.000543279
9.38355e-05
0.00101142
7.55908e-05
-0.00180878
0.000616569
-0.00015033
1.71908e-05
0.000133139
0.00136801
-0.00234447
0.000976465
0.000271105
-0.000135812
-0.00392592
0.00514034
-0.00245722
0.00070882
-9.3101e-05
-0.000426596
0.000519698
0.00568651
-0.00216983
-0.00351668
7.71931e-05
0.00250712
-0.00258431
0.004462
-0.00561428
0.00115228
0.00263497
0.00305154
0.00291349
-0.0028363
-0.00614181
0.000427321
-0.00645949
0.00361881
0.00284068
0.0022933
0.00390316
-0.00439066
0.00137966
0.00301099
0.00149359
-0.000227876
-0.00102597
0.00402088
-0.00299492
0.00463968
-0.00162634
-0.00301335
-0.00460735
0.00374886
0.000858496
0.00369375
-0.00503081
5.89338e-05
0.000330758
-0.00138317
0.00584518
-9.26368e-05
0.0021494
-0.00205676
-0.00206544
0.00260874
0.000172587
-0.00278133
-0.00127742
0.00264542
-0.000648567
0.00325731
0.00164077
-0.00173341
0.000907167
0.00397225
-0.00487942
-0.00504203
0.00384364
0.00119839
0.00255188
-0.0035941
0.00104222
-0.00333126
0.00411696
-0.000785697
0.000340252
-0.00367152
-0.000888877
0.000888877
-0.000447956
0.000354855
-0.000126968
-0.000973469
0.00110044
0.00507023
-0.00184322
-0.00322701
-0.00243327
-0.000369085
0.0029004
0.000157866
1.65627e-05
-0.000174429
-0.00146976
0.00112564
0.000344122
-0.00014178
-0.00490025
0.00505642
-0.00389038
0.000238094
-8.93075e-05
0.00444473
0.000577653
0.00406759
-0.0015157
0.000164949
-7.08323e-06
-0.00633972
-0.000985102
-0.000823679
0.00430036
-0.00190409
-0.00239627
0.00275618
0.00154418
0.0010777
-0.00563203
-0.00226021
-0.000556484
-0.00112006
-0.000958201
0.00207826
4.05526e-05
-0.00272303
0.00268248
-0.00235843
0.00123837
-0.0022181
0.00530379
-0.0046207
0.00160295
0.00301774
0.00254767
0.000664697
-0.000333609
-0.000331088
-0.00601499
0.00058289
0.0054321
-0.00418623
0.00582968
-0.00164345
0.00182556
0.00162942
-0.00345499
-0.00167489
0.000900648
0.000774237
-0.00271585
0.0020813
0.000634551
0.00110743
0.000770192
0.000247199
-0.000328939
8.17408e-05
0.00490217
-0.003995
-0.00638677
0.00557497
0.000811806
-0.0047809
-0.00167859
0.00334186
0.000643418
-0.00398528
0.000153965
-0.00016217
8.20486e-06
0.000590432
-0.000125278
-0.000465154
-0.00451864
0.00261456
0.000375205
-0.000569824
0.00019462
5.16741e-05
-0.000940553
-0.00257574
0.00448443
-0.00530547
-0.000322563
0.00562804
0.000216296
0.000175479
-0.000391775
0.00076252
-0.00076252
0.00168526
-0.000728697
-0.00211071
0.00181251
0.0002982
0.00440164
-0.00302199
-0.000162388
6.26708e-06
-0.00121597
0.00126764
0.000702984
0.00129983
0.0023499
-0.000268595
-0.00402035
-0.00128512
0.00111573
-0.00498459
0.00321293
-0.00447385
0.000835654
-0.00213545
0.0012998
0.00335928
-0.00458669
-0.00271181
-0.00180684
-0.00483748
0.0046957
-0.000676299
-0.00533868
-0.00516004
0.00150356
-0.00146394
-3.96207e-05
0.0022314
0.000118494
-0.00601382
0.00204833
0.0039655
-0.00121933
0.000526002
0.000693329
0.00145337
0.00294827
-0.00462456
-0.00101647
0.00564104
-0.000212817
0.00013852
7.42964e-05
-0.00550835
0.00132212
0.00375307
-0.0049369
0.00118383
-0.00149316
-0.000617548
-0.000536676
-0.000637501
0.00013837
-0.000203837
6.5467e-05
0.00499751
-0.0038587
-0.00130074
0.00512593
-0.00382519
-0.000397381
-0.000818592
-0.00586097
0.000439714
0.00539539
-0.00616632
0.00456645
-0.000921778
-0.005465
-0.00109335
-0.000376411
-0.0018169
0.00285683
-0.00103992
-0.000419198
0.000322067
9.71311e-05
-0.00173204
0.00141742
0.00161741
-0.000113846
0.000827406
-3.67404e-05
-0.0016953
0.00279646
0.00121768
-0.00303458
0.00604946
-0.000474492
0.0052798
7.05309e-05
-0.00528283
0.00439207
0.00114344
-0.00553551
0.000556468
-0.000768802
0.000212335
-4.04044e-05
-0.000407551
-1.6974e-05
0.00606643
-0.000162193
0.000156838
5.35531e-06
0.00013335
2.06143e-05
0.00253768
-0.00335859
0.000820907
-0.00191661
0.00071674
0.00119987
0.00792499
-0.00345543
-0.00446955
0.0011712
0.00126373
-0.00243493
0.000105133
-0.000172439
6.73071e-05
-0.000805874
0.00133187
0.00116376
0.00318111
-0.00434488
-0.00561432
0.000166157
0.00544816
-0.00401953
0.00299356
0.00173488
0.00479497
0.00458659
0.00333839
-2.20132e-05
0.000190291
-0.000168278
-0.00130825
0.00439665
-0.0030884
0.000300624
-0.000341029
-0.000131331
-8.14859e-05
0.00410126
-0.00227571
0.00477227
-0.00502061
0.000248341
-0.00324304
0.0060778
-0.00283475
0.00252711
0.00157416
0.00576356
-0.000991295
-0.00140179
-0.00562102
0.00137246
0.00424856
0.000654568
0.000520749
-0.00117532
0.00126956
-0.000614996
0.000585324
-0.00111024
0.000524918
0.00110607
0.000273266
0.000391431
-0.000678271
0.00443135
0.00152025
-0.00039461
0.00353915
-0.00612999
0.00259085
0.00153394
-0.00258516
0.00105123
-0.00432185
0.00116556
0.00315628
0.00291434
-0.00422259
-0.00490938
-0.00125693
-0.00409994
0.00126843
0.00283151
0.00124951
0.00314714
-0.00326521
-0.000834737
0.00222675
-0.00105557
-0.000681657
-0.00253062
0.00321227
0.0024067
0.000619127
-0.00302582
-0.0015898
0.0012017
0.0003881
0.000269961
0.00148943
-0.00196657
0.000477148
-0.000110858
-0.000222719
-0.000264413
0.000153554
-0.00435419
-0.000253157
-0.000292054
0.00117334
-0.000881287
0.00435166
-0.00464545
0.000293788
-8.8423e-05
0.000117769
-2.93459e-05
0.000974582
0.00338159
-0.00435617
-0.000157003
6.85806e-05
-0.00475234
0.000710892
0.00404146
-0.000718646
0.000113895
0.000604749
8.42774e-05
-7.57833e-05
-0.000400669
0.000864675
-0.000347474
-0.000517201
-0.0060357
0.00063737
-0.00254967
-0.000128182
0.00267785
-0.00316925
0.00441876
0.00218083
-0.00108873
-0.00116719
-0.00117712
-4.37157e-05
-0.00351947
-0.00123882
0.00150859
-0.000407893
-0.00110069
0.001919
0.00183873
-0.00375772
0.00504725
-0.00161616
-0.00343108
0.000794373
-0.00541893
-0.00137419
0.0030036
0.0019609
0.000781184
-0.00274208
-0.00349773
0.00447231
-0.000153015
2.68457e-06
0.000937003
-0.00443473
-0.00449745
-0.000148012
-0.000998108
-0.00461621
0.00463176
0.00149089
0.00355635
0.00416153
0.00114169
-0.00530323
3.66925e-05
5.87604e-05
-9.5453e-05
-0.00140647
0.00336737
0.00371213
0.00354754
-0.00139937
0.00236994
-0.000970563
-0.00248107
0.000461735
-0.000878407
0.000751438
-0.000194957
0.000411254
-0.000211515
0.00170095
0.00376346
-0.00184446
-0.00106956
-0.00060533
-0.000107185
-0.000157227
0.00355044
-0.00163335
-0.00240372
0.0046528
0.000674506
-0.00309589
0.00242138
0.000643758
0.000763994
-0.00105605
0.00209939
-0.00131407
-0.00327482
0.00458887
-0.00215143
0.00480489
-0.000552252
0.00344478
0.000238966
-0.000221775
-0.00236353
0.000964163
0.00232307
-0.00386795
0.0015449
-0.00121363
5.80361e-05
-2.13436e-05
0.00214746
-0.00279715
0.000649692
-0.00116846
-0.000421339
-0.00352895
0.00450351
0.00119392
0.00167529
-0.00286921
-0.00168947
0.0036647
-0.00197524
0.00424094
-0.000859358
0.000234374
1.4106e-05
-0.00024848
-0.00372235
0.00203288
-0.00143016
0.00472051
-0.00329035
0.000878005
0.00130282
0.000163142
0.000599377
0.000253042
-0.00030072
4.76775e-05
0.00170045
0.000206029
-0.00190648
0.0030193
-0.00459177
0.00157248
-5.28274e-05
0.000374252
-0.000321425
0.00156301
-0.000361319
0.00140139
-0.000606955
-0.000794434
0.00282279
-0.00392657
0.00110378
0.00267968
-0.00374302
0.00106334
-0.00515707
0.00191403
0.00390428
-0.000884974
-0.000635834
-0.00237524
0.00301107
0.00140736
-0.00511818
0.00371082
0.00336053
-0.00145893
-0.00190161
-0.00068177
0.00172522
-0.00104345
0.00477121
-0.00303634
-0.000696133
-0.00196122
-0.00598249
0.00514135
3.90739e-06
0.000121705
-0.000125612
-0.00157864
0.00119986
0.000378785
-0.00491107
0.00630916
-0.0013981
-0.00188294
0.000723786
0.00115915
0.000408432
0.00268673
-0.00208772
-0.000599009
0.00343525
0.000489416
-0.00392467
0.000126827
-2.1694e-05
0.00517258
0.000336194
-0.00550877
-0.00194087
0.00379765
-0.00185678
0.00277018
-0.000641603
-0.00212858
0.000462552
0.000402124
-0.000437398
0.00387265
0.00202596
-0.00396683
0.000705627
-0.000265354
-0.000440273
-0.000635972
2.29506e-06
0.000633679
-0.00315215
-0.00576585
0.00576456
-0.000274396
0.000950862
-0.000676467
-0.00228743
-0.000193652
-0.00455503
0.00324095
-0.000871847
0.00113144
0.00360811
-0.00501944
0.00141133
0.000410674
-0.00296034
0.00233041
-0.00244068
0.000110259
-0.00157143
0.00148228
8.91439e-05
-0.00120997
-0.000368672
-0.00339126
0.00342824
-0.00223431
0.000457231
0.0001332
-0.00173396
0.00105219
-0.00279477
0.000745985
0.00204878
0.000242373
-7.99883e-06
-0.0034769
0.00102239
0.0024545
-0.00144403
0.00560557
0.000339673
-0.000953956
0.000614283
0.00211946
0.000650723
-0.00127775
0.000304284
0.00111244
0.00121798
-0.00142874
0.00495763
-0.00352889
-0.00484989
0.00577134
-0.000921458
-0.00117498
0.00228501
0.00410363
0.0010734
3.6285e-05
0.00586603
-0.00552322
-0.000342813
0.00355734
-0.00466089
0.00110355
0.00309245
-0.000685759
0.00542649
-0.00181838
-0.00250335
-0.000973547
-0.00217401
-0.000320152
0.00249417
0.00241277
-0.00196234
-0.00160817
-0.00424178
0.00274686
0.00149492
-0.00032573
0.00122638
0.00121236
0.00365925
-0.00487161
-0.000292819
0.000668023
0.00305957
-0.00238506
-0.00472446
-0.00125803
0.00647082
-0.00129824
0.00424216
0.00206117
0.000496929
0.00285519
-0.0021258
-0.000729393
0.0047372
-0.00245219
-7.0747e-05
-0.00332593
-0.000868657
0.0041946
0.000388283
-8.65941e-05
-0.000301689
-0.00514293
0.00610649
-0.000963553
-0.000736778
0.00190613
-0.00116935
-0.000697098
0.00525249
-0.00455539
0.00117615
-0.00191293
-0.000113481
-0.0057628
-0.00077611
0.0020235
0.00384253
-0.000246094
-0.00192792
0.000251401
-4.20223e-06
0.000362577
-0.000487855
0.00336167
-0.000823989
-0.00522666
-0.00027163
-0.000147568
0.000150185
-0.000133575
-1.66104e-05
-0.00248365
0.000125209
-0.000422481
0.00159115
-0.00101563
-0.000575514
0.00247006
0.000595066
-0.00306513
-0.000715324
0.00318537
-0.00520293
-0.000271483
0.00547441
0.00375136
0.00137457
0.00441108
-0.00122997
-0.000130203
0.00254297
0.00540387
-0.000206675
-0.0051972
-0.00608688
0.00425211
0.00183478
0.00321141
-0.00126797
-0.00435306
0.000203511
-0.000225524
0.000580849
0.000820538
0.0010985
0.000134085
-0.00123259
0.00421231
0.00119156
-0.000960536
0.00317231
-0.00221178
0.00473227
-0.0013904
-0.00217896
0.00279253
-0.000613558
-0.0011762
-0.000118581
0.000311882
-0.000193302
0.0034462
-0.00414331
0.00134421
-0.000986007
-0.000358203
0.00159647
-0.000396611
-0.00325143
0.00229089
0.00548702
-0.00434359
-3.06439e-05
0.000352712
-0.00535718
0.000446108
0.00544836
-0.00190922
-0.00100191
-0.00361495
0.00461686
-0.000646256
0.0028829
-0.00223665
0.00549726
-0.00286246
-0.0026348
-8.83975e-05
0.000592786
-0.000677147
0.000660556
1.65909e-05
-0.000691971
0.00173104
-0.00103907
-0.00314815
-0.00117369
0.000155571
-1.72013e-05
-0.00122467
-0.00478915
-0.00307665
0.00239499
-0.000531108
-0.000231411
-7.26208e-05
-8.95722e-05
-0.00120835
-0.000805642
-0.00523006
-0.00283843
0.00219218
-0.000818126
0.00118914
0.00112433
0.00437871
-0.00550304
0.00339799
-0.00275457
0.00046966
0.000773623
-0.00288455
0.00211093
0.00498867
-0.00493797
-5.07024e-05
-0.00320952
0.00361559
-0.000406063
0.000207793
-9.5608e-05
-0.000112186
-0.00497425
-0.00149075
-0.00175805
0.0036905
-0.00193244
0.00298187
-0.00220825
-0.00378416
0.00202611
0.00139502
-0.00258175
0.00118672
-0.00363286
0.00568118
0.00649851
-0.00219631
-0.0043022
-0.00240035
0.00237469
2.56753e-05
0.00561316
-0.00164093
0.00118493
-0.000923269
-0.000261661
-9.11248e-06
0.000262155
0.000249653
-0.0007741
0.000524447
-0.00304727
0.00365154
-0.00097186
0.000845912
-0.00104857
0.00236324
-0.000632146
-0.00173109
0.00220089
-0.000500434
0.00452484
0.000630065
0.00173318
-0.00175589
0.00106392
0.000408594
-0.000464692
5.60979e-05
0.00221302
-0.00174525
-0.000467772
0.000831057
-0.0051478
-0.00054453
0.000369491
-0.000588346
0.000218855
-0.00410126
0.00547372
0.000942183
-0.00111664
0.000174453
-0.00152545
0.00216484
-0.000639385
-0.00149093
-0.00275085
-0.00538223
-0.000155938
0.00553818
0.000300574
0.00010829
4.18958e-05
0.000127748
-0.000127843
9.45941e-08
0.00411808
-0.00290572
-0.00380259
-0.00232739
0.00346448
0.00303403
-0.00259399
0.000729783
0.0018642
-0.000844671
0.00223968
-0.00229771
-0.000102648
0.00272905
-0.00377745
0.00104839
0.00130809
-0.000134747
0.000459777
0.000551644
-0.0032782
0.000964623
0.00231358
0.000915004
-0.000607485
-2.84889e-05
-0.00427648
0.0017228
0.000101741
-0.00182454
-0.00396555
0.00146509
0.00250046
0.000521592
0.00147129
-0.00089044
-0.000246015
-0.00466042
0.00490644
0.000784472
-0.00247675
0.00169228
0.00120221
0.00131231
-0.000469595
-0.0017167
0.0021863
0.00258007
-0.0017956
0.00447073
-0.00353373
-0.000775504
-0.00264069
-0.000227291
0.000251665
-0.000703732
0.00176482
-0.00106109
0.00265992
-0.00366757
0.00100764
0.000136436
2.04019e-05
-0.00236317
-0.000915041
0.00142134
-0.0016365
0.000215155
-0.00277437
0.000686655
0.00127645
-0.0014188
0.000142348
0.00161864
-0.00180798
0.000189342
0.000676236
-0.003727
-0.00116392
0.00135023
-0.00490106
0.00355084
-0.000914351
0.00357426
0.000119042
-7.91746e-05
-3.98672e-05
0.00475426
-0.00362993
-0.000313537
-0.0015314
-0.00401243
-0.00149592
0.00209188
0.000700637
-0.00101224
-0.000923286
-0.00451322
-0.00162859
-0.000394345
0.00124184
-0.000930961
-0.000310878
-0.00149628
-0.0010889
0.000657375
0.00225756
-0.00291493
-0.000114273
0.00067074
-0.000715933
3.87855e-05
-0.00245752
0.00196647
0.00139406
-0.000720346
0.00163743
-0.000917083
-8.68727e-05
-0.000116964
0.000318571
-0.00194561
0.000452451
0.00160731
-0.00231128
0.000703966
-0.00334351
0.00258161
0.000761889
0.00119684
0.00241566
-0.0036125
-0.00175404
0.00105031
-0.00294144
-0.00102411
-0.000793941
-0.00254957
-0.00167756
0.00125319
0.000424373
0.00176427
-4.14687e-05
-0.000763303
-0.00243412
0.00319742
-0.000675307
0.00291468
-0.0022573
-0.000858534
-0.0039476
0.00480615
-0.00234314
0.00233966
3.47884e-06
-0.000718646
-0.0015625
0.000546864
-0.00240585
0.00381981
-0.00141397
0.00323288
0.00288518
0.000194394
3.62246e-05
-0.00023062
0.00234037
-0.000602826
-0.00173754
0.000187973
-0.000184066
-0.0035889
0.00493913
-0.00329309
0.00524923
-0.00195615
-0.00350991
-0.00150953
-0.000914177
0.00323173
-0.00231756
0.00285629
0.00177505
-0.00418091
-0.00499586
-0.00014707
-0.000791246
0.00284821
-0.00205696
-0.000431677
0.000378849
-0.000529808
0.00167548
-0.00114568
-0.00403518
0.00334231
0.000692868
-0.00326942
0.00235524
-0.00386899
0.000674758
0.00319423
0.00140979
-0.0010126
-0.000397192
-0.00589957
0.000696643
0.0018467
-0.00141084
-0.000435863
0.00141187
-0.000395954
-0.00101591
7.83756e-05
0.000129418
0.00293283
-0.00063794
-0.000220386
-0.0034878
-0.00038119
0.000428014
-0.00305467
-0.000980513
-0.00233642
-6.71158e-06
-0.00292574
0.00228991
0.000720686
0.00260184
-0.00332253
0.00058526
-0.000859656
0.00141079
-0.00671859
0.0053078
-0.00577896
0.000998051
-0.00234286
0.00353971
0.000692116
0.000258747
-0.0027329
0.00345359
-9.49561e-05
0.00508363
0.000616813
0.0017049
-0.00232172
-0.00177623
0.00124643
0.00274765
-0.00369608
0.000948432
0.0051011
0.000668908
0.00154411
0.000315775
0.000389851
-0.000364014
-0.000404789
0.000180971
-0.00174592
0.00176684
-0.000888841
0.000857358
0.000613926
-0.000585653
0.00301144
-0.00242578
-0.00150285
0.00184113
-0.000338269
-0.0048953
0.00380354
0.00109177
-0.00480006
0.00150697
-3.9801e-05
3.95823e-05
2.18718e-07
-0.00281116
-0.000856407
0.00108079
-0.0012937
0.00021291
0.00136061
-0.00494951
0.00106738
3.11259e-05
0.00124182
0.000695387
0.00218751
-0.00366793
0.00085678
0.000186197
-0.00503609
0.00189994
0.00121695
0.000689179
-0.00527373
-0.000492125
0.00565108
0.00118558
0.00710764
-0.00218463
-0.004923
0.000788573
-0.000381259
-0.000407315
0.000717215
-0.00138244
0.000777111
-0.00386089
-0.00125729
0.000311882
-0.000933753
-0.000416851
0.00135061
0.00232903
0.00400854
-0.00486706
0.00270264
0.000834642
-0.00353728
0.0012493
-0.000963729
-0.000285565
0.000745347
0.00159502
-0.000135064
0.000138283
-3.21901e-06
-0.000709915
0.00288361
-0.0021737
0.00362196
0.00109855
-0.00126188
-0.000415684
0.00142323
-0.00155798
0.000134745
4.7627e-05
7.14149e-05
-0.00447697
0.000967058
-0.00165356
0.000443588
-0.00364737
0.00293204
-0.000947989
6.59927e-05
0.000935344
0.00268
-0.00361535
0.000847815
-0.00126526
0.0041905
-0.00292525
0.000318331
0.000279898
4.6569e-05
-0.000326468
7.8304e-05
-0.00539171
0.00531341
-0.00263172
-0.000781685
0.00341341
-0.00349288
0.00260801
0.000884879
-0.00277656
-0.00026184
-0.00171437
-0.00490353
0.000891098
-0.00145414
-0.000882288
-0.00106336
0.00379242
0.00170853
-0.0037262
0.00201766
0.000105406
2.23421e-05
0.00372635
-0.00201781
0.00286276
0.000959162
-0.00382191
-0.00130252
0.00174203
-0.00043951
0.00357447
0.00110105
-0.00467552
0.0071852
-0.0019722
-0.00521299
-0.00212731
-0.00071112
-0.00172909
0.00234589
0.0037722
-0.00492815
0.00115594
-0.00280211
0.00373745
0.00113859
7.29068e-06
-0.00114588
0.00148211
0.000907181
-0.00550759
0.000598202
0.000434913
0.00035366
0.00292153
-0.0011231
-0.002522
0.00247997
4.20321e-05
0.00050471
-0.00184046
0.00133574
-0.00387108
-0.00119174
0.00109068
-0.00254482
-0.00529914
0.00015134
-0.00125138
-0.000524976
0.00177635
0.00563509
-0.00449339
0.000104529
0.000283755
-0.00301629
0.00318888
0.00144073
-0.00107196
-0.000368774
0.00346883
0.00475939
-0.000955864
0.000644586
-0.0032763
0.00108524
-0.000971345
-5.28879e-05
0.000461481
0.000394001
-1.97485e-05
-0.00206533
-0.000454589
0.00153538
-0.000911278
-0.00349751
0.000764617
-2.68383e-05
-1.29628e-05
0.00599851
-0.0049208
0.00522251
-0.004394
5.80374e-06
-0.000604749
0.000598945
0.00194878
-0.000458353
-0.00149042
0.00335886
-0.000757014
-0.00256804
0.00336113
-0.000793087
-0.00183326
0.000530745
0.00127859
-0.000951587
-0.000327007
-0.000118766
-0.000210173
0.00205922
-0.000548364
-0.00151086
-0.00138062
-0.00239447
-0.000127521
0.00209034
-0.00274623
0.000655891
0.00280634
-0.000750506
-0.00205584
0.00410351
-0.00434952
0.000314866
0.00224167
-0.000634355
-0.000682496
0.000834913
-0.00367622
0.00503682
0.00125033
0.000465314
-0.00171669
-0.00286619
0.00209642
0.00363385
0.00158866
-0.00114274
-0.00383297
-0.00114432
0.00130334
-0.00171737
0.000414028
0.00367543
-0.00318602
-0.000193808
0.00113599
-3.8648e-05
-0.000269779
0.000308427
-0.00069808
-0.00189591
0.00377204
-0.00490949
0.00113745
-0.0018605
0.0023524
-0.000491899
-0.00115611
0.00213256
0.000751049
-0.00226352
0.00375586
-0.00149235
0.0015055
-0.00114113
-0.000364377
-0.00100497
0.000286326
0.000179345
-0.000440835
0.00026149
-0.000426306
-0.00122725
-0.00247974
0.00250458
-2.48333e-05
0.00144782
-0.00371135
0.00162379
-0.000370593
0.000376516
-0.000422083
4.55669e-05
-0.000826653
0.000593766
0.000232887
-0.000794878
-0.00284986
0.000830687
0.00201918
-0.00199505
-0.000848967
-0.000710946
0.00155991
-0.00524382
0.00389656
0.00134725
-0.00123851
0.00124432
-0.000576403
-0.000115913
0.000692316
0.00286869
-0.000736133
-0.000770373
-0.000160189
0.000930563
0.00183995
-0.00137463
0.00169714
-0.00039379
-0.000153276
-0.000637437
-0.00420531
0.00484275
-0.00138834
0.00282962
0.00427802
-0.00239899
-8.07451e-05
0.00312034
-0.00473651
0.000733124
0.00158152
-0.00231465
0.00200967
-0.00280091
0.00199254
-0.000725429
-0.00126711
-0.00179602
0.000455894
0.00134013
0.00432022
0.00286498
-0.0055189
0.00133811
0.00418079
-0.0012532
-0.00399061
-0.000460183
-0.00133584
-0.00100027
-0.000562223
-0.00129221
-0.000425164
0.00114445
-0.000533418
0.00150742
-0.000974005
-0.00175714
0.00129696
-0.000944498
-0.000207211
0.00115171
0.00217112
-0.0028671
0.000695987
-1.17682e-05
0.000206162
0.00103338
0.00606412
-0.00141089
-0.00465323
-0.00203684
-0.00187469
0.00133717
0.000537521
0.00127044
-0.000977753
-0.000292685
-0.00229269
-0.00102752
0.00332022
-0.00266974
0.00358456
-0.000914823
-0.000920289
0.00111486
1.04972e-05
-0.00112536
0.0037608
-0.00493741
0.0011766
0.00174754
-0.00135542
-0.000392119
0.00242707
-0.00122486
0.00273945
-0.000635195
-0.000191458
-0.00409287
0.00229282
-0.00180168
-0.000491136
0.000560639
-0.00200903
0.00144839
-0.00251463
-0.000843963
0.00086002
-0.000658352
-0.000201669
-0.000180333
-0.0036435
0.00097376
0.000656266
-0.00047692
0.00259197
0.000992587
0.000318853
0.00130305
0.000689493
-0.00160327
0.00233639
-0.00150104
0.000988734
0.000512302
0.00355246
-0.000689689
-0.00380966
0.00610296
-0.00114868
-0.00248756
0.00683164
-0.00434408
-0.00088863
0.00356864
-0.00414181
0.000932302
-0.00210146
0.00424985
-0.000693852
-0.00161742
-0.00245219
0.00171171
0.000740482
-0.00127945
0.000410084
-0.000461275
5.11915e-05
-0.00137392
-0.000776819
-0.000153585
0.000930404
-0.00156554
0.00136082
0.000204724
0.00203609
0.000812116
6.25363e-05
-0.0013002
-0.000551798
-0.000830644
-0.00242123
-0.000483197
-0.0013915
-0.000171304
0.00159265
-0.000180701
0.00341137
-0.000514441
0.00133899
0.000200319
-0.00082076
-0.000979262
-0.00192999
0.00247692
-0.000546924
-0.00104395
-0.0057289
0.0035108
0.00148152
-0.000624165
0.00288659
-0.0012113
0.000964734
-0.00135875
-0.00453026
0.00588901
0.000620418
-0.00255041
0.000741378
-0.0036903
0.00269885
0.00099144
0.000890159
-0.00142358
0.00222494
-0.00311891
0.000893968
0.00119601
-0.0034299
0.00223389
0.000860961
0.00168777
-0.00254873
-0.000174652
0.00179329
0.00274247
0.0010792
0.00361894
-0.000413522
0.000783011
0.00315863
-0.00402728
0.000983432
-0.00327611
0.000435254
0.00412469
0.00147099
-1.0502e-05
-0.000274432
0.000284934
-0.00619311
0.00385676
0.00233636
-0.000829833
-0.00261411
0.00344395
0.00263996
-0.00177899
-0.003697
0.000894895
-0.0013214
-0.000435746
-0.000152851
0.00131981
0.00372615
0.00123148
0.000224826
0.00130857
-0.000992221
-0.000316347
0.000886446
0.000595079
-0.000313885
0.00376912
-0.00493535
0.00116623
0.00307823
-0.0008533
-0.00139851
0.00190322
0.00125866
-0.0035552
0.00229653
-0.00116829
0.00145592
0.000678586
-0.00213451
0.000193548
-0.000204051
0.00219851
-0.000859778
-0.00124635
0.000330814
0.000925285
-0.000349528
-0.000575757
0.00353277
-0.00227411
-0.000509295
0.00229195
-0.00178266
0.00101939
-0.00296849
0.00208217
0.000886319
0.000106485
-1.07897e-06
0.00467306
0.000538976
-0.00569929
-0.00519718
0.00392746
0.00126973
-0.00107849
-0.00269508
0.00377357
0.0022213
0.00372509
0.00282675
-0.00375417
0.000927426
-0.00146919
0.00110052
-0.000959506
0.00337527
-0.00241577
0.00149677
0.00056245
-0.0037852
-0.00240791
0.00107891
-0.00230191
0.00321535
-0.000913445
0.00343562
-0.000827612
0.000396533
-0.000813783
0.00254262
0.000892999
-0.000635453
0.00431089
-0.00130843
0.00171621
-0.000407783
0.00199358
-0.00127684
-0.000389988
0.00607681
-0.00492163
-0.000460598
0.0008588
-0.00246207
-0.00539159
-0.00172222
0.000413793
-0.000678153
0.000101751
-0.000870253
0.000212633
-0.00146857
0.000670195
0.00157147
-0.000905436
0.000135063
0.000805211
0.00251592
-0.00332114
-0.00109513
0.00187365
-0.00194687
-0.000474378
0.00196114
-0.00148677
-0.000884916
-0.00208356
-0.00195175
0.00147737
-0.00265754
0.00346274
-0.00164273
0.000588247
0.00105448
-0.00098046
0.00357243
0.00601673
-0.0023046
-0.00130248
-0.000419735
-0.00173873
0.00109928
0.000639449
0.000905343
-0.00452018
0.00361484
-0.00131228
0.000546487
0.000765788
-0.00403503
-0.00116215
0.000191706
-0.0011362
0.00193737
-0.000720417
-0.00134789
-0.00380693
0.00515482
0.00100153
7.18726e-05
0.00329728
-0.00252779
-0.000769488
0.000135723
0.00127614
0.000876547
-0.000669891
-0.000206657
-0.00134613
-0.0010174
-0.00108435
0.0051245
-0.00404015
0.000637196
-0.0024977
0.000127307
0.00129592
0.00377238
-0.00496289
0.00119052
0.0028801
-0.00204942
0.000101837
-0.000168323
6.64865e-05
0.00102855
0.000138095
0.000104278
0.00235523
0.00370889
-0.000583732
-0.00080741
0.00139114
0.00065359
0.00177108
-0.00242467
0.00240254
-0.00170404
-0.000698497
0.0004757
0.00147308
0.000426143
-0.000511533
-0.000800743
0.000600729
-0.00532519
0.000690406
-2.98508e-05
-0.00116296
-0.00131601
-0.00379221
0.00510822
0.00103509
0.00143699
-0.00189534
0.00254657
-0.000394879
-0.00490869
0.00530357
0.000120594
-1.87573e-05
0.000660713
0.00127666
0.00272835
0.000945685
-0.00367403
0.001375
0.000471709
0.00258727
-0.00364139
0.00454674
0.00277391
0.000843692
-0.0036176
0.00163169
-0.000831877
-0.000799813
0.00132796
-0.00101909
-0.000308868
0.000424002
0.00105946
-0.00470086
0.000218195
-6.79912e-06
0.000200347
0.00605863
-0.00130437
0.00152581
-0.00212864
0.00252735
-0.00182275
-0.000704595
0.000864541
-0.00254566
0.00168112
0.00523468
-0.00281567
-0.000927341
-0.00158765
0.00501253
0.00148639
-0.00178138
0.000294988
0.000499669
-0.000103666
-0.000396002
-0.000997349
-0.0031404
0.00413776
0.000742892
0.00181893
-0.00256183
0.00176754
-0.000281147
0.00224813
0.00140615