/*--------------------------------*- C++ -*----------------------------------*\
  =========                 |
  \\      /  F ield         | OpenFOAM: The Open Source CFD Toolbox
   \\    /   O peration     | Website:  https://openfoam.org
    \\  /    A nd           | Version:  7
     \\/     M anipulation  |
\*---------------------------------------------------------------------------*/
FoamFile
{
    version     2.0;
    format      ascii;
    class       volVectorField;
    location    "0.921";
    object      U;
}
// * * * * * * * * * * * * * * * * * * * * * * * * * * * * * * * * * * * * * //

dimensions      [0 1 -1 0 0 0 0];

internalField   nonuniform List<vector> 
12359
(
(0.981713 -0.000315412 8.04484e-17)
(0.968244 -0.000786832 1.93371e-16)
(0.999963 -9.5958e-06 1.20166e-17)
(0.933546 -0.00196327 1.59267e-17)
(0.975936 -0.00115746 -4.92859e-17)
(0.882082 0.00028547 8.35021e-17)
(0.855109 -0.000546783 8.17024e-17)
(0.870308 0.00214883 1.24725e-16)
(0.801945 0.0129847 3.6593e-17)
(0.896265 -0.00146519 -8.68319e-18)
(0.82572 0.00869216 6.22636e-17)
(0.738877 0.0245239 -1.34607e-16)
(0.343238 0.0436282 -2.57095e-16)
(0.922286 0.000243435 -2.10543e-19)
(0.942391 -0.00157976 4.52976e-19)
(0.556708 0.0330676 1.12647e-16)
(0.470803 0.0384959 7.53769e-18)
(0.994783 -2.64632e-05 6.54438e-17)
(0.99515 0.00014293 4.43069e-17)
(0.956048 -0.000864505 6.3262e-17)
(0.914441 0.00124128 -4.89161e-17)
(0.771499 0.0209175 -6.66044e-17)
(0.962824 -0.000952076 1.28572e-16)
(0.954444 0.00127725 2.49647e-17)
(0.966558 -0.00052077 1.81299e-16)
(0.958986 -0.00138264 -1.43827e-17)
(0.998589 -5.33052e-05 -1.48842e-17)
(0.998754 -6.85523e-05 -3.28544e-17)
(0.995856 1.13567e-05 4.63014e-18)
(0.997834 -1.39319e-06 -3.63727e-17)
(0.997336 -9.61951e-05 -2.66592e-17)
(0.999388 -3.28899e-06 -3.80413e-17)
(0.999776 -1.33631e-05 1.11256e-19)
(0.998189 -3.75188e-05 -8.04598e-18)
(0.99992 -2.35057e-05 -1.19858e-17)
(0.997177 -8.08826e-05 -1.09324e-16)
(0.988614 -0.000188965 8.12205e-17)
(0.982875 1.90242e-05 -1.92269e-16)
(0.978128 -0.000767046 -3.38134e-17)
(0.98533 -0.000587935 1.13044e-16)
(0.970868 -0.00136993 -2.88793e-18)
(0.983762 0.000166353 1.59756e-16)
(0.991262 -0.000276916 6.30584e-17)
(0.992188 -0.000176676 -3.76454e-17)
(0.99663 -0.000155991 2.63935e-17)
(0.996152 -0.000116629 2.43793e-17)
(0.997011 -6.96374e-05 -9.79239e-17)
(0.997605 -4.95145e-05 -2.87481e-17)
(0.99546 9.15981e-05 -3.49379e-17)
(0.998453 -4.82237e-05 1.31854e-17)
(0.998932 -7.45715e-05 -3.12266e-17)
(0.999213 -3.81189e-05 2.19364e-17)
(0.999453 -4.08646e-05 1.42536e-17)
(0.994163 9.97718e-05 -6.01356e-17)
(0.999535 2.82431e-05 3.4041e-17)
(0.999748 -2.03246e-05 -9.64825e-18)
(0.992893 -0.000120012 -4.26549e-17)
(0.999774 -1.43596e-05 -2.75496e-17)
(0.999805 6.37198e-06 -2.3403e-17)
(0.999874 1.7542e-05 4.7032e-17)
(0.999679 -2.127e-05 -2.57939e-17)
(0.999917 2.22444e-05 1.99045e-17)
(0.999083 -6.17298e-05 1.22319e-17)
(0.199438 0.0583013 -1.14371e-15)
(0.993683 -0.000166221 1.19184e-16)
(0.909117 0.000958119 -8.58395e-17)
(0.989608 -0.000120148 3.4967e-17)
(0.999224 -8.49109e-06 -1.79281e-17)
(0.988147 -0.000265049 2.95093e-17)
(0.627724 0.0254763 -7.87888e-18)
(-0.0060546 -0.00277986 6.45304e-15)
(0.973372 -0.0015158 -2.7143e-16)
(0.999955 -1.96422e-05 -2.73726e-17)
(0.986881 -0.000603967 2.09119e-17)
(0.949215 -0.00128454 -5.22741e-17)
(0.999878 1.02351e-05 7.59073e-18)
(0.999434 -2.56773e-05 4.40946e-18)
(0.999946 -2.45952e-05 3.95718e-18)
(0.989934 -0.000374975 -1.00434e-16)
(0.678519 -0.00353294 -1.32384e-17)
(0.920213 0.0649932 -6.10653e-17)
(1.00373 0.00281778 5.61311e-18)
(1.00003 -1.817e-06 3.80765e-18)
(0.998388 0.0127378 2.36712e-17)
(1.09576 0.148981 4.1106e-18)
(1.02204 0.000327608 6.83783e-19)
(1.00386 0.00249613 -8.48108e-18)
(1.00159 1.82897e-05 2.75241e-18)
(1.11337 0.0723282 1.46026e-17)
(1.08815 0.163055 3.16481e-17)
(0.99996 0.000157084 5.25524e-19)
(0.240408 0.158147 -4.59419e-16)
(1 1.08028e-05 3.46982e-18)
(0.999555 0.00618332 7.46435e-18)
(0.999666 0.0110469 -2.93325e-17)
(1.03806 0.00233219 1.82838e-18)
(1.00016 0.00535634 3.18363e-18)
(0.999564 0.00612543 -1.36638e-17)
(0.991067 0.0299576 -1.01817e-17)
(0.994075 0.0185239 -5.86438e-18)
(0.93934 0.0816967 1.90868e-17)
(1 2.00629e-05 -2.54401e-18)
(1.02136 0.00226069 -3.30673e-18)
(1.24812 0.0867122 -1.88906e-17)
(1.00491 0.000998081 4.42999e-18)
(1.03307 0.0219962 -7.43476e-18)
(1.00033 -4.90529e-05 -3.57252e-18)
(1.09356 0.142481 -1.79739e-17)
(1.01888 -0.000755793 -2.06568e-18)
(1.03359 0.0211892 -5.06811e-18)
(1.00007 0.00487796 -1.44514e-17)
(1.00356 0.00278814 -1.67602e-18)
(0.936979 0.0459544 -5.86795e-17)
(0.957141 0.0735808 4.06257e-17)
(0.998968 0.0110987 3.72946e-18)
(1.00313 0.000435775 4.13687e-18)
(0.951527 0.076283 5.80084e-17)
(1.00463 0.00238887 3.52514e-18)
(1.13213 0.048439 1.0961e-17)
(0.999999 1.72346e-05 -7.55285e-19)
(1 0.00519677 9.62289e-19)
(0.863255 0.0251969 -1.26562e-16)
(1.00172 0.000306719 1.57222e-18)
(1.03787 0.00664771 6.3108e-18)
(1.00491 0.00225572 5.02697e-18)
(1.00328 0.000468309 4.32158e-18)
(1.00885 0.0952957 4.86215e-18)
(0.998068 0.0132579 5.02189e-18)
(0.999988 8.34414e-06 3.34722e-17)
(1.0047 0.00233559 -1.14695e-17)
(1.00266 0.000345034 3.29423e-18)
(1.04987 0.0194679 -1.25459e-18)
(1.05186 0.0181514 -3.93606e-18)
(1.05018 0.0173667 4.59096e-18)
(1.00022 -3.04816e-06 1.39856e-18)
(1.0378 0.00777733 -9.60081e-19)
(1.00302 0.00034552 -4.11896e-18)
(1.03753 0.00698711 -2.10009e-19)
(1 9.45075e-05 -4.48134e-17)
(1.00926 0.0919155 -1.69364e-17)
(1 2.67718e-05 2.84439e-21)
(0.982198 0.00246097 6.12928e-17)
(1.03129 0.0139417 1.76442e-18)
(1.00023 3.62983e-05 -4.20738e-18)
(1.03954 0.039903 1.32194e-18)
(0.897459 0.0274432 -2.84394e-17)
(1.00002 9.27702e-06 -1.44357e-18)
(1.08947 0.118388 -1.36864e-17)
(1.00505 0.000882318 1.29834e-17)
(0.92175 0.0666227 -8.63875e-17)
(1.03961 0.00317701 3.22773e-19)
(1 2.83303e-05 8.54817e-18)
(1.03163 0.0142097 -2.15328e-18)
(1.00175 -0.000120965 -1.8583e-18)
(1.00001 -6.58771e-06 2.56571e-18)
(0.584475 1.32525 2.92524e-17)
(0.935139 0.0859648 7.52266e-18)
(1.04935 0.0195042 -2.70574e-18)
(1.00005 0.00532296 5.0715e-18)
(0.999276 0.000595381 4.28786e-19)
(1.0023 0.0457043 -2.05745e-17)
(0.999207 0.000745658 -6.93621e-18)
(1.03922 0.00662919 -9.34698e-19)
(1.03342 0.0114367 -1.78497e-19)
(1.00004 2.31093e-05 -1.54532e-18)
(1.00319 0.000447266 -9.40945e-18)
(1.00144 0.0450922 3.07972e-18)
(0.873817 0.0152843 6.74904e-17)
(1.03258 0.0111265 -3.0153e-18)
(1.12583 0.0668701 -1.30157e-17)
(0.999992 1.25439e-05 5.1426e-17)
(0.999962 3.50482e-05 1.59405e-16)
(1.03337 0.00924345 3.547e-19)
(0.973573 0.00191146 3.14992e-16)
(1.00483 0.000893189 2.46032e-18)
(1.00425 0.0903095 6.95733e-18)
(0.996462 0.000455262 1.12769e-16)
(0.99658 0.000811225 -4.48669e-17)
(0.934708 0.0492188 -1.44622e-16)
(1.00459 0.0865742 2.57023e-17)
(0.937583 0.00593867 2.38993e-16)
(1.00001 3.48864e-05 1.80321e-18)
(0.999971 1.89843e-05 2.07445e-17)
(1.00396 0.00280585 -4.93566e-18)
(0.991564 0.028392 -7.04836e-18)
(0.846162 0.105235 9.67813e-17)
(1.00433 0.00596787 -1.77362e-17)
(1.00027 0.0103849 -1.29483e-17)
(1.03881 0.00102592 -5.10219e-19)
(1.00464 0.00557544 1.99836e-18)
(0.9994 0.010323 -8.37132e-18)
(1.0363 0.00487832 -1.64704e-19)
(1.03612 -0.00248713 1.98873e-18)
(1.00178 0.000396645 7.96341e-19)
(1.03424 0.0195595 4.08618e-18)
(1.11111 0.0688587 2.43007e-17)
(1.01497 0.0126773 -4.51783e-18)
(1.00357 0.00611395 -5.65587e-18)
(1.03107 0.0151772 5.07881e-18)
(1.00461 0.00250377 -1.04563e-17)
(0.899039 0.0287064 1.41299e-16)
(1.04087 0.00207982 -3.7503e-19)
(0.993202 0.0184723 3.14164e-18)
(1.03321 0.019826 4.09037e-18)
(1.03617 0.0374668 -1.02854e-17)
(1.00001 3.53662e-05 -4.34062e-18)
(1.03685 0.0376277 -3.41327e-18)
(0.992187 0.0181771 1.4429e-17)
(1.04111 0.00725644 3.92354e-18)
(1.00564 0.00399716 7.55203e-18)
(1.00001 3.4467e-05 4.9065e-19)
(1.04545 0.0156209 -7.92242e-18)
(1.04528 0.0160068 -7.05848e-18)
(1.06332 0.120318 -8.67623e-18)
(0.842717 0.0845669 9.1408e-17)
(0.999963 4.01738e-05 1.91469e-17)
(1.00395 0.00599297 2.59546e-19)
(0.999173 0.0100929 -6.21015e-18)
(1.00419 0.00589027 6.32352e-18)
(0.981715 0.00144031 2.51703e-17)
(0.946466 0.0600302 8.39692e-18)
(1.00559 0.00388244 4.59027e-18)
(1.03834 0.00634338 -2.49165e-18)
(0.451178 0.369089 -1.81392e-16)
(1.00522 0.00228822 -7.08837e-18)
(1.00001 4.66441e-05 -3.51931e-18)
(0.98144 0.00102959 -1.81587e-16)
(1.01741 6.15982e-05 -8.1213e-18)
(1.00109 0.0866616 1.45033e-17)
(1.00271 0.00677266 -8.16266e-18)
(1.00297 0.00638987 -1.07746e-17)
(1.00004 1.44412e-06 -3.86054e-19)
(1.0385 0.0401182 -5.25182e-18)
(0.992554 0.0236976 5.08265e-18)
(1.0007 0.0104082 4.62236e-18)
(0.993996 0.0211702 -9.01634e-18)
(1.00001 2.13254e-05 -1.32784e-18)
(1.03207 0.0159715 2.07832e-19)
(1.00067 0.0104079 -1.2264e-18)
(0.635085 0.25523 9.47002e-17)
(1.00007 4.09803e-05 -5.24462e-19)
(1.02452 0.00278365 -3.60579e-18)
(1.00018 0.00789829 -9.38464e-18)
(0.985578 0.159659 4.47801e-17)
(1.00385 0.0482382 -1.00558e-17)
(1.08829 0.122786 -2.07207e-17)
(0.999875 5.01395e-05 7.01858e-17)
(1.04151 0.0061149 1.43541e-18)
(1.00402 0.00107292 -5.12836e-18)
(1.03488 0.000490651 -6.22365e-19)
(1.04295 0.012823 5.23138e-18)
(0.985291 0.000471988 -7.02684e-17)
(0.996804 0.000660773 4.53132e-17)
(1.00239 0.00617175 4.09832e-18)
(0.487357 0.445687 8.25066e-17)
(1.23504 0.137855 6.30926e-17)
(0.999989 5.5567e-06 2.30469e-18)
(1.00556 0.00307638 -2.85015e-19)
(0.378281 0.294506 2.13248e-16)
(0.498308 0.0109603 6.71036e-17)
(0.993459 0.0189792 1.43901e-17)
(1.00335 0.0470211 -1.55674e-17)
(1.0014 0.0820035 1.7468e-17)
(1.03423 0.0185667 4.91848e-18)
(0.972976 0.000874411 2.64787e-16)
(1.34474 0.369952 3.94684e-17)
(1.11614 0.0475939 2.78468e-17)
(1.00334 0.0511306 -1.35176e-17)
(1.00549 0.00265131 -2.46988e-18)
(1.03771 0.00795716 -4.44226e-18)
(1.03297 0.0102296 3.1393e-18)
(0.987868 0.0271538 1.47574e-18)
(1.03234 0.0132799 -4.85487e-18)
(1.00243 0.00644404 8.42348e-18)
(1.00572 0.00342878 6.8626e-18)
(1.00005 3.15046e-05 5.00847e-19)
(1.00554 0.00273871 -4.28755e-18)
(1.16734 0.101024 6.44212e-18)
(1.00511 0.051526 -2.077e-18)
(1.00038 0.000134579 -5.87751e-20)
(0.999998 5.55074e-05 1.49497e-17)
(1.03474 0.0183991 3.35918e-18)
(1.00749 0.00136298 -1.12291e-17)
(0.990941 0.00054452 1.8247e-16)
(1.02302 -0.000488845 -1.34356e-19)
(1.00001 2.70771e-05 -3.17177e-18)
(1.00112 0.0760435 1.95296e-18)
(1.00001 1.35585e-05 1.47174e-17)
(1 -1.66486e-05 -1.63909e-18)
(0.999447 9.49739e-05 -8.60669e-17)
(1.03946 0.00621232 -4.67927e-19)
(1.00411 0.00239208 -1.81272e-18)
(1.41674 0.427543 2.36475e-17)
(1.00022 -4.00561e-05 -4.291e-18)
(1.00028 9.78769e-05 5.62934e-18)
(1.02126 0.00100156 -7.1986e-19)
(1.00418 0.000718933 -2.51794e-18)
(0.946148 0.0667514 -4.04789e-17)
(0.998999 0.00959622 1.44358e-18)
(0.998995 0.00029444 -9.51299e-17)
(0.999971 4.56425e-05 -6.79418e-18)
(1.1545 0.0873033 -1.19026e-17)
(1.00235 0.0799426 3.0737e-17)
(0.999969 4.21281e-05 8.35791e-19)
(1.00371 0.00608815 -4.76761e-18)
(0.999758 0.00878901 6.08887e-19)
(1.00458 -0.000738572 6.98252e-19)
(1.00281 -0.000292344 -2.06145e-18)
(1.0034 0.000276681 4.3237e-18)
(1.00435 0.000832516 4.98812e-18)
(0.995432 0.00144082 9.47716e-18)
(0.819705 0.0646118 -5.59409e-17)
(1.00457 0.000622728 1.2035e-17)
(0.997799 6.94242e-05 1.2803e-17)
(0.986062 0.00106755 -2.06621e-16)
(1.02538 0.0271602 1.42754e-17)
(1.0994 0.0461576 4.78412e-17)
(1.00526 0.00036751 -4.90011e-18)
(0.989631 0.0254722 -1.99076e-17)
(0.577025 0.057074 9.26586e-17)
(0.999992 1.64694e-05 -2.87449e-18)
(1.02745 0.0127597 -3.84816e-18)
(1.00043 0.000126662 -3.78693e-18)
(1.01434 0.01322 -6.03889e-18)
(1.00029 0.000120811 4.99868e-18)
(1.00542 -0.000518738 3.5001e-18)
(0.797638 0.0404439 2.22397e-16)
(1.02792 0.0142551 2.71135e-18)
(0.82483 0.0900941 -1.50987e-16)
(0.991245 0.000407424 2.48854e-17)
(1.00054 0.00820843 -6.87811e-18)
(1.03625 0.00230009 2.58327e-19)
(1.03976 -0.0010889 -1.34541e-18)
(1.00064 0.00782479 -5.68097e-18)
(1.03587 0.0052758 -1.17518e-18)
(1.0362 0.00288339 9.24507e-19)
(1.00075 0.000221959 -4.57506e-18)
(0.999585 0.000428227 1.52643e-17)
(0.999577 0.000403602 1.045e-17)
(0.999556 0.00043942 3.27636e-17)
(0.999548 0.000378717 1.4488e-17)
(0.690145 0.279505 -9.2565e-18)
(1.00003 4.85294e-05 2.46317e-18)
(0.939351 0.081674 -3.81565e-17)
(1.04192 0.00379935 1.3469e-19)
(0.992856 0.025625 1.28289e-17)
(1.03305 0.0133641 -4.80636e-19)
(1.02842 0.0153538 1.18959e-18)
(1.02095 0.00234077 -3.82022e-18)
(1.01361 0.0124636 -1.44388e-18)
(1.02879 0.0147578 -8.94558e-18)
(1.01337 0.0124485 2.67681e-18)
(0.991252 0.026919 1.69644e-17)
(1.02733 0.028601 9.38679e-18)
(1.02666 0.0325716 6.73517e-20)
(0.956186 0.0507272 1.48727e-17)
(0.981106 0.00225694 -1.3378e-17)
(1.03291 0.0803311 5.20484e-18)
(0.983172 0.00184476 -3.24415e-17)
(0.982493 0.000981393 2.07641e-16)
(1.03061 0.0156033 1.67894e-18)
(0.941541 0.0968312 2.44933e-17)
(1.00312 0.00269277 -1.12982e-17)
(0.999622 9.52899e-05 -4.00242e-17)
(1.01613 0.0117387 -2.48975e-19)
(0.999674 4.36262e-05 -7.60288e-18)
(1.00342 0.00317352 -2.8638e-18)
(0.759187 0.0178052 -6.95196e-17)
(0.140067 0.105129 -1.59846e-16)
(1.00326 0.00293839 1.19865e-17)
(0.999983 2.96217e-06 -4.43391e-17)
(1.0002 2.46964e-05 -1.81783e-18)
(0.999987 2.43735e-05 3.30013e-18)
(1.02878 0.0133539 -8.2232e-18)
(0.999999 2.82884e-05 -4.35614e-18)
(0.999994 2.01031e-05 -1.03531e-19)
(1.12078 0.0692185 1.33617e-17)
(1.03333 0.0114293 5.16627e-19)
(1.0837 0.173058 3.35979e-17)
(1.00156 0.00326508 4.12381e-18)
(1.0359 0.013143 2.63044e-18)
(1.0069 0.00101523 -2.04499e-18)
(1.00016 0.00879404 -2.35968e-18)
(1.0318 0.0288691 7.06318e-18)
(1.01636 0.0111148 -2.55178e-19)
(0.934707 0.00378524 -1.42391e-16)
(1.01621 0.0103588 3.32464e-18)
(1.00297 0.00258284 8.4609e-19)
(1.00049 0.000238438 -5.08939e-18)
(1.03392 0.0104014 1.58484e-18)
(1.03603 0.0135871 1.19923e-18)
(1.00568 0.00113671 -1.15653e-17)
(0.707108 0.0197123 1.30211e-16)
(1.032 0.0280533 1.68554e-18)
(1.0373 9.726e-05 1.38378e-18)
(0.998088 0.034786 -5.69974e-18)
(1.0014 0.0418833 2.04047e-17)
(0.999996 0.000119484 5.64077e-18)
(0.419838 0.563924 -1.79969e-16)
(1.03452 0.0824185 -1.91823e-18)
(1.00121 0.00350622 -1.95532e-18)
(0.971058 0.182216 3.17362e-17)
(0.984793 0.00113879 2.08394e-16)
(0.999976 6.5607e-05 5.73835e-20)
(1.00001 3.10273e-05 -7.77733e-19)
(0.999995 4.79422e-05 -7.64194e-19)
(1.09016 0.170207 4.05055e-17)
(0.946417 0.0961677 -1.42594e-17)
(0.988334 0.0284411 -9.37576e-18)
(1.02833 0.0109017 4.97176e-20)
(1.03824 -0.00200223 -1.8119e-18)
(0.999166 0.011021 -7.55174e-18)
(0.935888 0.00968211 8.99523e-17)
(0.998906 0.0349065 -3.6861e-19)
(1.04686 0.0176948 -8.84922e-18)
(1.11307 0.0405537 1.64695e-17)
(0.714783 0.0436978 -6.69682e-17)
(0.993934 0.0256666 -3.86793e-18)
(0.955579 0.0538216 -8.77983e-18)
(1.01878 0.000953675 4.52269e-18)
(1.02542 0.0381918 9.21805e-19)
(1.01192 0.0112528 9.19065e-19)
(1.0165 0.0121411 -1.09628e-18)
(0.998271 0.000240059 -8.20871e-17)
(1.01206 0.0112184 -3.09613e-18)
(1.0312 0.0124916 3.9874e-18)
(0.999994 1.26172e-05 -4.71236e-18)
(0.665789 0.00454221 2.40167e-17)
(0.990482 0.00108933 -2.94656e-16)
(1.05536 0.00628281 2.61271e-18)
(1.03683 0.0108685 -1.63124e-18)
(0.993472 0.00116229 6.34743e-17)
(0.950991 0.0586425 1.67543e-18)
(1.17294 0.252154 -3.2072e-17)
(1.02939 0.015831 -4.9385e-18)
(1.00865 0.0161474 -1.40162e-18)
(1.03731 -0.000180094 -2.39617e-19)
(1.03702 0.011316 -1.02283e-18)
(1.02892 0.0333272 4.9777e-18)
(1.00445 0.00277632 3.41826e-18)
(1.00001 -9.41871e-07 2.64945e-18)
(0.994325 0.0703385 1.85543e-17)
(1.00025 9.93034e-05 1.95669e-18)
(1.05074 0.0198474 -2.50965e-18)
(1.00265 4.36774e-05 -2.56249e-18)
(0.967163 0.00307922 1.44048e-16)
(0.962565 0.0406823 1.42757e-17)
(1.0109 0.000175176 4.57354e-18)
(1.09715 0.118924 2.0286e-17)
(0.943564 0.0682704 9.94188e-18)
(0.994606 0.0174344 2.52865e-17)
(1.00094 0.00396365 3.49983e-18)
(0.576486 0.104879 -5.57281e-16)
(1.00068 0.000129414 -5.83225e-18)
(1.0014 0.00301978 4.43326e-18)
(1.04293 0.0424172 -1.37812e-17)
(0.999981 3.78814e-05 3.67222e-17)
(1.00119 0.00410203 1.0212e-17)
(1.0016 0.00270356 1.25914e-19)
(0.737645 0.220934 2.96261e-17)
(0.681299 0.457453 -1.53028e-16)
(0.998405 0.0116619 8.59634e-18)
(1.00146 0.00015098 6.25476e-19)
(0.937617 0.0343077 5.75033e-17)
(0.999826 0.0419449 7.69968e-18)
(1.02798 0.0114769 -5.38176e-18)
(1.0317 0.0163487 7.57797e-19)
(1.03298 0.0117806 6.50762e-19)
(1.0008 -0.000110483 -2.53482e-19)
(0.999995 3.79752e-05 -6.25174e-18)
(1 0.0373832 -1.43022e-17)
(0.999993 8.34447e-06 -3.60731e-19)
(0.963207 0.0438376 6.8989e-18)
(1.02795 0.0114305 -7.30317e-18)
(1.02564 0.0359828 1.38184e-18)
(0.996785 0.00070024 -6.4372e-18)
(0.996734 0.0678797 1.80424e-17)
(1.04484 0.0422585 1.25705e-18)
(0.997906 8.65652e-05 1.79752e-17)
(1.00149 0.0114905 -1.7556e-17)
(1.006 0.00178462 -5.8181e-18)
(0.929354 0.0466864 -4.54691e-17)
(1.04296 0.0429554 -2.01064e-18)
(0.999978 6.28251e-05 6.4277e-18)
(1.0008 0.0391101 3.15314e-18)
(1.03326 0.00890736 -4.43584e-19)
(1.01717 0.00119956 -6.1272e-18)
(0.999331 0.0403599 -8.58506e-18)
(1.00282 -0.000437395 -1.27468e-18)
(0.929622 0.0929082 4.74326e-18)
(1.02857 0.00289434 -2.99793e-18)
(1.03744 0.00904793 -1.51296e-18)
(1.0268 0.0329475 -9.70774e-18)
(1.00086 0.000131853 6.50783e-18)
(1.00126 0.0117325 -1.40868e-17)
(1.05294 0.0617072 -7.0339e-18)
(1.05212 0.0169444 -6.33099e-19)
(1 2.60846e-05 -6.57824e-18)
(1.01137 0.0165162 7.27483e-18)
(0.985274 0.1716 1.78765e-18)
(1.03896 0.00220972 -3.42393e-18)
(0.498577 0.482797 2.75588e-17)
(1 3.4908e-05 8.02522e-19)
(1.00254 0.000426102 9.22859e-18)
(1.00069 0.000227228 4.28491e-18)
(1.03162 0.0150256 4.16797e-19)
(0.994627 0.0190626 -1.33911e-17)
(0.995833 0.013539 2.00822e-17)
(1.00317 3.42491e-05 1.31358e-17)
(0.998731 0.0370587 7.69151e-18)
(1.0171 0.0128841 5.8793e-18)
(0.973194 0.0045767 9.8995e-17)
(1.00886 0.00101082 1.16787e-19)
(1.08158 0.0901187 -1.41416e-17)
(1.00033 6.45214e-05 -8.21391e-19)
(1.08608 0.108069 3.3298e-19)
(1.00142 4.80802e-05 -2.04776e-18)
(0.637537 0.63053 7.82961e-17)
(1.02982 0.00284921 -4.21103e-18)
(1.05067 0.0651892 -1.76052e-17)
(0.999857 2.9543e-05 -2.15306e-16)
(0.997001 0.000770655 2.96863e-17)
(1.02585 0.0279347 1.59205e-17)
(1.00404 0.00217155 3.24113e-18)
(0.999104 0.000160158 -2.07162e-16)
(0.992183 0.000286203 3.48729e-17)
(0.994274 0.0210074 1.52623e-17)
(0.994271 0.0202727 4.89301e-17)
(0.966566 0.160443 2.22635e-17)
(1.03366 0.0329845 -6.81732e-18)
(1.03412 0.0322249 -6.45942e-18)
(1 1.28546e-05 -1.91679e-18)
(1.0043 0.00206169 3.09745e-18)
(1.02784 0.0130204 -3.35523e-18)
(1.05116 0.0166522 2.72237e-18)
(1.00001 -1.54666e-06 1.41129e-18)
(1.00036 -1.4492e-05 2.68005e-18)
(1.03377 0.00932717 3.17178e-18)
(1.00072 0.00014979 -1.31757e-18)
(0.80353 0.0488988 -4.41933e-16)
(1.16702 0.259065 -1.50735e-19)
(1.0711 -0.00783763 1.28392e-17)
(1.00001 1.7344e-05 4.2058e-20)
(1.00666 0.00937662 1.08291e-18)
(1.04324 0.0127765 1.18247e-18)
(0.995414 0.0147321 4.22462e-19)
(1.00436 0.000801953 5.02854e-18)
(0.350717 0.667466 1.29701e-16)
(1.00035 9.62266e-06 -1.58826e-18)
(0.927474 0.0755616 5.67873e-17)
(0.959215 0.0486067 1.2859e-17)
(1.00724 0.00949906 -2.54798e-18)
(1.004 0.000820633 8.17338e-19)
(0.998938 0.00020682 -1.27103e-16)
(1.01079 0.000328824 -3.15568e-19)
(1.04241 0.00382441 1.32382e-18)
(1.01715 0.00860736 -5.68731e-18)
(0.996967 0.0118467 6.43213e-18)
(0.999997 1.14169e-05 1.33817e-19)
(0.999994 1.89351e-05 -3.95672e-17)
(0.994676 0.0173638 2.17013e-17)
(0.9965 0.00138653 2.80443e-17)
(0.992482 0.0610623 -1.00116e-17)
(1.03232 0.0131837 -2.1365e-18)
(0.999405 -1.934e-05 -3.6982e-17)
(1.00033 0.000230409 6.19519e-19)
(1.02751 0.0302158 1.36882e-17)
(0.686576 -0.0102042 9.82178e-17)
(0.997785 0.000216027 5.70981e-17)
(1.04667 0.0169395 -1.36125e-18)
(1.00017 1.52694e-05 5.54955e-19)
(0.996495 0.0116326 1.53291e-17)
(0.951095 0.0828032 -8.0775e-18)
(1.04026 0.00216157 -2.28161e-18)
(1.04287 0.0123156 2.80827e-18)
(0.9516 0.0563466 2.52875e-17)
(1.00235 0.0192754 -1.94645e-17)
(1.04162 0.00555473 2.53669e-18)
(1.00001 3.93614e-05 -9.29761e-19)
(0.999932 2.24717e-05 1.53108e-16)
(1.03794 0.00364123 -1.38165e-18)
(1.0107 0.00998963 -8.10009e-18)
(1.00295 0.019412 -8.96347e-18)
(1.011 0.00991271 -5.2736e-18)
(0.999994 4.71253e-05 9.75643e-19)
(1.00038 0.00020872 2.55053e-18)
(1.00382 0.00063922 -1.72855e-17)
(0.999235 0.0301447 -1.99098e-18)
(1.04205 0.00724635 9.63324e-19)
(0.94387 0.0396631 -7.17473e-18)
(0.9901 0.000939288 -2.09617e-16)
(0.927119 0.0368395 -1.70772e-16)
(1.03097 0.01464 -4.53408e-18)
(1.00854 0.0177904 -1.07012e-18)
(0.935599 0.0464363 -4.36897e-17)
(0.985543 0.0211833 -1.67761e-17)
(1.05151 0.00480199 6.78855e-18)
(1.03281 0.0126559 -9.60885e-19)
(0.98557 0.0211935 6.28976e-18)
(0.993381 0.0587417 4.86607e-18)
(0.999896 8.34584e-05 -5.1269e-18)
(1.00934 0.0662151 -5.69804e-19)
(1.02679 0.0277133 1.36668e-17)
(1.00001 -1.06229e-05 2.03987e-18)
(0.999991 4.77828e-06 5.04651e-17)
(1.00075 -8.18083e-05 1.45204e-18)
(0.999747 0.000285938 1.00452e-17)
(1.06359 0.0708617 4.00031e-19)
(1.01069 0.0169364 -5.91307e-18)
(1.01378 0.000602757 -1.92077e-18)
(0.940798 0.0437274 5.49234e-17)
(0.99208 0.000255556 8.88513e-17)
(0.791552 0.0195558 1.50188e-16)
(1.0389 0.00226402 -1.63981e-18)
(1.04112 0.00460482 1.2401e-18)
(1.00386 -0.000354546 4.27633e-19)
(1.04956 0.0416731 4.88838e-18)
(1.00001 3.81793e-05 -1.08058e-17)
(0.998479 0.0301914 -1.00846e-17)
(1.00048 0.00380981 -3.55348e-18)
(0.935662 0.1121 3.0268e-17)
(0.932234 0.0511588 8.48387e-17)
(1.00197 0.0164703 1.28207e-17)
(1.01709 0.0122515 1.00017e-18)
(0.422167 0.666613 8.61213e-17)
(1.03048 0.0133205 -1.65073e-18)
(1.04227 0.0625869 -8.52253e-18)
(1.00962 0.0128199 -7.48011e-18)
(0.976197 0.149949 5.2588e-17)
(1.15459 0.213934 -2.38977e-17)
(1.0011 -0.000201778 7.57579e-18)
(0.99826 0.00345439 -8.1449e-18)
(1 1.08097e-05 1.20911e-18)
(1.05773 0.0661561 -6.31313e-18)
(0.998437 0.00319259 -3.67372e-18)
(1.01637 0.0102966 1.05573e-18)
(1.09602 0.11579 -1.3769e-17)
(1.00033 0.000178548 2.98456e-18)
(0.971334 0.0027922 4.53422e-17)
(0.990815 0.0521008 9.23812e-18)
(1.00688 0.0154997 1.43853e-17)
(0.997453 0.000246723 -1.8236e-16)
(1.00168 0.0174867 6.27012e-19)
(0.999355 0.000922347 -1.74874e-18)
(0.994754 0.0159782 -8.72889e-18)
(0.999373 0.000711272 7.89405e-18)
(0.999369 0.00101823 5.57759e-19)
(0.99521 0.0138092 -2.06574e-17)
(1.0382 0.00755378 8.67205e-18)
(1.03526 0.00919603 -2.30606e-18)
(1.00684 0.0171369 4.49937e-18)
(0.664709 0.0455127 -1.72157e-16)
(1.0418 -0.00188262 -6.04423e-19)
(0.283898 0.24172 -1.78299e-16)
(1.0299 0.015524 -7.34e-18)
(1.02261 -0.000741207 -1.72011e-18)
(0.995132 0.0146594 9.69231e-18)
(1.02862 0.0153298 -4.97074e-18)
(0.992227 0.0265089 1.81407e-18)
(1.03496 -0.000418908 -7.51133e-19)
(0.572111 0.382642 -5.50608e-17)
(0.948817 0.0342666 2.15905e-17)
(0.993126 0.025097 3.4921e-18)
(1.00451 0.0233182 -1.05462e-17)
(0.995054 0.00100688 3.79432e-17)
(0.996364 0.000955714 -8.15171e-18)
(1.02633 0.0304738 8.47362e-18)
(0.999997 2.05749e-05 6.15666e-19)
(1.0574 -0.0195393 1.13351e-18)
(0.999499 8.83857e-06 1.23873e-17)
(0.947013 0.0392774 -3.43299e-17)
(0.998924 0.0741765 3.60179e-18)
(1.06285 0.0640097 -9.05555e-18)
(1.0395 0.0262519 -7.00846e-19)
(1.03513 0.0152866 5.78828e-18)
(0.992356 0.0506465 2.54164e-17)
(1.00917 0.0132336 7.43597e-19)
(1.03886 0.0267753 3.51576e-19)
(0.970396 0.0300264 -8.82376e-18)
(1.04137 0.0633476 -2.04148e-18)
(1.00794 0.0228655 -7.55063e-18)
(1.04495 0.0409006 1.35498e-18)
(1.00531 0.0235925 -1.21312e-17)
(1.00001 1.798e-05 -1.56534e-18)
(0.99844 0.0262278 -7.63334e-18)
(0.635904 0.0502206 1.52154e-17)
(0.972763 0.135088 4.44728e-17)
(1.00656 0.00561772 1.94962e-19)
(1.00005 5.26781e-06 -1.29837e-18)
(0.999325 0.000176932 9.34577e-18)
(0.994551 0.00768869 1.97746e-17)
(0.967262 0.00266355 9.45766e-17)
(1.03499 0.00785218 4.44273e-18)
(1.03046 0.000614483 -1.11359e-18)
(1.00081 -6.85715e-05 1.86577e-18)
(1.00492 0.00688153 -8.55764e-18)
(0.993239 0.0272757 -1.22043e-17)
(1.00651 0.00540891 -1.27416e-18)
(1.00884 0.00151993 5.34526e-18)
(1.04558 0.0365236 6.40314e-18)
(0.993734 0.00138838 -6.4608e-18)
(0.991483 0.0355925 2.1401e-17)
(1.03689 0.0161561 1.48889e-18)
(1.00513 0.00649266 1.39079e-17)
(1.00783 0.00681185 -5.44773e-18)
(0.940943 0.0638286 3.54749e-17)
(1 -1.09298e-05 1.18854e-18)
(0.99346 0.00546222 6.17339e-18)
(1.28512 0.181172 2.12482e-17)
(0.999878 2.07781e-05 -1.76038e-16)
(1.04082 0.0395918 -4.12663e-18)
(0.996052 0.0742619 -4.46736e-19)
(1.00768 0.0067671 -1.16986e-18)
(0.959207 0.0446831 1.24145e-17)
(1.03681 0.0161998 3.11911e-18)
(0.997888 0.0261906 -3.23792e-18)
(1.02892 0.0350552 -4.93026e-18)
(0.999686 0.00313919 3.45707e-18)
(0.934797 0.0377271 4.70041e-17)
(1.00513 0.00119555 8.19943e-18)
(1.03408 0.00169204 1.60359e-19)
(1.03558 0.0159407 6.79786e-18)
(0.935914 0.0419639 -8.12015e-17)
(0.99982 0.00328251 -3.4311e-20)
(1.04186 0.00647919 3.0908e-18)
(1.05337 0.0238767 -7.04664e-18)
(0.992069 0.0346952 -1.104e-19)
(1.00612 0.0135344 -4.02903e-19)
(1.00462 0.00295819 -6.36159e-19)
(1.01106 0.0653809 1.3581e-17)
(0.791511 0.205812 4.36853e-17)
(0.995606 0.000884436 9.3879e-17)
(0.999964 3.25129e-05 4.28669e-17)
(0.993997 0.0257356 -1.37676e-17)
(0.99999 3.04735e-06 -3.30575e-18)
(1.15453 0.210749 1.39322e-17)
(1.00669 0.0228461 -4.62681e-18)
(1.03584 0.0903584 -9.9694e-18)
(1.01619 0.00759403 -1.02467e-17)
(1.02855 0.000245573 -2.13088e-18)
(0.253634 0.136805 -9.05018e-16)
(1.00657 0.0158784 1.45203e-17)
(1.08551 0.20193 5.00789e-17)
(1.03454 0.00841377 5.00889e-18)
(0.992942 -0.00689904 2.88644e-17)
(1.02846 0.0128845 -5.49169e-18)
(0.996697 0.012377 -7.92433e-18)
(1.00647 0.0145451 -5.78728e-18)
(1.01667 7.85071e-05 -2.53075e-18)
(1.09271 0.0953301 1.31125e-17)
(1.08192 0.0913567 -1.1122e-17)
(1.00143 9.6532e-05 -3.42785e-18)
(1.00127 -0.000231984 -2.03523e-18)
(0.92573 0.0456595 -4.01092e-17)
(1.00203 0.00013528 5.64917e-18)
(0.694487 0.399058 -7.9959e-17)
(1.02805 0.0327006 -1.98561e-18)
(0.966318 0.172226 5.2353e-18)
(1.00439 0.00307374 -5.44325e-19)
(0.0836639 0.308245 -5.36377e-16)
(1.12536 0.230512 2.63411e-17)
(1.00591 0.0229119 -9.98728e-18)
(0.999994 1.88351e-05 2.6954e-18)
(0.999931 0.00283455 -4.48022e-18)
(0.953139 0.0318288 1.66381e-17)
(0.994334 0.00803099 -9.46785e-18)
(0.989235 0.000174459 -6.4491e-17)
(0.997109 0.00976284 1.0728e-17)
(1.03124 0.0120695 2.08459e-18)
(0.972362 0.0313894 1.04973e-17)
(1.0864 -0.0211904 1.84321e-17)
(0.628262 0.0335321 -3.86269e-17)
(1.00057 -1.43209e-05 -9.88813e-19)
(0.965422 0.0360835 9.624e-18)
(1.03353 0.0299785 5.42307e-18)
(0.925643 0.0543835 3.15628e-17)
(1.00455 0.0130531 -5.35871e-18)
(0.932345 0.0770625 5.5928e-17)
(1.03746 0.00980901 -2.82923e-18)
(0.953288 0.0357424 -6.18649e-17)
(0.997333 0.000537324 -4.17335e-17)
(1.0001 1.57895e-05 3.5659e-18)
(1.03777 0.025368 1.8377e-18)
(1.04098 0.0263942 -6.43689e-18)
(1.0277 0.00202127 2.70437e-20)
(0.927484 0.0370784 -3.26468e-18)
(1.03426 0.0879284 -5.55243e-18)
(1.02223 -0.000160747 -2.55383e-18)
(0.997411 0.0246287 -1.31422e-17)
(1.00051 0.00386478 9.79328e-19)
(1.00983 0.00874086 -3.52346e-18)
(0.787894 0.0310024 -2.83247e-16)
(1.00968 0.00897104 -7.3274e-18)
(1.03502 0.0226478 2.43214e-18)
(0.982383 0.0415855 1.6854e-17)
(1.02696 0.0100782 -3.24424e-18)
(1.0114 -5.17827e-05 -1.35983e-17)
(0.996335 0.0114316 2.79953e-17)
(1.05277 0.0232939 2.45602e-18)
(1.01517 0.00724728 -1.17841e-17)
(1.00526 0.0133774 1.8711e-19)
(1.07171 -0.0335736 2.36669e-17)
(0.990551 0.0299179 -5.29811e-18)
(1.0201 0.00185932 1.901e-18)
(0.799076 0.335262 -9.6549e-17)
(1 9.04219e-06 -4.2275e-19)
(1.01544 0.00794862 -1.00538e-17)
(0.998573 0.0211572 -1.78546e-17)
(0.992274 0.00721816 6.03844e-18)
(1.00313 0.000738623 -1.79043e-18)
(0.997908 0.0246362 -5.25901e-19)
(1.00002 9.46811e-07 -1.93024e-18)
(1.04351 0.111301 1.51964e-17)
(1.00568 0.000846861 -1.86841e-18)
(0.971318 0.00446466 2.70475e-16)
(1.03528 0.0347655 -6.74481e-18)
(0.951122 0.0509603 2.90263e-17)
(1.01692 0.0096129 5.74023e-18)
(1.01654 0.00872483 -2.15724e-18)
(1.03695 0.0259153 1.18752e-18)
(1.06532 0.110225 -3.89546e-17)
(0.999865 6.40414e-05 -1.19889e-19)
(0.993023 0.000675052 -4.57156e-17)
(1.02055 -0.000151118 -5.2035e-18)
(1.10424 0.200143 7.19152e-17)
(1.03989 0.0263432 -2.06986e-18)
(0.999845 0.00299373 3.69088e-18)
(0.243392 0.103558 -9.61087e-16)
(1.00003 3.35799e-05 -1.59712e-18)
(1.0051 0.00149939 1.86517e-18)
(0.704716 0.014212 6.20922e-18)
(0.994551 0.00500237 6.7522e-19)
(0.999564 0.00345076 5.50439e-18)
(0.999571 0.00356333 -4.47205e-18)
(0.983594 0.0386301 7.14917e-18)
(0.958451 0.0290217 -5.76891e-17)
(0.999836 2.94797e-05 -1.57793e-17)
(0.993597 0.00649105 -2.9978e-18)
(0.938496 0.0691217 -5.06971e-17)
(0.998358 0.0211765 -2.37341e-18)
(0.995867 0.017533 2.23509e-17)
(0.996595 0.00951611 -5.70304e-18)
(1.00104 0.000129097 -7.23061e-19)
(0.957052 0.0304257 -5.04115e-18)
(1.06492 0.0595395 2.80169e-18)
(0.994905 0.0157523 -1.18743e-18)
(0.930603 0.032022 -8.41334e-17)
(1.03502 0.00681224 -2.14445e-19)
(1.03474 -0.000641653 -1.83662e-18)
(1.03957 0.10895 3.759e-19)
(1.03239 0.030791 7.15947e-18)
(0.996475 0.0097727 -9.00352e-18)
(1.0053 0.00157094 4.63353e-18)
(1.0842 0.108196 -8.52782e-18)
(1.03931 0.00610564 -5.13294e-18)
(0.976284 0.0256795 -8.53688e-18)
(1.00078 0.0041701 7.66208e-18)
(0.999725 0.000236651 6.87565e-18)
(0.926878 0.0133312 -5.87498e-18)
(1.04928 0.0417485 2.37153e-20)
(1.01472 0.00701115 -1.17972e-19)
(1.0113 0.0489358 7.09875e-18)
(1.01495 0.00784868 -2.98442e-18)
(0.997 0.010027 9.34017e-18)
(1.00571 0.00464009 2.45713e-18)
(0.964314 0.0361642 1.15902e-17)
(0.810188 0.0101894 5.40753e-18)
(0.291589 0.449499 2.28124e-16)
(0.966256 0.0380924 9.00008e-18)
(0.998893 0.0180388 -1.47029e-17)
(1.00568 0.00437054 -2.96111e-18)
(0.969081 0.0338917 2.91292e-17)
(0.569187 0.316184 -7.22454e-17)
(0.9352 0.0332773 -6.53383e-17)
(0.999894 0.00299819 2.82287e-18)
(1.04767 0.035041 5.83204e-18)
(1.05989 0.0741268 2.26762e-19)
(1.24962 0.289171 4.49115e-18)