/*--------------------------------*- C++ -*----------------------------------*\
  =========                 |
  \\      /  F ield         | OpenFOAM: The Open Source CFD Toolbox
   \\    /   O peration     | Website:  https://openfoam.org
    \\  /    A nd           | Version:  7
     \\/     M anipulation  |
\*---------------------------------------------------------------------------*/
FoamFile
{
    version     2.0;
    format      ascii;
    class       volScalarField;
    location    "16";
    object      T;
}
// * * * * * * * * * * * * * * * * * * * * * * * * * * * * * * * * * * * * * //

dimensions      [0 0 0 1 0 0 0];

internalField   nonuniform List<scalar> 
2413
(
1.82979
1.82152
1.8202
1.82083
1.8174
1.80869
1.79686
1.7839
1.77097
1.75909
1.75199
1.7482
1.75241
1.76907
1.79483
1.83201
1.88121
1.93459
1.99935
2.06757
1.95564
1.54914
1.39361
1.38534
1.39147
1.40214
1.41219
1.42308
1.434
1.4447
1.45541
1.46588
1.47581
1.48508
1.49356
1.50115
1.5078
1.51343
1.51851
1.52253
1.52647
1.53053
1.53359
1.53681
1.53953
1.54171
1.54357
1.54503
1.54616
1.54702
1.54756
1.54788
1.54808
1.54818
1.54846
1.54874
1.54925
1.55003
1.55104
1.55248
1.55448
1.55698
1.56001
1.56354
1.56798
1.57236
1.5752
1.57747
1.57931
1.58137
1.5837
1.58609
1.5881
1.58937
1.58986
1.58943
1.58806
1.58561
1.5823
1.57821
1.5737
1.56914
1.56495
1.56122
1.55816
1.55591
1.55455
1.55383
1.82615
1.81754
1.81596
1.81648
1.81319
1.80446
1.7922
1.77843
1.7646
1.75146
1.74187
1.73536
1.73393
1.74476
1.76453
1.7942
1.831
1.87596
1.9448
2.00143
1.89598
1.57092
1.46816
1.43045
1.40874
1.40416
1.41175
1.42189
1.4321
1.44253
1.45282
1.46289
1.47243
1.48142
1.48966
1.49717
1.50411
1.51
1.51578
1.5203
1.52484
1.52906
1.53244
1.53598
1.53864
1.54099
1.54304
1.54456
1.54584
1.54684
1.54756
1.54805
1.54833
1.54846
1.54861
1.54877
1.54916
1.54987
1.55082
1.55221
1.55413
1.55659
1.55958
1.56302
1.56721
1.57118
1.57354
1.57543
1.57693
1.57863
1.58077
1.58317
1.5855
1.58733
1.58848
1.58889
1.58873
1.58752
1.58537
1.58214
1.57811
1.57367
1.56922
1.56512
1.56149
1.55844
1.5561
1.5545
1.82123
1.81161
1.8091
1.80893
1.80555
1.79663
1.78321
1.76707
1.75014
1.73333
1.71787
1.70542
1.69952
1.69971
1.7129
1.73494
1.76103
1.79192
1.83826
1.86945
1.77607
1.57685
1.54743
1.5172
1.47808
1.44302
1.42482
1.42402
1.43085
1.44145
1.45291
1.46346
1.47308
1.48212
1.49034
1.49797
1.50483
1.51052
1.51605
1.5207
1.52505
1.5287
1.53259
1.53573
1.5383
1.54092
1.54287
1.54465
1.54617
1.54738
1.54844
1.54926
1.54997
1.5505
1.55083
1.551
1.55115
1.55159
1.55222
1.55322
1.55467
1.55666
1.55918
1.56219
1.56569
1.56871
1.5701
1.57125
1.57208
1.57291
1.57437
1.57654
1.57929
1.58222
1.58499
1.58729
1.58916
1.59037
1.59086
1.59015
1.58841
1.58527
1.58106
1.57649
1.57189
1.5675
1.56352
1.56004
1.81315
1.80224
1.79855
1.7976
1.79425
1.78492
1.76921
1.74853
1.72585
1.70364
1.68218
1.66313
1.64964
1.64353
1.6449
1.6576
1.67449
1.69737
1.72283
1.72395
1.65763
1.56444
1.56435
1.55287
1.53919
1.51438
1.47492
1.4428
1.42811
1.43069
1.43752
1.44917
1.46005
1.47003
1.47905
1.48742
1.49481
1.5016
1.50775
1.513
1.51805
1.52253
1.52679
1.53026
1.53372
1.5365
1.53913
1.54156
1.5437
1.54561
1.54735
1.54885
1.55014
1.55126
1.55224
1.55334
1.55431
1.55525
1.55618
1.55706
1.55813
1.55944
1.56109
1.5632
1.5656
1.56771
1.5683
1.56852
1.56814
1.56792
1.56821
1.56932
1.57155
1.57474
1.57881
1.58325
1.58761
1.59153
1.59513
1.59806
1.59947
1.59952
1.59794
1.59415
1.58943
1.58369
1.57759
1.57158
1.80288
1.79041
1.78518
1.78321
1.77949
1.76939
1.75107
1.72552
1.69647
1.66876
1.64187
1.61715
1.59694
1.58413
1.57946
1.58053
1.5916
1.60838
1.61986
1.60399
1.55228
1.51505
1.52713
1.53868
1.54609
1.54113
1.52132
1.49577
1.45844
1.43337
1.42252
1.42588
1.43461
1.44514
1.45466
1.46355
1.47163
1.479
1.48572
1.49188
1.4977
1.50298
1.50799
1.51266
1.51695
1.52105
1.52494
1.52877
1.53251
1.53618
1.53973
1.54316
1.54632
1.54918
1.55176
1.55419
1.5563
1.55813
1.55984
1.56139
1.56275
1.56392
1.565
1.56615
1.56732
1.56832
1.56849
1.56802
1.56726
1.56645
1.56586
1.56565
1.56617
1.56804
1.57165
1.57677
1.58289
1.58918
1.5952
1.60104
1.60618
1.61022
1.61214
1.61222
1.60969
1.60483
1.59827
1.59047
1.79078
1.77622
1.76874
1.76538
1.76101
1.75033
1.73016
1.70084
1.66619
1.63262
1.60115
1.57235
1.54832
1.53097
1.52065
1.51762
1.52408
1.53611
1.53934
1.52831
1.49807
1.48061
1.48883
1.49822
1.50943
1.51957
1.52509
1.51713
1.4938
1.46364
1.432
1.41404
1.41113
1.41646
1.42529
1.43431
1.44303
1.45095
1.45821
1.46496
1.47132
1.47743
1.48329
1.48887
1.49427
1.49949
1.50467
1.50976
1.51487
1.52008
1.52528
1.53054
1.5359
1.54114
1.54596
1.55016
1.55393
1.55727
1.56026
1.56285
1.56494
1.56653
1.56769
1.56846
1.56904
1.56925
1.56893
1.56825
1.56758
1.5668
1.56607
1.5654
1.56504
1.56529
1.56693
1.57047
1.57602
1.5832
1.59127
1.59927
1.60691
1.61385
1.61952
1.62354
1.62494
1.62355
1.61903
1.61216
1.7775
1.76019
1.74967
1.7444
1.73906
1.72819
1.70753
1.67662
1.63888
1.6008
1.56623
1.53531
1.5091
1.48877
1.47628
1.472
1.475
1.48256
1.48572
1.48319
1.47385
1.47024
1.47713
1.48424
1.49262
1.50111
1.50823
1.51081
1.51202
1.49767
1.46767
1.43463
1.41113
1.4034
1.40865
1.41649
1.42459
1.43234
1.43951
1.44606
1.45227
1.45835
1.46432
1.47025
1.47611
1.48192
1.48756
1.49302
1.49821
1.50325
1.50823
1.51347
1.51906
1.52517
1.53127
1.53731
1.54301
1.54821
1.55286
1.55705
1.56088
1.5642
1.56686
1.56847
1.56932
1.56946
1.56902
1.56842
1.56793
1.56748
1.56698
1.56642
1.56594
1.56569
1.56589
1.5675
1.57086
1.57634
1.58371
1.59268
1.60253
1.61202
1.62037
1.62718
1.63211
1.63466
1.63462
1.63103
1.76382
1.74368
1.7293
1.72133
1.71459
1.70385
1.68414
1.65389
1.61595
1.5762
1.53973
1.50702
1.47918
1.45802
1.44509
1.44104
1.44389
1.45024
1.4573
1.46236
1.46512
1.47394
1.4878
1.50071
1.51066
1.51708
1.52163
1.52522
1.52718
1.52522
1.51658
1.4911
1.4535
1.42556
1.41676
1.41855
1.42379
1.43032
1.43679
1.44256
1.44792
1.45311
1.4583
1.46353
1.46881
1.47403
1.47917
1.48412
1.4887
1.49278
1.4969
1.50099
1.50493
1.50901
1.51363
1.51905
1.52508
1.53112
1.53694
1.54248
1.5478
1.55286
1.55751
1.5611
1.56365
1.56529
1.5661
1.56641
1.56654
1.5667
1.56693
1.56711
1.56714
1.56704
1.56693
1.56727
1.56865
1.57182
1.57697
1.58436
1.59371
1.60446
1.61545
1.62514
1.63281
1.63838
1.64141
1.6422
1.75014
1.72774
1.70903
1.69729
1.6886
1.67795
1.66001
1.63236
1.59675
1.55836
1.52157
1.48796
1.46008
1.43874
1.42611
1.42249
1.42492
1.43242
1.44405
1.45824
1.47612
1.49916
1.52416
1.5463
1.56313
1.5747
1.58135
1.58334
1.58212
1.58083
1.57397
1.56042
1.53506
1.4971
1.46576
1.45548
1.45438
1.45672
1.46097
1.46503
1.4683
1.47109
1.47372
1.47637
1.47905
1.48171
1.48428
1.48671
1.48908
1.49158
1.49422
1.49667
1.4987
1.5003
1.50167
1.50371
1.50715
1.51142
1.51628
1.52127
1.52638
1.53162
1.53702
1.54221
1.54704
1.55144
1.55491
1.55743
1.55928
1.56103
1.5629
1.56469
1.56621
1.56725
1.56767
1.56775
1.56822
1.56976
1.57281
1.57771
1.58475
1.59421
1.60554
1.61735
1.62823
1.63676
1.64257
1.64576
1.73655
1.71309
1.69026
1.67377
1.66248
1.65143
1.63527
1.61121
1.57983
1.54457
1.50926
1.47671
1.44897
1.42799
1.41602
1.4128
1.41557
1.42469
1.44111
1.46714
1.50421
1.54643
1.58637
1.61926
1.64414
1.66213
1.67305
1.67796
1.67813
1.67122
1.66015
1.64897
1.63296
1.6035
1.56203
1.53126
1.52132
1.51637
1.51515
1.51547
1.51526
1.51421
1.5129
1.5117
1.51062
1.50954
1.50824
1.5067
1.5051
1.50369
1.50236
1.50107
1.50001
1.49916
1.4982
1.49708
1.49604
1.49605
1.49747
1.49983
1.50286
1.5065
1.51077
1.51575
1.52119
1.52698
1.53258
1.53757
1.54202
1.54634
1.5508
1.55541
1.55969
1.56315
1.56539
1.56661
1.56726
1.56808
1.56988
1.57318
1.57818
1.58521
1.59456
1.60614
1.61864
1.63019
1.63934
1.64548
1.72269
1.6999
1.6742
1.6528
1.63779
1.6258
1.61032
1.58992
1.56313
1.53188
1.49965
1.46928
1.44301
1.42321
1.41224
1.40941
1.41259
1.42367
1.44742
1.48977
1.54727
1.60827
1.66284
1.70646
1.73791
1.7598
1.77282
1.77993
1.78222
1.7756
1.76297
1.74812
1.73091
1.7079
1.6706
1.62614
1.60034
1.58807
1.57954
1.5751
1.57122
1.56676
1.562
1.5574
1.55294
1.54832
1.54326
1.53784
1.53225
1.52655
1.52093
1.51525
1.50994
1.50519
1.50082
1.49645
1.49199
1.48777
1.4847
1.48303
1.48253
1.48321
1.48504
1.48811
1.49223
1.49725
1.50309
1.50929
1.51564
1.52219
1.52912
1.53648
1.54387
1.55076
1.55648
1.56065
1.5633
1.56503
1.5667
1.56913
1.57288
1.57833
1.58568
1.59531
1.60699
1.61979
1.63201
1.64181
1.70915
1.68828
1.66111
1.63522
1.61569
1.60048
1.58523
1.56766
1.54491
1.51812
1.48983
1.46253
1.43875
1.42107
1.41169
1.40942
1.41359
1.42897
1.46506
1.52608
1.60223
1.67784
1.74205
1.7914
1.82625
1.85017
1.86384
1.87036
1.87215
1.86573
1.85201
1.83415
1.81525
1.79078
1.75719
1.71072
1.66984
1.64822
1.63252
1.62238
1.61464
1.60713
1.5994
1.59187
1.58451
1.57708
1.56942
1.56186
1.55448
1.54715
1.5398
1.53207
1.52413
1.51614
1.50819
1.5003
1.49272
1.48508
1.47769
1.47149
1.46692
1.46415
1.46308
1.46332
1.46522
1.46836
1.47281
1.4786
1.48529
1.49266
1.50075
1.50965
1.51929
1.52925
1.53875
1.54698
1.55338
1.558
1.56142
1.56449
1.56805
1.5727
1.57885
1.58688
1.59703
1.60906
1.622
1.63431
1.6965
1.67883
1.65119
1.62198
1.59758
1.57801
1.56112
1.54473
1.5251
1.50269
1.47894
1.45582
1.43572
1.42097
1.41316
1.41161
1.41872
1.44302
1.49495
1.57429
1.66544
1.75019
1.81797
1.86749
1.90081
1.92379
1.93599
1.94115
1.94249
1.93565
1.92073
1.90124
1.88041
1.85518
1.82158
1.77678
1.72733
1.69512
1.67226
1.65487
1.64233
1.63082
1.61956
1.60866
1.59828
1.58837
1.57914
1.57093
1.56348
1.5563
1.54928
1.54172
1.53367
1.52504
1.51581
1.50609
1.49601
1.48567
1.47528
1.46525
1.45661
1.44986
1.44522
1.44275
1.44216
1.44307
1.44559
1.44984
1.45578
1.46289
1.47104
1.4802
1.49058
1.50205
1.51408
1.52579
1.53626
1.54488
1.55167
1.55715
1.5621
1.56721
1.57312
1.58035
1.58927
1.60004
1.61242
1.62551
1.68441
1.67051
1.64458
1.61376
1.5853
1.56078
1.54072
1.52372
1.50634
1.48789
1.4689
1.45043
1.43412
1.4222
1.41666
1.41743
1.43014
1.46702
1.53663
1.63215
1.73282
1.81979
1.88504
1.92982
1.96056
1.97959
1.98862
1.99191
1.99256
1.98634
1.97181
1.95192
1.93027
1.90624
1.87344
1.83099
1.77945
1.73979
1.70862
1.68375
1.66489
1.64774
1.6316
1.61633
1.60235
1.58987
1.57939
1.5707
1.56318
1.55669
1.5505
1.54388
1.53668
1.52864
1.51979
1.51011
1.49927
1.48745
1.47512
1.46275
1.45106
1.44084
1.43269
1.42697
1.42383
1.42277
1.42342
1.42571
1.43006
1.43623
1.44373
1.45239
1.46234
1.47377
1.48656
1.5001
1.51349
1.52575
1.53635
1.54526
1.55292
1.55995
1.56695
1.57449
1.58305
1.59297
1.6044
1.61707
1.67099
1.6612
1.64003
1.6101
1.579
1.55061
1.52704
1.50754
1.49106
1.47556
1.46085
1.44669
1.43433
1.4255
1.42238
1.42754
1.4496
1.50189
1.58903
1.6964
1.79982
1.88229
1.94055
1.97823
2.00489
2.01982
2.02559
2.02716
2.02652
2.02104
2.00758
1.98816
1.96703
1.94499
1.9159
1.87754
1.82938
1.78695
1.75009
1.71903
1.69271
1.6682
1.64494
1.62339
1.6044
1.58807
1.57383
1.56273
1.55442
1.54845
1.54371
1.53904
1.53385
1.52759
1.51997
1.51086
1.50036
1.48856
1.47567
1.46228
1.44891
1.43631
1.42536
1.4167
1.4108
1.40758
1.40665
1.40721
1.40964
1.41436
1.42074
1.42851
1.43752
1.44804
1.46024
1.47388
1.48837
1.50278
1.51634
1.5286
1.53954
1.54943
1.55864
1.5676
1.57677
1.58662
1.59753
1.6096
1.65401
1.65063
1.63515
1.60895
1.57872
1.54893
1.52237
1.50009
1.48319
1.46912
1.45705
1.44575
1.43633
1.43125
1.43186
1.44295
1.47744
1.54726
1.64954
1.76262
1.86165
1.93452
1.98318
2.01485
2.03637
2.0477
2.05119
2.05145
2.04891
2.04328
2.03023
2.01077
1.98984
1.96909
1.94462
1.91243
1.87189
1.83223
1.79539
1.76246
1.73116
1.70014
1.66862
1.63822
1.611
1.58796
1.56847
1.55128
1.53831
1.52964
1.52487
1.5222
1.52002
1.51725
1.51313
1.50693
1.49845
1.4879
1.47562
1.46219
1.44827
1.43457
1.42194
1.41125
1.40315
1.39783
1.39514
1.39447
1.39532
1.39814
1.40296
1.40945
1.41733
1.4266
1.43752
1.45022
1.46434
1.47931
1.49433
1.5088
1.52238
1.53504
1.54685
1.55798
1.56871
1.57944
1.59058
1.60244
1.63503
1.63672
1.62748
1.6064
1.57864
1.54977
1.52284
1.4999
1.48235
1.46838
1.45696
1.44719
1.44102
1.43944
1.44471
1.46521
1.5148
1.602
1.71451
1.826
1.91485
1.97583
2.01499
2.04146
2.05919
2.06794
2.07007
2.06897
2.06419
2.05655
2.04243
2.02171
1.9996
1.97855
1.95708
1.93037
1.89833
1.86526
1.83364
1.80416
1.77396
1.74189
1.70577
1.66733
1.62964
1.59584
1.56771
1.54418
1.52335
1.50807
1.49883
1.49532
1.4948
1.49499
1.49486
1.49324
1.48933
1.48276
1.47332
1.46138
1.44794
1.43413
1.42094
1.40921
1.3996
1.3926
1.38835
1.38658
1.38637
1.38753
1.39064
1.3956
1.4021
1.41004
1.41947
1.43075
1.44368
1.45798
1.47296
1.4881
1.50298
1.51742
1.53135
1.5447
1.55747
1.56984
1.58204
1.59439
1.61353
1.61883
1.61513
1.60051
1.57715
1.5503
1.52424
1.50132
1.48323
1.46913
1.45821
1.45088
1.44802
1.45037
1.46201
1.49458
1.5614
1.66316
1.77917
1.88228
1.95779
2.00706
2.03828
2.0605
2.07607
2.08384
2.08563
2.08344
2.07628
2.06511
2.04815
2.02518
2.00135
1.97901
1.95816
1.93409
1.90776
1.88195
1.85668
1.83319
1.8093
1.78237
1.74899
1.70906
1.66471
1.61998
1.57924
1.54532
1.51716
1.49399
1.47726
1.46784
1.46522
1.46574
1.46789
1.47014
1.47117
1.47019
1.46589
1.45794
1.4469
1.43409
1.42102
1.40883
1.39857
1.39074
1.38549
1.38247
1.38161
1.38175
1.38346
1.38702
1.39194
1.39844
1.40631
1.41588
1.42718
1.44003
1.45396
1.46849
1.48329
1.49816
1.51306
1.52788
1.54245
1.55665
1.57048
1.58402
1.58916
1.59715
1.59741
1.58945
1.57189
1.54886
1.52499
1.50343
1.48558
1.47148
1.46141
1.45676
1.45702
1.46342
1.48406
1.53155
1.6156
1.72681
1.83913
1.92927
1.99108
2.03058
2.05606
2.07508
2.0898
2.09811
2.10019
2.09736
2.08814
2.07278
2.05132
2.02498
1.9982
1.9738
1.95198
1.9302
1.90782
1.88591
1.8656
1.84758
1.83024
1.81052
1.78486
1.75099
1.70842
1.65923
1.60813
1.56085
1.52142
1.48992
1.46593
1.44892
1.44048
1.43843
1.43976
1.44328
1.44751
1.45079
1.45184
1.44953
1.4433
1.43357
1.42193
1.41025
1.3997
1.39117
1.38514
1.38137
1.37986
1.37958
1.38039
1.38268
1.38624
1.3911
1.39733
1.40512
1.4146
1.42568
1.43804
1.45119
1.46488
1.47899
1.49359
1.50872
1.52419
1.53978
1.55522
1.57031
1.5627
1.5727
1.57562
1.57255
1.56147
1.54403
1.52375
1.50431
1.48761
1.47404
1.46602
1.46324
1.46655
1.47931
1.51149
1.57558
1.67389
1.78797
1.89075
1.96643
2.01634
2.04874
2.07061
2.0873
2.10157
2.11111
2.11409
2.11146
2.10107
2.08217
2.05592
2.02545
1.99567
1.96889
1.9449
1.92328
1.90313
1.8842
1.86724
1.85268
1.83957
1.82534
1.80722
1.78217
1.74771
1.70282
1.64955
1.5932
1.54062
1.49711
1.4641
1.44074
1.425
1.41813
1.41688
1.41904
1.42362
1.42918
1.43391
1.43608
1.4354
1.43075
1.42244
1.41247
1.40251
1.39371
1.38697
1.3825
1.38006
1.37941
1.3796
1.38107
1.38366
1.38701
1.3917
1.39775
1.40543
1.41464
1.42519
1.43661
1.44861
1.46118
1.47447
1.48874
1.50398
1.52
1.53645
1.55288
1.5358
1.54661
1.55142
1.55136
1.54587
1.53447
1.519
1.50217
1.48663
1.47568
1.46967
1.4699
1.47703
1.49829
1.54471
1.62524
1.73289
1.84343
1.93338
1.99552
2.03611
2.06378
2.08361
2.09858
2.11208
2.12252
2.12665
2.12495
2.11467
2.09401
2.06481
2.0311
1.99784
1.96781
1.94186
1.91945
1.89965
1.88206
1.86672
1.85372
1.84239
1.83116
1.81795
1.80016
1.77473
1.73878
1.6912
1.63428
1.57409
1.51836
1.47322
1.44077
1.41935
1.40646
1.40164
1.40132
1.40414
1.40944
1.41572
1.42125
1.42415
1.42425
1.42067
1.41378
1.40571
1.39767
1.39081
1.38577
1.3824
1.38099
1.38055
1.38117
1.38305
1.38548
1.38873
1.39317
1.39909
1.40654
1.41517
1.42477
1.43487
1.44548
1.45682
1.46935
1.48333
1.49871
1.5152
1.53226
1.50925
1.51955
1.52571
1.52748
1.52539
1.51903
1.50861
1.49606
1.48394
1.47493
1.472
1.47547
1.48885
1.52116
1.58316
1.67742
1.78848
1.89074
1.96742
2.01855
2.05259
2.07713
2.0955
2.10908
2.12107
2.13095
2.13578
2.13544
2.127
2.10768
2.07882
2.0443
2.00891
1.97598
1.94694
1.92173
1.90009
1.88184
1.86666
1.85404
1.84316
1.83285
1.82187
1.80834
1.78965
1.76246
1.72389
1.67316
1.61305
1.55073
1.49464
1.45062
1.4206
1.40241
1.39312
1.3904
1.39114
1.39476
1.40048
1.40701
1.41268
1.41577
1.41614
1.4132
1.4077
1.40131
1.39511
1.39006
1.38634
1.38415
1.38301
1.38284
1.38389
1.38563
1.3878
1.39084
1.3951
1.40082
1.40769
1.41544
1.42367
1.43226
1.44144
1.45173
1.46366
1.47743
1.49292
1.50963
1.48366
1.49261
1.49933
1.50219
1.50219
1.49977
1.49421
1.4859
1.47755
1.47266
1.47324
1.48115
1.50317
1.54888
1.62587
1.72921
1.838
1.92946
1.99444
2.03754
2.06724
2.08937
2.10621
2.11844
2.12827
2.13596
2.14023
2.14064
2.13482
2.12033
2.09603
2.0644
2.02942
1.99455
1.96196
1.93279
1.90765
1.88675
1.86975
1.85594
1.84457
1.83456
1.82445
1.8126
1.79716
1.7757
1.7453
1.70335
1.64912
1.58665
1.52401
1.46994
1.42974
1.40413
1.39023
1.38449
1.38352
1.38544
1.38976
1.39563
1.402
1.40732
1.41025
1.41069
1.40844
1.40424
1.39926
1.39459
1.3908
1.38813
1.38636
1.38569
1.38599
1.38695
1.38829
1.39018
1.39301
1.39714
1.40246
1.40847
1.41493
1.42157
1.4286
1.43653
1.44605
1.45759
1.4712
1.48656
1.4598
1.46692
1.47348
1.47711
1.47859
1.47829
1.47622
1.47241
1.46917
1.4688
1.47358
1.48865
1.52135
1.58085
1.66986
1.7767
1.87901
1.95952
2.01542
2.05318
2.08006
2.1002
2.11529
2.12606
2.13345
2.13819
2.1407
2.14065
2.13684
2.12775
2.11165
2.08703
2.05582
2.02092
1.98551
1.95209
1.92242
1.89739
1.87705
1.8608
1.84769
1.83636
1.82568
1.81422
1.8006
1.7828
1.75754
1.72266
1.67614
1.61878
1.55545
1.49509
1.44573
1.41137
1.39143
1.38232
1.37961
1.38009
1.383
1.38781
1.39365
1.39958
1.40433
1.40696
1.40741
1.4057
1.40265
1.39896
1.39547
1.39265
1.39043
1.38907
1.38875
1.3891
1.38975
1.3907
1.39239
1.39515
1.39908
1.40368
1.40858
1.41352
1.41857
1.42423
1.43121
1.44016
1.45133
1.46458
1.43761
1.44287
1.44869
1.4528
1.45537
1.45665
1.45734
1.45783
1.45944
1.46398
1.47523
1.49904
1.54367
1.6159
1.71269
1.81805
1.91165
1.98254
2.03195
2.0663
2.09115
2.10932
2.12234
2.13133
2.13679
2.13915
2.13951
2.1376
2.13379
2.12882
2.12029
2.10587
2.08261
2.05139
2.0152
1.97824
1.94377
1.91383
1.88907
1.86906
1.85275
1.83909
1.82686
1.81482
1.80147
1.78522
1.76343
1.73399
1.69391
1.64327
1.58354
1.52152
1.46593
1.42361
1.39665
1.38288
1.37802
1.37727
1.37908
1.3828
1.3877
1.39327
1.39859
1.40279
1.40516
1.40568
1.40454
1.40234
1.39962
1.397
1.39474
1.39282
1.39175
1.39157
1.39172
1.39198
1.39272
1.39441
1.39717
1.40066
1.40434
1.40792
1.41133
1.41498
1.41955
1.42582
1.43425
1.4449
1.41682
1.42049
1.42541
1.42973
1.43322
1.43634
1.43973
1.44384
1.44995
1.46049
1.47979
1.51395
1.57036
1.65235
1.75192
1.85185
1.93605
1.99913
2.04413
2.07628
2.09947
2.11582
2.12705
2.13462
2.13894
2.13996
2.13857
2.13467
2.12909
2.12437
2.12037
2.11472
2.10184
2.07915
2.04623
2.00806
1.96976
1.93501
1.90549
1.88107
1.86111
1.84441
1.82967
1.81567
1.8013
1.78495
1.76475
1.73843
1.70395
1.65938
1.60519
1.54535
1.48721
1.43902
1.40533
1.386
1.37786
1.37599
1.37684
1.37963
1.38368
1.38852
1.39357
1.39825
1.40189
1.40395
1.40433
1.40364
1.40217
1.40037
1.39851
1.3965
1.39481
1.39397
1.39373
1.39365
1.39366
1.39445
1.39631
1.39895
1.40178
1.40438
1.40657
1.4086
1.41107
1.4148
1.4205
1.42837
1.39755
1.4
1.40406
1.40869
1.41346
1.41835
1.42419
1.43201
1.44337
1.46107
1.48836
1.53281
1.59989
1.68807
1.78625
1.87836
1.95377
2.01077
2.05274
2.08341
2.10515
2.11985
2.12962
2.13623
2.1401
2.14083
2.1392
2.1346
2.12714
2.11991
2.11496
2.11275
2.10909
2.09618
2.07211
2.0369
1.99719
1.95853
1.92463
1.8964
1.87269
1.85264
1.83494
1.81823
1.80148
1.78351
1.76312
1.73857
1.70741
1.66781
1.61951
1.56393
1.5067
1.45533
1.41631
1.39168
1.37951
1.37572
1.37564
1.37757
1.3809
1.38496
1.38942
1.39389
1.39786
1.40088
1.40264
1.40317
1.40285
1.40201
1.40092
1.39946
1.39768
1.39621
1.39545
1.39504
1.39478
1.39487
1.39601
1.39806
1.40035
1.40236
1.40377
1.40469
1.40556
1.40711
1.41024
1.41537
1.37952
1.38127
1.38511
1.39021
1.39619
1.4032
1.41204
1.42376
1.4404
1.46438
1.50087
1.5555
1.63081
1.72131
1.81471
1.89852
1.96624
2.01857
2.05809
2.08712
2.10726
2.12088
2.13009
2.13662
2.14075
2.14213
2.14136
2.13741
2.12944
2.11963
2.1106
2.10535
2.10345
2.09991
2.08555
2.05842
2.0211
)
;

boundaryField
{
    inlet
    {
        type            fixedValue;
        value           nonuniform 0();
    }
    outlet
    {
        type            inletOutlet;
        inletValue      nonuniform 0();
        value           nonuniform 0();
    }
    bottom
    {
        type            symmetryPlane;
    }
    top
    {
        type            symmetryPlane;
    }
    obstacle
    {
        type            zeroGradient;
    }
    front
    {
        type            empty;
    }
    back
    {
        type            empty;
    }
    procBoundary3to2
    {
        type            processor;
        value           nonuniform List<scalar> 
28
(
1.84141
1.83784
1.83351
1.82641
1.81719
1.80595
1.79341
1.78004
1.76595
1.75103
1.7354
1.71936
1.70246
1.68501
1.6671
1.64688
1.62463
1.60067
1.57556
1.54982
1.52425
1.49965
1.47639
1.45498
1.43472
1.41539
1.39721
1.38
)
;
    }
    procBoundary3to4
    {
        type            processor;
        value           nonuniform List<scalar> 
27
(
1.55358
1.55354
1.55722
1.56585
1.58183
1.60288
1.62371
1.63935
1.64667
1.64894
1.64821
1.6444
1.63781
1.63009
1.62244
1.61496
1.60697
1.59731
1.58485
1.5688
1.54921
1.5268
1.50298
1.47937
1.45741
1.43826
1.42253
)
;
    }
    procBoundary3to11
    {
        type            processor;
        value           nonuniform List<scalar> 
89
(
1.98072
1.94329
1.91159
1.88516
1.86238
1.84189
1.82224
1.80232
1.78136
1.75882
1.73413
1.70534
1.67004
1.62645
1.57641
1.52215
1.47055
1.4283
1.39925
1.38305
1.37649
1.37523
1.37643
1.379
1.38238
1.38616
1.39009
1.39391
1.39729
1.39998
1.40171
1.40237
1.40228
1.40176
1.40102
1.39974
1.39817
1.3969
1.39611
1.39557
1.39527
1.39585
1.39747
1.3995
1.40125
1.40228
1.4026
1.40245
1.40234
1.40327
1.4059
1.36287
1.36444
1.36829
1.37424
1.38185
1.39103
1.40282
1.41857
1.44119
1.47229
1.5178
1.58122
1.66162
1.75099
1.8378
1.9132
1.97448
2.02306
2.06048
2.0882
2.1074
2.12069
2.12973
2.13639
2.14083
2.14319
2.14374
2.14109
2.13415
2.1237
2.11191
2.10127
2.09432
2.091
2.08588
2.06873
1.98072
2.0374
)
;
    }
}


// ************************************************************************* //
