/*--------------------------------*- C++ -*----------------------------------*\
  =========                 |
  \\      /  F ield         | OpenFOAM: The Open Source CFD Toolbox
   \\    /   O peration     | Website:  https://openfoam.org
    \\  /    A nd           | Version:  7
     \\/     M anipulation  |
\*---------------------------------------------------------------------------*/
FoamFile
{
    version     2.0;
    format      ascii;
    class       volVectorField;
    location    "0.558";
    object      U;
}
// * * * * * * * * * * * * * * * * * * * * * * * * * * * * * * * * * * * * * //

dimensions      [0 1 -1 0 0 0 0];

internalField   nonuniform List<vector> 
12359
(
(0.980987 -0.00044655 1.57508e-16)
(0.96832 -0.00065364 -1.35212e-16)
(0.99998 -1.36716e-05 -3.91964e-17)
(0.931147 -0.00113143 -6.36263e-17)
(0.977927 -0.000829997 9.32172e-18)
(0.888463 0.000294301 1.63665e-17)
(0.831942 -0.00237881 6.71309e-17)
(0.859267 -0.0084951 1.09401e-16)
(0.788427 0.0136961 -2.80448e-16)
(0.89987 0.00156087 -4.44389e-17)
(0.813757 0.0171407 -7.25453e-17)
(0.721856 0.0325721 3.11853e-16)
(0.299877 0.0790719 -8.73553e-17)
(0.921687 -0.00220295 -6.07978e-17)
(0.935908 -0.000529423 3.18009e-17)
(0.525262 0.00327728 2.7139e-17)
(0.399242 0.00746006 1.0093e-16)
(0.994818 -4.16629e-06 -1.19514e-16)
(0.994993 0.0001399 -7.82728e-17)
(0.953458 -0.00115806 -1.50386e-16)
(0.912692 0.000229163 -8.36206e-18)
(0.745091 0.0180272 -8.58453e-17)
(0.963105 -0.00110557 -3.9719e-17)
(0.950334 -0.00110857 5.94183e-17)
(0.966302 -0.000665007 -9.83475e-17)
(0.958647 -0.000705182 -1.00132e-16)
(0.9983 -9.43147e-05 -1.62426e-17)
(0.998509 -4.17564e-05 -1.77525e-17)
(0.995785 -8.75446e-06 1.80104e-17)
(0.997756 -4.33138e-05 -2.18313e-17)
(0.997211 -8.341e-05 -6.10668e-17)
(0.999229 7.33583e-05 -2.6119e-17)
(0.999734 1.42457e-05 -2.87161e-17)
(0.998057 5.49523e-05 -1.66913e-18)
(0.999896 -2.66676e-05 -4.45264e-18)
(0.997086 4.68935e-05 -1.70833e-17)
(0.989079 8.90236e-06 8.76636e-17)
(0.983125 -0.000304231 3.09863e-16)
(0.979637 0.000254262 3.32198e-17)
(0.985574 -0.000184947 -8.36153e-17)
(0.971674 -0.000815298 6.23023e-17)
(0.984969 0.000316491 1.8256e-16)
(0.991516 -0.000374064 8.52487e-17)
(0.992157 6.53195e-05 -1.07014e-16)
(0.996498 -7.74815e-05 6.164e-17)
(0.996165 -8.11586e-05 8.067e-18)
(0.996803 -9.5744e-05 1.60702e-17)
(0.997428 -8.50223e-05 -3.87979e-17)
(0.995233 -3.10943e-05 6.98107e-17)
(0.99823 -4.74227e-05 1.26816e-18)
(0.998736 -1.6873e-05 -2.28225e-17)
(0.998865 -9.80323e-05 -1.84212e-17)
(0.999362 -2.01834e-06 -2.5196e-17)
(0.994215 5.73222e-05 -1.21143e-16)
(0.999584 0.000103199 -8.14771e-18)
(0.999734 -1.31842e-06 8.19838e-18)
(0.992816 -0.000294182 7.17437e-17)
(0.999804 -4.06968e-05 -5.60359e-17)
(0.999799 -5.70013e-06 1.55752e-18)
(0.999846 2.34443e-05 4.04108e-17)
(0.999699 -3.12076e-05 5.6799e-17)
(0.999976 2.76278e-05 6.87304e-17)
(0.998755 -6.42622e-05 -1.87293e-17)
(0.206126 0.0994234 -8.7478e-16)
(0.993574 -0.000167082 5.55167e-17)
(0.907198 0.00106816 -1.01389e-17)
(0.989924 0.000240212 -9.32591e-17)
(0.999089 -5.07011e-05 -1.92528e-17)
(0.988049 -0.000327182 1.61485e-16)
(0.619319 0.0275918 9.86463e-17)
(-0.0419672 -0.0746694 4.20441e-15)
(0.974298 -0.0019325 -4.50307e-17)
(0.999969 -1.18599e-05 -8.51472e-17)
(0.986558 -0.000591721 -1.33839e-16)
(0.939779 -0.00186242 -3.91252e-17)
(0.999919 -2.27102e-05 -3.49291e-18)
(0.999313 8.52143e-06 -3.8736e-17)
(0.999934 -1.72221e-05 -3.71742e-17)
(0.98993 -0.000104182 -4.32447e-19)
(0.657945 0.00143056 1.45215e-16)
(0.926524 0.0604034 9.95361e-19)
(1.00382 0.00263254 9.44765e-18)
(1.00002 -1.63884e-05 -1.1923e-18)
(0.99786 0.0119736 -1.52547e-18)
(1.09972 0.138219 2.98758e-17)
(1.0211 0.00123198 2.85054e-18)
(1.00371 0.00269458 6.16905e-18)
(1.00152 3.195e-05 9.64222e-18)
(1.1157 0.0557143 2.90007e-17)
(1.0954 0.147377 3.04001e-17)
(0.999981 0.000133869 5.04041e-18)
(0.254398 0.183382 -4.44998e-16)
(1.00001 2.01939e-05 -7.01026e-18)
(0.999761 0.00622116 -2.95977e-18)
(0.999824 0.010761 2.31517e-17)
(1.03699 0.00210563 -1.88832e-18)
(1.00017 0.00532813 -2.14073e-18)
(0.999557 0.00599182 -4.75789e-18)
(0.991412 0.0291256 -1.37962e-17)
(0.994162 0.0182951 3.58508e-17)
(0.940827 0.0731662 -1.31049e-17)
(1 1.68411e-05 -8.60221e-18)
(1.02142 0.00179577 -7.20706e-18)
(1.21773 0.0462959 -1.18873e-17)
(1.0047 0.00106553 -5.21542e-18)
(1.03241 0.0213213 8.37604e-19)
(1.00035 -4.90946e-06 3.12014e-18)
(1.10086 0.142514 1.67772e-17)
(1.0202 0.000410646 -6.28858e-18)
(1.03255 0.0195151 5.11539e-18)
(0.999904 0.0045109 1.97681e-19)
(1.0036 0.00283172 6.94171e-18)
(0.937378 0.0450151 4.54325e-18)
(0.958498 0.0746233 6.09879e-17)
(0.999408 0.0106137 2.30631e-18)
(1.00282 -0.000228299 2.46493e-18)
(0.956758 0.075783 -1.18101e-16)
(1.00445 0.00223773 -1.21382e-17)
(1.12153 0.0392054 9.43856e-18)
(0.999998 1.01723e-05 -3.93753e-19)
(1.00008 0.00506971 6.75352e-18)
(0.871289 0.0303167 2.84844e-16)
(1.0018 8.67108e-05 9.26657e-18)
(1.03703 0.00570362 1.79866e-18)
(1.00482 0.00236347 -1.89635e-17)
(1.00335 0.000317388 -1.54919e-17)
(1.00844 0.0910684 -1.80852e-17)
(0.997943 0.0126972 -1.48506e-17)
(0.999991 8.35371e-06 -7.97986e-17)
(1.00431 0.00272133 1.23922e-17)
(1.00273 0.00066643 1.24702e-17)
(1.05045 0.0166211 1.15764e-18)
(1.0527 0.0163691 2.65697e-18)
(1.05163 0.0156189 -2.24607e-18)
(1.00027 1.08992e-05 -4.46713e-18)
(1.03599 0.00670879 1.14454e-18)
(1.00271 -9.99698e-06 -1.37141e-17)
(1.03549 0.00584713 -6.09216e-18)
(1 8.19062e-05 -4.94343e-17)
(1.00987 0.0893709 -1.58145e-18)
(0.999997 2.58636e-05 -1.04039e-17)
(0.983393 0.00214968 4.06789e-16)
(1.03015 0.0122337 -1.02576e-19)
(1.00032 0.000116052 -9.72811e-18)
(1.03918 0.0382534 -9.19063e-19)
(0.904097 0.0275256 5.51328e-17)
(1.00002 3.07833e-06 -1.75738e-18)
(1.0921 0.115677 1.22818e-17)
(1.00501 0.000945975 -9.76337e-18)
(0.918127 0.0678163 -1.21996e-16)
(1.03823 0.00230782 -1.47088e-18)
(1.00001 2.869e-05 1.49565e-17)
(1.03076 0.0134337 -2.684e-18)
(1.00155 0.000181306 -5.52659e-18)
(1.00001 -9.15342e-07 -2.52448e-18)
(0.57534 1.33085 1.08477e-16)
(0.940187 0.088019 3.87772e-17)
(1.0505 0.0166442 3.1228e-18)
(1.0001 0.00521949 -4.3738e-18)
(0.999072 0.000563884 3.33366e-17)
(1.00224 0.0447675 1.10212e-18)
(0.999047 0.000646072 1.45492e-17)
(1.03766 0.00481379 1.36407e-18)
(1.03212 0.0102369 2.05974e-19)
(1.00003 4.05483e-05 -3.38327e-18)
(1.00322 0.000466922 -4.54816e-18)
(1.00226 0.0441819 -1.04726e-17)
(0.866838 0.00931813 3.3218e-16)
(1.03111 0.00992488 -3.36308e-18)
(1.11815 0.0525193 1.58072e-17)
(0.999988 8.76493e-06 3.13119e-17)
(0.999955 5.50529e-05 6.78115e-17)
(1.03237 0.00827396 -3.48774e-18)
(0.971688 0.00236989 8.85496e-17)
(1.00461 0.000943667 7.85472e-18)
(1.00473 0.087845 8.82427e-18)
(0.996399 0.000498236 6.38456e-17)
(0.996468 0.000684291 -5.86807e-17)
(0.936899 0.0481541 1.42526e-16)
(1.00793 0.0844364 1.32857e-17)
(0.934058 0.00838973 -4.26729e-16)
(1.00001 2.74064e-05 -5.78834e-19)
(0.999984 1.6604e-05 -1.33648e-16)
(1.00391 0.00270038 2.28482e-18)
(0.992067 0.027038 1.33375e-17)
(0.810047 0.103571 1.37209e-16)
(1.00428 0.00540941 2.82067e-18)
(1.00016 0.0100805 -1.44498e-17)
(1.03568 -7.3125e-05 9.79696e-19)
(1.00452 0.00550978 -4.82398e-18)
(0.999408 0.00986666 -1.30466e-17)
(1.03611 0.00209679 1.90877e-19)
(1.03288 0.00118644 -3.21511e-18)
(1.00185 2.40153e-05 1.61522e-18)
(1.03382 0.0186951 -7.47079e-18)
(1.15319 0.0347723 1.90107e-17)
(1.01458 0.0121589 1.19976e-17)
(1.00326 0.00602887 4.85737e-18)
(1.0298 0.0143067 4.34473e-20)
(1.00448 0.00241286 -2.52586e-18)
(0.891149 0.0283438 3.03747e-16)
(1.03802 0.00108308 8.0049e-20)
(0.993277 0.0182481 -1.28213e-17)
(1.0326 0.0192432 -6.9534e-19)
(1.0353 0.0355861 -6.51887e-18)
(1.00001 3.91468e-05 9.51208e-18)
(1.0365 0.035584 1.68587e-18)
(0.992799 0.0176678 -6.16646e-17)
(1.0394 0.00634496 -3.37379e-18)
(1.00518 0.00371128 3.527e-18)
(1.00001 3.84977e-05 3.23194e-18)
(1.04517 0.0121034 -3.81047e-18)
(1.04554 0.0128508 8.11401e-19)
(1.07713 0.110778 4.29516e-17)
(0.833374 0.0957411 -2.12906e-16)
(0.999972 3.08672e-05 2.89268e-17)
(1.00377 0.00560157 -1.33609e-17)
(0.999478 0.010395 -1.52e-17)
(1.00387 0.00565354 4.44056e-18)
(0.982068 0.0016893 3.24548e-16)
(0.947533 0.0631821 -4.94659e-17)
(1.00524 0.00400567 -1.24364e-18)
(1.03635 0.00534924 3.58964e-18)
(0.39626 0.310743 3.65605e-17)
(1.00506 0.00228502 2.67151e-18)
(1.00002 3.27357e-05 -6.73348e-18)
(0.981419 0.0016877 -1.80324e-16)
(1.01834 -0.0031226 7.75767e-20)
(1.00274 0.0847145 2.58748e-18)
(1.0028 0.00649629 -7.39347e-18)
(1.00256 0.00653788 -8.71938e-18)
(1.00004 2.85381e-06 -1.21102e-18)
(1.03849 0.0392931 -1.15375e-17)
(0.992722 0.0229286 3.20187e-17)
(1.00055 0.0100071 -1.92439e-17)
(0.994147 0.0208252 2.52897e-17)
(1.00001 2.76566e-05 -7.82156e-19)
(1.03145 0.0146238 -3.2743e-18)
(1.00042 0.0104664 -6.41503e-18)
(0.620037 0.269634 -4.53799e-17)
(1.00006 6.22307e-05 -2.42944e-19)
(1.02237 -3.18079e-05 -7.73728e-19)
(1.00018 0.00737856 -1.81692e-17)
(0.989528 0.159953 5.21028e-18)
(1.00438 0.0471448 7.93642e-18)
(1.09229 0.117803 -7.91072e-18)
(0.999861 1.96075e-05 -5.51863e-17)
(1.0382 0.00521752 -1.73507e-18)
(1.00428 0.000415727 3.07717e-20)
(1.03214 0.00179567 5.8879e-19)
(1.04105 0.0110601 1.09731e-18)
(0.986129 0.000504546 2.77941e-16)
(0.996715 0.000620057 6.11645e-17)
(1.00241 0.00631283 8.88337e-18)
(0.463422 0.455376 6.51462e-18)
(1.2243 0.107446 9.3805e-17)
(0.999987 1.32045e-05 2.18711e-18)
(1.00576 0.00288493 -7.49076e-18)
(0.42058 0.328706 3.9717e-16)
(0.679826 -0.0154411 4.73577e-17)
(0.993557 0.0191877 -9.40592e-18)
(1.00448 0.0451055 -4.86949e-18)
(1.00291 0.0811851 -7.4379e-18)
(1.03297 0.0166656 -4.25619e-18)
(0.974367 0.0014838 1.98618e-16)
(1.36133 0.336234 4.59528e-18)
(1.11303 0.0387461 -3.31229e-17)
(1.00422 0.049877 -1.83716e-18)
(1.0054 0.00270413 -1.50015e-17)
(1.03475 0.00773233 -7.23941e-18)
(1.03181 0.00962862 -7.08294e-19)
(0.988545 0.0253467 5.64513e-18)
(1.03209 0.0122095 1.80017e-19)
(1.0023 0.00661486 -3.11047e-18)
(1.00585 0.00354401 2.64248e-19)
(1.00007 2.03757e-05 -5.189e-21)
(1.0053 0.00286839 -2.96022e-19)
(1.17129 0.0983271 1.10833e-18)
(1.0058 0.0482723 -1.74489e-17)
(1.00046 0.00014741 -1.39445e-18)
(0.999997 5.51926e-05 1.59781e-17)
(1.03418 0.0172463 -3.47663e-18)
(1.00705 0.00117797 5.67725e-18)
(0.990893 0.000517683 -2.89378e-16)
(1.02299 -0.00022741 -5.03217e-18)
(1.00001 2.9457e-05 -1.44712e-18)
(1.003 0.073641 -1.87103e-17)
(1 1.61051e-05 1.3234e-17)
(0.999997 -6.79365e-06 -5.63059e-18)
(0.999281 0.000115481 3.86763e-17)
(1.03736 0.00463259 4.46469e-19)
(1.00407 0.002287 7.85492e-18)
(1.41228 0.423768 4.50493e-17)
(1.00027 -1.0668e-05 -9.98673e-18)
(1.00031 6.2741e-05 3.96347e-18)
(1.02073 0.00223892 -1.11274e-18)
(1.0045 0.000621089 -1.11493e-17)
(0.946816 0.067368 -5.19716e-17)
(0.999145 0.00988953 1.51757e-17)
(0.99877 0.000198005 -5.37049e-17)
(0.999979 3.32876e-05 5.64977e-18)
(1.17362 0.0793853 1.78032e-17)
(1.00378 0.0775543 1.23633e-17)
(0.999992 2.89339e-05 -1.78927e-17)
(1.00364 0.00582304 1.15432e-17)
(0.999543 0.00847375 -7.46202e-18)
(1.00463 0.000429865 4.79832e-18)
(1.00337 -0.00047322 -3.87821e-18)
(1.00333 0.000140797 -3.8483e-18)
(1.00415 0.00112257 2.78799e-18)
(0.995355 0.00127214 -3.96326e-17)
(0.843786 0.0586914 3.55264e-16)
(1.0048 0.00182986 3.76208e-19)
(0.997404 8.71175e-05 4.21918e-16)
(0.98607 0.00135209 2.5919e-16)
(1.02542 0.0257649 5.62354e-18)
(1.10207 0.0346623 1.48457e-17)
(1.00432 -0.000276859 -5.5137e-18)
(0.989954 0.0241906 -6.89085e-18)
(0.575972 0.0968968 -4.31202e-16)
(0.99999 1.60348e-05 1.84671e-17)
(1.02716 0.0118297 2.55136e-18)
(1.00051 8.92942e-05 -3.84419e-19)
(1.0142 0.0124904 5.63268e-19)
(1.00031 8.53226e-05 -5.68702e-18)
(1.00498 -7.3934e-05 2.29384e-18)
(0.816798 0.0460249 -6.10769e-17)
(1.02747 0.0145052 2.01316e-18)
(0.81199 0.0928789 2.3116e-18)
(0.991638 0.000535919 -4.88402e-17)
(1.00055 0.00785198 -1.09784e-17)
(1.03447 0.000992932 -1.70807e-18)
(1.03521 0.000879144 -1.33279e-18)
(1.00044 0.00783552 -2.19321e-17)
(1.03487 -0.00067806 3.811e-19)
(1.03353 0.00115149 -2.49002e-18)
(1.00077 0.000213054 -3.457e-18)
(0.999433 0.000606578 -7.61802e-18)
(0.999417 0.000578238 -1.61919e-18)
(0.999395 0.000558283 -1.98341e-17)
(0.999391 0.000515827 -2.65769e-17)
(0.714823 0.291669 -7.49973e-18)
(1.00002 3.82339e-05 4.93019e-18)
(0.943541 0.0744435 5.44454e-17)
(1.03946 0.00300368 1.11183e-18)
(0.992387 0.024544 -2.41358e-17)
(1.03167 0.0116462 7.55325e-19)
(1.02707 0.0145232 -4.07332e-19)
(1.02084 0.00197403 -4.14981e-18)
(1.01309 0.0118398 -1.26776e-18)
(1.02797 0.0128165 1.59681e-19)
(1.01313 0.0121081 -1.35738e-17)
(0.990875 0.0262624 -5.85147e-17)
(1.02718 0.0273455 1.18968e-19)
(1.02602 0.0299507 -1.8397e-17)
(0.956275 0.0510861 -1.59113e-18)
(0.98071 0.00228765 -7.47643e-17)
(1.0341 0.0784635 -2.12032e-18)
(0.982146 0.00185317 9.39707e-17)
(0.982987 0.00123743 -3.37902e-18)
(1.03029 0.0148405 -7.75814e-18)
(0.940173 0.0952717 -1.88669e-17)
(1.00309 0.00261531 -6.97857e-19)
(0.999469 8.94762e-05 1.60912e-17)
(1.01585 0.0109807 -2.69117e-18)
(0.999479 7.07435e-05 4.09549e-17)
(1.00331 0.00306214 -4.09952e-18)
(0.797418 0.0129805 -7.10362e-18)
(0.208541 0.204803 -4.66944e-16)
(1.00317 0.00283632 -4.4814e-18)
(0.999983 -3.62905e-07 1.07468e-18)
(1.00024 9.2997e-05 -1.45973e-18)
(0.99999 2.42628e-05 6.46251e-18)
(1.02767 0.0126354 -1.77022e-18)
(0.999996 2.40617e-05 -1.47593e-18)
(0.999992 1.99176e-05 1.31266e-18)
(1.12261 0.0574589 2.2693e-17)
(1.03198 0.0105252 1.91462e-18)
(1.08843 0.174745 7.86536e-18)
(1.00159 0.00310634 4.06935e-18)
(1.0345 0.0119059 4.56823e-18)
(1.00762 0.00108516 1.6458e-17)
(0.999883 0.0083094 3.71084e-18)
(1.031 0.0273236 -5.48361e-18)
(1.01597 0.01062 -6.48513e-19)
(0.937536 0.00221452 3.76745e-17)
(1.01582 0.00982314 -1.92351e-19)
(1.00295 0.00259266 1.40128e-18)
(1.00048 6.98837e-05 -3.07414e-19)
(1.0327 0.00906017 2.90246e-18)
(1.03553 0.0111012 5.20551e-19)
(1.00553 0.0014222 2.70832e-18)
(0.724899 0.03357 -1.54853e-16)
(1.03185 0.0264771 -9.25355e-18)
(1.03318 0.00152484 8.5919e-19)
(0.998585 0.0342652 -1.74551e-17)
(1.00212 0.0411121 -2.24768e-17)
(1 0.000111942 -1.72782e-18)
(0.416863 0.591288 -2.12461e-16)
(1.03493 0.078376 1.73725e-17)
(1.00121 0.0034411 -4.45965e-18)
(0.974332 0.185049 -3.15859e-17)
(0.984857 0.00140172 9.78736e-17)
(0.999973 5.54973e-05 3.01314e-18)
(1 3.05328e-05 7.72651e-19)
(0.999989 5.88598e-05 1.1817e-18)
(1.09194 0.164932 2.97219e-17)
(0.94854 0.0941123 -1.87741e-17)
(0.988954 0.0282046 3.94048e-17)
(1.02669 0.00942938 -1.30744e-18)
(1.03432 -0.000961899 -1.91979e-18)
(0.999609 0.0111925 -2.36487e-17)
(0.940394 0.00590318 -2.83129e-16)
(0.999089 0.0335072 2.57958e-18)
(1.04728 0.013906 7.75596e-20)
(1.10753 0.0359799 -1.6404e-17)
(0.715644 0.0365999 1.3979e-16)
(0.994109 0.0234146 -2.62331e-17)
(0.958222 0.0508967 -1.98553e-17)
(1.01821 -0.000282789 1.08781e-18)
(1.02544 0.0377511 -9.03378e-18)
(1.01127 0.0105665 3.32354e-18)
(1.01604 0.0118888 9.6864e-19)
(0.997992 0.000174209 2.66184e-16)
(1.01193 0.0109883 5.72105e-19)
(1.03016 0.0115892 2.53279e-19)
(0.999984 8.09529e-06 4.57051e-18)
(0.892041 -0.0302209 4.07455e-17)
(0.990712 0.00105461 -3.842e-17)
(1.05573 0.0119201 -5.24332e-18)
(1.03494 0.00948924 -4.10826e-18)
(0.993765 0.00110672 9.07567e-17)
(0.951122 0.0566501 -6.31959e-17)
(1.17548 0.252542 -4.36905e-17)
(1.0285 0.0140593 5.6293e-18)
(1.00825 0.0156707 -7.01057e-18)
(1.03544 -0.00121515 -2.95561e-18)
(1.03627 0.00977663 -3.11919e-18)
(1.02902 0.0319589 -1.31097e-17)
(1.00415 0.00281604 -2.67399e-18)
(0.999997 1.33511e-05 8.37569e-19)
(0.996368 0.069238 3.96328e-18)
(1.00031 6.46776e-05 -2.43826e-18)
(1.05143 0.0171801 1.15838e-18)
(1.0028 -0.000117795 -2.46312e-18)
(0.965832 0.00323151 2.06837e-16)
(0.964235 0.0412686 -1.84492e-18)
(1.01078 0.00153728 -2.89595e-18)
(1.10459 0.106024 -6.23328e-18)
(0.94301 0.0685133 2.74242e-17)
(0.995266 0.0159807 2.80159e-17)
(1.00104 0.00376942 6.23167e-18)
(0.590004 0.0809748 -6.15019e-16)
(1.00063 5.66464e-05 -1.7964e-18)
(1.00128 0.00298821 -3.90084e-18)
(1.04273 0.0393283 -3.10346e-19)
(0.999987 2.51046e-05 2.2916e-17)
(1.00099 0.0040297 1.43558e-18)
(1.00155 0.00263598 3.57586e-18)
(0.722356 0.23777 8.6375e-18)
(0.702811 0.462656 -6.16596e-18)
(0.998376 0.012383 -1.24872e-17)
(1.00103 -0.000604562 -4.19388e-19)
(0.938843 0.0275243 -1.10049e-17)
(1.00153 0.0404636 -3.72825e-18)
(1.02713 0.0109167 -1.09746e-18)
(1.03093 0.0145434 7.08429e-19)
(1.03188 0.0107875 6.34798e-19)
(1.0008 -0.000152767 2.95418e-18)
(0.999993 3.0691e-05 4.04478e-18)
(1.00084 0.0360248 -1.41798e-17)
(0.999988 4.65103e-06 -9.25864e-18)
(0.964144 0.0395755 -1.76757e-18)
(1.02634 0.0108498 3.40293e-18)
(1.02573 0.0336016 -1.06729e-17)
(0.996701 0.000579657 -2.98106e-18)
(0.997538 0.0656974 -7.04987e-18)
(1.04533 0.0398187 2.20814e-17)
(0.997897 9.89893e-05 -6.91358e-16)
(1.00152 0.0117114 5.26745e-19)
(1.00566 0.00161875 2.22431e-17)
(0.928562 0.0424435 -5.37082e-17)
(1.04315 0.0398101 2.02464e-18)
(0.999983 7.40492e-05 -3.57773e-17)
(1.00084 0.038256 -6.81098e-18)
(1.03214 0.00727547 -2.05698e-19)
(1.01609 -6.08449e-05 -5.20092e-18)
(0.999621 0.0397759 -1.48575e-17)
(1.00318 -0.000430796 -5.91094e-18)
(0.931071 0.0965878 -4.18404e-17)
(1.02575 -0.000870009 -4.80712e-18)
(1.03594 0.00751539 6.12522e-18)
(1.02651 0.0318019 1.11627e-17)
(1.00088 6.9857e-05 4.294e-18)
(1.00112 0.0115534 2.58994e-17)
(1.05351 0.059162 -1.16074e-17)
(1.05303 0.0160003 5.79911e-18)
(1 2.03772e-05 9.8089e-18)
(1.01091 0.0159192 -9.05292e-18)
(0.988693 0.169571 -3.46628e-17)
(1.03605 0.00257779 1.20357e-18)
(0.518656 0.477489 -9.29221e-17)
(1 4.02379e-05 3.76215e-18)
(1.00256 0.000486893 1.50269e-18)
(1.00076 0.000247372 1.06238e-17)
(1.03067 0.0134092 1.87825e-19)
(0.995213 0.0178201 1.63071e-17)
(0.995367 0.0133125 -8.94316e-18)
(1.00324 0.000252533 4.71507e-18)
(0.999206 0.0362483 2.00507e-17)
(1.01705 0.0123046 -5.14136e-18)
(0.972185 0.00348488 -3.51044e-17)
(1.00965 0.00126811 3.58237e-18)
(1.08174 0.0852422 1.23303e-17)
(1.00034 -3.0331e-06 8.95069e-19)
(1.08766 0.0980687 -1.50928e-17)
(1.00149 0.00023349 3.08438e-18)
(0.625733 0.637218 -4.05435e-17)
(1.02685 0.00260971 -5.30709e-19)
(1.05155 0.0618807 -1.31383e-17)
(0.999832 3.4031e-05 1.07431e-16)
(0.99693 0.000656493 9.12653e-18)
(1.02538 0.0268935 -4.61077e-18)
(1.00381 0.0021751 1.35551e-17)
(0.998907 0.000211834 9.19604e-17)
(0.992254 0.000575948 2.34189e-16)
(0.99409 0.0209728 -3.75365e-17)
(0.994746 0.0200877 1.28858e-17)
(0.968312 0.155383 -4.14353e-18)
(1.03341 0.0307948 1.76051e-19)
(1.03383 0.0305814 -6.92579e-18)
(1.00001 1.03069e-05 1.69217e-19)
(1.0041 0.00210619 -4.10983e-18)
(1.02652 0.0120684 -3.39491e-18)
(1.05211 0.0140049 1.45266e-18)
(1.00001 4.79546e-06 -5.22656e-19)
(1.00042 0.000155264 -1.66039e-18)
(1.03164 0.00870696 -7.29105e-19)
(1.00069 0.000151111 5.4748e-18)
(0.804379 0.0510159 -7.19342e-16)
(1.17757 0.25724 -2.68255e-18)
(1.12379 -0.0274443 1.24622e-16)
(1.00001 5.18819e-06 7.3227e-18)
(1.00599 0.00925679 2.94225e-18)
(1.04311 0.00987121 -4.68985e-19)
(0.995254 0.0143091 3.11522e-17)
(1.00459 0.0010862 8.3958e-18)
(0.372252 0.676526 5.22822e-16)
(1.00041 7.78318e-05 -3.12141e-19)
(0.934005 0.0754428 4.36738e-17)
(0.960949 0.0451602 -6.46313e-18)
(1.00719 0.00920536 -7.99497e-18)
(1.00427 0.000823728 1.97754e-17)
(0.99876 0.000258797 -3.191e-17)
(1.01079 0.00087503 8.28259e-19)
(1.03928 0.0033327 4.0513e-19)
(1.01682 0.00866174 7.7424e-18)
(0.996712 0.0115741 2.56371e-17)
(0.999995 1.16143e-05 4.21676e-19)
(0.999981 2.26155e-05 -9.8607e-17)
(0.994835 0.0172602 -2.85581e-17)
(0.996486 0.00121351 -1.54594e-16)
(0.992755 0.0596 2.35792e-17)
(1.03153 0.0127414 1.17964e-18)
(0.999213 2.47329e-05 -9.4711e-17)
(1.00044 0.000196838 -6.64186e-19)
(1.02665 0.0286662 -4.45181e-18)
(0.865916 -0.0387534 5.78835e-17)
(0.997919 0.000233183 -2.81182e-16)
(1.04671 0.0130087 -2.09568e-18)
(1.00021 5.59344e-05 3.51511e-18)
(0.996433 0.0112978 -2.28399e-17)
(0.951261 0.0822608 5.70799e-17)
(1.03869 0.000512057 7.16814e-20)
(1.04124 0.00941885 2.46321e-19)
(0.952796 0.0543493 3.49093e-17)
(1.00258 0.0183087 5.90302e-18)
(1.03847 0.00480882 -1.50058e-18)
(1.00001 3.41084e-05 -1.51323e-18)
(0.999936 1.97406e-06 -1.0369e-16)
(1.03701 0.00442936 -1.55024e-18)
(1.01045 0.00960346 -1.94383e-17)
(1.00332 0.0188901 8.39981e-18)
(1.0103 0.00968062 -4.03508e-18)
(0.999998 3.47037e-05 5.70296e-18)
(1.00046 0.000213357 -2.13348e-19)
(1.00369 0.00044891 -6.24967e-18)
(0.999959 0.0300623 2.3762e-17)
(1.03974 0.00426622 -2.05633e-18)
(0.944037 0.0390204 2.3221e-17)
(0.990177 0.000973226 2.98883e-16)
(0.925894 0.0389766 -9.35719e-17)
(1.03012 0.0137395 1.97533e-18)
(1.0085 0.017412 5.69702e-18)
(0.935508 0.0441739 1.05892e-16)
(0.985352 0.0220995 9.38878e-17)
(1.05273 0.0103834 -3.11966e-18)
(1.0319 0.0114098 2.59777e-18)
(0.986222 0.020586 -1.73149e-17)
(0.993951 0.0578512 -9.41927e-18)
(0.999878 8.65107e-05 2.37999e-17)
(1.01082 0.0630242 2.4521e-17)
(1.02648 0.0262586 1.22655e-17)
(1.00001 -8.12565e-06 4.12811e-18)
(0.999994 4.65494e-06 6.38365e-18)
(1.00078 -4.63785e-05 6.24067e-18)
(0.999754 0.000433053 -4.09406e-17)
(1.06396 0.0670883 -3.34677e-18)
(1.01067 0.016518 -7.38914e-19)
(1.01208 0.000717281 -3.35193e-18)
(0.945123 0.0442592 1.33641e-17)
(0.99208 0.000241972 2.8681e-16)
(0.79459 0.0226292 -4.75268e-18)
(1.03625 0.00265144 1.76108e-18)
(1.03872 0.00261567 2.40975e-18)
(1.00411 0.000180885 1.00227e-17)
(1.04856 0.039216 6.25245e-18)
(1.00001 4.098e-05 1.7669e-18)
(0.99866 0.0294119 5.13603e-18)
(1.00038 0.0038646 2.02661e-18)
(0.937021 0.109378 -4.04357e-17)
(0.933691 0.0504125 3.9258e-17)
(1.00179 0.0162936 3.06337e-17)
(1.01637 0.0112594 -1.11353e-18)
(0.433013 0.659706 -2.10734e-16)
(1.02966 0.0120747 -5.3685e-19)
(1.04225 0.0598324 -4.39378e-18)
(1.00957 0.012164 1.39718e-17)
(0.978527 0.146167 3.38592e-17)
(1.16592 0.196605 -1.35311e-17)
(1.00109 -0.000176121 3.82215e-18)
(0.998273 0.00334192 4.34619e-18)
(1 1.17164e-05 1.63474e-18)
(1.05814 0.0632221 -1.30387e-18)
(0.998441 0.00310731 7.62704e-18)
(1.01579 0.00923918 4.33976e-18)
(1.10134 0.10345 -5.81621e-18)
(1.00043 5.61269e-05 8.26643e-19)
(0.972034 0.0027836 -1.06291e-16)
(0.992517 0.0511808 -7.584e-18)
(1.00671 0.0147302 2.43306e-17)
(0.997597 0.000261295 -3.27153e-16)
(1.00186 0.0167433 -1.71826e-17)
(0.999203 0.000851176 -7.37652e-18)
(0.99483 0.0164036 1.72147e-17)
(0.999205 0.000711078 -6.484e-18)
(0.999242 0.000923583 1.1892e-17)
(0.99617 0.0130343 -9.05922e-18)
(1.03605 0.00592794 -2.70159e-18)
(1.03353 0.00812218 3.33339e-19)
(1.00677 0.0164129 6.0383e-18)
(0.671644 0.0398456 6.42804e-16)
(1.03807 -0.00117185 -7.45302e-19)
(0.275895 0.23938 1.83748e-16)
(1.02839 0.0134783 -8.5258e-18)
(1.02305 0.000498709 -7.14387e-18)
(0.995539 0.0141584 -2.04069e-17)
(1.02837 0.0144218 2.32895e-18)
(0.992224 0.0266394 1.72703e-18)
(1.03451 0.000330238 1.15809e-18)
(0.537426 0.391853 -1.91404e-16)
(0.951221 0.0350215 2.63789e-17)
(0.993153 0.0248975 1.31435e-17)
(1.00461 0.0224271 -1.24749e-17)
(0.995232 0.00116104 1.4888e-16)
(0.996153 0.000975351 -1.65573e-17)
(1.02646 0.0293967 -1.34359e-18)
(0.999997 2.62273e-05 -6.38476e-19)
(1.05244 0.00424971 -1.30614e-17)
(0.99939 8.42226e-05 3.44782e-17)
(0.94642 0.0388748 4.62703e-17)
(1.00044 0.0723414 -6.95571e-18)
(1.06239 0.0590371 1.10158e-17)
(1.03898 0.0250198 -3.11538e-18)
(1.03418 0.0140492 -5.59588e-18)
(0.991678 0.0489472 -1.30442e-17)
(1.00922 0.0131426 5.4144e-18)
(1.03821 0.0239824 -1.93713e-18)
(0.970762 0.0315257 2.39384e-18)
(1.04195 0.0602298 -8.78969e-18)
(1.00787 0.0217501 1.38201e-17)
(1.04465 0.0391735 -7.07965e-19)
(1.00559 0.0225485 -7.59937e-18)
(1.00001 2.38652e-05 -1.2307e-18)
(0.998727 0.0255717 -1.90646e-17)
(0.653295 0.0526799 -6.39751e-17)
(0.976871 0.133472 2.79007e-17)
(1.00652 0.005435 3.53838e-18)
(1.00004 2.67019e-05 -3.56805e-18)
(0.999084 0.00019979 1.24405e-17)
(0.994642 0.00735001 1.02333e-17)
(0.964037 0.00233193 -2.33198e-16)
(1.0338 0.00705807 1.02341e-18)
(1.02765 -0.000720095 3.03346e-18)
(1.00077 -0.000157916 8.3568e-18)
(1.00484 0.00691235 -2.23524e-18)
(0.992837 0.0268059 1.54124e-17)
(1.00633 0.00532707 1.1752e-17)
(1.00939 0.00139896 -1.53037e-18)
(1.04501 0.0335882 1.3618e-17)
(0.993708 0.00118698 3.44337e-17)
(0.992336 0.0343648 -7.18841e-18)
(1.03551 0.0142802 -6.3584e-18)
(1.00524 0.00642213 -3.19731e-18)
(1.00809 0.00662174 4.95902e-18)
(0.946617 0.059388 9.41015e-18)
(1 -1.355e-05 -2.49916e-18)
(0.993474 0.0054427 -1.36487e-18)
(1.29901 0.151583 2.06736e-17)
(0.999897 3.53306e-05 2.92582e-16)
(1.04018 0.0368543 -5.28918e-18)
(0.996119 0.0742624 -1.32535e-17)
(1.00746 0.00689173 -1.31923e-17)
(0.959014 0.045169 6.27534e-17)
(1.03557 0.0148257 -3.8722e-19)
(0.997667 0.0257259 1.30005e-17)
(1.02874 0.033261 8.58374e-18)
(0.999701 0.00314875 3.09326e-18)
(0.933534 0.0415678 -9.5937e-17)
(1.00525 0.000963859 1.80849e-17)
(1.03198 -0.000186872 -2.66258e-19)
(1.03512 0.0152111 -3.88225e-19)
(0.935386 0.0437956 -1.38852e-16)
(0.999742 0.00305444 2.16773e-18)
(1.03939 0.00339018 -2.78598e-19)
(1.0517 0.0208727 -8.97704e-18)
(0.992703 0.0339575 -1.71153e-17)
(1.0059 0.0131387 3.80444e-18)
(1.00466 0.00289287 1.14646e-18)
(1.01211 0.0632314 -2.1031e-17)
(0.793565 0.196615 6.47209e-17)
(0.995641 0.000839886 -3.518e-17)
(0.999974 3.01418e-05 3.37576e-17)
(0.993838 0.0259936 -1.30191e-17)
(1 3.2049e-05 1.07774e-18)
(1.1679 0.193035 -4.30472e-17)
(1.00668 0.0225064 -4.07104e-18)
(1.03863 0.0854268 2.56629e-17)
(1.01544 0.00728604 1.32338e-17)
(1.02634 0.0014054 4.26146e-18)
(0.253038 0.102386 -6.33145e-16)
(1.00645 0.0156 2.66797e-17)
(1.08614 0.197647 4.2378e-17)
(1.03323 0.00681971 -1.11661e-18)
(1.05008 -0.0259827 9.54684e-17)
(1.02825 0.0120065 1.47398e-18)
(0.996904 0.0117505 -5.69977e-19)
(1.00603 0.014428 -3.06149e-18)
(1.01553 -0.000656213 -1.42619e-18)
(1.0958 0.089548 -1.19988e-17)
(1.0821 0.0879325 2.132e-18)
(1.00123 0.000285662 -8.4136e-18)
(1.00193 -0.000199138 2.80207e-18)
(0.931337 0.0506348 -1.46403e-16)
(1.00203 -0.000240659 -7.45212e-18)
(0.687667 0.389284 1.97745e-17)
(1.02795 0.0316685 4.03874e-19)
(0.970143 0.170925 -3.25022e-17)
(1.00422 0.00303987 -2.58054e-17)
(0.0555433 0.26244 -2.79841e-16)
(1.13501 0.242644 4.58754e-17)
(1.00576 0.02223 -1.27123e-17)
(0.999997 1.2842e-05 1.69941e-18)
(0.999999 0.00272994 3.59456e-19)
(0.953358 0.0305082 9.47729e-17)
(0.994482 0.00809309 5.3639e-18)
(0.989708 0.00032298 7.69283e-17)
(0.99737 0.00968996 1.41163e-18)
(1.03077 0.0114545 3.90487e-18)
(0.972352 0.0309436 2.82415e-17)
(1.06266 0.00358977 -1.75601e-17)
(0.618606 0.0514838 -1.5792e-16)
(1.00064 -2.73962e-05 2.58687e-18)
(0.965389 0.0371387 9.22349e-17)
(1.0335 0.029782 -6.48245e-18)
(0.921116 0.0537513 5.42615e-17)
(1.00454 0.0127219 8.94692e-18)
(0.931115 0.0745069 4.95845e-17)
(1.03643 0.0079072 1.27276e-18)
(0.952997 0.0351217 -2.63497e-17)
(0.997217 0.000555712 -4.02848e-17)
(1.00005 -4.0991e-06 2.59773e-18)
(1.03665 0.0226089 4.0427e-18)
(1.03995 0.0244608 -7.51632e-19)
(1.02849 0.00168747 -1.67552e-18)
(0.929971 0.0374373 1.1306e-16)
(1.03557 0.0849639 2.9737e-18)
(1.02086 0.000680881 -5.45885e-18)
(0.997433 0.0239734 -4.39312e-18)
(1.00053 0.00383569 3.61927e-18)
(1.00938 0.00874466 8.68299e-19)
(0.773709 0.0324563 2.34096e-16)
(1.00918 0.00846602 -5.21738e-18)
(1.03381 0.0205729 -8.81868e-18)
(0.982903 0.0415083 2.88851e-17)
(1.02631 0.00955495 -2.91252e-18)
(1.01058 0.000250298 4.60993e-18)
(0.996535 0.0113525 7.39166e-18)
(1.05177 0.0214997 2.6246e-19)
(1.01485 0.00688707 -4.79724e-18)
(1.00505 0.0130196 -8.84548e-19)
(1.05658 0.00218389 -5.7928e-17)
(0.991187 0.0294111 -8.36781e-18)
(1.0205 0.001079 -4.99839e-19)
(0.808783 0.330133 3.10226e-17)
(1 -1.04101e-05 3.05617e-20)
(1.01533 0.0078271 3.98163e-18)
(0.999532 0.0207678 1.36053e-17)
(0.992505 0.00713521 -1.12011e-17)
(1.00323 0.00047378 1.15791e-17)
(0.998262 0.0240594 -2.60209e-17)
(1.00001 -6.43851e-06 -2.41004e-18)
(1.04527 0.104959 2.38706e-17)
(1.00529 0.000736235 3.02201e-19)
(0.972662 0.0056172 2.41693e-16)
(1.03512 0.0322132 4.64382e-18)
(0.957057 0.046339 2.60892e-17)
(1.01643 0.00893437 -4.01763e-18)
(1.01589 0.00821455 1.87162e-17)
(1.037 0.023435 -3.25289e-18)
(1.14327 0.10954 -4.42754e-17)
(0.999867 7.93371e-05 9.32629e-17)
(0.992836 0.000817631 -1.50936e-16)
(1.02184 0.00106002 -6.51688e-18)
(1.10088 0.204567 3.59083e-17)
(1.03908 0.0240928 -9.27957e-18)
(0.999927 0.00305559 -2.63064e-18)
(0.259801 0.142367 -1.20806e-15)
(1.00003 1.49948e-05 -1.10995e-19)
(1.00518 0.00138462 -9.75357e-18)
(0.764735 0.00201942 1.29491e-16)
(0.994605 0.00509973 1.03419e-17)
(0.999551 0.00320539 -4.27253e-18)
(0.999497 0.00340009 1.69987e-18)
(0.983506 0.0378993 5.31418e-18)
(0.958794 0.0272574 -5.84016e-18)
(0.99986 3.31185e-05 -1.0241e-16)
(0.993603 0.00640949 -5.78048e-18)
(0.937261 0.0672964 3.11058e-17)
(0.99846 0.0204076 -2.19635e-17)
(0.99643 0.0166703 -1.27001e-17)
(0.996498 0.0095786 8.13431e-18)
(1.00112 7.18845e-05 -3.84429e-18)
(0.959717 0.0321766 1.23124e-17)
(1.06498 0.0551404 9.46314e-18)
(0.99499 0.0158904 -1.99175e-17)
(0.937847 0.0255981 6.31236e-18)
(1.03348 0.00604828 -4.59942e-18)
(1.03499 -0.000614892 1.71674e-18)
(1.04053 0.103335 5.39875e-19)
(1.03233 0.028645 -7.27714e-18)
(0.996573 0.00918102 -1.51992e-17)
(1.005 0.00159049 9.49317e-18)
(1.08906 0.0980597 -2.07455e-17)
(1.03712 0.0054733 2.54674e-18)
(0.976355 0.0243215 -7.56746e-18)
(1.00068 0.00413951 3.57247e-18)
(0.999703 0.000399738 -8.05155e-17)
(0.924927 0.0137565 -1.67099e-16)
(1.04883 0.0380157 1.04703e-17)
(1.01388 0.00659569 9.55916e-18)
(1.01185 0.0496928 -9.30371e-18)
(1.01431 0.00748991 -2.09329e-18)
(0.996779 0.0100415 1.85808e-17)
(1.00527 0.00445839 1.33297e-18)
(0.966612 0.0344208 -1.06459e-18)
(0.85689 0.0188059 -7.84336e-17)
(0.283908 0.431197 2.50594e-16)
(0.969271 0.0361553 1.6456e-18)
(0.99913 0.0181902 -4.31921e-18)
(1.00509 0.0044052 -6.65562e-18)
(0.97084 0.0336992 1.24748e-17)
(0.62412 0.286553 1.59329e-16)
(0.9373 0.0295041 1.70046e-16)
(0.999778 0.00281972 3.34808e-18)
(1.04832 0.0319007 5.01417e-18)
(1.06054 0.070865 7.97466e-19)