/*--------------------------------*- C++ -*----------------------------------*\
  =========                 |
  \\      /  F ield         | OpenFOAM: The Open Source CFD Toolbox
   \\    /   O peration     | Website:  https://openfoam.org
    \\  /    A nd           | Version:  7
     \\/     M anipulation  |
\*---------------------------------------------------------------------------*/
FoamFile
{
    version     2.0;
    format      ascii;
    class       volScalarField;
    location    "0.723";
    object      T;
}
// * * * * * * * * * * * * * * * * * * * * * * * * * * * * * * * * * * * * * //

dimensions      [0 2 -2 0 0 0 0];

internalField   nonuniform List<scalar> 
12359
(
-2.70909e-76
-3.51206e-62
-1.01139e-209
1.07607e-40
-2.46603e-71
-6.78926e-28
6.2438e-23
-6.64525e-26
-4.03497e-18
4.88711e-31
5.95416e-21
1.88945e-13
0.24692
-2.28557e-38
6.57317e-44
6.83764e-06
0.00218218
-4.95303e-114
2.98222e-117
1.63207e-51
-8.1891e-36
3.90927e-16
7.1896e-58
-7.9817e-50
1.86193e-59
-3.90632e-54
-4.90264e-151
3.8748e-154
-1.36133e-122
-6.37887e-143
-7.64405e-137
6.18847e-169
-7.77244e-187
-1.33359e-145
2.18663e-198
4.23934e-134
-3.38407e-92
-2.34132e-79
-2.88735e-73
-7.12302e-85
-4.42535e-65
2.6333e-82
-4.22082e-100
6.59232e-103
-1.11405e-128
1.85041e-125
-1.1614e-131
1.07928e-139
4.20704e-120
3.68342e-148
4.13048e-158
1.03061e-162
1.68278e-172
2.90335e-111
2.28264e-177
2.36486e-183
-6.62163e-106
-1.39522e-189
3.42494e-192
-2.97799e-195
-2.46348e-180
5.22307e-205
-6.12833e-160
9.6257
-3.96632e-109
4.26747e-33
9.6299e-96
-1.21582e-165
1.3055e-89
-1.62929e-08
120.088
1.7272e-67
9.8803e-213
-1.10345e-87
-6.91201e-46
-1.53056e-201
-1.67755e-174
4.97141e-207
8.46169e-98
-7.68672e-11
-1.97612e-27
-1.56116e-124
-1.25504e-267
-1.19629e-77
0.00157193
3.09493e-76
-2.10488e-122
3.26503e-173
0.880262
0.000495686
2.97665e-231
3.16177
6.75331e-233
-9.93914e-102
-1.25736e-81
6.89895e-54
-4.99896e-108
-2.83347e-102
3.40927e-51
-2.34444e-64
5.86581e-23
-3.05601e-226
6.50103e-77
27.9203
-9.6691e-133
9.08761e-29
7.77716e-228
0.00202798
3.02755e-85
6.25821e-30
1.34855e-109
-2.91378e-124
-7.28344e-32
1.11654e-26
-2.90745e-82
-1.30299e-156
9.59762e-26
-1.07986e-123
3.10295
-1.26294e-264
-1.27233e-110
2.11224e-23
9.4264e-172
5.37518e-38
-8.0716e-123
2.40647e-146
9.56348e-17
-6.46149e-77
2.57948e-208
-5.97472e-124
3.74315e-155
1.43263e-06
6.81792e-05
3.93583e-05
-1.09994e-229
2.34771e-38
1.13417e-154
8.37305e-40
-1.98214e-221
1.17619e-17
-3.26628e-256
2.27945e-75
1.11063e-38
-6.14954e-228
3.27133e-18
9.52147e-29
-2.27996e-267
0.000625709
-2.66279e-132
5.20112e-27
1.04695e-51
-4.36942e-223
6.36635e-38
6.17832e-170
1.43152e-238
118.159
9.59082e-24
1.17624e-06
-3.47937e-108
4.63048e-173
1.11684e-34
-8.52272e-172
5.81245e-38
3.54123e-38
2.89426e-254
2.97196e-148
2.13136e-35
2.67567e-24
7.63344e-40
0.787485
-1.0172e-204
-2.04637e-203
3.55525e-41
9.38303e-61
-1.94283e-134
4.78512e-18
3.68545e-126
8.51792e-128
-1.11622e-31
5.13411e-19
-1.00163e-38
-1.13617e-236
5.49151e-208
-1.62911e-123
1.54749e-52
3.00442e-16
-2.59025e-103
-1.64033e-85
1.38468e-50
-1.62511e-102
-4.69891e-84
2.69538e-55
1.16748e-56
1.21261e-168
2.04589e-29
37.9556
2.58142e-63
-1.57727e-102
6.07427e-38
-1.49372e-122
2.15537e-27
3.90312e-51
-5.10781e-65
3.95727e-30
2.28283e-21
-1.77115e-236
2.86319e-20
-1.72633e-63
6.90346e-33
-1.49446e-111
1.82481e-248
7.92538e-16
1.77083e-15
153.128
9.04745e-16
-7.79494e-219
-5.74543e-103
-1.47121e-83
-2.5854e-102
1.1932e-73
5.69794e-27
-5.51389e-113
5.38475e-39
3.45559
-6.5636e-124
4.9463e-248
2.76565e-72
8.3655e-87
1.70622e-19
-7.71343e-100
-5.61122e-99
-1.41085e-255
1.69028e-18
-3.8133e-59
-5.34994e-86
-2.24208e-60
9.96676e-263
9.41853e-36
-1.22463e-84
8.11943e-05
-1.19833e-244
5.90435e-73
-3.63412e-93
3.54661e-10
9.86706e-33
0.000931212
1.18639e-193
7.19942e-34
2.88395e-140
7.94942e-57
8.51961e-22
-2.96102e-82
5.28961e-131
-4.44256e-99
1.25138
124.082
2.52791e-262
5.11902e-117
1.43389
178.904
-2.11708e-63
3.80352e-33
1.9522e-21
4.60616e-30
1.45871e-62
57.3516
3.10372
3.64774e-31
1.12342e-118
2.32057e-38
2.37984e-40
3.01831e-52
5.75385e-39
-7.21052e-101
-1.21337e-114
-2.57425e-246
-3.01777e-116
8.66275
6.02386e-31
6.4452e-211
-3.04794e-224
6.9494e-30
1.52693e-117
-1.48611e-96
1.99757e-74
-7.79287e-259
1.43856e-21
-2.33495e-224
1.68226e-225
-2.1068e-171
6.0498e-39
-2.25457e-126
50.411
1.20049e-229
-8.17085e-228
8.97543e-76
-9.4071e-141
7.224e-28
-1.35803e-86
3.65372e-160
8.51387e-231
7.71714
1.55438e-20
1.00961e-231
-6.06065e-102
-4.86439e-88
-3.46801e-139
1.67905e-154
-1.55401e-156
-4.02306e-136
-8.33649e-119
-3.31293e-16
2.04651e-140
1.26863e-138
-3.43756e-82
4.69372e-35
1.42278
6.59924e-137
-2.32361e-54
3.2338e-06
1.74397e-224
1.30299e-46
-1.35351e-209
2.5739e-62
-4.54538e-226
1.28684e-135
1.76552e-16
4.40635e-43
7.19157e-17
-1.02428e-97
-1.89025e-93
6.74925e-57
6.11099e-53
-2.6851e-92
2.37127e-57
2.79054e-57
7.94486e-192
-8.28896e-183
-2.4323e-180
3.67057e-179
-1.03677e-180
0.000336568
1.5063e-257
8.52969e-26
3.82545e-40
6.13522e-55
9.22546e-37
2.36027e-42
3.68754e-76
1.13673e-64
1.26335e-42
7.32377e-66
-6.05175e-55
3.84352e-32
2.33668e-31
3.09824e-31
4.83295e-74
6.03353e-15
1.3246e-76
1.70145e-76
2.65269e-38
1.91047e-20
-2.31171e-126
-2.84638e-176
7.04038e-63
-4.17787e-178
4.45663e-125
169.256
17.5987
1.25129e-124
-2.69603e-219
-4.31328e-231
-7.98489e-241
2.15889e-43
8.91823e-237
-4.64964e-238
1.10831
2.27401e-38
0.000370942
5.66951e-127
1.49527e-32
3.21609e-119
-7.54795e-92
2.82692e-28
9.75729e-64
-2.01606e-40
3.2689e-65
4.86562e-127
1.94299e-210
5.20091e-39
1.32756e-32
3.95613e-126
4.44554e-12
1.25371e-28
7.06001e-54
5.87183e-44
8.4485e-37
3.30158e-218
10.0672
4.10342e-14
1.14386e-125
1.1152e-10
5.4434e-78
-3.28985e-254
1.66177e-254
-1.36125e-243
0.000716582
2.27779e-21
-1.86385e-53
8.50855e-48
2.03648e-52
-4.45033e-80
-9.8937e-39
1.75332e-45
1.58501e-11
1.42838
-8.58186e-12
1.06214e-54
2.84722e-32
1.13848e-83
3.40579e-29
-2.06547e-69
2.1708e-61
-6.55141e-146
-8.05958e-71
6.66737e-41
1.37572e-235
168.164
9.94669e-95
0.431531
5.48598e-34
-3.04363e-105
4.41986e-30
0.971099
1.60647e-40
-5.25962e-63
2.59045e-54
8.56458e-33
2.29936e-28
-7.99341e-120
-3.08883e-248
1.57633e-24
-1.40759e-224
5.7523e-07
1.00601e-153
-7.17197e-56
9.69632e-36
-4.04727e-101
0.00833046
5.57591e-25
-5.04295e-67
-2.24257e-119
2.82873e-05
2.50745e-197
6.41343e-131
2.25745e-15
-6.47893e-218
-9.27675e-120
1.14432e-131
9.10455e-08
18.5738
-4.12301e-79
2.40747e-178
-1.87171e-33
1.03193e-37
5.20247e-47
2.70739e-36
9.83661e-40
1.58079e-190
-2.08667e-242
7.98605e-42
3.24309e-229
7.52685e-37
2.01274e-47
9.13194e-30
1.71588e-129
1.09686e-25
6.59257e-14
6.16581e-145
-6.08608e-81
1.6887e-124
-1.03161e-29
3.8459e-15
-5.62538e-221
2.33353e-40
9.88912e-42
3.45849e-86
5.24854e-39
9.56162e-153
1.23928e-21
1.74455e-67
2.20211e-36
3.40814e-30
7.24141e-189
-1.23346e-81
3.97301e-10
0.000263544
1.67307e-230
3.74018e-61
2.60752e-10
7.16903e-48
0.739036
-1.00447e-243
4.8172e-155
1.52274e-195
1.62055e-36
-7.70466e-64
-1.76861e-73
3.67282e-151
8.93239e-43
2.55967e-59
3.41509e-63
-1.79497e-109
0.000234515
2.50276e-219
0.000553252
7.63997e-175
151.066
2.92345e-66
6.90857e-11
2.6675e-192
9.04612e-131
7.60174e-34
-3.0232e-125
1.4371e-161
-6.44157e-100
-9.01079e-62
-2.14087e-62
2.60581e-12
1.43179e-24
1.00353e-24
-6.55949e-268
-4.34856e-125
3.13131e-45
0.00033537
-1.80334e-267
-3.06657e-215
6.73269e-41
3.46861e-193
5.06856e-17
1.17875
93.3355
-6.43992e-266
1.66657e-84
7.71077e-21
-4.68845e-71
-1.79646e-134
93.451
-4.95297e-218
2.96712e-24
1.45145e-34
-1.24089e-84
-3.15074e-137
1.44184e-158
-9.10158e-103
9.25539e-41
2.7408e-66
-4.32363e-78
-1.84354e-264
-2.1849e-206
-9.11669e-66
1.52627e-126
1.6333e-28
6.76757e-37
-2.78926e-169
3.07897e-213
1.74282e-31
163.961
-8.03372e-139
6.53406e-12
-6.71226e-233
-2.0326e-77
1.92025e-24
3.16436e-48
1.16369e-22
4.46477e-29
-3.32467e-63
2.55507e-36
-1.82571e-250
-2.00647e-200
1.25857e-51
-2.91093e-74
-4.72082e-64
-1.60765e-76
-3.3053e-239
1.40221e-211
-1.12293e-145
-1.70676e-52
1.01172e-31
-4.9374e-34
2.28766e-93
-3.76599e-32
4.02134e-39
-9.75948e-62
-3.844e-31
-2.51217e-56
0.536726
1.31974e-37
7.57005e-55
8.72549e-30
1.84079e-200
5.34973e-24
2.20203e-33
1.58725e-268
-9.24578e-218
2.46744e-192
1.60509e-194
3.39538e-07
-3.20463e-61
4.51725e-93
-3.27989e-33
-2.77508e-99
1.87427e-16
1.07098e-48
3.67703e-40
-1.40334e-144
2.9403e-11
-6.98098e-240
3.94905e-50
8.94311e-120
2.1745e-19
-1.98792e-30
2.16411e-69
8.71449e-61
9.18922
4.17742e-40
4.68842e-14
-8.83857e-70
9.50131e-12
0.553014
-4.05486e-183
5.6072e-128
-9.95553e-241
1.34986e-08
1.48826e-127
4.30272e-66
0.00697133
-3.28445e-216
1.174e-61
6.8074e-33
-2.72442e-66
6.08654e-136
-4.36201e-70
-5.35832e-175
-2.66762e-68
1.06503e-175
-3.52963e-175
-1.75099e-72
5.64307e-38
2.73129e-40
-6.3327e-65
8.43248e-09
3.35918e-49
17.5845
2.90052e-39
7.48766e-75
-2.91338e-70
5.21071e-41
1.35491e-53
3.66364e-55
0.539845
-2.42594e-36
2.3897e-56
6.30831e-55
-4.02758e-117
6.60468e-128
4.85714e-32
-1.47208e-246
12.1303
1.95703e-172
-2.5851e-35
7.59617e-23
2.25431e-07
2.97565e-20
7.52182e-32
3.27849e-34
-1.17219e-70
2.18152e-20
7.67046e-43
5.90607e-14
7.92385e-55
4.28467e-14
1.79826e-56
-1.8075e-259
-3.56765e-54
175.981
2.07526e-13
-4.94126e-98
1.59515e-251
4.22728e-167
1.67841e-89
-9.96935e-58
3.71353e-41
9.67993e-63
1.17973e-191
3.36611e-97
3.12983e-53
7.30324e-100
-1.22528e-109
2.5201e-13
-5.65997e-107
4.71994e-45
1.73142e-28
-2.14246e-98
4.41033e-90
1.29289e-28
-1.15541e-269
-1.47114e-92
50.3533
-5.37386e-197
4.15277e-17
1.67114e-23
-3.10909e-91
1.86181e-33
1.80194e-28
-2.21472e-55
1.00541e-27
3.97337e-127
-1.68236e-33
-3.6674e-135
2.67265e-58
1.21387e-30
-3.49546e-32
-3.10395e-127
1.19645e-35
5.15308e-07
-9.12144e-47
-1.95297e-71
-6.40886e-121
2.33934e-23
5.64371e-07
2.01488e-120
5.89042e-220
1.79716e-55
6.35061e-234
0.665324
2.09334e-55
1.10308e-12
6.67428e-70
4.00146e-64
12.0226
-1.74137e-67
0.00146994
1.7076e-42
88.6823
8.6054e-45
-4.81465e-77
-6.40859e-69
1.06459e-87
0.0035126
0.000311503
3.2961e-179
2.19361e-176
-6.09587e-30
8.37942e-167
0.00350191
1.30707e-29
2.4796e-10
-1.27386e-120
129.862
0.0871003
2.21843e-54
-8.27092e-259
-2.81791e-132
-1.11069e-38
2.18589e-87
2.75158e-92
-3.67916e-84
1.21562e-40
4.44513e-44
34.6195
8.70033e-08
2.35599e-193
4.77248e-38
4.61101e-26
-1.17718e-28
-2.62453e-75
3.2133e-23
4.14236e-35
-1.40002e-37
2.62612e-135
1.42492e-256
3.30953e-22
4.43051e-19
1.0138e-64
-5.53911e-31
1.61004e-13
2.84059e-76
-2.10037e-57
1.81569e-118
1.56697e-81
2.39275e-15
-1.08451e-79
2.71551e-27
2.33171e-41
5.15571e-51
1.05636e-101
-1.26019e-78
1.49284e-07
4.61666e-72
-1.91757e-75
37.2616
3.12764e-50
7.66706e-78
0.00954605
-5.31841e-263
1.58153e-70
-5.34961e-63
-3.60786e-88
1.4124e-148
5.17758e-58
1.70315e-270
6.81588e-10
2.99319e-127
9.11945e-62
2.48739e-22
3.19326e-33
1.95829e-65
2.13318e-68
2.42806e-23
91.9972
5.71024e-199
-7.21633e-104
6.58321e-77
0.00710767
3.78481e-19
-5.72515e-129
2.88004
-2.23059e-257
-2.96205e-130
182.666
-2.39983e-97
1.49003e-125
2.56696e-123
1.18383e-42
-4.29925e-41
4.79216e-195
-1.52862e-90
2.21937e-25
8.58333e-64
-2.45968e-66
-3.27621e-85
-8.94485e-182
-6.76065e-40
1.47467e-06
-8.19133e-69
-4.10976e-32
2.37575e-43
1.11839e-56
9.26507e-11
4.81531e-27
-1.04423e-83
-2.7658e-128
0.000398792
8.15701e-38
8.55343e-48
-6.38988e-118
8.53362e-193
-1.43676e-37
2.16132e-11
2.42334e-74
3.83296e-30
8.63979e-73
-7.8382e-83
-1.30036e-106
1.9796e-40
149.432
18.2534
3.09036e-39
2.06917e-67
-5.3579e-109
1.27403e-41
0.0124626
-1.26317e-34
-1.35157e-130
3.52002e-12
4.64489e-08
8.69683
-1.42803e-92
86.3866
3.54089e-195
-2.19701e-81
2.34773e-191
2.94631e-11
1.44675e-46
81.5507
-3.90409e-135
0.0183526
1.62682e-165
-1.53085e-67
7.67258e-32
-2.58253e-89
9.27382e-13
0.10257
-2.30264e-95
1.87556e-100
5.72222e-71
-3.85157e-93
-6.57189e-97
5.03719e-14
4.41545e-49
8.84874e-68
8.18897e-16
-4.34817e-97
4.36007e-189
-2.46531e-70
-1.8495e-166
1.55104e-27
6.30811e-71
1.99942e-09
2.73725e-11
-1.54047e-43
4.90833e-35
1.45173e-39
-5.54879e-70
0.0116538
8.48062e-77
-1.53656e-101
-5.73727e-239
8.11919e-12
-6.61944e-36
-1.69414e-136
3.80279e-27
-3.55703e-86
2.25097e-35
-2.47406e-38
-1.82082e-33
7.66825e-41
87.8467
4.25433e-39
-2.46625e-42
0.105926
-3.13162e-90
1.71483e-07
4.90867e-26
3.10486e-169
3.17359e-75
-2.38841e-108
-9.21267e-74
-4.74922e-252
-2.39412e-122
1.66714e-07
1.18776e-11
-1.95818e-123
200.249
9.15543e-30
-3.77725e-171
4.44488e-12
3.35933e-13
4.31448e-174
6.88468e-11
2.44811e-23
1.52785e-11
-1.315e-173
3.75765e-129
-8.64899e-106
2.99006e-174
-2.55095e-37
28.7126
-1.29503e-136
3.41254e-12
-1.18568e-264
2.62115
4.64048e-28
3.02667e-38
-1.34266e-219
-2.50273e-138
-4.74391e-80
1.61678e-42
1.65095e-15
7.28022e-36
6.20611e-99
-4.14713e-93
-1.31669e-173
1.56279e-29
3.53639e-39
-8.78577e-108
-9.84013e-218
1.90074e-58
2.6796e-36
2.61577e-45
-6.05024e-145
4.91674e-07
2.41571e-30
2.78422e-165
7.60757e-48
-1.83743e-93
-5.31829e-77
194.019
-1.26205e-98
-7.85467e-170
1.06269e-41
-4.76245e-37
-4.72474e-46
2.82903
5.08349e-63
1.13559e-79
1.32369e-34
-1.5743e-88
7.65725e-87
4.56885e-78
5.69795e-88
-1.70441e-29
-2.90581e-77
14.6111
-8.67316e-45
4.32996e-10
-3.61127e-85
0.00231369
4.70572e-32
2.7706e-10
3.27353e-14
8.86691e-37
1.44919e-78
2.69291e-84
-2.19332e-61
2.6691e-265
-4.85084e-80
9.4347e-37
2.38851e-14
-4.00997e-89
1.52458e-166
1.87805e-39
1.98289e-37
5.06648e-18
2.01999e-40
2.92604e-12
5.57315e-18
2.86631e-116
1.17723e-51
0.650808
5.69209e-38
1.82925e-255
2.52351e-93
-5.38809e-91
2.30301e-258
6.05492e-53
5.86607e-197
-2.0129e-78
2.78463e-15
2.1839e-34
1.84183e-06
4.31643e-193
3.83831e-137
1.17795e-232
-4.57041e-90
-1.16717e-107
3.26697e-10
-2.43361e-107
2.17747e-137
3.88772e-07
8.23225e-38
2.82422e-52
2.84827e-54
1.02324e-17
1.60961e-98
2.68698e-12
3.20436e-85
-7.90458e-191
0.00174734
1.42428e-45
8.94653e-21
-1.36482e-102
54.9865
-8.49037e-41
4.57161e-47
5.38718e-38
2.59703e-31
32.3301
-1.54224e-82
9.69006e-13
-5.01241e-49
-3.42799e-49
1.12993e-143
8.51056e-70
1.18269e-07
6.67449e-81
3.10539e-09
-7.06098e-96
-4.63475e-100
5.47618e-13
1.05633e-156
1.79084e-125
-4.9366e-81
2.79628e-44
2.55506e-11
-5.27279e-97
-9.75694e-92
-3.20932e-236
-7.3004e-48
0.00200422
3.03506e-44
-4.06752e-91
-6.74159e-65
9.91772e-100
-6.67726e-134
13.7514
-1.36718e-48
-4.36963e-222
2.32693e-50
3.35817e-101
-1.67622e-39
-4.19045e-28
1.17354e-49
1.51247e-89
4.16402e-15
1.73145e-11
-1.76544e-224
-4.71194e-64
6.40161e-12
-3.23367e-137
-1.51161e-199
3.10033e-67
2.85053e-53
1.83884e-83
-6.30174e-198
6.04213e-54
1.36074e-12
-6.83363e-173
5.78673e-24
1.52856e-197
-2.03029e-107
5.70732e-57
4.16322e-05
-8.77052e-243
1.90753
-2.57269e-47
2.2022e-22
37.5147
-2.61675e-43
1.94727e-60
0.0299179
-1.07102e-89
1.38837e-05
1.95105e-19
-1.22906e-66
-7.81196e-82
-2.69387e-84
6.34439e-101
-3.50953e-106
1.53447e-23
0.0278678
192.496
2.3439e-27
-1.62441e-29
0.00720689
1.00674e-29
11.337
4.71313e-150
2.33688e-99
3.02112e-19
2.80759e-45
-1.0268e-122
2.32473e-27
-1.52693e-84
31.1972
-9.24939e-254
1.27017e-133
3.50713e-144
202.945
-2.70191e-37
1.8353e-45
-1.48549e-79
1.938e-19
-2.22914e-86
-2.69551e-140
2.55008e-07
-5.71018e-83
2.46261e-07
1.56506e-23
2.16294e-72
9.07635e-15
1.14583e-45
-3.68237e-100
-3.34935e-136
-3.3688e-132
0.209552
1.20452e-13
-1.4172e-111
3.10333e-18
9.58348e-53
8.07057e-26
-9.45328e-241
1.27858e-49
1.52581e-07
1.93838e-11
-5.24243e-42
-5.85828e-69
1.76428e-135
5.64294e-17
3.82861e-86
4.83636e-139
2.28965e-10
1.69127e-17
-7.01935e-112
-1.15217e-32
6.8789e-47
3.54599e-235
7.06415e-125
-1.08504e-200
-4.15458e-41
83.4964
1.32857e-11
2.40231e-20
-9.71905e-117
-1.61829e-85
1.05041e-44
1.3774e-225
2.69413e-09
1.66923e-46
81.7008
-3.05885e-28
3.48798e-76
3.18753e-113
5.34978e-149
6.41163e-83
-1.21688e-87
2.45405e-121
14.1672
6.50808e-16
1.81448e-37
1.8142e-17
-1.13802e-43
-3.98536e-136
-1.31387e-264
-3.16455e-121
7.30478e-27
0.838454
-3.06471e-22
4.37611e-47
-7.27181e-50
4.32589e-75
1.70941e-16
0.0353088
0.0223081
7.81465e-88
-5.01229e-71
5.24488e-30
1.61219e-102
3.39919e-194
-8.71228e-122
1.70331e-14
-7.03233e-109
1.51977e-62
-1.7049e-95
1.22793e-41
2.11587e-08
5.70096e-101
-2.22248e-121
1.15343e-10
5.21397e-16
-4.3209e-95
-7.25819e-142
-3.52346e-51
9.98695e-05
1.67865e-26
2.1915e-23
-8.26913e-54
4.18498e-62
0.0461234
-7.96727e-84
-2.602e-22
-2.11914e-134
1.01291e-12
5.15874e-12
-1.61057e-177
2.62864e-145
87.2481
3.92808e-123
8.60134e-76
1.03628e-28
1.15143e-111
3.57742e-110
-6.15403e-97
1.03077e-124
1.60421e-232
5.12374e-20
1.30829e-05
6.95892e-148
0.0167993
-2.56022e-87
-4.05198e-126
7.65568e-13
3.16428e-09
2.09016e-27
-1.57305e-88
-2.48472e-121
-7.19182e-46
151.507
-1.83593e-108
1.51143e-148
1.46183e-155
4.30959e-108
3.369e-61
4.62623e-30
-1.36197e-111
4.39163e-80
7.41755e-128
7.27109
5.08755e-09
4.17771e-44
-8.30967e-40
-9.53867e-86
-5.10612e-126
5.89216e-17
1.34586
-6.77194e-75
5.39994e-154
-1.17258e-127
6.9299e-14
9.64814e-112
3.06193e-135
4.27673e-09
-2.70847e-89
-1.58166e-122
115.25
6.63537e-07
6.93149
1.12307e-16
-6.02353e-112
1.06515e-13
1.38736e-10
0.16394
2.41991e-98
1.68319e-30
1.86582e-229
0.120874
-1.37797e-258
-1.91313e-100
1.41978e-86
8.12612e-154
6.37638e-43
7.75901e-95
-2.98492e-110
5.70939e-100
6.36993
2.17469e-14
2.43634e-40
-2.68071e-120
2.59837e-30
15.5593
4.44943e-09
3.81925e-44
-1.74487e-52
-4.36383e-101
1.72624e-87
4.77018e-150
1.30531e-113
3.27142e-146
-6.22877e-123
-1.53248e-44
3.97199e-15
3.27966e-17
0.31569
9.15364e-05
8.84058e-09
5.01487e-25
0.115044
5.80595e-137
3.24715e-05
-3.90942e-128
0.00137857
1.92524e-09
5.96035e-37
-9.23138e-111
2.32874e-36
4.20522e-24
1.39918e-67
78.0443
9.74599e-13
0.367531
-1.58254e-124
6.31389e-10
2.52542e-07
3.57072e-10
1.22353e-07
4.82947e-11
-2.60601e-122
2.10328e-98
2.13246e-43
-2.88484e-115
1.08936e-29
-5.87408e-104
1.37276e-39
6.99775e-179
-5.08164e-94
1.77129e-22
3.47594e-34
1.6467e-140
-1.76922e-48
0.886881
93.7095
-4.06156e-156
1.09529e-50
5.8126e-80
8.45789e-11
1.04706e-30
4.74606
3.71135e-05
8.49203e-101
3.22556e-41
1.92753e-07
-1.49824e-24
4.83613e-06
1.35238e-55
5.73884e-12
1.59734e-142
0.189107
4.09297e-09
-3.46971e-140
1.07307e-07
0.118801
1.07735e-46
3.79259
-4.24632e-90
5.8191e-09
1.26684e-81
-1.39949e-160
2.72372e-76
-5.26822e-85
0.0807036
4.39723e-05
0.0369048
-3.41618e-142
6.36564
1.24397e-37
3.44687e-13
-2.81741e-32
3.27341e-43
1.8262e-52
0.0174448
-1.72541e-88
4.16496e-101
1.50243e-21
2.88874e-09
2.70202e-29
6.66743e-19
-3.17782e-59
0.0483478
2.52245e-30
6.42717e-30
1.63825e-09
-7.63735e-175
6.66395e-08
3.97166e-12
3.6557e-08
-3.6336e-78
0.000791895
2.38892e-148
1.5518e-30
2.3566e-45
1.41786e-06
5.96299e-74
1.61086e-22
1.20228e-08
76.7173
-4.48542e-108
4.18032e-39
-7.69492e-49
3.32354e-10
9.15817e-20
-2.07703e-99
2.01448e-39
1.06407e-150
14.2485
-3.41621e-237
3.69381e-150
-5.46632e-199
6.19601e-07
-2.8323e-121
8.73252e-39
3.72735
1.08334e-54
6.64487e-60
-2.30642e-115
7.78817e-189
7.65787e-10
2.50849e-153
-2.44739e-42
1.89733e-12
-3.8436e-47
2.41236e-06
1.5383e-95
3.13855e-38
1.02723e-07
3.32571e-19
-1.42907e-72
85.9765
-3.39417e-241
1.56528e-183
1.26566e-90
220.071
-1.6817e-79
3.04256e-75
6.47715e-08
-1.08607e-110
7.61404e-94
3.05834e-14
6.98889e-06
2.421e-32
0.0077919
-8.77876e-111
-7.61258e-91
4.5158e-44
3.38124e-49
1.18074e-06
-8.92533e-130
2.26474e-71
-1.74309e-56
-1.70499e-17
-1.32738e-63
3.93013e-142
5.99071e-41
-4.02197e-19
-2.33002e-207
-9.44116e-204
3.73233e-05
6.64706e-32
7.25159e-05
-2.67016e-93
-2.22809e-253
-6.25499e-18
7.51057e-07
-1.51996e-135
-6.87919e-107
3.25325e-150
13.9752
-3.19329e-207
1.51454e-33
5.86117e-05
2.76495e-200
3.78697e-187
1.67048e-19
-1.32751e-163
-6.27983e-204
1.5883e-42
1.86266e-13
2.46821e-144
2.9419e-22
1.75935e-156
7.02287e-08
-1.68009e-255
9.95347e-08
3.32153e-13
1.53563e-21
-7.67066e-201
1.48037e-15
5.15694
3.03155e-102
2.69669e-49
2.96483e-165
8.50758e-14
1.78639e-157
6.42294e-07
1.44037e-09
-5.11521e-87
1.01917e-195
9.28354e-14
2.99899e-14
8.61015e-49
5.89677e-47
1.20777e-16
-4.12138e-162
4.01193e-16
1.89094e-197
1.01531e-05
7.88461e-09
3.94939e-09
7.31169e-21
-1.87724e-23
10.6633
2.65764e-22
1.37307e-45
7.71893e-15
2.57316e-103
1.11373e-12
1.55894e-16
-6.95645e-45
6.28803e-82
0.091279
-1.00316e-214
0.0415838
109.813
7.66248e-115
1.31702e-08
74.0656
1.34152e-35
3.47351e-43
7.2314e-17
-3.98642e-55
1.49388e-148
4.70405e-08
0.0124845
0.82836
-5.0889e-103
1.72616e-16
0.000335345
2.07456e-14
-4.06897e-123
1.47081e-180
6.39896e-34
0.0193107
5.5918e-09
1.39381e-16
-4.80484e-245
-3.96054e-159
9.81337e-15
-5.93458e-110
1.55854e-44
-2.08738e-105
1.37153e-192
1.79566e-07
1.15256e-89
0.000135796
6.16149e-48
1.27999e-171
2.52824e-180
2.59158e-15
-2.11464e-104
6.72044e-35
2.48907e-16
0.643442
-3.87676e-51
1.21148e-143
1.9219e-06
4.25208e-96
2.95497e-152
7.69605e-70
4.46698e-14
-1.32912e-101
4.19777e-14
1.2461e-46
214.343
5.238e-15
-1.1651e-134
7.09857e-05
-6.41348e-198
3.2845e-09
3.8517e-38
5.86153e-06
0.00413548
-3.09901e-46
0.000124588
6.74592e-170
6.25359e-09
4.55374e-124
6.23154e-52
2.49032e-05
2.19436e-28
9.57575e-06
0.0156753
-4.5332e-20
7.60492e-08
1.94374e-06
3.0998e-140
1.28005e-154
-2.34849e-196
0.000156732
-1.32439e-24
1.66112e-138
1.24459e-07
1.1713e-05
3.53835e-39
1.16009e-13
1.64287e-55
-8.07362e-35
0.00198681
-7.38301e-73
1.52304e-30
2.0457e-34
-3.22022e-230
2.2981e-227
-1.8136e-139
-6.37231e-103
7.64053e-48
3.44296e-173
-5.60547e-87
7.84379e-107
1.81327e-65
7.20425e-20
-5.53639e-122
9.80702e-07
-3.32306e-257
9.55607e-12
3.22434e-06
-5.26504e-133
4.44348e-05
6.7064e-13
4.43555e-06
1.25101e-62
6.06449e-17
-1.64845e-112
1.16907e-38
1.94438e-49
5.08462e-182
5.43197e-124
-4.97984e-94
-2.25027e-131
9.31245e-203
4.91711e-56
1.68648e-204
-2.50309e-31
6.18116e-24
0.0640953
5.02266e-175
-1.48275e-63
1.74976e-171
-3.10207e-109
4.99744e-22
4.76049e-66
1.85531e-136
118.965
1.33891e-14
6.21566e-32
4.59864e-61
1.93063e-15
5.12819e-24
1.70666e-67
1.29023e-18
1.07984e-13
-1.33647e-106
3.33091e-199
-2.77787e-84
9.96554e-08
4.27833e-155
-6.39959e-140
5.50276e-14
2.52406e-115
-2.46237e-110
5.69311e-78
1.04694e-142
0.000893088
2.70234e-173
-1.37704e-141
1.8992e-21
6.64755e-19
5.41105
1.84532e-13
-1.54872e-59
-1.39417e-134
1.46591e-17
-3.11639e-136
1.53124e-27
3.13795e-52
4.51543e-107
4.5621e-06
7.31295e-203
2.60805e-22
1.3056e-54
3.75817e-15
-5.02789e-44
2.10792e-208
6.10743e-108
2.19682e-256
1.47853e-25
-1.50161e-157
2.31851e-19
6.9054e-45
-8.91613e-93
-7.80545e-58
5.98226e-40
6.66023e-201
8.11878e-22
1.55603e-22
-8.07637e-104
5.63331e-21
8.08582e-08
1.40987e-190
4.29172e-40
1.29411e-11
9.1229e-14
3.32378e-77
6.23999e-43
1.45655e-41
2.14298e-47
2.91629e-74
3.53863e-15
-4.32475e-74
6.50254e-133
2.60186e-134
0.0292611
1.33204e-08
5.30621e-05
1.36128e-06
-5.88006e-36
5.93121e-21
5.52884e-45
1.34568e-19
1.32049e-133
2.75209
-3.90121e-109
2.3372e-06
4.25611e-09
-7.99758e-138
-7.13417e-26
5.77879e-09
3.9859e-06
4.2016e-43
2.83793e-27
2.97465e-135
-7.77676e-223
3.09787e-15
3.88695e-199
3.55567e-177
1.50053e-17
1.09609e-109
-7.35392e-68
7.03946e-142
-1.26087e-91
2.88134e-15
10.2208
1.95762e-106
-8.42892e-114
9.58995e-09
-8.02517e-39
3.3374e-11
2.03712e-25
2.09721e-26
-3.80457e-112
5.58433e-39
1.27641e-17
2.8219e-17
-7.54517e-31
-3.85967e-159
1.1957e-07
8.98265e-32
8.46095e-20
-1.35482e-85
1.06019e-139
6.03595e-17
2.668e-104
-2.24302e-193
2.08888e-23
1.45111e-08
-9.59073e-176
3.94944e-22
4.4927e-48
-9.24328e-121
-3.414e-77
-2.52803e-119
2.00311e-23
2.07323e-135
2.44996e-141
2.73154e-46
7.00761e-24
-5.78629e-41
-8.67926e-31
9.26396
-2.95614e-109
1.8531e-62
0.285677
3.55727e-34
-8.52041e-121
5.4021e-33
0.000762604
7.84874e-182
-2.03794e-113
5.37107e-194
1.02313e-26
7.44475e-15
1.76532e-49
2.7776e-206
-4.75489e-81
3.85364e-68
4.10493e-94
1.37785e-09
-8.18994e-107
-4.42908e-205
5.58332e-201
5.0464e-29
7.54874e-44
1.44935e-05
-1.57478e-84
-8.82504e-50
1.02436e-32
8.3582e-16
4.6397e-153
1.26607e-24
2.98752e-185
5.37967e-177
-3.09862e-205
4.00108e-10
2.72213e-113
6.48334e-25
2.40618e-24
1.57952e-27
6.18339e-17
1.8944e-28
9.07957e-14
2.579e-26
3.93023e-105
2.54315e-30
-1.89474e-49
4.75665e-36
9.48462e-22
-3.10956e-112
40.3562
2.83619e-17
1.66709e-19
-6.22794e-175
1.44934
2.48472e-16
3.68931e-18
-4.71049e-32
4.34123e-08
-7.68214e-65
5.53727e-106
-3.03921e-93
1.79321e-96
7.26823e-91
1.28759e-18
2.8536e-22
-1.07868e-119
2.86791e-26
8.05822e-96
-5.03051e-91
1.06987e-54
-1.83185e-47
-1.65195e-73
2.35812e-57
-4.4647e-46
6.74834e-27
1.5529e-26
3.42165e-50
1.11177e-190
7.52189e-91
-3.56157e-104
4.40902e-11
8.3486e-156
8.28779e-117
1.98024e-26
1.2697
-3.86484e-133
2.38709e-05
1.05406e-137
9.17687e-105
2.52986e-44
3.22733e-30
2.1089e-35
1.22182e-151
2.25577e-20
9.48827e-23
1.03145e-11
2.91265e-175
1.67718e-26
2.49353e-43
2.12172e-58
-1.1071e-203
-2.81731e-244
8.04647e-29
1.49892e-43
1.72477e-63
50.0102
5.75869e-24
1.34546e-33
-2.02208e-25
3.82293e-47
2.31723e-11
-3.81425e-108
3.00447e-50
-1.3035e-80
-3.05975e-91
0.00623836
4.07331e-25
1.68919e-22
2.6747e-37
-3.31821e-148
2.69189e-19
1.28262e-18
1.18585e-05
7.4151e-90
9.19495e-34
0.000123787
6.66022e-05
1.91311e-139
2.99399e-05
4.33316e-54
20.6026
7.70951e-191
1.5077e-25
5.83444e-38
5.57255e-214
5.23077e-16
6.15314e-69
-6.55936e-81
1.26092e-10
0.000790458
3.17679e-06
3.44319e-80
8.55265e-28
-9.71647e-191
-4.85156e-105
3.4594e-06
1.31827e-31
2.57556e-82
1.07481e-19
-3.84558e-23
6.06062e-29
5.01569e-42
2.80276e-39
2.50625e-24
0.00205136
1.38606e-145
2.65753e-41
3.02711e-50
1.27512e-28
1.71463e-07
1.39941e-24
5.87174e-34
1.60838e-70
2.75243e-194
3.27588e-27
1.63868e-32
1.11565e-22
1.23719e-150
6.90963e-60
8.33688e-27
8.57938e-26
-1.18296e-24
2.94516e-21
1.69647e-76
8.2815e-31
6.80697e-115
8.91912e-15
8.07971e-56
1.89901e-26
5.36508e-65
8.75823e-79
9.69894e-25
5.30599e-61
-4.00605e-69
2.0215e-84
7.21162e-147
1.34087e-32
-4.85951e-53
3.0557e-57
12.0361
0.00846616
-2.36583e-116
6.57673e-84
1.3064e-40
8.2135e-43
1.41854e-206
7.0273e-31
-3.30254e-37
2.9956e-31
-8.13109e-192
6.53596e-14
2.5241e-20
3.22151e-16
7.59366e-31
-7.9212e-176
-2.33561e-98
5.56013e-65
1.74549e-30
4.61507e-09
13.7546
-2.9385e-142
1.87186e-69
-1.57915e-74
2.48015e-07
0.000374185
4.99036e-06
1.17763e-53
2.25541e-23
-4.96659e-190
2.99132e-40
-5.01204e-54
-1.33922e-140
-2.67879e-23
6.84945e-43
1.68636e-36
3.81966e-22
-4.06958e-74
2.17114e-43
3.90558e-33
-7.83172e-178
-4.9133e-267
6.09373e-45
-3.80228e-68
1.63636e-08
4.04607e-51
-2.40938e-23
1.08103e-13
-2.9054e-42
-6.24628e-142
-6.27394e-61
5.05687e-21
8.42469e-146
0.142098
0.0268189
-2.65734e-118
2.11318e-185
7.36315e-110
1.66722e-145
-2.95559e-215
5.08004e-63
1.11753e-69
-2.44598e-33
2.10441e-42
4.01423e-32
-4.22907e-50
8.02949e-06
1.70268e-21
5.04374e-33
2.33061e-43
7.03558e-54
2.2894e-36
-7.72773e-177
-1.26048e-76
2.28723e-71
-1.33532e-32
-1.33654e-26
1.15771e-09
-3.67743e-218
-1.48146e-27
3.11967e-39
1.41678e-51
2.6553e-23
-1.97242e-41
2.24656e-25
0.00233974
5.7471e-40
9.29878e-19
8.08244e-53
2.70097e-91
3.14686e-42
1.37589e-35
-9.3057e-149
1.03864e-44
0.0179025
-1.14826e-80
0.000149987
2.48148e-140
2.98581e-35
-6.41034e-95
9.39662e-78
5.60935e-31
-3.06127e-21
8.62183e-23
-4.47686e-74
5.01441e-47
6.46119e-52
2.06256e-18
1.03743e-14
-2.17016e-47
1.07748e-09
-2.50506e-214
4.83074e-42
7.49887
7.61785e-15
-5.8514e-75
0.292523
1.2261e-20
-1.44045e-70
-1.02556e-164
6.28182e-11
7.37271e-36
2.54195e-53
1.02444e-37
-6.33756e-156
2.51756e-23
-1.10492e-83
6.89521e-15
1.65784e-37
2.51644e-33
-8.5641e-31
-3.39388e-261
-1.83134e-107
5.69147e-53
-7.40344e-91
-7.706e-94
2.53452e-58
2.59112e-78
1.75361e-66
-1.20805e-25
1.17123e-28
-2.63903e-202
8.33997e-17
-4.63188e-106
-2.38829e-176
-2.58827e-28
1.05324e-134
2.09349e-52
1.65655e-53
-3.78553e-150
-9.64793e-147
-1.10277e-86
5.11794e-27
7.1234e-64
2.29327e-33
8.88532e-38
-2.68608e-27
1.15356e-26
4.24732e-54
2.43611e-45
7.6243e-40
-2.72173e-232
-7.34552e-61
1.49522e-80
5.30118e-55
0.129852
2.32152e-29
-1.45097e-73
4.5731e-44
-2.11682e-66
9.57807e-71
-4.69449e-76
3.16091e-65
1.67004e-72
-1.70314e-33
6.55854e-40
-4.95718e-178
3.57332e-28
-1.70462e-51
3.15454e-26
1.57707e-164
-7.04235e-29
2.93997e-05
-1.50369e-101
-2.23895e-41
5.55605e-20
-2.4031e-122
2.19571e-27
2.54323e-14
2.12333e-38
-7.92539e-39
1.00662e-15
1.00786e-44
-1.73363e-52
3.18779e-42
1.83304e-26
3.72852e-131
1.96764e-77
-3.68705e-222
-2.76082e-105
-3.94098e-165
1.0102e-44
3.20294e-41
1.07468e-27
7.41333e-44
11.7161
-4.91986e-21
26.6855
1.91425e-38
2.89329e-10
7.71838
1.24214e-16
20.5132
3.51538e-75
3.33383e-45
9.98535e-52
1.15714e-56
1.42087e-47
2.22028e-107
5.68019e-50
-2.12136e-96
2.9723e-166
-7.33786e-54
2.77242
5.74115e-47
3.69081e-25
2.31588e-49
-3.53651e-88
2.00725e-40
2.29682e-41
2.44164e-111
5.29089e-47
1.08049e-85
3.91157e-25
5.08998e-41
6.51972e-43
-6.17434e-44
0.101353
1.73436e-09
4.29971e-24
3.06755e-54
66.7218
1.46953e-48
-1.17779e-56
7.7683e-30
-4.12893e-30
-1.43741e-61
5.59717e-18
1.20145e-143
-1.94824e-38
-1.99675e-28
1.14658e-44
-7.49192e-47
3.99051e-78
1.48778e-43
-4.68048e-35
1.92898e-73
1.49729e-29
3.82347e-51
9.15853e-66
3.99515e-142
1.74245e-57
1.47457e-41
5.6404e-85
3.01213e-53
1.24004e-65
-1.095e-107
-1.07949e-34
-1.31336e-85
2.03654e-16
4.95225e-48
-1.31943e-66
-1.24318e-150
1.06273e-103
2.67078e-17
3.18299e-43
2.51824e-207
3.85874e-47
6.02957
6.09183e-26
7.96299e-80
1.14468e-53
0.0512557
0.541098
32.199
5.352e-93
8.06883e-95
6.70499e-109
7.84728e-65
4.27627e-31
0.000345903
0.00544678
1.78652e-13
8.03291e-23
2.1963e-80
-1.14007e-161
5.59158e-158
-2.98757e-28
-1.16083e-78
1.71127e-26
-1.83674e-95
4.58247e-07
-9.08271e-92
4.73065e-46
1.91726e-12
-1.66829e-43
2.04014e-22
9.01105e-115
1.55746e-45
-2.9977e-174
2.97767e-19
2.5006e-23
2.77967e-72
-1.15809e-166
7.63223e-71
-7.92118e-26
1.25129e-109
-1.58062e-46
0.0458206
9.74177e-186
2.88601e-71
-1.11644e-39
-3.88319e-40
1.01409e-49
9.07846e-122
-4.48009e-109
1.26675e-107
4.31629e-209
2.67876e-158
-1.6246e-66
8.57581e-31
-3.44462e-175
7.05794e-77
6.39641e-119
147.265
-3.55649e-29
4.61777e-106
-6.251e-220
6.82129e-26
7.32669e-48
5.0583e-22
-1.01074e-48
5.35385e-48
-2.33113e-169
-1.22526e-106
2.66564e-18
5.83757e-232
2.94871e-49
1.48789e-29
2.50536e-53
1.13719e-152
4.02277e-43
-8.99519e-206
-1.36361e-63
-1.80195e-65
5.57533e-108
3.74328e-09
8.26094e-58
1.16452e-70
2.89656e-67