/*--------------------------------*- C++ -*----------------------------------*\
  =========                 |
  \\      /  F ield         | OpenFOAM: The Open Source CFD Toolbox
   \\    /   O peration     | Website:  https://openfoam.org
    \\  /    A nd           | Version:  7
     \\/     M anipulation  |
\*---------------------------------------------------------------------------*/
FoamFile
{
    version     2.0;
    format      ascii;
    class       surfaceScalarField;
    location    "44";
    object      phi;
}
// * * * * * * * * * * * * * * * * * * * * * * * * * * * * * * * * * * * * * //

dimensions      [0 3 -1 0 0 0 0];

internalField   nonuniform List<scalar> 
53160
(
-0.000165079
0.000166886
-1.80743e-06
-0.000324452
0.00016121
-1.83643e-06
-0.00050941
0.00018638
-1.42173e-06
-0.000683205
0.000173926
-1.31191e-07
-0.000864713
0.000179283
2.22445e-06
-0.00104603
0.000175698
5.62159e-06
-0.00122851
0.000173092
9.38304e-06
-0.00140899
0.000168096
1.23859e-05
-0.00158281
0.000160694
1.31284e-05
-0.00174665
0.000153502
1.03398e-05
-0.00188602
0.000135957
3.41227e-06
-0.00200251
0.000123231
-6.74688e-06
-0.0020646
8.0608e-05
-1.85165e-05
-0.00207875
4.21607e-05
-2.80072e-05
-0.00201334
-3.29716e-05
-3.24383e-05
-0.00184791
-0.000136737
-2.86941e-05
-0.00162227
-0.000207737
-1.79069e-05
-0.00122115
-0.000400978
-1.43379e-07
-0.000770335
-0.000469501
1.86892e-05
-0.000670926
3.09353e-05
-0.000130344
-0.000164296
0.000331182
-0.000321944
0.000318858
-0.000504168
0.000368603
-0.000673735
0.000343493
-0.000848947
0.000354496
-0.0010213
0.000348054
-0.00119126
0.000343051
-0.00135466
0.000331495
-0.00150559
0.000311628
-0.00163923
0.000287138
-0.00173957
0.000236295
-0.00180599
0.000189651
-0.00180577
8.03872e-05
-0.00174442
-1.91873e-05
-0.00158257
-0.000194817
-0.00131935
-0.000399955
-0.000951802
-0.00057529
-0.000432543
-0.000920237
0.000182488
-0.00108453
-0.00145871
0.000970274
-0.000162748
0.00049393
-0.000316963
0.000473073
-0.000493733
0.000545373
-0.000654869
0.000504629
-0.000817541
0.000517167
-0.000972082
0.000502595
-0.00111727
0.000488235
-0.00124703
0.000461257
-0.00135322
0.000417817
-0.00142822
0.000362142
-0.00145378
0.000261852
-0.00142519
0.000161065
-0.00130847
-3.63353e-05
-0.00111036
-0.000217301
-0.000773409
-0.000531765
-0.000345438
-0.000827926
0.000267516
-0.00118824
0.000996592
-0.00164931
0.00184482
-0.00193276
-0.00250702
0.00289313
-0.000160461
0.000654391
-0.000309563
0.000622175
-0.0004782
0.000714011
-0.000626779
0.000653208
-0.000770808
0.000661197
-0.000898981
0.000630768
-0.00100772
0.000596971
-0.00108837
0.000541913
-0.00112996
0.000459406
-0.00112117
0.000353354
-0.00104194
0.000182617
-0.000882059
1.18659e-06
-0.0006082
-0.000310195
-0.000231857
-0.000593644
0.000328579
-0.0010922
0.000976066
-0.00147541
0.00183679
-0.00204897
0.00283163
-0.00264415
0.00392966
-0.00303078
-0.00381042
0.00523305
-0.000157469
0.00081186
-0.000299824
0.00076453
-0.0004577
0.000871887
-0.000589698
0.000785206
-0.000709174
0.000780673
-0.000802799
0.000724393
-0.000864134
0.000658305
-0.000881533
0.000559312
-0.000841062
0.000418935
-0.000727178
0.00023947
-0.00051942
-2.51411e-05
-0.000201754
-0.000316479
0.00025559
-0.000767539
0.000837795
-0.00117585
0.00162168
-0.00187608
0.00251656
-0.0023703
0.00361209
-0.0031445
0.00483867
-0.00387073
0.00615929
-0.0043514
-0.00527883
0.0076277
-0.000153822
0.000965682
-0.000287847
0.000898556
-0.000432395
0.00101643
-0.000543903
0.000896714
-0.000633111
0.000869881
-0.00068439
0.000775672
-0.000688097
0.000662012
-0.000629408
0.000500623
-0.000491758
0.000281284
-0.000255201
2.91344e-06
9.78513e-05
-0.000378193
0.000589029
-0.000807657
0.00124366
-0.00142217
0.00204088
-0.00197307
0.00303522
-0.00287043
0.00415918
-0.00349425
0.0054442
-0.00442952
0.0068262
-0.00525273
0.00830147
-0.00582667
-0.0067901
0.00981275
-0.000149576
0.00111526
-0.000273756
0.00102274
-0.000402469
0.00114515
-0.000489682
0.000983926
-0.000543076
0.000923275
-0.000544528
0.000777124
-0.000480988
0.000598472
-0.000334536
0.00035417
-8.66168e-05
3.33654e-05
0.000285852
-0.000369555
0.00079939
-0.000891731
0.00146965
-0.00147791
0.00231821
-0.00227073
0.0033223
-0.00297717
0.00449175
-0.00403988
0.00579382
-0.00479632
0.007198
-0.0058337
0.00864022
-0.00669495
0.010163
-0.00734945
-0.00823313
0.011606
-0.000144798
0.00126006
-0.000257687
0.00113562
-0.000368112
0.00125557
-0.000427302
0.00104312
-0.000439432
0.000935405
-0.000383766
0.000721458
-0.000243764
0.00045847
1.18913e-06
0.000109217
0.000370978
-0.000336423
0.000888607
-0.000887184
0.00156838
-0.00157151
0.00241686
-0.00232639
0.00344152
-0.00329538
0.00462001
-0.00415567
0.00591354
-0.0053334
0.00731379
-0.00619657
0.00874792
-0.00726784
0.0101579
-0.00810494
0.0116103
-0.0088018
-0.00953422
0.0129114
-0.000139563
0.00139962
-0.00023979
0.00123585
-0.000329502
0.00134529
-0.000356966
0.00107058
-0.000322368
0.000900806
-0.000202319
0.00060141
2.32858e-05
0.000232865
0.000376373
-0.00024387
0.00087744
-0.00083749
0.0015454
-0.00155515
0.00238876
-0.00241486
0.00340117
-0.00333881
0.00456819
-0.0044624
0.00586467
-0.00545215
0.00721568
-0.00668441
0.00862142
-0.00760231
0.0099968
-0.00864322
0.0113008
-0.00940896
0.0125982
-0.0100992
-0.0106702
0.0137342
-0.00013395
0.00153357
-0.000220218
0.00132212
-0.000286789
0.00141186
-0.000278765
0.00106256
-0.000191811
0.000813852
-5.96588e-07
0.000410195
0.000319753
-8.74838e-05
0.000789866
-0.000713984
0.00142829
-0.00147592
0.00224508
-0.00237193
0.00323728
-0.00340706
0.00438319
-0.00448472
0.00564199
-0.0057212
0.00698426
-0.00679442
0.00831852
-0.00801867
0.00964619
-0.00892998
0.0108986
-0.00989566
0.0120564
-0.0105667
0.0131755
-0.0112184
-0.0116625
0.0141678
-0.00012804
0.00166161
-0.000199126
0.00139321
-0.000240069
0.0014528
-0.000192634
0.00101512
-4.72291e-05
0.000668448
0.000223948
0.000139018
0.000646324
-0.000509859
0.00123971
-0.00130736
0.00201575
-0.00225196
0.00297023
-0.00332641
0.00408207
-0.0045189
0.0053141
-0.00571675
0.00660221
-0.00700931
0.00791625
-0.00810846
0.00916895
-0.00927137
0.0103657
-0.0101267
0.0114699
-0.0109999
0.0124813
-0.0115781
0.0134502
-0.0121873
-0.0125536
0.0143413
-0.000121916
0.00178353
-0.000176656
0.00144794
-0.000189356
0.0014655
-9.83181e-05
0.000924085
0.000111611
0.000458519
0.00047032
-0.000219691
0.0010025
-0.00104204
0.00172155
-0.00202642
0.00262668
-0.00315709
0.00369493
-0.00439465
0.00488348
-0.00570746
0.00614299
-0.00697627
0.0073977
-0.00826402
0.00862462
-0.00933538
0.00975669
-0.0104034
0.0108091
-0.0111792
0.0117758
-0.0119666
0.0126697
-0.012472
0.0135355
-0.0130531
-0.0133828
0.0143648
-0.000115658
0.00189918
-0.000152926
0.00148521
-0.000134543
0.00144712
4.05879e-06
0.000785483
0.000286141
0.000176436
0.000739963
-0.000673513
0.00138635
-0.00168842
0.00222677
-0.00286684
0.00324127
-0.0041716
0.00438616
-0.00553954
0.00559984
-0.00692114
0.00682873
-0.00820516
0.00800126
-0.00943655
0.00910947
-0.0104436
0.0101129
-0.0114068
0.0110381
-0.0121044
0.0118978
-0.0128263
0.0127108
-0.0132849
0.0135139
-0.0138562
-0.0141768
0.0143078
-0.000109335
0.00200852
-0.000128022
0.0015039
-7.53294e-05
0.00139442
0.0001178
0.000592354
0.000477624
-0.000183388
0.00103288
-0.00122877
0.00179295
-0.00244849
0.00274103
-0.00381492
0.0038337
-0.00526427
0.00500933
-0.00671518
0.00619739
-0.00810919
0.00735091
-0.00935868
0.00841568
-0.0105013
0.00940158
-0.0114295
0.0102913
-0.0122965
0.0111196
-0.0129327
0.011905
-0.0136117
0.0126666
-0.0140466
0.0134335
-0.0146231
-0.0149507
0.0142074
-0.000103006
0.00211152
-0.000101975
0.00150287
-1.07934e-05
0.00130324
0.00024167
0.00033989
0.000687059
-0.000628777
0.00134726
-0.00188897
0.00221317
-0.0033144
0.00324467
-0.00484641
0.00437601
-0.00639561
0.00553619
-0.00787536
0.00665898
-0.00923198
0.00771316
-0.0104128
0.00866738
-0.0114555
0.00954615
-0.0123083
0.0103468
-0.0130971
0.0111076
-0.0136936
0.011844
-0.0143481
0.0125742
-0.0147767
0.0133199
-0.0153688
-0.0157126
0.0140818
-9.67072e-05
0.00220823
-7.47445e-05
0.00148091
5.78994e-05
0.0011706
0.000377768
2.00211e-05
0.000914773
-0.00116578
0.00167834
-0.00265254
0.00263335
-0.0042694
0.00371536
-0.00592843
0.00484417
-0.00752442
0.00595144
-0.00898262
0.00698645
-0.010267
0.00793719
-0.0113636
0.00879314
-0.0123115
0.00958697
-0.0131021
0.0103225
-0.0138327
0.0110386
-0.0144096
0.0117428
-0.0150523
0.0124535
-0.0154875
0.0131863
-0.0161016
-0.0164662
0.0139399
-9.04486e-05
0.00229868
-4.61924e-05
0.00143665
0.000133287
0.000991118
0.000527474
-0.000374167
0.00115954
-0.00179785
0.0020178
-0.0035108
0.00303661
-0.00528822
0.0041326
-0.00702442
0.00522351
-0.00861532
0.00625458
-0.0100137
0.00719592
-0.0112083
0.00805241
-0.0122201
0.00882836
-0.0130874
0.00955855
-0.0138323
0.0102483
-0.0145224
0.0109347
-0.015096
0.0116171
-0.0157347
0.0123155
-0.0161859
0.0130389
-0.016825
-0.0172128
0.0137855
-8.42006e-05
0.00238288
-1.62092e-05
0.00136866
0.000216231
0.000758678
0.000691626
-0.000849562
0.00141779
-0.00252401
0.00235405
-0.00444706
0.00340591
-0.00634007
0.00448207
-0.00810058
0.00551074
-0.00964399
0.00645669
-0.0109597
0.00731007
-0.0120617
0.00808732
-0.0129973
0.00880136
-0.0138015
0.00948509
-0.014516
0.0101428
-0.0151802
0.0108091
-0.0157623
0.0114756
-0.0164012
0.0121655
-0.0168758
0.0128809
-0.0175404
-0.0179526
0.0136207
-7.78839e-05
0.00246076
1.654e-05
0.00127424
0.000307912
0.000467306
0.000869937
-0.00141159
0.00168315
-0.00333722
0.00267385
-0.00543776
0.00372745
-0.00739367
0.00475786
-0.009131
0.00571205
-0.0105982
0.0065747
-0.0118223
0.00735159
-0.0128386
0.00806528
-0.013711
0.00873265
-0.0144689
0.00938248
-0.0151659
0.0100175
-0.0158152
0.0106691
-0.0164139
0.011323
-0.0170551
0.0120064
-0.0175592
0.0127135
-0.0182475
-0.0186853
0.0134462
-7.136e-05
0.00253212
5.30216e-05
0.00114985
0.000409504
0.000110823
0.00106042
-0.0020625
0.00194692
-0.00422372
0.00296479
-0.00645564
0.00399315
-0.00842203
0.00496183
-0.0100997
0.00583918
-0.0114755
0.00662646
-0.0126096
0.00733985
-0.013552
0.00800375
-0.0143749
0.00863616
-0.0151013
0.00926074
-0.0157904
0.00987904
-0.0164335
0.0105187
-0.0170535
0.0111619
-0.0176983
0.0118392
-0.0182365
0.0125373
-0.0189456
-0.0194106
0.0132626
-6.4415e-05
0.00259654
9.34577e-05
0.000991982
0.00052179
-0.00031751
0.00125905
-0.00279976
0.00219927
-0.00516394
0.00321754
-0.00747391
0.00420102
-0.00940551
0.00510106
-0.0109997
0.00590562
-0.0122801
0.0066279
-0.0133319
0.00728987
-0.014214
0.0079151
-0.0150001
0.00852101
-0.0157072
0.00912599
-0.0163954
0.00973116
-0.0170387
0.0103602
-0.0176825
0.0109934
-0.0183315
0.0116646
-0.0189077
0.0123525
-0.0196335
-0.0201283
0.0130702
-5.67391e-05
0.00265328
0.000139408
0.000795834
0.00064476
-0.000822862
0.00146003
-0.00361503
0.00243106
-0.00613498
0.00342705
-0.0084699
0.0043539
-0.0103324
0.00518512
-0.0118309
0.0059242
-0.0130192
0.00659198
-0.0139997
0.00721276
-0.0148347
0.00780776
-0.0155951
0.00839301
-0.0162924
0.0089819
-0.0169843
0.009576
-0.0176328
0.0101946
-0.0183011
0.0108183
-0.0189552
0.0114825
-0.0195719
0.0121593
-0.0203103
-0.0208381
0.0128691
-4.79091e-05
0.00270119
0.000192277
0.000555648
0.000777248
-0.00140783
0.00165647
-0.00449425
0.00263531
-0.00711382
0.00359241
-0.00942699
0.00445757
-0.0111975
0.00522389
-0.0125973
0.00590592
-0.0137012
0.00652867
-0.0146224
0.00711638
-0.0154224
0.00768732
-0.0161661
0.00825575
-0.0168609
0.00883065
-0.0175592
0.00941475
-0.0182169
0.0100227
-0.018909
0.010637
-0.0195695
0.0112932
-0.0202282
0.0119577
-0.0209748
-0.0215401
0.0126597
-3.73705e-05
0.00273856
0.000253197
0.000265081
0.000916784
-0.00207142
0.00184159
-0.00541906
0.00280798
-0.0080802
0.00371578
-0.0103348
0.00451901
-0.0120007
0.00522641
-0.0133047
0.00585965
-0.0143344
0.00644536
-0.0152081
0.00700621
-0.0159833
0.00755745
-0.0167173
0.00811141
-0.0174148
0.00867353
-0.0181213
0.00924802
-0.0187914
0.00984469
-0.0195057
0.0104496
-0.0201744
0.0110967
-0.0208753
0.0117481
-0.0216262
-0.0222342
0.0124422
-2.44168e-05
0.00276297
0.000322741
-8.20766e-05
0.00105972
-0.0028084
0.00200968
-0.00636903
0.00294782
-0.00901834
0.0038012
-0.0111882
0.00454525
-0.0127448
0.00520042
-0.0139598
0.00579229
-0.0149263
0.00634742
-0.0157633
0.00688598
-0.0165218
0.00742048
-0.0172518
0.00796131
-0.0179556
0.00851133
-0.0186713
0.00907615
-0.0193562
0.0096609
-0.0200905
0.0102563
-0.0207698
0.0108929
-0.0215118
0.0115306
-0.0222639
-0.0229203
0.0122166
-8.02637e-06
0.002771
0.000400709
-0.000490812
0.00120159
-0.00360927
0.00215684
-0.00732428
0.00305581
-0.00991732
0.00385347
-0.0119858
0.00454271
-0.013434
0.00515221
-0.0145693
0.00570908
-0.0154832
0.00623864
-0.0162928
0.00675818
-0.0170414
0.00727787
-0.0177715
0.00780626
-0.018484
0.0083445
-0.0192096
0.00889928
-0.019911
0.00947146
-0.0206626
0.0100573
-0.0213557
0.0106819
-0.0221364
0.0113053
-0.0228873
-0.0235985
0.0119834
1.1457e-05
0.00275954
0.0004861
-0.000965455
0.0013377
-0.00446087
0.00228105
-0.00826763
0.00313427
-0.0107705
0.00387746
-0.012729
0.00451692
-0.0140735
0.00508679
-0.0151392
0.00561392
-0.0160103
0.00612169
-0.0168006
0.00662449
-0.0175442
0.00713056
-0.0182776
0.00764675
-0.0190002
0.00817334
-0.0197362
0.00871746
-0.0204551
0.00927662
-0.0212218
0.0098528
-0.0219319
0.0104636
-0.0227471
0.0110724
-0.0234961
-0.0242683
0.0117423
3.47753e-05
0.00272477
0.00057726
-0.00150794
0.00146378
-0.00534739
0.00238197
-0.00918581
0.00318624
-0.0115748
0.00387771
-0.0134205
0.00447253
-0.0146683
0.00500805
-0.0156747
0.00550964
-0.0165119
0.00599841
-0.0172894
0.00648599
-0.0180318
0.00697912
-0.0187707
0.00748312
-0.0195042
0.00799802
-0.0202511
0.00853078
-0.0209879
0.00907677
-0.0217678
0.00964294
-0.022498
0.0102378
-0.0233419
0.0108323
-0.0240907
-0.0249291
0.0114931
6.26344e-05
0.00266213
0.000672062
-0.00211737
0.00157657
-0.0062519
0.00246041
-0.0100697
0.00321494
-0.0123293
0.00385826
-0.0140638
0.00441332
-0.0152234
0.00491898
-0.0161804
0.00539832
-0.0169912
0.00587008
-0.0177611
0.00634341
-0.0185051
0.00682389
-0.0192512
0.00731557
-0.0199959
0.00781863
-0.0207541
0.00833933
-0.0215086
0.00887221
-0.0223006
0.00942773
-0.0230535
0.0100044
-0.0239186
0.0105848
-0.0246711
-0.0255787
0.0112343
9.43526e-05
0.00256778
0.000768011
-0.00279103
0.00167408
-0.00715797
0.00251793
-0.0109135
0.00322355
-0.013035
0.00382257
-0.0146629
0.00434231
-0.0157431
0.00482183
-0.0166599
0.00528143
-0.0174508
0.00573757
-0.0182173
0.00619722
-0.0189647
0.00666513
-0.0197191
0.0071443
-0.0204751
0.00763525
-0.0212451
0.00814324
-0.0220165
0.00866314
-0.0228206
0.00920693
-0.0235973
0.00976413
-0.0244758
0.0103282
-0.0252352
-0.0262222
0.0109717
0.000128904
0.00243888
0.000862325
-0.00352445
0.00175554
-0.00805119
0.00255636
-0.0117143
0.00321491
-0.0136935
0.00377349
-0.0152214
0.00426183
-0.0162314
0.0047182
-0.0171163
0.00515991
-0.0178925
0.00560131
-0.0186587
0.00604757
-0.019411
0.00650281
-0.0201744
0.0069692
-0.0209415
0.00744769
-0.0217236
0.00794242
-0.0225113
0.00844936
-0.0233275
0.00898002
-0.024128
0.00951991
-0.0250157
0.0100795
-0.0257948
-0.0268157
0.010673
0.000165028
0.00227385
0.00095214
-0.00431156
0.00182116
-0.00892021
0.0025778
-0.012471
0.00319176
-0.0143075
0.00371359
-0.0157433
0.00417395
-0.0166918
0.00460957
-0.0175519
0.00503478
-0.0183177
0.00546203
-0.0190859
0.00589503
-0.019844
0.00633743
-0.0206168
0.00679081
-0.0213948
0.00725646
-0.0221892
0.00773756
-0.0229924
0.00823137
-0.0238213
0.0087476
-0.0246442
0.00927172
-0.0255398
0.00982875
-0.0263518
-0.027373
0.010386
0.000201582
0.00207227
0.00103477
-0.00514475
0.00187168
-0.00975711
0.0025842
-0.0131835
0.00315632
-0.0148796
0.0036448
-0.0162317
0.00408005
-0.017127
0.00449678
-0.0179686
0.00490643
-0.0187274
0.00531985
-0.0194993
0.00573957
-0.0202637
0.00616891
-0.0210461
0.00660901
-0.0218349
0.00706143
-0.0226416
0.00752857
-0.0234595
0.00800881
-0.0243015
0.00850987
-0.0251453
0.00902147
-0.0260514
0.00956155
-0.0268919
-0.0279137
0.0101022
0.000237879
0.00183439
0.00110813
-0.006015
0.00190816
-0.0105571
0.00257741
-0.0138527
0.00311054
-0.0154127
0.00356875
-0.0166899
0.00398126
-0.0175396
0.00438052
-0.0183679
0.00477525
-0.0191221
0.005175
-0.0198991
0.00558133
-0.02067
0.00599736
-0.0214621
0.00642389
-0.0222615
0.00686269
-0.0230804
0.00731556
-0.0239124
0.00778175
-0.0247677
0.0082678
-0.0256313
0.00876415
-0.0265477
0.00928985
-0.0274176
-0.0284461
0.00982234
0.000273888
0.0015605
0.00117094
-0.00691205
0.00193186
-0.0113181
0.00255914
-0.01448
0.00305609
-0.0159097
0.00348673
-0.0171206
0.00387847
-0.0179313
0.00426131
-0.0187507
0.00464153
-0.0195023
0.00502763
-0.0202852
0.00542041
-0.0210628
0.00582286
-0.0218646
0.00623553
-0.0226742
0.00666035
-0.0235053
0.00709862
-0.0243507
0.00755042
-0.0252195
0.00802061
-0.0261015
0.00850298
-0.0270301
0.009012
-0.0279266
-0.0289619
0.00952772
0.00031019
0.00125031
0.00122284
-0.00782471
0.00194407
-0.0120393
0.00253093
-0.0150669
0.00299438
-0.0163731
0.00339982
-0.017526
0.00377236
-0.0183038
0.00413952
-0.0191179
0.00450548
-0.0198683
0.00487787
-0.0206576
0.00525691
-0.0214419
0.0056455
-0.0222532
0.00604404
-0.0230727
0.00645451
-0.0239157
0.00687788
-0.024774
0.00731477
-0.0256564
0.00776932
-0.0265561
0.00823588
-0.0274967
0.00872805
-0.0284188
-0.029464
0.0092302
0.000347753
0.000902557
0.00126413
-0.00874108
0.00194607
-0.0127212
0.00249417
-0.015615
0.0029266
-0.0168056
0.00330887
-0.0179083
0.00366344
-0.0186584
0.00401546
-0.0194699
0.00436725
-0.0202201
0.00472582
-0.0210162
0.00509091
-0.021807
0.00546538
-0.0226276
0.00584949
-0.0234568
0.00624528
-0.0243115
0.00665344
-0.0251822
0.00707513
-0.0260781
0.00751326
-0.0269942
0.00796429
-0.0279477
0.00843953
-0.028894
-0.029948
0.00892347
0.000387583
0.000514975
0.00129554
-0.00964904
0.00193901
-0.0133647
0.00245005
-0.016126
0.00285374
-0.0172093
0.00321454
-0.0182691
0.00355211
-0.018996
0.00388934
-0.0198071
0.004227
-0.0205577
0.00457159
-0.0213607
0.00492251
-0.0221579
0.00528259
-0.0229877
0.00565199
-0.0238262
0.00603276
-0.0246923
0.00642544
-0.0255749
0.00683143
-0.0264841
0.00725315
-0.0274159
0.00768773
-0.0283823
0.00814492
-0.0293512
-0.0304153
0.00861228
0.000430366
8.46083e-05
0.001318
-0.0105367
0.00192396
-0.0139707
0.00239963
-0.0166017
0.00277662
-0.0175863
0.00311738
-0.0186098
0.00343869
-0.0193173
0.00376134
-0.0201298
0.00408481
-0.0208812
0.00441526
-0.0216912
0.00475179
-0.0224944
0.00509723
-0.0233332
0.00545165
-0.0241806
0.0058171
-0.0250577
0.00619397
-0.0259517
0.00658398
-0.0268741
0.00698871
-0.0278207
0.00740659
-0.0288002
0.00784593
-0.0297905
-0.0308639
0.00829455
0.000476169
-0.000391561
0.00133238
-0.0113929
0.00190181
-0.0145401
0.00234381
-0.0170437
0.00269594
-0.0179384
0.00301782
-0.0189317
0.00332343
-0.0196229
0.0036316
-0.0204379
0.00394081
-0.0211904
0.00425693
-0.0220073
0.00457885
-0.0228163
0.0049094
-0.0236637
0.00524856
-0.0245198
0.00559838
-0.0254076
0.00595919
-0.0263126
0.00633277
-0.0272477
0.00672035
-0.0282082
0.00712104
-0.0292008
0.00754147
-0.030211
-0.0312944
0.00797193
0.000524234
-0.000915794
0.00133946
-0.0122081
0.00187335
-0.015074
0.00228336
-0.0174537
0.00261224
-0.0182673
0.00291621
-0.0192357
0.00320652
-0.0199132
0.00350023
-0.0207317
0.00379507
-0.0214853
0.00409668
-0.0223089
0.00440377
-0.0231234
0.00471919
-0.0239791
0.00504285
-0.0248434
0.00537676
-0.0257415
0.00572119
-0.026657
0.00607806
-0.0276045
0.00644807
-0.0285782
0.00683112
-0.0295839
0.00723276
-0.0306126
-0.0317056
0.00764397
0.000572976
-0.00148877
0.00133983
-0.012975
0.00183923
-0.0155734
0.00221893
-0.0178334
0.00252602
-0.0185744
0.00281282
-0.0195225
0.00308812
-0.0201885
0.00336735
-0.0210109
0.00364769
-0.0217656
0.0039346
-0.0225958
0.00422665
-0.0234155
0.00452671
-0.0242792
0.00483461
-0.0251513
0.00515234
-0.0260592
0.00548015
-0.0269848
0.0058199
-0.0279443
0.00617211
-0.0289304
0.00653717
-0.029949
0.00691925
-0.0309947
-0.0320976
0.00731122
0.000620133
-0.0021089
0.00133396
-0.0136888
0.00180003
-0.0160395
0.00215109
-0.0181844
0.00243765
-0.0188609
0.00270788
-0.0197927
0.00296835
-0.020449
0.00323305
-0.0212756
0.00349876
-0.0220313
0.00377078
-0.0228679
0.00404759
-0.0236923
0.00433207
-0.0245637
0.00462397
-0.0254432
0.00492526
-0.0263605
0.00523615
-0.0272957
0.00555852
-0.0282667
0.00589259
-0.0292645
0.00623921
-0.0302956
0.00660169
-0.0313571
-0.0324697
0.00697382
0.00066312
-0.00277202
0.00132225
-0.0143479
0.00175625
-0.0164735
0.00208033
-0.0185085
0.00234747
-0.0191281
0.00260158
-0.0200468
0.00284735
-0.0206947
0.00309742
-0.0215257
0.00334836
-0.0222823
0.00360531
-0.0231248
0.0038667
-0.0239537
0.00413537
-0.0248323
0.00441105
-0.0257189
0.00469565
-0.0266451
0.00498938
-0.0275894
0.00529403
-0.0285713
0.0056097
-0.0295802
0.00593759
-0.0306235
0.00627992
-0.0316995
-0.0328218
0.00663199
0.00069951
-0.00347153
0.00130505
-0.0149535
0.00170837
-0.0168768
0.00200704
-0.0188072
0.00225573
-0.0193767
0.00249407
-0.0202852
0.0027252
-0.0209259
0.00296054
-0.021761
0.00319658
-0.0225183
0.00343828
-0.0233665
0.00368406
-0.0241995
0.00393674
-0.025085
0.00419596
-0.0259781
0.00446365
-0.0269128
0.00473995
-0.0278657
0.00502661
-0.028858
0.00532363
-0.0298772
0.00563235
-0.0309322
0.00595443
-0.0320216
-0.0331534
0.00628602
0.000727502
-0.00419904
0.00128274
-0.0155087
0.00165687
-0.0172509
0.0019316
-0.0190819
0.00216266
-0.0196078
0.00238549
-0.020508
0.002602
-0.0211424
0.0028225
-0.0219815
0.0030435
-0.0227393
0.00326979
-0.0235928
0.0034998
-0.0244295
0.00373627
-0.0253215
0.00397885
-0.0262207
0.00422939
-0.0271633
0.00448803
-0.0281244
0.00475643
-0.0291264
0.00503452
-0.0301553
0.00532382
-0.0312215
0.00562524
-0.032323
-0.0334642
0.00593607
0.000746227
-0.00494526
0.00125577
-0.0160182
0.00160218
-0.0175973
0.00185432
-0.0193341
0.00206847
-0.019822
0.00227595
-0.0207155
0.00247785
-0.0213443
0.00268338
-0.022187
0.00288922
-0.0229451
0.00309994
-0.0238035
0.003314
-0.0246435
0.0035341
-0.0255416
0.00375983
-0.0264464
0.00399301
-0.0273965
0.00423376
-0.0283651
0.00448364
-0.0293763
0.00474258
-0.0304142
0.00501209
-0.031491
0.0052927
-0.0326036
-0.033754
0.00558246
0.000755788
-0.00570105
0.00122461
-0.0164871
0.00154473
-0.0179175
0.00177547
-0.0195648
0.0019733
-0.0200198
0.00216556
-0.0209077
0.00235281
-0.0215315
0.00254326
-0.0223775
0.00273383
-0.0231357
0.00292883
-0.0239985
0.00312679
-0.0248415
0.00333033
-0.0257451
0.00353903
-0.0266551
0.00375466
-0.0276121
0.00397731
-0.0285878
0.00420844
-0.0296074
0.00444797
-0.0306537
0.00469745
-0.0317405
0.00495696
-0.0328631
-0.0340224
0.00522536
0.000757054
-0.00645811
0.00118976
-0.0169198
0.00148492
-0.0182126
0.0016953
-0.0197752
0.00187731
-0.0202018
0.0020544
-0.0210848
0.00222698
-0.0217041
0.00240224
-0.0225527
0.00257742
-0.0233109
0.00275655
-0.0241777
0.00293828
-0.0250232
0.0031251
-0.0259319
0.00331659
-0.0268466
0.00351448
-0.02781
0.00371882
-0.0287921
0.00393098
-0.0298195
0.00415089
-0.0308737
0.00438004
-0.0319696
0.00461828
-0.0331013
-0.0342691
0.00486506
0.000751323
-0.00720943
0.00115171
-0.0173201
0.00142309
-0.018484
0.00161403
-0.0199661
0.0017806
-0.0203684
0.00194257
-0.0212468
0.00210044
-0.021862
0.00226039
-0.0227127
0.00242007
-0.0234706
0.00258321
-0.0243408
0.00274857
-0.0251886
0.00291852
-0.0261019
0.00309265
-0.0270208
0.00327262
-0.02799
0.00345846
-0.0289779
0.00365145
-0.0300125
0.00385153
-0.0310737
0.00406013
-0.0321782
0.00427686
-0.0333181
-0.034494
0.00450177
0.000739991
-0.00794942
0.00111091
-0.0176911
0.00135959
-0.0187327
0.00153183
-0.0201384
0.00168331
-0.0205198
0.00183016
-0.0213937
0.00197325
-0.0220051
0.00211779
-0.0228572
0.00226189
-0.0236147
0.00240891
-0.0244878
0.00255778
-0.0253374
0.00271072
-0.0262548
0.00286734
-0.0271774
0.00302923
-0.0281519
0.00319639
-0.0291451
0.00337003
-0.0301862
0.0035501
-0.0312538
0.0037379
-0.032366
0.00393296
-0.0335131
-0.0346969
0.00413577
0.000724315
-0.00867373
0.00106774
-0.0180345
0.00129468
-0.0189596
0.00144889
-0.0202926
0.00158552
-0.0206565
0.00171724
-0.0215254
0.00184551
-0.0221334
0.00197454
-0.0229862
0.00210297
-0.0237431
0.00223376
-0.0246186
0.00236602
-0.0254697
0.00250182
-0.0263906
0.0026408
-0.0273164
0.00278446
-0.0282955
0.00293278
-0.0292934
0.0030869
-0.0303403
0.00324677
-0.0314137
0.00341359
-0.0325329
0.00358681
-0.0336864
-0.0348773
0.00376728
0.000705303
-0.00937904
0.00102257
-0.0183518
0.00122863
-0.0191657
0.00136535
-0.0204293
0.00148732
-0.0207784
0.00160388
-0.0216419
0.00171729
-0.0222468
0.00183072
-0.0230997
0.0019434
-0.0238558
0.00205786
-0.0247331
0.00217342
-0.0255853
0.00229196
-0.0265092
0.00241317
-0.0274376
0.00253846
-0.0284208
0.0026678
-0.0294228
0.00280224
-0.0304747
0.00294175
-0.0315532
0.00308741
-0.0326785
0.00323865
-0.0338376
-0.0350353
0.00339659
0.000683712
-0.0100627
0.000975723
-0.0186438
0.00116166
-0.0193516
0.00128134
-0.020549
0.00138881
-0.0208859
0.00149018
-0.0217433
0.00158867
-0.0223453
0.00168643
-0.0231974
0.00178328
-0.0239526
0.00188132
-0.0248311
0.00198008
-0.025684
0.00208127
-0.0266104
0.0021846
-0.0275409
0.0022914
-0.0285276
0.00240163
-0.029533
0.00251625
-0.0305894
0.00263525
-0.0316722
0.0027596
-0.0328029
0.00288872
-0.0339667
-0.0351705
0.00302392
0.000660095
-0.0107228
0.00092748
-0.0189112
0.00109395
-0.0195181
0.00119698
-0.020652
0.00129005
-0.020979
0.00137619
-0.0218294
0.00145974
-0.0224288
0.00154173
-0.0232794
0.00162272
-0.0240336
0.00170424
-0.0249126
0.00178614
-0.0257659
0.00186987
-0.0266941
0.00195523
-0.0276263
0.00204343
-0.0286158
0.00213442
-0.029624
0.0022291
-0.030684
0.00232746
-0.0317705
0.00243036
-0.0329058
0.00253727
-0.0340736
-0.0352827
0.00264953
0.000634859
-0.0113577
0.000878091
-0.0191544
0.0010257
-0.0196657
0.00111237
-0.0207387
0.00119113
-0.0210577
0.00126199
-0.0219003
0.00133056
-0.0224974
0.00139674
-0.0233456
0.0014618
-0.0240987
0.00152675
-0.0249776
0.00159171
-0.0258309
0.0016579
-0.0267603
0.0017252
-0.0276936
0.0017947
-0.0286853
0.00186636
-0.0296956
0.00194099
-0.0307587
0.00201858
-0.0318481
0.00209993
-0.0329871
0.00218455
-0.0341582
-0.0353719
0.00227371
0.000608312
-0.011966
0.00082778
-0.0193739
0.000957043
-0.019795
0.00102762
-0.0208092
0.00109212
-0.0211222
0.00114766
-0.0219559
0.00120123
-0.0225509
0.00125154
-0.0233959
0.00130062
-0.0241478
0.00134894
-0.0250259
0.00139691
-0.0258788
0.00144549
-0.0268089
0.00149466
-0.0277427
0.00154539
-0.0287361
0.00159762
-0.0297479
0.00165211
-0.0308132
0.00170882
-0.0319048
0.0017685
-0.0330468
0.00183079
-0.0342205
-0.0354378
0.00189672
0.000580696
-0.0125467
0.000776743
-0.0195699
0.000888125
-0.0199063
0.000942801
-0.0208639
0.00099309
-0.0211725
0.00103327
-0.021996
0.00107183
-0.0225895
0.00110621
-0.0234303
0.0011393
-0.0241809
0.00117093
-0.0250575
0.00120186
-0.0259098
0.00123278
-0.0268398
0.00126376
-0.0277737
0.00129564
-0.0287679
0.00132839
-0.0297806
0.00136264
-0.0308474
0.0013984
-0.0319406
0.0014363
-0.0330847
0.00147615
-0.0342604
-0.0354804
0.00151868
0.000552212
-0.0130989
0.000725157
-0.0197428
0.000819067
-0.0200003
0.000857999
-0.0209028
0.000894113
-0.0212086
0.000918894
-0.0220208
0.000942425
-0.022613
0.000960836
-0.0234487
0.000977925
-0.0241979
0.000992824
-0.0250724
0.0010067
-0.0259237
0.0010199
-0.026853
0.00103266
-0.0277865
0.00104563
-0.0287809
0.00105883
-0.0297938
0.0010728
-0.0308614
0.00108753
-0.0319553
0.00110359
-0.0331008
0.00112075
-0.0342775
-0.0354995
0.00113993
0.00052303
-0.013622
0.000673176
-0.019893
0.000749979
-0.0200771
0.000773284
-0.0209261
0.000795256
-0.0212306
0.00080459
-0.0220302
0.00081312
-0.0226216
0.000815507
-0.0234511
0.000816616
-0.024199
0.000814726
-0.0250705
0.00081154
-0.0259205
0.000806981
-0.0268484
0.000801484
-0.027781
0.000795517
-0.0287749
0.000789128
-0.0297874
0.000782752
-0.030855
0.000776453
-0.031949
0.00077071
-0.033095
0.000764807
-0.0342716
-0.0354954
0.000760612
0.000493273
-0.0141152
0.000620894
-0.0200206
0.000680896
-0.0201371
0.000688638
-0.0209339
0.000696491
-0.0212385
0.000690297
-0.022024
0.000683861
-0.0226151
0.000670132
-0.0234374
0.000655281
-0.0241842
0.000636542
-0.0250518
0.000616256
-0.0259002
0.000593915
-0.0268261
0.0005701
-0.0277572
0.000545158
-0.02875
0.000519102
-0.0297614
0.000492342
-0.0308282
0.000464941
-0.0319216
0.000437423
-0.0330675
0.000408579
-0.0342428
-0.0354667
0.000379913
0.000463116
-0.0145783
0.000568523
-0.020126
0.000612038
-0.0201806
0.000604283
-0.0209261
0.000598104
-0.0212323
0.000576315
-0.0220022
0.000555033
-0.0225938
0.00052514
-0.0234075
0.000494374
-0.0241534
0.000458837
-0.0250163
0.000421422
-0.0258628
0.000381371
-0.026786
0.000339226
-0.027715
0.00029534
-0.0287061
0.000249628
-0.0297157
0.000202516
-0.0307811
0.000153995
-0.0318731
0.000104327
-0.0330178
5.48403e-05
-0.0341933
-0.0354083
-3.55182e-06
0.00043265
-0.015011
0.000516126
-0.0202095
0.000543426
-0.0202079
0.00052018
-0.0209029
0.000500075
-0.0212122
0.000462572
-0.0219647
0.000426563
-0.0225578
0.000380472
-0.0233614
0.000333776
-0.0241067
0.000281493
-0.024964
0.000226955
-0.0258082
0.000169145
-0.0267282
0.000108776
-0.0276547
4.57319e-05
-0.0286431
-1.9308e-05
-0.0296506
-8.69146e-05
-0.0307135
-0.000156475
-0.0318036
-0.00022767
-0.0329466
-0.000301943
-0.034119
-0.0353314
-0.000378875
0.000401977
-0.015413
0.000463794
-0.0202713
0.000475142
-0.0202192
0.000436362
-0.0208641
0.000402484
-0.0211783
0.000349133
-0.0219113
0.000298533
-0.0225072
0.000236149
-0.023299
0.000173737
-0.0240443
0.000104309
-0.0248945
3.34665e-05
-0.0257374
-4.27962e-05
-0.0266519
-0.000121174
-0.0275763
-0.00020295
-0.0285613
-0.000287912
-0.0295657
-0.00037568
-0.0306258
-0.000466209
-0.031713
-0.000559347
-0.0328535
-0.000657217
-0.0340211
-0.0352324
-0.000756135
0.000371187
-0.0157842
0.000411605
-0.0203117
0.000407269
-0.0202149
0.000352855
-0.0208097
0.000305405
-0.0211309
0.000236011
-0.0218419
0.000171192
-0.0224424
9.1724e-05
-0.0232195
1.56327e-05
-0.0239682
-7.20372e-05
-0.0248069
-0.000160397
-0.025649
-0.00025333
-0.026559
-0.000350421
-0.0274792
-0.000451062
-0.0284606
-0.000555602
-0.0294611
-0.000663668
-0.0305177
-0.000775214
-0.0316015
-0.000890552
-0.0327382
-0.0010109