/*--------------------------------*- C++ -*----------------------------------*\
  =========                 |
  \\      /  F ield         | OpenFOAM: The Open Source CFD Toolbox
   \\    /   O peration     | Website:  https://openfoam.org
    \\  /    A nd           | Version:  7
     \\/     M anipulation  |
\*---------------------------------------------------------------------------*/
FoamFile
{
    version     2.0;
    format      ascii;
    class       volVectorField;
    location    "12";
    object      U;
}
// * * * * * * * * * * * * * * * * * * * * * * * * * * * * * * * * * * * * * //

dimensions      [0 1 -1 0 0 0 0];

internalField   nonuniform List<vector> 
135168
(
(2 -3.09513e-18 0)
(2 -7.0673e-18 0)
(2 -8.00051e-18 0)
(2 -4.46084e-17 0)
(2 -9.73274e-17 0)
(2 -1.152e-16 0)
(2 -1.03122e-16 0)
(2 -1.56035e-16 0)
(2 -2.17223e-16 0)
(2 -2.0534e-16 0)
(2 -2.07589e-16 0)
(2 -1.64788e-16 0)
(2 -3.32727e-16 0)
(2 -5.97974e-16 0)
(2 -7.56409e-16 0)
(2 -1.02689e-15 0)
(2 -1.04031e-15 0)
(2 -9.65665e-16 0)
(2 -8.09929e-16 0)
(2 -6.5602e-16 0)
(2 -5.77881e-16 0)
(2 -4.97226e-16 0)
(2 -3.80501e-16 0)
(2 -1.94163e-16 0)
(2 -1.46164e-16 0)
(2 -9.75012e-17 0)
(2 -6.74687e-17 0)
(2 2.84531e-17 0)
(2 1.07452e-16 0)
(2 2.68609e-16 0)
(2 2.73786e-16 0)
(2 5.11425e-16 0)
(2 7.99017e-16 0)
(2 7.53954e-16 0)
(2 2.02284e-16 0)
(2 3.87128e-16 0)
(2 5.9851e-16 0)
(2 7.72955e-16 0)
(2 7.80126e-16 0)
(2 9.00115e-16 0)
(2 1.01382e-15 0)
(2 9.02681e-16 0)
(2 9.90763e-16 0)
(2 1.274e-15 0)
(2 6.30791e-16 0)
(2 3.46655e-16 0)
(2 5.00235e-16 0)
(2 6.75479e-16 0)
(2 7.47125e-16 0)
(2 8.23148e-16 0)
(2 8.91449e-16 0)
(2 9.72209e-16 0)
(2 9.48026e-16 0)
(2 8.1934e-16 0)
(2 7.02024e-16 0)
(2 6.91806e-16 0)
(2 7.34329e-16 0)
(2 7.649e-16 0)
(2 7.09828e-16 0)
(2 5.39974e-16 0)
(2 4.59075e-16 0)
(2 4.10885e-16 0)
(2 3.78481e-16 0)
(2 4.60378e-16 0)
(2 3.76499e-16 0)
(2 3.48014e-16 0)
(2 2.70123e-16 0)
(2 1.92622e-16 0)
(2 1.69328e-16 0)
(2 2.86342e-16 0)
(2 3.5927e-16 0)
(2 4.0982e-16 0)
(2 3.42157e-16 0)
(2 2.21839e-16 0)
(2 3.13156e-16 0)
(2 5.55272e-16 0)
(2 6.11057e-16 0)
(2 8.76924e-16 0)
(2 7.07566e-16 0)
(2 5.49397e-16 0)
(2 3.68117e-16 0)
(2 2.4881e-16 0)
(2 2.26162e-16 0)
(2 2.09757e-16 0)
(2 4.53851e-16 0)
(2 5.82875e-16 0)
(2 7.45245e-16 0)
(2 8.07215e-16 0)
(2 7.57292e-16 0)
(2 6.97569e-16 0)
(2 6.47738e-16 0)
(2 6.08219e-16 0)
(2 6.66836e-16 0)
(2 6.48715e-16 0)
(2 1.66279e-16 0)
(2 4.63833e-17 0)
(2 6.40394e-17 0)
(2 1.64731e-16 0)
(2 5.89836e-17 0)
(2 -1.80794e-18 0)
(2 -2.35588e-17 0)
(2 -4.55383e-17 0)
(2 -1.43634e-16 0)
(2 -1.94356e-16 0)
(2 -1.91137e-16 0)
(2 -6.5536e-17 0)
(2 1.63761e-16 0)
(2 2.86387e-16 0)
(2 3.14661e-16 0)
(2 1.87125e-16 0)
(2 1.57728e-16 0)
(2 3.78537e-16 0)
(2 5.10093e-16 0)
(2 6.03901e-16 0)
(2 7.08545e-16 0)
(2 1.1422e-15 0)
(2 1.31574e-15 0)
(2 1.4767e-15 0)
(2 1.71204e-15 0)
(2 1.86908e-15 0)
(2 1.90977e-15 0)
(2 1.82076e-15 0)
(2 1.72464e-15 0)
(2 1.72117e-15 0)
(2 1.63144e-15 0)
(2 1.4992e-15 0)
(2 1.64311e-15 0)
(2 1.75699e-15 0)
(2 1.7331e-15 0)
(2 1.74248e-15 0)
(2 1.50322e-15 0)
(2 1.3802e-15 0)
(2 1.0008e-15 0)
(2 9.20802e-16 0)
(2 9.13761e-16 0)
(2 6.60605e-16 0)
(2 4.30579e-16 0)
(2 1.95383e-16 0)
(2 1.03846e-16 0)
(2 2.13756e-16 0)
(2 3.21795e-16 0)
(2 5.07094e-16 0)
(2 5.95102e-16 0)
(2 6.40306e-16 0)
(2 6.37517e-16 0)
(2 5.85136e-16 0)
(2 5.88082e-16 0)
(2 7.13615e-16 0)
(2 7.63867e-16 0)
(2 7.23288e-16 0)
(2 7.15444e-16 0)
(2 6.4219e-16 0)
(2 6.28355e-16 0)
(2 -7.11811e-17 0)
(2 -6.01386e-16 0)
(2 -7.17504e-16 0)
(2 -9.78612e-16 0)
(2 -1.01991e-15 0)
(2 -1.04155e-15 0)
(2 -7.88093e-16 0)
(2 -6.39534e-16 0)
(2 -6.49687e-16 0)
(2 -3.47702e-16 0)
(2 3.76971e-16 0)
(2 7.1116e-16 0)
(2 1.00747e-15 0)
(2 1.31238e-15 0)
(2 1.10279e-15 0)
(2 9.23616e-16 0)
(2 8.53926e-16 0)
(2 7.39723e-16 0)
(2 6.22178e-16 0)
(2 3.67744e-16 0)
(2 -1.04931e-16 0)
(2 -1.70029e-16 0)
(2 -2.70593e-16 0)
(2 -2.76871e-16 0)
(2 -2.94596e-16 0)
(2 -4.53122e-16 0)
(2 -5.45025e-16 0)
(2 -6.16276e-16 0)
(2 -6.79538e-16 0)
(2 -8.48277e-16 0)
(2 -1.02191e-15 0)
(2 -1.1808e-15 0)
(2 -1.2617e-15 0)
(2 -1.23781e-15 0)
(2 -1.12882e-15 0)
(2 -1.08243e-15 0)
(2 -6.18302e-16 0)
(2 -1.4526e-16 0)
(2 9.51503e-17 0)
(2 2.62505e-16 0)
(2 3.93263e-16 0)
(2 4.48616e-16 0)
(2 4.60221e-16 0)
(2 3.90302e-16 0)
(2 3.17906e-16 0)
(2 2.81209e-16 0)
(2 -1.11892e-16 0)
(2 -5.03716e-16 0)
(2 -6.9639e-16 0)
(2 -9.58702e-16 0)
(2 -1.32478e-15 0)
(2 -1.1963e-15 0)
(2 -1.07545e-15 0)
(2 -1.31443e-15 0)
(2 -1.9559e-15 0)
(2 -2.10346e-15 0)
(2 -2.06702e-15 0)
(2 -1.93192e-15 0)
(2 -2.01205e-15 0)
(2 -2.055e-15 0)
(2 -2.07099e-15 0)
(2 -2.33701e-15 0)
(2 -2.26139e-15 0)
(2 -1.78736e-15 0)
(2 -1.38469e-15 0)
(2 -1.17347e-15 0)
(2 -1.03974e-15 0)
(2 -7.40372e-16 0)
(2 -4.58696e-16 0)
(2 -2.46021e-16 0)
(2 -5.69216e-17 0)
(2 -2.30154e-16 0)
(2 -2.87322e-16 0)
(2 -3.8647e-16 0)
(2 -4.93107e-16 0)
(2 -5.75531e-16 0)
(2 -3.40966e-16 0)
(2 -2.42482e-16 0)
(2 -4.7386e-17 0)
(2 8.1752e-17 0)
(2 3.77208e-17 0)
(2 1.90853e-16 0)
(2 -5.52016e-17 0)
(2 -3.76444e-16 0)
(2 -5.5402e-16 0)
(2 -6.81516e-16 0)
(2 -1.0259e-15 0)
(2 -1.36579e-15 0)
(2 -1.48424e-15 0)
(2 -1.54124e-15 0)
(2 -1.49581e-15 0)
(2 -1.37631e-15 0)
(2 -1.31289e-15 0)
(2 -1.12301e-15 0)
(2 -1.09009e-15 0)
(2 -1.05516e-15 0)
(2 -9.49961e-16 0)
(2 -8.10166e-16 0)
(2 -7.93164e-16 0)
(2 -8.20972e-16 0)
(2 -1.09528e-15 0)
(2 -1.30774e-15 0)
(2 -1.22237e-15 0)
(2 -1.0587e-15 0)
(2 -1.24903e-15 0)
(2 -1.28132e-15 0)
(2 -1.26513e-15 0)
(2 -1.28194e-15 0)
(2 -1.73117e-15 0)
(2 -2.01165e-15 0)
(2 -2.16361e-15 0)
(2 -2.41321e-15 0)
(2 -2.57118e-15 0)
(2 -2.76823e-15 0)
(2 -2.8306e-15 0)
(2 -2.73303e-15 0)
(2 -2.82313e-15 0)
(2 -2.9218e-15 0)
(2 -2.47264e-15 0)
(2 -1.91057e-15 0)
(2 -1.7541e-15 0)
(2 -1.61762e-15 0)
(2 -2.29923e-15 0)
(2 -3.00362e-15 0)
(2 -2.96833e-15 0)
(2 -2.99332e-15 0)
(2 -2.6472e-15 0)
(2 -2.39205e-15 0)
(2 -2.33676e-15 0)
(2 -2.2054e-15 0)
(2 -2.14332e-15 0)
(2 -2.17707e-15 0)
(2 -2.43641e-15 0)
(2 -2.53474e-15 0)
(2 -2.52911e-15 0)
(2 -2.32052e-15 0)
(2 -2.28282e-15 0)
(2 -2.26996e-15 0)
(2 -2.18147e-15 0)
(2 -2.14867e-15 0)
(2 -2.16512e-15 0)
(2 -2.09088e-15 0)
(2 -1.9784e-15 0)
(2 -1.89701e-15 0)
(2 -1.68627e-15 0)
(2 -1.55782e-15 0)
(2 -1.49674e-15 0)
(2 -1.6986e-15 0)
(2 -2.0193e-15 0)
(2 -2.28191e-15 0)
(2 -2.28488e-15 0)
(2 -1.83344e-15 0)
(2 -1.71982e-15 0)
(2 -1.6629e-15 0)
(2 -1.66697e-15 0)
(2 -1.74736e-15 0)
(2 -1.85965e-15 0)
(2 -2.02254e-15 0)
(2 -2.21916e-15 0)
(2 -2.36173e-15 0)
(2 -2.35626e-15 0)
(2 -2.19844e-15 0)
(2 -2.09815e-15 0)
(2 -2.02156e-15 0)
(2 -1.91567e-15 0)
(2 -1.87446e-15 0)
(2 -2.20911e-15 0)
(2 -2.43638e-15 0)
(2 -2.85097e-15 0)
(2 -2.80421e-15 0)
(2 -2.76281e-15 0)
(2 -2.4912e-15 0)
(2 -2.3339e-15 0)
(2 -2.18249e-15 0)
(2 -1.84719e-15 0)
(2 -1.5414e-15 0)
(2 -1.39374e-15 0)
(2 -1.12304e-15 0)
(2 -7.50846e-16 0)
(2 -6.90844e-16 0)
(2 -7.41103e-16 0)
(2 -9.56411e-16 0)
(2 -9.51845e-16 0)
(2 -1.14732e-15 0)
(2 -1.72539e-15 0)
(2 -2.06207e-15 0)
(2 -2.27396e-15 0)
(2 -1.81989e-15 0)
(2 -1.55278e-15 0)
(2 -1.1014e-15 0)
(2 -6.45541e-16 0)
(2 -5.70374e-16 0)
(2 -4.64438e-16 0)
(2 -2.44726e-16 0)
(2 -1.50936e-16 0)
(2 -8.69922e-16 0)
(2 -1.10406e-15 0)
(2 -1.23539e-15 0)
(2 -1.57443e-15 0)
(2 -1.63212e-15 0)
(2 -1.39893e-15 0)
(2 -1.09976e-15 0)
(2 -3.3086e-16 0)
(2 -1.75309e-16 0)
(2 -1.15755e-16 0)
(2 -2.76639e-16 0)
(2 -5.04913e-16 0)
(2 -2.92345e-16 0)
(2 1.99595e-16 0)
(2 7.69702e-16 0)
(2 1.14724e-15 0)
(2 1.21409e-15 0)
(2 1.15969e-15 0)
(2 8.84494e-16 0)
(2 7.50498e-16 0)
(2 9.91298e-16 0)
(2 1.05952e-15 0)
(2 1.23706e-15 0)
(2 1.20274e-15 0)
(2 1.26569e-15 0)
(2 1.54134e-15 0)
(2 1.59628e-15 0)
(2 1.52182e-15 0)
(2 1.34273e-15 0)
(2 1.04313e-15 0)
(2 9.82409e-16 0)
(2 9.11527e-16 0)
(2 1.01723e-15 0)
(2 1.19189e-15 0)
(2 1.47793e-15 0)
(2 4.29066e-16 0)
(2 -1.5095e-17 0)
(2 3.84426e-18 0)
(2 1.54649e-17 0)
(2 1.72515e-18 0)
(2 -8.42326e-17 0)
(2 -2.04163e-16 0)
(2 -2.28892e-16 0)
(2 -2.79752e-16 0)
(2 -3.13436e-16 0)
(2 -3.35424e-16 0)
(2 -3.08964e-16 0)
(2 -2.8939e-16 0)
(2 -2.02631e-16 0)
(2 -2.26336e-16 0)
(2 -2.32343e-16 0)
(2 -6.98774e-16 0)
(2 -9.3072e-16 0)
(2 -9.56647e-16 0)
(2 -9.57228e-16 0)
(2 -1.04048e-15 0)
(2 -1.09153e-15 0)
(2 -1.16837e-15 0)
(2 -1.25781e-15 0)
(2 -1.18407e-15 0)
(2 -1.00028e-15 0)
(2 -7.96883e-16 0)
(2 -9.69142e-16 0)
(2 -8.01363e-16 0)
(2 -1.36249e-16 0)
(2 4.10783e-20 0)
(2 7.07274e-17 0)
(2 2.89577e-16 0)
(2 4.29249e-16 0)
(2 4.14742e-16 0)
(2 1.77907e-16 0)
(2 4.84568e-16 0)
(2 6.15368e-16 0)
(2 1.15379e-15 0)
(2 1.30893e-15 0)
(2 1.26788e-15 0)
(2 8.74747e-16 0)
(2 5.9337e-16 0)
(2 4.24775e-16 0)
(2 1.91037e-16 0)
(2 1.53865e-16 0)
(2 4.1742e-16 0)
(2 1.16691e-15 0)
(2 1.34809e-15 0)
(2 1.50147e-15 0)
(2 2.15137e-15 0)
(2 2.58931e-15 0)
(2 2.79356e-15 0)
(2 2.88386e-15 0)
(2 2.90896e-15 0)
(2 2.79925e-15 0)
(2 2.85637e-15 0)
(2 3.23597e-15 0)
(2 3.53036e-15 0)
(2 2.36842e-15 0)
(2 1.79089e-15 0)
(2 1.29666e-15 0)
(2 1.22412e-15 0)
(2 1.01428e-15 0)
(2 7.12508e-16 0)
(2 8.23813e-16 0)
(2 1.01609e-15 0)
(2 1.36027e-15 0)
(2 1.46636e-15 0)
(2 1.68738e-15 0)
(2 1.86371e-15 0)
(2 1.94917e-15 0)
(2 1.95417e-15 0)
(2 1.69014e-15 0)
(2 1.46119e-15 0)
(2 1.71414e-15 0)
(2 1.94464e-15 0)
(2 2.03242e-15 0)
(2 2.00741e-15 0)
(2 1.90352e-15 0)
(2 1.40009e-15 0)
(2 1.07956e-15 0)
(2 8.70873e-16 0)
(2 7.28073e-16 0)
(2 7.27726e-16 0)
(2 2.11052e-16 0)
(2 1.4232e-16 0)
(2 2.14786e-16 0)
(2 4.37844e-16 0)
(2 4.92914e-16 0)
(2 5.56706e-16 0)
(2 6.09932e-16 0)
(2 6.25087e-16 0)
(2 7.26044e-16 0)
(2 7.21436e-16 0)
(2 5.32456e-16 0)
(2 3.33329e-16 0)
(2 -8.67055e-17 0)
(2 -2.04471e-16 0)
(2 -2.92459e-16 0)
(2 -3.87783e-16 0)
(2 -4.17584e-16 0)
(2 -4.16616e-16 0)
(2 -5.14615e-16 0)
(2 -6.96067e-16 0)
(2 -9.05843e-16 0)
(2 -1.0407e-15 0)
(2 -1.08765e-15 0)
(2 -1.08765e-15 0)
(2 -1.14394e-15 0)
(2 -1.25786e-15 0)
(2 -1.4711e-15 0)
(2 -1.66058e-15 0)
(2 -1.8007e-15 0)
(2 -1.79971e-15 0)
(2 -1.80107e-15 0)
(2 -1.18561e-15 0)
(2 -9.90083e-16 0)
(2 -6.29299e-16 0)
(2 -3.69953e-16 0)
(2 3.05932e-17 0)
(2 2.84931e-16 0)
(2 3.59199e-16 0)
(2 3.95272e-16 0)
(2 4.15341e-16 0)
(2 3.70826e-16 0)
(2 3.92755e-16 0)
(2 4.39331e-16 0)
(2 6.63003e-16 0)
(2 6.75252e-16 0)
(2 5.47632e-16 0)
(2 4.52939e-16 0)
(2 3.04174e-16 0)
(2 5.97654e-16 0)
(2 1.08425e-15 0)
(2 1.2303e-15 0)
(2 1.00826e-15 0)
(2 1.31098e-15 0)
(2 1.51178e-15 0)
(2 1.37753e-15 0)
(2 9.56611e-16 0)
(2 6.01244e-16 0)
(2 1.3257e-15 0)
(2 1.68004e-15 0)
(2 1.63744e-15 0)
(2 1.43127e-15 0)
(2 1.08755e-15 0)
(2 1.12201e-15 0)
(2 1.22985e-15 0)
(2 1.02349e-15 0)
(2 8.46726e-16 0)
(2 6.50926e-16 0)
(2 3.48908e-16 0)
(2 -3.80004e-17 0)
(2 -2.46226e-16 0)
(2 -5.45696e-16 0)
(2 -8.27922e-16 0)
(2 -1.26427e-15 0)
(2 -1.59664e-15 0)
(2 -1.70965e-15 0)
(2 -1.83372e-15 0)
(2 -1.74288e-15 0)
(2 -1.86555e-15 0)
(2 -2.18934e-15 0)
(2 -1.36533e-15 0)
(2 -9.5494e-16 0)
(2 -8.33599e-16 0)
(2 -6.46682e-16 0)
(2 -6.49139e-16 0)
(2 -1.34436e-15 0)
(2 -1.78803e-15 0)
(2 -2.04427e-15 0)
(2 -2.33856e-15 0)
(2 -2.35792e-15 0)
(2 -2.28687e-15 0)
(2 -2.21828e-15 0)
(2 -2.13644e-15 0)
(2 -2.17529e-15 0)
(2 -2.3195e-15 0)
(2 -1.99364e-15 0)
(2 -1.7388e-15 0)
(2 -1.51432e-15 0)
(2 -9.5605e-16 0)
(2 -1.1184e-15 0)
(2 -1.48668e-15 0)
(2 -1.4152e-15 0)
(2 -1.32303e-15 0)
(2 -5.77606e-16 0)
(2 -8.7336e-16 0)
(2 -1.05721e-15 0)
(2 -1.3662e-15 0)
(2 -1.49726e-15 0)
(2 -1.43296e-15 0)
(2 -1.1616e-15 0)
(2 -9.09248e-16 0)
(2 -8.62454e-16 0)
(2 -8.5591e-16 0)
(2 -8.97807e-16 0)
(2 -1.06022e-15 0)
(2 -1.17873e-15 0)
(2 -1.58105e-15 0)
(2 -1.99019e-15 0)
(2 -2.36458e-15 0)
(2 -2.22581e-15 0)
(2 -1.83169e-15 0)
(2 -1.55194e-15 0)
(2 -1.38221e-15 0)
(2 -1.14336e-15 0)
(2 -1.27521e-15 0)
(2 -1.58466e-15 0)
(2 -1.6394e-15 0)
(2 -1.63301e-15 0)
(2 -1.71043e-15 0)
(2 -1.80941e-15 0)
(2 -1.87461e-15 0)
(2 -2.02962e-15 0)
(2 -2.06761e-15 0)
(2 -2.04501e-15 0)
(2 -2.04884e-15 0)
(2 -2.10312e-15 0)
(2 -2.06375e-15 0)
(2 -1.92154e-15 0)
(2 -1.65981e-15 0)
(2 -1.39031e-15 0)
(2 -7.64994e-16 0)
(2 -6.54582e-16 0)
(2 -6.84153e-16 0)
(2 -7.1894e-16 0)
(2 -6.58183e-16 0)
(2 -4.81099e-16 0)
(2 -1.75598e-16 0)
(2 8.24378e-16 0)
(2 1.1165e-15 0)
(2 1.11829e-15 0)
(2 7.25273e-16 0)
(2 5.30736e-16 0)
(2 3.81492e-16 0)
(2 2.33185e-16 0)
(2 4.38585e-17 0)
(2 -8.0673e-17 0)
(2 -2.70269e-16 0)
(2 -3.54448e-16 0)
(2 -3.4361e-16 0)
(2 -4.39874e-16 0)
(2 -6.6409e-16 0)
(2 -7.25224e-16 0)
(2 -7.54802e-16 0)
(2 -9.35202e-16 0)
(2 -1.37664e-15 0)
(2 -1.53834e-15 0)
(2 -1.38831e-15 0)
(2 -1.66683e-15 0)
(2 -2.16967e-15 0)
(2 -2.26339e-15 0)
(2 -2.2031e-15 0)
(2 -2.07563e-15 0)
(2 -1.92614e-15 0)
(2 -1.77145e-15 0)
(2 -1.64593e-15 0)
(2 -1.56216e-15 0)
(2 -1.75791e-15 0)
(2 -2.49515e-15 0)
(2 -3.59151e-15 0)
(2 -4.54536e-15 0)
(2 -4.94686e-15 0)
(2 -5.10046e-15 0)
(2 -5.32161e-15 0)
(2 -5.34392e-15 0)
(2 -5.25328e-15 0)
(2 -4.9621e-15 0)
(2 -4.59753e-15 0)
(2 -4.24651e-15 0)
(2 -3.89358e-15 0)
(2 -3.64773e-15 0)
(2 -3.31834e-15 0)
(2 -2.8886e-15 0)
(2 -3.00857e-15 0)
(2 -3.16961e-15 0)
(2 -3.21328e-15 0)
(2 -3.08727e-15 0)
(2 -2.84458e-15 0)
(2 -2.55352e-15 0)
(2 -2.09281e-15 0)
(2 -1.88231e-15 0)
(2 -1.88692e-15 0)
(2 -2.20849e-15 0)
(2 -2.57755e-15 0)
(2 -2.55497e-15 0)
(2 -2.56874e-15 0)
(2 -2.58993e-15 0)
(2 -2.75761e-15 0)
(2 -2.61849e-15 0)
(2 -2.08293e-15 0)
(2 -1.9365e-15 0)
(2 -1.85621e-15 0)
(2 -1.72892e-15 0)
(2 -1.79587e-15 0)
(2 -1.91292e-15 0)
(2 -1.91154e-15 0)
(2 -1.91085e-15 0)
(2 -1.98624e-15 0)
(2 -1.90145e-15 0)
(2 -2.16518e-15 0)
(2 -2.37472e-15 0)
(2 -2.55215e-15 0)
(2 -2.59806e-15 0)
(2 -2.89814e-15 0)
(2 -3.3027e-15 0)
(2 -3.74441e-15 0)
(2 -4.1908e-15 0)
(2 -4.46558e-15 0)
(2 -4.61337e-15 0)
(2 -4.40466e-15 0)
(2 -4.15897e-15 0)
(2 -3.86615e-15 0)
(2 -3.6925e-15 0)
(2 -3.71231e-15 0)
(2 -3.77668e-15 0)
(2 -3.7385e-15 0)
(2 -3.43339e-15 0)
(2 -3.581e-15 0)
(2 -3.83494e-15 0)
(2 -3.8956e-15 0)
(2 -3.81766e-15 0)
(2 -3.74528e-15 0)
(2 -3.55197e-15 0)
(2 -3.51389e-15 0)
(2 -2.75544e-15 0)
(2 -2.44079e-15 0)
(2 -1.7836e-15 0)
(2 -1.61622e-15 0)
(2 -1.32733e-15 0)
(2 -5.87961e-16 0)
(2 -4.10231e-16 0)
(2 -2.13767e-16 0)
(2 -1.18744e-16 0)
(2 -3.48848e-17 0)
(2 -3.52733e-16 0)
(2 -1.162e-15 0)
(2 -1.26984e-15 0)
(2 -1.22169e-15 0)
(2 -1.02067e-15 0)
(2 -9.99697e-16 0)
(2 -7.60408e-16 0)
(2 -1.47632e-16 0)
(2 2.35406e-16 0)
(2 7.91775e-16 0)
(2 8.79803e-16 0)
(2 6.514e-16 0)
(2 3.74693e-16 0)
(2 1.28077e-16 0)
(2 8.07576e-17 0)
(2 7.66847e-17 0)
(2 1.35135e-16 0)
(2 6.10775e-17 0)
(2 8.69519e-17 0)
(2 1.93334e-16 0)
(2 1.8906e-16 0)
(2 1.53998e-16 0)
(2 7.54266e-16 0)
(2 1.0348e-15 0)
(2 1.64234e-15 0)
(2 2.04988e-15 0)
(2 2.03133e-15 0)
(2 2.15906e-15 0)
(2 2.42068e-15 0)
(2 2.80845e-15 0)
(2 2.54032e-15 0)
(2 2.49717e-15 0)
(2 2.65269e-15 0)
(2 2.85155e-15 0)
(2 2.71973e-15 0)
(2 2.41617e-15 0)
(2 2.28279e-15 0)
(2 2.23508e-15 0)
(2 2.19924e-15 0)
(2 2.04815e-15 0)
(2 1.75075e-15 0)
(2 1.76811e-15 0)
(2 1.58021e-15 0)
(2 1.3298e-15 0)
(2 1.5894e-15 0)
(2 1.95136e-15 0)
(2 2.29532e-15 0)
(2 2.09481e-15 0)
(2 -1.65394e-17 0)
(2 1.84164e-17 0)
(2 -1.27937e-18 0)
(2 -5.49978e-17 0)
(2 -1.96821e-17 0)
(2 5.40515e-17 0)
(2 2.4056e-17 0)
(2 -4.80879e-17 0)
(2 -3.34444e-17 0)
(2 4.0358e-17 0)
(2 1.0656e-16 0)
(2 1.47765e-16 0)
(2 2.18767e-16 0)
(2 3.41651e-16 0)
(2 4.49695e-16 0)
(2 4.9866e-16 0)
(2 4.54184e-16 0)
(2 3.85973e-16 0)
(2 3.10173e-16 0)
(2 1.56653e-16 0)
(2 -3.99985e-16 0)
(2 -5.42473e-16 0)
(2 -6.25005e-16 0)
(2 -1.1512e-15 0)
(2 -1.24342e-15 0)
(2 -1.16773e-15 0)
(2 -1.08403e-15 0)
(2 -1.00758e-15 0)
(2 -8.41506e-16 0)
(2 -8.67407e-16 0)
(2 -9.48991e-16 0)
(2 -9.25898e-16 0)
(2 -7.06723e-16 0)
(2 -4.10609e-16 0)
(2 7.52792e-17 0)
(2 1.79032e-16 0)
(2 3.32782e-16 0)
(2 6.21643e-16 0)
(2 7.52036e-16 0)
(2 7.748e-16 0)
(2 8.62962e-16 0)
(2 8.91828e-16 0)
(2 6.97586e-16 0)
(2 5.62859e-16 0)
(2 5.63458e-16 0)
(2 4.94605e-16 0)
(2 5.44446e-16 0)
(2 7.66916e-16 0)
(2 8.88017e-16 0)
(2 9.77409e-16 0)
(2 9.73254e-16 0)
(2 1.11157e-15 0)
(2 1.66286e-15 0)
(2 2.17596e-15 0)
(2 2.1582e-15 0)
(2 2.20775e-15 0)
(2 2.33798e-15 0)
(2 2.48522e-15 0)
(2 2.05305e-15 0)
(2 1.14748e-15 0)
(2 1.00238e-15 0)
(2 6.04569e-16 0)
(2 7.00728e-16 0)
(2 7.14312e-16 0)
(2 7.57549e-16 0)
(2 1.45301e-15 0)
(2 1.44374e-15 0)
(2 1.55823e-15 0)
(2 1.61288e-15 0)
(2 1.75257e-15 0)
(2 1.48089e-15 0)
(2 1.04374e-15 0)
(2 7.51765e-16 0)
(2 6.66466e-16 0)
(2 2.9506e-16 0)
(2 1.17522e-16 0)
(2 -8.33845e-17 0)
(2 -2.30718e-16 0)
(2 -2.0954e-16 0)
(2 -1.69568e-16 0)
(2 -1.4653e-16 0)
(2 -1.16747e-16 0)
(2 -2.68984e-16 0)
(2 -2.91333e-16 0)
(2 -6.53225e-16 0)
(2 -7.75204e-16 0)
(2 -1.09873e-15 0)
(2 -1.24561e-15 0)
(2 -1.22965e-15 0)
(2 -1.30663e-15 0)
(2 -1.1535e-15 0)
(2 -1.21476e-15 0)
(2 -1.33444e-15 0)
(2 -1.43756e-15 0)
(2 -1.39635e-15 0)
(2 -1.23095e-15 0)
(2 -1.1053e-15 0)
(2 -1.06248e-15 0)
(2 -9.79587e-16 0)
(2 -9.15308e-16 0)
(2 -7.68232e-16 0)
(2 -7.16727e-16 0)
(2 -6.53433e-16 0)
(2 -6.79083e-16 0)
(2 -7.22609e-16 0)
(2 -9.99447e-16 0)
(2 -1.20639e-15 0)
(2 -1.38576e-15 0)
(2 -1.5908e-15 0)
(2 -1.74107e-15 0)
(2 -1.97361e-15 0)
(2 -2.23943e-15 0)
(2 -2.35974e-15 0)
(2 -2.428e-15 0)
(2 -2.50843e-15 0)
(2 -2.33258e-15 0)
(2 -2.10044e-15 0)
(2 -1.86252e-15 0)
(2 -1.86741e-15 0)
(2 -2.01307e-15 0)
(2 -2.07893e-15 0)
(2 -2.26012e-15 0)
(2 -2.36851e-15 0)
(2 -2.41428e-15 0)
(2 -2.18868e-15 0)
(2 -2.09648e-15 0)
(2 -2.09621e-15 0)
(2 -1.87188e-15 0)
(2 -1.61425e-15 0)
(2 -1.40145e-15 0)
(2 -7.70713e-16 0)
(2 -4.29245e-17 0)
(2 2.02764e-16 0)
(2 6.84444e-16 0)
(2 1.06271e-15 0)
(2 1.04813e-15 0)
(2 7.41572e-16 0)
(2 7.8941e-16 0)
(2 8.91753e-16 0)
(2 1.29572e-15 0)
(2 1.58737e-15 0)
(2 1.71024e-15 0)
(2 1.20652e-15 0)
(2 1.12121e-15 0)
(2 1.02353e-15 0)
(2 8.68745e-16 0)
(2 6.3384e-16 0)
(2 4.91512e-16 0)
(2 2.37774e-16 0)
(2 4.52685e-17 0)
(2 -9.96688e-17 0)
(2 -7.29047e-17 0)
(2 -5.26696e-17 0)
(2 -2.25269e-16 0)
(2 -9.57838e-16 0)
(2 -1.13927e-15 0)
(2 -1.20443e-15 0)
(2 -1.41543e-15 0)
(2 -1.44781e-15 0)
(2 -1.69926e-15 0)
(2 -2.40288e-15 0)
(2 -2.50967e-15 0)
(2 -3.63288e-15 0)
(2 -4.18779e-15 0)
(2 -4.20418e-15 0)
(2 -4.42604e-15 0)
(2 -4.75156e-15 0)
(2 -4.90118e-15 0)
(2 -4.84556e-15 0)
(2 -4.59187e-15 0)
(2 -4.45367e-15 0)
(2 -4.38427e-15 0)
(2 -3.96063e-15 0)
(2 -3.63178e-15 0)
(2 -3.77097e-15 0)
(2 -3.75227e-15 0)
(2 -3.82914e-15 0)
(2 -2.93726e-15 0)
(2 -2.62353e-15 0)
(2 -2.71581e-15 0)
(2 -1.4637e-15 0)
(2 -9.7593e-16 0)
(2 -5.20741e-16 0)
(2 -3.05184e-17 0)
(2 3.02573e-16 0)
(2 3.15664e-16 0)
(2 4.59761e-17 0)
(2 8.89801e-16 0)
(2 1.41116e-15 0)
(2 7.87136e-16 0)
(2 -2.19416e-16 0)
(2 -3.10986e-16 0)
(2 -5.44019e-16 0)
(2 -1.47435e-15 0)
(2 -2.24836e-15 0)
(2 -2.62857e-15 0)
(2 -2.72855e-15 0)
(2 -2.80322e-15 0)
(2 -2.78923e-15 0)
(2 -2.38653e-15 0)
(2 -2.26022e-15 0)
(2 -2.1214e-15 0)
(2 -1.92614e-15 0)
(2 -1.33932e-15 0)
(2 -1.1284e-15 0)
(2 -9.51967e-16 0)
(2 -7.19017e-16 0)
(2 -5.78274e-16 0)
(2 -4.88121e-16 0)
(2 -4.11465e-16 0)
(2 -4.47403e-16 0)
(2 -5.27934e-16 0)
(2 -5.6961e-16 0)
(2 -6.67355e-16 0)
(2 -1.80445e-16 0)
(2 -1.28554e-17 0)
(2 2.98216e-17 0)
(2 -1.52913e-16 0)
(2 -5.38645e-16 0)
(2 -8.29549e-16 0)
(2 -8.04106e-16 0)
(2 -7.42981e-16 0)
(2 -5.73045e-16 0)
(2 -4.24466e-16 0)
(2 -2.25775e-16 0)
(2 -2.52028e-17 0)
(2 2.81858e-16 0)
(2 2.93188e-16 0)
(2 6.2748e-16 0)
(2 6.93267e-16 0)
(2 6.30018e-16 0)
(2 7.73116e-16 0)
(2 5.10913e-16 0)
(2 5.38691e-16 0)
(2 4.78822e-16 0)
(2 3.69406e-16 0)
(2 3.56867e-16 0)
(2 4.83695e-16 0)
(2 7.58356e-16 0)
(2 8.70943e-16 0)
(2 5.71473e-16 0)
(2 4.63063e-16 0)
(2 3.27534e-16 0)
(2 -4.64083e-16 0)
(2 -8.66316e-16 0)
(2 -9.76591e-16 0)
(2 -1.26992e-15 0)
(2 -1.29482e-15 0)
(2 -1.52628e-15 0)
(2 -1.79756e-15 0)
(2 -1.5971e-15 0)
(2 -1.2637e-15 0)
(2 -8.74623e-16 0)
(2 -4.87161e-16 0)
(2 -2.92829e-16 0)
(2 -7.87699e-16 0)
(2 -1.24014e-15 0)
(2 -1.63651e-15 0)
(2 -2.37185e-15 0)
(2 -2.73308e-15 0)
(2 -2.87677e-15 0)
(2 -2.90549e-15 0)
(2 -3.06994e-15 0)
(2 -3.21504e-15 0)
(2 -3.65817e-15 0)
(2 -4.03705e-15 0)
(2 -4.05561e-15 0)
(2 -4.0831e-15 0)
(2 -4.09364e-15 0)
(2 -4.03438e-15 0)
(2 -3.40781e-15 0)
(2 -2.8541e-15 0)
(2 -2.85305e-15 0)
(2 -2.7406e-15 0)
(2 -2.07119e-15 0)
(2 -1.3822e-15 0)
(2 -1.24302e-15 0)
(2 -1.1315e-15 0)
(2 -8.43668e-16 0)
(2 -7.61856e-16 0)
(2 -6.95589e-16 0)
(2 -4.09768e-16 0)
(2 -2.90716e-16 0)
(2 -1.96874e-16 0)
(2 -5.74653e-16 0)
(2 -1.03653e-15 0)
(2 -1.41355e-15 0)
(2 -1.52665e-15 0)
(2 -1.8014e-15 0)
(2 -1.52112e-15 0)
(2 -1.28663e-15 0)
(2 -1.09961e-15 0)
(2 -1.14343e-15 0)
(2 -1.34937e-15 0)
(2 -1.768e-15 0)
(2 -2.09887e-15 0)
(2 -2.33611e-15 0)
(2 -2.35506e-15 0)
(2 -2.14903e-15 0)
(2 -1.95059e-15 0)
(2 -2.32695e-15 0)
(2 -3.68925e-15 0)
(2 -4.2964e-15 0)
(2 -4.38844e-15 0)
(2 -4.96204e-15 0)
(2 -5.13283e-15 0)
(2 -5.65357e-15 0)
(2 -5.15442e-15 0)
(2 -4.45444e-15 0)
(2 -4.18965e-15 0)
(2 -3.74454e-15 0)
(2 -3.66753e-15 0)
(2 -3.60493e-15 0)
(2 -3.46899e-15 0)
(2 -3.38158e-15 0)
(2 -3.47644e-15 0)
(2 -3.78611e-15 0)
(2 -3.94058e-15 0)
(2 -3.83679e-15 0)
(2 -3.66743e-15 0)
(2 -3.61234e-15 0)
(2 -3.57292e-15 0)
(2 -3.92143e-15 0)
(2 -3.94689e-15 0)
(2 -3.83548e-15 0)
(2 -3.49263e-15 0)
(2 -2.88097e-15 0)
(2 -2.05609e-15 0)
(2 -1.09859e-15 0)
(2 -4.26305e-16 0)
(2 9.9497e-18 0)
(2 -3.31365e-17 0)
(2 -1.97793e-16 0)
(2 -1.76034e-16 0)
(2 -9.5888e-17 0)
(2 5.63445e-17 0)
(2 1.85366e-17 0)
(2 -2.12813e-16 0)
(2 -3.49645e-16 0)
(2 -4.78221e-16 0)
(2 -6.75799e-16 0)
(2 -1.58785e-16 0)
(2 4.26835e-16 0)
(2 9.39412e-16 0)
(2 1.1624e-15 0)
(2 1.37183e-15 0)
(2 1.30832e-15 0)
(2 1.31199e-15 0)
(2 1.42716e-15 0)
(2 1.7751e-15 0)
(2 1.64359e-15 0)
(2 1.50115e-15 0)
(2 1.24258e-15 0)
(2 1.08282e-15 0)
(2 1.07314e-15 0)
(2 1.11697e-15 0)
(2 1.25014e-15 0)
(2 1.18327e-15 0)
(2 1.35187e-15 0)
(2 1.4208e-15 0)
(2 1.76844e-15 0)
(2 1.77942e-15 0)
(2 1.39995e-15 0)
(2 1.3067e-15 0)
(2 2.40549e-15 0)
(2 3.27182e-15 0)
(2 3.57807e-15 0)
(2 3.51986e-15 0)
(2 3.40113e-15 0)
(2 3.87215e-15 0)
(2 3.99099e-15 0)
(2 4.12363e-15 0)
(2 3.96861e-15 0)
(2 3.68934e-15 0)
(2 3.52844e-15 0)
(2 3.3156e-15 0)
(2 3.09507e-15 0)
(2 2.9769e-15 0)
(2 2.77257e-15 0)
(2 2.7265e-15 0)
(2 2.73817e-15 0)
(2 2.90654e-15 0)
(2 3.33177e-15 0)
(2 3.71306e-15 0)
(2 -2.37032e-17 0)
(2 -4.69207e-17 0)
(2 -1.42466e-16 0)
(2 -1.85582e-16 0)
(2 -2.76808e-16 0)
(2 -2.04673e-16 0)
(2 -1.23443e-16 0)
(2 -7.88091e-17 0)
(2 -2.54428e-17 0)
(2 -6.82014e-17 0)
(2 -1.69904e-16 0)
(2 -3.65637e-16 0)
(2 -5.97661e-16 0)
(2 -7.45368e-16 0)
(2 -7.26744e-16 0)
(2 -4.24295e-16 0)
(2 -2.54323e-16 0)
(2 -1.45625e-16 0)
(2 -4.16362e-16 0)
(2 -5.96321e-16 0)
(2 -8.73015e-16 0)
(2 -6.64866e-16 0)
(2 -4.58147e-16 0)
(2 -4.6166e-16 0)
(2 -9.5157e-16 0)
(2 -1.40957e-15 0)
(2 -1.63149e-15 0)
(2 -1.66335e-15 0)
(2 -1.608e-15 0)
(2 -1.56696e-15 0)
(2 -1.72923e-15 0)
(2 -1.38532e-15 0)
(2 -1.0326e-15 0)
(2 -1.02478e-15 0)
(2 -4.59066e-16 0)
(2 -2.02179e-16 0)
(2 3.85863e-16 0)
(2 7.14491e-16 0)
(2 1.04817e-15 0)
(2 1.20564e-15 0)
(2 1.52925e-15 0)
(2 1.93313e-15 0)
(2 2.07411e-15 0)
(2 2.20447e-15 0)
(2 2.13705e-15 0)
(2 1.92033e-15 0)
(2 1.69575e-15 0)
(2 1.82529e-15 0)
(2 2.00567e-15 0)
(2 1.81784e-15 0)
(2 1.61372e-15 0)
(2 1.49022e-15 0)
(2 1.55609e-15 0)
(2 1.59487e-15 0)
(2 1.6709e-15 0)
(2 1.66608e-15 0)
(2 1.53664e-15 0)
(2 1.45497e-15 0)
(2 1.48401e-15 0)
(2 1.65021e-15 0)
(2 1.25908e-15 0)
(2 1.11803e-15 0)
(2 1.18284e-15 0)
(2 1.81842e-15 0)
(2 1.11285e-15 0)
(2 7.73458e-16 0)
(2 5.85075e-16 0)
(2 2.93902e-16 0)
(2 2.40517e-16 0)
(2 9.16087e-17 0)
(2 -2.2445e-18 0)
(2 4.12309e-17 0)
(2 7.95571e-17 0)
(2 3.48275e-16 0)
(2 4.07204e-16 0)
(2 4.92532e-16 0)
(2 7.04507e-16 0)
(2 9.38534e-16 0)
(2 1.14196e-15 0)
(2 1.22597e-15 0)
(2 1.21028e-15 0)
(2 1.09044e-15 0)
(2 1.01709e-15 0)
(2 9.5923e-16 0)
(2 9.55413e-16 0)
(2 8.09794e-16 0)
(2 3.21651e-16 0)
(2 -7.55658e-18 0)
(2 -5.00095e-17 0)
(2 6.3546e-17 0)
(2 6.52649e-17 0)
(2 -1.09293e-16 0)
(2 -2.45159e-16 0)
(2 -3.42666e-16 0)
(2 -1.31473e-16 0)
(2 -1.54348e-17 0)
(2 1.86741e-16 0)
(2 3.57031e-16 0)
(2 4.3096e-16 0)
(2 3.13341e-16 0)
(2 1.23129e-16 0)
(2 -4.31826e-17 0)
(2 -1.60415e-16 0)
(2 -7.60822e-17 0)
(2 9.25216e-17 0)
(2 2.35976e-16 0)
(2 1.64188e-16 0)
(2 2.27046e-17 0)
(2 -2.22252e-16 0)
(2 -7.7783e-16 0)
(2 -8.49029e-16 0)
(2 -4.0435e-16 0)
(2 2.67626e-16 0)
(2 4.91162e-16 0)
(2 5.25514e-16 0)
(2 1.55254e-16 0)
(2 -3.74061e-16 0)
(2 -5.55012e-16 0)
(2 -6.54008e-16 0)
(2 -1.33301e-15 0)
(2 -1.45021e-15 0)
(2 -1.50426e-15 0)
(2 -1.38722e-15 0)
(2 -1.34886e-15 0)
(2 -9.74234e-16 0)
(2 -7.89907e-16 0)
(2 -6.41121e-16 0)
(2 -3.31434e-16 0)
(2 -2.83388e-16 0)
(2 -1.54585e-16 0)
(2 1.4953e-16 0)
(2 4.69111e-16 0)
(2 5.18162e-16 0)
(2 6.03836e-16 0)
(2 1.21813e-15 0)
(2 1.91229e-15 0)
(2 1.82579e-15 0)
(2 1.88467e-15 0)
(2 1.92104e-15 0)
(2 2.15253e-15 0)
(2 2.24732e-15 0)
(2 1.69062e-15 0)
(2 1.38376e-15 0)
(2 1.47589e-15 0)
(2 1.53616e-15 0)
(2 1.47635e-15 0)
(2 1.34727e-15 0)
(2 9.68981e-16 0)
(2 3.71904e-16 0)
(2 2.82459e-16 0)
(2 2.66358e-16 0)
(2 1.40277e-16 0)
(2 1.18167e-16 0)
(2 1.66238e-16 0)
(2 3.09769e-17 0)
(2 3.79441e-17 0)
(2 1.14189e-18 0)
(2 -3.0872e-16 0)
(2 -4.08922e-16 0)
(2 -1.53838e-16 0)
(2 -1.60479e-15 0)
(2 -3.04517e-15 0)
(2 -3.08291e-15 0)
(2 -3.63206e-15 0)
(2 -3.86172e-15 0)
(2 -4.22507e-15 0)
(2 -4.23821e-15 0)
(2 -4.09145e-15 0)
(2 -3.79377e-15 0)
(2 -3.23196e-15 0)
(2 -2.62179e-15 0)
(2 -2.37594e-15 0)
(2 -2.86642e-15 0)
(2 -3.11374e-15 0)
(2 -2.61976e-15 0)
(2 -2.2074e-15 0)
(2 -2.17344e-15 0)
(2 -1.90023e-15 0)
(2 -1.51322e-15 0)
(2 -1.23314e-15 0)
(2 -8.82694e-16 0)
(2 -8.71699e-16 0)
(2 -8.1635e-16 0)
(2 -7.3995e-16 0)
(2 -5.92238e-16 0)
(2 -5.56561e-16 0)
(2 -2.33642e-16 0)
(2 1.40387e-16 0)
(2 7.58117e-16 0)
(2 7.29745e-16 0)
(2 5.62493e-16 0)
(2 4.28043e-16 0)
(2 -6.87139e-16 0)
(2 -1.05637e-15 0)
(2 -1.37946e-15 0)
(2 -1.46381e-15 0)
(2 -1.72333e-15 0)
(2 -1.49309e-15 0)
(2 -9.61076e-16 0)
(2 -8.65669e-16 0)
(2 -6.07548e-16 0)
(2 -6.77604e-18 0)
(2 3.02409e-16 0)
(2 4.17513e-16 0)
(2 5.36193e-16 0)
(2 2.73156e-16 0)
(2 6.71203e-17 0)
(2 -5.25826e-18 0)
(2 2.52876e-16 0)
(2 4.00625e-16 0)
(2 4.84623e-16 0)
(2 5.89155e-16 0)
(2 6.51028e-16 0)
(2 7.57121e-16 0)
(2 7.9069e-16 0)
(2 7.25619e-16 0)
(2 4.64111e-16 0)
(2 4.48683e-16 0)
(2 4.97047e-16 0)
(2 5.27762e-16 0)
(2 4.58886e-16 0)
(2 9.81232e-17 0)
(2 4.48238e-17 0)
(2 5.71478e-17 0)
(2 -1.16118e-17 0)
(2 -9.93938e-17 0)
(2 -1.37211e-16 0)
(2 -9.61636e-17 0)
(2 -2.95978e-16 0)
(2 -6.50094e-16 0)
(2 -1.0251e-15 0)
(2 -1.37409e-15 0)
(2 -1.13807e-15 0)
(2 -8.96765e-16 0)
(2 -9.27589e-16 0)
(2 -9.32472e-16 0)
(2 -7.65697e-16 0)
(2 -3.82409e-16 0)
(2 -3.8312e-17 0)
(2 3.18209e-16 0)
(2 -4.13339e-16 0)
(2 -5.41169e-16 0)
(2 -8.38505e-16 0)
(2 -9.20414e-16 0)
(2 -1.33375e-15 0)
(2 -1.35668e-15 0)
(2 -1.35857e-15 0)
(2 -1.16611e-15 0)
(2 -1.06509e-15 0)
(2 -8.79622e-16 0)
(2 -2.91738e-16 0)
(2 1.15369e-16 0)
(2 3.17824e-16 0)
(2 -2.33941e-17 0)
(2 4.67784e-17 0)
(2 -3.72555e-16 0)
(2 -8.08736e-16 0)
(2 -9.52066e-16 0)
(2 -1.37234e-15 0)
(2 -1.9199e-15 0)
(2 -2.03723e-15 0)
(2 -1.96336e-15 0)
(2 -1.73917e-15 0)
(2 -9.89596e-16 0)
(2 -6.20169e-16 0)
(2 -6.94549e-16 0)
(2 -8.10225e-16 0)
(2 -8.63735e-16 0)
(2 -8.22209e-16 0)
(2 -6.51748e-16 0)
(2 -3.99253e-16 0)
(2 -4.64132e-16 0)
(2 -4.63913e-16 0)
(2 -5.27425e-16 0)
(2 -6.09935e-16 0)
(2 -6.35656e-16 0)
(2 -6.30484e-16 0)
(2 -4.35091e-18 0)
(2 2.10756e-16 0)
(2 3.37041e-16 0)
(2 3.56012e-16 0)
(2 1.44325e-16 0)
(2 -1.34099e-16 0)
(2 1.6897e-16 0)
(2 5.39834e-16 0)
(2 4.66645e-16 0)
(2 -1.55488e-16 0)
(2 -4.29165e-16 0)
(2 -6.43789e-16 0)
(2 -6.40741e-16 0)
(2 -8.16501e-16 0)
(2 -8.04204e-16 0)
(2 -1.45286e-15 0)
(2 -2.13817e-15 0)
(2 -2.45376e-15 0)
(2 -2.76727e-15 0)
(2 -3.4753e-15 0)
(2 -4.11205e-15 0)
(2 -4.38374e-15 0)
(2 -4.54702e-15 0)
(2 -4.55148e-15 0)
(2 -4.21665e-15 0)
(2 -3.82992e-15 0)
(2 -3.55488e-15 0)
(2 -3.35223e-15 0)
(2 -3.23755e-15 0)
(2 -2.99343e-15 0)
(2 -2.64267e-15 0)
(2 -1.91925e-15 0)
(2 -9.13211e-16 0)
(2 -2.84798e-16 0)
(2 -4.05208e-16 0)
(2 -4.77457e-16 0)
(2 -5.22184e-16 0)
(2 -7.91802e-16 0)
(2 -9.87615e-16 0)
(2 -1.38069e-15 0)
(2 -2.18641e-15 0)
(2 -2.47066e-15 0)
(2 -2.40193e-15 0)
(2 -2.70848e-15 0)
(2 -2.83938e-15 0)
(2 -2.77441e-15 0)
(2 -2.83128e-15 0)
(2 -2.84126e-15 0)
(2 -1.90859e-15 0)
(2 -1.44734e-15 0)
(2 -1.10139e-15 0)
(2 -1.00153e-15 0)
(2 -5.69485e-16 0)
(2 -3.71122e-16 0)
(2 -3.34656e-16 0)
(2 -3.46494e-16 0)
(2 -4.32939e-16 0)
(2 -1.11444e-16 0)
(2 -1.51664e-17 0)
(2 1.99752e-16 0)
(2 3.91914e-16 0)
(2 3.88469e-16 0)
(2 3.49887e-16 0)
(2 3.09853e-16 0)
(2 4.70041e-16 0)
(2 3.8133e-16 0)
(2 2.77026e-16 0)
(2 5.08681e-16 0)
(2 8.40349e-16 0)
(2 1.25567e-15 0)
(2 1.53123e-15 0)
(2 1.58535e-15 0)
(2 1.49058e-15 0)
(2 1.4668e-15 0)
(2 1.50783e-15 0)
(2 1.63068e-15 0)
(2 1.77079e-15 0)
(2 1.88822e-15 0)
(2 2.14146e-15 0)
(2 2.39309e-15 0)
(2 2.78873e-15 0)
(2 2.85914e-15 0)
(2 2.8652e-15 0)
(2 2.5411e-15 0)
(2 2.27098e-15 0)
(2 2.27197e-15 0)
(2 2.47241e-15 0)
(2 2.67707e-15 0)
(2 2.7575e-15 0)
(2 3.17948e-15 0)
(2 3.57151e-15 0)
(2 3.62716e-15 0)
(2 4.21102e-15 0)
(2 4.49857e-15 0)
(2 4.43041e-15 0)
(2 4.23854e-15 0)
(2 4.2415e-15 0)
(2 4.30592e-15 0)
(2 4.20733e-15 0)
(2 3.51336e-15 0)
(2 3.03164e-15 0)
(2 3.23556e-15 0)
(2 3.12866e-15 0)
(2 3.07671e-15 0)
(2 3.13825e-15 0)
(2 2.57904e-15 0)
(2 2.2095e-15 0)
(2 1.61771e-17 0)
(2 -1.49257e-18 0)
(2 8.37384e-17 0)
(2 1.2627e-16 0)
(2 1.5821e-16 0)
(2 9.38049e-17 0)
(2 1.87113e-16 0)
(2 2.96532e-16 0)
(2 3.55125e-16 0)
(2 3.17674e-16 0)
(2 2.86229e-16 0)
(2 2.50315e-16 0)
(2 1.95901e-16 0)
(2 2.16691e-16 0)
(2 2.19928e-16 0)
(2 1.39171e-16 0)
(2 1.51251e-16 0)
(2 3.54125e-16 0)
(2 -4.31537e-17 0)
(2 -5.88688e-16 0)
(2 -2.90358e-16 0)
(2 -6.18587e-17 0)
(2 1.16644e-16 0)
(2 2.06193e-16 0)
(2 7.51769e-16 0)
(2 1.01662e-15 0)
(2 1.20842e-15 0)
(2 1.01447e-15 0)
(2 6.27133e-16 0)
(2 5.63273e-16 0)
(2 5.61321e-16 0)
(2 6.13411e-16 0)
(2 6.16547e-16 0)
(2 5.16855e-16 0)
(2 3.35065e-16 0)
(2 2.72724e-16 0)
(2 1.88605e-16 0)
(2 8.07526e-17 0)
(2 -6.38781e-17 0)
(2 2.70857e-16 0)
(2 6.78564e-16 0)
(2 8.52523e-16 0)
(2 8.85093e-16 0)
(2 9.00487e-16 0)
(2 8.15118e-16 0)
(2 7.98291e-16 0)
(2 9.44419e-16 0)
(2 1.16597e-15 0)
(2 1.48835e-15 0)
(2 2.3007e-15 0)
(2 2.53002e-15 0)