/*--------------------------------*- C++ -*----------------------------------*\
  =========                 |
  \\      /  F ield         | OpenFOAM: The Open Source CFD Toolbox
   \\    /   O peration     | Website:  https://openfoam.org
    \\  /    A nd           | Version:  7
     \\/     M anipulation  |
\*---------------------------------------------------------------------------*/
FoamFile
{
    version     2.0;
    format      ascii;
    class       surfaceScalarField;
    location    "10";
    object      phi;
}
// * * * * * * * * * * * * * * * * * * * * * * * * * * * * * * * * * * * * * //

dimensions      [0 3 -1 0 0 0 0];

internalField   nonuniform List<scalar> 
1162
(
0.0704102
0.00346719
0.0703328
0.00334179
0.0702584
0.00321518
0.0701869
0.00308733
0.0701185
0.00295828
0.070053
0.00282806
0.0699906
0.00269675
0.0699313
0.00256441
0.0698751
0.00243107
0.069822
0.00229681
0.069772
0.00216165
0.0697252
0.00202567
0.0696816
0.0018889
0.0696411
0.0017514
0.0696039
0.00161323
0.0695699
0.00147444
0.0695392
0.00133508
0.0011952
0.0687851
0.00354547
0.0687096
0.00341724
0.068637
0.00328775
0.0685674
0.00315701
0.0685006
0.00302503
0.0684368
0.00289187
0.068376
0.00275758
0.0683181
0.00262223
0.0682633
0.00248587
0.0682116
0.00234856
0.0681629
0.00221034
0.0681173
0.00207127
0.0680748
0.0019314
0.0680354
0.00179079
0.0679992
0.00164948
0.0679661
0.00150754
0.0679361
0.00136501
0.0679094
0.00122196
0.0678858
0.00107843
0.0678654
0.000934487
0.000790182
0.067198
0.00362179
0.0671244
0.00349079
0.0670537
0.00335851
0.0669857
0.00322494
0.0669207
0.00309011
0.0668585
0.00295406
0.0667992
0.00281687
0.0667428
0.00267859
0.0666894
0.00253928
0.066639
0.00239899
0.0665916
0.00225778
0.0665471
0.0021157
0.0665057
0.0019728
0.0664674
0.00182913
0.0664321
0.00168477
0.0663999
0.00153975
0.0663708
0.00139413
0.0663448
0.00124798
0.0663218
0.00110134
0.066302
0.00095428
0.000806849
0.0656481
0.00369619
0.0655764
0.00356249
0.0655074
0.00342749
0.0654412
0.00329116
0.0653778
0.00315353
0.0653172
0.00301467
0.0652594
0.00287463
0.0652045
0.00273349
0.0651525
0.0025913
0.0651034
0.00244811
0.0650572
0.00230398
0.0650139
0.00215896
0.0649736
0.0020131
0.0649363
0.00186646
0.0649019
0.00171911
0.0648706
0.00157108
0.0648423
0.00142246
0.064817
0.00127328
0.0647947
0.0011236
0.0647755
0.000973496
0.000823009
0.0641346
0.0037687
0.0640647
0.00363237
0.0639975
0.0034947
0.063933
0.00335567
0.0638712
0.00321532
0.0638122
0.00307371
0.0637559
0.0029309
0.0637024
0.00278697
0.0636517
0.00264197
0.0636039
0.00249594
0.0635589
0.00234896
0.0635168
0.00220107
0.0634776
0.00205232
0.0634413
0.00190278
0.0634079
0.00175251
0.0633774
0.00160156
0.0633499
0.00144998
0.0633253
0.00129785
0.0633037
0.00114521
0.063285
0.000992131
0.000838662
0.0626566
0.00383935
0.0625885
0.00370044
0.0625231
0.00356017
0.0624602
0.00341851
0.0624
0.0032755
0.0623425
0.00313121
0.0622877
0.0029857
0.0622357
0.00283904
0.0621863
0.00269129
0.0621398
0.0025425
0.062096
0.00239273
0.062055
0.00224204
0.0620169
0.00209048
0.0619816
0.0019381
0.0619491
0.00178498
0.0619195
0.00163117
0.0618927
0.00147672
0.0618689
0.0013217
0.0618479
0.00116617
0.0618299
0.00101019
0.00085381
0.0612133
0.00390815
0.061147
0.00376673
0.0610833
0.00362392
0.0610221
0.00347969
0.0609635
0.00333409
0.0609075
0.00318718
0.0608542
0.00303903
0.0608035
0.00288971
0.0607555
0.00273928
0.0607102
0.0025878
0.0606677
0.00243531
0.0606278
0.00228188
0.0605907
0.00212757
0.0605564
0.00197243
0.0605249
0.00181653
0.0604961
0.00165992
0.0604701
0.00150267
0.060447
0.00134484
0.0604267
0.00118648
0.0604092
0.00102766
0.000868446
0.0598039
0.00397512
0.0597394
0.00383125
0.0596774
0.00368596
0.0596178
0.00353923
0.0595608
0.00339111
0.0595064
0.00324164
0.0594545
0.00309092
0.0594052
0.002939
0.0593585
0.00278595
0.0593145
0.00263183
0.0592731
0.0024767
0.0592344
0.0023206
0.0591983
0.0021636
0.059165
0.00200577
0.0591344
0.00184715
0.0591065
0.00168782
0.0590813
0.00152783
0.0590589
0.00136725
0.0590393
0.00120614
0.0590224
0.00104456
0.000882566
0.0584277
0.00404028
0.0583649
0.00389401
0.0583045
0.00374631
0.0582466
0.00359714
0.0581912
0.00344655
0.0581382
0.00329459
0.0580878
0.00314135
0.0580399
0.00298691
0.0579945
0.00283131
0.0579518
0.00267462
0.0579116
0.0025169
0.057874
0.0023582
0.057839
0.00219858
0.0578066
0.00203811
0.0577769
0.00187685
0.0577499
0.00171486
0.0577255
0.0015522
0.0577038
0.00138894
0.0576848
0.00122514
0.0576685
0.00106086
0.000896159
0.0570837
0.00410362
0.0570227
0.00395503
0.056964
0.00380497
0.0569078
0.00365342
0.0568539
0.00350042
0.0568024
0.00334604
0.0567534
0.00319035
0.0567069
0.00303343
0.0566629
0.00287535
0.0566213
0.00271615
0.0565823
0.00255591
0.0565458
0.00239467
0.0565119
0.0022325
0.0564806
0.00206946
0.0564518
0.00190562
0.0564256
0.00174103
0.0564021
0.00157577
0.0563811
0.0014099
0.0563628
0.00124347
0.0563471
0.00107656
0.000909219
0.0557713
0.00416515
0.0557121
0.00401429
0.0556551
0.00386194
0.0556004
0.00370808
0.0555481
0.00355273
0.0554982
0.00339598
0.0554506
0.0032379
0.0554055
0.00307858
0.0553627
0.00291807
0.0553225
0.00275643
0.0552846
0.00259373
0.0552493
0.00243001
0.0552165
0.00226535
0.0551861
0.00209981
0.0551583
0.00193345
0.055133
0.00176634
0.0551102
0.00159854
0.05509
0.00143011
0.0550723
0.00126112
0.0550573
0.00109164
0.000921728
0.0544897
0.00422487
0.0544322
0.0040718
0.0543769
0.00391722
0.0543239
0.00376111
0.0542732
0.00360348
0.0542247
0.00344442
0.0541786
0.00328401
0.0541349
0.00312234
0.0540935
0.00295947
0.0540545
0.00279545
0.0540178
0.00263035
0.0539836
0.00246422
0.0539518
0.00229713
0.0539225
0.00212915
0.0538956
0.00196033
0.0538712
0.00179075
0.0538493
0.00162048
0.0538298
0.00144956
0.0538129
0.00127808
0.0537984
0.00110609
0.000933671
0.0532382
0.00428277
0.0531824
0.00412755
0.0531289
0.00397081
0.0530775
0.0038125
0.0530283
0.00365265
0.0529814
0.00349133
0.0529367
0.00332866
0.0528944
0.0031647
0.0528543
0.00299952
0.0528166
0.00283319
0.0527812
0.00266575
0.0527481
0.00249727
0.0527174
0.00232782
0.0526891
0.00215746
0.0526632
0.00198625
0.0526397
0.00181427
0.0526186
0.00164157
0.0525999
0.00146824
0.0525837
0.00129432
0.0525699
0.00111989
0.000945025
0.052016
0.051962
0.00418153
0.0519101
0.00402269
0.0518604
0.00386224
0.0518128
0.00370022
0.0517674
0.00353672
0.0517242
0.00337183
0.0516833
0.00320564
0.0516446
0.00303822
0.0516081
0.00286963
0.051574
0.00269992
0.0515421
0.00252915
0.0515125
0.00235739
0.0514853
0.00218471
0.0514603
0.00201118
0.0514378
0.00183685
0.0514175
0.00166181
0.0513996
0.00148611
0.0513841
0.00130982
0.051371
0.00113302
0.000955763
0.0507701
0.00423371
0.0507199
0.00407283
0.0506719
0.00391031
0.0506259
0.00374618
0.0505821
0.00358054
0.0505404
0.0034135
0.0505009
0.00324514
0.0504636
0.00307554
0.0504285
0.00290475
0.0503956
0.00273283
0.0503649
0.00255983
0.0503364
0.00238583
0.0503103
0.00221089
0.0502864
0.00203509
0.0502647
0.00185848
0.0502454
0.00168115
0.0502283
0.00150315
0.0502136
0.00132455
0.0502012
0.00114543
0.000965857
0.0496059
0.00428406
0.0495576
0.00412121
0.0495112
0.00395667
0.0494669
0.00379049
0.0494247
0.00362276
0.0493845
0.00345363
0.0493465
0.00328317
0.0493106
0.00311144
0.0492769
0.00293852
0.0492452
0.00276444
0.0492158
0.00258927
0.0491885
0.00241309
0.0491635
0.00223595
0.0491406
0.00205794
0.04912
0.00187912
0.0491016
0.00169955
0.0490854
0.00151932
0.0490715
0.00133848
0.0490598
0.0011571
0.000975265
0.0484689
0.00433255
0.0484223
0.00416778
0.0483777
0.00400129
0.0483351
0.0038331
0.0482945
0.00366335
0.0482559
0.00349218
0.0482194
0.00331967
0.048185
0.00314589
0.0481526
0.00297088
0.0481223
0.00279471
0.0480942
0.00261743
0.0480682
0.00243912
0.0480442
0.00225985
0.0480225
0.00207969
0.0480029
0.00189872
0.0479855
0.00171698
0.0479702
0.00153457
0.0479571
0.00135154
0.0479463
0.00116798
0.00098394
0.047358
0.00437911
0.0473133
0.0042125
0.0472705
0.0040441
0.0472296
0.00387396
0.0471907
0.00370224
0.0471538
0.00352909
0.0471189
0.00335459
0.047086
0.00317881
0.0470551
0.00300179
0.0470262
0.00282358
0.0469994
0.00264425
0.0469746
0.00246388
0.0469519
0.00228254
0.0469313
0.00210029
0.0469128
0.00191722
0.0468964
0.00173338
0.0468822
0.00154885
0.04687
0.0013637
0.04686
0.00117801
0.000991829
0.0462727
0.0044237
0.0462299
0.00425529
0.0461889
0.00408504
0.0461499
0.00391301
0.0461128
0.00373938
0.0460775
0.0035643
0.0460443
0.00338787
0.0460129
0.00321015
0.0459835
0.00303117
0.0459561
0.00285099
0.0459307
0.00266967
0.0459073
0.0024873
0.0458859
0.00230394
0.0458665
0.00211967
0.0458492
0.00193456
0.0458339
0.00174867
0.0458206
0.00156209
0.0458095
0.00137488
0.0458004
0.00118711
0.00099886
0.045212
0.00446623
0.0451712
0.00429609
0.0451322
0.00412404
0.045095
0.00395016
0.0450598
0.00377466
0.0450263
0.00359772
0.0449948
0.00341943
0.0449651
0.00323982
0.0449373
0.00305895
0.0449115
0.00287685
0.0448875
0.00269361
0.0448655
0.00250929
0.0448455
0.00232397
0.0448274
0.00213774
0.0448113
0.00195065
0.0447972
0.00176279
0.0447851
0.00157421
0.044775
0.001385
0.0447669
0.00119523
0.00100496
0.0441751
0.00450662
0.0441364
0.00433481
0.0440994
0.004161
0.0440643
0.00398531
0.0440309
0.00380801
0.0439994
0.00362926
0.0439696
0.00344916
0.0439417
0.00326774
0.0439156
0.00308503
0.0438914
0.00290107
0.0438691
0.00271595
0.0438486
0.00252975
0.0438301
0.00234254
0.0438134
0.0021544
0.0437986
0.0019654
0.0437858
0.00177561
0.0437749
0.00158511
0.043766
0.00139396
0.043759
0.00120224
0.00101002
0.0431612
0.00454478
0.0431247
0.00437134
0.0430899
0.0041958
0.0430569
0.00401835
0.0430256
0.00383929
0.042996
0.00365881
0.0429682
0.00347698
0.0429422
0.0032938
0.0429179
0.0031093
0.0428954
0.00292354
0.0428748
0.00273661
0.0428559
0.00254858
0.0428389
0.00235954
0.0428238
0.00216956
0.0428105
0.00197871
0.042799
0.00178706
0.0427895
0.00159468
0.0427818
0.00140166
0.0427759
0.00120805
0.00101395
0.0421694
0.00458062
0.0421352
0.00440557
0.0421026
0.00422832
0.0420719
0.00404914
0.0420428
0.00386839
0.0420153
0.00368624
0.0419896
0.00350273
0.0419655
0.00331785
0.0419432
0.00313162
0.0419226
0.00294411
0.0419038
0.00275541
0.0418868
0.00256561
0.0418715
0.0023748
0.0418581
0.00218304
0.0418464
0.0019904
0.0418365
0.00179695
0.0418284
0.00160277
0.0418221
0.00140793
0.0418177
0.00121251
0.00101658
0.0411988
0.00461403
0.041167
0.00443735
0.0411369
0.00425838
0.0411085
0.00407752
0.0410818
0.00389516
0.0410566
0.00371143
0.041033
0.00352631
0.0410111
0.00333977
0.0409908
0.00315185
0.0409723
0.00296263
0.0409555
0.00277224
0.0409404
0.00258074
0.0409269
0.00238822
0.0409152
0.00219473
0.0409053
0.00200036
0.0408971
0.00180516
0.0408906
0.00160923
0.0408859
0.00141264
0.0408829
0.00121546
0.00101777
0.0402483
0.00464491
0.0402191
0.00446653
0.0401917
0.00428584
0.0401658
0.00410339
0.0401415
0.00391951
0.0401186
0.00373426
0.0400974
0.00354755
0.0400778
0.00335937
0.0400599
0.00316979
0.0400436
0.00297893
0.0400289
0.00278689
0.0400159
0.00259374
0.0400046
0.00239956
0.0399949
0.0022044
0.0399869
0.00200835
0.0399806
0.00181148
0.0399759
0.00161386
0.039973
0.00141558
0.0399718
0.0012167
0.00101732
0.0393172
0.00467295
0.039291
0.00449277
0.0392664
0.00431043
0.0392433
0.00412651
0.0392216
0.00394122
0.0392013
0.00375448
0.0391827
0.00356619
0.0391657
0.00337641
0.0391502
0.00318524
0.0391364
0.00299279
0.0391241
0.00279917
0.0391134
0.00260443
0.0391043
0.00240864
0.0390969
0.00221187
0.039091
0.00201419
0.0390868
0.00181569
0.0390842
0.00161645
0.0390832
0.00141654
0.0390839
0.00121603
0.00101501
0.0384035
0.00469812
0.0383801
0.00451615
0.0383582
0.00433232
0.0383376
0.00414706
0.0383185
0.00396035
0.0383009
0.00377207
0.0382849
0.00358219
0.0382705
0.00339082
0.0382577
0.00319808
0.0382464
0.00300408
0.0382366
0.0028089
0.0382285
0.00261258
0.0382219
0.0024152
0.038217
0.00221683
0.0382136
0.00201756
0.0382118
0.00181747
0.0382117
0.00161663
0.0382131
0.00141512
0.0382161
0.00121303
0.00101042
0.0375109
0.00471967
0.0374909
0.00453618
0.0374721
0.0043511
0.0374546
0.00416454
0.0374386
0.00397638
0.0374241
0.00378654
0.0374112
0.00359512
0.0373998
0.00340224
0.0373898
0.00320802
0.0373814
0.00301253
0.0373745
0.00281583
0.037369
0.00261799
0.0373651
0.00241909
0.0373628
0.00221921
0.0373619
0.00201843
0.0373626
0.00181682
0.0373647
0.00161446
0.0373684
0.00141144
0.0373736
0.00120782
0.0010037
0.0366251
0.0366079
0.036592
0.0365776
0.0365647
0.0365534
0.0365436
0.00360492
0.0365352
0.00341055
0.0365285
0.00321481
0.0365232
0.00301779
0.0365195
0.00281954
0.0365173
0.00262015
0.0365167
0.00241969
0.0365177
0.00221825
0.0365202
0.00201591
0.0365243
0.00181275
0.0365299
0.00160885
0.036537
0.00140429
0.0365457
0.00119916
0.00099352
0.0357088
0.0357037
0.0357002
0.0356982
0.0356976
0.0356986
0.035701
0.035705
0.0357104
0.0357174
0.0357258
0.0357357
0.0357471
0.00118776
0.000980666
0.0349507
)
;

boundaryField
{
    inlet
    {
        type            calculated;
        value           nonuniform 0();
    }
    outlet
    {
        type            calculated;
        value           nonuniform 0();
    }
    cylinder
    {
        type            calculated;
        value           nonuniform 0();
    }
    top
    {
        type            symmetryPlane;
        value           nonuniform 0();
    }
    bottom
    {
        type            symmetryPlane;
        value           nonuniform 0();
    }
    defaultFaces
    {
        type            empty;
        value           nonuniform 0();
    }
    procBoundary10to2
    {
        type            processor;
        value           nonuniform List<scalar> 
22
(
-0.00338691
-0.00326443
-0.00314074
-0.00301586
-0.0028898
-0.00276261
-0.00263436
-0.00250508
-0.00237485
-0.0022437
-0.00211169
-0.00197886
-0.00184527
-0.00171097
-0.00157601
-0.00144045
-0.00130432
-0.0011677
0.0695117
-0.00105486
-0.000914111
-0.00077301
)
;
    }
    procBoundary10to3
    {
        type            processor;
        value           nonuniform List<scalar> 4(0.0678483 0.0662854 0.0647594 0.0632694);
    }
    procBoundary10to9
    {
        type            processor;
        value           nonuniform List<scalar> 
27
(
-0.0704905
-0.0688633
-0.0672743
-0.0657225
-0.0642071
-0.0627272
-0.0612821
-0.0598709
-0.0584928
-0.057147
-0.0558329
-0.0545495
-0.0532961
-0.052072
0.00433884
-0.0508222
-0.0496563
-0.0485173
-0.0474046
-0.0463173
-0.0452545
-0.0442155
-0.0431994
-0.0422052
-0.0412322
-0.0402792
-0.0393453
)
;
    }
    procBoundary10to11
    {
        type            processor;
        value           nonuniform List<scalar> 
26
(
0.0618147
0.0603946
0.0590082
0.057655
0.056334
0.0550447
0.0537865
0.0525585
0.0513603
0.0501911
0.0490504
0.0479376
0.0468521
0.0457933
0.0447608
0.0437539
0.042772
0.041815
0.0408817
0.0399722
0.0390862
0.0382207
0.0373803
0.0365559
0.03576
0.0349679
)
;
    }
    procBoundary10to17
    {
        type            processor;
        value           nonuniform List<scalar> 3(-0.0384286 -0.0375325 -0.0366436);
    }
    procBoundary10to18
    {
        type            processor;
        value           nonuniform List<scalar> 
22
(
0.00117212
0.000963475
0.00473813
0.00455334
0.00436699
0.004179
0.00398927
0.00379787
-0.0357153
0.00361144
0.00341558
0.00321836
0.00301983
0.00282008
0.00261919
0.00241723
0.0022143
0.00201046
0.0018058
0.00160041
0.00139437
-0.0349351
)
;
    }
}


// ************************************************************************* //
