/*--------------------------------*- C++ -*----------------------------------*\
  =========                 |
  \\      /  F ield         | OpenFOAM: The Open Source CFD Toolbox
   \\    /   O peration     | Website:  https://openfoam.org
    \\  /    A nd           | Version:  7
     \\/     M anipulation  |
\*---------------------------------------------------------------------------*/
FoamFile
{
    version     2.0;
    format      ascii;
    class       volScalarField;
    location    "1.276";
    object      p;
}
// * * * * * * * * * * * * * * * * * * * * * * * * * * * * * * * * * * * * * //

dimensions      [0 2 -2 0 0 0 0];

internalField   nonuniform List<scalar> 
12359
(
0.0685729
0.0775966
0.0535153
0.110185
0.0721146
0.156728
0.187901
0.170883
0.22794
0.144683
0.20886
0.279298
0.486946
0.117251
0.10503
0.397695
0.441045
0.0573864
0.0570598
0.0902665
0.125774
0.253102
0.0836387
0.0957092
0.0803079
0.0867035
0.0544731
0.0543493
0.056431
0.0549122
0.0552599
0.0539346
0.053648
0.0547077
0.0535368
0.0554424
0.062166
0.0669154
0.0704257
0.064443
0.0756242
0.0655477
0.0599619
0.0592816
0.0558765
0.0561483
0.0556522
0.0551145
0.0567319
0.054575
0.0542405
0.0541408
0.053865
0.0577723
0.053799
0.0536672
0.0587158
0.0536349
0.0536345
0.0535722
0.0537008
0.0535386
0.0541774
0.516696
0.0582104
0.134395
0.0614592
0.0540641
0.0628523
0.350372
0.532365
0.0737343
0.0535077
0.063627
0.100387
0.0535482
0.0538746
0.0535216
0.0608145
0.319855
0.126955
0.04889
0.0527465
0.0535716
-0.0557768
0.0252371
0.0486936
0.0516653
-0.0686007
-0.0497218
0.0533415
0.478821
0.0532825
0.0526214
0.0523103
0.00667471
0.0521792
0.0527768
0.0604421
0.0573059
0.109429
0.0534198
0.0258904
-0.120732
0.0481328
0.0143636
0.0525124
-0.0543219
0.0275089
0.0147666
0.052258
0.0489596
0.111904
0.0930563
0.052677
0.0499852
0.0947133
0.0478897
-0.0729711
0.0527756
0.052398
0.17646
0.0515487
0.00607226
0.0476148
0.0498542
0.0396551
0.053347
0.0535071
0.0475135
0.050594
-0.00224572
-0.00370687
-0.00260199
0.0525723
0.00736963
0.050493
0.00747844
0.053446
0.0401952
0.0528813
0.0698517
0.0159653
0.0525287
0.00957838
0.14897
0.0527573
-0.0444522
0.0479717
0.12884
0.00387275
0.0534294
0.0159629
0.0514644
0.0532508
-0.166277
0.110232
-0.00149303
0.0522951
0.0540022
0.0476689
0.0540414
0.00459594
0.013001
0.0527381
0.0500463
0.0488332
0.175527
0.0144708
-0.0702977
0.0535175
0.0535395
0.0133827
0.0804058
0.0483682
0.0436415
0.0564471
0.0562322
0.113527
0.0440245
0.117599
0.0532318
0.0535086
0.0485791
0.0593886
0.207131
0.0473153
0.0515048
0.00554954
0.0470706
0.0518346
0.00820981
0.0106642
0.0514118
0.0134079
-0.130177
0.0344877
0.0483516
0.0165011
0.0480271
0.153092
0.00513478
0.0584278
0.0143119
0.0130891
0.0532132
0.0120249
0.0591148
0.00232881
0.0463373
0.05301
0.000157438
0.000290768
-0.525426
0.204712
0.0534558
0.0478678
0.0526706
0.0476138
0.0706487
0.103518
0.046537
0.00602777
0.46858
0.047266
0.0529891
0.0713767
0.028361
0.0470043
0.0491525
0.0489183
0.0527465
0.010463
0.0584797
0.0509928
0.0575368
0.05277
0.0153813
0.0510893
0.29414
0.0527118
0.0237187
0.0516337
0.0569939
0.0465605
-0.044873
0.0536112
0.00221334
0.0495934
0.0114118
0.00182005
0.0662012
0.0558933
0.0494663
0.324083
-0.572988
0.0527814
0.0465415
0.399768
-0.0534715
0.0580004
0.0475685
0.0470308
0.0132227
0.0788571
-0.449968
-0.0677822
0.0462829
0.0468576
0.00767781
0.0134227
0.0633707
0.0146533
0.0496145
0.0463463
0.0527688
0.0465967
-0.113877
0.044996
0.0525046
0.0534085
0.0125851
0.0438333
0.0615626
0.02398
0.0528317
0.0493364
0.0534246
0.0534089
0.0539721
0.00456807
0.048626
-0.451222
0.0525484
0.0524622
0.0261624
0.0495125
0.103153
0.0525693
0.0542956
0.0533624
-0.102953
0.0464458
0.0533593
0.048112
0.052189
0.049493
0.0501033
0.0502225
0.0489561
0.0573984
0.2065
0.0492144
0.0553581
0.0668057
0.0237139
-0.055913
0.0489658
0.0614171
0.372802
0.0534015
0.0204352
0.0524435
0.034816
0.0525217
0.0486425
0.230381
0.0195962
0.208166
0.0611266
0.0513186
0.0092313
0.00532029
0.0512241
0.00892035
0.010016
0.0523343
0.0537661
0.0537544
0.0538146
0.0537973
0.293528
0.0528095
0.107233
0.00108391
0.0582554
0.0141511
0.0196882
0.0268855
0.0357028
0.0188589
0.036223
0.0602378
0.0215596
0.0229157
0.0951371
0.0707485
0.016416
0.0689295
0.068844
0.0171412
0.107008
0.0494403
0.0538601
0.0330193
0.0538238
0.0491257
-0.188386
0.502613
0.0493453
0.0534847
0.0526009
0.0531348
0.0187256
0.0532541
0.0532413
-0.0740546
0.0135329
-0.0460471
0.0511545
0.0111225
0.044142
0.0519105
0.0170737
0.032813
0.113477
0.0330201
0.0496684
0.0524
0.0128711
0.0105499
0.04696
0.298784
0.0167122
0.0061438
0.05248
0.0492237
0.0534704
0.385484
0.0146679
0.0512484
0.065017
0.0679675
0.0528997
0.0528717
0.0530831
-0.0547247
0.101266
0.0624795
0.0192975
0.0031224
0.052466
0.117555
0.0518315
-2.92659e-05
-0.0597606
0.305399
0.0571025
0.094646
0.0285954
0.0237813
0.037646
0.0326568
0.0549636
0.0376104
0.0162846
0.0532599
-0.0550113
0.0620881
-0.00682931
0.00933973
0.0591301
0.098961
-0.141836
0.0184192
0.041806
0.00550707
0.00887327
0.0201949
0.0479311
0.0530393
0.0548778
0.0525441
-0.00288459
0.0506954
0.086155
0.0882833
0.03796
-0.053214
0.106703
0.0570715
0.0515265
0.39564
0.0524637
0.0511354
0.00624244
0.0534875
0.0513925
0.0511351
0.238921
0.206179
0.0531298
0.0517489
0.112298
0.0506692
0.0194765
0.0159124
0.0139217
0.0523727
0.0531208
0.0504403
0.0533646
0.0879034
0.0201818
0.0234071
0.0560746
0.0537936
0.00361239
0.0550409
0.0499201
0.0466638
0.123001
0.00554749
0.0534323
0.0501588
0.0125176
0.0314113
0.0511006
0.0502105
0.115271
0.0198075
0.00783022
0.0221223
0.0523219
0.0502101
-0.00426957
-0.00436095
0.0533608
0.0389481
0.0516453
0.00557714
0.284313
0.0530668
0.0507995
0.0523814
0.0154938
0.0568958
0.0562233
0.0501138
0.0518292
0.0316081
0.0790212
0.0406188
-0.033855
0.0524678
-0.0389267
0.0517378
-0.109657
0.0190805
-0.00136372
0.0536163
0.0558837
0.0231035
0.0487169
0.0542341
0.0603141
0.0570129
0.0573258
0.0733962
0.0152332
0.0147475
0.0527587
0.0483912
0.0199143
-0.00347446
0.0527583
0.0525183
0.0127888
0.0523688
0.22594
-0.146977
-0.117276
0.0527575
0.0440762
0.00130756
0.0564884
0.0487138
0.454404
0.0525445
0.116571
0.0910643
0.0439272
0.0490886
0.0543506
0.0384397
0.000550318
0.0317764
0.0549702
0.0527856
0.0535102
0.0567827
0.05642
0.0576029
0.0148748
0.0540212
0.0525255
0.0217677
-0.0842959
0.0552403
-3.3494e-05
0.0526271
0.0554835
0.0967455
0.00217772
0.00187563
0.0990962
0.0485041
0.00188713
0.0529309
0.0535712
0.00482963
0.0391715
0.0479231
0.0391554
0.0531809
0.0524889
0.0496918
0.0516313
0.00177629
0.106036
0.0624357
0.120592
0.0165449
0.0418059
0.114739
0.0657985
-0.00541087
0.0140518
0.0668024
0.0564337
0.053586
0.0398956
0.0221698
0.0527542
0.0534976
0.0523456
0.0536168
-0.014516
0.0394219
0.034974
0.107605
0.060569
0.235892
0.00574789
0.00197902
0.0495353
-0.000803158
0.0531644
0.0526457
0.0519983
0.107883
0.11699
0.0490028
0.0320267
0.229999
0.0164305
0.00735862
0.0406569
0.0676167
-0.124737
0.0520607
0.054353
0.0531999
-0.00869386
0.05423
0.0327599
-0.0527486
0.0525292
0.0804802
0.0594811
0.0436848
0.0554569
0.0493434
0.0538569
0.0565416
0.0539088
0.0538016
0.0560432
0.00665951
0.0108682
0.0436777
0.339041
0.00205033
0.414639
0.0178562
0.0247317
0.0563423
0.0192491
0.059259
0.00906768
0.320835
0.100862
0.0584605
0.0459323
0.0576522
0.0563963
0.0227414
0.0530365
-0.00886733
0.0539187
0.101917
0.0505007
-0.0130353
0.00864582
0.0120181
0.0583774
0.0411488
0.00925745
0.0800057
0.00688168
0.0425359
0.00413233
0.0453057
0.0527927
0.0524978
-0.200703
0.0727084
0.0447489
0.0527258
0.0540972
0.0577849
0.0858579
0.0107079
0.0181996
0.0523564
0.0463908
0.0579369
0.0447189
0.0412487
0.00288514
0.0591067
0.0598218
0.00986538
0.0462619
0.042775
0.106416
0.0527612
0.0590539
-0.250209
0.0536131
0.00840113
0.053325
0.043222
0.0913572
0.0104363
0.0534123
0.0200958
0.0529571
0.113723
0.0477826
0.0116682
0.0117819
0.11483
0.0528491
0.00137471
-0.00552024
0.0587707
0.0447891
0.0478422
0.0383727
0.239853
0.0571151
0.0534692
0.0573875
0.0532706
-0.122747
0.0440042
0.0118954
0.0329479
0.0192285
0.519334
0.0442521
-0.0533051
0.0110952
-0.0907925
0.0191368
0.0547922
0.0442334
0.0319942
-0.0459772
-0.0345058
0.0518295
0.0518332
0.120726
0.0515234
0.213179
0.0211816
0.0723974
0.0482492
0.409224
-0.0997307
0.0446286
0.0527968
0.0527529
0.0962492
0.0578092
0.0626035
0.0549906
0.015676
0.0796136
-0.0315588
0.357756
0.0524225
0.0853457
0.0152974
0.121956
0.0462419
0.116569
0.00813685
0.097471
0.0556698
0.0527307
0.0102199
0.00742256
0.0189043
0.119957
0.0143385
0.0249896
0.0536334
0.0520495
0.0405711
0.2454
0.0406104
0.012727
0.0689112
0.020786
0.0369608
0.055537
-0.00468696
0.0338083
0.0457154
-0.0159382
0.0604169
0.0274117
0.200761
0.0527854
0.0335372
0.0524702
0.0598201
0.0501209
0.0530814
0.0527596
0.0035896
0.0471061
0.0803954
0.0134775
0.0970712
0.0320706
0.0326793
0.0111331
-0.185681
0.0535961
0.0596024
0.0245492
-0.0667467
0.00784128
0.0527756
0.50707
0.0527436
0.0478666
-0.154791
0.0578979
0.0530357
0.0530679
0.067669
0.0918162
0.0536206
0.0588184
0.111379
0.0531061
0.0557095
0.0554262
0.0520502
0.0930478
-0.0159533
0.0567684
0.118595
0.0111846
0.00793405
0.00759741
0.0163954
0.0553527
0.0476502
-0.0384069
0.00520012
0.0755029
0.0517189
0.0536405
0.120357
-0.000508773
0.0346556
0.0394094
0.03436
0.0549163
0.0461472
0.0863473
-0.221345
0.369296
0.0849658
0.0524156
0.0461843
0.0821867
0.34996
0.113427
0.0528122
0.000901358
-0.0110894
-0.234312
0.0372262
-0.144287
0.0536128
0.0552723
0.0536523
0.00826088
0.0772007
-0.153238
0.0485274
-0.0812814
0.0513493
0.0529819
0.0112177
0.0570787
0.00190151
-0.0413865
0.0586865
0.0363459
0.0252257
0.0377267
0.0585141
0.0772688
0.0751629
0.0320307
0.0810646
0.0586947
0.053683
0.0554151
0.0541435
0.106982
0.0229267
-0.0059851
0.00423503
0.0880585
0.0257233
0.0239874
0.0447545
-0.00865073
0.0355328
0.0580842
0.0532119
0.000436324
0.111261
0.0487733
0.0416245
0.0595643
0.0246154
0.105112
0.117882
0.0245589
0.24036
0.0232056
0.089035
-0.0392594
0.05674
0.0207363
0.0120497
0.0514607
0.0352897
0.0401778
0.0462926
0.0529291
0.0489656
-0.0127186
-0.000344851
0.0482898
-0.132613
0.102602
0.0540367
0.0528781
0.0025651
0.0539586
0.0800719
0.0146018
0.00644298
0.0539056
0.0560384
0.0522577
0.0539648
0.121119
-0.130816
0.0539656
0.0587401
0.0527651
-0.141191
0.0227385
0.0154476
0.0525549
0.0538725
0.0551335
0.0258974
0.0870989
0.0294391
0.0507725
0.0557565
0.0538596
0.0221001
0.0870412
0.0402589
0.0534899
0.0318491
0.0264245
0.0776285
0.0496701
-0.0154736
0.147439
0.0514885
0.0341786
0.0555427
0.0456992
-0.174775
0.0585407
0.0540849
0.0117632
0.107132
0.0848475
-0.134663
0.0789999
0.0363462
0.0288542
0.059518
0.0417884
0.0360621
0.0588042
0.148834
0.0527762
-0.32156
0.085771
0.18284
0.0417679
-0.00558084
0.0979513
-0.00150343
0.263864
0.0074671
0.0265676
0.034839
0.0403875
0.0527289
0.0461202
0.0903676
0.00136977
0.0589577
0.0514878
0.0072223
0.0178231
0.00653508
0.0825337
0.00124055
0.00615457
0.0518449
0.0730713
-0.0493264
0.089628
0.0527308
0.0355972
0.0563726
0.0527411
0.0715744
0.0536013
0.0461418
0.245727
0.0939237
-0.0160911
0.0536319
0.0530067
0.0532816
0.0590922
0.0567593
-0.00154495
0.0568903
0.0529184
-0.0145765
0.0226549
0.00652049
0.071212
0.0518027
0.0441166
0.0937902
0.0353126
0.0536547
-0.039932
0.0112488
0.113619
0.0531396
-0.229369
0.0997022
0.0523371
0.00328753
0.0398724
-0.0252582
0.0371382
0.00174267
0.0968645
0.0516061
0.0551221
0.022137
0.041624
0.0575069
-0.00599444
0.0580253
0.0582299
0.0989179
0.0508952
0.0565219
0.0369008
0.0104474
0.0520159
0.0581146
0.0560707
0.0526614
0.0988238
-0.0396582
0.0272486
0.0592305
0.0561863
0.0439069
0.0525956
-0.187621
0.0818633
0.0534194
0.0735803
0.0440649
0.101526
0.155065
0.00133599
0.0580596
0.00634764
-0.000719496
0.0525247
0.0424133
0.0004573
0.0486356
0.0534663
0.0753942
0.0282874
0.0565821
0.0534894
0.0431978
0.085941
0.0539845
0.0331897
0.0536191
0.0397112
0.0696689
0.134476
0.0531091
-0.194471
0.0826838
0.0166359
-0.114433
0.0950341
0.032965
-0.028099
0.0596595
0.143671
0.210705
0.0560555
0.0465576
0.0464967
0.0549033
0.0568558
0.00745857
-0.0751739
-0.132534
0.00931534
0.15015
-0.00663989
0.0107646
-0.0581333
0.0529244
0.0550926
0.0492459
0.025816
0.0526186
0.00876454
0.0378861
-0.0116764
0.0528063
0.0557994
0.0510152
-0.140733
0.121928
0.080529
0.0643664
0.123429
0.0468377
0.0539142
-0.0143515
0.0376669
-0.0101096
0.00792805
0.0233942
0.00551061
0.0156415
0.0602146
0.0522848
0.052651
-0.117924
0.0432471
0.0416342
0.055079
0.00471617
0.0193597
0.0531441
0.0204195
-0.0114558
6.25955e-06
0.0967392
0.0558336
0.0530629
0.00532755
0.0592544
0.0528691
0.000992515
0.00837289
0.0564324
0.14055
0.000934963
0.0532443
0.052996
0.0526279
0.109714
-0.128823
0.0423099
0.0111502
0.0557867
0.0558513
0.0112971
0.0533912
0.181809
0.0156326
-0.0532954
0.155604
0.0310898
0.0521112
0.05276
0.0337849
0.0594011
0.0521386
-0.173749
0.0062203
0.0457229
0.223072
0.103752
0.0483223
0.0527581
0.0529935
0.0546224
-0.0725153
0.162872
0.034662
0.0799417
0.069763
0.00687815
-0.0744491
0.0257753
0.0574901
0.055658
0.0174964
0.0432579
0.0523613
0.0552393
0.00463596
0.0567639
0.0338855
0.0584792
0.0840038
-0.00987955
0.0498097
0.0553534
-0.00237498
0.00389872
0.0619582
0.0551614
0.0791963
-0.000674398
0.0402047
0.018226
0.0765722
0.0172603
-0.0324927
0.0561797
0.160358
0.052319
0.107256
0.00122919
0.053352
0.0528342
0.371349
0.0532553
0.058954
0.0273483
0.0579717
0.0581176
0.0609777
0.0531572
0.053276
0.000235711
-0.0241498
0.0513001
0.333092
0.0387195
0.0550653
0.238306
0.101146
0.056913
0.0479573
0.0547008
0.0908019
-0.256861
0.0577893
0.0512405
0.0525591
0.0551393
0.0663876
0.0171902
0.0573629
0.0675439
0.0562746
-0.148362
-0.00471416
0.00862174
0.112696
0.0384307
0.0551602
0.00489763
-0.113759
0.0557872
0.0527297
0.0551013
0.0483612
0.0579262
0.0520192
-0.00314775
0.0475704
0.0471377
0.305679
-0.000939263
-0.0097059
0.00436897
0.0577612
0.0011556
0.0886189
-0.0855132
0.0505306
0.01081
0.0533811
0.242412
0.0527999
0.0524017
0.0302143
0.052583
0.026717
0.0623703
0.0580328
0.0504091
-0.090148
0.089467
0.0114112
0.055307
0.0371383
-0.0582237
-0.00630597
0.081129
0.0774391
0.0530851
0.0584664
0.050049
0.0550386
0.0512731
0.0552805
0.0923929
0.076424
0.00787916
-0.101776
0.0260756
-0.0066295
0.0339476
-0.105582
0.051993
-0.0280758
0.0551775
-0.0089685
-0.00512267
0.0260976
0.0526883
0.0304682
0.0112715
0.0329737
-0.0163459
0.2354
-0.0998588
0.0551214
-0.000538198
0.048008
-0.00387001
0.0923053
0.0054722
0.0483792
0.0608845
0.0106369
0.0558614
0.0378993
0.0529591
0.0467651
0.0528128
0.058646
0.00682556
0.00144684
0.052905
0.0869266
-0.081301
0.498543
0.0523956
0.0757302
0.0260109
0.196143
0.0326376
-0.17468
-0.0323975
0.0501917
0.0254064
0.0693174
0.178157
0.0505985
0.0699654
0.0798017
0.0509639
-0.0837359
-0.0039823
0.0551762
0.0271806
-0.03446
0.0786377
-0.0864807
0.0393864
0.0810308
0.0570436
0.0524215
0.0584379
0.0468474
-0.0723772
-0.000489367
-0.0619531
0.0538246
-0.0828239
0.0309918
0.00481201
0.11266
0.0256872
0.0285758
-0.0530222
0.0391901
0.0373425
0.00549637
0.0720084
0.0267372
0.00957983
0.0724453
-0.0864388
0.087514
0.03578
0.0902131
0.0538795
0.115703
0.000130443
0.103293
0.056009
-0.0347371
0.0529629
0.03494
0.00909187
-0.00103984
0.0600176
0.0064047
0.0472162
0.507748
0.0587331
0.0057502
0.0937941
-5.86356e-05
0.00776226
0.0526943
0.0325197
0.0527365
0.465407
0.0532041
0.0528577
0.0526251
-0.0132354
0.0471729
0.0456765
-0.0121731
0.0287657
0.0666041
0.0469732
0.0528761
0.109076
0.0514335
0.106498
0.00934464
0.0884087
0.0410111
0.044026
0.0266638
-0.0117717
0.0100971
0.0452581
0.527216
0.0531848
0.0529219
0.0586934
-0.132938
0.056039
0.0312628
0.0807769
0.0567876
0.0436274
0.00357801
-0.0213663
0.0345965
-0.0450191
0.0576983
0.0475964
0.0148656
0.0197545
-0.00064005
0.0551213
0.02564
0.0743461
0.195842
0.0384164
0.0528485
0.0466982
0.179927
0.0534836
0.0534862
-0.0335083
0.0332872
-0.0380141
0.0436059
0.0528091
0.19121
-0.013317
0.0480902
0.0580018
0.0512945
-0.108209
0.0534893
0.0349743
-0.0261937
0.0534882
0.0528649
0.0100481
0.0524444
0.0534964
0.0136694
0.0527796
0.0527265
0.0227803
0.0524912
-0.0109395
0.0528011
0.0602882
0.12119
0.00881825
0.0534952
0.00592679
-0.167454
0.0438609
0.076261
0.0514249
0.035728
0.0516448
-0.0162806
-0.00479157
0.047963
0.0528673
0.133734
0.0308567
0.0159251
0.0118511
0.131304
0.0524587
0.00670768
0.0528553
-0.0188597
-0.003812
-0.00409412
0.00856971
0.157639
-0.086392
0.00557394
0.0109009
0.0495262
0.0551459
0.00147132
0.138028
0.100903
0.0339414
-0.071574
0.0524825
-0.0610615
0.200789
0.0520304
-0.00703403
-0.0240932
0.0825712
0.00875279
0.00777148
0.0750538
0.0528241
-0.0104809
-0.062199
0.262507
0.0577644
0.00273713
-0.0296404
0.144215
0.0545314
0.0528306
0.00664482
-0.0514211
0.0421976
0.0702633
0.0530864
0.0524253
0.0583322
0.0575269
0.0261718
0.0583129
0.052824
-0.0139698
0.0364695
-0.025475
0.0161606
0.0530596
0.0528604
0.145017
0.0573217
0.08178
0.0624396
-0.0460999
0.0835933
0.0520997
-0.0209166
0.0617019
0.0527662
0.0281969
0.0400544
0.043482
0.0961764
0.0262937
-0.135749
0.0420557
0.0524952
-0.0260341
0.0525972
-0.00439094
0.0320946
-0.0239302
-0.046227
0.0985112
-0.0296236
0.0530896
-0.00763178
0.0566151
0.0741646
-0.0222305
0.0209521
-0.0221404
-0.0613208
0.174377
-0.0105456
0.0660375
0.052027
0.0526664
0.0525804
-0.0300164
0.14135
0.052056
-0.0130052
-0.0185124
0.0152638
0.00284391
0.0284056
0.111427
-0.0286308
0.0568052
0.0126056
0.0261993
0.0533705
0.0533891
0.0545802
0.0576084
0.0115109
0.0529884
0.0547558
0.0589208
0.0765257
0.00058689
0.0523796
-0.0174384
0.0527989
0.00554965
0.0161503
0.0549278
0.043196
0.00219502
-0.0189391
0.0378118
0.0794733
0.0574498
0.0275849
0.0332626
0.0528781
0.0567015
0.0567342
0.0549896
0.0529249
0.0717572
0.0529143
0.127911
0.0136839
-0.0882041
0.0529292
0.0617368
0.0530183
0.0526128
0.123392
0.0611197
0.0521827
0.315624
0.135717
0.0389459
0.0671307
0.0401416
0.122261
0.0206658
0.00952607
0.057551
0.0588064
0.0528663
0.0529222
-0.0107298
0.0524582
0.0546385
0.124904
0.0548558
0.0565331
0.0278865
0.0527664
-0.0342323
0.0529534
0.054587
0.0083913
0.0101486
-0.0707403
0.111757
0.0730055
0.0547899
0.00788255
0.0547348
0.0264706
0.00588343
0.0587528
-0.0254217
0.0535606
0.0273125
0.0721741
0.0539374
0.103874
0.0529481
0.0586821
0.052863
0.030468
0.0523838
0.0550973
0.0250073
0.0479266
0.0730969
0.0281499
0.0528953
0.0281615
0.0130062
0.0585341
0.00899351
-0.0121246
0.0528614
0.0319368
0.111357
0.00334895
0.0589129
0.0456301
0.0456257
0.0259103
0.0595201
0.153073
0.0568739
0.0528966
0.052928
-0.0214391
-0.00657101
-0.021189
0.283122
0.102899
0.0523333
0.0269327
0.0116851
0.0532357
-0.0587392
0.0568966
0.106228
-0.00023618
0.0546222
0.14586
-0.00644884
-0.0157085
0.023792
0.0304901
0.0531569
0.0525353
0.0624834
0.0528867
0.0528292
0.138693
0.0549243
0.0664379
0.0521043
0.0398649
0.0464362
0.365573
0.0435175
0.0468582
-0.00803774
0.10614
0.0959786
0.0355066
0.111193
0.0525834
0.047924
0.00508025
0.0742682
0.12618
0.0543421
-0.000578578
0.0415852
0.0521311
0.0546665
0.0527795
0.0662902
0.0435003
0.0533115
0.0313883
0.25955
0.0533899
0.012474
0.0328996
0.0522945
0.0656888
0.0552329
0.0285594
0.0527862
0.0527304
0.0151408
0.0304765
0.0932258
0.143767
-0.221216
0.0585565
0.0667973
-0.038427
0.0342898
0.0551767
0.0417145
-0.000790723
0.0529073
0.0562194
0.0528571
0.0312168
0.0666334
0.0189301
0.0529209
0.0638094
0.0353863
0.0570039
0.120244
0.0482752
0.0527032
0.0529172
0.0306668
0.0234694
0.309686
0.0632036
0.0849084
0.00571156
0.00519753
0.0526307
0.101615
0.0529056
0.0528648
0.0533768
-0.000752109
0.0577779
0.0363177
0.00707227
0.0208782
0.00674236
0.0312565
0.0659466
0.115861
0.0498166
0.0119518
0.0939973
0.0339481
0.130274
0.0565566
-0.152417
0.144303
0.136291
0.0524147
-0.109187
0.00624587
0.0082911
0.139047
-0.000339206
0.0611268
0.0591062
0.0401076
0.0361216
0.0323878
0.213935
0.0758713
0.0569775
0.0149823
0.0569424
0.0368949
0.024503
0.0959356
0.0370856
0.0705402
0.0859266
0.00598016
0.0980771
0.0328476
0.0536266
0.0629328
0.0519544
0.0463569
0.0516235
0.0573671
0.020136
-0.0488693
0.0524401
0.1674
0.0519058
0.043307
0.00967503
0.0313324
0.0346939
0.0513889
0.0076553
0.0127765
0.253017
0.0528903
0.00921791
0.0376039
0.0123702
0.0533846
0.0530982
0.152514
0.0245596
0.0336285
-0.118026
0.027744
0.0406336
0.13843
0.0150144
0.121972
0.0584975
0.0186616
0.0386417
0.0479387
-0.027288
0.0071443
0.020851
0.0343911
0.0522645
0.00654018
0.00617038
-0.000937984
0.0414095
0.0383031
0.418374
-0.0366811
0.05189
-0.0129236
0.0208694
-0.104066
0.0528344
0.0331029
0.0336559
0.0528347
0.0041508
0.0285146
0.0557064
7.50394e-06
-0.0223796
-0.00144436
0.0582831
0.0246507
0.05341
0.0473708
-0.023504
0.0841977
0.0286457
0.00731709
0.147458
0.0255419
0.0206254
0.0221074
0.0075252
-0.0270252
0.0513472
0.0224313
0.0166159
0.0943878
0.279626
0.0139442
0.0361772
0.0199575
0.0528343
0.0947133
0.0324693
0.00949665
0.0525536
0.0369765
0.00647024
0.0145058
0.150464
0.0113266
0.0302209
0.0307144
0.0575462
0.00374643
0.0273926
0.0758436
0.061735
0.0583866
0.010823
0.0376128
0.0437075
0.0400961
0.0528615
0.006187
0.0648386
0.0304966
-0.00406258
-0.0438891
0.0469267
0.0287472
0.0172959
0.0248243
0.0529406
0.101644
0.101289
0.0743137
0.0533612
0.229397
0.00725512
0.0543862
0.0917303
0.0524659
0.0605658
0.0339043
0.0275269
0.0559249
-0.101511
0.0540101
0.0619409
0.0447504
-0.010961
-0.0291146
-0.000376209
0.0649587
0.00976636
0.0533901
0.0305231
0.0773889
0.0540263
0.15102
0.0180007
0.0288458
0.00864403
0.0695374
0.0226821
0.039297
0.0526181
0.0527587
0.0486587
0.0660332
0.124667
0.016365
0.148294
0.0848322
0.0920384
0.0546374
0.0724012
0.00751419
0.0527619
-0.0245909
-0.0190061
0.0556042
0.0528797
0.0424381
0.0511171
0.0527461
0.0673627
0.0356102
0.134004
0.0169905
0.0366805
0.0914718
-0.0105017
0.00586543
0.0884781
0.0136155
0.0248177
0.0725424
0.0525229
0.0655222
0.0286916
0.124409
0.132169
0.220523
0.0527794
0.129448
0.034134
0.0331263
0.105901
0.109807
0.101681
-0.0239409
0.0219001
0.0686422
0.0218257
0.0415149
0.0476946
0.0932807
0.0521888
0.0175525
-0.0290542
0.0622744
-0.0245739
0.0517992
0.0857877
0.0577727
0.0313073
0.104358
0.165199
0.022581
0.0452258
0.0177621
0.0349658
0.0734086
5.06803e-05
0.0847922
-0.00207745
0.0527897
0.0222584
-0.138406
0.100424
0.0372557
-0.0414754
0.0110214
0.0437636
0.0519463
0.105446
0.0952039
0.0352216
0.0590215
0.0543633
0.00614844
0.0460787
0.00501446
0.0831322
0.0370958
0.143612
0.0527903
0.0485471
0.00559976
0.0391717
0.0398693
0.0685282
0.0592436
0.0307072
0.169385
0.109486
0.0526421
0.00626441
0.0471265
0.0525602
0.135553
0.0521072
0.0227895
0.0256954
0.0521843
0.052285
0.0551408
0.00782385
0.0638055
0.0997817
0.0294656
0.132368
0.0337983
0.034831
0.0387576
0.0807149
0.0529753
0.0411561
0.0388638
0.0276875
-0.0217016
0.00973154
0.0694464
0.0465875
0.0578155
0.0325985
0.0447611
0.0636368
0.0223772
0.108558
0.033489
0.0525867
0.00878914
0.0895669
0.00776338
0.0526823
0.137303
-0.0222276
0.0486437
0.100499
0.00628085
0.0566543
0.0982035
0.00419734
0.091584
0.11646
0.00469805
0.0497937
0.0818408
0.0782891
0.0146818
0.0497167
0.032169
0.0527612
0.0516775
0.0524815
0.0139935
0.0182342
0.0216878
0.0847483
-0.063316
0.171096
-0.0641355
0.0289659
0.0437419
-0.0424087
0.0513256
-0.0967941
0.0343364
0.0240043
0.0191793
0.0297291
0.0670267
0.0439142
0.0340184
0.0571734
0.0526677
0.0805338
-0.0380181
0.0143204
0.0067211
0.018013
0.0552323
0.0290888
0.0171885
0.0580071
0.0252087
0.0402986
0.120941
0.0880032
0.0832613
0.0956846
-0.00184543
-9.28799e-05
0.00624258
0.0237556
-0.00451613
0.0154239
0.0607041
0.0444843
0.133071
0.0768929
0.00767811
0.0528734
0.0979427
0.129014
0.0761398
0.081808
0.0596804
0.0178313
0.116541
0.0294287
0.0251523
0.0354354
0.0344955
0.0517687
0.0294626
0.0309453
0.0566149
0.0210385
0.0311437
0.0472292
0.106555
0.0460911
0.0418661
0.0780008
0.0580762
0.0521206
0.0542088
0.00265612
0.0167636
0.0535148
0.0743248
-0.0519743
0.00689061
0.0587061
0.0202864
-0.0190984
-0.0401144
-0.00559182
0.0337612
0.03537
0.0585054
0.0348441
0.02697
-0.000311669
-0.00124734
0.00419566
0.000975155
0.0360434
0.0518619
0.0516002
0.131284
0.0651764
0.0360628
0.0400842
-0.000332293
0.0472365
0.0284341
0.150672
0.0894707
0.0121675
0.0576031
0.0173934
0.0524373
0.00930721
0.000848485
0.0283961
0.0524779
0.0618033
0.168342
0.0446593
0.0914532
-0.0168739
0.0528209
0.0362242
0.0961933
0.103766
0.0724624
0.0532055
0.048585
0.0496333
0.0533215
0.0524689
0.0430914
0.00748316
0.0524943
0.0593282
0.0571524
-0.330757
0.121339
0.0496428
0.0527751
0.0114899
0.0177711
0.0250912
0.0791882
0.0183514
0.0520726
0.0450647
0.00539561
0.053253
0.0147432
0.094955
0.0736562
0.051273
0.0130637
0.0530394
0.0412115
0.0391621
0.0444652
-0.00280463
0.0619352
0.0365465
0.034797
0.113261
0.0839977
0.0524514
0.0528834
0.0376095
0.0334612
0.0146758
0.0213072
0.0418873
0.00845253
0.0828565
0.0533374
0.0393968
0.00642089
0.0413313
0.0875314
0.0663585
0.0549425
0.152484
0.0231939
0.127505
0.142116
0.0288134
-0.00263899
0.000132415
0.126791
0.0420936
0.00752479
0.0767747
0.0378901
0.0222179
0.0914973
0.0746286
0.0539667
0.00311739
0.032959
0.0289096
0.0425907
0.00667979
0.0542548
0.0827951
0.0540831
0.0596664
0.088313
0.0582462
0.0460269
0.108245
0.00819227
0.0938055
0.0293658
0.0749289
0.00927835
0.0641866
0.0128014
0.0538495
0.0311371
0.0103861
0.0701383
0.0288159
0.0538096
0.0442626
0.0156896
0.0476354
0.0365273
0.058961
0.0382103
0.0234762
-0.000794696
0.0975935
0.106545
0.102808
0.0432159
0.043654
0.0363629
0.0198062
0.0299003
0.0531131
0.0575489
0.0726982
0.0254527
0.0608905
0.00535364
0.0318469
0.0597907
0.0345198
0.033575
0.0457579
0.0306252
0.0393811
0.13616
0.26114
0.0237171
0.025539
0.0277428
0.0324567
0.0384474
0.0365085
0.034758
0.024723
0.013902
0.0516474
0.0527634
0.051827
0.00701936
0.052627
0.0309112
0.0455104
0.0324078
0.0623056
0.0352492
0.125034
-0.00656836
0.0523622
0.0365951
0.0931946
0.0437986
0.0633455
0.0906658
0.0570041
0.0525358
0.0313617
0.00557233
0.0885923
0.00456993
0.117545
0.0857342
0.00421237
0.0662049
0.0708314
0.0109154
0.045235
0.051566
0.0538897
0.0381107
0.0523447
0.0335335
-0.038152
0.0516063
0.0826304
0.0456628
0.0653792
0.066056
0.162212
0.0582361
0.0442704
0.0056506
0.0141816
0.0893675
0.0326308
0.0858301
0.0537442
0.0396534
0.0678883
0.0480632
0.034277
0.053355
0.0537723
0.0323364
0.0522868
0.0362104
0.0639335
0.0829596
0.0153829
0.0521078
0.00738325
0.00219055
0.0704463
0.0617631
0.0541654
0.0707945
0.134049
0.0527528
0.0425065
0.0495063
0.063199
0.0407267
0.0369351
0.0413192
0.0765998
0.0857394
0.0337957
0.0816676
0.0927679
0.0627931
0.110482
0.0603905
0.0804084
0.0291051
0.0448102
0.0216972
0.0534197
0.0670841
0.054071
0.085854
0.00253211
0.0575351
-0.0120667
0.04752
0.0280817
0.119712
0.00834789
0.0496482
0.0524816
0.00617621
0.109683
0.0286581
0.0309824
0.0164927
0.0467803
0.0828637
0.0395415
0.0512753
0.0377868
0.00921257
0.0457323
0.0424185
0.39296
0.0412418
0.054099
0.0616668
0.0673169
0.0452732
0.0328953
0.0527718
0.104461
0.0442062
0.0527583
0.013696
0.0385808
0.0295617
0.043124
0.0659454
0.0451692
0.0471798
0.0464758
0.0352173
0.082468
0.0527906
0.0409757
0.0600146
0.0475934
0.0420113
0.0583035
0.0579753
0.0621712
0.0626913
0.0528442
0.0456882
0.0538607
0.0304692
-0.0015811
-0.00073264
0.147717
0.0772361
-0.00881545
0.0314668
0.0521532
0.0551404
0.0610927
0.0765537
0.0530802
0.028842
0.0780771
0.0591618
0.0273083
-0.00953299
0.0224671
0.0521164
0.0392093
0.0526742
0.0963875
0.234223
0.0414883
0.0597522
0.0444999
0.00690508
0.0524774
0.0750437
0.029191
0.0481692
0.0532207
0.0346475
0.0992869
0.0405924
0.0590766
0.0270289
0.0442484
0.0460788
0.0900931
0.0629447
0.0426373
0.0545899
0.0409134
0.0578781
0.0400382
0.0530328
0.0412926
0.0525271
0.0576696
0.0117692
0.0711481
0.0179377
0.076078
0.0764295
0.0562567
0.0406318
0.0369064
0.0796972
0.0944169
0.0115452
0.0445226
0.0581388
0.0609183
0.0419861
0.0513051
0.0465287
0.0385992
0.0295059
0.0295054
0.0476123
0.0159611
0.0414983
0.081959
0.0426211
0.0452178
0.0408585
0.0252227
0.0863278
0.0564248
-0.00061956
0.0412628
0.0440814
0.0109058
0.0553284
0.000961501
0.0547457
0.0444615
0.0491725
0.0500637
0.0535691
0.0450888
0.00503413
0.0527691
0.0217315
0.0741687
0.0549201
0.0603918
0.0341025
0.0984176
0.0632477
0.0531107
0.036366
-0.0658113
0.0528711
0.00612262
-0.0795067
0.0682248
0.0878536
0.0561491
0.0432814
0.0313203
0.0740755
0.0613329
0.0525287
0.0943526
0.0119477
0.0839773
0.0527985
0.0523491
0.045674
0.0469546
0.0476158
0.0684292
0.0777297
0.0484191
-0.00155992
0.0498401
0.056349
0.0437898
0.033944
0.000432576
0.0523273
0.0450089
0.0249296
0.0470496
0.0488346
0.0548952
0.129875
0.0750718
0.0531736
0.0650912
0.0558714
0.0446398
0.0769332
0.0622595
0.04647
0.0653611
0.0383992
0.0652034
0.0870323
0.00376166
0.0247572
0.0532597
0.0722734
0.0503442
0.0549763
0.0539634
0.0443257
0.001853
0.000445951
0.0614725
0.0324949
0.0359839
0.0293583
0.0518584
0.0516651
0.0531717
0.0730043
0.0359556
0.0528271
0.0446633
0.0569995
0.0238163
0.011338
0.0528356
0.0524166
0.0378406
0.050896
0.0512116
0.0448426
0.0478768
0.0419464
0.0688757
0.0643342
0.0357959
0.0506247
0.0555484
0.0597262
0.0451425
0.0527807
0.045278
0.0319649
0.00146313
0.00590875
0.0365424
0.125491
0.0455222
-0.0585814
0.0905646
0.0449951
0.0433923
0.0562556
0.0514515
0.0528349
0.0551115
0.059164
0.0444465
0.05418
0.0521394
0.0984242
0.00605562
0.0350966
0.0529665
0.05747
0.065633
0.0727873
0.0337997
0.0548005
0.0527223
0.051367
0.0460811
0.0305467
0.028031
0.00645544
0.0640746
0.0510293
0.0409004
0.0584987
0.056411
0.0561756
0.0502609
0.0606076
0.0528474
0.0164005
-0.0023971
0.0522344
0.0685135
0.0445222
0.0473162
0.0494142
0.0539147
-0.0472327
0.0658358
-2.32858e-05
0.0456774
0.00917032
0.0549168
0.0710319
0.129774
0.0578482
0.0529995
0.0316938
0.022305
0.113298
0.0457996
0.0691056
0.0476409
0.0524465
0.0670426
0.0504881
0.123381
0.000177552
0.0811071
0.0557147
0.0508216
0.0528214
0.0505677
-0.0250638
0.04058
0.0523848
0.0591053
0.0512512
0.0523589
0.0523629
0.0116097
0.00389373
0.0572349
0.0515174
0.0844223
0.0579106
0.10332
0.382772
0.0224908
0.0461206
0.076905
0.0514961