/*--------------------------------*- C++ -*----------------------------------*\
  =========                 |
  \\      /  F ield         | OpenFOAM: The Open Source CFD Toolbox
   \\    /   O peration     | Website:  https://openfoam.org
    \\  /    A nd           | Version:  7
     \\/     M anipulation  |
\*---------------------------------------------------------------------------*/
FoamFile
{
    version     2.0;
    format      ascii;
    class       volScalarField;
    location    "16.5";
    object      T;
}
// * * * * * * * * * * * * * * * * * * * * * * * * * * * * * * * * * * * * * //

dimensions      [0 0 0 1 0 0 0];

internalField   nonuniform List<scalar> 
2413
(
1.02547
1.02669
1.02729
1.02798
1.02803
1.02788
1.02773
1.02787
1.02795
1.02808
1.02805
1.02796
1.0278
1.02752
1.02708
1.02649
1.02587
1.02514
1.02421
1.0231
1.02227
1.02152
1.02071
1.01987
1.01917
1.01848
1.01772
1.01695
1.01614
1.01539
1.01473
1.01412
1.01353
1.01298
1.01264
1.01245
1.01232
1.01235
1.01249
1.01266
1.01295
1.01337
1.01403
1.01542
1.01799
1.02207
1.02699
1.03068
1.03214
1.03222
1.03222
1.03205
1.03156
1.03061
1.02982
1.02985
1.02966
1.02977
1.0306
1.03084
1.0313
1.03216
1.03208
1.03188
1.0319
1.03166
1.03094
1.03006
1.02913
1.02809
1.02699
1.02593
1.02487
1.02378
1.02265
1.02143
1.02019
1.01894
1.01767
1.01638
1.0151
1.01381
1.01255
1.01134
1.01019
1.00906
1.00797
1.00689
1.00582
1.00473
1.0036
1.0024
1.00114
0.999855
0.998568
0.997327
0.996134
0.994952
0.993781
0.992641
0.991558
0.990494
0.989426
0.988403
0.987382
0.98638
0.985375
0.98437
0.983301
0.982223
0.98125
0.980239
0.97922
0.978202
0.97733
0.975919
1.03093
1.02973
1.02842
1.02707
1.02576
1.02438
1.02292
1.02153
1.02021
1.0189
1.01783
1.01704
1.01647
1.01654
1.01686
1.01698
1.01778
1.01953
1.02066
1.02208
1.02349
1.02382
1.02433
1.02522
1.02579
1.02625
1.02657
1.02655
1.02644
1.02615
1.02567
1.02515
1.02461
1.02389
1.02297
1.02192
1.0211
1.02034
1.01951
1.01859
1.01782
1.01713
1.0164
1.01568
1.01495
1.01427
1.01367
1.01312
1.01253
1.01203
1.01178
1.01166
1.01159
1.01159
1.01168
1.01186
1.01211
1.01242
1.01288
1.01383
1.01571
1.01896
1.02376
1.02823
1.03108
1.03211
1.0324
1.03278
1.03313
1.03313
1.03335
1.03372
1.03346
1.03385
1.03433
1.03415
1.03433
1.03461
1.03439
1.03381
1.03318
1.03237
1.03132
1.03024
1.02915
1.02798
1.02681
1.02567
1.02452
1.0233
1.02196
1.02055
1.01917
1.01784
1.01656
1.01533
1.01415
1.01295
1.01174
1.01058
1.00945
1.00834
1.00726
1.00617
1.00506
1.00395
1.00282
1.00165
1.00042
0.999169
0.997923
0.99672
0.995585
0.994468
0.993357
0.992269
0.991236
0.99022
0.989172
0.988168
0.98716
0.986163
0.985177
0.984187
0.983143
0.982071
0.981088
0.980087
0.979088
0.978059
0.977145
0.975693
1.0282
1.02671
1.02519
1.02362
1.02211
1.02061
1.01901
1.0174
1.01593
1.0145
1.0131
1.01196
1.01114
1.01077
1.01086
1.01086
1.011
1.01226
1.01375
1.01535
1.01782
1.01929
1.02045
1.02215
1.02357
1.02431
1.0252
1.02534
1.02526
1.0249
1.02434
1.0239
1.02341
1.02267
1.02176
1.02077
1.01992
1.01913
1.01827
1.01742
1.0167
1.01597
1.0152
1.01445
1.01366
1.01296
1.01245
1.01198
1.01145
1.0111
1.01093
1.01087
1.0109
1.01092
1.01097
1.01111
1.01139
1.01174
1.01215
1.01283
1.01419
1.0166
1.02065
1.02586
1.02983
1.03233
1.03389
1.03544
1.03646
1.0371
1.03787
1.03787
1.03732
1.03744
1.03743
1.03679
1.03634
1.03586
1.03515
1.03428
1.03336
1.03234
1.03121
1.03006
1.0289
1.02771
1.02645
1.02512
1.02375
1.02238
1.02101
1.01964
1.0183
1.01696
1.01569
1.01448
1.01335
1.01222
1.01105
1.00991
1.00879
1.00767
1.00657
1.00548
1.00437
1.00324
1.00212
1.00098
0.999791
0.998589
0.997386
0.9962
0.995067
0.993947
0.992846
0.991788
0.990791
0.989825
0.988822
0.987871
0.986918
0.98595
0.985012
0.984077
0.98308
0.982038
0.981054
0.980071
0.979075
0.978047
0.977104
0.975639
1.02478
1.02308
1.02142
1.01978
1.0182
1.01665
1.01508
1.01351
1.01201
1.01063
1.00929
1.00804
1.00708
1.00635
1.00601
1.0059
1.00578
1.00616
1.0074
1.00884
1.0113
1.01384
1.01571
1.0181
1.0206
1.02189
1.02324
1.02404
1.02403
1.02375
1.02324
1.02286
1.02234
1.02152
1.02058
1.01959
1.01877
1.01802
1.01721
1.01635
1.01551
1.01471
1.01395
1.01323
1.01244
1.01172
1.01128
1.01087
1.01045
1.01026
1.01022
1.0103
1.01046
1.01054
1.01057
1.01071
1.01097
1.01129
1.01166
1.01223
1.01331
1.01528
1.01865
1.02398
1.02988
1.03403
1.03713
1.03947
1.04056
1.04127
1.04173
1.04131
1.04035
1.03993
1.0393
1.03837
1.03742
1.03645
1.03537
1.03431
1.03328
1.0322
1.03102
1.02973
1.02835
1.02695
1.02554
1.02413
1.02275
1.02141
1.02011
1.01884
1.01756
1.01627
1.01504
1.01385
1.01273
1.01163
1.01051
1.0094
1.00829
1.00717
1.00607
1.00495
1.00379
1.0026
1.00142
1.00026
0.999074
0.997895
0.99674
0.995597
0.994504
0.993417
0.992347
0.991333
0.99038
0.989485
0.98856
0.987673
0.986784
0.985844
0.984942
0.984035
0.983059
0.982036
0.981039
0.980072
0.979097
0.97811
0.977172
0.975711
1.02123
1.0195
1.01784
1.01623
1.01469
1.01316
1.0117
1.01026
1.00885
1.00757
1.00634
1.00517
1.00412
1.00323
1.00241
1.00193
1.00168
1.00164
1.00221
1.00324
1.005
1.00765
1.00998
1.01277
1.01609
1.01823
1.02015
1.02208
1.02259
1.02241
1.02211
1.02188
1.02131
1.02044
1.01952
1.01861
1.01774
1.0169
1.01603
1.01513
1.0143
1.01354
1.01283
1.01212
1.01129
1.01064
1.01027
1.00989
1.00962
1.00959
1.00965
1.0098
1.01004
1.01027
1.01043
1.01062
1.01095
1.01114
1.01142
1.01207
1.01316
1.01516
1.01857
1.02387
1.03057
1.03633
1.04092
1.04334
1.04397
1.04412
1.04417
1.04364
1.04252
1.04136
1.04013
1.03886
1.0377
1.03656
1.03536
1.03413
1.03289
1.03165
1.03032
1.02889
1.02742
1.02599
1.02461
1.02327
1.02195
1.02066
1.0194
1.01819
1.01699
1.0158
1.01464
1.01347
1.01231
1.01119
1.01003
1.00887
1.00775
1.0066
1.00547
1.00432
1.00314
1.00194
1.00075
0.999588
0.998403
0.997256
0.996159
0.995084
0.994078
0.993055
0.991992
0.990996
0.990058
0.989196
0.988321
0.987476
0.986635
0.985715
0.984839
0.983979
0.98305
0.982083
0.981089
0.980142
0.979202
0.978266
0.977347
0.975906
1.01819
1.01654
1.01495
1.01338
1.01186
1.01037
1.00897
1.00762
1.00631
1.00509
1.00391
1.00283
1.00177
1.00077
0.999861
0.998982
0.998455
0.998186
0.998275
0.998757
0.999746
1.00164
1.00374
1.00639
1.01004
1.01291
1.0155
1.01843
1.02017
1.02059
1.02057
1.02054
1.02011
1.01933
1.01842
1.01746
1.01654
1.01566
1.01475
1.01381
1.01301
1.01237
1.01175
1.0111
1.01029
1.0097
1.00937
1.00916
1.00912
1.00921
1.00943
1.00971
1.01005
1.01028
1.01046
1.01085
1.01126
1.0116
1.01234
1.01358
1.01525
1.01773
1.02131
1.02609
1.03206
1.03822
1.04329
1.04627
1.04646
1.04602
1.0453
1.0444
1.04316
1.04176
1.04029
1.03885
1.03752
1.03624
1.03489
1.03348
1.03207
1.0307
1.02934
1.02798
1.0266
1.02523
1.02389
1.0226
1.02133
1.02008
1.01887
1.01769
1.01652
1.01536
1.01422
1.01306
1.0119
1.01076
1.00958
1.0084
1.00725
1.00609
1.00495
1.00381
1.00263
1.00143
1.00025
0.999094
0.997926
0.996793
0.995698
0.994607
0.993615
0.99262
0.991591
0.990685
0.989814
0.988993
0.988182
0.987378
0.986572
0.985681
0.984837
0.984017
0.983104
0.982162
0.981213
0.980292
0.979402
0.978511
0.977617
0.97624
1.0158
1.01422
1.01267
1.01113
1.00962
1.00812
1.00676
1.00546
1.00421
1.00303
1.00189
1.00086
0.999847
0.998851
0.997872
0.996876
0.99602
0.995528
0.995322
0.995428
0.99587
0.996931
0.998261
1.00007
1.00311
1.00627
1.00928
1.01273
1.01548
1.01742
1.01847
1.01863
1.01846
1.01791
1.01707
1.01613
1.01528
1.01443
1.01354
1.01265
1.0119
1.01127
1.01064
1.01
1.00929
1.00886
1.00871
1.0087
1.00878
1.00903
1.00936
1.00971
1.01004
1.01048
1.01098
1.01164
1.01259
1.01389
1.01568
1.01757
1.01963
1.022
1.02471
1.02805
1.03246
1.03768
1.04351
1.04723
1.04736
1.04711
1.04637
1.04516
1.04365
1.04211
1.04046
1.03874
1.03707
1.03552
1.03405
1.03262
1.03122
1.02986
1.02854
1.02724
1.02593
1.0246
1.02328
1.02201
1.02077
1.01955
1.01836
1.01719
1.01605
1.01491
1.0138
1.01268
1.01155
1.01044
1.00929
1.00812
1.00694
1.00571
1.00452
1.00335
1.00214
1.00095
0.999779
0.998638
0.997482
0.996371
0.995305
0.994229
0.993283
0.992358
0.991405
0.990581
0.989763
0.98896
0.988197
0.987429
0.986624
0.985731
0.984872
0.984047
0.983149
0.982265
0.981391
0.980519
0.979752
0.979062
0.978298
0.977049
1.01374
1.01224
1.01076
1.0093
1.00784
1.00639
1.00508
1.0038
1.00256
1.0014
1.00025
0.999228
0.998244
0.997251
0.996242
0.995196
0.994406
0.99377
0.993218
0.992978
0.993022
0.993442
0.994059
0.994942
0.996791
0.999168
1.00214
1.0057
1.00875
1.01196
1.01467
1.01563
1.01603
1.01601
1.01557
1.01487
1.01413
1.01328
1.01234
1.01135
1.01065
1.01007
1.00951
1.00898
1.00858
1.00843
1.00846
1.00856
1.00875
1.0091
1.00959
1.0101
1.01074
1.01177
1.01338
1.01532
1.0173
1.01932
1.02132
1.02281
1.02411
1.02508
1.02634
1.02831
1.03152
1.03602
1.04165
1.04651
1.04725
1.04704
1.04635
1.04517
1.04365
1.04189
1.04009
1.03825
1.03642
1.03473
1.03322
1.03183
1.03048
1.02914
1.02784
1.02657
1.02531
1.02404
1.02277
1.02152
1.0203
1.0191
1.01793
1.0168
1.01568
1.01454
1.01341
1.01228
1.01113
1.01
1.00885
1.00768
1.00649
1.00525
1.00405
1.00288
1.00167
1.0005
0.99938
0.998289
0.997196
0.996158
0.995156
0.99412
0.993224
0.99235
0.991404
0.990614
0.989836
0.989015
0.988275
0.987513
0.986723
0.985825
0.984974
0.984256
0.983517
0.982753
0.982018
0.981198
0.980511
0.980062
0.979519
0.978415
1.01201
1.0106
1.00921
1.00786
1.00648
1.00511
1.00384
1.00257
1.00133
1.00012
0.998938
0.997919
0.996924
0.995961
0.994966
0.99397
0.993148
0.992453
0.991805
0.991327
0.991051
0.991107
0.991356
0.991587
0.992312
0.993584
0.995338
0.998264
1.0011
1.00435
1.00803
1.01006
1.01189
1.01316
1.01319
1.01287
1.01254
1.01201
1.01123
1.01047
1.00978
1.00918
1.00865
1.00822
1.00807
1.00813
1.00835
1.00864
1.0091
1.00974
1.01068
1.01202
1.01377
1.01626
1.01888
1.02109
1.02352
1.02518
1.02551
1.02582
1.02628
1.02645
1.02675
1.02782
1.0299
1.03345
1.03841
1.04399
1.04604
1.04596
1.04541
1.04433
1.04277
1.04095
1.03907
1.03722
1.03548
1.0339
1.03246
1.0311
1.02979
1.02851
1.02728
1.02608
1.02488
1.02364
1.0224
1.02117
1.01995
1.01875
1.01759
1.01646
1.01534
1.01419
1.01307
1.01195
1.01078
1.00962
1.00845
1.00725
1.00605
1.00481
1.00363
1.00248
1.00131
1.00022
0.999163
0.998144
0.997122
0.996116
0.995137
0.994117
0.993231
0.992388
0.991476
0.9907
0.989937
0.989098
0.988398
0.987791
0.987125
0.986356
0.985571
0.985008
0.984437
0.983793
0.983212
0.982546
0.981777
0.981332
0.980905
0.979861
1.01071
1.00936
1.00803
1.00677
1.00547
1.00419
1.00297
1.00173
1.00048
0.999213
0.997994
0.996931
0.99589
0.994925
0.99392
0.992932
0.992171
0.991483
0.990881
0.990297
0.9898
0.989493
0.989394
0.989361
0.989438
0.989863
0.990609
0.992095
0.99394
0.996209
0.99974
1.00261
1.00544
1.00816
1.00891
1.00965
1.01017
1.0101
1.00968
1.00938
1.00909
1.0087
1.00836
1.00807
1.00796
1.00806
1.00836
1.00893
1.00997
1.01163
1.01406
1.01692
1.01988
1.02304
1.02582
1.02691
1.02756
1.02782
1.02766
1.0275
1.02727
1.0268
1.02651
1.02679
1.02775
1.03009
1.03419
1.03966
1.04365
1.04413
1.04384
1.04301
1.04166
1.03997
1.03815
1.03634
1.03468
1.03316
1.03176
1.03044
1.02917
1.02797
1.02683
1.02569
1.02453
1.02332
1.0221
1.02088
1.01967
1.01849
1.01732
1.01619
1.01508
1.01392
1.01274
1.01157
1.01035
1.00915
1.00797
1.00678
1.0056
1.00442
1.0033
1.00221
1.00112
1.00011
0.99909
0.998104
0.997135
0.996148
0.995181
0.994186
0.99333
0.992556
0.991721
0.991015
0.990325
0.989491
0.988943
0.988559
0.98803
0.987381
0.986654
0.986124
0.985657
0.985084
0.984485
0.983784
0.982999
0.982491
0.982042
0.980976
1.00979
1.00845
1.00713
1.00591
1.00468
1.00348
1.00234
1.00117
0.999958
0.998638
0.99735
0.996209
0.995109
0.994152
0.99322
0.992364
0.991652
0.990921
0.990235
0.989525
0.98891
0.988448
0.988102
0.987883
0.987657
0.987635
0.987747
0.988144
0.988932
0.989951
0.991974
0.994386
0.997093
1.00064
1.00295
1.00497
1.00686
1.00731
1.00775
1.00803
1.00807
1.0082
1.00835
1.00864
1.00902
1.00968
1.011
1.01282
1.01533
1.01848
1.0216
1.02466
1.02745
1.02887
1.0298
1.02977
1.02944
1.02909
1.02853
1.02771
1.02688
1.02609
1.02558
1.02553
1.02593
1.02704
1.02983
1.03442
1.03958
1.04195
1.04205
1.04165
1.04068
1.0393
1.03764
1.03589
1.03421
1.03265
1.03124
1.0299
1.02861
1.02742
1.02628
1.02513
1.02397
1.02279
1.02161
1.02044
1.01927
1.01815
1.0171
1.01602
1.01488
1.01366
1.01244
1.01124
1.00998
1.00876
1.00758
1.00638
1.00524
1.00412
1.00308
1.00207
1.00107
1.00012
0.999135
0.99816
0.997268
0.996382
0.995515
0.994568
0.993766
0.993164
0.992504
0.991913
0.99132
0.990553
0.990007
0.989657
0.989166
0.988545
0.987842
0.987241
0.986725
0.986128
0.985468
0.984713
0.983913
0.983317
0.98278
0.981666
1.00929
1.0079
1.00651
1.00526
1.00403
1.00288
1.00182
1.00076
0.999634
0.998363
0.997148
0.996007
0.994845
0.993816
0.992813
0.991955
0.991233
0.990515
0.989855
0.989168
0.988538
0.987963
0.98733
0.986913
0.986568
0.986263
0.986115
0.986013
0.986167
0.986384
0.986922
0.988046
0.989659
0.9924
0.995317
0.998022
1.00121
1.00337
1.00504
1.00649
1.0074
1.0082
1.00899
1.01013
1.01176
1.01389
1.01636
1.01933
1.02296
1.02599
1.0283
1.03009
1.0316
1.03184
1.03167
1.03104
1.03002
1.02892
1.02794
1.02696
1.02594
1.0251
1.0244
1.0241
1.02421
1.02449
1.02581
1.02928
1.03422
1.03849
1.04013
1.04011
1.03962
1.03861
1.0372
1.03558
1.03393
1.03232
1.03085
1.02948
1.02812
1.02687
1.02572
1.02459
1.02344
1.0223
1.02119
1.02011
1.01901
1.0179
1.01675
1.0156
1.01447
1.01328
1.0121
1.01091
1.00963
1.00843
1.00728
1.00611
1.00502
1.00396
1.00299
1.00208
1.00117
1.00032
0.9994
0.998572
0.997895
0.997134
0.996361
0.995512
0.994728
0.994221
0.993675
0.993079
0.992435
0.991673
0.991158
0.990753
0.990209
0.989556
0.988838
0.988146
0.987502
0.986813
0.986084
0.985289
0.984472
0.983769
0.983134
0.981947
1.00914
1.00776
1.00635
1.00507
1.00381
1.00262
1.00151
1.00043
0.999358
0.998193
0.997089
0.996006
0.994906
0.993884
0.992878
0.992008
0.991152
0.990299
0.989561
0.988815
0.988173
0.98761
0.986994
0.986541
0.986135
0.985734
0.98538
0.984986
0.984755
0.984449
0.984313
0.984453
0.984992
0.986262
0.988416
0.991046
0.994222
0.997911
1.00113
1.00395
1.00669
1.00914
1.01159
1.01481
1.01814
1.02072
1.02404
1.02753
1.02968
1.03145
1.03303
1.03334
1.03301
1.03239
1.03168
1.03072
1.0296
1.02844
1.0273
1.02618
1.02505
1.02398
1.02287
1.02219
1.0222
1.0223
1.02276
1.02475
1.02905
1.03392
1.03748
1.03856
1.03843
1.03785
1.03677
1.03534
1.03378
1.03214
1.03058
1.02912
1.02767
1.02633
1.02514
1.02402
1.02292
1.02186
1.02084
1.01981
1.01874
1.01765
1.01652
1.01538
1.01425
1.01305
1.01185
1.01067
1.00938
1.00823
1.00716
1.00604
1.00502
1.00403
1.00313
1.00237
1.00164
1.00092
1.00009
0.999401
0.998885
0.998224
0.997491
0.996684
0.995869
0.995313
0.994756
0.99412
0.993432
0.992705
0.992156
0.991636
0.991
0.990294
0.989527
0.988751
0.987983
0.987183
0.98638
0.985551
0.984713
0.983946
0.983274
0.982082
1.00897
1.00769
1.00639
1.00521
1.00401
1.00287
1.00176
1.00066
0.999553
0.998328
0.997161
0.995983
0.994876
0.993902
0.992918
0.992022
0.99111
0.990241
0.989484
0.988713
0.988053
0.987491
0.98694
0.986511
0.986063
0.985638
0.985221
0.984692
0.984372
0.984071
0.983545
0.982923
0.982822
0.983194
0.984236
0.986101
0.9889
0.992582
0.996786
1.00131
1.00612
1.01071
1.01526
1.02041
1.02447
1.02735
1.03077
1.03353
1.03471
1.03532
1.03522
1.03474
1.03382
1.03255
1.03128
1.03002
1.02881
1.02764
1.02641
1.02514
1.0239
1.02266
1.02146
1.02043
1.02009
1.02022
1.02047
1.02137
1.0242
1.02888
1.0335
1.03651
1.0371
1.0369
1.03621
1.03505
1.0336
1.03198
1.03039
1.02888
1.02736
1.02596
1.02478
1.02366
1.02256
1.0215
1.02047
1.01944
1.01839
1.01735
1.01628
1.01519
1.01408
1.01289
1.0117
1.01055
1.0093
1.00817
1.00722
1.00625
1.00539
1.00452
1.00369
1.00312
1.00255
1.00191
1.00111
1.0005
1.00004
0.999396
0.998637
0.99782
0.996975
0.996302
0.995652
0.994953
0.994228
0.99351
0.992883
0.992247
0.99152
0.990748
0.989922
0.989078
0.988235
0.98737
0.986504
0.98567
0.984846
0.984044
0.983314
0.981956
1.00942
1.00805
1.00664
1.00542
1.0043
1.0032
1.00205
1.00097
0.999915
0.998743
0.997619
0.996481
0.995391
0.99439
0.993367
0.992404
0.991388
0.990459
0.989654
0.988829
0.988134
0.987471
0.986894
0.986568
0.986211
0.985836
0.985452
0.984904
0.98452
0.98416
0.983605
0.98308
0.982581
0.982605
0.982968
0.983931
0.985759
0.988557
0.992696
0.998325
1.00483
1.01134
1.01775
1.0234
1.02757
1.03083
1.03386
1.03631
1.03699
1.03686
1.03641
1.03548
1.03417
1.03261
1.03094
1.02917
1.02757
1.02626
1.02508
1.02386
1.02267
1.02152
1.02038
1.01927
1.01841
1.01836
1.01846
1.01878
1.02024
1.02383
1.02856
1.0331
1.03543
1.03568
1.0354
1.03461
1.03335
1.03175
1.03018
1.02877
1.02732
1.02594
1.02478
1.02362
1.02247
1.02137
1.02031
1.01925
1.01822
1.01722
1.01615
1.01509
1.01405
1.01289
1.0117
1.0106
1.00939
1.00835
1.00763
1.00688
1.00617
1.0054
1.00466
1.00419
1.00369
1.00305
1.00223
1.00161
1.00111
1.00042
0.999611
0.998756
0.997893
0.997122
0.996364
0.995592
0.994815
0.994037
0.993309
0.992577
0.991776
0.990965
0.990114
0.989242
0.988364
0.987445
0.986467
0.985469
0.984478
0.983499
0.982627
0.981085
1.01034
1.00902
1.00767
1.00648
1.0054
1.00429
1.00304
1.00175
1.00051
0.999226
0.998052
0.996883
0.995844
0.994915
0.993907
0.992895
0.991826
0.990912
0.990147
0.989385
0.98876
0.98816
0.987516
0.987125
0.986771
0.986422
0.986029
0.985543
0.985287
0.985283
0.985317
0.985598
0.986233
0.987457
0.989009
0.991004
0.993589
0.996511
0.999812
1.0035
1.00752
1.01213
1.01714
1.02173
1.02593
1.02972
1.03274
1.0349
1.03604
1.03597
1.0355
1.03469
1.03354
1.03184
1.02976
1.0277
1.02601
1.02477
1.02377
1.0227
1.02161
1.02061
1.01952
1.01841
1.01715
1.01662
1.01667
1.01674
1.01735
1.01947
1.02343
1.02828
1.03251
1.03406
1.0342
1.03386
1.03293
1.03151
1.02993
1.0284
1.02683
1.0254
1.02418
1.02299
1.02188
1.0209
1.01993
1.01894
1.01802
1.01714
1.01612
1.0151
1.01421
1.0132
1.01211
1.01113
1.01013
1.00904
1.00834
1.00786
1.00725
1.00648
1.00589
1.00542
1.00484
1.00414
1.00331
1.0026
1.00196
1.00117
1.0003
0.999386
0.998496
0.997677
0.996853
0.99602
0.995169
0.994322
0.993505
0.992643
0.991725
0.990804
0.989836
0.988838
0.987816
0.986764
0.985695
0.984609
0.983519
0.982426
0.981446
0.979767
1.01138
1.01006
1.00872
1.00759
1.0066
1.00554
1.0043
1.00297
1.00171
1.00043
0.999291
0.998127
0.996988
0.995935
0.994785
0.993592
0.992285
0.991246
0.990665
0.990148
0.98971
0.989283
0.988763
0.988487
0.988248
0.988142
0.988161
0.988231
0.988408
0.989302
0.990592
0.991942
0.994006
0.995805
0.997349
0.999502
1.00153
1.00276
1.00448
1.0065
1.00866
1.01145
1.0147
1.01814
1.02209
1.02568
1.02834
1.03081
1.03297
1.03298
1.03246
1.03199
1.03114
1.02978
1.02822
1.02676
1.02543
1.02424
1.02313
1.02195
1.02075
1.01962
1.01849
1.01728
1.01602
1.01502
1.01498
1.01501
1.01516
1.01626
1.01887
1.02308
1.02797
1.03156
1.03279
1.0328
1.03232
1.03125
1.02982
1.02828
1.0267
1.02532
1.0241
1.02286
1.02178
1.02084
1.0199
1.01895
1.01814
1.01738
1.01646
1.01543
1.01465
1.01384
1.01293
1.0121
1.01127
1.01032
1.00967
1.00919
1.00852
1.00768
1.00706
1.00647
1.00578
1.005
1.00413
1.0033
1.00249
1.0016
1.00066
0.999743
0.998823
0.997898
0.996965
0.996047
0.995096
0.994106
0.993095
0.99206
0.99099
0.989937
0.988871
0.987788
0.986674
0.985541
0.984416
0.983301
0.982182
0.981044
0.980029
0.978288
1.01327
1.01198
1.01066
1.00934
1.00808
1.00675
1.00525
1.00381
1.00272
1.00168
1.00062
0.999454
0.998264
0.997229
0.996095
0.994902
0.993739
0.99279
0.992167
0.991665
0.991161
0.990704
0.990665
0.990955
0.991269
0.991971
0.993432
0.994565
0.996069
0.998179
0.9999
1.00173
1.00314
1.00433
1.00602
1.0068
1.00688
1.0073
1.00835
1.00894
1.00943
1.01039
1.01181
1.01364
1.01638
1.01934
1.02143
1.02409
1.02691
1.02745
1.02794
1.02849
1.02863
1.02816
1.02724
1.02626
1.0251
1.02384
1.02256
1.02127
1.01996
1.01869
1.01748
1.01623
1.01504
1.014
1.0135
1.01344
1.01336
1.01383
1.01536
1.0183
1.0229
1.02755
1.03074
1.03165
1.03147
1.03084
1.02969
1.02827
1.02677
1.02543
1.02415
1.02291
1.02185
1.02092
1.02
1.01915
1.01851
1.01782
1.01693
1.01616
1.01558
1.01486
1.01402
1.01326
1.01247
1.01157
1.01096
1.01039
1.00962
1.00878
1.00803
1.00724
1.00641
1.00553
1.00459
1.00367
1.00267
1.00162
1.00058
0.999597
0.998603
0.997598
0.996567
0.995501
0.9944
0.993266
0.992112
0.990927
0.989729
0.988579
0.987454
0.986325
0.985172
0.984016
0.982892
0.981795
0.980708
0.979584
0.978562
0.976816
1.01503
1.01382
1.01255
1.01121
1.00989
1.00851
1.00705
1.00567
1.00458
1.00355
1.0024
1.00111
0.999608
0.998411
0.997426
0.996474
0.995626
0.995118
0.994874
0.994674
0.994537
0.994699
0.99567
0.996813
0.998019
1.00037
1.00234
1.00396
1.00666
1.00822
1.009
1.01052
1.01115
1.01132
1.01121
1.01077
1.01055
1.01051
1.01021
1.00988
1.00977
1.00977
1.01002
1.01052
1.01123
1.01275
1.01429
1.01586
1.01872
1.0208
1.02209
1.02416
1.02549
)
;

boundaryField
{
    inlet
    {
        type            fixedValue;
        value           nonuniform 0();
    }
    outlet
    {
        type            inletOutlet;
        inletValue      uniform 1;
        value           nonuniform List<scalar> 
18
(
0.975903
0.975675
0.97562
0.975693
0.975888
0.97622
0.977024
0.978388
0.979835
0.980952
0.981647
0.98193
0.982067
0.981946
0.981077
0.97976
0.978282
0.97681
)
;
    }
    bottom
    {
        type            symmetryPlane;
    }
    top
    {
        type            symmetryPlane;
    }
    obstacle
    {
        type            zeroGradient;
    }
    front
    {
        type            empty;
    }
    back
    {
        type            empty;
    }
    procBoundary39to31
    {
        type            processor;
        value           nonuniform List<scalar> 
133
(
1.03225
1.03273
1.03272
1.03258
1.03217
1.03155
1.03099
1.03057
1.03029
1.0301
1.02991
1.02971
1.02944
1.02908
1.02861
1.02799
1.02728
1.02649
1.02555
1.02446
1.02361
1.02283
1.02199
1.02107
1.02036
1.0197
1.01893
1.01814
1.01735
1.01654
1.01581
1.01513
1.01454
1.01412
1.01372
1.0134
1.01335
1.01344
1.01349
1.01364
1.01401
1.01456
1.01552
1.01744
1.02085
1.0255
1.03023
1.03259
1.03274
1.0327
1.03249
1.03198
1.03108
1.02977
1.02859
1.02765
1.02701
1.02675
1.02703
1.02733
1.02762
1.02857
1.02891
1.02911
1.02966
1.02978
1.02927
1.02889
1.02849
1.02776
1.02682
1.02589
1.02495
1.02394
1.02291
1.02192
1.02092
1.01986
1.01871
1.01748
1.01618
1.01486
1.01357
1.01232
1.0111
1.00992
1.00878
1.00764
1.00652
1.00539
1.00424
1.00304
1.00179
1.00051
0.999225
0.997977
0.996755
0.995526
0.994297
0.993106
0.991971
0.990846
0.98972
0.988632
0.987567
0.98652
0.985483
0.984456
0.983384
0.982339
0.9814
0.980421
0.979432
0.978472
0.977661
0.976338
1.03274
1.03183
1.0308
1.02977
1.02868
1.02751
1.02637
1.02534
1.02436
1.02357
1.02311
1.02271
1.02255
1.02305
1.02348
1.02395
1.02395
)
;
    }
    procBoundary39to38
    {
        type            processor;
        value           nonuniform List<scalar> 
17
(
1.03203
1.02962
1.02645
1.02299
1.01991
1.01743
1.0153
1.0135
1.01213
1.01118
1.0107
1.01049
1.01028
1.0108
1.01166
1.01278
1.01466
)
;
    }
    procBoundary39to46
    {
        type            processor;
        value           uniform 1.01627;
    }
    procBoundary39to47
    {
        type            processor;
        value           nonuniform List<scalar> 
133
(
1.02535
1.02517
1.02486
1.02417
1.02322
1.022
1.02065
1.0193
1.01797
1.01673
1.01562
1.01445
1.01338
1.01245
1.01197
1.01179
1.01194
1.01287
1.01461
1.01805
1.02283
1.02728
1.03005
1.0305
1.03024
1.02946
1.02829
1.02701
1.02573
1.02429
1.02314
1.02223
1.02127
1.02036
1.01971
1.01919
1.0186
1.01779
1.01713
1.0166
1.01591
1.01514
1.0144
1.01356
1.01269
1.01204
1.01132
1.01044
1.00952
1.00861
1.00767
1.00668
1.00559
1.00446
1.00339
1.00231
1.00118
1.00006
0.998972
0.997885
0.996777
0.995629
0.994432
0.993203
0.991967
0.990734
0.989485
0.988229
0.987086
0.986006
0.984913
0.983807
0.982698
0.9816
0.980513
0.979432
0.97831
0.977287
0.975517
1.01728
1.01597
1.01454
1.01298
1.01152
1.0102
1.00888
1.00765
1.0067
1.00578
1.0047
1.00353
1.00218
1.00099
1.00028
0.999632
0.998975
0.998836
0.999369
0.999962
1.00063
1.0025
1.0047
1.00618
1.00877
1.01123
1.01242
1.01452
1.0158
1.01577
1.01611
1.0163
1.01588
1.01493
1.01397
1.01312
1.01235
1.01176
1.0112
1.01062
1.0101
1.00964
1.00915
1.00878
1.00824
1.00809
1.00859
1.00908
1.01007
1.01258
1.01424
1.01617
1.02535
1.01915
)
;
    }
}


// ************************************************************************* //
