/*--------------------------------*- C++ -*----------------------------------*\
  =========                 |
  \\      /  F ield         | OpenFOAM: The Open Source CFD Toolbox
   \\    /   O peration     | Website:  https://openfoam.org
    \\  /    A nd           | Version:  7
     \\/     M anipulation  |
\*---------------------------------------------------------------------------*/
FoamFile
{
    version     2.0;
    format      ascii;
    class       volScalarField;
    location    "5";
    object      p;
}
// * * * * * * * * * * * * * * * * * * * * * * * * * * * * * * * * * * * * * //

dimensions      [1 -1 -2 0 0 0 0];

internalField   nonuniform List<scalar> 
2413
(
0.880454
0.870671
0.860599
0.852281
0.849519
0.851577
0.862439
0.884014
0.901673
0.8911
0.882567
0.880851
0.882587
0.893104
0.918466
0.946098
0.91723
0.907997
0.906787
0.908939
0.919939
0.946172
0.976496
0.995251
0.926441
0.924122
0.92761
0.939829
0.965506
0.999457
1.018
1.01902
0.938782
0.941218
0.953764
0.979743
1.0131
1.03483
1.03638
1.03288
0.952052
0.962751
0.989003
1.02259
1.04566
1.0496
1.04701
1.04027
0.967459
0.99314
1.02838
1.05321
1.0583
1.05678
1.05156
1.04419
0.991219
1.0287
1.05732
1.06485
1.06423
1.06009
1.0536
1.04688
1.02641
1.0613
1.07152
1.07036
1.06698
1.06191
1.05654
1.05139
1.06388
1.07841
1.07929
1.07759
1.07272
1.06675
1.0621
1.05822
1.08905
1.09163
1.08794
1.08334
1.07931
1.07468
1.06981
1.06543
1.10347
1.1027
1.09844
1.09206
1.08703
1.08375
1.08009
1.0755
1.1163
1.11311
1.10814
1.10243
1.0977
1.0944
1.09102
1.08661
1.12771
1.12321
1.11805
1.11362
1.10921
1.10531
1.10214
1.09817
1.13682
1.1311
1.1265
1.12373
1.12085
1.11667
1.11239
1.10851
1.14452
1.13895
1.13439
1.13139
1.12965
1.12702
1.12283
1.11814
1.15109
1.14635
1.14289
1.13967
1.13684
1.13463
1.13156
1.12725
1.15738
1.15339
1.15073
1.14833
1.14529
1.14202
1.1386
1.13474
1.16446
1.16149
1.15884
1.15618
1.15329
1.14998
1.14632
1.14234
1.02293
1.02271
1.02256
1.02232
1.02182
1.02116
1.02056
1.02005
1.01954
1.01901
1.01843
1.01773
1.01671
1.0149
1.01218
1.01036
1.0097
1.00936
1.00923
1.009
1.00838
1.00758
1.00649
1.00477
1.00253
1.00082
0.999806
0.999273
0.999032
0.998252
0.997237
0.99619
0.994984
0.993384
0.900229
0.907704
0.914939
0.921667
0.926937
0.932003
0.936577
0.938863
0.940888
0.943163
0.944588
0.944399
0.942933
0.94174
0.941426
0.940203
0.938281
0.936595
0.934929
0.932903
0.930522
0.928339
0.925933
0.922912
0.920151
0.91887
0.917762
0.916291
0.914601
0.912869
0.911045
0.909674
0.90902
0.908599
0.908268
0.907727
0.906739
0.905109
0.902783
0.901252
0.900595
0.900384
0.900022
0.899337
0.898265
0.896232
0.894057
0.893392
0.892784
0.892151
0.89146
0.890293
0.888225
0.886392
0.885624
0.884566
0.883934
0.883704
0.883052
0.881993
0.880278
0.878221
0.876574
0.875348
0.874661
0.873924
0.872789
0.870639
0.867939
0.867154
0.869616
0.884477
0.931678
1.01078
1.05412
1.0605
1.05938
1.05722
1.05518
1.05317
1.05147
1.04991
1.04828
1.04653
1.04468
1.04297
1.04218
1.04172
1.04107
1.03999
1.03863
1.03745
1.03661
1.03594
1.03535
1.03487
1.03448
1.03396
1.03273
1.03036
1.02858
1.02808
1.02782
1.02775
1.02756
1.02752
1.02705
1.02609
1.02472
1.02277
1.0208
1.01961
1.01887
1.0184
1.01807
1.01715
1.01596
1.01458
1.0128
1.0105
0.960813
0.964185
0.96734
0.970781
0.972691
0.972901
0.973475
0.973242
0.971809
0.971422
0.970221
0.968361
0.967087
0.965061
0.962968
0.961239
0.959108
0.956608
0.95474
0.952693
0.95038
0.948607
0.946915
0.9447
0.942158
0.940958
0.939595
0.938243
0.937413
0.936554
0.935172
0.93313
0.932313
0.931433
0.930318
0.929751
0.928865
0.927726
0.926325
0.924088
0.922317
0.921742
0.920761
0.919779
0.918712
0.916827
0.914826
0.914231
0.913424
0.912682
0.912437
0.911823
0.910506
0.909106
0.907783
0.906029
0.905198
0.90466
0.903646
0.902903
0.901699
0.899861
0.89813
0.89626
0.894753
0.893878
0.892702
0.8904
0.88765
0.885905
0.885803
0.889175
0.905344
0.952224
1.02451
1.06915
1.07748
1.07835
1.0774
1.07562
1.07308
1.07033
1.06796
1.06579
1.06378
1.06187
1.06043
1.05935
1.05825
1.05681
1.05499
1.05339
1.0523
1.05144
1.05066
1.04992
1.04931
1.04848
1.04683
1.04509
1.04451
1.04419
1.04398
1.04355
1.0432
1.04315
1.04256
1.04137
1.03987
1.03819
1.03685
1.03608
1.03548
1.03511
1.03485
1.03393
1.03266
1.03112
1.02918
1.02687
0.9996
0.998992
0.999019
0.999577
0.998927
0.997669
0.996776
0.994914
0.992524
0.990766
0.988626
0.986114
0.984558
0.982627
0.980415
0.978893
0.976939
0.974244
0.972517
0.970498
0.968137
0.967185
0.965831
0.964099
0.963336
0.962291
0.960593
0.959428
0.958391
0.95671
0.954901
0.953883
0.952663
0.950946
0.950001
0.949463
0.948131
0.946821
0.945788
0.943806
0.941824
0.940994
0.93957
0.938318
0.937599
0.936066
0.934603
0.933976
0.9327
0.931195
0.930692
0.929692
0.928113
0.927352
0.926259
0.92429
0.923411
0.922615
0.920892
0.920008
0.919235
0.917541
0.916256
0.915098
0.913373
0.911251
0.910129
0.908808
0.906844
0.905064
0.902969
0.902421
0.905573
0.919841
0.960259
1.02499
1.07563
1.09101
1.09351
1.09354
1.09225
1.08992
1.08704
1.08418
1.08167
1.07948
1.0775
1.07532
1.07304
1.07158
1.07033
1.06904
1.06786
1.06676
1.06556
1.0639
1.06224
1.06165
1.06115
1.06034
1.05929
1.05789
1.05672
1.05607
1.05568
1.05563
1.05526
1.05424
1.05267
1.05104
1.05021
1.04964
1.04907
1.04871
1.04858
1.04791
1.04685
1.0456
1.04396
1.0418
1.01829
1.01768
1.01787
1.01744
1.01535
1.01317
1.01151
1.0094
1.00689
1.00515
1.00316
1.00068
0.999101
0.997375
0.994966
0.993518
0.991896
0.989553
0.988425
0.987023
0.985183
0.984223
0.982662
0.980618
0.979539
0.977836
0.976201
0.975353
0.973791
0.972211
0.971135
0.969362
0.967191
0.96626
0.96478
0.963349
0.962618
0.96108
0.959613
0.95855
0.956706
0.955665
0.955042
0.953486
0.952547
0.951942
0.950428
0.949201
0.948405
0.946903
0.945259
0.944626
0.943519
0.941941
0.941105
0.939935
0.937924
0.936794
0.935653
0.933957
0.933229
0.932325
0.930946
0.929844
0.928318
0.926239
0.924992
0.924346
0.923169
0.921674
0.919509
0.916842
0.91565
0.918148
0.92906
0.959694
1.01521
1.07142
1.09912
1.10456
1.10522
1.10486
1.1038
1.10166
1.09919
1.0966
1.09392
1.0908
1.08732
1.08542
1.08448
1.08329
1.08187
1.08049
1.07898
1.07681
1.07458
1.07386
1.07356
1.07282
1.07169
1.07006
1.06826
1.06735
1.06689
1.06673
1.06667
1.06605
1.06509
1.06365
1.06182
1.06084
1.06032
1.05994
1.05955
1.05878
1.05763
1.05621
1.05475
1.05364
1.02969
1.0277
1.02571
1.02406
1.022
1.01951
1.01767
1.01616
1.01399
1.01209
1.01098
1.00917
1.00774
1.00689
1.00508
1.00356
1.00257
1.00063
0.999333
0.998509
0.996787
0.995623
0.994495
0.992368
0.990861
0.989516
0.987495
0.986371
0.985258
0.983506
0.98233
0.980917
0.978715
0.977509
0.97628
0.974506
0.973633
0.972657
0.970913
0.969957
0.968987
0.967252
0.966421
0.96574
0.964177
0.963256
0.962481
0.960778
0.95959
0.958896
0.957411
0.956424
0.95584
0.954495
0.953372
0.952214
0.950327
0.949099
0.94793
0.946649
0.945836
0.944852
0.943195
0.941715
0.94031
0.938597
0.937886
0.937221
0.936131
0.935009
0.933446
0.930527
0.927065
0.926297
0.928215
0.936082
0.956663
0.999115
1.05385
1.09337
1.11082
1.1141
1.11522
1.11562
1.11501
1.11303
1.1104
1.10705
1.10318
1.10039
1.09865
1.09703
1.09513
1.09322
1.09126
1.08874
1.08623
1.08515
1.08459
1.08378
1.08259
1.08089
1.0786
1.0773
1.07673
1.07646
1.07648
1.07605
1.07524
1.074
1.07212
1.07092
1.07045
1.07016
1.06971
1.06891
1.06763
1.0656
1.06408
1.06344
1.03556
1.03358
1.0312
1.02918
1.0276
1.0256
1.02362
1.02239
1.02072
1.01858
1.01756
1.01617
1.01466
1.01402
1.01262
1.01101
1.01013
1.00839
1.0069
1.00621
1.00464
1.00335
1.00238
1.0005
0.998815
0.997903
0.996289
0.99493
0.994064
0.992557
0.990795
0.989711
0.988182
0.986449
0.985647
0.984467
0.982914
0.982064
0.980896
0.979101
0.978198
0.977125
0.975609
0.974938
0.974027
0.972601
0.971854
0.970768
0.969189
0.968644
0.967708
0.966732
0.966219
0.965088
0.963927
0.962655
0.960733
0.959797
0.9591
0.95792
0.957103
0.956261
0.954665
0.952976
0.951827
0.950445
0.94926
0.948683
0.947842
0.946514
0.944935
0.942614
0.939741
0.936911
0.936199
0.937441
0.942078
0.954263
0.981585
1.0268
1.07085
1.10146
1.1178
1.12382
1.12509
1.12554
1.12505
1.12272
1.11922
1.11663
1.11451
1.11221
1.10972
1.1072
1.10447
1.10091
1.09763
1.09614
1.09536
1.09449
1.09326
1.09183
1.08977
1.08724
1.08591
1.08528
1.08509
1.08472
1.08396
1.08292
1.08112
1.07911
1.07836
1.0781
1.07798
1.07748
1.0767
1.07547
1.07357
1.07237
1.03952
1.03782
1.03579
1.03365
1.03249
1.03098
1.02941
1.02846
1.02695
1.02499
1.02403
1.02263
1.02126
1.02063
1.01925
1.01763
1.01663
1.01491
1.0133
1.01261
1.01124
1.00985
1.00895
1.00734
1.00563
1.00485
1.00354
1.00221
1.00149
1.00027
0.998645
0.997762
0.996505
0.995039
0.994376
0.9934
0.991941
0.99102
0.989754
0.987983
0.987248
0.986244
0.984928
0.984227
0.983048
0.981556
0.980763
0.97944
0.977993
0.977483
0.976366
0.975056
0.974557
0.973537
0.972035
0.971473
0.970572
0.969278
0.96884
0.96831
0.967063
0.966253
0.96535
0.963847
0.962463
0.96151
0.960726
0.959728
0.958862
0.957604
0.956234
0.954865
0.95292
0.950721
0.948045
0.946175
0.946221
0.948162
0.954176
0.968709
0.998053
1.03952
1.07822
1.10656
1.12489
1.13085
1.13121
1.13099
1.13079
1.13056
1.1296
1.1277
1.12543
1.12268
1.11915
1.11462
1.11139
1.10964
1.1082
1.10665
1.105
1.10317
1.10062
1.09728
1.0954
1.09449
1.09397
1.09336
1.09248
1.09134
1.08948
1.08684
1.08546
1.08493
1.08484
1.08485
1.08435
1.08357
1.08223
1.08032
1.04289
1.04161
1.04
1.03809
1.03721
1.036
1.03474
1.034
1.0326
1.03093
1.03
1.02857
1.02736
1.02678
1.02551
1.02395
1.02297
1.02146
1.01988
1.01918
1.01802
1.01666
1.0158
1.01445
1.01265
1.01179
1.01078
1.00949
1.00871
1.00766
1.00599
1.00501
1.00416
1.00296
1.00235
1.00166
1.00032
0.999351
0.99812
0.996585
0.996013
0.995137
0.994006
0.993241
0.992003
0.990331
0.989474
0.988357
0.987104
0.986469
0.985563
0.984178
0.98326
0.982364
0.981056
0.98005
0.979407
0.978325
0.976936
0.976323
0.975444
0.974361
0.973725
0.973249
0.972317
0.971292
0.970656
0.970011
0.968788
0.967748
0.967064
0.965935
0.965016
0.963576
0.961459
0.958607
0.955303
0.953895
0.954715
0.957753
0.96534
0.981563
1.00932
1.04496
1.0829
1.10828
1.12259
1.13295
1.13665
1.13757
1.13826
1.13837
1.13777
1.13574
1.13269
1.12981
1.12737
1.12495
1.12261
1.12039
1.11818
1.11569
1.11241
1.10838
1.10591
1.10459
1.10365
1.10278
1.10167
1.10027
1.09815
1.09532
1.09387
1.09324
1.09297
1.09266
1.092
1.09105
1.08939
1.08715
1.04811
1.04714
1.04607
1.04457
1.04358
1.04237
1.04119
1.04044
1.03928
1.03779
1.03672
1.03537
1.03388
1.03317
1.03215
1.03059
1.0296
1.0283
1.0267
1.02592
1.02495
1.0237
1.0229
1.02175
1.02007
1.01918
1.01817
1.01699
1.01632
1.0154
1.01388
1.01294
1.01192
1.01075
1.01014
1.00925
1.00795
1.007
1.00568
1.00456
1.00416
1.00325
1.00245
1.0017
1.00019
0.998949
0.998171
0.996989
0.996343
0.99575
0.994545
0.993593
0.992573
0.991036
0.990217
0.989567
0.988364
0.987513
0.98673
0.985367
0.984283
0.98381
0.98281
0.981864
0.981383
0.980377
0.979079
0.978408
0.977367
0.976384
0.975779
0.975488
0.974943
0.974046
0.972646
0.970251
0.967514
0.964095
0.962295
0.962776
0.964755
0.968603
0.976234
0.990361
1.01298
1.04465
1.0776
1.10281
1.1208
1.13473
1.14273
1.14457
1.14461
1.14495
1.14481
1.14435
1.14253
1.13978
1.13708
1.1342
1.13119
1.12832
1.12524
1.12175
1.11845
1.11631
1.11478
1.11346
1.11197
1.11021
1.10774
1.1048
1.10326
1.10236
1.10168
1.10104
1.10017
1.09896
1.09709
1.09496
1.0556
1.05432
1.0532
1.05233
1.05122
1.04975
1.04879
1.04759
1.04631
1.04521
1.04385
1.04256
1.04094
1.03984
1.03893
1.03756
1.03664
1.03534
1.03378
1.03295
1.03168
1.03084
1.03024
1.02894
1.02807
1.02709
1.02576
1.02519
1.02445
1.02338
1.02271
1.02164
1.0201
1.01932
1.01839
1.01721
1.01653
1.01563
1.01414
1.0132
1.01245
1.01121
1.01038
1.00966
1.00829
1.00681
1.00625
1.00525
1.0042
1.00377
1.00288
1.00158
1.00092
0.999841
0.998725
0.998369
0.997496
0.996571
0.996081
0.994952
0.993934
0.993303
0.992168
0.991308
0.99076
0.989605
0.988655
0.987857
0.98675
0.985802
0.985245
0.984686
0.983818
0.983064
0.981642
0.97998
0.978432
0.976219
0.973787
0.971489
0.970711
0.971033
0.972606
0.976192
0.98251
0.993971
1.01384
1.03969
1.06763
1.09701
1.1189
1.1315
1.14146
1.14892
1.15142
1.15177
1.1524
1.15232
1.1511
1.14891
1.14604
1.1435
1.141
1.1378
1.13405
1.13089
1.12809
1.12572
1.12356
1.12109
1.11821
1.11593
1.11442
1.11304
1.11157
1.11005
1.10842
1.10665
1.10513
1.10409
1.06301
1.06192
1.06053
1.05967
1.05913
1.05806
1.05657
1.05566
1.05444
1.0531
1.05221
1.05106
1.04944
1.0484
1.04725
1.04585
1.04501
1.04381
1.04248
1.04157
1.04016
1.03902
1.03826
1.03702
1.03619
1.03526
1.03382
1.03304
1.03223
1.03119
1.03063
1.0297
1.02832
1.02762
1.02667
1.02565
1.02515
1.02449
1.02326
1.02217
1.02136
1.02016
1.01894
1.01829
1.01739
1.01593
1.01501
1.01429
1.013
1.01218
1.01143
1.0101
1.00933
1.00842
1.00715
1.00669
1.00585
1.00494
1.00457
1.00365
1.00269
1.0022
1.0012
1.00021
0.999852
0.999064
0.998158
0.997642
0.996937
0.995803
0.995142
0.994497
0.99352
0.992825
0.991881
0.991066
0.990029
0.988789
0.986795
0.984271
0.981511
0.978421
0.977487
0.97782
0.979561
0.983032
0.988627
0.997727
1.01227
1.03234
1.05762
1.08449
1.10735
1.12665
1.13959
1.14816
1.15596
1.15834
1.15808
1.15777
1.15767
1.15727
1.15625
1.15404
1.1511
1.14815
1.14513
1.14197
1.13893
1.13607
1.13331
1.13072
1.12828
1.12587
1.12322
1.1202
1.11789
1.11649
1.11544
1.11444
1.07256
1.07156
1.07055
1.0692
1.06765
1.06682
1.06591
1.0644
1.06327
1.06221
1.06062
1.0596
1.05886
1.05749
1.05643
1.05555
1.05412
1.05299
1.05234
1.05111
1.05001
1.04915
1.04776
1.04672
1.04589
1.04459
1.04365
1.04274
1.04134
1.04042
1.03967
1.03836
1.0375
1.03676
1.03542
1.03453
1.03387
1.03275
1.03202
1.03105
1.03013
1.02931
1.02806
1.02722
1.02672
1.02563
1.02466
1.02404
1.02285
1.02179
1.02107
1.01987
1.01904
1.01828
1.01694
1.01618
1.01539
1.01443
1.01374
1.01268
1.01193
1.0109
1.00989
1.00942
1.00843
1.00757
1.00732
1.00645
1.0058
1.00543
1.00449
1.00377
1.0033
1.0025
1.00204
1.00181
1.00116
1.00048
0.9991
0.997227
0.994684
0.991872
0.98906
0.986422
0.986202
0.986478
0.987748
0.990535
0.995119
1.00189
1.01164
1.02681
1.04821
1.07034
1.09339
1.11689
1.13275
1.14377
1.15173
1.15889
1.16384
1.16431
1.16415
1.16445
1.16467
1.16408
1.16228
1.15957
1.15683
1.15417
1.1516
1.14889
1.14585
1.14255
1.13897
1.1354
1.13268
1.13071
1.12895
1.12714
1.08353
1.08219
1.08114
1.08025
1.07908
1.07743
1.07609
1.07525
1.07395
1.07256
1.07167
1.0704
1.06899
1.0682
1.06705
1.06568
1.06483
1.06377
1.06227
1.06137
1.06054
1.05914
1.05818
1.05733
1.05592
1.05486
1.05416
1.05288
1.05178
1.05103
1.04976
1.04855
1.04797
1.04691
1.04568
1.045
1.0439
1.04257
1.04196
1.04108
1.03983
1.03916
1.03835
1.03705
1.03635
1.03552
1.03443
1.03384
1.03287
1.03176
1.03119
1.03023
1.029
1.0284
1.02748
1.02628
1.02571
1.02495
1.02367
1.02291
1.02216
1.02098
1.02029
1.01974
1.01867
1.01773
1.01735
1.01654
1.01593
1.01556
1.01461
1.01395
1.01347
1.01254
1.01217
1.01199
1.01117
1.01078
1.01
1.00875
1.00742
1.00587
1.00375
1.00113
0.998971
0.996208
0.994897
0.995097
0.996368
0.998749
1.00251
1.00772
1.01488
1.02471
1.03861
1.05814
1.07966
1.09902
1.11874
1.13648
1.14758
1.15589
1.16226
1.16819
1.17104
1.17139
1.17162
1.17226
1.17261
1.17222
1.17054
1.16779
1.16459
1.16127
1.1581
1.15507
1.15217
1.14941
1.14674
1.14403
1.09532
1.09409
1.09276
1.0914
1.09036
1.08936
1.08808
1.08637
1.08517
1.08412
1.08262
1.08151
1.0806
1.0791
1.07779
1.07699
1.07566
1.07448
1.07371
1.07247
1.07115
1.07042
1.06936
1.06801
1.06727
1.06627
1.06501
1.06426
1.06317
1.06188
1.06114
1.06
1.05889
1.05817
1.05691
1.05585
1.05505
1.05374
1.05287
1.05185
1.05062
1.04994
1.04894
1.04804
1.04733
1.04619
1.04487
1.0443
1.04346
1.04253
1.04197
1.04119
1.03986
1.03899
1.03832
1.03721
1.03653
1.03581
1.03456
1.03387
1.03304
1.03217
1.03168
1.03079
1.02974
1.02919
1.02831
1.0275
1.02719
1.02654
1.02558
1.02509
1.02444
1.02347
1.02292
1.02258
1.02179
1.02103
1.02082
1.02021
1.01936
1.01866
1.01758
1.01557
1.01358
1.01098
1.00893
1.00655
1.00507
1.00547
1.00597
1.00736
1.0099
1.01381
1.01891
1.02564
1.03502
1.04764
1.06432
1.08461
1.1029
1.11995
1.1373
1.15008
1.15901
1.16612
1.17201
1.1776
1.181
1.1813
1.18119
1.18109
1.1806
1.17932
1.17769
1.17537
1.17264
1.16992
1.16723
1.16428
1.10596
1.10482
1.10384
1.10286
1.10157
1.10016
1.09923
1.09816
1.0967
1.09539
1.09446
1.09323
1.09159
1.09049
1.08946
1.08798
1.08689
1.08604
1.08469
1.0835
1.0827
1.08145
1.08009
1.07938
1.07831
1.07716
1.07652
1.07559
1.07419
1.07339
1.07249
1.07134
1.07048
1.06953
1.06842
1.06736
1.06664
1.06577
1.06445
1.06323
1.06213
1.06102
1.06026
1.05966
1.05866
1.05749
1.05637
1.05495
1.05393
1.05355
1.05272
1.05179
1.05121
1.05024
1.04907
1.04851
1.04768
1.04649
1.04597
1.04533
1.04438
1.04395
1.04336
1.04231
1.04172
1.04098
1.03994
1.03949
1.03888
1.03794
1.03742
1.03673
1.03569
1.03508
1.03435
1.03327
1.03281
1.03238
1.03168
1.03136
1.03116
1.03035
1.02951
1.02874
1.02757
1.02593
1.02413
1.02212
1.01974
1.01803
1.01583
1.01467
1.01483
1.0159
1.01775
1.02038
1.0242
1.02891
1.0348
1.04281
1.054
1.06811
1.08538
1.10419
1.12033
1.13602
1.15138
1.16218
1.17046
1.17695
1.18244
1.18695
1.18907
1.1889
1.18838
1.1881
1.18813
1.18792
1.1869
1.18491
1.11545
1.11442
1.11316
1.1121
1.11135
1.11041
1.10896
1.10753
1.10682
1.10591
1.1046
1.10358
1.10264
1.10129
1.09986
1.099
1.09799
1.09662
1.09568
1.09478
1.09343
1.0923
1.09134
1.08996
1.0887
1.08812
1.08714
1.08605
1.0853
1.0842
1.08271
1.08187
1.08095
1.07975
1.07905
1.07848
1.07743
1.07653
1.07558
1.0742
1.07288
1.07231
1.07156
1.07058
1.06978
1.06876
1.06714
1.06599
1.06525
1.06412
1.06329
1.06273
1.06166
1.0607
1.06
1.05886
1.05787
1.05747
1.05664
1.05591
1.05569
1.05499
1.05416
1.05379
1.05303
1.0521
1.05167
1.05093
1.04997
1.04951
1.04894
1.04801
1.04731
1.04667
1.04573
1.04478
1.04437
1.04375
1.04311
1.04284
1.04225
1.0415
1.04115
1.04055
1.03947
1.03866
1.03738
1.03588
1.03396
1.03202
1.03007
1.02814
1.02635
1.02444
1.02443
1.02487
1.0258
1.0275
1.02985
1.0331
1.03713
1.04222
1.04891
1.05862
1.07119
1.08553
1.10219
1.11934
1.13437
1.14867
1.16249
1.17286
1.17947
1.18465
1.18851
1.19176
1.19502
1.19708
1.19733
1.19701
1.12435
1.12328
1.12244
1.12151
1.12019
1.11871
1.11781
1.11686
1.11555
1.11447
1.1138
1.11276
1.11126
1.11032
1.1095
1.10826
1.10732
1.10667
1.10553
1.10429
1.1035
1.10238
1.10105
1.10025
1.09931
1.09794
1.09704
1.09624
1.09496
1.09391
1.09303
1.09174
1.09036
1.08969
1.08872
1.08757
1.08685
1.0859
1.08445
1.0836
1.08299
1.08194
1.08118
1.08059
1.07949
1.07827
1.07751
1.07652
1.07536
1.07473
1.07394
1.07284
1.07209
1.07129
1.07004
1.0692
1.06864
1.06766
1.06696
1.06658
1.06567
1.06477
1.06433
1.06348
1.06247
1.06197
1.06123
1.06018
1.0597
1.05935
1.05852
1.05802
1.05772
1.05696
1.05628
1.05601
1.05545
1.05472
1.05439
1.05382
1.05313
1.0529
1.05247
1.05176
1.05126
1.05058
1.04927
1.04814
1.04707
1.04536
1.04373
1.04202
1.03996
1.03781
1.03549
1.03341
1.03248
1.03244
1.03273
1.03387
1.03568
1.03799
1.04116
1.04471
1.04878
1.05408
1.06113
1.07102
1.08388
1.09802
1.11342
1.13035
1.145
1.1568
1.16868
1.17704
1.18398
1.19109
1.1956
1.19834
1.13228
1.13132
1.13018
1.12914
1.12837
1.12745
1.12621
1.12503
1.12427
1.12326
1.12198
1.12113
1.12035
1.11908
1.11792
1.11719
1.11604
1.11487
1.11419
1.11318
1.11181
1.11102
1.11015
1.10884
1.10797
1.1072
1.10589
1.10474
1.10401
1.10289
1.10162
1.10087
1.09992
1.09864
1.09773
1.09685
1.09551
1.09431
1.09362
1.0926
1.09147
1.09082
1.08991
1.08855
1.08777
1.08704
1.08583
1.08499
1.08445
1.08342
1.08257
1.08214
1.08125
1.08028
1.07983
1.07906
1.07814
1.07772
1.07708
1.07607
1.07547
1.07482
1.07374
1.07292
1.0723
1.07136
1.07031
1.06975
1.06904
1.06797
1.06743
1.06697
1.06603
1.0655
1.06522
1.06443
1.06394
1.06373
1.06303
1.06267
1.06267
1.06215
1.06183
1.06166
1.06099
1.06043
1.05984
1.05873
1.05773
1.05694
1.05583
1.05449
1.05296
1.05132
1.04931
1.04726
1.0454
1.04368
1.04216
1.04078
1.04056
1.04126
1.04223
1.04319
1.04474
1.0469
1.04939
1.05234
1.05624
1.06194
1.06972
1.08046
1.09286
1.10559
1.12073
1.13556
1.14834
1.16142
1.17383
1.18238
1.1398
1.13893
1.13821
1.13729
1.13595
1.13483
1.13424
1.13333
1.13212
1.13137
1.13048
1.12918
1.12834
1.12764
1.12643
1.12544
1.12467
1.12349
1.12225
1.12154
1.12057
1.11928
1.11846
1.11762
1.11631
1.11523
1.11448
1.11333
1.11205
1.11131
1.11034
1.10904
1.10824
1.10747
1.10621
1.10512
1.10432
1.10315
1.10195
1.10125
1.10033
1.09906
1.09821
1.09739
1.09615
1.0951
1.09446
1.09349
1.09242
1.09186
1.09109
1.08996
1.08942
1.0889
1.08791
1.08739
1.08693
1.08592
1.08525
1.08483
1.08386
1.08301
1.08252
1.08165
1.08069
1.08016
1.0795
)
;

boundaryField
{
    inlet
    {
        type            fixedValue;
        value           nonuniform 0();
    }
    outlet
    {
        type            zeroGradient;
    }
    bottom
    {
        type            symmetryPlane;
    }
    top
    {
        type            symmetryPlane;
    }
    obstacle
    {
        type            zeroGradient;
    }
    front
    {
        type            empty;
    }
    back
    {
        type            empty;
    }
    procBoundary21to13
    {
        type            processor;
        value           nonuniform List<scalar> 
129
(
0.858681
0.849632
0.840551
0.831124
0.822564
0.820008
0.822142
0.831708
1.00427
1.00385
1.00363
1.0035
1.00355
1.00359
1.00365
1.00375
1.00351
1.00278
1.00158
0.999969
0.998421
0.997193
0.995897
0.993804
0.990877
0.989516
0.989179
0.988831
0.988132
0.987345
0.986446
0.985239
0.983517
0.981405
0.979838
0.97929
0.979059
0.978389
0.977547
0.976717
0.975829
0.97475
0.840306
0.846288
0.852316
0.85769
0.864812
0.873929
0.880454
0.886061
0.89293
0.900365
0.905636
0.907514
0.91007
0.912787
0.913357
0.913591
0.913952
0.913514
0.91287
0.911711
0.909953
0.907641
0.905004
0.902967
0.901333
0.899708
0.898044
0.896154
0.893478
0.890926
0.889299
0.887972
0.886871
0.885982
0.885284
0.884513
0.883359
0.881426
0.879206
0.878185
0.877843
0.877986
0.877654
0.876819
0.875583
0.873743
0.872384
0.871769
0.871141
0.87047
0.869614
0.868133
0.86556
0.86375
0.863001
0.862203
0.861945
0.86174
0.860812
0.859668
0.857972
0.855551
0.854237
0.853737
0.853032
0.852306
0.851187
0.850091
0.849114
0.850047
0.860276
0.900283
0.979326
1.03431
1.04205
1.04084
1.03757
1.03418
1.03169
1.03034
1.02979
1.02908
1.02795
1.02668
1.02504
1.02345
1.02345
)
;
    }
    procBoundary21to14
    {
        type            processor;
        value           nonuniform List<scalar> 4(0.991052 1.00825 1.02513 1.04023);
    }
    procBoundary21to22
    {
        type            processor;
        value           nonuniform List<scalar> 
15
(
1.05289
1.06309
1.07193
1.07943
1.08616
1.09398
1.10319
1.11318
1.12513
1.14112
1.16071
1.18187
1.19643
1.20072
1.18816
)
;
    }
    procBoundary21to28
    {
        type            processor;
        value           nonuniform List<scalar> 
11
(
0.889736
0.91155
0.92743
0.93539
0.941796
0.950744
0.958483
0.96754
0.990061
1.02475
1.06522
)
;
    }
    procBoundary21to29
    {
        type            processor;
        value           nonuniform List<scalar> 
129
(
1.17417
1.17021
1.16766
1.16539
1.16221
1.15856
1.15461
1.15052
1.07845
1.07773
1.07721
1.07632
1.07562
1.07533
1.07472
1.07392
1.07353
1.07294
1.07209
1.07172
1.0712
1.07042
1.0701
1.06969
1.06911
1.06849
1.06759
1.06701
1.0665
1.06615
1.06574
1.06488
1.06429
1.06367
1.06265
1.0618
1.06073
1.05905
1.05703
1.05519
1.05344
1.05181
1.05059
1.04928
1.04831
1.04849
1.04898
1.04956
1.05049
1.05194
1.05385
1.05618
1.05932
1.06344
1.06872
1.07611
1.08592
1.09697
1.10947
1.12395
1.13758
1.1481
1.14709
1.14616
1.14555
1.14482
1.14365
1.14243
1.14183
1.141
1.13992
1.13924
1.1384
1.13718
1.13631
1.13552
1.13431
1.13327
1.1325
1.13137
1.13012
1.12932
1.12833
1.12697
1.12601
1.12523
1.12397
1.12275
1.12193
1.12079
1.11951
1.11877
1.11794
1.11661
1.11561
1.11481
1.1136
1.11259
1.11188
1.11082
1.10951
1.10877
1.10793
1.10677
1.10596
1.10519
1.10404
1.10303
1.10246
1.10162
1.10052
1.09994
1.09928
1.09822
1.09755
1.097
1.09594
1.09505
1.09455
1.09367
1.09254
1.09192
1.09114
1.09007
1.08945
1.08899
1.08809
1.07845
1.08726
)
;
    }
    procBoundary21to36
    {
        type            processor;
        value           nonuniform List<scalar> 8(1.09772 1.11723 1.1297 1.14113 1.14994 1.15666 1.16244 1.16979);
    }
}


// ************************************************************************* //
