/*--------------------------------*- C++ -*----------------------------------*\
  =========                 |
  \\      /  F ield         | OpenFOAM: The Open Source CFD Toolbox
   \\    /   O peration     | Website:  https://openfoam.org
    \\  /    A nd           | Version:  7
     \\/     M anipulation  |
\*---------------------------------------------------------------------------*/
FoamFile
{
    version     2.0;
    format      ascii;
    class       volVectorField;
    location    "16.5";
    object      U;
}
// * * * * * * * * * * * * * * * * * * * * * * * * * * * * * * * * * * * * * //

dimensions      [0 1 -1 0 0 0 0];

internalField   nonuniform List<vector> 
135168
(
(2 -1.50921e-17 0)
(2 -2.88589e-17 0)
(2 -4.03639e-17 0)
(2 -1.87794e-17 0)
(2 3.11861e-17 0)
(2 1.31812e-16 0)
(2 1.04991e-16 0)
(2 2.29887e-17 0)
(2 -8.64768e-17 0)
(2 -2.28134e-16 0)
(2 -3.31987e-16 0)
(2 -3.76416e-16 0)
(2 -2.61069e-16 0)
(2 -2.66738e-16 0)
(2 -2.17606e-16 0)
(2 -1.14474e-16 0)
(2 -3.82482e-17 0)
(2 -4.16387e-17 0)
(2 -7.33126e-17 0)
(2 1.25961e-16 0)
(2 2.03148e-16 0)
(2 2.85764e-16 0)
(2 5.59504e-16 0)
(2 6.96849e-16 0)
(2 7.34821e-16 0)
(2 7.63103e-16 0)
(2 8.29182e-16 0)
(2 7.27173e-16 0)
(2 6.4958e-16 0)
(2 7.4042e-16 0)
(2 2.09779e-16 0)
(2 -1.07351e-16 0)
(2 -2.77913e-16 0)
(2 -2.7272e-16 0)
(2 -2.46709e-16 0)
(2 -1.59534e-16 0)
(2 -9.74938e-17 0)
(2 8.11167e-18 0)
(2 8.5812e-17 0)
(2 1.44938e-16 0)
(2 2.12915e-16 0)
(2 3.22491e-16 0)
(2 3.9613e-16 0)
(2 4.06388e-16 0)
(2 3.44248e-16 0)
(2 2.95555e-16 0)
(2 8.15062e-17 0)
(2 -1.05273e-16 0)
(2 1.40798e-16 0)
(2 2.41236e-16 0)
(2 2.73459e-16 0)
(2 1.32412e-16 0)
(2 -3.25739e-16 0)
(2 -6.74677e-16 0)
(2 -8.24077e-16 0)
(2 -7.49431e-16 0)
(2 -7.3413e-16 0)
(2 -7.34846e-16 0)
(2 -8.96961e-16 0)
(2 -1.04219e-15 0)
(2 -1.33597e-15 0)
(2 -1.4987e-15 0)
(2 -1.72165e-15 0)
(2 -1.78297e-15 0)
(2 -1.54964e-15 0)
(2 -1.3458e-15 0)
(2 -9.75169e-16 0)
(2 -5.58988e-16 0)
(2 -3.72909e-16 0)
(2 -4.83756e-17 0)
(2 9.58865e-17 0)
(2 3.0434e-16 0)
(2 2.90718e-16 0)
(2 2.34062e-16 0)
(2 2.04007e-16 0)
(2 2.19243e-16 0)
(2 4.89433e-16 0)
(2 7.93436e-16 0)
(2 1.12569e-15 0)
(2 1.30586e-15 0)
(2 1.4224e-15 0)
(2 1.43156e-15 0)
(2 1.48717e-15 0)
(2 1.59345e-15 0)
(2 1.73943e-15 0)
(2 1.73772e-15 0)
(2 1.6083e-15 0)
(2 1.38159e-15 0)
(2 1.35024e-15 0)
(2 1.27559e-15 0)
(2 1.242e-15 0)
(2 1.15608e-15 0)
(2 8.21495e-16 0)
(2 2.55877e-16 0)
(2 1.41807e-16 0)
(2 6.71186e-16 0)
(2 9.37023e-16 0)
(2 7.84986e-16 0)
(2 5.04474e-16 0)
(2 2.51756e-16 0)
(2 -3.73621e-17 0)
(2 -1.72693e-16 0)
(2 -3.36629e-16 0)
(2 -4.46878e-16 0)
(2 -6.23811e-16 0)
(2 -7.13667e-16 0)
(2 -5.93684e-16 0)
(2 -5.01181e-16 0)
(2 -3.23696e-16 0)
(2 -4.26584e-17 0)
(2 3.79702e-17 0)
(2 2.23467e-16 0)
(2 2.13306e-16 0)
(2 2.23334e-16 0)
(2 2.38212e-16 0)
(2 1.00198e-16 0)
(2 -1.56101e-16 0)
(2 -3.70755e-16 0)
(2 -5.26931e-16 0)
(2 -5.7897e-16 0)
(2 -7.02627e-16 0)
(2 -7.56925e-16 0)
(2 -6.49567e-16 0)
(2 -4.76015e-16 0)
(2 -5.06939e-16 0)
(2 -4.31039e-16 0)
(2 -4.94066e-16 0)
(2 -7.13401e-16 0)
(2 -7.583e-16 0)
(2 -1.24887e-15 0)
(2 -1.67342e-15 0)
(2 -2.3082e-15 0)
(2 -2.61638e-15 0)
(2 -2.89256e-15 0)
(2 -3.11349e-15 0)
(2 -3.09937e-15 0)
(2 -3.02966e-15 0)
(2 -3.05363e-15 0)
(2 -2.90077e-15 0)
(2 -1.93243e-15 0)
(2 -1.52729e-15 0)
(2 -1.34733e-15 0)
(2 -9.55554e-16 0)
(2 -7.88473e-16 0)
(2 -5.74748e-16 0)
(2 -9.81505e-17 0)
(2 8.83616e-16 0)
(2 1.17544e-15 0)
(2 1.41289e-15 0)
(2 1.40915e-15 0)
(2 1.38216e-15 0)
(2 1.2976e-15 0)
(2 1.18394e-15 0)
(2 9.41488e-16 0)
(2 6.99282e-16 0)
(2 6.9747e-16 0)
(2 6.68074e-16 0)
(2 3.42953e-16 0)
(2 -2.44866e-16 0)
(2 -5.13988e-16 0)
(2 -5.05623e-16 0)
(2 -4.62846e-16 0)
(2 -4.00902e-16 0)
(2 -4.41281e-16 0)
(2 -5.22571e-16 0)
(2 -5.68157e-16 0)
(2 -5.38561e-16 0)
(2 -5.52554e-16 0)
(2 -6.29225e-16 0)
(2 -6.67169e-16 0)
(2 -7.05624e-16 0)
(2 -4.34471e-16 0)
(2 -3.58907e-16 0)
(2 -4.62388e-16 0)
(2 -1.98233e-16 0)
(2 2.66675e-16 0)
(2 4.48049e-16 0)
(2 9.98868e-16 0)
(2 1.50385e-15 0)
(2 1.60739e-15 0)
(2 1.6382e-15 0)
(2 1.42779e-15 0)
(2 1.26985e-15 0)
(2 1.15115e-15 0)
(2 1.07767e-15 0)
(2 9.39009e-16 0)
(2 7.18052e-16 0)
(2 5.21354e-16 0)
(2 5.77441e-16 0)
(2 8.48372e-16 0)
(2 1.06657e-15 0)
(2 1.3994e-15 0)
(2 1.66069e-15 0)
(2 1.93101e-15 0)
(2 2.24529e-15 0)
(2 1.68045e-15 0)
(2 1.18159e-15 0)
(2 9.26774e-16 0)
(2 7.40913e-16 0)
(2 5.59182e-16 0)
(2 1.07341e-15 0)
(2 1.6713e-15 0)
(2 1.79543e-15 0)
(2 1.88776e-15 0)
(2 1.85736e-15 0)
(2 1.72275e-15 0)
(2 1.66672e-15 0)
(2 1.71991e-15 0)
(2 1.34332e-15 0)
(2 1.23279e-15 0)
(2 1.15014e-15 0)
(2 1.18793e-15 0)
(2 1.25074e-15 0)
(2 1.43993e-15 0)
(2 1.63335e-15 0)
(2 1.47012e-15 0)
(2 1.47187e-15 0)
(2 1.34956e-15 0)
(2 1.33128e-15 0)
(2 1.40194e-15 0)
(2 1.18517e-15 0)
(2 8.29007e-16 0)
(2 7.76683e-16 0)
(2 9.96849e-16 0)
(2 1.04137e-15 0)
(2 9.74425e-16 0)
(2 9.37742e-16 0)
(2 9.68112e-16 0)
(2 1.22801e-15 0)
(2 1.49942e-15 0)
(2 1.53658e-15 0)
(2 1.47731e-15 0)
(2 1.42215e-15 0)
(2 1.04386e-15 0)
(2 7.99144e-16 0)
(2 7.41146e-16 0)
(2 6.99716e-16 0)
(2 5.10901e-16 0)
(2 -8.8375e-18 0)
(2 7.81155e-17 0)
(2 1.48625e-16 0)
(2 6.62804e-17 0)
(2 -1.95108e-16 0)
(2 -3.72423e-16 0)
(2 -1.01612e-16 0)
(2 2.55761e-16 0)
(2 4.69e-16 0)
(2 9.11076e-16 0)
(2 1.17642e-15 0)
(2 1.43987e-15 0)
(2 1.71648e-15 0)
(2 1.83096e-15 0)
(2 1.94967e-15 0)
(2 1.94949e-15 0)
(2 1.90846e-15 0)
(2 1.76399e-15 0)
(2 1.5883e-15 0)
(2 1.57035e-15 0)
(2 1.37246e-15 0)
(2 1.25844e-15 0)
(2 1.194e-15 0)
(2 1.21546e-15 0)
(2 1.5883e-15 0)
(2 1.80449e-15 0)
(2 1.77661e-15 0)
(2 1.45693e-15 0)
(2 1.20787e-15 0)
(2 5.83369e-16 0)
(2 -2.21549e-16 0)
(2 -3.402e-16 0)
(2 -5.43079e-16 0)
(2 -5.4728e-16 0)
(2 -5.47159e-16 0)
(2 -5.43343e-16 0)
(2 -4.89933e-16 0)
(2 -5.54355e-16 0)
(2 -7.80621e-16 0)
(2 -6.84542e-16 0)
(2 -3.99407e-16 0)
(2 -1.84978e-16 0)
(2 -4.06838e-17 0)
(2 2.47952e-16 0)
(2 6.33027e-16 0)
(2 6.89776e-16 0)
(2 6.8334e-16 0)
(2 7.09596e-16 0)
(2 8.07374e-16 0)
(2 6.15773e-16 0)
(2 5.32989e-16 0)
(2 7.43116e-16 0)
(2 3.33634e-16 0)
(2 1.05764e-16 0)
(2 5.97985e-17 0)
(2 1.49436e-17 0)
(2 -1.01754e-16 0)
(2 -9.51971e-17 0)
(2 -1.6552e-16 0)
(2 -2.96269e-16 0)
(2 -6.72246e-16 0)
(2 -1.02071e-15 0)
(2 -4.95099e-16 0)
(2 -2.01753e-16 0)
(2 -1.56634e-16 0)
(2 1.00181e-16 0)
(2 6.82944e-16 0)
(2 9.11814e-16 0)
(2 5.84631e-16 0)
(2 2.60589e-16 0)
(2 2.16904e-16 0)
(2 1.44168e-16 0)
(2 9.88229e-17 0)
(2 -9.34663e-17 0)
(2 -2.47754e-16 0)
(2 -2.65285e-16 0)
(2 -1.68828e-16 0)
(2 -9.04542e-18 0)
(2 8.23344e-17 0)
(2 -1.28589e-16 0)
(2 -7.72418e-16 0)
(2 -8.1792e-16 0)
(2 -8.0861e-16 0)
(2 -9.48715e-16 0)
(2 -7.14503e-16 0)
(2 -5.74709e-16 0)
(2 -3.9616e-16 0)
(2 -1.24448e-16 0)
(2 8.79108e-17 0)
(2 2.49107e-16 0)
(2 3.11623e-16 0)
(2 4.93626e-16 0)
(2 7.13337e-16 0)
(2 8.14377e-16 0)
(2 6.51904e-16 0)
(2 8.92218e-16 0)
(2 1.44953e-15 0)
(2 1.5833e-15 0)
(2 1.76583e-15 0)
(2 1.70597e-15 0)
(2 1.36908e-15 0)
(2 1.19372e-15 0)
(2 7.52522e-16 0)
(2 4.69164e-16 0)
(2 2.314e-16 0)
(2 -1.7473e-16 0)
(2 -4.91232e-16 0)
(2 -5.4183e-16 0)
(2 -4.81907e-16 0)
(2 -3.48955e-16 0)
(2 -4.92804e-16 0)
(2 -8.22416e-16 0)
(2 -8.84689e-16 0)
(2 -5.15557e-16 0)
(2 -2.61577e-16 0)
(2 -2.57376e-16 0)
(2 -2.25882e-16 0)
(2 -1.93097e-16 0)
(2 -2.98292e-16 0)
(2 -4.05457e-16 0)
(2 -8.53957e-17 0)
(2 9.84272e-17 0)
(2 3.66189e-16 0)
(2 3.37497e-16 0)
(2 2.0161e-16 0)
(2 -1.34655e-16 0)
(2 -6.40869e-16 0)
(2 -8.2028e-16 0)
(2 -1.07253e-15 0)
(2 -1.42967e-15 0)
(2 -1.8284e-15 0)
(2 -1.87648e-15 0)
(2 -1.85021e-15 0)
(2 -1.84569e-15 0)
(2 -1.91311e-15 0)
(2 -1.75004e-15 0)
(2 -1.65778e-15 0)
(2 -1.64068e-15 0)
(2 -1.66521e-15 0)
(2 -1.59013e-15 0)
(2 -1.53617e-15 0)
(2 -1.50896e-15 0)
(2 -1.50352e-15 0)
(2 -1.47434e-15 0)
(2 -1.36691e-15 0)
(2 -1.28746e-15 0)
(2 1.78193e-17 0)
(2 -7.95853e-18 0)
(2 -1.54909e-17 0)
(2 -4.81284e-18 0)
(2 4.2982e-17 0)
(2 1.11256e-16 0)
(2 2.11892e-16 0)
(2 3.06628e-16 0)
(2 3.45019e-16 0)
(2 3.85052e-16 0)
(2 4.54915e-16 0)
(2 5.55209e-16 0)
(2 6.48195e-16 0)
(2 6.88968e-16 0)
(2 1.04318e-15 0)
(2 1.24409e-15 0)
(2 1.1951e-15 0)
(2 1.19208e-15 0)
(2 1.00866e-15 0)
(2 8.45409e-16 0)
(2 9.2875e-16 0)
(2 1.04673e-15 0)
(2 1.12806e-15 0)
(2 1.13179e-15 0)
(2 1.1881e-15 0)
(2 1.0394e-15 0)
(2 8.88619e-16 0)
(2 8.03835e-16 0)
(2 3.25874e-16 0)
(2 1.43574e-16 0)
(2 -1.44799e-16 0)
(2 -6.61424e-16 0)
(2 -9.8771e-16 0)
(2 -1.01935e-15 0)
(2 -8.23406e-16 0)
(2 -6.1549e-16 0)
(2 -2.33569e-16 0)
(2 4.61445e-16 0)
(2 7.14249e-16 0)
(2 8.38088e-16 0)
(2 9.40063e-16 0)
(2 9.37793e-16 0)
(2 7.6424e-16 0)
(2 7.89732e-16 0)
(2 9.35657e-16 0)
(2 9.01873e-16 0)
(2 8.10508e-16 0)
(2 6.78597e-16 0)
(2 9.40291e-17 0)
(2 -2.4316e-16 0)
(2 -4.86502e-16 0)
(2 -9.58708e-16 0)
(2 -1.5463e-15 0)
(2 -1.84399e-15 0)
(2 -1.96583e-15 0)
(2 -2.08732e-15 0)
(2 -2.03854e-15 0)
(2 -1.82023e-15 0)
(2 -1.85004e-15 0)
(2 -2.004e-15 0)
(2 -2.0248e-15 0)
(2 -1.9412e-15 0)
(2 -1.82955e-15 0)
(2 -1.849e-15 0)
(2 -1.58759e-15 0)
(2 -6.57457e-16 0)
(2 -8.78268e-17 0)
(2 -5.73816e-17 0)
(2 7.73343e-17 0)
(2 5.26597e-16 0)
(2 8.98026e-16 0)
(2 9.28233e-16 0)
(2 8.28981e-16 0)
(2 5.11882e-16 0)
(2 4.45389e-16 0)
(2 4.729e-16 0)
(2 7.69906e-16 0)
(2 1.66762e-15 0)
(2 1.8899e-15 0)
(2 1.97435e-15 0)
(2 1.98043e-15 0)
(2 2.02424e-15 0)
(2 2.02574e-15 0)
(2 2.02384e-15 0)
(2 1.839e-15 0)
(2 1.84811e-15 0)
(2 1.53953e-15 0)
(2 8.50283e-16 0)
(2 7.23774e-16 0)
(2 4.18483e-16 0)
(2 1.18992e-16 0)
(2 1.90895e-16 0)
(2 -7.61903e-17 0)
(2 -2.01125e-16 0)
(2 -1.49028e-16 0)
(2 -1.31587e-16 0)
(2 -1.96711e-16 0)
(2 -8.33575e-17 0)
(2 -3.26985e-16 0)
(2 -1.05132e-15 0)
(2 -1.59501e-15 0)
(2 -2.30818e-15 0)
(2 -2.92706e-15 0)
(2 -2.82178e-15 0)
(2 -2.63929e-15 0)
(2 -2.36012e-15 0)
(2 -2.32321e-15 0)
(2 -1.26131e-15 0)
(2 -7.64073e-16 0)
(2 -3.69053e-16 0)
(2 -3.31161e-16 0)
(2 -1.3447e-16 0)
(2 -6.78482e-17 0)
(2 1.1645e-16 0)
(2 4.38854e-16 0)
(2 4.42809e-16 0)
(2 1.20707e-16 0)
(2 -5.63819e-16 0)
(2 -9.04307e-16 0)
(2 -8.99302e-16 0)
(2 -1.07753e-15 0)
(2 -1.1919e-15 0)
(2 -1.11112e-15 0)
(2 -7.41971e-16 0)
(2 -8.55239e-16 0)
(2 -9.83268e-16 0)
(2 -1.14876e-15 0)
(2 -1.3259e-15 0)
(2 -1.60619e-15 0)
(2 -1.88954e-15 0)
(2 -2.18062e-15 0)
(2 -2.75235e-15 0)
(2 -3.297e-15 0)
(2 -3.52091e-15 0)
(2 -3.57624e-15 0)
(2 -3.61017e-15 0)
(2 -3.50015e-15 0)
(2 -3.43707e-15 0)
(2 -3.27133e-15 0)
(2 -2.72147e-15 0)
(2 -2.32892e-15 0)
(2 -1.63453e-15 0)
(2 -1.34252e-15 0)
(2 -9.15105e-16 0)
(2 -7.61845e-16 0)
(2 -1.29939e-16 0)
(2 2.70709e-16 0)
(2 5.19269e-16 0)
(2 6.87257e-16 0)
(2 8.25682e-16 0)
(2 9.32812e-16 0)
(2 8.40865e-16 0)
(2 6.1686e-16 0)
(2 3.24622e-16 0)
(2 8.61704e-18 0)
(2 -1.27441e-16 0)
(2 -2.09992e-16 0)
(2 -5.14301e-16 0)
(2 -7.39568e-16 0)
(2 -1.26358e-15 0)
(2 -1.21303e-15 0)
(2 -1.14364e-15 0)
(2 -1.21442e-15 0)
(2 -1.40955e-15 0)
(2 -1.19191e-15 0)
(2 -9.29013e-16 0)
(2 -8.94676e-16 0)
(2 -8.79818e-16 0)
(2 -8.3088e-16 0)
(2 -5.95823e-16 0)
(2 -1.83012e-16 0)
(2 4.78023e-16 0)
(2 7.47693e-16 0)
(2 9.55293e-16 0)
(2 7.81745e-16 0)
(2 7.21662e-16 0)
(2 9.3108e-16 0)
(2 1.43103e-15 0)
(2 1.56919e-15 0)
(2 1.75807e-15 0)
(2 1.72417e-15 0)
(2 1.62684e-15 0)
(2 1.40575e-15 0)
(2 1.38348e-15 0)
(2 1.51552e-15 0)
(2 1.7718e-15 0)
(2 1.9798e-15 0)
(2 2.23269e-15 0)
(2 2.63586e-15 0)
(2 3.35876e-15 0)
(2 3.43186e-15 0)
(2 3.33674e-15 0)
(2 3.52152e-15 0)
(2 3.58444e-15 0)
(2 3.48947e-15 0)
(2 3.42803e-15 0)
(2 2.93932e-15 0)
(2 2.60947e-15 0)
(2 2.39957e-15 0)
(2 2.48057e-15 0)
(2 2.67937e-15 0)
(2 2.97783e-15 0)
(2 3.06616e-15 0)
(2 3.08519e-15 0)
(2 3.11432e-15 0)
(2 3.16591e-15 0)
(2 3.75939e-15 0)
(2 3.99196e-15 0)
(2 3.99591e-15 0)
(2 4.17692e-15 0)
(2 4.07107e-15 0)
(2 3.59001e-15 0)
(2 3.44638e-15 0)
(2 3.2296e-15 0)
(2 3.10775e-15 0)
(2 2.97867e-15 0)
(2 3.16997e-15 0)
(2 3.49227e-15 0)
(2 3.52525e-15 0)
(2 3.5126e-15 0)
(2 3.30574e-15 0)
(2 3.04764e-15 0)
(2 2.8053e-15 0)
(2 2.55183e-15 0)
(2 2.50063e-15 0)
(2 2.48009e-15 0)
(2 2.85665e-15 0)
(2 3.09899e-15 0)
(2 2.94436e-15 0)
(2 2.20986e-15 0)
(2 2.16855e-15 0)
(2 1.9166e-15 0)
(2 1.68339e-15 0)
(2 1.12749e-15 0)
(2 8.09509e-16 0)
(2 6.83624e-16 0)
(2 6.5969e-16 0)
(2 6.02742e-16 0)
(2 4.61611e-16 0)
(2 5.02136e-16 0)
(2 4.91778e-16 0)
(2 4.53429e-16 0)
(2 5.50727e-16 0)
(2 7.1675e-16 0)
(2 7.67519e-16 0)
(2 7.59856e-16 0)
(2 1.0467e-15 0)
(2 1.14134e-15 0)
(2 1.11267e-15 0)
(2 1.04771e-15 0)
(2 1.09691e-15 0)
(2 1.17452e-15 0)
(2 1.27143e-15 0)
(2 1.33839e-15 0)
(2 1.39872e-15 0)
(2 1.41106e-15 0)
(2 1.37226e-15 0)
(2 1.35043e-15 0)
(2 1.6308e-15 0)
(2 1.74443e-15 0)
(2 1.92394e-15 0)
(2 1.7224e-15 0)
(2 1.52021e-15 0)
(2 1.26422e-15 0)
(2 1.26523e-15 0)
(2 1.02076e-15 0)
(2 3.70442e-16 0)
(2 -1.03989e-16 0)
(2 -5.07287e-16 0)
(2 -4.82049e-16 0)
(2 -1.21545e-16 0)
(2 1.03953e-16 0)
(2 1.71375e-16 0)
(2 -3.20355e-16 0)
(2 -5.54789e-16 0)
(2 -3.83546e-16 0)
(2 -4.17217e-16 0)
(2 2.58917e-17 0)
(2 4.013e-16 0)
(2 5.87082e-16 0)
(2 3.3334e-16 0)
(2 2.10071e-17 0)
(2 5.47858e-16 0)
(2 9.10138e-16 0)
(2 9.34637e-16 0)
(2 8.68829e-16 0)
(2 8.18777e-16 0)
(2 9.19099e-16 0)
(2 9.12619e-16 0)
(2 8.91946e-16 0)
(2 1.04784e-15 0)
(2 8.58791e-16 0)
(2 4.34938e-16 0)
(2 -1.91476e-16 0)
(2 -4.15247e-16 0)
(2 -5.29418e-16 0)
(2 -6.09325e-16 0)
(2 -7.02083e-16 0)
(2 -6.37012e-16 0)
(2 -6.03044e-16 0)
(2 -3.75917e-16 0)
(2 -3.4749e-16 0)
(2 -2.71706e-16 0)
(2 -1.30294e-16 0)
(2 5.14604e-16 0)
(2 1.03194e-15 0)
(2 1.09385e-15 0)
(2 8.1396e-16 0)
(2 9.46796e-16 0)
(2 1.12348e-15 0)
(2 9.96713e-16 0)
(2 8.65106e-16 0)
(2 6.56531e-16 0)
(2 4.98396e-16 0)
(2 5.05417e-16 0)
(2 7.68862e-16 0)
(2 7.09993e-16 0)
(2 6.34322e-16 0)
(2 3.15494e-16 0)
(2 1.23172e-16 0)
(2 1.00028e-16 0)
(2 -1.71608e-18 0)
(2 5.07773e-17 0)
(2 2.34809e-16 0)
(2 2.55024e-16 0)
(2 1.89774e-16 0)
(2 1.95192e-17 0)
(2 -1.5588e-16 0)
(2 -3.99896e-16 0)
(2 -4.97144e-16 0)
(2 -1.0433e-15 0)
(2 -1.57209e-15 0)
(2 -1.50892e-15 0)
(2 -1.17834e-15 0)
(2 -5.17787e-16 0)
(2 4.959e-17 0)
(2 6.97327e-16 0)
(2 1.02529e-15 0)
(2 9.89985e-16 0)
(2 7.40456e-16 0)
(2 7.19062e-16 0)
(2 9.93321e-16 0)
(2 1.22035e-15 0)
(2 6.28701e-16 0)
(2 5.04807e-16 0)
(2 4.51907e-16 0)
(2 5.80744e-16 0)
(2 6.18588e-16 0)
(2 6.1001e-16 0)
(2 6.13129e-16 0)
(2 5.97943e-16 0)
(2 6.27395e-16 0)
(2 1.02342e-15 0)
(2 1.43126e-15 0)
(2 1.64319e-15 0)
(2 1.53412e-15 0)
(2 1.43458e-15 0)
(2 8.97703e-16 0)
(2 5.44376e-16 0)
(2 2.15451e-16 0)
(2 8.4126e-16 0)
(2 9.37907e-16 0)
(2 7.93691e-16 0)
(2 1.27142e-16 0)
(2 -1.84554e-17 0)
(2 -5.45611e-17 0)
(2 -7.48721e-17 0)
(2 -3.41967e-16 0)
(2 -1.27104e-15 0)
(2 -2.05951e-15 0)
(2 -2.41815e-15 0)
(2 -2.53646e-15 0)
(2 -2.7076e-15 0)
(2 -2.77353e-15 0)
(2 -2.73275e-15 0)
(2 -2.55837e-15 0)
(2 -2.14137e-15 0)
(2 -1.91882e-15 0)
(2 -1.64008e-15 0)
(2 -1.64601e-15 0)
(2 -1.72852e-15 0)
(2 -1.92207e-15 0)
(2 -2.02492e-15 0)
(2 -1.98396e-15 0)
(2 -9.76556e-18 0)
(2 5.88013e-18 0)
(2 -1.89334e-17 0)
(2 -8.75495e-17 0)
(2 -2.388e-16 0)
(2 -4.03704e-16 0)
(2 -4.00139e-16 0)
(2 -1.20439e-16 0)
(2 -1.57456e-16 0)
(2 -1.1011e-16 0)
(2 -3.17433e-17 0)
(2 -1.09838e-16 0)
(2 -1.58317e-16 0)
(2 -2.14846e-16 0)
(2 -3.09536e-16 0)
(2 -3.44456e-16 0)
(2 -2.87592e-16 0)
(2 -3.00262e-16 0)
(2 -1.06102e-16 0)
(2 -4.84757e-17 0)
(2 -1.23598e-17 0)
(2 -3.09328e-17 0)
(2 -5.6398e-17 0)
(2 -8.07125e-17 0)
(2 -1.43282e-16 0)
(2 -2.2175e-16 0)
(2 -3.06219e-16 0)
(2 -2.55542e-16 0)
(2 -2.53972e-16 0)
(2 -2.81668e-16 0)
(2 -4.31276e-16 0)
(2 -7.09528e-16 0)
(2 -9.09548e-16 0)
(2 -1.02957e-15 0)
(2 -1.13393e-15 0)
(2 -8.73493e-16 0)
(2 -6.17694e-16 0)
(2 8.12356e-17 0)
(2 2.82556e-16 0)
(2 6.21711e-16 0)
(2 7.66953e-16 0)
(2 8.16094e-16 0)
(2 1.2636e-15 0)
(2 1.77703e-15 0)
(2 1.5127e-15 0)
(2 8.69238e-16 0)
(2 6.14153e-16 0)
(2 1.16944e-16 0)
(2 -2.95518e-16 0)
(2 -6.20571e-16 0)
(2 -7.52987e-16 0)
(2 -8.04832e-16 0)
(2 -8.74398e-16 0)
(2 -1.06341e-15 0)
(2 -1.09815e-15 0)
(2 -1.31844e-15 0)
(2 -1.37329e-15 0)
(2 -1.40283e-15 0)
(2 -1.39995e-15 0)
(2 -1.33159e-15 0)
(2 -1.29607e-15 0)
(2 -1.28243e-15 0)
(2 -1.1878e-15 0)
(2 -8.20625e-16 0)
(2 -5.96842e-16 0)
(2 -4.60048e-16 0)
(2 -8.84203e-16 0)
(2 -1.02387e-15 0)
(2 -1.12858e-15 0)
(2 -1.20919e-15 0)
(2 -1.17793e-15 0)
(2 -1.13868e-15 0)
(2 -9.79428e-16 0)
(2 -6.99973e-16 0)
(2 -6.40444e-16 0)
(2 -8.75576e-16 0)
(2 3.26037e-16 0)
(2 6.07068e-16 0)
(2 7.12352e-16 0)
(2 7.96643e-16 0)
(2 8.95165e-16 0)
(2 8.03422e-16 0)
(2 7.81062e-16 0)
(2 5.26055e-16 0)
(2 4.52163e-16 0)
(2 1.76531e-16 0)
(2 -1.39586e-16 0)
(2 -2.11211e-16 0)
(2 -2.8385e-16 0)
(2 -2.6161e-16 0)
(2 -1.01611e-16 0)
(2 2.81782e-17 0)
(2 1.71324e-16 0)
(2 2.40151e-16 0)
(2 -9.91357e-17 0)
(2 -4.65107e-16 0)
(2 -6.86702e-16 0)
(2 -6.19576e-16 0)
(2 -3.88943e-16 0)
(2 -3.43885e-16 0)
(2 -4.34159e-16 0)
(2 -5.02037e-16 0)
(2 -4.44033e-16 0)
(2 -3.93486e-16 0)
(2 -5.38114e-16 0)
(2 -1.1501e-15 0)
(2 -5.23949e-16 0)
(2 -1.29701e-16 0)
(2 -9.34057e-17 0)
(2 -1.23174e-16 0)
(2 -7.21434e-17 0)
(2 8.86452e-17 0)
(2 1.79998e-16 0)
(2 2.08128e-16 0)
(2 3.13941e-16 0)
(2 6.82939e-16 0)
(2 8.27121e-16 0)
(2 9.44473e-16 0)
(2 6.42192e-16 0)
(2 2.44869e-16 0)
(2 1.39404e-17 0)
(2 -1.39793e-16 0)
(2 -4.5936e-16 0)
(2 -6.23134e-16 0)
(2 -1.00779e-15 0)
(2 -1.10652e-15 0)
(2 -1.34766e-15 0)
(2 -1.54447e-15 0)
(2 -1.70996e-15 0)
(2 -2.07463e-15 0)
(2 -2.32511e-15 0)
(2 -2.47609e-15 0)
(2 -2.6713e-15 0)
(2 -2.64652e-15 0)
(2 -2.5618e-15 0)
(2 -2.4449e-15 0)
(2 -2.32638e-15 0)
(2 -2.19961e-15 0)
(2 -2.06202e-15 0)
(2 -1.84686e-15 0)
(2 -1.65623e-15 0)
(2 -1.48028e-15 0)
(2 -1.35559e-15 0)
(2 -1.04288e-15 0)
(2 -9.35792e-16 0)
(2 -7.97618e-16 0)
(2 -7.33093e-16 0)
(2 -5.58084e-16 0)
(2 -4.22436e-16 0)
(2 -3.31575e-16 0)
(2 -2.59704e-16 0)
(2 -2.20229e-16 0)
(2 -2.85355e-16 0)
(2 -3.34848e-16 0)
(2 -2.18354e-16 0)
(2 -1.02105e-15 0)
(2 -1.6718e-15 0)
(2 -1.94038e-15 0)
(2 -2.25078e-15 0)
(2 -2.36295e-15 0)
(2 -2.75882e-15 0)
(2 -2.93504e-15 0)
(2 -3.03409e-15 0)
(2 -3.41729e-15 0)
(2 -3.19318e-15 0)
(2 -2.71699e-15 0)
(2 -2.26318e-15 0)
(2 -1.74935e-15 0)
(2 -1.59224e-15 0)
(2 -1.21558e-15 0)
(2 -1.02735e-15 0)
(2 -7.53257e-16 0)
(2 -8.03148e-16 0)
(2 -9.75664e-16 0)
(2 -1.09869e-15 0)
(2 -1.31617e-15 0)
(2 -1.52689e-15 0)
(2 -1.73222e-15 0)
(2 -1.81181e-15 0)
(2 -1.75669e-15 0)
(2 -1.56143e-15 0)
(2 -1.30699e-15 0)
(2 -1.08684e-15 0)
(2 -2.94709e-16 0)
(2 -1.7082e-16 0)
(2 1.07163e-16 0)
(2 8.02928e-16 0)
(2 8.85966e-16 0)
(2 1.02292e-15 0)
(2 1.23805e-15 0)
(2 1.55725e-15 0)
(2 1.66419e-15 0)
(2 1.87621e-15 0)
(2 1.96249e-15 0)
(2 2.06621e-15 0)
(2 2.16233e-15 0)
(2 2.34352e-15 0)
(2 2.4131e-15 0)
(2 2.69556e-15 0)
(2 3.11611e-15 0)
(2 3.31296e-15 0)
(2 3.42258e-15 0)
(2 3.44627e-15 0)
(2 3.24511e-15 0)
(2 3.04093e-15 0)
(2 3.20213e-15 0)
(2 3.77598e-15 0)
(2 4.01347e-15 0)
(2 4.34869e-15 0)
(2 4.55374e-15 0)
(2 4.94354e-15 0)
(2 5.11716e-15 0)
(2 4.83214e-15 0)
(2 4.60186e-15 0)
(2 4.65906e-15 0)
(2 4.69794e-15 0)
(2 4.7848e-15 0)
(2 4.91088e-15 0)
(2 5.40139e-15 0)
(2 6.00543e-15 0)
(2 6.21882e-15 0)
(2 6.37896e-15 0)
(2 6.42999e-15 0)
(2 5.57777e-15 0)
(2 5.29361e-15 0)
(2 5.00458e-15 0)
(2 5.04709e-15 0)
(2 5.13286e-15 0)
(2 4.9513e-15 0)
(2 4.5976e-15 0)
(2 4.03597e-15 0)
(2 4.05972e-15 0)
(2 3.75835e-15 0)
(2 3.1338e-15 0)
(2 2.87918e-15 0)
(2 2.40364e-15 0)
(2 2.26915e-15 0)
(2 2.51389e-15 0)
(2 2.7763e-15 0)
(2 2.97642e-15 0)
(2 3.07461e-15 0)
(2 3.02415e-15 0)
(2 2.57633e-15 0)
(2 2.3277e-15 0)
(2 1.79579e-15 0)
(2 7.03724e-16 0)
(2 2.27122e-16 0)
(2 9.19713e-17 0)
(2 -1.47026e-16 0)
(2 -4.89767e-16 0)
(2 -6.96128e-16 0)
(2 -7.66669e-16 0)
(2 -9.1036e-16 0)
(2 -9.39567e-16 0)
(2 -8.62546e-16 0)
(2 -6.71119e-16 0)
(2 -6.2277e-16 0)
(2 -4.56092e-16 0)
(2 -3.76491e-16 0)
(2 -1.62083e-16 0)
(2 -3.6261e-17 0)
(2 2.84058e-17 0)
(2 1.18258e-16 0)
(2 5.15152e-16 0)
(2 4.555e-16 0)
(2 5.0027e-16 0)
(2 1.178e-15 0)
(2 1.21642e-15 0)
(2 1.45952e-15 0)
(2 1.6038e-15 0)
(2 1.88892e-15 0)
(2 1.96087e-15 0)
(2 1.85187e-15 0)
(2 1.57097e-15 0)
(2 1.20576e-15 0)
(2 1.288e-15 0)
(2 2.18251e-15 0)
(2 2.37303e-15 0)
(2 2.38367e-15 0)
(2 2.2289e-15 0)
(2 2.03428e-15 0)
(2 1.68769e-15 0)
(2 1.22404e-15 0)
(2 2.02359e-15 0)
(2 2.55991e-15 0)
(2 2.50604e-15 0)
(2 2.38164e-15 0)
(2 2.54213e-15 0)
(2 3.31252e-15 0)
(2 3.3305e-15 0)
(2 2.78629e-15 0)
(2 2.32813e-15 0)
(2 1.24055e-15 0)
(2 -8.23963e-18 0)
(2 -1.34078e-16 0)
(2 -3.62825e-16 0)
(2 -5.81623e-16 0)
(2 -7.53314e-16 0)
(2 -8.41147e-16 0)
(2 -8.95374e-16 0)
(2 -7.6693e-16 0)
(2 -2.06546e-16 0)
(2 8.78766e-17 0)
(2 3.58778e-16 0)
(2 5.24233e-16 0)
(2 6.34838e-16 0)
(2 1.37024e-15 0)
(2 1.57368e-15 0)
(2 1.86577e-15 0)
(2 1.8737e-15 0)
(2 1.87744e-15 0)
(2 1.76024e-15 0)
(2 1.28478e-15 0)
(2 1.12529e-15 0)
(2 1.0355e-15 0)
(2 9.65465e-16 0)
(2 6.34975e-16 0)
(2 4.4607e-16 0)
(2 4.13345e-16 0)
(2 -9.83913e-17 0)
(2 -5.68555e-16 0)
(2 -7.85235e-16 0)
(2 -9.86857e-16 0)
(2 -9.80453e-16 0)
(2 -9.64052e-16 0)
(2 -1.02522e-15 0)
(2 -1.36509e-15 0)
(2 -1.62404e-15 0)
(2 -2.21037e-15 0)
(2 -2.44301e-15 0)
(2 -2.59327e-15 0)
(2 -2.42168e-15 0)
(2 -2.56979e-15 0)
(2 -1.99287e-15 0)
(2 -1.58444e-15 0)
(2 -9.55396e-16 0)
(2 -5.67774e-16 0)
(2 -2.45865e-16 0)
(2 -1.32234e-16 0)
(2 -4.6389e-17 0)
(2 3.43145e-16 0)
(2 3.63989e-16 0)
(2 1.47213e-16 0)
(2 2.08262e-17 0)
(2 -1.50826e-17 0)
(2 -8.57659e-17 0)
(2 -2.74686e-16 0)
(2 -3.96031e-16 0)
(2 -2.31139e-16 0)
(2 1.20412e-17 0)
(2 -2.34345e-16 0)
(2 -6.77893e-16 0)
(2 -8.5755e-16 0)
(2 -1.23275e-15 0)
(2 -1.31882e-15 0)
(2 -1.19717e-15 0)
(2 -9.88984e-16 0)
(2 -9.16557e-16 0)
(2 -9.61457e-16 0)
(2 -9.07112e-16 0)
(2 -1.14167e-15 0)
(2 -6.95683e-16 0)
(2 -4.00984e-16 0)
(2 2.5983e-16 0)
(2 5.8519e-16 0)
(2 5.23038e-16 0)
(2 3.142e-16 0)
(2 5.84082e-17 0)
(2 -1.15918e-15 0)
(2 -1.48347e-15 0)
(2 -1.6904e-15 0)
(2 -2.0686e-15 0)
(2 -2.25565e-15 0)
(2 -2.27242e-15 0)
(2 -1.99755e-15 0)
(2 -1.72825e-15 0)
(2 -1.3882e-15 0)
(2 -9.35075e-16 0)
(2 -7.68241e-16 0)
(2 -8.59631e-16 0)
(2 -9.18624e-16 0)
(2 -1.06359e-15 0)
(2 -1.19406e-15 0)
(2 -1.45815e-15 0)
(2 -1.17111e-17 0)
(2 -1.39234e-17 0)
(2 -3.89935e-17 0)
(2 -2.59002e-17 0)
(2 -8.72658e-17 0)
(2 -6.09293e-17 0)
(2 -3.97842e-16 0)
(2 -7.61121e-16 0)
(2 -7.80909e-16 0)
(2 -1.00255e-15 0)
(2 -1.07611e-15 0)
(2 -1.09576e-15 0)
(2 -1.1714e-15 0)
(2 -1.5619e-15 0)
(2 -1.7931e-15 0)
(2 -1.91911e-15 0)
(2 -1.91956e-15 0)
(2 -1.77246e-15 0)
(2 -1.64106e-15 0)
(2 -1.47178e-15 0)
(2 -1.42214e-15 0)
(2 -1.34737e-15 0)
(2 -1.28822e-15 0)
(2 -1.07601e-15 0)
(2 -7.74522e-16 0)
(2 -3.90419e-16 0)
(2 2.55997e-17 0)
(2 5.63002e-16 0)
(2 6.51618e-16 0)
(2 4.93861e-16 0)
(2 4.70648e-16 0)
(2 2.73033e-16 0)
(2 7.90865e-17 0)
(2 3.08076e-16 0)
(2 7.52167e-16 0)
(2 8.92471e-16 0)
(2 9.20974e-16 0)
(2 7.5221e-16 0)
(2 6.15125e-16 0)
(2 6.63246e-16 0)
(2 9.70887e-16 0)
(2 1.09668e-15 0)
(2 1.44724e-15 0)
(2 1.47681e-15 0)
(2 1.28641e-15 0)
(2 1.0332e-15 0)
(2 7.30597e-16 0)
(2 5.98185e-16 0)
(2 6.71313e-16 0)
(2 6.55476e-16 0)
(2 3.37758e-16 0)
(2 2.43576e-16 0)
(2 2.04554e-16 0)
(2 1.50808e-16 0)
(2 1.46977e-16 0)
(2 1.24791e-16 0)
(2 4.19061e-17 0)
(2 -1.21543e-16 0)
(2 2.51457e-16 0)
(2 2.26968e-16 0)
(2 -9.24461e-17 0)
(2 -4.33891e-16 0)
(2 -8.35692e-16 0)
(2 -8.64224e-16 0)
(2 -9.76404e-16 0)
(2 -1.2976e-15 0)
(2 -1.81598e-15 0)
(2 -1.9805e-15 0)
(2 -2.0784e-15 0)
(2 -2.07786e-15 0)
(2 -1.86785e-15 0)
(2 -1.79249e-15 0)
(2 -1.56937e-15 0)
(2 -1.23091e-15 0)
(2 -1.17782e-15 0)
(2 -1.16617e-15 0)
(2 -1.22983e-15 0)
(2 -9.19385e-16 0)
(2 -9.10004e-16 0)
(2 -9.87392e-16 0)
(2 -1.04398e-15 0)
(2 -1.17317e-15 0)
(2 -1.30199e-15 0)
(2 -1.47829e-15 0)
(2 -1.62699e-15 0)
(2 -1.84443e-15 0)
(2 -1.72029e-15 0)
(2 -9.32417e-16 0)
(2 -4.45652e-16 0)
(2 -4.10166e-16 0)
(2 -4.71354e-16 0)
(2 -5.54687e-16 0)
(2 -6.00314e-16 0)
(2 -6.87356e-16 0)
(2 -6.83623e-16 0)
(2 -7.04313e-16 0)
(2 -8.03273e-16 0)
(2 -1.06424e-15 0)
(2 -1.08151e-15 0)
(2 -1.04277e-15 0)
(2 -1.21504e-15 0)
(2 -1.20907e-15 0)
(2 -1.15991e-15 0)
(2 -4.97213e-16 0)
(2 -5.29655e-16 0)
(2 -6.83011e-16 0)
(2 -7.94349e-17 0)
(2 5.86492e-16 0)
(2 7.10245e-16 0)
(2 6.71644e-16 0)
(2 6.12652e-16 0)
(2 6.61765e-16 0)
(2 5.73708e-16 0)
(2 5.26429e-16 0)
(2 8.16434e-16 0)
(2 1.08793e-15 0)
(2 1.01565e-15 0)
(2 1.21924e-15 0)
(2 1.34291e-15 0)
(2 1.13388e-15 0)
(2 1.02039e-15 0)
(2 7.64938e-16 0)
(2 7.41805e-16 0)
(2 3.65982e-16 0)
(2 -1.27325e-17 0)
(2 -2.36546e-16 0)
(2 -4.61715e-16 0)
(2 -8.2759e-16 0)
(2 -1.0677e-15 0)
(2 -1.27576e-15 0)
(2 -1.31627e-15 0)
(2 -1.32594e-15 0)
(2 -1.33524e-15 0)
(2 -1.36716e-15 0)
(2 -1.32783e-15 0)
(2 -1.29433e-15 0)
(2 -1.17665e-15 0)
(2 -9.77121e-16 0)
(2 -8.02542e-16 0)
(2 -5.3068e-16 0)
(2 -3.92374e-16 0)
(2 -2.91556e-16 0)
(2 -1.37299e-16 0)
(2 -8.85248e-17 0)
(2 -5.6398e-17 0)
(2 -1.07483e-17 0)
(2 6.50341e-18 0)
(2 1.24489e-17 0)
(2 1.37783e-18 0)
(2 1.95966e-17 0)
(2 3.56095e-17 0)
(2 5.60198e-17 0)
(2 7.69331e-17 0)
(2 1.08164e-16 0)
(2 1.89311e-16 0)
(2 2.25849e-16 0)
(2 2.05115e-16 0)
(2 5.38464e-17 0)
(2 -4.56548e-16 0)
(2 -5.86375e-16 0)
(2 -9.44995e-16 0)
(2 -1.57598e-15 0)
(2 -1.66441e-15 0)
(2 -7.6916e-16 0)
(2 -1.47839e-16 0)
(2 -2.26339e-16 0)
(2 -3.24209e-16 0)
(2 -5.01488e-16 0)
(2 -1.91958e-16 0)
(2 4.13811e-16 0)
(2 5.47177e-16 0)
(2 6.0098e-16 0)
(2 6.76824e-16 0)
(2 3.09979e-16 0)
(2 8.39522e-17 0)
(2 -1.24834e-16 0)
(2 -9.34194e-16 0)
(2 -1.62455e-15 0)
(2 -1.93511e-15 0)
(2 -2.00268e-15 0)
(2 -1.81423e-15 0)
(2 -1.70744e-15 0)
(2 -1.72601e-15 0)
(2 -1.29087e-15 0)
(2 -1.02508e-15 0)
(2 -9.55359e-16 0)
(2 -8.14401e-16 0)
(2 -6.85622e-16 0)
(2 -5.53255e-16 0)
(2 -4.5672e-16 0)
(2 -3.02372e-16 0)
(2 -2.69084e-16 0)
(2 -1.91063e-16 0)
(2 5.48159e-17 0)
(2 8.3302e-16 0)
(2 1.17159e-15 0)
(2 1.44453e-15 0)
(2 1.97172e-15 0)
(2 2.12965e-15 0)
(2 2.31596e-15 0)
(2 2.34065e-15 0)
(2 2.37199e-15 0)
(2 2.35187e-15 0)
(2 2.35927e-15 0)
(2 2.25559e-15 0)
(2 1.69855e-15 0)
(2 1.60424e-15 0)
(2 1.59168e-15 0)
(2 1.6525e-15 0)
(2 1.73338e-15 0)
(2 2.33783e-15 0)
(2 2.95557e-15 0)
(2 3.05765e-15 0)
(2 3.21732e-15 0)
(2 3.38178e-15 0)
(2 3.52041e-15 0)
(2 3.36906e-15 0)
(2 3.35616e-15 0)
(2 3.85189e-15 0)
(2 4.11788e-15 0)
(2 4.37302e-15 0)
(2 4.71107e-15 0)
(2 4.8363e-15 0)
(2 5.00221e-15 0)
(2 5.05103e-15 0)
(2 5.21496e-15 0)
(2 4.77595e-15 0)
(2 4.5542e-15 0)
(2 4.04229e-15 0)
(2 2.93972e-15 0)
(2 2.57371e-15 0)
(2 2.29656e-15 0)
(2 1.89962e-15 0)
(2 1.45454e-15 0)
(2 1.31995e-15 0)
(2 1.57153e-15 0)
(2 2.17089e-15 0)
(2 2.38559e-15 0)
(2 2.18679e-15 0)
(2 2.02338e-15 0)
(2 1.83662e-15 0)
(2 1.67288e-15 0)
(2 1.46675e-15 0)
(2 1.10951e-15 0)
(2 9.46703e-16 0)
(2 1.04855e-15 0)
(2 7.81917e-16 0)
(2 6.43119e-16 0)
(2 7.43186e-16 0)
(2 3.75062e-16 0)
(2 1.41777e-16 0)
(2 4.90414e-17 0)
(2 6.25388e-17 0)
(2 -2.08875e-16 0)
(2 -3.704e-16 0)
(2 -3.7453e-16 0)
(2 -1.39189e-16 0)
(2 -9.96106e-17 0)
(2 -1.67557e-16 0)
(2 -1.97871e-16 0)
(2 -2.92759e-16 0)
(2 -1.68102e-16 0)
(2 6.0476e-16 0)
(2 1.03779e-15 0)
(2 1.31671e-15 0)
(2 2.03213e-15 0)
(2 3.12892e-15 0)
(2 3.28859e-15 0)
(2 3.18155e-15 0)
(2 3.01515e-15 0)
(2 2.84741e-15 0)
(2 2.89486e-15 0)
(2 2.8786e-15 0)
(2 3.12795e-15 0)
(2 3.25582e-15 0)
(2 3.41262e-15 0)
(2 3.55995e-15 0)
(2 3.40813e-15 0)
(2 3.32768e-15 0)
(2 3.25405e-15 0)
(2 3.25441e-15 0)
(2 3.27695e-15 0)
(2 3.87096e-15 0)
(2 4.14854e-15 0)
(2 4.33668e-15 0)
(2 3.89245e-15 0)
(2 3.49325e-15 0)
(2 3.02826e-15 0)
(2 2.47904e-15 0)
(2 2.0321e-15 0)
(2 1.92424e-15 0)
(2 1.75823e-15 0)
(2 1.58941e-15 0)
(2 1.33768e-15 0)
(2 1.16144e-15 0)
(2 9.57091e-16 0)
(2 9.39605e-16 0)
(2 1.0057e-15 0)
(2 8.18855e-16 0)
(2 1.61925e-16 0)
(2 -4.41303e-17 0)
(2 5.45696e-18 0)
(2 1.01841e-16 0)
(2 8.13409e-16 0)
(2 1.16216e-15 0)
(2 1.21479e-15 0)
(2 1.2793e-15 0)
(2 1.40841e-15 0)
(2 1.45945e-15 0)
(2 1.46466e-15 0)
(2 1.45809e-15 0)
(2 1.51402e-15 0)
(2 1.51815e-15 0)
(2 1.6281e-15 0)
(2 1.77052e-15 0)
(2 1.81067e-15 0)
(2 1.45433e-15 0)
(2 1.02064e-15 0)
(2 3.69942e-16 0)
(2 -3.32112e-17 0)
(2 -3.05199e-16 0)
(2 -5.03431e-16 0)
(2 -9.75805e-16 0)
(2 -1.56858e-15 0)
(2 -1.82972e-15 0)
(2 -1.83935e-15 0)
(2 -1.58876e-15 0)
(2 -1.52661e-15 0)
(2 -1.54418e-15 0)
(2 -1.51348e-15 0)
(2 -1.49161e-15 0)
(2 -1.35987e-15 0)
(2 -1.19453e-15 0)
(2 -1.40573e-15 0)
(2 -1.53686e-15 0)
(2 -1.42545e-15 0)
(2 -1.23737e-15 0)
(2 -1.16255e-15 0)
(2 -1.01236e-15 0)
(2 -1.25458e-15 0)
(2 -2.20897e-15 0)
(2 -2.43279e-15 0)
(2 -2.50628e-15 0)
(2 -2.05088e-15 0)
(2 -1.82889e-15 0)
(2 -1.4372e-15 0)
(2 -1.2952e-15 0)
(2 -1.36425e-15 0)
(2 -1.63396e-15 0)
(2 -1.91308e-15 0)
(2 -1.59343e-15 0)
(2 -1.16414e-15 0)
(2 -1.345e-15 0)
(2 -1.48796e-15 0)
(2 -1.56717e-15 0)
(2 -1.73647e-15 0)
(2 -1.58236e-15 0)
(2 -2.31022e-15 0)
(2 -2.42841e-15 0)
(2 -2.07158e-15 0)
(2 -1.93531e-15 0)
(2 -2.0395e-15 0)
(2 -2.11334e-15 0)
(2 -1.87522e-15 0)
(2 -1.78617e-15 0)
(2 -1.03258e-15 0)
(2 -5.80521e-16 0)
(2 -1.97156e-16 0)
(2 -8.53323e-17 0)
(2 -2.51802e-16 0)
(2 -3.42061e-16 0)
(2 -4.73293e-16 0)
(2 -5.53778e-16 0)
(2 -7.0355e-16 0)
(2 -8.02852e-16 0)
(2 -9.92772e-16 0)
(2 -9.42024e-16 0)
(2 -7.43209e-16 0)
(2 -7.221e-16 0)
(2 -6.43789e-16 0)
(2 -5.71299e-16 0)
(2 -5.95881e-16 0)
(2 -5.72314e-16 0)
(2 -7.46228e-16 0)
(2 2.13995e-17 0)
(2 -9.7965e-18 0)
(2 -5.70727e-17 0)
(2 -2.01917e-17 0)
(2 4.68146e-17 0)
(2 9.18029e-17 0)
(2 1.47646e-17 0)
(2 -3.37526e-17 0)
(2 -2.81499e-17 0)
(2 -2.31861e-17 0)
(2 -6.59574e-17 0)
(2 -7.95673e-17 0)
(2 -1.4858e-16 0)
(2 -1.89608e-16 0)
(2 -2.35524e-16 0)
(2 -3.24455e-16 0)
(2 -4.22357e-16 0)
(2 -3.91065e-16 0)
(2 -4.62193e-16 0)
(2 -5.36264e-16 0)
(2 -6.43596e-16 0)
(2 -7.04785e-16 0)
(2 -7.0886e-16 0)
(2 -7.21338e-16 0)
(2 -3.66263e-16 0)
(2 -2.28355e-16 0)
(2 -6.04052e-17 0)
(2 -5.06217e-17 0)
(2 -1.22746e-16 0)
(2 -1.85544e-16 0)
(2 -2.02128e-16 0)
(2 -1.69338e-16 0)
(2 -1.14175e-16 0)
(2 -6.29304e-17 0)
(2 -1.58359e-16 0)
(2 -1.15002e-16 0)
(2 -1.42689e-16 0)
(2 -3.14162e-16 0)
(2 -6.0757e-16 0)
(2 -4.8023e-16 0)
(2 2.46266e-17 0)
(2 6.35168e-17 0)
(2 -9.08607e-17 0)
(2 -2.65213e-16 0)
(2 -3.33666e-16 0)
(2 -3.56492e-16 0)
(2 -3.94448e-16 0)
(2 -2.88218e-16 0)
(2 -2.12849e-16 0)
(2 -1.74978e-16 0)
(2 -1.56067e-16 0)
(2 -1.0753e-16 0)
(2 -3.30884e-17 0)
(2 -8.10405e-17 0)
(2 -2.24424e-17 0)
(2 3.35534e-17 0)
(2 3.58679e-17 0)
(2 6.77504e-17 0)