/*--------------------------------*- C++ -*----------------------------------*\
  =========                 |
  \\      /  F ield         | OpenFOAM: The Open Source CFD Toolbox
   \\    /   O peration     | Website:  https://openfoam.org
    \\  /    A nd           | Version:  7
     \\/     M anipulation  |
\*---------------------------------------------------------------------------*/
FoamFile
{
    version     2.0;
    format      ascii;
    class       volScalarField;
    location    "15";
    object      p;
}
// * * * * * * * * * * * * * * * * * * * * * * * * * * * * * * * * * * * * * //

dimensions      [0 2 -2 0 0 0 0];

internalField   nonuniform List<scalar> 
607
(
-2.02097e-05
-6.76113e-06
-0.000488062
-0.000447145
-0.000408284
-0.00037152
-0.000336867
-0.000304313
-0.000273827
-0.000245349
-0.00021881
-0.000194116
-0.000171168
-0.000149842
-0.000130019
-0.000111551
-9.43026e-05
-7.80997e-05
-6.27984e-05
-4.81938e-05
-3.41315e-05
-2.03822e-05
-6.80828e-06
-0.000505687
-0.000461865
-0.000420469
-0.000381511
-0.000344976
-0.000310823
-0.00027899
-0.000249391
-0.000221928
-0.000196482
-0.000172929
-0.000151125
-0.000130928
-0.000112174
-9.47108e-05
-7.83533e-05
-6.29401e-05
-4.82634e-05
-3.41524e-05
-2.03806e-05
-6.79706e-06
-0.000519498
-0.000473002
-0.000429314
-0.000388411
-0.000350247
-0.000314745
-0.00028181
-0.000251325
-0.000223164
-0.00019718
-0.000173222
-0.000151127
-0.000130731
-0.000111855
-9.43266e-05
-7.79549e-05
-6.25606e-05
-4.79352e-05
-3.38928e-05
-2.02122e-05
-6.72997e-06
-0.000529277
-0.000480386
-0.00043469
-0.00039213
-0.000352618
-0.000316041
-0.000282269
-0.000251151
-0.000222529
-0.000196229
-0.000172074
-0.00014988
-0.00012946
-0.000110624
-9.318e-05
-7.69314e-05
-6.16832e-05
-4.72283e-05
-3.33668e-05
-1.98857e-05
-6.60998e-06
-0.000534845
-0.000483881
-0.000436502
-0.000392603
-0.000352054
-0.000314701
-0.000280374
-0.00024889
-0.000220054
-0.000193668
-0.000169526
-0.000147426
-0.000127158
-0.000108522
-9.13081e-05
-7.53158e-05
-6.03359e-05
-4.61649e-05
-3.25907e-05
-1.9411e-05
-6.44051e-06
-0.000536057
-0.000483388
-0.000434688
-0.000389802
-0.000348553
-0.000310742
-0.000276158
-0.000244583
-0.000215789
-0.000189549
-0.000165633
-0.000143819
-0.000123877
-0.000105597
-8.87539e-05
-7.31458e-05
-5.85502e-05
-4.47702e-05
-3.15828e-05
-1.87993e-05
-6.2253e-06
-0.000532809
-0.000478847
-0.000429224
-0.000383732
-0.00034214
-0.000304206
-0.000269676
-0.000238294
-0.000209801
-0.000183942
-0.000160462
-0.000139123
-0.000119676
-0.000101904
-8.55663e-05
-7.04631e-05
-5.63608e-05
-4.30713e-05
-3.03626e-05
-1.80624e-05
-5.9684e-06
-0.000525041
-0.000470238
-0.000420123
-0.000374428
-0.000332872
-0.000295163
-0.000261005
-0.000230106
-0.000202173
-0.00017693
-0.000154093
-0.000133414
-0.000114624
-9.7503e-05
-8.17981e-05
-6.73129e-05
-5.38048e-05
-4.10972e-05
-2.89511e-05
-1.72129e-05
-5.67405e-06
-0.000512738
-0.000457583
-0.000407434
-0.000361964
-0.000320835
-0.000283709
-0.000250246
-0.00022012
-0.000193006
-0.000168605
-0.000146614
-0.000126771
-0.000108794
-9.24594e-05
-7.75059e-05
-6.37429e-05
-5.09211e-05
-3.88782e-05
-2.73698e-05
-1.62639e-05
-5.34663e-06
-0.000495933
-0.000440946
-0.000391247
-0.000346444
-0.000306145
-0.000269964
-0.000237519
-0.000208453
-0.000182411
-0.000159075
-0.000138122
-0.000119283
-0.000102264
-8.6842e-05
-7.27486e-05
-5.98026e-05
-4.775e-05
-3.64453e-05
-2.56408e-05
-1.52285e-05
-4.99059e-06
-0.000474708
-0.000420436
-0.000371686
-0.000328005
-0.000288942
-0.000254068
-0.000222962
-0.000195237
-0.000170511
-0.000148452
-0.000128722
-0.000111043
-9.51166e-05
-8.0722e-05
-6.75871e-05
-5.55425e-05
-4.43322e-05
-3.38298e-05
-2.37862e-05
-1.41199e-05
-4.61039e-06
-0.000449192
-0.000396202
-0.000348914
-0.000306812
-0.000269394
-0.000236185
-0.000206731
-0.000180617
-0.000157442
-0.000136859
-0.000118521
-0.000102148
-8.74357e-05
-7.41719e-05
-6.20826e-05
-5.10134e-05
-4.07083e-05
-3.10629e-05
-2.18282e-05
-1.29514e-05
-4.21043e-06
-0.00041956
-0.000368434
-0.000323126
-0.000283062
-0.000247688
-0.000216494
-0.000188992
-0.000164747
-0.000143342
-0.000124422
-0.000107632
-9.26954e-05
-7.93069e-05
-6.72646e-05
-5.62964e-05
-4.62657e-05
-3.69187e-05
-2.81751e-05
-1.97882e-05
-1.17357e-05
-3.795e-06
-0.000386036
-0.000337359
-0.000294549
-0.000256972
-0.000224034
-0.000195189
-0.000169925
-0.000147792
-0.000128359
-0.000111271
-9.61692e-05
-8.27852e-05
-7.08154e-05
-6.00725e-05
-5.02891e-05
-4.13488e-05
-3.30025e-05
-2.51964e-05
-1.76873e-05
-1.04853e-05
-3.36826e-06
-0.000348886
-0.000303242
-0.000263435
-0.000228785
-0.000198656
-0.000172478
-0.000149718
-0.000129918
-0.000112643
-9.75377e-05
-8.42476e-05
-7.2516e-05
-6.20456e-05
-5.26666e-05
-4.41194e-05
-3.63106e-05
-2.89977e-05
-2.21553e-05
-1.55453e-05
-9.21193e-06
-2.93414e-06
-0.000308413
-0.000266375
-0.000230065
-0.000198759
-0.000171793
-0.000148576
-0.000128565
-0.000111299
-9.63429e-05
-8.33529e-05
-7.19803e-05
-6.19847e-05
-5.30794e-05
-4.51157e-05
-3.78442e-05
-3.11969e-05
-2.49404e-05
-1.90791e-05
-1.33813e-05
-7.92682e-06
-2.49639e-06
-0.000264958
-0.000227081
-0.000194737
-0.000167169
-0.000143692
-0.000123705
-0.000106661
-9.21054e-05
-7.96105e-05
-6.88466e-05
-5.94782e-05
-5.12855e-05
-4.39961e-05
-3.74854e-05
-3.15172e-05
-2.60513e-05
-2.08645e-05
-1.59931e-05
-1.1213e-05
-6.64042e-06
-2.05847e-06
-0.000218891
-0.000185703
-0.000157766
-0.0001343
-0.000114609
-9.80902e-05
-8.42052e-05
-7.251e-05
-6.2593e-05
-5.41448e-05
-4.68485e-05
-4.05086e-05
-3.48708e-05
-2.9838e-05
-2.51893e-05
-2.09143e-05
-1.68019e-05
-1.29213e-05
-9.05689e-06
-5.36235e-06
-1.62361e-06
-0.000170611
-0.000142607
-0.000119481
-0.000100445
-8.48002e-05
-7.1957e-05
-6.13909e-05
-5.26796e-05
-4.54333e-05
-3.9369e-05
-3.41932e-05
-2.97394e-05
-2.57745e-05
-2.22317e-05
-1.89076e-05
-1.58236e-05
-1.27816e-05
-9.88522e-06
-6.92799e-06
-4.10142e-06
-1.19471e-06
-0.000120536
-9.81677e-05
-8.02163e-05
-6.58963e-05
-5.45234e-05
-4.55274e-05
-3.84094e-05
-3.27766e-05
-2.82685e-05
-2.46343e-05
-2.16087e-05
-1.90577e-05
-1.67731e-05
-1.47203e-05
-1.27155e-05
-1.08135e-05
-8.83041e-06
-6.9047e-06
-4.83989e-06
-2.86558e-06
-7.74423e-07
-6.90995e-05
-5.27701e-05
-4.0309e-05
-3.09486e-05
-2.40302e-05
-1.90169e-05
-1.54439e-05
-1.29562e-05
-1.1229e-05
-1.00493e-05
-9.1848e-06
-8.53746e-06
-7.92679e-06
-7.35257e-06
-6.65225e-06
-5.91506e-06
-4.97201e-06
-3.99737e-06
-2.80467e-06
-1.66186e-06
-3.65067e-07
-1.67438e-05
-6.80126e-06
-9.4413e-08
4.11092e-06
6.43439e-06
7.36815e-06
7.33262e-06
6.63708e-06
5.56472e-06
4.28569e-06
2.99555e-06
1.75328e-06
7.09012e-07
-1.73097e-07
-7.53142e-07
-1.15598e-06
-1.22753e-06
-1.17886e-06
-8.32946e-07
-4.96444e-07
3.13353e-08
3.6087e-05
3.93535e-05
4.00968e-05
3.90012e-05
3.66334e-05
3.3429e-05
2.97553e-05
2.58679e-05
2.20021e-05
1.82807e-05
1.4859e-05
1.17547e-05
9.08585e-06
6.77892e-06
4.95068e-06
3.43916e-06
2.38427e-06
1.53701e-06
1.06589e-06
6.25115e-07
4.12428e-07
8.89542e-05
8.532e-05
7.99481e-05
7.34561e-05
6.63445e-05
5.89806e-05
5.16703e-05
4.46089e-05
3.79792e-05
3.18517e-05
2.6339e-05
2.14141e-05
1.71621e-05
1.3471e-05
1.04337e-05
7.85088e-06
5.84859e-06
4.1394e-06
2.8846e-06
1.69893e-06
7.76647e-07
0.000141439
0.000130744
0.000119164
0.000107232
9.53687e-05
8.38604e-05
7.29457e-05
6.27523e-05
5.34072e-05
4.49255e-05
3.73754e-05
3.06833e-05
2.48996e-05
1.98732e-05
1.5673e-05
1.20617e-05
9.1529e-06
6.61942e-06
4.61753e-06
2.72213e-06
1.12685e-06
0.000193101
0.00017526
0.000157443
0.00014008
0.000123502
0.000107904
9.34501e-05
8.01945e-05
6.82052e-05
5.74379e-05
4.79169e-05
3.95199e-05
3.22648e-05
2.59583e-05
2.06474e-05
1.6054e-05
1.22837e-05
8.96598e-06
6.25736e-06
3.68855e-06
1.45862e-06
0.000243552
0.000218547
0.000194527
0.00017179
0.000150574
0.000130972
0.00011307
9.68434e-05
8.22999e-05
6.9333e-05
5.79227e-05
4.78929e-05
3.92326e-05
3.17072e-05
2.53431e-05
1.98181e-05
1.52354e-05
1.11748e-05
7.80275e-06
4.59706e-06
1.76336e-06
0.000292431
0.000260308
0.000230191
0.0002022
0.000176469
0.000152975
0.000131737
0.00011265
9.56534e-05
8.05789e-05
6.73694e-05
5.57886e-05
4.57968e-05
3.71144e-05
2.97551e-05
2.33476e-05
1.80035e-05
1.32412e-05
9.25156e-06
5.44615e-06
2.06345e-06
0.000339659
0.000300422
0.000264295
0.000231154
0.00020105
0.000173803
0.000149355
0.000127522
0.000108188
9.11109e-05
7.61975e-05
6.31506e-05
5.19142e-05
4.21524e-05
3.38673e-05
2.66323e-05
2.05825e-05
)
;

boundaryField
{
    inlet
    {
        type            zeroGradient;
    }
    outlet
    {
        type            fixedValue;
        value           uniform 0;
    }
    cylinder
    {
        type            zeroGradient;
    }
    top
    {
        type            symmetryPlane;
    }
    bottom
    {
        type            symmetryPlane;
    }
    defaultFaces
    {
        type            empty;
    }
    procBoundary15to7
    {
        type            processor;
        value           nonuniform List<scalar> 
22
(
-1.98578e-05
-6.65375e-06
-0.000466864
-0.000429039
-0.000392917
-0.000358561
-0.000326011
-0.00029528
-0.000266361
-0.000239222
-0.000213818
-0.000190077
-0.000167927
-0.000147262
-0.000127985
-0.000109962
-9.30797e-05
-7.71731e-05
-6.21169e-05
-4.77112e-05
-3.38187e-05
-3.38187e-05
)
;
    }
    procBoundary15to14
    {
        type            processor;
        value           nonuniform List<scalar> 
28
(
-0.000530964
-0.000551891
-0.000568789
-0.000581393
-0.000589469
-0.000592821
-0.000591294
-0.000584778
-0.000573214
-0.000556593
-0.000534959
-0.000508412
-0.000477107
-0.00044125
-0.000401102
-0.00035697
-0.000309207
-0.000258206
-0.000204395
-0.000148234
-9.02045e-05
-3.08063e-05
2.94534e-05
9.0065e-05
0.000150536
0.000210342
0.00026902
0.000326117
)
;
    }
    procBoundary15to22
    {
        type            processor;
        value           uniform 0.000381575;
    }
    procBoundary15to23
    {
        type            processor;
        value           nonuniform List<scalar> 
22
(
1.51606e-05
1.06028e-05
6.23235e-06
2.33313e-06
0.000383314
0.000337437
0.00029582
0.000257901
0.000223757
0.000193049
0.000165667
0.000141318
0.000119811
0.000100875
8.4385e-05
6.99693e-05
5.75677e-05
4.68062e-05
3.76691e-05
2.96633e-05
1.51606e-05
2.29668e-05
)
;
    }
}


// ************************************************************************* //
