/*--------------------------------*- C++ -*----------------------------------*\
  =========                 |
  \\      /  F ield         | OpenFOAM: The Open Source CFD Toolbox
   \\    /   O peration     | Website:  https://openfoam.org
    \\  /    A nd           | Version:  7
     \\/     M anipulation  |
\*---------------------------------------------------------------------------*/
FoamFile
{
    version     2.0;
    format      ascii;
    class       volVectorField;
    location    "15";
    object      U;
}
// * * * * * * * * * * * * * * * * * * * * * * * * * * * * * * * * * * * * * //

dimensions      [0 1 -1 0 0 0 0];

internalField   nonuniform List<vector> 
26800
(
(-0.0786799 0.00454104 4.18332e-20)
(-0.143859 0.00363901 6.58361e-20)
(-0.210086 0.0039647 7.06454e-21)
(-0.261354 0.00369154 1.79668e-20)
(-0.30695 0.00431666 -1.00416e-19)
(-0.357756 0.0047268 2.64479e-20)
(-0.403946 0.00498588 6.50862e-20)
(-0.449908 0.0044624 6.53793e-20)
(-0.48198 0.0024554 4.9963e-20)
(-0.485602 -0.00193257 1.44431e-21)
(-0.44457 -0.00814674 6.04898e-21)
(-0.362923 -0.0142936 -2.01918e-21)
(-0.25073 -0.0186226 1.38026e-22)
(-0.124945 -0.0202388 5.42234e-21)
(-0.00587111 -0.0204188 5.2484e-22)
(0.116983 -0.0194087 5.87834e-22)
(0.211663 -0.0172975 3.42569e-21)
(0.309046 -0.0159924 -6.18903e-22)
(0.379332 -0.0134636 -3.87289e-22)
(0.449737 -0.012614 -9.25499e-22)
(-0.078903 0.0135873 -1.16781e-19)
(-0.143139 0.0108731 -2.04225e-19)
(-0.208098 0.0118388 9.49045e-20)
(-0.25748 0.0109929 -1.17629e-19)
(-0.300397 0.0128317 1.0446e-19)
(-0.347497 0.0140167 -2.09849e-21)
(-0.388734 0.0147499 -1.30029e-19)
(-0.428456 0.0131542 -1.21749e-19)
(-0.453108 0.00713145 -8.10079e-20)
(-0.448115 -0.00596405 1.88797e-20)
(-0.398022 -0.0244452 -2.49311e-20)
(-0.308292 -0.0425191 -4.35762e-21)
(-0.189967 -0.0551156 -4.48034e-21)
(-0.0606377 -0.0594945 2.38041e-20)
(0.0608576 -0.0601246 5.4763e-22)
(0.184937 -0.056617 -9.46206e-22)
(0.277403 -0.0504745 1.89896e-21)
(0.377572 -0.0461623 8.31423e-21)
(0.442317 -0.038901 -1.96248e-21)
(0.517315 -0.0360045 2.38517e-21)
(-0.0793502 0.0225281 -1.41544e-19)
(-0.141717 0.0179792 6.75831e-20)
(-0.204165 0.0195541 5.98603e-20)
(-0.24984 0.0180595 -5.35414e-20)
(-0.287522 0.0210057 1.77213e-19)
(-0.327434 0.0228318 -1.43317e-19)
(-0.359144 0.0239108 1.66422e-19)
(-0.387025 0.0211794 1.6511e-19)
(-0.397891 0.0111606 1.29161e-20)
(-0.377347 -0.0103924 -2.19298e-21)
(-0.311549 -0.0406257 3.45977e-20)
(-0.208724 -0.0697066 4.05632e-20)
(-0.0813963 -0.0894334 -3.04498e-20)
(0.0519361 -0.0956554 -6.60271e-20)
(0.175599 -0.096334 4.86735e-21)
(0.298554 -0.0896627 9.46607e-22)
(0.387424 -0.0798539 -5.94543e-21)
(0.487405 -0.0718329 -7.04786e-21)
(0.544407 -0.0605678 1.38475e-20)
(0.622009 -0.0550033 2.75907e-21)
(-0.0800238 0.0312949 3.03578e-19)
(-0.139622 0.0248737 -9.87691e-20)
(-0.198369 0.0270087 -2.4798e-19)
(-0.238637 0.0247437 1.49505e-19)
(-0.268762 0.0286269 -9.2886e-20)
(-0.298422 0.0308815 3.08506e-19)
(-0.31672 0.0321112 1.42849e-19)
(-0.328254 0.0281784 8.11756e-20)
(-0.320647 0.0142706 -1.50597e-19)
(-0.28008 -0.0151952 2.76265e-20)
(-0.195231 -0.0563797 9.83953e-20)
(-0.0781978 -0.095046 1.1322e-20)
(0.0569989 -0.119965 9.71303e-20)
(0.191663 -0.127583 8.2682e-20)
(0.313895 -0.127194 4.63419e-21)
(0.429872 -0.117178 7.55512e-22)
(0.513708 -0.103961 -1.08152e-21)
(0.605944 -0.0919702 -4.67692e-21)
(0.655442 -0.0775014 -7.03973e-21)
(0.728366 -0.0689733 -1.07073e-20)
(-0.080927 0.0398222 1.29368e-21)
(-0.136901 0.0314752 4.95103e-19)
(-0.190825 0.0341072 2.19194e-19)
(-0.224155 0.0309105 -3.08889e-19)
(-0.244717 0.0355058 3.79155e-20)
(-0.261619 0.0379103 -2.58655e-19)
(-0.263508 0.0390446 -3.97404e-19)
(-0.255512 0.0338716 -4.22915e-19)
(-0.226534 0.0162727 -1.56728e-20)
(-0.163775 -0.0205456 -4.49523e-20)
(-0.0592344 -0.0713932 -4.70884e-19)
(0.0702992 -0.117119 4.69752e-20)
(0.209643 -0.145762 -3.55749e-20)
(0.340715 -0.154189 -9.50896e-20)
(0.456169 -0.15173 6.01868e-21)
(0.559289 -0.138573 3.49476e-21)
(0.635088 -0.122191 2.16202e-21)
(0.71283 -0.106609 -3.19467e-21)
(0.75477 -0.089737 -4.86947e-21)
(0.816077 -0.0784559 6.63277e-21)
(-0.0820636 0.0480486 -4.19704e-19)
(-0.133608 0.0377057 -8.07562e-19)
(-0.181672 0.0407617 -5.93374e-19)
(-0.206732 0.0364417 7.94356e-19)
(-0.216092 0.041483 2.66867e-19)
(-0.218365 0.0437084 -3.09331e-20)
(-0.201827 0.044464 3.99455e-19)
(-0.172489 0.038062 1.6146e-19)
(-0.120906 0.0170564 3.18266e-19)
(-0.0354527 -0.026509 -3.60963e-19)
(0.0878209 -0.0848467 1.33834e-19)
(0.226647 -0.135353 -3.54485e-20)
(0.364907 -0.166361 4.08955e-20)
(0.487204 -0.17457 1.2088e-19)
(0.590196 -0.169526 2.4664e-20)
(0.676608 -0.153677 1.6733e-21)
(0.74046 -0.13463 -2.65155e-21)
(0.800666 -0.116272 3.14558e-21)
(0.834111 -0.0978021 -1.99295e-21)
(0.880536 -0.0843652 -6.76484e-21)
(-0.0834379 0.0559173 3.85508e-19)
(-0.129809 0.0434909 8.95168e-19)
(-0.171066 0.0468938 5.86454e-19)
(-0.18673 0.04124 -3.50094e-19)
(-0.183628 0.046436 -3.62973e-19)
(-0.170037 0.0481238 3.36083e-19)
(-0.134024 0.0481956 -1.74131e-19)
(-0.0828206 0.0406206 6.18084e-20)
(-0.00869759 0.0164613 1.95154e-19)
(0.0989439 -0.0327201 5.57756e-19)
(0.238532 -0.0961612 2.69441e-19)
(0.382677 -0.149745 -3.04221e-19)
(0.514504 -0.181244 4.58796e-20)
(0.623162 -0.188346 -6.94287e-20)
(0.709161 -0.180734 -2.41735e-20)
(0.776893 -0.162766 -9.73891e-21)
(0.825953 -0.141849 4.90244e-21)
(0.868758 -0.121705 1.34318e-20)
(0.892987 -0.102415 -2.30255e-21)
(0.924847 -0.0875919 1.23898e-20)
(-0.0850543 0.0633772 6.70795e-19)
(-0.125573 0.0487604 1.94998e-19)
(-0.159163 0.0524349 -6.07408e-19)
(-0.164503 0.0452314 -2.45003e-19)
(-0.148029 0.0502846 4.7193e-19)
(-0.117896 0.051077 -5.52641e-19)
(-0.062208 0.0501567 2.26234e-19)
(0.010311 0.0413755 2.46728e-19)
(0.1061 0.0142612 -7.53365e-19)
(0.234733 -0.038989 -1.99459e-19)
(0.38755 -0.105552 -5.4139e-20)
(0.532032 -0.159967 1.99739e-19)
(0.652239 -0.190339 -1.6924e-19)
(0.743255 -0.195736 4.91021e-20)
(0.809642 -0.185974 -5.48819e-20)
(0.85828 -0.16659 3.49846e-21)
(0.891813 -0.144759 -1.29911e-20)
(0.919194 -0.123801 -7.39485e-21)
(0.934474 -0.104394 5.79906e-21)
(0.954185 -0.0889421 2.75196e-22)
(-0.086917 0.0703833 -3.8203e-19)
(-0.12097 0.0534483 -1.06047e-18)
(-0.146116 0.0573262 7.07787e-19)
(-0.140366 0.048367 5.48294e-19)
(-0.109887 0.0529946 -5.33002e-19)
(-0.0629329 0.0525769 2.74958e-19)
(0.0120036 0.0503642 -6.12123e-19)
(0.104627 0.0401992 -4.35016e-19)
(0.221005 0.0104624 3.95742e-19)
(0.369082 -0.0453632 -2.73532e-19)
(0.530793 -0.11285 2.8462e-19)
(0.669792 -0.165941 1.49366e-19)
(0.773727 -0.193971 -2.09888e-19)
(0.844512 -0.197437 -1.03697e-19)
(0.89068 -0.186202 3.21001e-20)
(0.921322 -0.166197 4.57292e-20)
(0.940516 -0.1444 1.89181e-22)
(0.955302 -0.123448 -2.38863e-21)
(0.962828 -0.104523 -2.2385e-21)
(0.973467 -0.0890282 6.25447e-22)
(-0.0890297 0.0768972 -4.80608e-19)
(-0.116067 0.0574931 1.1601e-18)
(-0.132055 0.0615184 -6.10572e-19)
(-0.114558 0.0506248 1.55612e-19)
(-0.0696155 0.0545789 -6.88383e-19)
(-0.00573742 0.0527275 1.89617e-19)
(0.087738 0.0489913 4.45111e-19)
(0.199126 0.0372461 -3.66736e-20)
(0.335282 0.00536808 -7.49732e-20)
(0.500331 -0.0515654 6.72726e-19)
(0.664916 -0.11772 -1.3591e-19)
(0.792243 -0.167744 -3.59292e-19)
(0.876376 -0.19275 3.70468e-19)
(0.926128 -0.194448 5.38742e-21)
(0.953282 -0.182544 1.23782e-19)
(0.968274 -0.162708 -2.38293e-20)
(0.975505 -0.141748 2.94117e-20)
(0.98069 -0.121408 1.02969e-21)
(0.982116 -0.103427 -2.94476e-21)
(0.986469 -0.0882459 -6.47112e-22)
(-0.0913952 0.0828872 2.28404e-19)
(-0.110925 0.0608378 -1.63951e-18)
(-0.117081 0.0649699 1.2555e-18)
(-0.087211 0.0520141 -1.11836e-18)
(-0.0273838 0.0550975 8.26984e-19)
(0.0536085 0.0517336 -1.06212e-19)
(0.164997 0.0464005 -1.51401e-20)
(0.294229 0.0329582 -2.01482e-19)
(0.449508 -0.000445311 -1.62843e-19)
(0.626965 -0.0569122 -4.53439e-19)
(0.786804 -0.119784 5.40282e-19)
(0.896814 -0.165642 4.27876e-19)
(0.959351 -0.18751 7.78502e-20)
(0.989096 -0.187916 1.21585e-19)
(0.999811 -0.17613 -1.81229e-20)
(1.00222 -0.157138 2.20674e-20)
(1.00027 -0.137594 7.44737e-21)
(0.998558 -0.118261 1.67706e-21)
(0.995531 -0.101519 1.0735e-20)
(0.995735 -0.0868683 -3.8341e-21)
(-0.0940148 0.0883284 -4.79288e-19)
(-0.105594 0.0634301 -7.78802e-20)
(-0.101253 0.0676449 -1.02509e-18)
(-0.0583227 0.0525789 7.57245e-19)
(0.0169337 0.0546591 -1.22332e-20)
(0.115549 0.049901 -7.50842e-19)
(0.244613 0.0430968 -3.61679e-19)
(0.391457 0.0280572 3.92677e-19)
(0.564144 -0.00603087 1.42226e-19)
(0.746561 -0.0605714 2.86129e-19)
(0.893511 -0.118851 -1.73593e-19)
(0.982232 -0.160172 -1.92879e-19)
(1.02343 -0.179242 -1.8281e-19)
(1.03569 -0.17897 -1.73095e-19)
(1.03329 -0.167952 -9.61349e-20)
(1.0263 -0.150297 -6.44822e-20)
(1.01781 -0.132516 -1.83669e-20)
(1.01139 -0.114415 6.81744e-21)
(1.00528 -0.0990618 -4.7815e-21)
(1.00283 -0.0850694 7.85886e-22)
(-0.0968882 0.0932025 4.69086e-19)
(-0.100106 0.0652227 3.72491e-19)
(-0.0845726 0.0695082 1.29653e-18)
(-0.0277171 0.05238 4.76081e-19)
(0.0637834 0.0534501 -3.04531e-19)
(0.180983 0.047627 9.46986e-19)
(0.327944 0.039696 4.35737e-19)
(0.492297 0.0235052 -4.90258e-19)
(0.677876 -0.0103506 3.85962e-19)
(0.855587 -0.0619362 2.87751e-20)
(0.982778 -0.115095 -3.59937e-19)
(1.04872 -0.152107 1.49398e-19)
(1.0707 -0.168955 1.48249e-19)
(1.06887 -0.168592 1.40579e-19)
(1.0568 -0.158788 1.01912e-19)
(1.0433 -0.142768 5.72783e-20)
(1.03041 -0.126909 3.69108e-20)
(1.02093 -0.110126 -3.93637e-20)
(1.01279 -0.0962343 1.52698e-20)
(1.00864 -0.0829368 -2.63615e-20)
(-0.100013 0.0974973 -6.48185e-20)
(-0.0944706 0.0661741 1.00834e-18)
(-0.0669686 0.0705224 -8.85457e-19)
(0.00498628 0.0515188 -1.45701e-18)
(0.113958 0.05174 -2.51255e-19)
(0.251068 0.0453856 -9.33126e-19)
(0.416268 0.0368961 -5.65185e-19)
(0.596602 0.0202573 1.5202e-19)
(0.78703 -0.0126931 -2.678e-20)
(0.95036 -0.0608818 -7.17239e-19)
(1.05374 -0.109045 1.95719e-19)
(1.09793 -0.142316 -1.27994e-19)
(1.10403 -0.157541 -3.81442e-19)
(1.0917 -0.157546 -1.60024e-19)
(1.07304 -0.149191 -7.16113e-20)
(1.05535 -0.134945 -6.88084e-20)
(1.03972 -0.121025 7.78896e-20)
(1.02834 -0.105564 3.02989e-20)
(1.01889 -0.0931494 -2.03991e-20)
(1.01364 -0.0805341 2.26074e-20)
(-0.103383 0.101206 3.29589e-19)
(-0.088668 0.0662499 -3.16303e-19)
(-0.0482845 0.0706734 -3.04589e-19)
(0.0403855 0.0501444 6.28705e-19)
(0.168533 0.0498821 3.95874e-19)
(0.326891 0.0437101 5.75026e-20)
(0.509879 0.0353929 -7.72562e-20)
(0.701602 0.0189153 3.97442e-19)
(0.886695 -0.0129013 4.40274e-19)
(1.02842 -0.0577457 -5.62497e-19)
(1.10723 -0.10141 -3.6029e-20)
(1.13254 -0.131592 2.86468e-19)
(1.1265 -0.145693 4.78565e-20)
(1.10693 -0.146364 1.2403e-19)
(1.08419 -0.139523 -2.31907e-20)
(1.06402 -0.127075 -9.22097e-20)
(1.04683 -0.115016 -4.72849e-20)
(1.03433 -0.100843 2.02558e-20)
(1.02406 -0.0898778 -8.64425e-21)
(1.01807 -0.0779149 -2.99087e-20)
(-0.106991 0.104327 -6.9786e-20)
(-0.0826395 0.0654286 5.28144e-19)
(-0.0282571 0.0699681 5.05261e-19)
(0.0792944 0.0484486 -3.42363e-19)
(0.228689 0.0483451 -1.28248e-19)
(0.408971 0.0431554 -1.24431e-19)
(0.607239 0.0356909 4.96331e-19)
(0.802454 0.0195335 2.15681e-19)
(0.972693 -0.0112901 -2.67436e-19)
(1.08934 -0.0531021 -3.34572e-19)
(1.14546 -0.0928773 -1.84169e-19)
(1.1556 -0.120553 2.18297e-19)
(1.14092 -0.133889 1.21005e-20)
(1.11678 -0.135382 6.17447e-20)
(1.09183 -0.130003 1.25789e-19)
(1.07039 -0.11931 2.29183e-19)
(1.05243 -0.108979 5.38313e-20)
(1.03935 -0.0960371 -7.27216e-20)
(1.02857 -0.0864705 3.51073e-20)
(1.02206 -0.0751198 1.36327e-21)
(-0.110821 0.106862 -8.81047e-19)
(-0.0762789 0.0637082 -9.63684e-20)
(-0.00646823 0.0684118 2.61335e-19)
(0.1227 0.0467128 4.92111e-19)
(0.295407 0.0476896 5.13884e-19)
(0.496691 0.0441987 1.10885e-18)
(0.704816 0.037891 -1.01449e-18)
(0.894076 0.021721 -1.30945e-18)
(1.04295 -0.00838409 2.5599e-19)
(1.13449 -0.0475266 1.29866e-18)
(1.17131 -0.0839843 1.44312e-19)
(1.17 -0.109619 -7.07936e-19)
(1.14961 -0.122426 -1.17511e-19)
(1.12293 -0.124794 -1.98332e-19)
(1.09708 -0.120754 -4.79172e-21)
(1.07516 -0.111739 -3.58229e-19)
(1.05699 -0.102968 4.66761e-20)
(1.04364 -0.0912036 4.67389e-20)
(1.03257 -0.0829641 -1.74755e-20)
(1.02567 -0.0721819 4.59238e-20)
(-0.114854 0.108812 6.5549e-19)
(-0.0694179 0.0610991 -1.03541e-19)
(0.0176847 0.0660538 -1.46884e-18)
(0.17167 0.0453211 3.89205e-19)
(0.369032 0.0484815 8.01512e-19)
(0.587914 0.0470743 -7.27339e-19)
(0.79799 0.0416501 1.63835e-18)
(0.972907 0.0249172 -1.02501e-19)
(1.0976 -0.00468429 -1.22387e-19)
(1.16634 -0.0414736 -1.37023e-18)
(1.18767 -0.0751007 1.06735e-19)
(1.17818 -0.0990462 1.99057e-19)
(1.15434 -0.111471 2.51075e-19)
(1.12656 -0.114695 3.57499e-20)
(1.10068 -0.111841 -6.56956e-20)
(1.07881 -0.104414 2.42712e-19)
(1.06077 -0.097016 4.92549e-20)
(1.04735 -0.0863856 -1.97392e-20)
(1.03612 -0.0793856 2.01528e-22)
(1.02895 -0.0691305 -2.56001e-20)
(-0.119064 0.11018 7.94905e-20)
(-0.0617894 0.0575927 -5.4922e-19)
(0.0449907 0.0630795 1.70305e-18)
(0.227157 0.044748 -2.60825e-19)
(0.448834 0.0511452 -1.75225e-18)
(0.679158 0.051642 1.03802e-18)
(0.882553 0.0463755 -1.28249e-18)
(1.03758 0.0286251 3.35999e-19)
(1.13833 -0.000564765 -1.48601e-19)
(1.18763 -0.0352555 6.87016e-19)
(1.19706 -0.0664535 -8.5985e-19)
(1.18204 -0.088971 1.82314e-19)
(1.1564 -0.101103 -1.27071e-19)
(1.12851 -0.105118 2.58162e-19)
(1.10315 -0.103293 2.28862e-19)
(1.08164 -0.0973593 8.62202e-20)
(1.06396 -0.091142 -1.12324e-19)
(1.05058 -0.0816188 7.06116e-20)
(1.0393 -0.0757547 4.97568e-20)
(1.03193 -0.065992 -5.48503e-21)
(-0.12342 0.11096 -4.22165e-19)
(-0.0530149 0.0532163 6.88524e-19)
(0.0764673 0.0598203 -9.45417e-21)
(0.289686 0.0455052 -1.06342e-19)
(0.532793 0.0558027 -7.25492e-19)
(0.766443 0.0574248 -1.12705e-18)
(0.955837 0.0514879 -1.11488e-19)
(1.08858 0.0325049 7.81856e-19)
(1.16746 0.00373157 -2.38261e-19)
(1.20092 -0.0290689 -4.75862e-19)
(1.20152 -0.0581664 4.25193e-19)
(1.18299 -0.079451 -4.65996e-19)
(1.15669 -0.0913431 -2.11278e-19)
(1.12933 -0.0960623 1.5165e-19)
(1.1048 -0.0951219 -1.80016e-19)
(1.08383 -0.0905828 -2.55202e-19)
(1.06667 -0.0853576 9.31281e-20)
(1.05338 -0.0769333 -1.09362e-19)
(1.04213 -0.0720851 -6.58436e-20)
(1.03463 -0.0627915 -7.43017e-21)
(-0.127879 0.111139 3.89838e-21)
(-0.0426104 0.0480753 -8.14958e-19)
(0.113295 0.0567613 -2.36702e-19)
(0.359001 0.0480241 3.27407e-19)
(0.617841 0.0621984 1.79897e-18)
(0.846367 0.0638114 -1.04797e-18)
(1.01694 0.0565764 1.34895e-18)
(1.12745 0.0363635 -9.07909e-19)
(1.1874 0.00805946 1.0857e-19)
(1.20832 -0.0230279 7.95093e-19)
(1.20258 -0.0502953 4.03676e-19)
(1.18201 -0.0704954 -1.88523e-19)
(1.15582 -0.0821823 -2.90777e-20)
(1.12939 -0.0875049 -1.60164e-19)
(1.10584 -0.0873271 1.13494e-19)
(1.08554 -0.0840818 -2.65812e-20)
(1.06896 -0.0796714 -6.3906e-20)
(1.0558 -0.0723545 3.84582e-20)
(1.04466 -0.0683849 5.43695e-20)
(1.03706 -0.0595542 -3.45253e-20)
(-0.132389 0.110688 -3.4408e-19)
(-0.0299358 0.0423314 2.58351e-19)
(0.156624 0.0545834 -2.54609e-18)
(0.433809 0.0524951 6.96207e-19)
(0.70055 0.0697885 -1.35212e-18)
(0.916798 0.0702695 1.31306e-18)
(1.06631 0.0614162 5.31248e-19)
(1.15615 0.0401068 -6.85476e-19)
(1.20027 0.0123373 2.66876e-19)
(1.21152 -0.017193 -7.44222e-19)
(1.20136 -0.0428535 7.04758e-19)
(1.17981 -0.0620864 -1.07109e-19)
(1.15423 -0.0735923 4.14716e-19)
(1.12892 -0.0794149 -2.30526e-19)
(1.10642 -0.0799044 4.07473e-20)
(1.08685 -0.0778445 8.53248e-20)
(1.07088 -0.0740919 -7.44221e-20)
(1.05787 -0.0679027 9.30046e-20)
(1.04691 -0.0646572 7.67123e-21)
(1.03924 -0.0563058 6.21593e-20)
(-0.136887 0.109555 1.53392e-18)
(-0.0141731 0.0362385 7.79664e-19)
(0.207268 0.0540734 1.80255e-18)
(0.511837 0.0587649 -1.8118e-19)
(0.777944 0.077947 -3.41858e-19)
(0.976948 0.0764484 -1.59519e-18)
(1.10518 0.0659175 -9.0182e-19)
(1.17665 0.0436983 8.43909e-20)
(1.20784 0.0165227 -2.54655e-20)
(1.21178 -0.0115902 2.81207e-19)
(1.19868 -0.0358299 -4.24274e-19)
(1.17687 -0.0541928 -2.12363e-19)
(1.15217 -0.0655356 -4.40965e-19)
(1.1281 -0.0717588 -6.21704e-20)
(1.10663 -0.0728461 -8.75323e-20)
(1.08783 -0.0718535 1.09577e-19)
(1.07247 -0.0686295 -1.11116e-19)
(1.05961 -0.0635923 -1.09844e-19)
(1.04891 -0.0609013 -8.20829e-20)
(1.04118 -0.0530738 -9.21302e-21)
(-0.141293 0.107653 -1.48509e-18)
(0.00566499 0.0302032 -1.71881e-19)
(0.265345 0.055916 -1.51193e-18)
(0.590256 0.0663831 -1.86588e-18)
(0.848004 0.0861516 -8.81565e-19)
(1.02705 0.08217 2.33009e-18)
(1.13505 0.0700688 -6.94861e-19)
(1.19069 0.0471314 1.45178e-18)
(1.21152 0.0205969 3.01413e-19)
(1.21004 -0.00622518 4.14448e-20)
(1.19508 -0.0292007 4.01523e-20)
(1.17348 -0.0467779 3.7811e-19)
(1.14983 -0.057971 3.44757e-19)
(1.127 -0.0645048 -5.63403e-20)
(1.10654 -0.0661421 8.98173e-20)
(1.08853 -0.0660876 -3.56442e-20)
(1.07375 -0.0632985 1.70025e-19)
(1.06106 -0.0594305 6.15914e-20)
(1.05067 -0.0571142 -8.7359e-21)
(1.04288 -0.0498863 -1.97077e-20)
(-0.145499 0.104846 7.17937e-19)
(0.0306731 0.024846 -3.51953e-19)
(0.329996 0.0604437 2.75017e-19)
(0.666291 0.0747757 1.80581e-18)
(0.909757 0.0940609 1.72429e-19)
(1.06794 0.0873752 -1.08516e-18)
(1.15747 0.0738961 -4.10393e-19)
(1.19973 0.0504139 -7.18233e-19)
(1.21241 0.0245546 -5.32585e-19)
(1.20699 -0.00109216 2.26626e-19)
(1.19094 -0.0229366 1.17386e-20)
(1.16985 -0.0398041 -2.58319e-19)
(1.14731 -0.0508568 -2.72886e-19)
(1.1257 -0.0576247 1.38482e-19)
(1.1062 -0.0597789 -7.35094e-20)
(1.089 -0.0605244 1.93668e-19)
(1.07473 -0.0581163 -1.39565e-20)
(1.06225 -0.0554169 8.05033e-22)
(1.05223 -0.0532902 1.20726e-19)
(1.04435 -0.0467689 -1.0625e-20)
(-0.14936 0.100944 6.74066e-19)
(0.0619204 0.0210093 2.29499e-19)
(0.399382 0.0674815 1.3616e-18)
(0.737734 0.0834259 -1.23526e-18)
(0.96306 0.101499 -4.38835e-20)
(1.10072 0.0920718 -4.03727e-19)
(1.17382 0.0774402 6.32604e-19)
(1.20497 0.0535606 8.03105e-19)
(1.2113 0.0283982 -1.85912e-19)
(1.20309 0.00382059 -6.26557e-19)
(1.18651 -0.0170075 -1.80981e-19)
(1.16612 -0.0332352 3.43795e-19)
(1.14469 -0.0441531 -1.64208e-19)
(1.12425 -0.0510943 -4.27016e-19)
(1.10566 -0.0537394 -4.16306e-20)
(1.08924 -0.0551433 5.35402e-20)
(1.07544 -0.0531041 -6.91796e-20)
(1.06322 -0.051543 -2.99151e-20)
(1.05357 -0.0494187 4.02967e-20)
(1.04556 -0.0437424 1.06653e-20)
(-0.152719 0.0957726 -1.94335e-18)
(0.100309 0.0195874 -1.65019e-18)
(0.471027 0.0764048 8.446e-19)
(0.80316 0.0919635 1.23619e-18)
(1.00831 0.108402 -1.71722e-19)
(1.12655 0.0962998 5.88208e-19)
(1.18532 0.0807449 9.19202e-19)
(1.20736 0.056588 -2.62909e-19)
(1.20882 0.0321338 8.25607e-19)
(1.19868 0.00852714 8.02741e-19)
(1.18197 -0.0113844 4.26073e-19)
(1.16236 -0.0270372 7.11423e-20)
(1.14202 -0.0378232 6.59743e-20)
(1.12266 -0.0448931 4.89317e-19)
(1.10494 -0.0480025 -1.42362e-19)
(1.08928 -0.0499286 -2.40313e-19)
(1.0759 -0.0482861 1.18119e-19)
(1.06402 -0.0477875 1.25049e-19)
(1.05469 -0.0454814 -5.77373e-20)
(1.0465 -0.0408295 -5.4298e-20)
(-0.155407 0.0891537 6.58308e-19)
(0.146214 0.0213762 1.39992e-18)
(0.542356 0.0864017 7.45858e-19)
(0.861883 0.100164 -1.98193e-18)
(1.04619 0.114772 2.51452e-19)
(1.14654 0.100111 1.05902e-19)
(1.19297 0.0838523 -6.99144e-19)
(1.20764 0.0595125 -1.03442e-18)
(1.20541 0.0357691 -6.77522e-20)
(1.19399 0.0130419 -4.98407e-19)
(1.1774 -0.00604102 -5.88453e-19)
(1.15861 -0.0211793 6.46156e-19)
(1.13931 -0.0318342 3.30726e-20)
(1.12097 -0.0390032 -4.76613e-19)
(1.10408 -0.0425444 2.11561e-20)
(1.08913 -0.044873 1.0609e-19)
(1.07615 -0.0436853 -2.51054e-19)
(1.06466 -0.0441083 -7.98525e-20)
(1.05557 -0.0414622 3.73763e-20)
(1.04717 -0.0380749 9.38714e-20)
(-0.157135 0.0808926 7.58761e-19)
(0.199266 0.0268501 -4.83132e-19)
(0.611173 0.0967556 -1.69422e-18)
(0.913786 0.107909 -6.34862e-19)
(1.07751 0.120642 1.8917e-19)
(1.16167 0.103561 -2.77179e-19)
(1.19761 0.0867997 8.19378e-19)
(1.20638 0.0623492 1.01785e-19)
(1.20139 0.0393114 -3.39572e-19)
(1.18918 0.0173785 5.62956e-19)
(1.17287 -0.000953904 8.93071e-20)
(1.15491 -0.0156331 -4.20406e-19)
(1.13659 -0.0261574 3.90703e-19)
(1.11919 -0.0334075 4.83767e-19)
(1.10309 -0.0373403 2.34975e-19)
(1.08881 -0.0399795 -1.43447e-19)
(1.07622 -0.0393128 1.19753e-19)
(1.06516 -0.040441 -3.81762e-20)
(1.05619 -0.0373827 3.34507e-20)
(1.04763 -0.0355997 -6.06431e-21)
(-0.157534 0.0709221 -9.61869e-19)
(0.258325 0.0358867 1.67262e-18)
(0.6759 0.107004 3.30477e-19)
(0.959116 0.115152 9.97409e-19)
(1.10308 0.12606 6.75628e-19)
(1.17281 0.106701 -6.58696e-19)
(1.19991 0.0896199 -8.85643e-19)
(1.20401 0.0651109 2.87363e-19)
(1.19699 0.0427678 2.62614e-19)
(1.18433 0.0215493 -1.65396e-19)
(1.16842 0.00389764 2.33073e-19)
(1.15126 -0.010373 2.59685e-19)
(1.13386 -0.020768 -3.04997e-19)
(1.11734 -0.0280891 -2.23795e-20)
(1.10199 -0.0323677 -2.78742e-20)
(1.08832 -0.0352587 -1.0286e-19)
(1.07614 -0.035156 -4.12949e-20)
(1.06551 -0.0367203 -8.76232e-20)
(1.05657 -0.0333671 5.98687e-20)
(1.04806 -0.033576 -6.42474e-20)
(-0.156144 0.0594023 9.93493e-19)
(0.321642 0.0477197 -1.76121e-18)
(0.735591 0.116927 -2.55682e-19)
(0.998329 0.121889 -9.57354e-19)
(1.1237 0.131077 -7.02448e-19)
(1.18069 0.10958 -4.53373e-19)
(1.20041 0.0923404 -7.52595e-20)
(1.20085 0.0678083 4.51764e-19)
(1.19237 0.0461443 -2.44981e-19)
(1.17952 0.0255654 -4.33948e-19)
(1.16406 0.0085319 3.06074e-19)
(1.14768 -0.0053763 -2.57252e-19)
(1.13113 -0.0156443 5.87687e-20)
(1.11543 -0.0230308 8.80315e-20)
(1.10079 -0.0276085 -1.70128e-20)
(1.0877 -0.0307211 1.11092e-19)
(1.07593 -0.0311779 2.10466e-20)
(1.06571 -0.0329328 6.68257e-20)
(1.0568 -0.0296683 -4.7547e-20)
(1.04853 -0.0322925 7.74204e-20)
(-0.1524 0.0467937 -8.20748e-19)
(0.387192 0.0611319 5.10799e-19)
(0.789805 0.126451 1.62054e-18)
(1.03197 0.128132 5.2583e-19)
(1.14007 0.135745 -1.03614e-19)
(1.18595 0.112241 1.33589e-18)
(1.19955 0.0949843 2.35635e-19)
(1.19716 0.07045 -1.69175e-19)
(1.18765 0.0494462 3.32824e-19)
(1.17478 0.0294367 -2.81314e-20)
(1.1598 0.0129654 -1.16231e-19)
(1.14415 -0.000621984 4.018e-19)
(1.1284 -0.0107669 -3.14581e-19)
(1.11346 -0.0182151 -4.77631e-19)
(1.09949 -0.0230492 -1.86353e-19)
(1.08695 -0.0263689 1.31563e-19)
(1.07561 -0.0273366 2.19583e-20)
(1.06576 -0.0291629 4.48469e-20)
(1.05695 -0.0265895 -3.86168e-20)
(1.04926 -0.0289586 -7.84084e-20)
(-0.145636 0.0338976 -6.76464e-19)
(0.45307 0.0748019 -1.3856e-18)
(0.83848 0.135564 -2.84591e-18)
(1.06059 0.133905 1.88109e-18)
(1.15283 0.140111 1.17486e-18)
(1.18909 0.114722 -1.26013e-18)
(1.19766 0.0975698 6.60801e-19)
(1.1931 0.073042 1.38337e-19)
(1.18289 0.0526769 -4.9705e-19)
(1.17013 0.033171 4.18227e-19)
(1.15564 0.0172117 1.66621e-19)
(1.14069 0.00390728 -5.92065e-19)
(1.12568 -0.00611966 3.60957e-19)
(1.11145 -0.0136269 4.80974e-19)
(1.0981 -0.0186801 -5.32806e-20)
(1.08609 -0.0221967 8.69611e-20)
(1.07518 -0.0236159 1.1966e-19)
(1.06567 -0.0255653 1.92019e-20)
(1.05714 -0.0233784 -1.55209e-20)
(1.0496 -0.0263529 7.91035e-20)
(-0.135104 0.0218437 1.29643e-19)
(0.517773 0.0876537 -9.91584e-19)
(0.881817 0.144279 -1.4262e-18)
(1.08476 0.139236 -2.10892e-18)
(1.16255 0.144217 -1.11121e-18)
(1.19054 0.117055 5.58426e-19)
(1.19499 0.100112 -8.37166e-19)
(1.18881 0.0755891 1.75578e-19)
(1.17814 0.0558397 -1.91568e-20)
(1.16557 0.0367756 -7.13083e-19)
(1.15157 0.0212834 -3.00235e-19)
(1.13728 0.00822771 -5.28074e-20)
(1.12296 -0.00168715 -4.71225e-20)
(1.1094 -0.00925138 -1.26649e-19)
(1.09665 -0.0144918 2.10218e-19)
(1.08513 -0.0181965 -2.1769e-19)
(1.07463 -0.0200312 -1.32124e-19)
(1.06549 -0.022019 -1.23722e-19)
(1.05716 -0.0205692 4.99246e-20)
(1.04997 -0.0234752 1.2391e-20)
(-0.12003 0.0120164 1.20716e-18)
(0.580307 0.0990703 1.03798e-18)
(0.920184 0.152638 8.31034e-19)
(1.10498 0.144156 1.1845e-18)
(1.1697 0.148103 1.8079e-20)
(1.19066 0.119269 3.23225e-19)
(1.19175 0.102621 3.63626e-19)
(1.18438 0.0780941 -5.99877e-19)
(1.17343 0.0589367 1.07454e-19)
(1.16111 0.0402568 1.1553e-19)
(1.14758 0.0251915 1.1025e-19)
(1.13392 0.0123532 2.89304e-19)
(1.12025 0.00254393 1.24135e-19)
(1.10732 -0.00507543 8.59729e-20)
(1.09512 -0.0104761 -2.70415e-19)
(1.08409 -0.0143653 6.80056e-21)
(1.07399 -0.0165511 4.49891e-20)
(1.06517 -0.0186774 2.14832e-20)
(1.05714 -0.0176946 -2.73724e-20)
(1.05016 -0.02064 -4.33682e-22)
(-0.0996898 0.00592802 -7.11386e-19)
(0.640105 0.108918 3.45668e-19)
(0.954036 0.160709 -2.32131e-19)
(1.12173 0.1487 5.75278e-20)
(1.17471 0.151804 -1.38307e-19)
(1.18972 0.121387 -1.50149e-19)
(1.1881 0.105107 -5.4281e-19)
(1.17988 0.080559 -1.45214e-19)
(1.16877 0.0619696 -9.07843e-20)
(1.15675 0.0436199 2.44994e-19)
(1.14368 0.0289458 -7.90764e-21)
(1.13061 0.0162963 1.99278e-19)
(1.11754 0.0065859 -2.01556e-19)
(1.1052 -0.0010869 2.32879e-19)
(1.09353 -0.00662613 -7.10148e-20)
(1.08296 -0.0106899 2.59514e-19)
(1.07325 -0.0132081 -1.83425e-19)
(1.06477 -0.0154047 8.33955e-22)
(1.05697 -0.015002 -1.25209e-19)
(1.05027 -0.0180019 -9.79623e-21)
(-0.0735067 0.00504538 1.56593e-18)
(0.696853 0.117429 1.62737e-19)
(0.983842 0.168578 1.38878e-18)
(1.13544 0.152906 -4.79943e-20)
(1.17793 0.155351 7.5664e-19)
(1.18796 0.123431 -7.91235e-19)
(1.18416 0.107574 5.35899e-19)
(1.17535 0.0829847 -2.98449e-19)
(1.16419 0.0649395 2.31194e-19)
(1.15248 0.0468697 3.8853e-19)
(1.13985 0.0325549 -4.96914e-20)
(1.12734 0.020068 -2.31904e-19)
(1.11483 0.0104498 -2.99314e-19)
(1.10305 0.00272488 5.41075e-20)
(1.09188 -0.00293376 -5.66603e-20)
(1.08175 -0.00717102 -1.20387e-19)
(1.07243 -0.00996566 -4.90513e-20)
(1.06425 -0.0122956 7.16288e-20)
(1.05672 -0.0123605 2.40165e-20)
(1.05026 -0.0152585 1.17157e-20)
(-0.041167 0.0105818 2.11906e-19)
(0.750332 0.125024 5.15237e-19)
(1.01004 0.176333 -1.6042e-18)
(1.14647 0.15681 1.20842e-19)
(1.17966 0.158771 -1.15349e-18)
(1.18556 0.125417 1.79818e-19)
(1.18 0.110027 5.9971e-19)
(1.17082 0.0853711 4.53505e-20)
(1.15967 0.067847 4.6374e-19)
(1.14829 0.0500104 -1.19482e-19)
(1.13608 0.0360266 -1.05831e-19)
(1.12411 0.0236781 1.6915e-19)
(1.11213 0.0141456 -7.38426e-20)
(1.10088 0.00636995 8.49948e-20)
(1.09018 0.000606114 4.42479e-20)
(1.08047 -0.0037944 -9.71268e-20)
(1.07152 -0.00684918 1.36905e-19)
(1.06365 -0.00927727 -1.31068e-19)
(1.05636 -0.00979961 6.9509e-20)
(1.05014 -0.012754 -5.44766e-20)
(-0.00273379 0.023266 -1.40201e-18)
(0.80031 0.132151 -3.13882e-19)
(1.03299 0.184048 2.23069e-19)
(1.15517 0.160447 -5.64874e-19)
(1.18014 0.162088 1.03071e-18)
(1.18266 0.127357 9.72555e-19)
(1.17569 0.112467 -3.37995e-19)
(1.16631 0.0877181 3.82339e-19)
(1.15521 0.0706926 -5.90603e-19)
(1.14418 0.0530457 3.58374e-20)
(1.13238 0.0393677 2.60378e-19)
(1.12091 0.0271354 8.54931e-20)
(1.10943 0.0176824 9.92914e-20)
(1.09869 0.00985687 1.3568e-19)
(1.08844 0.00400107 -2.6948e-19)
(1.07914 -0.000560661 1.10335e-19)
(1.07053 -0.00383231 -7.52808e-20)
(1.06296 -0.00638702 1.49419e-19)
(1.05592 -0.00733818 -9.24883e-21)
(1.04991 -0.0101664 1.81129e-20)
(0.0412659 0.0431198 -3.03897e-20)
(0.846515 0.139174 9.09912e-19)
(1.05303 0.191771 -7.65162e-19)
(1.16183 0.163848 -2.28839e-19)
(1.17961 0.165318 -2.2741e-19)
(1.17939 0.129264 -2.22663e-19)
(1.17128 0.114895 -8.38051e-19)
(1.16183 0.0900246 -5.65927e-20)
(1.15082 0.0734762 -3.59924e-20)
(1.14013 0.055979 -4.35785e-19)
(1.12872 0.0425843 -2.41897e-19)
(1.11774 0.0304476 -1.31833e-19)
(1.10673 0.0210685 4.00524e-20)
(1.09647 0.0131939 -1.78372e-19)
(1.08665 0.00725538 1.44107e-19)
(1.07774 0.00254247 4.75244e-20)
(1.06947 -0.000928389 1.15079e-20)
(1.06218 -0.00360126 -2.28601e-20)
(1.05538 -0.00492333 1.98135e-20)
(1.04959 -0.0077657 4.56258e-20)
(0.0898166 0.0693007 4.36029e-19)
(0.888666 0.146313 -7.49366e-19)
(1.07039 0.199511 2.37011e-20)
(1.16671 0.167037 9.83508e-20)
(1.17821 0.168475 -6.74573e-19)
(1.17583 0.131144 -1.90797e-19)
(1.16681 0.117311 1.29563e-19)
(1.15738 0.0922896 9.75124e-20)
(1.14649 0.0761979 1.5962e-19)
(1.13615 0.0588131 -1.42703e-19)
(1.12512 0.0456818 -1.93973e-19)
(1.1146 0.0336216 -2.25904e-19)
(1.10404 0.0243114 1.52807e-19)
(1.09423 0.0163879 -8.93002e-20)
(1.08481 0.0103758 1.31359e-19)
(1.07629 0.00551601 5.80327e-20)
(1.06835 0.00187654 -8.64628e-20)
(1.06133 -0.000923505 -8.2488e-21)
(1.05476 -0.00261128 1.60218e-20)
(1.04917 -0.00533393 1.12828e-20)
(0.141485 0.100084 -1.12792e-19)
(0.926528 0.153621 5.91727e-19)
(1.0853 0.207249 4.72857e-19)
(1.17005 0.170038 -5.25656e-19)
(1.17611 0.17157 1.22937e-18)
(1.17205 0.133003 -1.30523e-19)
(1.1623 0.119712 7.15325e-19)
(1.15297 0.094512 -1.24089e-19)
(1.14221 0.0788573 5.28189e-20)
(1.13223 0.0615508 3.83016e-19)
(1.12155 0.048665 4.35835e-19)
(1.11148 0.0366638 1.57949e-19)
(1.10134 0.0274177 -1.58131e-19)
(1.09197 0.0194455 1.12953e-19)
(1.08295 0.0133662 3.44728e-20)
(1.07478 0.00836905 -2.36296e-19)
(1.06716 0.00457792 -3.4938e-20)
(1.0604 0.00164673 3.97398e-20)
(1.05407 -0.000339499 -5.86171e-20)
(1.04866 -0.00303925 -8.68707e-21)
(0.194599 0.133054 1.02036e-18)
(0.959988 0.161012 6.9905e-20)
(1.09794 0.214933 -6.72792e-19)
(1.17206 0.172868 -2.74999e-19)
(1.17343 0.17461 -5.58021e-19)
(1.1681 0.134845 -3.90552e-19)
(1.15776 0.122097 -1.96853e-19)
(1.1486 0.0966901 4.49828e-20)
(1.13798 0.0814539 7.10391e-20)
(1.12835 0.0641944 -8.03202e-20)
(1.11801 0.0515381 -3.1334e-19)
(1.10838 0.0395797 -6.9005e-20)
(1.09865 0.0303935 -1.33012e-19)
(1.0897 0.0223725 -4.4378e-20)
(1.08104 0.0162323 -1.81405e-19)
(1.07323 0.0111039 1.4497e-19)
(1.06591 0.0071814 1.12329e-19)
(1.05941 0.00411944 -9.15202e-21)
(1.05331 0.00184082 -1.31635e-20)
(1.04808 -0.000758702 6.23171e-20)
(0.247505 0.165501 -2.40142e-18)
(0.989101 0.168305 7.83236e-20)
(1.1085 0.2225 -2.18258e-19)
(1.17293 0.175544 3.62111e-19)
(1.17027 0.177598 -3.5367e-19)
(1.16403 0.136671 1.01765e-18)
(1.1532 0.124463 -1.36765e-19)
(1.14426 0.0988228 6.58363e-19)
(1.13379 0.0839873 -1.6912e-19)
(1.12452 0.0667459 -1.92108e-19)
(1.11451 0.0543048 -8.8968e-20)
(1.1053 0.0423743 1.27803e-19)
(1.09595 0.0332444 9.41574e-20)
(1.08741 0.0251741 -4.43886e-22)
(1.07911 0.0189779 7.32309e-20)
(1.07164 0.0137269 -3.86182e-20)
(1.06461 0.00968711 -3.35228e-20)
(1.05836 0.00648815 -7.48036e-20)
(1.05248 0.0039767 4.07272e-20)
(1.04743 0.00141283 4.33404e-20)
(0.298832 0.194958 9.60083e-20)
(1.01411 0.175303 -6.02239e-19)
(1.11713 0.229882 5.0488e-19)