/*--------------------------------*- C++ -*----------------------------------*\
  =========                 |
  \\      /  F ield         | OpenFOAM: The Open Source CFD Toolbox
   \\    /   O peration     | Website:  https://openfoam.org
    \\  /    A nd           | Version:  7
     \\/     M anipulation  |
\*---------------------------------------------------------------------------*/
FoamFile
{
    version     2.0;
    format      ascii;
    class       surfaceScalarField;
    location    "0.4";
    object      phi;
}
// * * * * * * * * * * * * * * * * * * * * * * * * * * * * * * * * * * * * * //

dimensions      [0 3 -1 0 0 0 0];

internalField   nonuniform List<scalar> 
19800
(
7.80418e-11
-7.8065e-11
1.79054e-10
-1.01015e-10
2.23265e-10
-4.42131e-11
1.76435e-10
4.68351e-11
2.80196e-11
1.48416e-10
-2.21229e-10
2.49253e-10
-5.65326e-10
3.44096e-10
-9.95667e-10
4.30344e-10
-1.50283e-09
5.07159e-10
-2.07738e-09
5.74552e-10
-2.71032e-09
6.32938e-10
-3.39326e-09
6.82937e-10
-4.11852e-09
7.25271e-10
-4.87921e-09
7.60681e-10
-5.6691e-09
7.89892e-10
-6.48269e-09
8.13587e-10
-7.31507e-09
8.32393e-10
-8.16195e-09
8.46877e-10
-9.0195e-09
8.57552e-10
-9.88437e-09
8.64867e-10
-1.07536e-08
8.69199e-10
-1.16244e-08
8.7087e-10
-1.24946e-08
8.70146e-10
-1.33618e-08
8.67243e-10
-1.42242e-08
8.6233e-10
-1.50797e-08
8.55525e-10
-1.59266e-08
8.46908e-10
-1.67631e-08
8.36522e-10
-1.75875e-08
8.24383e-10
-1.8398e-08
8.10478e-10
-1.91928e-08
7.94765e-10
-1.99699e-08
7.77187e-10
-2.07276e-08
7.57668e-10
-2.14637e-08
7.36124e-10
-2.21762e-08
7.1246e-10
-2.28628e-08
6.86576e-10
-2.35211e-08
6.58371e-10
-2.41489e-08
6.27747e-10
-2.47435e-08
5.94613e-10
-2.53024e-08
5.58885e-10
-2.58229e-08
5.20494e-10
-2.63023e-08
4.79385e-10
-2.67378e-08
4.35526e-10
-2.71267e-08
3.88905e-10
-2.74662e-08
3.39535e-10
-2.77537e-08
2.87458e-10
-2.79864e-08
2.32746e-10
-2.81619e-08
1.75507e-10
-2.82778e-08
1.15883e-10
-2.83319e-08
5.40505e-11
-2.83221e-08
-9.77452e-12
-2.82468e-08
-7.53376e-11
-2.81044e-08
-1.42348e-10
-2.7894e-08
-2.10477e-10
-2.76146e-08
-2.79357e-10
-2.7266e-08
-3.4859e-10
-2.68483e-08
-4.17746e-10
-2.63619e-08
-4.86364e-10
-2.58079e-08
-5.5396e-10
-2.51879e-08
-6.20031e-10
-2.45038e-08
-6.84062e-10
-2.37583e-08
-7.45527e-10
-2.29544e-08
-8.039e-10
-2.20958e-08
-8.58661e-10
-2.11865e-08
-9.09302e-10
-2.02311e-08
-9.55332e-10
-1.92348e-08
-9.96292e-10
-1.82031e-08
-1.03175e-09
-1.71418e-08
-1.06133e-09
-1.60571e-08
-1.08468e-09
-1.49556e-08
-1.10152e-09
-1.38439e-08
-1.11161e-09
-1.27291e-08
-1.1148e-09
-1.16182e-08
-1.11096e-09
-1.05181e-08
-1.10007e-09
-9.43597e-09
-1.08215e-09
-8.37867e-09
-1.0573e-09
-7.35298e-09
-1.02569e-09
-6.36545e-09
-9.87527e-10
-5.42234e-09
-9.43113e-10
-4.52955e-09
-8.92789e-10
-3.6926e-09
-8.36954e-10
-2.91654e-09
-7.76059e-10
-2.20593e-09
-7.10601e-10
-1.5648e-09
-6.41126e-10
-9.96576e-10
-5.68224e-10
-5.04039e-10
-4.92535e-10
-8.92789e-11
-4.14756e-10
2.46398e-10
-3.35671e-10
5.02547e-10
-2.56144e-10
6.79741e-10
-1.77191e-10
7.79816e-10
-1.00073e-10
8.06206e-10
-2.63889e-11
7.64462e-10
4.17446e-11
6.63139e-10
1.01324e-10
5.15195e-10
1.47946e-10
3.40001e-10
1.75198e-10
1.66553e-10
1.7345e-10
3.76922e-11
1.28862e-10
3.76957e-11
1.01136e-10
-1.79204e-10
1.71572e-10
-1.71454e-10
9.06222e-11
3.67391e-11
-2.03885e-10
3.41335e-10
-7.39938e-10
6.84476e-10
-1.52269e-09
1.032e-09
-2.54346e-09
1.36487e-09
-3.78616e-09
1.67305e-09
-5.23089e-09
1.95189e-09
-6.85624e-09
2.1999e-09
-8.64071e-09
2.4174e-09
-1.05635e-08
2.60576e-09
-1.26052e-08
2.7669e-09
-1.47475e-08
2.90303e-09
-1.6974e-08
3.01642e-09
-1.92698e-08
3.10932e-09
-2.16212e-08
3.18383e-09
-2.40162e-08
3.24192e-09
-2.6444e-08
3.28536e-09
-2.88949e-08
3.31573e-09
-3.13601e-08
3.3344e-09
-3.38318e-08
3.34255e-09
-3.63028e-08
3.34116e-09
-3.87666e-08
3.33103e-09
-4.1217e-08
3.31278e-09
-4.36484e-08
3.28688e-09
-4.60552e-08
3.25367e-09
-4.8432e-08
3.21332e-09
-5.07735e-08
3.16593e-09
-5.30745e-08
3.11146e-09
-5.53295e-08
3.04981e-09
-5.75331e-08
2.98078e-09
-5.96796e-08
2.90415e-09
-6.17631e-08
2.81963e-09
-6.37776e-08
2.72689e-09
-6.57166e-08
2.62561e-09
-6.75737e-08
2.51544e-09
-6.9342e-08
2.39605e-09
-7.10145e-08
2.26714e-09
-7.25841e-08
2.12845e-09
-7.40433e-08
1.97973e-09
-7.53848e-08
1.82084e-09
-7.66009e-08
1.65168e-09
-7.76843e-08
1.47225e-09
-7.86274e-08
1.28264e-09
-7.94229e-08
1.08302e-09
-8.00639e-08
8.73724e-10
-8.05436e-08
6.55163e-10
-8.08556e-08
4.27898e-10
-8.09942e-08
1.92618e-10
-8.09541e-08
-4.98517e-11
-8.07309e-08
-2.9855e-10
-8.03209e-08
-5.52373e-10
-7.97212e-08
-8.10083e-10
-7.89303e-08
-1.07032e-09
-7.79473e-08
-1.33159e-09
-7.67728e-08
-1.59229e-09
-7.54084e-08
-1.85072e-09
-7.38572e-08
-2.10511e-09
-7.21237e-08
-2.35359e-09
-7.02135e-08
-2.59426e-09
-6.81338e-08
-2.82521e-09
-6.58932e-08
-3.0445e-09
-6.35016e-08
-3.25023e-09
-6.09704e-08
-3.44053e-09
-5.83121e-08
-3.61364e-09
-5.55405e-08
-3.76785e-09
-5.26707e-08
-3.9016e-09
-4.97185e-08
-4.01349e-09
-4.6701e-08
-4.10226e-09
-4.36356e-08
-4.16687e-09
-4.05408e-08
-4.20647e-09
-3.74351e-08
-4.22043e-09
-3.43377e-08
-4.20836e-09
-3.12677e-08
-4.17011e-09
-2.82441e-08
-4.10578e-09
-2.52857e-08
-4.01572e-09
-2.24109e-08
-3.9005e-09
-1.96374e-08
-3.76094e-09
-1.69824e-08
-3.59811e-09
-1.44619e-08
-3.41327e-09
-1.2091e-08
-3.20791e-09
-9.88335e-09
-2.9837e-09
-7.85143e-09
-2.74252e-09
-6.00612e-09
-2.48644e-09
-4.35663e-09
-2.21771e-09
-2.91032e-09
-1.93883e-09
-1.67255e-09
-1.65253e-09
-6.46367e-10
-1.36185e-09
1.67746e-10
-1.07025e-09
7.72363e-10
-7.81806e-10
1.17361e-09
-5.01322e-10
1.38208e-09
-2.34856e-10
1.41416e-09
9.66371e-12
1.29306e-09
2.22426e-10
1.05177e-09
3.89244e-10
7.35094e-10
4.91877e-10
4.02373e-10
5.06173e-10
1.27948e-10
4.03292e-10
1.65645e-10
4.53666e-11
-2.24572e-10
-3.57804e-11
-9.02985e-11
-3.64964e-10
3.6592e-10
-1.0112e-09
9.87578e-10
-2.00753e-09
1.6808e-09
-3.36181e-09
2.38628e-09
-5.06485e-09
3.06791e-09
-7.09682e-09
3.70501e-09
-9.43174e-09
4.28682e-09
-1.20406e-08
4.80874e-09
-1.48933e-08
5.27011e-09
-1.79602e-08
5.67263e-09
-2.12127e-08
6.01942e-09
-2.4624e-08
6.31435e-09
-2.81692e-08
6.56164e-09
-3.18255e-08
6.76555e-09
-3.55718e-08
6.93022e-09
-3.93895e-08
7.05955e-09
-4.32612e-08
7.1571e-09
-4.71716e-08
7.2261e-09
-5.11065e-08
7.26935e-09
-5.50533e-08
7.28929e-09
-5.90001e-08
7.28799e-09
-6.29362e-08
7.26713e-09
-6.68515e-08
7.22804e-09
-7.07363e-08
7.17174e-09
-7.45816e-08
7.09895e-09
-7.83784e-08
7.01011e-09
-8.21179e-08
6.90543e-09
-8.57914e-08
6.78491e-09
-8.93899e-08
6.64835e-09
-9.29046e-08
6.49541e-09
-9.6326e-08
6.32564e-09
-9.96449e-08
6.13846e-09
-1.02851e-07
5.93326e-09
-1.05935e-07
5.70939e-09
-1.08886e-07
5.46617e-09
-1.11693e-07
5.20296e-09
-1.14345e-07
4.91917e-09
-1.16831e-07
4.61428e-09
-1.19139e-07
4.28786e-09
-1.21257e-07
3.93965e-09
-1.23175e-07
3.56949e-09
-1.2488e-07
3.17744e-09
-1.26362e-07
2.76375e-09
-1.27607e-07
2.32887e-09
-1.28607e-07
1.87352e-09
-1.29351e-07
1.39866e-09
-1.29828e-07
9.05511e-10
-1.30031e-07
3.95597e-10
-1.29952e-07
-1.29284e-10
-1.29583e-07
-6.67051e-10
-1.2892e-07
-1.21533e-09
-1.27959e-07
-1.77146e-09
-1.26697e-07
-2.33253e-09
-1.25133e-07
-2.89535e-09
-1.23269e-07
-3.45652e-09
-1.21107e-07
-4.01244e-09
-1.18653e-07
-4.55931e-09
-1.15913e-07
-5.09321e-09
-1.12897e-07
-5.61014e-09
-1.09617e-07
-6.10604e-09
-1.06084e-07
-6.57683e-09
-1.02316e-07
-7.01851e-09
-9.83294e-08
-7.42716e-09
-9.4144e-08
-7.79903e-09
-8.97812e-08
-8.13059e-09
-8.52643e-08
-8.41854e-09
-8.06179e-08
-8.65991e-09
-7.5868e-08
-8.85209e-09
-7.10421e-08
-8.99286e-09
-6.61681e-08
-9.08043e-09
-6.1275e-08
-9.11349e-09
-5.63922e-08
-9.0912e-09
-5.1549e-08
-9.01325e-09
-4.6775e-08
-8.87983e-09
-4.20991e-08
-8.69164e-09
-3.75496e-08
-8.44992e-09
-3.31542e-08
-8.1564e-09
-2.8939e-08
-7.81329e-09
-2.4929e-08
-7.42329e-09
-2.11473e-08
-6.98958e-09
-1.76153e-08
-6.51573e-09
-1.4352e-08
-6.0058e-09
-1.13742e-08
-5.46423e-09
-8.69595e-09
-4.89596e-09
-6.32838e-09
-4.3064e-09
-4.27938e-09
-3.70153e-09
-2.55317e-09
-3.08805e-09
-1.14988e-09
-2.47355e-09
-6.48775e-11
-1.8668e-09
7.12037e-10
-1.27824e-09
1.19766e-09
-7.2048e-10
1.41663e-09
-2.093e-10
1.40358e-09
2.35475e-10
1.20447e-09
5.8835e-10
8.79335e-10
8.17012e-10
5.03978e-10
8.81532e-10
1.71363e-10
7.3591e-10
3.37008e-10
-4.60774e-11
-1.78493e-10
-3.43874e-10
2.07496e-10
-9.95438e-10
1.01749e-09
-2.0607e-09
2.05283e-09
-3.56895e-09
3.18906e-09
-5.526e-09
4.34334e-09
-7.92057e-09
5.46247e-09
-1.07298e-08
6.51422e-09
-1.39234e-08
7.48049e-09
-1.74673e-08
8.35264e-09
-2.13254e-08
9.1282e-09
-2.54615e-08
9.80871e-09
-2.98403e-08
1.03982e-08
-3.44283e-08
1.09023e-08
-3.91937e-08
1.13271e-08
-4.41074e-08
1.16792e-08
-4.91423e-08
1.19651e-08
-5.42736e-08
1.21908e-08
-5.94787e-08
1.23622e-08
-6.47369e-08
1.24843e-08
-7.00294e-08
1.25618e-08
-7.53388e-08
1.25987e-08
-8.06492e-08
1.25984e-08
-8.59458e-08
1.25637e-08
-9.12145e-08
1.24968e-08
-9.64422e-08
1.23994e-08
-1.01616e-07
1.22729e-08
-1.06724e-07
1.21179e-08
-1.11753e-07
1.1935e-08
-1.16693e-07
1.1724e-08
-1.21529e-07
1.14849e-08
-1.26251e-07
1.1217e-08
-1.30845e-07
1.09196e-08
-1.35298e-07
1.0592e-08
-1.39598e-07
1.0233e-08
-1.4373e-07
9.84167e-09
-1.47681e-07
9.41699e-09
-1.51436e-07
8.95791e-09
-1.5498e-07
8.46352e-09
-1.58299e-07
7.93303e-09
-1.61377e-07
7.36582e-09
-1.64199e-07
6.76149e-09
-1.66749e-07
6.1199e-09
-1.69013e-07
5.44123e-09
-1.70975e-07
4.72596e-09
-1.72621e-07
3.97499e-09
-1.73937e-07
3.18958e-09
-1.7491e-07
2.37144e-09
-1.75527e-07
1.52274e-09
-1.75778e-07
6.46092e-10
-1.75652e-07
-2.55391e-10
-1.75141e-07
-1.17813e-09
-1.74238e-07
-2.11805e-09
-1.72939e-07
-3.07065e-09
-1.7124e-07
-4.03094e-09
-1.69142e-07
-4.99354e-09
-1.66646e-07
-5.95269e-09
-1.63756e-07
-6.90228e-09
-1.6048e-07
-7.83593e-09
-1.56826e-07
-8.74705e-09
-1.52807e-07
-9.62888e-09
-1.48438e-07
-1.04746e-08
-1.43738e-07
-1.12774e-08
-1.38726e-07
-1.20306e-08
-1.33425e-07
-1.27275e-08
-1.27862e-07
-1.3362e-08
-1.22065e-07
-1.3928e-08
-1.16063e-07
-1.44202e-08
-1.0989e-07
-1.48334e-08
-1.03579e-07
-1.51634e-08
-9.7165e-08
-1.54064e-08
-9.0686e-08
-1.55594e-08
-8.41792e-08
-1.56203e-08
-7.76829e-08
-1.55876e-08
-7.12353e-08
-1.54608e-08
-6.48751e-08
-1.52401e-08
-5.86398e-08
-1.49269e-08
-5.25666e-08
-1.45231e-08
-4.66914e-08
-1.40316e-08
-4.10484e-08
-1.34563e-08
-3.567e-08
-1.28017e-08
-3.05866e-08
-1.2073e-08
-2.58258e-08
-1.12765e-08
-2.14125e-08
-1.04191e-08
-1.73683e-08
-9.50836e-09
-1.37115e-08
-8.55276e-09
-1.04563e-08
-7.56163e-09
-7.61252e-09
-6.5453e-09
-5.1853e-09
-5.51527e-09
-3.1743e-09
-4.48455e-09
-1.57305e-09
-3.46805e-09
-3.68097e-10
-2.48319e-09
4.62151e-10
-1.55073e-09
9.48628e-10
-6.95777e-10
1.13327e-09
5.08347e-11
1.07052e-09
6.51095e-10
8.2941e-10
1.05812e-09
4.9545e-10
1.21549e-09
1.73638e-10
1.05772e-09
5.10645e-10
-1.5014e-10
-2.83567e-11
-6.98248e-10
7.5561e-10
-1.71384e-09
2.03308e-09
-3.23891e-09
3.57791e-09
-5.29216e-09
5.2423e-09
-7.87288e-09
6.92407e-09
-1.09654e-08
8.55495e-09
-1.45429e-08
1.00918e-08
-1.85717e-08
1.15093e-08
-2.30133e-08
1.27942e-08
-2.78271e-08
1.3942e-08
-3.2972e-08
1.49537e-08
-3.84077e-08
1.5834e-08
-4.40954e-08
1.65899e-08
-4.9998e-08
1.72298e-08
-5.60811e-08
1.77623e-08
-6.23126e-08
1.81965e-08
-6.86626e-08
1.85409e-08
-7.5104e-08
1.88035e-08
-8.16114e-08
1.89917e-08
-8.81617e-08
1.91121e-08
-9.47335e-08
1.91705e-08
-1.01307e-07
1.91718e-08
-1.07863e-07
1.912e-08
-1.14385e-07
1.90186e-08
-1.20856e-07
1.887e-08
-1.27259e-07
1.86762e-08
-1.33579e-07
1.84383e-08
-1.39801e-07
1.8157e-08
-1.4591e-07
1.78324e-08
-1.51889e-07
1.74643e-08
-1.57724e-07
1.70518e-08
-1.63399e-07
1.65941e-08
-1.68897e-07
1.609e-08
-1.74202e-07
1.5538e-08
-1.79297e-07
1.49367e-08
-1.84164e-07
1.42848e-08
-1.88787e-07
1.35807e-08
-1.93147e-07
1.28233e-08
-1.97225e-07
1.20114e-08
-2.01004e-07
1.11444e-08
-2.04464e-07
1.02215e-08
-2.07587e-07
9.24295e-09
-2.10355e-07
8.20893e-09
-2.12749e-07
7.12034e-09
-2.14753e-07
5.97862e-09
-2.16349e-07
4.78578e-09
-2.17522e-07
3.54448e-09
-2.18257e-07
2.25805e-09
-2.18542e-07
9.3049e-10
-2.18364e-07
-4.33471e-10
-2.17713e-07
-1.82842e-09
-2.16583e-07
-3.24822e-09
-2.14968e-07
-4.68608e-09
-2.12864e-07
-6.13455e-09
-2.10272e-07
-7.58556e-09
-2.07194e-07
-9.03051e-09
-2.03636e-07
-1.04603e-08
-1.99607e-07
-1.18655e-08
-1.95118e-07
-1.32361e-08
-1.90184e-07
-1.45623e-08
-1.84825e-07
-1.5834e-08
-1.79061e-07
-1.70409e-08
-1.72919e-07
-1.81731e-08
-1.66425e-07
-1.92211e-08
-1.59612e-07
-2.01753e-08
-1.52513e-07
-2.10272e-08
-1.45164e-07
-2.17685e-08
-1.37606e-07
-2.2392e-08
-1.29878e-07
-2.28911e-08
-1.22024e-07
-2.32604e-08
-1.14088e-07
-2.34954e-08
-1.06116e-07
-2.35929e-08
-9.81523e-08
-2.35509e-08
-9.02446e-08
-2.33684e-08
-8.24386e-08
-2.30461e-08
-7.47799e-08
-2.25856e-08
-6.73129e-08
-2.199e-08
-6.00809e-08
-2.12637e-08
-5.3125e-08
-2.04122e-08
-4.64842e-08
-1.94424e-08
-4.01949e-08
-1.83623e-08
-3.42903e-08
-1.71811e-08
-2.88003e-08
-1.59091e-08
-2.37507e-08
-1.4558e-08
-1.91631e-08
-1.31403e-08
-1.50544e-08
-1.16704e-08
-1.14361e-08
-1.01636e-08
-8.31394e-09
-8.6374e-09
-5.68728e-09
-7.1112e-09
-3.5482e-09
-5.60712e-09
-1.88074e-09
-4.15065e-09
-6.59877e-10
-2.77159e-09
1.49627e-10
-1.50528e-09
5.94482e-10
-3.94022e-10
7.34295e-10
5.11282e-10
6.43146e-10
1.14927e-09
4.11689e-10
1.44695e-09
1.50528e-10
1.31888e-09
6.61173e-10
-2.56453e-10
2.28103e-10
-1.06746e-09
1.56661e-09
-2.46615e-09
3.43178e-09
-4.47146e-09
5.58322e-09
-7.08686e-09
7.8577e-09
-1.03016e-08
1.01388e-08
-1.40932e-08
1.23465e-08
-1.84299e-08
1.44285e-08
-2.32736e-08
1.63529e-08
-2.8582e-08
1.81026e-08
-3.43106e-08
1.96707e-08
-4.04146e-08
2.10576e-08
-4.68494e-08
2.22688e-08
-5.35719e-08
2.33124e-08
-6.05411e-08
2.41989e-08
-6.77181e-08
2.49393e-08
-7.50666e-08
2.5545e-08
-8.25527e-08
2.6027e-08
-9.0145e-08
2.63959e-08
-9.78145e-08
2.66612e-08
-1.05534e-07
2.68318e-08
-1.13279e-07
2.69152e-08
-1.21025e-07
2.69182e-08
-1.28751e-07
2.68461e-08
-1.36436e-07
2.67035e-08
-1.4406e-07
2.64938e-08
-1.51604e-07
2.62197e-08
-1.59048e-07
2.58828e-08
-1.66375e-07
2.5484e-08
-1.73566e-07
2.50237e-08
-1.80603e-07
2.45013e-08
-1.87468e-07
2.39162e-08
-1.94141e-07
2.3267e-08
-2.00603e-07
2.25522e-08
-2.06835e-07
2.17701e-08
-2.12817e-07
2.09188e-08
-2.18529e-07
1.99964e-08
-2.23949e-07
1.90011e-08
-2.29057e-07
1.79314e-08
-2.33832e-07
1.67859e-08
-2.38251e-07
1.55636e-08
-2.42293e-07
1.42641e-08
-2.45938e-07
1.28874e-08
-2.49163e-07
1.14341e-08
-2.51948e-07
9.90566e-09
-2.54274e-07
8.3041e-09
-2.5612e-07
6.63237e-09
-2.5747e-07
4.89428e-09
-2.58307e-07
3.09454e-09
-2.58615e-07
1.2388e-09
-2.58382e-07
-6.66333e-10
-2.57597e-07
-2.61328e-09
-2.56252e-07
-4.59351e-09
-2.5434e-07
-6.59759e-09
-2.5186e-07
-8.6152e-09
-2.4881e-07
-1.06352e-08
-2.45195e-07
-1.26457e-08
-2.41021e-07
-1.46342e-08
-2.36299e-07
-1.65876e-08
-2.31043e-07
-1.84924e-08
-2.2527e-07
-2.03349e-08
-2.19003e-07
-2.21012e-08
-2.12267e-07
-2.37774e-08
-2.0509e-07
-2.53499e-08
-1.97505e-07
-2.68055e-08
-1.89549e-07
-2.81315e-08
-1.81261e-07
-2.93157e-08
-1.72682e-07
-3.03472e-08
-1.63858e-07
-3.12159e-08
-1.54836e-07
-3.19129e-08
-1.45666e-07
-3.24308e-08
-1.36398e-07
-3.27636e-08
-1.27084e-07
-3.29067e-08
-1.17777e-07
-3.28574e-08
-1.08531e-07
-3.26145e-08
-9.93987e-08
-3.21787e-08
-9.04318e-08
-3.15525e-08
-8.16817e-08
-3.07401e-08
-7.31979e-08
-2.97475e-08
-6.50277e-08
-2.85824e-08
-5.7216e-08
-2.72542e-08
-4.98043e-08
-2.5774e-08
-4.28306e-08
-2.41547e-08
-3.63292e-08
-2.24106e-08
-3.03294e-08
-2.05577e-08
-2.48558e-08
-1.86139e-08
-1.99275e-08
-1.65986e-08
-1.55575e-08
-1.45336e-08
-1.17521e-08
-1.24428e-08
-8.51048e-09
-1.03529e-08
-5.82364e-09
-8.29395e-09
-3.67392e-09
-6.30037e-09
-2.03394e-09
-4.41157e-09
-8.65708e-10
-2.67351e-09
-1.19614e-10
-1.14012e-09
2.66736e-10
1.24933e-10
3.69749e-10
1.04626e-09
2.81617e-10
1.53509e-09
1.13141e-10
1.48736e-09
7.74317e-10
-3.60299e-10
5.88401e-10
-1.43429e-09
2.6406e-09
-3.21994e-09
5.21743e-09
-5.71097e-09
8.07425e-09
-8.89299e-09
1.10397e-08
-1.27427e-08
1.39886e-08
-1.72288e-08
1.68326e-08
-2.2313e-08
1.95127e-08
-2.79523e-08
2.19922e-08
-3.41002e-08
2.42505e-08
-4.07086e-08
2.62791e-08
-4.77291e-08
2.8078e-08
-5.51135e-08
2.96532e-08
-6.28156e-08
3.10145e-08
-7.07905e-08
3.21739e-08
-7.89961e-08
3.31449e-08
-8.73925e-08
3.39414e-08
-9.59424e-08
3.45769e-08
-1.04611e-07
3.50644e-08
-1.13366e-07
3.5416e-08
-1.22176e-07
3.56425e-08
-1.31015e-07
3.57535e-08
-1.39854e-07
3.57575e-08
-1.48669e-07
3.56614e-08
-1.57437e-07
3.54709e-08
-1.66133e-07
3.51905e-08
-1.74737e-07
3.48236e-08
-1.83227e-07
3.43722e-08
-1.9158e-07
3.38377e-08
-1.99777e-07
3.32205e-08
-2.07796e-07
3.25202e-08
-2.15616e-07
3.17357e-08
-2.23214e-07
3.08656e-08
-2.3057e-07
2.9908e-08
-2.37661e-07
2.88607e-08
-2.44463e-07
2.77215e-08
-2.50955e-07
2.6488e-08
-2.57112e-07
2.51581e-08
-2.62911e-07
2.37299e-08
-2.68326e-07
2.22017e-08
-2.73335e-07
2.05726e-08
-2.77913e-07
1.88421e-08
-2.82036e-07
1.70103e-08
-2.85681e-07
1.50784e-08
-2.88823e-07
1.30482e-08
-2.91442e-07
1.09227e-08
-2.93515e-07
8.70594e-09
-2.95024e-07
6.40296e-09
-2.9595e-07
4.0201e-09
-2.96276e-07
1.5649e-09
-2.95988e-07
-9.53882e-10
-2.95075e-07
-3.52624e-09
-2.93528e-07
-6.14095e-09
-2.9134e-07
-8.7856e-09
-2.88508e-07
-1.14466e-08
-2.85034e-07
-1.41095e-08
-2.80921e-07
-1.67586e-08
-2.76178e-07
-1.93776e-08
-2.70816e-07
-2.19495e-08
-2.64852e-07
-2.44567e-08
-2.58305e-07
-2.68812e-08
-2.51201e-07
-2.92052e-08
-2.43568e-07
-3.14104e-08
-2.35439e-07
-3.34793e-08
-2.2685e-07
-3.53946e-08
-2.17841e-07
-3.71398e-08
-2.08458e-07
-3.86993e-08
-1.98746e-07
-4.00587e-08
-1.88757e-07
-4.12051e-08
-1.78543e-07
-4.21269e-08
-1.6816e-07
-4.28145e-08
-1.57663e-07
-4.326e-08
-1.47112e-07
-4.34577e-08
-1.36565e-07
-4.34039e-08
-1.26083e-07
-4.30973e-08
-1.15723e-07
-4.25387e-08
-1.05544e-07
-4.17312e-08
-9.56035e-08
-4.06806e-08
-8.59564e-08
-3.93946e-08
-7.66555e-08
-3.78833e-08
-6.77506e-08
-3.61591e-08
-5.92879e-08
-3.42367e-08
-5.13099e-08
-3.21327e-08
-4.38543e-08
-2.98662e-08
-3.69539e-08
-2.74582e-08
-3.06357e-08
-2.49321e-08
-2.49207e-08
-2.23136e-08
-1.98233e-08
-1.9631e-08
-1.53505e-08
-1.69156e-08
-1.15012e-08
-1.42021e-08
-8.26595e-09
-1.15292e-08
-5.62598e-09
-8.94034e-09
-3.55241e-09
-6.48514e-09
-2.00564e-09
-4.22028e-09
-9.34528e-10
-2.21123e-09
-2.75612e-10
-5.33978e-10
4.78194e-11
7.22833e-10
1.26935e-10
1.45597e-09
6.8897e-11
1.5454e-09
8.43214e-10
-4.59316e-10
1.04772e-09
-1.78973e-09
3.97101e-09
-3.95663e-09
7.38434e-09
-6.92859e-09
1.10462e-08
-1.06722e-08
1.47833e-08
-1.51501e-08
1.84665e-08
-2.03206e-08
2.20031e-08
-2.61378e-08
2.533e-08
-3.25528e-08
2.84072e-08
-3.95145e-08
3.12122e-08
-4.6971e-08
3.37356e-08
-5.48703e-08
3.59774e-08
-6.31614e-08
3.79443e-08
-7.17946e-08
3.96477e-08
-8.07225e-08
4.11018e-08
-8.98997e-08
4.23222e-08
-9.92835e-08
4.33252e-08
-1.08834e-07
4.41271e-08
-1.18513e-07
4.47433e-08
-1.28285e-07
4.51881e-08
-1.38117e-07
4.54748e-08
-1.47978e-07
4.56149e-08
-1.5784e-07
4.56186e-08
-1.67672e-07
4.54944e-08
-1.77451e-07
4.52492e-08
-1.87149e-07
4.48886e-08
-1.96742e-07
4.44167e-08
-2.06206e-07
4.38362e-08
-2.15517e-07
4.31487e-08
-2.24651e-07
4.23547e-08
-2.33585e-07
4.14538e-08
-2.42294e-07
4.04449e-08
-2.50754e-07
3.93262e-08
-2.58942e-07
3.80955e-08
-2.66831e-07
3.67501e-08
-2.74397e-07
3.52875e-08
-2.81614e-07
3.37049e-08
-2.88456e-07
3.19997e-08
-2.94896e-07
3.01697e-08
-3.00907e-07
2.82132e-08
-3.06464e-07
2.6129e-08
-3.11538e-07
2.39168e-08
-3.16105e-07
2.15769e-08
-3.20137e-07
1.9111e-08
-3.23611e-07
1.65216e-08
-3.26501e-07
1.38126e-08
-3.28784e-07
1.09893e-08
-3.30439e-07
8.05826e-09
-3.31447e-07
5.02756e-09
-3.31789e-07
1.90684e-09
-3.3145e-07
-1.29276e-09
-3.30418e-07
-4.55853e-09
-3.28682e-07
-7.87627e-09
-3.26238e-07
-1.12303e-08
-3.23081e-07
-1.46035e-08
-3.19213e-07
-1.79776e-08
-3.14638e-07
-2.13329e-08
-3.09367e-07
-2.4649e-08
-3.03412e-07
-2.79045e-08
-2.96791e-07
-3.10773e-08
-2.89527e-07
-3.4145e-08
-2.81648e-07
-3.7085e-08
-2.73183e-07
-3.98747e-08
-2.6417e-07
-4.24921e-08
-2.5465e-07
-4.49155e-08
-2.44665e-07
-4.71244e-08
-2.34265e-07
-4.90993e-08
-2.23501e-07
-5.08222e-08
-2.1243e-07
-5.22768e-08
-2.01108e-07
-5.3449e-08
-1.89596e-07
-5.43264e-08
-1.77956e-07
-5.48995e-08
-1.66253e-07
-5.51609e-08
-1.54551e-07
-5.51062e-08
-1.42915e-07
-5.47337e-08
-1.31409e-07
-5.40444e-08
-1.20097e-07
-5.30426e-08
-1.09043e-07
-5.17351e-08
-9.83056e-08
-5.01319e-08
-8.79431e-08
-4.82458e-08
-7.80099e-08
-4.60923e-08
-6.85565e-08
-4.36901e-08
-5.9629e-08
-4.10602e-08
-5.12687e-08
-3.82265e-08
-4.3511e-08
-3.52158e-08
-3.63856e-08
-3.20575e-08
-2.99151e-08
-2.87841e-08
-2.4115e-08
-2.54311e-08
-1.8993e-08
-2.20376e-08
-1.45484e-08
-1.86468e-08
-1.07713e-08
-1.53063e-08
-7.64219e-09
-1.20694e-08
-5.13157e-09
-8.99576e-09
-3.19898e-09
-6.15287e-09
-1.79277e-09
-3.61743e-09
-8.49529e-10
-1.47722e-09
-2.93618e-10
1.66921e-10
-3.67377e-11
1.19909e-09
2.27323e-11
1.48594e-09
8.65944e-10
-5.52736e-10
1.60046e-09
-2.12944e-09
5.54771e-09
-4.66621e-09
9.9211e-09
-8.10755e-09
1.44876e-08
-1.2401e-08
1.90768e-08
-1.74944e-08
2.35599e-08
-2.33346e-08
2.78433e-08
-2.98673e-08
3.18626e-08
-3.70369e-08
3.55768e-08
-4.47872e-08
3.89625e-08
-5.3062e-08
4.20105e-08
-6.1806e-08
4.47214e-08
-7.0965e-08
4.71033e-08
-8.04866e-08
4.91693e-08
-9.03207e-08
5.09358e-08
-1.00419e-07
5.24208e-08
-1.10737e-07
5.36432e-08
-1.21232e-07
5.46217e-08
-1.31863e-07
5.53742e-08
-1.42592e-07
5.59177e-08
-1.53385e-07
5.62673e-08
-1.64207e-07
5.64369e-08
-1.75027e-07
5.64383e-08
-1.85814e-07
5.62815e-08
-1.96539e-07
5.59748e-08
-2.07175e-07
5.55248e-08
-2.17695e-07
5.49362e-08
-2.28071e-07
5.42125e-08
-2.38278e-07
5.33556e-08
-2.4829e-07
5.2366e-08
-2.58079e-07
5.12435e-08
-2.67621e-07
4.99866e-08
-2.76888e-07
4.85934e-08
-2.85854e-07
4.70612e-08
-2.94491e-07
4.53871e-08
-3.02771e-07
4.35679e-08
-3.10667e-07
4.16006e-08
-3.1815e-07
3.94822e-08
-3.2519e-07
3.72103e-08
-3.3176e-07
3.47828e-08
-3.37829e-07
3.21986e-08
-3.4337e-07
2.94574e-08
-3.48353e-07
2.65601e-08
-3.52751e-07
2.35086e-08
-3.56536e-07
2.03065e-08
-3.59682e-07
1.69586e-08
-3.62164e-07
1.34716e-08
-3.63959e-07
9.85362e-09
-3.65047e-07
6.1148e-09
-3.65407e-07
2.26701e-09
-3.65023e-07
-1.67599e-09
-3.63883e-07
-5.69858e-09
-3.61976e-07
-9.78331e-09
-3.59296e-07
-1.3911e-08
-3.55839e-07
-1.80606e-08
-3.51606e-07
-2.22099e-08
-3.46604e-07
-2.63348e-08
-3.40843e-07
-3.04104e-08
-3.34337e-07
-3.44105e-08
-3.27106e-07
-3.83084e-08
-3.19174e-07
-4.20767e-08
-3.10571e-07
-4.56878e-08
-3.01332e-07
-4.91145e-08
-2.91494e-07
-5.23297e-08
-2.81102e-07
-5.53073e-08
-2.70204e-07
-5.80222e-08
-2.58853e-07
-6.04508e-08
-2.47104e-07
-6.25712e-08
-2.35017e-07
-6.43636e-08
-2.22655e-07
-6.58108e-08
-2.10084e-07
-6.68979e-08
-1.9737e-07
-6.76132e-08
-1.84583e-07
-6.79479e-08
-1.71793e-07
-6.78965e-08
-1.59069e-07
-6.74571e-08
-1.46483e-07
-6.6631e-08
-1.34102e-07
-6.54232e-08
-1.21995e-07
-6.38425e-08
-1.10226e-07
-6.19009e-08
-9.88574e-08
-5.96141e-08
-8.79484e-08
-5.70013e-08
-7.75534e-08
-5.40852e-08
-6.77219e-08
-5.08917e-08
-5.84982e-08
-4.74502e-08
-4.99207e-08
-4.37934e-08
-4.20209e-08
-3.99573e-08
-3.48233e-08
-3.59817e-08
-2.83446e-08
-3.19098e-08
-2.25932e-08
-2.7789e-08
-1.75687e-08
-2.36713e-08
-1.32612e-08
-1.96138e-08
-9.65103e-09
-1.56796e-08
-6.70826e-09
-1.19385e-08
-4.39225e-09
-8.46887e-09
-2.65146e-09
-5.35822e-09
-1.42326e-09
-2.70542e-09
-6.3391e-10
-6.22432e-10
-1.98662e-10
7.63847e-10
-2.21929e-11
1.30946e-09
8.43747e-10
-6.40468e-10
2.24093e-09
-2.45171e-09
7.35896e-09
-5.34378e-09
1.28132e-08
-9.23879e-09
1.83826e-08
-1.40657e-08
2.39037e-08
-1.97575e-08
2.92517e-08
-2.62493e-08
3.43351e-08
-3.34774e-08
3.90908e-08
-4.13792e-08
4.34785e-08
-4.98927e-08
4.74761e-08
-5.89574e-08
5.10752e-08
-6.85142e-08
5.42781e-08
-7.85058e-08
5.70949e-08
-8.88771e-08
5.95406e-08
-9.95755e-08
6.16342e-08
-1.10551e-07
6.33961e-08
-1.21756e-07
6.48479e-08
-1.33145e-07
6.6011e-08
-1.44676e-07
6.69057e-08
-1.5631e-07
6.75515e-08
-1.68009e-07
6.79658e-08
-1.79736e-07
6.81643e-08
-1.91458e-07
6.81607e-08
-2.03143e-07
6.79666e-08
-2.1476e-07
6.75915e-08
-2.26278e-07
6.70431e-08
-2.37669e-07
6.63268e-08
-2.48903e-07
6.54467e-08
-2.59953e-07
6.44049e-08
-2.70789e-07
6.32023e-08
-2.81384e-07
6.18383e-08
-2.91709e-07
6.03116e-08
-3.01735e-07
5.86198e-08
-3.11434e-07
5.67598e-08
-3.20775e-07
5.47284e-08
-3.29729e-07
5.2522e-08
-3.38265e-07
5.01371e-08
-3.46353e-07
4.75703e-08
-3.53962e-07
4.4819e-08
-3.6106e-07
4.18809e-08
-3.67617e-07
3.8755e-08
-3.736e-07
3.54411e-08
-3.78981e-07
3.19403e-08
-3.83727e-07
2.82554e-08
-3.87812e-07
2.43907e-08
-3.91205e-07
2.03523e-08
-3.93882e-07
1.61481e-08
-3.95816e-07
1.17883e-08
-3.96987e-07
7.28498e-09
-3.97372e-07
2.6525e-09
-3.96956e-07
-2.09259e-09
-3.95723e-07
-6.93154e-09
-3.93662e-07
-1.18434e-08
-3.90768e-07
-1.68053e-08
-3.87037e-07
-2.17921e-08
-3.8247e-07
-2.6777e-08
-3.77073e-07
-3.17316e-08
-3.70857e-07
-3.66259e-08
-3.63839e-07
-4.14289e-08
-3.56039e-07
-4.61086e-08
-3.47483e-07
-5.06325e-08
-3.38203e-07
-5.49678e-08
-3.28236e-07
-5.90818e-08
-3.17623e-07
-6.29426e-08
-3.06411e-07
-6.65189e-08
-2.94652e-07
-6.9781e-08
-2.82403e-07
-7.27006e-08
-2.69722e-07
-7.52519e-08
-2.56674e-07
-7.74113e-08
-2.43327e-07
-7.91581e-08
-2.2975e-07
-8.04749e-08
-2.16016e-07
-8.13475e-08
-2.02198e-07
-8.17655e-08
-1.88372e-07
-8.17226e-08
-1.74613e-07
-8.12162e-08
-1.60995e-07
-8.02483e-08
-1.47594e-07
-7.88247e-08
-1.34481e-07
-7.69559e-08
-1.21725e-07
-7.46564e-08
-1.09394e-07
-7.19452e-08
-9.755e-08
-6.88451e-08
-8.62518e-08
-6.53834e-08
-7.55522e-08
-6.15912e-08
-6.54986e-08
-5.75038e-08
-5.61318e-08
-5.31602e-08
-4.74855e-08
-4.86036e-08
-3.95859e-08
-4.38813e-08
-3.24509e-08
-3.90448e-08
-2.60897e-08
-3.41502e-08
-2.05024e-08
-2.92586e-08
-1.56793e-08
-2.44369e-08
-1.16008e-08
-1.97581e-08
-8.23678e-09
-1.53025e-08
-5.54686e-09
-1.11588e-08
-3.4799e-09
-7.42517e-09
-1.97439e-09
-4.21093e-09
-9.58681e-10
-1.63814e-09
-3.51674e-10
1.56837e-10
-6.38917e-11
1.02167e-09
7.79853e-10
-7.22728e-10
2.96365e-09
-2.75626e-09
9.3925e-09
-5.98755e-09
1.60445e-08
-1.03182e-08
2.27132e-08
-1.56595e-08
2.9245e-08
-2.19298e-08
3.5522e-08
-2.90523e-08
4.14576e-08
-3.69539e-08
4.69924e-08
-4.55642e-08
5.20888e-08
-5.48155e-08
5.67273e-08
-6.46422e-08
6.09019e-08
-7.49815e-08
6.46174e-08
-8.57728e-08
6.78862e-08
-9.69584e-08
7.07262e-08
-1.08483e-07
7.31589e-08
-1.20295e-07
7.52078e-08
-1.32344e-07
7.6897e-08
-1.44584e-07
7.82507e-08
-1.5697e-07
7.92919e-08
-1.69461e-07
8.00424e-08
-1.82017e-07
8.05219e-08
-1.94601e-07
8.07481e-08
-2.07177e-07
8.07365e-08
-2.1971e-07
8.05002e-08
-2.32169e-07
8.00501e-08
-2.4452e-07
7.93946e-08
-2.56734e-07
7.85402e-08
-2.68778e-07
7.74912e-08
-2.80624e-07
7.62503e-08
-2.9224e-07
7.48183e-08
-3.03596e-07
7.31948e-08
-3.14663e-07
7.13781e-08
-3.25408e-07
6.93654e-08
-3.35802e-07
6.71535e-08
-3.45812e-07
6.47386e-08
-3.55407e-07
6.21167e-08
-3.64553e-07
5.92837e-08
-3.73219e-07
5.62362e-08
-3.81371e-07
5.2971e-08
-3.88976e-07
4.94858e-08
-3.96001e-07
4.57795e-08
-4.02412e-07
4.18522e-08
-4.08177e-07
3.77055e-08
-4.13264e-07
3.33426e-08
-4.17643e-07
2.8769e-08
-4.21282e-07
2.39918e-08
-4.24154e-07
1.90206e-08
-4.26234e-07
1.38675e-08
-4.27495e-07
8.54673e-09
-4.27918e-07
3.07534e-09
-4.27484e-07
-2.52721e-09
-4.26176e-07
-8.23884e-09
-4.23985e-07
-1.4035e-08
-4.20901e-07
-1.98886e-08
-4.16923e-07
-2.57704e-08
-4.12051e-07
-3.16489e-08
-4.06292e-07
-3.74908e-08
-3.99657e-07
-4.3261e-08
-3.92163e-07
-4.89232e-08
-3.83831e-07
-5.44398e-08
-3.74691e-07
-5.97728e-08
-3.64775e-07
-6.48839e-08
-3.54122e-07
-6.97349e-08
-3.42776e-07
-7.42883e-08
-3.30787e-07
-7.85075e-08
-3.18211e-07
-8.23576e-08
-3.05106e-07
-8.58058e-08
-2.91536e-07
-8.88216e-08
-2.7757e-07
-9.13775e-08
-2.63279e-07
-9.34492e-08
-2.48738e-07
-9.50161e-08
-2.34023e-07
-9.6062e-08
-2.19214e-07
-9.65744e-08
-2.04391e-07
-9.6546e-08
-1.89633e-07
-9.59739e-08
-1.75021e-07
-9.48603e-08
-1.60633e-07
-9.32122e-08
-1.46547e-07
-9.10419e-08
-1.32837e-07
-8.83665e-08
-1.19574e-07
-8.52083e-08
-1.06825e-07
-8.15944e-08
-9.46514e-08
-7.75569e-08
-8.31102e-08
-7.31324e-08
-7.22517e-08
-6.83623e-08
-6.21192e-08
-6.32927e-08
-5.27486e-08
-5.79742e-08
-4.41678e-08
-5.24621e-08
-3.6396e-08
-4.68166e-08
-2.94433e-08
-4.11028e-08
-2.33105e-08
-3.53915e-08
-1.7988e-08
-2.97593e-08
-1.34566e-08
-2.42896e-08
-9.68623e-09
-1.90729e-08
-6.6367e-09
-1.42083e-08
-4.25746e-09
-9.80442e-09
-2.48802e-09
-5.98037e-09
-1.25863e-09
-2.86753e-09
-4.91285e-10
-6.10513e-10
-1.01207e-10
6.31594e-10
6.78648e-10
-7.99858e-10
3.76351e-09
-3.04356e-09
1.16362e-08
-6.59751e-09
1.95984e-08
-1.13445e-08
2.74602e-08
-1.71795e-08
3.508e-08
-2.40066e-08
4.23491e-08
-3.17374e-08
4.91884e-08
-4.02892e-08
5.55441e-08
-4.95837e-08
6.13833e-08
-5.95469e-08
6.66905e-08
-7.01083e-08
7.14634e-08
-8.12009e-08
7.571e-08
-9.2761e-08
7.94462e-08
-1.04728e-07
8.26931e-08
-1.17044e-07
8.54753e-08
-1.29656e-07
8.78193e-08
-1.42511e-07
8.97523e-08
-1.55562e-07
9.13013e-08
-1.68762e-07
9.24919e-08
-1.82068e-07
9.33485e-08
-1.95439e-07
9.3893e-08
-2.08836e-07
9.41452e-08
-2.22222e-07
9.41223e-08
-2.35561e-07
9.3839e-08
-2.48818e-07
9.33073e-08
-2.6196e-07
9.25367e-08
-2.74954e-07
9.15344e-08
-2.87768e-07
9.03053e-08
-3.0037e-07
8.88522e-08
-3.12728e-07
8.71761e-08
-3.2481e-07
8.52764e-08
-3.36583e-07
8.31512e-08
-3.48015e-07
8.07976e-08
-3.59073e-07
7.82118e-08
-3.69724e-07
7.53895e-08
-3.79934e-07
7.23262e-08
-3.89667e-07
6.90176e-08
-3.98891e-07
6.54596e-08
-4.07569e-07
6.16489e-08
-4.15666e-07
5.75831e-08
-4.23147e-07
5.32609e-08
-4.29978e-07
4.86828e-08
-4.36123e-07
4.38507e-08
-4.41549e-07
3.87686e-08
-4.46223e-07
3.34428e-08
-4.50113e-07
2.78819e-08
-4.5319e-07
2.20972e-08
-4.55425e-07
1.61024e-08
-4.56792e-07
9.91442e-09
-4.5727e-07
3.55286e-09
-4.56837e-07
-2.95966e-09
-4.55479e-07
-9.59762e-09
-4.53181e-07
-1.63326e-08
-4.49936e-07
-2.31333e-08
-4.45741e-07
-2.99659e-08
-4.40596e-07
-3.67942e-08
-4.34507e-07
-4.35795e-08
-4.27487e-07
-5.02814e-08
-4.19552e-07
-5.68578e-08
-4.10726e-07
-6.32657e-08
-4.01038e-07
-6.9461e-08
-3.90522e-07
-7.53995e-08
-3.7922e-07
-8.1037e-08
-3.67178e-07
-8.63302e-08
-3.54449e-07
-9.12369e-08
-3.4109e-07
-9.57169e-08
-3.27164e-07
-9.97319e-08
-3.12738e-07
-1.03247e-07
-2.97886e-07
-1.0623e-07