0.0003125 	0.0999 	0.005 	-38.585
0.0009375 	0.0999 	0.005 	-19.7168
0.0015625 	0.0999 	0.005 	-10.6793
0.0021875 	0.0999 	0.005 	-6.98992
0.0028125 	0.0999 	0.005 	-5.03052
0.0034375 	0.0999 	0.005 	-3.83685
0.0040625 	0.0999 	0.005 	-3.07305
0.0046875 	0.0999 	0.005 	-2.55044
0.0053125 	0.0999 	0.005 	-2.16894
0.0059375 	0.0999 	0.005 	-1.87727
0.0065625 	0.0999 	0.005 	-1.6468
0.0071875 	0.0999 	0.005 	-1.46008
0.0078125 	0.0999 	0.005 	-1.30582
0.0084375 	0.0999 	0.005 	-1.17636
0.0090625 	0.0999 	0.005 	-1.0663
0.0096875 	0.0999 	0.005 	-0.971719
0.0103125 	0.0999 	0.005 	-0.889674
0.0109375 	0.0999 	0.005 	-0.817931
0.0115625 	0.0999 	0.005 	-0.754752
0.0121875 	0.0999 	0.005 	-0.69877
0.0128125 	0.0999 	0.005 	-0.648892
0.0134375 	0.0999 	0.005 	-0.604235
0.0140625 	0.0999 	0.005 	-0.564077
0.0146875 	0.0999 	0.005 	-0.527821
0.0153125 	0.0999 	0.005 	-0.494971
0.0159375 	0.0999 	0.005 	-0.46511
0.0165625 	0.0999 	0.005 	-0.437886
0.0171875 	0.0999 	0.005 	-0.412997
0.0178125 	0.0999 	0.005 	-0.390187
0.0184375 	0.0999 	0.005 	-0.369232
0.0190625 	0.0999 	0.005 	-0.349941
0.0196875 	0.0999 	0.005 	-0.332143
0.0203125 	0.0999 	0.005 	-0.315693
0.0209375 	0.0999 	0.005 	-0.300461
0.0215625 	0.0999 	0.005 	-0.286331
0.0221875 	0.0999 	0.005 	-0.273201
0.0228125 	0.0999 	0.005 	-0.260983
0.0234375 	0.0999 	0.005 	-0.249593
0.0240625 	0.0999 	0.005 	-0.238959
0.0246875 	0.0999 	0.005 	-0.229016
0.0253125 	0.0999 	0.005 	-0.219705
0.0259375 	0.0999 	0.005 	-0.210971
0.0265625 	0.0999 	0.005 	-0.202767
0.0271875 	0.0999 	0.005 	-0.195048
0.0278125 	0.0999 	0.005 	-0.187773
0.0284375 	0.0999 	0.005 	-0.180906
0.0290625 	0.0999 	0.005 	-0.174412
0.0296875 	0.0999 	0.005 	-0.168261
0.0303125 	0.0999 	0.005 	-0.162424
0.0309375 	0.0999 	0.005 	-0.156873
0.0315625 	0.0999 	0.005 	-0.151584
0.0321875 	0.0999 	0.005 	-0.146535
0.0328125 	0.0999 	0.005 	-0.141705
0.0334375 	0.0999 	0.005 	-0.137072
0.0340625 	0.0999 	0.005 	-0.13262
0.0346875 	0.0999 	0.005 	-0.128331
0.0353125 	0.0999 	0.005 	-0.124188
0.0359375 	0.0999 	0.005 	-0.120177
0.0365625 	0.0999 	0.005 	-0.116283
0.0371875 	0.0999 	0.005 	-0.112493
0.0378125 	0.0999 	0.005 	-0.108794
0.0384375 	0.0999 	0.005 	-0.105174
0.0390625 	0.0999 	0.005 	-0.101621
0.0396875 	0.0999 	0.005 	-0.0981251
0.0403125 	0.0999 	0.005 	-0.0946756
0.0409375 	0.0999 	0.005 	-0.0912626
0.0415625 	0.0999 	0.005 	-0.0878767
0.0421875 	0.0999 	0.005 	-0.0845088
0.0428125 	0.0999 	0.005 	-0.0811502
0.0434375 	0.0999 	0.005 	-0.0777925
0.0440625 	0.0999 	0.005 	-0.0744276
0.0446875 	0.0999 	0.005 	-0.0710475
0.0453125 	0.0999 	0.005 	-0.0676447
0.0459375 	0.0999 	0.005 	-0.0642117
0.0465625 	0.0999 	0.005 	-0.0607412
0.0471875 	0.0999 	0.005 	-0.057226
0.0478125 	0.0999 	0.005 	-0.0536592
0.0484375 	0.0999 	0.005 	-0.0500337
0.0490625 	0.0999 	0.005 	-0.0463428
0.0496875 	0.0999 	0.005 	-0.0425796
0.0503125 	0.0999 	0.005 	-0.0387374
0.0509375 	0.0999 	0.005 	-0.0348094
0.0515625 	0.0999 	0.005 	-0.0307888
0.0521875 	0.0999 	0.005 	-0.0266688
0.0528125 	0.0999 	0.005 	-0.0224426
0.0534375 	0.0999 	0.005 	-0.0181032
0.0540625 	0.0999 	0.005 	-0.0136435
0.0546875 	0.0999 	0.005 	-0.00905645
0.0553125 	0.0999 	0.005 	-0.00433463
0.0559375 	0.0999 	0.005 	0.000529437
0.0565625 	0.0999 	0.005 	0.00554344
0.0571875 	0.0999 	0.005 	0.0107153
0.0578125 	0.0999 	0.005 	0.0160533
0.0584375 	0.0999 	0.005 	0.0215658
0.0590625 	0.0999 	0.005 	0.0272616
0.0596875 	0.0999 	0.005 	0.03315
0.0603125 	0.0999 	0.005 	0.0392405
0.0609375 	0.0999 	0.005 	0.0455432
0.0615625 	0.0999 	0.005 	0.0520685
0.0621875 	0.0999 	0.005 	0.0588275
0.0628125 	0.0999 	0.005 	0.0658319
0.0634375 	0.0999 	0.005 	0.0730939
0.0640625 	0.0999 	0.005 	0.0806266
0.0646875 	0.0999 	0.005 	0.0884439
0.0653125 	0.0999 	0.005 	0.0965603
0.0659375 	0.0999 	0.005 	0.104991
0.0665625 	0.0999 	0.005 	0.113754
0.0671875 	0.0999 	0.005 	0.122866
0.0678125 	0.0999 	0.005 	0.132347
0.0684375 	0.0999 	0.005 	0.142217
0.0690625 	0.0999 	0.005 	0.152498
0.0696875 	0.0999 	0.005 	0.163214
0.0703125 	0.0999 	0.005 	0.174392
0.0709375 	0.0999 	0.005 	0.186058
0.0715625 	0.0999 	0.005 	0.198243
0.0721875 	0.0999 	0.005 	0.210981
0.0728125 	0.0999 	0.005 	0.224307
0.0734375 	0.0999 	0.005 	0.238261
0.0740625 	0.0999 	0.005 	0.252885
0.0746875 	0.0999 	0.005 	0.268227
0.0753125 	0.0999 	0.005 	0.284338
0.0759375 	0.0999 	0.005 	0.301277
0.0765625 	0.0999 	0.005 	0.319107
0.0771875 	0.0999 	0.005 	0.337898
0.0778125 	0.0999 	0.005 	0.357729
0.0784375 	0.0999 	0.005 	0.378687
0.0790625 	0.0999 	0.005 	0.40087
0.0796875 	0.0999 	0.005 	0.424388
0.0803125 	0.0999 	0.005 	0.449365
0.0809375 	0.0999 	0.005 	0.475943
0.0815625 	0.0999 	0.005 	0.504281
0.0821875 	0.0999 	0.005 	0.534561
0.0828125 	0.0999 	0.005 	0.566992
0.0834375 	0.0999 	0.005 	0.601816
0.0840625 	0.0999 	0.005 	0.639312
0.0846875 	0.0999 	0.005 	0.679806
0.0853125 	0.0999 	0.005 	0.72368
0.0859375 	0.0999 	0.005 	0.771383
0.0865625 	0.0999 	0.005 	0.823453
0.0871875 	0.0999 	0.005 	0.880531
0.0878125 	0.0999 	0.005 	0.943394
0.0884375 	0.0999 	0.005 	1.01299
0.0890625 	0.0999 	0.005 	1.09049
0.0896875 	0.0999 	0.005 	1.17735
0.0903125 	0.0999 	0.005 	1.27542
0.0909375 	0.0999 	0.005 	1.38707
0.0915625 	0.0999 	0.005 	1.51541
0.0921875 	0.0999 	0.005 	1.66458
0.0928125 	0.0999 	0.005 	1.84022
0.0934375 	0.0999 	0.005 	2.05034
0.0940625 	0.0999 	0.005 	2.30663
0.0946875 	0.0999 	0.005 	2.6271
0.0953125 	0.0999 	0.005 	3.04105
0.0959375 	0.0999 	0.005 	3.6006
0.0965625 	0.0999 	0.005 	4.40685
0.0971875 	0.0999 	0.005 	5.65172
0.0978125 	0.0999 	0.005 	7.68067
0.0984375 	0.0999 	0.005 	11.4678
0.0990625 	0.0999 	0.005 	20.6244
0.0996875 	0.0999 	0.005 	39.6168
