/*--------------------------------*- C++ -*----------------------------------*\
  =========                 |
  \\      /  F ield         | OpenFOAM: The Open Source CFD Toolbox
   \\    /   O peration     | Website:  https://openfoam.org
    \\  /    A nd           | Version:  7
     \\/     M anipulation  |
\*---------------------------------------------------------------------------*/
FoamFile
{
    version     2.0;
    format      ascii;
    class       volVectorField;
    location    "72";
    object      U;
}
// * * * * * * * * * * * * * * * * * * * * * * * * * * * * * * * * * * * * * //

dimensions      [0 1 -1 0 0 0 0];

internalField   nonuniform List<vector> 
26800
(
(-0.0679376 -0.00871661 3.53098e-20)
(-0.121102 -0.00638142 5.52606e-20)
(-0.170356 0.00115228 5.85633e-21)
(-0.201003 0.0145898 1.45623e-20)
(-0.218371 0.0341817 -7.86953e-20)
(-0.233985 0.0559497 1.98253e-20)
(-0.240443 0.0731987 4.65626e-20)
(-0.246405 0.0777019 4.47764e-20)
(-0.246528 0.0626022 3.33379e-20)
(-0.244582 0.0249046 1.02888e-21)
(-0.235509 -0.0314659 4.628e-21)
(-0.225867 -0.0936633 -2.05914e-21)
(-0.212538 -0.147599 -2.95496e-22)
(-0.202248 -0.173813 1.0965e-20)
(-0.1897 -0.163553 2.44797e-21)
(-0.160314 -0.107391 -1.62903e-20)
(-0.134984 -0.02788 -1.67528e-20)
(-0.0845393 0.0678222 1.78132e-21)
(-0.0677915 0.147708 8.38319e-22)
(-0.0296479 0.178976 1.98141e-21)
(-0.0680426 -0.00103394 -9.84449e-20)
(-0.120609 -0.000778772 -1.71151e-19)
(-0.168916 0.00645174 7.83062e-20)
(-0.198124 0.0180471 -9.48132e-20)
(-0.213659 0.0370722 8.19105e-20)
(-0.227094 0.0578875 -1.67179e-21)
(-0.230976 0.0745377 -9.31179e-20)
(-0.233763 0.0783707 -8.37281e-20)
(-0.229785 0.0625319 -5.44738e-20)
(-0.22266 0.0239335 1.31153e-20)
(-0.207347 -0.0334653 -1.97418e-20)
(-0.192607 -0.0957722 -4.00753e-21)
(-0.175472 -0.149776 -4.65362e-21)
(-0.167505 -0.17582 4.68993e-20)
(-0.161572 -0.167494 2.8969e-21)
(-0.144297 -0.115927 2.93707e-20)
(-0.130438 -0.0384322 -4.97162e-21)
(-0.0892816 0.0535925 -1.93295e-20)
(-0.0671358 0.1355 4.18062e-21)
(-0.0105303 0.160337 -5.08918e-21)
(-0.0684202 0.00658974 -1.18876e-19)
(-0.119771 0.00472254 5.67155e-20)
(-0.166399 0.0116067 4.89203e-20)
(-0.193273 0.0212977 -4.25537e-20)
(-0.205854 0.0397053 1.37292e-19)
(-0.215751 0.0595364 -1.06514e-19)
(-0.215396 0.0755714 1.19239e-19)
(-0.212998 0.078721 1.14911e-19)
(-0.202497 0.0621347 8.47173e-21)
(-0.187406 0.0226673 -1.22821e-21)
(-0.162421 -0.0354691 2.75062e-20)
(-0.139062 -0.0973579 3.92924e-20)
(-0.113688 -0.150264 -3.77289e-20)
(-0.103345 -0.174545 -1.24769e-19)
(-0.0984943 -0.16726 1.33193e-20)
(-0.0865126 -0.119221 -2.83856e-20)
(-0.0807233 -0.045084 2.5701e-20)
(-0.0376564 0.040927 1.66658e-20)
(-0.012268 0.119013 -2.81389e-20)
(0.0741127 0.135673 -6.54076e-21)
(-0.0690726 0.0141075 2.55087e-19)
(-0.118603 0.0100705 -8.22511e-20)
(-0.162832 0.0165741 -2.03772e-19)
(-0.186502 0.0242971 1.19737e-19)
(-0.195045 0.0420318 -7.23862e-20)
(-0.200088 0.0608401 2.28762e-19)
(-0.1939 0.0762301 1.02496e-19)
(-0.184411 0.0786696 5.76972e-20)
(-0.165135 0.0613203 -1.06185e-19)
(-0.139544 0.0209767 2.02009e-20)
(-0.101863 -0.0376208 8.01776e-20)
(-0.0669036 -0.0986914 1.08855e-20)
(-0.0297152 -0.149362 1.19781e-19)
(-0.0130536 -0.170362 1.4324e-19)
(-0.00408496 -0.163331 6.77284e-21)
(0.00834606 -0.116672 1.61457e-20)
(0.00966964 -0.0487932 3.45602e-21)
(0.06383 0.0313664 7.78987e-21)
(0.0863308 0.0999855 1.40277e-20)
(0.209691 0.108748 2.70831e-20)
(-0.0700014 0.0214739 9.54708e-22)
(-0.117123 0.0152137 4.12283e-19)
(-0.158246 0.0213121 1.79297e-19)
(-0.177868 0.0270026 -2.45282e-19)
(-0.181326 0.0440042 2.8658e-20)
(-0.180265 0.0617441 -1.91137e-19)
(-0.166746 0.076448 -2.85222e-19)
(-0.148407 0.0781429 -2.98812e-19)
(-0.118324 0.0600228 -1.30485e-20)
(-0.0800141 0.0187516 -3.28731e-20)
(-0.0272244 -0.0400243 -3.88007e-19)
(0.0215809 -0.0999423 4.31994e-20)
(0.0727412 -0.14735 -4.56444e-20)
(0.0984113 -0.163871 -1.55796e-19)
(0.11591 -0.156093 7.78747e-21)
(0.132688 -0.109096 2.09295e-20)
(0.13298 -0.0494198 -1.80588e-20)
(0.203228 0.0255725 6.8431e-21)
(0.218964 0.081733 9.86526e-21)
(0.37745 0.0829891 -1.55496e-20)
(-0.0712073 0.0286456 -3.50979e-19)
(-0.115351 0.020101 -6.71144e-19)
(-0.152671 0.0257799 -4.83501e-19)
(-0.167427 0.0293741 6.29019e-19)
(-0.164799 0.0455788 2.0288e-19)
(-0.156457 0.0622 -2.26719e-20)
(-0.134226 0.0761685 2.86707e-19)
(-0.105455 0.0770887 1.14224e-19)
(-0.0627847 0.0582009 2.28422e-19)
(-0.00984288 0.0159003 -2.73324e-19)
(0.0596688 -0.0427038 1.08693e-19)
(0.123619 -0.101015 -3.48784e-20)
(0.189036 -0.14455 4.71504e-20)
(0.224673 -0.155873 1.78411e-19)
(0.253323 -0.146257 4.44393e-20)
(0.276472 -0.0980634 -7.41958e-22)
(0.281115 -0.0461867 2.21448e-20)
(0.363701 0.0231941 -2.03655e-21)
(0.377528 0.0663778 3.89638e-21)
(0.558025 0.0605574 2.76844e-20)
(-0.0726904 0.0355815 3.22181e-19)
(-0.113305 0.0246825 7.42777e-19)
(-0.146137 0.0299378 4.77302e-19)
(-0.15523 0.031376 -2.77112e-19)
(-0.145561 0.0467184 -2.77073e-19)
(-0.128836 0.0621692 2.46294e-19)
(-0.0966411 0.0753516 -1.25071e-19)
(-0.056035 0.0754844 4.40441e-20)
(0.000749357 0.055769 1.43079e-19)
(0.0699495 0.0124408 4.22101e-19)
(0.156893 -0.0455839 2.22601e-19)
(0.236096 -0.101632 -2.91915e-19)
(0.313857 -0.141062 4.96452e-20)
(0.358467 -0.147162 -9.99173e-20)
(0.398175 -0.134969 -4.76462e-20)
(0.42688 -0.0853122 -2.80683e-20)
(0.442897 -0.0397867 2.71845e-20)
(0.527607 0.0231612 -5.64381e-20)
(0.550301 0.0546191 1.12172e-20)
(0.731896 0.043483 -4.82068e-20)
(-0.0744498 0.0422433 5.58759e-19)
(-0.111002 0.0289086 1.60735e-19)
(-0.138666 0.033748 -4.92347e-19)
(-0.141312 0.0329785 -1.92729e-19)
(-0.123684 0.0473961 3.56788e-19)
(-0.0975433 0.0616304 -4.04206e-19)
(-0.0542523 0.0739807 1.62943e-19)
(-0.000570121 0.0732763 1.78554e-19)
(0.0716171 0.052667 -5.52974e-19)
(0.158417 0.00860749 -1.52217e-19)
(0.262465 -0.04845 -4.53673e-20)
(0.355725 -0.10148 1.91086e-19)
(0.441855 -0.136652 -1.87281e-19)
(0.492731 -0.138097 5.97971e-20)
(0.539766 -0.123237 -8.05285e-20)
(0.571431 -0.0732794 8.40438e-21)
(0.601816 -0.0319157 -5.40158e-20)
(0.679184 0.0239504 3.90897e-20)
(0.718711 0.0460508 -3.6165e-20)
(0.879481 0.0322678 -3.47188e-21)
(-0.0764836 0.0485958 -3.18702e-19)
(-0.10846 0.0327309 -8.76982e-19)
(-0.130271 0.0371741 5.7293e-19)
(-0.125679 0.0341604 4.2908e-19)
(-0.0991943 0.0476 -4.03447e-19)
(-0.0626478 0.0605885 2.00939e-19)
(-0.00722489 0.0720538 -4.40912e-19)
(0.0606905 0.0704407 -3.14883e-19)
(0.149379 0.0489712 2.90944e-19)
(0.25468 0.00469425 -2.1281e-19)
(0.374277 -0.0509133 2.40144e-19)
(0.478688 -0.100108 1.41774e-19)
(0.567864 -0.130915 -2.20398e-19)
(0.621087 -0.128548 -1.2736e-19)
(0.669129 -0.11161 4.76104e-20)
(0.700742 -0.0633748 6.98722e-20)
(0.740932 -0.0249639 6.02644e-21)
(0.806596 0.0234046 -1.17897e-20)
(0.86088 0.0389038 -4.33841e-22)
(0.9858 0.0245083 -1.28667e-20)
(-0.0787887 0.0546068 -3.9966e-19)
(-0.105689 0.0361018 9.57884e-19)
(-0.12095 0.0401814 -4.93015e-19)
(-0.108297 0.0349114 1.20421e-19)
(-0.0720449 0.0473325 -5.17755e-19)
(-0.0240999 0.0590885 1.38118e-19)
(0.0444557 0.0696145 3.21032e-19)
(0.127734 0.0670919 -2.76518e-20)
(0.233841 0.0448548 -5.66158e-20)
(0.357686 0.00102335 5.30224e-19)
(0.489825 -0.0524126 -1.12858e-19)
(0.600487 -0.0970832 -3.38413e-19)
(0.686929 -0.123508 3.91646e-19)
(0.737729 -0.118301 8.87169e-21)
(0.780602 -0.100263 1.57996e-19)
(0.809199 -0.0555386 -3.86062e-20)
(0.850446 -0.0202993 5.7729e-20)
(0.903901 0.020408 9.3555e-21)
(0.962168 0.0314437 -7.70413e-21)
(1.04809 0.017885 -1.83415e-20)
(-0.0813608 0.0602475 1.89657e-19)
(-0.102693 0.0389752 -1.35212e-18)
(-0.110681 0.0427369 1.01149e-18)
(-0.0890744 0.035236 -8.7183e-19)
(-0.0420763 0.0466126 6.21639e-19)
(0.018323 0.0572376 -7.76523e-20)
(0.101047 0.0667991 -1.08774e-20)
(0.200819 0.063448 -1.49509e-19)
(0.324953 0.0406647 -1.24637e-19)
(0.465833 -0.00193603 -3.5842e-19)
(0.605775 -0.0523302 4.61334e-19)
(0.716187 -0.0921312 4.01541e-19)
(0.794427 -0.114337 7.90793e-20)
(0.838029 -0.107381 1.365e-19)
(0.871616 -0.0893131 -2.84336e-20)
(0.894439 -0.049165 2.69335e-20)
(0.929674 -0.0179228 7.89265e-21)
(0.971344 0.0155741 8.55286e-21)
(1.02247 0.0234651 8.50107e-20)
(1.07646 0.011516 -5.49518e-20)
(-0.084194 0.0654928 -3.97514e-19)
(-0.0994685 0.0413065 -6.34225e-20)
(-0.099413 0.0448094 -8.25317e-19)
(-0.0678397 0.0351589 5.89196e-19)
(-0.00899706 0.0455427 -9.37299e-21)
(0.0650843 0.0551714 -5.46234e-19)
(0.163084 0.0638435 -2.62614e-19)
(0.280402 0.059848 2.88917e-19)
(0.422391 0.0369632 1.06809e-19)
(0.576556 -0.0036278 2.30965e-19)
(0.717824 -0.0502019 -1.45414e-19)
(0.821028 -0.0852169 -1.7971e-19)
(0.886607 -0.103646 -1.8608e-19)
(0.919518 -0.0960555 -1.91339e-19)
(0.942058 -0.0789203 -1.17852e-19)
(0.957281 -0.0438135 -8.66824e-20)
(0.983471 -0.0171047 -3.47977e-20)
(1.01385 0.0102314 1.78685e-20)
(1.05304 0.0157344 -4.09533e-20)
(1.08585 0.00584235 -2.74917e-20)
(-0.0872802 0.0703206 3.88902e-19)
(-0.0959969 0.0430535 3.0694e-19)
(-0.0870573 0.0463692 1.04175e-18)
(-0.0443195 0.0347337 3.69319e-19)
(0.0276343 0.0442693 -2.27787e-19)
(0.116849 0.0531036 6.89086e-19)
(0.231322 0.0611021 3.16738e-19)
(0.366833 0.0567794 -3.65377e-19)
(0.524882 0.0344074 2.97435e-19)
(0.68608 -0.00355881 2.62828e-20)
(0.821199 -0.0458929 -3.08767e-19)
(0.911196 -0.0766 1.3863e-19)
(0.961386 -0.0919602 1.48862e-19)
(0.982188 -0.0847084 1.51705e-19)
(0.99384 -0.0692395 1.18382e-19)
(1.00121 -0.0392057 7.49589e-20)
(1.01836 -0.0170255 5.90724e-20)
(1.03883 0.00534046 -8.47208e-20)
(1.067 0.00902287 5.96923e-20)
(1.08715 0.00129435 -1.64844e-19)
(-0.0906094 0.0747122 -5.37068e-20)
(-0.0922434 0.0441774 8.29924e-19)
(-0.0734742 0.0473854 -7.11591e-19)
(-0.0181218 0.0340362 -1.13035e-18)
(0.0684523 0.0429647 -1.88074e-19)
(0.17443 0.0513792 -6.79855e-19)
(0.306485 0.0590509 -4.12634e-19)
(0.45977 0.0548348 1.11551e-19)
(0.629593 0.0335671 -2.31184e-20)
(0.789702 -0.00149878 -5.83766e-19)
(0.911642 -0.0396516 1.70272e-19)
(0.984553 -0.0667953 -1.1763e-19)
(1.01876 -0.0799044 -3.80325e-19)
(1.02801 -0.0737151 -1.72894e-19)
(1.03026 -0.0603496 -8.33999e-20)
(1.03084 -0.0351094 -8.79861e-20)
(1.04047 -0.0170887 1.21322e-19)
(1.05327 0.00135432 6.8749e-20)
(1.07308 0.00365215 -6.60163e-20)
(1.08559 -0.0021258 1.26379e-19)
(-0.0941684 0.0786517 2.72968e-19)
(-0.0881503 0.0446436 -2.60161e-19)
(-0.0584605 0.0478278 -2.4494e-19)
(0.0112776 0.0331871 4.86899e-19)
(0.114244 0.0418874 2.95671e-19)
(0.238639 0.0504077 4.09854e-20)
(0.388811 0.058235 -5.79849e-20)
(0.55749 0.0545526 3.0176e-19)
(0.73216 0.0346971 3.43383e-19)
(0.882731 0.00239891 -4.61937e-19)
(0.986417 -0.0320248 -3.06782e-20)
(1.04096 -0.0564269 2.64474e-19)
(1.0605 -0.0680367 4.81985e-20)
(1.06005 -0.0633488 1.30924e-19)
(1.05506 -0.0522319 -2.65785e-20)
(1.05051 -0.0313432 -1.17346e-19)
(1.05457 -0.016951 -7.08166e-20)
(1.06184 -0.00160847 4.02773e-20)
(1.07558 -0.000418349 -2.00338e-20)
(1.0832 -0.00456007 -1.08014e-19)
(-0.097941 0.0821257 -5.77961e-20)
(-0.0836307 0.0444239 4.34617e-19)
(-0.0417378 0.0476966 4.05884e-19)
(0.0445389 0.0323468 -2.6551e-19)
(0.16586 0.0413709 -9.66625e-20)
(0.30999 0.0506388 -9.23862e-20)
(0.477474 0.059143 3.64249e-19)
(0.656557 0.0561928 1.66755e-19)
(0.827562 0.0376306 -2.11915e-19)
(0.961677 0.0076563 -2.78849e-19)
(1.04481 -0.0236744 -1.59512e-19)
(1.08201 -0.0460601 2.0256e-19)
(1.08939 -0.0567496 1.44973e-20)
(1.08162 -0.0537501 6.4376e-20)
(1.07158 -0.044807 1.41473e-19)
(1.06359 -0.0277866 2.87116e-19)
(1.06377 -0.0164543 7.9602e-20)
(1.06712 -0.00361685 -1.30123e-19)
(1.07645 -0.00335701 8.49487e-20)
(1.08079 -0.0061527 1.97719e-20)
(-0.101907 0.0851219 -7.29969e-19)
(-0.0785589 0.0435013 -7.9139e-20)
(-0.0229374 0.0470239 2.10333e-19)
(0.082427 0.0317177 3.81508e-19)
(0.224047 0.0418203 3.84594e-19)
(0.388296 0.0524961 8.12154e-19)
(0.570144 0.062027 -7.51984e-19)
(0.752299 0.0595946 -9.96594e-19)
(0.911479 0.0418619 2.03624e-19)
(1.02503 0.0136638 1.07882e-18)
(1.08796 -0.0151921 1.26033e-19)
(1.11031 -0.0361001 -6.56388e-19)
(1.10844 -0.0462583 -1.14269e-19)
(1.09567 -0.0449505 -2.05998e-19)
(1.08246 -0.037978 -4.59637e-21)
(1.07239 -0.0243693 -4.43321e-19)
(1.06994 -0.0155549 6.3884e-20)
(1.07053 -0.00480872 8.4509e-20)
(1.07662 -0.00534408 -3.76752e-20)
(1.07865 -0.00704096 1.30053e-19)
(-0.10604 0.0876286 5.43101e-19)
(-0.0727652 0.0418804 -8.50111e-20)
(-0.00155922 0.0458537 -1.18015e-18)
(0.12574 0.0315828 3.01862e-19)
(0.289189 0.0436702 6.02018e-19)
(0.472275 0.0562577 -5.34463e-19)
(0.663078 0.0667578 1.21685e-18)
(0.840034 0.0642364 -8.05848e-20)
(0.981375 0.0467623 -9.72803e-20)
(1.07325 0.0198763 -1.14145e-18)
(1.11815 -0.00699524 9.41786e-20)
(1.12873 -0.0267758 1.85911e-19)
(1.12034 -0.0366389 2.47722e-19)
(1.10451 -0.0369123 3.64332e-20)
(1.08957 -0.0316561 -7.29066e-20)
(1.0784 -0.0210551 2.97842e-19)
(1.0742 -0.0142662 6.79879e-20)
(1.07283 -0.00533304 -3.05437e-20)
(1.07651 -0.00654222 1.25809e-21)
(1.07682 -0.00734893 -6.52465e-20)
(-0.110308 0.0896328 6.59638e-20)
(-0.0660261 0.0395918 -4.5195e-19)
(0.0230445 0.0442781 1.3696e-18)
(0.175199 0.0322968 -2.01742e-19)
(0.360986 0.0472982 -1.31625e-18)
(0.559394 0.0619195 7.6867e-19)
(0.751904 0.072834 -9.58846e-19)
(0.916327 0.0694583 2.58171e-19)
(1.03677 0.0517901 -1.1976e-19)
(1.10819 0.0259177 5.74386e-19)
(1.1381 0.000682766 -7.53274e-19)
(1.13992 -0.0181771 1.70225e-19)
(1.12727 -0.0278807 -1.22775e-19)
(1.10984 -0.0295643 2.65814e-19)
(1.09419 -0.0257715 2.52589e-19)
(1.08257 -0.0178252 1.02904e-19)
(1.07719 -0.0126272 -1.53719e-19)
(1.07443 -0.00533058 1.11106e-19)
(1.07627 -0.0070869 9.29405e-20)
(1.07526 -0.00718628 -1.21355e-20)
(-0.114674 0.0911183 -3.50498e-19)
(-0.0580231 0.036639 5.67281e-19)
(0.0516248 0.0425431 -6.93311e-21)
(0.231265 0.0342506 -8.2444e-20)
(0.438187 0.0529042 -5.48686e-19)
(0.64617 0.0691336 -8.33341e-19)
(0.832763 0.0795656 -8.69817e-20)
(0.979622 0.0746908 6.0813e-19)
(1.07878 0.0565932 -1.93251e-19)
(1.13229 0.0315857 -4.00134e-19)
(1.15038 0.00774972 3.7453e-19)
(1.146 -0.010306 -4.28145e-19)
(1.13084 -0.019927 -2.05397e-19)
(1.11284 -0.0228237 1.53335e-19)
(1.09714 -0.0202727 -1.98377e-19)
(1.08547 -0.014667 -3.0433e-19)
(1.0793 -0.0106882 1.22861e-19)
(1.07556 -0.00492463 -1.69348e-19)
(1.07597 -0.00708608 -1.18458e-19)
(1.07392 -0.00664991 -1.4452e-20)
(-0.11909 0.0920602 3.01384e-21)
(-0.0483268 0.0330591 -6.71486e-19)
(0.0850545 0.0410418 -1.9027e-19)
(0.293886 0.037802 2.54248e-19)
(0.518549 0.0604005 1.35815e-18)
(0.728927 0.0772924 -7.82282e-19)
(0.903162 0.0863119 1.01948e-18)
(1.03008 0.0795701 -7.0786e-19)
(1.10939 0.0610033 8.64743e-20)
(1.148 0.0368049 6.69149e-19)
(1.15713 0.0142011 3.55568e-19)
(1.14862 -0.00311783 -1.74576e-19)
(1.13218 -0.012702 -2.7771e-20)
(1.11431 -0.0166097 -1.64487e-19)
(1.09895 -0.0151233 1.23268e-19)
(1.08746 -0.0115696 -2.99694e-20)
(1.08077 -0.00850499 -8.65565e-20)
(1.07635 -0.00421721 5.89136e-20)
(1.07562 -0.00662464 9.68197e-20)
(1.07275 -0.00582649 -6.47713e-20)
(-0.123505 0.0924226 -2.86681e-19)
(-0.0364275 0.0289877 2.13034e-19)
(0.12423 0.0402657 -2.0537e-18)
(0.362283 0.0431769 5.42697e-19)
(0.599137 0.0693893 -1.02575e-18)
(0.804632 0.0857234 9.83347e-19)
(0.962188 0.0926312 4.07879e-19)
(1.06896 0.0839321 -5.38846e-19)
(1.13082 0.0649785 2.16277e-19)
(1.15748 0.0415747 -6.27069e-19)
(1.16004 0.0200785 6.18696e-19)
(1.14894 0.00345103 -9.77579e-20)
(1.13208 -0.0061253 3.99626e-19)
(1.11476 -0.0108496 -2.3633e-19)
(1.09996 -0.0102973 4.11421e-20)
(1.08878 -0.00852102 9.94436e-20)
(1.08174 -0.00613508 -9.7828e-20)
(1.07686 -0.00328805 1.32784e-19)
(1.07521 -0.00577002 1.16699e-20)
(1.0717 -0.00479499 1.14893e-19)
(-0.127854 0.0921535 1.27736e-18)
(-0.0216891 0.0246291 6.44054e-19)
(0.169858 0.0408153 1.45413e-18)
(0.434857 0.0503646 -1.40124e-19)
(0.676914 0.0792671 -2.58099e-19)
(0.87141 0.0938754 -1.20304e-18)
(1.01019 0.0983036 -6.86951e-19)
(1.09805 0.0877499 6.46184e-20)
(1.14514 0.0685449 -2.07283e-20)
(1.16246 0.0459306 2.37985e-19)
(1.16036 0.0254425 -3.7119e-19)
(1.14777 0.00946796 -1.95743e-19)
(1.13106 -0.000118715 -4.24054e-19)
(1.11452 -0.00548261 -6.18642e-20)
(1.10038 -0.00577447 -9.37116e-20)
(1.08958 -0.00550861 1.27694e-19)
(1.08233 -0.00363558 -1.38998e-19)
(1.07713 -0.00219589 -1.54064e-19)
(1.07473 -0.00457847 -1.29565e-19)
(1.07073 -0.00362895 -1.88917e-20)
(-0.132058 0.091178 -1.23812e-18)
(-0.00334348 0.0202876 -1.41588e-19)
(0.222201 0.0432869 -1.22339e-18)
(0.509349 0.059079 -1.45768e-18)
(0.749354 0.0894051 -6.72937e-19)
(0.928581 0.101402 1.76553e-18)
(1.04825 0.103275 -5.35606e-19)
(1.11916 0.0910687 1.14797e-18)
(1.1541 0.0717568 2.46712e-19)
(1.16428 0.0499218 3.53932e-20)
(1.15897 0.0303582 3.55884e-20)
(1.14568 0.0149965 3.46802e-19)
(1.12946 0.00539012 3.30484e-19)
(1.11381 -0.00046021 -5.69122e-20)
(1.10035 -0.00153665 9.48448e-20)
(1.08997 -0.00251898 -4.09413e-20)
(1.08259 -0.00106117 2.11656e-19)
(1.07719 -0.000982085 8.40863e-20)
(1.07418 -0.00309993 -1.01396e-20)
(1.06983 -0.00239513 -3.31255e-20)
(-0.136024 0.0893905 5.99072e-19)
(0.019475 0.0164147 -2.90596e-19)
(0.280829 0.0480884 2.21295e-19)
(0.583236 0.0688312 1.41321e-18)
(0.814797 0.0992993 1.3174e-19)
(0.976377 0.108147 -8.23569e-19)
(1.07777 0.107587 -3.20533e-19)
(1.13398 0.093962 -5.70134e-19)
(1.1591 0.0746751 -4.36329e-19)
(1.16392 0.0535994 1.91934e-19)
(1.15649 0.0348867 1.01812e-20)
(1.14303 0.0200933 -2.36471e-19)
(1.12749 0.0104665 -2.60454e-19)
(1.11275 0.00425413 1.39569e-19)
(1.09997 0.00243621 -7.79119e-20)
(1.09001 0.000460258 2.20967e-19)
(1.08257 0.00153532 -1.71494e-20)
(1.07706 0.000327308 2.61493e-22)
(1.07354 -0.00137782 1.7919e-19)
(1.06898 -0.00115347 -1.77785e-20)
(-0.139629 0.0866472 5.64076e-19)
(0.0476451 0.0136341 1.90467e-19)
(0.344518 0.0552738 1.10274e-18)
(0.654204 0.0790742 -9.68761e-19)
(0.872476 0.10863 -3.40134e-20)
(1.01557 0.114087 -3.09398e-19)
(1.10019 0.111323 4.89052e-19)
(1.14392 0.0965079 6.39979e-19)
(1.16124 0.0773574 -1.53634e-19)
(1.16212 0.0570108 -5.31102e-19)
(1.15336 0.0390817 -1.58661e-19)
(1.14005 0.0248083 3.14201e-19)
(1.12529 0.0151677 -1.55193e-19)
(1.11144 0.00868721 -4.2507e-19)
(1.09932 0.00616815 -4.41583e-20)
(1.08977 0.00343695 5.77252e-20)
(1.08231 0.00410248 -8.38397e-20)
(1.07675 0.00172396 -3.98258e-20)
(1.07282 0.000553881 5.55669e-20)
(1.06815 4.63082e-05 1.61902e-20)
(-0.142716 0.0827761 -1.62776e-18)
(0.0819238 0.0126968 -1.36756e-18)
(0.411369 0.0644942 6.85768e-19)
(0.72049 0.0893361 9.73756e-19)
(0.922328 0.11724 -1.33307e-19)
(1.04719 0.119268 4.5287e-19)
(1.11682 0.114577 7.17614e-19)
(1.15013 0.0987783 -2.09368e-19)
(1.16134 0.0798531 6.77911e-19)
(1.15936 0.0601969 6.80342e-19)
(1.14984 0.0429889 3.73621e-19)
(1.1369 0.0291848 6.59146e-20)
(1.12295 0.0195425 6.30821e-20)
(1.10993 0.0128592 4.86873e-19)
(1.09844 0.00968736 -1.49334e-19)
(1.08927 0.00640924 -2.67247e-19)
(1.08184 0.00659433 1.40264e-19)
(1.07628 0.0032235 1.60377e-19)
(1.07199 0.00267399 -8.20545e-20)
(1.06731 0.0011448 -8.23185e-20)
(-0.145109 0.0776271 5.5102e-19)
(0.12279 0.0143171 1.16105e-18)
(0.479159 0.0751145 6.06416e-19)
(0.781004 0.0992807 -1.56e-18)
(0.964748 0.125091 1.94272e-19)
(1.07229 0.123772 8.31617e-20)
(1.1288 0.11744 -5.47084e-19)
(1.15354 0.100835 -8.29224e-19)
(1.16001 0.0822031 -5.53729e-20)
(1.15602 0.0631922 -4.22258e-19)
(1.14613 0.0466461 -5.15598e-19)
(1.13367 0.0332607 5.87746e-19)
(1.12051 0.0236315 3.18896e-20)
(1.10827 0.016787 -4.71676e-19)
(1.09737 0.0130238 2.33861e-20)
(1.08857 0.00936204 1.16768e-19)
(1.08119 0.0089807 -2.95153e-19)
(1.07566 0.00486846 -1.03308e-19)
(1.07104 0.00495137 5.02825e-20)
(1.06646 0.00206685 1.41791e-19)
(-0.146594 0.0710717 6.37404e-19)
(0.170191 0.0190136 -4.01061e-19)
(0.545757 0.0864375 -1.3759e-18)
(0.835263 0.108706 -5.02564e-19)
(1.00038 0.132205 1.47167e-19)
(1.09192 0.127689 -2.14133e-19)
(1.1371 0.119991 6.45812e-19)
(1.15487 0.102729 8.07668e-20)
(1.15771 0.0844398 -2.80106e-19)
(1.15233 0.0660247 4.78465e-19)
(1.14234 0.0500842 7.8381e-20)
(1.13041 0.0370691 -3.82426e-19)
(1.11802 0.0274675 3.68835e-19)
(1.10648 0.0204869 4.77527e-19)
(1.09614 0.0162047 2.42548e-19)
(1.08767 0.0122697 -1.57421e-19)
(1.0804 0.0112583 1.40469e-19)
(1.07489 0.00671145 -4.84851e-20)
(1.06994 0.00730693 4.41618e-20)
(1.06559 0.00272056 -1.06571e-20)
(-0.146855 0.0630294 -8.10233e-19)
(0.223433 0.0269284 1.39069e-18)
(0.609441 0.097896 2.69016e-19)
(0.88324 0.117511 7.89232e-19)
(1.02995 0.138642 5.28725e-19)
(1.10698 0.131106 -5.14109e-19)
(1.1425 0.122301 -6.98315e-19)
(1.15466 0.104502 2.30641e-19)
(1.15477 0.0865885 2.16514e-19)
(1.14845 0.0687168 -1.41211e-19)
(1.13853 0.0533284 2.03884e-19)
(1.12716 0.0406387 2.36193e-19)
(1.11548 0.0310771 -2.87286e-19)
(1.1046 0.0239755 -2.13388e-20)
(1.09478 0.0192511 -2.84514e-20)
(1.08662 0.0151055 -1.09676e-19)
(1.07948 0.0134516 -4.6107e-20)
(1.07399 0.00877931 -1.0807e-19)
(1.06874 0.00954325 7.60964e-20)
(1.06464 0.00316056 -9.17207e-20)
(-0.145498 0.0535817 8.37514e-19)
(0.281246 0.0376807 -1.46413e-18)
(0.669021 0.109132 -2.08115e-19)
(0.925196 0.125663 -7.60267e-19)
(1.05422 0.144472 -5.49765e-19)
(1.11828 0.134103 -3.56726e-19)
(1.14565 0.124425 -5.99412e-20)
(1.15335 0.106184 3.64495e-19)
(1.1514 0.088668 -2.02729e-19)
(1.1445 0.0712864 -3.69385e-19)
(1.13476 0.0563996 2.67554e-19)
(1.12394 0.0439945 -2.32303e-19)
(1.11292 0.0344821 5.5582e-20)
(1.10263 0.0272702 8.56734e-20)
(1.0933 0.0221765 -1.72113e-20)
(1.08543 0.0178502 1.21274e-19)
(1.07846 0.0156007 2.52128e-20)
(1.07298 0.0110135 8.13153e-20)
(1.06757 0.0114562 -6.26721e-20)
(1.06355 0.0033017 1.06903e-19)
(-0.142045 0.043048 -6.93972e-19)
(0.341986 0.0504188 4.24885e-19)
(0.723809 0.119969 1.32267e-18)
(0.961557 0.13317 4.17692e-19)
(1.07391 0.149768 -8.16295e-20)
(1.1265 0.136753 1.0483e-18)
(1.14706 0.12641 1.86971e-19)
(1.15124 0.107801 -1.36338e-19)
(1.14777 0.0906925 2.75213e-19)
(1.14053 0.0737476 -2.41505e-20)
(1.13103 0.0593155 -1.01962e-19)
(1.12075 0.0471584 3.62783e-19)
(1.11033 0.0377011 -2.94775e-19)
(1.1006 0.0303875 -4.65336e-19)
(1.09172 0.0249891 -1.89435e-19)
(1.08413 0.0204973 1.41367e-19)
(1.07734 0.0177342 2.4837e-20)
(1.07189 0.0132823 5.20471e-20)
(1.06645 0.012914 -5.04094e-20)
(1.06231 0.00632235 -1.07288e-19)
(-0.135932 0.0320306 -5.74624e-19)
(0.40393 0.0640423 -1.15187e-18)
(0.773524 0.130334 -2.32492e-18)
(0.992815 0.140057 1.50162e-18)
(1.08965 0.154601 9.2798e-19)
(1.13224 0.139117 -9.93169e-19)
(1.14713 0.128294 5.26868e-19)
(1.14857 0.109371 1.12481e-19)
(1.14399 0.0926717 -4.11834e-19)
(1.13658 0.0761109 3.54761e-19)
(1.12737 0.0620901 1.45289e-19)
(1.11759 0.050148 -5.33806e-19)
(1.10773 0.0407492 3.36906e-19)
(1.09851 0.0333417 4.67421e-19)
(1.09005 0.0276936 -5.2803e-20)
(1.08273 0.0230478 9.0911e-20)
(1.07614 0.0198509 1.32505e-19)
(1.07074 0.015446 2.10869e-20)
(1.06534 0.0148908 -2.07297e-20)
(1.06116 0.00796037 1.03341e-19)
(-0.126526 0.0214233 1.08169e-19)
(0.465563 0.0774965 -8.22715e-19)
(0.818185 0.140213 -1.16603e-18)
(1.01948 0.146361 -1.68436e-18)
(1.10205 0.159036 -8.78388e-19)
(1.13597 0.141249 4.40088e-19)
(1.14618 0.130105 -6.68033e-19)
(1.14551 0.110906 1.42475e-19)
(1.14014 0.0946126 -1.59696e-20)
(1.13268 0.0783847 -6.05521e-19)
(1.12377 0.0647359 -2.62403e-19)
(1.11447 0.0529795 -4.6602e-20)
(1.10512 0.0436402 -4.42778e-20)
(1.09638 0.036146 -1.21305e-19)
(1.0883 0.0302946 2.11703e-19)
(1.08126 0.0255041 -2.28438e-19)
(1.07486 0.0219226 -1.45886e-19)
(1.06954 0.0176868 -1.43964e-19)
(1.06425 0.0164008 5.96293e-20)
(1.06002 0.0103909 1.49164e-20)
(-0.113163 0.0123687 1.02568e-18)
(0.525749 0.0900173 8.62615e-19)
(0.858015 0.149626 6.80859e-19)
(1.04206 0.152124 9.48723e-19)
(1.11162 0.163129 1.39443e-20)
(1.13808 0.143193 2.55832e-19)
(1.14447 0.131866 2.90655e-19)
(1.14219 0.112415 -4.86686e-19)
(1.13626 0.0965194 8.90445e-20)
(1.12884 0.0805757 9.81823e-20)
(1.12023 0.0672632 9.62773e-20)
(1.11138 0.0556659 2.60069e-19)
(1.1025 0.0463857 1.14352e-19)
(1.0942 0.038812 8.4464e-20)
(1.08649 0.0327956 -2.70894e-19)
(1.07971 0.0278638 7.09525e-21)
(1.07351 0.0239854 4.88993e-20)
(1.06831 0.0197528 2.4358e-20)
(1.06311 0.0182627 -3.41141e-20)
(1.05897 0.012353 -8.68916e-22)
(-0.0952067 0.00616422 -6.06511e-19)
(0.583745 0.101243 2.87111e-19)
(0.893363 0.158623 -1.89943e-19)
(1.061 0.15739 4.70277e-20)
(1.11879 0.166935 -1.10443e-19)
(1.13891 0.144989 -1.19045e-19)
(1.14218 0.133595 -4.35016e-19)
(1.1387 0.113904 -1.18233e-19)
(1.13239 0.0983951 -7.54017e-20)
(1.12506 0.0826891 2.07941e-19)
(1.11674 0.069681 -7.00598e-21)
(1.10833 0.0582189 1.78716e-19)
(1.09988 0.0489962 -1.86934e-19)
(1.09198 0.0413496 2.24142e-19)
(1.08462 0.0351989 -7.04034e-20)
(1.07809 0.0301378 2.67832e-19)
(1.07211 0.0259776 -1.97278e-19)
(1.06702 0.0218778 9.52047e-22)
(1.06197 0.0198392 -1.4786e-19)
(1.05789 0.0144141 -1.30958e-20)
(-0.0721271 0.00412455 1.33623e-18)
(0.639105 0.111184 1.34986e-19)
(0.924633 0.167277 1.13951e-18)
(1.07675 0.162206 -3.75821e-20)
(1.12395 0.170498 6.03333e-19)
(1.13872 0.146667 -6.29588e-19)
(1.13946 0.135303 4.30074e-19)
(1.13511 0.115376 -2.42493e-19)
(1.12853 0.100241 1.91863e-19)
(1.12135 0.0847288 3.28967e-19)
(1.11331 0.0719968 -4.35855e-20)
(1.1053 0.0606483 -2.07369e-19)
(1.09725 0.0514807 -2.75908e-19)
(1.08974 0.0437672 5.15603e-20)
(1.08271 0.0375087 -5.61526e-20)
(1.07643 0.0323159 -1.24219e-19)
(1.07066 0.0279567 -5.10456e-20)
(1.0657 0.023843 7.90966e-20)
(1.06079 0.0215556 2.86044e-20)
(1.05682 0.0163709 1.40986e-20)
(-0.0435926 0.00740891 1.82147e-19)
(0.691542 0.120098 4.27123e-19)
(0.952228 0.175672 -1.3161e-18)
(1.08968 0.166618 9.8125e-20)
(1.12744 0.17386 -9.21491e-19)
(1.13773 0.148253 1.42304e-19)
(1.13642 0.137 4.8199e-19)
(1.13145 0.116833 3.6828e-20)
(1.1247 0.102058 3.84695e-19)
(1.11769 0.0866983 -1.00963e-19)
(1.10993 0.0742172 -9.16334e-20)
(1.10229 0.0629625 1.5087e-19)
(1.09461 0.0538473 -6.73989e-20)
(1.08747 0.0460729 8.0721e-20)
(1.08074 0.0397251 4.34633e-20)
(1.07472 0.0344149 -9.81214e-20)
(1.06916 0.0298587 1.45785e-19)
(1.06434 0.0258195 -1.44203e-19)
(1.05959 0.0231244 8.03029e-20)
(1.05572 0.0182407 -6.50784e-20)
(-0.00956392 0.0168271 -1.1993e-18)
(0.740818 0.128343 -2.60672e-19)
(0.976515 0.183887 1.83302e-19)
(1.10013 0.17067 -4.54537e-19)
(1.12952 0.177054 8.24379e-19)
(1.13611 0.14977 7.75296e-19)
(1.13315 0.13869 -2.71392e-19)
(1.12775 0.118275 3.11052e-19)
(1.12091 0.103845 -4.8946e-19)
(1.11408 0.0886001 3.01625e-20)
(1.10659 0.0763478 2.25411e-19)
(1.0993 0.0651688 7.58619e-20)
(1.09198 0.0561032 9.17011e-20)
(1.08518 0.0482725 1.28056e-19)
(1.07874 0.0418532 -2.62822e-19)
(1.07297 0.0364224 1.12165e-19)
(1.06762 0.0317351 -7.87002e-20)
(1.06295 0.0276679 1.62548e-19)
(1.05835 0.0247169 -1.10127e-20)
(1.05459 0.0200999 2.19322e-20)
(0.0296276 0.0326462 -2.61515e-20)
(0.786685 0.136262 7.56414e-19)
(0.997811 0.191981 -6.27945e-19)
(1.10842 0.174403 -1.84517e-19)
(1.13042 0.180108 -1.81979e-19)
(1.13399 0.151234 -1.77531e-19)
(1.1297 0.140378 -6.74521e-19)
(1.12404 0.1197 -4.5963e-20)
(1.11715 0.105602 -2.96419e-20)
(1.11052 0.0904364 -3.68149e-19)
(1.10328 0.0783934 -2.08954e-19)
(1.09634 0.0672733 -1.17078e-19)
(1.08934 0.0582546 3.6483e-20)
(1.08287 0.0503723 -1.6818e-19)
(1.07671 0.043892 1.40801e-19)
(1.07118 0.0383549 4.72739e-20)
(1.06604 0.0335369 1.08437e-20)
(1.06152 0.0294871 -2.52366e-20)
(1.05708 0.0262343 2.20258e-20)
(1.05342 0.0218403 5.35862e-20)
(0.0732442 0.0544365 3.73878e-19)
(0.828886 0.144097 -6.23311e-19)
(1.01638 0.199986 1.94985e-20)
(1.11481 0.177852 7.94553e-20)
(1.13035 0.183046 -5.41359e-19)
(1.13148 0.152658 -1.52304e-19)
(1.12612 0.142064 1.04291e-19)
(1.12032 0.121109 7.94149e-20)
(1.11342 0.107328 1.32208e-19)
(1.107 0.0922088 -1.20105e-19)
(1.1 0.0803582 -1.67284e-19)
(1.09339 0.0692816 -1.99726e-19)
(1.08669 0.0603071 1.38684e-19)
(1.08054 0.0523764 -8.34879e-20)
(1.07465 0.0458468 1.26697e-19)
(1.06935 0.0402021 5.71703e-20)
(1.06442 0.0352995 -8.9814e-20)
(1.06006 0.0312046 -9.86361e-21)
(1.05578 0.0277244 1.69539e-20)
(1.05223 0.023573 1.32528e-20)
(0.120174 0.0810129 -9.64691e-20)
(0.867191 0.15196 4.94851e-19)
(1.03246 0.207904 3.88269e-19)
(1.11956 0.181048 -4.24944e-19)
(1.12946 0.185886 9.8728e-19)
(1.12868 0.154051 -1.04356e-19)
(1.12245 0.143747 5.75859e-19)
(1.11661 0.122499 -1.00832e-19)
(1.10972 0.109022 4.37611e-20)
(1.10352 0.0939187 3.22732e-19)
(1.09676 0.0822456 3.75064e-19)
(1.09045 0.0711982 1.39855e-19)
(1.08405 0.0622654 -1.43186e-19)
(1.0782 0.0542895 1.05233e-19)
(1.07256 0.0477165 3.23655e-20)
(1.0675 0.0419774 -2.33831e-19)
(1.06277 0.0369914 -3.55887e-20)
(1.05856 0.0328688 4.25772e-20)
(1.05445 0.0291689 -6.45352e-20)
(1.051 0.0251961 -9.92872e-21)
(0.169047 0.110526 8.75774e-19)
(0.901452 0.159831 5.97545e-20)
(1.04623 0.21571 -5.52579e-19)
(1.12287 0.184016 -2.22527e-19)
(1.1279 0.188642 -4.48239e-19)
(1.12564 0.155422 -3.11977e-19)
(1.1187 0.145428 -1.58468e-19)
(1.1129 0.123867 3.68666e-20)
(1.10604 0.110681 5.87137e-20)
(1.10007 0.0955673 -6.76595e-20)
(1.09353 0.0840585 -2.69378e-19)
(1.08753 0.0730271 -6.04855e-20)
(1.0814 0.0641341 -1.19537e-19)
(1.07584 0.0561148 -4.10897e-20)
(1.07045 0.0495057 -1.7353e-19)
(1.06563 0.0436737 1.43131e-19)
(1.06109 0.0386331 1.14109e-19)
(1.05704 0.0344482 -9.34065e-21)
(1.05309 0.030568 -1.436e-20)
(1.04975 0.0267939 6.99655e-20)
(0.218426 0.140727 -2.06127e-18)
(0.931652 0.167595 6.74999e-20)
(1.05788 0.223359 -1.79615e-19)
(1.12494 0.186781 2.92799e-19)
(1.12577 0.191323 -2.84361e-19)
(1.12241 0.156775 8.12883e-19)
(1.1149 0.147102 -1.10079e-19)
(1.1092 0.125213 5.34334e-19)
(1.10238 0.112305 -1.39317e-19)
(1.09665 0.0971554 -1.61001e-19)
(1.09032 0.0857993 -7.59328e-20)
(1.08462 0.0747719 1.12024e-19)
(1.07875 0.0659166 8.48479e-20)
(1.07347 0.0578557 -2.49658e-22)
(1.06832 0.0512142 6.96275e-20)
(1.06372 0.0453002 -3.75704e-20)
(1.05938 0.0402067 -3.40132e-20)
(1.05549 0.0359638 -7.76163e-20)
(1.0517 0.0319297 4.35068e-20)
(1.04846 0.0282969 4.80573e-20)
(0.26702 0.169374 8.3184e-20)
(0.957932 0.175094 -5.06592e-19)
(1.06759 0.230801 4.14845e-19)
(1.12596 0.189364 2.14257e-19)