/*--------------------------------*- C++ -*----------------------------------*\
  =========                 |
  \\      /  F ield         | OpenFOAM: The Open Source CFD Toolbox
   \\    /   O peration     | Website:  https://openfoam.org
    \\  /    A nd           | Version:  7
     \\/     M anipulation  |
\*---------------------------------------------------------------------------*/
FoamFile
{
    version     2.0;
    format      ascii;
    class       volScalarField;
    location    "0.31";
    object      p;
}
// * * * * * * * * * * * * * * * * * * * * * * * * * * * * * * * * * * * * * //

dimensions      [0 2 -2 0 0 0 0];

internalField   nonuniform List<scalar> 
12359
(
0.0657664
0.0750082
0.0500504
0.106707
0.0690636
0.153053
0.187009
0.169819
0.225509
0.141105
0.206108
0.279713
0.490782
0.113946
0.102103
0.394067
0.448488
0.0542071
0.0538702
0.0869198
0.122444
0.253376
0.0811725
0.0927733
0.0777993
0.0834473
0.0511239
0.0509762
0.0532248
0.0515911
0.0519696
0.0505107
0.0501986
0.0513321
0.0500823
0.0521443
0.0593783
0.0642318
0.067694
0.0616342
0.072775
0.0628864
0.0569373
0.0562134
0.0525867
0.0529269
0.0523896
0.0517373
0.0535406
0.0512029
0.0508975
0.0506978
0.0504173
0.054638
0.050361
0.0502343
0.0556756
0.0501819
0.0501829
0.0501401
0.0502603
0.05006
0.0507581
0.508042
0.0551853
0.130697
0.058559
0.0506955
0.0598424
0.349239
0.533267
0.0710122
0.0500412
0.0608282
0.0975428
0.0500748
0.0504301
0.0500571
0.0576526
0.317064
0.128566
0.0454691
0.0491971
0.051086
-0.0595348
0.0259515
0.045323
0.047891
-0.0599727
-0.0536824
0.049828
0.469758
0.0498134
0.0496351
0.0498337
0.00774755
0.0491531
0.0498885
0.0585777
0.0549472
0.107359
0.0499418
0.0262132
-0.112783
0.0441682
0.0146724
0.0489786
-0.0570668
0.0296921
0.0142841
0.0491706
0.0456113
0.110034
0.0901176
0.05008
0.0462124
0.0931652
0.0445491
-0.0626198
0.0492272
0.0493196
0.174862
0.0477985
0.00627533
0.0442972
0.0459368
0.0386842
0.0508616
0.0500504
0.0442136
0.0464733
-0.00227047
-0.00374985
-0.00248134
0.0490107
0.0069823
0.0462898
0.00715993
0.0499738
0.0375935
0.0493539
0.0670173
0.015872
0.0489829
0.00912671
0.144932
0.0492025
-0.0463498
0.0440199
0.127997
0.00147394
0.0499603
0.0160726
0.0476732
0.0497538
-0.18608
0.107935
-0.00165809
0.0492008
0.050632
0.0459461
0.0506237
0.00439893
0.0131746
0.0491707
0.0460195
0.0469979
0.174759
0.0146153
-0.0646749
0.0500527
0.0500636
0.0135271
0.077845
0.044187
0.0416241
0.053287
0.0530498
0.11017
0.0429961
0.113375
0.049731
0.0500482
0.0451425
0.0571382
0.207467
0.0446999
0.0490497
0.00468431
0.0443681
0.0493437
0.00786999
0.0124192
0.0476019
0.0135987
-0.116548
0.0334474
0.0455659
0.0165353
0.044706
0.149999
0.00376612
0.0559336
0.0145417
0.0129852
0.049711
0.0121978
0.0565732
0.00212759
0.0434981
0.0494819
-0.000141614
-0.000168106
-0.602831
0.198748
0.0499731
0.0452689
0.0500571
0.0450231
0.0675972
0.100831
0.0436577
0.00638936
0.465185
0.0438846
0.0494542
0.0686436
0.0296995
0.0460537
0.0463199
0.0462568
0.0491711
0.0103154
0.0563741
0.0486114
0.0552192
0.0492214
0.0154146
0.0487638
0.280636
0.0491359
0.0239552
0.0489909
0.0555774
0.0452546
-0.0464456
0.0501578
0.0024378
0.0447691
0.0127545
0.0026443
0.0636981
0.0526304
0.0465699
0.33209
-0.608989
0.0492316
0.0433763
0.38392
-0.0402148
0.0554684
0.0463666
0.0455137
0.0131667
0.076385
-0.498945
-0.0574467
0.0446832
0.0436793
0.00743733
0.0134942
0.0612079
0.0145599
0.0468377
0.0433287
0.0491458
0.0435229
-0.111495
0.0434321
0.0488537
0.0499294
0.0127575
0.0413704
0.0586798
0.0241015
0.0492884
0.0471284
0.0499536
0.0499322
0.050598
0.00466991
0.0450662
-0.50449
0.0489869
0.0489754
0.0261
0.0449085
0.100907
0.0499884
0.0509342
0.049845
-0.0999531
0.0450639
0.0498516
0.0454891
0.0495095
0.0441621
0.0459155
0.0464249
0.044743
0.0543134
0.202381
0.0440412
0.0520524
0.0643208
0.0230668
-0.0463497
0.0439927
0.0591981
0.371846
0.0499271
0.0203349
0.0488374
0.0337552
0.0489711
0.0435786
0.221141
0.0195596
0.206798
0.0580314
0.0485906
0.0123517
0.00554567
0.0484643
0.0116104
0.012968
0.0485811
0.0503298
0.050324
0.0503887
0.0503621
0.281829
0.0492675
0.104994
0.000916389
0.0559587
0.0142372
0.0197139
0.0263578
0.0346379
0.0188763
0.0348328
0.0579015
0.0211719
0.0224881
0.0919401
0.067897
0.0156005
0.0661587
0.0661014
0.0171027
0.106209
0.0459322
0.0504278
0.0321033
0.0503896
0.0457525
-0.218811
0.505589
0.0459329
0.0500005
0.0490278
0.049629
0.0187882
0.049754
0.0497402
-0.0700798
0.0134702
-0.048751
0.0477882
0.0109292
0.041354
0.0492824
0.0161923
0.0319853
0.109873
0.0322665
0.0462345
0.0488291
0.013007
0.0107429
0.0431848
0.296659
0.0162512
0.0066462
0.0502718
0.0472207
0.0499807
0.404192
0.0130304
0.0478662
0.0630049
0.0651065
0.049366
0.0493411
0.0495675
-0.0575082
0.100624
0.0603407
0.0192403
0.000740086
0.0502357
0.113658
0.049991
-0.000265908
-0.050581
0.302966
0.055095
0.0917562
0.0290659
0.0234021
0.0364391
0.0317595
0.0516588
0.036487
0.01636
0.0497524
-0.0379797
0.0592095
-0.00445673
0.0091261
0.0560897
0.0967785
-0.15366
0.0182873
0.0402499
0.00625741
0.00902377
0.0198203
0.0447822
0.0495105
0.0538778
0.048968
-0.00301645
0.0465318
0.0831895
0.0857447
0.0374441
-0.0547702
0.105202
0.0546203
0.0481907
0.392827
0.0486315
0.0478233
0.00659042
0.050006
0.0480473
0.0478002
0.23889
0.186557
0.0506372
0.0478929
0.110283
0.0484223
0.0195511
0.0156949
0.0139424
0.0484914
0.0496079
0.0488964
0.0498744
0.0855893
0.0201406
0.0231496
0.0528651
0.0528665
0.00387628
0.0517377
0.0475643
0.042993
0.119873
0.0057643
0.0499539
0.0482912
0.0128503
0.0314279
0.049316
0.0460825
0.1141
0.0199587
0.00810529
0.0216341
0.0484619
0.047903
-0.00439092
-0.00413927
0.0498566
0.037522
0.0504955
0.00556762
0.290975
0.0495519
0.0467341
0.0485934
0.0157966
0.0544848
0.0536726
0.0461642
0.0503402
0.0308449
0.0763102
0.039958
-0.0343733
0.0488802
-0.0395732
0.0479009
-0.16164
0.0190883
-0.001442
0.0501799
0.0526168
0.022664
0.0452178
0.0508417
0.0571617
0.0552992
0.0553834
0.0701323
0.0145133
0.0140824
0.0492088
0.0449274
0.0199224
-0.00325394
0.0492083
0.048836
0.0130047
0.0485962
0.225291
-0.158133
-0.053994
0.0492097
0.0422422
0.00118293
0.0540289
0.0444934
0.452008
0.048875
0.114826
0.0885251
0.0421376
0.0446869
0.0509907
0.0378724
0.000372577
0.0311175
0.0523758
0.0492359
0.0500504
0.0544405
0.0532515
0.0558975
0.0149708
0.0506301
0.0488833
0.0213059
-0.0453153
0.0518502
0.000166305
0.0490381
0.0529705
0.0956112
0.00157113
0.00234841
0.096987
0.0466099
0.00156778
0.0493973
0.0500996
0.00285039
0.0378601
0.0460641
0.0380246
0.049677
0.0488411
0.0454958
0.0498051
0.00133118
0.102967
0.0594525
0.117905
0.0164775
0.0401396
0.112626
0.0632952
-0.00410989
0.0140596
0.0641795
0.0550092
0.0501221
0.0385711
0.0217327
0.0492053
0.0500156
0.0485615
0.050162
-0.0141339
0.0379496
0.0343966
0.1049
0.0575258
0.237939
0.00517945
0.00203546
0.0451266
-0.00017648
0.0496636
0.0506919
0.0488404
0.108935
0.114224
0.0471609
0.0312871
0.20849
0.016323
0.00612714
0.0390009
0.0639839
-0.134247
0.0482309
0.0511014
0.0496939
-0.00860652
0.0509789
0.0320224
-0.0541916
0.0488735
0.0778186
0.0576245
0.0420494
0.0521943
0.0473829
0.0504335
0.0539949
0.0504928
0.0503702
0.0534403
0.00620298
0.0109179
0.0420327
0.338779
0.00131361
0.424771
0.0180027
0.0248257
0.0537802
0.0189451
0.0572052
0.00934563
0.33268
0.0979253
0.0559893
0.0443674
0.0545851
0.0532476
0.0221065
0.0495067
-0.00425391
0.0504843
0.0999113
0.0488432
-0.0122783
0.00899975
0.0119568
0.0568117
0.039551
0.00921891
0.0777709
0.0063113
0.040985
0.00443032
0.0436683
0.0492453
0.0507061
-0.233504
0.0705211
0.0424607
0.0491578
0.0507109
0.0548618
0.0831202
0.01103
0.0185751
0.0485342
0.0440489
0.0557411
0.042344
0.0401315
0.00333389
0.0560141
0.0573503
0.0100786
0.0440152
0.0407763
0.104577
0.0492066
0.0560885
-0.281841
0.0501515
0.00828983
0.0522536
0.0412463
0.0885481
0.010266
0.051769
0.0194501
0.0496723
0.111054
0.0438058
0.0128456
0.0117255
0.112953
0.0495295
0.000790084
-0.00355746
0.0569358
0.0429638
0.044564
0.0368669
0.23246
0.0538929
0.0499831
0.0552482
0.0497701
-0.127795
0.042499
0.010586
0.0322071
0.0192053
0.530317
0.0425687
-0.0585356
0.0114818
-0.0511366
0.0193344
0.0522448
0.0425287
0.0319913
-0.0467385
-0.0347026
0.0479399
0.0479387
0.117761
0.0473843
0.202464
0.0208402
0.0689365
0.0447911
0.392012
-0.106913
0.0430227
0.0492525
0.0493901
0.0937886
0.0549255
0.0596937
0.0523617
0.0157526
0.0773262
-0.0151877
0.358296
0.0485824
0.0831006
0.015152
0.122936
0.0443595
0.114604
0.00821057
0.0949542
0.0523851
0.0491629
0.0103911
0.00748059
0.0185881
0.117767
0.013217
0.0258084
0.051624
0.0488319
0.0392873
0.248929
0.039193
0.0125643
0.0669178
0.0206962
0.0360129
0.053045
-0.00257068
0.0329981
0.043848
-0.00761182
0.0586234
0.0268694
0.192337
0.0492365
0.0327106
0.0503356
0.0569236
0.0461412
0.0513001
0.049209
0.00261383
0.0432689
0.0779852
0.013592
0.0951584
0.0314018
0.031943
0.0110361
-0.212477
0.0501359
0.056659
0.0258146
-0.0719893
0.00795271
0.0494418
0.518645
0.0491726
0.0441797
-0.178348
0.0548865
0.0497683
0.0498145
0.0654512
0.0897199
0.0501426
0.055935
0.109437
0.0508744
0.0533342
0.0527141
0.0482333
0.0905817
-0.0150809
0.0540444
0.116167
0.0114288
0.0113044
0.00595799
0.015954
0.0527329
0.0441526
-0.0394462
0.0049926
0.0731386
0.0485542
0.0501891
0.11763
-0.000137742
0.0338321
0.0388724
0.0335616
0.0523001
0.0435676
0.0835692
-0.251707
0.344829
0.0826031
0.0505586
0.0436267
0.0796857
0.353104
0.11076
0.0494733
0.00162483
-0.0110208
-0.257338
0.0362235
-0.178423
0.0501597
0.0525511
0.0502014
0.00734383
0.0751055
-0.175715
0.0437273
-0.0868519
0.0471655
0.050936
0.0110827
0.0542048
0.00241188
-0.0356821
0.0556584
0.0351129
0.0250074
0.0366125
0.0554924
0.0761124
0.0728138
0.0313699
0.077344
0.055677
0.0502415
0.0530175
0.0507384
0.104697
0.023392
-0.00592434
0.00378524
0.0857185
0.0252812
0.0239857
0.0429719
-0.00861944
0.034567
0.0550252
0.0497073
0.00112459
0.108611
0.0437917
0.0403401
0.0566674
0.0239299
0.102609
0.11515
0.0244205
0.27009
0.0228623
0.0866156
-0.0320838
0.0538682
0.0176247
0.0118664
0.0476417
0.0343116
0.04042
0.0443477
0.0493871
0.0456538
-0.0122169
0.000220317
0.0448551
-0.104502
0.100958
0.0506411
0.0514159
0.00288313
0.0505805
0.076894
0.0142474
0.00576762
0.0504871
0.0527734
0.0492638
0.0505569
0.117985
-0.135768
0.0506484
0.0556085
0.0492159
-0.149964
0.0228647
0.0155397
0.0489735
0.0505492
0.0525423
0.0251944
0.0840117
0.0283377
0.0479725
0.0528847
0.0504329
0.0214545
0.0840207
0.0395837
0.0500129
0.0311405
0.0257988
0.0755176
0.0456294
-0.0150298
0.143447
0.0475722
0.0331834
0.0526224
0.0438285
-0.208277
0.0555156
0.0506534
0.0121282
0.104789
0.0823223
-0.14664
0.0761859
0.0353581
0.0278079
0.0566425
0.0401953
0.0351064
0.055877
0.145412
0.0503653
-0.339322
0.0832195
0.178413
0.0401157
-0.0047218
0.0954688
-0.000559995
0.264839
0.00730287
0.0264633
0.0341425
0.0389057
0.0491915
0.0441324
0.0881177
0.00204505
0.0560659
0.0476581
0.00684601
0.0176399
0.00684703
0.0803128
0.00173982
0.00644246
0.048726
0.0705676
-0.0415218
0.0869284
0.0491576
0.0349305
0.0534912
0.04916
0.0693974
0.0501475
0.0441929
0.243237
0.0919407
-0.0150867
0.050182
0.0496289
0.0497994
0.0562161
0.053645
-0.000561442
0.0537895
0.0495269
-0.0165788
0.0219511
0.00600531
0.0690861
0.0509429
0.0420814
0.091534
0.0345597
0.0502142
-0.0396701
0.0118078
0.111746
0.0501739
-0.250874
0.0972246
0.0509459
0.00314112
0.0382882
-0.0121011
0.0360349
0.00246912
0.0947336
0.0501332
0.051819
0.0228839
0.039271
0.0547214
-0.00530709
0.0550486
0.0551938
0.0969091
0.0469588
0.0533564
0.0357893
0.0106139
0.0505012
0.0550783
0.0531893
0.0490759
0.0963339
-0.0387211
0.0265571
0.0563118
0.0538488
0.0419609
0.0492048
-0.198376
0.0793757
0.0499442
0.0712556
0.0420485
0.0992494
0.151973
0.00082576
0.0551513
0.00647457
-0.000475388
0.0489676
0.0408701
0.000955344
0.044197
0.0499966
0.0725326
0.0277919
0.0538298
0.0500239
0.0416941
0.0847288
0.0505841
0.0319154
0.0501538
0.0401944
0.0672257
0.134036
0.0496047
-0.203616
0.0802626
0.0167562
-0.105797
0.0924217
0.0320222
-0.028928
0.0567424
0.140055
0.208823
0.0537663
0.044547
0.0445099
0.0519218
0.0537726
0.00748616
-0.0799266
-0.147016
0.00950075
0.146401
-0.00600081
0.0106457
-0.0399358
0.0494705
0.0521619
0.0467389
0.0254697
0.0493332
0.00877709
0.0367939
-0.00500319
0.0492601
0.05246
0.0473164
-0.1614
0.118039
0.0782815
0.0615742
0.122489
0.0446713
0.0505802
-0.0159308
0.0365674
-0.0118065
0.00794107
0.0226274
0.005509
0.0158911
0.0572133
0.0489001
0.0492742
-0.127162
0.0419278
0.0404585
0.0529956
0.00343276
0.0193106
0.0496453
0.0202913
-0.0125952
-0.000203854
0.0942279
0.0537141
0.0497065
0.0056519
0.0563525
0.0494575
0.000324743
0.00859925
0.0532981
0.136695
0.000944456
0.0497428
0.0497291
0.0490294
0.10698
-0.145031
0.0395639
0.0111071
0.0526297
0.0530654
0.0119645
0.0499106
0.182354
0.0159532
-0.0366246
0.15193
0.030603
0.0488922
0.0492918
0.03321
0.0565134
0.0489491
-0.19248
0.00636448
0.0445123
0.21726
0.101406
0.0439261
0.0492103
0.0497661
0.0530525
-0.0698022
0.15901
0.0336207
0.0774726
0.0666041
0.00712114
-0.0794431
0.0349498
0.0546138
0.0529888
0.0171718
0.0412952
0.0485865
0.0520316
0.00497885
0.0536601
0.0330466
0.0554504
0.0815488
-0.00936606
0.0470417
0.0521358
-0.00186856
0.00440223
0.0590018
0.0518468
0.076579
-0.000218764
0.0387636
0.0176911
0.0741227
0.0176958
-0.0264859
0.0534351
0.155599
0.0489681
0.104233
0.00156599
0.0498853
0.049394
0.386879
0.049987
0.0561348
0.0259651
0.0548818
0.0550091
0.0579729
0.0498963
0.0497785
3.75506e-05
-0.0248995
0.0476567
0.343165
0.0374106
0.0518223
0.243108
0.0978512
0.0549519
0.0456861
0.0515092
0.0880844
-0.286127
0.0547206
0.047585
0.0490353
0.052057
0.0639184
0.0170731
0.0542591
0.064748
0.0530451
-0.161735
-0.0058189
0.00871004
0.109819
0.0371706
0.0519117
0.00536615
-0.120241
0.0533387
0.049237
0.0518448
0.0457703
0.0548112
0.0485768
-0.00185116
0.0453097
0.0437495
0.302122
-0.0013603
-0.00528425
0.0048352
0.054663
0.0018681
0.0860107
-0.091016
0.0477895
0.0104271
0.0499011
0.239956
0.049261
0.0495797
0.0299398
0.0490664
0.0259489
0.059314
0.0549339
0.0475639
-0.0812096
0.0867288
0.011809
0.0521035
0.0364826
-0.0377902
-0.00594449
0.0790352
0.0749632
0.0500853
0.0555584
0.0461654
0.0518987
0.0476458
0.0520577
0.0897152
0.0742069
0.00792658
-0.107628
0.0254006
-0.0080119
0.0324837
-0.112506
0.0485521
-0.0282336
0.0519317
-0.0101367
-0.00368053
0.0257152
0.0494986
0.0295053
0.0110803
0.0321916
-0.00655273
0.237691
-0.107009
0.051887
-0.00129287
0.0470541
-0.00310798
0.0904859
0.00463447
0.0448619
0.0579363
0.0108699
0.0527263
0.0374342
0.0500005
0.0447375
0.0492741
0.0556443
0.00697691
0.0012598
0.0494873
0.0842144
-0.0795478
0.488786
0.0488635
0.0733884
0.0270075
0.198882
0.0316634
-0.190742
-0.0351671
0.0473643
0.0249089
0.0657733
0.175559
0.0465414
0.067692
0.0782739
0.0473008
-0.0891097
-0.00275945
0.0517978
0.0252499
-0.0271521
0.0760981
-0.0791446
0.038124
0.0791585
0.0541997
0.0488599
0.0557521
0.0447581
-0.0749784
-0.000462775
-0.0634181
0.0504884
-0.0715828
0.030301
0.00454982
0.110695
0.0254291
0.0280376
-0.0530686
0.0379083
0.0365592
0.00582149
0.0687434
0.0259353
0.00938832
0.0697067
-0.091264
0.0856032
0.0349115
0.0876562
0.0504347
0.111512
-0.000178792
0.0993112
0.0534607
-0.0334741
0.0495234
0.034108
0.0093285
-0.000592511
0.0572366
0.00660056
0.0449907
0.505245
0.0555829
0.00591666
0.091098
0.000237258
0.00788385
0.0498763
0.031662
0.049248
0.459109
0.0496968
0.0493958
0.0490294
-0.0122856
0.0438186
0.0444709
-0.0075343
0.0281605
0.0641805
0.0439448
0.0493346
0.106431
0.0477294
0.104065
0.00812664
0.0856824
0.0399806
0.0419196
0.0263481
-0.013225
0.0101311
0.043426
0.535509
0.0496826
0.0493936
0.055781
-0.083208
0.0533938
0.0308256
0.0781833
0.0536514
0.0415379
0.00399319
-0.0210507
0.0337495
-0.0438048
0.0545919
0.0452477
0.0149121
0.0196629
-0.00037225
0.0518593
0.0255655
0.0717486
0.203184
0.0371266
0.0494254
0.0447706
0.178683
0.0500215
0.0500229
-0.0357989
0.0323459
-0.041166
0.0415968
0.0492637
0.191998
-0.0120072
0.0440336
0.0549325
0.0476194
-0.102435
0.0500299
0.0340077
-0.0253509
0.0500232
0.0493212
0.00988279
0.0488798
0.0500331
0.0140432
0.0509722
0.0492797
0.0218955
0.0489703
-0.0116457
0.0492604
0.0584234
0.119161
0.00868692
0.0500362
0.00633444
-0.184506
0.0416051
0.0739399
0.0473866
0.0325876
0.0479799
-0.016438
-0.00430844
0.0457075
0.0493244
0.133323
0.029313
0.0163685
0.0122985
0.129145
0.0488965
0.00694613
0.0493104
-0.0174147
-0.00498021
-0.00282907
0.00854612
0.155495
-0.0715384
0.00576863
0.0111059
0.0463837
0.0521056
0.00216056
0.136881
0.0984733
0.0332751
-0.072775
0.0488129
-0.0616793
0.199943
0.0487751
-0.00567646
-0.0107828
0.0807389
0.00867199
0.00792507
0.0724929
0.0493694
-0.0109644
-0.0663278
0.244298
0.0547025
0.00320502
-0.0279518
0.143527
0.0513075
0.0492913
0.00674835
-0.0509413
0.0409927
0.0679444
0.0495796
0.0488813
0.0571206
0.0544395
0.0257894
0.0552486
0.049272
-0.0152274
0.0357029
-0.0230445
0.0164479
0.0495605
0.0493289
0.144775
0.0542322
0.0800254
0.0603701
-0.0373467
0.080852
0.0485824
-0.0221681
0.0588634
0.0492783
0.0278589
0.0374352
0.0413649
0.0938098
0.0259296
-0.123894
0.0406329
0.0491144
-0.02487
0.0489864
-0.00558646
0.0313929
-0.0263242
-0.0462361
0.0959093
-0.0291692
0.0495994
-0.00718889
0.0534217
0.0716234
-0.0210922
0.0198815
-0.0215857
-0.0646089
0.171137
-0.00959344
0.0597419
0.0485606
0.049169
0.0489632
-0.0292148
0.139572
0.0486198
-0.0129009
-0.0167421
0.01528
0.00347315
0.0278706
0.108724
-0.0245424
0.0543866
0.0129014
0.025257
0.0498952
0.0499124
0.0512748
0.0545468
0.0120562
0.049483
0.0519397
0.0557186
0.0737638
0.000580818
0.0491537
-0.0168352
0.0492573
0.00511569
0.0140035
0.0516477
0.0439427
0.00245074
-0.0179149
0.0365786
0.076635
0.0543349
0.0270176
0.0323526
0.0493441
0.0535209
0.0537785
0.0517115
0.0493906
0.0693219
0.0493764
0.12517
0.0135604
-0.0933103
0.0494076
0.0592508
0.0495164
0.0494479
0.123234
0.0587092
0.0487588
0.336204
0.134318
0.0377165
0.0646518
0.0370298
0.119972
0.0208995
0.00955835
0.0542406
0.0556916
0.0493219
0.0502868
-0.00988458
0.0489305
0.0513336
0.124359
0.0517198
0.0534166
0.0279583
0.0493362
-0.0324
0.0494401
0.0512778
0.00823315
0.00986226
-0.0579201
0.108504
0.0702707
0.0515126
0.00819752
0.0514524
0.0256317
0.00600078
0.0556003
-0.0274652
0.0500761
0.0270643
0.0698915
0.0526371
0.101241
0.0494141
0.0555004
0.0493252
0.0294959
0.0488419
0.0521835
0.0245277
0.045503
0.0703803
0.0273423
0.0493572
0.0273046
0.0130498
0.0554971
0.00915485
-0.0128792
0.0493169
0.0310085
0.108999
0.00377759
0.0560937
0.043839
0.0442714
0.025365
0.0567723
0.152687
0.0544921
0.0495372
0.0495674
-0.0162993
-0.00818008
-0.01868
0.294969
0.0998319
0.0500888
0.0263936
0.0119779
0.0499
-0.0469517
0.053786
0.103814
-0.000312444
0.0513299
0.144776
-0.00695751
-0.0139574
0.0233232
0.0291619
0.0498123
0.0489559
0.0622081
0.0493467
0.0492961
0.136512
0.0518503
0.063737
0.0486158
0.0385185
0.0444323
0.383816
0.0413405
0.0439777
-0.00731666
0.103497
0.0937159
0.0345605
0.108748
0.0494497
0.0456586
0.00548583
0.0714563
0.123477
0.0509899
-0.000561159
0.0397154
0.0486886
0.0519045
0.0493627
0.0630052
0.0414237
0.0498288
0.0303068
0.25939
0.0499282
0.0124383
0.0320339
0.0490914
0.0628903
0.0520409
0.0280711
0.0494218
0.0493024
0.0155108
0.0295336
0.0911247
0.142177
-0.240461
0.0553367
0.0642278
-0.0306487
0.0332862
0.051981
0.0400199
-0.00127731
0.0493805
0.0530679
0.0493127
0.0299756
0.0651041
0.0190618
0.0493847
0.0609614
0.0344709
0.0540637
0.117407
0.0453674
0.0491239
0.0493819
0.0295402
0.0232973
0.315062
0.0602906
0.0821562
0.00555193
0.00557799
0.0491359
0.0992842
0.0493727
0.049336
0.0498989
-0.00188337
0.0546814
0.0352097
0.00724313
0.0206921
0.00688168
0.0300493
0.0647786
0.112722
0.0468529
0.0118864
0.0913267
0.0328963
0.128636
0.0534115
-0.165922
0.142263
0.1332
0.0487889
-0.115294
0.00649238
0.00852749
0.136913
1.60005e-05
0.0588692
0.0562614
0.0387186
0.035491
0.0328222
0.211113
0.0740447
0.0538464
0.0144843
0.0539903
0.0360994
0.0241908
0.0932163
0.0360783
0.0680127
0.0836017
0.00579133
0.0956086
0.0319389
0.0501856
0.0599726
0.048766
0.0441899
0.0479588
0.0542154
0.0209818
-0.038119
0.0490689
0.161724
0.0484443
0.0412309
0.0100578
0.0305189
0.0335829
0.047707
0.00775394
0.0126487
0.25309
0.0493642
0.00956493
0.0363726
0.0135592
0.0499082
0.0495871
0.149094
0.0239782
0.032791
-0.1011
0.0271519
0.0388041
0.136047
0.0154283
0.11781
0.0554203
0.0188172
0.0374554
0.0455609
-0.0225733
0.00740748
0.0204686
0.0331404
0.0487539
0.0066939
0.00635935
-0.000847907
0.0397516
0.0371856
0.416247
-0.0383957
0.048373
-0.010055
0.0208716
-0.0946222
0.0492871
0.031892
0.0327736
0.0492826
0.00462271
0.0280457
0.0529587
-4.13508e-05
-0.018691
-0.0014359
0.0556428
0.0240019
0.049942
0.0448153
-0.0244748
0.0823015
0.0283706
0.00753165
0.146442
0.024861
0.0202527
0.0218117
0.00757517
-0.0229829
0.0477071
0.0223295
0.016982
0.0922678
0.282457
0.0137602
0.0352249
0.0212369
0.0492853
0.0926567
0.0316872
0.00970744
0.0490598
0.035762
0.00653285
0.0143058
0.149274
0.0110483
0.0298789
0.0299602
0.0544232
0.00430372
0.0269515
0.0741903
0.0593579
0.055634
0.0107348
0.0363246
0.0420193
0.0385207
0.0494206
0.00612458
0.0623372
0.0297873
-0.00143625
-0.0412905
0.0439208
0.0280547
0.0171279
0.0245226
0.0494064
0.0996226
0.0984471
0.0727561
0.0498843
0.234654
0.00743187
0.0535524
0.0893334
0.0488627
0.0575498
0.0330771
0.0262492
0.0534176
-0.0934139
0.0506659
0.0593352
0.0429134
-0.00992653
-0.0269717
-3.88141e-05
0.0626022
0.00998702
0.0499173
0.0297241
0.0748183
0.0506852
0.150474
0.0178394
0.028303
0.0085651
0.0666692
0.0224208
0.0379745
0.0490382
0.0492089
0.0469394
0.0632731
0.120777
0.0168234
0.147707
0.0828853
0.0898868
0.051333
0.069577
0.00763279
0.04931
-0.0175232
-0.0144777
0.0524165
0.0493395
0.040544
0.0474292
0.049179
0.0648761
0.0346803
0.131621
0.0169693
0.0357184
0.0887102
-0.00805719
0.00621977
0.0855963
0.0138067
0.0244217
0.0703209
0.048933
0.0626898
0.0282175
0.121437
0.126226
0.223112
0.0492189
0.123219
0.0332093
0.0321878
0.104461
0.107234
0.0992869
-0.0199551
0.0214385
0.0664858
0.0217747
0.0398629
0.0461294
0.0911131
0.0486842
0.0175611
-0.023706
0.0595048
-0.0219174
0.0482908
0.0826449
0.054864
0.0309758
0.102827
0.161197
0.0214976
0.0433776
0.0178088
0.0338498
0.0710896
0.000137667
0.0823407
-0.001214
0.0492292
0.0218584
-0.147502
0.097367
0.036216
-0.033155
0.0107128
0.0419759
0.0482665
0.10321
0.093027
0.0341362
0.0576258
0.0510104
0.00645597
0.0441541
0.00524117
0.0806388
0.0359526
0.141502
0.0492385
0.0456139
0.00326286
0.0378832
0.0385534
0.0660375
0.0565027
0.0301419
0.166972
0.10804
0.0490488
0.00651244
0.0446022
0.0489717
0.132566
0.0486998
0.0225509
0.0253347
0.048665
0.0487764
0.0523422
0.00787713
0.0612709
0.0975618
0.0287088
0.126021
0.0327389
0.0337627
0.0374486
0.0786257
0.0494405
0.0395486
0.0376058
0.0272414
-0.0157193
0.0102557
0.0665785
0.0444702
0.0555806
0.0319059
0.0428919
0.0609878
0.0222078
0.105843
0.0325603
0.0490006
0.00874019
0.086761
0.00791691
0.0491607
0.1341
-0.0204846
0.0458217
0.0978212
0.00653702
0.0534688
0.0961883
0.00454368
0.0892993
0.113904
0.00516638
0.0480093
0.0790471
0.0761605
0.0144234
0.0462316
0.0315808
0.0491969
0.048583
0.0489155
0.0143247
0.01813
0.0211432
0.0821403
-0.0444612
0.168726
-0.0406102
0.0284951
0.042306
-0.0281315
0.0501292
-0.0815432
0.033525
0.0237632
0.0193105
0.029158
0.0651577
0.0415812
0.033024
0.0542502
0.0491363
0.0778798
-0.0263582
0.014711
0.00687374
0.0180302
0.0524646
0.0282054
0.0169321
0.0549162
0.024655
0.0387089
0.118379
0.0858344
0.0812844
0.0930073
-0.0010822
0.000245335
0.00651012
0.0235871
-0.00132649
0.0157375
0.058691
0.0435157
0.130422
0.0741007
0.0078434
0.0494499
0.0953427
0.124052
0.0739256
0.0789838
0.0569654
0.0176034
0.113433
0.0292498
0.0238618
0.0342746
0.0333838
0.04825
0.0288533
0.0299337
0.0539987
0.0209719
0.0304859
0.0445698
0.103541
0.0440004
0.0393204
0.0752628
0.0558599
0.0485866
0.0511874
0.00275073
0.0168835
0.0500481
0.0720074
-0.0367545
0.00724717
0.0560069
0.0203364
-0.0141299
-0.0310957
-0.00247352
0.0336603
0.0341386
0.0553761
0.0335138
0.0265122
-8.61034e-05
-0.000866281
0.00379013
0.000804932
0.035103
0.0481825
0.0479171
0.128955
0.062392
0.0355747
0.0387958
-0.000638399
0.0448992
0.0278901
0.149198
0.0873739
0.012081
0.0544486
0.0172604
0.0488281
0.00943867
0.00116705
0.0279932
0.0489014
0.0591972
0.165515
0.0421734
0.0887174
-0.0114794
0.0492724
0.0348366
0.0940664
0.101038
0.0702011
0.0499464
0.0456431
0.0466876
0.0498348
0.048943
0.0414395
0.00762725
0.0489011
0.0565363
0.0539993
-0.400816
0.119705
0.0466797
0.0492146
0.011372
0.0175548
0.0242185
0.0763743
0.0185979
0.0483983
0.0425092
0.0057261
0.049768
0.0150955
0.092287
0.0711888
0.0475752
0.0130729
0.0495187
0.0396492
0.037678
0.0419775
-0.00172756
0.0594997
0.0349975
0.0336386
0.110479
0.0813667
0.0488215
0.0493371
0.0365649
0.0323711
0.0149246
0.0210586
0.0402583
0.00841388
0.0800549
0.0498598
0.0381158
0.00646918
0.0405639
0.0847899
0.0637365
0.0518916
0.149468
0.0229059
0.126126
0.139204
0.0281743
-0.00219752
0.000151235
0.123156
0.0404277
0.00778572
0.0741393
0.0365115
0.0222041
0.0887489
0.0722168
0.051211
0.00329154
0.0321239
0.0285513
0.0409491
0.0067215
0.0509266
0.0803119
0.0507375
0.0578177
0.0859927
0.0551526
0.0429617
0.105632
0.00822575
0.0911305
0.0291291
0.0721818
0.00931591
0.0619394
0.0128155
0.0504503
0.0309193
0.0105275
0.0675453
0.0280797
0.0504153
0.0424597
0.0161395
0.0459375
0.0351841
0.0565197
0.0366344
0.0231625
-8.73702e-06
0.0953708
0.104083
0.0998865
0.0415495
0.0414982
0.0355669
0.0199054
0.0292447
0.0496047
0.0546063
0.0700813
0.0250863
0.0587232
0.00570822
0.0314416
0.0571535
0.0335232
0.0327691
0.0440815
0.0303806
0.0379867
0.133069
0.26213
0.0234261
0.0266782
0.0297616
0.0317948
0.039104
0.0347591
0.0335536
0.0237688
0.0141624
0.0479476
0.0491999
0.0481642
0.00717411
0.0491368
0.0301029
0.0429911
0.0314712
0.059785
0.034233
0.121915
-0.00494566
0.0488023
0.0354537
0.0907981
0.0419664
0.0610916
0.0879047
0.0538662
0.0490271
0.0302661
0.00547085
0.0856311
0.00488885
0.114516
0.0827195
0.00462837
0.0633986
0.0684361
0.0115091
0.0433818
0.0484812
0.0504727
0.0367536
0.048714
0.0326994
-0.0257335
0.0478971
0.0800721
0.0436513
0.0625547
0.0632559
0.158203
0.0551598
0.0423895
0.00563646
0.0144459
0.0867981
0.0318694
0.0832737
0.0503408
0.0381102
0.0651915
0.0461213
0.0332773
0.0498743
0.050376
0.0317321
0.0486676
0.0351085
0.0615348
0.0807455
0.0156648
0.0484396
0.00752171
0.00282627
0.0677654
0.0589218
0.0511584
0.0682529
0.131802
0.0491825
0.0408544
0.0471312
0.0609634
0.03934
0.0357511
0.039758
0.0738715
0.0832368
0.0328426
0.0792009
0.0898989
0.060086
0.107512
0.0576599
0.0784145
0.0269634
0.0428768
0.0223144
0.0499526
0.0650649
0.0507149
0.0831798
0.00270848
0.055177
-0.00933423
0.0447597
0.027466
0.116722
0.00857398
0.047152
0.0488546
0.00579687
0.107018
0.0277062
0.0300026
0.0170014
0.0449854
0.0807018
0.0381575
0.0475408
0.0366183
0.0090983
0.0430206
0.0408797
0.385734
0.0397074
0.0507472
0.0592379
0.0646915
0.0433154
0.0321541
0.0492075
0.101533
0.0420731
0.0491916
0.0143273
0.0371649
0.0294123
0.0415096
0.0632786
0.0426566
0.0450134
0.0443304
0.0342983
0.079985
0.0492312
0.03945
0.057685
0.0457259
0.0402227
0.0552049
0.0552154
0.0596927
0.0599574
0.049291
0.0436974
0.0511831
0.0296509
-0.000979788
-0.00023366
0.146437
0.0745157
-0.00759873
0.0312318
0.0486443
0.0518589
0.0585316
0.0738905
0.0495743
0.0282174
0.0758675
0.056886
0.0267826
-0.00711698
0.0222817
0.048571
0.0381022
0.049083
0.093679
0.235414
0.0399384
0.0573508
0.0426002
0.00686987
0.0488537
0.072395
0.0284339
0.0458241
0.0497315
0.0337954
0.0963797
0.0390962
0.0563721
0.0265844
0.0425185
0.043969
0.0875032
0.0605725
0.0408687
0.0512763
0.0395178
0.0547936
0.0383604
0.0495143
0.0397463
0.0489441
0.0547514
0.0117853
0.0683882
0.0171759
0.0736453
0.0736164
0.0531645
0.03921
0.0358046
0.0771277
0.0916717
0.0113936
0.0421287
0.0557393
0.0582996
0.0402837
0.0477201
0.0441895
0.0374255
0.0289561
0.0287268
0.0447859
0.0155294
0.0398689
0.0791157
0.0410482
0.0432686
0.0390863
0.0246757
0.0837846
0.0539169
-0.0010342
0.0396654
0.0416594
0.010943
0.0520037
0.000679505
0.0514491
0.0420872
0.046885
0.0472561
0.0501092
0.0431018
0.00497108
0.0492076
0.0215871
0.0717518
0.0515768
0.0579132
0.0335168
0.0957354
0.0605262
0.0496029
0.0353464
-0.0518022
0.049329
0.0058914
-0.0635106
0.0657021
0.0852211
0.0529183
0.0414798
0.0307198
0.0713815
0.058884
0.0492599
0.092142
0.0119151
0.0810122
0.0492354
0.0486329
0.0437538
0.0445873
0.0452509
0.0659743
0.0766546
0.046317
-0.00112678
0.0462924
0.053255
0.0420036
0.0328759
-7.14008e-05
0.0486784
0.0424268
0.0243858
0.043078
0.0466063
0.0515557
0.126596
0.0735087
0.0496745
0.0623744
0.0534472
0.042054
0.0758423
0.0595737
0.0443671
0.0628217
0.0372229
0.0625301
0.0847589
0.00283833
0.0243545
0.0497688
0.0701299
0.0474687
0.0516812
0.0505956
0.0423857
0.00197058
0.00050313
0.0587644
0.0336526
0.0352338
0.0287803
0.0483377
0.0479288
0.049677
0.0708057
0.0350567
0.0492763
0.0421461
0.0543715
0.0236812
0.0101169
0.0492891
0.0487876
0.0367868
0.0483536
0.0477459
0.0428758
0.0455519
0.040243
0.0659893
0.061645
0.034648
0.0470649
0.0528564
0.0581226
0.0426183
0.0492212
0.0433534
0.031321
0.00167731
0.00587309
0.0357803
0.121649
0.0430457
-0.0536097
0.0885183
0.0425254
0.0412378
0.0535961
0.0486878
0.0492898
0.0540117
0.0565873
0.0421123
0.0508447
0.0484434
0.0963841
0.00631786
0.0340269
0.0494355
0.0547997
0.062814
0.0700963
0.0329615
0.0515051
0.0491577
0.0476723
0.04345
0.0296618
0.0273895
0.00662527
0.0616738
0.0475537
0.0403439
0.0559994
0.0534501
0.0529537
0.0465135
0.0579306
0.0492976
0.0161002
-0.00182956
0.0484608
0.066315
0.0419742
0.0450219
0.0466486
0.0505288
-0.0328486
0.0631559
-0.000292476
0.0436355
0.00932637
0.0521226
0.0684907
0.127751
0.055191
0.0494736
0.0310154
0.0240118
0.110224
0.0423019
0.066602
0.0453145
0.0488222
0.0652411
0.0468125
0.120586
1.98419e-05
0.0782056
0.052475
0.0479742
0.0492678
0.0476037
-0.0250368
0.0391474
0.0487276
0.0560962
0.047518
0.0487874
0.0486142
0.0115716
0.00416916
0.0542735
0.0481342
0.0818139
0.0554454
0.101635
0.396417
0.0212505
0.0439669