/*--------------------------------*- C++ -*----------------------------------*\
  =========                 |
  \\      /  F ield         | OpenFOAM: The Open Source CFD Toolbox
   \\    /   O peration     | Website:  https://openfoam.org
    \\  /    A nd           | Version:  7
     \\/     M anipulation  |
\*---------------------------------------------------------------------------*/
FoamFile
{
    version     2.0;
    format      ascii;
    class       volScalarField;
    location    "5.5";
    object      rho;
}
// * * * * * * * * * * * * * * * * * * * * * * * * * * * * * * * * * * * * * //

dimensions      [1 -3 0 0 0 0 0];

internalField   nonuniform List<scalar> 
2413
(
1.65655
1.64859
1.64034
1.63172
1.6241
1.61739
1.61081
1.60397
1.59723
1.59129
1.58495
1.57766
1.56959
1.56248
1.55581
1.54841
1.54056
1.53365
1.52717
1.52148
1.51591
1.51126
1.51016
1.51649
1.53734
1.59266
1.68047
1.78461
1.89256
1.94384
1.9847
2.01069
2.01237
2.00908
1.99993
1.99269
1.98956
1.98568
1.98294
1.98316
1.98377
1.98562
1.98706
1.98704
1.98646
1.98509
1.9824
1.97889
1.97692
1.97507
1.97263
1.97009
1.96771
1.96535
1.96261
1.9594
1.9559
1.952
1.94776
1.94367
1.93954
1.93483
1.92942
1.92364
1.91775
1.91193
1.90641
1.90081
1.89467
1.89103
1.88899
1.88584
1.88207
1.8793
1.87502
1.86902
1.86403
1.85971
1.85398
1.84641
1.83858
1.83118
1.82413
1.81999
1.81734
1.81486
1.81307
1.81243
1.81294
1.81438
1.81597
1.81737
1.81814
1.81801
1.81626
1.81324
1.80962
1.80546
1.80086
1.79583
1.79043
1.78494
1.7797
1.77433
1.76837
1.76191
1.75466
1.74603
1.73646
1.72665
1.71669
1.70696
1.69854
1.69148
1.68489
1.67856
1.75227
1.74426
1.7413
1.73469
1.72635
1.72516
1.72563
1.72147
1.71922
1.7172
1.71305
1.70707
1.70186
1.69575
1.68742
1.67739
1.66899
1.66107
1.65293
1.64456
1.63773
1.63124
1.62474
1.61777
1.61114
1.60472
1.59792
1.58993
1.58191
1.57481
1.56772
1.56045
1.55248
1.54599
1.54072
1.53553
1.53558
1.54138
1.56383
1.62353
1.70726
1.82851
1.92109
1.99133
2.04055
2.04883
2.04637
2.04143
2.03412
2.02537
2.01487
2.00589
2.00272
2.00266
2.0044
2.00627
2.00729
2.0081
2.00795
2.00742
2.00681
2.0056
2.00346
2.00087
1.99924
1.99804
1.99607
1.99438
1.99281
1.99077
1.98803
1.98449
1.97993
1.97422
1.96826
1.96288
1.95747
1.95194
1.94638
1.9406
1.93455
1.92835
1.92217
1.91575
1.9089
1.90521
1.90354
1.90078
1.89764
1.89461
1.88959
1.88339
1.87743
1.8715
1.86523
1.85812
1.8501
1.84196
1.83612
1.83285
1.83028
1.82837
1.82734
1.82739
1.82873
1.83059
1.83263
1.83374
1.83204
1.82873
1.82441
1.81916
1.81308
1.80641
1.79973
1.79344
1.78724
1.78087
1.77443
1.76756
1.75973
1.75102
1.74173
1.73166
1.72126
1.71151
1.70283
1.69501
1.68792
1.68174
1.67586
1.67022
1.76878
1.76217
1.76023
1.75349
1.74626
1.74611
1.74519
1.74072
1.73823
1.73486
1.72941
1.72237
1.7161
1.70871
1.69917
1.68925
1.68128
1.67351
1.6658
1.65807
1.65163
1.64522
1.63873
1.63119
1.62449
1.61773
1.61055
1.60247
1.59436
1.58725
1.57975
1.57217
1.56595
1.56051
1.5612
1.56699
1.59436
1.65105
1.74634
1.86585
1.95738
2.04349
2.07894
2.09022
2.09044
2.0852
2.07592
2.06589
2.05668
2.0495
2.04351
2.0385
2.03575
2.03459
2.03458
2.03494
2.03507
2.03428
2.03225
2.02993
2.02815
2.02635
2.02481
2.02391
2.02327
2.02292
2.02297
2.0224
2.02041
2.01774
2.01439
2.01006
2.0046
1.99826
1.99229
1.98708
1.98159
1.97551
1.96898
1.96211
1.95509
1.94823
1.94175
1.9352
1.92935
1.92696
1.92563
1.92242
1.91813
1.91353
1.90855
1.90322
1.89674
1.88943
1.88206
1.87451
1.86724
1.86195
1.85789
1.85452
1.85214
1.85079
1.85019
1.85038
1.8515
1.85201
1.85027
1.84672
1.84197
1.83601
1.82888
1.82117
1.81359
1.80612
1.79859
1.79098
1.78331
1.77547
1.76736
1.75871
1.74917
1.73878
1.72824
1.71815
1.70887
1.70083
1.69403
1.68794
1.68189
1.67587
1.66986
1.66443
1.78507
1.78009
1.77896
1.77223
1.7663
1.76604
1.76361
1.75911
1.75598
1.75142
1.7442
1.73602
1.72877
1.72053
1.71078
1.70154
1.69399
1.6865
1.67888
1.67153
1.66526
1.65879
1.65214
1.64484
1.63784
1.63085
1.623
1.61476
1.60662
1.59944
1.59332
1.58692
1.58709
1.59428
1.62358
1.68203
1.79096
1.89976
2.01262
2.08865
2.11449
2.13359
2.13887
2.1361
2.12843
2.11708
2.10526
2.09591
2.08893
2.08394
2.07906
2.07562
2.07316
2.07003
2.0671
2.06475
2.06251
2.05973
2.05586
2.05173
2.04958
2.04817
2.0471
2.04642
2.04591
2.04541
2.04569
2.04589
2.04407
2.04137
2.03805
2.03386
2.02876
2.02314
2.01748
2.01154
2.00526
1.99887
1.99223
1.98522
1.97799
1.971
1.96439
1.95781
1.95363
1.95244
1.95127
1.94755
1.94237
1.9372
1.93181
1.92536
1.91806
1.91069
1.90364
1.89666
1.89166
1.88768
1.88385
1.88092
1.87902
1.87784
1.87721
1.87677
1.87516
1.87174
1.8664
1.85924
1.85099
1.84238
1.83343
1.82418
1.81495
1.80573
1.7964
1.78717
1.77808
1.76919
1.75968
1.74925
1.73849
1.72795
1.7182
1.7098
1.70259
1.69631
1.69048
1.68458
1.67879
1.67275
1.66676
1.66169
1.80156
1.79823
1.7973
1.79047
1.78618
1.78505
1.78131
1.77632
1.77207
1.76611
1.75746
1.74884
1.74101
1.73226
1.72225
1.71369
1.70662
1.69948
1.69228
1.68573
1.67942
1.67295
1.66553
1.65803
1.65038
1.64273
1.63493
1.62689
1.62049
1.61461
1.61508
1.62503
1.65459
1.72643
1.83188
1.94648
2.06415
2.12242
2.16601
2.18972
2.18784
2.18095
2.17124
2.16313
2.15433
2.14404
2.13478
2.12841
2.12446
2.12108
2.11635
2.11202
2.10783
2.10312
2.09801
2.09316
2.08855
2.08398
2.07876
2.0734
2.07003
2.06778
2.0661
2.06495
2.06425
2.06385
2.06408
2.06435
2.06259
2.06014
2.05728
2.05305
2.04789
2.04305
2.03817
2.03251
2.02632
2.02015
2.01392
2.00755
2.00131
1.99547
1.98961
1.98403
1.98106
1.97961
1.9762
1.97072
1.96553
1.96115
1.95581
1.94892
1.94167
1.9345
1.92754
1.92115
1.91579
1.91092
1.90654
1.90342
1.90138
1.89991
1.89836
1.89599
1.89224
1.88659
1.879
1.86957
1.85901
1.84829
1.83773
1.82727
1.81716
1.80705
1.79674
1.78633
1.77484
1.76217
1.75043
1.74015
1.73057
1.72187
1.71414
1.7071
1.70092
1.69543
1.68975
1.68372
1.678
1.67193
1.66584
1.66114
1.81861
1.8164
1.815
1.80862
1.80542
1.80294
1.79779
1.79229
1.78692
1.77966
1.76991
1.76064
1.75247
1.7436
1.73398
1.72653
1.71994
1.7132
1.70593
1.69965
1.69299
1.68603
1.67828
1.6707
1.66309
1.65531
1.64853
1.64223
1.64354
1.65455
1.69089
1.77134
1.87213
2.01379
2.10783
2.17555
2.22013
2.22915
2.22926
2.22602
2.21847
2.20797
2.19615
2.1885
2.18358
2.17803
2.1723
2.16665
2.16083
2.15502
2.14938
2.14394
2.13839
2.13244
2.12608
2.11939
2.1123
2.10496
2.09862
2.09259
2.08753
2.08455
2.08214
2.08027
2.07896
2.0781
2.07768
2.07644
2.074
2.07149
2.06829
2.06296
2.0586
2.05685
2.05343
2.04816
2.04318
2.03825
2.03302
2.02781
2.02298
2.01811
2.01299
2.00952
2.00772
2.00434
1.99821
1.99232
1.98746
1.98217
1.97567
1.96836
1.96082
1.95312
1.94541
1.93772
1.93064
1.92488
1.92045
1.91726
1.91472
1.91205
1.90876
1.90454
1.89922
1.89258
1.8843
1.8744
1.86334
1.85174
1.83999
1.82823
1.81668
1.80534
1.79472
1.78497
1.77557
1.76647
1.75745
1.74808
1.73878
1.72998
1.7216
1.71326
1.7057
1.69893
1.69198
1.68563
1.68015
1.67388
1.66856
1.6645
1.83633
1.83478
1.83197
1.82631
1.82342
1.81983
1.81373
1.80699
1.80019
1.79168
1.78145
1.77252
1.76434
1.75581
1.74645
1.7394
1.73324
1.72655
1.71963
1.71357
1.70657
1.6992
1.6909
1.68302
1.67674
1.671
1.67322
1.68617
1.73269
1.80948
1.93568
2.06259
2.15267
2.24025
2.26691
2.27785
2.275
2.26916
2.26195
2.25338
2.24497
2.23678
2.22859
2.22195
2.21643
2.2107
2.20453
2.19762
2.19054
2.18397
2.17762
2.17096
2.16421
2.1569
2.14916
2.14131
2.13292
2.12436
2.11663
2.10965
2.10357
2.0989
2.09532
2.09259
2.09039
2.08857
2.08664
2.08401
2.08086
2.07758
2.07333
2.06763
2.06494
2.06458
2.06251
2.05899
2.05607
2.05322
2.0503
2.04767
2.04433
2.03995
2.03694
2.03609
2.03353
2.02721
2.01994
2.01489
2.0091
2.00117
1.99242
1.98349
1.97444
1.96522
1.95633
1.94799
1.94011
1.93321
1.9277
1.92333
1.91965
1.91594
1.91166
1.90626
1.89928
1.8908
1.88099
1.87036
1.85975
1.84963
1.84011
1.83109
1.8222
1.81335
1.80446
1.79521
1.7859
1.77703
1.76832
1.7594
1.75074
1.74285
1.73486
1.7266
1.71912
1.71164
1.70364
1.69672
1.69015
1.68288
1.6774
1.67244
1.85442
1.85262
1.84883
1.84375
1.84032
1.83521
1.82803
1.82053
1.81244
1.80377
1.79369
1.78435
1.77631
1.76797
1.75945
1.75341
1.74748
1.74072
1.7332
1.72635
1.71889
1.71143
1.70541
1.70042
1.70321
1.72167
1.77076
1.86129
1.99611
2.10796
2.23124
2.28405
2.30868
2.32503
2.32504
2.31906
2.30904
2.29758
2.28888
2.28086
2.2724
2.26365
2.25574
2.24935
2.24317
2.23684
2.23027
2.22295
2.21502
2.20819
2.20158
2.19463
2.18731
2.17934
2.1706
2.1614
2.15167
2.14186
2.1334
2.12607
2.11951
2.11392
2.10924
2.10501
2.10111
2.09744
2.09359
2.08951
2.08549
2.08091
2.07605
2.07219
2.07035
2.07
2.07085
2.06893
2.06569
2.06264
2.06003
2.05722
2.05371
2.05072
2.04944
2.0474
2.04296
2.03666
2.03082
2.02413
2.01472
2.00412
1.99414
1.98472
1.97532
1.96579
1.95673
1.94851
1.94085
1.93386
1.92805
1.92339
1.91913
1.9146
1.90926
1.90248
1.89373
1.88371
1.87357
1.86383
1.8549
1.84648
1.83813
1.82981
1.82161
1.814
1.80692
1.79946
1.79144
1.78378
1.77632
1.76847
1.76129
1.7547
1.74762
1.74066
1.73402
1.7266
1.71899
1.7119
1.70401
1.69629
1.69031
1.68423
1.87313
1.87022
1.86537
1.86029
1.85614
1.84974
1.84176
1.83363
1.82441
1.81516
1.80587
1.79715
1.78957
1.78233
1.77425
1.76757
1.76088
1.75354
1.74601
1.73969
1.73441
1.72989
1.73471
1.75814
1.81248
1.92453
2.04455
2.17906
2.27814
2.33183
2.37025
2.37126
2.36531
2.36085
2.35262
2.34267
2.33213
2.3212
2.31115
2.30387
2.29727
2.29032
2.28294
2.27506
2.26681
2.25947
2.25315
2.24646
2.23934
2.23232
2.22498
2.21704
2.20856
2.19944
2.18978
2.18026
2.17073
2.16116
2.15226
2.14438
2.13694
2.12991
2.12394
2.11822
2.11256
2.10699
2.10126
2.09551
2.08956
2.08288
2.07905
2.07734
2.07585
2.07461
2.07148
2.068
2.06454
2.06093
2.05689
2.05273
2.04832
2.04579
2.04449
2.04132
2.03533
2.02902
2.02391
2.01742
2.00882
1.99927
1.98953
1.97966
1.96968
1.95977
1.95045
1.94276
1.93638
1.93068
1.92548
1.92053
1.91534
1.90953
1.90282
1.89507
1.88611
1.87666
1.86729
1.8582
1.84979
1.84214
1.83491
1.82822
1.82182
1.81553
1.80919
1.80228
1.79499
1.78822
1.78151
1.77482
1.7695
1.76424
1.7586
1.7533
1.74775
1.74151
1.73525
1.72857
1.72085
1.71386
1.7079
1.70164
1.8919
1.88775
1.88206
1.87667
1.87121
1.86327
1.85463
1.84634
1.83712
1.8281
1.81966
1.81145
1.80326
1.79611
1.78893
1.78197
1.77503
1.76819
1.76233
1.75999
1.76818
1.79557
1.8692
1.97702
2.10933
2.25613
2.32569
2.38534
2.40771
2.41728
2.41589
2.40659
2.39418
2.38239
2.37167
2.36344
2.35636
2.34881
2.34043
2.33098
2.32227
2.31451
2.30661
2.29905
2.29132
2.28369
2.27627
2.26888
2.26161
2.25436
2.24675
2.23853
2.22957
2.21988
2.2094
2.19896
2.189
2.17934
2.17032
2.1623
2.15447
2.1464
2.13864
2.13094
2.12303
2.11535
2.108
2.10028
2.09429
2.09153
2.08845
2.08349
2.0775
2.07071
2.06416
2.05855
2.05392
2.04974
2.04569
2.04104
2.03709
2.03554
2.03327
2.02844
2.02193
2.01639
2.01041
2.00223
1.99282
1.98305
1.97322
1.9635
1.9541
1.94525
1.93706
1.93054
1.92549
1.9212
1.91702
1.91245
1.90737
1.90163
1.89506
1.8878
1.87982
1.87154
1.86334
1.85544
1.84779
1.84059
1.83387
1.82731
1.82084
1.81464
1.80858
1.80198
1.79568
1.79048
1.7851
1.78001
1.77574
1.77123
1.76657
1.76184
1.75688
1.75176
1.74658
1.74106
1.73503
1.72979
1.72499
1.71976
1.91109
1.90581
1.89911
1.89276
1.88602
1.87729
1.86826
1.85982
1.85075
1.8419
1.83404
1.82655
1.81902
1.81161
1.80426
1.79708
1.79188
1.79277
1.80219
1.84047
1.91926
2.0359
2.19485
2.2961
2.39071
2.44683
2.4585
2.46243
2.45775
2.44997
2.4395
2.42832
2.41857
2.40868
2.39903
2.38955
2.38093
2.37316
2.36536
2.3571
2.34813
2.33949
2.33125
2.3229
2.31413
2.30585
2.29805
2.29042
2.28271
2.2747
2.26624
2.25739
2.24812
2.23835
2.22799
2.21768
2.20795
2.19858
2.18974
2.18252
2.17613
2.16901
2.1603
2.15048
2.14037
2.13056
2.12107
2.11172
2.1026
2.09325
2.08439
2.07633
2.06875
2.06165
2.05485
2.04829
2.04215
2.0365
2.03079
2.02482
2.02085
2.01815
2.01402
2.00791
2.00141
1.99542
1.98783
1.97845
1.96888
1.95949
1.95037
1.94184
1.93392
1.92681
1.92078
1.91589
1.91194
1.90892
1.90606
1.90221
1.89729
1.89149
1.88478
1.87767
1.8707
1.86393
1.85712
1.85058
1.8442
1.83786
1.8319
1.82572
1.81918
1.81294
1.80698
1.80032
1.79515
1.79129
1.78692
1.78274
1.77901
1.77542
1.77168
1.76733
1.76337
1.75949
1.75517
1.75089
1.74638
1.74204
1.73807
1.73406
1.93136
1.92505
1.91747
1.90975
1.90155
1.89248
1.88343
1.87519
1.86662
1.85824
1.85083
1.84283
1.83503
1.82845
1.82386
1.82619
1.84062
1.887
1.97157
2.11825
2.24669
2.37556
2.45905
2.48725
2.51042
2.5135
2.5068
2.49586
2.48369
2.47214
2.46111
2.45108
2.44083
2.43206
2.4245
2.41697
2.40847
2.39994
2.39097
2.38151
2.37186
2.36231
2.35353
2.34566
2.33812
2.33066
2.32305
2.31503
2.30692
2.29954
2.2926
2.28447
2.27429
2.26298
2.25147
2.24061
2.23045
2.21987
2.20834
2.19607
2.18281
2.1695
2.15737
2.14615
2.13528
2.12471
2.11471
2.10563
2.09738
2.08889
2.0798
2.07056
2.06129
2.05238
2.04366
2.03483
2.02595
2.01715
2.00826
2.00016
1.99373
1.98754
1.98017
1.97256
1.96627
1.96003
1.95192
1.94334
1.93472
1.92615
1.91802
1.91091
1.90518
1.90079
1.89848
1.89735
1.89594
1.89466
1.89319
1.89015
1.88539
1.87958
1.87333
1.8668
1.86056
1.85479
1.84899
1.8436
1.83815
1.83281
1.82823
1.82372
1.81978
1.8155
1.80999
1.8048
1.80106
1.79676
1.79136
1.78601
1.78173
1.77815
1.77462
1.77045
1.76679
1.76349
1.75973
1.75614
1.75242
1.74922
1.74668
1.74397
1.95287
1.94579
1.93741
1.92873
1.91982
1.91063
1.90182
1.89355
1.88514
1.87665
1.86895
1.86231
1.85841
1.86189
1.88234
1.9342
2.04693
2.18253
2.32571
2.45213
2.50965
2.556
2.56167
2.55761
2.55398
2.54512
2.53329
2.52003
2.50593
2.49498
2.48648
2.47883
2.47045
2.46224
2.45344
2.44377
2.43407
2.425
2.4165
2.40814
2.39948
2.39027
2.3806
2.37107
2.36222
2.35392
2.34576
2.33702
2.32665
2.3141
2.30031
2.28737
2.27629
2.26602
2.25489
2.24269
2.23018
2.21784
2.20568
2.19374
2.18191
2.1699
2.15796
2.14614
2.13444
2.12305
2.11196
2.10125
2.09085
2.08053
2.07009
2.05927
2.04812
2.03709
2.02626
2.0154
2.00455
1.9939
1.98372
1.97471
1.96651
1.95771
1.94838
1.93987
1.9325
1.92463
1.91546
1.9075
1.89996
1.8922
1.88475
1.88008
1.87774
1.87606
1.87539
1.8763
1.87688
1.87683
1.87628
1.87378
1.86934
1.86414
1.85903
1.85377
1.84874
1.84382
1.83869
1.83471
1.83067
1.82656
1.82357
1.82007
1.81572
1.81123
1.80694
1.80321
1.79946
1.79647
1.79468
1.79217
1.78845
1.78537
1.78149
1.7764
1.77184
1.76785
1.76342
1.75937
1.75687
1.7545
1.75169
1.74909
1.97567
1.96867
1.96003
1.95077
1.94144
1.93196
1.92315
1.91477
1.9067
1.90024
1.89693
1.90272
1.92641
1.99596
2.11288
2.25669
2.42522
2.51118
2.58197
2.60727
2.61676
2.61868
2.61146
2.59712
2.58145
2.57013
2.56018
2.54927
2.53853
2.52874
2.51937
2.5098
2.50016
2.49094
2.48195
2.47258
2.46255
2.45245
2.4426
2.43296
2.42341
2.41396
2.40465
2.3947
2.38344
2.37158
2.35948
2.34721
2.33478
2.32161
2.30726
2.29275
2.27892
2.26547
2.25227
2.2392
2.22625
2.21335
2.20039
2.18768
2.17532
2.16293
2.1505
2.13818
2.12612
2.11437
2.10254
2.09072
2.07892
2.06699
2.05512
2.04317
2.0309
2.01847
2.00625
1.99448
1.98332
1.97292
1.96337
1.95453
1.94549
1.93568
1.92604
1.91663
1.90757
1.89852
1.88863
1.88039
1.87321
1.86575
1.85983
1.85706
1.85554
1.85498
1.85499
1.85654
1.85706
1.85658
1.85574
1.85313
1.84885
1.84485
1.84122
1.8366
1.83259
1.82931
1.82503
1.82262
1.82072
1.81722
1.81443
1.81259
1.80966
1.80611
1.80422
1.80187
1.79814
1.79433
1.7905
1.78596
1.7822
1.77989
1.77733
1.775
1.77409
1.7735
1.77022
1.76694
1.76556
1.76341
1.75965
1.75685
1.99563
1.98929
1.98121
1.97194
1.96287
1.9535
1.94631
1.94061
1.93746
1.94378
1.97534
2.05437
2.17935
2.35877
2.48254
2.58985
2.65007
2.66872
2.67629
2.67112
2.65982
2.64683
2.63817
2.62807
2.6155
2.60297
2.59098
2.57912
2.56821
2.55818
2.54819
2.53796
2.5272
2.51618
2.50558
2.49604
2.48649
2.47523
2.46281
2.45041
2.43801
2.42475
2.41008
2.3951
2.38104
2.36763
2.35444
2.34107
2.32737
2.31353
2.29968
2.2858
2.27194
2.25826
2.24493
2.23174
2.21855
2.20524
2.19172
2.17813
2.16463
2.15124
2.13809
2.12531
2.11287
2.10051
2.08801
2.07552
2.06311
2.05045
2.03755
2.02459
2.01173
1.99927
1.98767
1.97708
1.96732
1.95817
1.94934
1.94044
1.93114
1.92148
1.91169
1.90133
1.89101
1.88158
1.87198
1.86366
1.85698
1.8507
1.84641
1.84394
1.84242
1.84153
1.84113
1.84102
1.83942
1.83731
1.83484
1.8313
1.82693
1.8231
1.8203
1.81672
1.81289
1.81105
1.80801
1.806
1.80551
1.80307
1.80075
1.80051
1.79965
1.79633
1.7944
1.79259
1.78877
1.78522
1.78222
1.77875
1.77651
1.77458
1.7715
1.76953
1.7676
1.76444
1.76137
1.75923
1.75848
1.75737
1.75455
1.75316
2.00393
1.99804
1.99121
1.98444
1.9783
1.97184
1.96843
1.97758
2.01608
2.10283
2.26062
2.41351
2.56072
2.66411
2.69669
2.7194
2.72051
2.71139
2.70629
2.69803
2.68619
2.67175
2.65856
2.64676
2.63516
2.62356
2.61136
2.59903
2.58751
2.57704
2.56621
2.55416
2.54171
2.52893
2.51552
2.50087
2.48563
2.47066
2.4562
2.4426
2.43016
2.41841
2.40637
2.39318
2.37891
2.36397
2.34876
2.33354
2.3185
2.30378
2.28929
2.27481
2.26038
2.24627
2.23238
2.2186
2.20493
2.19123
2.17738
2.16344
2.14948
2.13557
2.12184
2.10842
2.09531
2.08234
2.06941
2.05661
2.04407
2.03173
2.0196
2.0078
1.99645
1.98564
1.97552
1.96604
1.95694
1.94806
1.93928
1.9305
1.92153
1.91204
1.90172
1.89058
1.87942
1.86999
1.8618
1.85442
1.84869
1.84392
1.84035
1.83782
1.83599
1.83454
1.83273
1.83014
1.82672
1.82267
1.81809
1.81313
1.80791
1.80316
1.79995
1.79638
1.79238
1.79043
1.78813
1.78602
1.78561
1.78453
1.78275
1.78238
1.78291
1.78079
1.77869
1.77719
1.7741
1.77129
1.76888
1.76706
1.76597
1.76408
1.76088
1.75945
1.75964
1.75799
1.75545
1.75441
1.75417
1.75233
1.74921
1.74616
2.00471
1.99853
1.99254
1.98614
1.98701
1.99987
2.04371
2.15294
2.30306
2.47846
2.62427
2.69199
2.74759
2.75608
2.75564
2.75235
2.74539
2.73306
2.71983
2.70664
2.69231
2.67818
2.66383
2.64846
2.63443
2.62249
2.61213
2.60238
2.5911
2.57732
2.56275
2.54815
2.53351
2.51909
2.50514
2.49198
2.47901
2.46561
2.45133
2.43634
2.42156
2.40773
2.39445
2.38088
2.36647
2.35113
2.3351
2.3188
2.30264
2.2868
2.27123
2.25576
2.24039
2.22529
2.21043
2.19575
2.18133
2.16717
2.15325
2.13955
2.12609
2.11296
2.10022
2.08778
2.07556
2.0635
2.05158
2.03991
2.02859
2.01764
2.00706
1.99686
1.98705
1.97755
1.96827
1.95921
1.95031
1.94148
1.93269
1.92372
1.91421
1.90405
1.89358
1.88283
1.87188
1.86234
1.85523
1.84927
1.84434
1.8404
1.83766
1.83545
1.83324
1.83062
1.82732
1.82323
1.81834
1.81285
1.80696
1.80093
1.79491
1.78931
1.7845
1.77975
1.77529
1.7718
1.7685
1.76558
1.76384
1.76243
1.76079
1.75949
1.75911
1.75862
1.75671
1.75504
1.75394
1.75224
1.75034
1.74904
1.74861
1.74799
1.74625
1.74504
1.74533
1.7459
1.74447
1.74411
1.74347
1.74109
1.73927
1.73736
2.00376
1.99671
1.9983
2.01303
2.06845
2.18072
2.3459
2.53601
2.64876
2.74502
2.77583
2.7838
2.78573
2.77767
2.76467
2.75272
2.74181
2.7284
2.71282
2.69543
2.67995
2.66759
2.65648
2.64546
2.63267
2.61921
2.60644
2.59384
2.58065
2.56602
2.55081
2.53565
2.52025
2.50459
2.48904
2.47446
2.46101
2.44789
2.43411
2.41902
2.40253
2.38518
2.36787
2.35117
2.33489
2.31874
2.30256
2.28636
2.27031
2.25464
2.23945
2.22469
2.21028
2.19624
2.18241
2.16868
2.15519
2.14208
2.12944
2.11728
2.10556
2.09427
2.08327
2.07228
2.06126
2.05025
2.03935
2.02875
2.01856
2.00879
1.99941
1.9903
1.98143
1.97284
1.96446
1.95605
1.94702
1.93719
1.92748
1.918
1.90815
1.89798
1.88803
1.87844
1.86878
1.85942
1.85184
1.84647
1.84252
1.8396
1.83725
1.83505
1.8323
1.82863
1.824
1.81853
1.81243
1.80607
1.79969
1.79338
1.78714
1.78116
1.77548
1.77004
1.76513
1.76058
1.75624
1.75231
1.74866
1.74515
1.74177
1.73869
1.73632
1.73415
1.73156
1.72932
1.72745
1.726
1.72466
1.72396
1.72408
1.72457
1.72462
1.72394
1.72421
1.72538
1.72518
1.7249
1.72385
1.72235
1.72113
1.72085
2.00774
2.02342
2.07992
2.19881
2.38934
2.54962
2.69506
2.77025
2.79257
2.80713
2.79913
2.78743
2.77928
2.7694
2.75454
2.737
2.72002
2.70515
2.69058
2.67691
2.66343
2.65193
2.64147
2.63021
2.61706
2.60165
2.58513
2.56816
2.55121
2.53498
2.52048
2.5069
2.49282
2.47776
2.46139
2.44368
2.42527
2.40715
2.38992
2.37345
2.35724
2.34094
2.3246
2.30845
2.29257
2.27707
2.26203
2.2475
2.23347
2.21987
2.20667
2.19382
2.18129
)
;

boundaryField
{
    inlet
    {
        type            calculated;
        value           nonuniform 0();
    }
    outlet
    {
        type            calculated;
        value           nonuniform 0();
    }
    bottom
    {
        type            symmetryPlane;
    }
    top
    {
        type            symmetryPlane;
    }
    obstacle
    {
        type            calculated;
        value           nonuniform 0();
    }
    front
    {
        type            empty;
    }
    back
    {
        type            empty;
    }
    procBoundary38to30
    {
        type            processor;
        value           nonuniform List<scalar> 
133
(
1.64397
1.6363
1.62798
1.61889
1.61063
1.60358
1.59673
1.59027
1.58347
1.57772
1.57186
1.56509
1.55719
1.55038
1.54397
1.53679
1.52909
1.52117
1.51484
1.50886
1.50262
1.49627
1.49101
1.48695
1.48553
1.49107
1.51342
1.56185
1.65274
1.74742
1.85382
1.92006
1.94886
1.96644
1.97444
1.97889
1.97756
1.97524
1.97342
1.97375
1.97432
1.97347
1.97223
1.97117
1.96984
1.96795
1.96518
1.96179
1.95895
1.95627
1.95273
1.94875
1.94613
1.94423
1.94254
1.94053
1.93846
1.93622
1.93319
1.9297
1.9261
1.92181
1.91686
1.91166
1.90645
1.90137
1.89662
1.89197
1.88687
1.88223
1.87853
1.87436
1.87002
1.86829
1.8668
1.86241
1.8567
1.8523
1.84755
1.84143
1.8348
1.8277
1.81997
1.81419
1.81079
1.80793
1.80535
1.80369
1.80311
1.80334
1.8045
1.80543
1.80565
1.80583
1.80518
1.80347
1.80159
1.79958
1.79706
1.79405
1.79092
1.78765
1.78382
1.77938
1.7746
1.76979
1.7644
1.7578
1.75046
1.74236
1.73302
1.72317
1.71422
1.70597
1.69772
1.68988
1.73551
1.72637
1.72226
1.71589
1.70681
1.70443
1.70529
1.70135
1.69867
1.69813
1.69537
1.69076
1.68657
1.68191
1.67474
1.66514
1.66514
)
;
    }
    procBoundary38to31
    {
        type            processor;
        value           uniform 1.67249;
    }
    procBoundary38to37
    {
        type            processor;
        value           nonuniform List<scalar> 
16
(
1.76094
1.77832
1.79543
1.81228
1.82902
1.84571
1.86235
1.87877
1.89646
1.91628
1.93734
1.95951
1.98209
2.00152
2.00975
2.01105
)
;
    }
    procBoundary38to39
    {
        type            processor;
        value           nonuniform List<scalar> 
17
(
1.66469
1.65958
1.65731
1.65706
1.66017
1.66725
1.67843
1.69586
1.71468
1.7298
1.74068
1.7463
1.75319
1.75375
1.7436
1.73498
1.72089
)
;
    }
    procBoundary38to45
    {
        type            processor;
        value           nonuniform List<scalar> 2(2.009 2.00611);
    }
    procBoundary38to46
    {
        type            processor;
        value           nonuniform List<scalar> 
133
(
2.16916
2.15737
2.14584
2.1346
2.12364
2.11299
2.10264
2.09251
2.08261
2.07278
2.06284
2.05281
2.04275
2.03276
2.02295
2.01344
2.0043
1.99558
1.98723
1.979
1.97079
1.96269
1.9543
1.94499
1.93542
1.9257
1.91535
1.90483
1.89464
1.88481
1.8753
1.86636
1.85876
1.85289
1.84843
1.84472
1.8415
1.83848
1.83526
1.83143
1.82674
1.82114
1.81481
1.80821
1.80164
1.79517
1.78877
1.78253
1.77649
1.77059
1.76499
1.75978
1.75478
1.74994
1.74543
1.74105
1.73664
1.73227
1.72833
1.72467
1.72089
1.71686
1.71298
1.70927
1.70566
1.70245
1.70047
1.69969
1.69923
1.69889
1.69843
1.69828
1.69895
1.69869
1.69793
1.69749
1.6955
1.69261
1.69153
2.07772
2.21331
2.38982
2.57998
2.7183
2.76509
2.80341
2.80514
2.79877
2.79223
2.77978
2.76324
2.7454
2.72943
2.71297
2.69714
2.68353
2.67222
2.66047
2.64796
2.63406
2.61861
2.60204
2.58528
2.56898
2.55326
2.53784
2.52242
2.50672
2.49053
2.47377
2.45656
2.43913
2.42178
2.40457
2.38737
2.37024
2.35351
2.33742
2.32194
2.30697
2.29252
2.27867
2.2655
2.25294
2.24087
2.2292
2.21789
2.20691
2.19618
2.18564
2.17525
2.16916
2.16496
)
;
    }
}


// ************************************************************************* //
