/*--------------------------------*- C++ -*----------------------------------*\
  =========                 |
  \\      /  F ield         | OpenFOAM: The Open Source CFD Toolbox
   \\    /   O peration     | Website:  https://openfoam.org
    \\  /    A nd           | Version:  7
     \\/     M anipulation  |
\*---------------------------------------------------------------------------*/
FoamFile
{
    version     2.0;
    format      ascii;
    class       volVectorField;
    location    "15";
    object      U;
}
// * * * * * * * * * * * * * * * * * * * * * * * * * * * * * * * * * * * * * //

dimensions      [0 1 -1 0 0 0 0];

internalField   nonuniform List<vector> 
607
(
(0.81742 -0.00208967 4.17277e-24)
(0.831883 -0.00201342 -2.67288e-23)
(0.846218 -0.00195645 3.92536e-25)
(0.860569 -0.00192291 1.20999e-23)
(0.875116 -0.0019096 -7.25104e-24)
(0.889982 -0.00189919 -2.61748e-24)
(0.905101 -0.00186259 1.75997e-23)
(0.920134 -0.00177105 6.0854e-24)
(0.934511 -0.00161057 -5.58384e-24)
(0.94758 -0.00138932 7.54531e-24)
(0.958812 -0.00113389 -6.24623e-24)
(0.967941 -0.000877713 -6.24138e-24)
(0.974993 -0.000649008 7.04463e-26)
(0.980226 -0.000463817 -1.92293e-24)
(0.984009 -0.000325516 -2.85319e-24)
(0.986723 -0.000228614 -2.21334e-24)
(0.988692 -0.000163705 2.71559e-24)
(0.990165 -0.000121144 -3.73823e-24)
(0.991311 -9.3138e-05 3.39565e-24)
(0.992237 -7.42792e-05 1.25075e-24)
(0.993009 -6.10181e-05 4.18508e-24)
(0.993669 -5.12274e-05 -3.49371e-24)
(0.994243 -4.36689e-05 8.76214e-26)
(0.826885 -0.00612638 -5.52791e-23)
(0.840411 -0.00590732 -1.0137e-22)
(0.853844 -0.00574289 2.86481e-23)
(0.867306 -0.0056455 5.08188e-23)
(0.880955 -0.00560687 -8.14147e-23)
(0.894905 -0.00557755 5.71281e-23)
(0.909104 -0.00547304 3.04132e-24)
(0.923248 -0.00520877 2.39954e-23)
(0.936813 -0.00474259 -4.14396e-23)
(0.949191 -0.0040971 -3.2967e-24)
(0.959877 -0.00334934 2.14168e-23)
(0.968605 -0.00259728 1.9077e-23)
(0.975385 -0.00192419 2.29784e-23)
(0.980445 -0.00137791 -3.28775e-23)
(0.984126 -0.000969055 -3.75806e-24)
(0.986784 -0.000681964 9.39032e-24)
(0.988723 -0.000489217 -4.20112e-24)
(0.99018 -0.00036256 2.07923e-23)
(0.991319 -0.000279036 -5.48794e-24)
(0.992242 -0.000222684 -3.12888e-26)
(0.993012 -0.000182998 2.98664e-24)
(0.993671 -0.000153667 -5.15018e-24)
(0.994245 -0.000131007 4.02486e-24)
(0.844156 -0.00977068 -1.91194e-22)
(0.856002 -0.0094343 9.30156e-23)
(0.867813 -0.0091792 -6.65534e-23)
(0.879672 -0.00902579 9.28529e-23)
(0.891699 -0.00896414 -1.25522e-22)
(0.903989 -0.00891976 -5.46846e-24)
(0.916513 -0.00876065 3.75778e-23)
(0.929031 -0.00835146 1.27057e-23)
(0.941106 -0.00762157 6.59338e-25)
(0.952208 -0.00660274 8.1735e-23)
(0.96188 -0.00541488 -1.72907e-23)
(0.96986 -0.00421365 -3.22044e-24)
(0.976128 -0.00313336 -7.894e-23)
(0.980862 -0.00225268 5.62258e-23)
(0.98435 -0.00159069 -2.44981e-23)
(0.986899 -0.00112387 4.86097e-23)
(0.988781 -0.000809096 -3.53906e-23)
(0.99021 -0.000601298 -1.4189e-24)
(0.991335 -0.000463713 4.93299e-24)
(0.99225 -0.000370542 2.56973e-23)
(0.993017 -0.000304731 -8.63224e-24)
(0.993674 -0.000255989 2.8775e-24)
(0.994247 -0.000218287 5.94117e-24)
(0.86642 -0.012853 -2.02607e-22)
(0.876164 -0.0124331 2.79094e-23)
(0.885934 -0.0121098 -3.15614e-23)
(0.895769 -0.0119103 -7.52363e-24)
(0.905738 -0.0118271 2.14296e-22)
(0.915914 -0.0117708 3.75495e-24)
(0.92629 -0.0115736 -1.89834e-23)
(0.936708 -0.0110573 2.12885e-23)
(0.946839 -0.0101232 2.3202e-23)
(0.956264 -0.00880482 -1.06362e-22)
(0.96459 -0.00725374 7.03711e-23)
(0.971569 -0.00567299 -8.9554e-23)
(0.977148 -0.00424147 5.58563e-23)
(0.981439 -0.00306687 -7.92795e-25)
(0.984661 -0.00217841 5.39256e-23)
(0.987061 -0.00154796 -4.52376e-23)
(0.988864 -0.00112021 -2.38561e-23)
(0.990253 -0.000835823 1.47795e-23)
(0.991358 -0.000646455 -1.18036e-23)
(0.992263 -0.000517524 -7.12595e-24)
(0.993025 -0.000426064 4.29632e-24)
(0.99368 -0.000358122 3.45584e-24)
(0.994251 -0.000305469 -1.08584e-23)
(0.89051 -0.0153069 1.49813e-22)
(0.898074 -0.0148367 3.14833e-23)
(0.905707 -0.0144674 1.11018e-22)
(0.913411 -0.0142306 -1.26339e-22)
(0.921205 -0.0141249 6.61331e-23)
(0.929133 -0.0140562 -1.82047e-22)
(0.937207 -0.0138351 1.56689e-22)
(0.945348 -0.0132507 -6.38774e-23)
(0.95335 -0.0121774 9.88135e-23)
(0.960911 -0.0106431 -5.65453e-23)
(0.967724 -0.00881813 -2.70255e-23)
(0.973565 -0.00694032 4.72767e-23)
(0.978349 -0.00522489 4.38108e-23)
(0.982125 -0.00380569 -3.8593e-24)
(0.985036 -0.00272356 -2.13922e-23)
(0.987259 -0.0019495 -2.9436e-23)
(0.988967 -0.00142011 1.21289e-23)
(0.990306 -0.00106492 2.87969e-23)
(0.991386 -0.000826678 1.50158e-23)
(0.99228 -0.000663355 2.24273e-24)
(0.993035 -0.000546864 -1.03214e-23)
(0.993686 -0.000459997 1.58899e-24)
(0.994256 -0.000392519 2.55299e-23)
(0.913669 -0.0171594 -1.66584e-23)
(0.919244 -0.0166636 4.69448e-22)
(0.924907 -0.0162656 -1.5535e-22)
(0.930632 -0.0159973 -2.86262e-23)
(0.936398 -0.0158651 2.31528e-22)
(0.942215 -0.0157794 -3.3411e-22)
(0.948108 -0.0155424 1.06706e-22)
(0.954064 -0.0149223 7.61002e-23)
(0.95999 -0.0137697 -6.26612e-23)
(0.965707 -0.0121005 2.0115e-23)
(0.970997 -0.0100912 2.74492e-24)
(0.975675 -0.00800123 -7.8266e-23)
(0.979636 -0.00607258 9.29732e-25)
(0.98287 -0.0044615 2.49821e-23)
(0.985448 -0.00322131 7.43777e-23)
(0.98748 -0.00232565 -2.33323e-23)
(0.989083 -0.00170733 -2.2978e-23)
(0.990368 -0.00128774 -1.80956e-23)
(0.991421 -0.00100395 -3.84362e-24)
(0.9923 -0.000807818 8.15583e-24)
(0.993048 -0.00066702 -1.73446e-24)
(0.993695 -0.000561557 -9.54103e-24)
(0.994262 -0.000479403 -1.63274e-23)
(0.934018 -0.0184987 1.61483e-22)
(0.937953 -0.0179907 -2.13218e-22)
(0.941968 -0.0175743 -9.34217e-23)
(0.946024 -0.017277 1.57406e-22)
(0.95007 -0.0171121 -4.46147e-24)
(0.954089 -0.0170011 2.0358e-22)
(0.958105 -0.0167497 -1.59482e-22)
(0.962154 -0.0161158 -2.075e-22)
(0.966236 -0.0149317 -5.00259e-23)
(0.970281 -0.0131969 -6.37464e-23)
(0.974166 -0.0110835 1.41065e-22)
(0.977749 -0.00885981 -1.09278e-22)
(0.98092 -0.00678518 3.21719e-23)
(0.983626 -0.00503347 -7.38867e-24)
(0.985875 -0.0036705 -3.78314e-23)
(0.987713 -0.00267541 -7.26765e-24)
(0.989209 -0.00198123 7.26839e-23)
(0.990437 -0.00150382 -3.06578e-23)
(0.991459 -0.00117801 -3.94777e-23)
(0.992323 -0.000950756 6.08103e-24)
(0.993062 -0.000786443 2.82706e-23)
(0.993705 -0.000662749 -1.89465e-23)
(0.994269 -0.00056609 4.51218e-24)
(0.950664 -0.0194378 -5.43298e-22)
(0.95335 -0.0189211 -3.81146e-22)
(0.956088 -0.0184894 1.50922e-22)
(0.958838 -0.0181628 5.01026e-22)
(0.961535 -0.0179591 -5.49632e-23)
(0.964139 -0.0178134 -1.08963e-22)
(0.966665 -0.0175435 1.92252e-22)
(0.969177 -0.0169074 -1.34026e-22)
(0.971741 -0.0157247 1.19792e-22)
(0.974382 -0.0139773 2.08299e-22)
(0.977057 -0.0118248 2.92398e-24)
(0.979676 -0.00953408 -2.38745e-22)
(0.982136 -0.00737237 5.56376e-23)
(0.984357 -0.0055262 1.06888e-23)
(0.986296 -0.00407297 1.58829e-22)
(0.987949 -0.00299931 1.89582e-23)
(0.98934 -0.00224124 -1.34768e-22)
(0.99051 -0.00171301 1.09763e-22)
(0.991502 -0.00134873 -7.87203e-24)
(0.992348 -0.00109207 1.82941e-23)
(0.993079 -0.000905066 -2.30026e-23)
(0.993716 -0.00076353 -3.53095e-24)
(0.994277 -0.000652553 -3.90985e-24)
(0.963517 -0.0200867 1.78206e-22)
(0.965309 -0.0195575 -7.68292e-22)
(0.967116 -0.019109 6.24508e-22)
(0.968904 -0.0187516 -6.07898e-22)
(0.970606 -0.0185039 2.1357e-22)
(0.972167 -0.0183152 2.61695e-23)
(0.973588 -0.0180202 1.33172e-22)
(0.974944 -0.0173851 -2.19444e-22)
(0.976342 -0.0162231 -8.48843e-23)
(0.977874 -0.0144993 -1.99289e-22)
(0.979569 -0.0123561 1.53322e-23)
(0.981386 -0.0100504 1.13795e-22)
(0.98324 -0.0078497 3.90162e-23)
(0.985036 -0.005948 -6.13309e-23)
(0.986697 -0.00443274 -3.35064e-23)
(0.98818 -0.00329904 -4.11663e-23)
(0.989472 -0.00248697 -5.17118e-23)
(0.990587 -0.00191546 -6.486e-23)
(0.991547 -0.00151608 2.18899e-23)
(0.992377 -0.00123171 -1.29928e-24)
(0.993098 -0.00102284 -8.1807e-24)
(0.993729 -0.000863864 -3.36657e-24)
(0.994287 -0.000738767 1.34411e-23)
(0.972989 -0.0205367 7.41609e-23)
(0.974171 -0.0199881 -2.63123e-22)
(0.975331 -0.0195186 6.18062e-22)
(0.976444 -0.0191282 -2.32562e-22)
(0.977448 -0.0188336 -3.01739e-22)
(0.978281 -0.0185959 -2.80215e-22)
(0.978931 -0.0182692 2.49171e-22)
(0.979468 -0.0176333 6.77971e-23)
(0.980023 -0.0165008 4.91414e-23)
(0.98073 -0.0148225 -8.9163e-23)
(0.981671 -0.0127212 1.03408e-22)
(0.982853 -0.0104383 -1.3352e-22)
(0.984212 -0.00823531 1.7194e-22)
(0.98565 -0.00630906 -1.54237e-22)
(0.987071 -0.00475501 6.19277e-23)
(0.988402 -0.00357701 7.87442e-23)
(0.989603 -0.00272044 1.85034e-23)
(0.990665 -0.00211156 -7.50442e-23)
(0.991595 -0.00168016 1.19328e-22)
(0.992408 -0.00136967 4.86887e-23)
(0.993119 -0.00113973 -1.79863e-23)
(0.993744 -0.00096372 -1.53595e-23)
(0.994297 -0.000824708 -5.28618e-23)
(0.979715 -0.0208566 -4.41436e-22)
(0.980498 -0.0202808 -6.59788e-23)
(0.981224 -0.0197854 -1.14366e-23)
(0.981879 -0.0193601 -2.04483e-23)
(0.982412 -0.0190176 1.31604e-22)
(0.982759 -0.0187279 3.40477e-22)
(0.982898 -0.0183644 -1.92647e-22)
(0.982889 -0.0177238 1.32144e-22)
(0.982867 -0.0166226 -1.83445e-23)
(0.982991 -0.0150007 8.58738e-23)
(0.983381 -0.0129611 2.00848e-22)
(0.984081 -0.0107264 -1.92041e-22)
(0.98505 -0.00854738 -6.40554e-24)
(0.986196 -0.00661995 2.11121e-22)
(0.987414 -0.0050454 3.42485e-23)
(0.988613 -0.00383596 -2.09529e-22)
(0.989732 -0.00294384 2.43656e-23)
(0.990744 -0.00230176 -3.79862e-23)
(0.991645 -0.00184107 3.68413e-24)
(0.99244 -0.00150594 -9.68859e-23)
(0.993141 -0.00125572 -3.50823e-23)
(0.99376 -0.00106307 1.94302e-23)
(0.994309 -0.000910355 1.80777e-23)
(0.98436 -0.0210941 1.02747e-21)
(0.984885 -0.0204849 -7.32458e-22)
(0.985327 -0.0199588 6.49363e-22)
(0.985681 -0.0194972 -9.11756e-22)
(0.985905 -0.0191072 5.52474e-22)
(0.98594 -0.0187652 5.61504e-22)
(0.985757 -0.0183618 4.22303e-24)
(0.985404 -0.0177123 -4.69454e-22)
(0.98501 -0.0166406 1.94904e-22)
(0.984743 -0.0150786 -1.26655e-22)
(0.984746 -0.0131109 -3.93375e-23)
(0.985092 -0.0109398 1.42246e-22)
(0.985763 -0.00880244 -1.03124e-22)
(0.986678 -0.00689056 4.36289e-23)
(0.987728 -0.0053093 1.01834e-22)
(0.988813 -0.00407858 1.34587e-23)
(0.989859 -0.0031578 -1.15898e-22)
(0.990825 -0.00248655 2.04287e-22)
(0.991698 -0.00199897 -2.52692e-23)
(0.992475 -0.00164056 1.35624e-23)
(0.993165 -0.00137078 -1.88865e-23)
(0.993777 -0.00116189 2.06675e-23)
(0.994321 -0.000995688 4.72179e-23)
(0.991752 -0.00215401 -9.87684e-23)
(0.992512 -0.00177353 3.30077e-23)
(0.993191 -0.00148489 3.74877e-23)
(0.993795 -0.00126016 -4.75167e-23)
(0.994335 -0.00108069 -3.36745e-23)
(0.992591 0.00203469 -2.91555e-23)
(0.993247 0.00171027 4.51394e-23)
(0.993837 0.00145498 -1.40314e-23)
(0.994366 0.00124963 -1.8672e-23)
(0.989616 0.0214372 6.51604e-22)
(0.989868 0.020749 -4.06827e-22)
(0.990011 0.0201514 -1.83716e-22)
(0.990044 0.0196152 4.97954e-22)
(0.989946 0.0191352 -3.29851e-22)
(0.98967 0.0186933 8.36441e-22)
(0.989185 0.0182088 -8.28225e-23)
(0.988517 0.0175326 -6.63532e-23)
(0.987771 0.0165091 -5.75967e-22)
(0.987107 0.0150624 3.50777e-22)
(0.986684 0.0132454 -3.56178e-22)
(0.986605 0.0112209 1.06015e-22)
(0.986889 0.00919453 7.23323e-24)
(0.98748 0.0073437 8.34666e-23)
(0.98828 0.00577607 -2.24774e-23)
(0.989184 0.00452425 5.62647e-23)
(0.990105 0.00356174 1.77933e-23)
(0.990989 0.00284171 -1.11348e-23)
(0.991808 0.00230634 -9.07967e-24)
(0.992551 0.00190492 1.05275e-22)
(0.993218 0.00159808 -8.48933e-24)
(0.993815 0.00135788 2.84694e-23)
(0.99435 0.00116535 -2.13165e-23)
(0.987506 0.0212804 -3.1881e-23)
(0.987865 0.0206333 1.28457e-23)
(0.988125 0.0200727 4.84097e-22)
(0.988284 0.0195742 2.79312e-22)
(0.98831 0.0191383 -5.6741e-22)
(0.988151 0.0187452 4.41147e-22)
(0.987776 0.018301 2.07554e-22)
(0.987219 0.0176393 -8.92545e-22)
(0.986599 0.0165936 3.57457e-22)
(0.986083 0.0150908 -2.44467e-22)
(0.985827 0.0131987 -2.36702e-24)
(0.985922 0.0110993 2.26474e-23)
(0.98637 0.00901449 1.49991e-22)
(0.987103 0.00712951 -8.10623e-23)
(0.988016 0.00555156 1.82493e-23)
(0.989003 0.00430733 8.62562e-24)
(0.989983 0.00336346 8.76553e-23)
(0.990907 0.00266643 -5.86358e-23)
(0.991752 0.00215404 -7.75319e-23)
(0.992512 0.00177356 -3.2436e-23)
(0.993191 0.00148492 7.81924e-24)
(0.993795 0.00126018 -3.30341e-23)
(0.994335 0.00108071 -2.14002e-23)
(0.98436 0.0210934 -1.06428e-21)
(0.984885 0.0204843 1.00011e-21)
(0.985327 0.0199583 -1.044e-21)
(0.985681 0.0194969 1.21748e-21)
(0.985905 0.019107 -4.49344e-22)
(0.98594 0.0187651 -2.85588e-22)
(0.985757 0.0183617 7.64984e-23)
(0.985404 0.0177123 5.19942e-22)
(0.98501 0.0166406 -3.08322e-22)
(0.984743 0.0150787 7.53508e-23)
(0.984747 0.0131109 1.01267e-22)
(0.985092 0.0109398 -2.51015e-22)
(0.985763 0.00880251 1.14658e-22)
(0.986678 0.00689063 1.20244e-22)
(0.987728 0.00530936 -9.77566e-23)
(0.988813 0.00407863 5.53249e-23)
(0.989859 0.00315785 3.81855e-23)
(0.990825 0.00248659 1.56103e-23)
(0.991698 0.00199901 1.46243e-22)
(0.992475 0.00164058 5.63702e-23)
(0.993165 0.0013708 -6.65913e-23)
(0.993777 0.00116191 -1.06307e-23)
(0.994321 0.000995706 2.82776e-23)
(0.979715 0.0208558 5.94225e-22)
(0.980498 0.0202803 5.32712e-23)
(0.981224 0.019785 -3.83576e-23)
(0.981879 0.0193598 -4.1599e-22)
(0.982412 0.0190173 1.24239e-22)
(0.982759 0.0187278 -1.5989e-22)
(0.982898 0.0183643 3.50597e-22)
(0.982889 0.0177238 -4.55109e-23)
(0.982868 0.0166227 1.50761e-22)
(0.982991 0.0150008 8.05352e-23)
(0.983382 0.0129611 -1.12497e-22)
(0.984081 0.0107264 2.6046e-22)
(0.98505 0.00854746 -5.32901e-23)
(0.986196 0.00662003 -1.60175e-22)
(0.987415 0.00504547 -2.5562e-23)
(0.988613 0.00383602 1.06263e-22)
(0.989732 0.00294388 -5.50985e-23)
(0.990745 0.0023018 -3.49593e-23)
(0.991645 0.00184111 -9.40135e-23)
(0.99244 0.00150597 -6.77152e-23)
(0.993141 0.00125574 2.93696e-23)
(0.99376 0.00106309 3.54705e-23)
(0.994309 0.000910374 -3.18629e-23)
(0.972988 0.020536 -7.82147e-24)
(0.974171 0.0199874 1.46837e-22)
(0.975331 0.0195182 -3.54187e-22)
(0.976444 0.0191279 3.95622e-22)
(0.977448 0.0188334 -2.70912e-22)
(0.978281 0.0185958 -4.69155e-23)
(0.978931 0.0182691 -1.37978e-22)
(0.979468 0.0176334 2.43341e-22)
(0.980023 0.0165009 -1.56941e-22)
(0.98073 0.0148226 1.62654e-22)
(0.981671 0.0127213 -6.29535e-23)
(0.982853 0.0104384 1.24126e-22)
(0.984212 0.0082354 -8.81722e-23)
(0.98565 0.00630914 5.76745e-23)
(0.987071 0.00475508 -2.74667e-23)
(0.988402 0.00357707 8.99565e-24)
(0.989603 0.00272049 -2.69014e-23)
(0.990665 0.0021116 9.32935e-23)
(0.991595 0.00168019 -4.29824e-23)
(0.992408 0.0013697 2.97555e-23)
(0.993119 0.00113976 5.2644e-23)
(0.993744 0.000963741 5.36609e-24)
(0.994297 0.000824727 -1.45055e-23)
(0.963517 0.0200859 2.2208e-24)
(0.965308 0.0195569 7.09596e-22)
(0.967116 0.0191086 -8.34643e-22)
(0.968904 0.0187512 5.02858e-22)
(0.970607 0.0185037 -1.90694e-22)
(0.972167 0.018315 9.31502e-23)
(0.973588 0.0180201 -1.87483e-22)
(0.974944 0.0173851 -9.97957e-23)
(0.976342 0.0162232 -1.57104e-22)
(0.977874 0.0144994 1.9915e-22)
(0.979569 0.0123562 -3.28633e-22)
(0.981386 0.0100505 2.1534e-22)
(0.98324 0.0078498 -3.78221e-23)
(0.985036 0.00594808 -1.8619e-23)
(0.986697 0.00443281 -4.43893e-23)
(0.98818 0.0032991 -9.04631e-23)
(0.989472 0.00248703 5.13154e-23)
(0.990587 0.0019155 -1.02919e-23)
(0.991547 0.00151612 -1.18013e-22)
(0.992377 0.00123174 -5.65727e-25)
(0.993098 0.00102287 -2.1674e-23)
(0.993729 0.000863886 -1.34592e-23)
(0.994287 0.000738786 2.20205e-23)
(0.950664 0.0194369 4.76541e-22)
(0.953349 0.0189204 4.64635e-22)
(0.956088 0.0184889 -2.1767e-22)
(0.958838 0.0181625 -4.03094e-22)
(0.961535 0.0179588 1.52932e-22)
(0.964139 0.0178133 9.11853e-24)
(0.966665 0.0175434 6.94308e-23)
(0.969177 0.0169074 2.55581e-22)
(0.971742 0.0157248 -3.47157e-23)
(0.974382 0.0139774 -1.31356e-22)
(0.977057 0.0118249 2.59715e-22)
(0.979676 0.00953418 -4.34519e-24)
(0.982136 0.00737247 -1.72548e-22)
(0.984357 0.00552629 9.90508e-23)
(0.986296 0.00407304 3.75213e-24)
(0.987949 0.00299937 5.17017e-23)
(0.98934 0.0022413 5.92296e-23)
(0.99051 0.00171305 -2.95793e-23)
(0.991502 0.00134876 4.1749e-23)
(0.992348 0.0010921 -1.96319e-23)
(0.993079 0.000905092 6.25086e-24)
(0.993716 0.000763552 -2.5229e-23)
(0.994277 0.000652572 3.60363e-25)
(0.934017 0.0184977 -2.52463e-22)
(0.937952 0.01799 1.53258e-22)
(0.941968 0.0175737 3.62518e-22)
(0.946024 0.0172765 1.69994e-23)
(0.95007 0.0171118 -5.54045e-23)
(0.954089 0.0170009 -1.67483e-22)
(0.958105 0.0167496 -1.53662e-23)
(0.962155 0.0161158 1.67978e-22)
(0.966236 0.0149318 -1.88062e-24)
(0.970282 0.013197 -3.62212e-23)
(0.974166 0.0110836 -1.28304e-22)
(0.977749 0.00885992 -5.40689e-23)
(0.98092 0.00678528 7.36436e-23)
(0.983626 0.00503356 -4.14109e-23)
(0.985875 0.00367057 -7.33287e-23)
(0.987713 0.00267547 2.24417e-23)
(0.989209 0.00198128 -1.23331e-23)
(0.990437 0.00150386 -3.76631e-23)
(0.991459 0.00117805 5.29516e-23)
(0.992323 0.000950786 -3.39455e-23)
(0.993062 0.000786469 -1.40097e-23)
(0.993705 0.000662771 1.84825e-24)
(0.994269 0.000566109 9.17444e-24)
(0.913667 0.0171584 7.56885e-23)
(0.919243 0.0166627 -5.53566e-22)
(0.924907 0.016265 1.55085e-23)
(0.930632 0.0159969 -6.87677e-23)
(0.936398 0.0158647 -2.63064e-22)
(0.942215 0.0157792 2.65695e-22)
(0.948108 0.0155424 2.43023e-23)
(0.954064 0.0149223 -3.29161e-23)
(0.95999 0.0137698 1.88407e-23)
(0.965707 0.0121006 -1.03087e-23)
(0.970997 0.0100914 -1.19524e-22)
(0.975675 0.00800134 1.0304e-22)
(0.979636 0.00607269 -8.34542e-24)
(0.98287 0.00446159 1.73504e-24)
(0.985448 0.00322139 -4.11629e-23)
(0.98748 0.00232571 2.30842e-23)
(0.989083 0.00170738 1.5174e-23)
(0.990368 0.00128778 9.05515e-24)
(0.991421 0.00100399 -2.77338e-23)
(0.9923 0.000807848 -1.53022e-23)
(0.993048 0.000667046 1.31204e-23)
(0.993695 0.000561579 -9.17958e-24)
(0.994262 0.000479422 1.48859e-24)
(0.890509 0.0153058 -1.75797e-22)
(0.898073 0.0148357 -6.64606e-23)
(0.905706 0.0144667 -1.47677e-22)
(0.91341 0.01423 5.85999e-23)
(0.921205 0.0141245 -5.7628e-23)
(0.929133 0.014056 2.75735e-22)
(0.937207 0.013835 -2.86387e-22)
(0.945349 0.0132507 1.15663e-22)
(0.95335 0.0121775 -1.06962e-22)
(0.960911 0.0106432 1.11076e-22)
(0.967724 0.00881825 1.03728e-22)
(0.973565 0.00694044 6.71805e-23)
(0.978349 0.005225 -5.84112e-23)
(0.982125 0.00380578 -3.17757e-23)
(0.985036 0.00272363 -5.06847e-23)
(0.987259 0.00194956 5.08275e-23)
(0.988967 0.00142016 -2.80615e-23)
(0.990306 0.00106496 3.22477e-24)
(0.991386 0.000826715 2.10195e-23)
(0.99228 0.000663386 1.70762e-23)
(0.993035 0.00054689 -1.1406e-24)
(0.993686 0.00046002 2.4879e-23)
(0.994256 0.000392538 8.51804e-24)
(0.866418 0.0128517 2.57217e-22)
(0.876163 0.0124321 6.8408e-23)
(0.885933 0.012109 2.71979e-23)
(0.895768 0.0119097 3.17892e-23)
(0.905738 0.0118267 -5.25566e-23)
(0.915914 0.0117705 -3.53883e-23)
(0.92629 0.0115735 4.94105e-23)
(0.936708 0.0110573 3.09547e-23)
(0.946839 0.0101233 -6.69464e-23)
(0.956264 0.00880494 4.63e-23)
(0.96459 0.00725387 -7.11412e-23)
(0.971569 0.00567311 2.46796e-23)
(0.977148 0.00424159 -3.46787e-23)
(0.981439 0.00306697 1.49402e-23)
(0.984661 0.00217848 -6.29651e-24)
(0.987061 0.00154802 -3.92116e-24)
(0.988864 0.00112026 6.58331e-23)
(0.990253 0.000835867 -2.56013e-23)
(0.991358 0.000646491 -1.59216e-23)
(0.992263 0.000517555 -5.8495e-24)
(0.993025 0.00042609 -2.57957e-24)
(0.99368 0.000358144 1.47093e-23)
(0.994251 0.000305489 -2.00188e-23)
(0.844154 0.00976934 4.02944e-23)
(0.856001 0.00943317 -1.18634e-22)
(0.867812 0.0091783 6.67348e-23)
(0.879672 0.00902511 -1.4178e-22)
(0.891699 0.00896368 2.19386e-23)
(0.903989 0.00891948 8.76046e-24)
(0.916513 0.00876054 2.80798e-24)
(0.929031 0.00835146 8.1803e-24)
(0.941106 0.00762165 2.20264e-23)
(0.952208 0.00660286 -3.27494e-23)
(0.96188 0.00541501 1.80712e-23)
(0.96986 0.00421378 8.04399e-24)
(0.976128 0.00313348 1.70565e-23)
(0.980862 0.00225277 -2.48036e-23)
(0.98435 0.00159077 1.86851e-23)
(0.986899 0.00112393 -5.88309e-24)
(0.988781 0.00080915 1.1452e-23)
(0.99021 0.000601342 -6.48056e-24)
(0.991335 0.000463749 2.17235e-23)
(0.99225 0.000370572 -1.51402e-23)
(0.993017 0.000304757 9.55593e-24)
(0.993674 0.000256012 -8.16933e-24)
(0.994247 0.000218306 2.93029e-24)
(0.826885 0.00612495 4.84212e-23)
(0.840411 0.00590611 8.91009e-23)
(0.853844 0.00574192 -1.47103e-23)
(0.867306 0.00564477 -4.15214e-23)
(0.880955 0.00560637 1.1512e-22)
(0.894905 0.00557725 -4.05461e-23)
(0.909104 0.00547291 -2.54396e-23)
(0.923248 0.00520877 -5.81144e-23)
(0.936813 0.00474267 2.93663e-24)
(0.949191 0.00409722 -6.19357e-24)
(0.959877 0.00334948 2.08629e-23)
(0.968605 0.00259741 8.15949e-24)
(0.975385 0.0019243 -5.18164e-24)
(0.980445 0.00137801 1.95567e-24)
(0.984126 0.000969135 5.86825e-24)
(0.986784 0.000682029 -1.35106e-23)
(0.988723 0.000489267 2.18326e-23)
(0.99018 0.000362603 -6.38186e-24)
(0.991319 0.000279072 -3.00863e-24)
(0.992242 0.000222715 9.36006e-24)
(0.993012 0.000183025 -3.40254e-24)
(0.993671 0.000153689 5.18607e-24)
(0.994245 0.000131027 -8.73358e-24)
(0.81742 0.00208819 1.21009e-23)
(0.831883 0.00201216 5.38222e-23)
(0.846218 0.00195544 2.50317e-23)
(0.860569 0.00192215 -5.22908e-24)
(0.875116 0.00190908 2.2056e-24)
(0.889982 0.00189888 -2.33718e-23)
(0.905101 0.00186245 -7.89399e-24)
(0.920134 0.00177104 1.36276e-23)
(0.934511 0.00161064 1.06483e-24)
(0.94758 0.00138944 1.05352e-23)
(0.958812 0.00113403 -4.28289e-24)
(0.967941 0.000877843 -3.21279e-24)
(0.974993 0.000649124 -1.47373e-23)
(0.980226 0.000463915 9.30281e-24)
(0.984009 0.000325596 5.32066e-24)
(0.986723 0.00022868 -5.10077e-24)
(0.988692 0.000163756 -3.32296e-24)
(0.990165 0.000121188 1.24369e-24)
(0.991311 9.31748e-05 -3.2562e-24)
(0.992237 7.43102e-05 8.98433e-25)
(0.993009 6.10444e-05 1.26772e-25)
(0.993669 5.125e-05 -1.00748e-24)
(0.994243 4.36884e-05 3.74427e-25)
)
;

boundaryField
{
    inlet
    {
        type            uniformFixedValue;
        uniformValue    constant (1 0 0);
        value           nonuniform 0();
    }
    outlet
    {
        type            pressureInletOutletVelocity;
        value           nonuniform 0();
    }
    cylinder
    {
        type            fixedValue;
        value           nonuniform 0();
    }
    top
    {
        type            symmetryPlane;
    }
    bottom
    {
        type            symmetryPlane;
    }
    defaultFaces
    {
        type            empty;
    }
    procBoundary30to21
    {
        type            processor;
        value           uniform (0.991034 0.0215761 1.22664e-21);
    }
    procBoundary30to22
    {
        type            processor;
        value           nonuniform List<vector> 
23
(
(0.992634 0.00216287 1.13385e-22)
(0.993278 0.00182148 2.27308e-23)
(0.993859 0.00155147 -2.0254e-23)
(0.994383 0.00133353 2.97053e-25)
(0.991213 0.0208457 4.17375e-22)
(0.99128 0.0202093 -3.70749e-22)
(0.991233 0.0196354 7.60258e-22)
(0.991057 0.0191134 -9.67348e-22)
(0.990713 0.0186255 5.02276e-22)
(0.990171 0.0181022 1.93254e-22)
(0.989449 0.0174106 -1.81467e-22)
(0.988642 0.0164058 -3.19887e-22)
(0.987898 0.015011 1.77358e-22)
(0.987373 0.0132664 4.54052e-23)
(0.987177 0.0113165 2.95701e-22)
(0.98734 0.00935111 -1.54732e-22)
(0.98782 0.00753869 -3.10554e-22)
(0.988527 0.00598616 9.70388e-23)
(0.989359 0.00473108 8.15623e-23)
(0.990227 0.00375356 -2.6504e-23)
(0.991073 0.00301281 1.11938e-22)
(0.991866 0.00245603 1.99795e-23)
(0.991866 0.00245603 1.99795e-23)
)
;
    }
    procBoundary30to23
    {
        type            processor;
        value           nonuniform List<vector> 2((0.994841 0.00108134 -4.29475e-26) (0.994829 0.00100794 -4.21435e-23));
    }
    procBoundary30to29
    {
        type            processor;
        value           nonuniform List<vector> 
26
(
(0.802731 -0.00218212 -6.15356e-24)
(0.813185 -0.00639146 -6.03262e-23)
(0.832219 -0.0101762 6.50785e-23)
(0.856673 -0.0133569 -1.37692e-22)
(0.88301 -0.0158697 3.43735e-22)
(0.908185 -0.0177527 8.95291e-23)
(0.930167 -0.0191082 -4.00543e-22)
(0.94803 -0.0200615 3.76346e-23)
(0.961734 -0.0207296 1.54085e-22)
(0.971774 -0.0212063 -1.33492e-22)
(0.978869 -0.02156 -1.35389e-21)
(0.98375 -0.0218367 -8.1126e-23)
(0.989262 0.0222654 7.604e-22)
(0.987049 0.0220652 2.3204e-22)
(0.98375 0.0218358 3.37452e-22)
(0.978869 0.0215591 1.1653e-21)
(0.971774 0.0212054 -3.75263e-23)
(0.961734 0.0207286 -9.1481e-23)
(0.948029 0.0200605 -8.39672e-23)
(0.930165 0.0191071 4.02769e-22)
(0.908183 0.0177515 2.29246e-22)
(0.883008 0.0158684 -5.33811e-22)
(0.856671 0.0133555 1.75069e-22)
(0.832217 0.0101747 -7.11462e-23)
(0.813184 0.00638984 9.07616e-23)
(0.802731 0.00218045 1.04768e-23)
)
;
    }
    procBoundary30to31
    {
        type            processor;
        value           nonuniform List<vector> 
26
(
(0.994749 -3.76263e-05 7.38366e-25)
(0.99475 -0.000112886 1.30921e-24)
(0.994751 -0.000188113 1.03363e-23)
(0.994754 -0.000263286 -3.67949e-24)
(0.994758 -0.000338384 1.53876e-23)
(0.994762 -0.000413387 -8.01919e-24)
(0.994768 -0.000488277 -2.97828e-24)
(0.994774 -0.000563035 -1.09575e-23)
(0.994781 -0.000637644 4.61541e-23)
(0.994789 -0.000712089 -5.81834e-23)
(0.994798 -0.000786354 -1.03898e-23)
(0.994808 -0.000860423 2.03851e-23)
(0.994818 -0.000934283 1.02628e-23)
(0.994818 0.0009343 -5.19801e-23)
(0.994808 0.00086044 -2.3529e-23)
(0.994798 0.00078637 2.8328e-23)
(0.994789 0.000712106 3.16049e-23)
(0.994781 0.000637661 6.19551e-24)
(0.994774 0.000563052 -2.71137e-24)
(0.994768 0.000488293 -1.67817e-23)
(0.994762 0.000413404 -3.18055e-25)
(0.994758 0.000338401 1.09626e-23)
(0.994754 0.000263303 -8.02317e-24)
(0.994751 0.00018813 -7.97119e-24)
(0.99475 0.000112903 -5.28373e-24)
(0.994749 3.76434e-05 3.87395e-25)
)
;
    }
    procBoundary30to38
    {
        type            processor;
        value           nonuniform List<vector> 
24
(
(0.987506 -0.0212811 3.90993e-22)
(0.987865 -0.0206338 4.84659e-24)
(0.988125 -0.0200732 -3.43254e-22)
(0.988283 -0.0195745 -1.01084e-22)
(0.98831 -0.0191385 2.88435e-22)
(0.988151 -0.0187453 -2.65204e-22)
(0.987775 -0.018301 -3.59605e-22)
(0.987218 -0.0176393 8.44451e-22)
(0.986598 -0.0165936 -3.61997e-22)
(0.986083 -0.0150908 3.64926e-22)
(0.985827 -0.0131986 1.2965e-23)
(0.985922 -0.0110992 -4.92113e-23)
(0.98637 -0.00901442 -1.46662e-22)
(0.987103 -0.00712945 8.58407e-23)
(0.988016 -0.0055515 1.08204e-22)
(0.989003 -0.00430728 -8.682e-23)
(0.989983 -0.00336341 -5.95547e-23)
(0.990906 -0.00266639 -2.54557e-23)
(0.990906 -0.00266639 -2.54557e-23)
(0.991808 -0.00230631 9.07964e-24)
(0.992551 -0.00190489 -5.05899e-23)
(0.993218 -0.00159806 -6.6604e-24)
(0.993815 -0.00135786 -7.01144e-23)
(0.99435 -0.00116534 -2.05227e-23)
)
;
    }
}


// ************************************************************************* //
