/*--------------------------------*- C++ -*----------------------------------*\
  =========                 |
  \\      /  F ield         | OpenFOAM: The Open Source CFD Toolbox
   \\    /   O peration     | Website:  https://openfoam.org
    \\  /    A nd           | Version:  7
     \\/     M anipulation  |
\*---------------------------------------------------------------------------*/
FoamFile
{
    version     2.0;
    format      ascii;
    class       volVectorField;
    location    "14.5";
    object      U;
}
// * * * * * * * * * * * * * * * * * * * * * * * * * * * * * * * * * * * * * //

dimensions      [0 1 -1 0 0 0 0];

internalField   nonuniform List<vector> 
2413
(
(2.07463 -0.0655713 0)
(2.07028 -0.0644962 0)
(2.06632 -0.0617585 0)
(2.06219 -0.0597976 0)
(2.05943 -0.0573843 0)
(2.05766 -0.0566289 0)
(2.05603 -0.0551781 0)
(2.05532 -0.0533751 0)
(2.05525 -0.0522602 0)
(2.05524 -0.0512882 0)
(2.05493 -0.0498809 0)
(2.05446 -0.0485143 0)
(2.05385 -0.0474526 0)
(2.05297 -0.0461581 0)
(2.05278 -0.0455538 0)
(2.05245 -0.0450469 0)
(2.05222 -0.0444301 0)
(2.05214 -0.0438095 0)
(2.0519 -0.0425853 0)
(2.05183 -0.0413089 0)
(2.05193 -0.0407093 0)
(1.99683 0.110522 0)
(2.00033 0.107588 0)
(2.00366 0.105296 0)
(2.00688 0.102422 0)
(2.01009 0.0984526 0)
(2.01376 0.0941664 0)
(2.01818 0.0892352 0)
(2.02188 0.086113 0)
(2.02514 0.0840808 0)
(2.02801 0.0808826 0)
(2.03005 0.0795233 0)
(2.03227 0.0784024 0)
(2.03622 0.0738327 0)
(2.03874 0.0703149 0)
(2.04121 0.0676011 0)
(2.04445 0.0630787 0)
(2.04609 0.0608127 0)
(2.04701 0.0603371 0)
(2.04811 0.0577009 0)
(2.04912 0.0538259 0)
(2.05012 0.0494875 0)
(2.04908 0.0465228 0)
(2.04786 0.0428664 0)
(2.04814 0.0403857 0)
(2.04732 0.0383165 0)
(2.04632 0.0375636 0)
(2.04569 0.0362896 0)
(2.0455 0.0345715 0)
(2.0452 0.0341575 0)
(2.04574 0.0333526 0)
(2.04736 0.0314278 0)
(2.04899 0.0307359 0)
(2.05107 0.0305035 0)
(2.05328 0.0301885 0)
(2.05539 0.0294206 0)
(2.05755 0.0293247 0)
(2.06004 0.0299216 0)
(2.06225 0.0301167 0)
(2.06536 0.0287402 0)
(2.06768 0.0272366 0)
(2.06888 0.0255762 0)
(2.06958 0.0245742 0)
(2.06716 0.0256157 0)
(2.0602 0.0305172 0)
(2.04609 0.0369356 0)
(2.01855 0.0466446 0)
(1.98598 0.0600734 0)
(1.96896 0.0690551 0)
(1.96259 0.0681143 0)
(1.96261 0.0673823 0)
(1.96326 0.0661174 0)
(1.96509 0.0658158 0)
(1.97032 0.0622841 0)
(1.97618 0.0566221 0)
(1.98027 0.0558459 0)
(1.98364 0.0537079 0)
(1.98718 0.049163 0)
(1.98951 0.0478924 0)
(1.9916 0.0479139 0)
(1.99577 0.044757 0)
(1.99979 0.0401197 0)
(2.00297 0.0369526 0)
(2.00613 0.0336402 0)
(2.00954 0.0322467 0)
(2.01313 0.0312529 0)
(2.0164 0.0273171 0)
(2.01867 0.0245593 0)
(2.02159 0.0247137 0)
(2.02506 0.0225988 0)
(2.02839 0.0156439 0)
(2.02974 0.0110167 0)
(2.03187 0.0111367 0)
(2.03446 0.00910435 0)
(2.03781 0.00153005 0)
(2.03935 -0.00342032 0)
(2.04148 -0.00380183 0)
(2.04447 -0.00691853 0)
(2.04829 -0.0150544 0)
(2.04979 -0.0209057 0)
(2.05166 -0.0219683 0)
(2.05413 -0.024905 0)
(2.05721 -0.0323388 0)
(2.05844 -0.037857 0)
(2.06005 -0.0386102 0)
(2.0618 -0.0398536 0)
(2.06451 -0.0454412 0)
(2.06585 -0.0507889 0)
(2.06738 -0.0517367 0)
(2.06901 -0.0523684 0)
(2.07179 -0.0572876 0)
(2.07347 -0.0628911 0)
(2.07496 -0.0649893 0)
(2.07639 -0.0653786 0)
(2.0788 -0.0686445 0)
(2.08115 -0.0733724 0)
(2.08306 -0.0751218 0)
(2.08538 -0.0748783 0)
(2.08796 -0.0762176 0)
(2.09018 -0.0787262 0)
(2.09141 -0.0802875 0)
(2.09265 -0.0806614 0)
(2.09323 -0.0809345 0)
(2.093 -0.0817056 0)
(2.09317 -0.0825571 0)
(2.0935 -0.0830124 0)
(2.09371 -0.0831611 0)
(2.0938 -0.0831011 0)
(2.09337 -0.0823498 0)
(2.09233 -0.0808079 0)
(2.09052 -0.0798094 0)
(2.08657 -0.076887 0)
(2.08153 -0.0719204 0)
(2.07675 -0.0701137 0)
(2.07159 -0.0668997 0)
(2.06563 -0.061425 0)
(2.06194 -0.0583663 0)
(2.05945 -0.057195 0)
(2.05784 -0.0549165 0)
(2.05761 -0.0529656 0)
(2.0577 -0.0519247 0)
(2.05727 -0.0508555 0)
(2.05666 -0.0498826 0)
(2.05619 -0.0490451 0)
(2.0554 -0.0480542 0)
(2.05478 -0.0468642 0)
(2.05454 -0.04634 0)
(2.05418 -0.0459035 0)
(2.05374 -0.0450648 0)
(2.05356 -0.0442562 0)
(2.05341 -0.0430446 0)
(2.05337 -0.0413669 0)
(2.05362 -0.0406864 0)
(1.99103 0.125845 0)
(1.99462 0.121584 0)
(1.99812 0.117655 0)
(2.00172 0.114284 0)
(2.00528 0.111255 0)
(2.00898 0.107992 0)
(2.01251 0.105367 0)
(2.01565 0.103313 0)
(2.01867 0.100523 0)
(2.02227 0.0958323 0)
(2.02554 0.0909833 0)
(2.02851 0.0885686 0)
(2.03166 0.0863074 0)
(2.03452 0.0827799 0)
(2.03656 0.0810716 0)
(2.03876 0.0785712 0)
(2.04159 0.0741706 0)
(2.0431 0.0715192 0)
(2.04387 0.0697525 0)
(2.04463 0.0667221 0)
(2.04489 0.0634683 0)
(2.04391 0.0609258 0)
(2.04242 0.057656 0)
(2.04203 0.0546712 0)
(2.0425 0.0517945 0)
(2.04172 0.0497734 0)
(2.04207 0.0471977 0)
(2.04312 0.0433989 0)
(2.04309 0.0418899 0)
(2.04442 0.0403917 0)
(2.0465 0.0382568 0)
(2.04842 0.0381197 0)
(2.05088 0.037407 0)
(2.05359 0.0360059 0)
(2.05624 0.0343165 0)
(2.05872 0.0336222 0)
(2.06111 0.0335979 0)
(2.06351 0.0329216 0)
(2.06587 0.0325433 0)
(2.06792 0.0331321 0)
(2.06946 0.032661 0)
(2.06949 0.032602 0)
(2.06836 0.0334186 0)
(2.0648 0.0352629 0)
(2.05662 0.0375152 0)
(2.03778 0.0463472 0)
(2.00623 0.0589197 0)
(1.97773 0.0714101 0)
(1.96564 0.0770713 0)
(1.96079 0.0760421 0)
(1.96074 0.0748067 0)
(1.96131 0.073974 0)
(1.96526 0.0700533 0)
(1.97019 0.0640653 0)
(1.9745 0.0634969 0)
(1.97898 0.0610362 0)
(1.98336 0.0552273 0)
(1.98598 0.0538969 0)
(1.98763 0.0532698 0)
(1.99175 0.049053 0)
(1.99495 0.0438513 0)
(1.99794 0.0424175 0)
(2.00141 0.0399313 0)
(2.00487 0.0363864 0)
(2.00843 0.0347928 0)
(2.01171 0.0316661 0)
(2.01377 0.0269888 0)
(2.01578 0.025663 0)
(2.01834 0.0242012 0)
(2.02185 0.017514 0)
(2.02343 0.0113867 0)
(2.02536 0.0104801 0)
(2.0279 0.00844574 0)
(2.03165 0.000994481 0)
(2.03345 -0.00477123 0)
(2.03559 -0.00551341 0)
(2.03827 -0.00800702 0)
(2.04208 -0.0154689 0)
(2.04373 -0.0214077 0)
(2.04559 -0.0225195 0)
(2.04789 -0.0247457 0)
(2.05113 -0.0315454 0)
(2.05258 -0.0370484 0)
(2.05436 -0.0377857 0)
(2.0563 -0.0388168 0)
(2.05915 -0.0440487 0)
(2.06068 -0.0493459 0)
(2.06231 -0.0504867 0)
(2.06395 -0.0509135 0)
(2.06668 -0.0555121 0)
(2.06848 -0.0608951 0)
(2.07027 -0.0625856 0)
(2.07208 -0.0630946 0)
(2.07514 -0.0658743 0)
(2.07806 -0.0697548 0)
(2.08015 -0.0714775 0)
(2.0828 -0.0712317 0)
(2.0856 -0.0727122 0)
(2.08812 -0.0763913 0)
(2.08939 -0.0790268 0)
(2.09086 -0.0794596 0)
(2.09134 -0.0794705 0)
(2.09191 -0.0813071 0)
(2.09238 -0.0821807 0)
(2.093 -0.0826686 0)
(2.09374 -0.0830142 0)
(2.09403 -0.0833878 0)
(2.0942 -0.083372 0)
(2.09377 -0.0828365 0)
(2.09291 -0.0822123 0)
(2.0909 -0.081111 0)
(2.08736 -0.0779258 0)
(2.08335 -0.0758204 0)
(2.07841 -0.0732007 0)
(2.07141 -0.0656827 0)
(2.06654 -0.0597894 0)
(2.06335 -0.058958 0)
(2.06155 -0.0563058 0)
(2.06064 -0.0529455 0)
(2.06035 -0.0512677 0)
(2.05892 -0.0500995 0)
(2.05806 -0.0496727 0)
(2.05759 -0.0490759 0)
(2.05679 -0.0481648 0)
(2.05646 -0.0475497 0)
(2.05601 -0.0470669 0)
(2.05561 -0.0465543 0)
(2.05515 -0.0455333 0)
(2.05504 -0.0445633 0)
(2.05516 -0.0434846 0)
(2.05517 -0.0417314 0)
(2.05548 -0.0407241 0)
(1.98473 0.142132 0)
(1.98826 0.138241 0)
(1.99186 0.134307 0)
(1.99581 0.131586 0)
(2.00008 0.129098 0)
(2.00429 0.125322 0)
(2.00757 0.121733 0)
(2.0105 0.118655 0)
(2.01358 0.115406 0)
(2.01662 0.112168 0)
(2.01991 0.108618 0)
(2.02312 0.106086 0)
(2.02598 0.104246 0)
(2.0295 0.100382 0)
(2.03223 0.0969823 0)
(2.03416 0.0951647 0)
(2.03658 0.0915784 0)
(2.03802 0.0882588 0)
(2.03841 0.0858135 0)
(2.0392 0.0818735 0)
(2.04012 0.0772733 0)
(2.03908 0.0741452 0)
(2.03783 0.0706329 0)
(2.03824 0.0664485 0)
(2.03812 0.0639628 0)
(2.03754 0.0632835 0)
(2.03868 0.0609425 0)
(2.03918 0.0586674 0)
(2.03954 0.058085 0)
(2.0413 0.0561142 0)
(2.04362 0.0534921 0)
(2.04605 0.0523362 0)
(2.04844 0.052314 0)
(2.05133 0.0506868 0)
(2.05408 0.0485064 0)
(2.05642 0.047795 0)
(2.05904 0.046487 0)
(2.06079 0.0457077 0)
(2.06354 0.0439495 0)
(2.0665 0.0417374 0)
(2.0689 0.040335 0)
(2.07048 0.0377792 0)
(2.07064 0.0368278 0)
(2.06921 0.0374213 0)
(2.06447 0.0403783 0)
(2.05366 0.0458946 0)
(2.02995 0.0579429 0)
(1.99603 0.0735733 0)
(1.97423 0.0843461 0)
(1.96095 0.0861864 0)
(1.95765 0.0849829 0)
(1.957 0.0835224 0)
(1.9593 0.079263 0)
(1.96335 0.0733435 0)
(1.96781 0.0720347 0)
(1.97432 0.0674289 0)
(1.97957 0.059846 0)
(1.98258 0.0583954 0)
(1.98423 0.0581386 0)
(1.98773 0.0528983 0)
(1.98993 0.047333 0)
(1.99239 0.0469588 0)
(1.99549 0.044576 0)
(1.99885 0.0386407 0)
(2.00135 0.0366935 0)
(2.00404 0.0351586 0)
(2.00714 0.0295584 0)
(2.00917 0.0264834 0)
(2.01132 0.025339 0)
(2.015 0.0193087 0)
(2.01738 0.0117565 0)
(2.01931 0.00960036 0)
(2.02182 0.00771581 0)
(2.02564 0.00102735 0)
(2.02769 -0.00491717 0)
(2.02982 -0.00588088 0)
(2.0322 -0.00767493 0)
(2.03594 -0.014602 0)
(2.03772 -0.020796 0)
(2.0396 -0.0220803 0)
(2.04189 -0.0239521 0)
(2.04518 -0.0301904 0)
(2.04687 -0.0356353 0)
(2.04881 -0.036372 0)
(2.05079 -0.037139 0)
(2.05392 -0.0421665 0)
(2.05578 -0.0475029 0)
(2.05759 -0.0489523 0)
(2.05936 -0.0494694 0)
(2.06233 -0.0537212 0)
(2.06439 -0.0586599 0)
(2.06654 -0.0599197 0)
(2.06881 -0.0598175 0)
(2.07211 -0.0619459 0)
(2.0751 -0.0656798 0)
(2.07713 -0.0676548 0)
(2.07964 -0.0672071 0)
(2.08208 -0.0684691 0)
(2.08467 -0.0729571 0)
(2.08594 -0.076178 0)
(2.08735 -0.0763052 0)
(2.08821 -0.0771839 0)
(2.0902 -0.0802809 0)
(2.09129 -0.0821152 0)
(2.09251 -0.0823336 0)
(2.09343 -0.0827072 0)
(2.0939 -0.0832491 0)
(2.09407 -0.0836432 0)
(2.09419 -0.0837486 0)
(2.09364 -0.083385 0)
(2.09294 -0.083065 0)
(2.09118 -0.0818882 0)
(2.08857 -0.0800215 0)
(2.08493 -0.0779849 0)
(2.07894 -0.0712963 0)
(2.0739 -0.0641577 0)
(2.06987 -0.0626693 0)
(2.06743 -0.0596078 0)
(2.06414 -0.0542122 0)
(2.06288 -0.0519175 0)
(2.06052 -0.0505915 0)
(2.05957 -0.0504177 0)
(2.05908 -0.0499312 0)
(2.05842 -0.048919 0)
(2.05804 -0.0483654 0)
(2.05747 -0.047737 0)
(2.0571 -0.0468948 0)
(2.05683 -0.0456143 0)
(2.05685 -0.0445471 0)
(2.05706 -0.0436828 0)
(2.0571 -0.0424 0)
(2.05709 -0.0412317 0)
(1.97945 0.15109 0)
(1.98316 0.148853 0)
(1.98723 0.14586 0)
(1.99105 0.14428 0)
(1.99464 0.142926 0)
(1.99837 0.139947 0)
(2.00155 0.136334 0)
(2.00455 0.13317 0)
(2.00809 0.130208 0)
(2.0119 0.127541 0)
(2.01558 0.125006 0)
(2.0185 0.122906 0)
(2.02101 0.120998 0)
(2.0245 0.117494 0)
(2.02732 0.114171 0)
(2.02892 0.112246 0)
(2.03115 0.1088 0)
(2.03283 0.105143 0)
(2.03295 0.102681 0)
(2.03315 0.0992468 0)
(2.034 0.0952512 0)
(2.03315 0.0925365 0)
(2.03255 0.0893757 0)
(2.03338 0.0849815 0)
(2.03304 0.0826142 0)
(2.03301 0.0814861 0)
(2.03464 0.0786153 0)
(2.03552 0.075586 0)
(2.03629 0.0741403 0)
(2.03838 0.0718421 0)
(2.04105 0.0687848 0)
(2.04364 0.0675251 0)
(2.04649 0.0668419 0)
(2.04947 0.064876 0)
(2.05242 0.0614238 0)
(2.05453 0.0592302 0)
(2.05655 0.0587497 0)
(2.05867 0.0574762 0)
(2.06096 0.0560104 0)
(2.06373 0.0540537 0)
(2.06618 0.0532905 0)
(2.06806 0.0517667 0)
(2.06975 0.0492009 0)
(2.07005 0.0483305 0)
(2.06919 0.0483572 0)
(2.06325 0.0522257 0)
(2.05 0.0578069 0)
(2.02374 0.0672467 0)
(1.98997 0.0843961 0)
(1.96838 0.0942732 0)
(1.95437 0.0945239 0)
(1.95226 0.0935185 0)
(1.95189 0.0906091 0)
(1.95439 0.08539 0)
(1.95824 0.083395 0)
(1.96545 0.0773305 0)
(1.97305 0.0665938 0)
(1.97675 0.0633537 0)
(1.97899 0.0627879 0)
(1.98296 0.0567321 0)
(1.98525 0.0499025 0)
(1.9876 0.0492848 0)
(1.99017 0.0473088 0)
(1.99275 0.0407967 0)
(1.99434 0.038562 0)
(1.99631 0.037945 0)
(2.00002 0.0320219 0)
(2.00245 0.0270876 0)
(2.00445 0.0256314 0)
(2.00815 0.0202337 0)
(2.01144 0.0121647 0)
(2.0136 0.00903137 0)
(2.01614 0.00744068 0)
(2.01979 0.00160794 0)
(2.02198 -0.00437691 0)
(2.02408 -0.00557526 0)
(2.02629 -0.00685807 0)
(2.03011 -0.0132131 0)
(2.03218 -0.0195919 0)
(2.03407 -0.021238 0)
(2.03641 -0.0230537 0)
(2.0398 -0.0288193 0)
(2.04173 -0.0340704 0)
(2.04389 -0.0348566 0)
(2.04603 -0.0352104 0)
(2.04925 -0.0397332 0)
(2.0512 -0.0446908 0)
(2.05317 -0.0458871 0)
(2.05503 -0.0462719 0)
(2.05837 -0.0499253 0)
(2.06087 -0.0544402 0)
(2.06317 -0.0556663 0)
(2.0657 -0.0554171 0)
(2.0691 -0.0576685 0)
(2.07206 -0.062036 0)
(2.07394 -0.0644247 0)
(2.07622 -0.0640906 0)
(2.07854 -0.0655342 0)
(2.08102 -0.0703303 0)
(2.08224 -0.0737274 0)
(2.08383 -0.0737583 0)
(2.08502 -0.0742748 0)
(2.08754 -0.0777291 0)
(2.08897 -0.0801619 0)
(2.09045 -0.0803139 0)
(2.0917 -0.0811667 0)
(2.09297 -0.0824983 0)
(2.09355 -0.0835964 0)
(2.09399 -0.084156 0)
(2.09389 -0.0841862 0)
(2.09331 -0.0838692 0)
(2.09282 -0.0835572 0)
(2.09159 -0.0823632 0)
(2.08969 -0.0809537 0)
(2.0862 -0.076995 0)
(2.08188 -0.0699078 0)
(2.07798 -0.0673402 0)
(2.07413 -0.063865 0)
(2.06872 -0.0561441 0)
(2.06591 -0.0529278 0)
(2.06372 -0.0524842 0)
(2.06187 -0.0516595 0)
(2.06103 -0.0510448 0)
(2.06007 -0.049414 0)
(2.05955 -0.0485657 0)
(2.059 -0.0478891 0)
(2.05867 -0.0468523 0)
(2.05855 -0.0455251 0)
(2.0586 -0.0444303 0)
(2.05863 -0.0436143 0)
(2.05866 -0.0429136 0)
(2.0582 -0.0418388 0)
(1.97719 0.149572 0)
(1.98113 0.148919 0)
(1.98475 0.148617 0)
(1.9878 0.147155 0)
(1.99059 0.144814 0)
(1.99392 0.142053 0)
(1.99748 0.139689 0)
(2.00105 0.137417 0)
(2.00448 0.1348 0)
(2.00801 0.133597 0)
(2.0111 0.132407 0)
(2.01432 0.129828 0)
(2.01709 0.12756 0)
(2.02 0.124821 0)
(2.02237 0.122351 0)
(2.02374 0.12053 0)
(2.02586 0.117361 0)
(2.02743 0.114261 0)
(2.02781 0.112534 0)
(2.02812 0.110076 0)
(2.02874 0.107408 0)
(2.0285 0.105134 0)
(2.02759 0.103008 0)
(2.02845 0.0990799 0)
(2.02827 0.0958555 0)
(2.02774 0.0937906 0)
(2.02933 0.0909914 0)
(2.03082 0.0876972 0)
(2.0319 0.0859829 0)
(2.03463 0.0837824 0)
(2.03798 0.0809129 0)
(2.04104 0.0791779 0)
(2.04404 0.0783011 0)
(2.04681 0.0766998 0)
(2.04953 0.0737516 0)
(2.05186 0.0711436 0)
(2.05413 0.0697415 0)
(2.05672 0.0678029 0)
(2.05919 0.0654674 0)
(2.0614 0.0637823 0)
(2.06325 0.0633012 0)
(2.06521 0.0616028 0)
(2.06843 0.0577266 0)
(2.06959 0.0539205 0)
(2.06796 0.0534225 0)
(2.06608 0.0541495 0)
(2.05906 0.0592785 0)
(2.04431 0.0647427 0)
(2.01394 0.079968 0)
(1.98124 0.0946786 0)
(1.9583 0.101991 0)
(1.94967 0.102108 0)
(1.94785 0.0996408 0)
(1.94812 0.0947589 0)
(1.9507 0.0900173 0)
(1.95655 0.082993 0)
(1.96254 0.0740304 0)
(1.96618 0.0718438 0)
(1.96909 0.0695139 0)
(1.97491 0.0607117 0)
(1.97769 0.0524739 0)
(1.9802 0.0517451 0)
(1.98306 0.0504702 0)
(1.98595 0.0441925 0)
(1.98719 0.0415601 0)
(1.98854 0.040783 0)
(1.99292 0.0341165 0)
(1.99602 0.0276984 0)
(1.99818 0.0257998 0)
(2.00192 0.0206147 0)
(2.00552 0.012539 0)
(2.0078 0.00923154 0)
(2.01035 0.00791908 0)
(2.01395 0.00264771 0)
(2.01612 -0.0030713 0)
(2.01802 -0.00425952 0)
(2.02 -0.00525479 0)
(2.02376 -0.0111621 0)
(2.02615 -0.0174051 0)
(2.02828 -0.0190602 0)
(2.03077 -0.0207214 0)
(2.03455 -0.0260193 0)
(2.03683 -0.0310115 0)
(2.03924 -0.031873 0)
(2.0416 -0.0320903 0)
(2.04499 -0.0362107 0)
(2.04713 -0.0410922 0)
(2.04929 -0.0421994 0)
(2.0514 -0.0422911 0)
(2.05489 -0.0454971 0)
(2.05756 -0.0499439 0)
(2.05981 -0.0513627 0)
(2.06234 -0.0510562 0)
(2.06555 -0.0534542 0)
(2.06848 -0.0583756 0)
(2.07021 -0.0611813 0)
(2.07234 -0.0609502 0)
(2.07454 -0.0623584 0)
(2.07716 -0.0672456 0)
(2.07849 -0.0709474 0)
(2.0803 -0.0712004 0)
(2.08181 -0.0715707 0)
(2.08476 -0.0751254 0)
(2.0865 -0.0788432 0)
(2.08838 -0.0793754 0)
(2.08997 -0.0797063 0)
(2.09188 -0.0818339 0)
(2.0927 -0.0838787 0)
(2.09331 -0.0844469 0)
(2.09351 -0.084041 0)
(2.09327 -0.0835273 0)
(2.09315 -0.0833989 0)
(2.09293 -0.0830698 0)
(2.09239 -0.0823324 0)
(2.09101 -0.0804082 0)
(2.08846 -0.0757552 0)
(2.08568 -0.0729543 0)
(2.08165 -0.0698575 0)
(2.07518 -0.061476 0)
(2.07119 -0.0567241 0)
(2.06864 -0.0563784 0)
(2.06581 -0.0540863 0)
(2.06322 -0.0512703 0)
(2.06215 -0.0490638 0)
(2.06125 -0.0482853 0)
(2.06059 -0.0476104 0)
(2.06026 -0.0462806 0)
(2.06021 -0.0450762 0)
(2.06021 -0.044777 0)
(2.05986 -0.0439527 0)
(2.05933 -0.0435262 0)
(2.05824 -0.0443912 0)
(1.97276 0.149308 0)
(1.97665 0.146937 0)
(1.98195 0.143749 0)
(1.98583 0.139819 0)
(1.98894 0.137336 0)
(1.99232 0.136055 0)
(1.99598 0.136443 0)
(1.99911 0.137381 0)
(2.00117 0.136861 0)
(2.00354 0.134124 0)
(2.00772 0.131379 0)
(2.01097 0.127469 0)
(2.01371 0.125199 0)
(2.0168 0.122991 0)
(2.01939 0.120909 0)
(2.02104 0.119065 0)
(2.02277 0.116211 0)
(2.02412 0.113347 0)
(2.02488 0.111962 0)
(2.02519 0.11085 0)
(2.02527 0.108959 0)
(2.0244 0.106929 0)
(2.02354 0.104114 0)
(2.02419 0.100388 0)
(2.02412 0.0966492 0)
(2.02332 0.094001 0)
(2.02497 0.0911311 0)
(2.02729 0.0885332 0)
(2.02903 0.0871388 0)
(2.03185 0.0852423 0)
(2.03539 0.0821513 0)
(2.03855 0.0802098 0)
(2.04149 0.0796382 0)
(2.04423 0.0783968 0)
(2.04678 0.0758068 0)
(2.04891 0.0733845 0)
(2.05098 0.0712985 0)
(2.05342 0.068745 0)
(2.05595 0.067593 0)
(2.05857 0.0668215 0)
(2.06037 0.0654506 0)
(2.06274 0.0628326 0)
(2.06504 0.0594844 0)
(2.06693 0.0555128 0)
(2.06663 0.0518801 0)
(2.06476 0.0526682 0)
(2.06294 0.0541028 0)
(2.05638 0.0588507 0)
(2.03884 0.0679576 0)
(2.00754 0.0817726 0)
(1.97605 0.099429 0)
(1.95566 0.107877 0)
(1.9435 0.107297 0)
(1.94221 0.103689 0)
(1.94248 0.097929 0)
(1.9462 0.0899036 0)
(1.95233 0.0804067 0)
(1.9576 0.0772583 0)
(1.96114 0.0751383 0)
(1.96682 0.0654432 0)
(1.96947 0.0559487 0)
(1.97177 0.0548066 0)
(1.97465 0.0542036 0)
(1.97799 0.0483235 0)
(1.9793 0.0449957 0)
(1.98063 0.043161 0)
(1.98574 0.0356929 0)
(1.98942 0.0280949 0)
(1.99183 0.0257574 0)
(1.9956 0.0208969 0)
(1.9995 0.0130615 0)
(2.00207 0.00975037 0)
(2.00469 0.0087509 0)
(2.00852 0.00387113 0)
(2.01101 -0.00180928 0)
(2.01296 -0.00318177 0)
(2.01504 -0.00435765 0)
(2.01878 -0.0100357 0)
(2.02128 -0.0158006 0)
(2.0236 -0.0171579 0)
(2.02614 -0.0182995 0)
(2.02998 -0.0227359 0)
(2.03243 -0.0271553 0)
(2.03493 -0.0279507 0)
(2.03739 -0.0280147 0)
(2.04087 -0.031725 0)
(2.04323 -0.0365917 0)
(2.04546 -0.0378625 0)
(2.04782 -0.0377911 0)
(2.05128 -0.0408093 0)
(2.05404 -0.0455646 0)
(2.05613 -0.0474756 0)
(2.05863 -0.0471953 0)
(2.06152 -0.0493636 0)
(2.06432 -0.0544709 0)
(2.06591 -0.0575553 0)
(2.06797 -0.0574044 0)
(2.0701 -0.0586555 0)
(2.07298 -0.0635024 0)
(2.07449 -0.0673125 0)
(2.07647 -0.0676536 0)
(2.07833 -0.0682149 0)
(2.08163 -0.0719269 0)
(2.08355 -0.0760271 0)
(2.08553 -0.0770753 0)
(2.08745 -0.0770081 0)
(2.08955 -0.0792496 0)
(2.09103 -0.0824804 0)
(2.09188 -0.0840992 0)
(2.0926 -0.0839334 0)
(2.09308 -0.0833908 0)
(2.09331 -0.083165 0)
(2.09347 -0.0830589 0)
(2.09369 -0.0827654 0)
(2.09367 -0.0818797 0)
(2.09265 -0.0794564 0)
(2.09126 -0.0773525 0)
(2.08825 -0.0746809 0)
(2.08285 -0.0680864 0)
(2.07865 -0.0634195 0)
(2.07542 -0.0622121 0)
(2.07054 -0.0578069 0)
(2.06706 -0.0527404 0)
(2.06526 -0.0506872 0)
(2.06384 -0.0490365 0)
(2.06291 -0.0481457 0)
(2.06221 -0.0474064 0)
(2.06149 -0.0473629 0)
(2.06015 -0.0488279 0)
(2.05757 -0.0523777 0)
(2.05388 -0.0586249 0)
(2.04908 -0.0682925 0)
(1.97211 0.131551 0)
(1.97527 0.131303 0)
(1.9782 0.131876 0)
(1.98155 0.132849 0)
(1.98453 0.133319 0)
(1.98741 0.132261 0)
(1.99143 0.130379 0)
(1.99599 0.12736 0)
(2.0001 0.123565 0)
(2.00278 0.121093 0)
(2.00528 0.121676 0)
(2.00774 0.123084 0)
(2.01021 0.123003 0)
(2.01254 0.12173 0)
(2.01508 0.119527 0)
(2.01704 0.117132 0)
(2.01821 0.114722 0)
(2.01921 0.112116 0)
(2.01981 0.108938 0)
(2.01963 0.104875 0)
(2.02111 0.101634 0)
(2.0213 0.0979904 0)
(2.02101 0.0945892 0)
(2.0222 0.0909724 0)
(2.02209 0.0882147 0)
(2.02212 0.0855528 0)
(2.02322 0.0834549 0)
(2.02571 0.0842763 0)
(2.02776 0.0869728 0)
(2.02939 0.0877083 0)
(2.03193 0.0849754 0)
(2.03461 0.0832457 0)
(2.03746 0.082985 0)
(2.04037 0.0817166 0)
(2.0432 0.0790876 0)
(2.04533 0.0769199 0)
(2.04716 0.0749014 0)
(2.0483 0.0718326 0)
(2.05081 0.0683828 0)
(2.05466 0.0650205 0)
(2.0575 0.0601586 0)
(2.05962 0.0568651 0)
(2.06235 0.0535022 0)
(2.06465 0.0503633 0)
(2.06607 0.0474692 0)
(2.06706 0.0453375 0)
(2.06613 0.0458085 0)
(2.06396 0.0480618 0)
(2.05537 0.056534 0)
(2.03865 0.0633444 0)
(2.00391 0.0876667 0)
(1.97049 0.120785 0)
(1.94684 0.119723 0)
(1.93462 0.109342 0)
(1.93372 0.103755 0)
(1.9343 0.100941 0)
(1.93833 0.0963909 0)
(1.944 0.0914254 0)
(1.9501 0.0843887 0)
(1.95689 0.0718562 0)
(1.9603 0.0602409 0)
(1.96316 0.0575061 0)
(1.96672 0.057608 0)
(1.97026 0.0530898 0)
(1.97185 0.0488461 0)
(1.97334 0.0451947 0)
(1.97869 0.036517 0)
(1.98272 0.0280751 0)
(1.9857 0.0251543 0)
(1.98995 0.0205057 0)
(1.99383 0.0136541 0)
(1.99636 0.0112555 0)
(1.99855 0.0109216 0)
(2.0021 0.00656774 0)
(2.0047 0.00131201 0)
(2.00686 0.00014905 0)
(2.0091 -0.00102401 0)
(2.01325 -0.00657119 0)
(2.01618 -0.0120907 0)
(2.01877 -0.0134872 0)
(2.02161 -0.0148237 0)
(2.02564 -0.0188718 0)
(2.02836 -0.022967 0)
(2.03093 -0.0239197 0)
(2.03352 -0.0239684 0)
(2.03694 -0.0273093 0)
(2.03957 -0.0323902 0)
(2.04173 -0.0342324 0)
(2.04423 -0.0342405 0)
(2.04755 -0.0370061 0)
(2.0505 -0.042018 0)
(2.05241 -0.0445452 0)
(2.0549 -0.044496 0)
(2.05773 -0.0463615 0)
(2.06054 -0.0513116 0)
(2.06203 -0.0546923 0)
(2.06408 -0.0547255 0)
(2.06615 -0.0554853 0)
(2.06907 -0.0598839 0)
(2.07065 -0.0637379 0)
(2.07271 -0.064187 0)
(2.07473 -0.0644635 0)
(2.07804 -0.0679647 0)
(2.08008 -0.0723011 0)
(2.08198 -0.0734422 0)
(2.08402 -0.0735075 0)
(2.08684 -0.0765563 0)
(2.08853 -0.0803497 0)
(2.08981 -0.0817604 0)
(2.09105 -0.0816788 0)
(2.09179 -0.0817139 0)
(2.09282 -0.0818755 0)
(2.09366 -0.0821531 0)
(2.09427 -0.0821453 0)
(2.09476 -0.0817604 0)
(2.09443 -0.0807267 0)
(2.09408 -0.0794968 0)
(2.09271 -0.0777888 0)
(2.08985 -0.0745111 0)
(2.08654 -0.0714474 0)
(2.08212 -0.0680912 0)
(2.07656 -0.0638108 0)
(2.07188 -0.0587727 0)
(2.06849 -0.0568629 0)
(2.06578 -0.0554319 0)
(2.06332 -0.0557743 0)
(2.05983 -0.0592133 0)
(2.05469 -0.0664384 0)
(2.0487 -0.0770651 0)
(2.04101 -0.0913403 0)
(2.03306 -0.107497 0)
(2.02787 -0.121277 0)
(1.97246 0.0986223 0)
(1.97521 0.100113 0)
(1.97869 0.100482 0)
(1.98167 0.102209 0)
(1.98497 0.102843 0)
(1.98837 0.102516 0)
(1.9911 0.103317 0)
(1.99341 0.104322 0)
(1.99602 0.106058 0)
(1.99855 0.106151 0)
(2.00142 0.10533 0)
(2.0049 0.103553 0)
(2.00813 0.102271 0)
(2.01082 0.101231 0)
(2.01297 0.099956 0)
(2.01459 0.098472 0)
(2.01538 0.0966624 0)
(2.0161 0.0950805 0)
(2.01551 0.0935586 0)
(2.01447 0.091766 0)
(2.01449 0.0905571 0)
(2.01423 0.0898454 0)
(2.01407 0.0889085 0)
(2.01483 0.0874829 0)
(2.01506 0.086435 0)
(2.01581 0.0843517 0)
(2.01814 0.0808437 0)
(2.02023 0.0775596 0)
(2.0231 0.0752683 0)
(2.02777 0.0714605 0)
(2.03157 0.0671796 0)
(2.0347 0.0648529 0)
(2.03777 0.0642512 0)
(2.0406 0.0629002 0)
(2.04411 0.0600315 0)
(2.04692 0.0573725 0)
(2.04925 0.0557068 0)
(2.05086 0.053776 0)
(2.05177 0.052291 0)
(2.05265 0.0538651 0)
(2.05339 0.0570296 0)
(2.05428 0.057972 0)
(2.0558 0.0562297 0)
(2.05756 0.0542138 0)
(2.05948 0.0531131 0)
(2.06176 0.0506788 0)
(2.06204 0.0460486 0)
(2.06335 0.041523 0)
(2.06278 0.0414213 0)
(2.05695 0.0441295 0)
(2.03863 0.0542691 0)
(2.00542 0.0817124 0)
(1.97602 0.0950114 0)
(1.94358 0.10389 0)
(1.93638 0.105189 0)
(1.93141 0.10818 0)
(1.92816 0.107969 0)
(1.92925 0.102337 0)
(1.93373 0.0930649 0)
(1.94126 0.0806488 0)
(1.94786 0.0699874 0)
(1.95284 0.0652012 0)
(1.95767 0.0636377 0)
(1.96174 0.0592301 0)
(1.96435 0.0528069 0)
(1.96661 0.0466383 0)
(1.9716 0.0378821 0)
(1.97594 0.0300467 0)
(1.97951 0.0271428 0)
(1.98401 0.0229286 0)
(1.98796 0.0165797 0)
(1.99044 0.0144546 0)
(1.9926 0.013818 0)
(1.99672 0.00888788 0)
(1.99979 0.00331049 0)
(2.00228 0.00216321 0)
(2.00495 0.000461178 0)
(2.00933 -0.00520064 0)
(2.01218 -0.00959922 0)
(2.01476 -0.0103556 0)
(2.01779 -0.0119195 0)
(2.02163 -0.0156082 0)
(2.0245 -0.0189426 0)
(2.02703 -0.0200826 0)
(2.0296 -0.0205297 0)
(2.03273 -0.0233188 0)
(2.03556 -0.0282012 0)
(2.03759 -0.030882 0)
(2.04014 -0.0311096 0)
(2.043 -0.0329179 0)
(2.04615 -0.0376259 0)
(2.04805 -0.0408886 0)
(2.05056 -0.0411518 0)
(2.05319 -0.0423144 0)
(2.05626 -0.0469525 0)
(2.0579 -0.0509753 0)
(2.06 -0.0515669 0)
(2.0622 -0.0521227 0)
(2.06533 -0.0560939 0)
(2.06716 -0.060265 0)
(2.06924 -0.0611396 0)
(2.07149 -0.0612738 0)
(2.07472 -0.0643895 0)
(2.0769 -0.0687932 0)
(2.07868 -0.0703918 0)
(2.08081 -0.0701758 0)
(2.08334 -0.0724566 0)
(2.08543 -0.0767413 0)
(2.08701 -0.0786027 0)
(2.0888 -0.0783118 0)
(2.09042 -0.0792315 0)
(2.09239 -0.0808744 0)
(2.09357 -0.0816391 0)
(2.09474 -0.0814331 0)
(2.09521 -0.0809601 0)
(2.09524 -0.0804259 0)
(2.09491 -0.0798905 0)
(2.09453 -0.079695 0)
(2.09334 -0.0790714 0)
(2.09099 -0.0784985 0)
(2.0868 -0.0768422 0)
(2.0808 -0.0746301 0)
(2.07257 -0.0744469 0)
(2.06584 -0.0758113 0)
(2.05781 -0.0825565 0)
(2.04908 -0.0925257 0)
(2.04118 -0.103127 0)
(2.02891 -0.122028 0)
(2.02096 -0.135981 0)
(2.01444 -0.1485 0)
(2.00519 -0.1686 0)
(2.00407 -0.173008 0)
(1.9765 0.04782 0)
(1.97903 0.0490309 0)
(1.98175 0.050161 0)
(1.98382 0.0526668 0)
(1.98653 0.055415 0)
(1.98901 0.0570166 0)
(1.99196 0.0577754 0)
(1.99457 0.0589929 0)
(1.99751 0.0603665 0)
(2.00007 0.0611813 0)
(2.00277 0.0619417 0)
(2.00429 0.0625361 0)
(2.00705 0.0632192 0)
(2.00949 0.0636435 0)
(2.01091 0.0632441 0)
(2.01205 0.0627324 0)
(2.0128 0.0620342 0)
(2.01295 0.0609951 0)
(2.01283 0.0600548 0)
(2.01237 0.0587576 0)
(2.01188 0.0571694 0)
(2.01183 0.0559205 0)
(2.01185 0.0542339 0)
(2.01304 0.0519314 0)
(2.01388 0.0503243 0)
(2.01501 0.0489461 0)
(2.01635 0.0477273 0)
(2.01821 0.0475004 0)
(2.02037 0.0483678 0)
(2.02302 0.0476223 0)
(2.02587 0.0453405 0)
(2.02864 0.044334 0)
(2.03151 0.0449827 0)
(2.03406 0.0445527 0)
(2.03681 0.0427225 0)
(2.0393 0.0417162 0)
(2.04165 0.0417617 0)
(2.04355 0.0409953 0)
(2.04554 0.0386875 0)
(2.04768 0.0353403 0)
(2.04987 0.0324796 0)
(2.05217 0.0296842 0)
(2.05412 0.0269571 0)
(2.05599 0.0248381 0)
(2.05862 0.0227894 0)
(2.06164 0.0201507 0)
(2.06343 0.0182619 0)
(2.06431 0.0174509 0)
(2.06442 0.0200807 0)
(2.0631 0.0223342 0)
(2.05659 0.0266164 0)
(2.03423 0.0486662 0)
(2.00512 0.0676239 0)
(1.97033 0.0841196 0)
(1.94061 0.107727 0)
(1.9198 0.110061 0)
(1.91722 0.108681 0)
(1.91786 0.102566 0)
(1.92188 0.0931764 0)
(1.92939 0.084083 0)
(1.9368 0.0764976 0)
(1.94179 0.0723897 0)
(1.9455 0.0692184 0)
(1.94961 0.0637 0)
(1.95454 0.0561049 0)
(1.95903 0.0493006 0)
(1.96426 0.0418357 0)
(1.96907 0.0349004 0)
(1.9732 0.0310585 0)
(1.97779 0.0267205 0)
(1.98169 0.0210776 0)
(1.98436 0.0188191 0)
(1.98688 0.0180871 0)
(1.99103 0.0134091 0)
(1.9944 0.00780425 0)
(1.99696 0.00644823 0)
(1.99999 0.00421854 0)
(2.0047 -0.00159095 0)
(2.00758 -0.00547562 0)
(2.01021 -0.00588968 0)
(2.01381 -0.00828082 0)
(2.01754 -0.0124549 0)
(2.02033 -0.0147077 0)
(2.02286 -0.0160739 0)
(2.02559 -0.0181215 0)
(2.02856 -0.0207663 0)
(2.0316 -0.0248421 0)
(2.0339 -0.0284283 0)
(2.03633 -0.0295055 0)
(2.03921 -0.0306649 0)
(2.04258 -0.0345622 0)
(2.04462 -0.0383937 0)
(2.0469 -0.039214 0)
(2.04944 -0.0395902 0)
(2.05236 -0.0431611 0)
(2.05412 -0.0473746 0)
(2.05609 -0.0484743 0)
(2.05833 -0.0485894 0)
(2.06136 -0.0516519 0)
(2.06357 -0.0559114 0)
(2.06558 -0.0572543 0)
(2.06804 -0.0572062 0)
(2.07112 -0.0597731 0)
(2.07351 -0.0642286 0)
(2.07517 -0.0662342 0)
(2.07731 -0.0660466 0)
(2.07987 -0.0680176 0)
(2.08229 -0.0723705 0)
(2.08394 -0.0744982 0)
(2.08616 -0.0742391 0)
(2.08834 -0.0750486 0)
(2.09103 -0.0776539 0)
(2.09258 -0.0795273 0)
(2.09405 -0.0794808 0)
(2.09504 -0.0794165 0)
(2.09465 -0.080652 0)
(2.09436 -0.0818139 0)
(2.0935 -0.0835185 0)
(2.0917 -0.0860522 0)
(2.08792 -0.0909268 0)
(2.08223 -0.0976662 0)
(2.07477 -0.105628 0)
(2.06452 -0.1193 0)
(2.05393 -0.130922 0)
(2.04181 -0.141966 0)
(2.02592 -0.162144 0)
(2.01683 -0.168576 0)
(2.00594 -0.181777 0)
(2.00089 -0.185775 0)
(1.99892 -0.189505 0)
(1.99224 -0.20159 0)
(1.98913 -0.208978 0)
(1.97696 0.0176996 0)
(1.9801 0.0166593 0)
(1.98238 0.0152476 0)
(1.98529 0.0155421 0)
(1.98804 0.0164588 0)
(1.99083 0.0156237 0)
(1.99271 0.0145763 0)
(1.99508 0.0148418 0)
(1.99762 0.0158284 0)
(2.00039 0.0161293 0)
(2.00302 0.0158343 0)
(2.00514 0.0151454 0)
(2.00727 0.0147268 0)
(2.00921 0.0148123 0)
(2.01071 0.0145186 0)
(2.01108 0.0140953 0)
(2.01175 0.01342 0)
(2.01153 0.0118862 0)
(2.01106 0.0105258 0)
(2.01094 0.00995129 0)
(2.01032 0.00844168 0)
(2.01002 0.00761405 0)
(2.00984 0.00679037 0)
(2.01017 0.00482038 0)
(2.01054 0.00431796 0)
(2.01191 0.00339382 0)
(2.01392 0.00107698 0)
(2.01628 0.000105415 0)
(2.01901 0.000676712 0)
(2.02207 -0.000627781 0)
(2.02492 -0.00370884 0)
(2.02749 -0.0047667 0)
(2.03024 -0.00394576 0)
(2.03273 -0.00454286 0)
(2.03567 -0.00680489 0)
(2.03785 -0.00828801 0)
(2.04033 -0.00806039 0)
(2.04219 -0.00818525 0)
(2.04425 -0.00934767 0)
(2.04586 -0.010399 0)
(2.04771 -0.0105706 0)
(2.04904 -0.0102093 0)
(2.05018 -0.0103917 0)
(2.05132 -0.0109382 0)
(2.05314 -0.0112108 0)
(2.05519 -0.0115283 0)
(2.0578 -0.0132725 0)
(2.06036 -0.0161346 0)
(2.06272 -0.0186268 0)
(2.06525 -0.0202252 0)
(2.06464 -0.0193347 0)
(2.05886 -0.0138905 0)
(2.04269 0.00235422 0)
(2.01342 0.0231076 0)
(1.96754 0.0608914 0)
(1.92942 0.0925068 0)
(1.91203 0.0954265 0)
(1.90976 0.091257 0)
(1.91315 0.0892291 0)
(1.92011 0.0850523 0)
(1.9265 0.0796682 0)
(1.93041 0.0752743 0)
(1.93467 0.0689784 0)
(1.94082 0.061354 0)
(1.94742 0.0544934 0)
(1.95343 0.049031 0)
(1.95873 0.0440009 0)
(1.96313 0.0391331 0)
(1.96671 0.0354082 0)
(1.97053 0.0314396 0)
(1.97427 0.0265687 0)
(1.97745 0.024115 0)
(1.98074 0.0230408 0)
(1.98528 0.0185341 0)
(1.98919 0.0127415 0)
(1.99196 0.0104342 0)
(1.99552 0.00742696 0)
(2.00026 0.00172765 0)
(2.00338 -0.00180076 0)
(2.00625 -0.00205244 0)
(2.00992 -0.00456945 0)
(2.01343 -0.00945202 0)
(2.0158 -0.0110488 0)
(2.01779 -0.0118008 0)
(2.02139 -0.0158782 0)
(2.0244 -0.0191878 0)
(2.02705 -0.020994 0)
(2.02985 -0.024174 0)
(2.03245 -0.026725 0)
(2.03535 -0.0276743 0)
(2.03841 -0.0300356 0)
(2.04094 -0.0342388 0)
(2.04294 -0.0362587 0)
(2.0454 -0.036502 0)
(2.04817 -0.0389678 0)
(2.05057 -0.0435035 0)
(2.05243 -0.0455812 0)
(2.0549 -0.045686 0)
(2.05778 -0.047695 0)
(2.06049 -0.0517957 0)
(2.06236 -0.0538313 0)
(2.06492 -0.0537528 0)
(2.0678 -0.055488 0)
(2.0704 -0.0597559 0)
(2.07198 -0.0622654 0)
(2.07418 -0.0622019 0)
(2.07647 -0.0632951 0)
(2.07931 -0.0672967 0)
(2.08102 -0.069951 0)
(2.08324 -0.0700709 0)
(2.08543 -0.0708317 0)
(2.08861 -0.0741375 0)
(2.08965 -0.0766261 0)
(2.09081 -0.0796939 0)