/*--------------------------------*- C++ -*----------------------------------*\
  =========                 |
  \\      /  F ield         | OpenFOAM: The Open Source CFD Toolbox
   \\    /   O peration     | Website:  https://openfoam.org
    \\  /    A nd           | Version:  7
     \\/     M anipulation  |
\*---------------------------------------------------------------------------*/
FoamFile
{
    version     2.0;
    format      ascii;
    class       volScalarField;
    location    "112";
    object      p;
}
// * * * * * * * * * * * * * * * * * * * * * * * * * * * * * * * * * * * * * //

dimensions      [0 2 -2 0 0 0 0];

internalField   nonuniform List<scalar> 
41600
(
-0.470059
-0.474405
-0.518595
-0.547116
-0.546552
-0.494039
-0.420692
-0.349348
-0.297384
-0.268985
-0.26276
-0.267784
-0.266188
-0.244749
-0.21149
-0.178296
-0.152567
-0.138091
-0.132396
-0.136181
-0.144433
-0.147737
-0.140339
-0.125507
-0.114487
-0.465578
-0.470676
-0.511018
-0.534535
-0.530006
-0.47779
-0.408083
-0.342128
-0.296112
-0.274357
-0.275115
-0.285561
-0.284068
-0.258236
-0.219836
-0.182243
-0.152573
-0.134661
-0.125903
-0.125843
-0.13039
-0.132416
-0.127233
-0.117401
-0.110987
-0.461005
-0.466805
-0.503169
-0.521431
-0.512649
-0.460451
-0.394164
-0.333514
-0.293499
-0.278742
-0.286877
-0.302588
-0.300473
-0.26998
-0.226472
-0.184826
-0.151745
-0.130737
-0.119304
-0.115817
-0.116927
-0.117262
-0.114044
-0.109009
-0.106874
-0.456386
-0.462841
-0.49512
-0.507899
-0.494569
-0.442108
-0.378975
-0.323463
-0.289454
-0.282014
-0.297821
-0.318447
-0.315027
-0.279722
-0.231336
-0.186059
-0.150158
-0.126458
-0.112764
-0.106403
-0.104536
-0.102993
-0.101442
-0.100771
-0.102384
-0.451766
-0.458837
-0.486944
-0.494032
-0.4759
-0.422826
-0.362566
-0.311949
-0.28392
-0.284061
-0.307715
-0.332742
-0.327342
-0.287249
-0.234409
-0.185995
-0.147883
-0.121957
-0.106402
-0.097801
-0.093571
-0.0902314
-0.0900182
-0.0931273
-0.0977642
-0.447195
-0.454843
-0.478715
-0.479927
-0.456753
-0.402714
-0.345
-0.29897
-0.276872
-0.284787
-0.316318
-0.345104
-0.337104
-0.292415
-0.235713
-0.184726
-0.144991
-0.11735
-0.100292
-0.0900849
-0.084182
-0.0794071
-0.0802391
-0.0864613
-0.0932306
-0.442721
-0.450912
-0.47051
-0.465682
-0.43724
-0.381894
-0.326352
-0.284556
-0.268323
-0.284114
-0.323395
-0.355183
-0.344076
-0.295148
-0.235304
-0.182374
-0.14155
-0.112733
-0.0944755
-0.083216
-0.0762968
-0.0706895
-0.0723312
-0.0809934
-0.0889034
-0.438396
-0.447096
-0.462402
-0.451396
-0.417475
-0.360489
-0.306717
-0.268771
-0.258327
-0.281978
-0.328723
-0.362665
-0.348102
-0.295452
-0.233275
-0.179081
-0.137636
-0.108169
-0.0889695
-0.0770868
-0.0696515
-0.063956
-0.0661844
-0.0767242
-0.084755
-0.434268
-0.443447
-0.454466
-0.437169
-0.397581
-0.33862
-0.28622
-0.251723
-0.246979
-0.278342
-0.332111
-0.367282
-0.34912
-0.293407
-0.229749
-0.174993
-0.133339
-0.103682
-0.0837807
-0.0715599
-0.0638814
-0.0588251
-0.0614909
-0.0734215
-0.0805771
-0.430387
-0.440013
-0.446773
-0.4231
-0.377685
-0.316439
-0.264986
-0.233561
-0.234415
-0.273199
-0.333414
-0.368855
-0.347158
-0.289165
-0.224886
-0.170247
-0.128765
-0.0992676
-0.0789086
-0.0664934
-0.0586407
-0.054732
-0.0577962
-0.0707917
-0.0759508
-0.426797
-0.436842
-0.439392
-0.40929
-0.357918
-0.294109
-0.243175
-0.214485
-0.220808
-0.266586
-0.332535
-0.367308
-0.342347
-0.282941
-0.218875
-0.164973
-0.124023
-0.0949095
-0.0743444
-0.0617582
-0.0536719
-0.0510233
-0.0545152
-0.0676328
-0.0702073
-0.423543
-0.433976
-0.432388
-0.395835
-0.338415
-0.271805
-0.220997
-0.194736
-0.20636
-0.258594
-0.329429
-0.362682
-0.334908
-0.274993
-0.211922
-0.159291
-0.119212
-0.0906087
-0.0700677
-0.057257
-0.0488032
-0.0470483
-0.050906
-0.0631802
-0.0625446
-0.420665
-0.431455
-0.425818
-0.382831
-0.319316
-0.249713
-0.198692
-0.174598
-0.191299
-0.24938
-0.3241
-0.355131
-0.325141
-0.265616
-0.204243
-0.153323
-0.11441
-0.0863962
-0.0660514
-0.0529427
-0.0439391
-0.0422805
-0.045992
-0.0563129
-0.0521654
-0.418199
-0.429313
-0.419737
-0.370367
-0.300765
-0.228034
-0.176527
-0.154391
-0.175868
-0.239166
-0.316612
-0.344916
-0.313412
-0.255117
-0.196045
-0.147184
-0.109675
-0.0823257
-0.062274
-0.0488242
-0.0390945
-0.0365297
-0.0388732
-0.0461556
-0.0386077
-0.416176
-0.427579
-0.414187
-0.358525
-0.282903
-0.206985
-0.154785
-0.134461
-0.160333
-0.228231
-0.307088
-0.332396
-0.300124
-0.243809
-0.187525
-0.140989
-0.105044
-0.0784522
-0.0587307
-0.0449458
-0.034403
-0.0300867
-0.0294507
-0.0327839
-0.0224248
-0.41462
-0.426273
-0.409206
-0.347379
-0.265871
-0.186791
-0.133761
-0.115167
-0.144978
-0.216879
-0.295761
-0.317997
-0.2857
-0.231995
-0.178859
-0.134833
-0.100551
-0.0748127
-0.0554354
-0.0413594
-0.0300624
-0.0235779
-0.0188071
-0.0178187
-0.00583767
-0.413552
-0.42541
-0.404819
-0.336992
-0.249802
-0.167671
-0.113749
-0.0968642
-0.130114
-0.205407
-0.282919
-0.30219
-0.270554
-0.21995
-0.170204
-0.128796
-0.0962303
-0.0714205
-0.0524115
-0.0381108
-0.0262347
-0.0177243
-0.00903284
-0.00417648
0.00790342
-0.412984
-0.424995
-0.40104
-0.327414
-0.234817
-0.149768
-0.0950253
-0.0798903
-0.116074
-0.194073
-0.268919
-0.285456
-0.255077
-0.207922
-0.16169
-0.122941
-0.0921105
-0.0682753
-0.0496783
-0.035238
-0.0229828
-0.0129492
-0.0018042
0.00589616
0.0170123
-0.412922
-0.425026
-0.39787
-0.318683
-0.22102
-0.13336
-0.0778833
-0.0645497
-0.103205
-0.183071
-0.254153
-0.268259
-0.239619
-0.196116
-0.153425
-0.117313
-0.0882133
-0.0653734
-0.0472426
-0.0327676
-0.0203104
-0.00929031
0.00266723
0.0120724
0.0213677
-0.413365
-0.425491
-0.395297
-0.310822
-0.208499
-0.118553
-0.062582
-0.0511062
-0.0918416
-0.172535
-0.239012
-0.251026
-0.224477
-0.184699
-0.145489
-0.111948
-0.0845502
-0.0627122
-0.0450997
-0.0307047
-0.0182128
-0.0066827
0.00496406
0.0151507
0.0224383
-0.414304
-0.426367
-0.393295
-0.30384
-0.197323
-0.105476
-0.0493588
-0.0397784
-0.082262
-0.162543
-0.22386
-0.234128
-0.209891
-0.173799
-0.137943
-0.106868
-0.0811252
-0.0602872
-0.0432387
-0.0290335
-0.0166673
-0.00501606
0.00588036
0.0161852
0.0217856
-0.415725
-0.427624
-0.391824
-0.297729
-0.187548
-0.094243
-0.0384174
-0.0307349
-0.0746383
-0.153131
-0.209016
-0.217868
-0.196043
-0.163503
-0.130823
-0.102088
-0.0779369
-0.0580901
-0.041643
-0.0277244
-0.015618
-0.00412951
0.00595548
0.0159048
0.0203419
-0.417606
-0.429222
-0.390829
-0.292468
-0.179202
-0.0849516
-0.0299155
-0.0240795
-0.0689923
-0.144312
-0.194744
-0.202482
-0.183059
-0.153867
-0.12415
-0.0976115
-0.07498
-0.0561088
-0.0402912
-0.0267396
-0.0149888
-0.00384582
0.00548697
0.0147996
0.0185322
-0.419919
-0.431112
-0.390247
-0.288024
-0.172257
-0.0777011
-0.0239334
-0.0198286
-0.065176
-0.136098
-0.181257
-0.188135
-0.171016
-0.144918
-0.117932
-0.0934372
-0.0722461
-0.0543289
-0.0391579
-0.0260355
-0.0147008
-0.00400755
0.00465132
0.0132113
0.0165408
-0.422632
-0.433241
-0.390008
-0.284354
-0.166725
-0.0724907
-0.0204433
-0.0178832
-0.0629143
-0.128513
-0.168717
-0.174928
-0.159947
-0.136661
-0.112165
-0.089558
-0.0697244
-0.052734
-0.0382165
-0.025567
-0.0146816
-0.00448926
0.00357012
0.0113729
0.0144701
-0.425709
-0.43555
-0.390038
-0.281388
-0.162577
-0.0692864
-0.0192963
-0.0180256
-0.061875
-0.121594
-0.157231
-0.162906
-0.14985
-0.129081
-0.106835
-0.0859633
-0.0674024
-0.051307
-0.0374408
-0.0252913
-0.0148684
-0.00519349
0.00233264
0.00943615
0.0123903
-0.429109
-0.437974
-0.39027
-0.279047
-0.159752
-0.067979
-0.0202396
-0.0199374
-0.0617446
-0.115383
-0.146857
-0.152065
-0.140697
-0.122154
-0.101925
-0.0826398
-0.0652672
-0.0500305
-0.0368057
-0.0251693
-0.0152085
-0.00604503
0.001006
0.00749652
0.0103511
-0.432791
-0.44045
-0.390639
-0.277277
-0.158147
-0.0683871
-0.0229541
-0.0232467
-0.0622743
-0.10991
-0.137607
-0.142366
-0.132441
-0.115843
-0.0974141
-0.0795727
-0.0633049
-0.0488878
-0.0362884
-0.0251667
-0.015658
-0.00698652
-0.000358987
0.00561152
0.00838798
-0.436711
-0.442913
-0.391046
-0.276047
-0.15765
-0.0702803
-0.0270963
-0.0275817
-0.0632869
-0.105184
-0.12945
-0.133743
-0.125023
-0.110111
-0.0932773
-0.0767463
-0.0615021
-0.047863
-0.0358685
-0.0252541
-0.0161812
-0.00797471
-0.00172443
0.00381379
0.00652393
-0.440824
-0.445303
-0.391465
-0.275269
-0.158133
-0.0734056
-0.0323299
-0.0326106
-0.064661
-0.101182
-0.122322
-0.126116
-0.118379
-0.104915
-0.0894898
-0.0741443
-0.0598456
-0.0469415
-0.0355277
-0.0254065
-0.0167494
-0.00897749
-0.00306263
0.00212012
0.00477217
-0.445086
-0.44756
-0.391866
-0.274872
-0.15946
-0.0775107
-0.0383464
-0.0380609
-0.0663092
-0.0978608
-0.116144
-0.119396
-0.112442
-0.100212
-0.0860263
-0.0717506
-0.0583225
-0.0461102
-0.0352501
-0.0256035
-0.0173402
-0.00997126
-0.0043537
0.000537461
0.0031382
-0.449453
-0.449632
-0.392216
-0.274798
-0.161492
-0.0823585
-0.0448769
-0.0437203
-0.0681637
-0.095159
-0.110822
-0.113493
-0.107145
-0.0959612
-0.082862
-0.0695493
-0.0569209
-0.0453572
-0.0350221
-0.0258284
-0.0179357
-0.010939
-0.00558377
-0.000932898
0.00162268
-0.453877
-0.451478
-0.392489
-0.274989
-0.164091
-0.0877348
-0.0516961
-0.0494293
-0.0701674
-0.0930065
-0.106264
-0.108319
-0.102426
-0.0921217
-0.0799727
-0.0675251
-0.0556297
-0.0446716
-0.0348321
-0.0260678
-0.0185225
-0.0118691
-0.0067438
-0.002293
0.000226242
-0.458313
-0.453062
-0.39267
-0.275391
-0.167129
-0.0934523
-0.0586216
-0.0550713
-0.0722709
-0.0913315
-0.102376
-0.103793
-0.0982249
-0.0886554
-0.0773353
-0.0656632
-0.0544382
-0.0440441
-0.0346703
-0.0263113
-0.0190903
-0.0127536
-0.0078291
-0.00354781
-0.00105171
-0.462712
-0.45436
-0.392744
-0.275957
-0.170487
-0.0993515
-0.0655105
-0.0605627
-0.0744315
-0.0900641
-0.0990727
-0.0998374
-0.0944862
-0.0855266
-0.0749277
-0.0639498
-0.0533369
-0.0434661
-0.0345287
-0.0265506
-0.0196317
-0.013588
-0.00883823
-0.0047053
-0.00222507
-0.467024
-0.455361
-0.392694
-0.276643
-0.174056
-0.1053
-0.0722534
-0.0658451
-0.0766122
-0.0891395
-0.0962758
-0.0963826
-0.0911591
-0.0827019
-0.0727293
-0.0623715
-0.0523166
-0.0429301
-0.0344007
-0.0267787
-0.0201413
-0.0143698
-0.009771
-0.00577597
-0.003317
-0.471196
-0.45607
-0.392501
-0.277412
-0.177742
-0.111189
-0.0787693
-0.0708793
-0.0787818
-0.0884989
-0.0939137
-0.0933655
-0.0881972
-0.0801505
-0.0707205
-0.0609159
-0.0513692
-0.0424296
-0.0342809
-0.0269904
-0.0206161
-0.0150962
-0.0106272
-0.00677238
-0.00433144
-0.475176
-0.456502
-0.392142
-0.27823
-0.181461
-0.116934
-0.085
-0.0756404
-0.0809142
-0.08809
-0.0919229
-0.0907297
-0.0855585
-0.077844
-0.0688832
-0.0595715
-0.0504868
-0.0419588
-0.0341648
-0.0271815
-0.0210546
-0.015764
-0.0114093
-0.00770748
-0.00526056
-0.478915
-0.456683
-0.39159
-0.279068
-0.185143
-0.122469
-0.0909055
-0.080114
-0.082988
-0.0878667
-0.0902473
-0.0884248
-0.0832048
-0.0757561
-0.0672003
-0.0583274
-0.0496622
-0.0415129
-0.0340486
-0.0273496
-0.021456
-0.01637
-0.0121242
-0.00858345
-0.00608304
-0.48236
-0.45666
-0.390819
-0.279898
-0.188731
-0.127743
-0.0964605
-0.0842933
-0.0849856
-0.087789
-0.0888373
-0.0864058
-0.0811018
-0.0738632
-0.0656563
-0.0571735
-0.048889
-0.0410874
-0.033929
-0.0274932
-0.0218192
-0.0169138
-0.0127808
-0.00937933
-0.00681233
-0.485464
-0.456489
-0.389808
-0.280697
-0.192177
-0.132721
-0.10165
-0.0881774
-0.0868933
-0.0878222
-0.0876497
-0.0846331
-0.0792184
-0.0721431
-0.0642363
-0.0561003
-0.0481608
-0.0406784
-0.0338032
-0.0276114
-0.0221429
-0.0173993
-0.0133835
-0.0100709
-0.00748672
-0.488191
-0.456235
-0.388541
-0.281441
-0.195444
-0.137377
-0.10647
-0.091769
-0.0886998
-0.0879364
-0.0866465
-0.0830713
-0.0775268
-0.0705758
-0.0629268
-0.0550987
-0.0474719
-0.0402823
-0.0336691
-0.0277037
-0.0224265
-0.0178311
-0.0139305
-0.0106776
-0.00805925
-0.490514
-0.45597
-0.387015
-0.28211
-0.198505
-0.141697
-0.110919
-0.0950737
-0.0903968
-0.0881061
-0.0857949
-0.0816892
-0.0760018
-0.0691431
-0.0617153
-0.0541607
-0.0468171
-0.039896
-0.0335249
-0.0277698
-0.0226702
-0.0182124
-0.0144197
-0.0112164
-0.00859807
-0.492413
-0.455766
-0.385234
-0.282685
-0.201339
-0.145672
-0.115002
-0.0980989
-0.0919777
-0.0883092
-0.0850659
-0.0804592
-0.074621
-0.0678284
-0.0605902
-0.0532786
-0.0461916
-0.0395166
-0.0333691
-0.0278096
-0.0228746
-0.0185453
-0.0148532
-0.0116972
-0.00908614
-0.493879
-0.455691
-0.383218
-0.283148
-0.203933
-0.149299
-0.11873
-0.100853
-0.0934378
-0.0885272
-0.0844345
-0.079357
-0.0733643
-0.0666164
-0.0595407
-0.0524452
-0.0455908
-0.0391415
-0.0332007
-0.027823
-0.0230407
-0.0188323
-0.0152326
-0.0121226
-0.0095378
-0.494911
-0.455798
-0.380993
-0.283484
-0.20628
-0.152581
-0.122111
-0.103346
-0.0947736
-0.0887442
-0.083879
-0.0783609
-0.0722134
-0.0654933
-0.0585572
-0.051654
-0.0450106
-0.0387684
-0.0330186
-0.02781
-0.0231697
-0.0190749
-0.015561
-0.012499
-0.00994271
-0.495513
-0.456125
-0.378595
-0.283678
-0.208375
-0.155523
-0.125159
-0.105587
-0.0959831
-0.0889468
-0.0833804
-0.077452
-0.071152
-0.0644465
-0.0576304
-0.0508986
-0.044447
-0.0383949
-0.0328219
-0.0277708
-0.0232626
-0.0192751
-0.0158411
-0.0128272
-0.0103047
-0.495693
-0.456681
-0.37606
-0.283717
-0.210219
-0.158133
-0.127887
-0.107585
-0.0970649
-0.0891236
-0.0829223
-0.0766133
-0.0701656
-0.0634646
-0.0567521
-0.0501736
-0.0438964
-0.038019
-0.03261
-0.0277055
-0.0233208
-0.0194347
-0.0160756
-0.0131107
-0.0106223
-0.495463
-0.45745
-0.373427
-0.283591
-0.211814
-0.16042
-0.130307
-0.10935
-0.0980185
-0.0892651
-0.0824903
-0.07583
-0.0692411
-0.0625372
-0.0559146
-0.0494735
-0.0433554
-0.037639
-0.0323821
-0.0276145
-0.0233453
-0.0195553
-0.0162668
-0.0133509
-0.0108976
-0.494834
-0.458382
-0.370733
-0.283289
-0.213165
-0.162396
-0.132434
-0.110892
-0.0988441
-0.089363
-0.082072
-0.0750889
-0.0683666
-0.0616548
-0.0551107
-0.0487935
-0.042821
-0.0372531
-0.0321377
-0.0274979
-0.0233373
-0.0196385
-0.016417
-0.0135502
-0.011132
-0.493823
-0.459398
-0.368009
-0.282802
-0.214275
-0.164072
-0.134281
-0.112219
-0.0995423
-0.0894109
-0.0816567
-0.0743783
-0.0675317
-0.0608088
-0.0543342
-0.0481289
-0.0422902
-0.0368597
-0.0318762
-0.0273561
-0.0232979
-0.0196858
-0.0165281
-0.0137103
-0.0113273
-0.492447
-0.460391
-0.365281
-0.282124
-0.215153
-0.16546
-0.135859
-0.11334
-0.100114
-0.0894029
-0.0812351
-0.0736881
-0.0667268
-0.0599915
-0.0535789
-0.0474757
-0.0417602
-0.0364573
-0.0315972
-0.0271894
-0.0232279
-0.0196985
-0.016602
-0.0138331
-0.0114851
-0.490729
-0.461236
-0.362568
-0.281248
-0.215803
-0.166572
-0.137183
-0.114263
-0.100561
-0.0893345
-0.0807989
-0.0730091
-0.0659436
-0.0591957
-0.0528396
-0.04683
-0.0412286
-0.0360445
-0.0313
-0.026998
-0.0231283
-0.0196779
-0.0166402
-0.0139201
-0.0116071
-0.4887
-0.461798
-0.359882
-0.280171
-0.216232
-0.16742
-0.138263
-0.114995
-0.100883
-0.0892018
-0.0803412
-0.0723333
-0.0651745
-0.0584152
-0.0521112
-0.0461882
-0.0406931
-0.03562
-0.0309843
-0.0267822
-0.0229999
-0.0196252
-0.0166442
-0.0139729
-0.0116946
-0.486401
-0.461942
-0.357228
-0.27889
-0.216447
-0.168016
-0.13911
-0.115545
-0.101085
-0.0890016
-0.079856
-0.0716537
-0.0644126
-0.0576441
-0.0513892
-0.0455469
-0.0401514
-0.0351827
-0.0306497
-0.0265422
-0.0228434
-0.0195414
-0.0166155
-0.013993
-0.0117491
-0.483886
-0.461547
-0.354606
-0.277405
-0.216454
-0.16837
-0.139735
-0.11592
-0.101166
-0.0887316
-0.0793379
-0.070964
-0.063652
-0.0568771
-0.0506694
-0.0449033
-0.0396015
-0.0347314
-0.0302958
-0.0262782
-0.0226596
-0.0194275
-0.0165553
-0.0139816
-0.0117719
-0.48122
-0.460518
-0.352012
-0.275718
-0.21626
-0.168493
-0.140149
-0.116125
-0.101128
-0.0883897
-0.0787826
-0.0702588
-0.0628872
-0.0561097
-0.0499482
-0.0442544
-0.0390417
-0.034265
-0.0299222
-0.0259905
-0.022449
-0.0192845
-0.0164649
-0.0139398
-0.011764
-0.478481
-0.458791
-0.349439
-0.273833
-0.215869
-0.168397
-0.140359
-0.116167
-0.100975
-0.0879744
-0.0781863
-0.0695333
-0.0621134
-0.0553375
-0.0492221
-0.0435978
-0.0384702
-0.0337827
-0.0295285
-0.0256791
-0.0222123
-0.0191132
-0.0163452
-0.0138689
-0.0117265
-0.475756
-0.456341
-0.346877
-0.271755
-0.215288
-0.168089
-0.140375
-0.116051
-0.100708
-0.0874845
-0.0775455
-0.0687833
-0.0613263
-0.0545567
-0.0484879
-0.0429313
-0.0378855
-0.0332836
-0.0291146
-0.0253444
-0.0219499
-0.0189143
-0.0161974
-0.0137698
-0.0116605
-0.473136
-0.45318
-0.344316
-0.269491
-0.214522
-0.167581
-0.140205
-0.115785
-0.100329
-0.0869193
-0.0768576
-0.0680052
-0.0605222
-0.053764
-0.047743
-0.0422526
-0.0372861
-0.0327668
-0.0286799
-0.0249865
-0.0216624
-0.0186886
-0.0160223
-0.0136434
-0.0115668
-0.470715
-0.449354
-0.341748
-0.267049
-0.213577
-0.16688
-0.139857
-0.115372
-0.0998408
-0.0862781
-0.0761202
-0.0671957
-0.0596977
-0.0529562
-0.0469846
-0.0415598
-0.0366708
-0.0322316
-0.0282245
-0.0246055
-0.0213502
-0.0184368
-0.0158208
-0.0134905
-0.0114464
-0.468579
-0.444935
-0.339162
-0.264437
-0.212457
-0.165995
-0.139337
-0.114817
-0.0992445
-0.0855608
-0.0753314
-0.066352
-0.0588498
-0.0521307
-0.0462107
-0.0408513
-0.0360385
-0.0316774
-0.0277479
-0.0242015
-0.0210136
-0.0181595
-0.0155938
-0.0133121
-0.0113001
-0.466805
-0.440013
-0.336551
-0.261665
-0.211168
-0.164933
-0.138652
-0.114126
-0.0985427
-0.0847672
-0.0744895
-0.0654719
-0.0579759
-0.051285
-0.0454192
-0.0401256
-0.0353879
-0.0311035
-0.02725
-0.0237748
-0.0206532
-0.0178573
-0.015342
-0.0131087
-0.0111288
-0.465456
-0.434684
-0.333908
-0.258741
-0.209714
-0.163702
-0.137808
-0.113302
-0.0977376
-0.0838975
-0.0735934
-0.0645533
-0.0570739
-0.0504171
-0.0446082
-0.0393811
-0.0347183
-0.0305095
-0.0267307
-0.0233255
-0.0202692
-0.0175308
-0.0150661
-0.0128812
-0.0109333
-0.464577
-0.429043
-0.331226
-0.255675
-0.208101
-0.162308
-0.136812
-0.11235
-0.096831
-0.082952
-0.0726419
-0.0635945
-0.0561416
-0.049525
-0.0437762
-0.0386168
-0.0340287
-0.0298948
-0.0261897
-0.0228538
-0.019862
-0.0171805
-0.0147668
-0.01263
-0.0107144
-0.464196
-0.423176
-0.3285
-0.252475
-0.206331
-0.160757
-0.135667
-0.111274
-0.0958252
-0.0819311
-0.0716343
-0.0625939
-0.0551774
-0.0486071
-0.0429217
-0.0378314
-0.0333184
-0.029259
-0.0256271
-0.0223597
-0.019432
-0.016807
-0.0144446
-0.0123559
-0.0104727
-0.464324
-0.417159
-0.325722
-0.249148
-0.204409
-0.159054
-0.134381
-0.110077
-0.094722
-0.0808352
-0.07057
-0.0615505
-0.0541799
-0.0476619
-0.0420435
-0.0370241
-0.0325868
-0.0286019
-0.0250427
-0.0218434
-0.0189794
-0.0164107
-0.0141002
-0.0120593
-0.0102092
-0.464956
-0.411053
-0.322887
-0.245702
-0.202339
-0.157206
-0.132956
-0.108763
-0.0935236
-0.0796651
-0.0694486
-0.0604633
-0.0531478
-0.0466884
-0.0411405
-0.0361941
-0.0318334
-0.0279231
-0.0244366
-0.0213052
-0.0185046
-0.0159922
-0.0137341
-0.0117409
-0.00992434
-0.46607
-0.404904
-0.31999
-0.242141
-0.200124
-0.155217
-0.131398
-0.107336
-0.0922317
-0.0784215
-0.06827
-0.0593315
-0.0520802
-0.0456853
-0.0402119
-0.0353406
-0.0310576
-0.0272223
-0.0238086
-0.0207452
-0.0180079
-0.0155519
-0.0133467
-0.0114011
-0.00961892
-0.467634
-0.398746
-0.317022
-0.238471
-0.197766
-0.153092
-0.12971
-0.105798
-0.0908484
-0.0771052
-0.067034
-0.0581545
-0.0509761
-0.044652
-0.0392569
-0.034463
-0.0302591
-0.0264996
-0.0231589
-0.0201636
-0.0174897
-0.0150903
-0.0129386
-0.0110403
-0.00929354
-0.469608
-0.392602
-0.313978
-0.234695
-0.195269
-0.150834
-0.127896
-0.104152
-0.0893754
-0.075717
-0.0657409
-0.056932
-0.049835
-0.0435876
-0.0382749
-0.033561
-0.0294376
-0.0257546
-0.0224875
-0.0195607
-0.0169502
-0.0146077
-0.0125101
-0.0106592
-0.00894876
-0.47194
-0.386484
-0.310848
-0.230817
-0.192635
-0.148447
-0.12596
-0.102401
-0.0878147
-0.0742579
-0.0643907
-0.0556637
-0.0486564
-0.0424916
-0.0372652
-0.032634
-0.0285928
-0.0249874
-0.0217946
-0.0189365
-0.0163898
-0.0141048
-0.0120618
-0.0102582
-0.00858516
-0.474574
-0.380397
-0.307626
-0.226838
-0.189865
-0.145934
-0.123906
-0.100548
-0.0861681
-0.072729
-0.0629839
-0.0543495
-0.0474399
-0.0413637
-0.0362277
-0.0316819
-0.0277247
-0.024198
-0.0210801
-0.0182915
-0.0158089
-0.0135818
-0.011594
-0.00983773
-0.00820332
-0.477449
-0.374339
-0.304303
-0.222759
-0.186963
-0.1433
-0.121735
-0.0985955
-0.0844374
-0.0711312
-0.0615208
-0.0529895
-0.0461854
-0.0402035
-0.0351619
-0.0307044
-0.0268331
-0.0233864
-0.0203444
-0.0176258
-0.0152078
-0.0130392
-0.0111072
-0.00939846
-0.00780388
-0.4805
-0.368306
-0.30087
-0.218581
-0.183928
-0.140546
-0.119452
-0.0965459
-0.0826244
-0.0694656
-0.0600021
-0.0515837
-0.0448927
-0.0390109
-0.0340678
-0.0297015
-0.025918
-0.0225527
-0.0195876
-0.0169397
-0.0145868
-0.0124774
-0.0106017
-0.00894091
-0.0073876
-0.483662
-0.362286
-0.297318
-0.214304
-0.180763
-0.137674
-0.117059
-0.0944016
-0.0807309
-0.0677334
-0.0584282
-0.0501325
-0.0435618
-0.0377858
-0.0329453
-0.0286731
-0.0249795
-0.0216971
-0.0188099
-0.0162335
-0.0139463
-0.0118968
-0.0100779
-0.00846551
-0.0069552
-0.486865
-0.356267
-0.293637
-0.209926
-0.177468
-0.134689
-0.114558
-0.0921648
-0.0787586
-0.0659356
-0.0568001
-0.0486361
-0.0421931
-0.0365282
-0.0317943
-0.0276193
-0.0240177
-0.0208198
-0.0180116
-0.0155077
-0.0132867
-0.0112976
-0.00953607
-0.00797258
-0.00650689
-0.490041
-0.350233
-0.28982
-0.205448
-0.174045
-0.13159
-0.111953
-0.0898375
-0.0767095
-0.0640733
-0.0551185
-0.0470952
-0.0407866
-0.0352384
-0.030615
-0.0265402
-0.0230328
-0.0199209
-0.0171932
-0.0147626
-0.0126082
-0.0106805
-0.00897682
-0.00746236
-0.00604156
-0.493122
-0.34417
-0.285856
-0.200866
-0.170495
-0.128381
-0.109246
-0.0874217
-0.0745855
-0.062148
-0.0533841
-0.0455104
-0.0393427
-0.0339165
-0.0294077
-0.0254361
-0.022025
-0.0190008
-0.0163548
-0.0139985
-0.0119115
-0.0100458
-0.00840099
-0.00693535
-0.00555633
-0.496043
-0.338058
-0.281735
-0.196179
-0.166818
-0.125063
-0.106439
-0.0849191
-0.0723882
-0.0601615
-0.0515977
-0.0438824
-0.0378617
-0.0325628
-0.0281726
-0.0243071
-0.0209947
-0.0180597
-0.0154969
-0.0132155
-0.0111971
-0.00939406
-0.00780953
-0.00639258
-0.00504788
-0.498738
-0.33188
-0.27745
-0.191384
-0.163016
-0.121636
-0.103537
-0.0823321
-0.0701187
-0.0581157
-0.04976
-0.0422113
-0.0363444
-0.0311774
-0.0269104
-0.0231533
-0.0199423
-0.0170981
-0.0146198
-0.0124138
-0.0104656
-0.00872596
-0.00720301
-0.00583449
-0.00451732
-0.501143
-0.325618
-0.272992
-0.18648
-0.159089
-0.118102
-0.100539
-0.079664
-0.0677782
-0.0560106
-0.0478733
-0.0404958
-0.034793
-0.0297604
-0.0256218
-0.021975
-0.0188684
-0.0161164
-0.0137239
-0.0115943
-0.00971725
-0.00804224
-0.00658134
-0.00525859
-0.00397552
-0.503199
-0.319253
-0.268351
-0.181462
-0.155039
-0.114463
-0.097448
-0.076916
-0.0653714
-0.0538413
-0.0459435
-0.0387345
-0.0332099
-0.028313
-0.0243069
-0.0207731
-0.0177733
-0.0151154
-0.0128095
-0.0107582
-0.00895185
-0.00734405
-0.0059437
-0.0046627
-0.0034316
-0.504848
-0.312766
-0.263521
-0.176327
-0.150869
-0.110722
-0.0942645
-0.0740819
-0.0629102
-0.0515986
-0.0439777
-0.0369302
-0.0315943
-0.0268379
-0.0229647
-0.0195494
-0.0166563
-0.0140954
-0.0118772
-0.00990548
-0.00817073
-0.00663109
-0.00528991
-0.00405152
-0.00288082
-0.506035
-0.30614
-0.258494
-0.171071
-0.146577
-0.106879
-0.0910031
-0.071144
-0.0604086
-0.0492853
-0.0419716
-0.0350971
-0.0299369
-0.0253356
-0.0215962
-0.0183033
-0.0155186
-0.0130566
-0.0109277
-0.00903637
-0.0073746
-0.0059034
-0.00462079
-0.00342768
-0.00231932
-0.50671
-0.299357
-0.253265
-0.165692
-0.142163
-0.102917
-0.0876984
-0.0680925
-0.0578581
-0.0469443
-0.0398945
-0.0332325
-0.0282438
-0.023805
-0.0202028
-0.017035
-0.0143612
-0.0119997
-0.00996135
-0.00815149
-0.00656389
-0.00516138
-0.00393743
-0.00279205
-0.00174551
-0.506824
-0.292401
-0.247828
-0.160194
-0.137634
-0.0987942
-0.0843773
-0.0649713
-0.0552117
-0.0445757
-0.0377636
-0.0313322
-0.0265187
-0.0222463
-0.0187855
-0.015745
-0.0131847
-0.0109251
-0.00897888
-0.00725145
-0.0057391
-0.0044056
-0.00324079
-0.00214474
-0.00115924
-0.506335
-0.285256
-0.242178
-0.15457
-0.133018
-0.0944969
-0.0809765
-0.0618399
-0.0524761
-0.0421675
-0.0355877
-0.0293949
-0.0247636
-0.0206602
-0.0173451
-0.0144343
-0.0119896
-0.0098337
-0.00798083
-0.00633688
-0.00490071
-0.00363671
-0.00253161
-0.00148585
-0.000560987
-0.505204
-0.277905
-0.236309
-0.148779
-0.128368
-0.0901409
-0.0773972
-0.0586792
-0.0496681
-0.0397134
-0.0333718
-0.0274211
-0.0229796
-0.019048
-0.0158824
-0.0131036
-0.0107768
-0.00872605
-0.00696784
-0.00540841
-0.00404932
-0.00285539
-0.00181047
-0.000815582
4.85585e-05
-0.503394
-0.270334
-0.230215
-0.142738
-0.123693
-0.0857545
-0.0736834
-0.055472
-0.0467992
-0.0372114
-0.0311182
-0.0254122
-0.0211675
-0.0174107
-0.014398
-0.0117537
-0.0095469
-0.00760287
-0.00594056
-0.00446669
-0.00318552
-0.00206226
-0.00107791
-0.000134342
0.000668701
-0.500874
-0.262532
-0.223908
-0.136445
-0.118932
-0.0813615
-0.0698626
-0.0522089
-0.0438759
-0.0346622
-0.0288285
-0.02337
-0.0193282
-0.0157495
-0.0128929
-0.0103855
-0.00830062
-0.00646489
-0.00489969
-0.00351237
-0.00230999
-0.00125795
-0.000334457
0.000557369
0.00129878
-0.497618
-0.254488
-0.217423
-0.130167
-0.113855
-0.0769257
-0.0659529
-0.0488862
-0.0409023
-0.0320673
-0.026504
-0.0212962
-0.0174627
-0.0140656
-0.011368
-0.00899986
-0.00703879
-0.00531288
-0.00384594
-0.00254616
-0.00142338
-0.000443098
0.00041933
0.00125897
0.00193819
-0.4936
-0.246192
-0.210789
-0.123761
-0.108578
-0.0724284
-0.0619645
-0.0455033
-0.0378813
-0.0294288
-0.0241457
-0.0191924
-0.0155722
-0.01236
-0.00982424
-0.00759772
-0.00576224
-0.00414761
-0.00278005
-0.00156877
-0.000526376
0.000381681
0.00118285
0.00196985
0.00258635
-0.488803
-0.237607
-0.203946
-0.117268
-0.103142
-0.0678602
-0.0579042
-0.0420613
-0.0348149
-0.026749
-0.0217551
-0.0170603
-0.0136578
-0.010634
-0.00826267
-0.00617999
-0.00447184
-0.0029699
-0.00170279
-0.000580945
0.000380314
0.00121573
0.00195545
0.00268934
0.00324272
-0.48321
-0.22866
-0.196839
-0.110765
-0.0975682
-0.0632171
-0.053777
-0.0385622
-0.0317053
-0.0240303
-0.0193336
-0.0149016
-0.0117209
-0.00888872
-0.00668437
-0.00474765
-0.00316849
-0.00178057
-0.000614953
0.000416561
0.00129598
0.0020584
0.00273647
0.00341678
0.00390674
-0.476811
-0.219315
-0.189552
-0.104193
-0.0918707
-0.0584979
-0.0495865
-0.0350084
-0.0285544
-0.0212748
-0.0168826
-0.0127178
-0.00976275
-0.00712538
-0.00509043
-0.0033017
-0.0018531
-0.000580481
0.00048265
0.00142297
0.00221989
0.00290898
0.0035252
0.00415149
0.00457784
-0.469601
-0.209744
-0.181955
-0.0975314
-0.0860574
-0.053703
-0.045336
-0.0314025
-0.025364
-0.0184851
-0.0144039
-0.0105107
-0.00778481
-0.00534526
-0.00348199
-0.00184317
-0.000526629
0.000629473
0.00158918
0.00243747
0.0031513
0.00376676
0.0043209
0.00489273
0.00525543
-0.461575
-0.200035
-0.173991
-0.0907669
-0.080135
-0.048834
-0.0410283
-0.0277475
-0.0221363
-0.0156632
-0.0118992
-0.00828177
-0.0057885
-0.00354962
-0.00186021
-0.000373134
0.000809951
0.00184839
0.00270378
0.00345926
0.00408945
0.00463102
0.00512285
0.0056398
0.00593881
-0.452737
-0.190111
-0.165727
-0.0838936
-0.074109
-0.043893
-0.0366664
-0.0240463
-0.0188734
-0.0128117
-0.00937029
-0.00603282
-0.0037753
-0.0017398
-0.000226285
0.00110734
0.00215564
0.00307535
0.00382557
0.0044875
0.00503355
0.00550101
0.00593025
0.0063919
0.00662726
-0.443104
-0.179925
-0.157192
-0.0769093
-0.0679845
-0.0388828
-0.0322532
-0.0203018
-0.0155775
-0.00993265
-0.00681906
-0.00376554
-0.00174674
8.28407e-05
0.00141855
0.00259712
0.00350943
0.00430939
0.00495365
0.00552135
0.00598282
0.00637595
0.00674233
0.00714822
0.00732001
-0.432734
-0.169413
-0.148404
-0.0698141
-0.0617663
-0.0338066
-0.0277915
-0.0165173
-0.012251
-0.00702851
-0.00424747
-0.00148168
0.00029563
0.00191692
0.00307306
0.00409508
0.00487026
0.00554956
0.00608712
0.00655993
0.00693643
0.00725504
0.00755823
0.00790792
0.00801639
-0.421686
-0.158526
-0.139375
-0.0626102
-0.055459
-0.028668
-0.0232843
-0.0126958
-0.00889637
-0.00410161
-0.0016575
0.000816986
0.00235023
0.00376103
0.00473596
0.00560007
0.00623708
0.00679486
0.00722504
0.00760237
0.00789356
0.00813747
0.00837708
0.0086701
0.00871587
-0.409863
-0.147365
-0.130116
-0.0553008
-0.0490676
-0.0234705
-0.0187349
-0.00884044
-0.00551611
-0.00115431
0.000948785
0.00312863
0.00441543
0.00561371
0.00640594
0.00711089
0.00760881
0.00804431
0.00836648
0.0086478
0.00885338
0.0090224
0.00919799
0.00943385
0.00941785
-0.397023
-0.13617
-0.12064
-0.0478894
-0.0425968
-0.0182181
-0.0141466
-0.00495451
-0.00211285
0.00181096
0.00356931
0.00545141
0.0064896
0.00747351
0.0080817
0.00862636
0.00898436
0.00929689
0.00951049
0.00969531
0.00981503
0.00990901
0.0100201
0.0101983
0.0101212
-0.383368
-0.124814
-0.110958
-0.0403801
-0.0360517
-0.012915
-0.00952263
-0.00104125
0.00131071
0.00479175
0.00620193
0.00778342
0.00857104
0.00933891
0.00976187
0.0101453
0.0103626
0.0105516
0.0106561
0.010744
0.0107777
0.0107965
0.0108426
0.0109625
0.0108242
-0.368946
-0.113265
-0.101079
-0.0327776
-0.0294376
-0.0075655
-0.0048667
0.002896
0.00475179
0.00778558
0.00884448
0.0101228
0.0106581
0.0112084
0.0114451
0.0116664
0.0117425
0.0118073
0.0118024
0.011793
0.0117404
0.011684
0.0116646
0.0117253
0.0115253
-0.353784
-0.101516
-0.0910155
-0.0250872
-0.0227599
-0.00217407
-0.00018247
0.00685386
0.00820755
0.0107899
0.0114947
0.0124675
0.0127489
0.0130805
0.01313
0.0131884
0.0131228
0.0130631
0.0129483
0.0128413
0.0127025
0.0125707
0.0124853
0.0124858
0.0122245
-0.337913
-0.0895671
-0.0807776
-0.0173145
-0.0160244
0.00325467
0.00452623
0.0108289
0.0116751
0.0138022
0.0141505
0.0148156
0.0148419
0.0149535
0.0148152
0.0147101
0.0145024
0.0143179
0.0140929
0.013888
0.0136629
0.0134558
0.0133035
0.0132429
0.0129236
-0.321363
-0.0774233
-0.0703767
-0.00946576
-0.0092368
0.00871592
0.00925543
0.0148176
0.0151514
0.0168198
0.0168094
0.0171652
0.0169352
0.016826
0.0164993
0.0162303
0.0158801
0.0155706
0.0152352
0.0149323
0.0146209
0.0143382
0.014118
0.0139952
0.013622
-0.304168
-0.0650925
-0.0598249
-0.00154762
-0.00240336
0.0142047
0.0140011
0.0188164
0.0186334
0.0198401
0.0194692
0.0195141
0.019027
0.0186963
0.0181808
0.0177476
0.0172549
0.0168201
0.0163742
0.0159732
0.0155757
0.0152173
0.0149278
0.0147406
0.0143121
-0.286362
-0.0525844
-0.0491344
0.00643285
0.00446959
0.0197161
0.0187589
0.0228216
0.0221181
0.0228605
0.0221275
0.0218603
0.0211156
0.0205629
0.0198583
0.0192607
0.0186255
0.0180654
0.017509
0.01701
0.0165265
0.0160923
0.015732
0.0154763
0.0149819