/*--------------------------------*- C++ -*----------------------------------*\
  =========                 |
  \\      /  F ield         | OpenFOAM: The Open Source CFD Toolbox
   \\    /   O peration     | Website:  https://openfoam.org
    \\  /    A nd           | Version:  7
     \\/     M anipulation  |
\*---------------------------------------------------------------------------*/
FoamFile
{
    version     2.0;
    format      ascii;
    class       surfaceScalarField;
    location    "0.469";
    object      phi;
}
// * * * * * * * * * * * * * * * * * * * * * * * * * * * * * * * * * * * * * //

dimensions      [0 3 -1 0 0 0 0];

internalField   nonuniform List<scalar> 
18389
(
-7.98166e-05
7.98166e-05
4.34823e-05
-4.34823e-05
-5.20438e-05
5.20438e-05
4.00586e-05
-4.00586e-05
-5.18249e-05
5.18249e-05
-3.98791e-05
3.98791e-05
-3.46297e-05
3.46297e-05
3.91825e-05
-3.91825e-05
-3.5043e-05
3.5043e-05
4.13775e-05
-4.13775e-05
4.42984e-05
-4.42984e-05
-3.40716e-05
3.40716e-05
-1.17438e-05
1.17437e-05
-4.28087e-05
4.28087e-05
4.34336e-05
-4.34336e-05
2.39943e-05
-2.39943e-05
1.83074e-05
-1.83074e-05
4.58849e-05
-4.58849e-05
4.59202e-05
-4.59202e-05
4.33216e-05
-4.33216e-05
-4.2536e-05
4.25361e-05
3.53419e-05
-3.53419e-05
4.29785e-05
-4.29785e-05
-5.84511e-05
5.84511e-05
-4.97807e-05
4.97807e-05
-4.18017e-05
4.18017e-05
-4.4533e-05
4.4533e-05
4.5612e-05
-4.56119e-05
4.5845e-05
-4.5845e-05
4.41283e-05
-4.41283e-05
-4.1331e-05
4.1331e-05
-6.30632e-05
6.30632e-05
4.31166e-05
-4.31166e-05
-4.47335e-05
4.47335e-05
4.086e-05
-4.086e-05
4.66836e-05
-4.66836e-05
-4.55528e-05
4.55528e-05
5.36037e-05
-5.36037e-05
-5.88897e-05
5.88897e-05
3.78783e-05
-3.78783e-05
4.48581e-05
-4.48581e-05
4.53695e-05
-4.53695e-05
-4.10094e-05
4.10094e-05
4.49062e-05
-4.49062e-05
4.58607e-05
-4.58607e-05
-4.58471e-05
4.58471e-05
-4.58402e-05
4.58402e-05
-4.06541e-05
4.06541e-05
-4.58783e-05
4.58783e-05
4.59284e-05
-4.59284e-05
4.59422e-05
-4.59422e-05
4.46092e-05
-4.46092e-05
3.77248e-05
-3.77248e-05
-4.57627e-05
4.57627e-05
-5.55355e-05
5.55355e-05
-4.38124e-05
4.38124e-05
4.57543e-05
-4.57543e-05
-4.5994e-05
4.5994e-05
4.3226e-05
-4.3226e-05
-5.93181e-05
5.93181e-05
-4.71426e-05
4.71426e-05
4.96051e-05
-4.96051e-05
4.57239e-05
-4.57239e-05
-8.24168e-06
8.2417e-06
4.5774e-05
-4.5774e-05
4.14549e-05
-4.14549e-05
5.12106e-05
-5.12106e-05
-4.58595e-05
4.58595e-05
4.23234e-05
-4.23234e-05
3.07466e-05
-3.07466e-05
3.31397e-07
-3.31397e-07
-4.4117e-05
4.4117e-05
3.28688e-05
-3.28688e-05
-3.65793e-05
3.65793e-05
3.97153e-05
-3.97153e-05
2.6626e-05
-2.6626e-05
2.61943e-05
-2.61943e-05
2.70492e-05
-2.70492e-05
2.43962e-05
-2.43962e-05
1.27897e-05
-1.27897e-05
0.0010729
-0.000883373
-0.000189525
0.00546588
-0.00207506
-0.00339081
-0.00594648
0.00594644
3.91166e-08
0.00335532
-0.0026017
-0.000753624
-0.00157017
0.00177093
-0.000200764
-0.00675729
0.00284194
0.00391536
0.00121381
0.00425208
0.00725554
-0.00587638
-0.00137917
0.00120027
-0.00191178
0.000711511
-0.000868051
-0.000702117
-0.00144211
-0.000314615
0.00175672
0.000140974
-1.85288e-06
-0.000139121
0.000778583
-0.00222069
-0.00360247
0.000121235
0.00348122
-0.00320324
0.0028941
0.000309141
-0.00570145
0.00723436
-0.00153291
-0.00370828
0.00289699
0.00081128
-0.000562917
-0.00303955
-0.0017492
0.00238895
-0.000639744
-0.000462001
0.00255886
-0.00209686
-0.00161181
0.00111533
0.000496477
0.000583533
0.000581826
-0.00159686
-0.00516044
0.00131642
-0.0018147
0.00049828
0.00577844
-0.00385973
-0.0019187
-0.000672194
0.00331127
-0.00263908
-0.00583524
0.00583525
0.000470196
0.00130074
-0.00633364
0.000978162
0.00535548
0.00231722
-0.00298942
-0.00378942
0.00311383
0.000675584
0.002148
-0.00422305
0.00108842
-0.000202772
-0.000885644
0.00150535
-0.0012886
-0.000216754
-0.00280379
-0.000399448
0.00535051
-0.00534825
0.000371457
0.0011339
0.00522728
-0.00133649
-0.0038908
0.00198003
-0.000779757
0.0030857
0.00190867
-0.00499436
-0.000720861
-0.00306856
-8.83815e-05
-0.000155898
0.000244279
0.0039358
0.00331974
0.00115359
-0.00487632
0.00372273
0.00162482
0.00360246
-0.00498265
0.00632096
-0.00133831
-0.00114477
-0.0005899
0.00173467
0.00133799
0.00201732
0.000135292
0.000103626
-0.000238918
0.00502001
-0.00339519
0.00645715
-0.000840638
-0.00561651
0.00321746
-0.00266434
-0.000553121
0.00221604
0.000454492
-0.00267054
0.00295481
-0.000738767
0.00650413
-0.00539878
-0.00110534
0.000494942
-0.00385502
0.00336008
6.74635e-05
0.00638969
0.00479171
-0.00429677
-0.000535777
0.00105939
-0.000523612
-0.00176517
0.000620407
0.00191704
0.00224911
-0.00416614
0.000253498
-0.000333778
8.02794e-05
-0.00125811
-0.00284819
0.0041063
-2.61775e-05
0.00653031
-0.00281379
0.00229887
0.000514926
0.000389072
-1.23804e-05
-0.000376692
-0.00569236
-0.000254117
0.00188146
-0.00141127
0.000826913
0.00495153
0.000900306
0.000172595
0.00264004
-0.00644155
0.00380152
-0.00112021
0.000584437
0.00264122
-0.00389933
0.00619689
-0.00226108
0.0010921
0.00117728
-0.000775778
0.001017
-0.000241225
-0.00111394
-0.000497866
0.00188218
0.00133528
-0.000594437
0.00142954
-0.00123739
-0.000192153
-0.00265543
0.0019889
0.000666536
0.00116675
0.000262793
0.00112392
-0.00496048
0.00383655
-0.00474908
0.00141102
0.00333806
-0.0045544
0.00611813
-0.00156373
-0.00506243
7.97818e-05
-0.00202377
-0.000631664
-0.000215154
0.000126773
-0.00121786
0.00464056
-0.0034227
-0.00119959
-0.000712194
0.000103305
-0.000192023
8.87179e-05
0.000126284
-2.29791e-05
-0.00125238
0.00463058
-0.00337819
-0.000156083
2.44199e-05
0.000131663
-0.00556664
0.00170691
-0.00120251
-0.000562666
-0.000449385
-1.89244e-05
0.000468309
-0.00054321
9.38243e-05
0.00101302
7.53964e-05
-0.00181138
0.000608878
-0.000150361
1.6988e-05
0.000133373
0.00136803
-0.00234447
0.000976436
0.000271102
-0.00013581
-0.00392563
0.00513944
-0.00245761
0.000708412
-9.40843e-05
-0.000416953
0.000511037
0.0056857
-0.00216859
-0.00351711
7.80219e-05
0.00250693
-0.00258495
0.0044494
-0.00559771
0.00114832
0.00263512
0.00305058
0.00291391
-0.00283589
-0.0061327
0.00043126
-0.00645184
0.00361971
0.00283213
0.00229309
0.0039038
-0.00438772
0.00137349
0.00301423
0.00151421
-0.000197787
-0.00102151
0.00401709
-0.00299559
0.0046385
-0.00162512
-0.00301338
-0.00459709
0.00374678
0.000850317
0.00369323
-0.00502972
5.78647e-05
0.000331207
-0.00136932
0.00581873
-9.06435e-05
0.00214835
-0.0020577
-0.0020705
0.00261379
0.000165782
-0.00277957
-0.0012774
0.00264543
-0.000639337
0.00325313
0.00164275
-0.00173339
0.000889803
0.003969
-0.00485881
-0.00504223
0.00384329
0.00119894
0.00255195
-0.0035941
0.00104216
-0.00331251
0.00411442
-0.000801907
0.000355449
-0.00366797
-0.000908072
0.000908072
-0.000452318
0.000358234
-0.000126967
-0.000973462
0.00110043
0.0050689
-0.0018416
-0.0032273
-0.00243408
-0.000369719
0.00290031
0.000157865
1.65447e-05
-0.00017441
-0.00147216
0.00112794
0.000344215
-0.00014331
-0.00489892
0.0050394
-0.00388581
0.000221979
-8.10053e-05
0.00444323
0.000576781
0.00406761
-0.00151566
0.00016493
-7.06486e-06
-0.0063374
-0.000989902
-0.000821484
0.0043
-0.00190307
-0.00239692
0.00275738
0.00154262
0.00107765
-0.00563203
-0.00226644
-0.000547353
-0.00112033
-0.000957719
0.00207804
4.19236e-05
-0.00272363
0.0026817
-0.00235963
0.0012393
-0.00221808
0.00530378
-0.00461207
0.00159337
0.0030187
0.00254885
0.000667824
-0.000336935
-0.000330889
-0.00601559
0.000582824
0.00543277
-0.00418353
0.00582103
-0.0016375
0.00182488
0.00163052
-0.00345541
-0.00167863
0.000904157
0.000774475
-0.00271305
0.00208362
0.000629437
0.00111558
0.000765889
0.000247202
-0.000328944
8.17426e-05
0.00488304
-0.00399325
-0.00638651
0.00557484
0.000811677
-0.00478211
-0.00166973
0.00334936
0.000626202
-0.00397557
0.00015398
-0.000162214
8.23434e-06
0.000590471
-0.000125276
-0.000465195
-0.00451797
0.0026149
0.000375126
-0.000573587
0.000198462
6.39027e-05
-0.000971977
-0.00257577
0.00448444
-0.00530398
-0.000322603
0.00562659
0.000198182
0.000213588
-0.000411769
0.00114854
-0.00114854
0.00168635
-0.000724154
-0.00211005
0.00181851
0.000291531
0.00439607
-0.00302259
-0.000162381
6.2981e-06
-0.00124547
0.00130937
0.000678691
0.00130134
0.0023503
-0.000266673
-0.00401925
-0.00128472
0.00111937
-0.0049744
0.00321211
-0.00446449
0.000835649
-0.00213789
0.00130225
0.00335951
-0.00457737
-0.00271075
-0.00180722
-0.00483649
0.00469317
-0.000676726
-0.00533886
-0.00515909
0.00149148
-0.00147489
-1.65935e-05
0.00223084
0.000119457
-0.00601446
0.00204859
0.00396587
-0.00121933
0.000526009
0.000693313
0.00144566
0.00295042
-0.00462788
-0.00101445
0.00564233
-0.000212847
0.000138575
7.42716e-05
-0.0055081
0.00132457
0.00375317
-0.00493689
0.00118372
-0.00149636
-0.000613687
-0.000536682
-0.000637498
0.000138331
-0.000203788
6.54563e-05
0.00497783
-0.00385391
-0.00130042
0.00512515
-0.00382474
-0.000456586
-0.000788887
-0.00586141
0.000439554
0.00539569
-0.00616093
0.00456407
-0.000922202
-0.00546432
-0.00109735
-0.000374803
-0.00181844
0.00285825
-0.00103982
-0.000419084
0.00032198
9.71054e-05
-0.00173206
0.00141744
0.00162282
-0.000131341
0.000828612
-3.67508e-05
-0.00169531
0.0027969
0.00121677
-0.0030352
0.00605299
-0.000478152
0.00528155
6.89632e-05
-0.00528078
0.00439067
0.00114492
-0.00553559
0.000556526
-0.000768891
0.000212364
-4.02638e-05
-0.000412054
-1.12975e-05
0.00606429
-0.000162169
0.000156817
5.35237e-06
0.000133408
2.05718e-05
0.00254167
-0.00335549
0.000813821
-0.00190447
0.000698015
0.00120646
0.007921
-0.0034543
-0.00446669
0.00117038
0.00126467
-0.00243505
0.000105364
-0.000171955
6.65909e-05
-0.000805876
0.00133188
0.00115576
0.00318312
-0.00433887
-0.00561473
0.000165788
0.00544894
-0.00401636
0.00299486
0.00173493
0.00479538
0.00458527
0.00333572
-2.07446e-05
0.00019134
-0.000170595
-0.0013006
0.00438984
-0.00308923
0.000300905
-0.000341169
-0.000131356
-8.14913e-05
0.00410153
-0.00227666
0.00475176
-0.00500905
0.000257295
-0.00323639
0.00606434
-0.00282796
0.00252809
0.00157344
0.00574528
-0.000993528
-0.00138933
-0.00562137
0.00137261
0.00424876
0.000654699
0.000520473
-0.00117517
0.00126938
-0.000614679
0.000585405
-0.00111009
0.000524684
0.00110588
0.000278816
0.000389008
-0.000678209
0.00443138
0.00152142
-0.000393478
0.00352054
-0.00610932
0.00258879
0.00153534
-0.00258497
0.00104963
-0.00431409
0.00115797
0.00315612
0.00291618
-0.00421678
-0.00490448
-0.00125645
-0.00409744
0.00126587
0.00283157
0.00124115
0.00314869
-0.00326521
-0.000832242
0.00222811
-0.00105774
-0.000674464
-0.00253524
0.0032097
0.00241178
0.00061191
-0.00302368
-0.00159062
0.00120557
0.000385047
0.000270043
0.0014929
-0.00196621
0.000473318
-0.000110915
-0.000222863
-0.000264399
0.000153483
-0.00435113
-0.000245962
-0.000295712
0.00117794
-0.000882231
0.00435151
-0.00464466
0.00029315
-8.84075e-05
0.000117749
-2.93414e-05
0.000970433
0.00338178
-0.00435221
-0.000156977
6.857e-05
-0.00475182
0.000710242
0.00404158
-0.000786052
0.000108757
0.000677293
8.1491e-05
-8.33438e-05
-0.000400299
0.000864672
-0.000347479
-0.000517194
-0.00603616
0.000637378
-0.00254967
-0.000128179
0.00267784
-0.00317108
0.00441223
0.00218084
-0.00108874
-0.00116719
-0.00118467
-1.4917e-05
-0.0035185
-0.00123058
0.00151879
-0.000410898
-0.00110789
0.00191941
0.00183798
-0.00375738
0.00504005
-0.001608
-0.00343204
0.000790499
-0.00541837
-0.00137312
0.00300363
0.00195373
0.000787991
-0.00274172
-0.0034989
0.00446934
-0.000153111
2.7501e-06
0.000933156
-0.00443206
-0.0044969
-0.000147773
-0.000998152
-0.00461657
0.00462312
0.00148245
0.00355759
0.0041602
0.00114152
-0.00530172
3.66127e-05
5.92817e-05
-9.58945e-05
-0.00140956
0.00336329
0.00370157
0.00353278
-0.00140305
0.0023723
-0.000969243
-0.00248106
0.000457296
-0.000878399
0.000751431
-0.000210747
0.000408929
-0.000207973
0.00170088
0.00376406
-0.00184465
-0.00108251
-0.000596126
-0.000107195
-0.000157203
0.00355047
-0.00163343
-0.0024037
0.00465281
0.000674506
-0.0030959
0.00242139
0.000650737
0.000762239
-0.00105795
0.00210031
-0.0013087
-0.00327452
0.00458321
-0.00217611
0.00481615
-0.000550547
0.00344464
0.000238396
-0.000221408
-0.0023634
0.000960365
0.00230902
-0.00386802
0.00155901
-0.00122578
5.78945e-05
-2.12818e-05
0.00214908
-0.00279797
0.0006489
-0.00117081
-0.000419813
-0.00352601
0.00450417
0.00119141
0.0016756
-0.002867
-0.00169242
0.00366401
-0.0019716
0.00423801
-0.00085623
0.000234319
1.41165e-05
-0.000248435
-0.00372343
0.00203101
-0.00142225
0.00471189
-0.00328965
0.000877976
0.00130287
0.000166485
0.000982054
0.00025302
-0.00030073
4.77095e-05
0.00169435
0.000215514
-0.00190986
0.00301925
-0.00458308
0.00156383
-5.28628e-05
0.000374348
-0.000321485
0.00156683
-0.000361258
0.0014095
-0.000603053
-0.000806444
0.00282554
-0.00392265
0.0010971
0.00268144
-0.00374154
0.0010601
-0.00515652
0.00192014
0.00389618
-0.000876925
-0.000629842
-0.0023787
0.00300854
0.00140638
-0.00511706
0.00371068
0.00336055
-0.00145893
-0.00190163
-0.000689662
0.00173249
-0.00104283
0.00477165
-0.00303673
-0.000704388
-0.00195995
-0.00598202
0.00514138
4.04429e-06
0.000121717
-0.000125762
-0.00158179
0.00120254
0.000379249
-0.00490593
0.00630609
-0.00140016
-0.00188985
0.00070692
0.00118293
0.000407476
0.00268705
-0.00208934
-0.000597704
0.00343456
0.000489746
-0.00392431
0.000124621
-1.92565e-05
0.00517226
0.000337306
-0.00550956
-0.00194061
0.00379755
-0.00185694
0.00276628
-0.000633466
-0.00213282
0.000462554
0.000402118
-0.00043808
0.00387264
0.00202578
-0.00396639
0.000702324
-0.000268697
-0.000433626
-0.000670533
1.53384e-05
0.000655197
-0.00315226
-0.00576556
0.00576388
-0.000275066
0.000953726
-0.000678661
-0.00228894
-0.00019213
-0.00454747
0.00323876
-0.000865302
0.00112206
0.00360804
-0.00502001
0.00141198
0.000410693
-0.00296035
0.00233338
-0.00244081
0.000107415
-0.00157143
0.00148228
8.91522e-05
-0.00121365
-0.000368134
-0.00339171
0.00342782
-0.00223641
0.000457238
0.000133233
-0.00173778
0.00104812
-0.00279076
0.000735687
0.00205507
0.000242332
-8.01355e-06
-0.00347733
0.0010227
0.00245462
-0.00144223
0.00560242
0.000339273
-0.000955958
0.000616686
0.00212505
0.000641232
-0.00127775
0.000304291
0.00111799
0.0012154
-0.00142043
0.00494772
-0.00352729
-0.00484958
0.00576768
-0.000918094
-0.00117094
0.00228383
0.00410586
0.00107441
4.09191e-05
0.00585705
-0.00551852
-0.000338524
0.00354266
-0.00465344
0.00111078
0.00308892
-0.000677147
0.0054271
-0.00181906
-0.00250447
-0.000972856
-0.00218419
-0.000308065
0.00249227
0.00241738
-0.0019629
-0.00160818
-0.00424007
0.00274852
0.00149155
-0.000332625
0.00123678
0.00120453
0.00365156
-0.00485609
-0.000313489
0.000688615
0.00305957
-0.00238506
-0.00472461
-0.00125741
0.00647055
-0.00129829
0.00423459
0.00206142
0.000497447
0.00285592
-0.00212751
-0.000728405
0.00473605
-0.00245222
-6.85173e-05
-0.00332676
-0.00086535
0.00419212
0.0003885
-8.64657e-05
-0.000302035
-0.0051411
0.00610581
-0.000964703
-0.000721456
0.00190863
-0.00118717
-0.000697289
0.00525303
-0.00455575
0.00119303
-0.00191449
-0.000113688
-0.00576268
-0.000775778
0.00202921
0.00382784
-0.000257932
-0.00192626
0.000251405
-4.20211e-06
0.000362546
-0.000487822
0.00336007
-0.000818402
-0.00522605
-0.000271567
-0.000147518
0.000150204
-0.000133591
-1.66134e-05
-0.00248233
0.000122692
-0.000420911
0.00159798
-0.00102027
-0.000577712
0.0024622
0.000599606
-0.00306181
-0.000722631
0.00318482
-0.00520292
-0.000271508
0.00547442
0.00375088
0.00137427
0.00440638
-0.00122326
-0.000129128
0.00254651
0.00540385
-0.000206647
-0.00519721
-0.00608744
0.00425271
0.00183474
0.00321015
-0.00126834
-0.00435303
0.000204352
-0.000225097
0.000570987
0.000838508
0.00114926
0.000195866
-0.00134513
0.00421231
0.00119154
-0.000961931
0.0031711
-0.00220917
0.00472276
-0.00137339
-0.00218032
0.00279287
-0.000612546
-0.00117598
-0.000105239
0.000292509
-0.00018727
0.00344653
-0.00414382
0.00134744
-0.000987374
-0.000360067
0.00159951
-0.000396965
-0.00325089
0.00228896
0.0054879
-0.00434299
-3.06299e-05
0.00035261
-0.00535706
0.000451121
0.00542941
-0.00190887
-0.000998467
-0.00361486
0.00461334
-0.000645654
0.00288319
-0.00223753
0.00549727
-0.00286246
-0.00263482
-8.8397e-05
0.000590198
-0.00067716
0.000660535
1.66247e-05
-0.000695095
0.00173597
-0.00104088
-0.00314974
-0.00116434
0.000155535
-1.7204e-05
-0.00122484
-0.00478962
-0.00307396
0.00239949
-0.00083818
-0.000310359
-7.26165e-05
-8.9552e-05
-0.00122307
-0.000806032
-0.00523014
-0.00283883
0.00219318
-0.000821248
0.00119271
0.00112296
0.00436924
-0.00549219
0.00338353
-0.00275733
0.000469477
0.000771567
-0.002884
0.00211243
0.00497819
-0.00491984
-5.83423e-05
-0.00320946
0.00361557
-0.000406103
0.000207787
-9.56046e-05
-0.000112183
-0.00496804
-0.00147353
-0.00176005
0.0036899
-0.00192984
0.00298089
-0.00220932
-0.00378373
0.00202368
0.00139504
-0.00258175
0.0011867
-0.0036331
0.00568169
0.00650005
-0.00219597
-0.00430408
-0.00239872
0.00237608
2.26536e-05
0.00559528
-0.00162628
0.00118625
-0.000925773
-0.000260478
-9.11835e-06
0.000262139
0.000249892
-0.000773646
0.000523754
-0.00304901
0.00365001
-0.000968566
0.000847666
-0.00105044
0.00236433
-0.000632971
-0.00173136
0.00221183
-0.000517483
0.00451747
0.000632056
0.00173228
-0.00175711
0.00106202
0.000408603
-0.000464693
5.60903e-05
0.00222113
-0.00174576
-0.000475367
0.000824832
-0.0051478
-0.000544562
0.000369496
-0.000588348
0.000218851
-0.00410145
0.00547406
0.000941946
-0.00111663
0.000174682
-0.00153504
0.00216228
-0.000627243
-0.00148766
-0.0027524
-0.00537834
-0.000156929
0.00553527
0.000300608
0.000108305
4.18993e-05
0.00012722
-0.000127519
2.98714e-07
0.00410547
-0.00290094
-0.00379569
-0.00231363
0.00346718
0.00303286
-0.00259165
0.000719572
0.00187208
-0.000844635
0.00223967
-0.00229886
-9.9868e-05
0.00272996
-0.00377768
0.00104772
0.00131271
-0.000134764
0.00046164
0.000551379
-0.00327732
0.000962435
0.00231489
0.000911236
-0.000615247
-5.52876e-05
-0.00427044
0.00171905
0.000108382
-0.00182742
-0.0039643
0.00146346
0.00250084
0.000515471
0.00146995
-0.00089897
-0.000246759
-0.00466013
0.00490689
0.000784139
-0.00247671
0.00169257
0.0012022
0.00131232
-0.000457852
-0.0017268
0.00218466
0.00258001
-0.00179587
0.00446716
-0.003534
-0.000774272
-0.00264093
-0.000227387
0.000251807
-0.000705587
0.00176598
-0.0010604
0.00266142
-0.00366646
0.00100502
0.000136423
2.03941e-05
-0.00236506
-0.000912274
0.00142116
-0.00163617
0.000215004
-0.00277518
0.000685841
0.00127616
-0.00141853
0.000142368
0.00161851
-0.00180763
0.000189124
0.000675601
-0.00372265
-0.00115367
0.00134074
-0.00488885
0.00354811
-0.00091173
0.00357314
0.000118578
-7.86405e-05
-3.99376e-05
0.00473564
-0.00361268
-0.000315985
-0.00152559
-0.00400936
-0.00149874
0.00209336
0.000699503
-0.00100647
-0.000922272
-0.00450655
-0.00162615
-0.00036
0.00124208
-0.000932286
-0.000309791
-0.00149731
-0.00108767
0.000654861
0.00225917
-0.00291403
-0.000114194
0.00067072
-0.000715992
3.88315e-05
-0.00246205
0.00196645
0.0013941
-0.000686041
0.0016309
-0.000944861
-8.68512e-05
-0.000116937
0.000316305
-0.00194841
0.000452055
0.00161618
-0.0023087
0.000692516
-0.00333778
0.00258628
0.000751488
0.00120446
0.00240745
-0.00361191
-0.00175464
0.00104905
-0.00294293
-0.00102136
-0.000784526
-0.00255325
-0.00167797
0.0012556
0.000422377
0.0017672
-4.81489e-05
-0.000760446
-0.00243574
0.00319618
-0.000665713
0.00291349
-0.00225863
-0.000858537
-0.00394759
0.00480614
-0.0023429
0.00234159
1.31164e-06
-0.000786052
-0.00156535
0.00054509
-0.00240565
0.00381799
-0.00141235
0.00323291
0.00288522
0.000194337
3.62189e-05
-0.000230556
0.00234056
-0.000602338
-0.00173822
0.000188192
-0.000184148
-0.00358791
0.00492865
-0.00328962
0.00523827
-0.00194865
-0.00351033
-0.00150967
-0.000916552
0.00323163
-0.00231508
0.0028575
0.00177397
-0.00417963
-0.00499354
-0.00014756
-0.000781105
0.00284488
-0.00206377
-0.000431648
0.000378785
-0.000532531
0.00167713
-0.0011446
-0.00402582
0.00334187
0.000683943
-0.00327023
0.00235368
-0.00386715
0.000672875
0.00319427
0.00141032
-0.00101484
-0.000395483
-0.00589957
0.000696656
0.00184693
-0.00141132
-0.000435609
0.00144159
-0.000415328
-0.00102626
7.83782e-05
0.000129409
0.0029302
-0.000631327
-0.000215919
-0.00348769
-0.000379462
0.000428701
-0.0030564
-0.00096942
-0.00233695
-5.94753e-06
-0.00292141
0.00229157
0.000720165
0.00260217
-0.00332234
0.000586105
-0.000861171
0.00140961
-0.00671667
0.00530706
-0.00576901
0.000986897
-0.00233351
0.00353797
0.00069613
0.000257597
-0.00273321
0.00345337
-8.76374e-05
0.00506582
0.000606343
0.00171212
-0.00231847
-0.00177615
0.00124362
0.00274824
-0.00369486
0.000946613
0.00509961
0.000675706
0.00154542
0.000317692
0.00038463
-0.000364062
-0.000404828
0.000180994
-0.00174834
0.00176684
-0.00088886
0.000885954
0.000583997
-0.000581393
0.00300985
-0.00242845
-0.00150675
0.00184198
-0.000335221
-0.00489224
0.00380331
0.00108893
-0.00479519
0.00150557
-4.1644e-05
3.80594e-05
3.58466e-06
-0.00281257
-0.000853887
0.00108991
-0.00129689
0.000206985
0.00135024
-0.00493816
0.00116492
-1.566e-05
0.00123529
0.000694
0.00218918
-0.00366682
0.000854264
0.000187458
-0.00503704
0.00189995
0.00123073
0.000677898
-0.00527342
-0.000492139
0.0056502
0.00118694
0.00710751
-0.00218468
-0.00492282
0.000792349
-0.000379806
-0.000412544
0.000710217
-0.00138578
0.000789646
-0.0038606
-0.00125647
0.000292509
-0.000948678
-0.000416019
0.0013647
0.00233211
0.00400854
-0.00486707
0.00270295
0.000834247
-0.0035372
0.00125125
-0.000965872
-0.00028538
0.000744839
0.00159572
-0.000135114
0.000138343
-3.22922e-06
-0.000709344
0.00288361
-0.00217427
0.00362081
0.00109108
-0.00126302
-0.000414954
0.00141289
-0.00151147
9.85743e-05
4.60014e-05
7.25767e-05
-0.0044776
0.000967265
-0.00165553
0.000441871
-0.00364937
0.00292672
-0.000952358
6.89841e-05
0.000933198
0.00268126
-0.00361446
0.000849578
-0.00126937
0.00418299
-0.00291362
0.000318964
0.000279881
4.65665e-05
-0.000326448
7.84324e-05
-0.00539161
0.00531318
-0.00263587
-0.00077402
0.00340989
-0.00348712
0.00261227
0.000874849
-0.00276598
-0.000259828
-0.00171473
-0.00490912
0.000899753
-0.00145699
-0.00087996
-0.00106257
0.00379254
0.00171054
-0.003726
0.00201547
0.000105662
2.15583e-05
0.00372491
-0.00201437
0.0028644
0.000952234
-0.00381662
-0.00130427
0.00174099
-0.000436717
0.00357324
0.00109697
-0.00467021
0.00717869
-0.00197464
-0.00520405
-0.0021285
-0.000710328
-0.00173683
0.00234317
0.00377265
-0.00492527
0.00115261
-0.00280356
0.00373675
0.00116081
-5.35693e-05
-0.00110724
0.00148121
0.000907736
-0.00550588
0.000601397
0.000439425
0.000352923
0.00292151
-0.00111959
-0.00252078
0.00248081
3.99717e-05
0.000504558
-0.00184082
0.00133626
-0.00387033
-0.00119209
0.00108792
-0.00254491
-0.00529912
0.000151322
-0.00125855
-0.000518727
0.00177728
0.00563369
-0.00449216
0.000104438
0.000284063
-0.00301867
0.00318446
0.00144098
-0.00107311
-0.000367875
0.00346869
0.00475627
-0.000952959
0.000635256
-0.00327112
0.00115691
-0.00104815
-5.28768e-05
0.000461479
0.000394051
-1.97032e-05
-0.00206717
-0.000445416
0.00153532
-0.000900846
-0.00349741
0.000764207
-2.81003e-05
-1.35438e-05
0.00599847
-0.00492081
0.00522035
-0.00439343
-2.52085e-05
-0.000677293
0.000702501
0.00194901
-0.000458139
-0.00149087
0.00335881
-0.000756634
-0.00256856
0.00336119
-0.000792631
-0.00183468
0.000530413
0.0012795
-0.000953207
-0.000326292
-0.000118768
-0.000210176
0.00205931
-0.00054797
-0.00151135
-0.00138085
-0.00239477
-0.000126002
0.00209033
-0.002746
0.000655668
0.00280683
-0.000750072
-0.00205676
0.00410328
-0.00435003
0.000313628
0.00223776
-0.000621581
-0.000681827
0.000835997
-0.00367468
0.00502492
0.00123873
0.000460725
-0.00171928
-0.00286137
0.00209749
0.00363244
0.0015879
-0.0011486
-0.00382528
-0.0011352
0.00130476
-0.00171803
0.000413271
0.00367575
-0.00318601
-0.000193997
0.00113594
-3.87364e-05
-0.000271258
0.000309995
-0.000689659
-0.00190199
0.00377229
-0.00490653
0.00113424
-0.00186265
0.00235412
-0.000491471
-0.00115298
0.00213363
0.000749978
-0.00226321
0.00375425
-0.00149105
0.00150687
-0.00114343
-0.000363434
-0.00104506
0.000259009
0.000210613
-0.000441299
0.000230685
-0.000424867
-0.00123066
-0.00247834
0.00250569
-2.73528e-05
0.00144671
-0.00370993
0.00162652
-0.000370919
0.000364682
-0.000424081
5.93998e-05
-0.000827183
0.000593335
0.000233849
-0.000794467
-0.00284507
0.000821589
0.00202348
-0.00199289
-0.00081546
-0.000741821
0.00155728
-0.0052401
0.00389425
0.00134585
-0.00132289
0.00129768
-0.000576358
-0.000115958
0.000692316
0.00286889
-0.00073527
-0.000770211
-0.000160315
0.000930526
0.00184082
-0.0013801
0.0016978
-0.000393039
-0.000165984
-0.00063591
-0.00420353
0.00483945
-0.0013941
0.002831
0.00427651
-0.00239916
-7.91777e-05
0.00312294
-0.00473094
0.000732655
0.00158221
-0.00231486
0.00201601
-0.00279711
0.00198116
-0.000705836
-0.00127532
-0.00179619
0.000455655
0.00134053
0.00431516
0.00286354
-0.00551383
0.00133497
0.00417886
-0.00125093
-0.00398916
-0.000459945
-0.00133624
-0.00100424
-0.000561115
-0.001294
-0.000424027
0.00114141
-0.000531868
0.00151205
-0.000980185
-0.00175732
0.00129737
-0.000944237
-0.000207343
0.00115158
0.00217222
-0.00286755
0.000695338
-1.17663e-05
0.000206103
0.00103552
0.00605624
-0.00140762
-0.00464863
-0.00203486
-0.00187314
0.00134419
0.000528944
0.00127167
-0.000979
-0.000292672
-0.00229458
-0.00102344
0.00331802
-0.0026723
0.0035792
-0.000906899
-0.000918587
0.0011313
-2.52307e-06
-0.00112877
0.00376076
-0.0049348
0.00117404
0.0017477
-0.00135574
-0.000391958
0.00242707
-0.00122486
0.00273558
-0.000635917
-0.000191266
-0.00409021
0.00229342
-0.00179942
-0.000494006
0.000560241
-0.00200932
0.00144908
-0.00251855
-0.000836941
0.000860578
-0.00065869
-0.000201889
-0.000180311
-0.00364152
0.000969218
0.000669215
-0.0004586
0.0025952
0.000983997
0.000318466
0.0013101
0.000671058
-0.0016039
0.00233655
-0.00150743
0.000993717
0.000513716
0.00354621
-0.000681809
-0.00380955
0.00610265
-0.00114576
-0.00249082
0.00683144
-0.00434061
-0.000886972
0.00356824
-0.00414181
0.00093236
-0.00210099
0.00424899
-0.000682638
-0.00162606
-0.00244704
0.00171826
0.000728786
-0.00127885
0.000603292
-0.000602816
-4.75017e-07
-0.0013761
-0.000776631
-0.000153533
0.000930165
-0.00156446
0.00136722
0.000197246
0.0020418
0.000803079
6.25409e-05
-0.00129993
-0.000555382
-0.00083039
-0.00241907
-0.000472359
-0.00140078
-0.000171148
0.00159231
-0.000180664
0.00341134
-0.000514351
0.00133871
0.00019966
-0.000803228
-0.00101147
-0.00193025
0.00247682
-0.000546573
-0.00104899
-0.0057289
0.00351083
0.00149348
-0.000607525
0.00288808
-0.00121249
0.00095656
-0.0013592
-0.00453051
0.00588971
0.000620036
-0.00255029
0.000740398
-0.00368669
0.00270246
0.000984224
0.000894167
-0.00142603
0.00222835
-0.0031178
0.00088944
0.00119479
-0.00342939
0.0022346
0.000860397
0.00168842
-0.00254881
-0.000174431
0.00179294
0.00275067
0.001082
0.00361499
-0.000413515
0.00078301
0.0031589
-0.00402424
0.000979962
-0.00327453
0.000434779
0.00412499
0.00147964
-1.0597e-05
-0.00027627
0.000286866
-0.00619245
0.00385614
0.00233632
-0.000825468
-0.00261653
0.00344201
0.00263993
-0.00177953
-0.00369599
0.000892434
-0.00132173
-0.00043559
-0.000152735
0.00131949
0.00372451
0.0012232
0.000224661
0.00130933
-0.000993292
-0.000316035
0.000896378
0.000597102
-0.000313852
0.00376831
-0.00493249
0.00116418
0.00307512
-0.000846781
-0.00139904
0.0019036
0.00125965
-0.00355379
0.00229413
-0.00116649
0.00145653
0.000678225
-0.00213475
0.00019257
-0.000203168
0.00219944
-0.000861447
-0.00127205
0.000330327
0.000934394
-0.000350136
-0.000584257
0.00353212
-0.00227247
-0.000507297
0.00229346
-0.00178616
0.00102117
-0.00296545
0.00208764
0.000877817
0.000106932
-1.27032e-06
0.00466202
0.000541164
-0.00570161
-0.00519363
0.00392652
0.00126711
-0.00107598
-0.00269539
0.00377136
0.00222131
0.00372513
0.00282744
-0.00375291
0.000925464
-0.00147158
0.00110345
-0.000946366
0.00336913
-0.00242276
0.0014973
0.000562014
-0.00378493
-0.00240753
0.00106906
-0.00230465
0.00320927
-0.000904623
0.00342768
-0.000815402
0.000395853
-0.000803279
0.00254477
0.000882907
-0.000634734
0.00431049
-0.00130928
0.00171689
-0.00040762
0.00198587
-0.00128786
-0.000389579
0.0060769
-0.00491741
-0.00046092
0.000858319
-0.00246222
-0.00539151
-0.00172277
0.000413489
-0.000678162
0.000101803
-0.00086854
0.000212898
-0.00147008
0.000659163
0.00157859
-0.000905432
0.000135221
0.000804777
0.00251626
-0.00332105
-0.00109512
0.0018737
-0.00194701
-0.000474132
0.00196121
-0.00148708
-0.000874254
-0.00209119
-0.00195177
0.00147764
-0.00265778
0.00346255
-0.00164391
0.000579424
0.00106448
-0.000977488
0.00357268
0.00600297
-0.0023014
-0.00130382
-0.000418941
-0.00173922
0.00109966
0.000639559
0.000903883
-0.00451884
0.00361496
-0.00131302
0.000541865
0.000771148
-0.00403453
-0.0011591
0.000191902
-0.00113614
0.00193461
-0.000703874
-0.00134067
-0.00380218
0.00514286
0.00100338
7.103e-05
0.00329697
-0.00252831
-0.000768659
0.000154458
0.00128713
0.000877111
-0.000670383
-0.000206728
-0.00134816
-0.00101524
-0.0010724
0.00510624
-0.00403383
0.000631587
-0.00249424
0.000167711
0.00124518
0.00377251
-0.00495996
0.00118745
0.00287596
-0.00205438
0.000102066
-0.000168356
6.62896e-05
0.00102791
0.000138083
0.000104249
0.00235495
0.00370129
-0.000576588
-0.000817487
0.00139407
0.000652418
0.00177226
-0.00242467
0.00239935
-0.00171151
-0.000687842
0.000475447
0.00147356
0.000425972
-0.000510877
-0.000802137
0.000599611
-0.00532423
0.000690304
-2.97689e-05
-0.00115998
-0.00130767
-0.00378953
0.00509719
0.00103459
0.00143741
-0.00189554
0.00254674
-0.000395051
-0.0049088
0.00530385
0.000120802
-1.87357e-05
0.000644842
0.00128977
0.00272961
0.000940598
-0.0036702
0.00137553
0.0004714
0.00258778
-0.00364179
0.00454567
0.00277413
0.000843339
-0.00361747
0.00167352
-0.000853369
-0.000820149
0.00132875
-0.00101978
-0.00030897
0.000422892
0.00105829
-0.00470008
0.000218422
-6.74047e-06
0.00019931
0.00602276
-0.00128713
0.00152651
-0.00212885
0.00252503
-0.00182995
-0.000695086
0.00085393
-0.00254415
0.00169022
0.00523493
-0.00281685
-0.000924682
-0.00159311
0.00500975
0.00148597
-0.00178141
0.000295444
0.000499856
-0.000103716
-0.000396139
-0.00099223
-0.00314081
0.00413305
0.000742501
0.00181959
-0.00256209
0.00176752
-0.000281549
0.00224939
0.0014081
-0.000866237