/*--------------------------------*- C++ -*----------------------------------*\
  =========                 |
  \\      /  F ield         | OpenFOAM: The Open Source CFD Toolbox
   \\    /   O peration     | Website:  https://openfoam.org
    \\  /    A nd           | Version:  7
     \\/     M anipulation  |
\*---------------------------------------------------------------------------*/
FoamFile
{
    version     2.0;
    format      ascii;
    class       volVectorField;
    location    "50";
    object      U;
}
// * * * * * * * * * * * * * * * * * * * * * * * * * * * * * * * * * * * * * //

dimensions      [0 1 -1 0 0 0 0];

internalField   nonuniform List<vector> 
19600
(
(-0.0756806 0.000381616 -1.98474e-20)
(-0.00426851 -0.00279859 3.22734e-20)
(0.0777103 -0.00311154 3.08994e-20)
(0.135069 -0.00394029 1.49818e-20)
(0.210459 -0.00383038 2.88879e-20)
(0.255399 -0.00406431 1.19413e-20)
(0.312486 -0.0039181 -2.24776e-21)
(0.350959 -0.00391754 2.15957e-21)
(0.39385 -0.00376033 -9.36455e-21)
(0.426009 -0.00368822 -6.28504e-21)
(0.461156 -0.0035566 -4.32502e-22)
(0.486219 -0.00335846 -9.9539e-22)
(0.51697 -0.00344615 -2.61406e-21)
(0.537175 -0.00294674 1.58263e-21)
(0.562496 -0.00338203 -3.47201e-22)
(-0.075048 0.00113202 8.34038e-21)
(-0.00204334 -0.00838281 1.68887e-20)
(0.081226 -0.0093009 2.99085e-20)
(0.139911 -0.0117646 -6.50643e-20)
(0.216485 -0.011415 -7.37737e-20)
(0.262664 -0.0120945 -1.86289e-20)
(0.320872 -0.0116362 3.28244e-20)
(0.360529 -0.0116128 -1.70204e-20)
(0.404505 -0.0111191 1.86883e-20)
(0.437766 -0.0108893 1.0733e-20)
(0.474105 -0.0104521 -1.02419e-20)
(0.499903 -0.00988271 -7.3313e-21)
(0.532451 -0.0100458 -3.39268e-21)
(0.552365 -0.00864306 -3.64693e-21)
(0.580842 -0.0097771 2.93007e-21)
(-0.0737792 0.00184421 2.53383e-19)
(0.00240096 -0.0139279 -2.77244e-19)
(0.0882323 -0.0153891 -1.23038e-19)
(0.149537 -0.0194208 7.24495e-20)
(0.228434 -0.0187729 1.68612e-19)
(0.277025 -0.0198325 1.21215e-20)
(0.337394 -0.0190049 -1.28843e-20)
(0.379318 -0.0188954 -8.21346e-21)
(0.425337 -0.018003 -3.39388e-20)
(0.46067 -0.0175761 -1.09735e-20)
(0.499173 -0.0167177 1.89038e-20)
(0.526348 -0.0158438 1.17691e-20)
(0.562066 -0.0158105 1.81663e-20)
(0.581463 -0.0137658 6.23034e-21)
(0.615485 -0.015136 -2.00474e-21)
(-0.0718667 0.00249365 -4.29154e-19)
(0.00905223 -0.0194069 3.29491e-19)
(0.0986795 -0.0213091 -2.85365e-19)
(0.163834 -0.0267985 -1.71184e-19)
(0.2461 -0.0257578 -3.40751e-20)
(0.298152 -0.0270929 5.07998e-20)
(0.361564 -0.0258068 -1.37354e-20)
(0.40664 -0.0255138 -1.22212e-20)
(0.45542 -0.0241312 7.23255e-21)
(0.493542 -0.0234444 1.92744e-21)
(0.534783 -0.0220083 6.11475e-21)
(0.563802 -0.0209145 -1.15777e-20)
(0.603295 -0.0203204 -2.11734e-20)
(0.622072 -0.0179901 -9.52873e-21)
(0.662668 -0.0189852 4.51121e-21)
(-0.0692993 0.00305732 3.89301e-19)
(0.0178921 -0.0247918 -3.60671e-21)
(0.112493 -0.026994 4.20764e-19)
(0.182633 -0.0337908 2.04076e-20)
(0.269179 -0.0322313 -1.88923e-19)
(0.32556 -0.0337049 -1.2063e-19)
(0.392672 -0.0318476 -1.93519e-20)
(0.441506 -0.0312497 3.01178e-20)
(0.493438 -0.0292735 7.55401e-20)
(0.534725 -0.0282459 -2.3836e-20)
(0.578764 -0.0260798 -1.18827e-21)
(0.609844 -0.0248371 1.81899e-20)
(0.652775 -0.0233356 2.1867e-21)
(0.670988 -0.0210728 8.90542e-21)
(0.717545 -0.0211162 -1.44764e-20)
(-0.0660625 0.0035145 -3.00195e-19)
(0.0288958 -0.0300533 -3.7175e-19)
(0.129573 -0.0323776 -2.32573e-20)
(0.205709 -0.0402948 1.01954e-19)
(0.297275 -0.038066 1.79951e-19)
(0.358622 -0.0395176 1.33146e-19)
(0.429819 -0.0369641 3.77326e-20)
(0.482679 -0.0359305 2.42769e-20)
(0.537775 -0.0332638 -1.15651e-19)
(0.582194 -0.0318059 2.35431e-20)
(0.628555 -0.0288088 -1.45185e-20)
(0.661611 -0.0274456 -2.00423e-20)
(0.706746 -0.024818 -8.24765e-21)
(0.724567 -0.0228778 3.0027e-21)
(0.774969 -0.0215911 3.17593e-21)
(-0.0621379 0.00384693 -3.24529e-19)
(0.0420321 -0.0351603 -1.89233e-19)
(0.149796 -0.0373944 -3.83305e-19)
(0.232786 -0.0462141 3.23643e-19)
(0.329907 -0.0431476 -1.89897e-19)
(0.39659 -0.044405 5.29947e-20)
(0.471944 -0.0410306 8.06312e-20)
(0.528731 -0.0394373 1.2278e-20)
(0.586615 -0.0360093 5.95661e-20)
(0.633711 -0.0340366 -3.0692e-20)
(0.681456 -0.0301927 2.11207e-20)
(0.716051 -0.0286856 2.44581e-20)
(0.761527 -0.0249106 1.45536e-20)
(0.779122 -0.0233981 -4.88145e-21)
(0.830278 -0.0206894 9.11403e-21)
(-0.0575036 0.00403691 9.65199e-19)
(0.0572621 -0.0400769 8.03952e-19)
(0.173015 -0.04198 -2.49955e-19)
(0.26354 -0.0514596 -3.15262e-19)
(0.366521 -0.0473788 2.14228e-19)
(0.438615 -0.0482709 -7.25876e-20)
(0.517876 -0.0439643 -9.8346e-21)
(0.578121 -0.0417116 -4.66823e-20)
(0.638057 -0.0374914 -6.97955e-22)
(0.686983 -0.0349438 1.84495e-20)
(0.734862 -0.0303328 3.96e-20)
(0.770203 -0.0286236 -1.16062e-20)
(0.813939 -0.0238817 9.82114e-21)
(0.831303 -0.0227602 -1.44116e-20)
(0.879901 -0.0188199 7.552e-21)
(-0.0521329 0.00406659 -8.00159e-19)
(0.074539 -0.0447614 -6.17651e-19)
(0.199056 -0.0460716 9.49366e-19)
(0.297598 -0.0559522 -1.54317e-19)
(0.406495 -0.0506816 -1.93649e-19)
(0.483773 -0.0510522 -7.67625e-20)
(0.566377 -0.0457285 -1.0833e-19)
(0.629271 -0.0427567 6.14561e-20)
(0.690236 -0.0377625 -5.51099e-20)
(0.739832 -0.0346236 1.01293e-19)
(0.786471 -0.0294064 -6.42617e-20)
(0.821469 -0.0274403 3.35155e-20)
(0.86159 -0.0220555 -2.30948e-20)
(0.878442 -0.0212043 2.88612e-21)
(0.921681 -0.0164241 6.10608e-22)
(-0.0459993 0.00393783 3.22644e-19)
(0.0938123 -0.0491841 2.76802e-19)
(0.227724 -0.049609 -1.4583e-19)
(0.334547 -0.059624 5.69675e-19)
(0.44916 -0.0529999 -1.21237e-19)
(0.531093 -0.0527215 -4.23958e-20)
(0.616197 -0.0463333 4.36424e-20)
(0.680654 -0.042635 -2.81801e-20)
(0.74143 -0.036936 5.83732e-20)
(0.790352 -0.0332476 -1.28863e-20)
(0.834427 -0.0276356 4.91789e-20)
(0.867843 -0.0253993 -9.35492e-21)
(0.902981 -0.0197501 1.84764e-20)
(0.918793 -0.0190373 3.03636e-21)
(0.95487 -0.0138768 2.54541e-20)
(-0.0390753 0.00365716 4.31165e-19)
(0.11502 -0.0533133 -1.35736e-19)
(0.258799 -0.0525349 -1.16438e-19)
(0.373938 -0.0624212 -3.64961e-19)
(0.49381 -0.0543018 5.44089e-19)
(0.579597 -0.0532881 -8.70045e-20)
(0.666123 -0.0458339 -8.70837e-20)
(0.73087 -0.0414605 -1.56262e-19)
(0.790156 -0.0351728 -1.71155e-20)
(0.837028 -0.0310381 -1.26546e-19)
(0.877412 -0.0252594 1.4309e-20)
(0.90805 -0.0228007 -4.81176e-20)
(0.937462 -0.017237 -1.87333e-20)
(0.951606 -0.0165713 -6.05031e-21)
(0.979852 -0.0114575 -1.34502e-21)
(-0.0313267 0.0032209 -1.88855e-18)
(0.138089 -0.0571005 2.01866e-19)
(0.292039 -0.0547967 -6.09426e-19)
(0.415289 -0.0643053 2.74792e-19)
(0.539723 -0.0545811 -2.55155e-19)
(0.628325 -0.0527969 3.48985e-19)
(0.715037 -0.0443258 -1.61825e-19)
(0.778714 -0.0393864 1.11569e-19)
(0.835243 -0.0326651 1.15759e-19)
(0.878811 -0.0282377 4.85975e-20)
(0.914657 -0.0225099 -8.94911e-20)
(0.94156 -0.01993 -2.47152e-20)
(0.965095 -0.0147219 -1.99701e-20)
(0.977025 -0.0140698 -3.35791e-20)
(0.997762 -0.00932245 -2.00716e-20)
(-0.0227186 0.00263532 2.4388e-18)
(0.162935 -0.0604997 1.03937e-19)
(0.32718 -0.0563476 -4.91038e-20)
(0.458099 -0.0652554 -5.59412e-19)
(0.586178 -0.0538581 -3.05856e-20)
(0.676376 -0.0513254 8.30267e-20)
(0.761955 -0.0419371 2.4564e-19)
(0.823227 -0.0365906 -3.91824e-20)
(0.875869 -0.029617 -1.3856e-19)
(0.915126 -0.0250805 -1.09029e-20)
(0.945913 -0.0195926 3.79472e-20)
(0.968483 -0.0170203 2.40194e-21)
(0.986448 -0.0123413 4.42077e-20)
(0.995846 -0.011716 3.14535e-20)
(1.01005 -0.00751158 1.17943e-20)
(-0.0132154 0.00191544 -2.56983e-18)
(0.189464 -0.0634659 -1.19269e-18)
(0.363936 -0.0571487 7.51029e-19)
(0.501852 -0.0652693 6.03558e-19)
(0.632475 -0.052179 -1.15045e-19)
(0.722939 -0.0489785 7.00508e-20)
(0.80607 -0.0388186 -1.93674e-19)
(0.863724 -0.03326 5.64946e-22)
(0.91157 -0.026227 7.04106e-20)
(0.94583 -0.0217697 1.4225e-20)
(0.971362 -0.0166728 2.9568e-20)
(0.9894 -0.0142342 -4.49357e-20)
(1.0024 -0.0101689 3.82579e-20)
(1.00922 -0.00960651 -1.07563e-20)
(1.01817 -0.00600244 -2.32047e-20)
(-0.00278153 0.00108278 1.5489e-18)
(0.217569 -0.0659545 2.94806e-19)
(0.402003 -0.0571701 -8.83644e-19)
(0.546031 -0.0643641 -1.50563e-19)
(0.67796 -0.0496136 3.55911e-19)
(0.767316 -0.0458815 -1.07552e-19)
(0.846772 -0.035132 -1.45895e-19)
(0.899797 -0.0295755 -9.35772e-21)
(0.942211 -0.0226712 -1.82064e-19)
(0.971133 -0.0184648 1.04752e-19)
(0.991508 -0.0138674 -1.29635e-19)
(1.00516 -0.0116639 7.37847e-20)
(1.01395 -0.00822874 -4.8545e-20)
(1.01838 -0.0077673 5.2093e-20)
(1.02337 -0.00473646 3.76203e-20)
(0.00861798 0.000165275 1.63365e-19)
(0.247131 -0.0679212 1.34538e-18)
(0.441062 -0.0563932 4.63393e-19)
(0.590131 -0.0625763 -9.44059e-19)
(0.722039 -0.0462525 -5.47012e-19)
(0.808948 -0.0421724 4.64681e-19)
(0.883658 -0.0310388 -1.17913e-20)
(0.931294 -0.0256997 1.05094e-19)
(0.967936 -0.0190935 1.53458e-19)
(0.991497 -0.0152777 -1.05588e-19)
(1.00705 -0.0112459 -3.87397e-20)
(1.01672 -0.00934408 7.79988e-21)
(1.02209 -0.00650984 1.28611e-21)
(1.02445 -0.0061773 -5.21333e-20)
(1.02661 -0.00364672 1.05322e-20)
(0.0210164 -0.000802641 -7.00099e-19)
(0.278014 -0.069324 -6.63599e-19)
(0.480783 -0.054812 8.24317e-19)
(0.633666 -0.0599607 2.67789e-19)
(0.764197 -0.0422017 -7.20975e-19)
(0.847422 -0.0379928 -3.35744e-19)
(0.916522 -0.0266895 1.7585e-19)
(0.958287 -0.0217687 3.96113e-20)
(0.989095 -0.0156 3.21649e-20)
(1.00753 -0.0122755 1.51893e-19)
(1.01875 -0.00883717 1.91617e-19)
(1.02499 -0.00726935 -2.22371e-20)
(1.02767 -0.00498168 4.81594e-20)
(1.02837 -0.00479221 1.58913e-20)
(1.02859 -0.002675 -2.01154e-20)
(0.0344442 -0.00178014 7.9623e-19)
(0.310069 -0.0701245 -2.95343e-19)
(0.52083 -0.0524338 -6.70846e-19)
(0.67619 -0.0565879 1.65415e-19)
(0.804014 -0.0375772 1.43459e-19)
(0.882472 -0.0334803 3.14067e-19)
(0.945338 -0.022216 1.65184e-19)
(0.981019 -0.0178881 -1.70593e-20)
(1.00617 -0.0122597 -1.58824e-19)
(1.0199 -0.00948873 2.39238e-20)
(1.02737 -0.00664032 -3.95196e-20)
(1.03077 -0.00541134 3.37887e-20)
(1.03143 -0.00360621 -6.15066e-20)
(1.03084 -0.00356213 2.42545e-20)
(1.02978 -0.00177764 -3.03208e-20)
(0.048927 -0.00272023 -2.90571e-19)
(0.343132 -0.0702899 1.84611e-20)
(0.560867 -0.0492806 -9.43928e-19)
(0.717302 -0.0525417 5.51867e-20)
(0.841168 -0.0324985 5.74678e-19)
(0.913975 -0.0287613 -2.18985e-19)
(0.970226 -0.0177269 -1.36239e-20)
(0.999852 -0.0141324 -2.08312e-19)
(1.01971 -0.00911007 2.5645e-19)
(1.02927 -0.00692053 -8.74871e-20)
(1.0336 -0.00463591 4.30337e-21)
(1.03474 -0.00373185 1.03108e-19)
(1.0339 -0.00234634 1.35646e-20)
(1.03235 -0.00244177 -1.81425e-20)
(1.03048 -0.000925267 2.05802e-20)
(0.0644848 -0.00357046 -1.55537e-18)
(0.377028 -0.0697936 -3.83684e-19)
(0.600567 -0.0453881 -4.97206e-19)
(0.756655 -0.047915 1.671e-19)
(0.875441 -0.0270828 -9.27678e-20)
(0.94193 -0.023946 4.15368e-19)
(0.991422 -0.0133051 -1.46333e-19)
(1.01522 -0.0105481 1.39194e-19)
(1.03027 -0.0061631 -3.88859e-19)
(1.03623 -0.00455647 -4.53121e-20)
(1.03801 -0.00279548 1.69928e-20)
(1.03742 -0.00219189 -1.11841e-19)
(1.03549 -0.00117054 5.33109e-20)
(1.03326 -0.00139472 1.79053e-20)
(1.03089 -0.000100004 1.98289e-20)
(0.0811302 -0.00427382 1.58178e-18)
(0.411567 -0.0686178 -7.96431e-19)
(0.639619 -0.040805 2.97055e-19)
(0.793968 -0.0428054 -4.14729e-19)
(0.906711 -0.0214398 4.28139e-20)
(0.966441 -0.0191259 -5.41409e-19)
(1.00923 -0.00900952 1.83509e-21)
(1.02758 -0.00715855 1.02036e-19)
(1.03838 -0.00341344 1.93788e-21)
(1.04133 -0.00237262 -9.43965e-20)
(1.04107 -0.00108837 -9.25336e-20)
(1.03918 -0.000756653 -4.06793e-20)
(1.03649 -5.43773e-05 -2.22872e-20)
(1.03379 -0.000393744 -4.42722e-20)
(1.03111 0.000707951 5.05243e-21)
(0.0988666 -0.00476983 3.79776e-19)
(0.446551 -0.0667537 2.39321e-19)
(0.677735 -0.0355913 1.83157e-18)
(0.829025 -0.0373114 1.71499e-19)
(0.934946 -0.0156676 -1.71436e-19)
(0.987689 -0.0143721 8.23655e-20)
(1.02401 -0.00487744 -1.37468e-19)
(1.03738 -0.00396934 7.78319e-20)
(1.04451 -0.000844923 1.92407e-19)
(1.04499 -0.000341622 -5.77215e-20)
(1.04316 0.000514046 -5.9794e-20)
(1.04031 0.000602328 2.24188e-20)
(1.03709 0.00101976 9.3317e-20)
(1.03407 0.000580516 1.21637e-20)
(1.03122 0.00150306 -6.95055e-21)
(0.117687 -0.00499605 -2.27364e-19)
(0.481775 -0.0642032 2.12331e-18)
(0.714653 -0.0298155 -2.34997e-19)
(0.861677 -0.0315281 -2.37336e-19)
(0.960189 -0.00985031 -5.78155e-19)
(1.00591 -0.00973697 -2.12796e-19)
(1.03612 -0.000928386 -1.06085e-19)
(1.04504 -0.00097392 3.58153e-19)
(1.04906 0.00156402 6.38154e-20)
(1.04755 0.00156337 2.11342e-20)
(1.04453 0.00203635 9.41248e-20)
(1.04101 0.00190683 -6.74881e-21)
(1.03742 0.00206389 -8.28828e-20)
(1.03421 0.0015415 -9.96532e-21)
(1.03126 0.00228618 3.10707e-20)
(0.137572 -0.00488972 2.05813e-18)
(0.517031 -0.0609786 -6.95275e-19)
(0.75015 -0.0235521 -9.62223e-19)
(0.891838 -0.025544 1.14003e-18)
(0.982546 -0.00405705 4.60236e-19)
(1.02138 -0.00525578 1.0753e-19)
(1.04593 0.00283166 4.8393e-20)
(1.05095 0.00184184 -5.59585e-19)
(1.05238 0.00383652 -2.03948e-19)
(1.04931 0.0033664 2.58185e-21)
(1.04541 0.00349846 8.58617e-20)
(1.04141 0.00317261 6.83372e-20)
(1.03757 0.00308597 1.23038e-19)
(1.03424 0.00249834 -2.36304e-20)
(1.03125 0.00305538 -1.07803e-19)
(0.158489 -0.00438971 -2.5697e-18)
(0.552114 -0.0571025 2.86373e-19)
(0.784039 -0.0168779 2.05286e-18)
(0.91948 -0.0194387 -8.10584e-19)
(1.00217 0.00165809 3.70228e-19)
(1.03438 -0.000949521 4.71497e-19)
(1.05376 0.00640633 -5.89902e-21)
(1.05543 0.00449595 -8.92136e-20)
(1.05475 0.00599478 7.9405e-20)
(1.05046 0.00508774 4.7276e-20)
(1.04592 0.00491579 -1.09744e-19)
(1.04161 0.00441041 -6.84437e-20)
(1.0376 0.00409124 -9.89308e-20)
(1.03421 0.00345707 2.26736e-21)
(1.0312 0.00380661 1.43786e-19)
(0.180393 -0.00343858 1.93901e-18)
(0.586823 -0.0526073 -3.22209e-20)
(0.816175 -0.00986964 -2.39685e-18)
(0.944625 -0.0132815 -1.73954e-19)
(1.01924 0.00725474 2.40745e-19)
(1.04519 0.00317211 -3.38357e-19)
(1.05994 0.00980554 2.46454e-19)
(1.05877 0.00700769 1.50538e-19)
(1.05638 0.00805866 2.57592e-19)
(1.05117 0.00674375 2.25213e-20)
(1.04618 0.0062999 9.00321e-20)
(1.04165 0.00562711 2.92277e-20)
(1.03753 0.0050834 7.6629e-20)
(1.03413 0.00442174 2.07662e-20)
(1.0311 0.00453584 2.84753e-21)
(0.203223 -0.00198463 -3.65794e-18)
(0.620967 -0.0475338 -1.91979e-18)
(0.84645 -0.00260092 -5.36753e-19)
(0.967335 -0.00713033 4.27182e-19)
(1.03397 0.0127046 -8.04004e-19)
(1.05409 0.00710793 1.29902e-19)
(1.06472 0.0130428 -1.8642e-19)
(1.06118 0.00939582 4.15181e-19)
(1.05744 0.0100451 -3.78378e-19)
(1.05154 0.00834715 -4.2883e-20)
(1.04625 0.00765913 -4.83268e-20)
(1.04159 0.00682661 -4.99497e-20)
(1.0374 0.0060652 -1.25733e-19)
(1.03402 0.00539618 1.76334e-20)
(1.03097 0.00524227 -1.34028e-19)
(0.226906 1.60361e-05 5.68086e-19)
(0.654368 -0.0419293 -1.38751e-19)
(0.874797 0.00485966 -4.03811e-19)
(0.987706 -0.00103268 4.67642e-19)
(1.04656 0.0179895 -8.43369e-20)
(1.06132 0.0108628 -6.77875e-20)
(1.06836 0.0161331 3.00108e-19)
(1.06287 0.0116776 -3.35484e-19)
(1.05807 0.011968 2.43734e-19)
(1.05167 0.00990754 1.10491e-19)
(1.04619 0.00899933 -1.42024e-19)
(1.04144 0.00801058 -6.84693e-20)
(1.03722 0.00703914 5.69083e-20)
(1.03387 0.00638644 4.83992e-20)
(1.03078 0.00592678 8.60416e-21)
(0.251352 0.00259775 -1.05361e-18)
(0.686866 -0.0358459 3.46851e-19)
(0.901184 0.01245 -2.10049e-19)
(1.00586 0.00497424 -9.11764e-19)
(1.05722 0.0230995 4.47811e-19)
(1.06713 0.0144453 -2.44844e-20)
(1.07105 0.0190917 -3.54673e-19)
(1.06398 0.0138682 1.70129e-19)
(1.05838 0.0138383 2.02647e-20)
(1.05162 0.011432 2.13314e-20)
(1.04602 0.0103244 4.41243e-20)
(1.04122 0.00917885 7.59961e-20)
(1.03701 0.0080086 1.31873e-20)
(1.03367 0.0073997 -3.69171e-20)
(1.03053 0.00657426 4.54183e-20)
(0.276463 0.00578378 2.27506e-18)
(0.71832 -0.0293385 1.74907e-18)
(0.925608 0.0201152 -8.9522e-19)
(1.02192 0.0108622 1.06642e-18)
(1.06615 0.0280306 -4.57695e-19)
(1.07172 0.0178668 -5.51557e-21)
(1.07295 0.0219332 1.66051e-19)
(1.06463 0.0159806 1.23353e-19)
(1.05842 0.0156647 9.58599e-20)
(1.05143 0.0129256 2.17106e-19)
(1.04577 0.0116367 4.74738e-20)
(1.04095 0.0103302 4.18878e-20)
(1.03677 0.00897949 -3.93552e-20)
(1.03343 0.00843155 -1.98636e-21)
(1.03026 0.00711777 1.69707e-20)
(0.302128 0.00958537 -2.29013e-18)
(0.748611 -0.0224628 -1.73285e-18)
(0.948093 0.0278081 9.15425e-19)
(1.03604 0.0166108 -1.07929e-18)
(1.07356 0.0327838 -2.02353e-19)
(1.07528 0.0211393 3.89536e-19)
(1.07422 0.0246708 1.27271e-19)
(1.06493 0.0180257 -4.99993e-19)
(1.05827 0.0174532 -8.94597e-20)
(1.05113 0.0143918 -1.26431e-19)
(1.04546 0.0129371 7.51822e-20)
(1.04064 0.0114632 -3.85649e-20)
(1.0365 0.00995896 -1.95509e-20)
(1.03316 0.00944343 -5.81838e-20)
(1.03004 0.00749772 -1.69511e-20)
(0.328229 0.0140013 1.05578e-18)
(0.777638 -0.0152736 1.73603e-18)
(0.968686 0.0354886 -1.41961e-18)
(1.04837 0.0222061 6.03741e-20)
(1.07961 0.0373629 2.10247e-19)
(1.07795 0.0242753 -3.49669e-19)
(1.07498 0.0273163 -1.94814e-19)
(1.06494 0.0200121 1.67791e-19)
(1.05796 0.0192086 -2.2117e-19)
(1.05074 0.0158331 -3.0055e-20)
(1.04509 0.0142256 -4.0583e-20)
(1.04028 0.0125779 1.67265e-20)
(1.03621 0.010948 5.04286e-20)
(1.03286 0.0103749 9.28502e-20)
(1.02989 0.00831042 -4.29541e-20)
(0.354643 0.0190183 -5.99138e-19)
(0.805326 -0.00782339 1.6066e-19)
(0.987449 0.0431238 2.03768e-18)
(1.05904 0.0276393 3.79439e-19)
(1.08448 0.0417743 7.20021e-19)
(1.07988 0.0272868 6.97001e-20)
(1.0753 0.0298797 -9.10525e-21)
(1.06473 0.0219468 -3.32855e-20)
(1.05752 0.0209339 2.83325e-19)
(1.05028 0.0172511 -8.37013e-20)
(1.04467 0.0155014 5.00198e-21)
(1.03989 0.0136751 -2.75061e-20)
(1.03589 0.0119374 -4.44992e-20)
(1.03254 0.0112752 -5.55494e-20)
(1.0297 0.00905502 -2.43393e-21)
(0.381244 0.0246115 3.7031e-18)
(0.831616 -0.000161262 -1.7316e-19)
(1.00446 0.0506865 -1.3322e-18)
(1.06821 0.0329061 -4.14897e-19)
(1.0883 0.0460255 -4.92019e-19)
(1.08119 0.0301853 2.12834e-19)
(1.07528 0.0323696 1.96272e-19)
(1.06433 0.0238353 -5.14716e-20)
(1.05698 0.0226311 9.63236e-20)
(1.04976 0.0186464 3.43636e-20)
(1.0442 0.0167635 4.95812e-20)
(1.03946 0.0147551 4.96117e-20)
(1.03553 0.0129237 3.89744e-20)
(1.0322 0.0121379 -3.40339e-21)
(1.02946 0.00983709 1.20352e-19)
(0.407907 0.0307462 1.81503e-18)
(0.856472 0.00766755 4.22596e-20)
(1.01979 0.0581552 2.33027e-18)
(1.07601 0.038005 1.72445e-19)
(1.09121 0.0501246 3.86967e-19)
(1.08198 0.0329811 -3.16627e-20)
(1.07498 0.034793 -2.49744e-19)
(1.06379 0.0256818 -1.34288e-19)
(1.05636 0.0243014 1.42546e-20)
(1.04918 0.0200196 -2.84904e-20)
(1.04369 0.0180108 -1.10398e-19)
(1.039 0.0158181 -2.47682e-20)
(1.03515 0.0139024 -6.49501e-21)
(1.03184 0.012976 3.90636e-20)
(1.02918 0.0106254 -7.23062e-21)
(0.434509 0.0373796 -4.94858e-18)
(0.879874 0.0156222 -2.8118e-19)
(1.03354 0.0655124 -1.98367e-18)
(1.08257 0.0429373 -6.27297e-20)
(1.09333 0.0540801 -3.44713e-19)
(1.08232 0.0356835 -3.99104e-19)
(1.07444 0.0371555 2.46934e-19)
(1.06313 0.0274891 8.45754e-20)
(1.05566 0.0259453 -3.13907e-19)
(1.04856 0.0213706 -4.96172e-20)
(1.04314 0.0192418 -1.23757e-20)
(1.03851 0.0168641 -3.14736e-20)
(1.03473 0.0148708 1.81673e-20)
(1.03146 0.0137928 -4.539e-20)
(1.02886 0.0114147 -1.27721e-19)
(0.460934 0.0444635 -2.12738e-18)
(0.901816 0.0236666 6.33333e-19)
(1.0458 0.0727449 9.17535e-19)
(1.08801 0.0477058 -2.27439e-19)
(1.09476 0.0579 -4.05965e-19)
(1.08229 0.0383007 2.34851e-19)
(1.0737 0.0394616 -3.8354e-20)
(1.06236 0.0292596 4.89443e-19)
(1.05489 0.0275628 1.89244e-19)
(1.04789 0.022699 1.70288e-19)
(1.04255 0.0204554 -1.33981e-20)
(1.03799 0.0178929 3.76863e-20)
(1.03428 0.0158266 -4.08273e-20)
(1.03105 0.0145917 1.91512e-20)
(1.02851 0.0121995 9.05099e-20)
(0.487074 0.0519462 2.12171e-18)
(0.922308 0.0317687 -1.99779e-18)
(1.05666 0.0798421 -1.37874e-18)
(1.09243 0.0523147 2.15019e-19)
(1.0956 0.0615923 5.31888e-19)
(1.08195 0.0408398 -1.54106e-19)
(1.0728 0.0417147 -1.64978e-19)
(1.06151 0.0309945 -3.19482e-19)
(1.05406 0.0291536 -6.53421e-20)
(1.04718 0.0240045 -1.7602e-19)
(1.04192 0.0216504 -7.03258e-20)
(1.03744 0.0189041 -3.09426e-20)
(1.0338 0.0167679 6.46913e-21)
(1.03062 0.0153742 1.47449e-20)
(1.02813 0.0129761 -2.88576e-20)
(0.512828 0.0597755 -3.92835e-19)
(0.941368 0.0399011 1.73683e-18)
(1.0662 0.0867962 1.4144e-18)
(1.09595 0.0567691 6.15304e-19)
(1.09591 0.0651642 1.18636e-19)
(1.08135 0.0433069 2.7021e-19)
(1.07177 0.0439172 1.09478e-19)
(1.06058 0.0326949 6.18778e-20)
(1.05318 0.0307169 -1.67801e-19)
(1.04643 0.0252862 6.91753e-20)
(1.04125 0.0228255 4.99838e-20)
(1.03686 0.0198972 5.96451e-20)
(1.03329 0.0176933 4.0566e-20)
(1.03017 0.0161409 -1.46358e-20)
(1.02772 0.0137419 1.15087e-20)
(0.53811 0.0679011 2.1489e-18)
(0.959027 0.0480403 -1.20222e-18)
(1.07452 0.0936012 -2.87358e-19)
(1.09866 0.0610745 -4.90472e-19)
(1.09578 0.0686223 -4.81048e-20)
(1.08052 0.045707 -1.90542e-19)
(1.07061 0.0460708 -1.31833e-20)
(1.05958 0.034361 -8.80006e-20)
(1.05225 0.0322521 2.35411e-19)
(1.04564 0.0265435 -7.80696e-20)
(1.04055 0.0239796 6.8713e-20)
(1.03625 0.0208717 3.2636e-20)
(1.03275 0.0186014 -3.10976e-20)
(1.02969 0.0168921 3.87358e-20)
(1.02729 0.0144953 -6.72978e-21)
(0.562842 0.0762762 1.64591e-18)
(0.97532 0.0561664 1.0013e-18)
(1.08171 0.100253 -1.07433e-18)
(1.10063 0.0652367 -1.44623e-19)
(1.09525 0.0719727 8.26806e-20)
(1.0795 0.0480443 -2.74657e-20)
(1.06935 0.0481767 -1.1984e-19)
(1.05852 0.0359929 3.70471e-20)
(1.05126 0.0337581 9.56353e-20)
(1.04481 0.0277756 3.91022e-20)
(1.03981 0.0251116 -1.65016e-20)
(1.03561 0.0218267 8.42668e-20)
(1.03218 0.0194913 1.70486e-20)
(1.02918 0.0176278 -1.55369e-20)
(1.02683 0.0152346 1.54907e-20)
(0.586957 0.08486 -1.60656e-18)
(0.990289 0.0642631 -1.89452e-18)
(1.08783 0.106748 8.78297e-19)
(1.10194 0.0692616 -4.0067e-20)
(1.09438 0.0752206 8.2871e-20)
(1.07832 0.050322 1.61024e-19)
(1.06799 0.0502352 2.51708e-19)
(1.05741 0.0375904 1.96483e-20)
(1.05023 0.035234 -9.81756e-20)
(1.04394 0.0289816 7.32108e-20)
(1.03903 0.0262205 -2.06819e-20)
(1.03494 0.0227616 -1.47698e-22)
(1.03158 0.0203618 2.66402e-20)
(1.02865 0.0183476 1.27575e-20)
(1.02635 0.0159589 -1.48511e-20)
(0.6104 0.0936181 -8.62819e-19)
(1.00398 0.0723167 1.17488e-18)
(1.09298 0.113085 6.06911e-19)
(1.10267 0.073155 -1.1077e-19)
(1.09322 0.0783704 -1.37204e-19)
(1.07699 0.0525429 -2.3049e-19)
(1.06656 0.0522466 -1.44395e-19)
(1.05624 0.039153 -1.35452e-19)
(1.04916 0.0366786 -7.46536e-20)
(1.04304 0.0301606 1.18262e-19)
(1.03823 0.0273053 -6.65031e-20)
(1.03425 0.0236757 -2.62061e-20)
(1.03096 0.021212 -6.14814e-20)
(1.0281 0.019051 -1.38624e-20)
(1.02584 0.016667 -1.26575e-20)
(0.633125 0.102523 7.61188e-19)
(1.01644 0.0803165 -3.50997e-19)
(1.09722 0.119262 -7.54787e-19)
(1.10287 0.0769226 -1.88464e-19)
(1.0918 0.0814261 9.49604e-20)
(1.07554 0.0547088 2.6054e-19)
(1.06505 0.0542106 8.53453e-20)
(1.05502 0.04068 1.10401e-19)
(1.04804 0.0380908 -1.55734e-20)
(1.0421 0.0313116 -4.77335e-20)
(1.03739 0.0283649 6.25155e-20)
(1.03352 0.024568 2.0652e-20)
(1.03031 0.0220412 1.54349e-20)
(1.02752 0.0197377 -3.04524e-21)
(1.02531 0.0173581 5.11527e-22)
(0.655093 0.111556 -1.72303e-19)
(1.02772 0.088254 -2.71924e-19)
(1.10061 0.125278 -4.04733e-19)
(1.10261 0.0805698 6.82981e-19)
(1.09015 0.0843907 -6.13833e-19)
(1.07397 0.0568213 -4.26391e-20)
(1.06347 0.0561265 -2.80014e-21)
(1.05375 0.0421707 6.52937e-20)
(1.04688 0.0394694 8.27485e-20)
(1.04113 0.0324338 -6.13719e-20)
(1.03651 0.0293985 -6.8354e-20)
(1.03277 0.0254378 -4.44411e-21)
(1.02963 0.0228485 4.00803e-21)
(1.02692 0.0204071 3.14486e-20)
(1.02476 0.0180313 1.18173e-20)
(0.676276 0.120703 2.28281e-19)
(1.03788 0.0961223 -2.62068e-19)
(1.10322 0.131134 9.25629e-20)
(1.10192 0.0841014 -2.14845e-19)
(1.08831 0.0872669 2.43438e-19)
(1.07231 0.058881 5.84221e-20)
(1.06183 0.0579936 -8.6255e-20)
(1.05244 0.0436243 -1.24436e-19)
(1.04567 0.0408133 3.47444e-20)
(1.04012 0.0335262 -3.55736e-21)
(1.03561 0.030405 8.67941e-20)
(1.03199 0.0262843 1.81118e-20)
(1.02892 0.0236331 -1.57456e-20)
(1.0263 0.0210585 -3.44425e-20)
(1.02419 0.0186858 -2.67569e-20)
(0.696647 0.129958 -1.02633e-18)
(1.04695 0.103916 1.15019e-19)
(1.10511 0.136829 7.3255e-20)
(1.10085 0.0875223 -1.16037e-19)
(1.08628 0.0900566 -4.09613e-19)
(1.07055 0.0608886 8.33251e-20)
(1.06012 0.059811 -6.95124e-20)
(1.05108 0.0450397 1.30958e-19)
(1.04443 0.0421211 -5.47541e-20)
(1.03908 0.0345879 5.85004e-20)
(1.03467 0.0313835 -2.63815e-20)
(1.03118 0.0271067 -3.51123e-20)
(1.02819 0.0243944 2.17091e-20)
(1.02566 0.0216915 5.8429e-21)
(1.0236 0.0193209 1.63172e-20)
(0.716185 0.139319 -7.85344e-19)
(1.055 0.111632 -8.9418e-20)
(1.10634 0.142364 4.08406e-20)
(1.09944 0.0908364 3.84845e-19)
(1.0841 0.0927612 5.4009e-19)
(1.06872 0.0628441 -7.1763e-20)
(1.05836 0.0615775 3.3301e-20)
(1.04967 0.0464161 -9.51167e-20)
(1.04314 0.0433919 -1.87316e-21)
(1.038 0.0356181 -4.39528e-20)
(1.03371 0.0323332 -2.60099e-20)
(1.03034 0.0279041 -6.78401e-21)
(1.02744 0.0251317 2.03725e-20)
(1.025 0.0223054 1.08672e-20)
(1.02299 0.0199359 -6.31327e-21)
(0.734875 0.148788 2.12376e-18)
(1.06206 0.119267 6.43737e-19)
(1.10695 0.147738 5.27471e-19)
(1.09773 0.0940476 -1.85226e-19)
(1.08178 0.0953816 1.80086e-19)
(1.0668 0.0647473 -2.15711e-19)
(1.05654 0.0632918 1.38799e-19)
(1.04823 0.0477523 -7.24355e-20)
(1.04182 0.0446244 1.68017e-20)
(1.0369 0.0366157 -3.15477e-20)
(1.03271 0.0332532 1.66312e-20)
(1.02948 0.0286759 1.70039e-20)
(1.02666 0.0258442 -2.60408e-20)
(1.02431 0.0228998 -1.31609e-20)
(1.02236 0.02053 8.35802e-21)
(0.752701 0.158371 -4.89278e-19)
(1.06818 0.126817 -7.01967e-19)
(1.10698 0.152953 -5.62806e-19)
(1.09574 0.097159 2.17099e-19)
(1.07934 0.0979184 -3.90396e-19)
(1.06481 0.0665976 5.51588e-20)
(1.05468 0.0649528 -3.46688e-20)
(1.04674 0.0490474 9.61227e-20)
(1.04046 0.0458173 1.17588e-20)
(1.03576 0.03758 2.70784e-20)
(1.03168 0.0341426 -1.40679e-20)
(1.0286 0.0294211 6.91319e-22)
(1.02586 0.0265314 1.0942e-20)
(1.02361 0.0234739 1.69704e-20)
(1.02171 0.0211026 1.09084e-21)
(0.769649 0.168073 6.08292e-19)
(1.0734 0.134281 5.42603e-19)
(1.10648 0.158008 7.89807e-19)
(1.0935 0.100173 -3.4576e-19)
(1.07677 0.100372 3.12142e-19)
(1.06276 0.0683943 1.40434e-19)
(1.05276 0.0665589 -1.13635e-19)
(1.04521 0.0503001 1.39319e-20)
(1.03907 0.0469696 4.12729e-20)
(1.03459 0.0385101 6.18028e-20)
(1.03063 0.0350005 6.2661e-21)
(1.02769 0.0301392 5.37073e-21)
(1.02503 0.0271926 9.48391e-21)
(1.02289 0.0240273 -5.08011e-21)
(1.02104 0.0216531 -1.0914e-20)
(0.785705 0.177899 -1.03352e-18)
(1.07776 0.141655 -3.09893e-19)
(1.10549 0.162903 -1.27196e-19)
(1.09103 0.103093 9.35531e-20)
(1.07411 0.102741 -3.08244e-19)
(1.06063 0.0701364 -1.70941e-19)
(1.05079 0.0681088 6.6806e-20)
(1.04364 0.0515095 -2.82591e-20)
(1.03764 0.0480801 -4.83129e-20)
(1.03339 0.0394051 -1.01396e-20)
(1.02955 0.0358261 -9.37746e-21)
(1.02676 0.0308293 6.89265e-21)
(1.02419 0.0278272 -4.74568e-21)
(1.02215 0.0245594 -2.00288e-21)
(1.02036 0.0221809 -4.45755e-22)
(0.800859 0.187855 8.3825e-19)
(1.08131 0.148938 -5.58309e-19)
(1.10404 0.167638 -1.22968e-19)
(1.08835 0.105919 1.68521e-19)
(1.07134 0.105026 2.90716e-19)
(1.05845 0.0718228 3.81048e-20)
(1.04878 0.0696011 8.01003e-21)
(1.04203 0.0526744 2.32084e-20)
(1.03617 0.0491477 -3.23494e-21)
(1.03217 0.0402642 -5.22407e-20)
(1.02845 0.0366186 1.11991e-20)
(1.0258 0.0314908 5.06875e-21)
(1.02333 0.0284348 -3.08812e-21)
(1.02139 0.0250696 -6.18158e-21)
(1.01965 0.0226855 -3.35475e-21)
(0.815097 0.197941 -5.95778e-19)
(1.08407 0.156126 1.34684e-19)
(1.10216 0.172213 -3.17981e-19)
(1.08549 0.108654 -6.42844e-20)
(1.06849 0.107225 -9.07456e-20)
(1.05621 0.0734522 -2.50324e-20)
(1.04672 0.0710342 -2.33093e-20)
(1.04038 0.0537936 -7.47565e-21)
(1.03468 0.0501713 3.49878e-21)
(1.03091 0.0410866 1.39897e-20)
(1.02732 0.0373771 4.43588e-21)
(1.02482 0.0321229 -1.18869e-20)
(1.02244 0.0290146 -7.00287e-21)
(1.02061 0.0255575 2.51672e-21)
(1.01894 0.0231662 1.97379e-21)
(0.828408 0.208158 3.4512e-19)
(1.08608 0.163215 -8.21185e-20)
(1.09989 0.176628 3.26474e-19)
(1.08245 0.111298 -1.63207e-19)
(1.06555 0.109338 -1.22738e-20)
(1.0539 0.0750232 6.90093e-20)
(1.04462 0.0724068 -1.88891e-20)
(1.0387 0.0548661 -1.06277e-20)
(1.03315 0.0511496 -6.47273e-21)
(1.02963 0.0418715 -9.33275e-21)
(1.02616 0.0381008 -2.10224e-20)
(1.02383 0.032725 8.28937e-21)
(1.02154 0.0295662 1.08004e-20)
(1.01982 0.0260224 -7.77222e-22)
(1.0182 0.0236227 4.58813e-21)
(0.840779 0.218502 3.35411e-20)
(1.08737 0.1702 1.69807e-19)
(1.09725 0.18088 -2.05122e-20)
(1.07924 0.11385 9.61676e-20)
(1.06254 0.111362 -7.85917e-20)
(1.05154 0.0765341 1.19814e-20)
(1.04248 0.0737173 9.70916e-21)
(1.03698 0.0558907 6.77625e-21)
(1.03159 0.0520818 -6.58756e-21)
(1.02832 0.0426181 1.12562e-20)
(1.02499 0.0387889 1.4907e-20)
(1.02281 0.0332965 1.24306e-21)
(1.02062 0.0300892 -6.61889e-21)
(1.01901 0.026464 -4.26319e-21)
(1.01746 0.0240544 -3.00997e-21)
(0.8522 0.228964 -4.69433e-19)
(1.08796 0.177076 1.1006e-19)
(1.09426 0.184969 6.19035e-20)
(1.07589 0.116312 -2.21829e-20)
(1.05946 0.113298 1.09302e-19)
(1.04913 0.0779835 -2.12983e-20)
(1.0403 0.0749642 7.43684e-21)
(1.03522 0.0568664 3.47887e-21)
(1.03001 0.0529665 1.05554e-20)
(1.02699 0.0433259 -4.44378e-22)
(1.02379 0.0394406 -7.37485e-21)
(1.02177 0.0338368 -5.54561e-21)
(1.01968 0.0305829 3.13437e-21)
(1.01819 0.0268816 2.85246e-21)
(1.01669 0.0244609 1.26713e-21)
(0.862659 0.239534 4.2716e-19)
(1.08789 0.183837 1.22007e-20)
(1.09095 0.188893 -5.56275e-20)
(1.0724 0.118681 -2.96675e-20)
(1.0563 0.115142 -5.10152e-20)
(1.04666 0.0793694 1.27596e-20)
(1.03808 0.0761462 -9.28772e-21)
(1.03343 0.057792 -6.22254e-21)
(1.02839 0.0538029 -1.03565e-20)
(1.02563 0.043994 3.57081e-21)
(1.02257 0.0400553 -9.77517e-22)
(1.02071 0.0343453 -9.96149e-22)
(1.01873 0.031047 -7.93782e-22)
(1.01735 0.0272749 -1.47181e-22)
(1.01592 0.0248418 -3.239e-22)
(0.872146 0.250195 -1.31047e-19)
(1.08717 0.190475 -7.80646e-20)
(1.08734 0.19265 -8.76652e-20)
(1.06878 0.120958 2.6537e-20)
(1.05309 0.116893 -2.29708e-20)
(1.04413 0.08069 -1.91677e-20)
(1.03583 0.0772619 2.96329e-22)
(1.0316 0.0586665 -1.56478e-21)
(1.02676 0.0545898 1.04152e-20)
(1.02425 0.0446218 -3.52011e-21)
(1.02133 0.040632 5.82717e-21)
(1.01964 0.0348213 -1.24164e-21)
(1.01776 0.0314811 2.25912e-21)