/*--------------------------------*- C++ -*----------------------------------*\
  =========                 |
  \\      /  F ield         | OpenFOAM: The Open Source CFD Toolbox
   \\    /   O peration     | Website:  https://openfoam.org
    \\  /    A nd           | Version:  7
     \\/     M anipulation  |
\*---------------------------------------------------------------------------*/
FoamFile
{
    version     2.0;
    format      ascii;
    class       volScalarField;
    location    "0.443";
    object      p;
}
// * * * * * * * * * * * * * * * * * * * * * * * * * * * * * * * * * * * * * //

dimensions      [0 2 -2 0 0 0 0];

internalField   nonuniform List<scalar> 
12359
(
0.0647964
0.0742742
0.0488142
0.1073
0.068451
0.156252
0.186027
0.16822
0.227018
0.142833
0.209284
0.2771
0.490048
0.114725
0.101905
0.394488
0.45029
0.0531203
0.0527385
0.086878
0.122836
0.250879
0.0800685
0.0923253
0.0770615
0.0835404
0.0498882
0.0498049
0.0520591
0.0503702
0.0507376
0.0492958
0.0489673
0.0501584
0.04885
0.0509474
0.0582358
0.06317
0.0667736
0.06065
0.072097
0.0617437
0.0558017
0.0550345
0.0514618
0.0516646
0.0512022
0.0505965
0.0523475
0.0500332
0.0496769
0.0495328
0.0492087
0.0535041
0.0491425
0.0490114
0.0545617
0.04896
0.0489511
0.0488933
0.0490581
0.0488401
0.0495324
0.510684
0.0539635
0.131725
0.0574122
0.049438
0.0589332
0.346964
0.531666
0.0699312
0.0488052
0.0596142
0.0975134
0.0488423
0.0491715
0.0488203
0.0566762
0.315346
0.123135
0.044326
0.0479043
0.0498614
-0.0617811
0.0238575
0.0441011
0.0465099
-0.0652454
-0.0562207
0.0485987
0.46999
0.0485717
0.0485356
0.0484492
0.00833683
0.0479583
0.0486547
0.0574651
0.0538535
0.108494
0.0487057
0.0244384
-0.124243
0.0431399
0.0134446
0.0476522
-0.0592895
0.0271086
0.0135914
0.0479187
0.0444247
0.109115
0.0921407
0.0488934
0.0452499
0.0935672
0.0432787
-0.0675571
0.0479403
0.0480849
0.175175
0.046423
0.00595544
0.0430312
0.0447269
0.0365207
0.0496761
0.0488169
0.0428963
0.0454829
-0.00216726
-0.00294463
-0.00236914
0.0477008
0.00738488
0.0452515
0.00734828
0.0487372
0.0369135
0.0480786
0.0662846
0.014781
0.0476794
0.00860483
0.148063
0.0479089
-0.048517
0.0431085
0.12446
0.00353859
0.0487202
0.0146947
0.0462738
0.0485055
-0.162197
0.110042
-0.00151959
0.0480019
0.0493834
0.0450595
0.0494429
0.00434707
0.0121091
0.0478738
0.0448474
0.0462726
0.173067
0.0137541
-0.0686798
0.0488216
0.0488354
0.0127592
0.0771326
0.0432723
0.0404996
0.0520695
0.0518688
0.111229
0.0413802
0.115436
0.0484825
0.0488226
0.0439529
0.0563755
0.20816
0.0434435
0.047957
0.00531387
0.0431758
0.04823
0.00907272
0.0102591
0.0462029
0.0124362
-0.131437
0.0323092
0.0442288
0.0153466
0.0434154
0.151192
0.0049113
0.0552453
0.0134662
0.0116497
0.0484628
0.0107293
0.0559311
0.00248333
0.0422179
0.0482159
0.000100417
0.000340614
-0.567674
0.196093
0.0487382
0.0437821
0.0489667
0.0436832
0.06694
0.101663
0.0422481
0.0059819
0.472223
0.0427983
0.0481947
0.0674946
0.0272437
0.0448665
0.0450638
0.044757
0.0478895
0.00943371
0.0554311
0.0473156
0.0546658
0.0479361
0.0144841
0.0474169
0.306238
0.047827
0.0218811
0.0476609
0.0543378
0.0443021
-0.0479624
0.0489103
0.00190568
0.0438807
0.0104677
0.00151375
0.062492
0.0514497
0.0454706
0.315309
-0.609409
0.0479476
0.0421871
0.402956
-0.0316167
0.0548255
0.0451046
0.044559
0.0123481
0.0752825
-0.489708
-0.0613211
0.0434749
0.0424032
0.00761869
0.0128344
0.0600221
0.0138643
0.045583
0.0422215
0.0478527
0.0422949
-0.115991
0.0422234
0.0475636
0.0486989
0.0120387
0.0395024
0.0574858
0.0228892
0.0480104
0.0461147
0.0487137
0.0486988
0.0493236
0.00417494
0.0438566
-0.495613
0.0476889
0.0476203
0.0246363
0.043975
0.101262
0.0488176
0.0497147
0.0486149
-0.107294
0.0442712
0.0486172
0.0440098
0.0484254
0.0439024
0.0453315
0.0450696
0.0438674
0.0530361
0.201388
0.0436325
0.0508229
0.0630933
0.0221856
-0.0493359
0.0434756
0.0582484
0.371592
0.0486861
0.0191925
0.0474901
0.0326213
0.0476547
0.0432099
0.221823
0.0184399
0.204983
0.0571137
0.0473425
0.0102486
0.00648289
0.0473064
0.0104675
0.00976644
0.0472578
0.0491059
0.0490992
0.0491583
0.0491396
0.30436
0.0479917
0.105935
0.00146934
0.055326
0.0135076
0.0184428
0.0252899
0.0332941
0.017663
0.0339968
0.0571484
0.0200626
0.0212187
0.0927807
0.0671607
0.0141333
0.0651558
0.0650876
0.0162717
0.105361
0.044806
0.0491698
0.0310238
0.0491426
0.0444387
-0.213523
0.499013
0.0446562
0.0487711
0.0477285
0.0483735
0.0173713
0.0485099
0.0484928
-0.0733918
0.0127469
-0.0522068
0.0466673
0.0103649
0.0398052
0.0479403
0.0155705
0.030725
0.110308
0.0309991
0.0450329
0.0474957
0.0121614
0.00990482
0.0422218
0.294643
0.0156022
0.00759759
0.0498761
0.0462844
0.0487542
0.395986
0.0122027
0.0467445
0.0614685
0.0643246
0.0480964
0.0480677
0.0483175
-0.0611148
0.0975398
0.0591913
0.018186
0.00435851
0.0486481
0.11547
0.0493366
-0.000185215
-0.0541267
0.295293
0.0541607
0.0923638
0.0275101
0.0227571
0.0352383
0.0306228
0.0504585
0.0350735
0.0151996
0.048514
-0.0323779
0.0580501
-0.00479323
0.00857816
0.0549021
0.096263
-0.158078
0.0170971
0.0391251
0.0075031
0.00855671
0.0186805
0.0432983
0.0482552
0.0519594
0.0476763
-0.00214701
0.045427
0.0833156
0.0852201
0.0357915
-0.05655
0.105424
0.053658
0.0470931
0.390252
0.0473448
0.0466415
0.00537638
0.0487717
0.0469363
0.04662
0.240908
0.209706
0.0494318
0.0466929
0.108383
0.0480556
0.0183737
0.0149366
0.0133974
0.0472354
0.0483548
0.0472312
0.0486284
0.0845638
0.0188877
0.0220433
0.0516515
0.050603
0.00311322
0.0505485
0.0464616
0.0419867
0.120408
0.00481005
0.0487164
0.0470995
0.0117894
0.0296286
0.0484545
0.0451096
0.113517
0.0168707
0.00741764
0.0204857
0.0471468
0.0465348
-0.00557926
-0.00336035
0.0486178
0.0363845
0.0498399
0.00584264
0.284773
0.0482946
0.0455945
0.047301
0.0142361
0.0534129
0.0525408
0.0449416
0.0490687
0.0295966
0.0757245
0.0373776
-0.0358651
0.0475979
-0.0418181
0.0465733
-0.119004
0.0165936
-0.00272973
0.048926
0.0514559
0.021575
0.0440121
0.0496266
0.0561931
0.0538078
0.0538892
0.0720985
0.0139528
0.0136586
0.0479197
0.0436216
0.0186907
-0.00302358
0.0479235
0.0475596
0.0119723
0.0472779
0.225693
-0.162771
-0.0639489
0.0479231
0.0408087
0.00167019
0.0529076
0.0437294
0.455361
0.0476325
0.116086
0.0882197
0.0406368
0.0439363
0.0497957
0.0361187
0.00105262
0.0298146
0.0512537
0.0479523
0.0488169
0.053344
0.0520977
0.0550248
0.0140325
0.0493822
0.0475933
0.0203609
-0.0472787
0.0507508
-2.37671e-05
0.0477537
0.0517281
0.0952832
0.00171201
0.00177658
0.0967639
0.0454661
0.00150743
0.0481358
0.0488959
0.00379025
0.0364559
0.0449811
0.0362592
0.0484286
0.0475485
0.0442626
0.0488424
0.00205146
0.10351
0.0584892
0.118405
0.0152647
0.0391163
0.112461
0.0623194
-0.00359264
0.0134835
0.0636246
0.0539058
0.0488884
0.0363539
0.0207446
0.0479138
0.0487829
0.0472667
0.0489285
-0.0158618
0.0368372
0.0325379
0.105071
0.056396
0.237205
0.00588552
0.00212605
0.0440616
-0.00130012
0.048415
0.049686
0.0474977
0.104848
0.114807
0.0458705
0.0299186
0.235088
0.0152756
0.00530771
0.0380293
0.0645602
-0.134772
0.0469271
0.0499213
0.0484466
-0.0102349
0.0497974
0.0306456
-0.0559486
0.0476012
0.0772784
0.0561425
0.0409143
0.0509376
0.0460638
0.0492124
0.0529878
0.0492676
0.0491445
0.0524443
0.00648626
0.0102798
0.0408807
0.341329
0.00198524
0.413211
0.0167513
0.0235172
0.0529164
0.0180605
0.0560788
0.00949267
0.320788
0.0981395
0.0556115
0.0431708
0.0533816
0.0520058
0.0212125
0.0482501
-0.00454205
0.0492998
0.0990989
0.0472964
-0.0136688
0.00775774
0.0114577
0.0554054
0.0385631
0.00850372
0.0770592
0.00511655
0.0398993
0.00317048
0.0426083
0.0479642
0.0495486
-0.226821
0.0718389
0.041132
0.0478624
0.0494509
0.0537723
0.0825003
0.0102425
0.0158942
0.0472723
0.0427324
0.0547708
0.0410103
0.0380023
0.00226184
0.0549128
0.0568307
0.00904884
0.0425094
0.0394228
0.104486
0.0479203
0.0549982
-0.270127
0.0489284
0.00723657
0.0502408
0.0398355
0.0889104
0.00982444
0.050388
0.0186683
0.0484803
0.110815
0.042785
0.0112327
0.0112597
0.111046
0.0483423
0.00120885
-0.00491404
0.0556799
0.0417699
0.0433776
0.0351519
0.247362
0.052796
0.048751
0.0543476
0.0485311
-0.130418
0.0412671
0.00935287
0.0308586
0.0153712
0.52652
0.0413992
-0.0605724
0.0105623
-0.0627041
0.0180039
0.0511482
0.0412651
0.0298951
-0.0486529
-0.0365175
0.046691
0.0468125
0.118521
0.04581
0.212817
0.0198239
0.0706168
0.0435748
0.408766
-0.109388
0.0419071
0.0479726
0.0481642
0.0930756
0.0538299
0.0586662
0.0511585
0.0146178
0.0766994
-0.0144176
0.357275
0.0472702
0.0819365
0.0140748
0.118016
0.0431147
0.11613
0.00763268
0.0943961
0.0512704
0.0478648
0.0092549
0.0069206
0.0167726
0.116438
0.0121221
0.0231794
0.0507218
0.047609
0.0374958
0.248648
0.0376952
0.011665
0.0661335
0.019377
0.0351172
0.051731
-0.00429416
0.0317037
0.0425958
-0.00786363
0.0572406
0.0261796
0.199406
0.0479532
0.0314617
0.0494012
0.0558685
0.0450225
0.0500511
0.0479175
0.000454537
0.0422137
0.0768617
0.0121406
0.0945722
0.0301111
0.0306039
0.0101466
-0.202931
0.0489046
0.0553774
0.0241348
-0.0743125
0.00725246
0.0482295
0.520147
0.0478825
0.0431035
-0.176827
0.0537927
0.0485794
0.0486049
0.0647527
0.0888726
0.0489243
0.0548959
0.110474
0.0501045
0.0524722
0.0515142
0.0469343
0.0903857
-0.0163334
0.0533659
0.115317
0.0106416
0.0102846
0.00449393
0.0152205
0.0514326
0.0428872
-0.0411754
0.00524427
0.0724974
0.0472211
0.0489548
0.117066
-0.000944239
0.0324316
0.0382493
0.0321637
0.0511632
0.0420349
0.0833821
-0.24452
0.379116
0.0815741
0.0491086
0.0419801
0.0791886
0.361861
0.111054
0.0482484
0.000785684
-0.012252
-0.263567
0.0348065
-0.170622
0.0489255
0.0515967
0.0489711
0.0055634
0.0740808
-0.177144
0.0432529
-0.0899932
0.0456494
0.0496398
0.0103545
0.0531208
0.00112391
-0.0373964
0.054568
0.0348687
0.0238145
0.0351589
0.0544077
0.0750529
0.0721735
0.0300755
0.0775079
0.0546009
0.0490073
0.0519564
0.0495014
0.105727
0.0214114
-0.00737176
0.00213629
0.0853194
0.0240353
0.0224721
0.0417138
-0.00836531
0.0332506
0.0539165
0.0484612
-0.000151291
0.108284
0.043501
0.0391526
0.0556313
0.0229497
0.10192
0.115737
0.0226632
0.24032
0.0219727
0.086571
-0.0347578
0.052787
0.0172483
0.0111377
0.0461719
0.0330034
0.0366776
0.0431952
0.0481279
0.0444642
-0.0135686
-0.00140196
0.043567
-0.131591
0.0998647
0.0494156
0.0503229
0.00222362
0.0493288
0.0784258
0.0133747
0.00381936
0.0492696
0.0516518
0.0481198
0.0493307
0.117602
-0.140759
0.0494456
0.0548075
0.0479297
-0.154614
0.0213669
0.0142818
0.0476683
0.0493426
0.0514159
0.0242277
0.083804
0.0273992
0.0467232
0.0517683
0.0492094
0.0202557
0.0839145
0.0370575
0.0487765
0.0298426
0.0245645
0.0747915
0.0444681
-0.0165347
0.146122
0.0461349
0.0320692
0.0514919
0.0425402
-0.200293
0.0544352
0.0494813
0.0112862
0.104155
0.0816913
-0.14623
0.0757225
0.0339058
0.0269507
0.0556019
0.0386785
0.0336819
0.0548136
0.147186
0.0493354
-0.344878
0.0827309
0.182326
0.038697
-0.00414268
0.0953493
-0.00102448
0.26522
0.0072917
0.025154
0.0326282
0.0377838
0.0479028
0.0429328
0.0871335
0.0017037
0.055018
0.0461522
0.00682677
0.0166983
0.00603419
0.0792701
0.00107831
0.00584173
0.0473542
0.0702467
-0.0438184
0.086677
0.0478671
0.0333617
0.0523636
0.0478784
0.0688567
0.0489116
0.0429485
0.244773
0.0910297
-0.0162755
0.0489512
0.0484164
0.0485521
0.0551687
0.0525176
-0.00133813
0.0526603
0.0483134
-0.0183393
0.0212083
0.00710086
0.0683054
0.0490012
0.0404136
0.0908673
0.0330959
0.0489785
-0.0417243
0.0109141
0.11331
0.0489903
-0.241064
0.0965669
0.0496332
0.00332224
0.0379566
-0.0122277
0.03472
0.00144851
0.0933859
0.0486139
0.0505978
0.0206392
0.0385802
0.0537976
-0.00668067
0.0539474
0.0540953
0.0959856
0.0457092
0.0522406
0.0344759
0.00995585
0.0497072
0.054003
0.0520832
0.0477926
0.0953903
-0.0407699
0.0255984
0.0552223
0.0527911
0.0402134
0.0479802
-0.202551
0.0784507
0.0487072
0.0705651
0.0402519
0.0984483
0.15281
0.00142941
0.0540573
0.005416
-0.00160431
0.047635
0.0396374
-0.000463216
0.0436465
0.0487593
0.0719557
0.0265697
0.0528149
0.0487873
0.0405685
0.0833563
0.0493647
0.030721
0.0489183
0.0363704
0.0662875
0.133275
0.048344
-0.207503
0.0793666
0.0156956
-0.115556
0.0919385
0.0308744
-0.0305415
0.0556922
0.143059
0.205937
0.0525859
0.0432135
0.04304
0.0507787
0.0526417
0.00686955
-0.0821297
-0.148525
0.00849045
0.149065
-0.00487761
0.0100984
-0.0411556
0.0482409
0.0510149
0.0461543
0.0243177
0.0481452
0.00813512
0.0352621
-0.00565264
0.0479817
0.0513531
0.0461042
-0.162058
0.119583
0.0772903
0.0605774
0.122299
0.0434577
0.0493779
-0.0178417
0.0350784
-0.0137808
0.00741211
0.021733
0.00480291
0.0148111
0.0561696
0.0476152
0.0480475
-0.129977
0.0402267
0.0381245
0.051307
0.00614635
0.0176814
0.0483887
0.0190886
-0.0146414
-0.000493148
0.0936235
0.0522839
0.0484954
0.00501031
0.055324
0.0482411
-0.00131596
0.00737258
0.0521592
0.138687
0.00155067
0.048503
0.0485366
0.0477569
0.106547
-0.143509
0.0387198
0.0100813
0.0514732
0.0520288
0.0109721
0.0486749
0.175547
0.0146244
-0.0302499
0.154125
0.0292684
0.0477748
0.0480656
0.0317907
0.0554606
0.0476215
-0.191735
0.00559336
0.0429806
0.217315
0.100461
0.0429468
0.0479228
0.0485214
0.0511082
-0.0724081
0.160537
0.0324261
0.0764226
0.0661709
0.00603012
-0.0804253
0.0323493
0.0535384
0.0523237
0.015959
0.0396617
0.0472623
0.0508605
0.00386091
0.052534
0.0316199
0.0543638
0.0810282
-0.0110534
0.0457818
0.0509694
-0.00324656
0.0033588
0.0579949
0.0506261
0.0758103
-0.000506484
0.0378601
0.0170012
0.0732358
0.0157882
-0.0284656
0.0523194
0.157611
0.0476838
0.104231
0.000203523
0.0486487
0.048165
0.380264
0.048807
0.0552503
0.0256181
0.0537765
0.0539018
0.056907
0.0486914
0.0485307
0.000269582
-0.0261329
0.0463861
0.340284
0.0360038
0.0506458
0.240009
0.0976264
0.053431
0.0443689
0.050334
0.0876279
-0.301349
0.0536037
0.0463063
0.0477871
0.0508893
0.0629879
0.0158255
0.0531354
0.0637955
0.0518832
-0.157541
-0.00741405
0.00818201
0.109527
0.0357639
0.0507388
0.00457671
-0.119271
0.052081
0.0479982
0.0506683
0.0455128
0.053709
0.0473498
-0.0025796
0.0439938
0.0428362
0.32754
-0.000941438
-0.00492006
0.0039115
0.0535425
0.00104002
0.0855889
-0.0925789
0.0464498
0.0102717
0.0486666
0.238541
0.0479837
0.0483182
0.0279527
0.047821
0.0251618
0.0584802
0.0538209
0.0462791
-0.0882165
0.0856032
0.0106976
0.0509368
0.0353748
-0.0390526
-0.00696643
0.0779562
0.073998
0.0489331
0.0544842
0.0449952
0.0507608
0.0463886
0.0508895
0.089258
0.0730028
0.00718019
-0.112454
0.0220177
-0.00943551
0.0315399
-0.11654
0.0472884
-0.0302252
0.0507567
-0.0135022
-0.00567795
0.0245274
0.0484215
0.0286248
0.0102766
0.0309086
-0.00690002
0.234387
-0.107299
0.0507148
-0.00276477
0.0468002
-0.00468688
0.0901531
0.00283528
0.0437033
0.056736
0.0100248
0.0515705
0.0358996
0.0487406
0.0440412
0.0480216
0.0545594
0.00629378
0.00142182
0.0482636
0.0836523
-0.0830031
0.49465
0.0476192
0.0728169
0.0257796
0.193859
0.0308743
-0.193277
-0.0376488
0.0461106
0.0234018
0.066188
0.178289
0.0486295
0.06673
0.0782267
0.0460968
-0.0911306
-0.00359949
0.0507102
0.0243547
-0.0290426
0.0756187
-0.0848548
0.0365501
0.0790948
0.0533735
0.0476128
0.0547338
0.0434279
-0.0765641
-0.000226079
-0.0654961
0.0492872
-0.0785631
0.0290915
0.00328682
0.109648
0.0237078
0.0267033
-0.0549833
0.0364272
0.0353383
0.00502448
0.0697432
0.0249134
0.00873676
0.0689294
-0.0939305
0.0841321
0.0338305
0.0871761
0.0492217
0.11317
0.00032341
0.0994451
0.0522779
-0.0353521
0.0482953
0.0327648
0.00864539
-0.00118189
0.0563072
0.0058718
0.0440653
0.507844
0.0544352
0.00566788
0.0908027
-0.00054572
0.00717938
0.0487096
0.0305628
0.0480161
0.466899
0.048453
0.0481678
0.0477578
-0.0135451
0.0427541
0.0429383
-0.0069845
0.0269199
0.0633082
0.0427194
0.0480782
0.106693
0.0464462
0.103048
0.0067134
0.0852046
0.0398152
0.0405324
0.0249193
-0.0143838
0.00897795
0.0421594
0.536876
0.048433
0.0481423
0.0546997
-0.120106
0.0524205
0.029456
0.0795896
0.0525277
0.0402018
0.00324401
-0.0227543
0.0323537
-0.0455246
0.0534688
0.0439756
0.0139549
0.0185784
-0.000475808
0.0506843
0.0243157
0.0709973
0.198207
0.0359618
0.0481951
0.043819
0.177742
0.0487853
0.0487852
-0.0376358
0.0312462
-0.0438537
0.0402018
0.0479862
0.191656
-0.0134073
0.043032
0.0538226
0.0463305
-0.109012
0.0487938
0.0328807
-0.026755
0.0487866
0.0480656
0.00903852
0.0476282
0.0487961
0.013067
0.049293
0.0480567
0.0207213
0.0477228
-0.0138738
0.0479789
0.0567188
0.119193
0.00815955
0.0487999
0.00512761
-0.185029
0.0401814
0.0735627
0.0459506
0.0330146
0.0466779
-0.0181626
-0.00521936
0.0444677
0.0480653
0.127937
0.0296186
0.015157
0.011177
0.131407
0.0476476
0.0059548
0.0480499
-0.0188026
-0.0067687
-0.0038183
0.00798794
0.155055
-0.0797551
0.0054589
0.0104633
0.0461033
0.0509579
0.00128969
0.135449
0.0976557
0.0319433
-0.0748072
0.0475387
-0.0634522
0.206096
0.0476619
-0.00732969
-0.00984184
0.0799621
0.0084113
0.00660282
0.0717173
0.0481428
-0.012665
-0.0678398
0.260287
0.0535892
0.00271668
-0.0301405
0.145499
0.0501368
0.0480381
0.00613447
-0.0531018
0.0384893
0.067426
0.0483209
0.0476349
0.0557629
0.0533198
0.024222
0.0541447
0.0480122
-0.0166594
0.0342255
-0.0247729
0.0152268
0.0483192
0.0480763
0.144507
0.0531109
0.0796715
0.0588806
-0.040373
0.0801791
0.0473686
-0.024382
0.057484
0.0480436
0.0265143
0.0365346
0.03988
0.0930929
0.024537
-0.147664
0.0390885
0.0478545
-0.0264331
0.047714
-0.00647532
0.0301014
-0.0283053
-0.0478494
0.0955279
-0.031492
0.0483585
-0.00860189
0.0523643
0.0712385
-0.0226737
0.0187396
-0.0232118
-0.0659006
0.172513
-0.011153
0.0624991
0.0473252
0.0479268
0.0476912
-0.0308893
0.13729
0.0473386
-0.0151951
-0.0181841
0.0141406
0.00250907
0.0266432
0.109036
-0.0264197
0.0532655
0.0119464
0.0242057
0.0486554
0.0486758
0.0500813
0.0534349
0.0112324
0.0482384
0.0509644
0.0547694
0.0728645
0.000552259
0.0478336
-0.0188488
0.0479772
0.00360036
0.0134107
0.0504646
0.0404958
0.00181372
-0.019474
0.0354001
0.0766591
0.0532078
0.0256428
0.0312033
0.0480919
0.0523104
0.052671
0.0505323
0.0481312
0.0684426
0.0481158
0.125301
0.0125631
-0.0959615
0.0481598
0.0584617
0.0482731
0.0483606
0.123062
0.0575121
0.0475129
0.340224
0.132957
0.036864
0.0636646
0.037036
0.120592
0.0177698
0.00830306
0.054219
0.0546642
0.0480613
0.0491936
-0.0110822
0.0476818
0.0501429
0.120993
0.0505781
0.0522749
0.0266824
0.0481087
-0.0346599
0.0481932
0.0500849
0.00769977
0.00911635
-0.0624638
0.109198
0.0694929
0.0503276
0.00699134
0.0502652
0.0244966
0.00609432
0.0545142
-0.0298253
0.0488595
0.0254121
0.0691032
0.0503484
0.101134
0.0481544
0.0545073
0.0480525
0.0280728
0.0475977
0.0514611
0.0236318
0.0441807
0.0696268
0.0262116
0.0480976
0.0261593
0.0118626
0.054379
0.00828483
-0.0142997
0.0480593
0.0301757
0.108842
0.0028477
0.0551861
0.0426488
0.042911
0.0244589
0.0557235
0.150713
0.0532683
0.0483231
0.0483582
-0.0166683
-0.00940763
-0.0205108
0.28056
0.0996891
0.0487643
0.02502
0.0104433
0.0486889
-0.0503893
0.0526607
0.102945
-0.000405405
0.0501371
0.141487
-0.00839042
-0.0155044
0.022022
0.0283815
0.0486015
0.0476474
0.060045
0.0480873
0.0480452
0.13493
0.0506709
0.0628108
0.0473942
0.0368729
0.0436262
0.372504
0.0397337
0.0425605
-0.00884988
0.102739
0.0930197
0.0334281
0.109624
0.0482892
0.0451443
0.00453407
0.0717959
0.123516
0.0497812
-0.00018025
0.0388976
0.0483539
0.0508829
0.0481414
0.0625083
0.039755
0.0485863
0.0290412
0.25915
0.0486922
0.0115823
0.0308626
0.0477693
0.0619517
0.0508755
0.026357
0.0482022
0.0480776
0.0139203
0.0278885
0.0904344
0.141688
-0.24166
0.0542868
0.0632909
-0.0328465
0.0320661
0.0508131
0.03924
-0.000922834
0.0481292
0.0519279
0.0480539
0.0291263
0.0642145
0.0175951
0.0481244
0.0599677
0.0328955
0.0529609
0.119429
0.0441727
0.0478532
0.0481227
0.0285178
0.0220141
0.30965
0.0592928
0.0815097
0.00566891
0.00454701
0.0478932
0.0999978
0.0481198
0.0480871
0.0486574
-0.00327163
0.0535385
0.0342835
0.00642937
0.0198315
0.00627715
0.0292023
0.0636539
0.113837
0.0457276
0.0112768
0.0911795
0.0318041
0.129508
0.0522786
-0.166676
0.142983
0.136389
0.0475263
-0.117803
0.0056849
0.00748557
0.136349
-0.000319881
0.057572
0.0550903
0.0370888
0.0340777
0.031098
0.210504
0.0727378
0.0527031
0.0135233
0.0528783
0.0345695
0.0229387
0.0929655
0.0344308
0.0671764
0.0829551
0.00580429
0.0964226
0.0308014
0.0489661
0.0589717
0.047868
0.0425839
0.0466666
0.0531318
0.0192453
-0.0408318
0.0478085
0.170793
0.0471847
0.0395958
0.00946392
0.029297
0.0325225
0.0464186
0.0068736
0.0116321
0.250274
0.0481157
0.0083505
0.0354066
0.0118144
0.0486673
0.0483327
0.151306
0.0229827
0.0313777
-0.116561
0.0258744
0.038265
0.13496
0.0138309
0.119243
0.0543842
0.0175708
0.0359631
0.0441856
-0.0244154
0.00651879
0.018895
0.0323002
0.0475202
0.00598285
0.00578488
-0.000398741
0.0383195
0.0361195
0.413111
-0.0404254
0.0471865
-0.0113594
0.019443
-0.100922
0.0480286
0.0312221
0.0314227
0.0480154
0.0037691
0.026795
0.0520646
-2.96063e-05
-0.0200557
-0.00164281
0.054532
0.0228438
0.0487031
0.0433043
-0.0263226
0.0817897
0.0275501
0.00663352
0.146966
0.0235325
0.0193444
0.020443
0.0068536
-0.0247939
0.0464815
0.0210245
0.0151712
0.0920838
0.279301
0.0127636
0.0340792
0.0192513
0.0480255
0.0924702
0.0304071
0.00883821
0.0478188
0.0345309
0.00622346
0.0132737
0.146515
0.0103137
0.0285003
0.0286519
0.0532845
0.0033309
0.0256745
0.0734611
0.0581823
0.0546607
0.00993414
0.0351524
0.0407991
0.0372528
0.0481926
0.00594527
0.0618234
0.0285559
-0.00228119
-0.0437015
0.0424409
0.0278611
0.016107
0.0233133
0.0481469
0.0988028
0.0981383
0.0715747
0.0486436
0.234919
0.00650871
0.0513767
0.0890098
0.0476008
0.0564816
0.0316021
0.0255904
0.0539076
-0.0992995
0.0494661
0.0583441
0.0416057
-0.0110692
-0.0286929
-0.000441127
0.0619004
0.00904857
0.0486792
0.0284455
0.0740289
0.0494837
0.148862
0.0167455
0.0270262
0.00798858
0.065798
0.0213769
0.036992
0.0477794
0.0479198
0.0459214
0.0623473
0.124198
0.0151984
0.144245
0.0812617
0.0890042
0.0501408
0.0687658
0.00684904
0.0480873
-0.0186979
-0.0151411
0.0512571
0.0480855
0.0388432
0.0462022
0.0479058
0.06396
0.0331435
0.131209
0.0157042
0.0346892
0.0884315
-0.00858537
0.00519722
0.0859788
0.0128789
0.0231309
0.0700179
0.0476725
0.0617526
0.026964
0.121372
0.128498
0.217609
0.0479468
0.127837
0.0317334
0.0310365
0.104839
0.106892
0.099854
-0.0213168
0.0205547
0.0671096
0.0204248
0.0384399
0.0448321
0.0904185
0.0474392
0.0162557
-0.025153
0.0584852
-0.0237364
0.0470296
0.0836491
0.0537754
0.0294831
0.101642
0.162326
0.020332
0.0420958
0.0166108
0.032821
0.0712836
0.000136319
0.0819283
-0.00127208
0.0479591
0.0207492
-0.148578
0.0976125
0.03466
-0.0360984
0.00995343
0.0407594
0.0469902
0.103508
0.0933157
0.0330355
0.0562063
0.0497992
0.00562642
0.0426512
0.00453255
0.0806533
0.035046
0.141492
0.0479622
0.0444392
0.00428681
0.0363667
0.0369567
0.0652153
0.0555338
0.0288252
0.168054
0.10676
0.0477759
0.00552839
0.0430485
0.0477127
0.133189
0.0474573
0.0212206
0.0239939
0.0474142
0.0475612
0.0513229
0.00701953
0.0602703
0.0974254
0.0275269
0.130485
0.0318102
0.0326352
0.036351
0.0776285
0.0481717
0.0384242
0.0361317
0.0259966
-0.0164028
0.00867667
0.0657604
0.0437325
0.0543257
0.0305619
0.0416442
0.0600583
0.0211881
0.105168
0.0313778
0.0477409
0.00829321
0.0865714
0.00677843
0.0479133
0.135655
-0.022276
0.0445526
0.0975511
0.0059365
0.0522903
0.0961356
0.0035154
0.0885102
0.113393
0.00427604
0.0469861
0.0783142
0.0754192
0.0135702
0.044956
0.0301303
0.0479221
0.0475681
0.0476628
0.0132632
0.0169868
0.0200112
0.081708
-0.0484016
0.167791
-0.0422452
0.0273035
0.040866
-0.0282091
0.0489018
-0.0912462
0.0321914
0.022286
0.0179244
0.0278668
0.0641604
0.0400306
0.0318798
0.0531467
0.0478878
0.0771236
-0.0276099
0.0134769
0.00646323
0.0169764
0.0513429
0.0272901
0.0161519
0.0537265
0.0235258
0.0374485
0.118087
0.0851204
0.0800103
0.0927424
-0.00181653
-0.000173236
0.0057995
0.022333
-0.000693563
0.014521
0.0575225
0.0420186
0.130999
0.0732652
0.00709588
0.0482227
0.0949588
0.12708
0.073084
0.0787506
0.0560302
0.0165194
0.113962
0.0278459
0.0234466
0.0331795
0.0324296
0.0470173
0.0275647
0.0290076
0.0528036
0.0197422
0.0291521
0.0431296
0.103169
0.0426974
0.0396236
0.0753376
0.0544613
0.047344
0.0500633
0.00269793
0.0157091
0.0488212
0.0711361
-0.0385751
0.00627394
0.0549433
0.0187877
-0.0148843
-0.0333588
-0.00230689
0.0311423
0.033545
0.054237
0.0327723
0.0252753
-0.000322713
-0.00122283
0.0028726
0.000735469
0.0336939
0.046925
0.0466517
0.128202
0.0614179
0.0343816
0.0370723
9.56295e-05
0.0436413
0.0265731
0.146794
0.0864503
0.0112039
0.0533131
0.0160989
0.0475665
0.00843129
0.000612351
0.0268576
0.0476469
0.058116
0.166943
0.0407629
0.0880987
-0.0130477
0.0480165
0.0341073
0.0931559
0.100279
0.0693493
0.0487818
0.0443704
0.0454321
0.0485902
0.0476966
0.0402872
0.00681258
0.0476407
0.0555905
0.052896
-0.357773
0.118032
0.0454975
0.0479416
0.0105275
0.0163096
0.0231161
0.0762469
0.0172504
0.0471227
0.041209
0.00496936
0.0485061
0.0135611
0.0927268
0.0705886
0.0463175
0.0123526
0.0482636
0.0385595
0.0365789
0.0405691
-0.00215019
0.0589087
0.0344491
0.0327201
0.10999
0.0807338
0.0475557
0.0480716
0.0350858
0.0315186
0.0138227
0.0200837
0.0389816
0.00781299
0.0793021
0.0486188
0.0366146
0.00608692
0.0381535
0.0841857
0.0628006
0.0507269
0.150267
0.0216114
0.12391
0.140305
0.0269909
-0.00187398
-9.43196e-05
0.12427
0.0384806
0.00641963
0.0735604
0.0353967
0.0214697
0.0894198
0.0713008
0.0500144
0.0030624
0.0308706
0.0271694
0.0398367
0.00603972
0.0497231
0.0796333
0.0495413
0.0564642
0.085235
0.0540568
0.0417512
0.104757
0.00750499
0.0906725
0.0276988
0.0714195
0.00867455
0.0607785
0.0118819
0.0492472
0.0294283
0.00961589
0.0667395
0.026397
0.0492041
0.041242
0.0147972
0.0448799
0.0342419
0.0556173
0.0358576
0.0218483
1.66834e-05
0.0946397
0.103772
0.100061
0.0401846
0.0396052
0.034102
0.0184804
0.0279224
0.0483535
0.0535055
0.0691991
0.0238217
0.0576482
0.00494137
0.0299158
0.0563014
0.0323086
0.0314534
0.0429814
0.0290614
0.036592
0.133947
0.256151
0.0221233
0.0246918
0.0271996
0.0307439
0.0356594
0.0347439
0.0324451
0.0229416
0.0130124
0.0466608
0.047926
0.0469218
0.00654168
0.047901
0.0289881
0.0416505
0.0304871
0.0588624
0.0329724
0.122824
-0.00610061
0.0475526
0.0345257
0.090079
0.0408042
0.0596322
0.0882828
0.052694
0.0477809
0.0290907
0.0059234
0.0858958
0.00396092
0.11443
0.0832201
0.00380749
0.0624633
0.0676364
0.010858
0.0420803
0.0474172
0.0492461
0.0355755
0.0474485
0.0313787
-0.0264331
0.0466132
0.0791034
0.0424861
0.0615811
0.062313
0.160546
0.0539576
0.04114
0.00535483
0.0135326
0.0862017
0.0304802
0.0827364
0.0491273
0.0370136
0.0642915
0.0449405
0.0321185
0.0486316
0.0491587
0.0304118
0.0474045
0.03378
0.0608417
0.0800922
0.014146
0.0471661
0.00680013
0.00190004
0.0669288
0.0588176
0.0500511
0.0675102
0.131206
0.0479103
0.0396615
0.0459104
0.0596349
0.0377049
0.0345396
0.0380814
0.0729886
0.082695
0.031725
0.0786059
0.0900612
0.059393
0.107229
0.0568831
0.0773739
0.0273851
0.041587
0.0207312
0.0487143
0.0638676
0.0495002
0.0824548
0.00231856
0.0540945
-0.0102114
0.0433806
0.0265066
0.117137
0.00758553
0.0460201
0.0475883
0.00496444
0.106429
0.0270076
0.0290827
0.0149455
0.0437607
0.0805588
0.0366974
0.0462879
0.0351054
0.00857054
0.0417709
0.0394283
0.398455
0.038001
0.0495467
0.0580779
0.0637553
0.0419368
0.0307979
0.0479354
0.101268
0.041463
0.0479185
0.0131986
0.0359995
0.027941
0.0403541
0.0623762
0.0413493
0.0437708
0.0430502
0.0329518
0.0794972
0.0479576
0.038029
0.0567018
0.0445174
0.0385284
0.0541008
0.0541819
0.058732
0.0591518
0.0480248
0.0422269
0.0499061
0.0284733
-0.00170894
-0.000915849
0.143404
0.0738088
-0.00910455
0.0295254
0.0474251
0.0506782
0.0573673
0.0731269
0.0483269
0.0270315
0.0751842
0.0556494
0.0256581
-0.00773337
0.0209644
0.0473158
0.0363396
0.0478004
0.0935734
0.236817
0.0382164
0.0561493
0.0421209
0.00630951
0.0475884
0.0716576
0.0271509
0.0444451
0.048486
0.0323958
0.095729
0.0380116
0.0556926
0.0250846
0.0411669
0.0426268
0.08695
0.0597883
0.0391623
0.0500819
0.0378072
0.0536699
0.0371828
0.0482594
0.0384498
0.047663
0.0536539
0.0112055
0.0675627
0.0156987
0.0730452
0.0728775
0.0520195
0.0377075
0.0344331
0.0765104
0.0910961
0.010616
0.0407766
0.0553697
0.0572512
0.0392208
0.0464646
0.0428596
0.0364722
0.0277218
0.0277299
0.0434421
0.014807
0.0382058
0.0786804
0.0396975
0.0420569
0.0383376
0.0236598
0.08316
0.0527725
-0.000520222
0.0381045
0.0402246
0.0104541
0.0508361
0.000766835
0.0502599
0.0407014
0.0457238
0.0458418
0.0488754
0.0413871
0.004711
0.047933
0.0202987
0.0709548
0.0503946
0.0568175
0.0320353
0.0954151
0.0596994
0.048352
0.0339244
-0.0565037
0.048071
0.00584097
-0.0710202
0.0648403
0.0844153
0.0517631
0.0403365
0.0289719
0.0705831
0.0577727
0.0480609
0.0918207
0.0110083
0.0810527
0.0479662
0.0473545
0.042359
0.0433936
0.0439038
0.0650645
0.0754223
0.0450935
-0.00115877
0.0450179
0.0521206
0.0406431
0.0317992
0.000330537
0.0474116
0.0411258
0.0232772
0.0421358
0.0454061
0.0503897
0.126784
0.0722911
0.0484256
0.0616995
0.0521841
0.0410228
0.0744779
0.0586687
0.0429187
0.0619021
0.0357071
0.0616486
0.0841942
0.00165975
0.0229364
0.048522
0.0691168
0.0461368
0.0504958
0.0493685
0.0412062
0.00180931
0.000376612
0.0576425
0.0304928
0.0340043
0.0276662
0.0470969
0.046648
0.0484313
0.070486
0.0336861
0.0480047
0.040824
0.0532862
0.022349
0.00877194
0.0480321
0.0475233
0.0352885
0.0472467
0.0464807
0.0415564
0.0441059
0.0387109
0.0650957
0.0607461
0.033477
0.0458497
0.0516579
0.056982
0.0411585
0.0479474
0.0418603
0.0300307
0.00116797
0.00574461
0.0343752
0.123226
0.0415277
-0.0562564
0.0876617
0.0409674
0.0396297
0.0524177
0.0473677
0.048035
0.052362
0.0554763
0.0405132
0.0496427
0.0471724
0.0962504
0.00563869
0.0328875
0.0481766
0.053726
0.0618803
0.0692819
0.0316894
0.0503162
0.0478774
0.0463901
0.0419325
0.0281814
0.026208
0.00572262
0.0607334
0.0462994
0.037567
0.0548346
0.0523471
0.051817
0.0452469
0.0569683
0.0480262
0.0154501
-0.00210154
0.0471762
0.0654334
0.0406124
0.0435699
0.0453247
0.049312
-0.0344611
0.0623377
0.000272206
0.0423213
0.00840315
0.0510093
0.0679062
0.1265
0.0540153
0.0482165
0.0297425
0.0215154
0.110454
0.0411138
0.0657336
0.0438907
0.0475577
0.0639758
0.0455691
0.121308
0.000222215
0.0780326
0.0513091
0.0466572
0.0479959
0.0463088
-0.026797
0.0374804
0.047459
0.0549996
0.0462495
0.047536
0.0473392
0.0107858
0.00382722
0.0531751
0.0468544
0.0809704
0.0543473
0.100775