/*--------------------------------*- C++ -*----------------------------------*\
  =========                 |
  \\      /  F ield         | OpenFOAM: The Open Source CFD Toolbox
   \\    /   O peration     | Website:  https://openfoam.org
    \\  /    A nd           | Version:  7
     \\/     M anipulation  |
\*---------------------------------------------------------------------------*/
FoamFile
{
    version     2.0;
    format      ascii;
    class       volVectorField;
    location    "5";
    object      U;
}
// * * * * * * * * * * * * * * * * * * * * * * * * * * * * * * * * * * * * * //

dimensions      [0 1 -1 0 0 0 0];

internalField   nonuniform List<vector> 
2413
(
(1.4 -5.22081e-16 0)
(1.4 -4.58704e-16 0)
(1.4 -1.17589e-16 0)
(1.4 -3.38616e-16 0)
(1.4 5.99178e-17 0)
(1.4 1.39043e-16 0)
(1.4 2.33999e-16 0)
(1.4 3.25452e-16 0)
(1.4 6.48758e-16 0)
(1.4 7.91301e-16 0)
(1.4 1.1118e-15 0)
(1.4 1.33524e-15 0)
(1.4 1.58971e-15 0)
(1.4 2.16752e-15 0)
(1.4 2.55707e-15 0)
(1.4 -3.36012e-15 0)
(1.4 -3.24975e-15 0)
(1.4 -3.3073e-15 0)
(1.4 -3.00871e-15 0)
(1.4 -3.08186e-15 0)
(1.4 -2.94324e-15 0)
(1.4 -2.81759e-15 0)
(1.4 -2.68253e-15 0)
(1.4 -2.66237e-15 0)
(1.4 -2.49468e-15 0)
(1.4 -2.19183e-15 0)
(1.4 -2.01802e-15 0)
(1.4 -1.93996e-15 0)
(1.4 -1.85261e-15 0)
(1.4 -1.68037e-15 0)
(1.4 -1.21367e-15 0)
(1.4 -8.62991e-16 0)
(1.4 -4.50031e-16 0)
(1.4 1.44207e-19 0)
(1.4 3.69047e-18 0)
(1.4 -1.7199e-16 0)
(1.4 -2.58186e-16 0)
(1.4 -3.09147e-16 0)
(1.4 -3.00616e-16 0)
(1.4 -1.81396e-16 0)
(1.4 -1.22495e-16 0)
(1.4 -1.73308e-18 0)
(1.4 1.31985e-16 0)
(1.4 3.72429e-16 0)
(1.4 6.0597e-16 0)
(1.4 7.73567e-16 0)
(1.4 1.07961e-15 0)
(1.4 1.1893e-15 0)
(1.4 1.27617e-15 0)
(1.4 1.15173e-15 0)
(1.4 9.26206e-16 0)
(1.4 7.42484e-16 0)
(1.4 4.38206e-16 0)
(1.4 4.49341e-16 0)
(1.4 5.67461e-16 0)
(1.4 7.06563e-16 0)
(1.4 7.11512e-16 0)
(1.4 8.08964e-16 0)
(1.4 7.50051e-16 0)
(1.4 4.81896e-16 0)
(1.4 2.61203e-16 0)
(1.4 -2.37937e-16 0)
(1.4 -5.43237e-16 0)
(1.4 -6.41474e-16 0)
(1.4 -4.11823e-16 0)
(1.4 -3.1611e-16 0)
(1.4 -9.71515e-16 0)
(1.4 -1.38606e-15 0)
(1.4 -1.82271e-15 0)
(1.4 -2.17681e-15 0)
(1.4 -2.38528e-15 0)
(1.4 -2.87482e-15 0)
(1.4 -3.27743e-15 0)
(1.4 -3.21912e-15 0)
(1.4 -3.35103e-15 0)
(1.4 -3.37358e-15 0)
(1.4 -3.45713e-15 0)
(1.4 -3.63074e-15 0)
(1.4 -3.66547e-15 0)
(1.4 -3.83916e-15 0)
(1.4 -3.9314e-15 0)
(1.4 -3.83642e-15 0)
(1.4 -3.4299e-15 0)
(1.4 -2.8833e-15 0)
(1.4 -2.57341e-15 0)
(1.4 -2.33534e-15 0)
(1.4 -2.08465e-15 0)
(1.4 -1.9569e-15 0)
(1.4 -1.53804e-15 0)
(1.4 -9.59425e-16 0)
(1.4 -6.82403e-17 0)
(1.4 8.4995e-16 0)
(1.4 1.38583e-15 0)
(1.4 1.91297e-15 0)
(1.4 2.07844e-15 0)
(1.4 2.45417e-15 0)
(1.4 2.66224e-15 0)
(1.4 2.9676e-15 0)
(1.4 3.14746e-15 0)
(1.4 3.31696e-15 0)
(1.4 3.28425e-15 0)
(1.4 3.24707e-15 0)
(1.4 3.27414e-15 0)
(1.4 3.28746e-15 0)
(1.4 3.32403e-15 0)
(1.4 3.42621e-15 0)
(1.4 3.60223e-15 0)
(1.4 3.79819e-15 0)
(1.4 4.02039e-15 0)
(1.4 4.08449e-15 0)
(1.4 3.99717e-15 0)
(1.4 3.37289e-15 0)
(1.4 2.90638e-15 0)
(1.4 2.148e-15 0)
(1.4 1.74114e-15 0)
(1.4 1.18288e-15 0)
(1.4 7.96899e-16 0)
(1.4 3.45321e-16 0)
(1.4 -2.28775e-16 0)
(1.4 -4.70834e-16 0)
(1.4 -6.35047e-16 0)
(1.4 -7.15137e-16 0)
(1.4 -9.18946e-16 0)
(1.4 -7.9571e-16 0)
(1.4 -7.40519e-16 0)
(1.4 -6.9156e-16 0)
(1.4 -4.15325e-16 0)
(1.4 9.1638e-17 0)
(1.4 4.34334e-16 0)
(1.4 8.02846e-16 0)
(1.4 1.39195e-15 0)
(1.4 1.83088e-15 0)
(1.4 2.76974e-15 0)
(1.4 3.08919e-15 0)
(1.4 3.21617e-15 0)
(1.4 -3.24599e-15 0)
(1.4 -3.11514e-15 0)
(1.4 -3.03307e-15 0)
(1.4 -2.93857e-15 0)
(1.4 -2.86293e-15 0)
(1.4 -2.75285e-15 0)
(1.4 -2.38291e-15 0)
(1.4 -2.18436e-15 0)
(1.4 -2.16409e-15 0)
(1.4 -2.00241e-15 0)
(1.4 -1.81888e-15 0)
(1.4 -1.66148e-15 0)
(1.4 -1.52142e-15 0)
(1.4 -1.48085e-15 0)
(1.4 -1.49974e-15 0)
(1.4 -1.66481e-15 0)
(1.4 -1.70258e-15 0)
(1.4 -1.27062e-15 0)
(1.4 -8.23187e-16 0)
(1.4 -8.74766e-16 0)
(1.4 -1.01069e-15 0)
(1.4 -1.3437e-15 0)
(1.4 -1.33324e-15 0)
(1.4 -1.25769e-15 0)
(1.4 -1.08219e-15 0)
(1.4 -7.61594e-16 0)
(1.4 -6.68395e-16 0)
(1.4 -5.94108e-16 0)
(1.4 -3.19395e-16 0)
(1.4 1.79627e-16 0)
(1.4 1.0412e-15 0)
(1.4 1.41041e-15 0)
(1.4 1.35901e-15 0)
(1.4 1.42049e-15 0)
(1.4 1.10231e-15 0)
(1.4 9.64618e-16 0)
(1.4 1.25809e-15 0)
(1.4 1.05868e-15 0)
(1.4 8.79748e-16 0)
(1.4 7.54106e-16 0)
(1.4 7.6869e-16 0)
(1.4 9.22019e-16 0)
(1.4 1.06914e-15 0)
(1.4 8.96327e-16 0)
(1.4 7.21419e-16 0)
(1.4 4.89622e-16 0)
(1.4 5.65127e-16 0)
(1.4 6.26944e-16 0)
(1.4 4.74985e-16 0)
(1.4 4.51114e-16 0)
(1.4 3.32689e-17 0)
(1.4 -2.65179e-16 0)
(1.4 -5.25103e-16 0)
(1.4 -1.33216e-15 0)
(1.4 -1.79184e-15 0)
(1.4 -1.80256e-15 0)
(1.4 -1.86864e-15 0)
(1.4 -1.96197e-15 0)
(1.4 -2.14859e-15 0)
(1.4 -2.57369e-15 0)
(1.4 -2.88153e-15 0)
(1.4 -2.90838e-15 0)
(1.4 -2.86961e-15 0)
(1.4 -2.56065e-15 0)
(1.4 -2.4405e-15 0)
(1.4 -2.25077e-15 0)
(1.4 -1.81551e-15 0)
(1.4 -1.71556e-15 0)
(1.4 -1.67315e-15 0)
(1.4 -2.01022e-15 0)
(1.4 -1.82949e-15 0)
(1.4 -1.66465e-15 0)
(1.4 -1.35668e-15 0)
(1.4 -9.21324e-16 0)
(1.4 -1.98554e-16 0)
(1.4 1.00453e-15 0)
(1.4 2.14167e-15 0)
(1.4 2.66579e-15 0)
(1.4 2.65812e-15 0)
(1.4 2.74097e-15 0)
(1.4 2.75491e-15 0)
(1.4 2.78643e-15 0)
(1.4 2.81826e-15 0)
(1.4 2.76408e-15 0)
(1.4 2.70241e-15 0)
(1.4 2.62736e-15 0)
(1.4 2.74442e-15 0)
(1.4 2.56485e-15 0)
(1.4 2.32073e-15 0)
(1.4 2.19302e-15 0)
(1.4 2.05471e-15 0)
(1.4 2.08073e-15 0)
(1.4 2.15096e-15 0)
(1.4 2.13178e-15 0)
(1.4 2.06179e-15 0)
(1.4 1.53368e-15 0)
(1.4 4.98285e-16 0)
(1.4 1.8943e-16 0)
(1.4 1.19935e-17 0)
(1.4 -3.40001e-16 0)
(1.4 -6.43541e-16 0)
(1.4 -1.06859e-15 0)
(1.4 -1.32711e-15 0)
(1.4 -1.24249e-15 0)
(1.4 -1.01369e-15 0)
(1.4 -6.66661e-16 0)
(1.4 -2.55775e-16 0)
(1.4 5.06592e-17 0)
(1.4 2.8767e-16 0)
(1.4 7.98472e-16 0)
(1.4 9.72635e-16 0)
(1.4 1.04938e-15 0)
(1.4 1.20064e-15 0)
(1.4 1.45011e-15 0)
(1.4 1.58053e-15 0)
(1.4 1.84805e-15 0)
(1.4 2.28503e-15 0)
(1.4 2.94624e-15 0)
(1.4 2.79352e-15 0)
(1.4 2.84638e-15 0)
(1.4 -1.36842e-15 0)
(1.4 -1.27385e-15 0)
(1.4 -1.29657e-15 0)
(1.4 -1.26598e-15 0)
(1.4 -1.11244e-15 0)
(1.4 -1.07667e-15 0)
(1.4 -1.0853e-15 0)
(1.4 -1.17933e-15 0)
(1.4 -1.13075e-15 0)
(1.4 -1.09638e-15 0)
(1.4 -1.32498e-15 0)
(1.4 -1.77497e-15 0)
(1.4 -1.89543e-15 0)
(1.4 -2.15548e-15 0)
(1.4 -2.53902e-15 0)
(1.4 -2.86463e-15 0)
(1.4 -3.09398e-15 0)
(1.4 -3.31661e-15 0)
(1.4 -3.24649e-15 0)
(1.4 -3.1595e-15 0)
(1.4 -3.15684e-15 0)
(1.4 -3.19674e-15 0)
(1.4 -2.90027e-15 0)
(1.4 -2.84197e-15 0)
(1.4 -2.67725e-15 0)
(1.4 -2.4704e-15 0)
(1.4 -2.22644e-15 0)
(1.4 -2.06304e-15 0)
(1.4 -1.58289e-15 0)
(1.4 -1.18689e-15 0)
(1.4 -8.81869e-16 0)
(1.4 -5.22634e-16 0)
(1.4 -4.24292e-16 0)
(1.4 -5.00317e-16 0)
(1.4 -7.98364e-17 0)
(1.4 3.1799e-16 0)
(1.4 4.789e-16 0)
(1.4 7.12429e-16 0)
(1.4 9.6694e-16 0)
(1.4 1.20253e-15 0)
(1.4 1.16985e-15 0)
(1.4 1.16697e-15 0)
(1.4 1.09035e-15 0)
(1.4 1.6259e-15 0)
(1.4 2.35822e-15 0)
(1.4 2.51317e-15 0)
(1.4 2.5743e-15 0)
(1.4 2.60961e-15 0)
(1.4 2.39643e-15 0)
(1.4 2.16089e-15 0)
(1.4 2.02378e-15 0)
(1.4 1.81361e-15 0)
(1.4 1.62951e-15 0)
(1.4 1.53678e-15 0)
(1.4 1.61246e-15 0)
(1.4 1.38548e-15 0)
(1.4 1.14243e-15 0)
(1.4 7.84668e-16 0)
(1.4 1.61479e-16 0)
(1.4 -4.52222e-16 0)
(1.4 -8.39187e-16 0)
(1.4 -9.51639e-16 0)
(1.4 -9.11884e-16 0)
(1.4 -1.05701e-15 0)
(1.4 -1.0585e-15 0)
(1.4 -9.83398e-16 0)
(1.4 -7.94258e-16 0)
(1.4 -1.01694e-15 0)
(1.4 -9.79168e-16 0)
(1.4 -1.03272e-15 0)
(1.4 -8.16514e-16 0)
(1.4 -4.83502e-16 0)
(1.4 3.82043e-17 0)
(1.4 3.18711e-16 0)
(1.4 7.76802e-16 0)
(1.4 1.0232e-15 0)
(1.4 1.2477e-15 0)
(1.4 1.29489e-15 0)
(1.4 1.30487e-15 0)
(1.4 1.29567e-15 0)
(1.4 1.28119e-15 0)
(1.4 1.28043e-15 0)
(1.4 1.32953e-15 0)
(1.4 1.49931e-15 0)
(1.4 1.43951e-15 0)
(1.4 1.76262e-15 0)
(1.4 1.99266e-15 0)
(1.4 1.94056e-15 0)
(1.4 1.97594e-15 0)
(1.4 1.94192e-15 0)
(1.4 1.92494e-15 0)
(1.4 1.67169e-15 0)
(1.4 1.31479e-15 0)
(1.4 6.69573e-16 0)
(1.4 -2.43303e-16 0)
(1.4 -1.33307e-15 0)
(1.4 -1.84301e-15 0)
(1.4 -1.97133e-15 0)
(1.4 -2.15771e-15 0)
(1.4 -2.33382e-15 0)
(1.4 -2.31499e-15 0)
(1.4 -2.16134e-15 0)
(1.4 -1.98132e-15 0)
(1.4 -1.76884e-15 0)
(1.4 -1.67805e-15 0)
(1.4 -9.06204e-16 0)
(1.4 -6.93047e-16 0)
(1.4 -4.48812e-16 0)
(1.4 -3.01668e-16 0)
(1.4 -1.47038e-16 0)
(1.4 -1.53071e-16 0)
(1.4 -2.03035e-16 0)
(1.4 1.27989e-17 0)
(1.4 1.18176e-16 0)
(1.4 3.53079e-16 0)
(1.4 5.29732e-16 0)
(1.4 5.22767e-16 0)
(1.4 1.50221e-16 0)
(1.4 1.23395e-17 0)
(1.4 -7.21588e-17 0)
(1.4 1.09308e-15 0)
(1.4 1.20351e-15 0)
(1.4 1.10732e-15 0)
(1.4 1.01006e-15 0)
(1.4 8.78287e-16 0)
(1.4 5.50987e-16 0)
(1.4 2.92099e-16 0)
(1.4 -3.58838e-16 0)
(1.4 -7.39526e-16 0)
(1.4 -9.07658e-16 0)
(1.4 -1.12597e-15 0)
(1.4 -1.1338e-15 0)
(1.4 -1.1433e-15 0)
(1.4 -1.22819e-15 0)
(1.4 -1.22992e-15 0)
(1.4 -1.40656e-15 0)
(1.4 -1.89991e-15 0)
(1.4 -2.45499e-15 0)
(1.4 -3.03439e-15 0)
(1.4 -3.02322e-15 0)
(1.4 -2.79289e-15 0)
(1.4 -2.52187e-15 0)
(1.4 -2.1043e-15 0)
(1.4 -1.80801e-15 0)
(1.4 -1.78734e-15 0)
(1.4 -1.74464e-15 0)
(1.4 -1.64277e-15 0)
(1.4 -1.57353e-15 0)
(1.4 -1.57777e-15 0)
(1.4 -1.55264e-15 0)
(1.4 -1.47057e-15 0)
(1.4 -1.29272e-15 0)
(1.4 -5.53168e-16 0)
(1.4 -3.04469e-16 0)
(1.4 -7.86648e-17 0)
(1.4 1.45578e-16 0)
(1.4 2.80476e-16 0)
(1.4 7.07926e-16 0)
(1.4 1.06845e-15 0)
(1.4 1.51505e-15 0)
(1.4 1.45503e-15 0)
(1.4 1.64078e-15 0)
(1.4 1.62168e-15 0)
(1.4 2.29777e-15 0)
(1.4 2.70645e-15 0)
(1.4 3.40127e-15 0)
(1.4 3.61548e-15 0)
(1.4 3.86734e-15 0)
(1.4 3.99459e-15 0)
(1.4 3.85602e-15 0)
(1.4 3.84729e-15 0)
(1.4 3.84679e-15 0)
(1.4 3.78871e-15 0)
(1.4 3.89458e-15 0)
(1.4 4.19551e-15 0)
(1.4 4.08228e-15 0)
(1.4 3.9702e-15 0)
(1.4 3.67702e-15 0)
(1.4 3.56721e-15 0)
(1.4 3.66201e-15 0)
(1.4 3.23571e-15 0)
(1.4 2.71976e-15 0)
(1.4 1.7535e-15 0)
(1.4 1.37117e-15 0)
(1.4 9.42852e-16 0)
(1.4 5.3234e-16 0)
(1.4 3.36764e-16 0)
(1.4 -1.47426e-16 0)
(1.4 -5.38261e-16 0)
(1.4 -2.37961e-16 0)
(1.4 -9.39865e-17 0)
(1.4 1.48507e-16 0)
(1.4 4.86861e-16 0)
(1.4 8.28219e-16 0)
(1.4 8.29614e-16 0)
(1.4 7.48707e-16 0)
(1.4 6.06183e-16 0)
(1.4 6.98477e-16 0)
(1.4 8.68029e-16 0)
(1.4 9.38492e-16 0)
(1.4 1.06463e-15 0)
(1.4 1.08506e-15 0)
(1.4 1.03914e-15 0)
(1.4 9.5366e-16 0)
(1.4 9.40822e-16 0)
(1.4 7.74242e-16 0)
(1.4 6.97312e-16 0)
(1.4 8.05555e-16 0)
(1.4 8.54286e-16 0)
(1.4 1.01363e-15 0)
(1.4 8.88277e-16 0)
(1.4 4.90199e-16 0)
(1.4 4.08019e-17 0)
(1.4 -3.44744e-16 0)
(1.4 -4.53758e-16 0)
(1.4 -1.04958e-15 0)
(1.4 -1.3586e-15 0)
(1.4 -1.45472e-15 0)
(1.4 -1.22744e-15 0)
(1.4 -9.26157e-16 0)
(1.4 -8.68869e-16 0)
(1.4 -8.90188e-16 0)
(1.4 -8.59431e-16 0)
(1.4 -5.38168e-16 0)
(1.4 -4.46138e-16 0)
(1.4 -3.43041e-16 0)
(1.4 -3.6826e-16 0)
(1.4 -4.91761e-16 0)
(1.4 -5.16709e-16 0)
(1.4 -8.1018e-16 0)
(1.4 -9.05085e-16 0)
(1.4 -1.10674e-15 0)
(1.4 -1.12434e-15 0)
(1.4 -1.03545e-15 0)
(1.4 -7.73993e-16 0)
(1.4 -6.33206e-16 0)
(1.4 -5.11245e-16 0)
(1.4 -5.85717e-16 0)
(1.4 -3.39846e-16 0)
(1.4 -1.52316e-17 0)
(1.4 1.43449e-15 0)
(1.4 1.45691e-15 0)
(1.4 1.43038e-15 0)
(1.4 1.25726e-15 0)
(1.4 1.24841e-15 0)
(1.4 1.14828e-15 0)
(1.4 1.06081e-15 0)
(1.4 8.87598e-16 0)
(1.4 6.178e-16 0)
(1.4 8.32801e-17 0)
(1.4 -1.31568e-16 0)
(1.4 -1.01408e-16 0)
(1.4 -6.5956e-17 0)
(1.4 -7.32564e-17 0)
(1.4 -1.75647e-16 0)
(1.4 -4.06153e-16 0)
(1.4 -5.55371e-16 0)
(1.4 -8.30555e-16 0)
(1.4 -1.01141e-15 0)
(1.4 -1.02549e-15 0)
(1.4 -1.03557e-15 0)
(1.4 -1.01995e-15 0)
(1.4 -1.07348e-15 0)
(1.4 -1.28349e-15 0)
(1.4 -1.39937e-15 0)
(1.4 -1.39794e-15 0)
(1.4 -1.05712e-15 0)
(1.4 -5.25873e-16 0)
(1.4 1.87336e-16 0)
(1.4 6.23844e-16 0)
(1.4 1.64257e-15 0)
(1.4 2.70691e-15 0)
(1.4 3.31434e-15 0)
(1.4 3.51543e-15 0)
(1.4 3.62863e-15 0)
(1.4 3.53378e-15 0)
(1.4 3.49487e-15 0)
(1.4 3.49233e-15 0)
(1.4 3.56026e-15 0)
(1.4 3.59635e-15 0)
(1.4 3.48411e-15 0)
(1.4 3.50743e-15 0)
(1.4 3.77638e-15 0)
(1.4 4.2254e-15 0)
(1.4 4.14791e-15 0)
(1.4 4.16801e-15 0)
(1.4 4.1875e-15 0)
(1.4 4.12436e-15 0)
(1.4 4.272e-15 0)
(1.4 4.46908e-15 0)
(1.4 4.77905e-15 0)
(1.4 4.87781e-15 0)
(1.4 5.16586e-15 0)
(1.4 5.44995e-15 0)
(1.4 5.35122e-15 0)
(1.4 5.1657e-15 0)
(1.4 4.97047e-15 0)
(1.4 4.92901e-15 0)
(1.4 4.84139e-15 0)
(1.4 4.57442e-15 0)
(1.4 4.11454e-15 0)
(1.4 3.67507e-15 0)
(1.4 2.4419e-15 0)
(1.4 1.9934e-15 0)
(1.4 1.1444e-15 0)
(1.4 7.35581e-16 0)
(1.4 4.78706e-16 0)
(1.4 4.6761e-16 0)
(1.4 4.99339e-16 0)
(1.4 5.92476e-16 0)
(1.4 8.32228e-16 0)
(1.4 8.05157e-16 0)
(1.4 8.58423e-16 0)
(1.4 8.60591e-16 0)
(1.4 8.74939e-16 0)
(1.4 9.4526e-16 0)
(1.4 4.56008e-16 0)
(1.4 -1.93712e-16 0)
(1.4 -5.67155e-16 0)
(1.4 -5.59138e-16 0)
(1.4 -6.52622e-16 0)
(1.4 -7.92109e-16 0)
(1.4 -1.00852e-15 0)
(1.4 -1.16672e-15 0)
(1.4 -1.10348e-15 0)
(1.4 -1.22181e-15 0)
(1.4 -1.24188e-15 0)
(1.4 -1.02193e-15 0)
(1.4 -6.87281e-16 0)
(1.4 -4.87823e-16 0)
(1.4 -4.49715e-16 0)
(1.4 -5.83641e-16 0)
(1.4 -6.06784e-16 0)
(1.4 -5.84848e-16 0)
(1.4 -6.1664e-16 0)
(1.4 -6.1766e-16 0)
(1.4 -6.33871e-16 0)
(1.4 -5.56556e-16 0)
(1.4 -4.84939e-16 0)
(1.4 -4.82455e-16 0)
(1.4 -5.50035e-16 0)
(1.4 -6.54812e-16 0)
(1.4 -3.31102e-16 0)
(1.4 -5.54483e-16 0)
(1.4 -8.55352e-16 0)
(1.4 -1.28459e-15 0)
(1.4 -1.58089e-15 0)
(1.4 -1.96551e-15 0)
(1.4 -2.04139e-15 0)
(1.4 -2.09173e-15 0)
(1.4 -2.12095e-15 0)
(1.4 -2.13488e-15 0)
(1.4 -2.09109e-15 0)
(1.4 -2.05248e-15 0)
(1.4 -2.20458e-15 0)
(1.4 -1.71482e-15 0)
(1.4 -1.24486e-15 0)
(1.4 -8.35716e-16 0)
(1.4 -3.44086e-16 0)
(1.4 -3.90963e-17 0)
(1.4 1.47036e-15 0)
(1.4 8.3991e-16 0)
(1.4 7.00696e-16 0)
(1.4 6.81577e-16 0)
(1.4 7.84609e-16 0)
(1.4 8.38228e-16 0)
(1.4 8.9497e-16 0)
(1.4 8.72632e-16 0)
(1.4 8.14813e-16 0)
(1.4 7.9769e-16 0)
(1.4 9.45084e-20 0)
(1.4 -6.70029e-16 0)
(1.4 -1.02238e-15 0)
(1.4 -1.68538e-15 0)
(1.4 -1.91437e-15 0)
(1.4 -2.13565e-15 0)
(1.4 -2.20282e-15 0)
(1.4 -2.11838e-15 0)
(1.4 -2.01198e-15 0)
(1.4 -1.77906e-15 0)
(1.4 -1.74048e-15 0)
(1.4 -1.8451e-15 0)
(1.4 -1.75124e-15 0)
(1.4 -1.46628e-15 0)
(1.4 -9.57058e-16 0)
(1.4 -6.14516e-16 0)
(1.4 -3.70877e-16 0)
(1.4 -2.77786e-17 0)
(1.4 3.24097e-16 0)
(1.4 5.8309e-16 0)
(1.4 6.8286e-16 0)
(1.4 7.83365e-16 0)
(1.4 8.65586e-16 0)
(1.4 8.15384e-16 0)
(1.4 1.26763e-15 0)
(1.4 1.54267e-15 0)
(1.4 1.96296e-15 0)
(1.4 2.5693e-15 0)
(1.4 2.79366e-15 0)
(1.4 2.89176e-15 0)
(1.4 2.96057e-15 0)
(1.4 3.04551e-15 0)
(1.4 3.07142e-15 0)
(1.4 3.20013e-15 0)
(1.4 3.66937e-15 0)
(1.4 4.25433e-15 0)
(1.4 4.8085e-15 0)
(1.4 4.88871e-15 0)
(1.4 4.97536e-15 0)
(1.4 5.10936e-15 0)
(1.4 5.26036e-15 0)
(1.4 5.3618e-15 0)
(1.4 5.80055e-15 0)
(1.4 6.06685e-15 0)
(1.4 6.36947e-15 0)
(1.4 6.11154e-15 0)
(1.4 5.73791e-15 0)
(1.4 5.56159e-15 0)
(1.4 5.00193e-15 0)
(1.4 4.25288e-15 0)
(1.4 3.26621e-15 0)
(1.4 2.97609e-15 0)
(1.4 2.91365e-15 0)
(1.4 2.90749e-15 0)
(1.4 2.52904e-15 0)
(1.4 2.19957e-15 0)
(1.4 1.98488e-15 0)
(1.4 1.81847e-15 0)
(1.4 1.75728e-15 0)
(1.4 1.89632e-15 0)
(1.4 1.33159e-15 0)
(1.4 6.26716e-16 0)
(1.4 2.94252e-16 0)
(1.4 -5.05245e-16 0)
(1.4 -1.47629e-15 0)
(1.4 -1.84566e-15 0)
(1.4 -2.17067e-15 0)
(1.4 -3.37566e-15 0)
(1.4 -3.75134e-15 0)
(1.4 -3.88977e-15 0)
(1.4 -3.9696e-15 0)
(1.4 -3.95522e-15 0)
(1.4 -3.83087e-15 0)
(1.4 -3.72093e-15 0)
(1.4 -3.59642e-15 0)
(1.4 -3.26563e-15 0)
(1.4 -3.08086e-15 0)
(1.4 -2.97304e-15 0)
(1.4 -2.97706e-15 0)
(1.4 -3.03944e-15 0)
(1.4 -2.39708e-15 0)
(1.4 -1.85732e-15 0)
(1.4 -1.36564e-15 0)
(1.4 -1.42158e-15 0)
(1.4 -1.38015e-15 0)
(1.4 -1.04148e-15 0)
(1.4 -1.27878e-15 0)
(1.4 -1.69297e-15 0)
(1.4 -1.81063e-15 0)
(1.4 -1.79595e-15 0)
(1.4 -1.75887e-15 0)
(1.4 -1.63605e-15 0)
(1.4 -1.60844e-15 0)
(1.4 -1.67533e-15 0)
(1.4 -1.72894e-15 0)
(1.4 -1.88125e-15 0)
(1.4 -2.01591e-15 0)
(1.4 -2.17781e-15 0)
(1.4 -2.30813e-15 0)
(1.4 -2.47641e-15 0)
(1.4 -2.56884e-15 0)
(1.4 -2.40333e-15 0)
(1.4 -1.91685e-15 0)
(1.4 -1.79584e-15 0)
(1.4 -1.57268e-15 0)
(1.4 -6.44469e-16 0)
(1.4 -7.56741e-17 0)
(1.4 2.9915e-16 0)
(1.4 4.67417e-16 0)
(1.4 1.06757e-15 0)
(1.4 1.40402e-15 0)
(1.4 1.26058e-15 0)
(1.4 1.15472e-15 0)
(1.4 1.21065e-15 0)
(1.4 1.33757e-15 0)
(1.4 1.49679e-15 0)
(1.4 1.70552e-15 0)
(1.4 1.78279e-15 0)
(1.4 1.77973e-15 0)
(1.4 1.80354e-15 0)
(1.4 1.61779e-15 0)
(1.4 8.96048e-16 0)
(1.4 5.17696e-16 0)
(1.4 -2.7421e-16 0)
(1.4 -8.73464e-16 0)
(1.4 -9.86341e-16 0)
(1.4 -1.08485e-15 0)
(1.4 -1.01855e-15 0)
(1.4 -8.74331e-16 0)
(1.4 -7.32455e-16 0)
(1.4 -6.14646e-16 0)
(1.4 -4.79165e-16 0)
(1.4 -3.89124e-16 0)
(1.4 -3.92814e-16 0)
(1.4 1.55501e-17 0)
(1.4 3.84476e-16 0)
(1.4 4.58277e-16 0)
(1.4 3.72247e-16 0)
(1.4 3.4795e-16 0)
(1.4 2.45486e-16 0)
(1.4 -2.67792e-16 0)
(1.4 -3.52266e-16 0)
(1.4 -3.15666e-16 0)
(1.4 -3.55792e-16 0)
(1.4 -1.26936e-16 0)
(1.4 5.92453e-16 0)
(1.4 7.10588e-16 0)
(1.4 9.87722e-16 0)
(1.4 1.16825e-15 0)
(1.4 1.18287e-15 0)
(1.4 1.10179e-15 0)
(1.4 1.0524e-15 0)
(1.4 9.30038e-16 0)
(1.4 9.52591e-16 0)
(1.4 1.72375e-15 0)
(1.4 3.36837e-15 0)
(1.4 4.59442e-15 0)
(1.4 4.83373e-15 0)
(1.4 5.24079e-15 0)
(1.4 5.24572e-15 0)
(1.4 5.19687e-15 0)
(1.4 5.24931e-15 0)
(1.4 5.20115e-15 0)
(1.4 5.10675e-15 0)
(1.4 4.98225e-15 0)
(1.4 4.68819e-15 0)
(1.4 4.16481e-15 0)
(1.4 3.40347e-15 0)
(1.4 2.86686e-15 0)
(1.4 2.52407e-15 0)
(1.4 2.19892e-15 0)
(1.4 2.27528e-15 0)
(1.4 2.26868e-15 0)
(1.4 2.20964e-15 0)
(1.4 2.33404e-15 0)
(1.4 2.4255e-15 0)
(1.4 2.56794e-15 0)
(1.4 2.52151e-15 0)
(1.4 2.41623e-15 0)
(1.4 2.41683e-15 0)
(1.4 1.96686e-15 0)
(1.4 1.56261e-15 0)
(1.4 1.22531e-15 0)
(1.4 6.11361e-16 0)
(1.4 -8.79234e-17 0)
(1.4 -1.81698e-15 0)
(1.4 -2.16269e-15 0)
(1.4 -2.15063e-15 0)
(1.4 -2.08426e-15 0)
(1.4 -2.0958e-15 0)
(1.4 -2.028e-15 0)
(1.4 -2.15652e-15 0)
(1.4 -1.91963e-15 0)
(1.4 -1.93314e-15 0)
(1.4 -1.87178e-15 0)
(1.4 -1.77628e-15 0)
(1.4 -1.83948e-15 0)
(1.4 -1.92729e-15 0)
(1.4 -2.01268e-15 0)
(1.4 -2.42547e-15 0)
(1.4 -2.65078e-15 0)
(1.4 -2.65175e-15 0)
(1.4 -2.42664e-15 0)
(1.4 -1.98616e-15 0)
(1.4 -1.45027e-15 0)
(1.4 -6.11919e-16 0)
(1.4 -3.09384e-16 0)
(1.4 -2.70035e-16 0)
(1.4 -2.93834e-16 0)
(1.4 -5.82066e-16 0)
(1.4 -8.91765e-16 0)
(1.4 -9.49886e-16 0)
(1.4 -1.37148e-15 0)
(1.4 -1.41681e-15 0)
(1.4 -1.18968e-15 0)
(1.4 -9.88476e-16 0)
(1.4 -8.80708e-16 0)
(1.4 -7.71188e-16 0)
(1.4 -6.60195e-16 0)
(1.4 -4.57487e-16 0)
(1.4 -3.5975e-16 0)
(1.4 -2.10716e-16 0)
(1.4 5.98416e-17 0)
(1.4 3.35539e-16 0)
(1.4 4.03042e-16 0)
(1.4 5.02676e-16 0)
(1.4 5.7557e-16 0)
(1.4 7.70424e-16 0)
(1.4 9.38714e-16 0)
(1.4 1.44237e-15 0)
(1.4 2.22905e-15 0)
(1.4 2.25277e-15 0)
(1.4 2.21e-15 0)
(1.4 2.06364e-15 0)
(1.4 1.96018e-15 0)
(1.4 1.42892e-15 0)
(1.4 9.40381e-16 0)
(1.4 5.07778e-16 0)
(1.4 5.71777e-16 0)
(1.4 1.07173e-15 0)
(1.4 1.76887e-15 0)
(1.4 1.83512e-15 0)
(1.4 1.88266e-15 0)
(1.4 2.02669e-15 0)
(1.4 1.76262e-15 0)
(1.4 1.58859e-15 0)
(1.4 1.55299e-15 0)
(1.4 1.43813e-15 0)
(1.4 1.31245e-15 0)
(1.4 1.21935e-15 0)
(1.4 1.10627e-15 0)
(1.4 1.12314e-15 0)
(1.4 1.33695e-15 0)
(1.4 1.41362e-15 0)
(1.4 1.54224e-15 0)
(1.4 1.902e-15 0)
(1.4 1.99702e-15 0)
(1.4 1.72405e-15 0)
(1.4 1.39576e-15 0)
(1.4 1.21248e-15 0)
(1.4 7.40166e-16 0)
(1.4 7.60064e-16 0)
(1.4 8.84191e-16 0)
(1.4 9.77853e-16 0)
(1.4 1.06923e-15 0)
(1.4 1.08736e-15 0)
(1.4 1.01866e-15 0)
(1.4 9.33548e-16 0)
(1.4 9.15474e-16 0)
(1.4 6.55348e-16 0)
(1.4 5.73717e-16 0)
(1.4 4.75538e-16 0)
(1.4 4.59688e-16 0)
(1.4 7.12776e-16 0)
(1.4 1.3021e-15 0)
(1.4 1.37621e-15 0)
(1.4 2.25406e-15 0)
(1.4 3.06604e-15 0)
(1.4 3.53944e-15 0)
(1.4 3.53029e-15 0)
(1.4 3.46035e-15 0)
(1.4 3.47894e-15 0)
(1.4 3.29666e-15 0)
(1.4 2.45203e-15 0)
(1.4 1.63062e-15 0)
(1.4 1.44416e-15 0)
(1.4 1.2923e-15 0)
(1.4 1.23434e-15 0)
(1.4 1.2799e-15 0)
(1.4 1.37261e-15 0)
(1.4 1.497e-15 0)
(1.4 1.11985e-15 0)
(1.4 1.01434e-15 0)
(1.4 1.01664e-15 0)
(1.4 1.00348e-15 0)
(1.4 1.30739e-15 0)
(1.4 1.48074e-15 0)
(1.4 1.54381e-15 0)
(1.4 1.19805e-15 0)
(1.4 9.68499e-16 0)
(1.4 3.34908e-16 0)
(1.4 -2.30391e-17 0)
(1.4 -2.2968e-16 0)
(1.4 -1.83122e-16 0)
(1.4 -4.19188e-16 0)
(1.4 -7.77285e-16 0)
(1.4 -1.02002e-15 0)
(1.4 -1.1659e-15 0)
(1.4 -1.27488e-15 0)
(1.4 -1.79348e-15 0)
(1.4 -1.93505e-15 0)
(1.4 -2.20629e-15 0)
(1.4 -2.48091e-15 0)
(1.4 -2.96884e-15 0)
(1.4 -3.10953e-15 0)
(1.4 -3.29185e-15 0)
(1.4 -3.18981e-15 0)
(1.4 -3.43467e-15 0)
(1.4 -3.61814e-15 0)
(1.4 -3.82255e-15 0)
(1.4 -4.4196e-15 0)
(1.4 -5.03002e-15 0)
(1.4 -5.1721e-15 0)
(1.4 -4.84005e-15 0)
(1.4 -4.177e-15 0)
(1.4 -3.17182e-15 0)
(1.4 -2.06202e-15 0)
(1.4 -8.51793e-16 0)
(1.4 -4.49511e-16 0)
(1.4 -4.26393e-16 0)
(1.4 -5.02767e-16 0)
(1.4 -5.48336e-16 0)
(1.4 -4.5519e-16 0)
(1.4 -3.77962e-16 0)
(1.4 2.50788e-17 0)
(1.4 9.00903e-17 0)
(1.4 3.8886e-16 0)
(1.4 5.84826e-16 0)
(1.4 8.71804e-16 0)
(1.4 1.43749e-15 0)
(1.4 1.52908e-15 0)
(1.4 1.30663e-15 0)
(1.4 1.11297e-15 0)
(1.4 9.74044e-16 0)
(1.4 5.35314e-16 0)
(1.4 2.86089e-16 0)
(1.4 1.0198e-16 0)
(1.4 9.02467e-17 0)
(1.4 2.13618e-16 0)
(1.4 3.37128e-16 0)
(1.4 4.1263e-15 0)
(1.4 4.40845e-15 0)
(1.4 4.48085e-15 0)
(1.4 4.49372e-15 0)
(1.4 4.37806e-15 0)
(1.4 4.28813e-15 0)
(1.4 3.98989e-15 0)
(1.4 3.47256e-15 0)
(1.4 3.16533e-15 0)
(1.4 3.02035e-15 0)
(1.4 3.0581e-15 0)
(1.4 3.19162e-15 0)
(1.4 3.57531e-15 0)
(1.4 4.38427e-15 0)
(1.4 4.58748e-15 0)
(1.4 4.53338e-15 0)
(1.4 3.93749e-15 0)
(1.4 3.70862e-15 0)
(1.4 2.87505e-15 0)
(1.4 1.87545e-15 0)
(1.4 1.41065e-15 0)
(1.4 1.22138e-15 0)
(1.4 1.50134e-15 0)
(1.4 2.03379e-15 0)
(1.4 2.34779e-15 0)
(1.4 2.26526e-15 0)
(1.4 2.20085e-15 0)
(1.4 2.44892e-15 0)
(1.4 2.18126e-15 0)
(1.4 2.03483e-15 0)
(1.4 1.77496e-15 0)
(1.4 1.72123e-15 0)
(1.4 1.67267e-15 0)
(1.4 1.99368e-15 0)
(1.4 2.54371e-15 0)
(1.4 3.31191e-15 0)
(1.4 3.53407e-15 0)
(1.4 3.19167e-15 0)
(1.4 2.75415e-15 0)
(1.4 2.4306e-15 0)
(1.4 2.45987e-15 0)
(1.4 2.3749e-15 0)
(1.4 2.05184e-15 0)
(1.4 1.72393e-15 0)
(1.4 1.22588e-15 0)
(1.4 4.24015e-16 0)
(1.4 3.00999e-16 0)
(1.4 3.78892e-16 0)
(1.4 3.8884e-16 0)
(1.4 9.22415e-17 0)
(1.4 -1.40696e-16 0)
(1.4 -2.52041e-16 0)
(1.4 -5.43282e-16 0)
(1.4 -7.24712e-16 0)
(1.4 -9.59845e-16 0)
(1.4 -1.06168e-15 0)
(1.4 -9.44201e-16 0)
(1.4 -6.75033e-16 0)
(1.4 -3.53684e-16 0)
(1.4 -1.53084e-16 0)
(1.4 2.24068e-16 0)
(1.4 4.32867e-16 0)
(1.4 5.57615e-16 0)
(1.4 8.10099e-16 0)
(1.4 9.78777e-16 0)
(1.4 1.04906e-15 0)
(1.4 9.58564e-16 0)
(1.4 7.00042e-16 0)
(1.4 5.03662e-16 0)
(1.4 8.14557e-16 0)
(1.4 2.76208e-16 0)
(1.4 -5.21271e-16 0)
(1.4 -7.36878e-16 0)
(1.4 -1.07135e-15 0)
(1.4 -1.18232e-15 0)
(1.4 -1.18624e-15 0)
(1.4 -1.0771e-15 0)
(1.4 -1.05961e-15 0)
(1.4 -9.44343e-16 0)
(1.4 -8.663e-16 0)
(1.4 -8.59934e-16 0)
(1.4 -8.51466e-16 0)
(1.4 -9.61809e-16 0)
(1.4 -1.14676e-15 0)
(1.4 -1.54867e-15 0)
(1.4 -2.14778e-15 0)
(1.4 -2.60536e-15 0)
(1.4 -2.64191e-15 0)
(1.4 -3.43876e-15 0)
(1.4 -4.19388e-15 0)
(1.4 -4.60054e-15 0)
(1.4 -4.5861e-15 0)
(1.4 -4.45252e-15 0)
(1.4 -4.11614e-15 0)
(1.4 -3.76937e-15 0)
(1.4 -3.48914e-15 0)
(1.4 -2.96434e-15 0)
(1.4 -2.10816e-15 0)
(1.4 -1.05781e-15 0)
(1.4 -5.25036e-16 0)
(1.4 7.07668e-17 0)
(1.4 -2.74934e-16 0)
(1.4 6.88291e-16 0)
(1.4 1.21673e-15 0)
(1.4 2.14137e-15 0)
(1.4 2.85899e-15 0)
(1.4 3.1284e-15 0)
(1.4 3.26565e-15 0)
(1.4 3.50441e-15 0)
(1.4 3.55397e-15 0)
(1.4 3.75383e-15 0)
(1.4 3.72732e-15 0)
(1.4 3.11294e-15 0)
(1.4 2.39399e-15 0)
(1.4 1.48187e-15 0)
(1.4 8.08383e-16 0)
(1.4 6.37323e-16 0)
(1.4 5.37904e-16 0)
(1.4 5.14813e-16 0)
(1.4 7.3766e-16 0)
(1.4 5.04181e-15 0)
(1.4 5.3641e-15 0)
(1.4 5.51512e-15 0)
(1.4 5.52947e-15 0)
(1.4 5.23949e-15 0)
(1.4 4.25012e-15 0)
(1.4 3.18837e-15 0)
(1.4 2.89786e-15 0)
(1.4 3.02565e-15 0)
(1.4 2.85823e-15 0)
(1.4 3.21268e-15 0)
(1.4 3.15403e-15 0)
(1.4 3.33431e-15 0)
(1.4 3.42578e-15 0)
(1.4 3.36313e-15 0)
(1.4 3.39954e-15 0)
(1.4 3.23951e-15 0)
(1.4 3.17395e-15 0)
(1.4 3.06765e-15 0)
(1.4 2.68151e-15 0)
(1.4 2.279e-15 0)
(1.4 1.94612e-15 0)
(1.4 1.69264e-15 0)
(1.4 1.61654e-15 0)
(1.4 1.73154e-15 0)
(1.4 1.59925e-15 0)
(1.4 1.43572e-15 0)
(1.4 1.53652e-15 0)
(1.4 1.73888e-15 0)
(1.4 1.95583e-15 0)
(1.4 2.20229e-15 0)
(1.4 2.63427e-15 0)
(1.4 2.85586e-15 0)
(1.4 2.88207e-15 0)
(1.4 2.78706e-15 0)
(1.4 2.7101e-15 0)
(1.4 2.66864e-15 0)
(1.4 1.76391e-15 0)
(1.4 9.84023e-16 0)
(1.4 7.64758e-16 0)
(1.4 3.22781e-16 0)
(1.4 -9.78167e-17 0)
(1.4 -7.497e-16 0)
(1.4 -1.09805e-15 0)
(1.4 -1.43022e-15 0)
(1.4 -1.70585e-15 0)
(1.4 -2.10145e-15 0)
(1.4 -2.51873e-15 0)
(1.4 -3.08125e-15 0)
(1.4 -3.64213e-15 0)
(1.4 -3.89146e-15 0)
(1.4 -3.73666e-15 0)
(1.4 -3.62002e-15 0)
(1.4 -3.42742e-15 0)
(1.4 -3.17565e-15 0)
(1.4 -2.93686e-15 0)
(1.4 -2.70085e-15 0)
(1.4 -2.44858e-15 0)
(1.4 -1.66627e-15 0)
(1.4 -1.1579e-15 0)
(1.4 -7.42686e-16 0)
(1.4 -1.86692e-16 0)
(1.4 3.89308e-16 0)
(1.4 7.51798e-16 0)
(1.4 1.12312e-15 0)
(1.4 1.06372e-15 0)
(1.4 1.0058e-15 0)
(1.4 1.07676e-15 0)
(1.4 7.98643e-16 0)
(1.4 2.05062e-16 0)
(1.4 -5.91491e-17 0)
(1.4 -1.84642e-16 0)
(1.4 -3.18869e-16 0)
(1.4 -3.52934e-16 0)
(1.4 -6.30979e-16 0)
(1.4 -8.69434e-16 0)
(1.4 -7.95799e-16 0)
(1.4 -4.44863e-16 0)
(1.4 1.84041e-16 0)
(1.4 5.94006e-16 0)
(1.4 7.37694e-16 0)
(1.4 7.7827e-16 0)
(1.4 5.20693e-16 0)
(1.4 3.1353e-16 0)
(1.4 -7.28839e-17 0)
(1.4 -4.00189e-16 0)
(1.4 -7.98694e-16 0)
(1.4 -1.62278e-15 0)
(1.4 -1.97836e-15 0)
(1.4 -1.94489e-15 0)
(1.4 -1.48053e-15 0)
(1.4 -1.12614e-15 0)
(1.4 -3.48858e-16 0)
(1.4 3.37793e-16 0)
(1.4 5.91937e-16 0)
(1.4 7.18251e-16 0)
(1.4 8.71841e-16 0)
(1.4 9.51976e-16 0)
(1.4 1.21405e-15 0)
(1.4 1.4433e-15 0)
(1.4 1.72216e-15 0)
(1.4 2.23787e-15 0)
(1.4 3.08788e-15 0)
(1.4 3.69928e-15 0)
(1.4 3.92126e-15 0)
(1.4 3.93978e-15 0)
(1.4 3.94382e-15 0)
(1.4 3.96236e-15 0)
(1.4 3.81821e-15 0)
(1.4 3.57934e-15 0)
(1.4 3.36333e-15 0)
(1.4 3.33288e-15 0)
(1.4 3.22012e-15 0)
(1.4 3.16903e-15 0)
(1.4 2.98227e-15 0)
(1.4 2.3105e-15 0)
(1.4 2.04134e-15 0)
(1.4 2.01285e-15 0)
(1.4 2.08397e-15 0)
(1.4 2.19316e-15 0)
(1.4 3.50307e-15 0)
(1.4 3.58448e-15 0)
(1.4 3.2762e-15 0)
(1.4 2.94467e-15 0)
(1.4 2.68061e-15 0)
(1.4 2.40624e-15 0)
(1.4 2.40802e-15 0)
(1.4 2.4798e-15 0)
(1.4 2.86653e-15 0)
(1.4 2.90195e-15 0)
(1.4 3.10608e-15 0)
(1.4 2.93696e-15 0)
(1.4 2.78982e-15 0)
(1.4 2.59455e-15 0)
(1.4 2.17889e-15 0)
(1.4 2.262e-15 0)
(1.4 2.5615e-15 0)
(1.4 3.1484e-15 0)
(1.4 3.60198e-15 0)
(1.4 4.04148e-15 0)
(1.4 4.43755e-15 0)
(1.4 5.12783e-15 0)
(1.4 5.39906e-15 0)
(1.4 4.78378e-15 0)
(1.4 3.89247e-15 0)
(1.4 3.40988e-15 0)
(1.4 2.92156e-15 0)
(1.4 2.61209e-15 0)
(1.4 2.42065e-15 0)
(1.4 2.53183e-15 0)
(1.4 2.95602e-15 0)
(1.4 2.31578e-15 0)
(1.4 6.05402e-16 0)
(1.4 2.25002e-16 0)
(1.4 -5.37756e-17 0)
(1.4 -3.14414e-16 0)
(1.4 -6.39219e-16 0)
(1.4 -1.16515e-15 0)
(1.4 -1.81449e-15 0)
(1.4 -1.94149e-15 0)
(1.4 -2.45289e-15 0)
(1.4 -2.94343e-15 0)
(1.4 -3.32442e-15 0)
(1.4 -3.58504e-15 0)
(1.4 -4.15304e-15 0)
(1.4 -4.41649e-15 0)
(1.4 -4.81519e-15 0)
(1.4 -5.2068e-15 0)
(1.4 -5.42427e-15 0)
(1.4 -5.4736e-15 0)
(1.4 -5.46307e-15 0)
(1.4 -5.5053e-15 0)
(1.4 -4.89026e-15 0)
(1.4 -4.18871e-15 0)
(1.4 -3.93981e-15 0)
(1.4 -3.52749e-15 0)
(1.4 -3.11848e-15 0)
(1.4 -2.79072e-15 0)
(1.4 -2.16288e-15 0)
(1.4 -1.39537e-15 0)
(1.4 -9.34137e-16 0)
(1.4 -5.85481e-16 0)
(1.4 -1.59678e-16 0)
(1.4 1.33049e-16 0)
(1.4 1.44579e-16 0)
(1.4 -1.7811e-17 0)
(1.4 -3.6815e-17 0)
(1.4 2.24104e-16 0)
(1.4 6.78592e-16 0)
(1.4 8.9916e-16 0)
(1.4 9.59575e-16 0)
(1.4 8.90695e-16 0)
(1.4 7.26231e-16 0)
(1.4 7.85174e-16 0)
(1.4 8.64584e-16 0)
(1.4 8.93979e-16 0)
(1.4 9.52462e-16 0)
(1.4 7.80602e-16 0)
(1.4 4.70889e-16 0)
(1.4 -2.09773e-16 0)
(1.4 -5.4492e-16 0)
(1.4 -9.60266e-16 0)
(1.4 -1.23981e-15 0)
(1.4 -1.57342e-15 0)
(1.4 -1.81088e-15 0)
(1.4 -1.67464e-15 0)
(1.4 -5.41566e-16 0)
(1.4 -1.31928e-16 0)
(1.4 3.05546e-16 0)
(1.4 9.33452e-16 0)
(1.4 1.67178e-15 0)
(1.4 2.14448e-15 0)
(1.4 2.2033e-15 0)
(1.4 2.15537e-15 0)
(1.4 2.35731e-15 0)
(1.4 3.22491e-15 0)
(1.4 3.67871e-15 0)
(1.4 4.15578e-15 0)
(1.4 4.54372e-15 0)
(1.4 4.70006e-15 0)
(1.4 4.98084e-15 0)
(1.4 5.06217e-15 0)
(1.4 4.99991e-15 0)
(1.4 4.89902e-15 0)
(1.4 4.53621e-15 0)
(1.4 3.85665e-15 0)
(1.4 3.62225e-15 0)
(1.4 3.42588e-15 0)
(1.4 3.37002e-15 0)
(1.4 3.17307e-15 0)
(1.4 2.5549e-15 0)
(1.4 2.32286e-15 0)
(1.4 2.36255e-15 0)
(1.4 2.29952e-15 0)
(1.4 2.33935e-15 0)
(1.4 2.30925e-15 0)
(1.4 2.31604e-15 0)
(1.4 2.35604e-15 0)
(1.4 2.53854e-15 0)
(1.4 2.67343e-15 0)
(1.4 2.1087e-15 0)
(1.4 2.41207e-15 0)
(1.4 2.52714e-15 0)
(1.4 3.37137e-15 0)
(1.4 4.15078e-15 0)
(1.4 4.56083e-15 0)
(1.4 4.76252e-15 0)
(1.4 4.48748e-15 0)
(1.4 4.06874e-15 0)
(1.4 3.68027e-15 0)
(1.4 3.3127e-15 0)
(1.4 3.13586e-15 0)
(1.4 2.59433e-15 0)
(1.4 2.3313e-15 0)
(1.4 2.4739e-15 0)
(1.4 2.53436e-15 0)
(1.4 2.61123e-15 0)
(1.4 3.08784e-15 0)
(1.4 3.67263e-15 0)
(1.4 4.40369e-15 0)
(1.4 5.53968e-15 0)
(1.4 5.95971e-15 0)
(1.4 5.71839e-15 0)
(1.4 5.05828e-15 0)
(1.4 4.38736e-15 0)
(1.4 4.01794e-15 0)
(1.4 3.38125e-15 0)
(1.4 2.42584e-15 0)
(1.4 1.42451e-15 0)
(1.4 9.73353e-16 0)
(1.4 9.11999e-16 0)
(1.4 1.5954e-16 0)
(1.4 -1.15039e-15 0)
(1.4 -1.42302e-15 0)
(1.4 -1.77872e-15 0)
(1.4 -1.79471e-15 0)
(1.4 -2.04787e-15 0)
(1.4 -2.1406e-15 0)
(1.4 -2.42006e-15 0)
(1.4 -2.46173e-15 0)
(1.4 -2.33277e-15 0)
(1.4 -2.42307e-15 0)
(1.4 -2.71063e-15 0)
(1.4 -2.94447e-15 0)
(1.4 -3.19795e-15 0)
(1.4 -3.48263e-15 0)
(1.4 -3.67448e-15 0)
(1.4 -3.73096e-15 0)
(1.4 -3.70792e-15 0)
(1.4 -3.42951e-15 0)
(1.4 -3.18525e-15 0)
(1.4 -2.8543e-15 0)
(1.4 -2.93846e-15 0)
(1.4 -3.15008e-15 0)
(1.4 -3.02009e-15 0)
(1.4 -2.67334e-15 0)
(1.4 -2.31464e-15 0)
(1.4 -2.1328e-15 0)
(1.4 -2.12212e-15 0)
(1.4 -1.89435e-15 0)
(1.4 -1.5989e-15 0)
(1.4 -1.39366e-15 0)
(1.4 -1.23542e-15 0)
(1.4 -1.0102e-15 0)
(1.4 -1.05933e-15 0)
(1.4 -1.10975e-15 0)
(1.4 -1.29994e-15 0)
(1.4 -1.24668e-15 0)
(1.4 -1.24451e-15 0)
(1.4 -1.21007e-15 0)
(1.4 -9.84203e-16 0)
(1.4 -5.25565e-16 0)
(1.4 -4.00044e-16 0)
(1.4 -3.2624e-16 0)
(1.4 -3.22977e-16 0)
(1.4 -1.44869e-16 0)
(1.4 -1.80212e-16 0)
(1.4 -3.86583e-16 0)
(1.4 -9.30696e-16 0)
(1.4 -1.24372e-15 0)
(1.4 -1.46157e-15 0)
(1.4 -1.38632e-15 0)
(1.4 -1.03711e-15 0)
(1.4 -1.81855e-16 0)
(1.4 3.10582e-16 0)
(1.4 5.18012e-16 0)
(1.4 7.34672e-16 0)
(1.4 1.37373e-15 0)
(1.4 2.07611e-15 0)
(1.4 2.39422e-15 0)
(1.4 2.51372e-15 0)
(1.4 2.77142e-15 0)
(1.4 2.93194e-15 0)
(1.4 2.7177e-15 0)
(1.4 2.51829e-15 0)
(1.4 2.51349e-15 0)
(1.4 2.48929e-15 0)
(1.4 2.60065e-15 0)
(1.4 2.56164e-15 0)
(1.4 2.61577e-15 0)
(1.4 2.88303e-15 0)
(1.4 2.87284e-15 0)
(1.4 2.86144e-15 0)
(1.4 2.70523e-15 0)
(1.4 2.51815e-15 0)
(1.4 2.31319e-15 0)