/*--------------------------------*- C++ -*----------------------------------*\
  =========                 |
  \\      /  F ield         | OpenFOAM: The Open Source CFD Toolbox
   \\    /   O peration     | Website:  https://openfoam.org
    \\  /    A nd           | Version:  7
     \\/     M anipulation  |
\*---------------------------------------------------------------------------*/
FoamFile
{
    version     2.0;
    format      ascii;
    class       surfaceScalarField;
    location    "1.03";
    object      phi;
}
// * * * * * * * * * * * * * * * * * * * * * * * * * * * * * * * * * * * * * //

dimensions      [0 3 -1 0 0 0 0];

internalField   nonuniform List<scalar> 
18389
(
-7.97307e-05
7.97307e-05
4.34395e-05
-4.34395e-05
-5.20442e-05
5.20442e-05
4.00997e-05
-4.00997e-05
-5.17846e-05
5.17846e-05
-4.00337e-05
4.00337e-05
-3.46317e-05
3.46317e-05
3.90547e-05
-3.90547e-05
-3.56231e-05
3.56231e-05
4.14815e-05
-4.14815e-05
4.49221e-05
-4.49221e-05
-3.46112e-05
3.46112e-05
-1.44213e-05
1.44213e-05
-4.28665e-05
4.28665e-05
4.34615e-05
-4.34615e-05
2.47227e-05
-2.47226e-05
1.91391e-05
-1.91391e-05
4.58903e-05
-4.58903e-05
4.59226e-05
-4.59226e-05
4.33872e-05
-4.33872e-05
-4.2603e-05
4.2603e-05
3.56909e-05
-3.56909e-05
4.29654e-05
-4.29654e-05
-5.84963e-05
5.84963e-05
-4.96996e-05
4.96996e-05
-4.18269e-05
4.18269e-05
-4.45444e-05
4.45444e-05
4.56281e-05
-4.56281e-05
4.58511e-05
-4.58511e-05
4.41411e-05
-4.41411e-05
-4.13385e-05
4.13385e-05
-6.30749e-05
6.30749e-05
4.31161e-05
-4.31161e-05
-4.47458e-05
4.47458e-05
4.08604e-05
-4.08604e-05
4.66942e-05
-4.66942e-05
-4.55519e-05
4.5552e-05
5.35714e-05
-5.35714e-05
-5.88741e-05
5.88741e-05
3.78741e-05
-3.78741e-05
4.48362e-05
-4.48362e-05
4.53818e-05
-4.53818e-05
-4.10123e-05
4.10123e-05
4.49006e-05
-4.49006e-05
4.58654e-05
-4.58654e-05
-4.58504e-05
4.58504e-05
-4.5847e-05
4.5847e-05
-4.06617e-05
4.06617e-05
-4.58849e-05
4.58849e-05
4.59408e-05
-4.59408e-05
4.59597e-05
-4.59597e-05
4.46208e-05
-4.46208e-05
3.77333e-05
-3.77333e-05
-4.57637e-05
4.57637e-05
-5.55449e-05
5.55449e-05
-4.38137e-05
4.38137e-05
4.5752e-05
-4.5752e-05
-4.5995e-05
4.5995e-05
4.32269e-05
-4.32269e-05
-5.93193e-05
5.93193e-05
-4.71465e-05
4.71465e-05
4.96054e-05
-4.96054e-05
4.57378e-05
-4.57378e-05
-9.44905e-06
9.44906e-06
4.57716e-05
-4.57716e-05
4.14754e-05
-4.14754e-05
5.12092e-05
-5.12092e-05
-4.58725e-05
4.58725e-05
4.23117e-05
-4.23117e-05
3.16475e-05
-3.16475e-05
1.49239e-06
-1.49239e-06
-4.40698e-05
4.40698e-05
3.28687e-05
-3.28687e-05
-3.65649e-05
3.65649e-05
3.97581e-05
-3.97581e-05
2.66258e-05
-2.66258e-05
2.61996e-05
-2.61996e-05
2.70484e-05
-2.70484e-05
2.43905e-05
-2.43905e-05
1.32262e-05
-1.32262e-05
0.00107217
-0.000879643
-0.000192525
0.00546671
-0.00207553
-0.00339118
-0.00594636
0.00594634
1.10929e-08
0.00335419
-0.00259841
-0.000755777
-0.00154765
0.00176153
-0.000213882
-0.00676067
0.00284206
0.00391862
0.0012152
0.00425152
0.00725521
-0.00587554
-0.00137967
0.00118338
-0.00191845
0.00073507
-0.000870789
-0.000676862
-0.00144224
-0.000314622
0.00175687
0.000152861
7.11067e-06
-0.000159972
0.000778491
-0.00222073
-0.00360334
0.000123149
0.00348018
-0.00320205
0.00289197
0.000310083
-0.00571725
0.00725651
-0.00153926
-0.00370922
0.002897
0.000812216
-0.000564016
-0.00303932
-0.00174828
0.00238883
-0.000640545
-0.000464878
0.00255873
-0.00209385
-0.0016089
0.00111101
0.000497878
0.000583523
0.000581837
-0.0015971
-0.00516357
0.00126376
-0.00180314
0.000539386
0.0057808
-0.00386145
-0.00191933
-0.000661289
0.00331089
-0.0026496
-0.00583497
0.00583478
0.000478446
0.00128309
-0.00633998
0.000968349
0.00537164
0.00232484
-0.00298613
-0.00378947
0.00311355
0.000675923
0.00214809
-0.00422361
0.00108833
-0.000203352
-0.000884976
0.00150342
-0.00128855
-0.00021487
-0.0028013
-0.000400751
0.00535368
-0.00534815
0.000368696
0.00113472
0.00522806
-0.00133679
-0.00389127
0.00200362
-0.000820234
0.00308569
0.00190868
-0.00499437
-0.000721657
-0.00306783
-8.9152e-05
-0.000154832
0.000243984
0.00393546
0.00331975
0.00116622
-0.00489187
0.00372565
0.00162723
0.00360083
-0.00498247
0.00632095
-0.00133849
-0.00113642
-0.000593026
0.00172945
0.00133732
0.00201686
0.000135294
0.000103626
-0.000238919
0.0050226
-0.00339537
0.00645782
-0.000841097
-0.00561672
0.00321652
-0.00265655
-0.000559966
0.00222111
0.000449461
-0.00267058
0.00295099
-0.000729878
0.00650371
-0.00539848
-0.00110521
0.000504285
-0.00387024
0.00336596
6.75251e-05
0.0063903
0.00480953
-0.00430524
-0.000535779
0.00105938
-0.000523599
-0.00175942
0.000623002
0.00191708
0.00224909
-0.00416616
0.000253389
-0.000333547
8.01584e-05
-0.00126764
-0.00284643
0.00411407
-2.63358e-05
0.00653005
-0.00281765
0.00229391
0.000523733
0.000389305
-1.19519e-05
-0.000377353
-0.00569231
-0.000254044
0.00187589
-0.00139744
0.000827165
0.00495363
0.000894858
0.000177313
0.00263452
-0.0064641
0.00382958
-0.0011202
0.000584419
0.0026387
-0.00390634
0.0061971
-0.00226163
0.0010921
0.00117729
-0.000761348
0.00100528
-0.000243932
-0.00111092
-0.000497974
0.00189089
0.00132562
-0.000595661
0.00142984
-0.00123776
-0.000192077
-0.00265485
0.00198822
0.000666625
0.00116707
0.000262769
0.00113574
-0.00497842
0.00384268
-0.00476143
0.0014205
0.00334092
-0.00455424
0.00611801
-0.00156377
-0.00506238
7.99166e-05
-0.00201732
-0.000637519
-0.000215466
0.000126314
-0.00122659
0.00465067
-0.00342409
-0.00122217
-0.000696282
0.000103309
-0.000192023
8.8714e-05
0.000126288
-2.29795e-05
-0.00126158
0.00464088
-0.0033793
-0.000156156
2.45284e-05
0.000131627
-0.00556877
0.00170732
-0.00119197
-0.000567455
-0.000449445
-1.89289e-05
0.000468373
-0.000543269
9.38236e-05
0.0010124
7.59287e-05
-0.00181033
0.000618369
-0.00015024
1.70853e-05
0.000133155
0.00136801
-0.00234447
0.000976458
0.000271104
-0.00013581
-0.00392536
0.00514057
-0.00245742
0.000709145
-9.37281e-05
-0.000428149
0.000521878
0.00568619
-0.00216903
-0.00351716
7.78694e-05
0.00250713
-0.002585
0.00446515
-0.00561757
0.00115243
0.0026341
0.00305209
0.00291371
-0.00283584
-0.00616973
0.000452482
-0.00646152
0.00363459
0.00282694
0.00229347
0.00390362
-0.00439098
0.00138177
0.00300921
0.00150805
-0.000244297
-0.0010255
0.00402035
-0.00299485
0.00463914
-0.00162691
-0.00301223
-0.0046079
0.00374779
0.000860122
0.00369365
-0.00503045
5.88939e-05
0.000330411
-0.00137425
0.00583941
-9.2906e-05
0.00214978
-0.00205686
-0.00206614
0.00260774
0.000174963
-0.0027827
-0.0012774
0.00264541
-0.000648935
0.00325667
0.00164086
-0.00173376
0.000909201
0.00397343
-0.00488264
-0.00504147
0.00384232
0.00119915
0.00255191
-0.00359409
0.00104219
-0.00333209
0.00411843
-0.000786341
0.000340799
-0.00367289
-0.000896472
0.000896472
-0.000446684
0.000352956
-0.000126969
-0.000973472
0.00110044
0.00506922
-0.00184239
-0.00322684
-0.00243283
-0.000368472
0.00290019
0.000157891
1.65166e-05
-0.000174408
-0.00147182
0.00112516
0.000346665
-0.000140873
-0.0049006
0.00505985
-0.00389364
0.000246823
-9.39619e-05
0.0044441
0.000578495
0.00406759
-0.00151567
0.000164981
-7.08949e-06
-0.00632253
-0.000984949
-0.000825386
0.00430023
-0.00190478
-0.00239544
0.00275651
0.00154372
0.00107775
-0.00563199
-0.00225952
-0.000558124
-0.00112026
-0.000958925
0.00207919
3.91197e-05
-0.002722
0.00268288
-0.00235796
0.00123769
-0.0022181
0.00530379
-0.00462145
0.00160373
0.00301773
0.00254624
0.000659755
-0.000330744
-0.000329011
-0.00601483
0.000582869
0.00543196
-0.0041908
0.00582488
-0.00163408
0.00182518
0.00162971
-0.00345489
-0.00167158
0.000898159
0.000773417
-0.0027146
0.00207856
0.000636039
0.00110263
0.000773264
0.000247199
-0.00032894
8.17421e-05
0.00490665
-0.00399746
-0.0063846
0.00557948
0.000805125
-0.004793
-0.00166853
0.00334345
0.000644813
-0.00398826
0.000153957
-0.000162147
8.18978e-06
0.000590456
-0.000125302
-0.000465154
-0.00451829
0.00261352
0.000360609
-0.00056944
0.000208831
5.26514e-05
-0.000949125
-0.00257572
0.00448441
-0.00530405
-0.000324035
0.00562809
0.000199161
0.000192802
-0.000391963
0.000726079
-0.000726079
0.0016849
-0.000726378
-0.00211049
0.00181078
0.000299705
0.00440407
-0.00302231
-0.000162415
6.25987e-06
-0.00120618
0.00125883
0.000715794
0.00128783
0.00234854
-0.000269967
-0.00401939
-0.00128465
0.00111475
-0.00498501
0.0032132
-0.00447478
0.000835325
-0.00213513
0.00129981
0.00336026
-0.00458685
-0.00271116
-0.00180713
-0.00483585
0.00469497
-0.000676239
-0.00533859
-0.00515988
0.00150527
-0.00147102
-3.42563e-05
0.00223211
0.000116419
-0.00601379
0.00204819
0.0039656
-0.00121934
0.000525999
0.000693333
0.0014564
0.00294767
-0.00462538
-0.00101427
0.00563966
-0.000212795
0.000138507
7.42875e-05
-0.00551693
0.00132613
0.0037531
-0.0049369
0.00118381
-0.00149343
-0.000617057
-0.000536677
-0.000637498
0.000138367
-0.000203833
6.54658e-05
0.00499731
-0.00386158
-0.00130108
0.00512562
-0.00382455
-0.000404418
-0.000801764
-0.0058613
0.000439824
0.00539495
-0.00616548
0.00456837
-0.000920424
-0.00546419
-0.00109396
-0.00037786
-0.00181605
0.00285688
-0.00104083
-0.000419213
0.000322088
9.71252e-05
-0.00173204
0.00141742
0.00161132
-0.000106048
0.000825831
-3.67524e-05
-0.00169529
0.00279675
0.00121831
-0.00303436
0.00606034
-0.000480859
0.00528669
6.69935e-05
-0.00528062
0.00439166
0.00114406
-0.00553573
0.000556428
-0.000768806
0.000212378
-4.06391e-05
-0.000406045
-7.10863e-06
0.00606745
-0.000162189
0.000156834
5.35553e-06
0.000133331
2.06252e-05
0.00253778
-0.0033584
0.000820618
-0.00192836
0.000733432
0.00119493
0.00792465
-0.003454
-0.00447065
0.00117077
0.00126438
-0.00243516
0.000103354
-0.000171811
6.84579e-05
-0.000805871
0.00133187
0.00116255
0.00318213
-0.00434468
-0.00561366
0.000165372
0.00544829
-0.00402029
0.0029948
0.00173551
0.00479453
0.00458834
0.00333631
-2.16193e-05
0.000190071
-0.000168451
-0.00131068
0.00439854
-0.00308786
0.000301545
-0.000342184
-0.000131316
-8.14789e-05
0.00410096
-0.00227579
0.00474867
-0.0050131
0.000264426
-0.00324467
0.00608345
-0.00283878
0.00252697
0.00157399
0.00575264
-0.00100397
-0.0013785
-0.00562108
0.00137261
0.00424848
0.000654632
0.000520704
-0.00117533
0.00126955
-0.000614915
0.000585338
-0.00111024
0.000524906
0.00110604
0.0002761
0.000383656
-0.000678247
0.00443135
0.00151733
-0.000392171
0.00354367
-0.00613465
0.00259099
0.0015331
-0.00258368
0.00105058
-0.00432161
0.00116648
0.00315513
0.00291244
-0.00422312
-0.00491073
-0.00125474
-0.00410012
0.0012688
0.00283132
0.00125032
0.00314823
-0.00326381
-0.000836316
0.00222679
-0.00105603
-0.000682159
-0.0025302
0.00321235
0.00240675
0.000618789
-0.00302553
-0.00158915
0.00119988
0.000389271
0.000269905
0.00148627
-0.00196537
0.000479097
-0.000110859
-0.000222689
-0.000264411
0.000153552
-0.00435537
-0.000252534
-0.000294479
0.00117339
-0.000878912
0.00435123
-0.00464552
0.000294299
-8.84212e-05
0.000117767
-2.93455e-05
0.000974357
0.00338139
-0.00435574
-0.000157001
6.85799e-05
-0.00475223
0.000711063
0.00404117
-0.000718807
0.000125836
0.000592969
8.00442e-05
-7.29335e-05
-0.000400992
0.000864671
-0.000347477
-0.000517195
-0.00603571
0.000637225
-0.00254967
-0.000128197
0.00267786
-0.00316877
0.00441908
0.00218083
-0.00108873
-0.00116719
-0.00117861
-4.35604e-05
-0.00351993
-0.0012415
0.00150658
-0.00040353
-0.00110305
0.00191902
0.00183855
-0.00375757
0.00504958
-0.00161758
-0.00343199
0.000796479
-0.00542185
-0.00137312
0.00300282
0.00196139
0.000781066
-0.00274245
-0.00349836
0.00447272
-0.000153007
2.76684e-06
0.000936477
-0.00443483
-0.00449726
-0.000148281
-0.000997689
-0.00461597
0.0046337
0.0014922
0.00355738
0.00416003
0.001144
-0.00530403
3.67103e-05
5.90667e-05
-9.5777e-05
-0.00140566
0.00336705
0.00371121
0.0035453
-0.00139963
0.00237007
-0.00097043
-0.00248108
0.000463755
-0.000878409
0.000751438
-0.000206222
0.000405384
-0.000214233
0.00170051
0.00376341
-0.00184439
-0.00107086
-0.000600722
-0.000107172
-0.000157239
0.00355042
-0.00163333
-0.0024037
0.00465279
0.000674545
-0.0030959
0.00242135
0.000635794
0.000762068
-0.00105655
0.00209971
-0.00131553
-0.00327504
0.00459056
-0.00219727
0.0048318
-0.000553933
0.0034459
0.000238594
-0.000221509
-0.00236249
0.000962865
0.00232388
-0.00386797
0.0015441
-0.00121257
5.80952e-05
-2.1385e-05
0.00214772
-0.00279637
0.000648654
-0.00116835
-0.000420795
-0.00353683
0.00450518
0.00119611
0.00167438
-0.0028705
-0.00168988
0.00366483
-0.00197495
0.00424165
-0.000860266
0.000234378
1.41085e-05
-0.000248487
-0.00372302
0.00203315
-0.00143121
0.00472167
-0.00329046
0.000878
0.00130283
0.000161998
0.000564079
0.000253003
-0.000300707
4.77043e-05
0.00170044
0.000207007
-0.00190745
0.0030182
-0.00459259
0.0015744
-5.28432e-05
0.000374252
-0.000321408
0.00156169
-0.000361811
0.0013959
-0.000606013
-0.000789886
0.00282424
-0.00392752
0.00110328
0.00267947
-0.00374323
0.00106376
-0.00518313
0.00193846
0.00390537
-0.00088717
-0.000635918
-0.00237456
0.00301048
0.00140749
-0.00511772
0.00371023
0.00336053
-0.00145893
-0.00190161
-0.000681512
0.00172435
-0.00104284
0.00477165
-0.00303614
-0.000694432
-0.00196211
-0.00598305
0.00514195
3.86164e-06
0.000121764
-0.000125626
-0.00157829
0.00119993
0.000378359
-0.00490958
0.00630956
-0.00139998
-0.00188494
0.000725512
0.00115943
0.000406409
0.00268596
-0.00208777
-0.000598192
0.00343548
0.00048913
-0.00392462
0.000124614
-2.12596e-05
0.00517217
0.000337191
-0.00550936
-0.00194074
0.00379762
-0.00185688
0.00276992
-0.00064179
-0.00212813
0.000462552
0.00040212
-0.000436829
0.00387231
0.00202599
-0.00396673
0.000700533
-0.000266104
-0.000434428
-0.000640078
-5.47607e-06
0.000645555
-0.00315235
-0.00576374
0.00576712
-0.000274592
0.000950165
-0.000675574
-0.00228748
-0.0001936
-0.00455525
0.00323972
-0.000873674
0.00113074
0.00360749
-0.00501986
0.00141238
0.000410675
-0.00296034
0.00233014
-0.00244174
0.000111598
-0.00157142
0.00148227
8.91488e-05
-0.00120966
-0.00036863
-0.00339271
0.00342956
-0.00223344
0.000457227
0.000133229
-0.00173482
0.00105331
-0.00279607
0.000746849
0.00204922
0.000242387
-8.00851e-06
-0.0034779
0.001025
0.00245289
-0.00144418
0.00560422
0.000339293
-0.000953913
0.000614621
0.00211835
0.000651569
-0.00127775
0.000304283
0.00111276
0.00121738
-0.00143001
0.00495915
-0.00352914
-0.004848
0.00576646
-0.000918464
-0.00117472
0.00228329
0.00410701
0.0010727
3.83163e-05
0.00586839
-0.00552523
-0.000343155
0.00355724
-0.00466339
0.00110615
0.00309332
-0.000686575
0.00542707
-0.00181959
-0.00250345
-0.000974449
-0.00217475
-0.000320925
0.00249568
0.00241265
-0.0019632
-0.00160818
-0.00424202
0.00274734
0.00149468
-0.000329616
0.00122777
0.00121779
0.00365943
-0.00487722
-0.000307651
0.00066826
0.00305957
-0.00238502
-0.00472475
-0.0012583
0.00647063
-0.00129846
0.00424242
0.0020605
0.000498235
0.00285521
-0.00212571
-0.000729499
0.00473645
-0.00245315
-7.16865e-05
-0.00332684
-0.000868279
0.00419513
0.000388064
-8.64856e-05
-0.000301578
-0.00514228
0.00610663
-0.000964346
-0.000735964
0.00190628
-0.00117031
-0.000696809
0.00525191
-0.00455511
0.00117521
-0.00191118
-0.00011214
-0.0057634
-0.000761348
0.00203729
0.0038311
-0.000247396
-0.00192735
0.000251401
-4.20164e-06
0.000362567
-0.000487868
0.00336265
-0.000824871
-0.00522644
-0.000271646
-0.000147567
0.00015019
-0.000133568
-1.6622e-05
-0.00248278
0.000124817
-0.000422284
0.00159159
-0.0010132
-0.000578381
0.00247035
0.000594402
-0.00306476
-0.000714788
0.00318513
-0.00520292
-0.000271514
0.00547443
0.00375034
0.00137528
0.00441192
-0.00122979
-0.000132016
0.00254467
0.00540385
-0.000206631
-0.00519722
-0.00608694
0.00425228
0.00183467
0.00321087
-0.00126839
-0.0043527
0.000203578
-0.000225197
0.000576958
0.000818938
0.00110756
0.000124404
-0.00123196
0.00421229
0.00119156
-0.000960051
0.00317172
-0.00221168
0.00473529
-0.00139183
-0.00217901
0.00279258
-0.000613565
-0.00117711
-0.000111802
0.00030781
-0.000196008
0.00344646
-0.00414327
0.00134451
-0.000986945
-0.000357563
0.00159669
-0.000396753
-0.00325104
0.00229099
0.00548934
-0.00434529
-3.06326e-05
0.000352722
-0.00535568
0.000446087
0.0054496
-0.00190593
-0.00100261
-0.00361465
0.00461726
-0.00064654
0.00288259
-0.00223605
0.00549726
-0.00286244
-0.00263482
-8.83972e-05
0.000592117
-0.00067717
0.000660522
1.66472e-05
-0.000689365
0.00173026
-0.0010409
-0.00314911
-0.00117249
0.000155569
-1.72027e-05
-0.00122451
-0.00478928
-0.00307638
0.00239422
-0.000502696
-0.000223382
-7.26161e-05
-8.95727e-05
-0.00120743
-0.000805782
-0.00522993
-0.00283834
0.0021918
-0.000819523
0.00118822
0.00113386
0.00438325
-0.0055171
0.00339987
-0.00275506
0.000467726
0.000772878
-0.00288407
0.00211119
0.00498756
-0.0049398
-4.77561e-05
-0.00320954
0.00361559
-0.000406042
0.000207794
-9.56078e-05
-0.000112186
-0.00498171
-0.00148241
-0.00175754
0.00369014
-0.00193259
0.00298119
-0.00220831
-0.00378375
0.00202621
0.00139501
-0.00258174
0.00118672
-0.00363295
0.00568115
0.00649937
-0.00219557
-0.00430381
-0.00240062
0.00237443
2.61953e-05
0.0056164
-0.00164297
0.00118524
-0.000923784
-0.000261461
-9.11822e-06
0.000262121
0.000249952
-0.000774159
0.000524207
-0.00304622
0.00365077
-0.0009713
0.000845379
-0.00104873
0.00236307
-0.000632224
-0.00173084
0.00220145
-0.000501008
0.00452673
0.000630021
0.00173305
-0.00175477
0.0010654
0.000408595
-0.000464694
5.60987e-05
0.00221218
-0.00174483
-0.000467351
0.000832456
-0.00514778
-0.000544529
0.000369492
-0.000588345
0.000218852
-0.0041012
0.0054738
0.000942149
-0.00111663
0.000174488
-0.00152476
0.00216408
-0.000639324
-0.00149096
-0.00275106
-0.00538348
-0.000157077
0.00554056
0.00030027
0.000108297
4.18935e-05
0.000127582
-0.000127649
6.76629e-08
0.00412085
-0.00290306
-0.00380277
-0.00233187
0.00346793
0.00303144
-0.00259522
0.000731585
0.00186363
-0.000844674
0.00223968
-0.0022971
-0.000103522
0.00272927
-0.00377745
0.00104818
0.00130748
-0.000134085
0.000461225
0.000551174
-0.00327759
0.000964055
0.00231353
0.000914798
-0.000602678
-3.74015e-05
-0.00427764
0.00172509
9.94669e-05
-0.00182455
-0.00396538
0.00146539
0.0025
0.000520728
0.00146665
-0.000889698
-0.000246485
-0.00465996
0.00490645
0.000784565
-0.00247672
0.00169216
0.0012022
0.00131232
-0.000471846
-0.00171606
0.00218791
0.00258002
-0.00179546
0.0044703
-0.00353382
-0.000782316
-0.00264049
-0.000227328
0.000251856
-0.000703504
0.00176396
-0.00106045
0.00265989
-0.00366773
0.00100784
0.00013644
2.0394e-05
-0.0023637
-0.000913894
0.00142151
-0.00163644
0.000214929
-0.00277478
0.000687018
0.00127656
-0.00141875
0.000142187
0.00161881
-0.00180794
0.00018913
0.000676209
-0.00372718
-0.00116469
0.00135116
-0.00490191
0.00355075
-0.000913894
0.00357377
0.000118365
-7.86906e-05
-3.9674e-05
0.00476706
-0.00363319
-0.000318024
-0.00153113
-0.00401668
-0.00150025
0.00209152
0.000701049
-0.00101508
-0.000924325
-0.00453844
-0.00163129
-0.000376638
0.00124202
-0.000930884
-0.000311135
-0.00149519
-0.0010885
0.000657812
0.00225688
-0.00291469
-0.000114279
0.000670706
-0.000715968
3.87987e-05
-0.00245759
0.00196644
0.00139409
-0.000729069
0.00164886
-0.000919791
-8.6872e-05
-0.000116961
0.000318237
-0.001946
0.000452577
0.00160667
-0.00231108
0.00070441
-0.0033438
0.00258038
0.000763401
0.00119573
0.00241671
-0.00361243
-0.00175347
0.00104996
-0.00294105
-0.00102433
-0.00079317
-0.00255062
-0.00167682
0.00125264
0.00042418
0.00176458
-3.94886e-05
-0.000763778
-0.00243339
0.00319716
-0.000677715
0.00291439
-0.00225657
-0.000858534
-0.00394761
0.00480615
-0.00234417
0.00233935
4.81683e-06
-0.000718807
-0.00156081
0.000547606
-0.00240544
0.00381937
-0.00141394
0.00323283
0.00288519
0.000194395
3.62205e-05
-0.000230616
0.00234019
-0.000602751
-0.00173744
0.000188068
-0.000184206
-0.00359191
0.00494307
-0.00329514
0.0052447
-0.00194957
-0.00351045
-0.00150941
-0.000914911
0.0032317
-0.00231679
0.00285688
0.0017751
-0.00418055
-0.00499583
-0.000146439
-0.000793021
0.00284893
-0.0020559
-0.00043169
0.000378847
-0.000529945
0.00167575
-0.0011458
-0.00403528
0.00334263
0.000692656
-0.0032697
0.00235478
-0.00386912
0.000675059
0.00319405
0.00140963
-0.00101254
-0.000397092
-0.00589957
0.000696646
0.00184658
-0.00141074
-0.000435839
0.00141392
-0.000397509
-0.00101641
7.83752e-05
0.000129419
0.0029328
-0.000638877
-0.000221651
-0.00348724
-0.000381875
0.000428335
-0.00305436
-0.000980925
-0.00233604
-8.12068e-06
-0.00292483
0.00228892
0.000720847
0.00260168
-0.00332253
0.000584972
-0.000859564
0.00140551
-0.00671581
0.0053103
-0.00577316
0.000980157
-0.00234442
0.00354015
0.000691533
0.000258633
-0.00273271
0.00345355
-9.91132e-05
0.00508667
0.000617231
0.00170437
-0.00232161
-0.00177602
0.00124608
0.0027466
-0.0036958
0.0009492
0.00510114
0.000666984
0.00154519
0.000313682
0.00038685
-0.000364045
-0.000404761
0.000180973
-0.00174579
0.00176684
-0.000888846
0.000855915
0.000610736
-0.000585196
0.00301119
-0.00242599
-0.0014989
0.00184276
-0.000343861
-0.00489556
0.00380216
0.0010934
-0.00480902
0.00151388
-3.93088e-05
3.91084e-05
2.00429e-07
-0.00281096
-0.000856767
0.00108034
-0.00129357
0.000213225
0.00135871
-0.00495063
0.0010601
4.74527e-05
0.00124314
0.000694625
0.00218797
-0.0036673
0.000856345
0.000194675
-0.00504268
0.00190073
0.0012149
0.000691372
-0.00527236
-0.00049138
0.00565499
0.00118467
0.00710785
-0.00218519
-0.00492266
0.000784405
-0.000376579
-0.000407826
0.00071876
-0.00138174
0.00078102
-0.00386046
-0.00125726
0.00030781
-0.000934959
-0.000419801
0.00135476
0.0023292
0.00400856
-0.00486708
0.00270252
0.000834766
-0.0035373
0.00124941
-0.00096384
-0.000285569
0.000745281
0.00159491
-0.000135047
0.000138286
-3.24007e-06
-0.000709813
0.00288352
-0.00217371
0.00362188
0.00109979
-0.00126266
-0.000414157
0.00142
-0.00154838
0.000128388
4.72899e-05
7.10747e-05
-0.00447858
0.000968131
-0.00165373
0.000444068
-0.00364782
0.00293302
-0.000948829
6.91858e-05
0.000935321
0.00268028
-0.0036156
0.000846537
-0.00126267
0.00419108
-0.00292842
0.000318523
0.000279896
4.65688e-05
-0.000326465
7.8311e-05
-0.00539159
0.00531327
-0.00263265
-0.000780893
0.00341355
-0.00349396
0.00260777
0.000886197
-0.00277173
-0.000262379
-0.00171313
-0.00491395
0.000897273
-0.00145504
-0.000881006
-0.00106328
0.00379255
0.00170863
-0.00372594
0.00201732
0.000105833
2.17488e-05
0.00372636
-0.00201773
0.002863
0.0009618
-0.00382479
-0.00130223
0.00174138
-0.000439148
0.00357422
0.00110258
-0.00467679
0.00718598
-0.00197245
-0.00521352
-0.00212689
-0.000711448
-0.00172892
0.00234614
0.00377336
-0.00492855
0.00115519
-0.00280178
0.0037371
0.00114408
1.48533e-06
-0.00114556
0.00148171
0.00090711
-0.00551037
0.000599633
0.00043292
0.000351484
0.00292154
-0.00112221
-0.00252137
0.00248004
4.13307e-05
0.000504853
-0.00184046
0.00133561
-0.00386909
-0.00119329
0.0010898
-0.00254484
-0.0052991
0.000151326
-0.00124729
-0.000526658
0.00177395
0.00563659
-0.0044926
0.000104554
0.000283511
-0.00301576
0.00319073
0.00143985
-0.00107175
-0.000368099
0.00346769
0.00475912
-0.000956965
0.000645868
-0.00327851
0.00108798
-0.000962151
-5.28836e-05
0.000461478
0.000393971
-1.97194e-05
-0.00207188
-0.000454581
0.00153492
-0.000913585
-0.00349745
0.000764751
-2.73221e-05
-1.19867e-05
0.00599854
-0.00492078
0.00522147
-0.00439431
7.39222e-06
-0.000592969
0.000585577
0.00194878
-0.000458475
-0.00149031
0.00335888
-0.000757198
-0.00256787
0.00336101
-0.000793137
-0.00183357
0.000531343
0.00127864
-0.000952108
-0.000326537
-0.000118766
-0.000210174
0.00205894
-0.000548279
-0.00151066
-0.00137912
-0.00239445
-0.000126917
0.0020892
-0.00274532
0.000656115
0.0028064
-0.000750927
-0.00205548
0.00410339
-0.00434987
0.000314806
0.00224209
-0.000635421
-0.000683269
0.000834924
-0.00367726
0.00503597
0.00121419
0.000470108
-0.0017174
-0.00286675
0.00209659
0.00363294
0.00158853
-0.00113792
-0.00383238
-0.00114604
0.00130303
-0.00171671
0.000413681
0.00367516
-0.00318603
-0.000193837
0.00113598
-3.85836e-05
-0.000269845
0.000308429
-0.000699161
-0.00189606
0.00377197
-0.00490872
0.00113676
-0.00186156
0.00235262
-0.000491067
-0.00115659
0.00213218
0.000751335
-0.00226171
0.00375484
-0.00149313
0.0015051
-0.00114108
-0.000364012
-0.00101142
0.000292615
0.000196577
-0.000441476
0.000244899
-0.000426157
-0.00122758
-0.00248045
0.00250418
-2.3732e-05
0.00144944
-0.00371116
0.00162404
-0.000371395
0.000374037
-0.000429166
5.5129e-05
-0.000826577
0.000593567
0.00023301
-0.000794929
-0.0028512
0.000833262
0.00201794
-0.0019966
-0.000842786
-0.000712865
0.00155565
-0.00524301
0.0038955
0.0013475
-0.00123137
0.00123877
-0.000576389
-0.000115923
0.000692312
0.00286825
-0.000736073
-0.000770354
-0.00016019
0.000930545
0.00184069
-0.00137058
0.00169834
-0.000395314
-0.000143389
-0.000635908
-0.00420442
0.00484033
-0.00138954
0.00283094
0.00427692
-0.00239898
-8.14583e-05
0.00311992
-0.0047375
0.000733215
0.00158149
-0.00231471
0.0020078
-0.00280082
0.00199417
-0.000732341
-0.00126183
-0.00179592
0.000455943
0.00133997
0.00431923
0.00286674
-0.00552157
0.00133864
0.00418292
-0.00125137
-0.00399163
-0.000460138
-0.00133578
-0.000998078
-0.000562729
-0.00129202
-0.00042469
0.00114448
-0.00053326
0.00150821
-0.000974948
-0.00175707
0.00129693
-0.000944508
-0.000207171
0.00115168
0.00217104
-0.00286693
0.0006959
-1.17702e-05
0.000206165
0.00103177
0.00606846
-0.00140553
-0.00466294
-0.00203698
-0.00187248
0.00133824
0.00053424
0.00127127
-0.000978278
-0.000292991
-0.00229229
-0.00102752
0.00331981
-0.00267063
0.00358433
-0.000913701
-0.000920709
0.00111665
1.08161e-05
-0.00112747
0.00376091
-0.00493784
0.00117693
0.0017475
-0.00135533
-0.000392165
0.00242707
-0.00122487
0.00273939
-0.000635176
-0.000191401
-0.0040899
0.00229227
-0.00180134
-0.000490928
0.000560673
-0.00200892
0.00144825
-0.00251399
-0.000844411
0.000859434
-0.000658019
-0.000201415
-0.000180592
-0.00364469
0.000974064
0.000677126
-0.000480548
0.00259092
0.0009934
0.000319162
0.00130118
0.000692987
-0.001603
0.00233621
-0.00150049
0.000986889
0.000513604
0.00355147
-0.000688461
-0.00381002
0.0061035
-0.00114781
-0.00248789
0.00682968
-0.00434178
-0.000888874
0.00356916
-0.00414181
0.000932276
-0.00210139
0.00424948
-0.00069494
-0.00161614
-0.00244986
0.00170953
0.000740331
-0.00128011
0.000401378
-0.000452452
5.10756e-05
-0.00137435
-0.000776901
-0.000153494
0.000930396
-0.00156503
0.00136073
0.000204304
0.00203557
0.00081335
6.2392e-05
-0.00130015
-0.000555791
-0.00082595
-0.00242136
-0.000482515
-0.00138996
-0.00017113
0.00159264
-0.000180702
0.00341128
-0.000514281
0.00133895
0.000200011
-0.000824071
-0.000979072
-0.00192989
0.00247692
-0.000547024
-0.00104431
-0.00572889
0.0035108
0.00147203
-0.000616121
0.00288808
-0.0012137
0.000964965
-0.00135876
-0.00453031
0.00588906
0.000620501
-0.0025504
0.000741364
-0.00368994
0.00269786
0.000992075
0.000888873
-0.00142213
0.00222505
-0.00311829
0.000893228
0.00119627
-0.00342975
0.00223347
0.000860871
0.00168781
-0.00254868
-0.000174474
0.00179328
0.00274298
0.00107894
0.00361874
-0.000413519
0.00078301
0.0031585
-0.00402678
0.000984536
-0.00327682
0.000435679
0.00412538
0.00146915
-1.06317e-05
-0.000274035
0.000284666
-0.00619294
0.00385584
0.00233711
-0.000830869
-0.00261441
0.00344528
0.00263958
-0.00177871
-0.00369673
0.000894948
-0.00132125
-0.000435819
-0.000152743
0.00131982
0.00372689
0.00123225
0.000224258
0.00130843
-0.000991601
-0.000316834
0.000882686
0.000589351
-0.000313813
0.00376807
-0.00493514
0.00116707
0.00307854
-0.000853495
-0.00139838
0.00190323
0.00125793
-0.00355436
0.00229643
-0.00116977
0.00145565
0.000678679
-0.00213433
0.000193221
-0.000203854
0.00219838
-0.000861057
-0.0012472
0.000330157
0.000926843
-0.000347068
-0.000579775
0.00353284
-0.00227491
-0.000510714
0.00229308
-0.00178237
0.00101906
-0.00297125
0.00208088
0.000890382
0.000106913
-1.07974e-06
0.00467198
0.00054041
-0.005704
-0.00519683
0.00392775
0.0012691
-0.00107893
-0.00269445
0.00377337
0.00222127
0.00372507
0.00282627
-0.00375374
0.000927479
-0.00146909
0.00110045
-0.000958951
0.00337602
-0.00241707
0.00149655
0.000562383
-0.00378518
-0.00240776
0.00108234
-0.0023022
0.00321533
-0.000913128
0.00343664
-0.000828871
0.00039646
-0.000815639
0.0025422
0.000894445
-0.000635511
0.00431067
-0.00130819
0.00171595
-0.000407752
0.00200317
-0.00126973
-0.000390144
0.00607685
-0.0049218
-0.000461677
0.000858846
-0.00246185
-0.00539162
-0.00172211
0.00041392
-0.000678151
0.000101762
-0.000870457
0.00021182
-0.00146851
0.00067323
0.00156886
-0.000905432
0.000135078
0.000805319
0.00251582
-0.00332115
-0.00109513
0.00187362
-0.00194666
-0.000474449
0.00196116
-0.00148671
-0.000888264
-0.00208298
-0.00195171
0.00147726
-0.00265732
0.00346264
-0.00163899
0.000586405
0.00105258
-0.000982832
0.00357375
0.00602295
-0.00231175
-0.00130219
-0.000419922
-0.00173918
0.00109809
0.00064109
0.000905858
-0.00451995
0.00361409
-0.00131222
0.0005439
0.000768318
-0.00403602
-0.00116082
0.000191696
-0.0011362
0.00193821
-0.000723301
-0.00135032
-0.0038056
0.00515592
0.00100033
7.23695e-05
0.00329724
-0.00252771
-0.000769524
0.000131137
0.00128278
0.000876639
-0.000669375
-0.000207264
-0.001345
-0.00101749
-0.00108721
0.00512681
-0.00403959
0.00063604
-0.0024976
0.000130411
0.00128958
0.00377282
-0.00496278
0.00118997
0.00288091
-0.00204765
0.000101917
-0.00016829
6.63738e-05
0.00102943
0.000138098
0.000104288
0.00236123
0.00370724
-0.000584191
-0.000804914
0.00138911
0.00065343
0.00177086
-0.00242429
0.00240346
-0.00170213
-0.000701328
0.000475746
0.00147304
0.000426248
-0.000512916
-0.000799303
0.000599419
-0.00532418
0.000690379
-2.98574e-05
-0.00116231
-0.00131755
-0.00379443
0.00511198
0.00103112
0.00143688
-0.00189535
0.00254665
-0.000394769
-0.00490875
0.00530352
0.000120655
-1.87381e-05
0.000663752
0.00127445
0.00272866
0.000945696
-0.00367435
0.00137496
0.000471625
0.00258744
-0.00364073
0.00454659
0.00277378
0.000843826
-0.0036176
0.00161957
-0.000826365
-0.000793199
0.00132772
-0.00101818
-0.000309541
0.000423926
0.00105992
-0.00470065
0.000218619
-6.80444e-06
0.000200026
0.00604428
-0.00127723
0.00152581
-0.00212856
0.00252813
-0.00182172
-0.000706412
0.000865015
-0.00254425
0.00167924
0.00523435
-0.00281592
-0.000927302
-0.00158484
0.00500848
0.00148634
-0.00178137
0.000295033
0.000499452
-0.000103601
-0.000395851
-0.000997621
-0.00313957
0.0041372
0.000742534
0.00181926
-0.0025618
0.00176754
-0.000281195
0.00224741
0.00140433