/*--------------------------------*- C++ -*----------------------------------*\
  =========                 |
  \\      /  F ield         | OpenFOAM: The Open Source CFD Toolbox
   \\    /   O peration     | Website:  https://openfoam.org
    \\  /    A nd           | Version:  7
     \\/     M anipulation  |
\*---------------------------------------------------------------------------*/
FoamFile
{
    version     2.0;
    format      ascii;
    class       surfaceScalarField;
    location    "0.825";
    object      phi;
}
// * * * * * * * * * * * * * * * * * * * * * * * * * * * * * * * * * * * * * //

dimensions      [0 3 -1 0 0 0 0];

internalField   nonuniform List<scalar> 
12640
(
1.88072e-10
-1.93251e-10
5.5548e-10
-3.67408e-10
8.83407e-10
-3.27926e-10
1.04681e-09
-1.63402e-10
9.83586e-10
6.32229e-11
6.66661e-10
3.16926e-10
8.91666e-11
5.77495e-10
-7.43786e-10
8.32954e-10
-1.81999e-09
1.0762e-09
-3.12296e-09
1.30297e-09
-4.63369e-09
1.51073e-09
-6.3317e-09
1.69802e-09
-8.19575e-09
1.86405e-09
-1.02043e-08
2.00853e-09
-1.23358e-08
2.13148e-09
-1.45689e-08
2.23314e-09
-1.68828e-08
2.31393e-09
-1.92572e-08
2.37436e-09
-2.16722e-08
2.41505e-09
-2.41089e-08
2.4367e-09
-2.65489e-08
2.44001e-09
-2.89747e-08
2.42575e-09
-3.13694e-08
2.39471e-09
-3.37171e-08
2.34769e-09
-3.60026e-08
2.28552e-09
-3.82116e-08
2.20901e-09
-4.03306e-08
2.11899e-09
-4.23469e-08
2.01631e-09
-4.42487e-08
1.90181e-09
-4.6025e-08
1.77633e-09
-4.76657e-08
1.64072e-09
-4.91616e-08
1.49583e-09
-5.05041e-08
1.34253e-09
-5.16858e-08
1.18169e-09
-5.27e-08
1.01418e-09
-5.35409e-08
8.409e-10
-5.42036e-08
6.6274e-10
-5.46842e-08
4.80623e-10
-5.49797e-08
2.95478e-10
-5.5088e-08
1.08254e-10
-5.50079e-08
-8.00862e-11
-5.47393e-08
-2.6856e-10
-5.42832e-08
-4.56164e-10
-5.36413e-08
-6.4188e-10
-5.28166e-08
-8.2467e-10
-5.18131e-08
-1.00348e-09
-5.06359e-08
-1.17725e-09
-4.9291e-08
-1.3449e-09
-4.77857e-08
-1.50533e-09
-4.61282e-08
-1.65747e-09
-4.4328e-08
-1.80021e-09
-4.23955e-08
-1.93245e-09
-4.03424e-08
-2.05313e-09
-3.81813e-08
-2.16116e-09
-3.59258e-08
-2.25551e-09
-3.35906e-08
-2.33514e-09
-3.11916e-08
-2.39907e-09
-2.87452e-08
-2.44636e-09
-2.62691e-08
-2.47609e-09
-2.37817e-08
-2.48744e-09
-2.13021e-08
-2.47963e-09
-1.88501e-08
-2.45197e-09
-1.64462e-08
-2.40386e-09
-1.41114e-08
-2.33479e-09
-1.18671e-08
-2.24439e-09
-9.73466e-09
-2.13242e-09
-7.73585e-09
-1.99881e-09
-5.89215e-09
-1.84371e-09
-4.22462e-09
-1.66753e-09
-2.75355e-09
-1.47106e-09
-1.498e-09
-1.25556e-09
-4.74994e-10
-1.02301e-09
3.0147e-10
-7.76467e-10
8.2218e-10
-5.20711e-10
1.08551e-09
-2.63335e-10
1.10222e-09
-1.67102e-11
9.03415e-10
1.98808e-10
5.54916e-10
3.48497e-10
1.84049e-10
3.70864e-10
1.84047e-10
3.65149e-10
-5.584e-10
8.86476e-10
-8.88735e-10
1.21807e-09
-6.5952e-10
1.13654e-09
-8.18676e-11
5.04094e-10
6.95667e-10
-7.53146e-10
1.57417e-09
-2.66438e-09
2.48873e-09
-5.22855e-09
3.39712e-09
-8.4242e-09
4.27186e-09
-1.22163e-08
5.09505e-09
-1.65607e-08
5.85512e-09
-2.14073e-08
6.54471e-09
-2.67027e-08
7.15938e-09
-3.23908e-08
7.69672e-09
-3.84151e-08
8.15576e-09
-4.47186e-08
8.5366e-09
-5.12447e-08
8.8401e-09
-5.79381e-08
9.06773e-09
-6.47444e-08
9.22138e-09
-7.1611e-08
9.30325e-09
-7.84868e-08
9.31582e-09
-8.53228e-08
9.26176e-09
-9.20719e-08
9.14388e-09
-9.86893e-08
8.96508e-09
-1.05132e-07
8.72838e-09
-1.1136e-07
8.43683e-09
-1.17335e-07
8.09357e-09
-1.2302e-07
7.70174e-09
-1.28383e-07
7.26454e-09
-1.33392e-07
6.78519e-09
-1.38018e-07
6.26695e-09
-1.42235e-07
5.71309e-09
-1.46019e-07
5.12694e-09
-1.4935e-07
4.51185e-09
-1.52207e-07
3.87121e-09
-1.54574e-07
3.20845e-09
-1.56439e-07
2.52707e-09
-1.57789e-07
1.83061e-09
-1.58616e-07
1.12267e-09
-1.58914e-07
4.06903e-10
-1.58682e-07
-3.12956e-10
-1.57917e-07
-1.03312e-09
-1.56623e-07
-1.74974e-09
-1.54806e-07
-2.4589e-09
-1.52474e-07
-3.15662e-09
-1.49639e-07
-3.83886e-09
-1.46315e-07
-4.50156e-09
-1.42519e-07
-5.14059e-09
-1.38273e-07
-5.75183e-09
-1.33599e-07
-6.33112e-09
-1.28525e-07
-6.87431e-09
-1.2308e-07
-7.37728e-09
-1.17297e-07
-7.83595e-09
-1.11212e-07
-8.2463e-09
-1.04863e-07
-8.60441e-09
-9.82919e-08
-8.90647e-09
-9.15421e-08
-9.14882e-09
-8.46605e-08
-9.32798e-09
-7.76959e-08
-9.44066e-09
-7.06995e-08
-9.48384e-09
-6.37244e-08
-9.45479e-09
-5.68253e-08
-9.35111e-09
-5.00584e-08
-9.17077e-09
-4.34809e-08
-8.91222e-09
-3.71509e-08
-8.57443e-09
-3.11263e-08
-8.15698e-09
-2.54649e-08
-7.66025e-09
-2.02231e-08
-7.08551e-09
-1.54554e-08
-6.43528e-09
-1.12128e-08
-5.71361e-09
-7.54174e-09
-4.92665e-09
-4.48126e-09
-4.08349e-09
-2.06031e-09
-3.19742e-09
-2.93099e-10
-2.28793e-09
8.27369e-10
-1.38381e-09
1.3388e-09
-5.28139e-10
1.3233e-09
2.14308e-10
9.25294e-10
7.46499e-10
3.70892e-10
9.25265e-10
5.54937e-10
3.30142e-10
-8.88542e-10
6.66473e-10
-1.22507e-09
6.13897e-10
-6.06944e-10
-8.89175e-11
6.20947e-10
-1.61302e-09
2.21977e-09
-4.05776e-09
4.01891e-09
-7.46759e-09
5.89857e-09
-1.18465e-08
7.77605e-09
-1.71692e-08
9.5945e-09
-2.33891e-08
1.1315e-08
-3.04449e-08
1.2911e-08
-3.82651e-08
1.43649e-08
-4.67711e-08
1.56653e-08
-5.58798e-08
1.68054e-08
-6.55058e-08
1.77817e-08
-7.55624e-08
1.85933e-08
-8.59632e-08
1.92409e-08
-9.66223e-08
1.97268e-08
-1.07455e-07
2.00546e-08
-1.18381e-07
2.02283e-08
-1.29318e-07
2.02529e-08
-1.40189e-07
2.01337e-08
-1.50922e-07
1.98765e-08
-1.61444e-07
1.94874e-08
-1.71689e-07
1.89727e-08
-1.81591e-07
1.83389e-08
-1.9109e-07
1.75927e-08
-2.00129e-07
1.67409e-08
-2.08655e-07
1.57902e-08
-2.16617e-07
1.47478e-08
-2.23971e-07
1.36207e-08
-2.30674e-07
1.2416e-08
-2.36688e-07
1.11409e-08
-2.41979e-07
9.80284e-09
-2.46517e-07
8.40918e-09
-2.50276e-07
6.96745e-09
-2.53234e-07
5.48529e-09
-2.55374e-07
3.97045e-09
-2.56682e-07
2.43081e-09
-2.5715e-07
8.74369e-10
-2.56772e-07
-6.90716e-10
-2.55549e-07
-2.25617e-09
-2.53485e-07
-3.81359e-09
-2.50589e-07
-5.35444e-09
-2.46876e-07
-6.87005e-09
-2.42363e-07
-8.35167e-09
-2.37074e-07
-9.79044e-09
-2.31037e-07
-1.11774e-08
-2.24285e-07
-1.25037e-08
-2.16856e-07
-1.37603e-08
-2.08792e-07
-1.49383e-08
-2.00141e-07
-1.60287e-08
-1.90954e-07
-1.70228e-08
-1.81288e-07
-1.79121e-08
-1.71205e-07
-1.86881e-08
-1.60768e-07
-1.93427e-08
-1.50049e-07
-1.98682e-08
-1.3912e-07
-2.02571e-08
-1.28058e-07
-2.05028e-08
-1.16943e-07
-2.05987e-08
-1.05858e-07
-2.05395e-08
-9.48891e-08
-2.03202e-08
-8.41229e-08
-1.9937e-08
-7.36483e-08
-1.93869e-08
-6.35543e-08
-1.86684e-08
-5.39299e-08
-1.77814e-08
-4.48626e-08
-1.67275e-08
-3.64376e-08
-1.55106e-08
-2.87356e-08
-1.41373e-08
-2.18315e-08
-1.26177e-08
-1.57916e-08
-1.09666e-08
-1.06698e-08
-9.20522e-09
-6.50401e-09
-7.36323e-09
-3.3094e-09
-5.48255e-09
-1.07085e-09
-3.62236e-09
2.67581e-10
-1.86657e-09
8.16194e-10
-3.34308e-10
7.55147e-10
8.07546e-10
3.5128e-10
1.32913e-09
9.06216e-10
1.71852e-10
-1.06039e-09
1.04791e-10
-1.158e-09
-5.88103e-10
8.59505e-11
-2.171e-09
2.20385e-09
-4.8212e-09
4.86997e-09
-8.64517e-09
7.84287e-09
-1.36924e-08
1.09458e-08
-1.99677e-08
1.40514e-08
-2.74419e-08
1.70687e-08
-3.60596e-08
1.99327e-08
-4.57467e-08
2.2598e-08
-5.64146e-08
2.50328e-08
-6.79652e-08
2.72159e-08
-8.02936e-08
2.91338e-08
-9.32906e-08
3.07788e-08
-1.06845e-07
3.21476e-08
-1.20844e-07
3.32403e-08
-1.35177e-07
3.40598e-08
-1.49734e-07
3.46108e-08
-1.64405e-07
3.48996e-08
-1.79086e-07
3.49341e-08
-1.93675e-07
3.47228e-08
-2.08074e-07
3.42751e-08
-2.22188e-07
3.36012e-08
-2.35926e-07
3.27115e-08
-2.49204e-07
3.16171e-08
-2.61941e-07
3.03291e-08
-2.74059e-07
2.88592e-08
-2.85488e-07
2.72191e-08
-2.96161e-07
2.54208e-08
-3.06017e-07
2.34763e-08
-3.14999e-07
2.13981e-08
-3.23057e-07
1.91986e-08
-3.30144e-07
1.68905e-08
-3.36222e-07
1.44866e-08
-3.41254e-07
1.19999e-08
-3.45213e-07
9.44366e-09
-3.48073e-07
6.83129e-09
-3.49819e-07
4.17644e-09
-3.50438e-07
1.49296e-09
-3.49923e-07
-1.20506e-09
-3.48276e-07
-3.90331e-09
-3.45503e-07
-6.58726e-09
-3.41615e-07
-9.24219e-09
-3.36632e-07
-1.18532e-08
-3.30578e-07
-1.44051e-08
-3.23486e-07
-1.68828e-08
-3.15393e-07
-1.92709e-08
-3.06342e-07
-2.1554e-08
-2.96386e-07
-2.37169e-08
-2.8558e-07
-2.57441e-08
-2.73988e-07
-2.76205e-08
-2.6168e-07
-2.93313e-08
-2.4873e-07
-3.08617e-08
-2.35221e-07
-3.21976e-08
-2.21238e-07
-3.33252e-08
-2.06875e-07
-3.42314e-08
-1.92228e-07
-3.4904e-08
-1.77399e-07
-3.53316e-08
-1.62494e-07
-3.55037e-08
-1.47622e-07
-3.54112e-08
-1.32896e-07
-3.50465e-08
-1.1843e-07
-3.44035e-08
-1.04339e-07
-3.3478e-08
-9.07387e-08
-3.22682e-08
-7.77453e-08
-3.07749e-08
-6.54706e-08
-2.90021e-08
-5.40234e-08
-2.69579e-08
-4.35058e-08
-2.46548e-08
-3.40116e-08
-2.21119e-08
-2.56224e-08
-1.93559e-08
-1.84037e-08
-1.64239e-08
-1.24003e-08
-1.33667e-08
-7.62916e-09
-1.02537e-08
-4.07219e-09
-7.17933e-09
-1.66609e-09
-4.27268e-09
-2.90967e-10
-1.70943e-09
2.42482e-10
2.74095e-10
2.08092e-10
1.36352e-09
1.11431e-09
-4.74329e-11
-1.01296e-09
-6.5457e-10
-5.50867e-10
-2.15939e-09
1.59077e-09
-4.80247e-09
4.84693e-09
-8.74811e-09
8.81561e-09
-1.40958e-08
1.31905e-08
-2.08904e-08
1.77404e-08
-2.91323e-08
2.22933e-08
-3.87859e-08
2.67222e-08
-4.97873e-08
3.09341e-08
-6.20507e-08
3.48614e-08
-7.54739e-08
3.8456e-08
-8.99423e-08
4.16844e-08
-1.05333e-07
4.45244e-08
-1.21517e-07
4.69626e-08
-1.38361e-07
4.89923e-08
-1.55733e-07
5.06121e-08
-1.73498e-07
5.18246e-08
-1.91523e-07
5.26358e-08
-2.09678e-07
5.30543e-08
-2.27834e-07
5.30907e-08
-2.45869e-07
5.27574e-08
-2.63662e-07
5.20678e-08
-2.81097e-07
5.10368e-08
-2.98065e-07
4.96798e-08
-3.14461e-07
4.80131e-08
-3.30186e-07
4.60534e-08
-3.45145e-07
4.38181e-08
-3.5925e-07
4.13249e-08
-3.72421e-07
3.85917e-08
-3.84582e-07
3.5637e-08
-3.95663e-07
3.24793e-08
-4.05602e-07
2.91377e-08
-4.14343e-07
2.56314e-08
-4.21836e-07
2.19799e-08
-4.28039e-07
1.82029e-08
-4.32916e-07
1.43207e-08
-4.36439e-07
1.03537e-08
-4.38585e-07
6.32254e-09
-4.3934e-07
2.24841e-09
-4.38698e-07
-1.8473e-09
-4.36659e-07
-5.94284e-09
-4.3323e-07
-1.00161e-08
-4.28427e-07
-1.40449e-08
-4.22274e-07
-1.80064e-08
-4.14801e-07
-2.18778e-08
-4.06048e-07
-2.56361e-08
-3.96061e-07
-2.92582e-08
-3.84894e-07
-3.27208e-08
-3.7261e-07
-3.60007e-08
-3.59279e-07
-3.9075e-08
-3.44979e-07
-4.19209e-08
-3.29794e-07
-4.45159e-08
-3.13818e-07
-4.68381e-08
-2.97149e-07
-4.88663e-08
-2.79894e-07
-5.05801e-08
-2.62165e-07
-5.196e-08
-2.44082e-07
-5.29879e-08
-2.25766e-07
-5.36469e-08
-2.07348e-07
-5.39221e-08
-1.88959e-07
-5.38001e-08
-1.70735e-07
-5.32702e-08
-1.52815e-07
-5.23241e-08
-1.35336e-07
-5.09565e-08
-1.18439e-07
-4.91657e-08
-1.02259e-07
-4.69541e-08
-8.69321e-08
-4.43294e-08
-7.25851e-08
-4.13049e-08
-5.93386e-08
-3.79013e-08
-4.73019e-08
-3.41486e-08
-3.65697e-08
-3.00881e-08
-2.7218e-08
-2.57756e-08
-1.92987e-08
-2.1286e-08
-1.28337e-08
-1.67187e-08
-7.8076e-09
-1.22055e-08
-4.15954e-09
-7.92074e-09
-1.77415e-09
-4.09482e-09
-4.71839e-10
-1.02822e-09
2.25145e-12
8.89429e-10
1.11656e-09
-2.94394e-10
-7.18567e-10
-1.51907e-09
6.73809e-10
-3.94285e-09
4.01455e-09
-7.765e-09
8.66908e-09
-1.31228e-08
1.41735e-08
-2.00978e-08
2.01655e-08
-2.87222e-08
2.63647e-08
-3.8986e-08
3.25571e-08
-5.0844e-08
3.85803e-08
-6.42223e-08
4.43125e-08
-7.90239e-08
4.9663e-08
-9.51335e-08
5.45656e-08
-1.12422e-07
5.89732e-08
-1.30752e-07
6.28536e-08
-1.49975e-07
6.61862e-08
-1.69943e-07
6.896e-08
-1.90502e-07
7.11711e-08
-2.11499e-07
7.28217e-08
-2.32782e-07
7.39185e-08
-2.542e-07
7.44722e-08
-2.75605e-07
7.44964e-08
-2.96855e-07
7.40074e-08
-3.17811e-07
7.30233e-08
-3.38338e-07
7.15639e-08
-3.58308e-07
6.96504e-08
-3.776e-07
6.73049e-08
-3.96097e-07
6.45505e-08
-4.1369e-07
6.14112e-08
-4.30277e-07
5.79115e-08
-4.45762e-07
5.40764e-08
-4.60056e-07
4.99315e-08
-4.7308e-07
4.55029e-08
-4.84759e-07
4.08171e-08
-4.95029e-07
3.59009e-08
-5.03831e-07
3.07819e-08
-5.11115e-07
2.54876e-08
-5.16841e-07
2.00463e-08
-5.20974e-07
1.44868e-08
-5.23489e-07
8.83803e-09
-5.24371e-07
3.12964e-09
-5.2361e-07
-2.60837e-09
-5.21207e-07
-8.34553e-09
-5.17172e-07
-1.4051e-08
-5.11524e-07
-1.96934e-08
-5.04289e-07
-2.52412e-08
-4.95504e-07
-3.06624e-08
-4.85215e-07
-3.59249e-08
-4.73477e-07
-4.09965e-08
-4.60353e-07
-4.58447e-08
-4.45917e-07
-5.04374e-08
-4.30249e-07
-5.47426e-08
-4.13441e-07
-5.87287e-08
-3.95592e-07
-6.23647e-08
-3.7681e-07
-6.56202e-08
-3.57211e-07
-6.84659e-08
-3.36917e-07
-7.08737e-08
-3.1606e-07
-7.28171e-08
-2.94777e-07
-7.42712e-08
-2.7321e-07
-7.52131e-08
-2.5151e-07
-7.56226e-08
-2.29828e-07
-7.5482e-08
-2.08321e-07
-7.47772e-08
-1.87148e-07
-7.34975e-08
-1.66467e-07
-7.16369e-08
-1.46439e-07
-6.91943e-08
-1.27219e-07
-6.61744e-08
-1.08959e-07
-6.25892e-08
-9.18048e-08
-5.84588e-08
-7.58926e-08
-5.38135e-08
-6.13456e-08
-4.86957e-08
-4.82707e-08
-4.3163e-08
-3.67544e-08
-3.72919e-08
-2.68577e-08
-3.11827e-08
-1.86107e-08
-2.49656e-08
-1.20067e-08
-1.88095e-08
-6.99553e-09
-1.29319e-08
-3.47727e-09
-7.61308e-09
-1.29578e-09
-3.20971e-09
-2.32884e-10
-1.73465e-10
8.83676e-10
-5.50854e-10
-1.67714e-10
-2.43103e-09
2.55399e-09
-5.83378e-09
7.41729e-09
-1.09071e-08
1.37424e-08
-1.7752e-08
2.10184e-08
-2.64238e-08
2.88372e-08
-3.6935e-08
3.6876e-08
-4.92605e-08
4.48825e-08
-6.33418e-08
5.26616e-08
-7.90928e-08
6.00634e-08
-9.6404e-08
6.69742e-08
-1.15148e-07
7.33094e-08
-1.35182e-07
7.90071e-08
-1.56352e-07
8.40243e-08
-1.78499e-07
8.83327e-08
-2.01455e-07
9.19159e-08
-2.25051e-07
9.47671e-08
-2.49116e-07
9.68874e-08
-2.73482e-07
9.82841e-08
-2.9798e-07
9.897e-08
-3.22445e-07
9.89616e-08
-3.46717e-07
9.82792e-08
-3.70639e-07
9.69459e-08
-3.94062e-07
9.4987e-08
-4.16842e-07
9.24296e-08
-4.38839e-07
8.93026e-08
-4.59925e-07
8.5636e-08
-4.79975e-07
8.14612e-08
-4.98874e-07
7.68102e-08
-5.16513e-07
7.17161e-08
-5.32794e-07
6.62125e-08
-5.47625e-07
6.03338e-08
-5.60923e-07
5.4115e-08
-5.72614e-07
4.75919e-08
-5.82633e-07
4.08004e-08
-5.90923e-07
3.37776e-08
-5.97437e-07
2.65607e-08
-6.02138e-07
1.91877e-08
-6.04997e-07
1.16973e-08
-6.05996e-07
4.12853e-09
-6.05126e-07
-3.47878e-09
-6.02387e-07
-1.10843e-08
-5.97791e-07
-1.86472e-08
-5.91358e-07
-2.61261e-08
-5.8312e-07
-3.34791e-08
-5.73118e-07
-4.06642e-08
-5.61404e-07
-4.76389e-08
-5.4804e-07
-5.43607e-08
-5.33098e-07
-6.07869e-08
-5.1666e-07
-6.68753e-08
-4.98819e-07
-7.25837e-08
-4.79677e-07
-7.78707e-08
-4.59346e-07
-8.26955e-08
-4.37948e-07
-8.70185e-08
-4.15612e-07
-9.08015e-08
-3.92478e-07
-9.40078e-08
-3.68693e-07
-9.66028e-08
-3.44409e-07
-9.85544e-08
-3.19789e-07
-9.98332e-08
-2.94999e-07
-1.00413e-07
-2.70209e-07
-1.00272e-07
-2.45594e-07
-9.9392e-08
-2.21331e-07
-9.77604e-08
-1.97598e-07
-9.53703e-08
-1.7457e-07
-9.22216e-08
-1.52423e-07
-8.8322e-08
-1.31323e-07
-8.36887e-08
-1.11433e-07
-7.83492e-08
-9.29018e-08
-7.23445e-08
-7.58669e-08
-6.57305e-08
-6.04476e-08
-5.85823e-08
-4.67419e-08
-5.09976e-08
-3.48224e-08
-4.31022e-08
-2.47312e-08
-3.50569e-08
-1.64753e-08
-2.70654e-08
-1.00221e-08
-1.93851e-08
-5.29517e-09
-1.234e-08
-2.17122e-09
-6.33367e-09
-4.789e-10
-1.86578e-09
4.04777e-10
-8.06928e-10
6.39213e-10
-3.35564e-09
5.1027e-09
-7.76486e-09
1.18265e-08
-1.41272e-08
2.01048e-08
-2.25019e-08
2.9393e-08
-3.29122e-08
3.92475e-08
-4.5346e-08
4.93098e-08
-5.97583e-08
5.92948e-08
-7.60742e-08
6.89775e-08
-9.41927e-08
7.8182e-08
-1.13991e-07
8.67725e-08
-1.35328e-07
9.46462e-08
-1.58047e-07
1.01727e-07
-1.81983e-07
1.0796e-07
-2.06959e-07
1.13309e-07
-2.32794e-07
1.17751e-07
-2.59305e-07
1.21278e-07
-2.86305e-07
1.23888e-07
-3.1361e-07
1.25589e-07
-3.41036e-07
1.26396e-07
-3.68402e-07
1.26328e-07
-3.95534e-07
1.25411e-07
-4.22259e-07
1.23671e-07
-4.48412e-07
1.21141e-07
-4.73836e-07
1.17853e-07
-4.98378e-07
1.13845e-07
-5.21895e-07
1.09153e-07
-5.44251e-07
1.03817e-07
-5.65318e-07
9.78769e-08
-5.84977e-07
9.1375e-08
-6.03118e-07
8.43536e-08
-6.1964e-07
7.68563e-08
-6.34453e-07
6.89275e-08
-6.47473e-07
6.06124e-08
-6.5863e-07
5.1957e-08
-6.6786e-07
4.30082e-08
-6.75113e-07
3.38134e-08
-6.80346e-07
2.44208e-08
-6.83528e-07
1.48797e-08
-6.8464e-07
5.23969e-09
-6.8367e-07
-4.4486e-09
-6.8062e-07
-1.4134e-08
-6.75503e-07
-2.37645e-08
-6.68341e-07
-3.32877e-08
-6.5917e-07
-4.26506e-08
-6.48034e-07
-5.17998e-08
-6.34992e-07
-6.06814e-08
-6.20111e-07
-6.92416e-08
-6.03471e-07
-7.74267e-08
-5.85163e-07
-8.51829e-08
-5.6529e-07
-9.24574e-08
-5.43963e-07
-9.91976e-08
-5.21306e-07
-1.05352e-07
-4.97453e-07
-1.10872e-07
-4.72546e-07
-1.15708e-07
-4.46739e-07
-1.19815e-07
-4.20193e-07
-1.23149e-07
-3.93076e-07
-1.25671e-07
-3.65566e-07
-1.27344e-07
-3.37843e-07
-1.28135e-07
-3.10097e-07
-1.28019e-07
-2.82516e-07
-1.26972e-07
-2.55296e-07
-1.24981e-07
-2.28628e-07
-1.22038e-07
-2.02707e-07
-1.18143e-07
-1.7772e-07
-1.13308e-07
-1.53853e-07
-1.07556e-07
-1.3128e-07
-1.00923e-07
-1.10165e-07
-9.34593e-08
-9.06586e-08
-8.52366e-08
-7.28938e-08
-7.63471e-08
-5.69818e-08
-6.69096e-08
-4.30089e-08
-5.70751e-08
-3.10327e-08
-4.7033e-08
-2.10787e-08
-3.70194e-08
-1.31367e-08
-2.7327e-08
-7.15966e-09
-1.83171e-08
-3.06264e-09
-1.04307e-08
-7.25549e-10
-4.20288e-09
-3.20774e-10
-1.05751e-09
1.69672e-09
-4.27259e-09
8.31777e-09
-9.69421e-09
1.72481e-08
-1.73593e-08
2.77699e-08
-2.72824e-08
3.93162e-08
-3.94515e-08
5.14165e-08
-5.3826e-08
6.36843e-08
-7.03375e-08
7.58063e-08
-8.88916e-08
8.75317e-08
-1.0937e-07
9.86609e-08
-1.31636e-07
1.09038e-07
-1.55532e-07
1.18542e-07
-1.8089e-07
1.27084e-07
-2.07528e-07
1.34598e-07
-2.35258e-07
1.41039e-07
-2.63886e-07
1.46379e-07
-2.93212e-07
1.50604e-07
-3.23038e-07
1.53713e-07
-3.53164e-07
1.55715e-07
-3.83392e-07
1.56624e-07
-4.1353e-07
1.56465e-07
-4.43385e-07
1.55266e-07
-4.72775e-07
1.53061e-07
-5.01521e-07
1.49886e-07
-5.29451e-07
1.45783e-07
-5.56402e-07
1.40795e-07
-5.82217e-07
1.34968e-07
-6.0675e-07
1.2835e-07
-6.29862e-07
1.20989e-07
-6.51424e-07
1.12938e-07
-6.71318e-07
1.04247e-07
-6.89434e-07
9.49719e-08
-7.05672e-07
8.51658e-08
-7.19944e-07
7.48847e-08
-7.32172e-07
6.41852e-08
-7.42289e-07
5.31249e-08
-7.50238e-07
4.17623e-08
-7.55974e-07
3.01569e-08
-7.59464e-07
1.83691e-08
-7.60684e-07
6.46028e-09
-7.59625e-07
-5.50741e-09
-7.56289e-07
-1.74709e-08
-7.50687e-07
-2.93663e-08
-7.42845e-07
-4.1129e-08
-7.32802e-07
-5.2694e-08
-7.20606e-07
-6.39955e-08
-7.0632e-07
-7.49676e-08
-6.90018e-07
-8.55441e-08
-6.71785e-07
-9.56591e-08
-6.51721e-07
-1.05247e-07
-6.29936e-07
-1.14242e-07
-6.06552e-07
-1.22582e-07
-5.81702e-07
-1.30202e-07
-5.55531e-07
-1.37043e-07
-5.28193e-07
-1.43046e-07
-4.99854e-07
-1.48154e-07
-4.70687e-07
-1.52316e-07
-4.40875e-07
-1.55483e-07
-4.10609e-07
-1.5761e-07
-3.80085e-07
-1.5866e-07
-3.49504e-07
-1.58599e-07
-3.19073e-07
-1.57403e-07
-2.88999e-07
-1.55055e-07
-2.59492e-07
-1.51545e-07
-2.30759e-07
-1.46877e-07
-2.03003e-07
-1.41065e-07
-1.76422e-07
-1.34137e-07
-1.51206e-07
-1.26138e-07
-1.27534e-07
-1.17131e-07
-1.0557e-07
-1.07201e-07
-8.54606e-08
-9.64566e-08
-6.73322e-08
-8.5038e-08
-5.12877e-08
-7.31196e-08
-3.74033e-08
-6.09174e-08
-2.57261e-08
-4.86967e-08
-1.62725e-08
-3.67806e-08
-9.02806e-09
-2.55615e-08
-3.94917e-09
-1.55096e-08
-9.67468e-10
-7.18458e-09
-1.28824e-09
-1.3002e-09
2.99692e-09
-5.1707e-09
1.21883e-08
-1.15969e-08
2.36743e-08
-2.05618e-08
3.67348e-08
-3.20351e-08
5.07895e-08
-4.59672e-08
6.53486e-08
-6.22866e-08
8.00037e-08
-8.08992e-08
9.44189e-08
-1.01689e-07
1.08321e-07
-1.24518e-07
1.2149e-07
-1.49231e-07
1.33752e-07
-1.75658e-07
1.4497e-07
-2.03615e-07
1.55041e-07
-2.32907e-07
1.6389e-07
-2.63331e-07
1.71463e-07
-2.94679e-07
1.77727e-07
-3.26741e-07
1.82666e-07
-3.59304e-07
1.86276e-07
-3.92154e-07
1.88565e-07
-4.25083e-07
1.89553e-07
-4.57882e-07
1.89265e-07
-4.90351e-07
1.87735e-07
-5.22291e-07
1.85001e-07
-5.53513e-07
1.81108e-07
-5.83833e-07
1.76104e-07
-6.13077e-07
1.7004e-07
-6.41079e-07
1.6297e-07
-6.6768e-07
1.54951e-07
-6.92734e-07
1.46043e-07
-7.16103e-07
1.36306e-07
-7.37658e-07
1.25803e-07
-7.57284e-07
1.14598e-07
-7.74874e-07
1.02756e-07
-7.90333e-07
9.03435e-08
-8.03577e-07
7.74295e-08
-8.14534e-07
6.40826e-08
-8.23145e-07
5.03732e-08
-8.29361e-07
3.63727e-08
-8.33146e-07
2.21536e-08
-8.34475e-07
7.78978e-09
-8.33338e-07
-6.64421e-09
-8.29736e-07
-2.10726e-08
-8.23684e-07
-3.54189e-08
-8.15207e-07
-4.96054e-08
-8.04347e-07
-6.35542e-08
-7.91156e-07
-7.71864e-08
-7.75701e-07
-9.04231e-08
-7.5806e-07
-1.03185e-07
-7.38326e-07
-1.15393e-07
-7.16604e-07
-1.26969e-07
-6.93011e-07
-1.37835e-07
-6.67679e-07
-1.47914e-07
-6.40748e-07
-1.57133e-07
-6.12375e-07
-1.65417e-07
-5.82723e-07
-1.72698e-07
-5.51969e-07
-1.78908e-07
-5.20298e-07
-1.83987e-07
-4.87905e-07
-1.87875e-07
-4.54993e-07
-1.90522e-07
-4.21772e-07
-1.91881e-07
-3.88457e-07
-1.91915e-07
-3.55267e-07
-1.90594e-07
-3.22424e-07
-1.87898e-07
-2.9015e-07
-1.83818e-07
-2.58668e-07
-1.78359e-07
-2.28195e-07
-1.71538e-07
-1.98943e-07
-1.63389e-07
-1.71116e-07
-1.53965e-07
-1.44908e-07
-1.4334e-07
-1.20496e-07
-1.31612e-07
-9.80446e-08
-1.18908e-07
-7.76959e-08
-1.05387e-07
-5.95715e-08
-9.1244e-08
-4.37686e-08
-7.67203e-08
-3.03588e-08
-6.21065e-08
-1.93875e-08
-4.77519e-08
-1.0875e-08
-3.4074e-08
-4.81924e-09
-2.15653e-08
-1.20209e-09
-1.08017e-08
-2.49033e-09
-1.5341e-09
4.53102e-09
-6.04446e-09
1.66986e-08
-1.34592e-08
3.10891e-08
-2.37106e-08
4.69862e-08
-3.6724e-08
6.38028e-08
-5.24119e-08
8.10366e-08
-7.06705e-08
9.82623e-08
-9.13779e-08
1.15126e-07
-1.14394e-07
1.31337e-07
-1.3956e-07
1.46657e-07
-1.66704e-07
1.60895e-07
-1.95637e-07
1.73903e-07
-2.2616e-07
1.85564e-07
-2.58064e-07
1.95794e-07
-2.91133e-07
2.04532e-07
-3.25146e-07
2.1174e-07
-3.59878e-07
2.17398e-07
-3.95105e-07
2.21502e-07
-4.30601e-07
2.24062e-07
-4.66146e-07
2.25097e-07
-5.01519e-07
2.24638e-07
-5.36507e-07
2.22723e-07
-5.70903e-07
2.19397e-07
-6.04504e-07
2.1471e-07
-6.37119e-07
2.08718e-07
-6.68561e-07
2.01482e-07
-6.98655e-07
1.93064e-07
-7.27235e-07
1.83531e-07
-7.54144e-07
1.72952e-07
-7.79236e-07
1.61399e-07
-8.02377e-07
1.48944e-07
-8.23443e-07
1.35664e-07
-8.42322e-07
1.21634e-07
-8.58913e-07
1.06934e-07
-8.73127e-07
9.16438e-08
-8.84889e-07
7.58442e-08
-8.94134e-07
5.96183e-08
-9.00811e-07
4.30501e-08
-9.04883e-07
2.6225e-08
-9.06323e-07
9.22991e-09
-9.05119e-07
-7.84743e-09
-9.01274e-07
-2.49179e-08
-8.94802e-07
-4.18914e-08
-8.8573e-07
-5.86767e-08
-8.74103e-07
-7.51821e-08
-8.59974e-07
-9.1315e-08
-8.43415e-07
-1.06983e-07
-8.24508e-07
-1.22092e-07
-8.03351e-07
-1.3655e-07
-7.80055e-07
-1.50265e-07
-7.54745e-07
-1.63145e-07
-7.27557e-07
-1.75102e-07
-6.98642e-07
-1.86047e-07
-6.68164e-07
-1.95895e-07
-6.36296e-07
-2.04566e-07
-6.03224e-07
-2.1198e-07
-5.69145e-07
-2.18066e-07
-5.34265e-07
-2.22756e-07
-4.98797e-07
-2.25989e-07
-4.62964e-07
-2.27714e-07
-4.26993e-07
-2.27886e-07
-3.91116e-07
-2.2647e-07
-3.55569e-07
-2.23445e-07
-3.20587e-07
-2.18801e-07
-2.86404e-07
-2.12541e-07
-2.53254e-07
-2.04688e-07
-2.21363e-07
-1.9528e-07
-1.90948e-07
-1.8438e-07
-1.62218e-07
-1.7207e-07
-1.35369e-07
-1.58462e-07
-1.10579e-07
-1.43698e-07
-8.80104e-08
-1.27955e-07
-6.78049e-08
-1.11449e-07
-5.00827e-08
-9.44425e-08
-3.49418e-08
-7.72475e-08
-2.24578e-08
-6.02359e-08
-1.26866e-08
-4.38453e-08
-5.66718e-09
-2.85847e-08
-1.42845e-09
-1.50405e-08
-3.91878e-09
-1.75922e-09
6.29024e-09
-6.89189e-09
2.18313e-08
-1.52749e-08
3.94721e-08
-2.67931e-08
5.85043e-08
-4.13292e-08
7.8339e-08
-5.87582e-08
9.84655e-08
-7.89431e-08
1.18447e-07
-1.01733e-07
1.37916e-07
-1.26963e-07
1.56567e-07
-1.54452e-07
1.74146e-07
-1.84008e-07
1.90451e-07
-2.15424e-07
2.05319e-07
-2.48486e-07
2.18626e-07
-2.82968e-07
2.30276e-07
-3.18642e-07
2.40205e-07
-3.55272e-07
2.4837e-07
-3.92623e-07
2.54748e-07
-4.30455e-07
2.59335e-07
-4.68534e-07
2.62141e-07
-5.06625e-07
2.63188e-07
-5.44499e-07
2.62512e-07
-5.81931e-07
2.60155e-07
-6.18704e-07
2.56169e-07
-6.54606e-07
2.50612e-07
-6.89434e-07
2.43546e-07
-7.22995e-07
2.35042e-07
-7.55103e-07
2.25172e-07
-7.85585e-07
2.14013e-07
-8.14277e-07
2.01644e-07
-8.41025e-07
1.88147e-07
-8.65689e-07
1.73607e-07
-8.88137e-07
1.58112e-07
-9.08253e-07
1.4175e-07
-9.25931e-07
1.24612e-07
-9.41078e-07
1.06791e-07
-9.53614e-07
8.83801e-08
-9.63472e-07
6.9476e-08
-9.70597e-07
5.01758e-08
-9.74951e-07
3.05785e-08
-9.76505e-07
1.07844e-08
-9.75248e-07
-9.1048e-09
-9.7118e-07
-2.8986e-08
-9.64316e-07
-4.87549e-08
-9.54687e-07
-6.83061e-08
-9.42336e-07
-8.75334e-08
-9.27321e-07
-1.0633e-07
-9.09715e-07
-1.24588e-07
-8.89606e-07
-1.42201e-07
-8.67095e-07
-1.59061e-07
-8.42299e-07
-1.75061e-07
-8.15347e-07
-1.90097e-07
-7.86384e-07
-2.04066e-07
-7.55566e-07
-2.16865e-07
-7.23065e-07
-2.28397e-07
-6.89063e-07
-2.38568e-07
-6.53755e-07
-2.47288e-07
-6.17347e-07
-2.54474e-07
-5.80055e-07
-2.60048e-07
-5.42104e-07
-2.63941e-07
-5.03727e-07
-2.66092e-07
-4.65162e-07
-2.6645e-07
-4.26655e-07
-2.64977e-07
-3.88453e-07
-2.61647e-07
-3.50805e-07
-2.56449e-07
-3.13959e-07
-2.49387e-07
-2.78161e-07
-2.40485e-07
-2.43653e-07
-2.29789e-07
-2.10667e-07
-2.17365e-07
-1.79428e-07
-2.03309e-07
-1.50148e-07
-1.87742e-07
-1.23025e-07
-1.70821e-07
-9.82396e-08
-1.5274e-07
-7.59566e-08
-1.33732e-07
-5.63204e-08
-1.14079e-07
-3.94564e-08
-9.41115e-08
-2.54716e-08
-7.42206e-08
-1.4457e-08
-5.48599e-08
-6.49112e-09
-3.65506e-08
-1.64656e-09
-1.9885e-08
-5.56534e-09
-1.97601e-09
8.26625e-09
-7.71319e-09
2.75685e-08
-1.70424e-08
4.88014e-08
-2.98047e-08
7.12666e-08
-4.58422e-08
9.43764e-08
-6.49929e-08
1.17616e-07
-8.70867e-08
1.40541e-07
-1.11944e-07
1.62773e-07
-1.39372e-07
1.83995e-07
-1.69168e-07
2.03942e-07
-2.01117e-07
2.22401e-07
-2.34997e-07
2.39198e-07
-2.70573e-07
2.54201e-07
-3.07606e-07
2.67309e-07
-3.45851e-07
2.78451e-07
-3.85061e-07
2.8758e-07
-4.24987e-07
2.94673e-07
-4.65377e-07
2.99726e-07
-5.05986e-07
3.0275e-07
-5.46569e-07
3.03771e-07
-5.86884e-07
3.02828e-07
-6.26698e-07
2.9997e-07
-6.65784e-07
2.95255e-07
-7.0392e-07
2.88748e-07
-7.40896e-07
2.80522e-07
-7.7651e-07
2.70656e-07
-8.10568e-07
2.59231e-07
-8.4289e-07
2.46335e-07
-8.73304e-07
2.32058e-07
-9.01651e-07
2.16494e-07
-9.27784e-07
1.9974e-07
-9.51568e-07
1.81896e-07
-9.72879e-07
1.63061e-07
-9.91607e-07
1.43341e-07
-1.00766e-06
1.2284e-07
-1.02094e-06
1.01667e-07
-1.0314e-06
7.993e-08
-1.03896e-06
5.77409e-08
-1.0436e-06
3.52123e-08
-1.04527e-06
1.24589e-08
-1.04397e-06
-1.04033e-08
-1.0397e-06
-3.32566e-08
-1.03247e-06
-5.59822e-08
-1.02232e-06
-7.84597e-08
-1.00929e-06
-1.00568e-07
-9.93431e-07
-1.22185e-07
-9.74831e-07
-1.43189e-07
-9.53576e-07
-1.63456e-07
-9.29771e-07
-1.82865e-07
-9.03538e-07
-2.01294e-07
-8.75011e-07
-2.18624e-07
-8.4434e-07
-2.34737e-07
-8.11688e-07
-2.49516e-07
-7.77234e-07
-2.62851e-07
-7.41166e-07
-2.74635e-07
-7.03689e-07
-2.84765e-07
-6.65017e-07
-2.93146e-07
-6.25375e-07
-2.9969e-07
-5.84998e-07
-3.04317e-07
-5.44129e-07
-3.0696e-07
-5.0302e-07
-3.0756e-07
-4.61926e-07
-3.06072e-07
-4.21107e-07
-3.02467e-07
-3.80824e-07
-2.96731e-07
-3.41341e-07
-2.8887e-07
-3.02917e-07
-2.7891e-07
-2.65807e-07
-2.66898e-07
-2.30262e-07
-2.52911e-07
-1.96522e-07
-2.37049e-07
-1.64817e-07
-2.19447e-07
-1.35365e-07
-2.00274e-07
-1.08368e-07
-1.79737e-07
-8.40134e-08
-1.58087e-07
-6.24716e-08
-1.35621e-07
-4.38962e-08
-1.12687e-07
-2.84257e-08
-8.96911e-08
-1.61854e-08
-6.71002e-08
-7.29154e-09
-4.54444e-08
-1.85694e-09
-2.53196e-08
-7.42227e-09
-2.18523e-09
1.04515e-08
-8.50991e-09
3.38931e-08
-1.87635e-08
5.9055e-08
-3.27463e-08
8.52494e-08
-5.02621e-08
1.11892e-07
-7.11129e-08
1.38467e-07
-9.50962e-08
1.64524e-07
-1.22002e-07
1.89679e-07
-1.51611e-07
2.13604e-07
-1.83698e-07
2.36028e-07
-2.18024e-07
2.56727e-07
-2.54347e-07
2.75522e-07
-2.92417e-07
2.92271e-07
-3.31976e-07
3.06869e-07
-3.72766e-07
3.19241e-07
-4.14526e-07
3.29339e-07
-4.56991e-07
3.37139e-07
-4.99902e-07
3.42637e-07
-5.42999e-07
3.45846e-07
-5.86027e-07
3.46799e-07
-6.28735e-07
3.45536e-07
-6.70881e-07
3.42115e-07
-7.12226e-07
3.366e-07
-7.52543e-07
3.29065e-07
-7.91613e-07
3.19592e-07
-8.29224e-07
3.08268e-07
-8.65179e-07
2.95186e-07
-8.99288e-07
2.80444e-07
-9.31375e-07
2.64145e-07
-9.61275e-07
2.46394e-07
-9.88835e-07
2.273e-07
-1.01391e-06
2.06975e-07
-1.03639e-06
1.85533e-07
-1.05614e-06
1.63091e-07
-1.07306e-06
1.39769e-07
-1.08708e-06
1.15687e-07
-1.09812e-06
9.09686e-08
-1.10612e-06
6.57397e-08
-1.11104e-06
4.01275e-08
-1.11284e-06
1.42609e-08
-1.11151e-06
-1.17291e-08
-1.10706e-06
-3.77098e-08
-1.09949e-06
-6.35472e-08
-1.08885e-06
-8.91056e-08
-1.07517e-06
-1.14249e-07
-1.05851e-06
-1.38838e-07
-1.03897e-06
-1.62737e-07
-1.01661e-06
-1.85807e-07
-9.9157e-07
-2.0791e-07
-9.63956e-07
-2.28909e-07
-9.33911e-07
-2.48669e-07
-9.01591e-07
-2.67057e-07
-8.67164e-07
-2.83943e-07
-8.30814e-07
-2.99201e-07
-7.92739e-07
-3.1271e-07
-7.53148e-07
-3.24356e-07
-7.12264e-07
-3.3403e-07
-6.70322e-07
-3.41632e-07
-6.27565e-07
-3.47074e-07
-5.84248e-07
-3.50277e-07
-5.40631e-07
-3.51176e-07
-4.96982e-07
-3.49721e-07
-4.53573e-07
-3.45876e-07
-4.10679e-07
-3.39625e-07
-3.68576e-07
-3.30973e-07
-3.27538e-07
-3.19947e-07
-2.87837e-07
-3.06599e-07
-2.49739e-07
-2.91009e-07
-2.13503e-07
-2.73285e-07
-1.79377e-07
-2.53573e-07
-1.47599e-07
-2.32051e-07
-1.18395e-07
-2.08941e-07
-9.19753e-08
-1.84506e-07
-6.85372e-08
-1.59059e-07
-4.82632e-08
-1.32961e-07
-3.13226e-08
-1.06632e-07
-1.78744e-08
-8.05483e-08
-8.07046e-09
-5.52484e-08
-2.06046e-09
-3.13296e-08
-9.48273e-09
-2.38777e-09
1.28392e-08
-9.28437e-09
4.07897e-08
-2.04417e-08
7.02123e-08
-3.56223e-08
1.0043e-07
-5.45933e-08
1.30863e-07
-7.71225e-08
1.60996e-07
-1.02975e-07
1.90377e-07
-1.31911e-07
2.18615e-07
-1.63685e-07
2.45378e-07
-1.98044e-07
2.70388e-07
-2.34731e-07
2.93414e-07
-2.73482e-07
3.14272e-07
-3.14026e-07
3.32815e-07
-3.56092e-07
3.48935e-07
-3.99404e-07
3.62554e-07
-4.43687e-07
3.73622e-07
-4.88664e-07
3.82117e-07
-5.34064e-07
3.88036e-07
-5.79614e-07
3.91397e-07
-6.25051e-07
3.92235e-07
-6.70113e-07
3.90598e-07
-7.14548e-07
3.8655e-07
-7.5811e-07
3.80163e-07
-8.00563e-07
3.71519e-07
-8.41681e-07
3.6071e-07
-8.81246e-07
3.47833e-07
-9.19053e-07
3.32992e-07
-9.54907e-07
3.16298e-07
-9.88626e-07
2.97864e-07
-1.02004e-06
2.77807e-07
-1.04899e-06
2.5625e-07
-1.07533e-06
2.33318e-07
-1.09894e-06
2.09137e-07
-1.11969e-06
1.8384e-07
-1.13747e-06
1.57557e-07
-1.15221e-06
1.30426e-07
-1.16383e-06
1.02584e-07
-1.17226e-06
7.41703e-08
-1.17746e-06
4.53274e-08
-1.1794e-06
1.61994e-08
-1.17806e-06
-1.30676e-08
-1.17344e-06
-4.23255e-08
-1.16557e-06
-7.14246e-08
-1.15446e-06
-1.00214e-07
-1.14017e-06
-1.28541e-07
-1.12275e-06
-1.56251e-07
-1.1023e-06
-1.83192e-07