/*--------------------------------*- C++ -*----------------------------------*\
  =========                 |
  \\      /  F ield         | OpenFOAM: The Open Source CFD Toolbox
   \\    /   O peration     | Website:  https://openfoam.org
    \\  /    A nd           | Version:  7
     \\/     M anipulation  |
\*---------------------------------------------------------------------------*/
FoamFile
{
    version     2.0;
    format      ascii;
    class       surfaceScalarField;
    location    "0.111";
    object      phi;
}
// * * * * * * * * * * * * * * * * * * * * * * * * * * * * * * * * * * * * * //

dimensions      [0 3 -1 0 0 0 0];

internalField   nonuniform List<scalar> 
18389
(
-7.98339e-05
7.98339e-05
4.35159e-05
-4.35159e-05
-5.20452e-05
5.20452e-05
4.00942e-05
-4.00942e-05
-5.18441e-05
5.18442e-05
-3.99813e-05
3.99813e-05
-3.42391e-05
3.42392e-05
3.89444e-05
-3.89444e-05
-3.4911e-05
3.4911e-05
4.14487e-05
-4.14487e-05
4.49374e-05
-4.49374e-05
-3.52054e-05
3.52054e-05
-1.29643e-05
1.29643e-05
-4.28377e-05
4.28377e-05
4.33924e-05
-4.33924e-05
2.30727e-05
-2.30727e-05
1.77792e-05
-1.77792e-05
4.58909e-05
-4.58909e-05
4.59231e-05
-4.59231e-05
4.33736e-05
-4.33736e-05
-4.25022e-05
4.25022e-05
3.52375e-05
-3.52375e-05
4.29962e-05
-4.29962e-05
-5.87588e-05
5.87588e-05
-4.98242e-05
4.98242e-05
-4.1825e-05
4.1825e-05
-4.45268e-05
4.45268e-05
4.56094e-05
-4.56094e-05
4.58485e-05
-4.58485e-05
4.41277e-05
-4.41277e-05
-4.13277e-05
4.13277e-05
-6.30553e-05
6.30553e-05
4.3104e-05
-4.3104e-05
-4.47345e-05
4.47345e-05
4.08546e-05
-4.08546e-05
4.66864e-05
-4.66864e-05
-4.55833e-05
4.55833e-05
5.36372e-05
-5.36372e-05
-5.88851e-05
5.88851e-05
3.79008e-05
-3.79008e-05
4.49021e-05
-4.49021e-05
4.54027e-05
-4.54027e-05
-4.10185e-05
4.10185e-05
4.49196e-05
-4.49196e-05
4.58622e-05
-4.58622e-05
-4.58471e-05
4.58471e-05
-4.58449e-05
4.58449e-05
-4.06527e-05
4.06527e-05
-4.58811e-05
4.58811e-05
4.59252e-05
-4.59252e-05
4.59402e-05
-4.59402e-05
4.46022e-05
-4.46022e-05
3.7719e-05
-3.7719e-05
-4.57659e-05
4.57659e-05
-5.55266e-05
5.55266e-05
-4.3801e-05
4.38011e-05
4.57637e-05
-4.57637e-05
-4.59833e-05
4.59833e-05
4.32173e-05
-4.32173e-05
-5.93089e-05
5.93089e-05
-4.71335e-05
4.71335e-05
4.96044e-05
-4.96044e-05
4.5719e-05
-4.5719e-05
-9.24446e-06
9.24449e-06
4.5779e-05
-4.5779e-05
4.14466e-05
-4.14466e-05
5.12514e-05
-5.12514e-05
-4.58522e-05
4.58522e-05
4.23474e-05
-4.23474e-05
3.23887e-05
-3.23887e-05
2.10502e-06
-2.10502e-06
-4.41414e-05
4.41414e-05
3.28689e-05
-3.28689e-05
-3.65884e-05
3.65884e-05
3.97369e-05
-3.97369e-05
2.66232e-05
-2.66232e-05
2.61878e-05
-2.61878e-05
2.70491e-05
-2.70491e-05
2.43833e-05
-2.43833e-05
1.23104e-05
-1.23104e-05
0.00108137
-0.000891285
-0.000190081
0.00546454
-0.00207252
-0.00339201
-0.00594661
0.00594651
9.48532e-08
0.00335482
-0.00260257
-0.000752254
-0.00157378
0.00176251
-0.00018873
-0.00675109
0.00283777
0.00391333
0.00121278
0.00425176
0.00725566
-0.00587575
-0.00137991
0.00119137
-0.00188854
0.000697168
-0.00085069
-0.000723088
-0.00144196
-0.00031469
0.00175665
0.00016632
-1.29578e-05
-0.000153362
0.000778667
-0.00222062
-0.0036033
0.000121352
0.00348194
-0.00320502
0.00289692
0.000308104
-0.00568618
0.00721032
-0.00152415
-0.00370828
0.00289735
0.000810916
-0.000561725
-0.00304158
-0.00175421
0.00239
-0.000635782
-0.000462472
0.00255863
-0.00209616
-0.00161622
0.00112018
0.000496032
0.000583549
0.00058181
-0.0015957
-0.00515539
0.00126416
-0.00171621
0.000452054
0.00577654
-0.00385914
-0.00191739
-0.000680616
0.00330987
-0.00262926
-0.00583513
0.0058352
0.000452895
0.00130961
-0.00633352
0.000977297
0.00535622
0.00230647
-0.00298709
-0.00378906
0.0031146
0.00067446
0.00214757
-0.00422008
0.00109294
-0.000199948
-0.00089299
0.00152073
-0.00129676
-0.000223966
-0.00280648
-0.000398537
0.00534963
-0.00534823
0.000379736
0.00114099
0.005225
-0.00133367
-0.00389133
0.00195566
-0.000764282
0.00308573
0.00190866
-0.00499439
-0.000720371
-0.0030687
-8.82846e-05
-0.000157957
0.000246241
0.00393585
0.00331981
0.00113695
-0.00485421
0.00371726
0.00162361
0.00360138
-0.00497942
0.00631854
-0.00133912
-0.00115654
-0.000578745
0.00173528
0.00133737
0.00201745
0.0001353
0.000103612
-0.000238911
0.00501771
-0.0033941
0.00645793
-0.000842286
-0.00561565
0.0032208
-0.00268461
-0.000536195
0.00220916
0.000471401
-0.00268057
0.00296927
-0.000760112
0.00650429
-0.00539887
-0.00110542
0.000482241
-0.00383347
0.00335123
7.03599e-05
0.00638758
0.00477607
-0.00429382
-0.000535743
0.00105935
-0.000523604
-0.00176631
0.000609767
0.001917
0.00224916
-0.00416615
0.000253712
-0.000334042
8.03298e-05
-0.00124539
-0.00285249
0.00409788
-2.63331e-05
0.00653063
-0.00281106
0.00230337
0.000507684
0.000390508
-1.12954e-05
-0.000379213
-0.00569234
-0.000254272
0.00187568
-0.00142278
0.000828993
0.00494755
0.000903119
0.000178251
0.00262724
-0.00641719
0.00378996
-0.00112022
0.000584477
0.00264721
-0.00389261
0.00619637
-0.00226051
0.00109218
0.0011772
-0.000749138
0.00108535
-0.000336208
-0.00112167
-0.000494542
0.0018762
0.0013446
-0.000593667
0.00142945
-0.0012374
-0.000192052
-0.00265117
0.00199347
0.000657703
0.00116677
0.000262683
0.00110424
-0.00493807
0.00383382
-0.00473688
0.00139763
0.00333924
-0.00455444
0.00611846
-0.00156403
-0.0050603
8.0882e-05
-0.00201851
-0.00063266
-0.000213691
0.000125406
-0.00120646
0.00463006
-0.00342361
-0.00117653
-0.000712006
0.000103287
-0.000192008
8.87212e-05
0.000126268
-2.29811e-05
-0.0012424
0.00462051
-0.0033781
-0.000156317
2.44791e-05
0.000131838
-0.00556378
0.00170464
-0.00121334
-0.000552966
-0.000449439
-1.89368e-05
0.000468375
-0.000543248
9.38084e-05
0.0010159
7.70397e-05
-0.00181561
0.000602275
-0.000150882
1.75841e-05
0.000133298
0.00136814
-0.00234443
0.000976285
0.000271094
-0.000135793
-0.00392473
0.00513752
-0.00245717
0.00070297
-0.000104806
-0.000422209
0.000527015
0.00568327
-0.00216552
-0.00351776
8.15722e-05
0.00250481
-0.00258639
0.00442605
-0.00558012
0.00115407
0.00263348
0.00304979
0.00291513
-0.00283356
-0.00610682
0.000420649
-0.00642213
0.0036064
0.00281573
0.00229284
0.00390353
-0.00438366
0.00136158
0.00302207
0.00144574
-0.000181585
-0.00101788
0.00401454
-0.00299666
0.00463804
-0.00162425
-0.00301379
-0.00458191
0.00374211
0.000839806
0.00369378
-0.00502746
5.92268e-05
0.000331281
-0.00137789
0.00580395
-9.06523e-05
0.00214957
-0.00205891
-0.00207719
0.00261972
0.00015757
-0.00277728
-0.0012774
0.00264553
-0.000631469
0.00325118
0.00164387
-0.00173451
0.000872298
0.00397202
-0.00484433
-0.00504215
0.00384146
0.00120071
0.0025519
-0.00359412
0.00104223
-0.00329157
0.00411434
-0.000822767
0.000374146
-0.00366572
-0.000971107
0.000971107
-0.000457494
0.000352688
-0.000127144
-0.000973297
0.00110044
0.00506823
-0.00184039
-0.00322785
-0.00243415
-0.00037234
0.00290271
0.000158021
1.65566e-05
-0.000174577
-0.00147274
0.0011303
0.000342443
-0.000144432
-0.00489773
0.00501856
-0.00388161
0.000229749
-6.34287e-05
0.00444304
0.000574671
0.0040677
-0.0015158
0.000165062
-7.041e-06
-0.00632593
-0.000993006
-0.000822608
0.00429949
-0.00190225
-0.00239724
0.00275782
0.00154168
0.00107797
-0.00563239
-0.00227069
-0.000540365
-0.0011254
-0.000955704
0.0020811
4.48404e-05
-0.00272519
0.00268035
-0.00236035
0.00123495
-0.00221806
0.00530379
-0.00460065
0.00158055
0.0030201
0.00254965
0.000674711
-0.000339443
-0.000335268
-0.00601614
0.000582975
0.00543316
-0.00417384
0.00580716
-0.00163332
0.00182495
0.00163196
-0.00345692
-0.0016953
0.000909357
0.000785944
-0.00271526
0.00209058
0.000624678
0.00112867
0.000747012
0.000247144
-0.000328882
8.174e-05
0.00485605
-0.00398376
-0.00638069
0.00557299
0.000807701
-0.00476249
-0.00165964
0.00335963
0.000604918
-0.00396454
0.000154068
-0.000162303
8.23457e-06
0.000590505
-0.000125244
-0.000465261
-0.00451768
0.00261543
0.000389582
-0.000609048
0.000219466
5.68886e-05
-0.001028
-0.00257568
0.00448435
-0.00530468
-0.000320921
0.00562561
0.000216066
0.000199863
-0.000415928
0.00139633
-0.00139633
0.0016871
-0.000721788
-0.00210628
0.0018119
0.000294372
0.00439026
-0.00302868
-0.000162625
6.30815e-06
-0.00128928
0.00134616
0.000675887
0.00127977
0.00234648
-0.000255893
-0.0040165
-0.00128818
0.00112321
-0.0049567
0.0032136
-0.004456
0.000832025
-0.00213673
0.00130471
0.00336106
-0.00456752
-0.00270767
-0.00181002
-0.00483618
0.00469174
-0.00067691
-0.00533922
-0.00515709
0.00143149
-0.0014529
2.14108e-05
0.00223371
0.000112772
-0.00601453
0.00204866
0.00396587
-0.00121933
0.000526049
0.000693279
0.00143358
0.00295668
-0.00462257
-0.00101102
0.0056336
-0.000212885
0.000138576
7.43091e-05
-0.00549476
0.00132092
0.0037532
-0.00493697
0.00118378
-0.00150167
-0.000604604
-0.000536671
-0.000637519
0.000138317
-0.00020376
6.54422e-05
0.00495186
-0.00384763
-0.00129883
0.0051229
-0.00382408
-0.000430318
-0.000858958
-0.00586146
0.000439615
0.00539559
-0.00615412
0.00455842
-0.000921488
-0.00545921
-0.00109822
-0.000374518
-0.00182063
0.00285839
-0.00103776
-0.00041905
0.000321974
9.70768e-05
-0.00173207
0.00141738
0.00158891
-0.000157417
0.000818895
-3.6711e-05
-0.00169536
0.00279765
0.001215
-0.00303563
0.00604844
-0.000475451
0.00528095
6.86789e-05
-0.00527787
0.0043895
0.00114312
-0.00553262
0.000556602
-0.000768995
0.000212394
-4.57004e-05
-0.000411793
-1.48493e-05
0.00606329
-0.000162187
0.000156828
5.3586e-06
0.00013348
2.05879e-05
0.00254584
-0.00335422
0.000808374
-0.00188967
0.000698844
0.00119082
0.00792153
-0.00345126
-0.00447026
0.00116773
0.00126882
-0.00243656
0.000105731
-0.000173285
6.75549e-05
-0.000805882
0.00133193
0.00114831
0.00318506
-0.00433337
-0.00561447
0.000165719
0.00544875
-0.0040145
0.00299662
0.001735
0.00479563
0.00458242
0.0033391
-2.12654e-05
0.000191304
-0.000170038
-0.00129427
0.00438531
-0.00309104
0.000302253
-0.000347953
-0.000131402
-8.14831e-05
0.00410227
-0.00227733
0.00472689
-0.00498587
0.000258972
-0.00322012
0.00603078
-0.00281066
0.00252933
0.00157295
0.00571065
-0.000983759
-0.00137945
-0.00562091
0.00137212
0.0042488
0.000654535
0.000520477
-0.00117501
0.00126925
-0.000614715
0.000585294
-0.00110998
0.000524688
0.00110577
0.000281383
0.000393329
-0.000678228
0.00443143
0.0015227
-0.000392399
0.0035012
-0.00608837
0.00258718
0.00153729
-0.00258692
0.00104963
-0.0043041
0.00114474
0.00315936
0.00292094
-0.00421521
-0.00490277
-0.00125135
-0.00409303
0.00125943
0.00283361
0.00123315
0.00315215
-0.00326251
-0.000830525
0.00222924
-0.00106151
-0.000665872
-0.00254043
0.0032063
0.00241446
0.000603915
-0.00301837
-0.00159564
0.0012071
0.000388541
0.000270268
0.0015046
-0.0019689
0.000464301
-0.000111032
-0.000223011
-0.000264661
0.000153629
-0.00434381
-0.000238102
-0.000302114
0.00118768
-0.000885568
0.00434991
-0.00464232
0.000292416
-8.83936e-05
0.000117733
-2.9339e-05
0.000965768
0.003383
-0.00434877
-0.000156954
6.85604e-05
-0.00474877
0.000707308
0.00404147
-0.00107842
2.52558e-05
0.00105316
7.2436e-05
-8.53936e-05
-0.000398851
0.000864676
-0.000347468
-0.000517209
-0.00603647
0.000637605
-0.00254974
-0.00012825
0.00267799
-0.00317238
0.00440552
0.0021809
-0.00108872
-0.00116723
-0.00117024
-6.2894e-06
-0.00351756
-0.00121931
0.00152077
-0.000425105
-0.00109566
0.00191967
0.00183775
-0.00375742
0.00502805
-0.00159386
-0.00343418
0.00079184
-0.00541441
-0.001373
0.00300496
0.00194328
0.000798027
-0.0027413
-0.00350068
0.00446645
-0.000153625
2.74342e-06
0.000928662
-0.00442934
-0.00449577
-0.000146562
-0.000998012
-0.00461646
0.00461123
0.00146771
0.00356033
0.00415923
0.00114015
-0.00529938
3.53709e-05
5.9902e-05
-9.5273e-05
-0.00141233
0.00335561
0.00369997
0.00351035
-0.00140938
0.00237698
-0.000967583
-0.0024739
0.000455395
-0.000878451
0.000751305
-0.000203606
0.000419672
-0.000197075
0.00170168
0.00376325
-0.00184358
-0.00109663
-0.000598671
-0.000107284
-0.000157377
0.00355036
-0.00163335
-0.00240374
0.00465291
0.000674565
-0.00309577
0.00242121
0.000670079
0.00075836
-0.00106047
0.00210085
-0.00129922
-0.00327617
0.00457538
-0.00215879
0.00478602
-0.000548386
0.0034453
0.000239589
-0.000222005
-0.0023645
0.000955118
0.00228691
-0.00387146
0.00158457
-0.00121378
5.82658e-05
-2.28949e-05
0.00215635
-0.00280036
0.000644013
-0.00117536
-0.000420277
-0.00351969
0.00449699
0.00117646
0.00168531
-0.00286177
-0.00169341
0.0036617
-0.00196829
0.00423409
-0.000851086
0.000234312
1.41404e-05
-0.000248452
-0.00371811
0.00202469
-0.00141213
0.00470217
-0.00329004
0.000877942
0.00130296
0.000227439
0.00116889
0.000253158
-0.000300845
4.7686e-05
0.0017192
0.000211771
-0.00193097
0.00302041
-0.00457093
0.00155053
-5.29298e-05
0.000374466
-0.000321537
0.00156696
-0.00035986
0.00141377
-0.00059907
-0.000814704
0.00282737
-0.00391741
0.00109004
0.00268436
-0.00374165
0.00105729
-0.00513218
0.00191205
0.00388664
-0.000866231
-0.000622599
-0.00238676
0.00300936
0.00140395
-0.00511452
0.00371057
0.00336047
-0.00145889
-0.00190159
-0.000688946
0.00173057
-0.00104162
0.0047718
-0.00303681
-0.000722662
-0.00196194
-0.00598172
0.00513943
3.88091e-06
0.000121838
-0.000125719
-0.00158233
0.00120594
0.000376394
-0.00491456
0.00630799
-0.00139344
-0.00187526
0.000686587
0.00118867
0.000401028
0.00268584
-0.00209002
-0.000595816
0.00343346
0.000490807
-0.00392428
0.000126642
-2.09113e-05
0.00517236
0.000336712
-0.00550907
-0.00194116
0.00379766
-0.0018565
0.00276236
-0.000623365
-0.002139
0.000462505
0.000402172
-0.000438755
0.00387222
0.0020252
-0.00396637
0.00072418
-0.000278168
-0.000446011
-0.000732297
5.00719e-05
0.000682226
-0.00315096
-0.00576549
0.00576423
-0.000274474
0.000952306
-0.000677834
-0.00229095
-0.000182957
-0.00454053
0.00324131
-0.000858545
0.0011125
0.00360798
-0.00501968
0.0014117
0.000410579
-0.00296031
0.00232858
-0.00243595
0.000107365
-0.0015715
0.00148236
8.91414e-05
-0.00121552
-0.000366811
-0.00339223
0.00342349
-0.00224703
0.0004574
0.000133105
-0.00173386
0.00104492
-0.00278713
0.000726195
0.00206094
0.000242306
-7.9942e-06
-0.00347628
0.0010201
0.00245618
-0.00144009
0.00559932
0.000338605
-0.000956827
0.000618223
0.00212907
0.000633288
-0.00127776
0.000304462
0.00111891
0.00120967
-0.00140906
0.0049361
-0.00352703
-0.00484382
0.00576063
-0.000916817
-0.00117203
0.00228367
0.0041039
0.00107413
4.6047e-05
0.0058465
-0.00550408
-0.000342411
0.00353152
-0.00464736
0.00111584
0.00308659
-0.000672135
0.00542667
-0.0018187
-0.00250506
-0.000971215
-0.00219303
-0.000298646
0.00249169
0.0024391
-0.00196771
-0.00160821
-0.00423722
0.0027501
0.00148712
-0.000329136
0.00123849
0.00119489
0.00365054
-0.00484543
-0.000252731
0.000642313
0.00305969
-0.00238512
-0.0047233
-0.00125843
0.00647065
-0.00129829
0.00422776
0.00206632
0.000492316
0.00285593
-0.00212868
-0.000727247
0.00473523
-0.00245156
-5.89837e-05
-0.00332823
-0.000860103
0.00418833
0.000388881
-8.65573e-05
-0.000302324
-0.00513433
0.0061006
-0.000966269
-0.000705043
0.00189855
-0.0011935
-0.000697274
0.00525321
-0.00455594
0.0012019
-0.00190694
-0.00011341
-0.00576234
-0.000749138
0.00202731
0.00381919
-0.000274525
-0.00191851
0.00025135
-4.20647e-06
0.000362606
-0.00048785
0.00335697
-0.00081113
-0.00522356
-0.000271551
-0.000147499
0.000150283
-0.000133648
-1.66354e-05
-0.00248267
0.000122309
-0.000416344
0.0015984
-0.00102948
-0.000568919
0.00245344
0.000611037
-0.00306448
-0.000726203
0.00317964
-0.00520296
-0.000271494
0.00547445
0.00375048
0.00137243
0.00439885
-0.00121379
-0.000116783
0.00255589
0.00540389
-0.000206714
-0.00519718
-0.00608744
0.00425312
0.00183432
0.00321145
-0.00126786
-0.00435306
0.000205981
-0.000227246
0.000546062
0.00086771
0.00120238
0.000128419
-0.0013308
0.00421234
0.00119156
-0.000963662
0.00317061
-0.00220695
0.00471117
-0.00135154
-0.00218239
0.00279333
-0.000610931
-0.00117428
-9.95488e-05
0.000289938
-0.000190389
0.00344655
-0.00414383
0.00134797
-0.000993564
-0.000354403
0.0016008
-0.000394855
-0.00324913
0.00228547
0.00548377
-0.00434066
-3.06268e-05
0.000352601
-0.00535475
0.000440181
0.005407
-0.00190581
-0.000993964
-0.00361582
0.00460979
-0.000644265
0.00288347
-0.0022392
0.00549728
-0.00286247
-0.00263481
-8.83963e-05
0.000589684
-0.000677197
0.000660687
1.65103e-05
-0.000700022
0.00174044
-0.00104042
-0.00314908
-0.00115502
0.000155521
-1.72034e-05
-0.00122477
-0.00478975
-0.0030699
0.00240402
-0.00115143
-0.000244896
-7.26372e-05
-8.95494e-05
-0.0012438
-0.000806062
-0.00523042
-0.00283876
0.0021945
-0.000807952
0.00118769
0.00110874
0.00436097
-0.0054697
0.00336092
-0.002756
0.000468732
0.000767367
-0.00288243
0.00211506
0.00496947
-0.00490267
-6.67982e-05
-0.00320948
0.00361569
-0.000406206
0.000207752
-9.55903e-05
-0.000112162
-0.00494565
-0.00147156
-0.00176151
0.00369022
-0.0019287
0.00297993
-0.00221257
-0.00377925
0.00201774
0.00139502
-0.00258171
0.00118669
-0.00363296
0.00568162
0.00649531
-0.00219453
-0.00430078
-0.00239715
0.00237563
2.15255e-05
0.00557692
-0.00160491
0.00118982
-0.000926955
-0.000262864
-9.10183e-06
0.000262261
0.000249736
-0.000776323
0.000526587
-0.0030528
0.0036491
-0.000964735
0.000852107
-0.00105206
0.00236846
-0.000636992
-0.00173147
0.00223803
-0.000518835
0.00450579
0.000633581
0.00173489
-0.00175608
0.00105606
0.000408507
-0.000464631
5.61242e-05
0.00222233
-0.00173311
-0.000489219
0.000816545
-0.00514784
-0.0005445
0.000369493
-0.000588356
0.000218863
-0.00410194
0.00547405
0.000941873
-0.00111641
0.00017454
-0.00154417
0.00216028
-0.000616102
-0.00148322
-0.002754
-0.00538016
-0.000149664
0.00552983
0.000296829
0.000108351
4.1933e-05
0.000127665
-0.000127991
3.26274e-07
0.00408579
-0.0028909
-0.0037913
-0.00229706
0.00346457
0.00303073
-0.00258835
0.00070972
0.00187863
-0.000844716
0.00223973
-0.00230343
-9.37245e-05
0.00273024
-0.00377712
0.00104688
0.00131585
-0.000128165
0.000459145
0.000556753
-0.00327648
0.000959361
0.00231712
0.000905854
-0.000659706
-7.25923e-05
-0.00426462
0.0017113
0.000123208
-0.00183451
-0.00396198
0.00145877
0.00250321
0.000501763
0.00147464
-0.000928579
-0.00024625
-0.00466042
0.00490668
0.000783756
-0.00247679
0.00169304
0.00120224
0.00131228
-0.000447608
-0.00173485
0.00218246
0.00258007
-0.00179632
0.00446355
-0.00353488
-0.000746591
-0.0026409
-0.000227718
0.000252198
-0.000712732
0.00177177
-0.00105904
0.00266452
-0.00366636
0.00100183
0.000136418
2.04103e-05
-0.00236661
-0.000909879
0.00142121
-0.00163605
0.000214843
-0.00277493
0.000684915
0.00127616
-0.00141841
0.000142245
0.00161858
-0.00180751
0.000188935
0.000673536
-0.00371926
-0.00113495
0.00133181
-0.00488035
0.00354854
-0.000908012
0.00357252
0.000117103
-7.89153e-05
-3.81876e-05
0.00471374
-0.003605
-0.000303154
-0.00151644
-0.00400482
-0.00148994
0.0020948
0.000698524
-0.000996471
-0.000919887
-0.00448857
-0.00161826
-0.000409185
0.001245
-0.000934864
-0.000310132
-0.0014987
-0.00108823
0.000650124
0.00226313
-0.00291325
-0.000114234
0.000670834
-0.000716062
3.88648e-05
-0.00246598
0.00196651
0.00139396
-0.00069791
0.00165492
-0.000957005
-8.68404e-05
-0.00011692
0.000318042
-0.00193983
0.000438165
0.00162301
-0.00230447
0.00068146
-0.00333301
0.00259037
0.000742625
0.00121024
0.00239757
-0.0036078
-0.00175705
0.00104432
-0.00294304
-0.00101893
-0.000772794
-0.00256021
-0.0016802
0.00125816
0.000422041
0.00176539
-5.40915e-05
-0.000755382
-0.00243915
0.00319453
-0.000658064
0.00291215
-0.00226203
-0.000858537
-0.00394764
0.00480619
-0.00233855
0.0023382
3.55102e-07
-0.00107842
-0.00157292
0.000543448
-0.00240858
0.00381898
-0.0014104
0.0032333
0.00288516
0.000194324
3.6214e-05
-0.000230539
0.00234102
-0.000601741
-0.00173927
0.000188535
-0.000184654
-0.00358385
0.00491566
-0.00328478
0.00522324
-0.00193845
-0.00351027
-0.0015094
-0.000917247
0.00323026
-0.00231301
0.00285933
0.00177008
-0.00417867
-0.00499209
-0.000142236
-0.000770311
0.00284013
-0.00206981
-0.000431829
0.000378899
-0.000534694
0.00167871
-0.00114401
-0.0040151
0.00334424
0.000670858
-0.00326878
0.00235153
-0.00386217
0.000668558
0.0031936
0.00141447
-0.00101859
-0.000395873
-0.00589957
0.000696602
0.00184735
-0.00141206
-0.000435281
0.00157377
-0.000488476
-0.00108529
7.8361e-05
0.000129391
0.00292445
-0.000621074
-0.000209264
-0.00348546
-0.000376712
0.000425437
-0.00305465
-0.000960456
-0.00233848
-6.95354e-08
-0.00292199
0.0022994
0.00071963
0.00260267
-0.0033223
0.000587673
-0.000862147
0.00140471
-0.00671296
0.00530826
-0.00575294
0.000990443
-0.00232212
0.00353236
0.000694496
0.000257812
-0.00273369
0.00345332
-7.69494e-05
0.00504642
0.000593284
0.00172344
-0.00231673
-0.0017782
0.00124351
0.00275119
-0.00369479
0.000943595
0.00509773
0.000676178
0.00154615
0.000306897
0.000417282
-0.000364051
-0.000404944
0.0001809
-0.00175072
0.00176681
-0.000888868
0.00090174
0.000572895
-0.000576644
0.00300817
-0.00243153
-0.00151735
0.00184285
-0.000325498
-0.00488942
0.00380406
0.00108536
-0.00478858
0.0015038
-3.99941e-05
3.53854e-05
4.60869e-06
-0.00281569
-0.000850663
0.00111819
-0.00130494
0.000186747
0.00134109
-0.00492495
0.00115484
4.75403e-05
0.00122646
0.00069268
0.00219079
-0.00366645
0.000850773
0.000190864
-0.00503468
0.00188848
0.0012365
0.000662042
-0.00527313
-0.000492362
0.00565082
0.00119071
0.00710805
-0.00218418
-0.00492387
0.000813451
-0.000376564
-0.000436888
0.000699832
-0.00139171
0.000793036
-0.00386054
-0.00125399
0.000289937
-0.000972017
-0.000392252
0.00136427
0.00233551
0.00400843
-0.00486696
0.0027034
0.000833609
-0.00353702
0.00125311
-0.000968258
-0.000284855
0.000744314
0.0015967
-0.000135142
0.000138378
-3.23572e-06
-0.000707924
0.00288386
-0.00217594
0.00361871
0.00108347
-0.00126716
-0.000413046
0.00143616
-0.00153074
9.45856e-05
4.61433e-05
7.09596e-05
-0.00447762
0.000967347
-0.00165762
0.000442096
-0.0036482
0.00292198
-0.000950716
5.94308e-05
0.000930365
0.00268392
-0.00361428
0.000853428
-0.00127578
0.00417288
-0.00289711
0.000318247
0.000279938
4.65377e-05
-0.000326476
7.8248e-05
-0.00539183
0.00531357
-0.00264069
-0.000761866
0.00340257
-0.00348015
0.00261704
0.000863117
-0.00276128
-0.000262331
-0.00171442
-0.00489993
0.00089511
-0.00146111
-0.000877367
-0.00106186
0.0037921
0.00171209
-0.00372221
0.00201012
0.000105837
2.18279e-05
0.00372525
-0.00201315
0.00286678
0.000939599
-0.00380637
-0.00130836
0.00174323
-0.00043487
0.00357396
0.00108966
-0.00466362
0.00718204
-0.00196506
-0.00521697
-0.00212976
-0.000708996
-0.00174943
0.00234271
0.00377375
-0.00492279
0.00114903
-0.00280567
0.00373604
0.0011768
-5.38638e-05
-0.00112293
0.0014813
0.000908684
-0.0055013
0.000598528
0.0004479
0.00036555
0.0029216
-0.00111567
-0.0025188
0.00248071
3.80973e-05
0.000504177
-0.00184128
0.0013371
-0.00386782
-0.00119247
0.00108486
-0.00254597
-0.00529909
0.000151263
-0.00126755
-0.000509097
0.00177664
0.00563424
-0.00449409
0.000104697
0.000284185
-0.00302349
0.00318106
0.00144601
-0.00107804
-0.000367978
0.00346958
0.00475331
-0.000949257
0.00062569
-0.00326638
0.00114587
-0.00112062
-5.28957e-05
0.000461402
0.000394123
-1.96568e-05
-0.00206216
-0.000429776
0.00154796
-0.000889785
-0.00349723
0.000763551
-3.10833e-05
-8.91084e-06
0.00599893
-0.00492095
0.0052191
-0.00439011
-7.68875e-05
-0.00105316
0.00113005
0.00194935
-0.000457778
-0.00149157
0.00335864
-0.000755971
-0.00256891
0.00336085
-0.000791934
-0.00183587
0.000527508
0.00128203
-0.00095605
-0.000325984
-0.000118747
-0.000210135
0.0020599
-0.000547609
-0.00151229
-0.00138596
-0.00239814
-0.000120658
0.00209501
-0.00274732
0.000652304
0.00280685
-0.000748786
-0.00205807
0.00410353
-0.00434978
0.000313778
0.00223438
-0.000611372
-0.000680142
0.000837409
-0.00367053
0.00501162
0.00122208
0.000450418
-0.00171796
-0.00285017
0.00209893
0.00363001
0.00158909
-0.00115993
-0.00382082
-0.00111725
0.00130818
-0.00172053
0.000412355
0.00367594
-0.00318514
-0.000193863
0.00113573
-3.9037e-05
-0.00027123
0.000310267
-0.000678479
-0.00190988
0.00377325
-0.00490439
0.00113114
-0.00187021
0.00235391
-0.000483703
-0.00114954
0.00213497
0.00074888
-0.00226558
0.0037548
-0.00148923
0.00150933
-0.00114653
-0.000362797
-0.00128395
0.000205536
0.000183651
-0.000506209
0.000322558
-0.000424347
-0.00123328
-0.00247599
0.00250328
-2.72873e-05
0.00144445
-0.00371004
0.00162755
-0.000369383
0.000369884
-0.000412091
4.22068e-05
-0.000828842
0.000595834
0.000233008
-0.000793833
-0.00284175
0.000809225
0.00203252
-0.00199178
-0.000860589
-0.000737449
0.00159804
-0.00523975
0.00389682
0.00134293
-0.00137958
0.00130269
-0.000576234
-0.000115937
0.000692171
0.00286889
-0.000733922
-0.000770135
-0.000160214
0.000930349
0.00184181
-0.0013914
0.00170096
-0.000392777
-0.000233707
-0.000639291
-0.00420013
0.00483942
-0.00140179
0.00283156
0.00427649
-0.00240076
-7.52299e-05
0.00313268
-0.00472654
0.000732072
0.00158323
-0.00231531
0.00202185
-0.00279216
0.00197572
-0.000702755
-0.00127296
-0.00179657
0.000455308
0.00134126
0.00431382
0.00286822
-0.00550789
0.00133138
0.0041765
-0.00124741
-0.00399233
-0.000459701
-0.00133687
-0.00101326
-0.000559663
-0.00129698
-0.000423556
0.0011375
-0.000530678
0.00151681
-0.00098613
-0.00175771
0.001298
-0.000944211
-0.000207201
0.00115141
0.00217439
-0.0028679
0.000693517
-1.1763e-05
0.000206087
0.00103995
0.00604614
-0.00140478
-0.00464137
-0.00203348
-0.00187354
0.00135383
0.000519705
0.00127418
-0.000982124
-0.00029206
-0.00230011
-0.00101555
0.00331567
-0.0026767
0.00357841
-0.000901709
-0.000915273
0.00113073
-1.2275e-06
-0.0011295
0.00376223
-0.00493299
0.00117076
0.00174802
-0.0013563
-0.00039172
0.00242707
-0.00122482
0.00273157
-0.000637611
-0.000191231
-0.00409055
0.00229888
-0.00179278
-0.000506099
0.000559824
-0.00200986
0.00145003
-0.00252288
-0.000831338
0.00086193
-0.000660601
-0.00020133
-0.000180489
-0.00363786
0.000961156
0.000606518
-0.000422867
0.0025999
0.000978512
0.000318135
0.00130698
0.000668742
-0.00160494
0.00233701
-0.00151817
0.00101091
0.000507254
0.00353782
-0.000671035
-0.0038095
0.00610234
-0.00114216
-0.00247813
0.00681737
-0.00433923
-0.000883947
0.00356787
-0.00414177
0.000932299
-0.00210087
0.00424843
-0.000672537
-0.00163193
-0.00244171
0.00172083
0.000720892
-0.00127698
0.00102726
-0.00103783
1.05772e-05
-0.00137846
-0.000776629
-0.000153467
0.000930097
-0.00155763
0.00137015
0.000187479
0.00204963
0.000790496
6.24242e-05
-0.00129982
-0.000550556
-0.000841151
-0.00241246
-0.000464949
-0.00140859
-0.000170986
0.00159219
-0.000180642
0.00340988
-0.00051253
0.00133858
0.000200553
-0.000709288
-0.00100693
-0.00193058
0.00247679
-0.000546207
-0.00105586
-0.00572888
0.00351082
0.00148404
-0.000582303
0.0028908
-0.00120549
0.000948808
-0.00135904
-0.00453074
0.00588978
0.000619683
-0.00255027
0.000739129
-0.00368417
0.00270477
0.000979393
0.00090036
-0.00143104
0.00223331
-0.00311563
0.000882305
0.00119299
-0.00342886
0.00223587
0.000859542
0.00168955
-0.00254909
-0.000174247
0.00179283
0.00275135
0.00108498
0.00362248
-0.000413525
0.000783016
0.00316064
-0.00402074
0.000972571
-0.00327268
0.000433798
0.004124
0.00148774
-1.12324e-05
-0.000275241
0.000286473
-0.00619176
0.00385632
0.00233545
-0.000820142
-0.00261996
0.00344011
0.00264014
-0.0017806
-0.00369545
0.000889769
-0.00132233
-0.00043538
-0.000152621
0.0013194
0.00372289
0.0012132
0.000224319
0.00131165
-0.000995587
-0.000316061
0.00094147
0.000542575
-0.000314276
0.00376982
-0.00493083
0.00116102
0.00307463
-0.000841326
-0.0013999
0.00190408
0.00126185
-0.00355248
0.00229063
-0.00116318
0.00145763
0.000677634
-0.00213527
0.00019284
-0.000204073
0.00219978
-0.000862409
-0.00129091
0.000329524
0.000938458
-0.00034826
-0.000590198
0.00353231
-0.00227046
-0.000495546
0.00229926
-0.00180372
0.00102574
-0.00296236
0.00210034
0.000862019
0.000105869
-3.20504e-08
0.00465472
0.000535138
-0.00569054
-0.00519234
0.00392696
0.00126539
-0.00107247
-0.00269742
0.00376989
0.00222119
0.00372533
0.00283001
-0.0037526
0.000922584
-0.00147339
0.00110658
-0.000926143
0.00336237
-0.00243623
0.00149828
0.000561613
-0.00378493
-0.00240684
0.00105681
-0.00230521
0.00320538
-0.000900178
0.00342302
-0.000805976
0.000394269
-0.000792127
0.00255299
0.000870021
-0.00063404
0.00430998
-0.00131241
0.00171882
-0.000406405
0.00197687
-0.00127802
-0.000388406
0.00607717
-0.00492116
-0.000459003
0.000857545
-0.00246249
-0.00539189
-0.00172423
0.000411818
-0.000678027
0.000101793
-0.000865425
0.000213132
-0.00147289
0.000649521
0.00158486
-0.000905242
0.000135107
0.000804301
0.00251664
-0.00332095
-0.00109512
0.00187379
-0.00194751
-0.000473856
0.00196147
-0.00148762
-0.000860886
-0.00210147
-0.00195203
0.00147817
-0.00265812
0.00346242
-0.0016385
0.000566707
0.00107179
-0.000967836
0.00356773
0.00598475
-0.00228478
-0.0013061
-0.000418123
-0.00174331
0.00111103
0.00063228
0.000903854
-0.00451839
0.00361454
-0.00131955
0.000540985
0.000778565
-0.004035
-0.00115734
0.000191742
-0.00113595
0.00192687
-0.00069037
-0.00133233
-0.00379777
0.00513011
0.00100804
6.60919e-05
0.00329635
-0.00252884
-0.000767503
0.000267657
0.00130611
0.000878847
-0.000671936
-0.000206911
-0.00135307
-0.00101142
-0.00105997
0.00507775
-0.00401778
0.000626481
-0.0024967
0.000175109
0.00126105
0.00377402
-0.00495854
0.00118452
0.00287244
-0.00206322
0.000102024
-0.000168358
6.63344e-05
0.00102255
0.000138071
0.000104235
0.00235236
0.00369378
-0.000575154
-0.000819765
0.00139492
0.000651728
0.00177353
-0.00242526
0.00239451
-0.00171516
-0.000679355
0.000475008
0.00147434
0.000425697
-0.000508192
-0.00081136
0.000601226
-0.00532453
0.000690456
-2.97698e-05
-0.0011568
-0.00129851
-0.00378643
0.00508493
0.00104101
0.00143816
-0.00189593
0.0025471
-0.000395068
-0.00490911
0.00530418
0.000121046
-1.90217e-05
0.000631154
0.00129572
0.00273423
0.000933165
-0.00366738
0.00137631
0.000471037
0.00258733
-0.0036412
0.00454505
0.00277458
0.000842684
-0.00361727
0.00161065
-0.000864138
-0.000746508
0.00133059
-0.00102188
-0.000308709
0.000421839
0.00105563
-0.00469683
0.000218246
-6.86126e-06
0.000199701
0.00599541
-0.00128167
0.00152751
-0.00212925
0.00252113
-0.00183418
-0.000686952
0.000842167
-0.00253931
0.00169715
0.00523524
-0.0028207
-0.000920937
-0.00159955
0.00500832
0.00148594
-0.00178112
0.000295184
0.000500424
-0.00010374
-0.000396683
-0.00098691
-0.00314245
0.00412937
0.000740956
0.00182139
-0.00256234
0.00176725
-0.000281308
0.00225279
0.00141007
-0.000869084
-0.000937145