2 	-9.15729 	-8.58112e-18 	1.01242 	0.000965369 	-5.53318e-22
2 	-8.59874 	-9.67648e-18 	1.01389 	0.00119643 	-5.28525e-22
2 	-8.04674 	-1.36768e-17 	1.01559 	0.00142777 	9.55728e-22
2 	-7.5012 	-1.28626e-17 	1.01766 	0.001884 	1.89801e-22
2 	-6.96205 	-9.68423e-18 	1.02014 	0.00206211 	2.21513e-21
2 	-6.56146 	-8.16356e-18 	1.02308 	0.00319146 	-3.25891e-21
2 	-6.29661 	-9.70326e-18 	1.02301 	0.00252633 	-1.44225e-21
2 	-5.90258 	-8.96976e-18 	1.02652 	0.00256065 	-1.34181e-21
2 	-5.38211 	-5.10316e-18 	1.03166 	0.00408607 	1.24284e-21
2 	-5.11668 	-2.99651e-18 	1.03608 	0.00471895 	-1.13676e-20
2 	-4.96919 	-9.51585e-19 	1.03619 	0.00609184 	3.55935e-20
2 	-4.82676 	3.7962e-19 	1.03626 	0.00747884 	-2.78304e-20
2 	-4.69874 	-1.6272e-18 	1.03996 	0.00678085 	5.07618e-20
2 	-4.55243 	-2.09942e-18 	1.04007 	0.0082091 	-2.67123e-20
2 	-4.43541 	3.7976e-18 	1.04428 	0.00800262 	-4.11371e-20
2 	-4.29179 	9.70756e-18 	1.04442 	0.00962755 	-1.01118e-20
2 	-4.18433 	9.5592e-18 	1.04918 	0.00924521 	3.90307e-20
2 	-4.04319 	7.51033e-18 	1.04934 	0.0110236 	-2.03286e-20
2 	-3.94409 	6.70799e-18 	1.05477 	0.0105135 	-1.67142e-21
2 	-3.83348 	7.23776e-18 	1.05497 	0.0124981 	-9.20947e-20
2 	-3.71316 	7.15483e-18 	1.05512 	0.0145188 	8.28233e-20
2 	-3.62792 	5.01998e-18 	1.06139 	0.014047 	-7.04625e-20
2 	-3.49179 	1.78159e-18 	1.06159 	0.0162893 	9.39533e-20
2 	-3.41101 	3.40393e-19 	1.06172 	0.0185737 	-1.84618e-19
2 	-3.3367 	-3.97648e-19 	1.06905 	0.018059 	-6.14814e-20
2 	-3.20027 	-4.08786e-18 	1.06926 	0.020603 	1.01664e-19
2 	-3.13057 	-8.1333e-18 	1.07765 	0.0198387 	2.44631e-19
2 	-3.05876 	6.74494e-18 	1.07796 	0.0226652 	1.66325e-19
2 	-2.9314 	6.3753e-18 	1.07819 	0.025553 	-2.34469e-20
2 	-2.86733 	8.25147e-18 	1.07835 	0.0285023 	-1.63466e-19
2 	-2.80891 	5.84556e-18 	1.08848 	0.0278075 	1.55905e-19
2 	-2.69742 	6.69072e-18 	1.08877 	0.0311033 	-9.84271e-20
2 	-2.61725 	9.86032e-18 	1.08898 	0.0344758 	6.88953e-20
2 	-2.56471 	8.37377e-18 	1.10097 	0.0335336 	1.02034e-19
2 	-2.487 	7.99096e-18 	1.10137 	0.0373001 	1.01345e-19
2 	-2.38935 	1.27274e-17 	1.10168 	0.0411633 	-7.58871e-20
2 	-2.32938 	1.49489e-17 	1.10188 	0.0451249 	-1.12872e-19
2 	-2.28387 	1.36819e-17 	1.1166 	0.0439744 	-1.09563e-19
2 	-2.20713 	1.44279e-17 	1.1171 	0.0484198 	-6.61694e-21
2 	-2.12186 	1.62951e-17 	1.11749 	0.0529931 	-1.06919e-19
2 	-2.05769 	1.74798e-17 	1.11776 	0.057698 	-1.48037e-19
2 	-2.01763 	1.73472e-17 	1.13599 	0.0560632 	2.87338e-19
2 	-1.96148 	1.73472e-17 	1.13669 	0.0613444 	-3.19995e-19
2 	-1.88587 	1.96305e-17 	1.13728 	0.0667997 	-8.59577e-20
2 	-1.81301 	2.0857e-17 	1.13773 	0.0724356 	1.99429e-19
2 	-1.75942 	2.03084e-17 	1.13804 	0.0782588 	-1.58376e-19
2 	-1.72488 	2.08167e-17 	1.16162 	0.0758655 	-1.1869e-19
2 	-1.67476 	2.08167e-17 	1.16255 	0.0824294 	6.18266e-19
2 	-1.60902 	2.17157e-17 	1.1633 	0.089246 	-8.96639e-19
2 	-1.54532 	2.04797e-17 	1.16383 	0.0963263 	4.10759e-19
2 	-1.48352 	1.59997e-17 	1.16409 	0.103681 	-1.29736e-19
2 	-1.43952 	1.09664e-17 	1.16403 	0.111319 	4.30232e-19
2 	-1.40994 	8.30237e-18 	1.19431 	0.107402 	1.57547e-19
2 	-1.36514 	6.59195e-18 	1.19434 	0.115971 	1.5294e-19
2 	-1.30832 	4.85723e-18 	1.19364 	0.124897 	-5.75027e-19
2 	-1.25294 	2.80321e-18 	1.19203 	0.13418 	5.03428e-19
2 	-1.19891 	1.68863e-19 	1.18926 	0.143812 	-9.14419e-19
2 	-1.14614 	-4.8709e-20 	1.18502 	0.153774 	9.93885e-19
2 	-1.09454 	1.45894e-19 	1.17896 	0.164031 	3.5051e-19
2 	-1.06737 	2.45152e-19 	1.17066 	0.174526 	-6.0524e-19
2 	-1.04239 	-7.84551e-19 	1.18709 	0.164849 	-2.81096e-19
2 	-0.99456 	-3.81639e-18 	1.17047 	0.175483 	7.99722e-20
2 	-0.946041 	-3.81639e-18 	1.14934 	0.186025 	6.71016e-20
2 	-0.898415 	-3.81639e-18 	1.12304 	0.196294 	-5.62152e-19
2 	-0.851623 	-7.95477e-18 	1.09096 	0.206078 	1.9681e-19
2 	-0.805606 	-9.84001e-18 	1.05254 	0.215137 	-2.82867e-20
2 	-0.760312 	-8.50774e-18 	1.00732 	0.223211 	7.57142e-19
2 	-0.715689 	-1.33676e-18 	0.954995 	0.23003 	-1.99964e-19
2 	-0.671689 	4.77792e-18 	0.895396 	0.235329 	-3.62616e-19
2 	-0.628266 	7.83923e-18 	0.828544 	0.238853 	-3.92871e-21
2 	-0.59159 	1.32404e-18 	0.754641 	0.240367 	-3.27989e-20
2 	-0.570272 	-3.81639e-18 	0.630131 	0.190775 	3.89745e-19
2 	-0.542975 	-7.28584e-18 	0.541404 	0.188485 	2.39102e-20
2 	-0.501025 	-7.28584e-18 	0.448296 	0.184464 	-5.33579e-19
2 	-0.459485 	-5.20417e-18 	0.351691 	0.178656 	3.94146e-19
2 	-0.418319 	-7.97973e-18 	0.252668 	0.171015 	2.43658e-20
2 	-0.377489 	-9.36751e-18 	0.152518 	0.161536 	-3.00734e-19
2 	-0.336961 	-1.04083e-17 	0.0527251 	0.150198 	-1.80044e-19
2 	-0.296701 	-1.49186e-17 	-0.0450931 	0.136864 	-1.29182e-19
2 	-0.256674 	-1.66533e-17 	-0.139002 	0.121788 	-9.06239e-20
2 	-0.216849 	-1.66533e-17 	-0.227 	0.105366 	2.78199e-19
2 	-0.177193 	-1.83881e-17 	-0.306826 	0.0877546 	-2.3217e-19
2 	-0.137675 	-1.83881e-17 	-0.375878 	0.0691715 	1.59625e-19
2 	-0.098263 	-1.83881e-17 	-0.431306 	0.0498727 	1.209e-19
2 	-0.0589275 	-1.8735e-17 	-0.470276 	0.0301007 	-7.55042e-20
2 	-0.0196374 	-1.42247e-17 	-0.490437 	0.0100644 	-2.2453e-20
2 	0.0196374 	-1.17961e-17 	-0.490437 	-0.0100572 	-2.13614e-20
2 	0.0589275 	-1.07553e-17 	-0.470276 	-0.0300936 	-7.035e-20
2 	0.098263 	-8.67362e-18 	-0.431306 	-0.0498658 	1.23981e-19
2 	0.137675 	-1.00614e-17 	-0.375878 	-0.069165 	1.51341e-19
2 	0.177193 	-1.00614e-17 	-0.306825 	-0.0877486 	-2.44542e-19
2 	0.216849 	-1.00614e-17 	-0.227 	-0.105361 	2.50612e-19
2 	0.256674 	-8.67362e-18 	-0.139002 	-0.121783 	-8.67491e-20
2 	0.296701 	-7.28584e-18 	-0.0450936 	-0.136859 	-1.43502e-19
2 	0.336961 	-1.249e-17 	0.0527246 	-0.150194 	-2.24429e-19
2 	0.377489 	-1.59595e-17 	0.152517 	-0.161532 	-2.14679e-19
2 	0.418319 	-1.9082e-17 	0.252668 	-0.171012 	3.70545e-20
2 	0.459485 	-2.35922e-17 	0.351692 	-0.178654 	4.96612e-19
2 	0.501025 	-2.84495e-17 	0.448297 	-0.184462 	-5.39676e-19
2 	0.542975 	-2.87964e-17 	0.541406 	-0.188483 	-2.43443e-20
2 	0.570272 	-2.44003e-17 	0.630133 	-0.190774 	3.90809e-19
2 	0.59159 	-2.44641e-17 	0.754647 	-0.24037 	1.99106e-19
2 	0.628266 	-2.55768e-17 	0.828549 	-0.238855 	1.4438e-20
2 	0.671689 	6.1657e-18 	0.895402 	-0.235331 	-6.43248e-20
2 	0.715689 	7.6838e-18 	0.955001 	-0.230032 	-2.71313e-19
2 	0.760312 	5.71699e-18 	1.00733 	-0.223213 	7.89181e-19
2 	0.805606 	-6.4598e-19 	1.05254 	-0.215139 	1.57152e-21
2 	0.851623 	-6.39352e-18 	1.09096 	-0.20608 	1.87186e-19
2 	0.898415 	-1.04083e-17 	1.12304 	-0.196295 	-5.95615e-19
2 	0.946041 	-1.21431e-17 	1.14934 	-0.186026 	7.8561e-20
2 	0.99456 	-1.21431e-17 	1.17048 	-0.175484 	1.60502e-19
2 	1.04239 	-1.10116e-17 	1.1871 	-0.164849 	-2.99091e-19
2 	1.06737 	-1.13696e-17 	1.17066 	-0.174528 	-6.52602e-19
2 	1.09454 	-1.06094e-17 	1.17897 	-0.164032 	2.94114e-19
2 	1.14614 	-1.27122e-17 	1.18502 	-0.153775 	1.00519e-18
2 	1.19891 	-1.83927e-17 	1.18926 	-0.143813 	-9.57227e-19
2 	1.25294 	-2.00951e-17 	1.19204 	-0.134181 	5.98778e-19
2 	1.30832 	-1.8735e-17 	1.19365 	-0.124897 	-5.06598e-19
2 	1.36514 	-1.8735e-17 	1.19434 	-0.115971 	1.49934e-19
2 	1.40994 	-1.76699e-17 	1.19431 	-0.107403 	1.5487e-19
2 	1.43952 	-1.53528e-17 	1.16404 	-0.111319 	3.73862e-19
2 	1.48352 	-1.85213e-17 	1.16409 	-0.103681 	-1.1295e-19
2 	1.54532 	-2.08067e-17 	1.16383 	-0.0963267 	2.65494e-19
2 	1.60902 	-1.83564e-17 	1.1633 	-0.0892463 	-9.64907e-19
2 	1.67476 	-1.66533e-17 	1.16255 	-0.0824296 	6.09159e-19
2 	1.72488 	-1.59758e-17 	1.16162 	-0.0758656 	-9.89771e-20
2 	1.75942 	-1.6484e-17 	1.13804 	-0.0782591 	-1.88685e-19
2 	1.81301 	-1.28834e-17 	1.13773 	-0.0724359 	2.52716e-19
2 	1.88587 	-1.06404e-17 	1.13728 	-0.0667999 	-1.77783e-19
2 	1.96148 	-1.31839e-17 	1.13669 	-0.0613445 	-2.85839e-19
2 	2.01763 	-1.70766e-17 	1.13599 	-0.0560633 	3.21255e-19
2 	2.05769 	-1.90258e-17 	1.11776 	-0.0576983 	-1.40228e-19
2 	2.12186 	-2.03943e-17 	1.11749 	-0.0529933 	-4.99846e-20
2 	2.20713 	-2.19146e-17 	1.1171 	-0.0484199 	-8.82004e-20
2 	2.28387 	-2.09677e-17 	1.1166 	-0.0439746 	-6.26039e-20
2 	2.32938 	-1.83129e-17 	1.10188 	-0.0451251 	-1.57687e-19
2 	2.38935 	-1.71098e-17 	1.10168 	-0.0411635 	-9.34537e-20
2 	2.487 	-2.14993e-17 	1.10137 	-0.0373002 	6.87443e-20
2 	2.56471 	-2.79978e-17 	1.10097 	-0.0335337 	9.71311e-20
2 	2.61725 	-2.92868e-17 	1.08898 	-0.034476 	6.4151e-20
2 	2.69742 	-3.00854e-17 	1.08877 	-0.0311034 	-5.33686e-20
2 	2.80891 	-3.49889e-17 	1.08848 	-0.0278076 	1.38919e-19
2 	2.86733 	-3.70933e-17 	1.07835 	-0.0285025 	-3.36651e-21
2 	2.9314 	-3.53665e-17 	1.07819 	-0.0255532 	-1.0515e-20
2 	3.05876 	-3.63846e-17 	1.07796 	-0.0226653 	3.44728e-20
2 	3.13057 	-3.75983e-17 	1.07765 	-0.0198387 	2.34324e-19
2 	3.20027 	2.6747e-18 	1.06926 	-0.0206031 	8.99138e-20
2 	3.3367 	7.48744e-19 	1.06905 	-0.0180591 	-6.64773e-20
2 	3.41101 	1.05154e-18 	1.06172 	-0.0185738 	5.51272e-20
2 	3.49179 	-7.06946e-19 	1.06159 	-0.0162894 	9.16985e-20
2 	3.62792 	2.36239e-18 	1.06139 	-0.0140471 	-9.32603e-20
2 	3.71316 	9.01913e-18 	1.05512 	-0.0145188 	-3.26533e-20
2 	3.83348 	9.43229e-18 	1.05497 	-0.0124981 	-9.12846e-20
2 	3.94409 	1.03342e-17 	1.05477 	-0.0105136 	1.71309e-20
2 	4.04319 	1.03342e-17 	1.04934 	-0.0110237 	-3.96505e-20
2 	4.18433 	9.30394e-18 	1.04918 	-0.00924527 	1.3548e-20
2 	4.29179 	8.68347e-18 	1.04442 	-0.00962762 	4.588e-20
2 	4.43541 	9.66904e-18 	1.04428 	-0.00800268 	-4.44146e-20
2 	4.55243 	1.32242e-17 	1.04007 	-0.00820916 	-6.45466e-21
2 	4.69874 	1.26664e-17 	1.03996 	-0.00678091 	4.61664e-20
2 	4.82676 	1.07572e-17 	1.03626 	-0.0074789 	-2.01823e-20
2 	4.96919 	1.10868e-17 	1.03619 	-0.00609189 	3.35437e-20
2 	5.11668 	1.10351e-17 	1.03608 	-0.004719 	-1.39141e-20
2 	5.38211 	8.25954e-18 	1.03166 	-0.00408611 	1.11313e-21
2 	5.90258 	8.32667e-18 	1.02652 	-0.00256069 	-5.8316e-23
2 	6.29661 	1.21422e-17 	1.02301 	-0.00252637 	-2.25019e-21
2 	6.56146 	1.62926e-17 	1.02308 	-0.0031915 	-3.78753e-21
2 	6.96205 	1.79892e-17 	1.02014 	-0.00206214 	3.2312e-22
2 	7.5012 	1.96714e-17 	1.01766 	-0.00188403 	-7.22809e-22
2 	8.04674 	2.23938e-17 	1.01559 	-0.0014278 	6.51203e-22
2 	8.59874 	1.88705e-17 	1.01389 	-0.00119645 	3.85284e-22
2 	9.15729 	1.77752e-17 	1.01242 	-0.000965389 	-6.97313e-22
