/*--------------------------------*- C++ -*----------------------------------*\
  =========                 |
  \\      /  F ield         | OpenFOAM: The Open Source CFD Toolbox
   \\    /   O peration     | Website:  https://openfoam.org
    \\  /    A nd           | Version:  7
     \\/     M anipulation  |
\*---------------------------------------------------------------------------*/
FoamFile
{
    version     2.0;
    format      ascii;
    class       volScalarField;
    location    "1.381";
    object      T;
}
// * * * * * * * * * * * * * * * * * * * * * * * * * * * * * * * * * * * * * //

dimensions      [0 2 -2 0 0 0 0];

internalField   nonuniform List<scalar> 
12359
(
-2.26844e-73
-1.3254e-60
-2.93788e-196
-8.12966e-40
-1.13161e-68
-1.01162e-26
6.58215e-22
-3.4976e-24
9.50752e-17
7.40512e-30
5.06214e-19
-1.20633e-12
0.22561
-1.0142e-36
-2.82486e-42
1.68711e-05
0.00250495
3.86088e-109
1.66062e-111
-1.75554e-50
-2.32636e-34
1.46374e-14
-1.60663e-55
2.07005e-47
-2.36647e-58
-1.6599e-52
1.89014e-143
-2.77997e-145
2.48558e-117
3.57221e-135
-1.25282e-129
-5.18462e-159
-8.30115e-175
-2.66867e-137
9.40167e-186
3.63454e-127
-6.37258e-90
-1.00666e-75
-5.20348e-71
1.33107e-81
-4.83312e-63
-3.84066e-78
-1.85522e-96
-1.77439e-98
-8.12033e-122
2.69892e-119
1.87884e-125
2.00345e-132
-5.46296e-114
4.70486e-140
6.32008e-148
-2.14246e-153
-6.36853e-162
-3.47738e-106
-9.71042e-167
6.53221e-173
3.81217e-101
2.07112e-177
-2.1965e-180
-1.18785e-183
1.04692e-169
4.26e-191
-2.64819e-151
8.37847
6.39223e-104
2.54929e-32
-9.77294e-92
6.70882e-156
-1.17869e-86
5.63514e-08
97.1936
-4.93594e-66
6.43019e-199
1.9668e-83
5.1216e-45
-2.48043e-188
5.38735e-164
4.41596e-194
6.66858e-94
-5.50674e-11
-1.70507e-26
-1.22231e-107
6.90885e-232
-8.56287e-71
0.00203512
9.91088e-63
-3.78814e-106
-1.74028e-149
1.215
0.000666554
-4.85186e-207
3.68526
-1.87299e-208
3.25192e-90
-7.05421e-74
1.02915e-40
1.55898e-94
1.10405e-90
4.40806e-46
5.31913e-58
6.05635e-22
-3.41277e-207
2.90582e-63
32.1399
-1.72695e-113
3.75568e-25
-7.18466e-197
0.00267198
1.02509e-70
4.06292e-26
1.26059e-96
-1.79926e-107
-3.10786e-30
2.90868e-25
-1.42088e-74
-1.86814e-133
2.17241e-24
-1.26962e-106
4.12671
-2.35335e-230
2.84583e-97
6.28265e-22
-1.54129e-148
9.31151e-29
-7.41743e-106
-7.37877e-125
6.03934e-16
-4.61977e-71
1.06399e-194
-1.33896e-106
-1.76043e-133
6.19817e-05
0.00153206
0.00115477
-1.08527e-197
1.30123e-29
-1.4298e-132
1.29224e-30
-3.47043e-204
9.03226e-17
-5.58429e-221
-1.02449e-69
1.46549e-32
1.64492e-197
8.52584e-17
1.03021e-26
-1.63891e-231
0.000862869
-6.6461e-113
8.87197e-26
9.69424e-38
-1.88256e-205
4.65524e-32
-9.22577e-147
2.23535e-212
118.809
1.24359e-22
6.4294e-05
4.15784e-95
-7.3495e-155
9.83927e-32
-1.70743e-153
3.23974e-28
3.01869e-31
-1.73584e-218
-3.79019e-126
2.24384e-32
1.2029e-22
5.93941e-33
1.08616
-2.81087e-191
-8.90444e-190
1.83848e-33
-2.44541e-57
-7.54657e-115
3.67631e-17
3.22457e-117
1.49401e-118
-4.78035e-30
4.83071e-18
-2.67261e-36
1.16734e-210
4.84812e-194
-6.54284e-107
3.19472e-47
2.051e-15
1.43784e-90
-3.97153e-77
2.02026e-37
4.40956e-89
-7.76436e-76
7.58694e-42
7.77455e-44
-2.67102e-146
1.94311e-25
44.3562
6.23309e-54
-3.72552e-90
3.37223e-32
-7.92814e-106
1.42682e-25
1.10336e-37
-1.41464e-58
3.90627e-26
1.59801e-19
-1.45229e-209
1.35498e-18
6.58354e-58
4.30523e-24
-1.40869e-96
6.54844e-216
1.71638e-11
2.35491e-11
156.105
5.80432e-15
-4.41493e-201
-3.04682e-90
-1.17977e-75
-2.06511e-90
-7.93576e-70
1.25419e-25
-8.07531e-98
1.84576e-29
3.32928
-9.43975e-107
1.77188e-215
-1.16153e-68
6.7689e-72
1.63718e-18
-2.349e-88
-1.19844e-87
-3.52113e-220
4.30499e-17
3.51454e-53
-3.03377e-77
2.84036e-54
-1.33342e-228
2.31863e-30
-4.88738e-76
9.73954e-05
-3.78741e-211
6.33537e-60
4.55238e-84
6.90585e-10
4.49682e-30
0.0012831
-1.87353e-181
8.54825e-25
3.10489e-120
3.96004e-44
3.60643e-16
-9.71814e-77
2.87819e-121
-6.63899e-88
1.33821
127.462
-1.07636e-228
1.22879e-100
1.39617
199.626
3.22267e-57
1.73796e-30
2.88204e-20
7.03227e-26
-1.08567e-58
60.0166
4.14849
8.08985e-29
5.19448e-102
6.65648e-30
6.7096e-33
3.77412e-47
2.35142e-32
-3.35447e-89
3.38955e-99
-1.11109e-212
1.13738e-100
9.93994
1.41007e-28
-2.18601e-181
8.30227e-206
1.47941e-25
-2.01664e-99
3.17567e-91
4.34278e-61
1.99292e-224
1.97089e-20
-2.79512e-206
-2.30511e-207
-2.21657e-160
6.57763e-29
-3.75723e-109
53.4419
-1.21586e-198
-3.16031e-196
1.71127e-62
-2.37983e-120
1.83033e-26
-6.56858e-82
2.74326e-150
-1.02837e-206
9.09331
1.81539e-19
-8.77144e-208
-1.39066e-89
6.56048e-81
-1.81699e-118
-6.56827e-132
-1.46808e-134
-8.58578e-117
-6.26701e-108
-9.22801e-16
-9.63356e-119
-1.14311e-129
-1.60368e-75
5.30238e-31
2.05247
-1.02553e-116
1.52837e-49
7.97607e-06
7.55801e-206
1.75809e-39
1.12083e-180
3.02162e-53
-6.25027e-196
-2.16164e-115
1.54301e-15
1.1445e-36
5.00669e-16
1.78939e-92
-2.54914e-84
1.04641e-43
2.37149e-39
-5.76733e-83
6.83576e-44
3.65926e-44
-5.91414e-165
-2.0198e-162
-1.18456e-162
-3.23901e-162
-1.14378e-161
0.000390207
7.35734e-225
1.51352e-24
4.72297e-29
2.66929e-49
1.19549e-30
3.47845e-36
6.2469e-63
4.01869e-55
3.77295e-36
7.97206e-56
1.86136e-49
1.17652e-28
4.96561e-28
1.46245e-29
-1.01413e-68
3.5651e-14
-5.36187e-71
-6.47415e-72
1.02091e-32
1.12624e-19
-4.35363e-110
1.68033e-165
1.72495e-53
5.95627e-167
-1.24375e-107
173.068
23.7458
-3.09248e-108
1.77576e-202
-4.766e-200
-5.71661e-210
1.29193e-36
9.1872e-212
3.97265e-211
1.49925
1.48784e-31
0.000507105
5.58707e-112
6.56879e-27
-7.60055e-101
9.09351e-83
3.12935e-25
4.07656e-54
-1.29704e-37
2.48405e-55
-1.32696e-110
-6.3298e-181
8.50617e-32
9.72023e-27
2.70712e-108
3.49259e-11
2.01176e-25
1.87762e-40
1.75348e-39
1.43027e-33
7.6772e-201
9.50463
2.08602e-13
2.138e-110
2.27768e-10
-3.4794e-73
-1.69697e-219
-3.68132e-220
-1.9401e-211
0.000944968
1.56639e-20
6.66676e-48
5.16739e-40
3.54546e-38
-1.21138e-72
-7.45583e-37
1.10815e-40
2.97556e-08
2.00813
1.35085e-10
7.52397e-49
1.64994e-30
2.12929e-69
2.22805e-26
6.93279e-59
2.90654e-52
1.98464e-137
3.86448e-60
2.56067e-34
-3.9279e-210
189.602
-4.47953e-89
2.32408
2.71415e-27
-1.50624e-98
1.68633e-28
1.0729
1.44037e-34
4.32149e-54
1.8916e-40
2.42679e-26
1.32151e-25
-1.12827e-103
-2.75482e-215
3.9749e-23
-7.24221e-194
2.61163e-05
-1.94398e-132
-4.42758e-52
1.12738e-33
9.05918e-84
0.0110729
8.72771e-24
-1.67193e-60
1.49176e-104
7.07832e-05
-9.02118e-170
5.49011e-116
2.65556e-14
3.9032e-201
1.82507e-104
-5.80093e-116
1.2957e-07
18.2424
-5.79815e-72
-4.56197e-154
-1.3006e-31
2.23847e-34
1.58754e-39
6.28652e-31
1.16386e-32
-7.79105e-164
-2.16886e-211
8.96779e-38
-1.47202e-205
1.11244e-34
4.85383e-40
8.5325e-27
5.09154e-120
3.81329e-24
7.42577e-13
1.55866e-136
4.57073e-72
1.62623e-106
-2.68582e-28
4.89331e-14
-1.6799e-204
1.52281e-36
1.2006e-33
1.01207e-71
1.88478e-35
-5.59263e-131
1.01939e-20
1.4272e-54
1.95652e-28
4.45954e-27
-2.12162e-162
-4.49619e-73
1.28277e-09
0.00492275
-6.99336e-207
1.17067e-51
5.32595e-10
1.50551e-35
0.796306
-2.14108e-211
-6.67612e-134
-3.23083e-168
7.6932e-31
5.45339e-57
3.00089e-67
-1.26211e-129
1.69221e-38
1.48041e-50
-2.04102e-57
2.23072e-91
0.000348772
-1.1513e-190
0.000792106
-4.56902e-151
150.654
1.43251e-53
2.57734e-10
1.26621e-180
4.12647e-121
5.10118e-30
-2.19834e-108
1.26711e-151
1.56329e-96
2.27696e-55
1.16637e-55
6.16291e-12
3.01873e-22
2.7657e-22
-1.57095e-232
-3.97436e-108
2.4701e-38
0.00695804
2.87636e-233
4.35281e-186
4.38002e-33
-4.09571e-166
4.26061e-16
1.2887
114.467
6.05359e-232
-1.96975e-71
2.16127e-15
-1.25716e-65
-2.13686e-115
87.1454
8.37456e-188
3.53406e-23
1.33931e-32
1.68536e-72
-1.28623e-117
8.3571e-149
4.13862e-85
2.19481e-29
4.49281e-56
4.22341e-71
2.14384e-229
-6.30765e-193
2.12014e-59
-1.8578e-115
1.11526e-26
6.17967e-31
-4.10055e-159
-6.07939e-183
3.76819e-28
180.978
-4.62237e-131
1.87566e-08
-1.50489e-200
2.17967e-70
2.73233e-23
8.43585e-35
8.82056e-17
1.41683e-27
1.20007e-56
1.72466e-26
-1.67138e-216
7.73719e-188
6.78297e-38
4.23833e-63
-2.35861e-57
1.83765e-64
2.15487e-211
-6.47766e-182
-1.73755e-124
1.93639e-44
3.56137e-23
-3.78423e-32
-1.75279e-88
-1.45581e-30
6.40257e-33
7.02079e-53
-1.22436e-29
5.10219e-53
2.98479
3.13576e-31
1.43833e-51
9.26648e-28
-2.26554e-186
2.32023e-22
1.15393e-29
8.83987e-233
3.05023e-202
-2.04554e-165
6.86961e-176
6.9312e-07
2.40194e-52
1.88041e-77
-1.98871e-31
6.48967e-95
2.00929e-15
4.00856e-36
3.55068e-29
-1.27684e-123
2.10253e-10
-2.17492e-211
-3.25133e-45
5.54485e-105
1.11374e-18
-4.77154e-29
1.00801e-60
9.27313e-52
8.98493
8.59383e-34
2.9466e-13
1.10146e-59
2.12935e-11
0.611582
-3.06196e-157
-2.07114e-110
5.98729e-213
3.3624e-08
-1.0381e-110
5.55592e-56
0.00918184
2.86028e-186
-3.98576e-57
1.70359e-30
7.93252e-57
-3.00469e-128
1.01709e-61
-3.31813e-154
-5.89821e-62
-4.86741e-157
-3.61314e-153
-1.26035e-66
6.04492e-29
4.31269e-32
1.36415e-55
3.69754e-08
1.71227e-35
15.6141
1.48699e-33
1.69319e-61
-4.30731e-64
4.33961e-35
3.98875e-48
5.21707e-42
0.562176
-3.4815e-34
2.43519e-50
5.4576e-48
-1.12534e-106
-1.09584e-116
1.44416e-28
-7.548e-214
29.4395
-1.48511e-161
-2.68945e-33
1.34613e-21
5.36206e-07
7.74883e-18
9.541e-27
1.40996e-31
1.91414e-60
4.42332e-18
4.32691e-40
3.85804e-13
1.83681e-47
4.37062e-13
1.45072e-48
4.04041e-225
7.51504e-50
179.103
5.43069e-13
-4.50807e-85
-2.71016e-217
-8.34705e-157
3.75828e-80
-5.22587e-52
1.10335e-32
1.45928e-50
-8.228e-165
-8.05953e-84
1.1782e-47
-3.87942e-87
1.00897e-91
3.25589e-12
-1.74708e-98
2.64175e-41
1.53915e-23
7.31284e-85
-3.80711e-77
3.11169e-27
-4.21209e-234
-2.10432e-82
51.9437
-5.37698e-184
7.95737e-16
3.32116e-22
5.27255e-79
1.351e-31
1.02305e-23
1.70276e-49
4.15144e-25
1.44376e-111
-1.14083e-31
-2.15911e-115
2.49544e-45
9.01658e-26
-1.66696e-30
1.67454e-111
5.25036e-26
9.11382e-06
2.14694e-42
2.63e-61
-1.98826e-104
8.06834e-22
7.50268e-07
-2.8137e-109
3.68354e-202
1.33814e-49
-8.16286e-209
0.730414
5.26729e-48
4.29989e-12
4.69736e-59
1.10322e-51
14.6328
8.37195e-58
0.00185916
9.07608e-34
109.99
8.36206e-38
3.12975e-71
4.71474e-59
5.8832e-73
0.00483273
0.000466741
-1.32455e-154
-2.03005e-152
-1.5641e-28
1.02098e-143
0.00376581
1.21239e-26
4.79827e-10
-1.86045e-104
125.269
0.099729
1.89819e-47
1.11342e-224
1.42755e-115
-2.90554e-36
1.19e-78
3.11803e-87
1.32454e-75
6.69207e-34
3.36206e-41
61.1158
3.29866e-07
-2.97757e-166
9.04955e-36
1.86361e-23
-1.48544e-27
1.04284e-64
3.31754e-22
9.7401e-28
-2.62702e-35
-7.25921e-126
-7.93061e-222
1.41652e-19
1.07517e-16
2.72255e-52
-2.13342e-29
7.1775e-13
1.22885e-62
1.97903e-50
1.22064e-103
3.63588e-69
2.14856e-14
1.06931e-67
9.66752e-24
1.11999e-37
7.12432e-43
8.7498e-84
3.77786e-71
3.53549e-06
7.87784e-61
8.94794e-65
64.6931
2.27679e-45
3.08772e-64
0.0102268
3.89349e-228
1.41782e-59
5.14978e-55
-1.11132e-78
-3.57448e-127
1.05356e-51
8.22154e-235
1.69543e-09
-3.54388e-110
-3.47023e-56
2.35782e-20
1.79118e-31
1.91184e-55
8.00259e-58
1.52442e-20
96.2467
-5.64996e-185
-2.95923e-97
3.98339e-63
0.00868864
6.93308e-17
6.34492e-113
3.73272
-2.83973e-221
-2.19515e-111
188.67
-2.50925e-86
3.68558e-110
1.6972e-107
8.19473e-39
-2.15984e-38
-1.95646e-182
-2.96271e-80
3.15177e-24
2.49604e-55
3.88533e-59
2.77968e-76
-2.59243e-156
-2.29792e-37
3.2274e-06
-7.58276e-63
-1.90096e-30
2.33349e-34
3.0703e-43
2.59023e-10
3.33383e-24
3.78834e-75
-4.81582e-110
0.000570121
2.62257e-28
1.5575e-44
5.46389e-103
1.25815e-174
4.33951e-35
1.39836e-10
1.13916e-62
1.26471e-27
2.15492e-61
1.252e-74
-1.19983e-92
4.50918e-38
151.692
18.732
7.77898e-37
4.36317e-60
-3.67913e-94
5.45794e-39
0.0122996
-8.37879e-33
3.49226e-114
5.0804e-11
1.04781e-07
9.4408
7.97528e-77
94.1842
1.79035e-181
2.43107e-73
-5.33772e-176
9.0518e-11
1.94985e-43
87.3423
-1.90779e-115
0.0216525
6.25493e-143
-2.79734e-61
1.97369e-26
3.24281e-80
9.61091e-12
0.17115
-6.67698e-85
5.16653e-83
1.01911e-58
9.99233e-78
-3.44392e-86
1.41904e-13
1.06763e-45
2.6512e-57
2.8566e-15
-2.61028e-86
-8.4612e-170
4.29594e-64
-2.63783e-155
3.09997e-26
3.36834e-58
5.65037e-09
9.15238e-11
-1.49379e-40
3.87368e-31
1.53417e-34
4.56842e-60
0.0144115
1.29864e-64
-4.10346e-90
1.65009e-211
7.01287e-11
-5.95261e-34
-1.41038e-116
3.94095e-25
-1.6844e-76
2.59215e-31
-3.85179e-36
-9.62659e-32
1.40835e-35
88.5993
3.65241e-34
-1.63336e-39
0.184516
5.13255e-80
2.82353e-07
1.10897e-22
1.05446e-147
2.58241e-63
2.58793e-90
1.97045e-63
-6.44142e-218
-4.65791e-106
3.80492e-07
5.84309e-11
-1.10014e-106
210.462
2.69159e-28
6.5707e-155
1.10373e-11
5.02377e-12
-3.85202e-156
1.39978e-10
3.45563e-21
5.20776e-11
-8.28346e-153
9.24264e-120
4.43368e-93
-1.21412e-155
-7.6015e-36
32.3915
-5.2661e-119
8.27416e-12
-3.7175e-231
2.80628
1.96425e-25
4.65734e-32
-3.74922e-189
-1.79701e-120
1.98803e-72
5.36274e-37
5.30662e-15
5.55124e-32
-5.36804e-88
3.03495e-83
-9.11817e-152
1.46858e-26
6.64787e-37
5.35017e-90
4.19132e-201
6.50972e-50
3.49022e-32
2.64006e-42
-6.55231e-124
1.02907e-06
1.2456e-27
4.20761e-144
1.0061e-41
5.24022e-83
4.56201e-66
198.576
-1.33428e-87
-3.13133e-152
2.07077e-33
-5.37332e-35
-9.37628e-43
3.04609
-3.34257e-58
1.11711e-66
6.08071e-31
-8.44198e-79
5.28509e-74
2.3174e-65
-3.42806e-78
-8.24142e-29
-1.89799e-70
15.7781
-1.12825e-41
7.05496e-10
2.17251e-72
0.0288832
2.10439e-30
1.42912e-08
2.61664e-13
1.44534e-28
1.34196e-64
1.5737e-70
1.38829e-52
5.29582e-230
1.45667e-68
1.07301e-34
2.89744e-11
-4.94017e-79
2.26423e-146
3.71226e-30
3.34789e-32
8.72436e-16
6.50497e-38
3.58866e-11
1.2867e-15
1.0429e-101
5.1501e-48
1.0013
8.07939e-36
-1.84972e-220
1.07789e-77
5.92291e-82
-1.94386e-223
3.80482e-49
1.8392e-182
2.99429e-67
1.97677e-14
1.53882e-32
4.23639e-06
-1.44267e-177
-3.82063e-121
-1.13959e-207
-4.09848e-80
-3.08172e-95
1.2723e-08
-4.00159e-95
1.36129e-121
6.95385e-07
3.99849e-33
3.82223e-39
2.22513e-50
5.87618e-17
4.42621e-85
5.95199e-12
3.32753e-71
-5.10848e-172
0.00252331
4.67884e-36
5.58333e-20
5.7251e-91
56.4162
-2.36748e-38
8.5605e-42
6.02692e-28
1.16525e-28
59.0855
6.97029e-69
1.79528e-11
-1.37153e-46
4.55065e-43
-7.05561e-135
2.74198e-57
1.91525e-07
1.02617e-72
1.01119e-08
-4.36949e-85
-7.43241e-89
1.31228e-12
-2.70356e-135
-2.38559e-114
1.46954e-67
8.3223e-35
5.64627e-11
-3.26275e-86
1.96629e-81
-1.28303e-203
1.23019e-45
0.00293837
1.80829e-38
-3.44761e-81
8.19381e-58
1.33269e-85
4.0728e-117
14.3716
-5.62297e-45
1.97531e-206
7.90444e-47
4.73497e-87
-3.33462e-37
-2.41647e-27
1.0435e-35
-2.88446e-80
4.00853e-14
7.42652e-11
5.54129e-194
5.62935e-55
3.09014e-11
-4.4546e-117
-6.32983e-177
-3.1087e-60
1.30856e-45
2.55583e-74
-2.13552e-175
5.7771e-47
3.21335e-12
1.84943e-156
3.18244e-22
-5.60461e-184
1.8964e-89
7.66359e-53
5.35784e-05
-4.02361e-211
2.09683
-6.90919e-44
1.16216e-20
43.6407
-1.3637e-40
1.43063e-51
0.0371798
-6.09955e-80
1.79127e-05
3.00162e-18
5.03213e-60
9.98246e-70
4.74223e-71
-1.03202e-90
-5.50364e-94
1.94679e-19
0.0332097
199.61
1.29102e-22
-6.49241e-28
0.0690695
9.08353e-25
17.7155
-7.44997e-132
-1.33992e-89
2.44291e-18
4.01201e-39
9.06969e-108
2.00266e-22
3.84422e-71
56.5422
3.16312e-220
6.37757e-124
-1.38888e-125
209.47
-4.86251e-35
8.55556e-43
-9.33523e-72
1.08391e-18
1.57179e-73
-3.15531e-122
4.67014e-07
8.37002e-70
4.46171e-07
1.32505e-19
1.96073e-59
8.7672e-14
1.63922e-37
-1.63619e-88
4.80286e-118
1.07927e-115
0.236265
3.90338e-13
2.99482e-93
1.89011e-17
4.84515e-39
1.63148e-23
-1.62916e-210
9.69292e-42
2.87788e-07
2.56492e-08
-1.92599e-39
3.05965e-63
-9.26825e-120
9.5308e-15
-8.98485e-77
3.77367e-123
6.58291e-10
4.57081e-16
-5.24007e-99
6.77497e-29
9.579e-34
-2.73183e-208
7.47533e-109
-5.5651e-174
-7.13624e-39
91.29
3.16479e-11
1.61702e-18
-5.09115e-103
5.23045e-76
1.87303e-35
-3.79739e-207
4.03503e-09
4.41241e-38
106.745
-1.05698e-26
8.751e-64
1.63286e-99
-6.20787e-132
2.54115e-69
-9.271e-78
5.17228e-106
14.7645
1.68803e-14
7.32701e-34
1.7837e-16
-3.96139e-41
-4.76673e-116
-7.64045e-231
3.36263e-106
3.34573e-25
1.0632
-1.87109e-21
3.51687e-41
-4.10455e-46
-3.65363e-71
5.82176e-15
0.0427409
0.0266245
1.45073e-78
-6.93463e-65
1.31602e-26
-5.63822e-87
-4.75002e-167
-3.68121e-107
2.38653e-13
-2.0157e-96
2.45407e-53
-6.51827e-85
3.81814e-39
5.38087e-08
-1.40164e-89
-5.23997e-107
4.88751e-10
1.20591e-13
8.57507e-90
-6.8188e-133
-3.13242e-47
0.00420437
1.43399e-24
1.91512e-21
-1.63265e-49
6.82846e-50
0.0914363
1.25643e-74
-1.55728e-21
1.465e-116
2.26816e-12
2.45847e-11
-1.0965e-154
-2.9119e-128
86.6037
3.79757e-109
9.59459e-69
3.84942e-26
-1.43021e-99
-1.13958e-97
-4.83552e-86
1.57022e-110
-3.82078e-207
2.25467e-14
2.13819e-05
-2.23156e-128
0.0180031
1.85081e-73
-4.80757e-111
2.0423e-12
5.37374e-09
1.07213e-25
1.90109e-77
-4.7773e-106
-7.35724e-43
153.397
-2.79392e-96
-5.7698e-129
4.26121e-138
2.58494e-96
2.68367e-56
1.36373e-26
-6.1175e-99
-2.98689e-74
1.29098e-118
7.78111
1.17787e-08
4.30327e-34
-1.20831e-37
4.10372e-72
-4.31197e-111
1.34205e-14
1.49997
1.33399e-68
-2.36582e-135
-1.80044e-112
2.26865e-13
-4.57038e-99
9.46511e-118
1.15365e-07
2.35284e-77
-2.1522e-106
115.342
4.81283e-05
19.7075
3.85783e-14
-1.31693e-98
8.24904e-11
2.66875e-10
0.193841
4.34158e-88
2.57246e-25
-6.03229e-209
0.122318
1.3595e-224
2.37995e-89
6.20798e-72
4.97998e-135
2.19878e-37
1.11527e-88
-3.16086e-97
2.42003e-89
8.22249
6.22071e-14
2.55898e-32
-6.92919e-106
1.20624e-27
24.6064
1.52439e-08
1.90349e-41
-2.18011e-48
8.5367e-90
-7.78203e-79
-1.33521e-128
-3.24692e-100
-5.67277e-127
-2.51356e-108
-1.07698e-41
1.25102e-14
9.67562e-16
0.353672
0.000123687
1.98462e-08
3.90644e-23
0.130573
3.02833e-119
5.06653e-05
-9.59966e-113
0.00181834
8.00173e-09
1.16036e-32
1.13459e-97
2.24251e-32
4.00125e-21
3.28419e-57
110.994
2.39754e-12
0.416689
-1.06631e-109
1.66487e-09
3.94227e-07
1.33989e-09
1.88749e-07
1.48421e-10
-6.78074e-106
-8.96685e-90
3.3995e-34
-9.34512e-102
3.59512e-27
3.2896e-92
9.98948e-36
-3.35444e-156
-1.13312e-83
1.49565e-18
7.16968e-25
-4.76233e-125
-3.70932e-45
1.10607
87.2489
-4.7408e-136
-9.39407e-48
1.14398e-65
1.49566e-10
7.99449e-28
5.10873
5.49684e-05
3.83584e-90
6.23436e-36
2.99289e-07
-1.09721e-23
6.92648e-06
1.57156e-51
1.27213e-11
-3.47675e-124
0.225191
4.10695e-08
-2.29955e-131
1.76467e-07
0.233166
7.90637e-44
4.80363
8.63998e-76
9.95685e-09
5.78166e-73
-1.86772e-139
5.5147e-69
3.16363e-72
0.0988143
0.0024775
0.0478159
-8.87115e-124
8.16812
2.01436e-33
1.86879e-12
-1.28491e-30
1.68566e-37
5.04414e-45
0.0238019
1.99942e-74
4.91492e-83
1.97348e-17
5.1874e-09
1.36778e-26
3.48061e-17
-3.51803e-54
0.0561302
1.75079e-28
2.93522e-27
2.92331e-09
2.97132e-164
1.01259e-07
4.98777e-09
5.81606e-08
1.26102e-70
0.00121738
-2.03564e-130
9.88532e-28
3.93449e-35
0.000122033
2.66832e-67
2.06312e-18
2.08046e-08
90.0325
-6.72699e-100
2.44528e-29
-1.8541e-45
2.74146e-07
3.29648e-17
2.01266e-88
6.86001e-35
-5.37306e-133
12.1792
6.49982e-210
-4.44301e-132
-1.74426e-172
1.57123e-06
4.55862e-105
5.47257e-35
11.5228
9.04729e-47
3.84512e-55
-2.72243e-100
-5.89252e-165
1.35735e-09
-8.32338e-133
-6.18497e-40
7.45747e-12
-5.47028e-44
3.56334e-06
4.39864e-83
1.03097e-33
1.98891e-07
1.59168e-17
2.21931e-62
97.6558
9.11331e-213
-1.67723e-160
-2.15e-79
232.731
1.43797e-71
4.19954e-63
1.03965e-07
-6.53397e-98
1.02908e-81
9.19525e-13
1.22601e-05
3.24062e-29
0.0111864
-4.4158e-98
1.03924e-78
5.16983e-36
3.25564e-41
0.000134925
-3.98368e-114
3.94769e-59
-7.95042e-52
3.47302e-17
5.82507e-54
-4.15421e-126
6.66343e-37
-1.1358e-18
6.20132e-191
1.65465e-183
5.51647e-05
7.89258e-29
0.000103834
4.92136e-80
5.88641e-220
-1.67354e-17
2.02712e-06
-1.18462e-115
-5.94601e-95
-2.20069e-130
17.1748
7.20612e-191
3.07657e-30
9.93813e-05
9.29642e-182
-1.72659e-163
1.18424e-17
-4.93895e-142
4.46328e-184
1.43959e-34
5.56013e-13
6.36614e-127
1.11592e-20
-2.86074e-137
1.39584e-07
9.12215e-222
1.59998e-07
7.57059e-13
1.18719e-18
7.08314e-180
2.62808e-14
5.48283
4.15965e-88
2.22115e-46
5.98232e-143
2.91909e-13
-1.12801e-135
1.19794e-06
5.57646e-09
4.29921e-76
-5.60285e-171
2.18266e-13
1.20638e-13
7.74368e-40
3.58814e-37
4.23591e-16
-1.15924e-140
9.11623e-15
-1.64434e-172
2.18531e-05
1.74152e-08
3.36439e-08
3.74923e-18
-1.36178e-22
13.4791
5.82551e-18
7.28487e-36
2.88226e-14
-6.75357e-93
2.49685e-11
5.20023e-16
-3.92415e-42
1.29694e-68
0.113394
2.30482e-185
0.0546641
108.91
6.8517e-101
4.89694e-08
108.781
3.34606e-33
1.87516e-33
1.51324e-15
-1.12195e-50
-8.15865e-131
9.78029e-08
0.015857
0.827914
-2.17923e-91
3.5205e-13
0.000562854
5.18418e-14
-1.6497e-107
-1.24363e-157
3.38106e-26
0.0266208
1.01675e-08
5.49174e-16
-9.06216e-213
-3.81962e-138
3.25736e-14
-1.44921e-97
1.3732e-38
-1.1294e-93
-5.2395e-168
3.36305e-07
1.261e-74
0.00025613
2.9735e-39
-1.96177e-150
-1.39061e-157
7.4504e-15
-1.36281e-92
1.92178e-32
9.99089e-16
1.02988
-1.75337e-47
9.12125e-125
3.21047e-06
-9.21821e-91
-5.6131e-134
1.866e-58
1.59315e-13
-9.21488e-87
1.11637e-13
3.09835e-40
223.088
2.18505e-14
1.73204e-117
0.000124268
-2.32683e-171
7.98279e-09
7.88073e-34
9.28734e-06
0.00575685
-2.72666e-43
0.000195297
-5.81499e-149
1.76174e-08
-7.3819e-113
-7.4541e-50
4.69038e-05
1.22103e-25
1.71855e-05
0.0200163
-1.83908e-19
1.99289e-07
2.85291e-06
5.69099e-122
-5.67113e-136
-5.5419e-170
0.00025034
-2.58801e-24
1.83566e-120
2.41542e-07
2.67143e-05
1.01557e-32
2.64823e-12
2.31469e-47
-8.02751e-33
0.00395546
1.78535e-66
5.38928e-26
1.09407e-30
-3.35693e-208
-4.72068e-208
-2.10581e-122
-2.61284e-91
8.69936e-38
-9.78932e-152
6.08128e-78
-1.58174e-100
-5.00531e-59
1.99953e-14
8.20802e-107
1.85215e-06
3.17091e-223
3.54713e-11
4.82672e-06
-7.05339e-117
6.06911e-05
6.17237e-12
8.89065e-06
2.93431e-53
2.41704e-16
-1.73643e-99
4.16807e-34
6.49879e-43
-4.86089e-159
2.44608e-115
2.84267e-84
-1.68582e-115
-4.46595e-177
-1.33868e-51
-1.22748e-178
-5.9809e-30
1.63996e-21
0.0742524
-3.59414e-153
5.64666e-58
-2.85861e-150
1.83139e-96
4.30318e-21
4.7717e-60
1.74574e-118
118.593
3.54608e-14
3.99692e-29
1.54762e-56
9.03703e-15
4.87717e-23
9.52596e-55
4.66895e-17
3.16334e-13
-7.42608e-100
-4.70459e-174
-1.42448e-76
2.75247e-07
1.42029e-135
-1.04334e-122
1.38199e-13
-1.31163e-101
-1.06064e-97
1.23076e-64
1.81713e-125
0.00140979
-1.09471e-151
-4.08258e-124
1.99304e-18
2.23355e-17
7.26324
4.49721e-13
-2.38499e-54
-3.04731e-118
6.55768e-16
-1.23206e-119
3.78862e-25
6.5801e-39
-8.82376e-102
7.3136e-06
-1.63721e-189
8.63218e-21
-7.60165e-51
1.38977e-14
2.35698e-41
-4.49762e-181
-7.71647e-102
-7.54424e-222
1.44708e-23
-4.88706e-137
1.69454e-18
9.34031e-39
1.80608e-81
-5.20812e-53
3.61613e-35
-1.17107e-175
2.218e-20
2.07965e-20
-2.41737e-92
2.17406e-18
1.66606e-07
-1.78806e-166
2.18308e-35
2.6436e-11
1.74687e-12
6.89612e-70
1.82844e-38
2.67416e-37
8.7235e-41
1.82455e-67
9.91191e-15
2.98082e-67
4.14377e-117
1.46925e-118
0.0888465
2.87306e-08
0.000115313
1.75187e-06
-6.5373e-34
6.40559e-20
5.24734e-39
4.92579e-18
-4.71967e-118
4.03006
-1.35074e-96
3.29607e-06
1.83181e-06
-5.20046e-121
-7.66483e-25
1.36675e-08
1.00533e-05
2.68863e-37
5.34007e-25
-1.93494e-119
1.41074e-192
1.08575e-14
-4.0855e-174
-9.87067e-155
6.14336e-17
1.04028e-97
-1.90852e-61
3.11987e-123
8.00008e-77
1.20655e-14
10.7213
-2.41745e-90
-4.28248e-99
2.79577e-08
-1.25699e-36
6.76296e-11
1.74684e-23
3.48036e-25
6.47507e-99
2.49036e-35
5.95236e-15
1.24391e-16
-2.14785e-29
-7.54432e-149
2.21528e-05
3.6411e-29
7.36282e-19
6.93032e-77
1.48636e-122
2.64832e-16
-2.1145e-88
-2.17535e-168
9.25878e-22
2.18639e-08
-3.56233e-153
5.21664e-20
8.71131e-42
1.2314e-105
-1.09807e-69
-7.78297e-105
9.22301e-22
6.88703e-117
5.11521e-124
1.03044e-37
3.825e-22
-2.56156e-38
-4.06468e-29
9.94106
-2.69445e-101
2.73581e-58
0.515477
1.04111e-30
-4.23833e-106
3.21504e-30
0.0202859
-4.89188e-159
-2.461e-100
-1.80479e-169
1.48269e-24
2.36938e-14
5.13334e-41
-4.44162e-180
-5.19213e-73
1.07579e-57
5.04019e-84
2.32242e-09
-1.78666e-93
-4.47463e-178
-1.28045e-175
1.92674e-26
7.7613e-38
1.7665e-05
-6.37583e-76
-2.6534e-46
5.3297e-25
4.30877e-14
2.61309e-135
2.03896e-23
-5.37044e-162
-1.0668e-154
-1.26093e-180
1.12368e-09
-6.05484e-101
4.37994e-23
7.76588e-20
6.55192e-25
3.39084e-15
5.45609e-26
2.57349e-13
3.51881e-25
-2.49732e-93
1.11432e-25
-2.62305e-46
3.18116e-32
6.5741e-21
-3.11685e-99
43.8402
1.05721e-16
8.66394e-19
-2.46519e-151
1.63068
1.00679e-14
2.23454e-16
-2.85247e-30
1.16732e-05
3.49748e-59
-1.3007e-97
3.37891e-78
2.6111e-80
1.39477e-75
1.52939e-17
2.80739e-21
-2.51599e-106
1.65123e-23
1.587e-85
1.91069e-75
3.01334e-46
-2.6454e-44
3.92296e-62
-7.39306e-53
-8.83985e-43
4.48451e-21
3.7979e-25
1.85701e-43
3.00048e-179
5.72748e-86
2.10622e-92
9.79799e-11
-3.09882e-134
-1.26447e-103
5.07892e-24
2.07087
3.34831e-116
2.93717e-05
6.90267e-120
-6.14874e-89
1.21048e-34
1.93218e-27
9.57792e-32
-2.25477e-131
1.64979e-17
1.75653e-20
2.40968e-11
-3.27746e-153
5.473e-22
2.02473e-38
1.25803e-45
-3.70481e-179
-2.066e-212
1.70863e-26
1.13254e-37
5.24526e-54
57.8503
3.33789e-22
1.16398e-30
-1.40748e-24
2.68313e-38
4.44816e-11
-2.92793e-101
1.5516e-41
1.24561e-66
4.61952e-80
0.0137588
2.21702e-20
7.74767e-21
2.83511e-33
2.22761e-128
1.90523e-16
5.98664e-16
0.000794143
3.92949e-76
1.23718e-30
0.000299108
9.74637e-05
1.95408e-121
0.000132717
3.61341e-45
25.1809
-1.7174e-166
1.45885e-23
9.27506e-34
5.72165e-187
8.91104e-14
8.31566e-58
7.616e-73
1.55016e-07
0.0019533
0.000197264
2.47524e-72
2.69896e-25
-7.51155e-166
1.16119e-91
5.63098e-06
1.41225e-29
4.0194e-68
5.19106e-17
9.66643e-22
2.93113e-26
4.20665e-36
2.97278e-34
5.28774e-20
0.00431995
-2.12608e-126
8.0023e-36
5.02422e-41
4.56359e-27
2.39657e-07
5.35028e-22
1.19392e-30
3.25463e-57
-1.73703e-169
1.00788e-25
2.69272e-29
1.2594e-19
1.12326e-131
1.99976e-51
3.40296e-21
4.86748e-23
-1.04597e-23
4.08298e-19
6.27908e-64
6.70239e-28
-3.04283e-102
4.48795e-13
1.68474e-47
4.19128e-25
1.17328e-59
3.46465e-71
1.91991e-21
4.90633e-52
2.49262e-59
2.44054e-71
-2.02455e-129
4.14178e-25
9.30956e-48
7.3878e-49
29.6415
0.0123968
-3.89368e-101
2.09507e-69
3.49321e-34
3.9758e-37
-1.18904e-179
2.51985e-29
-5.47139e-35
2.37505e-29
-5.13744e-167
2.06291e-13
2.54115e-17
1.37692e-15
4.37861e-29
-2.4591e-152
-3.14419e-87
3.03921e-55
1.35979e-27
8.28807e-09
17.0269
-3.6808e-124
1.53586e-63
6.38587e-64
7.4732e-07
0.000653086
0.000461827
1.04665e-48
3.93659e-20
-1.70878e-165
1.78239e-35
-1.21611e-49
-8.65024e-123
1.41218e-21
6.65222e-36
1.86196e-32
6.20202e-19
-7.50351e-67
1.91613e-37
3.58272e-30
-3.26139e-154
-4.50815e-232
4.20936e-40
-1.58266e-61
2.56956e-08
1.26643e-41
-4.1945e-23
2.81835e-13
-1.99404e-39
-1.96897e-124
-1.60486e-55
7.88837e-18
1.52557e-128
0.389771
0.0897153
-2.29788e-104
-5.63432e-162
1.38451e-91
-1.44307e-126
-2.6507e-187
-2.96199e-57
5.84548e-59
-1.87564e-31
1.45524e-35
3.81258e-29
-1.66823e-46
4.95906e-05
1.46745e-17
4.44604e-31
3.90764e-35
1.15725e-45
1.3794e-33
-2.2706e-153
-2.86358e-69
1.03829e-59
-3.98211e-31
-1.12502e-25
1.90374e-09
-7.16338e-191
-2.02428e-26
8.01704e-35
1.34639e-44
3.14994e-22
8.058e-39
4.20258e-24
0.00569684
9.58822e-35
5.37797e-18
1.94152e-44
1.4092e-77
6.51612e-38
1.22722e-33
4.52705e-129
2.50304e-37
0.0389316
-2.14719e-72
0.000297764
2.44332e-122
4.19638e-33
-3.71396e-83
4.46824e-65
1.69396e-29
-1.42201e-20
4.07706e-21
1.20299e-63
4.28365e-39
4.842e-45
1.05876e-17
1.81395e-10
-6.73551e-44
5.20835e-08
-3.6354e-187
2.35761e-36
8.07925
2.22671e-14
1.7719e-63
0.504715
1.2158e-18
1.36924e-60
-2.39661e-141
1.20517e-10
5.15707e-34
3.38095e-46
1.50923e-34
-1.76291e-146
8.28278e-19
3.11236e-71
1.40805e-13
3.78402e-35
3.4991e-30
-6.96261e-30
1.28837e-226
-3.33974e-94
5.49337e-39
2.545e-76
1.02375e-78
5.34218e-54
6.41327e-71
3.73929e-56
-2.55825e-24
2.39323e-27
-2.14412e-175
5.62702e-15
2.03013e-92
-4.60747e-153
-4.32211e-27
3.2883e-117
2.81311e-44
1.73844e-45
5.45345e-131
7.80856e-127
1.38375e-77
7.41875e-22
8.17836e-59
1.06639e-31
1.65844e-33
-3.98157e-26
1.64889e-24
9.51065e-47
4.61612e-40
3.00581e-37
-6.32232e-201
4.98202e-52
5.61523e-68
6.52267e-47
0.38805
3.52628e-24
-2.33524e-66
2.23754e-39
-1.17425e-59
1.12023e-59
3.23579e-65
6.26628e-60
2.53371e-59
-9.85244e-32
2.5725e-35
-1.78875e-154
5.30055e-23
-1.15448e-47
2.66612e-21
-9.68217e-144
-9.93477e-28
5.798e-05
-1.48509e-89
-7.17919e-39
8.57212e-17
-4.9507e-109
6.10766e-26
4.05863e-13
1.65967e-36
2.682e-36
6.52188e-14
6.67521e-40
-1.17531e-48
2.21762e-39
1.52682e-23
-1.28056e-113
6.59563e-65
-6.26514e-194
6.21665e-93
-2.72536e-143
3.0171e-36
5.62056e-35
4.16973e-25
-1.40337e-40
17.7823
-2.52154e-20
39.4886
5.28258e-34
5.95431e-10
14.0427
6.0396e-16
24.9376
2.73576e-63
6.25855e-39
9.12853e-43
2.1569e-48
2.20896e-43
-1.31446e-91
2.12552e-43
-5.15734e-85
-3.59558e-145
-7.61937e-50
5.4091
5.79212e-38
3.14643e-20
7.09272e-41
1.03151e-78
1.42325e-35
1.15586e-34
1.94363e-106
2.07699e-40
8.73704e-73
4.35537e-24
-4.06907e-39
2.26024e-40
-4.07725e-41
0.904763
1.08524e-06
2.40038e-19
7.86435e-46
91.2773
1.87005e-39
3.25652e-51
1.20512e-27
-6.75225e-29
-3.07378e-56
4.07378e-16
-6.49093e-127
-4.22939e-36
-4.03796e-27
1.47279e-41
-1.59134e-42
6.7212e-71
2.40304e-36
-2.52267e-33
1.80522e-61
1.00328e-26
1.70212e-44
8.00616e-56
2.2335e-124
5.45333e-49
1.50998e-36
1.75451e-75
1.36253e-44
1.55312e-55
5.379e-94
-9.09063e-33
1.45769e-72
1.1377e-15
1.84419e-45
-3.05189e-61
-5.65368e-131
1.51931e-91
1.34315e-13
4.14659e-36
1.0819e-194
9.05514e-44
10.0693
8.92552e-21
3.47125e-72
1.23404e-44
0.175689
0.992794
57.4675
2.37791e-77
7.14106e-79
-2.54842e-103
3.44436e-55
4.64887e-28
0.0120917
0.0953736
1.12949e-12
1.22202e-16
2.88907e-67
-9.73572e-139
-2.76581e-136
-5.39805e-27
-6.16987e-71
2.09191e-24
4.22941e-80
7.39592e-05
7.38822e-79
5.49497e-40
3.8493e-12
-1.53363e-40
4.0646e-20
3.2898e-108
7.06992e-38
-5.63193e-151
2.43673e-17
6.43168e-17
2.27981e-60
-1.09515e-144
1.02281e-64
2.02204e-24
-6.83709e-94
-2.20484e-43
0.175746
-4.45421e-162
9.62564e-60
-3.59276e-37
-8.47448e-38
5.22311e-46
1.05624e-107
-1.51007e-95
-3.98512e-95
-9.82437e-184
-3.81421e-138
4.12861e-57
2.86158e-24
-5.63095e-152
9.78692e-70
-6.18792e-105
149.734
-7.0023e-28
-1.05737e-93
4.73216e-193
2.07491e-22
1.18621e-39
1.60075e-20
-1.35292e-44
8.74102e-40
-3.30302e-145
2.20006e-91
1.8935e-15
-6.18672e-206
1.02668e-39
6.48434e-28
-1.5389e-49
-1.8936e-132
8.80002e-35
-3.98927e-178
1.40111e-54
5.50651e-56
-1.71681e-92
1.31203e-07
1.52724e-51
3.4179e-59
4.57155e-57
1.50657e-37
-5.50016e-48
-1.21221e-155
5.80535e-190
1.10161e-71
2.32264e-27
1.40004e-36
1.81379e-58
1.20705e-56
3.34917e-16
-9.54745e-53
-7.25201e-167
1.07642e-77
3.91013e-23
1.20972e-94