/*--------------------------------*- C++ -*----------------------------------*\
  =========                 |
  \\      /  F ield         | OpenFOAM: The Open Source CFD Toolbox
   \\    /   O peration     | Website:  https://openfoam.org
    \\  /    A nd           | Version:  7
     \\/     M anipulation  |
\*---------------------------------------------------------------------------*/
FoamFile
{
    version     2.0;
    format      ascii;
    class       volScalarField;
    location    "0.14";
    object      p;
}
// * * * * * * * * * * * * * * * * * * * * * * * * * * * * * * * * * * * * * //

dimensions      [0 2 -2 0 0 0 0];

internalField   nonuniform List<scalar> 
10000
(
-1.58771e-08
9.70248e-05
-0.000123298
-0.000708479
-0.00160923
-0.00276896
-0.0041304
-0.00563892
-0.00724498
-0.0089048
-0.0105798
-0.0122364
-0.0138455
-0.0153818
-0.0168232
-0.0181509
-0.0193487
-0.0204027
-0.0213015
-0.0220355
-0.0225968
-0.0229794
-0.0231785
-0.0231908
-0.0230142
-0.0226477
-0.0220914
-0.0213465
-0.0204149
-0.0192993
-0.0180033
-0.016531
-0.0148874
-0.013078
-0.0111087
-0.00898633
-0.00671794
-0.00431112
-0.0017739
0.000885298
0.00365764
0.00653399
0.00950485
0.0125604
0.0156907
0.0188852
0.0221336
0.0254249
0.0287484
0.0320928
0.0354469
0.0387995
0.0421391
0.0454543
0.0487338
0.0519661
0.05514
0.0582441
0.0612676
0.0641994
0.0670289
0.0697457
0.0723398
0.0748014
0.0771213
0.0792907
0.0813013
0.0831455
0.0848162
0.0863073
0.087613
0.0887286
0.0896503
0.0903753
0.0909015
0.0912284
0.0913564
0.0912871
0.0910236
0.0905704
0.0899334
0.0891204
0.0881407
0.0870057
0.0857287
0.0843254
0.0828137
0.0812142
0.0795505
0.0778492
0.0761408
0.0744597
0.0728447
0.0713396
0.0699929
0.0688575
0.067987
0.0674328
0.0672373
0.067347
-9.23982e-05
4.85042e-06
-0.000209893
-0.000732847
-0.00151344
-0.00251198
-0.00368667
-0.00499409
-0.00639329
-0.0078466
-0.00931998
-0.010783
-0.0122087
-0.0135734
-0.0148563
-0.0160392
-0.0171064
-0.0180444
-0.0188417
-0.0194888
-0.0199779
-0.0203024
-0.0204576
-0.0204399
-0.0202467
-0.0198768
-0.0193299
-0.0186067
-0.0177086
-0.016638
-0.015398
-0.0139923
-0.0124254
-0.0107022
-0.00882837
-0.00681001
-0.00465377
-0.00236673
4.35771e-05
0.00256922
0.00520188
0.00793292
0.0107534
0.013654
0.0166253
0.0196574
0.0227403
0.0258639
0.0290177
0.0321912
0.0353738
0.0385546
0.0417231
0.0448682
0.0479792
0.0510454
0.054056
0.0570004
0.0598683
0.0626493
0.0653335
0.067911
0.0703725
0.0727088
0.0749114
0.076972
0.0788829
0.0806372
0.0822284
0.0836508
0.0848994
0.0859698
0.0868587
0.0875638
0.0880836
0.0884178
0.0885671
0.0885336
0.0883205
0.0879326
0.0873758
0.0866578
0.085788
0.0847776
0.0836396
0.0823891
0.0810432
0.0796216
0.0781465
0.0766428
0.0751384
0.0736644
0.0722549
0.0709474
0.069782
0.0688004
0.0680415
0.0675414
0.0673465
0.0674566
0.000133738
0.000225002
9.71876e-06
-0.000481577
-0.00119399
-0.00209468
-0.00314973
-0.00432315
-0.00557994
-0.00688735
-0.00821533
-0.00953632
-0.0108256
-0.0120612
-0.0132234
-0.0142952
-0.0152615
-0.0161092
-0.0168271
-0.017406
-0.017838
-0.0181166
-0.018237
-0.0181953
-0.0179889
-0.0176164
-0.0170771
-0.0163714
-0.0155005
-0.0144664
-0.0132719
-0.0119204
-0.0104159
-0.00876295
-0.00696689
-0.00503342
-0.00296876
-0.000779587
0.00152696
0.00394338
0.00646179
0.00907398
0.0117714
0.0145453
0.0173864
0.0202856
0.0232332
0.0262195
0.0292346
0.0322684
0.0353107
0.0383513
0.0413799
0.0443862
0.0473598
0.0502905
0.0531681
0.0559825
0.0587239
0.0613823
0.0639484
0.0664128
0.0687667
0.0710015
0.073109
0.0750815
0.0769119
0.0785936
0.0801206
0.0814877
0.0826901
0.0837241
0.0845866
0.0852757
0.0857901
0.0861299
0.0862959
0.0862905
0.086117
0.0857801
0.0852859
0.084642
0.0838575
0.0829433
0.0819119
0.0807778
0.0795574
0.0782693
0.0769341
0.075575
0.0742175
0.0728896
0.0716217
0.0704464
0.0693976
0.0685102
0.0678159
0.0673451
0.0671508
0.0672621
0.000722949
0.000752928
0.000504863
1.22939e-05
-0.000674027
-0.00152438
-0.00250935
-0.00359789
-0.00475958
-0.0059658
-0.00718966
-0.0084065
-0.00959385
-0.0107313
-0.0118007
-0.0127859
-0.0136728
-0.0144489
-0.0151035
-0.0156277
-0.0160136
-0.016255
-0.0163472
-0.0162862
-0.0160693
-0.0156949
-0.0151623
-0.0144716
-0.0136239
-0.0126208
-0.011465
-0.0101594
-0.00870779
-0.00711458
-0.00538464
-0.00352336
-0.00153664
0.000569186
0.00278735
0.00511068
0.00753169
0.0100425
0.012635
0.0153008
0.018031
0.0208169
0.0236491
0.0265185
0.0294154
0.0323302
0.0352531
0.0381744
0.0410842
0.0439724
0.0468293
0.0496451
0.0524099
0.0551141
0.0577482
0.0603029
0.0627691
0.0651381
0.0674012
0.0695503
0.0715777
0.0734761
0.0752388
0.0768595
0.0783326
0.0796531
0.0808168
0.0818202
0.0826604
0.0833357
0.0838453
0.0841891
0.0843685
0.0843855
0.0842436
0.0839475
0.0835032
0.082918
0.0822008
0.0813621
0.0804138
0.0793697
0.0782453
0.0770579
0.0758269
0.0745735
0.073321
0.0720946
0.0709214
0.06983
0.0688502
0.068012
0.0673435
0.0668725
0.0666503
0.0667104
0.00162724
0.00153925
0.00122203
0.000699821
1.08592e-05
-0.000818483
-0.00176234
-0.00279399
-0.00388726
-0.00501708
-0.00615976
-0.00729328
-0.00839734
-0.00945344
-0.0104449
-0.0113566
-0.0121755
-0.0128897
-0.0134894
-0.0139656
-0.0143112
-0.0145202
-0.0145876
-0.0145097
-0.0142839
-0.0139085
-0.0133825
-0.0127062
-0.0118802
-0.0109061
-0.00978626
-0.00852345
-0.00712118
-0.00558354
-0.00391514
-0.00212107
-0.000206918
0.00182129
0.00395712
0.00619376
0.00852403
0.0109404
0.0134352
0.0160002
0.0186271
0.0213074
0.0240322
0.0267926
0.0295795
0.0323836
0.0351956
0.0380059
0.0408052
0.0435838
0.0463324
0.0490415
0.0517017
0.0543038
0.0568386
0.0592974
0.0616713
0.0639519
0.0661311
0.0682012
0.0701548
0.0719849
0.0736851
0.0752496
0.0766731
0.0779508
0.0790788
0.0800537
0.0808732
0.0815355
0.08204
0.0823869
0.0825774
0.0826137
0.0824993
0.0822386
0.0818375
0.0813031
0.0806439
0.0798698
0.0789922
0.078024
0.0769797
0.0758754
0.074729
0.0735599
0.0723892
0.0712394
0.0701345
0.0690996
0.0681606
0.0673436
0.0666736
0.0661757
0.0658901
0.0658428
0.0027939
0.0025471
0.00213047
0.0015533
0.00083609
2.00879e-06
-0.000926224
-0.00192594
-0.00297468
-0.00405074
-0.00513331
-0.00620295
-0.00724146
-0.00823219
-0.00915988
-0.0100109
-0.0107729
-0.0114351
-0.0119881
-0.0124236
-0.0127348
-0.0129159
-0.0129622
-0.0128702
-0.0126373
-0.0122617
-0.0117426
-0.0110798
-0.0102742
-0.00932715
-0.00824066
-0.00701744
-0.00566078
-0.0041745
-0.00256295
-0.000830967
0.00101614
0.00297263
0.0050324
0.00718893
0.00943535
0.0117645
0.0141689
0.0166409
0.0191723
0.0217551
0.0243808
0.0270407
0.0297261
0.032428
0.0351376
0.0378457
0.0405433
0.043221
0.04587
0.048481
0.0510451
0.0535534
0.0559972
0.0583679
0.0606572
0.0628569
0.0649594
0.0669572
0.0688432
0.0706109
0.0722541
0.0737673
0.0751454
0.076384
0.0774792
0.078428
0.0792282
0.0798782
0.0803775
0.0807262
0.0809257
0.0809781
0.0808868
0.0806561
0.0802916
0.0798001
0.0791895
0.0784694
0.0776503
0.0767443
0.0757649
0.074727
0.0736468
0.0725421
0.0714316
0.0703355
0.0692751
0.0682721
0.0673491
0.0665284
0.0658321
0.0652826
0.0649039
0.064708
0.00417024
0.00373816
0.00319916
0.00254554
0.00177805
0.000916589
-1.88001e-05
-0.00100901
-0.00203503
-0.00307818
-0.00412036
-0.00514446
-0.00613439
-0.00707521
-0.00795319
-0.0087559
-0.0094722
-0.0100921
-0.0106068
-0.0110087
-0.0112914
-0.0114495
-0.0114786
-0.0113754
-0.0111372
-0.0107624
-0.0102502
-0.00960048
-0.00881392
-0.00789177
-0.00683598
-0.00564906
-0.00433413
-0.0028948
-0.0013352
0.000340071
0.00212594
0.00401695
0.00600726
0.00809063
0.0102605
0.01251
0.014832
0.017219
0.0196633
0.0221572
0.0246924
0.0272606
0.0298535
0.0324625
0.0350789
0.037694
0.040299
0.0428851
0.0454435
0.0479655
0.0504424
0.0528658
0.055227
0.0575181
0.0597308
0.0618576
0.0638907
0.0658233
0.0676484
0.0693598
0.0709517
0.0724186
0.0737557
0.0749589
0.0760245
0.0769495
0.077732
0.0783703
0.0788641
0.0792135
0.0794198
0.0794851
0.0794125
0.0792063
0.0788717
0.078415
0.077844
0.0771672
0.0763946
0.0755375
0.0746083
0.0736205
0.0725889
0.0715295
0.0704592
0.0693958
0.0683579
0.0673646
0.0664352
0.0655885
0.0648444
0.0642222
0.0637273
0.0633558
0.00570677
0.00507337
0.00439552
0.00364845
0.00281262
0.00190505
0.000943412
-5.64167e-05
-0.00107851
-0.00210688
-0.00312595
-0.00412077
-0.00507725
-0.00598212
-0.00682311
-0.00758906
-0.00826984
-0.00885639
-0.00934066
-0.00971576
-0.00997568
-0.0101154
-0.0101309
-0.0100191
-0.0097774
-0.00940445
-0.00889941
-0.00826222
-0.00749345
-0.00659434
-0.00556672
-0.00441301
-0.00313617
-0.00173963
-0.000227335
0.00139632
0.00312649
0.00495795
0.0068851
0.00890196
0.0110022
0.0131794
0.0154264
0.0177362
0.0201015
0.0225146
0.0249677
0.0274528
0.0299619
0.0324865
0.0350185
0.0375494
0.0400707
0.0425739
0.0450506
0.0474922
0.0498905
0.0522373
0.0545243
0.0567436
0.0588876
0.0609487
0.0629196
0.0647936
0.0665642
0.0682252
0.0697709
0.0711964
0.0724968
0.0736682
0.074707
0.0756106
0.0763767
0.0770041
0.0774921
0.0778411
0.0780521
0.0781272
0.0780693
0.0778824
0.0775714
0.0771423
0.0766021
0.075959
0.075222
0.0744016
0.0735091
0.0725567
0.071558
0.0705272
0.0694793
0.0684301
0.0673959
0.0663931
0.0654382
0.064547
0.0637371
0.0630253
0.0623976
0.0618337
0.00735921
0.00651584
0.00568816
0.00483487
0.00391643
0.00294745
0.00194378
0.000918269
-0.000115872
-0.00114512
-0.00215614
-0.003136
-0.00407243
-0.00495381
-0.00576925
-0.00650883
-0.00716344
-0.00772493
-0.00818609
-0.00854056
-0.0087829
-0.00890862
-0.00891397
-0.00879604
-0.00855268
-0.00818252
-0.00768487
-0.00705969
-0.00630757
-0.00542972
-0.00442793
-0.00330451
-0.00206228
-0.000704571
0.00076484
0.00234172
0.00402145
0.00579903
0.00766904
0.00962575
0.0116631
0.0137748
0.0159541
0.0181942
0.0204881
0.0228282
0.0252073
0.0276174
0.0300508
0.0324996
0.0349556
0.0374107
0.0398567
0.0422854
0.0446887
0.0470583
0.0493861
0.0516643
0.0538848
0.0560401
0.0581227
0.0601252
0.0620408
0.0638626
0.0655846
0.0672007
0.0687055
0.0700941
0.0713618
0.0725049
0.0735198
0.0744039
0.0751551
0.0757721
0.0762542
0.0766018
0.0768156
0.0768978
0.0768509
0.0766786
0.0763855
0.0759771
0.07546
0.0748416
0.0741303
0.0733356
0.0724676
0.0715377
0.0705578
0.0695407
0.0684998
0.0674489
0.0664021
0.0653736
0.0643772
0.0634261
0.0625361
0.0617218
0.06095
0.0601843
0.00908908
0.00803221
0.0070479
0.00607913
0.00506704
0.00402446
0.00296572
0.00190111
0.000841385
-0.000202165
-0.0012182
-0.00219565
-0.0031239
-0.00399291
-0.00479309
-0.00551565
-0.00615259
-0.00669662
-0.00714128
-0.00748086
-0.00771053
-0.00782624
-0.00782459
-0.00770299
-0.00745956
-0.00709308
-0.006603
-0.00598935
-0.00525277
-0.00439448
-0.00341624
-0.00232029
-0.00110937
0.000213315
0.0016441
0.00317891
0.00481329
0.00654243
0.00836111
0.0102638
0.0122447
0.0142976
0.0164162
0.0185938
0.0208236
0.0230984
0.0254111
0.0277541
0.0301199
0.0325008
0.0348889
0.0372764
0.0396553
0.0420177
0.0443556
0.0466611
0.0489264
0.0511437
0.0533054
0.055404
0.0574323
0.0593831
0.0612497
0.0630257
0.0647048
0.0662815
0.0677503
0.0691064
0.0703454
0.0714634
0.0724571
0.0733239
0.0740616
0.0746689
0.0751451
0.0754904
0.0757055
0.0757921
0.0757528
0.0755908
0.0753104
0.0749166
0.0744155
0.0738137
0.073119
0.07234
0.0714858
0.0705666
0.0695931
0.0685768
0.0675294
0.066463
0.0653897
0.0643218
0.0632707
0.0622472
0.0612659
0.0603395
0.0594163
0.0584448
0.0108632
0.00959261
0.00844795
0.0073573
0.00624332
0.00511752
0.00399316
0.00287833
0.0017816
0.00071232
-0.000320005
-0.00130597
-0.00223653
-0.00310295
-0.00389701
-0.004611
-0.0052379
-0.00577132
-0.0062055
-0.00653545
-0.00675692
-0.00686625
-0.00686051
-0.00673743
-0.00649539
-0.00613338
-0.00565099
-0.00504836
-0.00432623
-0.00348582
-0.0025289
-0.00145768
-0.000274842
0.00101649
0.00241277
0.00391005
0.00550402
0.00719
0.00896297
0.0108176
0.0127482
0.0147489
0.0168135
0.0189355
0.0211084
0.0233253
0.0255791
0.0278627
0.0301686
0.0324894
0.0348175
0.0371452
0.0394649
0.0417688
0.0440492
0.0462984
0.0485087
0.0506727
0.0527828
0.0548319
0.0568127
0.0587184
0.0605424
0.0622785
0.0639205
0.0654629
0.0669005
0.0682285
0.0694425
0.0705388
0.0715141
0.0723656
0.0730913
0.0736897
0.0741601
0.0745024
0.0747173
0.0748063
0.0747716
0.0746161
0.0743436
0.0739588
0.0734672
0.0728748
0.0721886
0.0714163
0.0705662
0.0696475
0.0686696
0.0676427
0.066577
0.0654832
0.0643717
0.0632528
0.0621361
0.0610304
0.0599491
0.0589039
0.0578252
0.0566469
0.012653
0.0111707
0.00986411
0.00864732
0.00742543
0.00620902
0.00501062
0.00383643
0.00269316
0.00158849
0.000530252
-0.000473662
-0.00141563
-0.00228812
-0.00308411
-0.00379702
-0.0044207
-0.00494963
-0.00537877
-0.00570384
-0.0059211
-0.00602737
-0.00602015
-0.00589754
-0.00565817
-0.00530126
-0.00482658
-0.00423443
-0.0035256
-0.00270142
-0.00176363
-0.000714463
0.000443443
0.00170702
0.0030728
0.00453695
0.00609528
0.00774325
0.00947598
0.0112883
0.0131747
0.0151294
0.0171465
0.0192198
0.0213428
0.0235088
0.025711
0.0279425
0.030196
0.0324643
0.03474
0.0370157
0.0392838
0.0415368
0.0437673
0.0459676
0.0481304
0.0502483
0.052314
0.0543203
0.0562604
0.0581275
0.0599151
0.0616171
0.0632275
0.0647408
0.0661518
0.067456
0.0686489
0.0697268
0.0706863
0.0715247
0.0722399
0.0728304
0.0732952
0.0736342
0.0738478
0.0739372
0.0739043
0.0737519
0.0734832
0.0731025
0.0726146
0.0720251
0.0713402
0.0705667
0.0697123
0.0687849
0.0677931
0.0667457
0.0656518
0.0645204
0.0633606
0.0621813
0.0609901
0.0597943
0.0586066
0.0574379
0.0562016
0.0548181
0.014434
0.0127432
0.0112746
0.00992906
0.00859495
0.0072823
0.00600323
0.00476229
0.00356463
0.00241642
0.00132406
0.000294092
-0.000667048
-0.00155315
-0.0023582
-0.00307659
-0.00370309
-0.00423293
-0.0046619
-0.00498629
-0.00520288
-0.00530903
-0.00530265
-0.00518218
-0.00494655
-0.00459523
-0.00412817
-0.00354585
-0.00284917
-0.00203952
-0.00111869
-8.89215e-05
0.00104714
0.00228647
0.00362569
0.00506102
0.00658837
0.00820332
0.00990112
0.0116767
0.0135248
0.0154397
0.0174157
0.0194468
0.0215266
0.0236487
0.0258064
0.027993
0.0302013
0.0324245
0.0346552
0.0368862
0.0391102
0.0413198
0.0435077
0.0456665
0.0477889
0.0498678
0.0518959
0.0538664
0.0557723
0.0576071
0.0593643
0.0610379
0.0626221
0.0641113
0.0655006
0.0667851
0.0679606
0.0690234
0.0699699
0.0707974
0.0715038
0.0720874
0.072547
0.0728825
0.0730939
0.0731822
0.0731491
0.0729967
0.0727282
0.0723472
0.071858
0.0712656
0.0705755
0.069794
0.0689278
0.0679838
0.0669698
0.0658934
0.0647624
0.0635849
0.0623685
0.0611208
0.0598481
0.0585561
0.0572573
0.055962
0.0545676
0.0529817
0.0161846
0.0142893
0.0126597
0.0111841
0.00973486
0.00832178
0.00695683
0.00564324
0.00438474
0.00318621
0.00205285
0.00098996
2.8652e-06
-0.000903316
-0.00172357
-0.00245315
-0.00308774
-0.00362331
-0.00405636
-0.00438373
-0.00460277
-0.00471136
-0.00470782
-0.0045909
-0.00435985
-0.00401441
-0.00355476
-0.00298152
-0.00229574
-0.00149889
-0.000592839
0.00042015
0.00153744
0.00275601
0.0040725
0.00548322
0.00698416
0.00857099
0.010239
0.0119834
0.0137989
0.01568
0.0176212
0.0196164
0.0216596
0.0237445
0.0258646
0.0280133
0.0301837
0.0323688
0.0345618
0.0367554
0.0389425
0.0411159
0.0432684
0.0453928
0.0474819
0.0495287
0.0515261
0.0534672
0.0553454
0.057154
0.0588868
0.0605377
0.062101
0.0635712
0.0649432
0.0662123
0.0673743
0.0684251
0.0693615
0.0701805
0.0708799
0.0714577
0.0719129
0.0722449
0.0724535
0.0725396
0.0725043
0.0723496
0.072078
0.0716929
0.071198
0.0705977
0.069897
0.0691014
0.0682168
0.0672494
0.0662059
0.0650931
0.0639178
0.0626868
0.0614069
0.0600844
0.0587246
0.0573317
0.0559183
0.0544946
0.0529426
0.0511578
0.0178862
0.0157907
0.0140019
0.0123957
0.0108295
0.00931295
0.00785814
0.00646716
0.00514256
0.00388812
0.002708
0.00160642
0.000587605
-0.000344203
-0.00118491
-0.00193068
-0.00257791
-0.00312339
-0.00356416
-0.00389769
-0.0041219
-0.00423511
-0.00423604
-0.00412379
-0.00389797
-0.00355854
-0.00310592
-0.0025409
-0.00186469
-0.00107886
-0.00018536
0.000813498
0.00191504
0.00311627
0.00441384
0.00580411
0.00728313
0.00884662
0.01049
0.0122085
0.013997
0.0158502
0.0177625
0.0197282
0.0217413
0.0237956
0.0258848
0.0280024
0.0301418
0.032296
0.0344582
0.0366215
0.0387789
0.0409232
0.0430473
0.0451443
0.0472071
0.0492285
0.0512018
0.0531201
0.0549768
0.0567654
0.0584796
0.0601134
0.0616611
0.0631172
0.0644766
0.0657345
0.0668867
0.0679291
0.0688582
0.0696712
0.0703654
0.0709391
0.0713907
0.0717194
0.071925
0.0720079
0.071969
0.0718099
0.0715327
0.0711403
0.0706359
0.0700235
0.0693074
0.0684924
0.0675838
0.066587
0.0655079
0.0643523
0.0631264
0.0618359
0.0604867
0.0590843
0.0576327
0.0561354
0.0546051
0.0530519
0.0513436
0.0493637
0.0195222
0.0172312
0.0152851
0.0135485
0.0118643
0.0102421
0.00869446
0.00722237
0.00582746
0.0045126
0.00328093
0.00213577
0.00108044
0.000118309
-0.000747362
-0.00151355
-0.00217737
-0.00273628
-0.0031879
-0.00353032
-0.00376197
-0.0038816
-0.00388831
-0.0037816
-0.00356137
-0.00322787
-0.00278174
-0.00222397
-0.00155591
-0.000779242
0.000103976
0.00109136
0.00218021
0.00336751
0.00464995
0.00602389
0.00748539
0.00903025
0.010654
0.0123519
0.014119
0.01595
0.0178394
0.0197817
0.021771
0.0238012
0.0258661
0.0279594
0.0300744
0.0322046
0.0343431
0.036483
0.0386176
0.0407397
0.0428425
0.044919
0.0469621
0.0489649
0.0509207
0.0528226
0.054664
0.0564386
0.0581399
0.0597622
0.0612995
0.0627465
0.0640979
0.065349
0.0664952
0.0675326
0.0684576
0.069267
0.0699583
0.0705293
0.0709784
0.0713046
0.0715072
0.0715865
0.071543
0.0713779
0.0710929
0.0706905
0.0701735
0.0695453
0.0688097
0.0679709
0.0670334
0.0660021
0.0648821
0.0636785
0.0623966
0.0610416
0.0596185
0.0581318
0.0565849
0.0549804
0.0533314
0.0516484
0.0497853
0.0476143
0.0210783
0.018596
0.016495
0.0146285
0.0128257
0.0110966
0.00945381
0.00789775
0.00642919
0.0050502
0.00376309
0.00257032
0.00147447
0.000478081
-0.000416378
-0.00120655
-0.00189028
-0.00246556
-0.00293068
-0.00328427
-0.0035252
-0.00365266
-0.00366616
-0.00356557
-0.00335109
-0.00302325
-0.0025829
-0.00203123
-0.00136977
-0.000600336
0.000274914
0.00125353
0.00233277
0.00350959
0.00478065
0.00614231
0.00759068
0.0091216
0.0107307
0.0124132
0.0141642
0.0159786
0.0178511
0.019776
0.0217477
0.0237602
0.0258073
0.0278828
0.0299803
0.0320931
0.0342147
0.0363382
0.0384568
0.0405637
0.0426519
0.0447145
0.0467447
0.0487356
0.0506803
0.0525721
0.0544045
0.056171
0.0578653
0.0594816
0.0610138
0.0624566
0.0638047
0.0650531
0.0661975
0.0672335
0.0681575
0.0689662
0.0696568
0.070227
0.0706749
0.0709994
0.0711995
0.071275
0.0712262
0.0710539
0.0707596
0.0703451
0.069813
0.069166
0.0684074
0.0675409
0.0665705
0.0655004
0.064335
0.0630789
0.0617368
0.060313
0.058812
0.0572376
0.0555925
0.0538788
0.05211
0.0502973
0.048281
0.0459225
0.0225415
0.0198719
0.0176183
0.0156228
0.0137014
0.0118644
0.0101249
0.00848266
0.00693785
0.00549175
0.00414602
0.00290239
0.0017627
0.000728771
-0.000197636
-0.00101477
-0.00172111
-0.00231523
-0.00279603
-0.0031626
-0.00341425
-0.00355061
-0.00357161
-0.00347744
-0.00326862
-0.00294593
-0.00251048
-0.00196364
-0.00130712
-0.000542879
0.00032682
0.00129944
0.00237219
0.00354196
0.0048054
0.00615885
0.00759845
0.00912007
0.0107193
0.0123916
0.014132
0.0159354
0.0177967
0.0197102
0.0216704
0.0236713
0.0257071
0.0277714
0.0298579
0.0319601
0.0340714
0.0361852
0.0382947
0.040393
0.0424734
0.044529
0.0465529
0.0485383
0.0504784
0.0523665
0.0541959
0.0559603
0.0576534
0.0592692
0.0608016
0.0622453
0.0635947
0.064845
0.0659915
0.0670298
0.0679562
0.0687671
0.0694595
0.070031
0.0704795
0.0708033
0.0710015
0.0710735
0.0710192
0.0708391
0.0705343
0.0701062
0.0695568
0.0688886
0.0681043
0.067207
0.0662002
0.0650877
0.0638733
0.0625611
0.061155
0.0596589
0.0580767
0.0564117
0.0546662
0.0528417
0.0509525
0.0490102
0.0468423
0.0442997
0.0239001
0.021047
0.0186429
0.0165195
0.0144795
0.0125341
0.0106968
0.00896691
0.00734379
0.00582828
0.0044214
0.00312427
0.00193803
0.000863864
-9.7019e-05
-0.000943534
-0.00167468
-0.00228966
-0.00278785
-0.00316877
-0.0034322
-0.00357822
-0.00360711
-0.00351941
-0.0033159
-0.00299765
-0.00256601
-0.00202257
-0.0013692
-0.000607999
0.000258652
0.00122814
0.00229755
0.00346375
0.00472334
0.00607266
0.00750785
0.00902479
0.0106191
0.0122862
0.0140213
0.0158192
0.017675
0.019583
0.0215377
0.0235334
0.0255641
0.0276235
0.0297056
0.0318037
0.0339115
0.0360223
0.0381293
0.0402258
0.0423051
0.0443603
0.0463845
0.048371
0.0503129
0.0522034
0.0540361
0.0558044
0.0575021
0.0591228
0.0606609
0.0621104
0.0634661
0.0647227
0.0658755
0.0669201
0.0678523
0.0686686
0.0693656
0.0699407
0.0703916
0.0707164
0.0709137
0.0709828
0.0709231
0.070735
0.0704189
0.069976
0.0694079
0.0687165
0.0679042
0.0669736
0.0659278
0.0647699
0.0635035
0.062132
0.0606589
0.0590876
0.0574215
0.0556637
0.0538158
0.0518794
0.0498692
0.0477976
0.0454796
0.0427558
0.0251435
0.02211
0.0195576
0.0173072
0.0151493
0.0130953
0.0111594
0.00934059
0.00763765
0.00605096
0.00458095
0.00322819
0.00199324
0.000876742
-0.000120656
-0.000998453
-0.00175617
-0.00239355
-0.00291037
-0.00330663
-0.00358258
-0.00373868
-0.00377554
-0.00369404
-0.00349526
-0.00318055
-0.00275147
-0.00220982
-0.00155765
-0.000797202
6.90096e-05
0.00103826
0.00210758
0.00327373
0.00453329
0.00588258
0.00731773
0.00883459
0.0104288
0.0120958
0.0138308
0.0156288
0.0174847
0.0193931
0.0213484
0.0233449
0.0253767
0.0274377
0.0295218
0.0316224
0.0337332
0.0358476
0.0379588
0.0400602
0.042145
0.0442064
0.0462375
0.0482315
0.0501816
0.052081
0.053923
0.0557012
0.0574092
0.0590407
0.0605897
0.0620503
0.0634171
0.0646848
0.0658483
0.0669031
0.0678449
0.0686698
0.0693745
0.0699558
0.0704113
0.0707388
0.0709367
0.0710037
0.0709393
0.0707431
0.0704155
0.0699572
0.0693694
0.0686535
0.0678115
0.0668456
0.0657586
0.0645531
0.0632321
0.0617988
0.0602561
0.0586072
0.056855
0.0550024
0.0530508
0.0510014
0.0488699
0.0466693
0.0442024
0.0412997
0.0262616
0.0230508
0.0203518
0.0179757
0.0157002
0.0135376
0.0115027
0.00959416
0.0078103
0.00615104
0.00461638
0.00320635
0.00192105
0.000760605
-0.0002749
-0.00118542
-0.00197103
-0.00263187
-0.00316817
-0.00358042
-0.00386928
-0.00403554
-0.00408017
-0.00400435
-0.00380948
-0.00349716
-0.00306918
-0.00252755
-0.00187448
-0.00111238
-0.000243884
0.000728153
0.00180066
0.00297036
0.00423376
0.00558716
0.00702664
0.00854804
0.010147
0.011819
0.0135592
0.0153627
0.0172244
0.0191389
0.0211007
0.0231042
0.0251433
0.0272122
0.0293047
0.0314143
0.0335346
0.0356592
0.0377812
0.0398941
0.0419911
0.0440653
0.0461098
0.0481179
0.0500825
0.051997
0.0538547
0.0556488
0.057373
0.0590209
0.0605863
0.0620634
0.0634464
0.0647298
0.0659086
0.0669778
0.0679331
0.0687703
0.0694858
0.0700762
0.0705388
0.0708712
0.0710713
0.0711376
0.0710693
0.0708658
0.0705268
0.0700528
0.0694446
0.0687033
0.0678305
0.0668279
0.065698
0.0644429
0.0630655
0.0615682
0.0599539
0.0582253
0.0563853
0.0544364
0.0523798
0.0502167
0.0479634
0.045634
0.0430192
0.0399396
0.0272454
0.0238597
0.0210158
0.0185148
0.0161223
0.0138512
0.0117172
0.00971831
0.00785273
0.0061199
0.00451945
0.00305097
0.0017141
0.000508496
-0.000566246
-0.00151053
-0.00232489
-0.00300987
-0.00356618
-0.00399472
-0.00429652
-0.00447271
-0.00452461
-0.00445372
-0.0042617
-0.0039504
-0.00352187
-0.00297829
-0.00232207
-0.00155577
-0.000682166
0.000295775
0.00137487
0.00255178
0.00382295
0.00518463
0.00663285
0.00816344
0.00977202
0.011454
0.0132048
0.0150192
0.0168923
0.0188188
0.020793
0.0228094
0.0248621
0.0269452
0.0290524
0.0311774
0.0333139
0.0354551
0.0375946
0.0397256
0.0418414
0.0439349
0.0459995
0.048028
0.0500137
0.0519497
0.0538292
0.0556454
0.0573918
0.0590619
0.0606494
0.0621482
0.0635525
0.0648567
0.0660554
0.0671435
0.0681164
0.0689697
0.0696995
0.0703022
0.0707747
0.0711143
0.0713187
0.0713862
0.0713153
0.0711052
0.0707555
0.070266
0.0696373
0.0688702
0.0679658
0.0669256
0.0657515
0.0644455
0.0630099
0.0614471
0.0597595
0.0579497
0.0560204
0.0539739
0.0518113
0.0495336
0.0471582
0.0447
0.041938
0.0386828
0.028086
0.0245275
0.0215401
0.0189151
0.0164061
0.0140267
0.0117934
0.00970394
0.00775608
0.00594902
0.00428199
0.00275424
0.00136497
0.000113373
-0.00100134
-0.00198003
-0.00282361
-0.00353307
-0.00410957
-0.00455437
-0.00486882
-0.00505443
-0.00511283
-0.00504583
-0.00485537
-0.00454353
-0.00411259
-0.00356494
-0.00290315
-0.00212995
-0.00124829
-0.000261231
0.000827947
0.00201581
0.00329875
0.00467293
0.00613434
0.00767878
0.00930187
0.010999
0.0127655
0.0145964
0.0164865
0.0184306
0.0204231
0.0224586
0.024531
0.0266345
0.0287628
0.0309097
0.0330687
0.0352333
0.0373969
0.0395526
0.0416937
0.0438133
0.0459044
0.04796
0.0499733
0.0519372
0.0538448
0.0556893
0.0574639
0.0591621
0.0607774
0.0623036
0.0637347
0.0650647
0.0662882
0.0673998
0.0683947
0.0692681
0.070016
0.0706344
0.0711199
0.0714696
0.0716807
0.0717512
0.0716795
0.0714643
0.0711047
0.0706004
0.0699516
0.0691586
0.0682223
0.0671439
0.0659248
0.0645669
0.063072
0.0614423
0.0596802
0.057788
0.0557681
0.0536229
0.0513533
0.0489603
0.0464624
0.0438752
0.0409662
0.0375362
0.0287752
0.0250454
0.0219157
0.0191673
0.0165424
0.014055
0.0117224
0.00954214
0.00751169
0.00562998
0.00389592
0.00230837
0.000866164
-0.000431893
-0.00158696
-0.00260034
-0.00347329
-0.00420727
-0.00480381
-0.00526449
-0.00559102
-0.00578525
-0.00584914
-0.00578476
-0.00559432
-0.00528016
-0.00484475
-0.00429071
-0.00362078
-0.00283787
-0.00194506
-0.000945544
0.000157306
0.00135997
0.00265873
0.00404969
0.0055288
0.0070918
0.00873429
0.0104517
0.0122392
0.0140919
0.0160047
0.0179722
0.019989
0.0220495
0.0241478
0.026278
0.0284338
0.030609
0.0327971
0.0349916
0.0371858
0.0393729
0.041546
0.0436982
0.0458225
0.0479119
0.0499592
0.0519575
0.0538997
0.0557787
0.0575878
0.0593202
0.0609693
0.0625286
0.0639918
0.0653531
0.0666064
0.0677464
0.0687679
0.0696658
0.0704358
0.0710736
0.0715756
0.0719384
0.072159
0.0722351
0.0721645
0.0719458
0.0715778
0.0710598
0.0703915
0.069573
0.068605
0.0674881
0.0662237
0.0648131
0.0632582
0.0615608
0.0597232
0.0577474
0.0556359
0.053391
0.0510135
0.0485045
0.0458835
0.0431671
0.040111
0.0365063
0.0293047
0.025405
0.0221338
0.0192627
0.0165222
0.0139271
0.0114952
0.00922412
0.00711097
0.0051544
0.00335307
0.00170548
0.000210113
-0.00113454
-0.00233005
-0.00337805
-0.00428025
-0.00503849
-0.00565459
-0.00613048
-0.00646824
-0.00667004
-0.00673812
-0.00667484
-0.00648266
-0.00616416
-0.00572205
-0.00515912
-0.00447832
-0.00368272
-0.00277553
-0.00176009
-0.00063987
0.000581503
0.00190022
0.00331232
0.00481368
0.00640001
0.00806687
0.00980964
0.0116235
0.0135035
0.0154446
0.0174413
0.0194883
0.0215799
0.0237102
0.0258733
0.0280631
0.030273
0.0324968
0.0347278
0.0369592
0.0391843
0.0413962
0.0435877
0.0457519
0.0478816
0.0499697
0.0520089
0.0539921
0.0559122
0.0577621
0.0595349
0.0612238
0.0628221
0.0643233
0.0657213
0.0670099
0.0681834
0.0692362
0.0701633
0.0709597
0.071621
0.0721432
0.0725225
0.0727558
0.0728401
0.0727732
0.0725532
0.0721785
0.0716481
0.0709615
0.0701184
0.0691191
0.067964
0.066654
0.0651906
0.0635752
0.0618095
0.0598956
0.0578355
0.0556315
0.0532859
0.0507997
0.0481738
0.045429
0.0425827
0.039379
0.0355994
0.0296666
0.0255979
0.0221858
0.0191926
0.0163367
0.013634
0.0111031
0.00874122
0.00654537
0.00451392
0.00264527
0.00093763
-0.000610832
-0.00200196
-0.00323771
-0.00432004
-0.00525109
-0.00603297
-0.00666785
-0.00715802
-0.0075059
-0.00771394
-0.00778467
-0.00772072
-0.00752481
-0.00719976
-0.00674848
-0.006174
-0.00547943
-0.00466801
-0.00374308
-0.00270811
-0.00156671
-0.000322615
0.00102029
0.00245795
0.00398619
0.00560067
0.0072969
0.00907022
0.0109158
0.0128286
0.0148036
0.0168354
0.0189185
0.0210473
0.0232158
0.0254182
0.0276481
0.0298994
0.0321653
0.0344394
0.0367148
0.0389846
0.0412419
0.0434796
0.0456904
0.0478672
0.0500027
0.0520896
0.0541205
0.0560881
0.0579853
0.0598049
0.0615398
0.0631833
0.0647285
0.066169
0.0674984
0.0687108
0.0698002
0.0707612
0.0715887
0.0722779
0.0728243
0.073224
0.0734733
0.0735691
0.0735087
0.0732898
0.0729106
0.0723698
0.0716663
0.0707997
0.0697699
0.0685771
0.0672221
0.0657058
0.0640298
0.0621955
0.0602047
0.0580596
0.0557622
0.0533152
0.0507193
0.0479758
0.0451062
0.0421292
0.038777
0.0348214
0.0298534
0.0256159
0.0220634
0.0189481
0.0159772
0.0131671
0.0105373
0.00808481
0.00580634
0.00370014
0.00176433
-3.1477e-06
-0.00160441
-0.00304168
-0.00431721
-0.00543335
-0.00639253
-0.00719716
-0.00784979
-0.00835306
-0.00870966
-0.00892235
-0.00899393
-0.00892731
-0.00872545
-0.00839142
-0.00792834
-0.00733944
-0.00662803
-0.00579747
-0.00485128
-0.00379307
-0.00262656
-0.00135562
1.57837e-05
0.00148353
0.00304336
0.00469087
0.00642153
0.00823062
0.0101133
0.0120645
0.0140791
0.0161518
0.018277
0.020449
0.022662
0.0249099
0.0271866
0.0294855
0.0318003
0.0341241
0.0364502
0.0387715
0.0410811
0.0433716
0.045636
0.0478668
0.0500565
0.0521978
0.0542832
0.0563051
0.0582562
0.0601291
0.0619165
0.0636115
0.0652069
0.0666959
0.068072
0.0693289
0.0704603
0.0714605
0.072324
0.0730457
0.0736209
0.074045
0.0743142
0.074425
0.0743743
0.0741595
0.0737783
0.0732292
0.0725107
0.0716221
0.0705631
0.0693336
0.0679341
0.0663655
0.0646289
0.0627258
0.0606579
0.0584271
0.0560358
0.0534865
0.0507801
0.0479178
0.0449224
0.0418135
0.0383116
0.0341787
0.0298571
0.0254511
0.0217582
0.018521
0.0154352
0.0125179
0.00978923
0.00724624
0.00488537
0.00270466
0.000701994
-0.00112493
-0.00277855
-0.00426141
-0.00557605
-0.00672518
-0.00771148
-0.00853774
-0.00920686
-0.00972176
-0.0100854
-0.0103009
-0.0103713
-0.0102998
-0.0100895
-0.00974388
-0.00926617
-0.0086598
-0.00792827
-0.00707511
-0.006104
-0.00501869
-0.00382303
-0.002521
-0.00111665
0.00038578
0.00198198
0.00366748
0.00543768
0.00728782
0.00921301
0.0112082
0.0132682
0.0153876
0.0175609
0.0197823
0.022046
0.0243459
0.0266757
0.029029
0.0313991
0.0337794
0.0361629
0.0385426
0.0409113
0.0432617
0.0455865
0.0478782
0.0501291
0.0523318
0.0544785
0.0565615
0.0585734
0.0605064
0.062353
0.064106
0.0657579
0.0673018
0.0687308
0.0700381
0.0712173
0.0722622
0.073167
0.0739263
0.0745349
0.074988
0.0752814
0.0754111
0.0753737
0.0751662
0.074786
0.0742311
0.0734999
0.0725913
0.0715046
0.0702397
0.0687968
0.0671764
0.0653796
0.0634078
0.0612625
0.0589457
0.0564599
0.0538075
0.0509895
0.0480074
0.0448848
0.0416426