/*--------------------------------*- C++ -*----------------------------------*\
  =========                 |
  \\      /  F ield         | OpenFOAM: The Open Source CFD Toolbox
   \\    /   O peration     | Website:  https://openfoam.org
    \\  /    A nd           | Version:  7
     \\/     M anipulation  |
\*---------------------------------------------------------------------------*/
FoamFile
{
    version     2.0;
    format      ascii;
    class       volScalarField;
    location    "135";
    object      p;
}
// * * * * * * * * * * * * * * * * * * * * * * * * * * * * * * * * * * * * * //

dimensions      [0 2 -2 0 0 0 0];

internalField   nonuniform List<scalar> 
34000
(
-0.544825
-0.531897
-0.551939
-0.536887
-0.46674
-0.38139
-0.310897
-0.264973
-0.24894
-0.248451
-0.258744
-0.240943
-0.205994
-0.175975
-0.155258
-0.142427
-0.137523
-0.144361
-0.149804
-0.146183
-0.543699
-0.531708
-0.542261
-0.521351
-0.452724
-0.373014
-0.30829
-0.267346
-0.255952
-0.260128
-0.271848
-0.250097
-0.209917
-0.17543
-0.15261
-0.13763
-0.130432
-0.137107
-0.145673
-0.144097
-0.542762
-0.531544
-0.532239
-0.504948
-0.437619
-0.363541
-0.304761
-0.26889
-0.262319
-0.27153
-0.28373
-0.257693
-0.212764
-0.174086
-0.149443
-0.133047
-0.124386
-0.131112
-0.141825
-0.141266
-0.54207
-0.531454
-0.521963
-0.487775
-0.421519
-0.353008
-0.300251
-0.269534
-0.267938
-0.282626
-0.294339
-0.263647
-0.21445
-0.171995
-0.145767
-0.128583
-0.119141
-0.126155
-0.138205
-0.137778
-0.54168
-0.531487
-0.511519
-0.469937
-0.404528
-0.341465
-0.294708
-0.269209
-0.272684
-0.293271
-0.303573
-0.267897
-0.214907
-0.16923
-0.141593
-0.12408
-0.114454
-0.121973
-0.134792
-0.133738
-0.541643
-0.53169
-0.500994
-0.451556
-0.386761
-0.328971
-0.288085
-0.267843
-0.276393
-0.303193
-0.311241
-0.27039
-0.214089
-0.16587
-0.136942
-0.119358
-0.11014
-0.118339
-0.131626
-0.129244
-0.542007
-0.532109
-0.490468
-0.43277
-0.368343
-0.315591
-0.280343
-0.265365
-0.278886
-0.312044
-0.31709
-0.271095
-0.211987
-0.161977
-0.131853
-0.114258
-0.106023
-0.11505
-0.128744
-0.124325
-0.542814
-0.532781
-0.480013
-0.413732
-0.349402
-0.301399
-0.271452
-0.261699
-0.28001
-0.319466
-0.320874
-0.270018
-0.208636
-0.157584
-0.126387
-0.108687
-0.101869
-0.111827
-0.125983
-0.11882
-0.544097
-0.533738
-0.469692
-0.394607
-0.33007
-0.286472
-0.261392
-0.256766
-0.279689
-0.325148
-0.322417
-0.267213
-0.204127
-0.152702
-0.120626
-0.102632
-0.0973348
-0.108221
-0.122717
-0.112293
-0.545881
-0.535002
-0.459553
-0.375563
-0.310474
-0.270884
-0.250158
-0.250473
-0.27793
-0.32884
-0.321632
-0.262772
-0.198594
-0.147338
-0.114661
-0.0961346
-0.0920298
-0.103594
-0.118063
-0.104079
-0.548182
-0.536583
-0.449634
-0.356769
-0.290737
-0.254709
-0.237757
-0.24272
-0.274817
-0.330343
-0.318506
-0.256821
-0.192203
-0.141524
-0.108578
-0.0892678
-0.0856165
-0.0972314
-0.110921
-0.0934957
-0.551006
-0.538478
-0.439957
-0.338384
-0.270977
-0.238013
-0.22421
-0.233406
-0.270484
-0.329481
-0.313101
-0.249505
-0.185132
-0.135331
-0.102445
-0.0821343
-0.0779219
-0.0884632
-0.100336
-0.0800833
-0.554345
-0.540667
-0.430534
-0.320552
-0.251299
-0.220847
-0.209561
-0.222441
-0.265108
-0.326147
-0.305542
-0.240997
-0.177553
-0.128871
-0.0963059
-0.0748885
-0.0690354
-0.0768711
-0.0858729
-0.0638183
-0.558183
-0.543121
-0.421369
-0.303391
-0.231806
-0.20325
-0.193876
-0.209776
-0.258893
-0.320315
-0.296024
-0.231492
-0.169623
-0.122288
-0.0902057
-0.0677517
-0.0593528
-0.0625998
-0.0679217
-0.0452998
-0.56249
-0.545796
-0.412462
-0.286988
-0.212592
-0.185234
-0.177243
-0.195434
-0.252029
-0.312065
-0.284798
-0.221205
-0.161479
-0.115725
-0.0842094
-0.0609846
-0.0495168
-0.0466182
-0.0479146
-0.0260523
-0.56723
-0.548638
-0.403813
-0.271398
-0.193745
-0.166783
-0.15977
-0.179552
-0.244645
-0.30159
-0.272159
-0.210362
-0.153247
-0.109305
-0.0784145
-0.0548084
-0.0403001
-0.0308295
-0.0282779
-0.00869348
-0.572352
-0.551587
-0.395429
-0.256642
-0.175334
-0.14785
-0.14157
-0.162424
-0.236749
-0.289175
-0.258433
-0.199184
-0.145047
-0.103117
-0.0729381
-0.0493224
-0.0323843
-0.0175032
-0.0116724
0.00463624
-0.577802
-0.55458
-0.387321
-0.242711
-0.157407
-0.128374
-0.122753
-0.144535
-0.228212
-0.275166
-0.243958
-0.187883
-0.136989
-0.0972166
-0.067885
-0.0445155
-0.0260731
-0.00803591
0.000317681
0.0130652
-0.583517
-0.557552
-0.379506
-0.229582
-0.139974
-0.10832
-0.10342
-0.12657
-0.218811
-0.259933
-0.229069
-0.176649
-0.129168
-0.0916383
-0.0633141
-0.0403601
-0.0212491
-0.00232785
0.00776419
0.0171091
-0.58943
-0.560446
-0.372004
-0.217228
-0.123017
-0.0877488
-0.0837015
-0.109369
-0.208328
-0.243861
-0.214086
-0.165648
-0.121662
-0.0864104
-0.0592311
-0.0368548
-0.0176871
0.000546535
0.0117055
0.0182397
-0.59547
-0.563211
-0.364839
-0.205642
-0.106515
-0.0669085
-0.0638181
-0.0938064
-0.196672
-0.227332
-0.199296
-0.155019
-0.114526
-0.0815524
-0.0556113
-0.0339855
-0.0151802
0.00170257
0.0133558
0.017814
-0.601568
-0.565805
-0.358041
-0.19485
-0.0904957
-0.0463069
-0.0441728
-0.0805767
-0.183971
-0.210709
-0.184946
-0.144874
-0.107798
-0.0770713
-0.0524239
-0.031697
-0.0135366
0.00190147
0.0135462
0.0166558
-0.607654
-0.568202
-0.351637
-0.184923
-0.0751126
-0.0267057
-0.0254064
-0.0699915
-0.170558
-0.194335
-0.171235
-0.135295
-0.101501
-0.0729618
-0.0496366
-0.0299088
-0.012566
0.00153812
0.0127994
0.0151576
-0.613661
-0.570405
-0.345633
-0.175968
-0.0606989
-0.00898209
-0.00837668
-0.0619219
-0.15689
-0.178514
-0.158312
-0.126334
-0.0956452
-0.0692099
-0.0472129
-0.028537
-0.0120973
0.000816607
0.0114709
0.0134838
-0.619527
-0.572441
-0.340022
-0.168123
-0.0477554
0.00604781
0.00600092
-0.0557126
-0.143429
-0.163509
-0.14628
-0.118021
-0.0902299
-0.0657966
-0.0451134
-0.0275042
-0.0119944
-0.000134126
0.00981438
0.0117209
-0.625195
-0.574279
-0.334866
-0.161521
-0.0368465
0.0178474
0.0170028
-0.0507654
-0.130569
-0.149523
-0.135196
-0.110363
-0.0852457
-0.0626997
-0.0432988
-0.0267427
-0.0121546
-0.00122415
0.00800375
0.00992923
-0.630615
-0.575896
-0.330209
-0.156272
-0.0284319
0.0262155
0.0243116
-0.0465928
-0.118607
-0.136697
-0.125081
-0.10335
-0.0806767
-0.0598954
-0.0417319
-0.0261949
-0.0125006
-0.00238993
0.00615222
0.00815244
-0.635741
-0.577392
-0.326028
-0.152434
-0.0227264
0.0312452
0.0281143
-0.0429576
-0.107748
-0.125106
-0.115925
-0.0969602
-0.0765031
-0.0573598
-0.0403787
-0.0258136
-0.012973
-0.00358538
0.00433147
0.00642303
-0.640537
-0.578809
-0.322309
-0.150008
-0.0196633
0.0332405
0.0289287
-0.0398266
-0.0981058
-0.114766
-0.107695
-0.0911642
-0.0727021
-0.0550692
-0.0392087
-0.0255608
-0.013527
-0.00477724
0.00258465
0.00476432
-0.64497
-0.58019
-0.319038
-0.148934
-0.0189633
0.0326319
0.0274113
-0.0372633
-0.0897196
-0.105643
-0.100341
-0.0859259
-0.0692494
-0.0530013
-0.0381953
-0.0254056
-0.0141281
-0.00594165
0.000935576
0.00319186
-0.649001
-0.581602
-0.316199
-0.149104
-0.0202495
0.0298923
0.0241797
-0.0353399
-0.0825625
-0.0976688
-0.0938048
-0.0812071
-0.0661204
-0.0511353
-0.0373155
-0.0253239
-0.0147509
-0.00706178
-0.000604825
0.00171526
-0.652614
-0.58311
-0.313772
-0.150378
-0.0231404
0.0254815
0.0197367
-0.0340909
-0.0765612
-0.090754
-0.0880208
-0.0769687
-0.0632907
-0.0494519
-0.0365498
-0.0252961
-0.0153764
-0.00812625
-0.0020341
0.000339646
-0.655899
-0.584641
-0.311739
-0.152597
-0.0272961
0.019814
0.0144663
-0.0335024
-0.0716143
-0.0847998
-0.0829232
-0.0731721
-0.0607365
-0.0479338
-0.0358814
-0.0253071
-0.0159914
-0.00912819
-0.00335477
-0.000934354
-0.658714
-0.586307
-0.31008
-0.155603
-0.0324305
0.0132438
0.00865588
-0.0335231
-0.0676077
-0.0797056
-0.0784475
-0.0697798
-0.058435
-0.046565
-0.0352961
-0.0253447
-0.0165865
-0.010064
-0.00457185
-0.00210936
-0.661059
-0.588134
-0.308776
-0.159241
-0.0383057
0.00606246
0.00252074
-0.0340795
-0.0644262
-0.0753746
-0.0745321
-0.0667564
-0.0563647
-0.0453313
-0.0347816
-0.0253998
-0.0171559
-0.0109316
-0.00569315
-0.0031897
-0.66294
-0.590122
-0.307812
-0.163367
-0.0447252
-0.00149541
-0.00377789
-0.0350904
-0.0619602
-0.0717163
-0.0711192
-0.064068
-0.0545053
-0.04422
-0.0343273
-0.0254657
-0.0176956
-0.0117302
-0.00673098
-0.00419327
-0.664346
-0.592255
-0.307171
-0.167849
-0.0515256
-0.0092438
-0.0101193
-0.0364753
-0.0601087
-0.068648
-0.0681552
-0.0616834
-0.0528379
-0.0432192
-0.033924
-0.025538
-0.018202
-0.0124604
-0.00769853
-0.00514134
-0.665263
-0.594491
-0.306839
-0.172568
-0.0585715
-0.0170368
-0.0164138
-0.0381594
-0.0587809
-0.0660948
-0.065591
-0.0595731
-0.0513447
-0.0423184
-0.033564
-0.0256138
-0.0186713
-0.0131277
-0.00860273
-0.00596463
-0.665672
-0.596763
-0.306801
-0.177417
-0.0657505
-0.0247612
-0.022595
-0.0400754
-0.0578961
-0.0639895
-0.0633816
-0.05771
-0.0500095
-0.0415077
-0.033241
-0.0256905
-0.0191002
-0.0137424
-0.00944268
-0.0066556
-0.665558
-0.598973
-0.307041
-0.182303
-0.0729698
-0.0323303
-0.0286145
-0.0421642
-0.0573831
-0.0622723
-0.0614863
-0.0560689
-0.0488171
-0.040778
-0.0329498
-0.0257657
-0.0194882
-0.0143143
-0.0102039
-0.00727102
-0.664904
-0.600999
-0.307541
-0.187143
-0.0801524
-0.0396786
-0.0344379
-0.0443749
-0.0571796
-0.06089
-0.0598679
-0.0546266
-0.0477535
-0.0401208
-0.0326861
-0.0258366
-0.0198373
-0.0148471
-0.0108761
-0.00788948
-0.663697
-0.602691
-0.308281
-0.191864
-0.0872352
-0.0467579
-0.0400407
-0.0466639
-0.0572313
-0.0597954
-0.0584929
-0.0533616
-0.0468056
-0.0395282
-0.032446
-0.0259008
-0.0201508
-0.0153387
-0.0114762
-0.00847548
-0.661931
-0.603888
-0.309236
-0.196406
-0.0941663
-0.0535339
-0.0454064
-0.0489942
-0.0574907
-0.0589466
-0.057331
-0.0522542
-0.0459613
-0.0389932
-0.0322262
-0.0259567
-0.0204312
-0.0157879
-0.0120138
-0.00903629
-0.65961
-0.604415
-0.310382
-0.200717
-0.100904
-0.0599829
-0.0505246
-0.0513346
-0.0579167
-0.0583067
-0.0563549
-0.0512864
-0.0452093
-0.038509
-0.0320235
-0.0260028
-0.0206811
-0.0161941
-0.0124975
-0.00955858
-0.656752
-0.604107
-0.311687
-0.204758
-0.107413
-0.0660901
-0.0553889
-0.0536589
-0.0584734
-0.0578428
-0.0555398
-0.0504415
-0.0445393
-0.0380696
-0.031835
-0.0260381
-0.0209022
-0.0165579
-0.012932
-0.0100428
-0.653396
-0.602816
-0.31312
-0.208495
-0.113668
-0.0718474
-0.0599967
-0.0559454
-0.05913
-0.057526
-0.0548635
-0.0497044
-0.0439414
-0.0376693
-0.031658
-0.026062
-0.0210957
-0.0168809
-0.0133225
-0.0104813
-0.649602
-0.600426
-0.314649
-0.211906
-0.119647
-0.0772519
-0.0643476
-0.0581758
-0.0598596
-0.0573306
-0.0543058
-0.0490611
-0.0434068
-0.0373028
-0.0314899
-0.026074
-0.0212627
-0.0171648
-0.0136712
-0.0108769
-0.645455
-0.596868
-0.316238
-0.214975
-0.125334
-0.0823047
-0.0684433
-0.0603353
-0.060639
-0.0572337
-0.0538487
-0.0484987
-0.0429271
-0.0369651
-0.0313283
-0.0260736
-0.0214042
-0.0174118
-0.013981
-0.0112295
-0.641059
-0.592125
-0.317855
-0.217693
-0.130716
-0.0870102
-0.0722866
-0.0624114
-0.0614481
-0.0572155
-0.0534758
-0.0480056
-0.0424944
-0.0366516
-0.0311708
-0.0260603
-0.0215208
-0.0176237
-0.0142533
-0.0115422
-0.636538
-0.586236
-0.319469
-0.220058
-0.135786
-0.0913746
-0.0758813
-0.0643942
-0.0622694
-0.057258
-0.0531723
-0.0475709
-0.0421016
-0.0363581
-0.0310152
-0.0260338
-0.0216132
-0.0178024
-0.0144903
-0.0118169
-0.632027
-0.579296
-0.321052
-0.222074
-0.140539
-0.0954061
-0.0792322
-0.0662757
-0.063088
-0.0573455
-0.0529248
-0.0471848
-0.041742
-0.0360803
-0.0308596
-0.0259937
-0.0216819
-0.0179494
-0.0146934
-0.0120557
-0.627664
-0.571437
-0.322578
-0.223747
-0.144971
-0.0991138
-0.0823441
-0.0680493
-0.0638909
-0.057464
-0.0527214
-0.0468383
-0.0414093
-0.0358146
-0.030702
-0.0259395
-0.0217274
-0.0180662
-0.0148643
-0.0122606
-0.623582
-0.562825
-0.324027
-0.22509
-0.149083
-0.102508
-0.0852226
-0.0697101
-0.0646671
-0.0576013
-0.0525513
-0.0465232
-0.0410978
-0.0355573
-0.0305404
-0.0258707
-0.0217501
-0.0181541
-0.0150044
-0.0124331
-0.619899
-0.553635
-0.32538
-0.226115
-0.152876
-0.105598
-0.0878731
-0.0712541
-0.065407
-0.0577464
-0.0524047
-0.0462319
-0.0408022
-0.0353052
-0.0303731
-0.0257869
-0.0217504
-0.0182142
-0.0151151
-0.0125749
-0.616714
-0.544042
-0.326624
-0.226838
-0.156354
-0.108395
-0.0903016
-0.0726783
-0.0661022
-0.0578896
-0.0522728
-0.0459575
-0.0405175
-0.0350549
-0.0301985
-0.0256876
-0.0217285
-0.0182474
-0.0151977
-0.0126871
-0.614105
-0.534207
-0.327747
-0.227274
-0.159521
-0.11091
-0.0925136
-0.0739807
-0.0667459
-0.0580225
-0.0521478
-0.0456938
-0.0402391
-0.0348037
-0.030015
-0.0255722
-0.0216846
-0.0182548
-0.015253
-0.0127708
-0.612121
-0.524269
-0.32874
-0.22744
-0.162383
-0.113151
-0.0945149
-0.0751597
-0.067332
-0.0581375
-0.0520226
-0.0454349
-0.0399629
-0.0345488
-0.029821
-0.0254402
-0.021619
-0.0182371
-0.0152822
-0.0128269
-0.610794
-0.514342
-0.329595
-0.227352
-0.164947
-0.11513
-0.0963112
-0.0762146
-0.0678554
-0.058228
-0.0518908
-0.0451758
-0.039685
-0.0342876
-0.0296151
-0.0252911
-0.0215317
-0.018195
-0.015286
-0.0128563
-0.610129
-0.504514
-0.330305
-0.227025
-0.16722
-0.116856
-0.097908
-0.077145
-0.0683119
-0.0582882
-0.0517467
-0.0449117
-0.0394017
-0.0340178
-0.0293959
-0.0251244
-0.0214228
-0.018129
-0.0152652
-0.0128597
-0.61012
-0.49485
-0.330867
-0.226472
-0.169209
-0.118338
-0.0993106
-0.0779508
-0.0686977
-0.0583129
-0.0515852
-0.0446382
-0.0391098
-0.0337371
-0.0291623
-0.0249395
-0.0212924
-0.0180399
-0.0152203
-0.0128379
-0.610742
-0.485394
-0.331273
-0.225709
-0.170922
-0.119586
-0.100524
-0.0786325
-0.0690101
-0.0582978
-0.0514019
-0.0443514
-0.0388063
-0.0334435
-0.0289129
-0.0247359
-0.0211405
-0.0179279
-0.0151521
-0.0127918
-0.61196
-0.476174
-0.331521
-0.224747
-0.172366
-0.120607
-0.101554
-0.0791907
-0.0692464
-0.0582388
-0.0511926
-0.0440479
-0.0384884
-0.0331351
-0.0286467
-0.0245131
-0.0209671
-0.0177937
-0.0150608
-0.0127219
-0.613731
-0.467207
-0.331606
-0.223596
-0.17355
-0.121409
-0.102406
-0.0796263
-0.0694046
-0.0581327
-0.0509538
-0.0437244
-0.0381537
-0.0328102
-0.0283626
-0.0242707
-0.0207723
-0.0176374
-0.0149471
-0.0126291
-0.616003
-0.458498
-0.331524
-0.222265
-0.17448
-0.122002
-0.103083
-0.0799404
-0.0694833
-0.0579764
-0.0506823
-0.0433781
-0.0377998
-0.0324672
-0.0280597
-0.0240081
-0.0205559
-0.0174594
-0.0148112
-0.0125138
-0.618721
-0.450046
-0.331271
-0.220765
-0.175164
-0.12239
-0.103591
-0.0801341
-0.0694812
-0.0577676
-0.0503753
-0.0430064
-0.0374246
-0.0321047
-0.027737
-0.023725
-0.0203181
-0.01726
-0.0146534
-0.0123766
-0.621825
-0.441843
-0.330844
-0.2191
-0.17561
-0.122583
-0.103933
-0.080209
-0.0693974
-0.057504
-0.0500304
-0.042607
-0.0370264
-0.0317212
-0.0273937
-0.0234209
-0.0200588
-0.0170393
-0.0144742
-0.0122181
-0.625251
-0.433877
-0.330238
-0.217279
-0.175823
-0.122585
-0.104116
-0.0801664
-0.0692313
-0.0571838
-0.0496454
-0.0421779
-0.0366034
-0.0313157
-0.0270291
-0.0230955
-0.0197779
-0.0167976
-0.0142736
-0.0120386
-0.628934
-0.426132
-0.329451
-0.215305
-0.17581
-0.122403
-0.104141
-0.080008
-0.0689825
-0.0568057
-0.0492186
-0.0417173
-0.0361541
-0.0308871
-0.0266425
-0.0227485
-0.0194756
-0.0165349
-0.014052
-0.0118387
-0.632809
-0.418593
-0.328477
-0.213185
-0.175579
-0.122043
-0.104014
-0.0797352
-0.0686509
-0.0563682
-0.0487484
-0.0412236
-0.0356773
-0.0304344
-0.0262331
-0.0223795
-0.0191517
-0.0162515
-0.0138094
-0.0116187
-0.636808
-0.411238
-0.327313
-0.21092
-0.175134
-0.12151
-0.103739
-0.0793498
-0.0682367
-0.0558706
-0.0482334
-0.0406955
-0.0351718
-0.0299567
-0.0258006
-0.0219883
-0.0188063
-0.0159475
-0.0135462
-0.0113791
-0.640865
-0.404049
-0.325954
-0.208516
-0.174481
-0.120809
-0.103318
-0.0788534
-0.0677401
-0.0553119
-0.0476726
-0.0401318
-0.0346366
-0.0294533
-0.0253445
-0.0215747
-0.0184394
-0.0156229
-0.0132625
-0.0111201
-0.644913
-0.397002
-0.324396
-0.205972
-0.173626
-0.119945
-0.102757
-0.0782478
-0.0671615
-0.0546918
-0.0470651
-0.0395314
-0.0340708
-0.0289236
-0.0248643
-0.0211386
-0.018051
-0.0152778
-0.0129585
-0.0108421
-0.648887
-0.390077
-0.322633
-0.203293
-0.172574
-0.118921
-0.102058
-0.0775346
-0.0665016
-0.0540097
-0.0464103
-0.0388936
-0.0334737
-0.028367
-0.0243597
-0.0206797
-0.0176413
-0.0149124
-0.0126345
-0.0105456
-0.652723
-0.38325
-0.320663
-0.200477
-0.17133
-0.117742
-0.101226
-0.0767156
-0.0657611
-0.0532654
-0.0457076
-0.0382174
-0.0328449
-0.027783
-0.0238303
-0.020198
-0.0172102
-0.0145268
-0.0122908
-0.0102308
-0.65636
-0.376498
-0.31848
-0.197526
-0.169898
-0.116411
-0.100263
-0.0757923
-0.064941
-0.0524586
-0.044957
-0.0375024
-0.0321841
-0.0271713
-0.0232761
-0.0196934
-0.016758
-0.0141211
-0.0119276
-0.00989844
-0.659736
-0.3698
-0.316081
-0.194441
-0.168285
-0.114932
-0.0991734
-0.074766
-0.0640429
-0.0515893
-0.0441583
-0.0367482
-0.0314905
-0.0265318
-0.0226967
-0.0191662
-0.0162846
-0.0136955
-0.0115453
-0.00954898
-0.662795
-0.363132
-0.313461
-0.191219
-0.166494
-0.113308
-0.0979613
-0.0736377
-0.0630682
-0.0506576
-0.0433113
-0.0359551
-0.0307636
-0.0258642
-0.0220923
-0.0186165
-0.0157897
-0.0132499
-0.0111441
-0.0091826
-0.665482
-0.356471
-0.310617
-0.187862
-0.164531
-0.11154
-0.0966316
-0.0724088
-0.0620177
-0.0496647
-0.0424154
-0.0351237
-0.0300027
-0.0251679
-0.0214629
-0.0180445
-0.0152736
-0.0127847
-0.0107247
-0.00879857
-0.667743
-0.349798
-0.307547
-0.184366
-0.162401
-0.109629
-0.0951882
-0.071082
-0.060891
-0.048612
-0.0414709
-0.034253
-0.0292091
-0.024442
-0.0208096
-0.0174487
-0.0147373
-0.0123
-0.0102886
-0.0083946
-0.66953
-0.343089
-0.304246
-0.180731
-0.160111
-0.107578
-0.0936319
-0.0696611
-0.0596882
-0.0474988
-0.0404811
-0.0333386
-0.028387
-0.023684
-0.0201343
-0.0168267
-0.014183
-0.011796
-0.00983732
-0.00796778
-0.670797
-0.336324
-0.300714
-0.176951
-0.157667
-0.105392
-0.0919627
-0.068145
-0.0584181
-0.0463164
-0.0394552
-0.0323718
-0.0275428
-0.022892
-0.0194388
-0.0161765
-0.0136126
-0.0112728
-0.00937099
-0.00751842
-0.6715
-0.329484
-0.29695
-0.173026
-0.155069
-0.103073
-0.0901928
-0.0665163
-0.0571068
-0.0450457
-0.0384047
-0.0313469
-0.0266783
-0.0220686
-0.0187206
-0.0155019
-0.0130238
-0.0107327
-0.00888423
-0.00705506
-0.6716
-0.322547
-0.292954
-0.168955
-0.15232
-0.100604
-0.0883675
-0.064737
-0.0557891
-0.0436735
-0.0373249
-0.0302777
-0.0257793
-0.0212265
-0.0179682
-0.0148199
-0.0124044
-0.0101794
-0.008371
-0.00658558
-0.67106
-0.315496
-0.288729
-0.164729
-0.149448
-0.0979302
-0.0865527
-0.0627857
-0.0544504
-0.0422361
-0.0361744
-0.0292056
-0.0248226
-0.020371
-0.0171835
-0.0141217
-0.0117636
-0.00960852
-0.0078369
-0.00610615
-0.669847
-0.308309
-0.284271
-0.160319
-0.14653
-0.0950068
-0.0847377
-0.0607431
-0.0529579
-0.0408271
-0.0349406
-0.0281202
-0.02382
-0.0194944
-0.0163727
-0.0134025
-0.0111048
-0.00901817
-0.00728589
-0.00561356
-0.667932
-0.300971
-0.279578
-0.155666
-0.143643
-0.0919089
-0.0827117
-0.0587555
-0.0513248
-0.0394097
-0.0336401
-0.0270084
-0.0227822
-0.018591
-0.0155396
-0.0126608
-0.0104291
-0.00840861
-0.00671974
-0.00510645
-0.665289
-0.293468
-0.274667
-0.150746
-0.1407
-0.0887933
-0.0804574
-0.0567745
-0.0495803
-0.0379623
-0.0322874
-0.0258616
-0.0217153
-0.017659
-0.0146855
-0.0118971
-0.00973643
-0.00778087
-0.00613902
-0.00458473
-0.661895
-0.285783
-0.269608
-0.145686
-0.137437
-0.0857259
-0.0780166
-0.0547688
-0.0477489
-0.0364709
-0.0308917
-0.0246763
-0.0206218
-0.0166983
-0.0138109
-0.0111122
-0.00902661
-0.00713596
-0.00554389
-0.00404887
-0.657731
-0.277865
-0.26449
-0.140487
-0.133862
-0.0826597
-0.0754264
-0.0527165
-0.0458462
-0.034929
-0.0294577
-0.0234521
-0.0195026
-0.0157102
-0.0129155
-0.0103073
-0.00829969
-0.00647476
-0.0049345
-0.00349953
-0.652779
-0.269615
-0.259285
-0.135209
-0.13003
-0.0795604
-0.0727121
-0.0506056
-0.0438821
-0.0333342
-0.0279879
-0.0221898
-0.0183578
-0.0146958
-0.0119995
-0.00948326
-0.00755594
-0.00579794
-0.00431113
-0.00293736
-0.64703
-0.260988
-0.253782
-0.130009
-0.125983
-0.0764061
-0.0698913
-0.0484293
-0.0418629
-0.0316861
-0.0264836
-0.0208912
-0.0171873
-0.0136567
-0.0110631
-0.00864091
-0.00679579
-0.00510609
-0.00367415
-0.00236297
-0.640474
-0.252209
-0.247881
-0.124806
-0.12175
-0.0731834
-0.0669763
-0.0461847
-0.0397928
-0.0299863
-0.0249453
-0.0195579
-0.0159914
-0.0125939
-0.0101068
-0.00778095
-0.00601978
-0.00439976
-0.00302403
-0.00177695
-0.633108
-0.243401
-0.241529
-0.119558
-0.11735
-0.0698845
-0.0639763
-0.0438711
-0.0376746
-0.0282365
-0.0233737
-0.0181919
-0.0147703
-0.0115085
-0.00913106
-0.00690402
-0.00522846
-0.00367951
-0.00236129
-0.00117985
-0.624929
-0.234482
-0.234805
-0.11424
-0.1128
-0.0665047
-0.0608984
-0.0414891
-0.0355104
-0.0264392
-0.0217693
-0.0167949
-0.0135247
-0.0104014
-0.00813668
-0.00601081
-0.00442245
-0.00294591
-0.00168648
-0.000572284
-0.615947
-0.2254
-0.227751
-0.108837
-0.10811
-0.0630418
-0.057748
-0.0390405
-0.0333017
-0.0245969
-0.0201329
-0.0153684
-0.0122554
-0.00927373
-0.00712437
-0.00510198
-0.00360237
-0.00219956
-0.00100021
4.51242e-05
-0.606203
-0.216095
-0.220396
-0.103339
-0.103292
-0.0594954
-0.0545299
-0.0365278
-0.0310502
-0.0227118
-0.0184652
-0.0139139
-0.0109631
-0.00812624
-0.00609493
-0.00417824
-0.00276886
-0.0014411
-0.000303112
0.000671715
-0.595774
-0.20649
-0.21276
-0.097742
-0.0983525
-0.0558659
-0.0512479
-0.0339535
-0.0287574
-0.0207866
-0.0167675
-0.012433
-0.00964899
-0.00695993
-0.0050492
-0.00324033
-0.0019226
-0.000671185
0.000404159
0.00130692
-0.584655
-0.196593
-0.204859
-0.0920429
-0.0933005
-0.0521551
-0.0479055
-0.0313208
-0.0264247
-0.0188236
-0.0150409
-0.010927
-0.00831398
-0.00577573
-0.00398803
-0.00228898
-0.00106426
0.000109506
0.00112097
0.00195037
-0.572587
-0.186621
-0.196708
-0.0862407
-0.0881425
-0.0483651
-0.044506
-0.0286328
-0.024054
-0.016825
-0.0132868
-0.0093974
-0.00695923
-0.00457465
-0.00291231
-0.00132499
-0.000194568
0.00090029
0.00184673
0.00260179
-0.559556
-0.176601
-0.188319
-0.0803354
-0.0828849
-0.0444988
-0.0410524
-0.0258927
-0.0216468
-0.0147931
-0.0115066
-0.00784556
-0.00558589
-0.00335769
-0.00182295
-0.000349132
0.000685769
0.00170052
0.0025809
0.00326064
-0.545681
-0.166453
-0.179703
-0.0743281
-0.0775337
-0.0405593
-0.0375478
-0.0231038
-0.0192051
-0.0127302
-0.00970186
-0.00627292
-0.00419515
-0.00212591
-0.000720882
0.000637761
0.00157603
0.00250955
0.00332286
0.00392573
-0.531005
-0.15615
-0.170872
-0.0682204
-0.0720947
-0.03655
-0.0339952
-0.0202692
-0.0167309
-0.0106384
-0.00787409
-0.00468094
-0.00278823
-0.000880367
0.000392932
0.00163486
0.00247547
0.00332674
0.00407185
0.00459568
-0.515557
-0.14568
-0.161837
-0.062015
-0.0665735
-0.0324749
-0.0303976
-0.0173924
-0.0142262
-0.00851999
-0.006025
-0.00307109
-0.0013664
0.000377826
0.00151752
0.00264131
0.00338334
0.0041513
0.004827
0.00527014
-0.499366
-0.135037
-0.152608
-0.0557151
-0.0609757
-0.0283378
-0.0267581
-0.0144766
-0.0116932
-0.00637709
-0.00415626
-0.00144487
6.90743e-05
0.00164755
0.00265188
0.00365625
0.0042988
0.00498233
0.00558754
0.00595065
-0.482462
-0.124221
-0.143196
-0.0493243
-0.0553069
-0.0241429
-0.0230799
-0.011525
-0.00913413
-0.0042119
-0.00226964
0.000196199
0.00151687
0.00292765
0.00379502
0.0046788
0.00522102
0.00581898
0.00635305
0.00663883
-0.464874
-0.113235
-0.133612
-0.0428472
-0.0495725
-0.0198944
-0.0193662
-0.00854098
-0.00655138
-0.0020266
-0.000366894
0.00185058
0.00297566
0.00421698
0.00494591
0.00570807
0.00614919
0.00666066
0.0071233
0.00733256
-0.446634
-0.102081
-0.123868
-0.0362883
-0.0437782
-0.0155968
-0.0156203
-0.00552773
-0.00394733
0.000176605
0.00155016
0.0035167
0.00444409
0.00551433
0.0061035
0.00674311
0.00708256
0.00750709
0.00789795
0.00802587
-0.427773
-0.090766
-0.113974
-0.0296531
-0.0379297
-0.0112546
-0.0118455
-0.00248855
-0.00132443
0.0023955
0.00347968
0.00519298
0.00592078
0.00681851
0.00726669
0.00778296
0.00802039
0.00835801
0.00867664
0.00871735
-0.408322
-0.0792971
-0.103943
-0.0229471
-0.0320326
-0.00687236
-0.0080455
0.0005733
0.00131479
0.00462785
0.0054198
0.00687782
0.00740435
0.00812829
0.00843439
0.00882657
0.00896178
0.00921277
0.00945983
0.00941909
-0.388318
-0.067683
-0.0937859
-0.0161762
-0.0260929
-0.00245474
-0.00422368
0.00365453
0.00396778
0.00687143
0.00736864
0.00856958
0.00889339
0.00944243
0.00960544
0.00987291
0.00990573
0.0100702
0.0102485
0.010147
-0.367793
-0.0559333
-0.0835149
-0.00934689
-0.0201164
0.0019935
-0.000383745
0.00675186
0.00663194
0.00912397
0.00932429
0.0102666
0.0103865
0.0107597
0.0107787
0.0109211
0.0108514
0.010929
0.0110404
0.0108897
-0.346785
-0.0440584
-0.0731425
-0.0024657
-0.0141092
0.00646755
0.00347061
0.00986199
0.00930463
0.0113832
0.0112848
0.0119674
0.0118822
0.0120787
0.0119532
0.0119702
0.0117981
0.0117875
0.0118262
0.0115962
-0.325331
-0.0320701
-0.0626813
0.00446045
-0.00807736
0.0109625
0.00733561
0.0129816
0.0119832
0.0136469
0.0132483
0.0136701
0.013379
0.0133983
0.0131278
0.0130197
0.0127451
0.0126434
0.0125945
0.0122319
-0.303468
-0.0199805
-0.052144
0.0114244
-0.00202717
0.0154735
0.0112074
0.0161074
0.0146649
0.0159126
0.0152128
0.0153731
0.0148755
0.0147172
0.0143016
0.0140685
0.013691
0.0134952
0.0133501
0.012868
-0.281235
-0.0078027
-0.0415437
0.0184187
0.00403509
0.0199956
0.0150822
0.0192361
0.017347
0.0181782
0.0171764
0.0170747
0.0163703
0.0160342
0.0154732
0.0151148
0.014633
0.0143447
0.014128
0.0136605
-0.258672
0.00444963
-0.0308937
0.0254358
0.010103
0.0245237
0.0189559
0.0223643
0.0200269
0.0204413
0.019137
0.0187733
0.0178618
0.0173479
0.0166414
0.0161563
0.0155689
0.0151987
0.0149694
0.0146612
-0.235819
0.0167624
-0.0202074
0.0324679
0.01617
0.0290527
0.0228246
0.0254887
0.0227018
0.0226996
0.0210927
0.0204671
0.0193487
0.0186572
0.0178047
0.0171911
0.0164986
0.0160637
0.015861
0.0156489
-0.212717
0.0291208
-0.00949849
0.039507
0.0222297
0.0335777
0.0266843
0.028606
0.0253688
0.0249508
0.0230416
0.0221546
0.0208294
0.0199606
0.0189614
0.0182183
0.0174253
0.0169357
0.0167069
0.0162616
-0.189407
0.0415093
0.00121934
0.0465449
0.0282753
0.0380935
0.0305309
0.0317127
0.0280253
0.0271926
0.0249816
0.0238339
0.0223026
0.0212569
0.0201104
0.0192386
0.0183521
0.0177972
0.0174028
0.016441
-0.165932
0.0539124
0.0119321
0.0535734
0.0343002
0.042595
0.0343605
0.0348057
0.0306684
0.0294226
0.0269109
0.0255035
0.0237669
0.0225446
0.0212509
0.0202533
0.0192781
0.0186271
0.0179464
0.0165249
-0.142332
0.066314
0.0226259
0.0605841
0.0402976
0.0470771
0.0381688
0.0378815
0.0332955
0.0316386
0.0288273
0.0271617
0.0252206
0.0238225
0.0223823
0.0212627
0.0201975
0.0194141
0.0184422
0.0172219
-0.118652
0.0786979
0.0332865
0.0675686
0.0462608
0.0515346
0.0419518
0.0409368
0.0359037
0.0338382
0.0307291
0.0288067
0.0266624
0.0250892
0.0235041
0.0222655
0.0211033
0.0201676
0.0189976
0.0180223
-0.0949315
0.0910474
0.0438999
0.0745183
0.052183
0.0559624
0.0457055
0.0439683
0.0384902
0.0360192
0.0326141
0.0304371
0.0280908
0.0263438
0.0246157
0.02326
0.0219923
0.0209044
0.0196189
0.0188088
-0.0712151
0.103346
0.0544518
0.0814247
0.0580574
0.0603554
0.0494256
0.0469727
0.0410524
0.0381793
0.0344805
0.032051
0.0295044
0.0275851
0.0257164
0.0242438
0.0228642
0.021637
0.0202862
0.0195554
-0.0475446
0.115576
0.064928
0.0882789
0.0638771
0.0647084
0.0531082
0.0499466
0.0435875
0.0403161
0.0363265
0.033647
0.0309017
0.0288121
0.0268049
0.0252149
0.0237205
0.0223705
0.0209776
0.0202659
-0.0239627
0.127721
0.0753144
0.0950725
0.0696354
0.0690164
0.0567492
0.052887
0.0460928
0.0424276
0.0381499
0.0352232
0.0322814
0.0300237
0.0278799
0.0261721
0.0245628
0.0231055
0.0216771
0.020946
-0.000511406
0.139763
0.0855967
0.101797
0.0753255
0.0732743
0.0603444
0.0557904
0.0485656
0.0445114
0.039949
0.0367781
0.0336421
0.0312188
0.0289403
0.0271144
0.0253925
0.0238401
0.0223755
0.0216028
0.0227672
0.151685
0.095761
0.108443
0.0809406
0.077477
0.06389
0.0586537
0.0510033
0.0465653
0.041722
0.0383102
0.0349825
0.0323962
0.0299846
0.0280411
0.0262102
0.0245715
0.0230668
0.0222396
0.0458314
0.163471
0.105793
0.115003
0.086474
0.0816196
0.0673819
0.0614737
0.0534031
0.0485872
0.0434668
0.0398178
0.0363013
0.0335547
0.0310119
0.0289516
0.0270157
0.025297
0.0237483
0.0228589
0.0686401
0.175102
0.115679
0.121467
0.0919191
0.0856972
0.0708162
0.0642473
0.0557625
0.0505749
0.0451818
0.0412995
0.0375972
0.0346931
0.0320209
0.0298454
0.0278085
0.026014
0.024418
0.0234619
0.0911526
0.186561
0.125406
0.127828
0.0972693
0.0897049
0.074189
0.0669714
0.058079
0.0525263
0.046865
0.0427536
0.0388688
0.0358103
0.0330106
0.0307221
0.0285879
0.0267207
0.0250748
0.024049
0.113329
0.197832
0.134959
0.134076
0.102518
0.0936378
0.0774964
0.069643
0.0603499
0.0544394
0.0485148
0.0441788
0.0401149
0.0369051
0.0339801
0.0315808
0.0293529
0.0274153
0.0257177
0.0246205
0.135129
0.208898
0.144326
0.140205
0.107659
0.0974913
0.0807347
0.072259
0.062573
0.056312
0.0501294
0.0455735
0.0413343
0.0379764
0.0349284
0.0324209
0.0301025
0.0280964
0.0263459
0.0251763
0.156514
0.219742
0.153493
0.146204
0.112686
0.101261
0.0839002
0.0748165
0.0647456
0.0581422
0.0517072
0.0469363
0.0425256
0.0390231
0.0358546
0.0332417
0.0308358
0.0287629
0.0269587
0.0257161
0.177447
0.230348
0.162447
0.152067
0.117593
0.104941
0.0869892
0.0773127
0.0668654
0.0599281
0.0532463
0.0482658
0.0436877
0.040044
0.0367578
0.0340423
0.0315518
0.0294138
0.0275555
0.0262399
0.197891
0.240699
0.171176
0.157786
0.122373
0.108529
0.0899982
0.0797447
0.0689301
0.0616676
0.0547453
0.0495606
0.0448193
0.0410382
0.0376372
0.0348221
0.0322496
0.0300481
0.0281357
0.0267474
0.217808
0.25078
0.179668
0.163352
0.127021
0.112019
0.0929238
0.0821098
0.0709374
0.063359
0.0562025
0.0508194
0.0459194
0.0420046
0.0384919
0.0355802
0.0329285
0.030665
0.0286987
0.0272384
0.237164
0.260576
0.18791
0.168759
0.131531
0.115407
0.0957624
0.0844054
0.0728852
0.0650004
0.0576164
0.0520409
0.0469867
0.0429423
0.0393211
0.0363158
0.0335875
0.0312638
0.029244
0.0277125
0.255924
0.270071
0.19589
0.173998
0.135897
0.118689
0.0985109
0.0866287
0.0747712
0.06659
0.0589855
0.0532238
0.0480202
0.0438503
0.0401239
0.0370282
0.0342259
0.0318436
0.0297711
0.0281696
0.274055
0.279251
0.203598
0.179063
0.140114
0.121862
0.101166
0.0887774
0.0765934
0.0681262
0.0603084
0.054367
0.0490188
0.0447277
0.0408995
0.0377166
0.034843
0.0324039
0.0302793
0.0286095
0.291526
0.288101
0.211022
0.183947
0.144177
0.124921
0.103725
0.090849
0.0783497
0.0696073