/*--------------------------------*- C++ -*----------------------------------*\
  =========                 |
  \\      /  F ield         | OpenFOAM: The Open Source CFD Toolbox
   \\    /   O peration     | Website:  https://openfoam.org
    \\  /    A nd           | Version:  7
     \\/     M anipulation  |
\*---------------------------------------------------------------------------*/
FoamFile
{
    version     2.0;
    format      ascii;
    class       volScalarField;
    location    "0.313";
    object      p;
}
// * * * * * * * * * * * * * * * * * * * * * * * * * * * * * * * * * * * * * //

dimensions      [0 2 -2 0 0 0 0];

internalField   nonuniform List<scalar> 
40000
(
1.36466e-06
9.46644e-05
0.000154349
0.000138766
3.27998e-05
-0.00016804
-0.000461543
-0.000841934
-0.00130187
-0.00183337
-0.00242834
-0.00307883
-0.00377721
-0.00451627
-0.00528917
-0.00608951
-0.00691129
-0.00774891
-0.00859717
-0.00945122
-0.0103065
-0.0111588
-0.0120042
-0.012839
-0.0136597
-0.0144632
-0.0152465
-0.0160068
-0.0167417
-0.0174486
-0.0181256
-0.0187704
-0.0193813
-0.0199565
-0.0204944
-0.0209937
-0.0214529
-0.021871
-0.0222468
-0.0225793
-0.0228678
-0.0231113
-0.0233093
-0.0234611
-0.0235663
-0.0236244
-0.0236352
-0.0235983
-0.0235137
-0.0233811
-0.0232005
-0.022972
-0.0226956
-0.0223714
-0.0219997
-0.0215808
-0.0211148
-0.0206022
-0.0200433
-0.0194387
-0.0187887
-0.018094
-0.0173552
-0.0165728
-0.0157475
-0.0148801
-0.0139712
-0.0130216
-0.0120322
-0.0110036
-0.00993694
-0.00883293
-0.00769257
-0.00651682
-0.00530668
-0.00406315
-0.00278728
-0.00148013
-0.000142788
0.00122364
0.00261802
0.0040392
0.00548599
0.00695721
0.00845163
0.00996803
0.0115052
0.0130617
0.0146365
0.0162281
0.0178352
0.0194565
0.0210907
0.0227364
0.0243923
0.0260569
0.0277289
0.0294069
0.0310895
0.0327752
0.0344626
0.0361503
0.037837
0.039521
0.0412011
0.0428757
0.0445435
0.046203
0.0478527
0.0494912
0.0511171
0.052729
0.0543255
0.055905
0.0574662
0.0590078
0.0605283
0.0620264
0.0635006
0.0649497
0.0663724
0.0677672
0.069133
0.0704685
0.0717724
0.0730435
0.0742806
0.0754825
0.0766481
0.0777763
0.078866
0.0799162
0.0809258
0.0818939
0.0828196
0.0837019
0.0845401
0.0853333
0.0860807
0.0867818
0.0874358
0.0880421
0.0886001
0.0891095
0.0895697
0.0899804
0.0903413
0.0906522
0.0909128
0.0911232
0.0912832
0.0913929
0.0914524
0.091462
0.0914219
0.0913326
0.0911944
0.091008
0.0907739
0.0904931
0.0901662
0.0897942
0.0893783
0.0889195
0.0884193
0.0878789
0.0873
0.0866842
0.0860333
0.0853493
0.0846343
0.0838905
0.0831204
0.0823265
0.0815116
0.0806787
0.079831
0.0789717
0.0781046
0.0772333
0.0763621
0.0754952
0.0746372
0.0737932
0.0729683
0.0721681
0.0713986
0.0706659
0.0699768
0.0693382
0.0687574
0.068242
0.0677995
0.0674373
0.067162
0.0669786
0.0668879
0.0668841
0.0669505
0.0670441
-9e-05
2.49472e-06
3.82686e-05
1.46416e-06
-0.000111609
-0.000305187
-0.000579081
-0.000929676
-0.0013517
-0.00183903
-0.00238512
-0.00298325
-0.00362679
-0.00430928
-0.00502457
-0.00576681
-0.00653046
-0.00731029
-0.00810138
-0.00889913
-0.0096992
-0.0104976
-0.0112904
-0.0120741
-0.0128454
-0.0136012
-0.0143385
-0.0150547
-0.0157472
-0.0164138
-0.0170522
-0.0176605
-0.0182368
-0.0187794
-0.0192867
-0.0197573
-0.0201898
-0.0205831
-0.0209361
-0.0212478
-0.0215173
-0.0217438
-0.0219266
-0.0220652
-0.0221589
-0.0222074
-0.0222104
-0.0221675
-0.0220786
-0.0219434
-0.021762
-0.0215343
-0.0212604
-0.0209403
-0.0205743
-0.0201626
-0.0197054
-0.0192031
-0.018656
-0.0180645
-0.0174292
-0.0167504
-0.0160289
-0.0152652
-0.0144599
-0.0136136
-0.0127272
-0.0118012
-0.0108366
-0.00983395
-0.00879425
-0.00771831
-0.00660706
-0.00546143
-0.00428236
-0.00307086
-0.00182792
-0.000554563
0.000748147
0.00207914
0.0034373
0.00482152
0.00623065
0.00766352
0.00911897
0.0105958
0.0120927
0.0136086
0.0151422
0.0166921
0.0182571
0.0198359
0.0214273
0.0230298
0.0246421
0.026263
0.0278911
0.0295249
0.0311632
0.0328044
0.0344474
0.0360906
0.0377327
0.0393723
0.041008
0.0426383
0.0442619
0.0458775
0.0474835
0.0490786
0.0506614
0.0522305
0.0537846
0.0553222
0.056842
0.0583426
0.0598227
0.0612809
0.062716
0.0641266
0.0655115
0.0668694
0.068199
0.0694991
0.0707685
0.072006
0.0732105
0.0743808
0.0755159
0.0766147
0.077676
0.078699
0.0796827
0.0806261
0.0815284
0.0823886
0.083206
0.0839799
0.0847094
0.085394
0.0860331
0.086626
0.0871723
0.0876714
0.0881231
0.0885269
0.0888826
0.08919
0.089449
0.0896594
0.0898213
0.0899348
0.0899999
0.090017
0.0899863
0.0899083
0.0897834
0.0896121
0.0893953
0.0891335
0.0888277
0.0884789
0.088088
0.0876564
0.0871852
0.0866759
0.08613
0.0855492
0.0849352
0.0842901
0.0836157
0.0829145
0.0821887
0.081441
0.0806739
0.0798904
0.0790936
0.0782867
0.0774732
0.0766568
0.0758415
0.0750313
0.0742307
0.0734443
0.0726771
0.0719342
0.0712212
0.0705437
0.0699078
0.0693195
0.0687852
0.0683113
0.0679037
0.0675682
0.0673094
0.06713
0.0670294
0.0670024
0.067044
0.0671376
-0.000149365
-3.318e-05
2.63542e-06
-4.0147e-05
-0.000154023
-0.000340942
-0.000600696
-0.000930267
-0.00132529
-0.00178064
-0.0022907
-0.00284964
-0.00345158
-0.00409073
-0.00476144
-0.00545834
-0.00617626
-0.00691033
-0.00765589
-0.00840858
-0.00916427
-0.00991906
-0.0106693
-0.0114115
-0.0121425
-0.0128592
-0.0135588
-0.0142386
-0.0148963
-0.0155295
-0.0161362
-0.0167142
-0.0172618
-0.0177772
-0.018259
-0.0187056
-0.0191158
-0.0194885
-0.0198224
-0.0201166
-0.0203702
-0.0205824
-0.0207525
-0.0208798
-0.0209639
-0.0210043
-0.0210007
-0.0209527
-0.0208601
-0.0207228
-0.0205407
-0.0203137
-0.0200418
-0.0197252
-0.019364
-0.0189583
-0.0185086
-0.0180149
-0.0174777
-0.0168974
-0.0162744
-0.0156092
-0.0149024
-0.0141545
-0.0133661
-0.0125378
-0.0116704
-0.0107645
-0.00982084
-0.00884022
-0.00782344
-0.00677135
-0.00568483
-0.00456478
-0.00341213
-0.00222784
-0.00101288
0.000231744
0.00150501
0.00280586
0.00413323
0.00548602
0.00686311
0.00826338
0.00968567
0.0111288
0.0125916
0.0140729
0.0155714
0.0170859
0.0186151
0.0201577
0.0217126
0.0232784
0.0248538
0.0264374
0.0280281
0.0296244
0.031225
0.0328285
0.0344337
0.036039
0.0376433
0.0392451
0.040843
0.0424357
0.0440219
0.0456001
0.047169
0.0487272
0.0502734
0.0518062
0.0533243
0.0548263
0.0563109
0.0577768
0.0592226
0.0606471
0.062049
0.063427
0.0647798
0.0661063
0.0674053
0.0686754
0.0699156
0.0711247
0.0723016
0.0734452
0.0745545
0.0756283
0.0766657
0.0776658
0.0786275
0.07955
0.0804325
0.0812741
0.082074
0.0828315
0.083546
0.0842167
0.0848432
0.0854248
0.0859612
0.0864517
0.0868962
0.0872942
0.0876456
0.0879501
0.0882076
0.0884181
0.0885816
0.0886982
0.0887681
0.0887915
0.0887687
0.0887001
0.0885863
0.0884278
0.0882252
0.0879795
0.0876913
0.0873617
0.0869918
0.0865827
0.0861356
0.0856521
0.0851336
0.0845818
0.0839984
0.0833853
0.0827446
0.0820784
0.0813891
0.0806791
0.0799512
0.079208
0.0784527
0.0776883
0.0769183
0.0761462
0.0753757
0.0746108
0.0738558
0.0731151
0.0723932
0.0716952
0.0710259
0.0703907
0.0697951
0.0692445
0.0687446
0.0683008
0.0679184
0.0676019
0.0673552
0.0671806
0.0670777
0.0670439
0.0670856
0.067204
-0.000133996
3.59234e-06
4.56074e-05
2.94658e-06
-0.000109388
-0.000290961
-0.000540724
-0.000855488
-0.00123114
-0.00166303
-0.00214612
-0.00267516
-0.00324485
-0.0038499
-0.00448514
-0.00514555
-0.00582635
-0.00652294
-0.00723097
-0.00794628
-0.00866493
-0.00938319
-0.0100975
-0.0108046
-0.0115013
-0.0121847
-0.012852
-0.0135008
-0.0141285
-0.0147329
-0.015312
-0.0158638
-0.0163864
-0.0168783
-0.0173378
-0.0177636
-0.0181543
-0.0185088
-0.018826
-0.0191049
-0.0193445
-0.0195441
-0.019703
-0.0198205
-0.019896
-0.0199293
-0.0199198
-0.0198673
-0.0197715
-0.0196323
-0.0194495
-0.0192231
-0.018953
-0.0186395
-0.0182825
-0.0178823
-0.0174391
-0.0169532
-0.0164249
-0.0158545
-0.0152425
-0.0145894
-0.0138956
-0.0131618
-0.0123884
-0.0115762
-0.0107258
-0.00983779
-0.00891293
-0.00795195
-0.00695566
-0.00592488
-0.00486046
-0.00376328
-0.00263426
-0.00147431
-0.000284382
0.000934544
0.00218147
0.00345536
0.00475517
0.00607983
0.00742825
0.00879933
0.0101919
0.0116049
0.0130372
0.0144875
0.0159546
0.0174373
0.0189345
0.0204448
0.021967
0.0234999
0.0250422
0.0265926
0.0281498
0.0297125
0.0312794
0.0328492
0.0344205
0.035992
0.0375624
0.0391304
0.0406946
0.0422537
0.0438063
0.0453512
0.0468869
0.0484122
0.0499257
0.0514261
0.0529121
0.0543823
0.0558355
0.0572704
0.0586856
0.06008
0.0614522
0.0628011
0.0641255
0.065424
0.0666956
0.0679391
0.0691533
0.0703371
0.0714894
0.0726092
0.0736955
0.0747471
0.0757633
0.0767429
0.0776852
0.0785892
0.079454
0.0802791
0.0810634
0.0818065
0.0825075
0.083166
0.0837813
0.0843529
0.0848804
0.0853634
0.0858015
0.0861944
0.0865418
0.0868438
0.0871
0.0873106
0.0874755
0.0875949
0.0876689
0.0876978
0.0876819
0.0876216
0.0875175
0.0873701
0.0871802
0.0869484
0.0866756
0.0863628
0.0860111
0.0856216
0.0851956
0.0847345
0.0842398
0.083713
0.083156
0.0825706
0.0819588
0.0813227
0.0806647
0.0799871
0.0792925
0.0785837
0.0778635
0.0771351
0.0764016
0.0756665
0.0749335
0.0742063
0.0734888
0.0727854
0.0721004
0.0714383
0.070804
0.0702021
0.0696378
0.0691161
0.068642
0.0682205
0.0678561
0.0675533
0.0673154
0.0671454
0.0670436
0.0670099
0.0670587
0.0672005
-2.84484e-05
0.000116635
0.000159744
0.000115776
3.52929e-06
-0.000174914
-0.000417689
-0.000721327
-0.0010818
-0.00149476
-0.00195559
-0.00245951
-0.00300167
-0.00357724
-0.00418144
-0.00480965
-0.0054574
-0.00612042
-0.00679459
-0.00747598
-0.00816085
-0.00884562
-0.00952692
-0.0102016
-0.0108665
-0.0115189
-0.0121562
-0.0127758
-0.0133754
-0.0139528
-0.014506
-0.015033
-0.0155321
-0.0160017
-0.0164401
-0.0168461
-0.0172183
-0.0175556
-0.0178568
-0.018121
-0.0183474
-0.0185349
-0.0186831
-0.0187911
-0.0188586
-0.018885
-0.0188699
-0.0188131
-0.0187142
-0.0185731
-0.0183897
-0.0181639
-0.0178956
-0.017585
-0.0172322
-0.0168373
-0.0164005
-0.015922
-0.0154022
-0.0148415
-0.0142402
-0.0135987
-0.0129177
-0.0121975
-0.0114388
-0.0106422
-0.00980824
-0.0089376
-0.00803097
-0.00708907
-0.00611268
-0.00510261
-0.00405967
-0.00298473
-0.00187866
-0.000742366
0.000423228
0.00161717
0.00283848
0.00408615
0.00535916
0.00665647
0.00797701
0.0093197
0.0106834
0.0120671
0.0134696
0.0148898
0.0163264
0.0177783
0.0192443
0.0207231
0.0222136
0.0237145
0.0252246
0.0267427
0.0282673
0.0297974
0.0313315
0.0328684
0.0344069
0.0359455
0.037483
0.0390182
0.0405496
0.042076
0.0435961
0.0451086
0.0466121
0.0481054
0.0495871
0.0510561
0.0525109
0.0539503
0.055373
0.0567778
0.0581634
0.0595286
0.0608721
0.0621928
0.0634894
0.0647609
0.066006
0.0672236
0.0684126
0.069572
0.0707005
0.0717973
0.0728613
0.0738915
0.0748871
0.075847
0.0767704
0.0776564
0.0785043
0.0793133
0.0800827
0.0808118
0.0814999
0.0821465
0.082751
0.083313
0.083832
0.0843076
0.0847394
0.0851274
0.0854711
0.0857705
0.0860256
0.0862362
0.0864024
0.0865244
0.0866023
0.0866364
0.0866271
0.0865747
0.0864799
0.0863431
0.086165
0.0859465
0.0856883
0.0853915
0.0850571
0.0846862
0.0842801
0.0838401
0.0833678
0.0828648
0.0823326
0.0817732
0.0811885
0.0805807
0.0799519
0.0793044
0.0786409
0.0779639
0.0772763
0.076581
0.0758811
0.07518
0.074481
0.0737879
0.0731044
0.0724345
0.0717822
0.071152
0.0705481
0.0699751
0.0694376
0.0689402
0.0684875
0.0680841
0.0677341
0.0674416
0.0672102
0.067043
0.0669413
0.0669069
0.0669583
0.0671104
0.000171836
0.000310275
0.000347107
0.000297996
0.000182685
4.19666e-06
-0.000235023
-0.000531307
-0.000880704
-0.00127908
-0.00172214
-0.00220547
-0.00272461
-0.00327513
-0.00385264
-0.00445286
-0.00507163
-0.00570494
-0.00634894
-0.00699992
-0.00765432
-0.00830874
-0.00895996
-0.00960491
-0.0102407
-0.0108646
-0.0114741
-0.0120667
-0.0126402
-0.0131925
-0.0137215
-0.0142254
-0.0147025
-0.0151511
-0.0155698
-0.0159571
-0.0163119
-0.0166329
-0.0169191
-0.0171695
-0.0173832
-0.0175594
-0.0176974
-0.0177965
-0.0178562
-0.0178761
-0.0178558
-0.0177948
-0.0176931
-0.0175503
-0.0173663
-0.0171411
-0.0168746
-0.0165668
-0.016218
-0.0158282
-0.0153975
-0.0149263
-0.0144148
-0.0138633
-0.0132723
-0.0126421
-0.0119733
-0.0112664
-0.0105218
-0.00974023
-0.00892218
-0.00806831
-0.00717928
-0.00625581
-0.00529865
-0.00430857
-0.00328639
-0.00223294
-0.00114905
-3.56224e-05
0.00110645
0.00227625
0.0034728
0.00469512
0.00594222
0.00721308
0.00850666
0.0098219
0.0111577
0.0125131
0.0138868
0.0152779
0.016685
0.018107
0.0195429
0.0209913
0.0224511
0.0239211
0.0254001
0.0268868
0.0283801
0.0298785
0.031381
0.0328862
0.0343929
0.0358997
0.0374055
0.0389089
0.0404087
0.0419035
0.0433922
0.0448734
0.0463458
0.0478082
0.0492593
0.0506979
0.0521226
0.0535323
0.0549256
0.0563014
0.0576584
0.0589954
0.0603113
0.0616048
0.0628748
0.0641202
0.0653398
0.0665325
0.0676973
0.068833
0.0699387
0.0710133
0.0720559
0.0730655
0.0740412
0.0749822
0.0758874
0.0767563
0.0775879
0.0783815
0.0791364
0.079852
0.0805277
0.0811629
0.0817571
0.0823098
0.0828206
0.0832891
0.0837151
0.0840982
0.0844383
0.0847353
0.0849891
0.0851997
0.0853671
0.0854915
0.0855731
0.0856122
0.085609
0.0855641
0.085478
0.0853511
0.0851843
0.0849783
0.0847339
0.0844521
0.0841339
0.0837804
0.083393
0.0829729
0.0825216
0.0820406
0.0815316
0.0809965
0.080437
0.0798554
0.0792536
0.078634
0.0779991
0.0773514
0.0766936
0.0760285
0.0753592
0.0746888
0.0740206
0.073358
0.0727047
0.0720644
0.071441
0.0708384
0.0702608
0.0697123
0.0691973
0.0687199
0.0682844
0.0678949
0.0675556
0.0672701
0.0670421
0.066875
0.0667708
0.0667322
0.0667792
0.0669279
0.000464803
0.000584417
0.000607567
0.000548637
0.000426294
0.000243998
4.55215e-06
-0.0002883
-0.000630714
-0.00101877
-0.00144843
-0.0019156
-0.00241616
-0.00294603
-0.00350116
-0.00407759
-0.00467145
-0.00527898
-0.00589658
-0.00652073
-0.00714809
-0.00777541
-0.00839964
-0.00901783
-0.00962724
-0.0102252
-0.0108094
-0.0113774
-0.011927
-0.0124561
-0.0129629
-0.0134454
-0.0139021
-0.0143313
-0.0147315
-0.0151016
-0.0154401
-0.015746
-0.0160181
-0.0162556
-0.0164575
-0.016623
-0.0167515
-0.0168422
-0.0168947
-0.0169085
-0.0168832
-0.0168185
-0.016714
-0.0165696
-0.0163852
-0.0161606
-0.0158958
-0.0155909
-0.0152459
-0.0148609
-0.0144362
-0.0139719
-0.0134683
-0.0129257
-0.0123445
-0.0117252
-0.0110682
-0.0103739
-0.00964287
-0.00887567
-0.00807287
-0.00723507
-0.00636292
-0.00545713
-0.00451841
-0.00354752
-0.00254525
-0.0015124
-0.000449804
0.000641691
0.0017612
0.00290782
0.00408061
0.00527861
0.00650084
0.00774631
0.00901401
0.0103029
0.011612
0.0129401
0.0142863
0.0156493
0.0170281
0.0184216
0.0198285
0.0212477
0.022678
0.0241184
0.0255675
0.0270242
0.0284873
0.0299555
0.0314276
0.0329023
0.0343785
0.0358549
0.0373302
0.0388032
0.0402726
0.0417372
0.0431958
0.044647
0.0460896
0.0475224
0.0489442
0.0503537
0.0517496
0.0531308
0.054496
0.055844
0.0571736
0.0584837
0.0597731
0.0610406
0.0622852
0.0635056
0.0647008
0.0658697
0.0670113
0.0681245
0.0692083
0.0702618
0.0712839
0.0722739
0.0732307
0.0741535
0.0750415
0.0758939
0.0767099
0.0774888
0.07823
0.0789328
0.0795966
0.0802209
0.0808052
0.0813491
0.0818521
0.0823139
0.0827341
0.0831127
0.0834493
0.083744
0.0839965
0.084207
0.0843755
0.0845021
0.0845871
0.0846308
0.0846334
0.0845954
0.0845174
0.0843998
0.0842435
0.0840491
0.0838175
0.0835497
0.0832465
0.0829093
0.0825392
0.0821374
0.0817055
0.0812449
0.0807574
0.0802445
0.0797083
0.0791506
0.0785735
0.0779794
0.0773705
0.0767493
0.0761184
0.0754806
0.0748386
0.0741956
0.0735547
0.0729191
0.0722922
0.0716777
0.071079
0.0705
0.0699444
0.0694162
0.0689193
0.0684577
0.0680352
0.0676558
0.0673232
0.0670411
0.0668131
0.0666427
0.0665324
0.0664854
0.0665209
0.066654
0.000844882
0.000935598
0.000938214
0.000864599
0.00073098
0.000540939
0.000297435
4.16482e-06
-0.00033517
-0.000716874
-0.00113718
-0.00159228
-0.00207835
-0.00259163
-0.00312837
-0.00368491
-0.00425765
-0.00484308
-0.00543779
-0.0060385
-0.00664204
-0.00724535
-0.00784551
-0.00843973
-0.00902539
-0.00959999
-0.0101612
-0.0107067
-0.0112345
-0.0117424
-0.0122287
-0.0126916
-0.0131295
-0.0135408
-0.013924
-0.014278
-0.0146015
-0.0148933
-0.0151524
-0.0153778
-0.0155687
-0.0157242
-0.0158438
-0.0159267
-0.0159725
-0.0159806
-0.0159507
-0.0158825
-0.0157755
-0.0156297
-0.0154449
-0.0152209
-0.0149578
-0.0146556
-0.0143143
-0.0139341
-0.013515
-0.0130574
-0.0125614
-0.0120274
-0.0114557
-0.0108467
-0.0102009
-0.00951878
-0.00880075
-0.00804736
-0.00725917
-0.00643678
-0.00558082
-0.00469197
-0.00377093
-0.00281845
-0.00183528
-0.000822196
0.000219987
0.00129044
0.00238831
0.00351269
0.00466268
0.00583734
0.00703571
0.00825682
0.0094997
0.0107633
0.0120467
0.0133488
0.0146684
0.0160046
0.0173563
0.0187222
0.0201014
0.0214926
0.0228947
0.0243066
0.025727
0.0271549
0.0285891
0.0300282
0.0314712
0.0329168
0.0343637
0.0358109
0.037257
0.0387008
0.0401412
0.0415768
0.0430065
0.044429
0.0458431
0.0472476
0.0486412
0.0500229
0.0513912
0.0527452
0.0540834
0.0554049
0.0567084
0.0579927
0.0592568
0.0604994
0.0617196
0.0629162
0.0640881
0.0652343
0.0663537
0.0674454
0.0685084
0.0695416
0.0705443
0.0715154
0.0724542
0.0733597
0.0742312
0.0750679
0.0758691
0.076634
0.077362
0.0780526
0.0787051
0.0793191
0.079894
0.0804294
0.0809249
0.0813802
0.0817951
0.0821692
0.0825025
0.0827948
0.0830461
0.0832565
0.0834259
0.0835545
0.0836427
0.0836905
0.0836984
0.0836669
0.0835964
0.0834875
0.0833409
0.0831573
0.0829376
0.0826826
0.0823935
0.0820712
0.0817171
0.0813323
0.0809183
0.0804765
0.0800085
0.0795161
0.0790011
0.0784653
0.0779108
0.0773397
0.0767543
0.076157
0.0755503
0.0749368
0.0743192
0.0737005
0.0730835
0.0724715
0.0718675
0.071275
0.0706974
0.070138
0.0696006
0.0690888
0.0686061
0.0681563
0.067743
0.0673699
0.0670404
0.0667581
0.0665266
0.0663492
0.0662288
0.0661686
0.0661858
0.0662933
0.00130497
0.00135877
0.00133487
0.00124194
0.00109289
0.000891246
0.000639979
0.000342615
2.66555e-06
-0.000376401
-0.00079109
-0.00123788
-0.00171324
-0.00221367
-0.00273573
-0.00327599
-0.00383113
-0.00439786
-0.00497299
-0.00555343
-0.00613619
-0.00671838
-0.00729725
-0.00787015
-0.00843457
-0.00898815
-0.00952862
-0.0100538
-0.0105617
-0.0110504
-0.0115181
-0.011963
-0.0123836
-0.0127784
-0.013146
-0.0134851
-0.0137946
-0.0140734
-0.0143204
-0.0145346
-0.0147153
-0.0148616
-0.0149729
-0.0150486
-0.0150881
-0.015091
-0.0150569
-0.0149853
-0.0148761
-0.014729
-0.0145439
-0.0143207
-0.0140593
-0.0137597
-0.013422
-0.0130463
-0.0126328
-0.0121815
-0.0116928
-0.011167
-0.0106044
-0.0100054
-0.00937039
-0.00869987
-0.00799428
-0.00725413
-0.00647995
-0.00567232
-0.00483188
-0.00395928
-0.0030552
-0.00212036
-0.0011555
-0.000161376
0.000861232
0.00191151
0.00298861
0.00409167
0.00521979
0.00637206
0.00754754
0.00874529
0.00996435
0.0112037
0.0124625
0.0137395
0.0150338
0.0163442
0.0176698
0.0190094
0.0203619
0.0217262
0.0231013
0.0244859
0.0258789
0.0272792
0.0286856
0.0300969
0.0315119
0.0329295
0.0343485
0.0357677
0.0371858
0.0386017
0.0400142
0.041422
0.0428241
0.0442191
0.0456059
0.0469833
0.04835
0.049705
0.051047
0.0523748
0.0536874
0.0549834
0.0562619
0.0575216
0.0587614
0.0599803
0.0611772
0.062351
0.0635007
0.0646252
0.0657235
0.0667946
0.0678377
0.0688517
0.0698357
0.0707889
0.0717104
0.0725995
0.0734553
0.074277
0.075064
0.0758156
0.0765311
0.07721
0.0778518
0.0784558
0.0790217
0.0795491
0.0800374
0.0804866
0.0808962
0.0812661
0.0815961
0.0818862
0.0821363
0.0823464
0.0825166
0.0826471
0.082738
0.0827897
0.0828026
0.082777
0.0827134
0.0826125
0.0824748
0.0823012
0.0820925
0.0818495
0.0815732
0.0812648
0.0809253
0.0805561
0.0801585
0.0797339
0.0792839
0.0788101
0.0783144
0.0777984
0.0772643
0.0767141
0.0761499
0.075574
0.0749889
0.0743969
0.0738009
0.0732034
0.0726073
0.0720156
0.0714313
0.0708575
0.0702973
0.0697542
0.0692313
0.0687321
0.06826
0.0678184
0.0674107
0.0670402
0.0667104
0.0664245
0.0661859
0.0659979
0.0658633
0.0657854
0.0657784
0.0658523
0.0018374
0.00184811
0.00179269
0.00167628
0.00150795
0.00129107
0.00102855
0.00072364
0.000379618
-2.90594e-07
-0.000412854
-0.000854828
-0.00132297
-0.00181404
-0.00232483
-0.00285219
-0.00339302
-0.00394424
-0.00450289
-0.00506605
-0.0056309
-0.00619473
-0.00675493
-0.00730903
-0.00785463
-0.00838947
-0.00891139
-0.00941833
-0.00990833
-0.0103796
-0.0108302
-0.0112588
-0.0116636
-0.0120433
-0.0123966
-0.0127221
-0.0130188
-0.0132855
-0.0135213
-0.0137253
-0.0138965
-0.0140343
-0.014138
-0.014207
-0.0142407
-0.0142388
-0.0142007
-0.0141261
-0.0140149
-0.0138667
-0.0136814
-0.013459
-0.0131993
-0.0129023
-0.0125681
-0.0121968
-0.0117885
-0.0113434
-0.0108617
-0.0103438
-0.00978989
-0.00920044
-0.00857582
-0.00791645
-0.00722279
-0.00649531
-0.00573455
-0.00494108
-0.00411551
-0.00325847
-0.00237064
-0.00145271
-0.000505391
0.000470574
0.00147442
0.00250536
0.00356257
0.00464519
0.00575235
0.00688316
0.0080367
0.00921207
0.0104083
0.0116245
0.0128596
0.0141126
0.0153825
0.0166683
0.0179689
0.0192833
0.0206103
0.0219489
0.0232979
0.0246564
0.0260231
0.0273969
0.0287768
0.0301614
0.0315497
0.0329406
0.0343327
0.0357251
0.0371164
0.0385056
0.0398914
0.0412727
0.0426483
0.044017
0.0453777
0.0467291
0.0480702
0.0493997
0.0507165
0.0520194
0.0533073
0.0545791
0.0558336
0.0570698
0.0582866
0.0594828
0.0606575
0.0618096
0.062938
0.0640418
0.0651199
0.0661715
0.0671955
0.0681912
0.0691574
0.0700936
0.0709987
0.071872
0.0727128
0.0735203
0.0742938
0.0750327
0.0757363
0.0764041
0.0770356
0.0776302
0.0781875
0.0787072
0.0791887
0.079632
0.0800366
0.0804024
0.0807293
0.0810171
0.0812659
0.0814757
0.0816466
0.0817786
0.0818721
0.0819274
0.0819447
0.0819245
0.0818673
0.0817737
0.0816444
0.0814799
0.0812813
0.0810492
0.0807848
0.080489
0.080163
0.079808
0.0794254
0.0790164
0.0785828
0.0781259
0.0776476
0.0771496
0.0766338
0.0761022
0.0755569
0.0750001
0.074434
0.0738611
0.0732838
0.0727048
0.0721267
0.0715523
0.0709845
0.0704262
0.0698803
0.06935
0.0688383
0.0683484
0.0678834
0.0674466
0.0670411
0.06667
0.0663365
0.0660436
0.0657946
0.0655924
0.0654399
0.0653402
0.0653041
0.0653381
0.00243451
0.00239745
0.00230644
0.00216296
0.00197192
0.00173647
0.00145945
0.00114381
0.000792511
0.000408533
-5.15061e-06
-0.000445562
-0.000909718
-0.00139464
-0.00189737
-0.00241496
-0.00294454
-0.00348325
-0.0040283
-0.00457698
-0.00512663
-0.00567471
-0.00621877
-0.00675646
-0.00728552
-0.00780381
-0.00830926
-0.00879989
-0.00927385
-0.00972936
-0.0101647
-0.0105784
-0.010969
-0.011335
-0.0116751
-0.0119882
-0.0122732
-0.0125289
-0.0127545
-0.0129489
-0.0131115
-0.0132414
-0.0133381
-0.013401
-0.0134294
-0.013423
-0.0133814
-0.0133042
-0.0131911
-0.013042
-0.0128567
-0.012635
-0.012377
-0.0120826
-0.0117519
-0.0113848
-0.0109816
-0.0105424
-0.0100674
-0.00955706
-0.00901155
-0.00843126
-0.00781657
-0.00716788
-0.00648563
-0.00577029
-0.00502238
-0.00424247
-0.00343113
-0.002589
-0.00171672
-0.000814974
0.000115549
0.00107413
0.00206002
0.00307245
0.0041106
0.00517365
0.00626074
0.00737101
0.00850355
0.00965748
0.0108319
0.0120258
0.0132383
0.0144684
0.015715
0.0169772
0.0182539
0.019544
0.0208466
0.0221605
0.0234848
0.0248182
0.0261597
0.0275083
0.0288627
0.0302218
0.0315846
0.0329498
0.0343163
0.035683
0.0370488
0.0384124
0.0397728
0.0411287
0.042479
0.0438226
0.0451583
0.046485
0.0478015
0.0491066
0.0503994
0.0516785
0.0529429
0.0541916
0.0554233
0.056637
0.0578318
0.0590064
0.0601599
0.0612912
0.0623994
0.0634835
0.0645424
0.0655754
0.0665813
0.0675594
0.0685088
0.0694287
0.0703182
0.0711766
0.0720031
0.072797
0.0735577
0.0742845
0.0749768
0.075634
0.0762557
0.0768413
0.0773904
0.0779027
0.0783778
0.0788153
0.0792152
0.079577
0.0799009
0.0801865
0.0804341
0.0806434
0.0808148
0.0809482
0.081044
0.0811024
0.0811238
0.0811086
0.0810572
0.0809703
0.0808485
0.0806925
0.080503
0.080281
0.0800273
0.0797431
0.0794293
0.0790873
0.0787182
0.0783235
0.0779045
0.0774629
0.0770002
0.0765183
0.0760189
0.0755039
0.0749753
0.0744352
0.0738859
0.0733295
0.0727684
0.0722052
0.0716423
0.0710824
0.0705282
0.0699823
0.0694476
0.068927
0.0684234
0.0679396
0.0674787
0.0670436
0.0666371
0.0662623
0.0659219
0.065619
0.0653563
0.0651367
0.0649629
0.064838
0.0647685
0.0647577
0.0030889
0.00300056
0.00287073
0.00269717
0.00248043
0.00222344
0.00192898
0.00159967
0.00123815
0.000847135
0.000429334
-1.25209e-05
-0.000475695
-0.000957452
-0.00145506
-0.0019658
-0.00248698
-0.00301596
-0.00355013
-0.00408695
-0.00462395
-0.00515874
-0.00568903
-0.0062126
-0.00672732
-0.00723113
-0.00772209
-0.00819831
-0.008658
-0.00909948
-0.00952115
-0.00992152
-0.0102992
-0.0106528
-0.0109811
-0.0112829
-0.0115572
-0.0118029
-0.012019
-0.0122049
-0.0123595
-0.0124823
-0.0125726
-0.0126298
-0.0126535
-0.012643
-0.0125982
-0.0125186
-0.012404
-0.0122541
-0.0120688
-0.0118481
-0.0115918
-0.0112999
-0.0109724
-0.0106095
-0.0102112
-0.0097777
-0.00930927
-0.00880615
-0.00826867
-0.00769716
-0.00709197
-0.0064535
-0.00578218
-0.00507846
-0.00434286
-0.00357591
-0.00277819
-0.00195032
-0.00109292
-0.00020665
0.000707813
0.00164977
0.00261849
0.00361321
0.00463314
0.00567746
0.00674536
0.00783596
0.00894842
0.0100819
0.0112354
0.012408
0.0135989
0.014807
0.0160313
0.0172709
0.0185247
0.0197918
0.021071
0.0223614
0.0236619
0.0249714
0.0262889
0.0276132
0.0289434
0.0302781
0.0316164
0.0329572
0.0342992
0.0356415
0.0369827
0.038322
0.039658
0.0409897
0.0423159
0.0436355
0.0449474
0.0462504
0.0475435
0.0488255
0.0500952
0.0513517
0.0525938
0.0538203
0.0550303
0.0562227
0.0573964
0.0585505
0.0596838
0.0607954
0.0618844
0.0629497
0.0639903
0.0650055
0.0659943
0.0669557
0.0678891
0.0687935
0.0696681
0.0705123
0.0713253
0.0721063
0.0728548
0.0735701
0.0742516
0.0748988
0.0755111
0.0760882
0.0766295
0.0771348
0.0776037
0.0780358
0.078431
0.0787891
0.0791099
0.0793935
0.0796397
0.0798485
0.0800202
0.0801549
0.0802527
0.0803139
0.080339
0.0803282
0.0802822
0.0802013
0.0800864
0.0799379
0.0797568
0.0795439
0.0793
0.0790262
0.0787236
0.0783932
0.0780364
0.0776544
0.0772486
0.0768206
0.0763719
0.0759042
0.0754193
0.0749189
0.074405
0.0738795
0.0733446
0.0728023
0.0722551
0.0717051
0.0711548
0.0706067
0.0700633
0.0695272
0.0690009
0.0684871
0.0679886
0.0675081
0.0670482
0.0666118
0.0662015
0.06582
0.06547
0.0651541
0.0648749
0.0646349
0.0644369
0.0642836
0.0641775
0.0641184
0.00379358
0.00365136
0.00348021
0.00327409
0.00302908
0.00274795
0.00243342
0.00208778
0.00171335
0.00131257
0.000887907
0.000441844
-2.31145e-05
-0.000504459
-0.000999673
-0.00150625
-0.00202168
-0.00254352
-0.00306933
-0.00359677
-0.00412352
-0.00464736
-0.00516612
-0.00567773
-0.00618017
-0.0066715
-0.00714985
-0.00761344
-0.00806058
-0.00848966
-0.00889915
-0.00928763
-0.00965375
-0.00999622
-0.0103139
-0.0106055
-0.0108701
-0.0111068
-0.0113145
-0.0114924
-0.0116399
-0.0117562
-0.0118407
-0.0118929
-0.0119121
-0.0118981
-0.0118504
-0.0117687
-0.0116527
-0.0115023
-0.0113172
-0.0110974
-0.0108428
-0.0105534
-0.0102292
-0.00987027
-0.00947671
-0.00904872
-0.00858653
-0.00809039
-0.00756061
-0.0069975
-0.00640141
-0.00577272
-0.00511185
-0.00441925
-0.0036954
-0.00294085
-0.00215616
-0.00134192
-0.000498735
0.000372745
0.00127186
0.00219794
0.00315024
0.00412804
0.00513056
0.006157
0.00720655
0.00827838
0.00937164
0.0104855
0.011619
0.0127714
0.0139416
0.0151287
0.0163317
0.0175497
0.0187817
0.0200267
0.0212836
0.0225515
0.0238293
0.025116
0.0264105
0.0277118
0.0290187
0.0303302
0.0316452
0.0329626
0.0342813
0.0356002
0.0369182
0.0382341
0.0395469
0.0408555
0.0421587
0.0434555
0.0447447
0.0460252
0.047296
0.0485559
0.0498038
0.0510387
0.0522594
0.053465
0.0546543
0.0558263
0.0569801
0.0581145
0.0592287
0.0603216
0.0613922
0.0624397
0.063463
0.0644613
0.0654337
0.0663794
0.0672975
0.0681872
0.0690478
0.0698785
0.0706786
0.0714474
0.0721843
0.0728886
0.0735599
0.0741975
0.0748011
0.07537
0.0759039
0.0764025
0.0768654
0.0772924
0.0776832
0.0780376
0.0783556
0.078637
0.0788818
0.0790901
0.079262
0.0793976
0.0794972
0.0795609
0.0795893
0.0795825
0.0795412
0.0794659
0.0793571
0.0792155
0.079042
0.0788372
0.0786021
0.0783377
0.078045
0.0777251
0.0773792
0.0770086
0.0766146
0.0761987
0.0757624
0.0753072
0.0748349
0.0743472
0.0738459
0.073333
0.0728104
0.0722801
0.0717443
0.0712053
0.0706651
0.0701263
0.0695912
0.0690621
0.0685415
0.068032
0.0675359
0.0670559
0.0665944
0.066154
0.0657371
0.0653463
0.0649839
0.0646524
0.0643541
0.0640913
0.0638664
0.0636822
0.063537
0.0634267
0.00454197
0.00434401
0.00412963
0.00388894
0.00361352
0.003306
0.00296906
0.00260469
0.00221492
0.00180191
0.00136788
0.00091508
0.000445799
-3.76639e-05
-0.000532999
-0.00103789
-0.00155003
-0.00206713
-0.00258696
-0.00310732
-0.00362608
-0.00414115
-0.00465052
-0.00515221
-0.00564434
-0.00612505
-0.0065926
-0.00704528
-0.00748149
-0.00789971
-0.0082985
-0.00867649
-0.00903238
-0.00936496
-0.00967307
-0.00995562
-0.0102116
-0.0104401
-0.0106401
-0.0108111
-0.0109521
-0.0110625
-0.0111418
-0.0111894
-0.0112048
-0.0111876
-0.0111373
-0.0110538
-0.0109367
-0.0107858
-0.0106011
-0.0103824
-0.0101295
-0.00984256
-0.00952152
-0.00916645
-0.00877748
-0.00835479
-0.0078986
-0.00740916
-0.00688676
-0.0063317
-0.00574431
-0.00512498
-0.0044741
-0.00379211
-0.00307951
-0.0023368
-0.00156455
-0.000763313
6.62966e-05
0.000923662
0.00180814
0.00271905
0.00365569
0.00461734
0.00560323
0.0066126
0.00764464
0.00869856
0.00977351
0.0108687
0.0119832
0.0131161
0.0142666
0.0154337
0.0166164
0.0178138
0.019025
0.0202489
0.0214846
0.022731
0.0239872
0.0252521
0.0265247
0.027804
0.0290888
0.0303781
0.0316709
0.0329661
0.0342625
0.0355591
0.0368549
0.0381487
0.0394394
0.040726
0.0420073
0.0432823
0.0445499
0.045809
0.0470586
0.0482975
0.0495246
0.050739
0.0519394
0.053125
0.0542947
0.0554475
0.0565823
0.0576981
0.0587941
0.0598692
0.0609225
0.061953
0.0629598
0.0639421
0.0648991
0.0658297
0.0667334
0.0676092
0.0684564
0.0692744
0.0700623
0.0708195
0.0715454
0.0722394
0.072901
0.0735295
0.0741247
0.0746859
0.0752128
0.075705
0.0761623
0.0765843
0.0769708
0.0773217
0.0776369
0.0779162
0.0781596
0.0783673
0.0785393
0.0786756
0.0787767
0.0788426
0.0788738
0.0788707
0.0788336
0.0787631
0.0786599
0.0785245
0.0783577
0.0781602
0.077933
0.077677
0.0773932
0.0770826
0.0767464
0.0763858
0.0760022
0.0755968
0.0751713
0.074727
0.0742656
0.0737888
0.0732983
0.0727959
0.0722836
0.0717632
0.0712367
0.0707063
0.0701741
0.0696422
0.0691129
0.0685884
0.0680711
0.0675632
0.0670671
0.0665851
0.0661195
0.0656726