/*--------------------------------*- C++ -*----------------------------------*\
  =========                 |
  \\      /  F ield         | OpenFOAM: The Open Source CFD Toolbox
   \\    /   O peration     | Website:  https://openfoam.org
    \\  /    A nd           | Version:  7
     \\/     M anipulation  |
\*---------------------------------------------------------------------------*/
FoamFile
{
    version     2.0;
    format      ascii;
    class       volVectorField;
    location    "3.5";
    object      U;
}
// * * * * * * * * * * * * * * * * * * * * * * * * * * * * * * * * * * * * * //

dimensions      [0 1 -1 0 0 0 0];

internalField   nonuniform List<vector> 
2413
(
(1.4 -1.40191e-15 0)
(1.4 -1.70824e-15 0)
(1.4 -1.89602e-15 0)
(1.4 -2.00764e-15 0)
(1.4 -2.1047e-15 0)
(1.4 -2.19462e-15 0)
(1.4 -2.14145e-15 0)
(1.4 -1.84541e-15 0)
(1.4 -1.6473e-15 0)
(1.4 -1.64055e-15 0)
(1.4 -1.91749e-15 0)
(1.4 -1.89595e-15 0)
(1.4 -1.74609e-15 0)
(1.4 -1.98523e-15 0)
(1.4 -2.10086e-15 0)
(1.4 -2.05794e-15 0)
(1.4 -2.21683e-15 0)
(1.4 -2.23276e-15 0)
(1.4 -2.09307e-15 0)
(1.4 -1.4532e-15 0)
(1.4 -1.10885e-15 0)
(1.4 -4.75855e-16 0)
(1.4 5.56061e-17 0)
(1.4 2.91124e-16 0)
(1.4 3.23458e-16 0)
(1.4 8.09686e-16 0)
(1.4 1.11703e-15 0)
(1.4 1.31575e-15 0)
(1.4 2.11842e-15 0)
(1.4 2.69392e-15 0)
(1.4 3.21935e-15 0)
(1.4 3.647e-15 0)
(1.4 3.75697e-15 0)
(1.4 3.63245e-15 0)
(1.4 3.6694e-15 0)
(1.4 3.75368e-15 0)
(1.4 3.77926e-15 0)
(1.4 3.38076e-15 0)
(1.4 2.88718e-15 0)
(1.4 2.37708e-15 0)
(1.4 1.91803e-15 0)
(1.4 1.46717e-15 0)
(1.4 8.10382e-16 0)
(1.4 6.96246e-16 0)
(1.4 6.02128e-16 0)
(1.4 6.65086e-16 0)
(1.4 5.92628e-16 0)
(1.4 5.23626e-16 0)
(1.4 5.21984e-16 0)
(1.4 7.03217e-16 0)
(1.4 8.96431e-16 0)
(1.4 9.2904e-16 0)
(1.4 9.51022e-16 0)
(1.4 1.24472e-15 0)
(1.4 -2.35581e-17 0)
(1.4 -3.60143e-17 0)
(1.4 -7.89521e-17 0)
(1.4 -6.4872e-17 0)
(1.4 7.37264e-17 0)
(1.4 8.7487e-17 0)
(1.4 4.032e-17 0)
(1.4 -2.97941e-17 0)
(1.4 -6.10974e-17 0)
(1.4 -5.13703e-17 0)
(1.4 1.09924e-17 0)
(1.4 7.8089e-17 0)
(1.4 1.47333e-16 0)
(1.4 1.18382e-16 0)
(1.4 5.36101e-17 0)
(1.4 3.25172e-17 0)
(1.4 7.28015e-17 0)
(1.4 7.54238e-17 0)
(1.4 9.27975e-17 0)
(1.4 8.75841e-17 0)
(1.4 1.14288e-16 0)
(1.4 1.28947e-16 0)
(1.4 6.08836e-17 0)
(1.4 -5.95971e-17 0)
(1.4 -3.49945e-16 0)
(1.4 -5.796e-16 0)
(1.4 -8.86489e-16 0)
(1.4 -9.10643e-16 0)
(1.4 -9.51241e-16 0)
(1.4 -8.79677e-16 0)
(1.4 -7.44126e-16 0)
(1.4 -5.50615e-16 0)
(1.4 -3.00489e-16 0)
(1.4 -1.80084e-16 0)
(1.4 -2.93247e-16 0)
(1.4 -3.62853e-16 0)
(1.4 -3.36411e-16 0)
(1.4 -2.13554e-16 0)
(1.4 -1.00638e-16 0)
(1.4 -6.31788e-17 0)
(1.4 -1.48286e-16 0)
(1.4 -2.77953e-16 0)
(1.4 -3.60296e-16 0)
(1.4 -5.26388e-16 0)
(1.4 -5.26357e-16 0)
(1.4 -7.51023e-16 0)
(1.4 -1.23e-15 0)
(1.4 -1.44925e-15 0)
(1.4 -1.6314e-15 0)
(1.4 -1.68221e-15 0)
(1.4 -1.87852e-15 0)
(1.4 -1.93784e-15 0)
(1.4 -2.11521e-15 0)
(1.4 -2.18266e-15 0)
(1.4 -2.13142e-15 0)
(1.4 -1.79054e-15 0)
(1.4 -1.7682e-15 0)
(1.4 -1.7718e-15 0)
(1.4 -1.3958e-15 0)
(1.4 -1.23817e-15 0)
(1.4 -1.01587e-15 0)
(1.4 -1.00604e-15 0)
(1.4 -1.03134e-15 0)
(1.4 -1.16961e-15 0)
(1.4 -1.24865e-15 0)
(1.4 -1.49748e-15 0)
(1.4 -1.31372e-15 0)
(1.4 -1.15159e-15 0)
(1.4 -1.07777e-15 0)
(1.4 -9.63537e-16 0)
(1.4 -1.09951e-15 0)
(1.4 -1.25946e-15 0)
(1.4 -1.22623e-15 0)
(1.4 -1.20942e-15 0)
(1.4 -1.26617e-15 0)
(1.4 -1.29811e-15 0)
(1.4 -1.33291e-15 0)
(1.4 -1.36248e-15 0)
(1.4 -1.26917e-15 0)
(1.4 -1.4548e-15 0)
(1.4 -1.6676e-15 0)
(1.4 -1.80103e-15 0)
(1.4 -1.84986e-15 0)
(1.4 -2.18415e-15 0)
(1.4 -2.12396e-15 0)
(1.4 -1.88004e-15 0)
(1.4 -1.73e-15 0)
(1.4 -1.54887e-15 0)
(1.4 -1.44362e-15 0)
(1.4 -1.34291e-15 0)
(1.4 -1.70491e-15 0)
(1.4 -1.78474e-15 0)
(1.4 -1.2405e-15 0)
(1.4 -8.85133e-16 0)
(1.4 -2.11648e-16 0)
(1.4 2.05798e-16 0)
(1.4 3.21395e-16 0)
(1.4 1.73177e-16 0)
(1.4 2.14386e-16 0)
(1.4 2.99623e-16 0)
(1.4 2.83065e-16 0)
(1.4 3.46089e-16 0)
(1.4 4.0343e-16 0)
(1.4 3.65042e-16 0)
(1.4 5.62713e-16 0)
(1.4 7.12103e-16 0)
(1.4 6.17098e-16 0)
(1.4 9.39766e-16 0)
(1.4 1.33218e-15 0)
(1.4 1.77248e-15 0)
(1.4 2.37622e-15 0)
(1.4 2.74278e-15 0)
(1.4 3.08483e-15 0)
(1.4 3.35911e-15 0)
(1.4 3.48482e-15 0)
(1.4 3.3991e-15 0)
(1.4 3.17627e-15 0)
(1.4 2.89642e-15 0)
(1.4 2.33416e-15 0)
(1.4 2.11178e-15 0)
(1.4 2.7134e-15 0)
(1.4 2.90843e-15 0)
(1.4 2.62157e-15 0)
(1.4 2.42532e-15 0)
(1.4 2.12085e-15 0)
(1.4 1.86686e-15 0)
(1.4 1.78187e-15 0)
(1.4 1.58922e-15 0)
(1.4 1.46145e-15 0)
(1.4 1.31497e-15 0)
(1.4 7.69587e-16 0)
(1.4 2.95914e-16 0)
(1.4 5.86433e-20 0)
(1.4 5.8607e-18 0)
(1.4 -1.41798e-17 0)
(1.4 5.12377e-17 0)
(1.4 1.13986e-16 0)
(1.4 1.76692e-16 0)
(1.4 2.09046e-16 0)
(1.4 8.79953e-17 0)
(1.4 7.84874e-17 0)
(1.4 7.66142e-17 0)
(1.4 5.81145e-17 0)
(1.4 8.97923e-17 0)
(1.4 4.69292e-17 0)
(1.4 1.4207e-16 0)
(1.4 1.51552e-16 0)
(1.4 1.34792e-16 0)
(1.4 1.41796e-16 0)
(1.4 1.9019e-16 0)
(1.4 3.13394e-16 0)
(1.4 4.25029e-16 0)
(1.4 5.86432e-16 0)
(1.4 5.98216e-16 0)
(1.4 5.08284e-16 0)
(1.4 3.97964e-16 0)
(1.4 5.85002e-17 0)
(1.4 -2.24745e-16 0)
(1.4 -3.82025e-16 0)
(1.4 -4.81636e-16 0)
(1.4 -5.95195e-16 0)
(1.4 -8.76808e-16 0)
(1.4 -1.37133e-15 0)
(1.4 -1.34667e-15 0)
(1.4 -1.24973e-15 0)
(1.4 -1.05651e-15 0)
(1.4 -8.90428e-16 0)
(1.4 -7.75247e-16 0)
(1.4 -6.73805e-16 0)
(1.4 -6.96336e-16 0)
(1.4 -7.56407e-16 0)
(1.4 -1.12254e-15 0)
(1.4 -1.2167e-15 0)
(1.4 -1.10787e-15 0)
(1.4 -1.21031e-15 0)
(1.4 -1.28431e-15 0)
(1.4 -1.36522e-15 0)
(1.4 -1.48215e-15 0)
(1.4 -1.65479e-15 0)
(1.4 -1.72612e-15 0)
(1.4 -1.832e-15 0)
(1.4 -2.09109e-15 0)
(1.4 -2.37665e-15 0)
(1.4 -2.43957e-15 0)
(1.4 -2.33083e-15 0)
(1.4 -2.21461e-15 0)
(1.4 -1.98618e-15 0)
(1.4 -1.66142e-15 0)
(1.4 -1.29884e-15 0)
(1.4 -7.11139e-16 0)
(1.4 -4.82621e-16 0)
(1.4 -3.89819e-16 0)
(1.4 -2.49128e-16 0)
(1.4 -4.72904e-17 0)
(1.4 -1.25906e-16 0)
(1.4 -3.44319e-16 0)
(1.4 -5.61801e-16 0)
(1.4 -4.10831e-16 0)
(1.4 -5.61677e-16 0)
(1.4 -7.96771e-16 0)
(1.4 -7.6592e-16 0)
(1.4 -6.34183e-16 0)
(1.4 -6.58834e-16 0)
(1.4 -3.09167e-16 0)
(1.4 4.32262e-17 0)
(1.4 3.09143e-16 0)
(1.4 3.76599e-16 0)
(1.4 5.16328e-16 0)
(1.4 6.40175e-16 0)
(1.4 7.23049e-16 0)
(1.4 5.73091e-16 0)
(1.4 5.07562e-16 0)
(1.4 5.43331e-16 0)
(1.4 5.06828e-16 0)
(1.4 4.60537e-16 0)
(1.4 4.71604e-16 0)
(1.4 6.00609e-16 0)
(1.4 2.62502e-16 0)
(1.4 -1.45248e-16 0)
(1.4 -3.79313e-16 0)
(1.4 -1.58732e-16 0)
(1.4 -1.44125e-16 0)
(1.4 -2.73638e-17 0)
(1.4 5.42788e-17 0)
(1.4 3.1964e-16 0)
(1.4 5.18633e-16 0)
(1.4 5.8369e-16 0)
(1.4 5.10277e-16 0)
(1.4 4.55735e-16 0)
(1.4 4.91397e-16 0)
(1.4 6.32969e-16 0)
(1.4 7.98372e-16 0)
(1.4 6.12094e-16 0)
(1.4 5.91839e-16 0)
(1.4 5.4262e-16 0)
(1.4 3.47861e-16 0)
(1.4 4.0922e-16 0)
(1.4 3.96422e-16 0)
(1.4 4.37147e-16 0)
(1.4 4.33635e-16 0)
(1.4 3.27459e-16 0)
(1.4 3.71962e-16 0)
(1.4 5.04933e-16 0)
(1.4 4.29955e-16 0)
(1.4 4.86007e-16 0)
(1.4 5.57544e-16 0)
(1.4 8.66052e-16 0)
(1.4 1.26015e-15 0)
(1.4 1.65453e-15 0)
(1.4 2.22236e-15 0)
(1.4 3.01064e-15 0)
(1.4 3.35609e-15 0)
(1.4 3.70749e-15 0)
(1.4 3.98508e-15 0)
(1.4 3.89831e-15 0)
(1.4 3.49469e-15 0)
(1.4 3.32305e-15 0)
(1.4 2.62038e-15 0)
(1.4 2.37921e-15 0)
(1.4 1.17314e-15 0)
(1.4 -6.27757e-18 0)
(1.4 -7.63564e-16 0)
(1.4 -1.13856e-15 0)
(1.4 -1.23547e-15 0)
(1.4 1.88278e-17 0)
(1.4 4.56105e-17 0)
(1.4 2.42222e-18 0)
(1.4 3.18044e-17 0)
(1.4 1.36701e-16 0)
(1.4 2.58168e-16 0)
(1.4 4.5866e-16 0)
(1.4 4.6357e-16 0)
(1.4 4.35512e-16 0)
(1.4 3.76473e-16 0)
(1.4 3.16838e-16 0)
(1.4 2.87e-16 0)
(1.4 2.92127e-16 0)
(1.4 2.78739e-16 0)
(1.4 3.0546e-16 0)
(1.4 3.70741e-16 0)
(1.4 4.43971e-16 0)
(1.4 4.76449e-16 0)
(1.4 4.17329e-16 0)
(1.4 4.4807e-16 0)
(1.4 4.10194e-16 0)
(1.4 1.90281e-16 0)
(1.4 9.73005e-17 0)
(1.4 -1.38081e-18 0)
(1.4 3.14657e-17 0)
(1.4 -8.98607e-17 0)
(1.4 -2.45619e-16 0)
(1.4 -7.12142e-16 0)
(1.4 -9.92177e-16 0)
(1.4 -1.35144e-15 0)
(1.4 -1.75075e-15 0)
(1.4 -1.85634e-15 0)
(1.4 -1.9565e-15 0)
(1.4 -1.9744e-15 0)
(1.4 -1.86163e-15 0)
(1.4 -1.70728e-15 0)
(1.4 -1.54958e-15 0)
(1.4 -1.54029e-15 0)
(1.4 -1.65051e-15 0)
(1.4 -1.81391e-15 0)
(1.4 -1.72092e-15 0)
(1.4 -1.6725e-15 0)
(1.4 -1.74087e-15 0)
(1.4 -1.78687e-15 0)
(1.4 -1.82646e-15 0)
(1.4 -2.05128e-15 0)
(1.4 -2.22831e-15 0)
(1.4 -2.15096e-15 0)
(1.4 -1.72973e-15 0)
(1.4 -1.27933e-15 0)
(1.4 -9.67222e-16 0)
(1.4 -6.7774e-16 0)
(1.4 -5.16297e-16 0)
(1.4 -2.85625e-16 0)
(1.4 -1.82824e-16 0)
(1.4 -1.90558e-16 0)
(1.4 -3.38771e-16 0)
(1.4 -2.28835e-16 0)
(1.4 2.65441e-17 0)
(1.4 9.39031e-17 0)
(1.4 2.09728e-16 0)
(1.4 4.2152e-16 0)
(1.4 5.4059e-16 0)
(1.4 5.74173e-16 0)
(1.4 5.94901e-16 0)
(1.4 5.89099e-16 0)
(1.4 5.72264e-16 0)
(1.4 4.97008e-16 0)
(1.4 5.46863e-16 0)
(1.4 6.94668e-16 0)
(1.4 1.05473e-15 0)
(1.4 1.06624e-15 0)
(1.4 1.03651e-15 0)
(1.4 8.72333e-16 0)
(1.4 1.01853e-15 0)
(1.4 1.21546e-15 0)
(1.4 1.47186e-15 0)
(1.4 1.51124e-15 0)
(1.4 1.50618e-15 0)
(1.4 1.36437e-15 0)
(1.4 1.28662e-15 0)
(1.4 1.2678e-15 0)
(1.4 1.26672e-15 0)
(1.4 1.47948e-15 0)
(1.4 1.53172e-15 0)
(1.4 1.44756e-15 0)
(1.4 1.124e-15 0)
(1.4 9.11834e-16 0)
(1.4 8.07844e-16 0)
(1.4 5.15528e-16 0)
(1.4 6.49814e-16 0)
(1.4 8.13549e-16 0)
(1.4 7.58537e-16 0)
(1.4 5.7556e-16 0)
(1.4 3.58593e-16 0)
(1.4 3.85518e-17 0)
(1.4 2.0713e-16 0)
(1.4 3.80447e-16 0)
(1.4 6.39563e-16 0)
(1.4 5.14783e-16 0)
(1.4 2.36193e-16 0)
(1.4 1.05253e-16 0)
(1.4 -2.03337e-16 0)
(1.4 -1.21833e-16 0)
(1.4 -1.99574e-16 0)
(1.4 -2.24393e-16 0)
(1.4 6.62093e-18 0)
(1.4 5.88714e-18 0)
(1.4 2.55316e-16 0)
(1.4 1.19055e-16 0)
(1.4 -1.82894e-16 0)
(1.4 -4.31665e-16 0)
(1.4 -4.15675e-16 0)
(1.4 -2.93014e-16 0)
(1.4 -2.54631e-16 0)
(1.4 7.47506e-17 0)
(1.4 5.20571e-16 0)
(1.4 1.19037e-15 0)
(1.4 2.1403e-15 0)
(1.4 2.71257e-15 0)
(1.4 2.70866e-15 0)
(1.4 2.54136e-15 0)
(1.4 2.573e-15 0)
(1.4 2.72185e-15 0)
(1.4 2.77803e-15 0)
(1.4 2.50159e-15 0)
(1.4 2.2448e-15 0)
(1.4 1.76111e-15 0)
(1.4 1.261e-15 0)
(1.4 6.74305e-16 0)
(1.4 1.5835e-16 0)
(1.4 4.9137e-17 0)
(1.4 -5.98601e-18 0)
(1.4 -1.07918e-17 0)
(1.4 -4.29414e-17 0)
(1.4 -7.69093e-17 0)
(1.4 -1.10378e-16 0)
(1.4 -1.43493e-16 0)
(1.4 -1.42935e-16 0)
(1.4 -7.1555e-17 0)
(1.4 -1.51914e-17 0)
(1.4 4.38255e-17 0)
(1.4 1.01252e-16 0)
(1.4 1.39351e-16 0)
(1.4 1.62725e-16 0)
(1.4 3.50048e-17 0)
(1.4 -1.6512e-16 0)
(1.4 -1.94515e-16 0)
(1.4 -2.75702e-16 0)
(1.4 -2.77384e-16 0)
(1.4 -3.4159e-16 0)
(1.4 -6.24545e-16 0)
(1.4 -6.90148e-16 0)
(1.4 -6.10224e-16 0)
(1.4 -4.25217e-16 0)
(1.4 -3.85435e-16 0)
(1.4 -2.23171e-16 0)
(1.4 -1.27408e-16 0)
(1.4 -4.93023e-17 0)
(1.4 -8.77446e-17 0)
(1.4 -2.3849e-16 0)
(1.4 -4.53191e-16 0)
(1.4 -4.7799e-16 0)
(1.4 -8.64976e-16 0)
(1.4 -1.35359e-15 0)
(1.4 -1.71567e-15 0)
(1.4 -2.01084e-15 0)
(1.4 -2.04603e-15 0)
(1.4 -1.92688e-15 0)
(1.4 -1.88779e-15 0)
(1.4 -1.50829e-15 0)
(1.4 -1.12428e-15 0)
(1.4 -6.89474e-16 0)
(1.4 -6.17743e-16 0)
(1.4 -5.84735e-16 0)
(1.4 -6.16292e-16 0)
(1.4 -6.63595e-16 0)
(1.4 -6.47319e-16 0)
(1.4 -1.99638e-16 0)
(1.4 5.15082e-16 0)
(1.4 7.93008e-16 0)
(1.4 1.27008e-15 0)
(1.4 1.63839e-15 0)
(1.4 1.74219e-15 0)
(1.4 1.93171e-15 0)
(1.4 2.0131e-15 0)
(1.4 2.03625e-15 0)
(1.4 2.01184e-15 0)
(1.4 1.9418e-15 0)
(1.4 1.81401e-15 0)
(1.4 1.91304e-15 0)
(1.4 1.9613e-15 0)
(1.4 1.87357e-15 0)
(1.4 1.72961e-15 0)
(1.4 1.59569e-15 0)
(1.4 1.47719e-15 0)
(1.4 1.68754e-15 0)
(1.4 1.77732e-15 0)
(1.4 1.67601e-15 0)
(1.4 1.66615e-15 0)
(1.4 1.68982e-15 0)
(1.4 1.85767e-15 0)
(1.4 1.87956e-15 0)
(1.4 1.64768e-15 0)
(1.4 1.34532e-15 0)
(1.4 1.1553e-15 0)
(1.4 1.0891e-15 0)
(1.4 9.88193e-16 0)
(1.4 7.65336e-16 0)
(1.4 5.55544e-16 0)
(1.4 4.23075e-16 0)
(1.4 5.39249e-16 0)
(1.4 7.54571e-16 0)
(1.4 8.51642e-16 0)
(1.4 1.01464e-15 0)
(1.4 9.73963e-16 0)
(1.4 7.98756e-16 0)
(1.4 1.00578e-15 0)
(1.4 1.20543e-15 0)
(1.4 1.63301e-15 0)
(1.4 1.79866e-15 0)
(1.4 2.17938e-15 0)
(1.4 1.99879e-15 0)
(1.4 1.9554e-15 0)
(1.4 1.93372e-15 0)
(1.4 2.25131e-15 0)
(1.4 2.72424e-15 0)
(1.4 2.67721e-15 0)
(1.4 2.67219e-15 0)
(1.4 2.05135e-15 0)
(1.4 1.26715e-15 0)
(1.4 8.22864e-16 0)
(1.4 6.03763e-16 0)
(1.4 4.37115e-16 0)
(1.4 5.75516e-16 0)
(1.4 1.42026e-16 0)
(1.4 -2.2649e-16 0)
(1.4 -3.17562e-16 0)
(1.4 -3.89543e-16 0)
(1.4 -3.77145e-16 0)
(1.4 -4.43807e-16 0)
(1.4 -3.04511e-17 0)
(1.4 1.0669e-16 0)
(1.4 3.00612e-16 0)
(1.4 7.22029e-16 0)
(1.4 8.5288e-16 0)
(1.4 8.91134e-16 0)
(1.4 8.42481e-16 0)
(1.4 8.94799e-16 0)
(1.4 1.02847e-15 0)
(1.4 1.25279e-15 0)
(1.4 1.27745e-15 0)
(1.4 1.3708e-15 0)
(1.4 1.11416e-15 0)
(1.4 9.88765e-16 0)
(1.4 1.02025e-15 0)
(1.4 1.33007e-15 0)
(1.4 1.30514e-15 0)
(1.4 1.53352e-15 0)
(1.4 1.47462e-15 0)
(1.4 1.44462e-15 0)
(1.4 1.42359e-15 0)
(1.4 7.03451e-16 0)
(1.4 4.12597e-16 0)
(1.4 -2.08035e-17 0)
(1.4 -3.50792e-17 0)
(1.4 -5.8158e-17 0)
(1.4 -1.20541e-16 0)
(1.4 -1.78588e-16 0)
(1.4 -3.26028e-16 0)
(1.4 -3.08228e-16 0)
(1.4 -2.41018e-16 0)
(1.4 -2.27116e-16 0)
(1.4 -6.06352e-17 0)
(1.4 -1.15897e-16 0)
(1.4 -2.60277e-16 0)
(1.4 -5.63152e-16 0)
(1.4 -7.28035e-16 0)
(1.4 -8.35924e-16 0)
(1.4 -8.93268e-16 0)
(1.4 -9.49544e-16 0)
(1.4 -1.19803e-15 0)
(1.4 -1.32571e-15 0)
(1.4 -1.42861e-15 0)
(1.4 -1.57566e-15 0)
(1.4 -9.92848e-16 0)
(1.4 -7.14902e-16 0)
(1.4 -6.50584e-16 0)
(1.4 -6.77065e-16 0)
(1.4 -4.09846e-16 0)
(1.4 -2.70241e-16 0)
(1.4 -1.72151e-16 0)
(1.4 -9.48154e-17 0)
(1.4 3.20755e-17 0)
(1.4 2.58857e-16 0)
(1.4 2.33803e-16 0)
(1.4 2.25245e-16 0)
(1.4 3.62804e-16 0)
(1.4 3.79412e-16 0)
(1.4 1.86391e-16 0)
(1.4 6.11025e-17 0)
(1.4 -2.43466e-16 0)
(1.4 -5.65709e-16 0)
(1.4 -5.71959e-16 0)
(1.4 -5.22669e-16 0)
(1.4 -5.42035e-16 0)
(1.4 -4.72534e-16 0)
(1.4 -1.60509e-16 0)
(1.4 2.52751e-16 0)
(1.4 7.84606e-16 0)
(1.4 1.20208e-15 0)
(1.4 1.91395e-15 0)
(1.4 2.40161e-15 0)
(1.4 2.71259e-15 0)
(1.4 2.77771e-15 0)
(1.4 2.47406e-15 0)
(1.4 2.58559e-15 0)
(1.4 2.59629e-15 0)
(1.4 2.71584e-15 0)
(1.4 2.82064e-15 0)
(1.4 2.84551e-15 0)
(1.4 2.81245e-15 0)
(1.4 2.72366e-15 0)
(1.4 2.72426e-15 0)
(1.4 2.36979e-15 0)
(1.4 2.1706e-15 0)
(1.4 1.92267e-15 0)
(1.4 1.59677e-15 0)
(1.4 1.28286e-15 0)
(1.4 1.09251e-15 0)
(1.4 1.27869e-15 0)
(1.4 1.35187e-15 0)
(1.4 1.28239e-15 0)
(1.4 1.00508e-15 0)
(1.4 7.29068e-16 0)
(1.4 8.31349e-16 0)
(1.4 1.02223e-15 0)
(1.4 9.63402e-16 0)
(1.4 9.025e-16 0)
(1.4 8.15326e-16 0)
(1.4 6.52359e-16 0)
(1.4 6.28591e-16 0)
(1.4 6.73142e-16 0)
(1.4 8.06989e-16 0)
(1.4 8.51911e-16 0)
(1.4 1.13408e-15 0)
(1.4 1.12061e-15 0)
(1.4 1.2807e-15 0)
(1.4 1.40189e-15 0)
(1.4 1.7234e-15 0)
(1.4 2.21599e-15 0)
(1.4 2.46791e-15 0)
(1.4 2.50378e-15 0)
(1.4 2.34724e-15 0)
(1.4 2.39745e-15 0)
(1.4 2.33618e-15 0)
(1.4 2.32574e-15 0)
(1.4 2.2579e-15 0)
(1.4 2.2596e-15 0)
(1.4 2.29184e-15 0)
(1.4 2.12568e-15 0)
(1.4 2.09531e-15 0)
(1.4 2.36172e-15 0)
(1.4 2.59849e-15 0)
(1.4 2.8965e-15 0)
(1.4 2.92347e-15 0)
(1.4 2.95365e-15 0)
(1.4 2.67101e-15 0)
(1.4 2.06626e-15 0)
(1.4 1.74072e-15 0)
(1.4 1.11639e-15 0)
(1.4 6.43215e-16 0)
(1.4 1.59434e-16 0)
(1.4 5.30041e-16 0)
(1.4 1.19379e-15 0)
(1.4 1.47918e-15 0)
(1.4 1.90975e-15 0)
(1.4 2.50641e-15 0)
(1.4 2.57211e-15 0)
(1.4 2.90381e-15 0)
(1.4 3.04236e-15 0)
(1.4 3.05757e-15 0)
(1.4 2.80273e-15 0)
(1.4 2.56036e-15 0)
(1.4 2.55609e-15 0)
(1.4 2.25846e-15 0)
(1.4 1.89833e-15 0)
(1.4 1.40918e-15 0)
(1.4 9.46037e-16 0)
(1.4 8.66229e-16 0)
(1.4 9.35661e-16 0)
(1.4 1.20294e-15 0)
(1.4 1.45914e-15 0)
(1.4 1.72432e-15 0)
(1.4 1.77016e-15 0)
(1.4 1.57183e-15 0)
(1.4 5.00644e-17 0)
(1.4 7.75175e-17 0)
(1.4 1.39041e-16 0)
(1.4 1.57635e-16 0)
(1.4 1.26623e-16 0)
(1.4 3.64166e-17 0)
(1.4 -1.37551e-16 0)
(1.4 -2.48122e-16 0)
(1.4 -2.80701e-16 0)
(1.4 -3.29009e-16 0)
(1.4 -3.85133e-16 0)
(1.4 -4.46445e-16 0)
(1.4 -5.37944e-16 0)
(1.4 -6.46677e-16 0)
(1.4 -7.13421e-16 0)
(1.4 -9.09651e-16 0)
(1.4 -1.0336e-15 0)
(1.4 -1.08786e-15 0)
(1.4 -8.44041e-16 0)
(1.4 -5.44476e-16 0)
(1.4 -4.2667e-16 0)
(1.4 -5.32975e-16 0)
(1.4 -9.00629e-16 0)
(1.4 -1.04517e-15 0)
(1.4 -1.08631e-15 0)
(1.4 -9.17495e-16 0)
(1.4 -7.67334e-16 0)
(1.4 -3.14371e-16 0)
(1.4 3.91327e-17 0)
(1.4 5.06021e-16 0)
(1.4 7.26537e-16 0)
(1.4 9.46699e-16 0)
(1.4 8.6456e-16 0)
(1.4 7.59281e-16 0)
(1.4 7.13458e-16 0)
(1.4 5.45818e-16 0)
(1.4 3.46999e-16 0)
(1.4 2.60304e-16 0)
(1.4 2.33684e-16 0)
(1.4 3.3634e-16 0)
(1.4 3.92582e-16 0)
(1.4 5.30312e-16 0)
(1.4 7.71426e-16 0)
(1.4 9.66963e-16 0)
(1.4 1.24224e-15 0)
(1.4 1.31042e-15 0)
(1.4 1.27599e-15 0)
(1.4 1.26253e-15 0)
(1.4 1.28216e-15 0)
(1.4 1.25859e-15 0)
(1.4 1.20287e-15 0)
(1.4 1.58284e-15 0)
(1.4 1.6867e-15 0)
(1.4 1.76622e-15 0)
(1.4 1.82808e-15 0)
(1.4 1.97175e-15 0)
(1.4 1.97211e-15 0)
(1.4 1.66006e-15 0)
(1.4 1.29098e-15 0)
(1.4 1.06265e-15 0)
(1.4 8.61076e-16 0)
(1.4 9.40081e-16 0)
(1.4 1.09451e-15 0)
(1.4 1.29037e-15 0)
(1.4 1.31616e-15 0)
(1.4 9.53229e-16 0)
(1.4 8.02749e-16 0)
(1.4 8.72291e-16 0)
(1.4 7.27906e-16 0)
(1.4 6.0654e-16 0)
(1.4 4.15103e-16 0)
(1.4 3.65426e-16 0)
(1.4 2.536e-16 0)
(1.4 7.71246e-17 0)
(1.4 -3.29747e-17 0)
(1.4 1.03093e-16 0)
(1.4 2.40263e-17 0)
(1.4 1.70559e-17 0)
(1.4 5.23908e-16 0)
(1.4 8.76175e-16 0)
(1.4 1.01189e-15 0)
(1.4 1.25173e-15 0)
(1.4 1.22203e-15 0)
(1.4 1.36214e-15 0)
(1.4 1.54491e-15 0)
(1.4 1.7367e-15 0)
(1.4 1.81489e-15 0)
(1.4 1.91822e-15 0)
(1.4 2.18082e-15 0)
(1.4 2.09898e-15 0)
(1.4 2.03066e-15 0)
(1.4 2.02362e-15 0)
(1.4 1.88007e-15 0)
(1.4 1.52114e-15 0)
(1.4 1.26613e-15 0)
(1.4 1.23885e-15 0)
(1.4 1.23088e-15 0)
(1.4 1.67656e-15 0)
(1.4 1.92143e-15 0)
(1.4 2.39101e-15 0)
(1.4 2.68204e-15 0)
(1.4 2.78097e-15 0)
(1.4 2.70421e-15 0)
(1.4 2.60773e-15 0)
(1.4 2.60013e-15 0)
(1.4 2.57524e-15 0)
(1.4 2.42705e-15 0)
(1.4 2.46816e-15 0)
(1.4 2.75221e-15 0)
(1.4 2.74251e-15 0)
(1.4 2.90268e-15 0)
(1.4 2.98186e-15 0)
(1.4 3.11839e-15 0)
(1.4 3.19061e-15 0)
(1.4 3.32581e-15 0)
(1.4 3.35764e-15 0)
(1.4 3.2464e-15 0)
(1.4 3.22188e-15 0)
(1.4 2.83626e-15 0)
(1.4 2.50338e-15 0)
(1.4 2.41299e-15 0)
(1.4 2.24736e-15 0)
(1.4 2.07525e-15 0)
(1.4 1.88644e-15 0)
(1.4 1.82148e-15 0)
(1.4 1.71967e-15 0)
(1.4 1.16068e-15 0)
(1.4 1.02952e-15 0)
(1.4 9.24702e-16 0)
(1.4 6.75802e-16 0)
(1.4 9.16899e-16 0)
(1.4 1.04991e-15 0)
(1.4 -5.0547e-18 0)
(1.4 -1.44958e-17 0)
(1.4 -7.19503e-18 0)
(1.4 -3.88769e-17 0)
(1.4 -6.98207e-17 0)
(1.4 -3.57306e-17 0)
(1.4 -9.31542e-17 0)
(1.4 -1.12012e-16 0)
(1.4 -1.12733e-16 0)
(1.4 -2.53441e-16 0)
(1.4 -2.2131e-16 0)
(1.4 9.7026e-17 0)
(1.4 6.49418e-17 0)
(1.4 1.13506e-16 0)
(1.4 2.89051e-16 0)
(1.4 2.91127e-16 0)
(1.4 3.43695e-16 0)
(1.4 5.51409e-16 0)
(1.4 6.79857e-16 0)
(1.4 6.5795e-16 0)
(1.4 5.08981e-16 0)
(1.4 3.30479e-16 0)
(1.4 2.70323e-16 0)
(1.4 3.1583e-17 0)
(1.4 7.61693e-18 0)
(1.4 2.57924e-16 0)
(1.4 3.47117e-16 0)
(1.4 4.28294e-16 0)
(1.4 4.72192e-16 0)
(1.4 5.85346e-16 0)
(1.4 5.29719e-16 0)
(1.4 5.66576e-16 0)
(1.4 6.65372e-16 0)
(1.4 6.26039e-16 0)
(1.4 5.94389e-16 0)
(1.4 7.95968e-16 0)
(1.4 9.54431e-16 0)
(1.4 1.10954e-15 0)
(1.4 1.26908e-15 0)
(1.4 1.40284e-15 0)
(1.4 1.37541e-15 0)
(1.4 1.26476e-15 0)
(1.4 1.14321e-15 0)
(1.4 1.08906e-15 0)
(1.4 9.60754e-16 0)
(1.4 1.02549e-15 0)
(1.4 1.03062e-15 0)
(1.4 8.78404e-16 0)
(1.4 4.43432e-16 0)
(1.4 -1.01999e-16 0)
(1.4 -1.00694e-16 0)
(1.4 1.76815e-16 0)
(1.4 6.24677e-17 0)
(1.4 -5.62692e-17 0)
(1.4 -5.83915e-16 0)
(1.4 -8.95206e-16 0)
(1.4 -9.74567e-16 0)
(1.4 -9.6508e-16 0)
(1.4 -8.14512e-16 0)
(1.4 -6.59966e-16 0)
(1.4 -6.02678e-16 0)
(1.4 -5.13055e-16 0)
(1.4 -5.94421e-16 0)
(1.4 -2.47523e-16 0)
(1.4 3.69532e-16 0)
(1.4 4.64597e-16 0)
(1.4 4.07168e-16 0)
(1.4 3.94467e-16 0)
(1.4 5.76677e-16 0)
(1.4 7.19735e-16 0)
(1.4 1.10921e-15 0)
(1.4 1.11271e-15 0)
(1.4 1.14798e-15 0)
(1.4 1.20441e-15 0)
(1.4 1.07422e-15 0)
(1.4 8.71328e-16 0)
(1.4 6.96476e-16 0)
(1.4 7.56217e-16 0)
(1.4 8.42437e-16 0)
(1.4 8.36494e-16 0)
(1.4 8.74174e-16 0)
(1.4 8.14309e-16 0)
(1.4 9.8273e-16 0)
(1.4 1.09199e-15 0)
(1.4 1.22985e-15 0)
(1.4 1.00173e-15 0)
(1.4 6.04538e-16 0)
(1.4 2.929e-16 0)
(1.4 1.94411e-16 0)
(1.4 1.57884e-16 0)
(1.4 2.99918e-16 0)
(1.4 4.61455e-16 0)
(1.4 5.49538e-16 0)
(1.4 4.68277e-16 0)
(1.4 4.72594e-16 0)
(1.4 5.17714e-16 0)
(1.4 7.08104e-16 0)
(1.4 1.12987e-15 0)
(1.4 1.31268e-15 0)
(1.4 1.62698e-15 0)
(1.4 2.03238e-15 0)
(1.4 2.35887e-15 0)
(1.4 2.60185e-15 0)
(1.4 2.67329e-15 0)
(1.4 2.95119e-15 0)
(1.4 3.47174e-15 0)
(1.4 3.69069e-15 0)
(1.4 4.07142e-15 0)
(1.4 4.2087e-15 0)
(1.4 3.89089e-15 0)
(1.4 3.30617e-15 0)
(1.4 3.16642e-15 0)
(1.4 2.58452e-15 0)
(1.4 2.31767e-15 0)
(1.4 2.24713e-15 0)
(1.4 2.12702e-15 0)
(1.4 2.02961e-15 0)
(1.4 1.95907e-15 0)
(1.4 2.35436e-15 0)
(1.4 1.97046e-15 0)
(1.4 9.76929e-16 0)
(1.4 9.20373e-16 0)
(1.4 9.01056e-16 0)
(1.4 8.10224e-16 0)
(1.4 8.0497e-16 0)
(1.4 6.89836e-16 0)
(1.4 5.87621e-16 0)
(1.4 3.11934e-16 0)
(1.4 1.22189e-16 0)
(1.4 -5.04104e-17 0)
(1.4 -1.22678e-16 0)
(1.4 -1.97899e-16 0)
(1.4 -7.70372e-18 0)
(1.4 -4.52433e-17 0)
(1.4 -1.06072e-16 0)
(1.4 -4.625e-17 0)
(1.4 2.55935e-17 0)
(1.4 1.93102e-16 0)
(1.4 3.78265e-16 0)
(1.4 4.79371e-16 0)
(1.4 4.41244e-16 0)
(1.4 4.55302e-16 0)
(1.4 6.11391e-16 0)
(1.4 8.01969e-16 0)
(1.4 1.02999e-15 0)
(1.4 1.07554e-15 0)
(1.4 1.11726e-15 0)
(1.4 1.1726e-15 0)
(1.4 1.22054e-15 0)
(1.4 1.17081e-15 0)
(1.4 1.02927e-15 0)
(1.4 1.03092e-15 0)
(1.4 1.11605e-15 0)
(1.4 1.15741e-15 0)
(1.4 1.21335e-15 0)
(1.4 1.18863e-15 0)
(1.4 1.12782e-15 0)
(1.4 1.17113e-15 0)
(1.4 1.03841e-15 0)
(1.4 7.63311e-16 0)
(1.4 3.64736e-16 0)
(1.4 2.80207e-16 0)
(1.4 2.15752e-16 0)
(1.4 2.94811e-16 0)
(1.4 4.93401e-16 0)
(1.4 6.25013e-16 0)
(1.4 8.22771e-16 0)
(1.4 8.96498e-16 0)
(1.4 9.05322e-16 0)
(1.4 7.59185e-16 0)
(1.4 4.47908e-16 0)
(1.4 2.36225e-16 0)
(1.4 -8.33578e-17 0)
(1.4 -2.51657e-16 0)
(1.4 -4.2044e-16 0)
(1.4 -4.63151e-16 0)
(1.4 -5.50551e-16 0)
(1.4 -6.65919e-16 0)
(1.4 -9.40176e-16 0)
(1.4 -1.02295e-15 0)
(1.4 -1.07738e-15 0)
(1.4 -1.24801e-15 0)
(1.4 -1.30607e-15 0)
(1.4 -1.28501e-15 0)
(1.4 -1.32952e-15 0)
(1.4 -1.5654e-15 0)
(1.4 -1.75063e-15 0)
(1.4 -1.91209e-15 0)
(1.4 -1.98818e-15 0)
(1.4 -1.9917e-15 0)
(1.4 -1.97823e-15 0)
(1.4 -1.73675e-15 0)
(1.4 -1.21297e-15 0)
(1.4 -7.7897e-16 0)
(1.4 -3.98918e-16 0)
(1.4 -7.72714e-17 0)
(1.4 -4.89026e-17 0)
(1.4 9.01087e-17 0)
(1.4 3.22806e-16 0)
(1.4 6.00164e-16 0)
(1.4 8.95366e-16 0)
(1.4 9.6355e-16 0)
(1.4 1.19579e-15 0)
(1.4 1.50728e-15 0)
(1.4 1.69572e-15 0)
(1.4 1.83456e-15 0)
(1.4 1.58964e-15 0)
(1.4 1.35656e-15 0)
(1.4 1.2577e-15 0)
(1.4 1.24542e-15 0)
(1.4 1.34753e-15 0)
(1.4 1.4854e-15 0)
(1.4 1.44683e-15 0)
(1.4 1.37223e-15 0)
(1.4 1.23418e-15 0)
(1.4 1.20657e-15 0)
(1.4 1.11586e-15 0)
(1.4 7.6061e-16 0)
(1.4 6.28489e-16 0)
(1.4 3.77926e-16 0)
(1.4 3.1973e-16 0)
(1.4 2.57417e-16 0)
(1.4 3.13264e-16 0)
(1.4 4.11833e-16 0)
(1.4 4.55702e-16 0)
(1.4 6.81643e-16 0)
(1.4 8.86547e-16 0)
(1.4 8.90037e-16 0)
(1.4 9.39343e-16 0)
(1.4 1.13885e-15 0)
(1.4 1.26409e-15 0)
(1.4 1.32218e-15 0)
(1.4 1.49651e-15 0)
(1.4 1.62753e-15 0)
(1.4 1.51096e-15 0)
(1.4 1.89769e-15 0)
(1.4 1.95026e-15 0)
(1.4 1.8421e-15 0)
(1.4 1.77641e-15 0)
(1.4 1.67175e-15 0)
(1.4 1.59684e-15 0)
(1.4 1.18251e-15 0)
(1.4 8.71459e-16 0)
(1.4 6.71032e-16 0)
(1.4 3.50005e-16 0)
(1.4 3.28113e-16 0)
(1.4 1.16958e-16 0)
(1.4 -6.27115e-17 0)
(1.4 -6.50287e-17 0)
(1.4 -4.81751e-16 0)
(1.4 -4.16631e-16 0)
(1.4 -3.15994e-16 0)
(1.4 -4.57291e-16 0)
(1.4 -5.30845e-16 0)
(1.4 -8.3652e-16 0)
(1.4 -1.02079e-15 0)
(1.4 -1.01767e-15 0)
(1.4 -1.0353e-15 0)
(1.4 -9.53544e-16 0)
(1.4 -6.43047e-16 0)
(1.4 -3.25839e-16 0)
(1.4 -1.30181e-16 0)
(1.4 -6.63072e-17 0)
(1.4 -1.08614e-16 0)
(1.4 4.2814e-17 0)
(1.4 3.36954e-17 0)
(1.4 -1.44516e-17 0)
(1.4 -7.95491e-17 0)
(1.4 -6.10757e-17 0)
(1.4 -9.73956e-17 0)
(1.4 -2.51592e-16 0)
(1.4 -2.37548e-16 0)
(1.4 -1.82455e-16 0)
(1.4 -2.51989e-17 0)
(1.4 3.77082e-17 0)
(1.4 1.02195e-16 0)
(1.4 1.80353e-16 0)
(1.4 2.29355e-16 0)
(1.4 2.17952e-16 0)
(1.4 1.9457e-16 0)
(1.4 1.96353e-16 0)
(1.4 2.82943e-16 0)
(1.4 2.98079e-16 0)
(1.4 5.47346e-16 0)
(1.4 6.85517e-16 0)
(1.4 6.47811e-16 0)
(1.4 7.64053e-16 0)
(1.4 1.08458e-15 0)
(1.4 1.27865e-15 0)
(1.4 1.1447e-15 0)
(1.4 8.67394e-16 0)
(1.4 6.04248e-16 0)
(1.4 5.51017e-16 0)
(1.4 3.18956e-16 0)
(1.4 1.70872e-16 0)
(1.4 4.58225e-17 0)
(1.4 -2.06198e-17 0)
(1.4 -1.08293e-16 0)
(1.4 -9.69658e-17 0)
(1.4 -1.96567e-16 0)
(1.4 -2.12782e-16 0)
(1.4 -2.20847e-16 0)
(1.4 -2.78986e-16 0)
(1.4 -2.87486e-16 0)
(1.4 -4.23137e-16 0)
(1.4 -1.64986e-16 0)
(1.4 -2.11066e-16 0)
(1.4 -2.46074e-16 0)
(1.4 -2.73893e-16 0)
(1.4 -4.51664e-16 0)
(1.4 -5.50125e-16 0)
(1.4 -6.55763e-16 0)
(1.4 -8.50685e-16 0)
(1.4 -9.22679e-16 0)
(1.4 -1.22467e-15 0)
(1.4 -1.64403e-15 0)
(1.4 -1.67321e-15 0)
(1.4 -1.63561e-15 0)
(1.4 -1.50907e-15 0)
(1.4 -1.53135e-15 0)
(1.4 -1.64043e-15 0)
(1.4 -1.40864e-15 0)
(1.4 -1.01144e-15 0)
(1.4 -7.48338e-16 0)
(1.4 -5.04189e-16 0)
(1.4 -1.31045e-16 0)
(1.4 -9.40397e-17 0)
(1.4 -1.38618e-16 0)
(1.4 5.91155e-17 0)
(1.4 1.91313e-16 0)
(1.4 1.81453e-16 0)
(1.4 7.53984e-17 0)
(1.4 -4.40424e-17 0)
(1.4 -5.21552e-17 0)
(1.4 -1.42029e-17 0)
(1.4 7.85722e-17 0)
(1.4 2.03011e-16 0)
(1.4 5.62544e-16 0)
(1.4 1.10735e-15 0)
(1.4 1.34591e-15 0)
(1.4 1.60473e-15 0)
(1.4 1.69055e-15 0)
(1.4 1.7091e-15 0)
(1.4 1.66345e-15 0)
(1.4 1.65099e-15 0)
(1.4 1.85234e-15 0)
(1.4 1.9718e-15 0)
(1.4 1.77543e-15 0)
(1.4 1.43828e-15 0)
(1.4 1.60025e-15 0)
(1.4 1.84465e-15 0)
(1.4 1.90614e-15 0)
(1.4 1.80343e-15 0)
(1.4 1.47469e-15 0)
(1.4 1.33798e-15 0)
(1.4 9.08367e-16 0)
(1.4 6.21818e-16 0)
(1.4 7.7531e-16 0)
(1.4 1.16886e-15 0)
(1.4 1.28858e-15 0)
(1.4 1.26534e-15 0)
(1.4 1.10096e-15 0)
(1.4 9.34892e-16 0)
(1.4 8.07533e-16 0)
(1.4 5.68578e-16 0)
(1.4 3.73573e-16 0)
(1.4 2.48726e-16 0)
(1.4 2.42193e-18 0)
(1.4 -5.79667e-16 0)
(1.4 -9.63643e-16 0)
(1.4 -1.27711e-15 0)
(1.4 -1.55581e-15 0)
(1.4 -1.72324e-15 0)
(1.4 -1.8002e-15 0)
(1.4 -1.75504e-15 0)
(1.4 -1.68847e-15 0)
(1.4 -1.7906e-15 0)
(1.4 -1.83988e-15 0)
(1.4 -1.9248e-15 0)
(1.4 -1.99242e-15 0)
(1.4 -2.12355e-15 0)
(1.4 -2.18037e-15 0)
(1.4 -2.25717e-15 0)
(1.4 -2.1313e-15 0)
(1.4 -2.12535e-15 0)
(1.4 -2.08271e-15 0)
(1.4 -1.9985e-15 0)
(1.4 -2.0265e-15 0)
(1.4 -2.12001e-15 0)
(1.4 -2.2045e-15 0)
(1.4 -1.83112e-15 0)
(1.4 -1.43742e-15 0)
(1.4 -1.30987e-15 0)
(1.4 -1.02057e-15 0)
(1.4 -8.24189e-16 0)
(1.4 -4.07389e-16 0)
(1.4 -9.15344e-17 0)
(1.4 -1.15379e-16 0)
(1.4 -1.85412e-16 0)
(1.4 -1.71872e-16 0)
(1.4 -4.16447e-16 0)
(1.4 -5.94497e-16 0)
(1.4 -6.36463e-16 0)
(1.4 -6.50962e-16 0)
(1.4 -5.85053e-16 0)
(1.4 -5.41256e-16 0)
(1.4 -6.30719e-16 0)
(1.4 -7.34102e-16 0)
(1.4 -8.98854e-16 0)
(1.4 -1.03487e-15 0)
(1.4 -1.0508e-15 0)
(1.4 -9.91237e-16 0)
(1.4 -9.69819e-16 0)
(1.4 -8.66393e-16 0)
(1.4 -7.45727e-16 0)
(1.4 -6.34606e-16 0)
(1.4 -6.01237e-16 0)
(1.4 -4.29678e-16 0)
(1.4 -1.95424e-16 0)
(1.4 1.02095e-17 0)
(1.4 6.19483e-17 0)
(1.4 -2.11777e-17 0)
(1.4 7.00881e-17 0)
(1.4 2.92023e-16 0)
(1.4 3.72791e-16 0)
(1.4 2.39775e-16 0)
(1.4 1.24574e-16 0)
(1.4 -4.64285e-17 0)
(1.4 -7.51589e-17 0)
(1.4 -1.70377e-16 0)
(1.4 -2.3005e-16 0)
(1.4 -4.52815e-17 0)
(1.4 -7.36334e-17 0)
(1.4 -8.35179e-17 0)
(1.4 -5.11847e-17 0)
(1.4 3.66574e-17 0)
(1.4 2.43892e-16 0)
(1.4 5.77603e-16 0)
(1.4 7.56738e-16 0)
(1.4 9.25363e-16 0)
(1.4 8.86226e-16 0)
(1.4 7.37891e-16 0)
(1.4 6.73806e-16 0)
(1.4 5.60734e-16 0)
(1.4 4.6368e-16 0)
(1.4 1.94188e-16 0)
(1.4 -1.9697e-18 0)
(1.4 -9.57839e-17 0)
(1.4 -8.83018e-17 0)
(1.4 -1.45214e-16 0)
(1.4 4.41627e-18 0)
(1.4 3.97402e-16 0)
(1.4 8.89711e-16 0)
(1.4 8.37933e-16 0)
(1.4 7.24526e-16 0)
(1.4 6.50439e-16 0)
(1.4 7.75442e-16 0)
(1.4 7.15016e-16 0)
(1.4 3.72398e-16 0)
(1.4 2.90568e-16 0)
(1.4 2.17874e-16 0)
(1.4 3.96674e-17 0)
(1.4 -1.63009e-16 0)
(1.4 -4.10066e-16 0)
(1.4 -6.99652e-16 0)
(1.4 -7.23052e-16 0)
(1.4 -7.70054e-16 0)
(1.4 -8.24575e-16 0)
(1.4 -8.87341e-16 0)
(1.4 -7.10329e-16 0)
(1.4 -5.91304e-16 0)
(1.4 -2.11352e-16 0)
(1.4 5.1417e-17 0)
(1.4 2.28835e-16 0)
(1.4 -4.94437e-17 0)
(1.4 -1.1483e-16 0)
(1.4 5.02421e-17 0)
(1.4 6.00789e-17 0)
(1.4 -1.26311e-16 0)
(1.4 -1.45983e-16 0)
(1.4 6.2984e-17 0)
(1.4 1.30505e-16 0)
(1.4 1.74127e-16 0)
(1.4 2.54161e-16 0)
(1.4 2.32212e-16 0)
(1.4 6.6138e-16 0)
(1.4 7.78087e-16 0)
(1.4 8.47596e-16 0)
(1.4 9.24225e-16 0)
(1.4 7.67865e-16 0)
(1.4 6.46491e-16 0)
(1.4 6.19684e-16 0)
(1.4 4.93419e-16 0)
(1.4 3.84802e-17 0)
(1.4 -6.90438e-16 0)
(1.4 -1.00959e-15 0)
(1.4 -1.64164e-15 0)
(1.4 -1.76122e-15 0)
(1.4 -1.99911e-15 0)
(1.4 -2.40436e-15 0)
(1.4 -2.40722e-15 0)
(1.4 -2.31331e-15 0)
(1.4 -2.35457e-15 0)
(1.4 -2.27543e-15 0)
(1.4 -2.16251e-15 0)
(1.4 -2.20262e-15 0)
(1.4 -2.2651e-15 0)
(1.4 -2.37881e-15 0)
(1.4 -2.41398e-15 0)
(1.4 -2.47097e-15 0)
(1.4 -2.43691e-15 0)
(1.4 -2.5201e-15 0)
(1.4 -2.5323e-15 0)
(1.4 -2.34767e-15 0)
(1.4 -2.29554e-15 0)
(1.4 -2.63803e-15 0)
(1.4 -2.65835e-15 0)
(1.4 -2.6838e-15 0)
(1.4 -2.58651e-15 0)
(1.4 -2.53804e-15 0)
(1.4 -2.77445e-15 0)
(1.4 -3.05732e-15 0)
(1.4 -3.12345e-15 0)
(1.4 -3.25528e-15 0)
(1.4 -3.20505e-15 0)
(1.4 -3.15198e-15 0)
(1.4 -2.96827e-15 0)
(1.4 -2.77872e-15 0)
(1.4 4.38221e-17 0)
(1.4 -6.10274e-17 0)
(1.4 -4.43702e-17 0)
(1.4 1.7294e-17 0)
(1.4 -4.72467e-18 0)
(1.4 -1.4975e-17 0)
(1.4 1.40876e-16 0)
(1.4 2.01631e-16 0)
(1.4 1.96521e-16 0)
(1.4 1.64835e-17 0)
(1.4 -1.28121e-16 0)
(1.4 -1.82239e-16 0)
(1.4 -2.72933e-16 0)
(1.4 -2.28102e-16 0)
(1.4 -1.67917e-16 0)
(1.4 -1.71983e-16 0)
(1.4 -3.39242e-16 0)
(1.4 -4.77658e-16 0)
(1.4 -6.43104e-16 0)
(1.4 -1.05555e-15 0)
(1.4 -1.18423e-15 0)
(1.4 -1.06138e-15 0)
(1.4 -8.66651e-16 0)
(1.4 -7.42477e-16 0)
(1.4 -7.33255e-16 0)
(1.4 -5.19163e-16 0)
(1.4 -3.22513e-16 0)
(1.4 -2.00596e-16 0)
(1.4 -1.68112e-16 0)
(1.4 -1.87641e-16 0)
(1.4 -9.14168e-17 0)
(1.4 2.97632e-17 0)
(1.4 1.3263e-17 0)
(1.4 3.67284e-17 0)
(1.4 -6.43479e-17 0)
(1.4 -2.48893e-16 0)
(1.4 -2.05183e-16 0)
(1.4 -2.56647e-16 0)
(1.4 3.31748e-16 0)
(1.4 8.38993e-16 0)
(1.4 1.09872e-15 0)
(1.4 1.13957e-15 0)
(1.4 1.14364e-15 0)
(1.4 1.13339e-15 0)
(1.4 1.11591e-15 0)
(1.4 1.12189e-15 0)
(1.4 1.08852e-15 0)
(1.4 1.0936e-15 0)
(1.4 1.11095e-15 0)
(1.4 1.29171e-15 0)
(1.4 1.27174e-15 0)
(1.4 1.32897e-15 0)
(1.4 1.33048e-15 0)
(1.4 1.33652e-15 0)
(1.4 1.42859e-15 0)
(1.4 1.71454e-15 0)
(1.4 1.67498e-15 0)
(1.4 1.85003e-15 0)
(1.4 1.57975e-15 0)
(1.4 1.42765e-15 0)
(1.4 1.15797e-15 0)
(1.4 4.60171e-16 0)
(1.4 2.14922e-16 0)
(1.4 -1.39848e-16 0)
(1.4 -4.33254e-16 0)
(1.4 -6.28346e-16 0)
(1.4 -6.52901e-16 0)
(1.4 -6.57075e-16 0)
(1.4 -1.49568e-15 0)
(1.4 -1.75624e-15 0)