/*--------------------------------*- C++ -*----------------------------------*\
  =========                 |
  \\      /  F ield         | OpenFOAM: The Open Source CFD Toolbox
   \\    /   O peration     | Website:  https://openfoam.org
    \\  /    A nd           | Version:  7
     \\/     M anipulation  |
\*---------------------------------------------------------------------------*/
FoamFile
{
    version     2.0;
    format      ascii;
    class       volVectorField;
    location    "4.5";
    object      U;
}
// * * * * * * * * * * * * * * * * * * * * * * * * * * * * * * * * * * * * * //

dimensions      [0 1 -1 0 0 0 0];

internalField   nonuniform List<vector> 
135168
(
(1.4 -3.69515e-18 0)
(1.4 1.9733e-17 0)
(1.4 6.00953e-17 0)
(1.4 1.94558e-17 0)
(1.4 -1.64785e-17 0)
(1.4 -1.15577e-16 0)
(1.4 -2.11678e-16 0)
(1.4 -2.39827e-16 0)
(1.4 -2.46024e-16 0)
(1.4 -2.40665e-16 0)
(1.4 -3.3337e-16 0)
(1.4 -3.04163e-16 0)
(1.4 -2.12707e-16 0)
(1.4 -3.66563e-16 0)
(1.4 -5.45882e-16 0)
(1.4 -6.34162e-16 0)
(1.4 -9.60654e-16 0)
(1.4 -8.72761e-16 0)
(1.4 -6.05244e-16 0)
(1.4 -4.75636e-16 0)
(1.4 -3.84535e-16 0)
(1.4 -2.35063e-16 0)
(1.4 -1.54271e-16 0)
(1.4 -2.47502e-17 0)
(1.4 3.34337e-17 0)
(1.4 9.60882e-17 0)
(1.4 3.07068e-17 0)
(1.4 -4.77749e-17 0)
(1.4 -4.47014e-17 0)
(1.4 -4.46606e-17 0)
(1.4 1.38183e-17 0)
(1.4 6.35405e-17 0)
(1.4 1.06622e-16 0)
(1.4 6.72198e-17 0)
(1.4 4.45339e-17 0)
(1.4 -2.07825e-16 0)
(1.4 -1.60608e-16 0)
(1.4 -1.97567e-16 0)
(1.4 -2.38945e-16 0)
(1.4 -2.08766e-16 0)
(1.4 -1.09804e-16 0)
(1.4 -2.33548e-18 0)
(1.4 7.95175e-17 0)
(1.4 1.53653e-16 0)
(1.4 1.58766e-16 0)
(1.4 1.68294e-16 0)
(1.4 2.72324e-16 0)
(1.4 3.24236e-16 0)
(1.4 4.34472e-16 0)
(1.4 3.7739e-16 0)
(1.4 3.71248e-16 0)
(1.4 6.75071e-16 0)
(1.4 7.15469e-16 0)
(1.4 7.82017e-16 0)
(1.4 6.94679e-16 0)
(1.4 6.31369e-16 0)
(1.4 5.98081e-16 0)
(1.4 6.95301e-16 0)
(1.4 7.08746e-16 0)
(1.4 6.82818e-16 0)
(1.4 7.04864e-16 0)
(1.4 5.90693e-16 0)
(1.4 6.27994e-16 0)
(1.4 7.08613e-16 0)
(1.4 6.82091e-16 0)
(1.4 8.60479e-16 0)
(1.4 1.01667e-15 0)
(1.4 1.04646e-15 0)
(1.4 1.0942e-15 0)
(1.4 1.31154e-15 0)
(1.4 1.41624e-15 0)
(1.4 1.39517e-15 0)
(1.4 1.3384e-15 0)
(1.4 1.19459e-15 0)
(1.4 1.24365e-15 0)
(1.4 1.29924e-15 0)
(1.4 1.31845e-15 0)
(1.4 1.45211e-15 0)
(1.4 1.51675e-15 0)
(1.4 1.49454e-15 0)
(1.4 1.39569e-15 0)
(1.4 1.30306e-15 0)
(1.4 1.22482e-15 0)
(1.4 1.25909e-15 0)
(1.4 1.27415e-15 0)
(1.4 1.28267e-15 0)
(1.4 1.24835e-15 0)
(1.4 1.21358e-15 0)
(1.4 1.19845e-15 0)
(1.4 1.17211e-15 0)
(1.4 1.07594e-15 0)
(1.4 9.50615e-16 0)
(1.4 8.47954e-16 0)
(1.4 6.66697e-16 0)
(1.4 2.53945e-16 0)
(1.4 1.11435e-16 0)
(1.4 1.53336e-16 0)
(1.4 -2.0673e-17 0)
(1.4 -2.45636e-16 0)
(1.4 -2.60062e-16 0)
(1.4 -2.14023e-16 0)
(1.4 -2.28744e-16 0)
(1.4 -3.13714e-16 0)
(1.4 -4.39013e-16 0)
(1.4 -5.73927e-16 0)
(1.4 -6.39518e-16 0)
(1.4 -6.37189e-16 0)
(1.4 -5.63138e-16 0)
(1.4 -5.25582e-16 0)
(1.4 -3.97252e-16 0)
(1.4 -1.72655e-16 0)
(1.4 6.10095e-17 0)
(1.4 2.57449e-16 0)
(1.4 3.58555e-16 0)
(1.4 6.08526e-16 0)
(1.4 6.22363e-16 0)
(1.4 7.22708e-16 0)
(1.4 7.42867e-16 0)
(1.4 8.05451e-16 0)
(1.4 7.87914e-16 0)
(1.4 7.8895e-16 0)
(1.4 6.07519e-16 0)
(1.4 4.94579e-16 0)
(1.4 5.37864e-16 0)
(1.4 5.51474e-16 0)
(1.4 5.28581e-16 0)
(1.4 4.91488e-16 0)
(1.4 4.32378e-16 0)
(1.4 3.10099e-16 0)
(1.4 2.81381e-16 0)
(1.4 1.70138e-16 0)
(1.4 1.36895e-16 0)
(1.4 9.85344e-17 0)
(1.4 -2.98258e-17 0)
(1.4 -7.84213e-17 0)
(1.4 -1.21523e-18 0)
(1.4 -6.11673e-17 0)
(1.4 -1.5409e-18 0)
(1.4 1.6869e-16 0)
(1.4 3.18054e-16 0)
(1.4 3.81275e-16 0)
(1.4 5.95753e-16 0)
(1.4 7.15722e-16 0)
(1.4 7.73295e-16 0)
(1.4 8.20992e-16 0)
(1.4 3.37059e-16 0)
(1.4 1.3255e-16 0)
(1.4 -4.19221e-17 0)
(1.4 -1.93838e-17 0)
(1.4 -1.76813e-17 0)
(1.4 1.05652e-16 0)
(1.4 1.65137e-16 0)
(1.4 1.63839e-16 0)
(1.4 2.56597e-16 0)
(1.4 2.59459e-16 0)
(1.4 7.3442e-17 0)
(1.4 1.05788e-16 0)
(1.4 4.20468e-17 0)
(1.4 -1.22723e-16 0)
(1.4 -6.49583e-17 0)
(1.4 5.52406e-18 0)
(1.4 8.80398e-17 0)
(1.4 3.13629e-16 0)
(1.4 3.91347e-16 0)
(1.4 2.9589e-16 0)
(1.4 1.80774e-16 0)
(1.4 1.46011e-16 0)
(1.4 -7.38105e-17 0)
(1.4 -3.42688e-16 0)
(1.4 -6.68328e-16 0)
(1.4 -8.69217e-16 0)
(1.4 -7.80673e-16 0)
(1.4 -8.07081e-16 0)
(1.4 -9.50547e-16 0)
(1.4 -8.43482e-16 0)
(1.4 -8.17547e-16 0)
(1.4 -8.7628e-16 0)
(1.4 -8.96114e-16 0)
(1.4 -8.12427e-16 0)
(1.4 -1.10049e-15 0)
(1.4 -1.66219e-15 0)
(1.4 -1.77719e-15 0)
(1.4 -2.03559e-15 0)
(1.4 -1.98732e-15 0)
(1.4 -1.94052e-15 0)
(1.4 -1.67382e-15 0)
(1.4 -1.29823e-15 0)
(1.4 -1.22752e-15 0)
(1.4 -1.27453e-15 0)
(1.4 -1.32195e-15 0)
(1.4 -1.32523e-15 0)
(1.4 -1.097e-15 0)
(1.4 -8.41569e-16 0)
(1.4 -7.10083e-16 0)
(1.4 -7.30334e-16 0)
(1.4 -7.27548e-16 0)
(1.4 -6.66397e-16 0)
(1.4 -6.79987e-16 0)
(1.4 -6.9107e-16 0)
(1.4 -7.07949e-16 0)
(1.4 -5.38739e-16 0)
(1.4 -3.1393e-16 0)
(1.4 -2.74888e-16 0)
(1.4 -3.35868e-16 0)
(1.4 -3.89268e-16 0)
(1.4 -3.09885e-16 0)
(1.4 -3.55202e-16 0)
(1.4 -2.65279e-16 0)
(1.4 -1.08828e-16 0)
(1.4 1.43244e-16 0)
(1.4 2.36946e-16 0)
(1.4 1.66548e-16 0)
(1.4 7.85568e-17 0)
(1.4 -2.00393e-16 0)
(1.4 -2.23665e-16 0)
(1.4 -7.04988e-16 0)
(1.4 -1.06323e-15 0)
(1.4 -1.09246e-15 0)
(1.4 -1.28921e-15 0)
(1.4 -1.27247e-15 0)
(1.4 -9.24169e-16 0)
(1.4 -8.38513e-16 0)
(1.4 -6.4163e-16 0)
(1.4 -4.4629e-16 0)
(1.4 -2.9532e-16 0)
(1.4 1.04857e-16 0)
(1.4 3.37977e-16 0)
(1.4 5.18371e-16 0)
(1.4 7.18387e-16 0)
(1.4 8.20521e-16 0)
(1.4 8.53455e-16 0)
(1.4 9.29364e-16 0)
(1.4 7.3999e-16 0)
(1.4 6.44068e-16 0)
(1.4 4.55359e-16 0)
(1.4 4.40878e-16 0)
(1.4 4.19942e-16 0)
(1.4 5.24535e-16 0)
(1.4 7.7306e-16 0)
(1.4 9.0388e-16 0)
(1.4 8.84172e-16 0)
(1.4 9.2566e-16 0)
(1.4 7.78445e-16 0)
(1.4 1.21368e-15 0)
(1.4 1.34324e-15 0)
(1.4 1.31162e-15 0)
(1.4 1.2278e-15 0)
(1.4 8.34043e-16 0)
(1.4 4.00984e-16 0)
(1.4 -3.7196e-17 0)
(1.4 -3.02104e-16 0)
(1.4 -6.27263e-16 0)
(1.4 -7.39525e-16 0)
(1.4 -9.22571e-16 0)
(1.4 -1.03944e-15 0)
(1.4 -1.02892e-15 0)
(1.4 -9.83212e-16 0)
(1.4 -1.08906e-15 0)
(1.4 -1.20187e-15 0)
(1.4 -1.24994e-15 0)
(1.4 -1.19564e-15 0)
(1.4 -1.10477e-15 0)
(1.4 -1.11379e-15 0)
(1.4 -1.06301e-15 0)
(1.4 -8.13064e-16 0)
(1.4 -5.8935e-16 0)
(1.4 -3.57593e-16 0)
(1.4 -1.54256e-16 0)
(1.4 -1.48703e-16 0)
(1.4 1.54709e-16 0)
(1.4 3.49579e-16 0)
(1.4 2.73308e-16 0)
(1.4 3.07652e-16 0)
(1.4 3.78211e-16 0)
(1.4 3.23758e-16 0)
(1.4 2.20085e-16 0)
(1.4 -8.3454e-17 0)
(1.4 -3.80407e-16 0)
(1.4 -9.52039e-16 0)
(1.4 -1.25269e-15 0)
(1.4 -1.25625e-15 0)
(1.4 -1.40122e-15 0)
(1.4 -1.65004e-15 0)
(1.4 -1.79255e-15 0)
(1.4 -1.93813e-15 0)
(1.4 -2.02312e-15 0)
(1.4 -1.9162e-15 0)
(1.4 -1.86855e-15 0)
(1.4 -1.6128e-15 0)
(1.4 -1.55219e-15 0)
(1.4 -1.50913e-15 0)
(1.4 -1.40625e-15 0)
(1.4 -1.48896e-15 0)
(1.4 -1.63739e-15 0)
(1.4 -1.65713e-15 0)
(1.4 -1.61303e-15 0)
(1.4 -1.75102e-15 0)
(1.4 -1.90542e-15 0)
(1.4 -1.97287e-15 0)
(1.4 -1.90086e-15 0)
(1.4 -1.84049e-15 0)
(1.4 -1.54232e-15 0)
(1.4 -1.55841e-15 0)
(1.4 -1.33872e-15 0)
(1.4 -1.15421e-15 0)
(1.4 -1.04114e-15 0)
(1.4 -8.78143e-16 0)
(1.4 -8.13677e-16 0)
(1.4 -8.05116e-16 0)
(1.4 -7.45626e-16 0)
(1.4 -7.15113e-16 0)
(1.4 -8.51785e-16 0)
(1.4 -5.07913e-16 0)
(1.4 -2.86733e-16 0)
(1.4 -1.68272e-16 0)
(1.4 -1.41575e-16 0)
(1.4 -5.13265e-17 0)
(1.4 2.6112e-17 0)
(1.4 -9.52318e-17 0)
(1.4 2.17195e-16 0)
(1.4 3.00756e-16 0)
(1.4 3.20467e-16 0)
(1.4 2.3426e-16 0)
(1.4 -2.36145e-17 0)
(1.4 2.77268e-16 0)
(1.4 3.89568e-16 0)
(1.4 5.5652e-16 0)
(1.4 7.25094e-16 0)
(1.4 2.35376e-16 0)
(1.4 1.59094e-16 0)
(1.4 5.00639e-17 0)
(1.4 2.56308e-17 0)
(1.4 7.33045e-17 0)
(1.4 2.04844e-16 0)
(1.4 3.58161e-16 0)
(1.4 5.46731e-16 0)
(1.4 6.4941e-16 0)
(1.4 8.18866e-16 0)
(1.4 1.30215e-15 0)
(1.4 1.68991e-15 0)
(1.4 1.24836e-15 0)
(1.4 6.52439e-16 0)
(1.4 5.99908e-16 0)
(1.4 3.63125e-16 0)
(1.4 1.88587e-16 0)
(1.4 3.07722e-16 0)
(1.4 1.38178e-16 0)
(1.4 -9.30462e-17 0)
(1.4 -6.5462e-16 0)
(1.4 -1.02831e-15 0)
(1.4 -1.17373e-15 0)
(1.4 -1.14317e-15 0)
(1.4 -1.18572e-15 0)
(1.4 -1.32695e-15 0)
(1.4 -1.29538e-15 0)
(1.4 -1.2687e-15 0)
(1.4 -1.27921e-15 0)
(1.4 -1.04048e-15 0)
(1.4 -5.77908e-16 0)
(1.4 -4.32198e-16 0)
(1.4 -4.88436e-16 0)
(1.4 -5.26013e-16 0)
(1.4 -4.54793e-16 0)
(1.4 -3.81398e-16 0)
(1.4 -4.64526e-16 0)
(1.4 -7.81474e-16 0)
(1.4 -8.93505e-16 0)
(1.4 -8.1865e-16 0)
(1.4 -9.97233e-16 0)
(1.4 -1.14449e-15 0)
(1.4 -1.1294e-15 0)
(1.4 -1.04091e-15 0)
(1.4 -9.43218e-16 0)
(1.4 -6.56581e-16 0)
(1.4 -7.21537e-16 0)
(1.4 -6.34975e-16 0)
(1.4 -1.47777e-15 0)
(1.4 -2.2377e-16 0)
(1.4 -4.24166e-14 0)
(1.4 2.07039e-12 0)
(1.4 -9.8661e-11 0)
(1.4 3.19509e-09 0)
(1.39999 -1.76953e-08 0)
(1.39989 -3.14955e-06 0)
(1.4 -3.53406e-17 0)
(1.4 -5.00821e-17 0)
(1.4 -4.77196e-17 0)
(1.4 -3.44914e-17 0)
(1.4 -9.0546e-17 0)
(1.4 -8.51016e-17 0)
(1.4 9.73581e-19 0)
(1.4 9.79933e-17 0)
(1.4 8.77645e-17 0)
(1.4 2.25889e-17 0)
(1.4 -1.00273e-16 0)
(1.4 -7.43043e-17 0)
(1.4 1.12256e-16 0)
(1.4 9.10814e-17 0)
(1.4 -2.86138e-17 0)
(1.4 -2.06972e-16 0)
(1.4 -3.35759e-16 0)
(1.4 -9.0836e-17 0)
(1.4 2.21916e-16 0)
(1.4 5.56882e-16 0)
(1.4 7.26583e-16 0)
(1.4 1.02957e-15 0)
(1.4 1.28729e-15 0)
(1.4 1.40405e-15 0)
(1.4 1.48053e-15 0)
(1.4 1.59577e-15 0)
(1.4 1.44659e-15 0)
(1.4 1.29182e-15 0)
(1.4 1.05842e-15 0)
(1.4 9.17739e-16 0)
(1.4 9.59801e-16 0)
(1.4 9.69661e-16 0)
(1.4 1.01008e-15 0)
(1.4 7.75637e-16 0)
(1.4 4.63068e-16 0)
(1.4 2.5723e-16 0)
(1.4 1.81864e-16 0)
(1.4 2.29469e-16 0)
(1.4 3.59784e-16 0)
(1.4 3.17773e-16 0)
(1.4 3.28528e-16 0)
(1.4 3.82549e-16 0)
(1.4 6.51616e-16 0)
(1.4 7.52743e-16 0)
(1.4 7.8816e-16 0)
(1.4 8.14194e-16 0)
(1.4 8.82434e-16 0)
(1.4 8.83083e-16 0)
(1.4 8.8641e-16 0)
(1.4 8.64495e-16 0)
(1.4 9.41174e-16 0)
(1.4 1.06176e-15 0)
(1.4 1.09153e-15 0)
(1.4 8.42237e-16 0)
(1.4 5.26661e-16 0)
(1.4 3.08555e-16 0)
(1.4 2.56826e-16 0)
(1.4 2.79313e-16 0)
(1.4 3.37592e-16 0)
(1.4 5.60732e-16 0)
(1.4 5.78285e-16 0)
(1.4 3.6029e-16 0)
(1.4 5.77524e-16 0)
(1.4 7.82672e-16 0)
(1.4 9.19605e-16 0)
(1.4 1.24529e-15 0)
(1.4 1.47577e-15 0)
(1.4 1.57629e-15 0)
(1.4 1.72536e-15 0)
(1.4 1.95094e-15 0)
(1.4 1.9626e-15 0)
(1.4 1.82579e-15 0)
(1.4 1.80639e-15 0)
(1.4 1.82915e-15 0)
(1.4 1.88254e-15 0)
(1.4 1.90735e-15 0)
(1.4 1.96583e-15 0)
(1.4 2.13383e-15 0)
(1.4 2.23798e-15 0)
(1.4 2.1464e-15 0)
(1.4 2.04654e-15 0)
(1.4 1.89715e-15 0)
(1.4 1.85416e-15 0)
(1.4 1.83626e-15 0)
(1.4 1.78312e-15 0)
(1.4 1.80796e-15 0)
(1.4 1.70813e-15 0)
(1.4 1.71786e-15 0)
(1.4 1.69892e-15 0)
(1.4 1.49084e-15 0)
(1.4 1.35906e-15 0)
(1.4 9.28322e-16 0)
(1.4 5.47982e-16 0)
(1.4 2.77931e-16 0)
(1.4 -1.67898e-16 0)
(1.4 -6.56082e-16 0)
(1.4 -1.01648e-15 0)
(1.4 -1.08929e-15 0)
(1.4 -1.24394e-15 0)
(1.4 -1.03489e-15 0)
(1.4 -8.31441e-16 0)
(1.4 -7.41224e-16 0)
(1.4 -7.01994e-16 0)
(1.4 -6.34373e-16 0)
(1.4 -8.24789e-16 0)
(1.4 -1.01681e-15 0)
(1.4 -8.96311e-16 0)
(1.4 -7.05173e-16 0)
(1.4 -6.39579e-16 0)
(1.4 -6.71242e-16 0)
(1.4 -2.11291e-16 0)
(1.4 1.1939e-16 0)
(1.4 2.78453e-16 0)
(1.4 3.11665e-16 0)
(1.4 5.76964e-16 0)
(1.4 8.02e-16 0)
(1.4 1.08386e-15 0)
(1.4 1.12059e-15 0)
(1.4 1.25501e-15 0)
(1.4 1.48632e-15 0)
(1.4 1.44432e-15 0)
(1.4 1.14447e-15 0)
(1.4 1.12776e-15 0)
(1.4 4.70741e-16 0)
(1.4 3.27111e-16 0)
(1.4 4.29754e-16 0)
(1.4 -1.02858e-16 0)
(1.4 -4.89783e-16 0)
(1.4 -4.16194e-16 0)
(1.4 -7.12938e-16 0)
(1.4 -8.24004e-16 0)
(1.4 -8.70165e-16 0)
(1.4 -8.93543e-16 0)
(1.4 -7.94927e-16 0)
(1.4 -5.62687e-16 0)
(1.4 -4.49165e-16 0)
(1.4 -2.96355e-16 0)
(1.4 -1.21497e-16 0)
(1.4 2.52607e-16 0)
(1.4 6.59335e-16 0)
(1.4 1.11668e-15 0)
(1.4 1.06504e-15 0)
(1.4 8.14465e-16 0)
(1.4 6.88651e-16 0)
(1.4 6.90815e-16 0)
(1.4 2.51606e-16 0)
(1.4 2.49095e-16 0)
(1.4 1.12503e-16 0)
(1.4 7.2078e-17 0)
(1.4 -8.11525e-17 0)
(1.4 4.31527e-17 0)
(1.4 2.0311e-16 0)
(1.4 2.56629e-16 0)
(1.4 1.36295e-16 0)
(1.4 -1.59056e-16 0)
(1.4 -4.10195e-16 0)
(1.4 -4.26676e-16 0)
(1.4 -3.49178e-16 0)
(1.4 -4.63829e-16 0)
(1.4 -5.75839e-16 0)
(1.4 -6.17675e-16 0)
(1.4 -6.30311e-16 0)
(1.4 -6.75679e-16 0)
(1.4 -4.32707e-16 0)
(1.4 -4.00659e-16 0)
(1.4 -4.10633e-16 0)
(1.4 -2.77412e-16 0)
(1.4 -3.4723e-16 0)
(1.4 -7.3e-16 0)
(1.4 -1.17983e-15 0)
(1.4 -1.48814e-15 0)
(1.4 -1.43465e-15 0)
(1.4 -1.63826e-15 0)
(1.4 -1.75209e-15 0)
(1.4 -1.66957e-15 0)
(1.4 -1.81122e-15 0)
(1.4 -1.81446e-15 0)
(1.4 -2.01908e-15 0)
(1.4 -2.31781e-15 0)
(1.4 -2.80742e-15 0)
(1.4 -3.0467e-15 0)
(1.4 -3.00156e-15 0)
(1.4 -3.18139e-15 0)
(1.4 -3.20934e-15 0)
(1.4 -3.03398e-15 0)
(1.4 -2.92077e-15 0)
(1.4 -2.58633e-15 0)
(1.4 -2.29785e-15 0)
(1.4 -2.21795e-15 0)
(1.4 -2.12405e-15 0)
(1.4 -2.1445e-15 0)
(1.4 -2.11883e-15 0)
(1.4 -1.89758e-15 0)
(1.4 -1.69013e-15 0)
(1.4 -1.61868e-15 0)
(1.4 -1.48132e-15 0)
(1.4 -1.39933e-15 0)
(1.4 -1.38742e-15 0)
(1.4 -1.24116e-15 0)
(1.4 -9.92491e-16 0)
(1.4 -9.15272e-16 0)
(1.4 -8.7851e-16 0)
(1.4 -9.1259e-16 0)
(1.4 -9.49387e-16 0)
(1.4 -9.0325e-16 0)
(1.4 -6.62819e-16 0)
(1.4 -5.62101e-16 0)
(1.4 -2.8995e-16 0)
(1.4 -6.33384e-17 0)
(1.4 2.84132e-16 0)
(1.4 3.32061e-16 0)
(1.4 2.86652e-16 0)
(1.4 -8.55605e-17 0)
(1.4 -4.83498e-16 0)
(1.4 -3.98938e-16 0)
(1.4 -8.63049e-16 0)
(1.4 -1.54864e-15 0)
(1.4 -1.48459e-15 0)
(1.4 -1.20257e-15 0)
(1.4 -1.15609e-15 0)
(1.4 -8.3319e-16 0)
(1.4 -3.10204e-16 0)
(1.4 -1.37616e-16 0)
(1.4 3.92598e-16 0)
(1.4 1.12074e-15 0)
(1.4 1.62524e-15 0)
(1.4 2.04167e-15 0)
(1.4 2.19827e-15 0)
(1.4 2.29647e-15 0)
(1.4 2.21567e-15 0)
(1.4 2.22966e-15 0)
(1.4 2.26571e-15 0)
(1.4 2.13771e-15 0)
(1.4 1.93682e-15 0)
(1.4 1.67733e-15 0)
(1.4 1.69939e-15 0)
(1.4 1.75549e-15 0)
(1.4 1.73044e-15 0)
(1.4 2.06901e-15 0)
(1.4 2.39438e-15 0)
(1.4 2.5287e-15 0)
(1.4 2.61083e-15 0)
(1.4 2.27583e-15 0)
(1.4 2.20611e-15 0)
(1.4 1.8445e-15 0)
(1.4 1.51288e-15 0)
(1.4 1.07384e-15 0)
(1.4 2.53318e-16 0)
(1.4 -4.66614e-16 0)
(1.4 -4.2582e-16 0)
(1.4 -5.05271e-16 0)
(1.4 -6.61032e-16 0)
(1.4 -4.48096e-16 0)
(1.4 -4.40773e-16 0)
(1.4 -5.27769e-16 0)
(1.4 -5.81328e-16 0)
(1.4 -7.31168e-16 0)
(1.4 -8.4116e-16 0)
(1.4 -9.55626e-16 0)
(1.4 -1.06277e-15 0)
(1.4 -1.22215e-15 0)
(1.4 -1.28579e-15 0)
(1.4 -1.28552e-15 0)
(1.4 -8.73619e-16 0)
(1.4 -2.79528e-16 0)
(1.4 -1.95448e-16 0)
(1.4 1.2781e-16 0)
(1.4 3.51415e-16 0)
(1.4 5.19534e-16 0)
(1.4 6.35877e-16 0)
(1.4 7.21346e-16 0)
(1.4 6.03112e-16 0)
(1.4 7.79267e-16 0)
(1.4 6.58593e-16 0)
(1.4 6.20865e-16 0)
(1.4 3.043e-16 0)
(1.4 -2.25853e-17 0)
(1.4 -5.31649e-17 0)
(1.4 -3.55687e-16 0)
(1.4 -3.55162e-16 0)
(1.4 -4.44448e-16 0)
(1.4 -5.97992e-16 0)
(1.4 -7.42411e-16 0)
(1.4 -9.69834e-16 0)
(1.4 -1.35489e-15 0)
(1.4 -1.68304e-15 0)
(1.4 -1.8839e-15 0)
(1.4 -1.87545e-15 0)
(1.4 -1.86873e-15 0)
(1.4 -1.6115e-15 0)
(1.4 -1.25371e-15 0)
(1.4 -1.3493e-15 0)
(1.4 -1.50616e-15 0)
(1.4 -1.80966e-15 0)
(1.4 -2.18794e-15 0)
(1.4 -2.58207e-15 0)
(1.4 -2.79482e-15 0)
(1.4 -3.39476e-15 0)
(1.4 -3.25885e-15 0)
(1.4 -3.10497e-15 0)
(1.4 -3.21487e-15 0)
(1.4 -3.35399e-15 0)
(1.4 -3.33024e-15 0)
(1.4 -3.14612e-15 0)
(1.4 -3.10552e-15 0)
(1.4 -2.95182e-15 0)
(1.4 -2.12898e-15 0)
(1.4 -1.8009e-15 0)
(1.4 -1.28009e-15 0)
(1.4 -1.1729e-15 0)
(1.4 -1.01382e-15 0)
(1.4 -9.01852e-16 0)
(1.4 -3.26075e-16 0)
(1.4 3.15982e-17 0)
(1.4 3.03469e-16 0)
(1.4 4.34518e-16 0)
(1.4 4.94114e-16 0)
(1.4 5.96971e-16 0)
(1.4 6.15969e-16 0)
(1.4 7.31049e-16 0)
(1.4 1.0928e-15 0)
(1.4 1.16121e-15 0)
(1.4 1.30581e-15 0)
(1.4 1.29077e-15 0)
(1.4 1.1566e-15 0)
(1.4 1.44504e-15 0)
(1.4 1.49274e-15 0)
(1.4 1.71009e-15 0)
(1.4 1.15328e-15 0)
(1.4 1.14013e-15 0)
(1.4 1.02052e-15 0)
(1.4 8.05697e-16 0)
(1.4 7.29871e-16 0)
(1.4 6.93634e-16 0)
(1.4 5.2877e-16 0)
(1.4 9.57993e-17 0)
(1.4 -1.70366e-16 0)
(1.4 -4.76597e-17 0)
(1.4 2.73744e-16 0)
(1.4 3.80629e-16 0)
(1.4 -1.16353e-16 0)
(1.4 -5.43986e-16 0)
(1.4 -5.04912e-16 0)
(1.4 -1.34071e-16 0)
(1.4 4.89068e-16 0)
(1.4 1.06798e-15 0)
(1.4 9.47694e-16 0)
(1.4 4.43759e-16 0)
(1.4 -7.01451e-16 0)
(1.4 -7.32802e-16 0)
(1.4 -6.83262e-16 0)
(1.4 -4.36059e-16 0)
(1.4 -4.7321e-16 0)
(1.4 -3.75447e-16 0)
(1.4 -4.91452e-16 0)
(1.4 -1.02297e-15 0)
(1.4 -1.14414e-15 0)
(1.4 -1.08087e-15 0)
(1.4 -9.81718e-16 0)
(1.4 -9.10479e-16 0)
(1.4 -9.55448e-16 0)
(1.4 -7.98176e-16 0)
(1.4 -8.86111e-16 0)
(1.4 -8.74438e-16 0)
(1.4 -1.09288e-15 0)
(1.4 -1.36388e-15 0)
(1.4 -1.67579e-15 0)
(1.4 -1.66746e-15 0)
(1.4 -1.5702e-15 0)
(1.4 -1.4939e-15 0)
(1.4 -1.44878e-15 0)
(1.4 -1.44183e-15 0)
(1.4 -1.46289e-15 0)
(1.4 -1.44534e-15 0)
(1.4 -1.4522e-15 0)
(1.4 -1.45115e-15 0)
(1.4 -2.01901e-15 0)
(1.4 -1.0685e-15 0)
(1.4 -3.97122e-14 0)
(1.4 3.89871e-12 0)
(1.4 -2.34979e-10 0)
(1.4 1.94451e-08 0)
(1.4 -6.52298e-07 0)
(1.39955 4.27786e-05 0)
(1.4 -1.11916e-16 0)
(1.4 -1.78943e-16 0)
(1.4 -2.2475e-16 0)
(1.4 -1.90524e-16 0)
(1.4 -2.0323e-16 0)
(1.4 -9.52657e-17 0)
(1.4 -4.65328e-17 0)
(1.4 1.72797e-18 0)
(1.4 1.60162e-18 0)
(1.4 3.06704e-16 0)
(1.4 4.85189e-16 0)
(1.4 5.07997e-16 0)
(1.4 6.89044e-16 0)
(1.4 7.28751e-16 0)
(1.4 8.04558e-16 0)
(1.4 1.0091e-15 0)
(1.4 1.05601e-15 0)
(1.4 1.10946e-15 0)
(1.4 1.02091e-15 0)
(1.4 8.48545e-16 0)
(1.4 8.6196e-16 0)
(1.4 8.53211e-16 0)
(1.4 8.98664e-16 0)
(1.4 1.02862e-15 0)
(1.4 9.98624e-16 0)
(1.4 9.99577e-16 0)
(1.4 1.05396e-15 0)
(1.4 9.14508e-16 0)
(1.4 8.9877e-16 0)
(1.4 1.01312e-15 0)
(1.4 9.89296e-16 0)
(1.4 9.72402e-16 0)
(1.4 7.54955e-16 0)
(1.4 7.30296e-16 0)
(1.4 7.52304e-16 0)
(1.4 7.92045e-16 0)
(1.4 5.96804e-16 0)
(1.4 6.84835e-16 0)
(1.4 6.93187e-16 0)
(1.4 6.00694e-16 0)
(1.4 4.40962e-16 0)
(1.4 3.40344e-16 0)
(1.4 3.29375e-16 0)
(1.4 3.09861e-16 0)
(1.4 3.06808e-16 0)
(1.4 2.26115e-16 0)
(1.4 2.26579e-16 0)
(1.4 2.88589e-16 0)
(1.4 3.39275e-16 0)
(1.4 3.78984e-16 0)
(1.4 2.10005e-16 0)
(1.4 7.88489e-17 0)
(1.4 2.15799e-16 0)
(1.4 -9.14691e-17 0)
(1.4 -1.30112e-16 0)
(1.4 -1.22042e-16 0)
(1.4 -3.43368e-16 0)
(1.4 -5.22152e-16 0)
(1.4 -5.20889e-16 0)
(1.4 -5.44619e-16 0)
(1.4 -8.0444e-16 0)
(1.4 -7.40057e-16 0)
(1.4 -5.95759e-16 0)
(1.4 -3.1526e-16 0)
(1.4 9.97781e-18 0)
(1.4 1.29267e-16 0)
(1.4 2.34343e-16 0)
(1.4 4.37783e-16 0)
(1.4 4.78697e-16 0)
(1.4 4.61473e-16 0)
(1.4 2.90183e-16 0)
(1.4 2.12636e-16 0)
(1.4 2.5731e-16 0)
(1.4 6.0664e-16 0)
(1.4 9.86839e-16 0)
(1.4 1.01191e-15 0)
(1.4 1.23383e-15 0)
(1.4 1.13288e-15 0)
(1.4 1.11563e-15 0)
(1.4 1.43457e-15 0)
(1.4 1.68283e-15 0)
(1.4 1.80102e-15 0)
(1.4 1.97911e-15 0)
(1.4 2.12887e-15 0)
(1.4 2.15836e-15 0)
(1.4 2.16877e-15 0)
(1.4 2.22156e-15 0)
(1.4 2.22395e-15 0)
(1.4 2.25586e-15 0)
(1.4 2.25587e-15 0)
(1.4 2.19532e-15 0)
(1.4 2.14999e-15 0)
(1.4 2.13992e-15 0)
(1.4 2.2659e-15 0)
(1.4 2.22151e-15 0)
(1.4 2.25989e-15 0)
(1.4 1.8475e-15 0)
(1.4 1.83639e-15 0)
(1.4 1.99205e-15 0)
(1.4 1.88156e-15 0)
(1.4 1.71337e-15 0)
(1.4 1.63388e-15 0)
(1.4 1.71779e-15 0)
(1.4 1.87057e-15 0)
(1.4 1.95987e-15 0)
(1.4 2.27451e-15 0)
(1.4 2.41661e-15 0)
(1.4 2.30214e-15 0)
(1.4 2.22184e-15 0)
(1.4 2.40434e-15 0)
(1.4 2.35482e-15 0)
(1.4 2.10709e-15 0)
(1.4 2.12091e-15 0)
(1.4 2.0745e-15 0)
(1.4 1.62702e-15 0)
(1.4 1.49463e-15 0)
(1.4 1.3024e-15 0)
(1.4 1.4605e-15 0)
(1.4 1.5546e-15 0)
(1.4 1.59252e-15 0)
(1.4 1.68858e-15 0)
(1.4 1.56948e-15 0)
(1.4 1.41451e-15 0)
(1.4 1.02825e-15 0)
(1.4 2.86126e-16 0)
(1.4 2.36489e-16 0)
(1.4 1.44923e-16 0)
(1.4 -2.15514e-16 0)
(1.4 -4.86589e-16 0)
(1.4 -7.8555e-16 0)
(1.4 -1.36603e-15 0)
(1.4 -1.60577e-15 0)
(1.4 -1.61207e-15 0)
(1.4 -1.26509e-15 0)
(1.4 -1.15116e-15 0)
(1.4 -1.09324e-15 0)
(1.4 -6.88154e-16 0)
(1.4 -3.05962e-16 0)
(1.4 4.73338e-17 0)
(1.4 4.30777e-16 0)
(1.4 6.84158e-16 0)
(1.4 6.38256e-16 0)
(1.4 5.57838e-16 0)
(1.4 3.08273e-16 0)
(1.4 3.65925e-16 0)
(1.4 3.05307e-16 0)
(1.4 1.74777e-16 0)
(1.4 4.21736e-16 0)
(1.4 5.9367e-16 0)
(1.4 5.78742e-16 0)
(1.4 4.45987e-16 0)
(1.4 -2.67767e-17 0)
(1.4 -3.99373e-16 0)
(1.4 -1.05682e-15 0)
(1.4 -1.19172e-15 0)
(1.4 -1.17141e-15 0)
(1.4 -7.83848e-16 0)
(1.4 -5.3226e-16 0)
(1.4 -4.37098e-16 0)
(1.4 -6.0991e-16 0)
(1.4 -1.29063e-15 0)
(1.4 -1.88171e-15 0)
(1.4 -1.92824e-15 0)
(1.4 -2.39481e-15 0)
(1.4 -2.57039e-15 0)
(1.4 -2.55216e-15 0)
(1.4 -2.42782e-15 0)
(1.4 -2.17688e-15 0)
(1.4 -1.98141e-15 0)
(1.4 -2.16712e-15 0)
(1.4 -2.3515e-15 0)
(1.4 -2.41283e-15 0)
(1.4 -2.66631e-15 0)
(1.4 -2.84726e-15 0)
(1.4 -3.12622e-15 0)
(1.4 -3.26499e-15 0)
(1.4 -3.1473e-15 0)
(1.4 -2.83583e-15 0)
(1.4 -2.60285e-15 0)
(1.4 -2.54315e-15 0)
(1.4 -2.54551e-15 0)
(1.4 -1.80398e-15 0)
(1.4 -1.32993e-15 0)
(1.4 -9.55876e-16 0)
(1.4 -6.32187e-16 0)
(1.4 -6.50559e-16 0)
(1.4 -6.29179e-16 0)
(1.4 -6.31585e-16 0)
(1.4 -5.528e-16 0)
(1.4 -4.09905e-16 0)
(1.4 -5.35981e-16 0)
(1.4 -6.96981e-16 0)
(1.4 -7.91095e-16 0)
(1.4 -1.01491e-15 0)
(1.4 -1.13098e-15 0)
(1.4 -1.21754e-15 0)
(1.4 -1.09368e-15 0)
(1.4 -1.10518e-15 0)
(1.4 -9.55221e-16 0)
(1.4 -4.68203e-16 0)
(1.4 -5.22886e-16 0)
(1.4 -6.13837e-16 0)
(1.4 -6.87202e-16 0)
(1.4 -5.2497e-16 0)
(1.4 -4.00197e-16 0)
(1.4 -3.0452e-16 0)
(1.4 -1.12969e-16 0)
(1.4 -9.44515e-17 0)
(1.4 -1.06158e-16 0)
(1.4 -4.63762e-16 0)
(1.4 -8.3393e-16 0)
(1.4 -1.18007e-15 0)
(1.4 -1.65891e-15 0)
(1.4 -2.07385e-15 0)
(1.4 -2.07581e-15 0)
(1.4 -2.18798e-15 0)
(1.4 -2.18543e-15 0)
(1.4 -1.79125e-15 0)
(1.4 -1.11107e-15 0)
(1.4 -9.81993e-16 0)
(1.4 -1.08808e-15 0)
(1.4 -8.7858e-16 0)
(1.4 -7.56455e-16 0)
(1.4 -6.76525e-16 0)
(1.4 -6.58582e-16 0)
(1.4 -7.3659e-16 0)
(1.4 -7.41209e-16 0)
(1.4 -6.53857e-16 0)
(1.4 -5.13856e-16 0)
(1.4 -2.55594e-16 0)
(1.4 -1.58881e-16 0)
(1.4 6.57081e-17 0)
(1.4 6.19068e-16 0)
(1.4 1.37512e-15 0)
(1.4 2.3533e-15 0)
(1.4 2.64862e-15 0)
(1.4 3.06581e-15 0)
(1.4 3.30784e-15 0)
(1.4 3.47631e-15 0)
(1.4 3.60364e-15 0)
(1.4 3.66899e-15 0)
(1.4 3.57662e-15 0)
(1.4 3.27518e-15 0)
(1.4 3.15308e-15 0)
(1.4 2.70302e-15 0)
(1.4 2.60791e-15 0)
(1.4 2.62168e-15 0)
(1.4 2.5509e-15 0)
(1.4 2.47804e-15 0)
(1.4 2.36636e-15 0)
(1.4 2.06434e-15 0)
(1.4 1.86762e-15 0)
(1.4 1.71601e-15 0)
(1.4 1.71949e-15 0)
(1.4 1.62416e-15 0)
(1.4 1.3991e-15 0)
(1.4 9.28839e-16 0)
(1.4 5.00169e-16 0)
(1.4 3.23558e-16 0)
(1.4 4.83595e-16 0)
(1.4 3.78444e-16 0)
(1.4 6.63334e-16 0)
(1.4 9.07362e-16 0)
(1.4 1.16149e-15 0)
(1.4 1.32048e-15 0)
(1.4 1.35962e-15 0)
(1.4 1.37986e-15 0)
(1.4 1.52019e-15 0)
(1.4 1.73202e-15 0)
(1.4 1.60529e-15 0)
(1.4 1.5806e-15 0)
(1.4 1.42356e-15 0)
(1.4 1.31922e-15 0)
(1.4 1.24408e-15 0)
(1.4 1.12335e-15 0)
(1.4 1.02152e-15 0)
(1.4 1.29046e-15 0)
(1.4 1.22222e-15 0)
(1.4 1.30997e-15 0)
(1.4 1.41134e-15 0)
(1.4 9.56302e-16 0)
(1.4 6.25321e-16 0)
(1.4 2.03498e-16 0)
(1.4 -3.68334e-16 0)
(1.4 -7.2544e-16 0)
(1.4 -1.06704e-15 0)
(1.4 -1.59823e-15 0)
(1.4 -1.94997e-15 0)
(1.4 -2.22407e-15 0)
(1.4 -2.37492e-15 0)
(1.4 -2.277e-15 0)
(1.4 -2.74537e-15 0)
(1.4 -2.81078e-15 0)
(1.4 -2.97e-15 0)
(1.4 -3.26922e-15 0)
(1.4 -3.60079e-15 0)
(1.4 -3.62495e-15 0)
(1.4 -3.55289e-15 0)
(1.4 -3.58876e-15 0)
(1.4 -3.64102e-15 0)
(1.4 -3.7229e-15 0)
(1.4 -3.83199e-15 0)
(1.4 -3.69913e-15 0)
(1.4 -3.39182e-15 0)
(1.4 -2.8587e-15 0)
(1.4 -2.65697e-15 0)
(1.4 -2.1735e-15 0)
(1.4 -1.566e-15 0)
(1.4 -8.41555e-16 0)
(1.4 -6.78077e-16 0)
(1.4 -3.49429e-16 0)
(1.4 3.6352e-16 0)
(1.4 7.89537e-16 0)
(1.4 1.09206e-15 0)
(1.4 1.2141e-15 0)
(1.4 1.56215e-15 0)
(1.4 1.28663e-15 0)
(1.4 1.20505e-15 0)
(1.4 1.45922e-15 0)
(1.4 1.28444e-15 0)
(1.4 1.37169e-15 0)
(1.4 1.6352e-15 0)
(1.4 1.80604e-15 0)
(1.4 2.22964e-15 0)
(1.4 2.42437e-15 0)
(1.4 1.9081e-15 0)
(1.4 1.92678e-15 0)
(1.4 1.48985e-15 0)
(1.4 1.91571e-15 0)
(1.4 1.73777e-15 0)
(1.4 1.17684e-15 0)
(1.4 9.21649e-16 0)
(1.4 1.48768e-16 0)
(1.4 -1.79818e-16 0)
(1.4 -6.36389e-16 0)
(1.4 -1.23265e-15 0)
(1.4 -1.31864e-15 0)
(1.4 -1.36909e-15 0)
(1.4 -1.4895e-15 0)
(1.4 -1.59554e-15 0)
(1.4 -1.26026e-15 0)
(1.4 -2.33724e-16 0)
(1.4 -4.09574e-17 0)
(1.4 4.53068e-16 0)
(1.4 1.33101e-15 0)
(1.4 1.57389e-15 0)
(1.4 1.25303e-15 0)
(1.4 1.84823e-15 0)
(1.4 2.4427e-15 0)
(1.4 2.43014e-15 0)
(1.4 2.31915e-15 0)
(1.4 2.07061e-15 0)
(1.4 1.97852e-15 0)
(1.4 1.88651e-15 0)
(1.4 1.21886e-15 0)
(1.4 7.14923e-16 0)
(1.4 3.02773e-16 0)
(1.4 -4.70696e-16 0)
(1.4 -7.54963e-16 0)
(1.4 -1.34424e-15 0)
(1.4 -1.58526e-15 0)
(1.4 -1.96621e-15 0)
(1.4 -2.34646e-15 0)
(1.4 -2.3828e-15 0)
(1.4 -2.92947e-15 0)
(1.4 -3.34221e-15 0)
(1.4 -3.71035e-15 0)
(1.4 -3.5819e-15 0)
(1.4 -3.29629e-15 0)
(1.4 -3.32981e-15 0)
(1.4 -3.44647e-15 0)
(1.4 -3.65855e-15 0)
(1.4 -3.99748e-15 0)
(1.4 -3.86845e-15 0)
(1.4 -3.70698e-15 0)
(1.4 -3.39521e-15 0)
(1.4 -3.94955e-15 0)
(1.4 -2.27855e-15 0)
(1.4 -2.46062e-14 0)
(1.4 2.97539e-12 0)
(1.4 -1.15827e-10 0)
(1.4 1.11329e-08 0)
(1.4 -2.13952e-07 0)
(1.3997 3.01592e-05 0)
(1.4 5.07805e-17 0)
(1.4 1.33561e-16 0)
(1.4 1.95909e-16 0)
(1.4 2.22501e-16 0)
(1.4 3.36148e-16 0)
(1.4 2.42632e-16 0)
(1.4 5.92089e-17 0)
(1.4 -2.65289e-17 0)
(1.4 7.40172e-17 0)
(1.4 1.2058e-16 0)
(1.4 8.45979e-17 0)
(1.4 1.10584e-17 0)
(1.4 -1.02914e-16 0)
(1.4 -1.45172e-16 0)
(1.4 -8.98953e-17 0)
(1.4 2.9384e-16 0)
(1.4 3.86278e-16 0)
(1.4 4.23569e-16 0)
(1.4 3.62503e-16 0)
(1.4 1.6809e-16 0)
(1.4 1.03239e-16 0)
(1.4 2.64145e-17 0)
(1.4 -2.07089e-18 0)
(1.4 -3.62132e-17 0)
(1.4 1.89221e-17 0)
(1.4 -4.8221e-20 0)
(1.4 1.33908e-16 0)
(1.4 2.8646e-16 0)
(1.4 3.85916e-16 0)
(1.4 3.80276e-16 0)
(1.4 3.18598e-16 0)
(1.4 3.01983e-16 0)
(1.4 3.83324e-16 0)
(1.4 5.81487e-16 0)
(1.4 8.2994e-16 0)
(1.4 8.41064e-16 0)
(1.4 8.13108e-16 0)
(1.4 6.74958e-16 0)
(1.4 1.09877e-16 0)
(1.4 2.54043e-17 0)
(1.4 6.64702e-18 0)
(1.4 2.91452e-17 0)
(1.4 1.29748e-16 0)
(1.4 2.91693e-16 0)
(1.4 3.5829e-16 0)
(1.4 4.26621e-16 0)
(1.4 3.9922e-16 0)
(1.4 3.36187e-16 0)
(1.4 2.50966e-16 0)
(1.4 3.68962e-16 0)
(1.4 5.42003e-16 0)
(1.4 4.22419e-16 0)
(1.4 3.58609e-16 0)
(1.4 3.28653e-16 0)
(1.4 2.05518e-16 0)
(1.4 8.77726e-17 0)
(1.4 -4.41867e-17 0)
(1.4 -1.03028e-16 0)
(1.4 -1.07175e-16 0)
(1.4 -3.33293e-16 0)
(1.4 -4.7971e-16 0)
(1.4 -5.07365e-16 0)
(1.4 -6.34054e-16 0)
(1.4 -6.06486e-16 0)
(1.4 -6.57661e-16 0)
(1.4 -5.61748e-16 0)
(1.4 -4.25217e-16 0)
(1.4 -2.81448e-16 0)
(1.4 -2.38613e-16 0)
(1.4 -1.62102e-16 0)
(1.4 -5.70856e-17 0)
(1.4 -1.49295e-17 0)
(1.4 1.12217e-16 0)
(1.4 4.06946e-16 0)
(1.4 6.52594e-16 0)
(1.4 7.77487e-16 0)
(1.4 9.52853e-16 0)
(1.4 1.35896e-15 0)
(1.4 1.87692e-15 0)
(1.4 2.08604e-15 0)
(1.4 2.18017e-15 0)
(1.4 2.14183e-15 0)
(1.4 2.14859e-15 0)
(1.4 2.23753e-15 0)
(1.4 2.49068e-15 0)
(1.4 2.65042e-15 0)
(1.4 2.68711e-15 0)
(1.4 2.60695e-15 0)
(1.4 2.65217e-15 0)
(1.4 2.78173e-15 0)
(1.4 2.98802e-15 0)
(1.4 3.30874e-15 0)
(1.4 3.65278e-15 0)
(1.4 3.68119e-15 0)
(1.4 3.72758e-15 0)
(1.4 3.77304e-15 0)
(1.4 4.06471e-15 0)
(1.4 4.2391e-15 0)
(1.4 4.44394e-15 0)
(1.4 4.28655e-15 0)
(1.4 3.96126e-15 0)
(1.4 3.87838e-15 0)
(1.4 3.97224e-15 0)
(1.4 3.89201e-15 0)
(1.4 4.1164e-15 0)
(1.4 4.27034e-15 0)
(1.4 4.26037e-15 0)
(1.4 4.15097e-15 0)
(1.4 3.84789e-15 0)
(1.4 3.90055e-15 0)
(1.4 3.71346e-15 0)
(1.4 3.59236e-15 0)
(1.4 3.57671e-15 0)
(1.4 3.57493e-15 0)
(1.4 3.08012e-15 0)
(1.4 2.66793e-15 0)
(1.4 2.09038e-15 0)
(1.4 1.01386e-15 0)
(1.4 6.96162e-16 0)
(1.4 4.1544e-16 0)
(1.4 1.94759e-16 0)
(1.4 1.62878e-16 0)
(1.4 1.62937e-16 0)
(1.4 2.14712e-16 0)
(1.4 8.85966e-17 0)
(1.4 -2.623e-16 0)
(1.4 -7.1571e-16 0)
(1.4 -7.52243e-16 0)
(1.4 -8.52756e-16 0)
(1.4 -8.63526e-16 0)
(1.4 -3.67107e-16 0)
(1.4 -2.77674e-16 0)
(1.4 -8.92782e-17 0)
(1.4 9.65474e-17 0)
(1.4 5.64964e-16 0)
(1.4 1.06477e-15 0)
(1.4 1.10416e-15 0)
(1.4 1.16599e-15 0)
(1.4 1.15754e-15 0)
(1.4 1.15594e-15 0)
(1.4 7.68515e-16 0)
(1.4 7.46739e-16 0)
(1.4 6.52298e-16 0)
(1.4 5.53885e-16 0)
(1.4 4.59426e-16 0)
(1.4 5.44446e-16 0)
(1.4 5.53454e-16 0)
(1.4 6.7996e-16 0)
(1.4 6.68016e-16 0)
(1.4 7.71057e-16 0)
(1.4 6.27306e-16 0)
(1.4 -2.85461e-17 0)
(1.4 -8.33288e-16 0)
(1.4 -1.04918e-15 0)
(1.4 -1.27355e-15 0)
(1.4 -1.41238e-15 0)
(1.4 -1.78042e-15 0)
(1.4 -1.82416e-15 0)
(1.4 -1.74802e-15 0)
(1.4 -1.68085e-15 0)
(1.4 -1.69154e-15 0)
(1.4 -1.63961e-15 0)
(1.4 -1.61285e-15 0)
(1.4 -1.59857e-15 0)
(1.4 -1.43947e-15 0)
(1.4 -1.66682e-15 0)
(1.4 -1.48873e-15 0)
(1.4 -1.3069e-15 0)
(1.4 -1.42572e-15 0)
(1.4 -1.83105e-15 0)
(1.4 -2.60615e-15 0)
(1.4 -2.84588e-15 0)
(1.4 -2.94657e-15 0)
(1.4 -3.01277e-15 0)
(1.4 -2.7272e-15 0)
(1.4 -2.1736e-15 0)
(1.4 -2.03255e-15 0)
(1.4 -1.70267e-15 0)
(1.4 -1.78795e-15 0)
(1.4 -9.24454e-16 0)
(1.4 1.01868e-16 0)
(1.4 5.28214e-16 0)
(1.4 8.44542e-16 0)
(1.4 1.54528e-15 0)
(1.4 1.69725e-15 0)
(1.4 1.52166e-15 0)
(1.4 1.33234e-15 0)
(1.4 9.97753e-16 0)
(1.4 8.7934e-16 0)
(1.4 6.40064e-16 0)
(1.4 2.69098e-16 0)
(1.4 1.32162e-16 0)
(1.4 -8.56366e-17 0)
(1.4 -1.98292e-16 0)
(1.4 -3.1364e-16 0)
(1.4 -4.37973e-16 0)
(1.4 -5.34755e-16 0)
(1.4 -5.23815e-16 0)
(1.4 -4.69996e-16 0)
(1.4 -5.12411e-16 0)
(1.4 -3.81754e-16 0)
(1.4 -2.70268e-16 0)
(1.4 -7.17912e-17 0)
(1.4 1.65441e-16 0)
(1.4 2.61511e-16 0)
(1.4 2.3799e-16 0)
(1.4 1.91637e-16 0)
(1.4 9.02339e-19 0)
(1.4 -2.64337e-16 0)
(1.4 -6.92967e-16 0)
(1.4 -1.24318e-15 0)
(1.4 -1.83312e-15 0)
(1.4 -2.09517e-15 0)
(1.4 -2.45708e-15 0)
(1.4 -2.62111e-15 0)
(1.4 -2.45866e-15 0)
(1.4 -2.0773e-15 0)
(1.4 -1.96048e-15 0)
(1.4 -1.78114e-15 0)
(1.4 -1.6101e-15 0)
(1.4 -1.28082e-15 0)
(1.4 -1.08227e-15 0)
(1.4 -9.90937e-16 0)
(1.4 -8.14583e-16 0)
(1.4 -1.19031e-16 0)
(1.4 2.77337e-16 0)
(1.4 5.60681e-16 0)
(1.4 7.64547e-16 0)
(1.4 8.59787e-16 0)
(1.4 7.879e-16 0)
(1.4 8.56079e-16 0)
(1.4 9.64968e-16 0)
(1.4 8.89157e-16 0)
(1.4 8.90217e-16 0)
(1.4 9.57062e-16 0)
(1.4 1.21991e-15 0)
(1.4 1.69463e-15 0)
(1.4 2.17832e-15 0)
(1.4 2.2995e-15 0)
(1.4 2.16713e-15 0)
(1.4 2.27975e-15 0)
(1.4 2.32087e-15 0)
(1.4 2.21256e-15 0)
(1.4 2.2015e-15 0)
(1.4 2.33057e-15 0)
(1.4 2.4223e-15 0)
(1.4 2.38262e-15 0)
(1.4 2.19787e-15 0)
(1.4 2.28591e-15 0)
(1.4 1.94922e-15 0)
(1.4 1.87882e-15 0)
(1.4 1.61486e-15 0)
(1.4 1.39657e-15 0)
(1.4 1.31007e-15 0)
(1.4 1.37037e-15 0)
(1.4 1.35265e-15 0)
(1.4 1.32235e-15 0)
(1.4 1.34017e-15 0)
(1.4 1.26931e-15 0)
(1.4 1.17768e-15 0)
(1.4 9.28881e-16 0)
(1.4 8.44241e-16 0)
(1.4 7.97123e-16 0)
(1.4 7.77385e-16 0)
(1.4 8.7634e-16 0)
(1.4 9.92739e-16 0)
(1.4 8.61421e-16 0)
(1.4 7.42476e-16 0)
(1.4 6.96561e-16 0)
(1.4 6.95616e-16 0)
(1.4 6.01251e-16 0)
(1.4 7.04888e-16 0)
(1.4 4.30341e-16 0)
(1.4 7.54269e-17 0)
(1.4 1.27524e-16 0)
(1.4 2.04969e-16 0)
(1.4 6.10623e-16 0)
(1.4 1.02461e-16 0)
(1.4 -4.34686e-16 0)
(1.4 -9.6139e-16 0)
(1.4 -1.55156e-15 0)
(1.4 -1.96692e-15 0)
(1.4 -2.40164e-15 0)
(1.4 -3.07437e-15 0)
(1.4 -3.49396e-15 0)
(1.4 -4.14939e-15 0)
(1.4 -4.96491e-15 0)