/*--------------------------------*- C++ -*----------------------------------*\
  =========                 |
  \\      /  F ield         | OpenFOAM: The Open Source CFD Toolbox
   \\    /   O peration     | Website:  https://openfoam.org
    \\  /    A nd           | Version:  7
     \\/     M anipulation  |
\*---------------------------------------------------------------------------*/
FoamFile
{
    version     2.0;
    format      ascii;
    class       volVectorField;
    location    "4.5";
    object      U;
}
// * * * * * * * * * * * * * * * * * * * * * * * * * * * * * * * * * * * * * //

dimensions      [0 1 -1 0 0 0 0];

internalField   nonuniform List<vector> 
2413
(
(1.40196 0.266349 0)
(1.4064 0.26442 0)
(1.41149 0.261994 0)
(1.41742 0.259025 0)
(1.42302 0.256428 0)
(1.42877 0.252972 0)
(1.42694 0.247934 0)
(1.41975 0.240091 0)
(1.38203 0.229276 0)
(1.33145 0.213765 0)
(1.31814 0.206403 0)
(1.31884 0.200206 0)
(1.32162 0.194809 0)
(1.3253 0.190626 0)
(1.32784 0.186765 0)
(1.32906 0.182784 0)
(1.3302 0.178405 0)
(1.33173 0.173594 0)
(1.33332 0.168797 0)
(1.33571 0.163465 0)
(1.33828 0.158366 0)
(1.34038 0.154436 0)
(1.34274 0.150345 0)
(1.34504 0.146192 0)
(1.34702 0.142472 0)
(1.34989 0.138115 0)
(1.35333 0.132768 0)
(1.35577 0.128129 0)
(1.26598 0.117134 0)
(1.26785 0.117338 0)
(1.27016 0.117723 0)
(1.2728 0.118132 0)
(1.27543 0.118638 0)
(1.2781 0.119219 0)
(1.28078 0.119832 0)
(1.28332 0.120368 0)
(1.28582 0.12091 0)
(1.28825 0.121476 0)
(1.29053 0.122086 0)
(1.2926 0.122921 0)
(1.29472 0.124018 0)
(1.29693 0.125157 0)
(1.29901 0.12677 0)
(1.301 0.128967 0)
(1.30283 0.131721 0)
(1.30462 0.135005 0)
(1.30638 0.138667 0)
(1.30802 0.142668 0)
(1.30957 0.146879 0)
(1.31107 0.151139 0)
(1.31266 0.155315 0)
(1.31418 0.159603 0)
(1.31593 0.163771 0)
(1.31785 0.167887 0)
(1.31966 0.172319 0)
(1.32184 0.176422 0)
(1.32385 0.180789 0)
(1.32569 0.185318 0)
(1.32747 0.18985 0)
(1.32907 0.194494 0)
(1.33029 0.199528 0)
(1.33138 0.204792 0)
(1.33249 0.210098 0)
(1.3333 0.215787 0)
(1.33399 0.221697 0)
(1.33459 0.227731 0)
(1.3359 0.232821 0)
(1.33635 0.238754 0)
(1.33677 0.244682 0)
(1.33864 0.248456 0)
(1.33999 0.252729 0)
(1.34047 0.25783 0)
(1.34288 0.260026 0)
(1.34534 0.262066 0)
(1.34708 0.265577 0)
(1.34995 0.266541 0)
(1.35292 0.267529 0)
(1.35596 0.269024 0)
(1.35935 0.269108 0)
(1.36302 0.269396 0)
(1.36661 0.269708 0)
(1.3704 0.269417 0)
(1.3745 0.269376 0)
(1.37848 0.269119 0)
(1.38268 0.268735 0)
(1.38667 0.268178 0)
(1.39116 0.267502 0)
(1.39505 0.266699 0)
(1.39964 0.265649 0)
(1.40348 0.264547 0)
(1.40852 0.263143 0)
(1.41318 0.261822 0)
(1.41924 0.260204 0)
(1.42138 0.257935 0)
(1.41993 0.253709 0)
(1.40409 0.246617 0)
(1.35229 0.236291 0)
(1.31014 0.222334 0)
(1.3066 0.21835 0)
(1.30734 0.213956 0)
(1.31174 0.208783 0)
(1.31622 0.204287 0)
(1.32003 0.199775 0)
(1.32234 0.195035 0)
(1.32413 0.190192 0)
(1.32582 0.185302 0)
(1.32715 0.180796 0)
(1.32865 0.176503 0)
(1.32977 0.172819 0)
(1.33181 0.16871 0)
(1.33421 0.164276 0)
(1.33661 0.159789 0)
(1.33999 0.154657 0)
(1.34316 0.149725 0)
(1.34537 0.145744 0)
(1.34779 0.141466 0)
(1.26614 0.118649 0)
(1.26819 0.118793 0)
(1.27066 0.119088 0)
(1.27337 0.119431 0)
(1.27611 0.119789 0)
(1.27887 0.120081 0)
(1.28163 0.120388 0)
(1.28428 0.120641 0)
(1.28683 0.12097 0)
(1.28923 0.121281 0)
(1.29143 0.121503 0)
(1.29351 0.121923 0)
(1.29588 0.122468 0)
(1.29856 0.122974 0)
(1.30129 0.12348 0)
(1.30411 0.124071 0)
(1.30687 0.124768 0)
(1.30938 0.125572 0)
(1.31178 0.126588 0)
(1.31398 0.127975 0)
(1.31603 0.1298 0)
(1.31801 0.13205 0)
(1.31998 0.134613 0)
(1.32185 0.137499 0)
(1.32379 0.140638 0)
(1.32576 0.144062 0)
(1.32785 0.14762 0)
(1.32997 0.151304 0)
(1.33211 0.155125 0)
(1.3343 0.158965 0)
(1.33634 0.162949 0)
(1.33825 0.167033 0)
(1.34003 0.171222 0)
(1.3417 0.175609 0)
(1.34319 0.18034 0)
(1.3446 0.185374 0)
(1.34584 0.190744 0)
(1.34707 0.196246 0)
(1.34773 0.202458 0)
(1.34854 0.208541 0)
(1.34948 0.214376 0)
(1.34967 0.221007 0)
(1.34997 0.227507 0)
(1.35151 0.23227 0)
(1.35201 0.23802 0)
(1.35236 0.243991 0)
(1.35449 0.247194 0)
(1.35649 0.250518 0)
(1.35734 0.255208 0)
(1.35979 0.257094 0)
(1.36269 0.258264 0)
(1.36494 0.261091 0)
(1.36788 0.261711 0)
(1.37112 0.262319 0)
(1.37448 0.263294 0)
(1.37814 0.263219 0)
(1.38223 0.263388 0)
(1.38601 0.263171 0)
(1.39014 0.26292 0)
(1.39392 0.262339 0)
(1.3982 0.261918 0)
(1.402 0.26128 0)
(1.40687 0.26044 0)
(1.41145 0.259478 0)
(1.41697 0.258625 0)
(1.41765 0.256375 0)
(1.41442 0.253563 0)
(1.38734 0.246679 0)
(1.32641 0.239613 0)
(1.2969 0.229547 0)
(1.29673 0.225826 0)
(1.29895 0.222815 0)
(1.30448 0.218894 0)
(1.30955 0.214408 0)
(1.3142 0.209442 0)
(1.31619 0.205011 0)
(1.31764 0.200883 0)
(1.31862 0.197434 0)
(1.31947 0.194354 0)
(1.32087 0.190845 0)
(1.32266 0.186788 0)
(1.32475 0.182277 0)
(1.32673 0.17779 0)
(1.32917 0.173103 0)
(1.33172 0.168631 0)
(1.3344 0.164195 0)
(1.33736 0.159321 0)
(1.3403 0.154328 0)
(1.26632 0.120342 0)
(1.26856 0.120651 0)
(1.27114 0.120883 0)
(1.27384 0.121104 0)
(1.27659 0.121299 0)
(1.27934 0.121434 0)
(1.28202 0.121649 0)
(1.28463 0.121755 0)
(1.28709 0.121876 0)
(1.28942 0.121905 0)
(1.29166 0.121802 0)
(1.2939 0.121998 0)
(1.2965 0.122142 0)
(1.2993 0.122471 0)
(1.30217 0.122788 0)
(1.30501 0.123088 0)
(1.30781 0.123416 0)
(1.31061 0.123659 0)
(1.31337 0.123985 0)
(1.31605 0.124183 0)
(1.31865 0.124411 0)
(1.32106 0.124673 0)
(1.32352 0.125285 0)
(1.32602 0.12591 0)
(1.32853 0.126778 0)
(1.33102 0.127982 0)
(1.33347 0.129507 0)
(1.33597 0.131355 0)
(1.33846 0.133505 0)
(1.34093 0.13586 0)
(1.34328 0.138442 0)
(1.34556 0.141134 0)
(1.3477 0.143989 0)
(1.34979 0.14704 0)
(1.35188 0.150289 0)
(1.3539 0.153937 0)
(1.35591 0.157878 0)
(1.35765 0.162335 0)
(1.35932 0.167047 0)
(1.36066 0.172236 0)
(1.3617 0.177925 0)
(1.3626 0.183925 0)
(1.36351 0.19004 0)
(1.36377 0.197036 0)
(1.36433 0.203788 0)
(1.3653 0.20993 0)
(1.36543 0.216882 0)
(1.36583 0.223416 0)
(1.3672 0.228337 0)
(1.3684 0.233288 0)
(1.36876 0.239101 0)
(1.37085 0.2423 0)
(1.37345 0.244787 0)
(1.37471 0.249105 0)
(1.37739 0.250815 0)
(1.38055 0.251722 0)
(1.38322 0.254374 0)
(1.38646 0.254677 0)
(1.38988 0.255374 0)
(1.39326 0.255585 0)
(1.39706 0.255837 0)
(1.40093 0.25537 0)
(1.40572 0.255062 0)
(1.41034 0.254415 0)
(1.41461 0.25406 0)
(1.41527 0.252475 0)
(1.40892 0.249492 0)
(1.37106 0.242689 0)
(1.30845 0.238558 0)
(1.28841 0.231496 0)
(1.29097 0.227411 0)
(1.29511 0.223636 0)
(1.30093 0.220329 0)
(1.30535 0.217048 0)
(1.30794 0.214284 0)
(1.30966 0.211877 0)
(1.31128 0.209179 0)
(1.3127 0.206161 0)
(1.31458 0.203214 0)
(1.3156 0.200457 0)
(1.31652 0.197305 0)
(1.31762 0.194041 0)
(1.31902 0.190798 0)
(1.32135 0.18686 0)
(1.3241 0.182355 0)
(1.32696 0.177353 0)
(1.32942 0.172458 0)
(1.33178 0.168111 0)
(1.26665 0.122025 0)
(1.26909 0.122277 0)
(1.2717 0.122443 0)
(1.27432 0.12267 0)
(1.27692 0.122938 0)
(1.2795 0.12316 0)
(1.28203 0.123405 0)
(1.28454 0.123422 0)
(1.28691 0.123367 0)
(1.28918 0.123194 0)
(1.29146 0.122994 0)
(1.29388 0.123032 0)
(1.29667 0.123024 0)
(1.29948 0.123199 0)
(1.30243 0.123295 0)
(1.30531 0.123369 0)
(1.30814 0.123521 0)
(1.31097 0.123439 0)
(1.31368 0.123556 0)
(1.31637 0.123395 0)
(1.3189 0.123346 0)
(1.32144 0.123224 0)
(1.32414 0.123128 0)
(1.32691 0.123185 0)
(1.32988 0.123296 0)
(1.33282 0.123449 0)
(1.33582 0.123558 0)
(1.33873 0.123772 0)
(1.34157 0.124008 0)
(1.34425 0.124298 0)
(1.34684 0.124681 0)
(1.34934 0.125231 0)
(1.3519 0.125984 0)
(1.35445 0.126985 0)
(1.35711 0.128159 0)
(1.35973 0.129662 0)
(1.36237 0.13146 0)
(1.36488 0.133646 0)
(1.36729 0.136067 0)
(1.36946 0.138904 0)
(1.37149 0.142138 0)
(1.3733 0.145843 0)
(1.37484 0.150223 0)
(1.37628 0.155098 0)
(1.37742 0.160634 0)
(1.37833 0.166765 0)
(1.37907 0.173256 0)
(1.37982 0.179824 0)
(1.38002 0.187067 0)
(1.38049 0.194156 0)
(1.38134 0.200602 0)
(1.38186 0.207467 0)
(1.38249 0.21412 0)
(1.38384 0.219553 0)
(1.3858 0.224025 0)
(1.38636 0.229882 0)
(1.3886 0.23329 0)
(1.39146 0.235553 0)
(1.39295 0.239889 0)
(1.39567 0.241363 0)
(1.39875 0.242467 0)
(1.4018 0.244645 0)
(1.40554 0.245612 0)
(1.40983 0.245933 0)
(1.41278 0.245851 0)
(1.41322 0.245264 0)
(1.40322 0.242027 0)
(1.35582 0.237631 0)
(1.29712 0.233926 0)
(1.28443 0.22711 0)
(1.28885 0.222091 0)
(1.29325 0.219279 0)
(1.29827 0.21847 0)
(1.30177 0.217372 0)
(1.30344 0.214785 0)
(1.30513 0.211997 0)
(1.30737 0.209417 0)
(1.30954 0.206646 0)
(1.31144 0.204573 0)
(1.3124 0.202992 0)
(1.31322 0.20109 0)
(1.31372 0.198279 0)
(1.31474 0.195282 0)
(1.31596 0.192747 0)
(1.31725 0.190163 0)
(1.31904 0.187338 0)
(1.32093 0.184065 0)
(1.32392 0.180015 0)
(1.26718 0.12334 0)
(1.26968 0.123581 0)
(1.27216 0.123869 0)
(1.27464 0.124247 0)
(1.27711 0.12458 0)
(1.27963 0.124719 0)
(1.2821 0.124768 0)
(1.2845 0.124636 0)
(1.28671 0.124555 0)
(1.28889 0.124476 0)
(1.29127 0.124418 0)
(1.29386 0.124492 0)
(1.2967 0.124525 0)
(1.29953 0.124629 0)
(1.30244 0.124626 0)
(1.30526 0.124602 0)
(1.30804 0.124588 0)
(1.31078 0.124318 0)
(1.31333 0.124233 0)
(1.316 0.123778 0)
(1.31846 0.123548 0)
(1.32118 0.123149 0)
(1.32396 0.122895 0)
(1.32687 0.12271 0)
(1.32999 0.122458 0)
(1.33291 0.122388 0)
(1.33602 0.122104 0)
(1.33889 0.121972 0)
(1.3419 0.121712 0)
(1.3447 0.121436 0)
(1.34733 0.121301 0)
(1.35018 0.120884 0)
(1.35292 0.120679 0)
(1.35603 0.120473 0)
(1.35893 0.12027 0)
(1.36199 0.12012 0)
(1.36491 0.119959 0)
(1.36776 0.119803 0)
(1.37053 0.119879 0)
(1.37338 0.119984 0)
(1.37598 0.120508 0)
(1.37865 0.121199 0)
(1.38114 0.122355 0)
(1.38364 0.123875 0)
(1.38587 0.125963 0)
(1.38801 0.128532 0)
(1.38986 0.131789 0)
(1.3915 0.13569 0)
(1.39286 0.140225 0)
(1.39406 0.14545 0)
(1.39494 0.151469 0)
(1.39583 0.157929 0)
(1.39668 0.164771 0)
(1.39727 0.172009 0)
(1.39793 0.179284 0)
(1.39881 0.186068 0)
(1.39978 0.192632 0)
(1.40047 0.199501 0)
(1.40189 0.205184 0)
(1.40402 0.209687 0)
(1.40468 0.215791 0)
(1.40747 0.219479 0)
(1.41108 0.222177 0)
(1.41315 0.22651 0)
(1.41508 0.228065 0)
(1.41282 0.22967 0)
(1.39628 0.228394 0)
(1.34468 0.221157 0)
(1.29386 0.215215 0)
(1.28307 0.217167 0)
(1.28429 0.218598 0)
(1.28777 0.218576 0)
(1.29174 0.216768 0)
(1.29593 0.212856 0)
(1.30018 0.208198 0)
(1.30341 0.205603 0)
(1.30592 0.205551 0)
(1.30754 0.205397 0)
(1.30853 0.204154 0)
(1.30901 0.202051 0)
(1.31042 0.199236 0)
(1.31193 0.195847 0)
(1.31297 0.193848 0)
(1.31375 0.192793 0)
(1.31445 0.19157 0)
(1.31476 0.189538 0)
(1.31634 0.187176 0)
(1.31817 0.184575 0)
(1.26762 0.124772 0)
(1.27 0.125197 0)
(1.2724 0.125538 0)
(1.27486 0.125727 0)
(1.27739 0.125765 0)
(1.27984 0.125732 0)
(1.28215 0.125796 0)
(1.28431 0.125855 0)
(1.28638 0.125905 0)
(1.28861 0.125901 0)
(1.29123 0.125915 0)
(1.29396 0.126004 0)
(1.29678 0.126016 0)
(1.29955 0.126092 0)
(1.30236 0.126077 0)
(1.30506 0.126051 0)
(1.30772 0.125975 0)
(1.31033 0.125643 0)
(1.31276 0.125455 0)
(1.31536 0.124938 0)
(1.31784 0.124625 0)
(1.32063 0.124225 0)
(1.32347 0.123912 0)
(1.32638 0.123636 0)
(1.32944 0.123214 0)
(1.33231 0.122983 0)
(1.33542 0.12243 0)
(1.33818 0.122173 0)
(1.34121 0.121566 0)
(1.34392 0.121093 0)
(1.34669 0.120491 0)
(1.3496 0.119805 0)
(1.35234 0.119361 0)
(1.35566 0.118771 0)
(1.35853 0.11832 0)
(1.36186 0.117681 0)
(1.36479 0.117156 0)
(1.36786 0.11654 0)
(1.37087 0.115904 0)
(1.37368 0.115404 0)
(1.3769 0.114653 0)
(1.37968 0.114201 0)
(1.38284 0.113585 0)
(1.38558 0.113088 0)
(1.38841 0.112555 0)
(1.39116 0.112153 0)
(1.39394 0.111779 0)
(1.39643 0.112051 0)
(1.39906 0.112489 0)
(1.40143 0.113499 0)
(1.40375 0.115069 0)
(1.4059 0.117313 0)
(1.40782 0.120316 0)
(1.40949 0.124114 0)
(1.41097 0.128441 0)
(1.41208 0.133692 0)
(1.41325 0.139257 0)
(1.41414 0.145606 0)
(1.41525 0.151952 0)
(1.41594 0.159103 0)
(1.41707 0.16578 0)
(1.41926 0.171982 0)
(1.42068 0.179294 0)
(1.42223 0.185587 0)
(1.42293 0.189899 0)
(1.41721 0.19532 0)
(1.39391 0.195754 0)
(1.33755 0.193127 0)
(1.28965 0.196947 0)
(1.28176 0.198198 0)
(1.28421 0.200401 0)
(1.28763 0.201824 0)
(1.29045 0.201378 0)
(1.29252 0.202135 0)
(1.29547 0.202387 0)
(1.2988 0.201488 0)
(1.30225 0.199399 0)
(1.30582 0.196631 0)
(1.30908 0.194254 0)
(1.31011 0.193284 0)
(1.31017 0.19396 0)
(1.30975 0.194813 0)
(1.30959 0.194214 0)
(1.3098 0.192134 0)
(1.31132 0.188566 0)
(1.313 0.185719 0)
(1.31418 0.18489 0)
(1.31548 0.184467 0)
(1.26774 0.126736 0)
(1.27017 0.126892 0)
(1.27271 0.126829 0)
(1.27518 0.126731 0)
(1.27758 0.126783 0)
(1.27982 0.126907 0)
(1.28198 0.127065 0)
(1.2841 0.127037 0)
(1.2863 0.126953 0)
(1.28882 0.126902 0)
(1.29151 0.126936 0)
(1.29418 0.127127 0)
(1.29686 0.127243 0)
(1.29949 0.127425 0)
(1.30215 0.127454 0)
(1.30472 0.127416 0)
(1.30724 0.127285 0)
(1.30974 0.126917 0)
(1.31209 0.12669 0)
(1.31472 0.126205 0)
(1.31731 0.125945 0)
(1.32018 0.125617 0)
(1.32302 0.125329 0)
(1.3259 0.125032 0)
(1.32884 0.124571 0)
(1.33163 0.124274 0)
(1.33462 0.123628 0)
(1.3373 0.123241 0)
(1.34024 0.122484 0)
(1.34283 0.121887 0)
(1.34564 0.121125 0)
(1.34851 0.120412 0)
(1.35134 0.11985 0)
(1.35461 0.119072 0)
(1.35743 0.118585 0)
(1.36075 0.117685 0)
(1.36351 0.117041 0)
(1.36674 0.116069 0)
(1.36964 0.1152 0)
(1.37256 0.11433 0)
(1.3758 0.113272 0)
(1.37858 0.112573 0)
(1.38196 0.111447 0)
(1.3847 0.110671 0)
(1.38793 0.109575 0)
(1.39063 0.108796 0)
(1.39365 0.107865 0)
(1.39674 0.106986 0)
(1.39962 0.10623 0)
(1.40295 0.105306 0)
(1.40562 0.10465 0)
(1.40871 0.103956 0)
(1.41118 0.103288 0)
(1.41391 0.102889 0)
(1.41639 0.102704 0)
(1.41884 0.103174 0)
(1.42112 0.103999 0)
(1.42323 0.105666 0)
(1.42534 0.107781 0)
(1.4271 0.110879 0)
(1.42889 0.114548 0)
(1.43133 0.118917 0)
(1.43333 0.124523 0)
(1.43462 0.12957 0)
(1.43366 0.134621 0)
(1.42609 0.140468 0)
(1.39731 0.143083 0)
(1.33999 0.141599 0)
(1.30081 0.146919 0)
(1.29015 0.156558 0)
(1.28992 0.163726 0)
(1.29236 0.168165 0)
(1.29497 0.171216 0)
(1.29773 0.173344 0)
(1.30095 0.174709 0)
(1.30366 0.17609 0)
(1.30527 0.177897 0)
(1.30597 0.180443 0)
(1.30674 0.183133 0)
(1.3079 0.183703 0)
(1.3092 0.183249 0)
(1.31053 0.182275 0)
(1.3118 0.181667 0)
(1.3104 0.181928 0)
(1.30942 0.183616 0)
(1.30951 0.184125 0)
(1.30983 0.18311 0)
(1.3113 0.180345 0)
(1.26794 0.128392 0)
(1.27046 0.128184 0)
(1.27287 0.128128 0)
(1.27513 0.128187 0)
(1.27731 0.128408 0)
(1.27956 0.128341 0)
(1.28181 0.128249 0)
(1.28415 0.127955 0)
(1.28653 0.127948 0)
(1.28905 0.12811 0)
(1.2916 0.128285 0)
(1.29416 0.128533 0)
(1.29679 0.12859 0)
(1.29934 0.128659 0)
(1.30192 0.12854 0)
(1.30435 0.128395 0)
(1.30674 0.128218 0)
(1.30915 0.127887 0)
(1.31152 0.127706 0)
(1.31425 0.127394 0)
(1.3169 0.127279 0)
(1.31977 0.127066 0)
(1.32254 0.126845 0)
(1.32534 0.126582 0)
(1.32816 0.126129 0)
(1.33084 0.125809 0)
(1.33372 0.125132 0)
(1.3363 0.124687 0)
(1.33915 0.123893 0)
(1.34171 0.123251 0)
(1.34456 0.122502 0)
(1.34746 0.121798 0)
(1.35036 0.121186 0)
(1.35354 0.120328 0)
(1.35635 0.119717 0)
(1.35958 0.118664 0)
(1.36225 0.117913 0)
(1.36542 0.116798 0)
(1.36816 0.115898 0)
(1.3712 0.11488 0)
(1.37424 0.113818 0)
(1.37704 0.112997 0)
(1.38029 0.111693 0)
(1.38286 0.110848 0)
(1.38616 0.109508 0)
(1.38878 0.108444 0)
(1.39206 0.107205 0)
(1.39512 0.106059 0)
(1.39815 0.104935 0)
(1.40153 0.10362 0)
(1.40428 0.102649 0)
(1.40769 0.101226 0)
(1.41025 0.100289 0)
(1.41346 0.0990663 0)
(1.41604 0.0981015 0)
(1.41913 0.0970535 0)
(1.42215 0.0960446 0)
(1.42493 0.0951766 0)
(1.42808 0.0943373 0)
(1.43048 0.0936542 0)
(1.43334 0.0932831 0)
(1.43673 0.0927491 0)
(1.44026 0.0932924 0)
(1.44097 0.0939035 0)
(1.43976 0.0947326 0)
(1.43136 0.0949582 0)
(1.39742 0.0940265 0)
(1.33977 0.091783 0)
(1.31105 0.0945993 0)
(1.30602 0.100518 0)
(1.30613 0.106306 0)
(1.30712 0.11206 0)
(1.30796 0.118166 0)
(1.30852 0.123906 0)
(1.30904 0.129361 0)
(1.30972 0.134636 0)
(1.31073 0.139316 0)
(1.31183 0.14351 0)
(1.31302 0.1471 0)
(1.31392 0.150118 0)
(1.31419 0.153133 0)
(1.31404 0.156382 0)
(1.31339 0.160014 0)
(1.31249 0.162734 0)
(1.31211 0.164448 0)
(1.3123 0.16528 0)
(1.31226 0.165935 0)
(1.31053 0.1678 0)
(1.26801 0.130011 0)
(1.27028 0.130048 0)
(1.27248 0.130154 0)
(1.27472 0.13008 0)
(1.27707 0.129882 0)
(1.27951 0.129432 0)
(1.28185 0.129317 0)
(1.28421 0.129316 0)
(1.28658 0.129501 0)
(1.28907 0.129652 0)
(1.29165 0.129667 0)
(1.29423 0.129677 0)
(1.29681 0.129532 0)
(1.29923 0.129556 0)
(1.30162 0.129464 0)
(1.30389 0.129356 0)
(1.30615 0.129193 0)
(1.30862 0.128892 0)
(1.31115 0.128739 0)
(1.31396 0.128539 0)
(1.31664 0.128453 0)
(1.31946 0.12823 0)
(1.32214 0.128022 0)
(1.32484 0.127759 0)
(1.32752 0.127323 0)
(1.33008 0.127034 0)
(1.33282 0.126413 0)
(1.33529 0.126004 0)
(1.33808 0.125293 0)
(1.34065 0.124725 0)
(1.34355 0.124076 0)
(1.34646 0.123432 0)
(1.34935 0.122834 0)
(1.35243 0.121976 0)
(1.35517 0.121361 0)
(1.35826 0.120314 0)
(1.36087 0.119556 0)
(1.36396 0.118458 0)
(1.36666 0.117569 0)
(1.3697 0.116541 0)
(1.37266 0.115452 0)
(1.37547 0.114499 0)
(1.37859 0.113119 0)
(1.38114 0.112118 0)
(1.3844 0.110645 0)
(1.38698 0.109565 0)
(1.39033 0.108245 0)
(1.39316 0.107107 0)
(1.39634 0.105815 0)
(1.39942 0.104439 0)
(1.40213 0.103283 0)
(1.4054 0.101569 0)
(1.40786 0.100346 0)
(1.4113 0.0986961 0)
(1.41395 0.0974042 0)
(1.41732 0.0959695 0)
(1.42031 0.0946603 0)
(1.42328 0.093385 0)
(1.42661 0.0919373 0)
(1.42919 0.0909104 0)
(1.43263 0.0893482 0)
(1.43602 0.0885596 0)
(1.44046 0.0877138 0)
(1.44075 0.086494 0)
(1.43968 0.0848203 0)
(1.42954 0.0830693 0)
(1.39091 0.0787352 0)
(1.33665 0.0732493 0)
(1.31645 0.0679349 0)
(1.31476 0.0681614 0)
(1.31506 0.0697677 0)
(1.31635 0.0717086 0)
(1.31782 0.0740658 0)
(1.31881 0.0766015 0)
(1.31927 0.07963 0)
(1.31953 0.0834433 0)
(1.3201 0.0877357 0)
(1.32085 0.0921454 0)
(1.3217 0.0962186 0)
(1.32236 0.10014 0)
(1.32268 0.104414 0)
(1.3227 0.108926 0)
(1.32242 0.113622 0)
(1.32167 0.118424 0)
(1.32038 0.123419 0)
(1.31892 0.128407 0)
(1.31725 0.133165 0)
(1.31577 0.137257 0)
(1.26746 0.132433 0)
(1.26966 0.132338 0)
(1.27205 0.132022 0)
(1.27456 0.131493 0)
(1.27698 0.13126 0)
(1.27933 0.131133 0)
(1.28159 0.131272 0)
(1.28397 0.131322 0)
(1.28649 0.131252 0)
(1.28909 0.131157 0)
(1.29165 0.130968 0)
(1.29411 0.130993 0)
(1.29652 0.130915 0)
(1.29877 0.130936 0)
(1.30108 0.130707 0)
(1.30334 0.130421 0)
(1.30572 0.130117 0)
(1.30838 0.129853 0)
(1.311 0.129774 0)
(1.31377 0.129602 0)
(1.31638 0.129572 0)
(1.31911 0.129349 0)
(1.32166 0.129172 0)
(1.32425 0.128901 0)
(1.32682 0.128465 0)
(1.32928 0.128181 0)
(1.33196 0.127571 0)
(1.33439 0.127153 0)
(1.3372 0.12651 0)
(1.3398 0.126024 0)
(1.3427 0.125465 0)
(1.34553 0.124894 0)
(1.34834 0.124359 0)
(1.35128 0.123568 0)
(1.35391 0.122981 0)
(1.35689 0.121992 0)
(1.35945 0.121255 0)
(1.36252 0.120222 0)
(1.36522 0.119388 0)
(1.36824 0.118388 0)
(1.3711 0.117327 0)
(1.37387 0.116333 0)
(1.37687 0.115002 0)
(1.37939 0.113992 0)
(1.38261 0.112609 0)
(1.38524 0.11161 0)
(1.38854 0.11034 0)
(1.3913 0.10922 0)
(1.39448 0.107848 0)
(1.39736 0.106426 0)
(1.4001 0.105042 0)
(1.40321 0.103254 0)
(1.40565 0.101917 0)
(1.40904 0.100177 0)
(1.41159 0.0989016 0)
(1.41506 0.0972972 0)
(1.41779 0.0959668 0)
(1.42104 0.0943942 0)
(1.42403 0.0928153 0)
(1.42662 0.0914865 0)
(1.43021 0.0894737 0)
(1.43384 0.0882978 0)
(1.43804 0.0869862 0)
(1.43798 0.0852172 0)
(1.43626 0.0826544 0)
(1.42261 0.0792448 0)
(1.37732 0.0727187 0)
(1.32886 0.0667443 0)
(1.31426 0.0646122 0)
(1.31399 0.0637625 0)
(1.31495 0.0631939 0)
(1.31733 0.0626123 0)
(1.31961 0.061785 0)
(1.32156 0.060978 0)
(1.32287 0.0601627 0)
(1.32416 0.0594809 0)
(1.32526 0.0594502 0)
(1.32658 0.0597278 0)
(1.32777 0.0603066 0)
(1.32891 0.0608359 0)
(1.32974 0.0622396 0)
(1.33054 0.0639554 0)
(1.33107 0.0662329 0)
(1.33105 0.0694002 0)
(1.33051 0.073179 0)
(1.32955 0.0774651 0)
(1.32817 0.0821349 0)
(1.32646 0.0872881 0)
(1.26681 0.134679 0)
(1.26932 0.134045 0)
(1.2718 0.133662 0)
(1.27418 0.133464 0)
(1.27648 0.13356 0)
(1.27883 0.133528 0)
(1.28127 0.133384 0)
(1.28388 0.133073 0)
(1.28644 0.132773 0)
(1.28892 0.132749 0)
(1.29135 0.132618 0)
(1.29366 0.132686 0)
(1.29607 0.132412 0)
(1.29833 0.132156 0)
(1.3007 0.131708 0)
(1.30304 0.131401 0)
(1.30553 0.131254 0)
(1.30818 0.131146 0)
(1.31077 0.131149 0)
(1.31348 0.130941 0)
(1.31602 0.130854 0)
(1.31867 0.130515 0)
(1.32111 0.130266 0)
(1.32363 0.12989 0)
(1.32615 0.129419 0)
(1.32857 0.129116 0)
(1.33124 0.128548 0)
(1.33368 0.128194 0)
(1.33647 0.127671 0)
(1.33906 0.127287 0)
(1.3419 0.126798 0)
(1.34463 0.126269 0)
(1.34736 0.125739 0)
(1.35018 0.124961 0)
(1.35271 0.124358 0)
(1.35562 0.123431 0)
(1.35817 0.12277 0)
(1.36118 0.121869 0)
(1.36383 0.121151 0)
(1.36677 0.120239 0)
(1.3695 0.119281 0)
(1.37219 0.118328 0)
(1.37511 0.117114 0)
(1.37765 0.116163 0)
(1.38084 0.114938 0)
(1.3835 0.113994 0)
(1.38676 0.112733 0)
(1.38944 0.111636 0)
(1.39255 0.110241 0)
(1.39526 0.108859 0)
(1.39798 0.107439 0)
(1.40094 0.105814 0)
(1.40348 0.104462 0)
(1.40682 0.102817 0)
(1.40942 0.101548 0)
(1.41288 0.0998749 0)
(1.41551 0.0985264 0)
(1.41882 0.0968368 0)
(1.42155 0.0952873 0)
(1.42429 0.0937251 0)
(1.42779 0.0916609 0)
(1.43139 0.0903685 0)
(1.43506 0.0888565 0)
(1.43454 0.0867181 0)
(1.43194 0.0841667 0)
(1.41345 0.0800238 0)
(1.36138 0.0750574 0)
(1.3191 0.0695819 0)
(1.31089 0.0666532 0)
(1.31148 0.064371 0)
(1.31287 0.0628943 0)
(1.31559 0.0619222 0)
(1.31797 0.060909 0)
(1.32021 0.0596341 0)
(1.32161 0.0581873 0)
(1.32326 0.0566675 0)
(1.32513 0.0551435 0)
(1.32645 0.0541264 0)
(1.3281 0.0530315 0)
(1.3297 0.0518195 0)
(1.33094 0.0505831 0)
(1.33232 0.0494298 0)
(1.33347 0.048395 0)
(1.33456 0.0478986 0)
(1.3352 0.0475739 0)
(1.33539 0.0478561 0)
(1.33517 0.048823 0)
(1.33447 0.0504092 0)
(1.26643 0.136386 0)
(1.26881 0.136049 0)
(1.27112 0.136132 0)
(1.2735 0.13608 0)
(1.27595 0.135941 0)
(1.27858 0.13552 0)
(1.28113 0.1351 0)
(1.28359 0.134936 0)
(1.28597 0.134785 0)
(1.2883 0.134828 0)
(1.29078 0.134545 0)
(1.29317 0.134301 0)
(1.29565 0.133791 0)
(1.29792 0.133463 0)
(1.30024 0.133212 0)
(1.30266 0.133051 0)
(1.30522 0.132964 0)
(1.3079 0.132775 0)
(1.3105 0.132642 0)
(1.31316 0.132263 0)
(1.31559 0.132105 0)
(1.31813 0.131702 0)
(1.32046 0.131423 0)
(1.32292 0.131024 0)
(1.32542 0.130586 0)
(1.32786 0.130292 0)
(1.33056 0.12979 0)
(1.33301 0.129472 0)
(1.33581 0.128972 0)
(1.33836 0.128568 0)
(1.34117 0.128037 0)
(1.34382 0.127485 0)
(1.34646 0.126927 0)
(1.34915 0.126184 0)
(1.3516 0.125625 0)
(1.35444 0.124822 0)
(1.35696 0.124265 0)
(1.35991 0.123474 0)
(1.36249 0.12282 0)
(1.36537 0.121938 0)
(1.36802 0.121045 0)
(1.37067 0.120128 0)
(1.37358 0.119052 0)
(1.37617 0.118195 0)
(1.3793 0.117095 0)
(1.38191 0.116241 0)
(1.38505 0.115043 0)
(1.3876 0.114028 0)
(1.39057 0.112705 0)
(1.39313 0.111432 0)
(1.3959 0.110065 0)
(1.39879 0.108642 0)
(1.40146 0.10734 0)
(1.40474 0.105833 0)
(1.40734 0.10463 0)
(1.41069 0.103006 0)
(1.41321 0.101767 0)
(1.41648 0.100086 0)
(1.41898 0.0986275 0)
(1.4219 0.0969248 0)
(1.42528 0.0950321 0)
(1.42895 0.0936738 0)
(1.43208 0.0921533 0)
(1.43141 0.0897383 0)
(1.42783 0.0873756 0)
(1.40459 0.0828765 0)
(1.34838 0.0792261 0)
(1.31196 0.0732113 0)
(1.30788 0.0714797 0)
(1.30828 0.0688168 0)
(1.30945 0.0669892 0)
(1.31248 0.0649965 0)
(1.31503 0.0629892 0)
(1.31742 0.0611939 0)
(1.3192 0.0594445 0)
(1.32048 0.0579013 0)
(1.32253 0.056109 0)
(1.32408 0.0543081 0)
(1.32601 0.0526029 0)
(1.3277 0.0511269 0)
(1.32918 0.0497025 0)
(1.33067 0.0482236 0)
(1.33205 0.0469145 0)
(1.33336 0.0456548 0)
(1.33469 0.0444638 0)
(1.33536 0.0435792 0)
(1.33593 0.0429288 0)
(1.33587 0.0422909 0)
(1.26555 0.138903 0)
(1.26791 0.138817 0)
(1.27036 0.138705 0)
(1.27308 0.138271 0)
(1.27567 0.137796 0)
(1.27816 0.137494 0)
(1.28049 0.137326 0)
(1.28278 0.137285 0)
(1.28526 0.136959 0)
(1.28777 0.136616 0)
(1.29036 0.136058 0)
(1.29273 0.135741 0)
(1.29507 0.135486 0)
(1.29732 0.135296 0)
(1.29973 0.135073 0)
(1.30236 0.134808 0)
(1.305 0.134601 0)
(1.30765 0.134248 0)
(1.31013 0.134145 0)
(1.31264 0.133811 0)
(1.31492 0.133619 0)
(1.31737 0.133145 0)
(1.31968 0.132766 0)
(1.32219 0.132342 0)
(1.32476 0.131903 0)
(1.32726 0.131596 0)
(1.32997 0.131099 0)
(1.33243 0.130791 0)
(1.33519 0.130267 0)
(1.33769 0.12986 0)
(1.34041 0.12933 0)
(1.34295 0.128809 0)
(1.34549 0.128264 0)
(1.34811 0.127565 0)
(1.35054 0.127018 0)
(1.35338 0.126276 0)
(1.35589 0.125735 0)
(1.35879 0.124947 0)
(1.3613 0.124303 0)
(1.36412 0.123463 0)
(1.3667 0.122675 0)
(1.36936 0.121873 0)
(1.37222 0.120997 0)
(1.37482 0.120265 0)
(1.37785 0.119253 0)
(1.38037 0.118478 0)
(1.38337 0.117334 0)
(1.38581 0.116322 0)
(1.38873 0.115042 0)
(1.39123 0.113869 0)
(1.3941 0.112635 0)
(1.39694 0.111423 0)
(1.39968 0.110262 0)
(1.4028 0.108941 0)
(1.40537 0.107829 0)
(1.40859 0.106269 0)
(1.41102 0.105082 0)
(1.4142 0.103422 0)
(1.41653 0.102047 0)
(1.41956 0.100367 0)
(1.42274 0.098789 0)
(1.42652 0.097414 0)
(1.42907 0.0959413 0)
(1.42843 0.0934616 0)
(1.42362 0.0912274 0)
(1.39569 0.08674 0)
(1.33744 0.0840893 0)
(1.3064 0.0793863 0)
(1.30393 0.0771605 0)
(1.30482 0.0745814 0)
(1.30657 0.0727159 0)
(1.30921 0.0706551 0)
(1.31191 0.0682589 0)
(1.31365 0.0664664 0)
(1.31585 0.0642408 0)
(1.31773 0.0617129 0)
(1.31908 0.0599942 0)
(1.32108 0.0577511 0)
(1.32268 0.0556631 0)
(1.3246 0.0535523 0)
(1.32613 0.0517858 0)
(1.32772 0.049946 0)
(1.32968 0.0479332 0)
(1.33095 0.0466554 0)
(1.33222 0.0454078 0)
(1.33345 0.0440838 0)
(1.33462 0.0428586 0)
(1.33515 0.0420633 0)
(1.26454 0.141531 0)
(1.26732 0.141086 0)
(1.27003 0.140555 0)
(1.27262 0.140142 0)
(1.27496 0.139972 0)
(1.27722 0.1399 0)
(1.2796 0.139569 0)
(1.28212 0.13913 0)
(1.28479 0.138489 0)
(1.28726 0.138183 0)
(1.28968 0.137938 0)
(1.29195 0.137789 0)
(1.29429 0.137508 0)
(1.29681 0.137086 0)
(1.29941 0.136763 0)
(1.30205 0.136402 0)
(1.30455 0.13633 0)
(1.30707 0.136064 0)
(1.30941 0.135936 0)
(1.31189 0.135495 0)
(1.31413 0.135092 0)
(1.31661 0.134531 0)
(1.31902 0.134105 0)
(1.32156 0.133762 0)
(1.32418 0.133354 0)
(1.32666 0.133086 0)
(1.32935 0.13258 0)
(1.33177 0.132274 0)
(1.33447 0.131751 0)
(1.3369 0.131333 0)
(1.33958 0.130768 0)
(1.34207 0.130203 0)
(1.34458 0.129612 0)
(1.34721 0.128907 0)
(1.34966 0.128385 0)
(1.35246 0.127688 0)
(1.35491 0.127208 0)
(1.35771 0.126482 0)
(1.36014 0.125881 0)
(1.36291 0.125143 0)
(1.36546 0.124459 0)
(1.36819 0.12374 0)
(1.37101 0.122956 0)
(1.3736 0.122259 0)
(1.37655 0.121247 0)
(1.37897 0.120469 0)
(1.38187 0.119357 0)
(1.38421 0.118384 0)
(1.38711 0.117258 0)
(1.38959 0.11626 0)
(1.39249 0.115232 0)
(1.39526 0.114198 0)
(1.39805 0.11311 0)
(1.40104 0.111852 0)
(1.40356 0.110757 0)
(1.40665 0.109228 0)
(1.40897 0.108091 0)
(1.41203 0.106518 0)
(1.41426 0.105248 0)
(1.41734 0.103667 0)
(1.42037 0.102296 0)
(1.42427 0.100925 0)
(1.42626 0.0994666 0)
(1.42565 0.0970917 0)
(1.41948 0.0950785 0)
(1.38719 0.0907708 0)
(1.32846 0.088903 0)
(1.3018 0.0847616 0)
(1.30021 0.0832261 0)
(1.30135 0.0809147 0)
(1.30346 0.0787828 0)
(1.30596 0.0769363 0)
(1.30839 0.0747124 0)
(1.31019 0.0727306 0)
(1.31166 0.0709496 0)
(1.31364 0.068679 0)
(1.31576 0.0660387 0)
(1.31743 0.0638793 0)
(1.31918 0.0615371 0)
(1.32116 0.0589835 0)
(1.32283 0.0568258 0)
(1.32465 0.0546398 0)
(1.32618 0.0526888 0)
(1.32781 0.0505954 0)
(1.32974 0.0481413 0)
(1.331 0.0466083 0)
(1.33184 0.0455276 0)
(1.33306 0.0440828 0)
(1.26415 0.143212 0)
(1.26684 0.142726 0)
(1.26929 0.142569 0)
(1.27161 0.142497 0)
(1.27392 0.142224 0)
(1.27638 0.141712 0)
(1.27903 0.140951 0)
(1.28152 0.140607 0)
(1.28401 0.140333 0)
(1.28635 0.140251 0)
(1.28882 0.139948 0)
(1.29129 0.13948 0)
(1.29382 0.138967 0)
(1.29638 0.138503 0)
(1.29882 0.138465 0)
(1.30137 0.138238 0)
(1.30377 0.138149 0)
(1.30634 0.13774 0)
(1.3087 0.137342 0)
(1.31115 0.13678 0)
(1.31341 0.136345 0)
(1.31584 0.135957 0)
(1.31838 0.135591 0)
(1.32092 0.135335 0)
(1.32357 0.1349 0)
(1.32601 0.134614 0)
(1.32867 0.134058 0)
(1.33105 0.133671 0)
(1.33373 0.133104 0)
(1.33614 0.132639 0)
(1.3388 0.13204 0)
(1.34125 0.131481 0)
(1.34372 0.130956 0)
(1.34634 0.130329 0)
(1.34876 0.12989 0)
(1.35151 0.129246 0)
(1.35391 0.128761 0)
(1.35669 0.128047 0)
(1.3591 0.127417 0)
(1.36189 0.126699 0)
(1.36443 0.126046 0)
(1.36718 0.125347 0)
(1.36992 0.124578 0)
(1.37244 0.123934 0)
(1.37527 0.122976 0)
(1.3776 0.122212 0)
(1.38042 0.121196 0)
(1.38273 0.120317 0)
(1.38564 0.119364 0)
(1.38815 0.118445 0)
(1.39108 0.117458 0)
(1.39376 0.11646 0)
(1.39655 0.115377 0)
(1.39937 0.114144 0)
(1.40179 0.113099 0)
(1.40474 0.111649 0)
(1.40698 0.110518 0)
(1.41 0.109003 0)
(1.4122 0.107788 0)
(1.41528 0.106277 0)
(1.41817 0.105017 0)
(1.42212 0.103701 0)
(1.42368 0.102255 0)
(1.42305 0.100063 0)
(1.41565 0.0980468 0)
(1.37953 0.0945937 0)
(1.32097 0.093203 0)
(1.29829 0.08868 0)
(1.29738 0.087626 0)
(1.29819 0.0863316 0)
(1.30043 0.0843357 0)
(1.30273 0.0824292 0)
(1.30487 0.0804161 0)
(1.30663 0.0785308 0)
(1.30806 0.0769081 0)
(1.30974 0.07496 0)
(1.31174 0.0726866 0)
(1.31372 0.0703347 0)
(1.31554 0.0679996 0)
(1.31726 0.0657389 0)
(1.31898 0.0635835 0)
(1.3207 0.0614153 0)
(1.32269 0.0589295 0)
(1.32438 0.0567174 0)
(1.32577 0.0547837 0)
(1.32763 0.0523903 0)
(1.32938 0.049902 0)
(1.33039 0.0485183 0)
(1.26336 0.145041 0)
(1.26578 0.144913 0)
(1.26818 0.144721 0)
(1.27066 0.144238 0)
(1.27327 0.143362 0)
(1.27571 0.14287 0)
(1.27816 0.142533 0)
(1.2805 0.142496 0)
(1.28308 0.142218 0)
(1.28563 0.141809 0)
(1.28826 0.141168 0)
(1.29072 0.140626 0)
(1.29306 0.140519 0)
(1.29552 0.140269 0)
(1.29793 0.140146 0)
(1.30061 0.139728 0)
(1.30308 0.139356 0)
(1.30563 0.138811 0)
(1.30791 0.138394 0)
(1.31024 0.138011 0)
(1.31264 0.137621 0)
(1.31512 0.137326 0)
(1.31781 0.136915 0)
(1.32033 0.136616 0)
(1.32298 0.136102 0)
(1.32534 0.135756 0)
(1.32794 0.135168 0)
(1.33027 0.134728 0)
(1.33293 0.134181 0)
(1.33533 0.133754 0)
(1.33793 0.133238 0)
(1.3404 0.132696 0)
(1.34284 0.132207 0)
(1.34551 0.131559 0)
(1.34791 0.131073 0)
(1.35067 0.130356 0)
(1.35304 0.129812 0)
(1.35578 0.129103 0)
(1.35815 0.128499 0)
(1.36091 0.127821 0)
(1.3634 0.127222 0)
(1.3661 0.126558 0)
(1.36877 0.12578 0)
(1.37121 0.125118 0)
(1.37398 0.124164 0)
(1.37627 0.123373 0)
(1.37911 0.122381 0)
(1.38144 0.121546 0)
(1.38434 0.120632 0)
(1.38682 0.11971 0)
(1.38973 0.118687 0)