/*--------------------------------*- C++ -*----------------------------------*\
  =========                 |
  \\      /  F ield         | OpenFOAM: The Open Source CFD Toolbox
   \\    /   O peration     | Website:  https://openfoam.org
    \\  /    A nd           | Version:  7
     \\/     M anipulation  |
\*---------------------------------------------------------------------------*/
FoamFile
{
    version     2.0;
    format      ascii;
    class       volScalarField;
    location    "16.5";
    object      p;
}
// * * * * * * * * * * * * * * * * * * * * * * * * * * * * * * * * * * * * * //

dimensions      [1 -1 -2 0 0 0 0];

internalField   nonuniform List<scalar> 
2413
(
0.951944
0.975263
0.996783
1.01615
1.03224
1.04494
1.05434
1.0606
1.06546
1.07003
1.07576
1.08273
1.09124
1.10059
1.11072
1.12013
1.12781
1.13112
1.12894
1.12237
1.11382
1.10444
1.09536
1.08724
1.07949
1.07182
1.06417
1.05651
1.04882
1.04092
1.03259
1.02366
1.01414
1.00432
0.994432
0.984746
0.975267
0.966098
0.957457
0.949638
0.942515
0.935608
0.927997
0.918912
0.908394
0.897595
0.887637
0.879486
0.873239
0.869068
0.866183
0.807941
0.815207
0.822445
0.829012
0.834904
0.837569
0.839722
0.839528
0.839209
0.837637
0.836507
0.83269
0.827215
0.822264
0.815362
0.807296
0.798485
0.789521
0.781052
0.773329
0.766946
0.761847
0.757777
0.755484
0.753912
0.754009
0.753844
0.755796
0.758731
0.765991
0.776842
0.793013
0.812512
0.835394
0.859671
0.884759
0.909635
0.933504
0.956236
0.977052
0.995792
1.01175
1.02499
1.03582
1.04371
1.0503
1.05628
1.06298
1.07038
1.07902
1.08807
1.09752
1.10622
1.11345
1.1169
1.11705
1.11277
1.1068
1.10023
1.09367
1.08733
1.08075
1.07409
1.0671
1.05991
1.05248
1.04487
1.0368
1.02814
1.01872
1.00884
0.998702
0.988673
0.978838
0.969312
0.960187
0.951859
0.944427
0.937692
0.930923
0.92314
0.913789
0.903344
0.892947
0.883719
0.876276
0.870653
0.866873
0.790746
0.79778
0.804905
0.811053
0.816204
0.819682
0.821753
0.822062
0.821145
0.819322
0.818903
0.816483
0.811209
0.806352
0.799853
0.791931
0.783018
0.773927
0.765116
0.757147
0.749623
0.743531
0.737797
0.734494
0.73113
0.730339
0.729835
0.731567
0.735326
0.743241
0.755131
0.77165
0.791655
0.81442
0.838774
0.863536
0.88809
0.911486
0.933706
0.954183
0.973017
0.989803
1.00465
1.01768
1.028
1.03662
1.04393
1.05124
1.05879
1.06723
1.0758
1.08465
1.09301
1.10056
1.10516
1.10788
1.10699
1.10366
1.09911
1.09397
1.08845
1.08275
1.077
1.07074
1.06416
1.05703
1.04965
1.04171
1.03322
1.02387
1.01391
1.00349
0.993072
0.982762
0.972751
0.963104
0.954121
0.946144
0.939204
0.932814
0.926108
0.918123
0.908714
0.898655
0.889036
0.880751
0.874176
0.86927
0.773825
0.781394
0.787732
0.794652
0.798934
0.802556
0.804467
0.80541
0.804372
0.802762
0.801125
0.799871
0.795653
0.790582
0.784222
0.776667
0.767547
0.758244
0.748933
0.740564
0.732348
0.725647
0.718749
0.714323
0.710004
0.708157
0.707601
0.709139
0.713398
0.721404
0.733721
0.749857
0.769716
0.791695
0.815534
0.839645
0.863795
0.887007
0.909333
0.930419
0.950503
0.969254
0.986593
1.00212
1.01514
1.0255
1.0337
1.04103
1.04823
1.05594
1.06396
1.07233
1.08071
1.0892
1.09606
1.10157
1.1043
1.10382
1.10036
1.09589
1.09081
1.08554
1.08037
1.07467
1.06871
1.06195
1.05483
1.04698
1.03859
1.02927
1.01924
1.00859
0.997801
0.987054
0.976528
0.966311
0.95666
0.947959
0.940536
0.934117
0.928093
0.921417
0.913385
0.904237
0.894877
0.88631
0.879174
0.873474
0.757869
0.765234
0.770993
0.77764
0.782242
0.785363
0.786726
0.787158
0.785994
0.785028
0.783764
0.78288
0.779768
0.774682
0.768737
0.760878
0.752155
0.742732
0.733442
0.724752
0.716079
0.708633
0.701095
0.695536
0.690836
0.687538
0.687005
0.6884
0.692637
0.70041
0.712514
0.727904
0.747043
0.768042
0.791093
0.814638
0.838681
0.862411
0.885844
0.908597
0.930776
0.951995
0.971954
0.989707
1.00516
1.0167
1.02524
1.032
1.03835
1.04532
1.05284
1.06121
1.07028
1.08032
1.08995
1.09848
1.10409
1.10585
1.10347
1.0994
1.0944
1.08899
1.08389
1.07845
1.07299
1.06668
1.05994
1.0523
1.04404
1.03478
1.02472
1.01392
1.00283
0.991716
0.980767
0.970007
0.959678
0.950193
0.942043
0.935278
0.929417
0.923699
0.91713
0.909309
0.90075
0.892434
0.885097
0.879095
0.742779
0.749972
0.755194
0.761054
0.765648
0.7681
0.77013
0.770949
0.770012
0.768729
0.767208
0.766236
0.764037
0.759375
0.753571
0.745939
0.737396
0.728039
0.718677
0.709503
0.700466
0.692341
0.684546
0.678039
0.673307
0.668881
0.668085
0.669268
0.673145
0.68055
0.691932
0.706552
0.72468
0.74491
0.767362
0.790887
0.815503
0.840477
0.865661
0.890516
0.914843
0.938164
0.960046
0.979331
0.996265
1.00851
1.0174
1.02388
1.02959
1.03608
1.04385
1.05321
1.06376
1.07562
1.08771
1.09831
1.10582
1.10946
1.10833
1.10458
1.09943
1.09351
1.08797
1.08245
1.07718
1.07127
1.06493
1.05763
1.04956
1.04041
1.03034
1.01944
1.00811
0.99671
0.985443
0.974314
0.963388
0.953072
0.943994
0.936594
0.930575
0.925215
0.919664
0.913245
0.905978
0.898424
0.891387
0.88536
0.727211
0.734188
0.739316
0.744362
0.748997
0.751546
0.752649
0.753095
0.752411
0.75133
0.750624
0.75112
0.749017
0.744647
0.73896
0.731546
0.723419
0.714329
0.705017
0.695728
0.686626
0.678055
0.670109
0.662727
0.657647
0.652557
0.651092
0.652025
0.655459
0.662508
0.672993
0.687051
0.704322
0.724219
0.746542
0.770545
0.796196
0.822702
0.849663
0.876274
0.902028
0.926467
0.949204
0.969232
0.986636
0.999558
1.00913
1.01613
1.02228
1.02929
1.03803
1.04864
1.06079
1.07438
1.08814
1.1001
1.10931
1.11482
1.11485
1.11137
1.10604
1.09948
1.09311
1.0871
1.08162
1.07587
1.06985
1.06293
1.05515
1.04621
1.03619
1.02522
1.0137
1.00204
0.990491
0.979093
0.967794
0.956805
0.946727
0.938301
0.93175
0.926385
0.921398
0.915914
0.909726
0.903261
0.897025
0.891428
0.711847
0.718194
0.723031
0.727606
0.732336
0.735337
0.73656
0.737739
0.737413
0.737171
0.736387
0.735811
0.734781
0.730383
0.725553
0.718465
0.711085
0.702317
0.693195
0.683795
0.674388
0.665296
0.657083
0.649198
0.643802
0.638679
0.636495
0.637204
0.64029
0.647059
0.656913
0.670732
0.687685
0.707679
0.730338
0.755024
0.781625
0.80918
0.837057
0.864336
0.890398
0.914836
0.937506
0.957614
0.975076
0.989476
1.00057
1.00928
1.01703
1.02531
1.03535
1.04736
1.06098
1.07585
1.09073
1.10417
1.11493
1.12176
1.12269
1.11946
1.11401
1.10692
1.09968
1.09294
1.08691
1.08102
1.07508
1.06846
1.06098
1.05231
1.0424
1.03141
1.01969
1.00773
0.995877
0.984212
0.97263
0.961182
0.950264
0.940692
0.933108
0.927313
0.922407
0.917542
0.912162
0.906472
0.900997
0.896152
0.696709
0.702243
0.706398
0.710335
0.715094
0.718652
0.720523
0.721904
0.722022
0.721249
0.721337
0.722777
0.722107
0.718328
0.714209
0.707749
0.701003
0.692749
0.683647
0.674048
0.664556
0.655277
0.646826
0.638569
0.632529
0.627465
0.624751
0.625398
0.628482
0.635196
0.645003
0.658834
0.675966
0.696219
0.719293
0.74438
0.771207
0.798686
0.826051
0.852529
0.877712
0.901337
0.923682
0.944152
0.962535
0.97912
0.992443
1.00378
1.01403
1.02432
1.03583
1.04888
1.06353
1.07944
1.09544
1.11018
1.12215
1.12986
1.13136
1.12829
1.12278
1.11531
1.1074
1.09992
1.09321
1.08692
1.08077
1.07422
1.06694
1.05854
1.04884
1.03792
1.02606
1.0138
1.00155
0.989546
0.977698
0.965932
0.954419
0.943804
0.93493
0.92821
0.922953
0.918207
0.913341
0.908275
0.903325
0.898941
0.68229
0.687264
0.691299
0.695299
0.699921
0.70371
0.706277
0.7086
0.709763
0.71053
0.710607
0.711759
0.711326
0.709046
0.705858
0.700278
0.6934
0.685966
0.6772
0.667734
0.657766
0.647981
0.638977
0.630549
0.624156
0.619438
0.616708
0.617494
0.620882
0.627687
0.63797
0.651936
0.669438
0.689829
0.713012
0.737903
0.763876
0.78991
0.815333
0.839786
0.863375
0.886129
0.908621
0.930315
0.95078
0.970277
0.986384
1.00066
1.01349
1.02583
1.03875
1.05263
1.06794
1.08472
1.10165
1.11739
1.13035
1.13865
1.14037
1.13731
1.13167
1.12391
1.11558
1.10758
1.10031
1.09352
1.08698
1.08023
1.07295
1.06472
1.05524
1.04446
1.03257
1.02005
1.0074
0.994937
0.9827
0.970576
0.958571
0.947109
0.936991
0.928954
0.922919
0.917945
0.913267
0.908712
0.904281
0.900238
0.667419
0.67155
0.675185
0.679547
0.684991
0.689897
0.693162
0.696032
0.697138
0.698542
0.700127
0.702177
0.706141
0.705807
0.704952
0.700479
0.693295
0.684658
0.674419
0.664244
0.653784
0.643725
0.634247
0.625702
0.618932
0.614393
0.611774
0.612817
0.616994
0.623925
0.63484
0.649017
0.666989
0.687493
0.710363
0.734479
0.758687
0.782359
0.805115
0.827102
0.849051
0.871425
0.894814
0.918653
0.941917
0.9646
0.983456
1.00031
1.01524
1.02931
1.04346
1.05802
1.07366
1.09093
1.1085
1.12505
1.13892
1.14761
1.14933
1.1461
1.14018
1.1321
1.12348
1.11522
1.10767
1.10052
1.09356
1.08644
1.07891
1.07061
1.06124
1.05061
1.03881
1.02616
1.01315
1.0002
0.987467
0.974895
0.962425
0.950285
0.93909
0.929669
0.922378
0.91685
0.912016
0.907545
0.903452
0.89985
0.655837
0.659774
0.662954
0.667179
0.672289
0.677324
0.681188
0.686108
0.690687
0.697815
0.705164
0.711235
0.718425
0.718882
0.717983
0.710849
0.70206
0.691357
0.679304
0.666749
0.65421
0.642515
0.632126
0.623208
0.616223
0.611799
0.609311
0.610273
0.614856
0.621822
0.633311
0.647887
0.666164
0.686952
0.709423
0.73276
0.755263
0.776843
0.797397
0.81763
0.838697
0.861228
0.885443
0.91107
0.936841
0.962633
0.984216
1.00339
1.01972
1.0348
1.0497
1.06476
1.08054
1.09799
1.11591
1.13315
1.14778
1.15665
1.15816
1.15462
1.14824
1.13968
1.13075
1.12241
1.11483
1.1076
1.10038
1.09288
1.08496
1.07638
1.06691
1.05632
1.0446
1.03194
1.01871
1.00532
0.992037
0.9789
0.965879
0.953121
0.941054
0.930513
0.922035
0.915475
0.910327
0.905607
0.901452
0.897965
0.637123
0.641087
0.644638
0.650063
0.658024
0.669396
0.68386
0.699481
0.713864
0.730573
0.745586
0.755684
0.760743
0.75575
0.74769
0.734626
0.720533
0.705016
0.689423
0.674102
0.659706
0.646279
0.634479
0.624338
0.616694
0.611705
0.609186
0.609955
0.614588
0.621374
0.632384
0.646962
0.664731
0.685221
0.707003
0.729738
0.751624
0.77267
0.792682
0.812768
0.834087
0.8573
0.882269
0.909094
0.936392
0.963781
0.987248
1.00822
1.026
1.04207
1.05746
1.07291
1.08884
1.10639
1.12445
1.14205
1.15716
1.16594
1.16713
1.16317
1.15618
1.14699
1.13761
1.12916
1.12166
1.11455
1.10731
1.09959
1.09129
1.0823
1.07253
1.06181
1.0501
1.03746
1.02416
1.0105
0.996745
0.983016
0.969352
0.955889
0.943027
0.931423
0.921817
0.914229
0.908401
0.903534
0.899254
0.89574
0.878612
0.878703
0.878782
0.881248
0.886799
0.893341
0.897048
0.897011
0.892787
0.884168
0.871024
0.852054
0.830094
0.80715
0.787117
0.765561
0.744693
0.723616
0.703754
0.684885
0.66794
0.652528
0.63964
0.628553
0.620315
0.614206
0.611026
0.610541
0.614074
0.620685
0.630513
0.644359
0.660515
0.679593
0.700136
0.722279
0.744374
0.766525
0.788572
0.811128
0.834643
0.860052
0.886924
0.915126
0.943542
0.971425
0.996395
1.01776
1.03537
1.0513
1.06686
1.0828
1.09921
1.11677
1.13476
1.15241
1.16765
1.17606
1.17676
1.17228
1.16451
1.15458
1.14462
1.13593
1.12842
1.12145
1.11434
1.10661
1.09811
1.08879
1.07865
1.06766
1.05582
1.04318
1.02987
1.01609
1.00202
0.987788
0.973473
0.959224
0.945446
0.932811
0.921986
0.913252
0.906571
0.901505
0.897071
0.893476
1.23858
1.21271
1.18748
1.16351
1.13925
1.11193
1.07889
1.04333
1.00739
0.971352
0.93664
0.905151
0.874891
0.846064
0.820613
0.794312
0.768864
0.74382
0.720677
0.698902
0.679835
0.662405
0.647896
0.635178
0.625678
0.618303
0.614294
0.612591
0.614267
0.619551
0.626881
0.637999
0.6513
0.668018
0.686964
0.708737
0.732181
0.757387
0.783635
0.810915
0.838739
0.867538
0.89651
0.925476
0.954142
0.982265
1.00902
1.0309
1.049
1.06461
1.07972
1.09546
1.11193
1.12939
1.14729
1.16487
1.17993
1.18762
1.18759
1.18247
1.1738
1.16314
1.15261
1.14357
1.13585
1.12884
1.12175
1.11407
1.10551
1.09601
1.08559
1.07432
1.06226
1.04951
1.03617
1.02235
1.00813
0.993558
0.978696
0.963707
0.948941
0.935155
0.923085
0.913091
0.905333
0.899765
0.895153
0.891433
1.27113
1.24339
1.21661
1.19068
1.16336
1.13338
1.10081
1.0665
1.03234
0.998304
0.964499
0.934001
0.904158
0.874331
0.846738
0.818194
0.790323
0.762978
0.737571
0.713728
0.692792
0.673757
0.657836
0.64388
0.633053
0.624506
0.619147
0.616455
0.616426
0.619694
0.625005
0.633548
0.644449
0.659151
0.676814
0.698434
0.723347
0.751454
0.781771
0.813517
0.845416
0.877559
0.909289
0.939651
0.968728
0.996647
1.02286
1.04517
1.06386
1.07999
1.09501
1.1103
1.1264
1.14402
1.16221
1.17982
1.19449
1.20111
1.20002
1.19408
1.18443
1.17309
1.16213
1.15277
1.14472
1.13741
1.13008
1.12229
1.11365
1.1041
1.09357
1.08218
1.06997
1.05709
1.04364
1.02973
1.01538
1.00056
0.985238
0.96954
0.953819
0.938784
0.925337
0.914013
0.905035
0.898632
0.893868
0.889979
1.26371
1.2363
1.21079
1.18677
1.16277
1.13721
1.10949
1.07965
1.04799
1.01649
0.984413
0.954573
0.925632
0.895459
0.867538
0.838369
0.809762
0.781554
0.754927
0.729861
0.707566
0.687281
0.669991
0.654832
0.642624
0.633003
0.626173
0.622357
0.620794
0.622511
0.626963
0.63428
0.644044
0.657709
0.674646
0.695855
0.720961
0.749992
0.782128
0.816834
0.852195
0.887969
0.923367
0.956294
0.986837
1.01534
1.04069
1.06191
1.0799
1.0959
1.1111
1.12636
1.14272
1.16079
1.1796
1.19735
1.21137
1.21663
1.21416
1.20712
1.19649
1.18461
1.17356
1.16411
1.15579
1.14805
1.14021
1.13201
1.12307
1.11337
1.10278
1.09137
1.07912
1.06614
1.05256
1.03846
1.02391
1.00884
0.993151
0.976833
0.960173
0.943906
0.928927
0.916005
0.905596
0.898119
0.893046
0.888988
1.26307
1.23628
1.21229
1.18952
1.16669
1.14254
1.11646
1.08876
1.05965
1.0313
1.00063
0.971345
0.943461
0.913444
0.885914
0.856737
0.828017
0.799642
0.772474
0.746824
0.723576
0.702335
0.683904
0.667759
0.654431
0.643834
0.635847
0.631247
0.628774
0.629333
0.632927
0.639213
0.648155
0.661132
0.677468
0.697945
0.722354
0.750938
0.783283
0.819169
0.85717
0.896565
0.935362
0.971479
1.00481
1.03505
1.0597
1.08004
1.09768
1.11361
1.12907
1.14442
1.16094
1.17948
1.19903
1.21696
1.23
1.23372
1.2297
1.22127
1.2097
1.19748
1.1867
1.17751
1.16921
1.16112
1.1527
1.14382
1.13429
1.12417
1.1134
1.10197
1.08981
1.07688
1.06324
1.04894
1.03406
1.01859
1.00244
0.985521
0.967984
0.950495
0.934017
0.919334
0.907184
0.898301
0.892603
0.888292
1.26648
1.24084
1.21769
1.19588
1.17328
1.15025
1.12493
1.09851
1.07087
1.04418
1.0153
0.987125
0.960096
0.931086
0.903348
0.874321
0.846079
0.818293
0.791313
0.765593
0.74176
0.71974
0.700345
0.683174
0.668834
0.657288
0.648436
0.643195
0.640152
0.640213
0.643389
0.649497
0.658371
0.671273
0.687581
0.707637
0.731189
0.75849
0.789514
0.824537
0.862557
0.903387
0.945062
0.985149
1.02294
1.05493
1.07944
1.09956
1.11715
1.13324
1.14903
1.16466
1.18134
1.20025
1.22036
1.23822
1.24977
1.25174
1.24608
1.23603
1.22355
1.21128
1.20115
1.19262
1.18472
1.17662
1.16782
1.15828
1.148
1.13721
1.126
1.11441
1.10228
1.08944
1.07579
1.06128
1.04598
1.02994
1.01315
0.995513
0.9771
0.958419
0.940435
0.924025
0.909919
0.899281
0.892589
0.887977
1.27417
1.25002
1.22776
1.2062
1.18359
1.16039
1.13589
1.11094
1.08457
1.05871
1.03131
1.00361
0.976838
0.94838
0.92089
0.892632
0.865256
0.838072
0.811531
0.785914
0.761775
0.739147
0.718998
0.700877
0.685704
0.67338
0.663967
0.658328
0.65511
0.655266
0.658355
0.664691
0.674061
0.687417
0.704328
0.724739
0.748105
0.774339
0.803414
0.835923
0.871979
0.912195
0.954511
0.997595
1.03914
1.07264
1.10013
1.12098
1.13789
1.15403
1.1704
1.18688
1.20383
1.22296
1.24321
1.26042
1.26986
1.26985
1.26238
1.25063
1.23733
1.2254
1.21622
1.20865
1.20147
1.19375
1.18498
1.17508
1.16419
1.15268
1.14086
1.12886
1.11659
1.10376
1.09014
1.07552
1.05986
1.04319
1.02558
1.00704
0.987616
0.967707
0.948194
0.930005
0.913893
0.901155
0.89305
0.888064
1.28389
1.26081
1.23912
1.21853
1.19704
1.17433
1.1506
1.12585
1.10014
1.07493
1.04856
1.0212
0.994778
0.967429
0.940948
0.912752
0.886092
0.859347
0.833229
0.807908
0.783774
0.760707
0.739934
0.720921
0.705053
0.691956
0.682127
0.67616
0.673
0.673674
0.677036
0.683827
0.693974
0.708103
0.725983
0.747393
0.771497
0.797712
0.82565
0.855696
0.888752
0.926063
0.966446
1.01024
1.05265
1.08884
1.11886
1.14149
1.15933
1.17584
1.19314
1.21059
1.22827
1.24765
1.26754
1.28318
1.28993
1.28762
1.27808
1.26468
1.25077
1.23954
1.23148
1.22497
1.21863
1.21156
1.2032
1.19342
1.18235
1.17041
1.15806
1.14561
1.13305
1.12013
1.1065
1.09185
1.07594
1.05873
1.04025
1.0206
0.999932
0.978602
0.957413
0.937353
0.919212
0.904133
0.894095
0.888534
1.29499
1.27323
1.25237
1.23238
1.21171
1.19081
1.16789
1.14448
1.11939
1.09406
1.0681
1.0411
1.01498
0.988524
0.962185
0.934645
0.908116
0.882048
0.856116
0.830739
0.806417
0.783116
0.762128
0.742592
0.726455
0.712724
0.702809
0.69659
0.693644
0.695263
0.699136
0.7064
0.717128
0.731857
0.750517
0.77298
0.798304
0.825553
0.853733
0.882508
0.913078
0.946822
0.983581
1.02505
1.06584
1.10368
1.13553
1.16019
1.17974
1.19807
1.21697
1.23573
1.25457
1.27429
1.29324
1.30619
1.30979
1.30475
1.29283
1.27784
1.26376
1.25364
1.24676
1.24117
1.23553
1.22908
1.22128
1.21195
1.20114
1.18928
1.17682
1.16416
1.1514
1.13836
1.12471
1.11007
1.0941
1.07658
1.05744
1.03672
1.01464
0.991615
0.968461
0.946259
0.925931
0.908479
0.89602
0.889257
1.30672
1.28631
1.26706
1.24836
1.22865
1.20872
1.18624
1.16499
1.14015
1.11579
1.09037
1.06355
1.03753
1.01136
0.985042
0.95804
0.931145
0.904855
0.879192
0.854255
0.830129
0.806843
0.785738
0.765669
0.749432
0.735083
0.725334
0.718939
0.716305
0.719413
0.724055
0.731868
0.742743
0.757546
0.776426
0.799484
0.825812
0.854473
0.884105
0.91346
0.943069
0.974032
1.0071
1.04409
1.08169
1.11836
1.15068
1.1772
1.19928
1.22022
1.24127
1.26194
1.28227
1.30245
1.31963
1.3289
1.32899
1.32074
1.3064
1.29018
1.27673
1.26813
1.26242
1.25747
1.25223
1.2461
1.23864
1.22976
1.21943
1.20802
1.19592
1.1835
1.17089
1.15796
1.14442
1.12994
1.11415
1.0967
1.0773
1.05584
1.03241
1.0075
0.981996
0.957182
0.934267
0.914303
0.899073
0.890136
1.31972
1.30057
1.28288
1.26572
1.24733
1.22831
1.20655
1.18538
1.16133
1.1383
1.11309
1.08724
1.06164
1.03548
1.00895
0.98224
0.955566
0.929399
0.903479
0.878748
0.854624
0.831193
0.8101
0.789627
0.773301
0.758461
0.748954
0.742543
0.740377
0.745633
0.75161
0.760279
0.770825
0.784958
0.803429
0.826604
0.853572
0.883474
0.915003
0.946197
0.976084
1.00536
1.03526
1.06686
1.09999
1.13333
1.16449
1.19227
1.21742
1.24186
1.266
1.28905
1.31118
1.3316
1.34568
1.35059
1.34666
1.33447
1.31796
1.30151
1.28987
1.28323
1.27863
1.27412
1.26905
1.26293
1.25546
1.24668
1.23665
1.2257
1.21417
1.20233
1.19026
1.1778
1.16468
1.15065
1.13534
1.11837
1.09929
1.0777
1.05345
1.02682
0.998761
0.970816
0.944706
0.921785
0.903413
0.891572
1.33348
1.3162
1.3005
1.28455
1.26734
1.24871
1.22784
1.20705
1.18415
1.1611
1.13659
1.11182
1.08624
1.06012
1.03345
1.00692
0.980256
0.954351
0.928126
0.902849
0.878932
0.855666
0.83467
0.813819
0.797144
0.781905
0.772413
0.766347
0.764841
0.772758
0.781467
0.791641
0.801505
0.814073
0.831417
0.854175
0.881285
0.911822
0.944788
0.978018
1.0091
1.03807
1.06567
1.09306
1.12151
1.1507
1.17962
1.20784
1.23576
1.26372
1.29089
1.3164
1.34028
1.35999
1.37012
1.37048
1.36188
1.34544
1.32724
1.31219
1.30321
1.29859
1.2951
1.2911
1.28618
1.28001
1.27237
1.26341
1.25337
1.24261
1.23151
1.22023
1.20881
1.19703
1.1846
1.17126
1.15673
1.1406
1.12235
1.10138
1.07716
1.04956
1.01925
0.987906
0.957889
0.931216
0.909315
0.894097
1.34856
1.33286
1.31895
1.30417
1.28817
1.26992
1.25018
1.22956
1.20735
1.18469
1.16101
1.13645
1.11096
1.08479
1.05789
1.03137
1.00451
0.978751
0.953331
0.928709
0.904706
0.880696
0.859161
0.837998
0.820482
0.804654
0.794727
0.789053
0.788424
0.799404
0.813133
0.826485
0.835914
0.845519
0.860294
0.881703
0.908535
0.939293
0.972807
1.00741
1.04016
1.06967
1.09602
1.12054
1.14503
1.17036
1.19675
1.22474
1.25467
1.28562
1.31562
1.34336
1.36781
1.38486
1.39071
1.38572
1.37076
1.35132
1.33381
1.32216
1.31625
1.31338
1.31098
1.30775
1.30315
1.29717
1.28957
1.28054
1.27046
1.25971
1.24874
1.23773
1.2267
1.21545
1.20366
1.19106
1.17737
1.16222
1.14508
1.12526
1.10196
1.07458
1.04314
1.00893
0.974625
0.943293
0.917183
0.898099
1.36478
1.35073
1.33739
1.32353
1.30856
1.2908
1.27204
1.25162
1.23035
1.2081
1.18492
1.16044
1.13525
1.1096
1.08315
1.05695
1.03024
1.00433
0.978072
0.952072
0.92806
0.904241
0.882556
0.861088
0.842676
0.826207
0.815032
0.808515
0.808278
0.822547
0.844928
0.866413
0.878502
0.883062
0.891968
0.909818
0.935442
0.965667
0.998663
1.03401
1.06847
1.09928
1.1258
1.149
1.17084
1.19315
1.21736
1.24479
1.2757
1.30835
1.34011
1.36888
1.39183
1.40483
1.40558
1.39456
1.37425
1.35377
1.33909
1.33147
1.32857
1.32727
1.32582
1.32328
1.31926
1.31378
1.30669
1.29808
1.28837
1.27788
1.26703
1.25607
1.24507
1.23392
1.22238
1.21018
1.19705
1.18267
1.16651
1.14791
1.12598
1.09983
1.06881
1.03327
0.995395
0.958948
0.927642
0.903994
1.3818
1.36944
1.35611
1.34284
1.32844
1.31103
1.293
1.27334
1.25268
1.2308
1.20796
1.18417
1.159
1.13291
1.10634
1.07968
1.05209
1.02508
0.999788
0.975176
0.951307
0.927646
0.905271
0.883724
0.864854
0.847095
0.834243
0.825735
0.822158
0.836445
0.868761
0.907723
0.933098
0.934725
0.933133
0.942956
0.964726
0.992696
1.02404
1.05923
1.09489
1.12721
1.15459
1.17765
1.19835
1.21918
1.2423
1.26913
1.29957
1.33213
1.36451
1.39304
1.41249
1.41891
1.41133
1.39296
1.37175
1.35487
1.34468
1.34072
1.33988
1.33963
1.33882
1.33699
1.33383
1.32913
1.32302
1.31547
1.30674
1.29704
1.28665
1.27583
1.2647
1.25332
)
;

boundaryField
{
    inlet
    {
        type            fixedValue;
        value           nonuniform 0();
    }
    outlet
    {
        type            zeroGradient;
    }
    bottom
    {
        type            symmetryPlane;
    }
    top
    {
        type            symmetryPlane;
    }
    obstacle
    {
        type            zeroGradient;
    }
    front
    {
        type            empty;
    }
    back
    {
        type            empty;
    }
    procBoundary11to2
    {
        type            processor;
        value           nonuniform List<scalar> 
27
(
0.798179
0.78112
0.764446
0.749339
0.734805
0.719944
0.705241
0.690278
0.675855
0.661491
0.650202
0.632175
0.876549
1.26287
1.30088
1.29382
1.29294
1.29461
1.30035
1.30873
1.31845
1.32921
1.34059
1.35267
1.3656
1.3795
1.39438
)
;
    }
    procBoundary11to3
    {
        type            processor;
        value           nonuniform List<scalar> 
89
(
0.967215
0.99063
1.01252
1.03247
1.04902
1.06185
1.07064
1.07617
1.08
1.08362
1.08854
1.09474
1.10291
1.11229
1.12302
1.13318
1.14288
1.1469
1.14415
1.13652
1.12529
1.1126
1.10032
1.08928
1.0796
1.07076
1.06248
1.05445
1.04648
1.0382
1.02947
1.02017
1.01047
1.00067
0.990965
0.981457
0.972125
0.963214
0.954917
0.947363
0.940168
0.932582
0.923801
0.913475
0.902454
0.892095
0.883292
0.876542
0.871952
0.86874
0.866907
0.825891
0.83369
0.841211
0.848894
0.852995
0.855318
0.856759
0.856882
0.85598
0.855351
0.853123
0.848215
0.842874
0.837529
0.830184
0.822026
0.813341
0.80458
0.796815
0.789855
0.784642
0.780532
0.778401
0.777685
0.778056
0.779456
0.780329
0.782139
0.784197
0.789891
0.799119
0.813947
0.83237
0.854599
0.878268
0.903063
0.927785
0.927785
)
;
    }
    procBoundary11to4
    {
        type            processor;
        value           uniform 0.864592;
    }
    procBoundary11to12
    {
        type            processor;
        value           nonuniform List<scalar> 
26
(
0.864354
0.866002
0.869183
0.874315
0.880461
0.886748
0.892061
0.895402
0.896958
0.896991
0.895292
0.893026
0.890735
0.888685
0.887196
0.886188
0.885341
0.884757
0.884461
0.884446
0.884779
0.885358
0.885848
0.886322
0.887249
0.889451
)
;
    }
    procBoundary11to19
    {
        type            processor;
        value           nonuniform List<scalar> 
89
(
1.24157
1.22925
1.21615
1.20198
1.18632
1.16854
1.14786
1.12331
1.09389
1.05903
1.01961
0.978863
0.941721
0.912534
1.39997
1.38925
1.37616
1.36308
1.34871
1.33158
1.31419
1.29497
1.27458
1.25288
1.23001
1.20602
1.18097
1.15523
1.12775
1.10026
1.07406
1.04877
1.02376
0.998476
0.974044
0.95026
0.927991
0.906704
0.887039
0.868666
0.854228
0.842139
0.835399
0.838267
0.87128
0.928392
0.989266
1.0062
0.994523
0.990423
1.00232
1.02533
1.05329
1.08613
1.12124
1.15419
1.18259
1.20647
1.22762
1.24866
1.27166
1.29762
1.32667
1.35872
1.39077
1.41652
1.42782
1.4216
1.40357
1.38234
1.3653
1.35485
1.35057
1.3506
1.35101
1.35108
1.35062
1.34949
1.34704
1.34322
1.33823
1.33212
1.32486
1.31654
1.30714
1.29688
1.28587
1.24157
1.27423
)
;
    }
}


// ************************************************************************* //
