/*--------------------------------*- C++ -*----------------------------------*\
  =========                 |
  \\      /  F ield         | OpenFOAM: The Open Source CFD Toolbox
   \\    /   O peration     | Website:  https://openfoam.org
    \\  /    A nd           | Version:  7
     \\/     M anipulation  |
\*---------------------------------------------------------------------------*/
FoamFile
{
    version     2.0;
    format      ascii;
    class       volScalarField;
    location    "0.487";
    object      p;
}
// * * * * * * * * * * * * * * * * * * * * * * * * * * * * * * * * * * * * * //

dimensions      [0 2 -2 0 0 0 0];

internalField   nonuniform List<scalar> 
40000
(
9.9699e-06
0.000109842
0.000171106
0.000155776
4.97213e-05
-0.000151498
-0.00044573
-0.000827154
-0.00128833
-0.00182122
-0.00241769
-0.0030698
-0.00376992
-0.00451081
-0.00528565
-0.00608805
-0.00691199
-0.00775188
-0.00860247
-0.00945888
-0.0103166
-0.0111713
-0.012019
-0.0128561
-0.0136792
-0.014485
-0.0152705
-0.0160331
-0.0167701
-0.0174792
-0.0181582
-0.0188051
-0.0194179
-0.019995
-0.0205348
-0.0210358
-0.0214967
-0.0219164
-0.0222936
-0.0226276
-0.0229173
-0.0231621
-0.0233612
-0.0235141
-0.0236203
-0.0236793
-0.0236909
-0.0236547
-0.0235706
-0.0234386
-0.0232584
-0.0230302
-0.022754
-0.02243
-0.0220583
-0.0216393
-0.0211732
-0.0206603
-0.0201011
-0.0194961
-0.0188456
-0.0181504
-0.0174108
-0.0166277
-0.0158015
-0.0149331
-0.0140232
-0.0130725
-0.0120818
-0.011052
-0.00998398
-0.00887859
-0.00773678
-0.00655951
-0.00534778
-0.00410258
-0.00282498
-0.00151602
-0.000176811
0.00119155
0.00258791
0.00401113
0.00546001
0.00693337
0.00842997
0.0099486
0.011488
0.0130468
0.0146239
0.0162179
0.0178274
0.0194512
0.0210878
0.022736
0.0243944
0.0260615
0.027736
0.0294166
0.0311016
0.0327899
0.0344799
0.0361702
0.0378593
0.0395459
0.0412285
0.0429056
0.0445759
0.0462378
0.0478899
0.0495309
0.0511591
0.0527733
0.054372
0.0559538
0.0575172
0.0590609
0.0605835
0.0620836
0.0635598
0.0650109
0.0664354
0.067832
0.0691996
0.0705367
0.0718422
0.0731148
0.0743533
0.0755566
0.0767235
0.0778529
0.0789437
0.0799949
0.0810055
0.0819745
0.0829009
0.083784
0.0846228
0.0854165
0.0861644
0.0868657
0.0875199
0.0881264
0.0886845
0.0891938
0.0896539
0.0900643
0.0904249
0.0907353
0.0909955
0.0912052
0.0913645
0.0914734
0.0915321
0.0915407
0.0914996
0.0914092
0.0912698
0.0910821
0.0908467
0.0905643
0.0902359
0.0898624
0.0894448
0.0889843
0.0884822
0.08794
0.0873592
0.0867415
0.0860886
0.0854025
0.0846854
0.0839395
0.0831672
0.0823711
0.081554
0.0807189
0.0798689
0.0790074
0.0781381
0.0772646
0.0763912
0.0755222
0.0746622
0.0738162
0.0729894
0.0721874
0.0714161
0.0706818
0.0699911
0.0693512
0.0687691
0.0682526
0.0678092
0.0674464
0.0671706
0.0669869
0.0668961
0.0668925
0.0669591
0.0670528
-7.51955e-05
1.84167e-05
5.47208e-05
1.80548e-05
-9.51825e-05
-0.000289175
-0.000563741
-0.000915275
-0.00133845
-0.00182707
-0.00237453
-0.00297412
-0.00361922
-0.0043034
-0.00502051
-0.00576469
-0.00653037
-0.00731233
-0.00810561
-0.00890559
-0.00970791
-0.0105085
-0.0113036
-0.0120895
-0.012863
-0.0136209
-0.0143604
-0.0150787
-0.0157733
-0.0164419
-0.0170823
-0.0176926
-0.0182707
-0.0188151
-0.0193242
-0.0197964
-0.0202306
-0.0206254
-0.0209798
-0.0212929
-0.0215636
-0.0217913
-0.0219752
-0.0221148
-0.0222095
-0.0222589
-0.0222626
-0.0222204
-0.0221321
-0.0219974
-0.0218164
-0.0215891
-0.0213154
-0.0209954
-0.0206295
-0.0202177
-0.0197604
-0.0192578
-0.0187104
-0.0181186
-0.0174828
-0.0168036
-0.0160814
-0.015317
-0.0145108
-0.0136637
-0.0127762
-0.0118492
-0.0108834
-0.00987956
-0.00883859
-0.00776135
-0.00664873
-0.00550165
-0.00432107
-0.00310798
-0.00186338
-0.000588315
0.000716171
0.00204899
0.00340905
0.00479521
0.00620633
0.00764125
0.00909878
0.0105777
0.0120768
0.0135949
0.0151307
0.0166828
0.0182502
0.0198313
0.021425
0.0230299
0.0246447
0.0262679
0.0278984
0.0295346
0.0311753
0.032819
0.0344644
0.0361101
0.0377546
0.0393966
0.0410347
0.0426674
0.0442934
0.0459113
0.0475196
0.049117
0.0507021
0.0522734
0.0538296
0.0553693
0.0568912
0.0583938
0.0598759
0.0613361
0.0627731
0.0641856
0.0655722
0.0669318
0.0682631
0.0695648
0.0708357
0.0720746
0.0732805
0.0744521
0.0755884
0.0766883
0.0777508
0.0787748
0.0797593
0.0807036
0.0816065
0.0824674
0.0832854
0.0840598
0.0847897
0.0854746
0.0861139
0.0867069
0.0872532
0.0877523
0.0882038
0.0886074
0.0889628
0.0892698
0.0895282
0.0897381
0.0898993
0.090012
0.0900763
0.0900925
0.0900608
0.0899817
0.0898556
0.0896831
0.089465
0.0892018
0.0888946
0.0885442
0.0881518
0.0877185
0.0872456
0.0867345
0.0861868
0.0856041
0.0849882
0.0843411
0.0836648
0.0829615
0.0822337
0.0814838
0.0807146
0.0799291
0.0791301
0.0783211
0.0775056
0.0766871
0.0758697
0.0750575
0.074255
0.0734668
0.0726977
0.0719532
0.0712385
0.0705595
0.0699221
0.0693326
0.0687972
0.0683222
0.0679139
0.0675777
0.0673184
0.0671387
0.067038
0.067011
0.0670528
0.0671466
-0.000133511
-1.70609e-05
1.90227e-05
-2.36769e-05
-0.000137759
-0.000325158
-0.000585603
-0.000916055
-0.00131212
-0.00176863
-0.00227996
-0.00284026
-0.00344366
-0.00408438
-0.00475681
-0.00545555
-0.00617541
-0.0069115
-0.00765915
-0.00841396
-0.00917178
-0.00992869
-0.010681
-0.0114253
-0.0121584
-0.0128772
-0.0135788
-0.0142607
-0.0149204
-0.0155556
-0.0161641
-0.0167439
-0.0172933
-0.0178105
-0.018294
-0.0187423
-0.019154
-0.0195281
-0.0198634
-0.0201589
-0.0204137
-0.020627
-0.0207982
-0.0209266
-0.0210116
-0.0210529
-0.02105
-0.0210027
-0.0209107
-0.0207739
-0.0205921
-0.0203654
-0.0200938
-0.0197773
-0.0194162
-0.0190105
-0.0185606
-0.0180668
-0.0175293
-0.0169487
-0.0163253
-0.0156596
-0.0149522
-0.0142036
-0.0134144
-0.0125853
-0.0117169
-0.01081
-0.00986522
-0.00888345
-0.00786548
-0.00681215
-0.00572431
-0.00460289
-0.00344879
-0.00226298
-0.00104644
0.000199822
0.00147478
0.00277739
0.00410657
0.00546122
0.00684023
0.00824246
0.00966675
0.0111119
0.0125768
0.0140602
0.0155608
0.0170774
0.0186088
0.0201538
0.0217109
0.0232789
0.0248566
0.0264426
0.0280356
0.0296342
0.0312371
0.032843
0.0344504
0.0360581
0.0376647
0.0392689
0.0408691
0.0424641
0.0440526
0.045633
0.0472041
0.0487645
0.0503129
0.0518478
0.053368
0.054872
0.0563586
0.0578265
0.0592742
0.0607006
0.0621043
0.063484
0.0648386
0.0661668
0.0674673
0.0687389
0.0699806
0.0711911
0.0723693
0.0735141
0.0746245
0.0756995
0.0767379
0.0777389
0.0787015
0.0796248
0.080508
0.0813502
0.0821506
0.0829086
0.0836235
0.0842945
0.0849211
0.0855029
0.0860392
0.0865297
0.086974
0.0873718
0.0877228
0.0880269
0.088284
0.0884939
0.0886568
0.0887726
0.0888417
0.0888642
0.0888404
0.0887708
0.0886558
0.0884961
0.0882923
0.0880452
0.0877556
0.0874246
0.0870531
0.0866424
0.0861938
0.0857086
0.0851883
0.0846347
0.0840494
0.0834345
0.0827918
0.0821237
0.0814324
0.0807205
0.0799905
0.0792453
0.078488
0.0777216
0.0769496
0.0761755
0.0754031
0.0746364
0.0738796
0.073137
0.0724135
0.0717137
0.0710429
0.0704063
0.0698094
0.0692576
0.0687566
0.0683119
0.0679287
0.0676116
0.0673644
0.0671895
0.0670865
0.0670527
0.0670946
0.0672132
-0.000117923
1.99707e-05
6.21599e-05
1.94929e-05
-9.30875e-05
-0.000275174
-0.00052564
-0.000841241
-0.00121785
-0.0016508
-0.00213506
-0.00266538
-0.00323645
-0.003843
-0.00447987
-0.00514205
-0.00582472
-0.00652327
-0.0072333
-0.00795063
-0.0086713
-0.00939157
-0.0101079
-0.010817
-0.0115157
-0.0122011
-0.0128704
-0.0135211
-0.0141507
-0.014757
-0.0153379
-0.0158915
-0.0164159
-0.0169094
-0.0173706
-0.0177979
-0.0181902
-0.0185461
-0.0188646
-0.0191447
-0.0193855
-0.0195862
-0.0197461
-0.0198646
-0.0199411
-0.0199752
-0.0199665
-0.0199146
-0.0198194
-0.0196807
-0.0194983
-0.0192722
-0.0190024
-0.018689
-0.0183321
-0.0179319
-0.0174886
-0.0170025
-0.0164739
-0.0159032
-0.0152909
-0.0146373
-0.013943
-0.0132085
-0.0124344
-0.0116214
-0.01077
-0.00988103
-0.00895512
-0.00799306
-0.00699564
-0.00596367
-0.004898
-0.0037995
-0.00266909
-0.00150768
-0.000316236
0.000904261
0.00215281
0.00342838
0.00472993
0.00605638
0.00740664
0.00877961
0.0101742
0.0115891
0.0130233
0.0144756
0.0159448
0.0174296
0.0189289
0.0204414
0.0219658
0.0235009
0.0250454
0.026598
0.0281574
0.0297223
0.0312915
0.0328635
0.034437
0.0360108
0.0375835
0.0391537
0.0407202
0.0422815
0.0438363
0.0453833
0.0469212
0.0484486
0.0499641
0.0514666
0.0529545
0.0544267
0.0558819
0.0573186
0.0587357
0.0601319
0.0615059
0.0628565
0.0641825
0.0654826
0.0667557
0.0680006
0.0692162
0.0704014
0.071555
0.072676
0.0737633
0.0748161
0.0758332
0.0768137
0.0777568
0.0786615
0.0795271
0.0803527
0.0811376
0.081881
0.0825825
0.0832412
0.0838567
0.0844284
0.0849559
0.0854388
0.0858767
0.0862693
0.0866165
0.0869181
0.0871738
0.0873838
0.0875481
0.0876668
0.08774
0.087768
0.0877511
0.0876898
0.0875846
0.0874361
0.0872449
0.0870118
0.0867377
0.0864235
0.0860703
0.0856793
0.0852517
0.0847889
0.0842925
0.083764
0.0832053
0.082618
0.0820044
0.0813665
0.0807065
0.080027
0.0793305
0.0786197
0.0778976
0.0771673
0.0764319
0.075695
0.0749601
0.0742311
0.0735119
0.0728068
0.0721201
0.0714565
0.0708206
0.0702174
0.0696519
0.069129
0.0686539
0.0682315
0.0678664
0.0675629
0.0673247
0.0671543
0.0670524
0.0670187
0.0670676
0.0672098
-1.20539e-05
0.000133407
0.000176625
0.000132547
1.99949e-05
-0.000158971
-0.000402434
-0.000706861
-0.00106822
-0.00148216
-0.00194408
-0.0024492
-0.00299268
-0.00356969
-0.00417547
-0.00480539
-0.00545496
-0.00611986
-0.00679594
-0.00747925
-0.00816604
-0.00885272
-0.00953594
-0.0102125
-0.0108793
-0.0115337
-0.0121728
-0.0127943
-0.0133958
-0.013975
-0.0145299
-0.0150587
-0.0155595
-0.0160306
-0.0164707
-0.0168782
-0.0172519
-0.0175905
-0.017893
-0.0181584
-0.0183859
-0.0185745
-0.0187237
-0.0188327
-0.0189011
-0.0189283
-0.018914
-0.0188578
-0.0187595
-0.0186189
-0.0184359
-0.0182104
-0.0179424
-0.0176319
-0.0172792
-0.0168842
-0.0164473
-0.0159688
-0.0154488
-0.0148878
-0.0142861
-0.0136442
-0.0129627
-0.0122419
-0.0114825
-0.0106851
-0.00985024
-0.00897866
-0.00807104
-0.00712812
-0.00615065
-0.00513944
-0.0040953
-0.00301909
-0.00191169
-0.000774006
0.000393038
0.00158848
0.00281135
0.00406063
0.00533531
0.00663434
0.00795665
0.00930116
0.0106668
0.0120523
0.0134567
0.0148788
0.0163174
0.0177713
0.0192393
0.0207203
0.0222129
0.0237159
0.0252281
0.0267483
0.0282751
0.0298072
0.0313435
0.0328826
0.0344232
0.035964
0.0375037
0.039041
0.0405746
0.0421032
0.0436254
0.0451399
0.0466455
0.0481408
0.0496246
0.0510954
0.0525522
0.0539935
0.055418
0.0568246
0.058212
0.0595789
0.0609242
0.0622465
0.0635447
0.0648177
0.0660643
0.0672833
0.0684736
0.0696342
0.070764
0.0718619
0.072927
0.0739582
0.0749547
0.0759155
0.0768396
0.0777264
0.078575
0.0793845
0.0801544
0.0808838
0.0815723
0.0822191
0.0828238
0.0833859
0.0839049
0.0843804
0.0848121
0.0851998
0.0855433
0.0858423
0.0860968
0.0863069
0.0864725
0.0865937
0.0866709
0.0867041
0.0866939
0.0866405
0.0865446
0.0864067
0.0862275
0.0860077
0.0857482
0.08545
0.0851142
0.0847418
0.0843341
0.0838926
0.0834187
0.0829139
0.0823801
0.0818189
0.0812325
0.0806228
0.0799922
0.0793429
0.0786775
0.0779987
0.0773092
0.0766121
0.0759104
0.0752075
0.0745068
0.0738119
0.0731268
0.0724552
0.0718014
0.0711697
0.0705644
0.0699901
0.0694513
0.0689529
0.0684992
0.0680949
0.0677442
0.0674511
0.0672193
0.0670517
0.06695
0.0669155
0.0669671
0.0671196
0.000188646
0.00032746
0.000364393
0.00031513
0.000199474
2.04628e-05
-0.000219424
-0.00051646
-0.000866676
-0.00126596
-0.00171004
-0.00219451
-0.00271494
-0.00326687
-0.00384592
-0.0044478
-0.00506831
-0.00570343
-0.00634926
-0.00700207
-0.00765829
-0.00831454
-0.00896759
-0.00961439
-0.010252
-0.0108778
-0.0114891
-0.0120835
-0.0126588
-0.0132128
-0.0137435
-0.0142491
-0.0147278
-0.015178
-0.0155982
-0.015987
-0.0163432
-0.0166655
-0.016953
-0.0172045
-0.0174193
-0.0175966
-0.0177355
-0.0178356
-0.0178962
-0.0179169
-0.0178973
-0.017837
-0.0177358
-0.0175935
-0.0174099
-0.017185
-0.0169188
-0.0166112
-0.0162625
-0.0158726
-0.0154419
-0.0149706
-0.0144589
-0.0139072
-0.0133159
-0.0126853
-0.012016
-0.0113085
-0.0105633
-0.0097809
-0.00896202
-0.00810725
-0.0072173
-0.00629285
-0.00533467
-0.00434351
-0.00332018
-0.0022655
-0.00118035
-6.55842e-05
0.00107788
0.0022491
0.00344714
0.00467101
0.00591971
0.00719222
0.00848751
0.0098045
0.0111421
0.0124993
0.0138749
0.0152677
0.0166767
0.0181007
0.0195385
0.0209889
0.0224508
0.0239228
0.0254038
0.0268926
0.0283879
0.0298884
0.031393
0.0329003
0.034409
0.035918
0.0374258
0.0389313
0.0404332
0.0419301
0.0434208
0.044904
0.0463784
0.0478427
0.0492958
0.0507362
0.0521628
0.0535743
0.0549694
0.0563469
0.0577056
0.0590443
0.0603618
0.0616569
0.0629284
0.0641753
0.0653963
0.0665903
0.0677564
0.0688933
0.0700002
0.0710759
0.0721195
0.0731301
0.0741067
0.0750484
0.0759545
0.076824
0.0776562
0.0784503
0.0792057
0.0799217
0.0805977
0.0812331
0.0818275
0.0823802
0.082891
0.0833595
0.0837853
0.0841682
0.084508
0.0848046
0.0850579
0.0852679
0.0854347
0.0855585
0.0856393
0.0856775
0.0856735
0.0856276
0.0855404
0.0854125
0.0852445
0.0850373
0.0847916
0.0845085
0.0841889
0.083834
0.0834451
0.0830235
0.0825706
0.082088
0.0815774
0.0810405
0.0804794
0.0798959
0.0792924
0.0786711
0.0780344
0.0773849
0.0767253
0.0760585
0.0753874
0.0747153
0.0740454
0.0733812
0.0727263
0.0720844
0.0714595
0.0708555
0.0702765
0.0697268
0.0692106
0.0687321
0.0682957
0.0679055
0.0675654
0.0672793
0.0670509
0.0668835
0.0667791
0.0667405
0.0667878
0.0669368
0.0004822
0.000602113
0.000625337
0.00056624
0.000443547
0.000260758
2.06855e-05
-0.000272886
-0.000616081
-0.001005
-0.00143563
-0.00190391
-0.00240573
-0.002937
-0.00349364
-0.00407168
-0.00466722
-0.00527649
-0.00589583
-0.00652173
-0.00715083
-0.00777991
-0.00840589
-0.00902586
-0.00963706
-0.0102369
-0.0108228
-0.0113925
-0.0119438
-0.0124746
-0.012983
-0.0134672
-0.0139254
-0.0143561
-0.0147579
-0.0151294
-0.0154692
-0.0157764
-0.0160497
-0.0162883
-0.0164913
-0.0166578
-0.0167873
-0.0168789
-0.0169323
-0.0169469
-0.0169223
-0.0168582
-0.0167543
-0.0166104
-0.0164264
-0.0162021
-0.0159376
-0.0156328
-0.0152879
-0.014903
-0.0144782
-0.0140138
-0.01351
-0.0129673
-0.0123858
-0.0117662
-0.0111086
-0.0104138
-0.00968214
-0.00891421
-0.00811062
-0.00727198
-0.00639896
-0.00549224
-0.00455255
-0.00358062
-0.00257725
-0.00154324
-0.000479419
0.000613347
0.00173418
0.00288216
0.00405637
0.00525585
0.00647962
0.00772669
0.00899603
0.0102866
0.0115974
0.0129273
0.0142752
0.01564
0.0170206
0.0184159
0.0198247
0.0212458
0.0226781
0.0241204
0.0255715
0.0270302
0.0284952
0.0299654
0.0314395
0.0329163
0.0343945
0.0358729
0.0373502
0.0388252
0.0402966
0.0417632
0.0432237
0.0446768
0.0461214
0.0475561
0.0489797
0.050391
0.0517887
0.0531716
0.0545385
0.0558882
0.0572195
0.0585312
0.0598221
0.0610912
0.0623372
0.063559
0.0647555
0.0659258
0.0670686
0.068183
0.0692679
0.0703224
0.0713456
0.0723364
0.0732941
0.0742176
0.0751063
0.0759594
0.076776
0.0775554
0.078297
0.0790002
0.0796643
0.0802888
0.0808733
0.0814172
0.0819201
0.0823818
0.0828019
0.0831803
0.0835166
0.0838108
0.0840629
0.0842729
0.0844408
0.0845667
0.084651
0.0846938
0.0846955
0.0846566
0.0845776
0.084459
0.0843015
0.084106
0.0838732
0.083604
0.0832996
0.0829609
0.0825893
0.0821861
0.0817527
0.0812906
0.0808014
0.0802869
0.079749
0.0791896
0.0786109
0.0780151
0.0774044
0.0767815
0.0761489
0.0755094
0.0748658
0.0742211
0.0735786
0.0729414
0.072313
0.0716969
0.0710968
0.0705164
0.0699595
0.0694301
0.0689321
0.0684694
0.0680461
0.0676659
0.0673326
0.06705
0.0668215
0.0666508
0.0665403
0.0664932
0.0665289
0.0666624
0.000863066
0.000954006
0.000956631
0.000882823
0.00074886
0.00055836
0.000314283
2.03349e-05
-0.000319764
-0.000702317
-0.00112358
-0.00157978
-0.0020671
-0.00258176
-0.00311999
-0.0036781
-0.00425246
-0.00483954
-0.00543593
-0.00603832
-0.00664353
-0.00724852
-0.00785038
-0.00844633
-0.00903373
-0.00961006
-0.0101729
-0.0107202
-0.0112496
-0.0117591
-0.0122471
-0.0127115
-0.0131509
-0.0135637
-0.0139484
-0.0143038
-0.0146285
-0.0149215
-0.0151818
-0.0154083
-0.0156002
-0.0157568
-0.0158774
-0.0159612
-0.0160078
-0.0160167
-0.0159875
-0.0159199
-0.0158135
-0.0156681
-0.0154837
-0.0152601
-0.0149973
-0.0146952
-0.014354
-0.0139738
-0.0135548
-0.013097
-0.0126009
-0.0120667
-0.0114948
-0.0108855
-0.0102393
-0.00955658
-0.00883793
-0.00808385
-0.00729492
-0.00647174
-0.00561496
-0.00472523
-0.00380327
-0.00284979
-0.00186556
-0.000851363
0.000191989
0.00126366
0.00236278
0.00348847
0.00463981
0.00581589
0.00701574
0.00823838
0.00948283
0.0107481
0.0120331
0.0133368
0.0146581
0.015996
0.0173494
0.0187172
0.0200981
0.0214912
0.0228952
0.0243089
0.0257313
0.0271611
0.0285971
0.0300382
0.0314831
0.0329306
0.0343795
0.0358286
0.0372767
0.0387224
0.0401647
0.0416022
0.0430338
0.0444581
0.0458741
0.0472804
0.0486758
0.0500592
0.0514292
0.0527848
0.0541248
0.0554479
0.0567529
0.0580388
0.0593043
0.0605485
0.06177
0.062968
0.0641412
0.0652886
0.0664092
0.0675021
0.0685661
0.0696004
0.070604
0.071576
0.0725155
0.0734218
0.074294
0.0751313
0.075933
0.0766984
0.0774269
0.0781178
0.0787706
0.0793847
0.0799597
0.0804952
0.0809907
0.0814459
0.0818606
0.0822345
0.0825674
0.0828594
0.0831103
0.0833201
0.0834889
0.0836169
0.0837042
0.0837513
0.0837584
0.0837259
0.0836544
0.0835445
0.0833968
0.0832121
0.0829912
0.082735
0.0824446
0.082121
0.0817654
0.0813792
0.0809637
0.0805204
0.0800509
0.0795569
0.0790402
0.0785028
0.0779467
0.0773739
0.0767869
0.076188
0.0755796
0.0749645
0.0743453
0.0737249
0.0731064
0.0724928
0.0718874
0.0712934
0.0707143
0.0701537
0.069615
0.069102
0.0686182
0.0681674
0.0677533
0.0673794
0.0670492
0.0667664
0.0665344
0.0663567
0.0662361
0.0661758
0.0661932
0.0663011
0.00132414
0.00137811
0.00135415
0.001261
0.00111161
0.000909521
0.000657711
0.000359699
1.89923e-05
-0.000360941
-0.000776613
-0.00122451
-0.00170111
-0.00220291
-0.00272643
-0.00326822
-0.00382492
-0.00439324
-0.00496997
-0.00555203
-0.0061364
-0.00672023
-0.00730075
-0.00787533
-0.00844144
-0.00899669
-0.00953881
-0.0100656
-0.0105751
-0.0110654
-0.0115346
-0.011981
-0.0124031
-0.0127994
-0.0131684
-0.0135089
-0.0138196
-0.0140996
-0.0143477
-0.014563
-0.0147447
-0.014892
-0.0150043
-0.0150809
-0.0151212
-0.0151248
-0.0150914
-0.0150204
-0.0149118
-0.0147652
-0.0145805
-0.0143576
-0.0140965
-0.0137971
-0.0134595
-0.0130838
-0.0126702
-0.0122189
-0.0117302
-0.0112042
-0.0106414
-0.010042
-0.00940663
-0.0087356
-0.00802943
-0.00728863
-0.00651376
-0.00570541
-0.00486419
-0.00399075
-0.00308579
-0.00215
-0.00118413
-0.000188936
0.000834787
0.00188622
0.00296452
0.00406882
0.00519824
0.00635187
0.00752877
0.00872799
0.00994857
0.0111895
0.0124498
0.0137284
0.0150243
0.0163364
0.0176636
0.0190049
0.0203592
0.0217253
0.0231021
0.0244885
0.0258834
0.0272855
0.0286937
0.0301069
0.0315238
0.0329432
0.0343641
0.0357851
0.0372051
0.0386229
0.0400372
0.0414469
0.0428507
0.0442475
0.0456361
0.0470152
0.0483837
0.0497403
0.051084
0.0524134
0.0537275
0.0550252
0.0563051
0.0575663
0.0588076
0.0600279
0.0612262
0.0624013
0.0635522
0.0646778
0.0657773
0.0668495
0.0678936
0.0689085
0.0698935
0.0708475
0.0717698
0.0726596
0.073516
0.0743383
0.0751258
0.0758779
0.0765938
0.0772731
0.0779151
0.0785193
0.0790853
0.0796126
0.080101
0.08055
0.0809595
0.0813292
0.0816589
0.0819486
0.0821982
0.0824078
0.0825774
0.0827072
0.0827974
0.0828484
0.0828604
0.0828339
0.0827694
0.0826674
0.0825287
0.082354
0.0821441
0.0818999
0.0816224
0.0813126
0.0809718
0.0806012
0.0802021
0.0797761
0.0793246
0.0788493
0.078352
0.0778345
0.0772988
0.0767469
0.0761811
0.0756037
0.0750169
0.0744234
0.0738258
0.0732268
0.0726292
0.072036
0.0714502
0.070875
0.0703135
0.069769
0.0692449
0.0687446
0.0682714
0.0678289
0.0674203
0.067049
0.0667185
0.0664321
0.066193
0.0660047
0.0658698
0.0657919
0.065785
0.0658592
0.00185778
0.0018686
0.00181307
0.00169641
0.00152774
0.0013104
0.00104732
0.000741764
0.00039697
1.61651e-05
-0.000397418
-0.000840531
-0.00130992
-0.00180234
-0.00231456
-0.00284341
-0.00338574
-0.00393849
-0.00449868
-0.00506339
-0.00562981
-0.00619524
-0.00675707
-0.0073128
-0.00786003
-0.00839649
-0.00892001
-0.00942852
-0.00992007
-0.0103928
-0.010845
-0.011275
-0.0116813
-0.0120624
-0.012417
-0.0127439
-0.0130418
-0.0133097
-0.0135466
-0.0137516
-0.0139238
-0.0140626
-0.0141672
-0.0142371
-0.0142716
-0.0142704
-0.014233
-0.0141591
-0.0140484
-0.0139007
-0.0137158
-0.0134937
-0.0132342
-0.0129375
-0.0126034
-0.0122321
-0.0118239
-0.0113787
-0.010897
-0.0103789
-0.00982482
-0.00923507
-0.00861004
-0.00795019
-0.00725598
-0.0065279
-0.0057665
-0.00497235
-0.00414604
-0.00328822
-0.00239954
-0.00148071
-0.000532422
0.000444561
0.00144947
0.00248152
0.00353986
0.00462367
0.00573208
0.00686419
0.0080191
0.00919587
0.0103936
0.0116112
0.0128478
0.0141023
0.0153738
0.0166612
0.0179634
0.0192794
0.0206081
0.0219484
0.0232992
0.0246593
0.0260278
0.0274034
0.028785
0.0301714
0.0315615
0.0329541
0.0343481
0.0357422
0.0371354
0.0385264
0.039914
0.041297
0.0426744
0.0440448
0.0454072
0.0467603
0.048103
0.0494341
0.0507525
0.0520569
0.0533464
0.0546197
0.0558757
0.0571133
0.0583314
0.059529
0.060705
0.0618583
0.0629879
0.0640928
0.0651721
0.0662247
0.0672497
0.0682462
0.0692134
0.0701503
0.0710562
0.0719302
0.0727716
0.0735797
0.0743537
0.075093
0.075797
0.0764651
0.0770968
0.0776915
0.078249
0.0787686
0.0792501
0.0796932
0.0800977
0.0804633
0.0807898
0.0810773
0.0813257
0.0815349
0.0817052
0.0818366
0.0819294
0.0819839
0.0820004
0.0819794
0.0819213
0.0818267
0.0816963
0.0815308
0.081331
0.0810978
0.0808321
0.080535
0.0802077
0.0798514
0.0794673
0.079057
0.0786218
0.0781635
0.0776837
0.0771842
0.0766668
0.0761337
0.0755868
0.0750284
0.0744608
0.0738864
0.0733076
0.0727271
0.0721475
0.0715717
0.0710024
0.0704427
0.0698955
0.0693639
0.068851
0.06836
0.0678941
0.0674563
0.0670499
0.066678
0.0663438
0.0660504
0.0658008
0.0655983
0.0654456
0.0653458
0.0653097
0.0653439
0.00245633
0.00241928
0.00232812
0.00218437
0.00199296
0.00175702
0.00147941
0.00116307
0.00081096
0.000426046
1.13036e-05
-0.000430275
-0.000895689
-0.00138195
-0.00188606
-0.00240509
-0.00293613
-0.00347631
-0.00402285
-0.00457304
-0.00512423
-0.00567388
-0.00621953
-0.00675882
-0.00728947
-0.00780933
-0.00831632
-0.00880848
-0.00928394
-0.00974094
-0.0101778
-0.0105929
-0.0109849
-0.0113522
-0.0116937
-0.0120081
-0.0122942
-0.012551
-0.0127777
-0.0129732
-0.0131368
-0.0132677
-0.0133653
-0.013429
-0.0134582
-0.0134525
-0.0134116
-0.013335
-0.0132225
-0.0130739
-0.0128889
-0.0126676
-0.0124099
-0.0121156
-0.011785
-0.011418
-0.0110148
-0.0105757
-0.0101007
-0.0095902
-0.00904449
-0.00846391
-0.00784883
-0.00719969
-0.00651692
-0.00580103
-0.00505253
-0.00427197
-0.00345995
-0.00261707
-0.00174399
-0.00084138
9.00638e-05
0.00104961
0.00203651
0.00304999
0.00408923
0.00515342
0.00624171
0.00735322
0.00848707
0.00964234
0.0108181
0.0120134
0.0132274
0.0144589
0.015707
0.0169706
0.0182489
0.0195406
0.0208449
0.0221604
0.0234863
0.0248215
0.0261647
0.0275149
0.028871
0.0302318
0.0315963
0.0329632
0.0343315
0.0356999
0.0370674
0.0384328
0.0397948
0.0411524
0.0425044
0.0438497
0.045187
0.0465153
0.0478334
0.0491401
0.0504344
0.051715
0.0529809
0.054231
0.0554641
0.0566793
0.0578753
0.0590512
0.060206
0.0613385
0.0624478
0.063533
0.064593
0.0656269
0.0666338
0.0676128
0.068563
0.0694836
0.0703738
0.0712329
0.07206
0.0728544
0.0736156
0.0743428
0.0750354
0.0756929
0.0763148
0.0769006
0.0774498
0.0779621
0.0784371
0.0788745
0.0792742
0.0796358
0.0799593
0.0802446
0.0804917
0.0807006
0.0808713
0.0810042
0.0810993
0.0811569
0.0811775
0.0811614
0.0811092
0.0810213
0.0808985
0.0807414
0.0805508
0.0803277
0.0800728
0.0797873
0.0794723
0.0791289
0.0787585
0.0783624
0.077942
0.077499
0.0770349
0.0765514
0.0760505
0.075534
0.0750039
0.0744623
0.0739114
0.0733535
0.072791
0.0722263
0.071662
0.0711007
0.070545
0.0699978
0.0694619
0.0689401
0.0684353
0.0679504
0.0674885
0.0670524
0.066645
0.0662694
0.0659284
0.0656248
0.0653616
0.0651416
0.0649676
0.0648425
0.064773
0.0647624
0.00311238
0.00302392
0.00289389
0.00272003
0.00250286
0.00224534
0.00195022
0.00162014
0.00125775
0.000865748
0.000446856
3.81552e-06
-0.000460619
-0.000943692
-0.00144265
-0.00195478
-0.00247737
-0.00300778
-0.00354341
-0.00408172
-0.00462024
-0.00515658
-0.00568843
-0.00621355
-0.00672981
-0.00723515
-0.0077276
-0.0082053
-0.00866647
-0.0091094
-0.00953251
-0.00993429
-0.0103133
-0.0106682
-0.0109978
-0.0113008
-0.0115762
-0.0118231
-0.0120403
-0.0122272
-0.0123828
-0.0125065
-0.0125977
-0.0126558
-0.0126802
-0.0126705
-0.0126263
-0.0125473
-0.0124332
-0.0122839
-0.012099
-0.0118786
-0.0116225
-0.0113308
-0.0110035
-0.0106407
-0.0102425
-0.009809
-0.00934055
-0.00883734
-0.00829968
-0.00772789
-0.00712234
-0.00648344
-0.00581164
-0.00510741
-0.00437125
-0.00360371
-0.00280535
-0.00197677
-0.00111861
-0.000231514
0.000683823
0.00162669
0.00259637
0.00359208
0.00461305
0.00565847
0.00672752
0.00781932
0.00893303
0.0100677
0.0112226
0.0123965
0.0135888
0.0147982
0.016024
0.017265
0.0185203
0.0197889
0.0210697
0.0223617
0.0236638
0.0249749
0.026294
0.02762
0.0289517
0.0302881
0.0316281
0.0329705
0.0343142
0.0356581
0.037001
0.0383419
0.0396796
0.0410129
0.0423407
0.0436619
0.0449754
0.04628
0.0475746
0.048858
0.0501293
0.0513872
0.0526306
0.0538586
0.05507
0.0562637
0.0574387
0.058594
0.0597285
0.0608413
0.0619313
0.0629976
0.0640393
0.0650554
0.0660451
0.0670074
0.0679415
0.0688466
0.069722
0.0705668
0.0713803
0.0721619
0.0729108
0.0736264
0.0743083
0.0749557
0.0755683
0.0761455
0.0766869
0.0771921
0.0776609
0.0780929
0.078488
0.0788458
0.0791663
0.0794495
0.0796952
0.0799036
0.0800748
0.0802088
0.0803059
0.0803664
0.0803907
0.0803791
0.0803322
0.0802504
0.0801345
0.079985
0.0798028
0.0795888
0.0793437
0.0790687
0.0787648
0.0784331
0.078075
0.0776916
0.0772845
0.0768551
0.0764051
0.0759359
0.0754495
0.0749476
0.0744322
0.0739052
0.0733688
0.0728252
0.0722765
0.0717251
0.0711734
0.0706239
0.0700792
0.0695417
0.0690141
0.0684992
0.0679995
0.0675179
0.067057
0.0666197
0.0662085
0.0658262
0.0654754
0.0651589
0.0648791
0.0646388
0.0644404
0.0642869
0.0641808
0.0641217
0.00381888
0.00367642
0.00350498
0.00329849
0.00305299
0.00277126
0.002456
0.00210951
0.00173414
0.00133233
0.000906546
0.00045929
-6.92137e-06
-0.000489558
-0.000986094
-0.00149401
-0.00201082
-0.00253407
-0.00306132
-0.00359024
-0.00411849
-0.00464386
-0.00516415
-0.00567727
-0.0061812
-0.006674
-0.00715382
-0.00761886
-0.00806744
-0.00849794
-0.00890884
-0.0092987
-0.00966614
-0.0100099
-0.0103287
-0.0106216
-0.0108873
-0.0111251
-0.0113338
-0.0115128
-0.0116613
-0.0117785
-0.0118639
-0.0119168
-0.0119369
-0.0119235
-0.0118765
-0.0117954
-0.01168
-0.01153
-0.0113453
-0.0111259
-0.0108715
-0.0105823
-0.0102583
-0.00989948
-0.00950603
-0.0090781
-0.0086159
-0.00811968
-0.00758973
-0.00702636
-0.00642994
-0.00580086
-0.00513954
-0.00444646
-0.0037221
-0.002967
-0.0021817
-0.00136679
-0.000522887
0.000349374
0.00124932
0.00217626
0.00312947
0.00410821
0.00511172
0.0061392
0.00718986
0.00826284
0.0093573
0.0104724
0.0116072
0.0127608
0.0139322
0.0151207
0.0163251
0.0175445
0.0187779
0.0200243
0.0212828
0.0225522
0.0238316
0.0251198
0.0264158
0.0277186
0.0290271
0.0303402
0.0316568
0.0329758
0.0342961
0.0356166
0.0369361
0.0382537
0.0395681
0.0408782
0.042183
0.0434813
0.044772
0.046054
0.0473262
0.0485875
0.0498369
0.0510731
0.0522952
0.0535021
0.0546928
0.0558661
0.0570211
0.0581568
0.0592721
0.060366
0.0614377
0.0624861
0.0635104
0.0645096
0.0654829
0.0664294
0.0673482
0.0682387
0.0690999
0.0699312
0.0707318
0.0715011
0.0722384
0.0729431
0.0736147
0.0742526
0.0748563
0.0754253
0.0759593
0.0764579
0.0769207
0.0773476
0.0777381
0.0780923
0.07841
0.078691
0.0789354
0.0791432
0.0793146
0.0794496
0.0795485
0.0796115
0.0796391
0.0796315
0.0795893
0.0795131
0.0794033
0.0792608
0.0790862
0.0788803
0.0786441
0.0783785
0.0780846
0.0777634
0.0774162
0.0770443
0.076649
0.0762317
0.075794
0.0753374
0.0748637
0.0743745
0.0738718
0.0733574
0.0728334
0.0723017
0.0717645
0.071224
0.0706826
0.0701424
0.0696059
0.0690755
0.0685537
0.0680429
0.0675457
0.0670646
0.0666021
0.0661608
0.065743
0.0653514
0.0649883
0.0646561
0.0643572
0.0640939
0.0638687
0.0636842
0.0635388
0.0634285
0.00456923
0.00437089
0.00415612
0.00391495
0.00363895
0.00333074
0.00299301
0.00262772
0.00223695
0.00182286
0.00138769
0.000933699
0.000463183
-2.15482e-05
-0.000518176
-0.00102439
-0.00153788
-0.00205638
-0.00257765
-0.00309948
-0.00361973
-0.0041363
-0.00464716
-0.00515032
-0.0056439
-0.00612605
-0.00659502
-0.00704912
-0.00748675
-0.00790638
-0.00830654
-0.00868587
-0.00904306
-0.00937688
-0.00968618
-0.00996988
-0.010227
-0.0104565
-0.0106576
-0.0108296
-0.0109715
-0.0110829
-0.0111631
-0.0112114
-0.0112276
-0.011211
-0.0111615
-0.0110785
-0.010962
-0.0108116
-0.0106273
-0.0104088
-0.0101563
-0.00986952
-0.00954866
-0.00919375
-0.00880492
-0.00838231
-0.00792613
-0.00743662
-0.00691406
-0.00635876
-0.00577107
-0.00515137
-0.00450008
-0.00381765
-0.00310457
-0.00236134
-0.00158852
-0.00078666
4.3632e-05
0.000901732
0.00178699
0.00269871
0.00363621
0.00459876
0.0055856
0.00659597
0.00762907
0.00868409
0.00976019
0.0108565
0.0119722
0.0131063
0.014258
0.0154264
0.0166104
0.0178092
0.0190217
0.020247
0.0214842
0.0227321
0.0239897
0.0252561
0.0265302
0.0278109
0.0290973
0.0303881
0.0316824
0.0329791
0.0342771
0.0355752
0.0368725
0.0381678
0.0394601
0.0407482
0.042031
0.0433075
0.0445766
0.0458371
0.047088
0.0483283
0.0495568
0.0507725
0.0519743
0.0531612
0.0543321
0.0554861
0.056622
0.0577391
0.0588361
0.0599122
0.0609665
0.061998
0.0630057
0.0639889
0.0649467
0.0658781
0.0667825
0.067659
0.0685068
0.0693253
0.0701137
0.0708714
0.0715977
0.0722921
0.0729539
0.0735827
0.074178
0.0747393
0.0752662
0.0757584
0.0762156
0.0766375
0.0770238
0.0773745
0.0776893
0.0779683
0.0782113
0.0784185
0.0785899
0.0787257
0.0788261
0.0788913
0.0789218
0.0789178
0.0788799
0.0788085
0.0787043
0.0785679
0.0784001
0.0782016
0.0779733
0.0777161
0.077431
0.0771192
0.0767817
0.0764199
0.0760349
0.0756283
0.0752014
0.0747557
0.074293
0.0738148
0.0733229
0.0728191
0.0723053
0.0717835
0.0712556
0.0707238
0.0701903
0.069657
0.0691265
0.0686007
0.0680822
0.0675731
0.0670758
0.0665927
0.0661261
0.0656783