/*--------------------------------*- C++ -*----------------------------------*\
  =========                 |
  \\      /  F ield         | OpenFOAM: The Open Source CFD Toolbox
   \\    /   O peration     | Website:  https://openfoam.org
    \\  /    A nd           | Version:  7
     \\/     M anipulation  |
\*---------------------------------------------------------------------------*/
FoamFile
{
    version     2.0;
    format      ascii;
    class       surfaceScalarField;
    location    "0.409";
    object      phi;
}
// * * * * * * * * * * * * * * * * * * * * * * * * * * * * * * * * * * * * * //

dimensions      [0 3 -1 0 0 0 0];

internalField   nonuniform List<scalar> 
79600
(
8.14658e-13
-1.39561e-12
1.27289e-11
-1.19144e-11
3.2819e-11
-2.00902e-11
5.72777e-11
-2.44588e-11
8.30424e-11
-2.57649e-11
1.078e-10
-2.4758e-11
1.29834e-10
-2.2034e-11
1.47887e-10
-1.80534e-11
1.61046e-10
-1.31589e-11
1.6865e-10
-7.60397e-12
1.70228e-10
-1.57847e-12
1.65455e-10
4.77334e-12
1.54115e-10
1.13399e-11
1.36081e-10
1.80342e-11
1.11293e-10
2.47875e-11
7.9748e-11
3.15449e-11
4.14856e-11
3.82623e-11
-3.41837e-12
4.49039e-11
-5.48591e-11
5.14407e-11
-1.12708e-10
5.78491e-11
-1.76818e-10
6.41097e-11
-2.47025e-10
7.02066e-11
-3.23152e-10
7.61269e-11
-4.05012e-10
8.18601e-11
-4.92409e-10
8.73974e-11
-5.85141e-10
9.2732e-11
-6.83e-10
9.78584e-11
-7.85772e-10
1.02772e-10
-8.93242e-10
1.0747e-10
-1.00519e-09
1.1195e-10
-1.1214e-09
1.16209e-10
-1.24165e-09
1.20247e-10
-1.36571e-09
1.24064e-10
-1.49337e-09
1.27659e-10
-1.6244e-09
1.31033e-10
-1.75859e-09
1.34186e-10
-1.89571e-09
1.3712e-10
-2.03554e-09
1.39835e-10
-2.17788e-09
1.42334e-10
-2.3225e-09
1.44619e-10
-2.46919e-09
1.4669e-10
-2.61774e-09
1.48552e-10
-2.76794e-09
1.50205e-10
-2.9196e-09
1.51652e-10
-3.07249e-09
1.52897e-10
-3.22643e-09
1.53941e-10
-3.38122e-09
1.54788e-10
-3.53666e-09
1.5544e-10
-3.69256e-09
1.559e-10
-3.84873e-09
1.56171e-10
-4.00499e-09
1.56257e-10
-4.16115e-09
1.56161e-10
-4.31703e-09
1.55885e-10
-4.47247e-09
1.55433e-10
-4.62728e-09
1.54808e-10
-4.78129e-09
1.54013e-10
-4.93434e-09
1.53053e-10
-5.08627e-09
1.51929e-10
-5.23691e-09
1.50645e-10
-5.38612e-09
1.49206e-10
-5.53373e-09
1.47613e-10
-5.6796e-09
1.45871e-10
-5.82359e-09
1.43982e-10
-5.96554e-09
1.41951e-10
-6.10532e-09
1.39781e-10
-6.24279e-09
1.37475e-10
-6.37783e-09
1.35036e-10
-6.5103e-09
1.32468e-10
-6.64007e-09
1.29775e-10
-6.76703e-09
1.26959e-10
-6.89105e-09
1.24025e-10
-7.01203e-09
1.20976e-10
-7.12985e-09
1.17815e-10
-7.24439e-09
1.14545e-10
-7.35556e-09
1.11171e-10
-7.46326e-09
1.07696e-10
-7.56738e-09
1.04123e-10
-7.66784e-09
1.00456e-10
-7.76453e-09
9.66978e-11
-7.85739e-09
9.28526e-11
-7.94631e-09
8.89238e-11
-8.03123e-09
8.49151e-11
-8.11205e-09
8.08299e-11
-8.18873e-09
7.66718e-11
-8.26117e-09
7.24445e-11
-8.32932e-09
6.81515e-11
-8.39312e-09
6.37965e-11
-8.4525e-09
5.93833e-11
-8.50742e-09
5.49155e-11
-8.55781e-09
5.03969e-11
-8.60365e-09
4.58311e-11
-8.64487e-09
4.12219e-11
-8.68144e-09
3.65731e-11
-8.71333e-09
3.18884e-11
-8.7405e-09
2.71719e-11
-8.76293e-09
2.24274e-11
-8.78059e-09
1.76586e-11
-8.79346e-09
1.28696e-11
-8.80152e-09
8.06415e-12
-8.80477e-09
3.24638e-12
-8.80319e-09
-1.57968e-12
-8.79678e-09
-6.40998e-12
-8.78554e-09
-1.12405e-11
-8.76947e-09
-1.60671e-11
-8.74859e-09
-2.08858e-11
-8.72289e-09
-2.56923e-11
-8.69241e-09
-3.04825e-11
-8.65716e-09
-3.52521e-11
-8.61716e-09
-3.99969e-11
-8.57245e-09
-4.47125e-11
-8.52305e-09
-4.93948e-11
-8.46902e-09
-5.40395e-11
-8.41037e-09
-5.86422e-11
-8.34718e-09
-6.31985e-11
-8.27947e-09
-6.77039e-11
-8.20732e-09
-7.21541e-11
-8.13077e-09
-7.65447e-11
-8.0499e-09
-8.08712e-11
-7.96477e-09
-8.51293e-11
-7.87546e-09
-8.93145e-11
-7.78204e-09
-9.34221e-11
-7.68459e-09
-9.74477e-11
-7.5832e-09
-1.01387e-10
-7.47797e-09
-1.05235e-10
-7.36898e-09
-1.08988e-10
-7.25634e-09
-1.12641e-10
-7.14015e-09
-1.1619e-10
-7.02052e-09
-1.1963e-10
-6.89757e-09
-1.22956e-10
-6.7714e-09
-1.26165e-10
-6.64215e-09
-1.29252e-10
-6.50994e-09
-1.32213e-10
-6.37489e-09
-1.35042e-10
-6.23716e-09
-1.37737e-10
-6.09687e-09
-1.40292e-10
-5.95416e-09
-1.42703e-10
-5.8092e-09
-1.44966e-10
-5.66212e-09
-1.47078e-10
-5.51309e-09
-1.49034e-10
-5.36226e-09
-1.5083e-10
-5.2098e-09
-1.52461e-10
-5.05587e-09
-1.53925e-10
-4.90066e-09
-1.55217e-10
-4.74432e-09
-1.56334e-10
-4.58705e-09
-1.57272e-10
-4.42902e-09
-1.58027e-10
-4.27043e-09
-1.58597e-10
-4.11145e-09
-1.58977e-10
-3.95229e-09
-1.59164e-10
-3.79313e-09
-1.59156e-10
-3.63418e-09
-1.5895e-10
-3.47564e-09
-1.58542e-10
-3.31771e-09
-1.57931e-10
-3.1606e-09
-1.57112e-10
-3.00451e-09
-1.56085e-10
-2.84967e-09
-1.54846e-10
-2.69627e-09
-1.53394e-10
-2.54455e-09
-1.51728e-10
-2.3947e-09
-1.49844e-10
-2.24696e-09
-1.47742e-10
-2.10154e-09
-1.45421e-10
-1.95866e-09
-1.42879e-10
-1.81855e-09
-1.40116e-10
-1.68141e-09
-1.37132e-10
-1.54749e-09
-1.33925e-10
-1.41699e-09
-1.30498e-10
-1.29014e-09
-1.26849e-10
-1.16716e-09
-1.2298e-10
-1.04827e-09
-1.18892e-10
-9.33686e-10
-1.14587e-10
-8.23618e-10
-1.10068e-10
-7.18281e-10
-1.05338e-10
-6.17882e-10
-1.00399e-10
-5.22624e-10
-9.52576e-11
-4.32707e-10
-8.99179e-11
-3.4832e-10
-8.43867e-11
-2.69649e-10
-7.86717e-11
-1.96867e-10
-7.2782e-11
-1.30139e-10
-6.67282e-11
-6.96159e-11
-6.05231e-11
-1.54346e-11
-5.41816e-11
3.22869e-11
-4.77218e-11
7.34519e-11
-4.11651e-11
1.07989e-10
-3.45373e-11
1.35859e-10
-2.78695e-11
1.57058e-10
-2.11991e-11
1.71629e-10
-1.4572e-11
1.79674e-10
-8.04455e-12
1.81361e-10
-1.6871e-12
1.76948e-10
4.4124e-12
1.66806e-10
1.01419e-11
1.51449e-10
1.53573e-11
1.31578e-10
1.98705e-11
1.08146e-10
2.34317e-11
8.24408e-11
2.57053e-11
5.61964e-11
2.62443e-11
3.17178e-11
2.44786e-11
1.20132e-11
1.97045e-11
7.64108e-13
1.1249e-11
7.63989e-13
1.16118e-11
-1.30075e-11
4.34019e-11
-4.37047e-11
8.96331e-11
-6.63217e-11
1.43796e-10
-7.86216e-11
1.9987e-10
-8.18397e-11
2.52782e-10
-7.76696e-11
2.98437e-10
-6.76894e-11
3.3362e-10
-5.32374e-11
3.55852e-10
-3.5391e-11
3.63248e-10
-1.49996e-11
3.54401e-10
7.26828e-12
3.28288e-10
3.08854e-11
2.84195e-10
5.54327e-11
2.21654e-10
8.05752e-11
1.40399e-10
1.06043e-10
4.03257e-11
1.31618e-10
-7.85335e-11
1.57121e-10
-2.16037e-10
1.82408e-10
-3.71954e-10
2.07357e-10
-5.45976e-10
2.31871e-10
-7.37733e-10
2.55867e-10
-9.46804e-10
2.79278e-10
-1.17272e-09
3.02047e-10
-1.41499e-09
3.2413e-10
-1.67309e-09
3.45488e-10
-1.94644e-09
3.66089e-10
-2.23449e-09
3.8591e-10
-2.53665e-09
4.04928e-10
-2.85231e-09
4.23129e-10
-3.18086e-09
4.405e-10
-3.52168e-09
4.57031e-10
-3.87415e-09
4.72717e-10
-4.23764e-09
4.87554e-10
-4.61152e-09
5.01538e-10
-4.99516e-09
5.1467e-10
-5.38792e-09
5.26952e-10
-5.78919e-09
5.38386e-10
-6.19833e-09
5.48976e-10
-6.61472e-09
5.58727e-10
-7.03775e-09
5.67646e-10
-7.4668e-09
5.75738e-10
-7.90126e-09
5.83013e-10
-8.34053e-09
5.89477e-10
-8.78402e-09
5.95141e-10
-9.23113e-09
6.00013e-10
-9.68129e-09
6.04103e-10
-1.01339e-08
6.07423e-10
-1.05885e-08
6.09981e-10
-1.10444e-08
6.11791e-10
-1.15011e-08
6.12862e-10
-1.1958e-08
6.13207e-10
-1.24147e-08
6.12837e-10
-1.28706e-08
6.11765e-10
-1.33251e-08
6.10003e-10
-1.37779e-08
6.07563e-10
-1.42283e-08
6.04457e-10
-1.4676e-08
6.00699e-10
-1.51203e-08
5.96301e-10
-1.5561e-08
5.91277e-10
-1.59974e-08
5.85638e-10
-1.64292e-08
5.79399e-10
-1.68559e-08
5.72572e-10
-1.72771e-08
5.65171e-10
-1.76923e-08
5.57208e-10
-1.81013e-08
5.48698e-10
-1.85034e-08
5.39653e-10
-1.88985e-08
5.30087e-10
-1.9286e-08
5.20014e-10
-1.96657e-08
5.09447e-10
-2.00371e-08
4.98399e-10
-2.04e-08
4.86884e-10
-2.07539e-08
4.74916e-10
-2.10986e-08
4.62508e-10
-2.14338e-08
4.49674e-10
-2.1759e-08
4.36428e-10
-2.20741e-08
4.22783e-10
-2.23787e-08
4.08754e-10
-2.26726e-08
3.94354e-10
-2.29555e-08
3.79596e-10
-2.32272e-08
3.64496e-10
-2.34873e-08
3.49067e-10
-2.37357e-08
3.33323e-10
-2.39722e-08
3.17278e-10
-2.41964e-08
3.00947e-10
-2.44083e-08
2.84343e-10
-2.46077e-08
2.67481e-10
-2.47943e-08
2.50376e-10
-2.49679e-08
2.33041e-10
-2.51285e-08
2.15492e-10
-2.52758e-08
1.97744e-10
-2.54098e-08
1.7981e-10
-2.55303e-08
1.61706e-10
-2.56372e-08
1.43447e-10
-2.57303e-08
1.25047e-10
-2.58097e-08
1.06522e-10
-2.58751e-08
8.78877e-11
-2.59266e-08
6.91588e-11
-2.59641e-08
5.03509e-11
-2.59875e-08
3.14795e-11
-2.59969e-08
1.25603e-11
-2.5992e-08
-6.39079e-12
-2.59731e-08
-2.53579e-11
-2.594e-08
-4.43249e-11
-2.58928e-08
-6.32757e-11
-2.58315e-08
-8.21941e-11
-2.57561e-08
-1.01064e-10
-2.56667e-08
-1.19868e-10
-2.55634e-08
-1.38591e-10
-2.54462e-08
-1.57215e-10
-2.53152e-08
-1.75723e-10
-2.51705e-08
-1.94099e-10
-2.50122e-08
-2.12326e-10
-2.48404e-08
-2.30387e-10
-2.46554e-08
-2.48265e-10
-2.44571e-08
-2.65941e-10
-2.42459e-08
-2.834e-10
-2.40218e-08
-3.00623e-10
-2.37851e-08
-3.17594e-10
-2.35359e-08
-3.34294e-10
-2.32745e-08
-3.50707e-10
-2.30011e-08
-3.66814e-10
-2.2716e-08
-3.82598e-10
-2.24193e-08
-3.98042e-10
-2.21114e-08
-4.13128e-10
-2.17926e-08
-4.27838e-10
-2.14631e-08
-4.42156e-10
-2.11232e-08
-4.56063e-10
-2.07733e-08
-4.69541e-10
-2.04137e-08
-4.82575e-10
-2.00447e-08
-4.95145e-10
-1.96667e-08
-5.07236e-10
-1.92801e-08
-5.1883e-10
-1.88852e-08
-5.29911e-10
-1.84825e-08
-5.4046e-10
-1.80723e-08
-5.50463e-10
-1.76551e-08
-5.59901e-10
-1.72313e-08
-5.6876e-10
-1.68014e-08
-5.77022e-10
-1.63658e-08
-5.84673e-10
-1.59249e-08
-5.91696e-10
-1.54793e-08
-5.98077e-10
-1.50294e-08
-6.038e-10
-1.45758e-08
-6.0885e-10
-1.41189e-08
-6.13214e-10
-1.36593e-08
-6.16878e-10
-1.31975e-08
-6.19827e-10
-1.2734e-08
-6.22049e-10
-1.22695e-08
-6.23531e-10
-1.18044e-08
-6.2426e-10
-1.13393e-08
-6.24226e-10
-1.08749e-08
-6.23416e-10
-1.04116e-08
-6.2182e-10
-9.95009e-09
-6.19427e-10
-9.49097e-09
-6.1623e-10
-9.03484e-09
-6.12217e-10
-8.58231e-09
-6.07382e-10
-8.13398e-09
-6.01716e-10
-7.6905e-09
-5.95214e-10
-7.25247e-09
-5.87869e-10
-6.82054e-09
-5.79676e-10
-6.39533e-09
-5.70632e-10
-5.97748e-09
-5.60732e-10
-5.56762e-09
-5.49976e-10
-5.16639e-09
-5.38362e-10
-4.77442e-09
-5.25892e-10
-4.39235e-09
-5.12566e-10
-4.02081e-09
-4.98389e-10
-3.66043e-09
-4.83365e-10
-3.31182e-09
-4.67501e-10
-2.9756e-09
-4.50806e-10
-2.65238e-09
-4.33292e-10
-2.34274e-09
-4.14972e-10
-2.04728e-09
-3.95863e-10
-1.76655e-09
-3.75985e-10
-1.50111e-09
-3.55362e-10
-1.25148e-09
-3.34021e-10
-1.01815e-09
-3.11997e-10
-8.01607e-10
-2.89327e-10
-6.02277e-10
-2.66059e-10
-4.20555e-10
-2.42245e-10
-2.56787e-10
-2.1795e-10
-1.11261e-10
-1.93248e-10
1.58033e-11
-1.6823e-10
1.24266e-10
-1.43001e-10
2.14083e-10
-1.17687e-10
2.85325e-10
-9.2441e-11
3.382e-10
-6.74466e-11
3.73081e-10
-4.29268e-11
3.90549e-10
-1.91547e-11
3.91428e-10
3.53303e-12
3.76851e-10
2.47186e-11
3.48329e-10
4.38793e-11
3.07842e-10
6.03575e-11
2.5795e-10
7.33234e-11
2.01921e-10
8.17336e-11
1.43859e-10
8.43066e-11
8.87768e-11
7.95601e-11
4.25226e-11
6.59585e-11
1.12435e-11
4.25279e-11
1.20074e-11
1.99564e-11
-3.2964e-11
6.61296e-11
-8.98782e-11
1.28961e-10
-1.29153e-10
1.99956e-10
-1.49616e-10
2.71405e-10
-1.53289e-10
3.36619e-10
-1.42884e-10
3.8999e-10
-1.21061e-10
4.26939e-10
-9.0187e-11
4.43802e-10
-5.2254e-11
4.37701e-10
-8.89894e-12
4.06423e-10
3.85464e-11
3.48306e-10
8.90023e-11
2.62147e-10
1.41592e-10
1.47122e-10
1.956e-10
2.7221e-12
2.50443e-10
-1.71301e-10
3.05641e-10
-3.7498e-10
3.608e-10
-6.08164e-10
4.15592e-10
-8.70553e-10
4.69746e-10
-1.16172e-09
5.23036e-10
-1.48113e-09
5.75275e-10
-1.82815e-09
6.26305e-10
-2.2021e-09
6.75997e-10
-2.60222e-09
7.24242e-10
-3.02768e-09
7.70949e-10
-3.47763e-09
8.16043e-10
-3.95118e-09
8.59464e-10
-4.44742e-09
9.01162e-10
-4.96539e-09
9.41096e-10
-5.50412e-09
9.79235e-10
-6.06264e-09
1.01555e-09
-6.63996e-09
1.05004e-09
-7.23508e-09
1.08267e-09
-7.84698e-09
1.11344e-09
-8.47466e-09
1.14236e-09
-9.11712e-09
1.16941e-09
-9.77334e-09
1.19461e-09
-1.04423e-08
1.21795e-09
-1.1123e-08
1.23946e-09
-1.18145e-08
1.25913e-09
-1.25158e-08
1.277e-09
-1.32258e-08
1.29306e-09
-1.39437e-08
1.30733e-09
-1.46684e-08
1.31984e-09
-1.5399e-08
1.33061e-09
-1.61345e-08
1.33965e-09
-1.68741e-08
1.34699e-09
-1.76168e-08
1.35265e-09
-1.83617e-08
1.35666e-09
-1.91078e-08
1.35903e-09
-1.98544e-08
1.3598e-09
-2.06006e-08
1.35898e-09
-2.13454e-08
1.35661e-09
-2.20881e-08
1.35271e-09
-2.28279e-08
1.34731e-09
-2.35638e-08
1.34044e-09
-2.42953e-08
1.33212e-09
-2.50213e-08
1.32238e-09
-2.57413e-08
1.31125e-09
-2.64544e-08
1.29876e-09
-2.716e-08
1.28494e-09
-2.78572e-08
1.26981e-09
-2.85455e-08
1.25341e-09
-2.9224e-08
1.23577e-09
-2.98922e-08
1.2169e-09
-3.05494e-08
1.19685e-09
-3.1195e-08
1.17565e-09
-3.18283e-08
1.15331e-09
-3.24487e-08
1.12988e-09
-3.30557e-08
1.10539e-09
-3.36487e-08
1.07985e-09
-3.42271e-08
1.05331e-09
-3.47904e-08
1.02579e-09
-3.5338e-08
9.97326e-10
-3.58695e-08
9.67944e-10
-3.63844e-08
9.37678e-10
-3.68822e-08
9.06557e-10
-3.73625e-08
8.74612e-10
-3.78248e-08
8.41874e-10
-3.82686e-08
8.08374e-10
-3.86937e-08
7.74143e-10
-3.90996e-08
7.39213e-10
-3.94859e-08
7.03615e-10
-3.98524e-08
6.6738e-10
-4.01986e-08
6.30541e-10
-4.05242e-08
5.93129e-10
-4.0829e-08
5.55176e-10
-4.11127e-08
5.16715e-10
-4.1375e-08
4.77778e-10
-4.16156e-08
4.38398e-10
-4.18344e-08
3.98607e-10
-4.20312e-08
3.58439e-10
-4.22056e-08
3.17927e-10
-4.23577e-08
2.77105e-10
-4.24872e-08
2.36005e-10
-4.2594e-08
1.94663e-10
-4.26779e-08
1.53112e-10
-4.27389e-08
1.11386e-10
-4.2777e-08
6.95215e-11
-4.2792e-08
2.75518e-11
-4.27839e-08
-1.44875e-11
-4.27527e-08
-5.65609e-11
-4.26984e-08
-9.86328e-11
-4.2621e-08
-1.40667e-10
-4.25205e-08
-1.82628e-10
-4.23971e-08
-2.24479e-10
-4.22508e-08
-2.66183e-10
-4.20817e-08
-3.07704e-10
-4.18899e-08
-3.49004e-10
-4.16756e-08
-3.90047e-10
-4.14389e-08
-4.30794e-10
-4.118e-08
-4.71209e-10
-4.08991e-08
-5.11252e-10
-4.05965e-08
-5.50887e-10
-4.02724e-08
-5.90074e-10
-3.9927e-08
-6.28776e-10
-3.95607e-08
-6.66954e-10
-3.91737e-08
-7.04569e-10
-3.87664e-08
-7.41582e-10
-3.83392e-08
-7.77956e-10
-3.78923e-08
-8.13651e-10
-3.74263e-08
-8.48628e-10
-3.69415e-08
-8.82848e-10
-3.64384e-08
-9.16272e-10
-3.59173e-08
-9.48862e-10
-3.53789e-08
-9.80579e-10
-3.48236e-08
-1.01138e-09
-3.42519e-08
-1.04124e-09
-3.36644e-08
-1.0701e-09
-3.30616e-08
-1.09794e-09
-3.24441e-08
-1.12472e-09
-3.18125e-08
-1.15039e-09
-3.11675e-08
-1.17492e-09
-3.05097e-08
-1.19828e-09
-2.98398e-08
-1.22042e-09
-2.91583e-08
-1.24131e-09
-2.84662e-08
-1.26092e-09
-2.7764e-08
-1.2792e-09
-2.70526e-08
-1.29613e-09
-2.63326e-08
-1.31167e-09
-2.56049e-08
-1.32579e-09
-2.48702e-08
-1.33845e-09
-2.41294e-08
-1.34962e-09
-2.33834e-08
-1.35928e-09
-2.26329e-08
-1.36738e-09
-2.18788e-08
-1.3739e-09
-2.1122e-08
-1.37882e-09
-2.03635e-08
-1.3821e-09
-1.9604e-08
-1.38371e-09
-1.88446e-08
-1.38364e-09
-1.80862e-08
-1.38186e-09
-1.73296e-08
-1.37834e-09
-1.6576e-08
-1.37306e-09
-1.58262e-08
-1.36601e-09
-1.50813e-08
-1.35716e-09
-1.43422e-08
-1.3465e-09
-1.36099e-08
-1.334e-09
-1.28854e-08
-1.31967e-09
-1.21698e-08
-1.30348e-09
-1.14641e-08
-1.28542e-09
-1.07692e-08
-1.2655e-09
-1.00863e-08
-1.24369e-09
-9.41623e-09
-1.22001e-09
-8.76015e-09
-1.19444e-09
-8.11904e-09
-1.167e-09
-7.49392e-09
-1.13769e-09
-6.88579e-09
-1.10651e-09
-6.29567e-09
-1.07349e-09
-5.72453e-09
-1.03864e-09
-5.17335e-09
-1.00198e-09
-4.64311e-09
-9.6354e-10
-4.13473e-09
-9.23354e-10
-3.64913e-09
-8.81462e-10
-3.1872e-09
-8.37914e-10
-2.7498e-09
-7.92764e-10
-2.33774e-09
-7.46081e-10
-1.95179e-09
-6.97942e-10
-1.59268e-09
-6.48438e-10
-1.26106e-09
-5.97678e-10
-9.57523e-10
-5.45786e-10
-6.82564e-10
-4.92909e-10
-4.36593e-10
-4.3922e-10
-2.19902e-10
-3.84921e-10
-3.26485e-11
-3.30254e-10
1.25167e-10
-2.75503e-10
2.53733e-10
-2.21007e-10
3.53457e-10
-1.67171e-10
4.25013e-10
-1.14483e-10
4.69389e-10
-6.35315e-11
4.87953e-10
-1.50312e-11
4.82524e-10
3.0147e-11
4.55465e-10
7.0938e-11
4.09785e-10
1.06038e-10
3.49251e-10
1.33857e-10
2.78506e-10
1.52478e-10
2.03158e-10
1.59654e-10
1.29809e-10
1.52909e-10
6.59513e-11
1.29816e-10
1.96938e-11
8.87853e-11
3.17012e-11
2.44056e-11
-5.73698e-11
7.85723e-11
-1.44045e-10
1.49617e-10
-2.00199e-10
2.27208e-10
-2.27207e-10
3.02384e-10
-2.28465e-10
3.674e-10
-2.079e-10
4.15674e-10
-1.69335e-10
4.41711e-10
-1.16225e-10
4.41009e-10
-5.15514e-11
4.09944e-10
2.21659e-11
3.45662e-10
1.02828e-10
2.45969e-10
1.88695e-10
1.09233e-10
2.78327e-10
-6.57009e-11
3.70533e-10
-2.79582e-10
4.64324e-10
-5.32821e-10
5.5888e-10
-8.25536e-10
6.53515e-10
-1.15761e-09
7.47661e-10
-1.5287e-09
8.40837e-10
-1.9383e-09
9.32644e-10
-2.38577e-09
1.02274e-09
-2.87033e-09
1.11086e-09
-3.39107e-09
1.19674e-09
-3.94704e-09
1.28021e-09
-4.53717e-09
1.36108e-09
-5.16034e-09
1.43922e-09
-5.81539e-09
1.51452e-09
-6.50111e-09
1.58687e-09
-7.21623e-09
1.65622e-09
-7.95948e-09
1.72248e-09
-8.72954e-09
1.78562e-09
-9.5251e-09
1.84559e-09
-1.03448e-08
1.90238e-09
-1.11873e-08
1.95596e-09
-1.20513e-08
2.00631e-09
-1.29353e-08
2.05345e-09
-1.38381e-08
2.09737e-09
-1.47582e-08
2.13808e-09
-1.56943e-08
2.17558e-09
-1.66451e-08
2.20991e-09
-1.76092e-08
2.24108e-09
-1.85853e-08
2.26912e-09
-1.9572e-08
2.29405e-09
-2.0568e-08
2.3159e-09
-2.15721e-08
2.3347e-09
-2.2583e-08
2.3505e-09
-2.35993e-08
2.36332e-09
-2.46198e-08
2.3732e-09
-2.56434e-08
2.3802e-09
-2.66687e-08
2.38433e-09
-2.76945e-08
2.38566e-09
-2.87198e-08
2.38422e-09
-2.97432e-08
2.38006e-09
-3.07637e-08
2.37322e-09
-3.17802e-08
2.36375e-09
-3.27914e-08
2.3517e-09
-3.37964e-08
2.33711e-09
-3.47941e-08
2.32004e-09
-3.57833e-08
2.30053e-09
-3.67632e-08
2.27863e-09
-3.77327e-08
2.25439e-09
-3.86907e-08
2.22786e-09
-3.96364e-08
2.1991e-09
-4.05688e-08
2.16815e-09
-4.1487e-08
2.13507e-09
-4.239e-08
2.0999e-09
-4.32771e-08
2.06271e-09
-4.41473e-08
2.02353e-09
-4.49998e-08
1.98243e-09
-4.58339e-08
1.93945e-09
-4.66487e-08
1.89465e-09
-4.74434e-08
1.84808e-09
-4.82174e-08
1.79979e-09
-4.897e-08
1.74984e-09
-4.97003e-08
1.69829e-09
-5.04078e-08
1.64517e-09
-5.10918e-08
1.59056e-09
-5.17517e-08
1.5345e-09
-5.23869e-08
1.47704e-09
-5.29967e-08
1.41825e-09
-5.35808e-08
1.35818e-09
-5.41384e-08
1.29687e-09
-5.46692e-08
1.23439e-09
-5.51726e-08
1.1708e-09
-5.56482e-08
1.10614e-09
-5.60956e-08
1.04047e-09
-5.65142e-08
9.73862e-10
-5.69039e-08
9.06358e-10
-5.72641e-08
8.38018e-10
-5.75946e-08
7.689e-10
-5.78951e-08
6.99062e-10
-5.81652e-08
6.28563e-10
-5.84047e-08
5.57461e-10
-5.86135e-08
4.85815e-10
-5.87911e-08
4.13684e-10
-5.89376e-08
3.41128e-10
-5.90527e-08
2.68207e-10
-5.91363e-08
1.94981e-10
-5.91883e-08
1.21513e-10
-5.92086e-08
4.78626e-11
-5.91972e-08
-2.59078e-11
-5.9154e-08
-9.97359e-11
-5.90791e-08
-1.73559e-10
-5.89724e-08
-2.47314e-10
-5.88341e-08
-3.20938e-10
-5.86642e-08
-3.94366e-10
-5.84629e-08
-4.67534e-10
-5.82302e-08
-5.40377e-10
-5.79664e-08
-6.12831e-10
-5.76716e-08
-6.84829e-10
-5.73461e-08
-7.56307e-10
-5.69901e-08
-8.27197e-10
-5.66039e-08
-8.97433e-10
-5.61879e-08
-9.66948e-10
-5.57423e-08
-1.03568e-09
-5.52675e-08
-1.10355e-09
-5.47639e-08
-1.1705e-09
-5.4232e-08
-1.23646e-09
-5.36723e-08
-1.30136e-09
-5.30851e-08
-1.36514e-09
-5.2471e-08
-1.42772e-09
-5.18306e-08
-1.48904e-09
-5.11644e-08
-1.54904e-09
-5.0473e-08
-1.60763e-09
-4.97572e-08
-1.66475e-09
-4.90174e-08
-1.72035e-09
-4.82544e-08
-1.77434e-09
-4.7469e-08
-1.82666e-09
-4.66619e-08
-1.87725e-09
-4.58338e-08
-1.92603e-09
-4.49856e-08
-1.97295e-09
-4.4118e-08
-2.01793e-09
-4.3232e-08
-2.06091e-09
-4.23285e-08
-2.10182e-09
-4.14083e-08
-2.14061e-09
-4.04724e-08
-2.17721e-09
-3.95218e-08
-2.21155e-09
-3.85574e-08
-2.24358e-09
-3.75803e-08
-2.27324e-09
-3.65915e-08
-2.30045e-09
-3.55921e-08
-2.32518e-09
-3.45832e-08
-2.34735e-09
-3.35659e-08
-2.36692e-09
-3.25414e-08
-2.38383e-09
-3.15107e-08
-2.39803e-09
-3.04751e-08
-2.40946e-09
-2.94359e-08
-2.41808e-09
-2.83941e-08
-2.42384e-09
-2.73512e-08
-2.42669e-09
-2.63082e-08
-2.42659e-09
-2.52666e-08
-2.4235e-09
-2.42276e-08
-2.41737e-09
-2.31925e-08
-2.40818e-09
-2.21626e-08
-2.39589e-09
-2.11393e-08
-2.38046e-09
-2.01239e-08
-2.36186e-09
-1.91178e-08
-2.34008e-09
-1.81224e-08
-2.31509e-09
-1.7139e-08
-2.28687e-09
-1.6169e-08
-2.2554e-09
-1.52139e-08
-2.22068e-09
-1.42749e-08
-2.18269e-09
-1.33534e-08
-2.14144e-09
-1.24509e-08
-2.09692e-09
-1.15688e-08
-2.04914e-09
-1.07084e-08
-1.99813e-09
-9.87099e-09
-1.94389e-09
-9.05802e-09
-1.88646e-09
-8.27079e-09
-1.82587e-09
-7.51061e-09
-1.76216e-09
-6.77876e-09
-1.69539e-09
-6.07649e-09
-1.62562e-09
-5.40502e-09
-1.55293e-09
-4.76552e-09
-1.47741e-09
-4.15913e-09
-1.39916e-09
-3.58691e-09
-1.3183e-09
-3.04987e-09
-1.23498e-09
-2.54893e-09
-1.14937e-09
-2.08495e-09
-1.06167e-09
-1.65865e-09
-9.72085e-10
-1.27066e-09
-8.80897e-10
-9.21468e-10
-7.8841e-10
-6.11403e-10
-6.94986e-10
-3.40609e-10
-6.01049e-10
-1.09014e-10
-5.07099e-10
8.37041e-11
-4.13725e-10
2.38159e-10
-3.21626e-10
3.55312e-10
-2.31635e-10
4.36524e-10
-1.44744e-10
4.83634e-10
-6.21411e-11
4.99032e-10
1.47491e-11
4.85753e-10
8.42164e-11
4.47578e-10
1.44213e-10
3.89134e-10
1.92301e-10
3.15989e-10
2.25623e-10
2.34729e-10
2.40913e-10
1.53015e-10
2.34623e-10
7.96016e-11
2.03229e-10
2.44756e-11
1.43911e-10
5.61767e-11
2.57841e-11
-8.3154e-11
8.19911e-11
-2.00252e-10
1.53647e-10
-2.71855e-10
2.28994e-10
-3.02554e-10
2.98114e-10
-2.97586e-10
3.52525e-10
-2.6231e-10
3.84994e-10
-2.01804e-10
3.89418e-10
-1.20649e-10
3.60717e-10
-2.28515e-11
2.94737e-10
8.81457e-11
1.88143e-10
2.09422e-10
3.83223e-11
3.38516e-10
-1.56707e-10
4.73357e-10
-3.98383e-10
6.12208e-10
-6.87672e-10
7.53613e-10
-1.02514e-09
8.96344e-10
-1.41099e-09
1.03937e-09
-1.84516e-09
1.18183e-09
-2.32729e-09
1.32297e-09
-2.85685e-09
1.4622e-09
-3.43307e-09
1.59897e-09
-4.05506e-09
1.73285e-09
-4.72178e-09
1.86346e-09
-5.43207e-09
1.99049e-09
-6.18466e-09
2.11367e-09
-6.97822e-09
2.23278e-09
-7.81134e-09
2.34763e-09
-8.68253e-09
2.45807e-09
-9.59027e-09
2.56396e-09
-1.0533e-08
2.6652e-09
-1.15091e-08
2.76172e-09
-1.2517e-08
2.85345e-09
-1.35549e-08
2.94034e-09
-1.46213e-08
3.02235e-09
-1.57144e-08
3.09946e-09
-1.68327e-08
3.17166e-09
-1.79742e-08
3.23896e-09
-1.91375e-08
3.30135e-09
-2.03208e-08
3.35886e-09
-2.15224e-08
3.41151e-09
-2.27406e-08
3.45932e-09
-2.39738e-08
3.50233e-09
-2.52204e-08
3.54058e-09
-2.64786e-08
3.57411e-09
-2.77469e-08
3.60297e-09
-2.90236e-08
3.6272e-09
-3.03071e-08
3.64687e-09
-3.15959e-08
3.66203e-09
-3.28885e-08
3.67275e-09
-3.41832e-08
3.67907e-09
-3.54786e-08
3.68107e-09
-3.67732e-08
3.67881e-09
-3.80655e-08
3.67236e-09
-3.93541e-08
3.66178e-09
-4.06375e-08
3.64716e-09
-4.19144e-08
3.62856e-09
-4.31833e-08
3.60605e-09
-4.4443e-08
3.5797e-09
-4.5692e-08
3.5496e-09
-4.69292e-08
3.51582e-09
-4.81533e-08
3.47843e-09
-4.93629e-08
3.43751e-09
-5.0557e-08
3.39314e-09
-5.17342e-08
3.3454e-09
-5.28935e-08
3.29436e-09
-5.40337e-08
3.24011e-09
-5.51537e-08
3.18272e-09
-5.62524e-08
3.12227e-09
-5.73289e-08
3.05885e-09
-5.83819e-08
2.99253e-09
-5.94107e-08
2.9234e-09
-6.04142e-08
2.85154e-09
-6.13914e-08
2.77703e-09
-6.23415e-08
2.69995e-09
-6.32636e-08
2.62039e-09
-6.41569e-08
2.53842e-09
-6.50204e-08
2.45413e-09
-6.58535e-08
2.36761e-09
-6.66554e-08
2.27894e-09
-6.74254e-08
2.1882e-09
-6.81627e-08
2.09548e-09
-6.88667e-08
2.00086e-09
-6.95367e-08
1.90443e-09
-7.01722e-08
1.80627e-09
-7.07725e-08
1.70647e-09
-7.13372e-08
1.60512e-09
-7.18656e-08
1.50231e-09
-7.23574e-08
1.39812e-09
-7.2812e-08
1.29264e-09
-7.32291e-08
1.18596e-09
-7.36082e-08
1.07817e-09
-7.3949e-08
9.69362e-10
-7.42511e-08
8.59623e-10
-7.45144e-08
7.49046e-10
-7.47384e-08
6.37722e-10
-7.4923e-08
5.25745e-10
-7.5068e-08
4.13206e-10
-7.51732e-08
3.002e-10
-7.52385e-08
1.86821e-10
-7.52638e-08
7.31644e-11
-7.52491e-08
-4.06745e-11
-7.51942e-08
-1.546e-10
-7.50993e-08
-2.68514e-10
-7.49642e-08
-3.8232e-10
-7.47893e-08
-4.95919e-10
-7.45744e-08
-6.09212e-10
-7.43199e-08
-7.22101e-10
-7.40257e-08
-8.34485e-10
-7.36923e-08
-9.46263e-10
-7.33198e-08
-1.05734e-09
-7.29085e-08
-1.1676e-09
-7.24588e-08
-1.27695e-09
-7.19709e-08
-1.38529e-09
-7.14453e-08
-1.49252e-09
-7.08825e-08
-1.59852e-09
-7.02828e-08
-1.70321e-09
-6.96469e-08
-1.80646e-09
-6.89751e-08
-1.90818e-09
-6.82682e-08
-2.00827e-09
-6.75268e-08
-2.10662e-09
-6.67514e-08
-2.20312e-09
-6.59428e-08
-2.29767e-09
-6.51016e-08
-2.39016e-09
-6.42288e-08
-2.4805e-09
-6.33249e-08
-2.56857e-09
-6.2391e-08
-2.65427e-09
-6.14279e-08
-2.7375e-09
-6.04364e-08
-2.81815e-09
-5.94175e-08
-2.89612e-09
-5.83722e-08
-2.97131e-09
-5.73016e-08
-3.04362e-09
-5.62065e-08
-3.11294e-09
-5.50883e-08
-3.17918e-09
-5.39479e-08
-3.24223e-09
-5.27865e-08
-3.30201e-09
-5.16053e-08
-3.3584e-09
-5.04055e-08
-3.41132e-09
-4.91884e-08
-3.46068e-09
-4.79553e-08
-3.50637e-09
-4.67074e-08
-3.54831e-09
-4.54462e-08
-3.58641e-09
-4.4173e-08
-3.62059e-09
-4.28891e-08
-3.65075e-09
-4.15961e-08
-3.67682e-09
-4.02955e-08
-3.69871e-09
-3.89886e-08
-3.71635e-09
-3.7677e-08
-3.72966e-09
-3.63623e-08
-3.73857e-09
-3.50459e-08
-3.74301e-09
-3.37296e-08
-3.74292e-09
-3.24149e-08
-3.73823e-09
-3.11034e-08
-3.72888e-09
-2.97967e-08
-3.71482e-09
-2.84966e-08
-3.696e-09
-2.72047e-08
-3.67237e-09
-2.59227e-08
-3.64388e-09
-2.46523e-08
-3.61051e-09
-2.33951e-08
-3.57222e-09
-2.2153e-08
-3.52897e-09
-2.09277e-08
-3.48076e-09
-1.97208e-08
-3.42757e-09
-1.85341e-08
-3.36938e-09
-1.73693e-08
-3.3062e-09
-1.62282e-08
-3.23804e-09
-1.51124e-08
-3.16492e-09
-1.40237e-08
-3.08685e-09
-1.29637e-08
-3.00387e-09
-1.19341e-08
-2.91604e-09
-1.09366e-08
-2.8234e-09
-9.97273e-09
-2.72604e-09
-9.04408e-09
-2.62404e-09
-8.15219e-09
-2.51751e-09
-7.29856e-09
-2.40657e-09
-6.4846e-09
-2.29136e-09
-5.7117e-09
-2.17206e-09
-4.98113e-09
-2.04886e-09
-4.29412e-09
-1.922e-09
-3.65175e-09
-1.79174e-09
-3.05504e-09
-1.65838e-09
-2.50484e-09
-1.52229e-09
-2.00186e-09
-1.38388e-09
-1.54664e-09
-1.24362e-09
-1.13954e-09
-1.10209e-09
-7.8065e-10
-9.59935e-10
-4.69834e-10
-8.17914e-10
-2.06635e-10
-6.76924e-10
9.75606e-12
-5.38017e-10
1.80552e-10
-4.02431e-10
3.07433e-10
-2.71626e-10
3.92622e-10
-1.4733e-10
4.38957e-10
-3.1586e-11
4.49981e-10
7.31924e-11
4.3003e-10
1.64163e-10
3.84326e-10
2.38005e-10
3.19064e-10
2.90886e-10
2.41498e-10
3.18479e-10
1.60052e-10
3.16069e-10
8.44824e-11
2.78798e-10
2.62734e-11
2.0212e-10
8.24501e-11
2.48633e-11
-1.08017e-10
7.80994e-11
-2.53489e-10
1.43776e-10
-3.37532e-10
2.09258e-10
-3.68037e-10
2.6398e-10
-3.52308e-10
2.9896e-10
-2.97291e-10
3.06544e-10
-2.09388e-10
2.80233e-10
-9.43376e-11
2.14568e-10
4.28127e-11
1.05032e-10
1.97682e-10
-5.20513e-11
3.66505e-10
-2.59601e-10
5.46065e-10
-5.19868e-10
7.33624e-10
-8.34515e-10
9.26855e-10
-1.20469e-09
1.12379e-09
-1.63108e-09
1.32274e-09
-2.114e-09
1.52229e-09
-2.6534e-09
1.72123e-09
-3.24896e-09
1.91853e-09
-3.90008e-09
2.11331e-09
-4.60594e-09
2.30484e-09
-5.36556e-09
2.49246e-09
-6.17775e-09
2.67565e-09
-7.0412e-09
2.85395e-09
-7.95448e-09
3.02696e-09
-8.91606e-09
3.19436e-09
-9.9243e-09
3.35587e-09
-1.09775e-08
3.51126e-09
-1.20739e-08
3.66034e-09
-1.32116e-08
3.80294e-09
-1.43888e-08
3.93896e-09
-1.56037e-08
4.06827e-09
-1.68541e-08
4.19081e-09
-1.81383e-08
4.30651e-09
-1.94542e-08
4.41534e-09
-2.07998e-08
4.51728e-09
-2.21732e-08
4.61232e-09
-2.35723e-08
4.70045e-09
-2.49951e-08
4.78171e-09
-2.64397e-08
4.8561e-09
-2.7904e-08
4.92368e-09
-2.93862e-08
4.98447e-09
-3.08842e-08
5.03854e-09
-3.2396e-08
5.08594e-09
-3.39198e-08
5.12673e-09
-3.54535e-08
5.16098e-09
-3.69954e-08
5.18877e-09
-3.85436e-08
5.21017e-09
-4.00961e-08
5.22527e-09
-4.16512e-08
5.23414e-09
-4.3207e-08
5.23688e-09
-4.47618e-08
5.23359e-09
-4.63137e-08
5.22434e-09
-4.78612e-08
5.20925e-09
-4.94024e-08
5.1884e-09
-5.09358e-08
5.1619e-09
-5.24596e-08
5.12985e-09
-5.39722e-08
5.09236e-09
-5.54722e-08
5.04953e-09
-5.69578e-08
5.00146e-09
-5.84276e-08
4.94826e-09
-5.98802e-08
4.89005e-09
-6.1314e-08
4.82693e-09
-6.27276e-08
4.75901e-09
-6.41196e-08
4.6864e-09
-6.54887e-08
4.60922e-09
-6.68336e-08
4.52757e-09
-6.81529e-08
4.44158e-09
-6.94454e-08
4.35135e-09
-7.07099e-08
4.25701e-09
-7.19451e-08
4.15865e-09
-7.315e-08
4.05641e-09
-7.43234e-08
3.9504e-09
-7.54641e-08
3.84073e-09
-7.65713e-08
3.72753e-09
-7.76438e-08
3.6109e-09
-7.86806e-08
3.49098e-09
-7.96809e-08
3.36787e-09
-8.06436e-08
3.24169e-09
-8.1568e-08
3.11258e-09
-8.24532e-08
2.98064e-09
-8.32983e-08
2.846e-09
-8.41027e-08
2.70879e-09
-8.48655e-08
2.56912e-09
-8.55862e-08
2.42711e-09
-8.62639e-08
2.2829e-09
-8.68982e-08
2.1366e-09
-8.74885e-08
1.98834e-09
-8.80341e-08
1.83825e-09
-8.85346e-08
1.68646e-09
-8.89895e-08
1.53308e-09
-8.93984e-08
1.37826e-09
-8.97609e-08
1.22211e-09
-9.00766e-08
1.06478e-09
-9.03453e-08
9.06384e-10
-9.05666e-08
7.47061e-10
-9.07403e-08
5.86943e-10
-9.08663e-08
4.26163e-10
-9.09443e-08
2.64856e-10
-9.09743e-08
1.03158e-10
-9.09562e-08
-5.87959e-11
-9.08899e-08
-2.20868e-10
-9.07755e-08
-3.8292e-10
-9.0613e-08
-5.44814e-10
-9.04025e-08
-7.06409e-10
-9.01442e-08
-8.67564e-10
-8.98381e-08
-1.02814e-09
-8.94846e-08
-1.18799e-09
-8.90839e-08
-1.34697e-09
-8.86363e-08
-1.50495e-09
-8.81421e-08
-1.66177e-09
-8.76018e-08
-1.81729e-09
-8.70157e-08
-1.97136e-09
-8.63844e-08
-2.12384e-09
-8.57084e-08
-2.27458e-09
-8.49881e-08
-2.42343e-09
-8.42243e-08
-2.57025e-09
-8.34176e-08
-2.71489e-09
-8.25687e-08
-2.85719e-09
-8.16783e-08
-2.99701e-09
-8.07472e-08
-3.1342e-09
-7.97763e-08
-3.26862e-09
-7.87663e-08
-3.4001e-09
-7.77183e-08
-3.52851e-09
-7.66332e-08
-3.6537e-09
-7.5512e-08
-3.77551e-09
-7.43557e-08
-3.89381e-09
-7.31654e-08
-4.00843e-09
-7.19422e-08
-4.11925e-09
-7.06874e-08
-4.22611e-09
-6.94022e-08
-4.32887e-09
-6.80877e-08
-4.42738e-09
-6.67454e-08
-4.52151e-09
-6.53765e-08
-4.61112e-09
-6.39825e-08
-4.69605e-09
-6.25647e-08
-4.77619e-09
-6.11246e-08
-4.85139e-09
-5.96638e-08
-4.92153e-09
-5.81837e-08
-4.98646e-09
-5.66859e-08
-5.04607e-09
-5.51721e-08
-5.10022e-09
-5.36439e-08
-5.1488e-09
-5.2103e-08
-5.19169e-09
-5.0551e-08
-5.22876e-09
-4.89898e-08
-5.25991e-09
-4.74211e-08
-5.28503e-09
-4.58468e-08
-5.30402e-09
-4.42686e-08
-5.31676e-09
-4.26884e-08
-5.32317e-09
-4.11082e-08
-5.32315e-09
-3.95298e-08
-5.31663e-09
-3.79552e-08
-5.3035e-09
-3.63863e-08
-5.28371e-09
-3.48251e-08
-5.25717e-09
-3.32737e-08
-5.22383e-09
-3.17339e-08
-5.18363e-09
-3.02079e-08
-5.13652e-09
-2.86977e-08
-5.08245e-09
-2.72053e-08
-5.02139e-09
-2.57327e-08
-4.95333e-09
-2.4282e-08
-4.87823e-09
-2.28553e-08
-4.79609e-09
-2.14546e-08
-4.70692e-09
-2.00819e-08
-4.61074e-09
-1.87393e-08
-4.50756e-09
-1.74287e-08
-4.39744e-09
-1.61521e-08
-4.28043e-09
-1.49115e-08
-4.15661e-09
-1.37089e-08