/*--------------------------------*- C++ -*----------------------------------*\
  =========                 |
  \\      /  F ield         | OpenFOAM: The Open Source CFD Toolbox
   \\    /   O peration     | Website:  https://openfoam.org
    \\  /    A nd           | Version:  7
     \\/     M anipulation  |
\*---------------------------------------------------------------------------*/
FoamFile
{
    version     2.0;
    format      ascii;
    class       volVectorField;
    location    "1";
    object      U;
}
// * * * * * * * * * * * * * * * * * * * * * * * * * * * * * * * * * * * * * //

dimensions      [0 1 -1 0 0 0 0];

internalField   nonuniform List<vector> 
2413
(
(2 -1.70746e-15 0)
(2 -1.72422e-15 0)
(2 -1.85977e-15 0)
(2 -2.11428e-15 0)
(2 -2.30426e-15 0)
(2 -2.44044e-15 0)
(2 -2.75173e-15 0)
(2 -3.27332e-15 0)
(2 -3.36493e-15 0)
(2 -3.59195e-15 0)
(2 -3.75334e-15 0)
(2 -3.56952e-15 0)
(2 -3.49521e-15 0)
(2 -3.27333e-15 0)
(2 -3.06768e-15 0)
(2 -3.04822e-15 0)
(2 -3.13662e-15 0)
(2 -3.32886e-15 0)
(2 -3.55336e-15 0)
(2 -3.72834e-15 0)
(2 -3.6031e-15 0)
(2 -3.50347e-15 0)
(2 -3.40453e-15 0)
(2 -3.24483e-15 0)
(2 -3.2085e-15 0)
(2 -3.11717e-15 0)
(2 -3.13112e-15 0)
(2 -3.1309e-15 0)
(2 -2.98289e-15 0)
(2 -2.90166e-15 0)
(2 -2.36123e-15 0)
(2 -2.15545e-15 0)
(2 -2.20338e-15 0)
(2 -2.32e-15 0)
(2 2.95507e-15 0)
(2 2.86937e-15 0)
(2 2.7114e-15 0)
(2 2.04295e-15 0)
(2 1.5206e-15 0)
(2 1.34023e-15 0)
(2 4.58754e-16 0)
(2 9.62039e-17 0)
(2 6.89461e-17 0)
(2 -9.24382e-18 0)
(2 5.12943e-18 0)
(2 -3.94829e-17 0)
(2 -9.45337e-17 0)
(2 -2.75509e-17 0)
(2 9.01743e-21 0)
(2 -6.73509e-18 0)
(2 9.27405e-17 0)
(2 2.68591e-16 0)
(2 3.88478e-16 0)
(2 4.00319e-16 0)
(2 3.40391e-16 0)
(2 2.37121e-16 0)
(2 1.94673e-16 0)
(2 9.731e-16 0)
(2 1.31614e-15 0)
(2 1.35736e-15 0)
(2 1.43305e-15 0)
(2 1.40551e-15 0)
(2 1.62372e-15 0)
(2 1.56366e-15 0)
(2 1.59453e-15 0)
(2 1.84194e-15 0)
(2 2.02069e-15 0)
(2 2.01377e-15 0)
(2 2.29727e-15 0)
(2 2.32997e-15 0)
(2 2.39522e-15 0)
(2 2.09452e-15 0)
(2 1.61021e-15 0)
(2 1.33011e-15 0)
(2 9.70808e-16 0)
(2 7.83755e-16 0)
(2 7.97294e-16 0)
(2 6.47779e-16 0)
(2 5.24116e-16 0)
(2 5.51583e-16 0)
(2 7.89021e-16 0)
(2 9.76024e-16 0)
(2 1.2543e-15 0)
(2 1.95983e-15 0)
(2 2.34767e-15 0)
(2 2.25621e-15 0)
(2 2.32302e-15 0)
(2 2.59301e-15 0)
(2 2.74417e-15 0)
(2 2.75429e-15 0)
(2 2.58958e-15 0)
(2 2.244e-15 0)
(2 1.74571e-15 0)
(2 1.56035e-15 0)
(2 1.45877e-15 0)
(2 1.31995e-15 0)
(2 1.20352e-15 0)
(2 9.3644e-16 0)
(2 5.79393e-16 0)
(2 4.94917e-16 0)
(2 1.0482e-16 0)
(2 -7.0104e-16 0)
(2 -1.03985e-15 0)
(2 -1.17717e-15 0)
(2 -1.07736e-15 0)
(2 -9.81048e-16 0)
(2 -7.78037e-16 0)
(2 -5.4469e-16 0)
(2 -4.48069e-16 0)
(2 -4.12352e-16 0)
(2 -3.65634e-16 0)
(2 -3.26409e-16 0)
(2 -4.63947e-16 0)
(2 -7.31995e-16 0)
(2 -7.61171e-16 0)
(2 -8.09334e-16 0)
(2 -1.0272e-15 0)
(2 -9.28857e-16 0)
(2 -7.50724e-16 0)
(2 -8.19667e-16 0)
(2 -9.2145e-16 0)
(2 -9.10594e-16 0)
(2 -8.69437e-16 0)
(2 -1.14053e-15 0)
(2 -1.33531e-15 0)
(2 -1.51242e-15 0)
(2 -1.72575e-15 0)
(2 -1.76658e-15 0)
(2 -1.67183e-15 0)
(2 -1.45668e-15 0)
(2 -1.53432e-15 0)
(2 -2.09162e-15 0)
(2 -2.34279e-15 0)
(2 -2.45903e-15 0)
(2 -2.55673e-15 0)
(2 -2.35468e-15 0)
(2 -2.46613e-15 0)
(2 -2.7165e-15 0)
(2 -2.7376e-15 0)
(2 -2.18741e-15 0)
(2 -1.86772e-15 0)
(2 -1.75737e-15 0)
(2 -1.70097e-15 0)
(2 -1.80413e-15 0)
(2 -1.96952e-15 0)
(2 -2.13046e-15 0)
(2 -2.20962e-15 0)
(2 -2.17421e-15 0)
(2 -2.04663e-15 0)
(2 -2.04448e-15 0)
(2 -2.09036e-15 0)
(2 -2.05663e-15 0)
(2 -2.05155e-15 0)
(2 -2.43667e-15 0)
(2 1.42833e-15 0)
(2 1.65806e-15 0)
(2 2.10247e-15 0)
(2 2.47312e-15 0)
(2 2.3694e-15 0)
(2 1.42057e-15 0)
(2 1.13725e-15 0)
(2 9.34698e-16 0)
(2 8.25718e-16 0)
(2 5.7043e-16 0)
(2 4.88487e-16 0)
(2 6.6948e-16 0)
(2 6.77562e-16 0)
(2 1.6834e-16 0)
(2 4.05937e-17 0)
(2 -2.68651e-16 0)
(2 -5.46425e-16 0)
(2 -5.27986e-16 0)
(2 -1.05994e-16 0)
(2 -8.59236e-17 0)
(2 -1.33917e-16 0)
(2 -1.30354e-16 0)
(2 1.3574e-16 0)
(2 4.8237e-16 0)
(2 8.17489e-16 0)
(2 1.1363e-15 0)
(2 1.30354e-15 0)
(2 1.37177e-15 0)
(2 1.35225e-15 0)
(2 1.14031e-15 0)
(2 1.19996e-15 0)
(2 1.15467e-15 0)
(2 1.12155e-15 0)
(2 8.98904e-16 0)
(2 5.17204e-16 0)
(2 3.86017e-16 0)
(2 3.24566e-16 0)
(2 4.02082e-16 0)
(2 6.86569e-16 0)
(2 8.81449e-16 0)
(2 1.11069e-15 0)
(2 1.13847e-15 0)
(2 1.0962e-15 0)
(2 9.15801e-16 0)
(2 8.47172e-16 0)
(2 7.06389e-16 0)
(2 6.4948e-16 0)
(2 5.56085e-16 0)
(2 8.13856e-16 0)
(2 1.05499e-15 0)
(2 1.19559e-15 0)
(2 1.17184e-15 0)
(2 9.98286e-16 0)
(2 9.52004e-16 0)
(2 1.22506e-15 0)
(2 1.35874e-15 0)
(2 1.55821e-15 0)
(2 1.66495e-15 0)
(2 1.67698e-15 0)
(2 1.68243e-15 0)
(2 1.71689e-15 0)
(2 1.69415e-15 0)
(2 1.63701e-15 0)
(2 1.49807e-15 0)
(2 1.10652e-15 0)
(2 8.2583e-16 0)
(2 4.10435e-16 0)
(2 -1.03114e-16 0)
(2 -3.02607e-16 0)
(2 -5.65122e-16 0)
(2 -7.61176e-16 0)
(2 -7.66938e-16 0)
(2 -7.31871e-16 0)
(2 -5.30938e-16 0)
(2 -3.40118e-16 0)
(2 -3.41689e-17 0)
(2 2.14759e-16 0)
(2 2.33042e-16 0)
(2 3.19366e-16 0)
(2 5.48087e-16 0)
(2 7.54369e-16 0)
(2 7.69938e-16 0)
(2 7.52372e-16 0)
(2 7.02456e-16 0)
(2 6.57824e-16 0)
(2 7.04422e-16 0)
(2 7.36882e-16 0)
(2 7.49091e-16 0)
(2 1.07899e-15 0)
(2 1.37433e-15 0)
(2 1.69393e-15 0)
(2 1.70958e-15 0)
(2 1.66319e-15 0)
(2 1.65975e-15 0)
(2 1.56009e-15 0)
(2 1.30045e-15 0)
(2 8.61976e-16 0)
(2 5.12173e-16 0)
(2 -5.33064e-17 0)
(2 -6.11911e-16 0)
(2 -7.57775e-16 0)
(2 -6.23766e-16 0)
(2 -4.15846e-16 0)
(2 -1.25479e-16 0)
(2 1.02873e-16 0)
(2 -4.98635e-17 0)
(2 -7.37147e-16 0)
(2 -1.05006e-15 0)
(2 -1.20158e-15 0)
(2 -1.27494e-15 0)
(2 -1.28009e-15 0)
(2 -1.12373e-15 0)
(2 -8.41759e-16 0)
(2 -7.25116e-16 0)
(2 -8.40409e-16 0)
(2 -1.27837e-15 0)
(2 -1.62029e-15 0)
(2 -2.00174e-15 0)
(2 -2.30931e-15 0)
(2 -2.06484e-15 0)
(2 -2.60101e-16 0)
(2 -2.76005e-16 0)
(2 -2.34715e-16 0)
(2 4.12264e-17 0)
(2 3.97524e-16 0)
(2 4.38038e-16 0)
(2 4.05859e-16 0)
(2 1.07683e-16 0)
(2 -3.61002e-17 0)
(2 -1.37478e-16 0)
(2 -2.09018e-16 0)
(2 -2.51059e-16 0)
(2 -2.21666e-16 0)
(2 -4.70167e-16 0)
(2 -7.99055e-16 0)
(2 -1.03952e-15 0)
(2 -1.18494e-15 0)
(2 -1.29759e-15 0)
(2 -9.48436e-16 0)
(2 -2.15851e-16 0)
(2 -3.17037e-17 0)
(2 -2.05954e-17 0)
(2 9.25038e-16 0)
(2 1.22169e-15 0)
(2 1.65812e-15 0)
(2 2.58659e-15 0)
(2 3.26103e-15 0)
(2 3.4691e-15 0)
(2 3.08142e-15 0)
(2 2.35562e-15 0)
(2 1.92272e-15 0)
(2 1.30651e-15 0)
(2 1.15984e-15 0)
(2 3.30293e-16 0)
(2 5.7379e-17 0)
(2 -1.40942e-16 0)
(2 -2.79478e-16 0)
(2 -2.59976e-16 0)
(2 -8.07305e-17 0)
(2 -5.51936e-16 0)
(2 -4.28744e-16 0)
(2 6.12795e-16 0)
(2 1.21823e-15 0)
(2 1.19301e-15 0)
(2 1.21478e-15 0)
(2 1.26883e-15 0)
(2 1.27439e-15 0)
(2 1.26614e-15 0)
(2 1.21607e-15 0)
(2 8.59106e-16 0)
(2 5.04971e-16 0)
(2 4.09561e-16 0)
(2 4.34706e-16 0)
(2 5.34714e-16 0)
(2 6.64509e-16 0)
(2 1.05437e-15 0)
(2 1.65661e-15 0)
(2 2.59926e-15 0)
(2 2.72507e-15 0)
(2 3.2417e-15 0)
(2 3.58718e-15 0)
(2 3.68177e-15 0)
(2 3.72432e-15 0)
(2 3.70081e-15 0)
(2 3.38659e-15 0)
(2 3.25075e-15 0)
(2 3.08076e-15 0)
(2 2.56413e-15 0)
(2 2.0907e-15 0)
(2 1.5621e-15 0)
(2 1.25483e-15 0)
(2 1.20606e-15 0)
(2 1.24608e-15 0)
(2 1.46275e-15 0)
(2 1.69412e-15 0)
(2 1.90281e-15 0)
(2 2.16954e-15 0)
(2 2.34277e-15 0)
(2 2.53261e-15 0)
(2 2.74637e-15 0)
(2 2.87666e-15 0)
(2 3.05152e-15 0)
(2 3.16012e-15 0)
(2 2.99953e-15 0)
(2 2.6529e-15 0)
(2 2.86403e-15 0)
(2 2.94669e-15 0)
(2 3.05458e-15 0)
(2 3.23726e-15 0)
(2 3.39072e-15 0)
(2 3.42608e-15 0)
(2 3.4098e-15 0)
(2 3.31346e-15 0)
(2 3.1939e-15 0)
(2 3.11851e-15 0)
(2 3.01786e-15 0)
(2 2.6546e-15 0)
(2 2.27576e-15 0)
(2 1.85087e-15 0)
(2 1.75254e-15 0)
(2 1.6651e-15 0)
(2 1.56826e-15 0)
(2 1.60099e-15 0)
(2 1.51008e-15 0)
(2 1.19068e-15 0)
(2 9.57006e-16 0)
(2 5.31811e-16 0)
(2 3.77787e-16 0)
(2 5.94471e-16 0)
(2 9.44796e-16 0)
(2 1.20082e-15 0)
(2 1.38829e-15 0)
(2 1.48334e-15 0)
(2 1.50297e-15 0)
(2 5.22335e-16 0)
(2 -3.25575e-16 0)
(2 -4.77108e-16 0)
(2 -7.76985e-16 0)
(2 -1.34364e-15 0)
(2 -1.33135e-15 0)
(2 -1.49414e-15 0)
(2 -1.27676e-15 0)
(2 -1.15751e-15 0)
(2 -1.06456e-15 0)
(2 -8.11543e-16 0)
(2 -8.2791e-16 0)
(2 -3.88239e-16 0)
(2 -2.79554e-16 0)
(2 -2.86142e-16 0)
(2 -4.03589e-16 0)
(2 -9.93769e-16 0)
(2 -1.3442e-15 0)
(2 -1.61407e-15 0)
(2 -1.53814e-15 0)
(2 -1.57529e-15 0)
(2 -1.59375e-15 0)
(2 -1.64603e-15 0)
(2 -1.48026e-15 0)
(2 -7.78318e-16 0)
(2 -2.4621e-16 0)
(2 8.44248e-17 0)
(2 8.66311e-16 0)
(2 1.76552e-15 0)
(2 1.98204e-15 0)
(2 2.20711e-15 0)
(2 1.91178e-15 0)
(2 1.64383e-15 0)
(2 1.42549e-15 0)
(2 1.27116e-15 0)
(2 1.30618e-15 0)
(2 1.44063e-15 0)
(2 8.48723e-16 0)
(2 1.46294e-17 0)
(2 -3.41812e-16 0)
(2 -3.14957e-16 0)
(2 -2.09302e-16 0)
(2 -1.14476e-16 0)
(2 -1.5087e-16 0)
(2 1.3828e-16 0)
(2 9.63293e-16 0)
(2 1.13287e-15 0)
(2 1.30261e-15 0)
(2 1.3936e-15 0)
(2 1.2556e-15 0)
(2 1.13088e-15 0)
(2 9.92212e-16 0)
(2 8.52145e-16 0)
(2 8.01902e-16 0)
(2 6.72325e-16 0)
(2 4.6759e-16 0)
(2 3.74781e-16 0)
(2 4.26595e-16 0)
(2 7.27895e-16 0)
(2 8.19635e-16 0)
(2 1.07161e-15 0)
(2 1.20375e-15 0)
(2 1.25637e-15 0)
(2 1.36367e-15 0)
(2 1.52171e-15 0)
(2 1.81697e-15 0)
(2 2.00289e-15 0)
(2 2.44644e-15 0)
(2 2.79401e-15 0)
(2 2.90242e-15 0)
(2 2.78521e-15 0)
(2 2.63928e-15 0)
(2 2.40786e-15 0)
(2 2.34835e-15 0)
(2 2.31861e-15 0)
(2 2.10219e-15 0)
(2 1.74612e-15 0)
(2 1.50847e-15 0)
(2 1.52316e-15 0)
(2 1.59079e-15 0)
(2 1.56726e-15 0)
(2 1.47154e-15 0)
(2 1.3813e-15 0)
(2 1.28367e-15 0)
(2 9.44452e-16 0)
(2 7.71352e-16 0)
(2 4.58735e-16 0)
(2 2.61225e-16 0)
(2 1.9015e-16 0)
(2 2.17688e-16 0)
(2 5.44938e-16 0)
(2 1.20696e-15 0)
(2 1.69801e-15 0)
(2 1.84645e-15 0)
(2 1.76328e-15 0)
(2 1.51579e-15 0)
(2 1.25291e-15 0)
(2 1.31932e-15 0)
(2 1.41803e-15 0)
(2 1.52783e-15 0)
(2 1.53531e-15 0)
(2 1.56707e-15 0)
(2 1.52775e-15 0)
(2 1.54584e-15 0)
(2 1.88555e-15 0)
(2 2.06392e-15 0)
(2 2.09317e-15 0)
(2 2.03286e-15 0)
(2 1.90485e-15 0)
(2 1.60401e-15 0)
(2 1.32449e-15 0)
(2 1.64112e-15 0)
(2 2.24448e-15 0)
(2 2.47128e-15 0)
(2 2.58271e-15 0)
(2 2.74343e-15 0)
(2 2.75959e-15 0)
(2 1.98994e-15 0)
(2 1.67605e-15 0)
(2 1.75326e-15 0)
(2 1.88867e-15 0)
(2 1.96261e-15 0)
(2 1.88684e-15 0)
(2 1.68839e-15 0)
(2 1.10405e-15 0)
(2 1.00504e-15 0)
(2 -1.61661e-15 0)
(2 -1.98972e-15 0)
(2 -1.96361e-15 0)
(2 -9.33004e-16 0)
(2 -4.71e-16 0)
(2 -3.33826e-17 0)
(2 5.49803e-16 0)
(2 9.50161e-16 0)
(2 8.5771e-16 0)
(2 7.16498e-16 0)
(2 5.44686e-16 0)
(2 3.81898e-16 0)
(2 2.30056e-16 0)
(2 1.75065e-16 0)
(2 4.59781e-16 0)
(2 7.38843e-16 0)
(2 5.01738e-16 0)
(2 -2.19582e-16 0)
(2 -4.17503e-16 0)
(2 -5.05328e-16 0)
(2 -2.67378e-16 0)
(2 -6.3558e-17 0)
(2 -4.29262e-17 0)
(2 -8.2115e-17 0)
(2 -8.5884e-17 0)
(2 -1.64927e-16 0)
(2 -2.76171e-16 0)
(2 -4.31454e-16 0)
(2 -6.08447e-16 0)
(2 -1.13475e-15 0)
(2 -1.15638e-15 0)
(2 -4.6221e-16 0)
(2 3.81254e-17 0)
(2 6.87248e-17 0)
(2 1.69864e-17 0)
(2 -7.63194e-17 0)
(2 8.36119e-17 0)
(2 6.15121e-16 0)
(2 6.84492e-16 0)
(2 7.04487e-16 0)
(2 6.82333e-16 0)
(2 6.04275e-16 0)
(2 3.3697e-16 0)
(2 1.92456e-16 0)
(2 1.00996e-16 0)
(2 -7.61502e-17 0)
(2 -1.13398e-16 0)
(2 -9.98618e-17 0)
(2 2.7312e-17 0)
(2 1.94728e-16 0)
(2 3.41218e-16 0)
(2 3.79729e-16 0)
(2 3.57408e-16 0)
(2 3.87269e-16 0)
(2 3.6562e-16 0)
(2 1.64981e-16 0)
(2 -1.51923e-16 0)
(2 -2.08085e-16 0)
(2 -6.18426e-17 0)
(2 2.20568e-16 0)
(2 4.05103e-16 0)
(2 4.69073e-16 0)
(2 4.74034e-16 0)
(2 8.33153e-16 0)
(2 1.07274e-15 0)
(2 1.13312e-15 0)
(2 1.2062e-15 0)
(2 1.46737e-15 0)
(2 1.50147e-15 0)
(2 1.45685e-15 0)
(2 1.35911e-15 0)
(2 1.21043e-15 0)
(2 6.43747e-16 0)
(2 1.36952e-17 0)
(2 -3.71541e-16 0)
(2 -5.50411e-16 0)
(2 -6.66707e-16 0)
(2 -9.71032e-16 0)
(2 -1.22035e-15 0)
(2 -1.74402e-15 0)
(2 -1.74303e-15 0)
(2 -1.55847e-15 0)
(2 -1.23371e-15 0)
(2 -8.92049e-16 0)
(2 -7.59682e-16 0)
(2 -6.93998e-16 0)
(2 -5.36493e-16 0)
(2 -1.30598e-16 0)
(2 -4.10682e-17 0)
(2 3.56686e-17 0)
(2 -5.84387e-17 0)
(2 -5.00222e-18 0)
(2 2.11949e-16 0)
(2 3.62329e-16 0)
(2 1.44851e-16 0)
(2 4.39285e-17 0)
(2 1.76938e-16 0)
(2 3.90005e-16 0)
(2 7.55723e-16 0)
(2 8.67464e-16 0)
(2 1.14104e-15 0)
(2 1.18513e-15 0)
(2 1.46216e-15 0)
(2 1.59618e-15 0)
(2 1.75228e-15 0)
(2 1.86919e-15 0)
(2 1.93828e-15 0)
(2 2.06417e-15 0)
(2 2.06678e-15 0)
(2 1.95067e-15 0)
(2 1.91297e-15 0)
(2 1.76799e-15 0)
(2 1.70958e-15 0)
(2 1.90176e-15 0)
(2 2.47055e-15 0)
(2 2.57747e-15 0)
(2 3.22293e-15 0)
(2 3.31783e-15 0)
(2 2.71816e-15 0)
(2 1.94654e-15 0)
(2 -2.39448e-15 0)
(2 -2.4322e-15 0)
(2 -2.32205e-15 0)
(2 -1.26293e-15 0)
(2 -8.67807e-16 0)
(2 -5.68969e-16 0)
(2 -1.13588e-16 0)
(2 7.64233e-17 0)
(2 2.21472e-16 0)
(2 4.07228e-16 0)
(2 1.29265e-15 0)
(2 1.72781e-15 0)
(2 1.67514e-15 0)
(2 1.46747e-15 0)
(2 1.09771e-15 0)
(2 8.31615e-16 0)
(2 6.02178e-16 0)
(2 7.83064e-17 0)
(2 -7.04846e-17 0)
(2 2.04355e-16 0)
(2 -2.86241e-17 0)
(2 -6.22541e-16 0)
(2 -8.47975e-16 0)
(2 -7.09821e-16 0)
(2 -7.1061e-16 0)
(2 -1.48746e-15 0)
(2 -1.73272e-15 0)
(2 -1.73041e-15 0)
(2 -1.87107e-15 0)
(2 -2.65665e-15 0)
(2 -2.86602e-15 0)
(2 -1.44253e-15 0)
(2 -6.36502e-16 0)
(2 -4.65684e-16 0)
(2 6.75619e-18 0)
(2 2.26545e-16 0)
(2 2.33686e-16 0)
(2 -2.46391e-16 0)
(2 -3.30904e-16 0)
(2 -7.42265e-16 0)
(2 -8.0531e-16 0)
(2 -9.33944e-16 0)
(2 -1.16735e-15 0)
(2 -8.53316e-16 0)
(2 -6.5582e-16 0)
(2 -5.2232e-16 0)
(2 -2.06887e-16 0)
(2 1.44238e-16 0)
(2 2.75485e-16 0)
(2 3.72705e-16 0)
(2 4.31011e-16 0)
(2 4.29347e-16 0)
(2 2.47929e-16 0)
(2 2.33538e-16 0)
(2 2.94e-16 0)
(2 3.40837e-16 0)
(2 4.26029e-16 0)
(2 4.74819e-16 0)
(2 3.65624e-16 0)
(2 2.3955e-16 0)
(2 6.76661e-17 0)
(2 5.77968e-17 0)
(2 1.55057e-17 0)
(2 2.58349e-16 0)
(2 5.44568e-16 0)
(2 5.99366e-16 0)
(2 7.56007e-16 0)
(2 7.97257e-16 0)
(2 9.68625e-16 0)
(2 1.11569e-15 0)
(2 1.29368e-15 0)
(2 1.61313e-15 0)
(2 1.67451e-15 0)
(2 1.6742e-15 0)
(2 1.20535e-15 0)
(2 8.91772e-16 0)
(2 4.97294e-16 0)
(2 2.26822e-16 0)
(2 8.19004e-17 0)
(2 4.70245e-17 0)
(2 -1.18799e-16 0)
(2 -1.46791e-16 0)
(2 -1.67027e-16 0)
(2 -4.9702e-16 0)
(2 -5.95424e-16 0)
(2 -5.51514e-16 0)
(2 -4.02771e-16 0)
(2 -2.98751e-16 0)
(2 -4.73866e-17 0)
(2 2.3764e-16 0)
(2 6.02351e-16 0)
(2 8.49445e-16 0)
(2 9.76301e-16 0)
(2 8.99226e-16 0)
(2 6.07144e-16 0)
(2 4.94592e-16 0)
(2 5.77923e-16 0)
(2 6.30199e-16 0)
(2 6.45563e-16 0)
(2 8.54715e-16 0)
(2 1.10997e-15 0)
(2 1.24325e-15 0)
(2 1.4246e-15 0)
(2 1.5194e-15 0)
(2 1.49346e-15 0)
(2 1.35148e-15 0)
(2 1.62264e-15 0)
(2 1.73919e-15 0)
(2 2.09854e-15 0)
(2 2.40096e-15 0)
(2 2.73256e-15 0)
(2 2.98549e-15 0)
(2 2.8383e-15 0)
(2 2.6782e-15 0)
(2 2.36675e-15 0)
(2 2.30221e-15 0)
(2 2.35942e-15 0)
(2 2.45553e-15 0)
(2 2.71357e-15 0)
(2 2.36392e-15 0)
(2 3.39268e-17 0)
(2 1.5575e-16 0)
(2 2.50574e-16 0)
(2 3.95917e-18 0)
(2 -6.98563e-16 0)
(2 -7.97467e-16 0)
(2 -9.14633e-16 0)
(2 -8.57173e-16 0)
(2 -4.6917e-16 0)
(2 -1.83541e-17 0)
(2 2.71519e-16 0)
(2 6.23934e-16 0)
(2 9.29602e-16 0)
(2 9.32028e-16 0)
(2 8.91522e-16 0)
(2 7.88994e-16 0)
(2 8.66165e-16 0)
(2 1.36738e-15 0)
(2 1.4627e-15 0)
(2 1.68628e-15 0)
(2 1.73263e-15 0)
(2 1.39496e-15 0)
(2 1.01923e-15 0)
(2 7.91758e-16 0)
(2 3.68163e-16 0)
(2 -1.30781e-16 0)
(2 -2.33507e-16 0)
(2 -7.68039e-16 0)
(2 -7.50142e-16 0)
(2 -6.10019e-16 0)
(2 5.50996e-17 0)
(2 1.35909e-16 0)
(2 1.51288e-17 0)
(2 -3.55865e-17 0)
(2 2.5845e-16 0)
(2 6.15066e-16 0)
(2 6.77278e-16 0)
(2 3.02572e-16 0)
(2 4.14283e-17 0)
(2 -1.50656e-16 0)
(2 -3.0241e-16 0)
(2 -3.57807e-16 0)
(2 -6.94514e-16 0)
(2 -5.75613e-16 0)
(2 -1.59792e-16 0)
(2 2.85729e-16 0)
(2 1.08455e-15 0)
(2 1.26183e-15 0)
(2 1.53846e-15 0)
(2 1.72409e-15 0)
(2 1.797e-15 0)
(2 1.87914e-15 0)
(2 1.91734e-15 0)
(2 1.84039e-15 0)
(2 1.92881e-15 0)
(2 1.96218e-15 0)
(2 2.01719e-15 0)
(2 2.07456e-15 0)
(2 2.03095e-15 0)
(2 2.09148e-15 0)
(2 2.23831e-15 0)
(2 2.22647e-15 0)
(2 2.10503e-15 0)
(2 2.04536e-15 0)
(2 2.02652e-15 0)
(2 2.0746e-15 0)
(2 2.22733e-15 0)
(2 2.08059e-15 0)
(2 2.0636e-15 0)
(2 2.11564e-15 0)
(2 2.22168e-15 0)
(2 2.29484e-15 0)
(2 2.35522e-15 0)
(2 2.28698e-15 0)
(2 2.14829e-15 0)
(2 2.04351e-15 0)
(2 2.02583e-15 0)
(2 2.13428e-15 0)
(2 2.12921e-15 0)
(2 2.09285e-15 0)
(2 2.08765e-15 0)
(2 1.88486e-15 0)
(2 1.80744e-15 0)
(2 1.77328e-15 0)
(2 1.82923e-15 0)
(2 1.8023e-15 0)
(2 1.40385e-15 0)
(2 6.90884e-16 0)
(2 4.91259e-16 0)
(2 5.43024e-16 0)
(2 8.23162e-16 0)
(2 9.87973e-16 0)
(2 1.0104e-15 0)
(2 9.64797e-16 0)
(2 1.32991e-15 0)
(2 1.48451e-15 0)
(2 1.61455e-15 0)
(2 1.79192e-15 0)
(2 1.91067e-15 0)
(2 1.52332e-15 0)
(2 1.61647e-15 0)
(2 1.82476e-15 0)
(2 1.9606e-15 0)
(2 2.25946e-15 0)
(2 2.61515e-15 0)
(2 2.84202e-15 0)
(2 2.79378e-15 0)
(2 2.72343e-15 0)
(2 2.62458e-15 0)
(2 2.4244e-15 0)
(2 2.36839e-15 0)
(2 2.41418e-15 0)
(2 2.73688e-15 0)
(2 3.01545e-15 0)
(2 2.98685e-15 0)
(2 2.99118e-15 0)
(2 3.01716e-15 0)
(2 3.20454e-15 0)
(2 2.98279e-15 0)
(2 3.16036e-15 0)
(2 7.2606e-16 0)
(2 6.43562e-16 0)
(2 6.48116e-16 0)
(2 1.26097e-15 0)
(2 1.92176e-15 0)
(2 2.20761e-15 0)
(2 1.91323e-15 0)
(2 1.44842e-15 0)
(2 1.20734e-15 0)
(2 1.19396e-15 0)
(2 1.2771e-15 0)
(2 1.30322e-15 0)
(2 1.30548e-15 0)
(2 1.35287e-15 0)
(2 1.44645e-15 0)
(2 1.58209e-15 0)
(2 1.70769e-15 0)
(2 1.78901e-15 0)
(2 1.85375e-15 0)
(2 1.92346e-15 0)
(2 2.00348e-15 0)
(2 1.83434e-15 0)
(2 1.65632e-15 0)
(2 1.62332e-15 0)
(2 1.16704e-15 0)
(2 1.03305e-15 0)
(2 8.95976e-16 0)
(2 6.73148e-16 0)
(2 6.03693e-16 0)
(2 6.1309e-16 0)
(2 8.49889e-16 0)
(2 9.32744e-16 0)
(2 9.36764e-16 0)
(2 8.50301e-16 0)
(2 7.27574e-16 0)
(2 9.49858e-16 0)
(2 1.26928e-15 0)
(2 1.49632e-15 0)
(2 1.6044e-15 0)
(2 1.64241e-15 0)
(2 1.65068e-15 0)
(2 1.6674e-15 0)
(2 1.56922e-15 0)
(2 1.38525e-15 0)
(2 1.32937e-15 0)
(2 1.53543e-15 0)
(2 1.42222e-15 0)
(2 1.34739e-15 0)
(2 1.55277e-15 0)
(2 1.8217e-15 0)
(2 1.79693e-15 0)
(2 1.65738e-15 0)
(2 2.03558e-15 0)
(2 2.06722e-15 0)
(2 2.07047e-15 0)
(2 2.42113e-15 0)
(2 2.70993e-15 0)
(2 3.17646e-15 0)
(2 2.87817e-15 0)
(2 2.642e-15 0)
(2 2.54042e-15 0)
(2 2.24248e-15 0)
(2 1.88376e-15 0)
(2 1.72456e-15 0)
(2 2.11893e-15 0)
(2 2.37875e-15 0)
(2 2.81593e-15 0)
(2 3.09745e-15 0)
(2 3.1517e-15 0)
(2 3.25353e-15 0)
(2 3.18922e-15 0)
(2 3.23616e-15 0)
(2 3.20625e-15 0)
(2 3.03823e-15 0)
(2 3.16982e-15 0)
(2 3.20389e-15 0)
(2 3.63068e-15 0)
(2 3.767e-15 0)
(2 3.50183e-15 0)
(2 3.45388e-15 0)
(2 3.52726e-15 0)
(2 3.66105e-15 0)
(2 3.56577e-15 0)
(2 3.30813e-15 0)
(2 3.01846e-15 0)
(2 2.6671e-15 0)
(2 2.06954e-15 0)
(2 1.43709e-15 0)
(2 9.8698e-16 0)
(2 8.53511e-16 0)
(2 8.43166e-16 0)
(2 9.17754e-16 0)
(2 9.85004e-16 0)
(2 1.12151e-15 0)
(2 1.29079e-15 0)
(2 1.51174e-15 0)
(2 1.78112e-15 0)
(2 1.98668e-15 0)
(2 2.04176e-15 0)
(2 2.14041e-15 0)
(2 2.45227e-15 0)
(2 2.84612e-15 0)
(2 3.24631e-15 0)
(2 3.31222e-15 0)
(2 3.48249e-15 0)
(2 3.53898e-15 0)
(2 3.49847e-15 0)
(2 3.10695e-15 0)
(2 2.61802e-15 0)
(2 2.53149e-15 0)
(2 2.50344e-15 0)
(2 2.4462e-15 0)
(2 3.41065e-15 0)
(2 3.71869e-15 0)
(2 3.56098e-15 0)
(2 3.56699e-15 0)
(2 3.49451e-15 0)
(2 3.38543e-15 0)
(2 3.58194e-15 0)
(2 3.98492e-15 0)
(2 1.20651e-15 0)
(2 1.1113e-15 0)
(2 7.58604e-16 0)
(2 6.33325e-16 0)
(2 7.1305e-16 0)
(2 1.27942e-15 0)
(2 1.85326e-15 0)
(2 2.42117e-15 0)
(2 2.47189e-15 0)
(2 2.46668e-15 0)
(2 1.86424e-15 0)
(2 1.20841e-15 0)
(2 1.09215e-15 0)
(2 1.26289e-15 0)
(2 1.35331e-15 0)
(2 1.65431e-15 0)
(2 2.02771e-15 0)
(2 2.29132e-15 0)
(2 2.42201e-15 0)
(2 2.37287e-15 0)
(2 2.27253e-15 0)
(2 2.27578e-15 0)
(2 2.40036e-15 0)
(2 2.50797e-15 0)
(2 2.27241e-15 0)
(2 2.32304e-15 0)
(2 1.84591e-15 0)
(2 1.50283e-15 0)
(2 1.18386e-15 0)
(2 9.89064e-16 0)
(2 7.02437e-16 0)
(2 4.16005e-16 0)
(2 5.52455e-16 0)
(2 9.37445e-16 0)
(2 1.20102e-15 0)
(2 1.42375e-15 0)
(2 1.75977e-15 0)
(2 2.14601e-15 0)
(2 2.22273e-15 0)
(2 2.33609e-15 0)
(2 2.55841e-15 0)
(2 2.85122e-15 0)
(2 3.34114e-15 0)
(2 3.57388e-15 0)
(2 2.9351e-15 0)
(2 2.24662e-15 0)
(2 2.03934e-15 0)
(2 2.04348e-15 0)
(2 2.12567e-15 0)
(2 1.92784e-15 0)
(2 1.74334e-15 0)
(2 1.69346e-15 0)
(2 1.73902e-15 0)
(2 1.7468e-15 0)
(2 1.43918e-15 0)
(2 1.19586e-15 0)
(2 1.0555e-15 0)
(2 8.90279e-16 0)
(2 8.02386e-16 0)
(2 7.55368e-16 0)
(2 4.90733e-16 0)
(2 3.72828e-16 0)
(2 2.7924e-16 0)
(2 6.95934e-16 0)
(2 1.07923e-15 0)
(2 1.43918e-15 0)
(2 1.66255e-15 0)
(2 2.37114e-15 0)
(2 2.46439e-15 0)
(2 2.61102e-15 0)
(2 2.83508e-15 0)
(2 2.98186e-15 0)
(2 3.36745e-15 0)
(2 3.57566e-15 0)
(2 3.86629e-15 0)
(2 3.20047e-15 0)
(2 3.1152e-15 0)
(2 3.10405e-15 0)
(2 3.14303e-15 0)
(2 3.20796e-15 0)
(2 3.01658e-15 0)
(2 2.83864e-15 0)
(2 2.44717e-15 0)
(2 2.29583e-15 0)
(2 2.11057e-15 0)
(2 1.78336e-15 0)
(2 1.67051e-15 0)
(2 1.63739e-15 0)
(2 1.49681e-15 0)
(2 1.08462e-15 0)
(2 9.93418e-16 0)
(2 1.04644e-15 0)
(2 1.18102e-15 0)
(2 1.38002e-15 0)
(2 1.67017e-15 0)
(2 1.84821e-15 0)
(2 1.94201e-15 0)
(2 1.96244e-15 0)
(2 1.99858e-15 0)
(2 2.14322e-15 0)
(2 2.21658e-15 0)
(2 2.25128e-15 0)
(2 2.19753e-15 0)
(2 2.05846e-15 0)
(2 1.90578e-15 0)
(2 1.6998e-15 0)
(2 1.72856e-15 0)
(2 2.17242e-15 0)
(2 2.31281e-15 0)
(2 2.31981e-15 0)
(2 2.31721e-15 0)
(2 2.10145e-15 0)
(2 1.81121e-15 0)
(2 1.54838e-15 0)
(2 1.4745e-15 0)
(2 1.43321e-15 0)
(2 1.40075e-15 0)
(2 1.33151e-15 0)
(2 1.60139e-15 0)
(2 1.90073e-15 0)
(2 2.52825e-16 0)
(2 -1.55435e-16 0)
(2 -3.75198e-16 0)
(2 -8.55279e-16 0)
(2 -5.72212e-16 0)
(2 -6.71555e-17 0)
(2 5.55403e-16 0)
(2 8.40932e-16 0)
(2 8.85614e-16 0)
(2 8.21736e-16 0)
(2 7.67079e-16 0)
(2 8.20038e-16 0)
(2 8.13477e-16 0)
(2 1.13918e-15 0)
(2 1.52568e-15 0)
(2 1.80975e-15 0)
(2 1.96813e-15 0)
(2 2.06815e-15 0)
(2 2.18774e-15 0)
(2 2.19073e-15 0)
(2 2.17517e-15 0)
(2 2.32006e-15 0)
(2 2.31005e-15 0)
(2 2.01279e-15 0)
(2 1.65426e-15 0)
(2 1.51973e-15 0)
(2 1.29942e-15 0)
(2 1.19836e-15 0)
(2 1.08591e-15 0)
(2 9.55232e-16 0)
(2 7.32627e-16 0)
(2 5.12815e-16 0)
(2 4.95973e-16 0)
(2 4.81537e-16 0)
(2 5.48102e-16 0)
(2 5.25662e-16 0)
(2 9.51531e-16 0)
(2 1.68787e-15 0)
(2 2.54371e-15 0)
(2 3.07574e-15 0)
(2 3.19566e-15 0)
(2 3.23529e-15 0)
(2 3.46848e-15 0)
(2 3.75328e-15 0)
(2 3.68374e-15 0)
(2 3.63726e-15 0)
(2 3.57296e-15 0)
(2 2.94371e-15 0)
(2 2.84971e-15 0)
(2 2.44005e-15 0)
(2 1.8882e-15 0)
(2 1.65338e-15 0)
(2 1.18039e-15 0)
(2 1.03341e-15 0)
(2 1.25438e-15 0)
(2 6.43549e-16 0)
(2 4.40304e-16 0)
(2 2.70668e-16 0)
(2 2.40748e-16 0)
(2 2.56774e-16 0)
(2 3.19664e-16 0)
(2 3.51341e-16 0)
(2 2.31012e-16 0)
(2 1.45249e-16 0)
(2 -1.81935e-16 0)
(2 -3.28282e-16 0)
(2 -2.62415e-16 0)
(2 -1.48753e-16 0)
(2 -3.63682e-16 0)
(2 -4.63446e-16 0)
(2 -4.48446e-16 0)
(2 -4.12448e-16 0)
(2 -3.70691e-16 0)
(2 -1.2639e-16 0)
(2 9.50873e-17 0)
(2 2.16327e-16 0)
(2 1.79335e-16 0)
(2 -2.84268e-17 0)
(2 -1.00416e-17 0)
(2 -7.53891e-16 0)
(2 -1.11522e-15 0)
(2 -1.28597e-15 0)
(2 -1.07388e-15 0)
(2 -7.9498e-16 0)
(2 -5.15336e-16 0)
(2 -1.11653e-16 0)
(2 3.00594e-16 0)
(2 7.07133e-16 0)
(2 5.46815e-16 0)
(2 4.07146e-16 0)
(2 1.96873e-16 0)
(2 -6.27718e-17 0)
(2 -6.79173e-17 0)
(2 -1.19304e-16 0)
(2 -7.7063e-17 0)
(2 -4.13042e-17 0)
(2 1.23866e-16 0)
(2 5.03479e-16 0)
(2 6.60379e-16 0)
(2 1.18744e-15 0)
(2 1.40212e-15 0)
(2 1.58929e-15 0)
(2 1.06975e-15 0)
(2 8.52285e-16 0)
(2 4.14703e-16 0)
(2 2.38104e-16 0)
(2 -1.81101e-17 0)
(2 -3.11923e-16 0)
(2 -5.59193e-16 0)
(2 -7.19914e-16 0)
(2 -9.07317e-16 0)
(2 -7.98029e-16 0)
(2 -9.62006e-16 0)
(2 -1.75547e-15 0)
(2 -2.32555e-15 0)
(2 -2.60101e-15 0)
(2 -2.61525e-15 0)
(2 -2.69665e-15 0)
(2 -2.3849e-15 0)
(2 -2.4885e-15 0)
(2 -1.22211e-15 0)
(2 -1.01149e-15 0)
(2 -8.81531e-16 0)
(2 -5.53507e-16 0)
(2 -1.70137e-16 0)
(2 1.1851e-16 0)
(2 -1.4148e-16 0)
(2 -5.54489e-16 0)
(2 -5.13522e-16 0)
(2 -2.2514e-16 0)
(2 1.79133e-16 0)
(2 3.71114e-16 0)
(2 9.22938e-16 0)
(2 1.21732e-15 0)
(2 1.42954e-15 0)
(2 1.25791e-15 0)
(2 4.35277e-16 0)
(2 1.40826e-16 0)
(2 -1.47961e-16 0)
(2 -2.663e-16 0)
(2 -3.36757e-16 0)
(2 -3.75097e-16 0)
(2 -6.09379e-16 0)
(2 -7.64344e-16 0)
(2 -6.56014e-16 0)
(2 -7.0555e-16 0)
(2 -7.18204e-16 0)
(2 -1.62967e-16 0)
(2 1.05639e-16 0)
(2 1.49477e-16 0)
(2 3.90213e-16 0)
(2 6.46626e-16 0)
(2 6.30522e-16 0)
(2 3.24543e-16 0)
(2 3.67711e-16 0)
(2 3.72855e-16 0)
(2 3.12731e-16 0)
(2 4.15082e-16 0)
(2 8.18144e-16 0)
(2 1.27165e-15 0)
(2 1.26097e-15 0)
(2 1.14361e-15 0)
(2 1.10605e-15 0)
(2 1.17525e-15 0)
(2 1.36351e-15 0)
(2 1.67982e-15 0)
(2 1.83347e-15 0)
(2 1.51353e-15 0)
(2 9.42523e-16 0)
(2 5.34177e-16 0)
(2 -6.18875e-17 0)
(2 -5.24625e-16 0)
(2 -5.74093e-16 0)
(2 -6.12076e-16 0)
(2 -2.43996e-16 0)
(2 -1.30594e-16 0)
(2 -1.77192e-16 0)
(2 -4.52635e-16 0)
(2 -1.00635e-15 0)
(2 -1.16125e-15 0)
(2 -1.71775e-15 0)
(2 -1.7862e-15 0)
(2 -1.62768e-15 0)
(2 -1.69148e-15 0)
(2 -1.81633e-15 0)
(2 -2.20689e-15 0)
(2 -2.54298e-15 0)
(2 -2.70127e-15 0)
(2 -2.61189e-15 0)
(2 -2.35859e-15 0)
(2 -2.25949e-15 0)
(2 -2.0059e-15 0)
(2 -1.98262e-15 0)
(2 -2.36257e-15 0)
(2 -2.56109e-15 0)
(2 -2.93361e-15 0)
(2 -3.04898e-15 0)
(2 -2.86999e-15 0)
(2 -2.51607e-15 0)
(2 -2.44622e-15 0)
(2 -3.00005e-15 0)
(2 -3.21729e-15 0)
(2 -3.53883e-15 0)
(2 -2.99162e-15 0)
(2 -2.23979e-15 0)
(2 -1.75242e-15 0)
(2 -1.40751e-15 0)
(2 -8.86378e-16 0)
(2 -7.42461e-16 0)
(2 -7.96263e-16 0)
(2 -1.13134e-15 0)
(2 -1.49636e-15 0)
(2 -1.89664e-15 0)
(2 -2.15197e-15 0)
(2 -2.06131e-15 0)
(2 -1.65467e-15 0)
(2 -1.62277e-15 0)
(2 -1.79999e-15 0)
(2 -6.84063e-16 0)
(2 -3.27426e-16 0)
(2 -1.30428e-16 0)
(2 5.81122e-17 0)
(2 1.13615e-16 0)
(2 8.87936e-17 0)
(2 9.38493e-18 0)
(2 -2.13843e-16 0)
(2 -1.08056e-15 0)
(2 -1.60458e-15 0)
(2 -1.51971e-15 0)
(2 -1.35687e-15 0)
(2 -1.24422e-15 0)
(2 -1.274e-15 0)
(2 -1.41649e-15 0)
(2 -1.42291e-15 0)
(2 -1.42883e-15 0)
(2 -1.40916e-15 0)
(2 -1.37556e-15 0)
(2 -1.25413e-15 0)
(2 -1.24803e-15 0)
(2 -1.44488e-15 0)
(2 -6.13718e-16 0)
(2 -5.33445e-16 0)
(2 -3.48772e-16 0)
(2 -3.20447e-16 0)
(2 -3.68848e-16 0)
(2 -6.53547e-16 0)
(2 -8.98507e-16 0)
(2 -9.75593e-16 0)
(2 -7.78158e-16 0)
(2 -3.11867e-16 0)
(2 -6.50095e-19 0)
(2 2.24872e-16 0)
(2 2.0638e-16 0)
(2 6.62006e-17 0)
(2 -2.63514e-16 0)
(2 -5.08646e-16 0)
(2 -7.91731e-16 0)
(2 -1.05841e-15 0)
(2 -1.25858e-15 0)
(2 -2.11282e-15 0)
(2 -2.63889e-15 0)
(2 -2.61135e-15 0)
(2 -2.563e-15 0)
(2 -2.49634e-15 0)
(2 -2.33091e-15 0)
(2 -1.89944e-15 0)
(2 -1.91772e-15 0)
(2 -2.02214e-15 0)
(2 -2.01627e-15 0)
(2 -2.01093e-15 0)
(2 -2.11345e-15 0)
(2 -1.85873e-15 0)
(2 -1.64259e-15 0)
(2 -9.54442e-16 0)
(2 -5.47517e-16 0)
(2 -2.46303e-16 0)
(2 -9.18909e-16 0)
(2 -1.07866e-15 0)
(2 -1.44996e-15 0)
(2 -1.80184e-15 0)
(2 -1.91559e-15 0)
(2 -1.65698e-15 0)
(2 -1.52079e-15 0)
(2 -1.37268e-15 0)
(2 -1.29799e-15 0)
(2 -1.19538e-15 0)
(2 -1.10844e-15 0)
(2 -1.01313e-15 0)
(2 -9.52023e-16 0)
(2 -9.029e-16 0)
(2 -1.25152e-15 0)
(2 -1.66486e-15 0)
(2 -1.83183e-15 0)
(2 -1.98112e-15 0)
(2 -2.25065e-15 0)
(2 -2.22493e-15 0)
(2 -2.34471e-15 0)
(2 -2.28705e-15 0)
(2 -2.26234e-15 0)
(2 -2.13382e-15 0)
(2 -2.24477e-15 0)
(2 -2.35361e-15 0)
(2 -2.27856e-15 0)
(2 -2.4142e-15 0)
(2 -2.48878e-15 0)
(2 -2.59566e-15 0)
(2 -2.64691e-15 0)
(2 -2.51103e-15 0)
(2 -2.27107e-15 0)
(2 -1.74009e-15 0)
(2 -1.37803e-15 0)
(2 -1.33036e-15 0)
(2 -1.39746e-15 0)
(2 -1.64592e-15 0)
(2 -1.87949e-15 0)
(2 -2.2865e-15 0)
(2 -2.93441e-15 0)
(2 -3.20988e-15 0)
(2 -3.38159e-15 0)
(2 -3.29505e-15 0)
(2 -3.06904e-15 0)
(2 -2.75118e-15 0)
(2 -2.68925e-15 0)
(2 -2.82777e-15 0)
(2 -3.11418e-15 0)
(2 -3.16667e-15 0)
(2 -3.10383e-15 0)
(2 -2.84664e-15 0)
(2 -2.61172e-15 0)
(2 -2.57463e-15 0)
(2 -2.69256e-15 0)
(2 -2.80285e-15 0)
(2 -2.60377e-15 0)
(2 -2.47607e-15 0)
(2 -2.38955e-15 0)
(2 -2.27523e-15 0)
(2 -2.09892e-15 0)
(2 -2.05181e-15 0)
(2 -2.02024e-15 0)
(2 -2.1692e-15 0)
(2 -2.06575e-15 0)
(2 -1.76541e-15 0)
(2 -1.05804e-15 0)
(2 -8.77719e-16 0)
(2 -7.48907e-16 0)
(2 -6.16984e-16 0)
(2 -6.49922e-16 0)
(2 -7.54957e-16 0)
(2 -6.13513e-16 0)
(2 -5.56198e-16 0)
(2 -5.91985e-16 0)
(2 -6.85693e-16 0)
(2 -8.81683e-16 0)
(2 -7.1438e-16 0)
(2 -7.15857e-17 0)
(2 2.59008e-16 0)
(2 2.91324e-16 0)
(2 2.44383e-16 0)
(2 1.36023e-16 0)
(2 2.48912e-17 0)
(2 -2.46607e-16 0)
(2 -3.70519e-16 0)
(2 -6.00987e-16 0)
(2 -7.87095e-16 0)
(2 -7.93766e-16 0)
(2 -4.78473e-16 0)
(2 1.08751e-17 0)
(2 8.58048e-16 0)
(2 9.62213e-16 0)
(2 9.5687e-16 0)
(2 6.73743e-16 0)
(2 4.37595e-16 0)
(2 2.83504e-16 0)
(2 -6.09191e-17 0)
(2 -4.95667e-16 0)
(2 -8.59085e-16 0)
(2 -1.1523e-15 0)
(2 -1.35014e-15 0)
(2 -1.52937e-15 0)
(2 -1.70614e-15 0)
(2 -1.72883e-15 0)
(2 -1.81864e-15 0)
(2 -2.26739e-15 0)
(2 -2.39858e-15 0)
(2 -2.56563e-15 0)
(2 -2.69564e-15 0)
(2 -2.68436e-15 0)
(2 -2.75597e-15 0)
(2 -3.0351e-15 0)
(2 -3.16573e-15 0)
(2 -3.12539e-15 0)
(2 -2.93064e-15 0)
(2 -2.13535e-15 0)
(2 -1.80942e-15 0)
(2 -2.04291e-15 0)
(2 -2.09702e-15 0)
(2 -2.37556e-15 0)
(2 -2.50817e-15 0)
(2 -2.88318e-15 0)
(2 -3.04455e-15 0)
(2 -3.01068e-15 0)
(2 -2.88498e-15 0)
(2 -2.65218e-15 0)
(2 -2.54599e-15 0)
(2 -2.13275e-15 0)
(2 -1.98211e-15 0)
(2 -1.60329e-15 0)
(2 -1.33917e-15 0)
(2 -9.81353e-16 0)
(2 -8.75701e-16 0)
(2 -1.296e-15 0)
(2 -1.3517e-15 0)
(2 -1.46967e-15 0)
(2 -1.77583e-15 0)
(2 -2.2731e-15 0)
(2 -2.78651e-15 0)
(2 -2.74634e-15 0)
(2 -2.81983e-15 0)
(2 -2.21827e-15 0)
(2 -1.68061e-15 0)
(2 -1.33405e-15 0)
(2 -1.08012e-15 0)
(2 -9.00872e-16 0)
(2 -9.40093e-16 0)
(2 -1.47188e-15 0)
(2 -1.78841e-15 0)
(2 -2.12712e-15 0)
(2 -2.19261e-15 0)
(2 -2.17316e-15 0)
(2 -2.10497e-15 0)
(2 -1.48853e-15 0)
(2 -1.31798e-15 0)
(2 -1.33281e-15 0)
(2 -1.71439e-15 0)
(2 -2.04516e-15 0)
(2 -2.22441e-15 0)
(2 -2.15594e-15 0)
(2 -1.98685e-15 0)
(2 -1.90065e-15 0)
(2 -2.13207e-15 0)
(2 -2.25324e-15 0)
(2 -2.31985e-15 0)
(2 -2.06813e-15 0)
(2 -1.79348e-15 0)
(2 -2.09992e-15 0)
(2 -2.48317e-15 0)
(2 -2.60246e-15 0)
(2 -2.60622e-15 0)
(2 -2.54335e-15 0)
(2 -2.51421e-15 0)
(2 -2.45902e-15 0)
(2 -2.36349e-15 0)
(2 -2.39828e-15 0)
(2 -2.48312e-15 0)
(2 -2.56846e-15 0)
(2 -2.66387e-15 0)
(2 -2.78908e-15 0)
(2 -2.9289e-15 0)
(2 -3.29688e-15 0)
(2 -3.45212e-15 0)
(2 -3.55189e-15 0)
(2 -3.61792e-15 0)
(2 -3.99283e-15 0)
(2 -3.68919e-15 0)
(2 -1.8407e-15 0)
(2 -1.3714e-15 0)
(2 -1.147e-15 0)
(2 -9.87636e-16 0)
(2 -9.9343e-16 0)
(2 -1.03926e-15 0)
(2 -1.02762e-15 0)
(2 -1.05179e-15 0)
(2 -1.04079e-15 0)
(2 -9.32654e-16 0)
(2 -8.25522e-16 0)
(2 -7.6291e-16 0)
(2 -7.42534e-16 0)
(2 -8.46962e-16 0)
(2 -7.66501e-16 0)
(2 -9.92661e-17 0)
(2 -3.18141e-16 0)
(2 -9.64865e-16 0)
(2 -1.11165e-15 0)
(2 -7.4504e-16 0)
(2 -3.41092e-16 0)
(2 -4.35914e-16 0)
(2 -4.21328e-16 0)