/*--------------------------------*- C++ -*----------------------------------*\
  =========                 |
  \\      /  F ield         | OpenFOAM: The Open Source CFD Toolbox
   \\    /   O peration     | Website:  https://openfoam.org
    \\  /    A nd           | Version:  7
     \\/     M anipulation  |
\*---------------------------------------------------------------------------*/
FoamFile
{
    version     2.0;
    format      ascii;
    class       surfaceScalarField;
    location    "0.428";
    object      phi;
}
// * * * * * * * * * * * * * * * * * * * * * * * * * * * * * * * * * * * * * //

dimensions      [0 3 -1 0 0 0 0];

internalField   nonuniform List<scalar> 
18389
(
-7.97856e-05
7.97856e-05
4.35206e-05
-4.35206e-05
-5.20443e-05
5.20443e-05
4.00384e-05
-4.00384e-05
-5.18012e-05
5.18012e-05
-3.98619e-05
3.98619e-05
-3.481e-05
3.481e-05
3.90153e-05
-3.90153e-05
-3.49364e-05
3.49364e-05
4.13423e-05
-4.13423e-05
4.43245e-05
-4.43245e-05
-3.43931e-05
3.43931e-05
-1.12794e-05
1.12793e-05
-4.27898e-05
4.27898e-05
4.34386e-05
-4.34386e-05
2.42022e-05
-2.42021e-05
1.85823e-05
-1.85823e-05
4.58835e-05
-4.58835e-05
4.59224e-05
-4.59224e-05
4.33363e-05
-4.33363e-05
-4.25779e-05
4.25779e-05
3.5369e-05
-3.53689e-05
4.2956e-05
-4.2956e-05
-5.84944e-05
5.84944e-05
-4.97508e-05
4.97508e-05
-4.1791e-05
4.1791e-05
-4.45312e-05
4.45312e-05
4.56121e-05
-4.56121e-05
4.5844e-05
-4.5844e-05
4.41273e-05
-4.41273e-05
-4.1329e-05
4.1329e-05
-6.3062e-05
6.3062e-05
4.31155e-05
-4.31155e-05
-4.47329e-05
4.47329e-05
4.086e-05
-4.086e-05
4.66859e-05
-4.66859e-05
-4.55465e-05
4.55465e-05
5.36134e-05
-5.36134e-05
-5.8932e-05
5.8932e-05
3.78741e-05
-3.78741e-05
4.49082e-05
-4.49082e-05
4.53939e-05
-4.53939e-05
-4.10101e-05
4.10101e-05
4.49097e-05
-4.49096e-05
4.58614e-05
-4.58614e-05
-4.58468e-05
4.58468e-05
-4.58385e-05
4.58385e-05
-4.06543e-05
4.06543e-05
-4.58801e-05
4.58801e-05
4.5927e-05
-4.5927e-05
4.59431e-05
-4.59431e-05
4.46077e-05
-4.46077e-05
3.77248e-05
-3.77248e-05
-4.57597e-05
4.57597e-05
-5.55331e-05
5.55331e-05
-4.38116e-05
4.38116e-05
4.57536e-05
-4.57536e-05
-4.59927e-05
4.59927e-05
4.32266e-05
-4.32266e-05
-5.93204e-05
5.93204e-05
-4.71398e-05
4.71398e-05
4.96061e-05
-4.96061e-05
4.5723e-05
-4.5723e-05
-8.35606e-06
8.35608e-06
4.57756e-05
-4.57756e-05
4.14565e-05
-4.14565e-05
5.12126e-05
-5.12126e-05
-4.58585e-05
4.58585e-05
4.23281e-05
-4.23281e-05
3.09279e-05
-3.09279e-05
3.75324e-07
-3.75325e-07
-4.40886e-05
4.40886e-05
3.28686e-05
-3.28686e-05
-3.65751e-05
3.65751e-05
3.97289e-05
-3.97289e-05
2.66255e-05
-2.66255e-05
2.61928e-05
-2.61928e-05
2.70488e-05
-2.70488e-05
2.43967e-05
-2.43967e-05
1.25355e-05
-1.25354e-05
0.00107769
-0.000886945
-0.00019074
0.00546517
-0.00207449
-0.00339068
-0.00594647
0.00594644
2.59307e-08
0.00335526
-0.00260116
-0.000754111
-0.0015664
0.00177073
-0.000204326
-0.00675574
0.00284274
0.00391301
0.00121362
0.00425156
0.00725567
-0.0058761
-0.00137957
0.00120294
-0.00190996
0.000707026
-0.000867212
-0.000699191
-0.0014421
-0.000314622
0.00175672
0.000142012
-9.5198e-07
-0.00014106
0.000778592
-0.00222069
-0.00360295
0.000121942
0.003481
-0.00320276
0.00289477
0.000308006
-0.00570467
0.00723645
-0.00153179
-0.00370854
0.002897
0.00081153
-0.000562773
-0.00304018
-0.00175163
0.0023909
-0.000639265
-0.000462031
0.00255854
-0.0020965
-0.00161077
0.00111743
0.000493343
0.000583529
0.00058183
-0.00159717
-0.00515858
0.00132202
-0.00180969
0.000487673
0.00577821
-0.00385873
-0.00191947
-0.000672196
0.00331025
-0.00263806
-0.00583502
0.00583528
0.0004728
0.00129793
-0.00633805
0.000969561
0.00536849
0.00231634
-0.00298854
-0.00378932
0.00311417
0.000675143
0.00214816
-0.00422265
0.00108865
-0.000201375
-0.000887278
0.00150811
-0.00129168
-0.000216436
-0.00280342
-0.000399336
0.00534969
-0.00535118
0.000375776
0.00113234
0.00522736
-0.00133672
-0.00389065
0.001977
-0.000774063
0.00308568
0.00190869
-0.00499437
-0.000721098
-0.00306823
-8.8002e-05
-0.000156566
0.000244567
0.00393584
0.00331983
0.00115239
-0.00487363
0.00372123
0.00162475
0.00360261
-0.00498196
0.00632074
-0.00133878
-0.00114832
-0.000582381
0.00173071
0.00133701
0.00201825
0.00013529
0.000103627
-0.000238917
0.00501982
-0.00339506
0.00645824
-0.000840288
-0.00561795
0.00321676
-0.00266501
-0.000551749
0.00221604
0.000455614
-0.00267167
0.00295664
-0.000740594
0.00650405
-0.00539867
-0.00110536
0.000495709
-0.003855
0.00335929
6.96354e-05
0.00638861
0.00479039
-0.00429468
-0.000535761
0.00105939
-0.000523623
-0.0017667
0.000618374
0.00191705
0.00224911
-0.00416616
0.000253606
-0.000333817
8.02113e-05
-0.00125573
-0.00284928
0.00410501
-2.6314e-05
0.00653037
-0.00281488
0.00230044
0.000514437
0.000389103
-1.24678e-05
-0.000376636
-0.00569234
-0.000254123
0.00188282
-0.00141002
0.000828137
0.00495007
0.000898499
0.000179189
0.00263958
-0.00643468
0.0037951
-0.0011202
0.000584444
0.00264267
-0.0038984
0.0061965
-0.00226065
0.00109211
0.00117728
-0.000779015
0.00103153
-0.000252516
-0.0011139
-0.000496865
0.00188171
0.00133504
-0.000594362
0.00142952
-0.00123738
-0.000192141
-0.00265394
0.00198979
0.000664151
0.00116675
0.00026277
0.00112272
-0.00495742
0.00383469
-0.00474831
0.00140948
0.00333882
-0.00455443
0.00611815
-0.00156372
-0.00506231
8.03483e-05
-0.00202127
-0.000632661
-0.000215259
0.000127257
-0.00121586
0.00463877
-0.0034229
-0.00119508
-0.000714877
0.000103302
-0.000192023
8.87203e-05
0.000126283
-2.29806e-05
-0.00125162
0.00463078
-0.00337915
-0.000156186
2.45208e-05
0.000131666
-0.00556626
0.00170754
-0.00119904
-0.000567658
-0.000449392
-1.89202e-05
0.000468311
-0.000543192
9.37992e-05
0.00101204
7.66093e-05
-0.00181119
0.000612152
-0.00015046
1.70141e-05
0.000133446
0.00136803
-0.00234446
0.000976432
0.0002711
-0.00013581
-0.00392547
0.0051391
-0.00245724
0.000705612
-9.50922e-05
-0.000416917
0.000512009
0.00568532
-0.00216809
-0.00351723
7.94939e-05
0.00250582
-0.00258532
0.00444679
-0.00559425
0.00114746
0.00263446
0.00305086
0.00291461
-0.00283512
-0.00613121
0.000426544
-0.00645034
0.00361869
0.00283166
0.00229274
0.00390375
-0.00438645
0.00137142
0.00301503
0.00151641
-0.0001944
-0.00102125
0.00401687
-0.00299563
0.00463902
-0.00162607
-0.00301296
-0.00459587
0.00374579
0.000850087
0.00369261
-0.00502933
5.88092e-05
0.000330295
-0.00137691
0.00582372
-8.96505e-05
0.00214763
-0.00205798
-0.00207011
0.00261343
0.000164569
-0.002778
-0.0012774
0.00264542
-0.000639486
0.00325291
0.00164242
-0.00173207
0.000887531
0.00396893
-0.00485647
-0.00504172
0.00384229
0.00119944
0.00255191
-0.00359412
0.00104222
-0.00331056
0.00411631
-0.000805743
0.00035506
-0.00366562
-0.000897011
0.000897011
-0.000453364
0.000358272
-0.000126947
-0.000973482
0.00110043
0.00506906
-0.00184206
-0.003227
-0.00243323
-0.000370203
0.00290097
0.000157896
1.64521e-05
-0.000174348
-0.00147346
0.00112764
0.000345821
-0.000141779
-0.00489995
0.00503874
-0.00388635
0.000225941
-8.39302e-05
0.00444217
0.000577643
0.00406759
-0.00151568
0.000165027
-7.1309e-06
-0.00633471
-0.000993898
-0.000817293
0.00430065
-0.00190338
-0.00239727
0.00275644
0.00154422
0.00107757
-0.00563199
-0.0022657
-0.00054918
-0.00112252
-0.000956661
0.00207918
4.28262e-05
-0.00272421
0.00268139
-0.0023585
0.00123598
-0.0022181
0.00530379
-0.00461063
0.00159184
0.00301879
0.00254865
0.000674646
-0.00033801
-0.000336636
-0.00601569
0.000582909
0.00543278
-0.00418115
0.00581684
-0.0016357
0.00182423
0.00163139
-0.00345563
-0.00168284
0.000898768
0.000784068
-0.00271354
0.00207942
0.000634116
0.00112374
0.000759081
0.000247193
-0.000328943
8.17512e-05
0.0048789
-0.00399137
-0.00638816
0.00557587
0.000812303
-0.004785
-0.00166534
0.00334845
0.000627155
-0.00397561
0.000153984
-0.000162204
8.21961e-06
0.000590469
-0.000125275
-0.000465193
-0.00451813
0.00261475
0.000374596
-0.000586591
0.000211995
4.24431e-05
-0.000939456
-0.00257571
0.00448441
-0.00530363
-0.000322785
0.00562642
0.000199111
0.000208886
-0.000407997
0.00119759
-0.00119759
0.0016856
-0.000723747
-0.00211336
0.00181494
0.000298426
0.00439558
-0.00302416
-0.000162416
6.22995e-06
-0.00123612
0.00127856
0.000674638
0.00130236
0.00234488
-0.000265457
-0.00401754
-0.00128608
0.00111876
-0.00497377
0.00321199
-0.00446361
0.000834005
-0.00213753
0.00130353
0.00335935
-0.00457522
-0.00271026
-0.00180787
-0.00483564
0.00469386
-0.000676808
-0.00533888
-0.00515842
0.00148841
-0.00148236
-6.04972e-06
0.00223778
0.000107098
-0.00601451
0.00204868
0.00396583
-0.00121933
0.000526014
0.000693311
0.00144384
0.00295174
-0.0046261
-0.00101569
0.0056418
-0.000212868
0.000138566
7.43016e-05
-0.00550692
0.00132578
0.00375313
-0.00493692
0.00118379
-0.0015017
-0.000611658
-0.000536677
-0.000637497
0.000138327
-0.000203784
6.54569e-05
0.00497769
-0.00385497
-0.0013006
0.00512507
-0.00382448
-0.000375934
-0.000860187
-0.00586133
0.00043959
0.00539569
-0.00616103
0.00456386
-0.000924875
-0.0054633
-0.00109911
-0.000374351
-0.0018185
0.00285868
-0.00104017
-0.000419079
0.000321983
9.70965e-05
-0.00173206
0.00141744
0.00162685
-0.000138438
0.000821037
-3.67476e-05
-0.00169532
0.00279696
0.00121711
-0.00303561
0.00605274
-0.000476874
0.00527903
7.06498e-05
-0.00528154
0.00439007
0.00114446
-0.00553454
0.000556537
-0.000768846
0.000212309
-4.0069e-05
-0.000413295
-1.2426e-05
0.00606516
-0.000162173
0.000156816
5.3567e-06
0.000133407
2.0577e-05
0.00254214
-0.00335528
0.000813141
-0.00190187
0.000699652
0.00120221
0.00791854
-0.00345353
-0.00446501
0.00116954
0.00126661
-0.00243616
0.000105029
-0.000171667
6.6638e-05
-0.000805875
0.00133188
0.00115548
0.00318249
-0.00433797
-0.0056148
0.000165777
0.00544902
-0.00401654
0.0029953
0.00173482
0.00479554
0.00458343
0.0033351
-2.21882e-05
0.000191799
-0.000169611
-0.00130017
0.00438994
-0.00308976
0.000302099
-0.000342168
-0.000131394
-8.14743e-05
0.00410117
-0.00227695
0.00476145
-0.00500774
0.000246289
-0.00322767
0.00605452
-0.00282685
0.00252773
0.00157345
0.00574643
-0.000984982
-0.00138904
-0.00562132
0.00137257
0.00424875
0.000654674
0.000520475
-0.00117515
0.00126935
-0.00061468
0.000585381
-0.00111007
0.000524686
0.00110586
0.000278426
0.00039622
-0.000678225
0.00443136
0.00152116
-0.00039352
0.00351843
-0.0061059
0.00258748
0.00153473
-0.00258544
0.00105071
-0.00431493
0.00115784
0.00315708
0.00291618
-0.00421636
-0.00490711
-0.00125392
-0.00409614
0.00126425
0.00283188
0.00124118
0.00314876
-0.00326424
-0.000831901
0.00222699
-0.00105746
-0.000674317
-0.00253562
0.00320993
0.00241248
0.000610818
-0.0030233
-0.0015911
0.00120462
0.00038648
0.000270057
0.00149808
-0.00196724
0.000469156
-0.000110958
-0.000222859
-0.000264454
0.000153495
-0.0043492
-0.000246671
-0.000291866
0.00117534
-0.000883474
0.0043513
-0.00464447
0.00029317
-8.84015e-05
0.000117742
-2.93404e-05
0.000970224
0.00338184
-0.00435206
-0.000156976
6.85752e-05
-0.00475155
0.000710006
0.00404155
-0.000800309
0.000113718
0.000686589
8.09845e-05
-8.19364e-05
-0.000400242
0.000864669
-0.000347472
-0.000517198
-0.00603612
0.000637442
-0.00254968
-0.000128182
0.00267785
-0.00317153
0.00441271
0.00218084
-0.00108874
-0.00116718
-0.00118371
-1.13687e-05
-0.00351798
-0.00123033
0.00152508
-0.000420754
-0.00110432
0.00191951
0.00183833
-0.00375784
0.00503895
-0.00160719
-0.00343176
0.000790061
-0.00541616
-0.0013718
0.00300319
0.00195279
0.000788917
-0.0027417
-0.00349892
0.00446915
-0.000153211
2.75141e-06
0.000932745
-0.00443167
-0.00449683
-0.000147647
-0.00099822
-0.00461658
0.00462146
0.0014798
0.00355914
0.00415894
0.00114121
-0.00530015
3.60611e-05
5.95544e-05
-9.56155e-05
-0.00140927
0.00336206
0.00369892
0.00353753
-0.00140294
0.0023716
-0.000968648
-0.0024803
0.000459023
-0.000878391
0.000751443
-0.000207739
0.000406851
-0.000203776
0.00170186
0.0037637
-0.00184419
-0.0010797
-0.000603139
-0.000107235
-0.000157218
0.00355043
-0.00163337
-0.00240371
0.00465282
0.000674546
-0.00309589
0.00242134
0.000657868
0.000766975
-0.00105884
0.00210062
-0.00130807
-0.00327398
0.00458204
-0.00214851
0.0047881
-0.000551229
0.00344599
0.000238279
-0.000221265
-0.00236326
0.000960324
0.00230811
-0.00386913
0.00156104
-0.00122723
5.79187e-05
-2.18576e-05
0.00215123
-0.00279931
0.000648088
-0.00117061
-0.000420482
-0.00353005
0.00449962
0.00118687
0.0016831
-0.00286997
-0.00169273
0.00366407
-0.00197134
0.00423808
-0.000856237
0.000234311
1.4122e-05
-0.000248433
-0.00372232
0.00202959
-0.00142048
0.00471078
-0.00329031
0.000877967
0.00130288
0.000187513
0.00101007
0.000253042
-0.000300747
4.77046e-05
0.00169673
0.000217691
-0.00191442
0.00301911
-0.00458338
0.00156427
-5.2875e-05
0.000374353
-0.000321478
0.00156604
-0.000361423
0.00140453
-0.000593396
-0.000811132
0.00282711
-0.00392279
0.00109568
0.00268167
-0.00374191
0.00106024
-0.00514944
0.00192176
0.00389473
-0.000875622
-0.000630048
-0.00237926
0.00300931
0.00140675
-0.00511725
0.00371049
0.00336052
-0.00145893
-0.00190159
-0.000689878
0.0017296
-0.00103972
0.00477165
-0.00303683
-0.00070433
-0.00196067
-0.00598145
0.00514116
3.98634e-06
0.00012177
-0.000125756
-0.0015808
0.00120423
0.000376575
-0.00490483
0.00630469
-0.00139987
-0.00188657
0.000704035
0.00118254
0.000407254
0.00268716
-0.00208891
-0.000598248
0.00343464
0.000489797
-0.00392444
0.00012398
-1.89499e-05
0.00517237
0.000336995
-0.00550936
-0.00194072
0.00379754
-0.00185683
0.00276557
-0.000630461
-0.00213511
0.000462547
0.000402122
-0.000437901
0.00387254
0.00202582
-0.00396654
0.000706833
-0.000269291
-0.000437541
-0.000653479
-2.49063e-06
0.000655971
-0.00315239
-0.00576688
0.00576508
-0.000275753
0.000954125
-0.000678373
-0.00228991
-0.000190395
-0.00454765
0.00323957
-0.000864847
0.00112079
0.00360808
-0.00502007
0.00141199
0.000410677
-0.00296034
0.00233476
-0.00244002
0.000105254
-0.00157143
0.00148227
8.91629e-05
-0.00121336
-0.000367445
-0.00339218
0.00342432
-0.00223745
0.000457273
0.000133196
-0.00174038
0.00105051
-0.00279139
0.000735315
0.00205608
0.000242336
-8.02459e-06
-0.00347702
0.00102218
0.00245484
-0.00144372
0.00560266
0.000337882
-0.000957186
0.000619306
0.00212562
0.000639938
-0.00127776
0.000304276
0.00111861
0.00121615
-0.00142065
0.0049465
-0.00352585
-0.00485434
0.00577154
-0.000917197
-0.00117129
0.00228453
0.00410407
0.00107637
4.10564e-05
0.00585982
-0.0055186
-0.000341219
0.0035422
-0.00465297
0.00111077
0.00308844
-0.000675958
0.00542678
-0.0018187
-0.00250514
-0.000971875
-0.00218388
-0.00030749
0.00249138
0.00241938
-0.00196378
-0.00160818
-0.00423997
0.00274885
0.00149112
-0.000334269
0.00123304
0.00120449
0.00365078
-0.00485527
-0.000319532
0.000694129
0.00305959
-0.00238504
-0.00472403
-0.00125742
0.00647066
-0.00129829
0.00423451
0.00206355
0.00049499
0.0028556
-0.00212697
-0.000728626
0.00473674
-0.00245221
-6.84339e-05
-0.00332755
-0.000864081
0.00419164
0.000388614
-8.66074e-05
-0.000302007
-0.00514148
0.00610516
-0.000963684
-0.000718646
0.00190524
-0.00118659
-0.000697108
0.00525278
-0.00455568
0.00119506
-0.0019137
-0.00011379
-0.00576231
-0.000779015
0.00203127
0.00382855
-0.000257588
-0.00192629
0.000251398
-4.20532e-06
0.00036254
-0.000487815
0.00335901
-0.000816875
-0.00522607
-0.000271558
-0.000147522
0.000150219
-0.000133605
-1.66136e-05
-0.00248402
0.000125508
-0.000420467
0.00159593
-0.00102207
-0.000573853
0.00246206
0.000602017
-0.00306408
-0.000721417
0.00318347
-0.00520293
-0.000271521
0.00547445
0.00375115
0.00137393
0.00440472
-0.00122222
-0.000128109
0.00254749
0.00540384
-0.000206639
-0.00519721
-0.00608761
0.00425294
0.00183469
0.00321013
-0.00126816
-0.00435316
0.000203177
-0.000225365
0.000559155
0.00084537
0.00115274
0.000201644
-0.00135438
0.0042123
0.00119154
-0.000961516
0.00317113
-0.00220961
0.00471953
-0.00137108
-0.00218095
0.00279352
-0.000612566
-0.00117619
-0.000101014
0.000288401
-0.000187387
0.00344667
-0.00414379
0.00134667
-0.000988571
-0.000358096
0.00160037
-0.000396144
-0.00324994
0.00228842
0.00548643
-0.00434197
-3.0622e-05
0.000352606
-0.0053545
0.000449658
0.00542688
-0.00190846
-0.000997974
-0.00361499
0.00461297
-0.000645349
0.00288297
-0.00223762
0.00549726
-0.00286243
-0.00263483
-8.83959e-05
0.000590661
-0.000677147
0.000660558
1.65886e-05
-0.000696479
0.00173495
-0.00103848
-0.00315005
-0.00116487
0.000155531
-1.72038e-05
-0.0012248
-0.00478971
-0.00307391
0.00239958
-0.000899763
-0.000297824
-7.26236e-05
-8.95488e-05
-0.00122403
-0.000805925
-0.0052302
-0.00283903
0.00219369
-0.000814589
0.00119036
0.00111907
0.00436769
-0.00548675
0.00338059
-0.00275344
0.000466927
0.000770092
-0.0028836
0.00211351
0.00497746
-0.00491846
-5.89994e-05
-0.00320952
0.00361558
-0.000406054
0.000207788
-9.56027e-05
-0.000112186
-0.00495837
-0.00147633
-0.00176098
0.00368982
-0.00192884
0.00298034
-0.00221025
-0.00378377
0.0020228
0.00139503
-0.00258174
0.0011867
-0.00363305
0.00568173
0.00649962
-0.00219591
-0.00430371
-0.00239883
0.00237612
2.27118e-05
0.00559477
-0.00162585
0.00118481
-0.000924826
-0.000259989
-9.09375e-06
0.000262136
0.000250607
-0.000774014
0.000523407
-0.00304831
0.00364984
-0.000968165
0.000849934
-0.00105131
0.00236383
-0.000632297
-0.00173154
0.0022126
-0.000515867
0.00451719
0.000631414
0.00173242
-0.00175832
0.00106185
0.000408603
-0.000464696
5.60919e-05
0.00222013
-0.00174612
-0.000474011
0.000823396
-0.0051478
-0.000544544
0.000369495
-0.000588348
0.000218852
-0.00410147
0.00547404
0.000941929
-0.00111659
0.000174666
-0.00153459
0.00216377
-0.000629176
-0.00148727
-0.0027527
-0.00537394
-0.000165503
0.00553945
0.000297538
0.00010829
4.19296e-05
0.000127575
-0.000128007
4.32393e-07
0.00410193
-0.00289744
-0.0037951
-0.00231079
0.00346645
0.00303316
-0.0025902
0.000717881
0.00187232
-0.000844663
0.00223969
-0.00229868
-0.000100155
0.00272987
-0.00377748
0.0010476
0.00130969
-0.000134356
0.000459441
0.000552602
-0.00327768
0.000962585
0.0023151
0.000910517
-0.00062097
-3.25104e-05
-0.00426975
0.00171715
0.000111109
-0.00182825
-0.00396328
0.00146236
0.00250092
0.000516224
0.00147346
-0.00091431
-0.000246124
-0.0046603
0.00490643
0.000784109
-0.00247672
0.00169261
0.0012022
0.00131232
-0.000458055
-0.0017267
0.00218476
0.00258
-0.00179589
0.00446671
-0.00353396
-0.00076283
-0.00264095
-0.000227264
0.000251785
-0.000707591
0.0017666
-0.00105901
0.00266181
-0.0036663
0.00100448
0.000136425
2.03912e-05
-0.00236576
-0.000911932
0.00142116
-0.00163615
0.000214982
-0.00277482
0.000685911
0.00127616
-0.00141851
0.000142357
0.00161851
-0.00180761
0.000189103
0.000674654
-0.00372163
-0.00115199
0.00133778
-0.00488648
0.0035487
-0.000911207
0.00357301
0.000118421
-7.88944e-05
-3.95263e-05
0.00473405
-0.00361497
-0.000308754
-0.0015221
-0.00401097
-0.00149595
0.00209379
0.000699724
-0.0010066
-0.000922504
-0.00450842
-0.00162279
-0.000377705
0.00124379
-0.000933183
-0.000310606
-0.00149654
-0.00108891
0.000654332
0.00226002
-0.00291435
-0.00011424
0.000670777
-0.000715964
3.88173e-05
-0.00246308
0.00196646
0.00139405
-0.000686305
0.00163276
-0.000946455
-8.68506e-05
-0.000116933
0.000318964
-0.00194809
0.000446387
0.00161678
-0.00230816
0.000691383
-0.00333773
0.00258668
0.000751037
0.00120431
0.00240847
-0.00361278
-0.00175465
0.00104706
-0.00294211
-0.00102116
-0.000782473
-0.00255526
-0.00167814
0.00125502
0.000423117
0.00176642
-4.92692e-05
-0.000759694
-0.00243614
0.00319582
-0.000665765
0.00291328
-0.00225894
-0.000858542
-0.00394762
0.00480617
-0.00234292
0.00234237
5.5147e-07
-0.000800309
-0.00156668
0.000544609
-0.00240599
0.00381836
-0.00141237
0.00323298
0.00288516
0.000194336
3.6212e-05
-0.000230549
0.00234053
-0.000602265
-0.00173826
0.00018818
-0.000184193
-0.00358928
0.00492706
-0.00329131
0.00523738
-0.00194607
-0.00351032
-0.00150975
-0.000916101
0.00323164
-0.00231554
0.00285685
0.00177317
-0.00417918
-0.00499368
-0.000147787
-0.000780194
0.00284314
-0.00206294
-0.000431664
0.000378789
-0.000531612
0.00167604
-0.00114443
-0.00402453
0.00334216
0.000682376
-0.00326921
0.00235311
-0.00386668
0.000673484
0.00319318
0.00141004
-0.00101519
-0.000394857
-0.00589955
0.000696626
0.00184695
-0.00141137
-0.000435578
0.00143947
-0.000425084
-0.00101439
7.8376e-05
0.000129412
0.00292892
-0.000628471
-0.00021849
-0.00348717
-0.000379506
0.000429764
-0.00305692
-0.000967621
-0.00233676
-6.15417e-06
-0.00292473
0.00229468
0.000720231
0.00260213
-0.00332236
0.000585326
-0.000861079
0.00141022
-0.0067171
0.00530687
-0.0057754
0.000990392
-0.00233366
0.00353797
0.000695489
0.000258637
-0.0027332
0.00345343
-8.62494e-05
0.00506371
0.000606808
0.00171198
-0.00231879
-0.00177783
0.00124622
0.00274892
-0.0036951
0.000946172
0.00509937
0.000672262
0.00154786
0.00032222
0.000384612
-0.000364
-0.000404847
0.000180996
-0.0017486
0.00176684
-0.000888873
0.000863292
0.000610168
-0.000581521
0.00300998
-0.00242846
-0.00150949
0.00184247
-0.000332979
-0.00489189
0.00380313
0.00108876
-0.0047952
0.00150388
-4.1371e-05
3.76555e-05
3.71549e-06
-0.00281236
-0.000853933
0.00109043
-0.0012969
0.000206476
0.00134859
-0.00493787
0.00116564
-1.2905e-05
0.00123317
0.000693554
0.00218941
-0.00366673
0.000854379
0.000182278
-0.00503662
0.00189909
0.00123037
0.000674868
-0.0052742
-0.000492676
0.0056513
0.00118782
0.00710741
-0.00218428
-0.00492313
0.000794699
-0.000383868
-0.000410832
0.000709179
-0.00138571
0.000782567
-0.0038609
-0.00125635
0.000288401
-0.000948238
-0.000412039
0.00136028
0.00233176
0.00400854
-0.00486707
0.002703
0.000834156
-0.00353716
0.00125095
-0.000965598
-0.000285352
0.00074473
0.0015958
-0.000135139
0.000138357
-3.21825e-06
-0.00070925
0.00288358
-0.00217433
0.00362025
0.00109053
-0.00126493
-0.000413212
0.00141511
-0.00151266
9.75474e-05
4.6199e-05
7.22217e-05
-0.00447767
0.000967352
-0.00165615
0.000442794
-0.00364889
0.00292746
-0.0009515
6.4554e-05
0.000933074
0.0026815
-0.00361457
0.000849805
-0.00127019
0.00418296
-0.00291277
0.000317765
0.000279889
4.65494e-05
-0.000326439
7.84141e-05
-0.00539166
0.00531324
-0.00263874
-0.000770222
0.00340896
-0.00348566
0.00261066
0.000875006
-0.00276393
-0.000261697
-0.00171327
-0.00490376
0.000892792
-0.00145712
-0.000879643
-0.0010627
0.00379257
0.00171039
-0.00372463
0.00201425
0.000105719
2.18559e-05
0.00372471
-0.00201432
0.0028668
0.000950974
-0.00381777
-0.00130336
0.0017414
-0.00043804
0.00357403
0.00109542
-0.00466946
0.0071769
-0.00197229
-0.0052046
-0.00212854
-0.000710492
-0.00173819
0.00234499
0.00377288
-0.0049249
0.00115201
-0.0028033
0.00373637
0.0011631
-5.48346e-05
-0.00110826
0.00148035
0.000910543
-0.00550466
0.00059755
0.000433674
0.000361024
0.00292156
-0.00111901
-0.00251977
0.00248067
3.91092e-05
0.000504506
-0.00184083
0.00133632
-0.00387048
-0.00119183
0.00108821
-0.00254532
-0.00529911
0.000151315
-0.0012624
-0.000516595
0.001779
0.00563291
-0.0044917
0.000104448
0.000284167
-0.00301897
0.00318355
0.00144097
-0.00107494
-0.000366033
0.00346873
0.00475583
-0.000952706
0.000633989
-0.00327272
0.00114261
-0.0010289
-5.28803e-05
0.000461483
0.000394082
-1.97299e-05
-0.00206102
-0.000451252
0.00154168
-0.000898982
-0.00349739
0.000764196
-2.80937e-05
-1.32773e-05
0.00599843
-0.00492085
0.00522175
-0.00439361
-3.52568e-05
-0.000686589
0.000721845
0.00194902
-0.0004581
-0.00149092
0.00335868
-0.000756553
-0.00256849
0.0033611
-0.000792608
-0.00183366
0.000530307
0.00127933
-0.000952786
-0.000326546
-0.000118773
-0.00021017
0.00205937
-0.000547955
-0.00151142
-0.00138209
-0.00239371
-0.000126057
0.00209238
-0.00274656
0.000654181
0.00280691
-0.000749758
-0.00205716
0.00410341
-0.00434953
0.000313735
0.00223694
-0.000620156
-0.000681036
0.000835933
-0.00367437
0.00502295
0.001238
0.00045731
-0.00171971
-0.00285997
0.00209766
0.00363316
0.00158859
-0.00115462
-0.00382498
-0.00113244
0.00130513
-0.0017179
0.000412769
0.00367574
-0.00318595
-0.000193982
0.00113591
-3.84728e-05
-0.000271621
0.000310095
-0.000685618
-0.00190459
0.00377222
-0.0049063
0.00113409
-0.00186526
0.00235009
-0.000484834
-0.00115268
0.00213324
0.000750332
-0.00226396
0.0037546
-0.00149065
0.00150743
-0.0011438
-0.000363623
-0.00108939
0.000289083
0.000216271
-0.000451105
0.000234834
-0.000425681
-0.00123047
-0.00247915
0.00250617
-2.70205e-05
0.00144602
-0.00370999
0.00162657
-0.000371546
0.000369809
-0.000409944
4.01352e-05
-0.000827657
0.00059426
0.000233397
-0.000794395
-0.00284447
0.000819725
0.00202475
-0.00199265
-0.000881985
-0.000730938
0.00161292
-0.00523983
0.00389427
0.00134555
-0.00133972
0.00130446
-0.000576327
-0.000115979
0.000692306
0.00286846
-0.000735218
-0.00077019
-0.000160308
0.000930498
0.00183869
-0.00138138
0.0016988
-0.000393665
-0.000197104
-0.000636525
-0.00420363
0.00484016
-0.00139949
0.00283062
0.00427679
-0.00239881
-8.03302e-05
0.00312337
-0.00473056
0.00073268
0.00158226
-0.00231495
0.00201647
-0.00279666
0.00198086
-0.000706737
-0.00127412
-0.00179621
0.000455626
0.00134058
0.00431505
0.00286185
-0.00551469
0.00133447
0.00418022
-0.00125021
-0.00398961
-0.000459918
-0.00133629
-0.00100598
-0.000560698
-0.00129311
-0.000424786
0.00114085
-0.000531343
0.00151287
-0.000981529
-0.00175734
0.00129742
-0.000944229
-0.000207323
0.00115155
0.00217243
-0.00286706
0.000694637
-1.17665e-05
0.000206103
0.00103569
0.00606037
-0.00140867
-0.00465171
-0.00203418
-0.00187306
0.00134529
0.000527778
0.0012715
-0.000979358
-0.00029214
-0.0022977
-0.0010201
0.00331781
-0.00267493
0.00357994
-0.000905012
-0.000917817
0.00112196
1.75293e-05
-0.00113949
0.00376093
-0.00493434
0.0011734
0.00174772
-0.00135578
-0.000391936
0.00242707
-0.00122487
0.00273435
-0.000635937
-0.00019172
-0.00409005
0.00229873
-0.00180237
-0.000496361
0.000560224
-0.00200936
0.00144913
-0.00251727
-0.000838006
0.000860464
-0.00065903
-0.000201434
-0.000179754
-0.00364123
0.000966291
0.000672413
-0.000456142
0.00259292
0.000987023
0.000318713
0.0013085
0.000672365
-0.00160397
0.00233664
-0.00150865
0.00100059
0.000508061
0.00354298
-0.000676173
-0.00381003
0.00610278
-0.00114537
-0.00248868
0.00683078
-0.00434209
-0.000886457
0.00356796
-0.00414181
0.000932298
-0.00210105
0.00424921
-0.00068123
-0.00162693
-0.00244865
0.00171789
0.000730767
-0.00127819
0.000636383
-0.000623915
-1.2467e-05
-0.00137661
-0.00077662
-0.000153532
0.000930153
-0.00156829
0.00136785
0.000200437
0.00204159
0.00080154
6.25305e-05
-0.00129991
-0.000548486
-0.000837219
-0.00241696
-0.000474094
-0.00139897
-0.000171129
0.00159229
-0.000180652
0.00341067
-0.000513664
0.00133869
0.000199807
-0.000778248
-0.00103144
-0.00193026
0.00247681
-0.000546549
-0.00105206
-0.00572891
0.00351082
0.00151012
-0.00064683
0.00288985
-0.00120675
0.000954959
-0.0013592
-0.00453061
0.00588981
0.000620006
-0.00255027
0.000739922
-0.00368537
0.00270074
0.000984631
0.000894895
-0.00142624
0.00223026
-0.00311763
0.000887362
0.00119433
-0.00342923
0.0022349
0.000860254
0.00168853
-0.00254878
-0.00017441
0.00179292
0.00274835
0.00108175
0.00361649
-0.000413521
0.000783015
0.00315901
-0.00402309
0.000977215
-0.00327491
0.000433868
0.00412482
0.00148254
-1.0261e-05
-0.000276582
0.000286842
-0.00619236
0.00385665
0.00233572
-0.000824824
-0.00261713
0.00344196
0.00263995
-0.0017797
-0.00369602
0.000892715
-0.00132177
-0.000435569
-0.000152724
0.00131948
0.00372328
0.00122322
0.000224527
0.00130963
-0.000993828
-0.000315803
0.000938892
0.000571232
-0.000313871
0.00376833
-0.0049323
0.00116397
0.00307634
-0.000846092
-0.0013991
0.0019036
0.00125949
-0.0035533
0.00229381
-0.00116601
0.00145663
0.000678163
-0.00213479
0.000192924
-0.000203186
0.00219885
-0.000861837
-0.00125792
0.000330273
0.000929245
-0.00035523
-0.000574015
0.00353174
-0.00227225
-0.000504213
0.00229234
-0.00178813
0.00102049
-0.00296549
0.00209048
0.00087502
0.000106695
-9.75799e-07
0.00466095
0.000540626
-0.00569922
-0.00519288
0.00392646
0.00126643
-0.00107558
-0.00269541
0.00377098
0.00222132
0.00372512
0.00282804
-0.00375282
0.000924782
-0.00147095
0.0011035
-0.000944357
0.00336993
-0.00242558
0.00149739
0.000561986
-0.00378512
-0.00240725
0.00106877
-0.00230539
0.00321099
-0.000905603
0.00342685
-0.000816185
0.000396095
-0.000802892
0.00254521
0.000881633
-0.000634893
0.00431064
-0.00130976
0.00171664
-0.00040688
0.00198392
-0.00128427
-0.000389197
0.00607684
-0.00491317
-0.000460769
0.000858239
-0.0024622
-0.00539147
-0.00172303
0.000413273
-0.00067816
0.000101833
-0.000867965
0.000213655
-0.00147109
0.000658063
0.00157887
-0.000905407
0.000135217
0.000804751
0.00251628
-0.00332104
-0.00109511
0.0018737
-0.00194705
-0.000474105
0.00196123
-0.00148712
-0.00087365
-0.00209183
-0.00195178
0.00147768
-0.00265779
0.00346254
-0.00164419
0.000575542
0.00106864
-0.000975572
0.00356849
0.00599633
-0.00229741
-0.00130403
-0.000419003
-0.00174251
0.00110659
0.000635922
0.000903176
-0.00451813
0.00361496
-0.00131713
0.000546426
0.000770698
-0.00403431
-0.00115857
0.000191879
-0.00113611
0.00193476
-0.000704387
-0.0013405
-0.00380085
0.00514135
0.00100321
7.31636e-05
0.00329686
-0.00252828
-0.000768577
0.000183938
0.00125553
0.000877228
-0.000670573
-0.000206655
-0.00134869
-0.00101457
-0.0010705
0.00510044
-0.00402993
0.000631466
-0.00249672
0.000170578
0.00124453
0.00377248
-0.00495959
0.00118711
0.00287563
-0.0020559
0.000102062
-0.000168434
6.63722e-05
0.00102744
0.00013807
0.000104265
0.00235871
0.00370166
-0.000589163
-0.000808516
0.00139768
0.000652318
0.00177216
-0.00242448
0.00239808
-0.00171151
-0.000686568
0.000475405
0.00147361
0.000425951
-0.000512509
-0.000804616
0.000600281
-0.00532432
0.000690299
-2.97411e-05
-0.00115982
-0.00130724
-0.00378981
0.00509705
0.00103358
0.00143747
-0.00189556
0.00254677
-0.000395077
-0.00490892
0.005304
0.000120827
-1.87653e-05
0.000644348
0.00129041
0.00272965
0.000941069
-0.00367072
0.00137559
0.000471367
0.00258737
-0.00364143
0.00454461
0.00277423
0.00084324
-0.00361747
0.00164211
-0.000846248
-0.000795859
0.00132918
-0.00101981
-0.000309377
0.000423525
0.00105853
-0.00469996
0.000218197
-6.68127e-06
0.000199605
0.00602729
-0.00129325
0.0015266
-0.00212886
0.00252243
-0.00182787
-0.000694562
0.00085475
-0.00254554
0.00169079
0.00523513
-0.00281744
-0.000924465
-0.0015939
0.00500955
0.00148596
-0.00178138
0.000295419
0.000499865
-0.000103749
-0.000396114
-0.000991805
-0.0031409
0.00413271
0.000742441
0.0018198
-0.00256224
0.00176748
-0.00028152
0.00225028
0.00141107