/*--------------------------------*- C++ -*----------------------------------*\
  =========                 |
  \\      /  F ield         | OpenFOAM: The Open Source CFD Toolbox
   \\    /   O peration     | Website:  https://openfoam.org
    \\  /    A nd           | Version:  7
     \\/     M anipulation  |
\*---------------------------------------------------------------------------*/
FoamFile
{
    version     2.0;
    format      ascii;
    class       volScalarField;
    location    "20";
    object      p;
}
// * * * * * * * * * * * * * * * * * * * * * * * * * * * * * * * * * * * * * //

dimensions      [0 2 -2 0 0 0 0];

internalField   nonuniform List<scalar> 
607
(
0.00621173
0.00624023
0.00629828
0.00637528
0.00648815
0.00660554
0.00678399
0.00693145
0.00720117
0.00735946
0.00776727
0.00790112
0.00852123
0.00858604
0.00949138
0.00949788
0.0106781
0.0107569
0.012138
0.0124535
0.0140311
0.0147072
0.00621169
0.00624019
0.00629824
0.00637524
0.00648811
0.00660552
0.00678395
0.00693145
0.00720111
0.00735951
0.00776714
0.00790128
0.00852098
0.00858635
0.009491
0.00949827
0.0106776
0.0107573
0.0121374
0.0124536
0.0140304
0.0147067
0.00621161
0.00624011
0.00629816
0.00637517
0.00648803
0.00660547
0.00678386
0.00693144
0.00720098
0.00735962
0.00776688
0.00790162
0.00852047
0.00858696
0.00949024
0.00949905
0.0106766
0.010758
0.0121361
0.0124539
0.0140289
0.0147059
0.00621149
0.00624
0.00629804
0.00637507
0.00648791
0.00660539
0.00678373
0.00693144
0.00720079
0.00735978
0.0077665
0.00790212
0.00851972
0.00858788
0.0094891
0.00950022
0.0106752
0.0107592
0.0121343
0.0124544
0.0140267
0.0147045
0.00621134
0.00623985
0.00629789
0.00637493
0.00648776
0.00660529
0.00678355
0.00693143
0.00720053
0.00736
0.00776599
0.00790277
0.00851873
0.00858909
0.0094876
0.00950176
0.0106733
0.0107607
0.0121319
0.012455
0.0140238
0.0147027
0.00621114
0.00623966
0.00629769
0.00637476
0.00648756
0.00660517
0.00678334
0.00693142
0.00720022
0.00736026
0.00776536
0.00790359
0.00851749
0.0085906
0.00948573
0.00950368
0.0106709
0.0107626
0.0121289
0.0124558
0.0140202
0.0147006
0.00621091
0.00623943
0.00629746
0.00637455
0.00648733
0.00660502
0.00678308
0.00693141
0.00719984
0.00736058
0.00776461
0.00790457
0.00851602
0.0085924
0.00948351
0.00950597
0.010668
0.0107648
0.0121253
0.0124568
0.0140158
0.014698
0.00621064
0.00623916
0.00629719
0.00637431
0.00648705
0.00660484
0.00678278
0.0069314
0.0071994
0.00736094
0.00776374
0.00790569
0.00851433
0.00859447
0.00948094
0.00950861
0.0106648
0.0107674
0.0121212
0.0124579
0.0140107
0.014695
0.00621032
0.00623886
0.00629687
0.00637403
0.00648674
0.00660464
0.00678244
0.00693138
0.00719891
0.00736135
0.00776277
0.00790695
0.00851242
0.00859682
0.00947805
0.00951159
0.0106611
0.0107703
0.0121165
0.0124592
0.0140048
0.0146917
0.00620997
0.00623852
0.00629653
0.00637372
0.00648639
0.00660442
0.00678205
0.00693136
0.00719836
0.0073618
0.00776169
0.00790836
0.00851031
0.00859942
0.00947484
0.00951491
0.0106569
0.0107736
0.0121112
0.0124606
0.0139982
0.0146881
0.00620958
0.00623814
0.00629614
0.00637338
0.006486
0.00660417
0.00678163
0.00693134
0.00719775
0.00736229
0.00776051
0.00790989
0.008508
0.00860228
0.00947133
0.00951855
0.0106524
0.0107772
0.0121054
0.0124622
0.0139909
0.0146842
0.00620916
0.00623772
0.00629571
0.006373
0.00648558
0.00660389
0.00678116
0.00693131
0.00719709
0.00736283
0.00775923
0.00791156
0.00850551
0.00860537
0.00946754
0.00952249
0.0106476
0.0107811
0.0120991
0.012464
0.0139828
0.0146799
0.00620869
0.00623726
0.00629525
0.00637259
0.00648511
0.0066036
0.00678066
0.00693127
0.00719638
0.0073634
0.00775786
0.00791333
0.00850285
0.00860868
0.00946348
0.00952673
0.0106424
0.0107852
0.0120923
0.012466
0.013974
0.0146755
0.00620819
0.00623677
0.00629474
0.00637214
0.00648461
0.00660327
0.00678012
0.00693123
0.00719563
0.007364
0.00775642
0.00791522
0.00850003
0.00861221
0.00945918
0.00620764
0.00623624
0.00620819
0.00623677
0.00629475
0.00637214
0.00648462
0.00660327
0.00678012
0.00693124
0.00719563
0.00736401
0.00775642
0.00791522
0.00850004
0.00861221
0.00945919
0.00953124
0.0106369
0.0107897
0.00620869
0.00623726
0.00629525
0.00637259
0.00648512
0.0066036
0.00678066
0.00693128
0.00719639
0.0073634
0.00775787
0.00791334
0.00850285
0.00860869
0.00946349
0.00952673
0.0106424
0.0107853
0.0120924
0.012466
0.0139741
0.0146755
0.00620916
0.00623772
0.00629571
0.006373
0.00648558
0.0066039
0.00678117
0.00693131
0.0071971
0.00736283
0.00775923
0.00791156
0.00850551
0.00860537
0.00946755
0.0095225
0.0106476
0.0107811
0.0120991
0.012464
0.0139828
0.01468
0.00620959
0.00623814
0.00629614
0.00637338
0.00648601
0.00660417
0.00678163
0.00693134
0.00719776
0.0073623
0.00776051
0.0079099
0.008508
0.00860228
0.00947134
0.00951856
0.0106525
0.0107772
0.0121054
0.0124622
0.0139909
0.0146842
0.00620998
0.00623852
0.00629653
0.00637372
0.00648639
0.00660442
0.00678206
0.00693136
0.00719836
0.0073618
0.00776169
0.00790836
0.00851031
0.00859943
0.00947485
0.00951492
0.010657
0.0107736
0.0121112
0.0124606
0.0139982
0.0146881
0.00621033
0.00623886
0.00629688
0.00637403
0.00648674
0.00660465
0.00678244
0.00693138
0.00719891
0.00736135
0.00776277
0.00790696
0.00851242
0.00859682
0.00947806
0.0095116
0.0106611
0.0107703
0.0121165
0.0124592
0.0140048
0.0146917
0.00621064
0.00623916
0.00629719
0.00637431
0.00648705
0.00660485
0.00678278
0.0069314
0.00719941
0.00736094
0.00776375
0.00790569
0.00851433
0.00859448
0.00948095
0.00950861
0.0106648
0.0107674
0.0121212
0.0124579
0.0140107
0.0146951
0.00621091
0.00623943
0.00629746
0.00637455
0.00648733
0.00660502
0.00678308
0.00693141
0.00719984
0.00736058
0.00776461
0.00790457
0.00851602
0.0085924
0.00948351
0.00950597
0.010668
0.0107648
0.0121254
0.0124568
0.0140158
0.014698
0.00621114
0.00623966
0.00629769
0.00637476
0.00648756
0.00660517
0.00678334
0.00693143
0.00720022
0.00736026
0.00776536
0.0079036
0.00851749
0.0085906
0.00948573
0.00950368
0.0106709
0.0107626
0.0121289
0.0124558
0.0140202
0.0147006
0.00621134
0.00623985
0.00629789
0.00637493
0.00648776
0.0066053
0.00678356
0.00693143
0.00720054
0.00736
0.00776599
0.00790278
0.00851873
0.00858909
0.0094876
0.00950176
0.0106733
0.0107607
0.0121319
0.012455
0.0140238
0.0147028
0.00621149
0.00624
0.00629804
0.00637507
0.00648791
0.0066054
0.00678373
0.00693144
0.00720079
0.00735978
0.0077665
0.00790212
0.00851972
0.00858788
0.00948911
0.00950022
0.0106752
0.0107592
0.0121343
0.0124544
0.0140267
0.0147045
0.00621161
0.00624011
0.00629816
0.00637518
0.00648803
0.00660547
0.00678386
0.00693144
0.00720098
0.00735962
0.00776688
0.00790162
0.00852048
0.00858696
0.00949024
0.00949905
0.0106766
0.010758
0.0121362
0.0124539
0.0140289
0.0147059
0.00621169
0.00624019
0.00629824
0.00637524
0.00648811
0.00660552
0.00678395
0.00693145
0.00720111
0.00735951
0.00776714
0.00790129
0.00852098
0.00858635
0.009491
0.00949827
0.0106776
0.0107573
0.0121374
0.0124536
0.0140304
0.0147068
0.00621173
0.00624023
0.00629828
0.00637528
0.00648815
0.00660554
0.00678399
0.00693145
0.00720117
0.00735946
0.00776727
0.00790112
0.00852123
0.00858604
0.00949138
0.00949788
0.0106781
0.0107569
0.012138
0.0124535
0.0140311
0.0147072
)
;

boundaryField
{
    inlet
    {
        type            zeroGradient;
    }
    outlet
    {
        type            fixedValue;
        value           nonuniform 0();
    }
    cylinder
    {
        type            zeroGradient;
    }
    top
    {
        type            symmetryPlane;
    }
    bottom
    {
        type            symmetryPlane;
    }
    defaultFaces
    {
        type            empty;
    }
    procBoundary24to16
    {
        type            processor;
        value           nonuniform List<scalar> 
23
(
0.00620764
0.00623624
0.00629421
0.00637166
0.00648408
0.00660292
0.00677954
0.00693119
0.00719483
0.00736464
0.0077549
0.00791721
0.00849708
0.00861593
0.00945466
0.009536
0.010631
0.0107944
0.0120851
0.0120851
0.0124681
0.0139646
0.0146708
)
;
    }
    procBoundary24to25
    {
        type            processor;
        value           nonuniform List<scalar> 
26
(
0.0165694
0.0165684
0.0165662
0.016563
0.0165586
0.0165531
0.0165465
0.0165387
0.0165297
0.0165195
0.0165079
0.0164951
0.0164809
0.0164809
0.0164951
0.016508
0.0165195
0.0165297
0.0165387
0.0165465
0.0165531
0.0165586
0.016563
0.0165662
0.0165684
0.0165694
)
;
    }
    procBoundary24to32
    {
        type            processor;
        value           nonuniform List<scalar> 
24
(
0.00953123
0.0106368
0.0107897
0.0120851
0.0124681
0.0139646
0.0146707
0.0062942
0.00637166
0.00648408
0.00660292
0.00677954
0.00693119
0.00719482
0.00736464
0.00775489
0.0079172
0.00849707
0.00861593
0.00953123
0.00945465
0.00620706
0.0062942
0.00623567
)
;
    }
}


// ************************************************************************* //
