/*--------------------------------*- C++ -*----------------------------------*\
  =========                 |
  \\      /  F ield         | OpenFOAM: The Open Source CFD Toolbox
   \\    /   O peration     | Website:  https://openfoam.org
    \\  /    A nd           | Version:  7
     \\/     M anipulation  |
\*---------------------------------------------------------------------------*/
FoamFile
{
    version     2.0;
    format      ascii;
    class       surfaceScalarField;
    location    "20";
    object      phi;
}
// * * * * * * * * * * * * * * * * * * * * * * * * * * * * * * * * * * * * * //

dimensions      [0 3 -1 0 0 0 0];

internalField   nonuniform List<scalar> 
1163
(
0.00978849
-6.5772e-05
-2.20005e-10
0.00985093
-6.24357e-05
-1.75083e-10
0.00991019
-5.92624e-05
-1.28198e-10
0.00996647
-5.6285e-05
-1.05334e-10
0.0100197
-5.32642e-05
-1.09117e-10
0.0100704
-5.06255e-05
-1.37747e-10
0.0101179
-4.75851e-05
-1.70316e-10
0.0101635
-4.55559e-05
-2.06232e-10
0.0102058
-4.23271e-05
-2.1721e-10
0.0102466
-4.07325e-05
-2.55321e-10
0.0102848
-3.82003e-05
-2.23501e-10
0.0103194
-3.46754e-05
-2.96843e-10
0.0103558
-3.63309e-05
-2.15767e-10
0.010383
-2.72086e-05
-3.26892e-10
0.0104173
-3.42787e-05
-2.29659e-10
0.0104394
-2.21592e-05
-3.59601e-10
0.0104687
-2.92901e-05
-1.99629e-10
0.0104865
-1.77887e-05
-5.02583e-10
0.0105121
-2.56258e-05
-1.19368e-10
0.0105235
-1.13516e-05
-5.64935e-10
0.0105446
-2.11448e-05
-3.02492e-10
-5.36186e-06
-4.13251e-10
0.00978823
-0.000131289
0.00985043
-0.000124628
0.00990946
-0.000118293
0.00996552
-0.000112349
0.0100186
-0.000106318
0.010069
-0.00010105
0.0101164
-9.4979e-05
0.0101618
-9.09291e-05
0.0102039
-8.44796e-05
0.0102445
-8.13018e-05
0.0102825
-7.62367e-05
0.0103171
-6.92092e-05
0.0103532
-7.25079e-05
0.0103803
-5.42882e-05
0.0104145
-6.8421e-05
0.0104365
-4.42012e-05
0.0104657
-5.84468e-05
0.0104833
-3.54821e-05
0.0105089
-5.11286e-05
0.0105201
-2.26096e-05
0.0105411
-4.21791e-05
-1.06407e-05
0.00978772
-0.000196295
0.00984943
-0.000186334
0.009908
-0.000176859
0.00996362
-0.00016797
0.0100162
-0.00015895
0.0100663
-0.000151071
0.0101133
-0.00014199
0.0101583
-0.000135937
0.0102001
-0.000126282
0.0102403
-0.000121544
0.010278
-0.000113945
0.0103123
-0.000103459
0.0103482
-0.000108377
0.010375
-8.11095e-05
0.0104089
-0.00010229
0.0104307
-6.60081e-05
0.0104595
-8.73368e-05
0.0104771
-5.29838e-05
0.0105023
-7.63851e-05
0.0105134
-3.36791e-05
0.0105342
-6.29922e-05
-1.5753e-05
0.00978696
-0.000260537
0.00984793
-0.00024731
0.00990581
-0.00023473
0.00996076
-0.000222928
0.0100128
-0.00021095
0.0100622
-0.000200489
0.0101086
-0.000188428
0.0101531
-0.000180396
0.0101944
-0.000167561
0.0102341
-0.000161297
0.0102713
-0.000151161
0.0103052
-0.000137284
0.0103406
-0.000143784
0.010367
-0.000107543
0.0104005
-0.000135751
0.0104219
-8.74622e-05
0.0104504
-0.000115827
0.0104676
-7.01982e-05
0.0104925
-0.000101272
0.0105033
-4.4466e-05
0.0105238
-8.34737e-05
-2.06158e-05
0.00978594
-0.000323758
0.00984594
-0.000307314
0.00990289
-0.000291675
0.00995696
-0.000277001
0.0100081
-0.000262108
0.0100567
-0.000249103
0.0101024
-0.000234101
0.0101461
-0.000224124
0.0101867
-0.000208141
0.0102258
-0.000200397
0.0102624
-0.000187722
0.0102956
-0.000170542
0.0103304
-0.000178575
0.0103563
-0.000133461
0.0103893
-0.000168666
0.0104102
-0.000108446
0.0104382
-0.000143785
0.010455
-8.70294e-05
0.0104794
-0.000125667
0.0104898
-5.48764e-05
0.0105099
-0.000103513
-2.51468e-05
0.00978467
-0.000385706
0.00984345
-0.000366103
0.00989924
-0.000347461
0.00995221
-0.00032997
0.0100023
-0.000312213
0.0100499
-0.000296712
0.0100946
-0.000278818
0.0101375
-0.00026694
0.0101772
-0.00024785
0.0102155
-0.000238682
0.0102512
-0.000223464
0.0102837
-0.000203092
0.0103178
-0.000212597
0.010343
-0.000158734
0.0103753
-0.000200901
0.0103957
-0.00012884
0.010423
-0.00017108
0.0104393
-0.000103382
0.0104631
-0.000149447
0.010473
-6.48163e-05
0.0104925
-0.000123
-2.92644e-05
0.00978314
-0.000446126
0.00984047
-0.000423435
0.00989487
-0.000401859
0.00994651
-0.000381615
0.00999536
-0.000361058
0.0100418
-0.000343115
0.0100853
-0.000322391
0.0101271
-0.000308661
0.0101657
-0.000286512
0.010203
-0.000275987
0.0102378
-0.000258225
0.0102695
-0.000234791
0.0103026
-0.000245697
0.0103271
-0.000183234
0.0103585
-0.000232321
0.0103782
-0.000148527
0.0104047
-0.00019758
0.0104205
-0.00011916
0.0104435
-0.000172488
0.0104529
-7.4192e-05
0.0104717
-0.000141826
-3.28876e-05
0.00978136
-0.000504765
0.00983699
-0.00047907
0.00988977
-0.000454639
0.00993987
-0.000431716
0.00998725
-0.000408432
0.0100322
-0.000388114
0.0100745
-0.000364629
0.0101149
-0.000349106
0.0101524
-0.000323955
0.0101885
-0.000312152
0.0102222
-0.000291844
0.0102529
-0.000265499
0.0102849
-0.000277723
0.0103085
-0.000206832
0.010339
-0.000262791
0.0103578
-0.000167388
0.0103834
-0.000223156
0.0103985
-0.000134268
0.0104207
-0.000194668
0.0104294
-8.29099e-05
0.0104475
-0.000159881
-3.59364e-05
0.00977932
-0.000561372
0.00983302
-0.000532767
0.00988395
-0.000505571
0.00993229
-0.000480055
0.00997799
-0.000454127
0.0100214
-0.00043151
0.0100621
-0.000405343
0.0101011
-0.000388094
0.0101371
-0.000360008
0.010172
-0.000347012
0.0102043
-0.000324159
0.0102339
-0.000295075
0.0102647
-0.000308522
0.0102873
-0.000229401
0.0103166
-0.000292177
0.0103346
-0.000185303
0.0103591
-0.000247679
0.0103734
-0.00014861
0.0103946
-0.000215864
0.0104026
-9.08765e-05
0.0104198
-0.000177056
-3.83315e-05
0.00977704
-0.000615693
0.00982856
-0.000584285
0.00987741
-0.000554426
0.00992377
-0.000526412
0.00996758
-0.000497935
0.0100092
-0.000473103
0.0100482
-0.000444344
0.0100855
-0.000425445
0.01012
-0.000394498
0.0101534
-0.000380407
0.0101843
-0.000355009
0.0102126
-0.000323377
0.010242
-0.000337943
0.0102634
-0.000250814
0.0102916
-0.000320346
0.0103084
-0.000202152
0.0103318
-0.000271022
0.0103452
-0.000162091
0.0103653
-0.000235954
0.0103724
-9.79986e-05
0.0103886
-0.000193244
-3.99948e-05
0.0097745
-0.00066748
0.0098236
-0.000633385
0.00987016
-0.000600977
0.00991432
-0.000570572
0.00995603
-0.00053965
0.00999562
-0.000512696
0.0100327
-0.000481444
0.0100683
-0.000460978
0.010101
-0.000427254
0.0101328
-0.000412174
0.010162
-0.000384237
0.0101889
-0.000350264
0.0102168
-0.000365835
0.0102369
-0.000270943
0.0102637
-0.000347166
0.0102794
-0.000217815
0.0103014
-0.000293061
0.010314
-0.000174614
0.0103328
-0.000254813
0.010339
-0.000104183
0.0103541
-0.000208337
-4.08491e-05
0.00977172
-0.000716481
0.00981816
-0.00067983
0.00986218
-0.000644997
0.00990393
-0.000612317
0.00994334
-0.000579064
0.00998074
-0.000550093
0.0100158
-0.000516457
0.0100493
-0.000494514
0.0100801
-0.000458105
0.0101101
-0.000442152
0.0101376
-0.000411683
0.0101629
-0.000375595
0.0101891
-0.000392048
0.0102078
-0.000289664
0.0102332
-0.000372505
0.0102475
-0.000232171
0.0102681
-0.00031367
0.0102796
-0.000186084
0.0102971
-0.00027232
0.0103023
-0.000109338
0.0103162
-0.000222229
-4.08181e-05
0.00976869
-0.000762449
0.00981224
-0.000723383
0.0098535
-0.00068626
0.00989262
-0.000651432
0.00992952
-0.000615973
0.00996453
-0.000585096
0.00999727
-0.000549196
0.0100286
-0.000525875
0.0100574
-0.000486884
0.0100854
-0.00047018
0.0101109
-0.00043719
0.0101346
-0.00039923
0.010159
-0.000416432
0.0101761
-0.000306849
0.0101999
-0.000396232
0.0102128
0.0102319
0.0102422
0.0102582
0.0102622
0.0102748
0.0097654
-0.000805135
0.00980583
-0.000763807
0.00984411
0.00988038
0.00991458
0.00994699
0.00997727
0.0100063
0.0100328
0.0100587
0.0100821
0.0101039
0.0101264
0.0101419
0.00976188
0.0097654
0.000762449
0.00980583
0.000723383
0.00984411
0.00068626
0.00988038
0.000651432
0.00991458
0.000615973
0.00994699
0.000585097
0.00997727
0.000549196
0.0100063
0.000525876
0.0100328
0.000486885
0.0100587
0.00047018
0.0100821
0.000437191
0.0101039
0.000399231
0.0101264
0.000416433
0.0101419
0.00030685
0.0101639
0.000396233
0.0101752
0.0002451
0.0101926
0.000332729
0.000196405
0.00976869
0.000716482
0.00981224
0.000679831
0.0098535
0.000644997
0.00989262
0.000612317
0.00992952
0.000579064
0.00996453
0.000550093
0.00999727
0.000516457
0.0100286
0.000494515
0.0100574
0.000458106
0.0100854
0.000442153
0.0101109
0.000411683
0.0101346
0.000375596
0.010159
0.000392048
0.0101761
0.000289664
0.0101999
0.000372506
0.0102128
0.000232172
0.0102319
0.00031367
0.0102422
0.000186085
0.0102582
0.00027232
0.0102622
0.000109339
0.0102748
0.00022223
4.08189e-05
0.00977172
0.00066748
0.00981816
0.000633386
0.00986218
0.000600977
0.00990393
0.000570572
0.00994334
0.00053965
0.00998074
0.000512696
0.0100158
0.000481444
0.0100493
0.000460978
0.0100801
0.000427254
0.0101101
0.000412175
0.0101376
0.000384238
0.0101629
0.000350264
0.0101891
0.000365835
0.0102078
0.000270944
0.0102332
0.000347166
0.0102475
0.000217816
0.0102681
0.000293061
0.0102796
0.000174615
0.0102971
0.000254813
0.0103023
0.000104184
0.0103162
0.000208337
4.08499e-05
0.0097745
0.000615694
0.0098236
0.000584285
0.00987016
0.000554426
0.00991432
0.000526413
0.00995603
0.000497935
0.00999562
0.000473103
0.0100327
0.000444344
0.0100683
0.000425445
0.010101
0.000394498
0.0101328
0.000380408
0.010162
0.00035501
0.0101889
0.000323377
0.0102168
0.000337943
0.0102369
0.000250814
0.0102637
0.000320347
0.0102794
0.000202153
0.0103014
0.000271023
0.010314
0.000162092
0.0103328
0.000235954
0.010339
9.79997e-05
0.0103541
0.000193244
3.99956e-05
0.00977704
0.000561372
0.00982856
0.000532767
0.00987741
0.000505571
0.00992377
0.000480055
0.00996758
0.000454127
0.0100092
0.00043151
0.0100482
0.000405343
0.0100855
0.000388095
0.01012
0.000360008
0.0101534
0.000347013
0.0101843
0.000324159
0.0102126
0.000295075
0.010242
0.000308522
0.0102634
0.000229402
0.0102916
0.000292177
0.0103084
0.000185304
0.0103318
0.000247679
0.0103452
0.000148611
0.0103653
0.000215865
0.0103724
9.08776e-05
0.0103886
0.000177057
3.83323e-05
0.00977932
0.000504766
0.00983302
0.00047907
0.00988395
0.000454639
0.00993229
0.000431716
0.00997799
0.000408432
0.0100214
0.000388115
0.0100621
0.000364629
0.0101011
0.000349107
0.0101371
0.000323956
0.010172
0.000312152
0.0102043
0.000291844
0.0102339
0.0002655
0.0102647
0.000277723
0.0102873
0.000206832
0.0103166
0.000262791
0.0103346
0.000167389
0.0103591
0.000223156
0.0103734
0.000134269
0.0103946
0.000194669
0.0104026
8.2911e-05
0.0104198
0.000159882
3.59372e-05
0.00978136
0.000446126
0.00983699
0.000423436
0.00988977
0.000401859
0.00993987
0.000381615
0.00998725
0.000361058
0.0100322
0.000343115
0.0100745
0.000322391
0.0101149
0.000308662
0.0101524
0.000286512
0.0101885
0.000275988
0.0102222
0.000258226
0.0102529
0.000234792
0.0102849
0.000245698
0.0103085
0.000183234
0.010339
0.000232321
0.0103578
0.000148528
0.0103834
0.00019758
0.0103985
0.000119161
0.0104207
0.000172489
0.0104294
7.41931e-05
0.0104475
0.000141827
3.28885e-05
0.00978314
0.000385706
0.00984047
0.000366103
0.00989487
0.000347461
0.00994651
0.000329971
0.00999536
0.000312214
0.0100418
0.000296712
0.0100853
0.000278819
0.0101271
0.000266941
0.0101657
0.00024785
0.010203
0.000238682
0.0102378
0.000223464
0.0102695
0.000203092
0.0103026
0.000212597
0.0103271
0.000158735
0.0103585
0.000200902
0.0103782
0.000128841
0.0104047
0.00017108
0.0104205
0.000103383
0.0104435
0.000149447
0.0104529
6.48174e-05
0.0104717
0.000123001
2.92653e-05
0.00978467
0.000323759
0.00984345
0.000307314
0.00989924
0.000291675
0.00995221
0.000277001
0.0100023
0.000262108
0.0100499
0.000249103
0.0100946
0.000234101
0.0101375
0.000224125
0.0101772
0.000208142
0.0102155
0.000200398
0.0102512
0.000187722
0.0102837
0.000170543
0.0103178
0.000178575
0.010343
0.000133462
0.0103753
0.000168667
0.0103957
0.000108446
0.010423
0.000143786
0.0104393
8.70304e-05
0.0104631
0.000125668
0.010473
5.48775e-05
0.0104925
0.000103514
2.51477e-05
0.00978594
0.000260537
0.00984594
0.00024731
0.00990289
0.000234731
0.00995696
0.000222928
0.0100081
0.00021095
0.0100567
0.00020049
0.0101024
0.000188428
0.0101461
0.000180396
0.0101867
0.000167562
0.0102258
0.000161298
0.0102624
0.000151161
0.0102956
0.000137285
0.0103304
0.000143784
0.0103563
0.000107544
0.0103893
0.000135751
0.0104102
8.7463e-05
0.0104382
0.000115828
0.010455
7.01992e-05
0.0104794
0.000101273
0.0104898
4.44671e-05
0.0105099
8.34743e-05
2.06166e-05
0.00978696
0.000196296
0.00984793
0.000186334
0.00990581
0.00017686
0.00996076
0.00016797
0.0100128
0.00015895
0.0100622
0.000151072
0.0101086
0.00014199
0.0101531
0.000135937
0.0101944
0.000126283
0.0102341
0.000121545
0.0102713
0.000113945
0.0103052
0.00010346
0.0103406
0.000108377
0.010367
8.11101e-05
0.0104005
0.000102291
0.0104219
6.60089e-05
0.0104504
8.73372e-05
0.0104676
5.29848e-05
0.0104925
7.63854e-05
0.0105033
3.36802e-05
0.0105238
6.29928e-05
1.57538e-05
0.00978772
0.000131289
0.00984943
0.000124628
0.009908
0.000118293
0.00996362
0.000112349
0.0100162
0.000106318
0.0100663
0.00010105
0.0101133
9.49793e-05
0.0101583
9.09295e-05
0.0102001
8.448e-05
0.0102403
8.13023e-05
0.010278
7.62371e-05
0.0103123
6.92098e-05
0.0103482
7.25084e-05
0.010375
5.42889e-05
0.0104089
6.84214e-05
0.0104307
4.42019e-05
0.0104595
5.84472e-05
0.0104771
3.54831e-05
0.0105023
5.11288e-05
0.0105134
2.26107e-05
0.0105342
4.21797e-05
1.06415e-05
0.00978823
6.57725e-05
0.00985043
6.2436e-05
0.00990946
5.92626e-05
0.00996552
5.62852e-05
0.0100186
5.32644e-05
0.010069
5.06258e-05
0.0101164
4.75855e-05
0.0101618
4.55563e-05
0.0102039
4.23276e-05
0.0102445
4.0733e-05
0.0102825
3.82008e-05
0.0103171
3.4676e-05
0.0103532
3.63314e-05
0.0103803
2.72092e-05
0.0104145
3.42791e-05
0.0104365
2.21599e-05
0.0104657
2.92905e-05
0.0104833
1.77897e-05
0.0105089
2.56261e-05
0.0105201
1.13528e-05
0.0105411
2.11454e-05
5.36268e-06
0.00978849
0.00985093
0.00991019
0.00996647
0.0100197
0.0100704
0.0101179
0.0101635
0.0102058
0.0102466
0.0102848
0.0103194
0.0103558
0.010383
0.0104173
0.0104394
0.0104687
0.0104865
0.0105121
0.0105235
0.0105446
)
;

boundaryField
{
    inlet
    {
        type            calculated;
        value           uniform -0.00972272;
    }
    outlet
    {
        type            calculated;
        value           nonuniform 0();
    }
    cylinder
    {
        type            calculated;
        value           nonuniform 0();
    }
    top
    {
        type            symmetryPlane;
        value           nonuniform 0();
    }
    bottom
    {
        type            symmetryPlane;
        value           nonuniform 0();
    }
    defaultFaces
    {
        type            empty;
        value           nonuniform 0();
    }
    procBoundary24to16
    {
        type            processor;
        value           nonuniform List<scalar> 
23
(
-0.000805136
-0.000763807
-0.00072454
-0.000687703
-0.000650173
-0.000617512
-0.000579475
-0.000554884
-0.000513422
-0.000496096
-0.000460604
-0.00042103
-0.000438841
-0.000322375
-0.000418217
-0.000256477
-0.000350118
-0.000205479
0.0102017
-0.000288353
-0.000113371
-0.000234816
-3.98272e-05
)
;
    }
    procBoundary24to25
    {
        type            processor;
        value           nonuniform List<scalar> 
26
(
0.01055
0.0105464
0.0105393
0.0105286
0.0105144
0.0104966
0.0104753
0.0104505
0.0104222
0.0103903
0.010355
0.0103161
0.0102738
0.0102738
0.0103161
0.010355
0.0103903
0.0104222
0.0104505
0.0104753
0.0104966
0.0105144
0.0105286
0.0105393
0.0105464
0.01055
)
;
    }
    procBoundary24to32
    {
        type            processor;
        value           nonuniform List<scalar> 
24
(
-0.000245099
-0.000332729
-0.000196404
-0.000288353
-0.00011337
-0.000234816
-3.98264e-05
-0.00072454
-0.000687703
-0.000650173
-0.000617512
-0.000579475
-0.000554883
-0.000513422
-0.000496096
-0.000460603
-0.000421029
-0.00043884
-0.000322374
0.0101639
-0.000418217
-0.000844294
0.00979894
-0.000800868
)
;
    }
}


// ************************************************************************* //
