/*--------------------------------*- C++ -*----------------------------------*\
  =========                 |
  \\      /  F ield         | OpenFOAM: The Open Source CFD Toolbox
   \\    /   O peration     | Website:  https://openfoam.org
    \\  /    A nd           | Version:  7
     \\/     M anipulation  |
\*---------------------------------------------------------------------------*/
FoamFile
{
    version     2.0;
    format      ascii;
    class       volScalarField;
    location    "0.287";
    object      p;
}
// * * * * * * * * * * * * * * * * * * * * * * * * * * * * * * * * * * * * * //

dimensions      [0 2 -2 0 0 0 0];

internalField   nonuniform List<scalar> 
40000
(
1.85648e-06
9.53892e-05
0.00015507
0.000139475
3.36091e-05
-0.000167001
-0.000460293
-0.000840509
-0.0013002
-0.0018313
-0.00242573
-0.00307558
-0.00377327
-0.00451156
-0.00528368
-0.0060832
-0.00690417
-0.00774101
-0.00858849
-0.00944174
-0.0102962
-0.0111477
-0.0119922
-0.0128261
-0.0136459
-0.0144485
-0.0152309
-0.0159904
-0.0167244
-0.0174305
-0.0181066
-0.0187507
-0.0193608
-0.0199352
-0.0204725
-0.020971
-0.0214296
-0.021847
-0.0222221
-0.0225541
-0.0228419
-0.0230849
-0.0232824
-0.0234338
-0.0235386
-0.0235963
-0.0236068
-0.0235696
-0.0234847
-0.0233518
-0.0231711
-0.0229424
-0.0226659
-0.0223416
-0.0219699
-0.0215509
-0.0210849
-0.0205724
-0.0200137
-0.0194092
-0.0187595
-0.018065
-0.0173265
-0.0165444
-0.0157194
-0.0148524
-0.0139438
-0.0129947
-0.0120057
-0.0109777
-0.00991151
-0.00880809
-0.00766836
-0.00649327
-0.00528381
-0.00404099
-0.00276584
-0.00145942
-0.000122836
0.00124282
0.0026364
0.00405677
0.00550273
0.0069731
0.00846666
0.00998218
0.0115184
0.0130741
0.0146479
0.0162385
0.0178447
0.0194651
0.0210984
0.0227431
0.024398
0.0260617
0.0277327
0.0294097
0.0310913
0.032776
0.0344625
0.0361492
0.0378349
0.039518
0.0411971
0.0428708
0.0445377
0.0461962
0.047845
0.0494826
0.0511076
0.0527186
0.0543141
0.0558928
0.0574531
0.0589939
0.0605135
0.0620108
0.0634843
0.0649326
0.0663546
0.0677487
0.0691138
0.0704486
0.0717519
0.0730224
0.0742589
0.0754602
0.0766253
0.077753
0.0788422
0.079892
0.0809012
0.0818689
0.0827943
0.0836763
0.0845142
0.0853072
0.0860545
0.0867553
0.0874092
0.0880154
0.0885734
0.0890828
0.089543
0.0899538
0.0903148
0.0906258
0.0908866
0.0910972
0.0912575
0.0913675
0.0914274
0.0914374
0.0913977
0.0913089
0.0911712
0.0909853
0.0907518
0.0904716
0.0901453
0.089774
0.0893588
0.0889008
0.0884013
0.0878617
0.0872836
0.0866686
0.0860186
0.0853355
0.0846213
0.0838784
0.0831092
0.0823162
0.0815022
0.0806702
0.0798234
0.078965
0.0780987
0.0772284
0.076358
0.0754919
0.0746348
0.0737916
0.0729675
0.0721681
0.0713992
0.0706672
0.0699787
0.0693406
0.0687603
0.0682453
0.0678032
0.0674412
0.0671662
0.0669829
0.0668923
0.0668885
0.0669548
0.0670482
-8.91074e-05
3.33304e-06
3.91728e-05
2.41591e-06
-0.000110623
-0.000304064
-0.000577756
-0.000928157
-0.00134996
-0.00183696
-0.00238255
-0.00298005
-0.00362289
-0.00430467
-0.00501924
-0.00576076
-0.00652367
-0.00730276
-0.00809312
-0.00889012
-0.00968944
-0.010487
-0.011279
-0.0120619
-0.0128323
-0.0135872
-0.0143237
-0.0150391
-0.0157308
-0.0163966
-0.0170343
-0.0176418
-0.0182174
-0.0187592
-0.0192658
-0.0197357
-0.0201676
-0.0205603
-0.0209127
-0.0212238
-0.0214927
-0.0217187
-0.021901
-0.0220391
-0.0221325
-0.0221806
-0.0221833
-0.0221401
-0.0220509
-0.0219155
-0.0217339
-0.0215061
-0.021232
-0.0209118
-0.0205458
-0.020134
-0.0196769
-0.0191746
-0.0186276
-0.0180363
-0.0174012
-0.0167227
-0.0160015
-0.015238
-0.014433
-0.0135871
-0.012701
-0.0117754
-0.0108112
-0.00980904
-0.00876986
-0.00769449
-0.00658384
-0.00543883
-0.00426042
-0.00304958
-0.00180733
-0.000534679
0.000767307
0.00209755
0.00345496
0.0048384
0.00624673
0.0076788
0.00913342
0.0106094
0.0121055
0.0136205
0.0151532
0.0167022
0.0182663
0.0198442
0.0214347
0.0230363
0.0246477
0.0262677
0.0278948
0.0295277
0.031165
0.0328053
0.0344473
0.0360896
0.0377308
0.0393695
0.0410043
0.0426337
0.0442565
0.0458711
0.0474762
0.0490704
0.0506524
0.0522206
0.0537738
0.0553106
0.0568295
0.0583293
0.0598086
0.0612661
0.0627005
0.0641104
0.0654946
0.0668517
0.0681807
0.0694801
0.0707489
0.0719859
0.0731898
0.0743596
0.0754942
0.0765925
0.0776534
0.078676
0.0796593
0.0806023
0.0815042
0.0823642
0.0831814
0.083955
0.0846844
0.0853689
0.0860078
0.0866006
0.0871468
0.087646
0.0880977
0.0885016
0.0888574
0.089165
0.0894241
0.0896347
0.0897969
0.0899107
0.0899762
0.0899936
0.0899634
0.0898858
0.0897613
0.0895906
0.0893743
0.0891131
0.088808
0.0884598
0.0880696
0.0876387
0.0871682
0.0866596
0.0861145
0.0855345
0.0849214
0.084277
0.0836035
0.0829032
0.0821782
0.0814313
0.0806651
0.0798825
0.0790865
0.0782805
0.0774678
0.0766523
0.0758377
0.0750284
0.0742285
0.0734429
0.0726764
0.0719343
0.0712219
0.070545
0.0699096
0.0693219
0.0687881
0.0683145
0.0679073
0.067572
0.0673134
0.0671342
0.0670336
0.0670066
0.0670482
0.0671417
-0.000148351
-3.23201e-05
3.556e-06
-3.91091e-05
-0.000152935
-0.000339813
-0.000599448
-0.000928829
-0.0013236
-0.00177858
-0.00228816
-0.00284651
-0.0034478
-0.00408625
-0.00475629
-0.00545252
-0.00616978
-0.00690316
-0.00764804
-0.00840003
-0.00915499
-0.00990902
-0.0106585
-0.0113999
-0.01213
-0.0128459
-0.0135447
-0.0142238
-0.0148807
-0.0155132
-0.016119
-0.0166963
-0.0172432
-0.0177579
-0.018239
-0.0186851
-0.0190947
-0.0194667
-0.0198
-0.0200936
-0.0203466
-0.0205583
-0.0207279
-0.0208548
-0.0209386
-0.0209786
-0.0209747
-0.0209264
-0.0208336
-0.020696
-0.0205137
-0.0202865
-0.0200145
-0.0196978
-0.0193365
-0.0189309
-0.0184811
-0.0179875
-0.0174505
-0.0168703
-0.0162475
-0.0155826
-0.014876
-0.0141283
-0.0133402
-0.0125123
-0.0116452
-0.0107396
-0.00979638
-0.00881622
-0.00779994
-0.0067484
-0.00566245
-0.004543
-0.00339097
-0.00220732
-0.000993025
0.000250922
0.00152349
0.00282363
0.00415027
0.00550231
0.00687865
0.00827814
0.00969964
0.011142
0.012604
0.0140844
0.015582
0.0170956
0.018624
0.0201658
0.0217198
0.0232847
0.0248592
0.026442
0.0280317
0.0296271
0.0312268
0.0328294
0.0344337
0.0360382
0.0376415
0.0392425
0.0408395
0.0424314
0.0440167
0.045594
0.0471621
0.0487194
0.0502648
0.0517968
0.053314
0.0548152
0.056299
0.0577641
0.0592092
0.060633
0.0620341
0.0634114
0.0647636
0.0660895
0.0673878
0.0686573
0.0698969
0.0711055
0.0722818
0.0734249
0.0745337
0.0756071
0.076644
0.0776437
0.0786051
0.0795273
0.0804094
0.0812507
0.0820504
0.0828077
0.083522
0.0841927
0.084819
0.0854006
0.0859368
0.0864274
0.0868719
0.08727
0.0876215
0.0879261
0.0881838
0.0883946
0.0885583
0.0886752
0.0887454
0.0887691
0.0887467
0.0886786
0.0885653
0.0884073
0.0882053
0.0879601
0.0876725
0.0873436
0.0869743
0.0865658
0.0861195
0.0856367
0.085119
0.0845679
0.0839853
0.083373
0.0827331
0.0820677
0.0813792
0.0806701
0.0799429
0.0792006
0.0784461
0.0776825
0.0769133
0.076142
0.0753723
0.0746082
0.073854
0.0731139
0.0723928
0.0716953
0.0710267
0.0703921
0.069797
0.0692469
0.0687474
0.068304
0.0679219
0.0676056
0.0673591
0.0671847
0.0670819
0.0670481
0.0670898
0.067208
-0.000132885
4.52774e-06
4.64931e-05
3.9057e-06
-0.000108365
-0.000289928
-0.000539624
-0.000854206
-0.00122957
-0.00166107
-0.00214367
-0.00267214
-0.0032412
-0.0038456
-0.00448019
-0.00513998
-0.00582017
-0.00651615
-0.00722353
-0.00793817
-0.00865612
-0.00937364
-0.0100872
-0.0107935
-0.0114894
-0.012172
-0.0128386
-0.0134866
-0.0141135
-0.0147172
-0.0152956
-0.0158467
-0.0163686
-0.0168599
-0.0173187
-0.0177439
-0.018134
-0.0184879
-0.0188045
-0.0190828
-0.0193219
-0.019521
-0.0196794
-0.0197965
-0.0198717
-0.0199046
-0.0198948
-0.019842
-0.019746
-0.0196065
-0.0194235
-0.019197
-0.0189268
-0.0186131
-0.0182561
-0.0178559
-0.0174127
-0.0169268
-0.0163986
-0.0158283
-0.0152166
-0.0145637
-0.0138701
-0.0131366
-0.0123635
-0.0115516
-0.0107015
-0.00981379
-0.00888931
-0.00792878
-0.00693298
-0.00590272
-0.00483886
-0.00374226
-0.00261382
-0.00145449
-0.000265194
0.000953076
0.00219932
0.00347253
0.00477164
0.00609558
0.00744328
0.00881362
0.0102055
0.0116177
0.0130491
0.0144986
0.0159649
0.0174468
0.0189432
0.0204527
0.0219741
0.0235061
0.0250475
0.0265971
0.0281534
0.0297152
0.0312812
0.0328501
0.0344206
0.0359912
0.0375608
0.0391279
0.0406913
0.0422496
0.0438014
0.0453454
0.0468803
0.0484048
0.0499175
0.051417
0.0529022
0.0543717
0.0558241
0.0572582
0.0586727
0.0600664
0.061438
0.0627862
0.0641099
0.0654078
0.0666788
0.0679217
0.0691353
0.0703186
0.0714704
0.0725898
0.0736755
0.0747268
0.0757425
0.0767217
0.0776636
0.0785673
0.0794319
0.0802566
0.0810408
0.0817837
0.0824846
0.0831429
0.0837581
0.0843297
0.0848571
0.0853401
0.0857782
0.0861711
0.0865188
0.0868208
0.0870773
0.0872881
0.0874532
0.0875729
0.0876472
0.0876764
0.0876609
0.0876011
0.0874974
0.0873506
0.0871611
0.0869299
0.0866577
0.0863455
0.0859944
0.0856056
0.0851803
0.0847199
0.0842259
0.0836999
0.0831436
0.082559
0.0819479
0.0813127
0.0806554
0.0799786
0.0792848
0.0785767
0.0778574
0.0771297
0.076397
0.0756627
0.0749304
0.0742039
0.0734872
0.0727845
0.0721001
0.0714387
0.0708049
0.0702036
0.0696398
0.0691185
0.0686449
0.0682237
0.0678597
0.0675571
0.0673194
0.0671495
0.0670477
0.0670141
0.0670628
0.0672045
-2.73734e-05
0.000117586
0.000160574
0.000116571
4.33927e-06
-0.000174097
-0.000416807
-0.000720248
-0.0010804
-0.00149294
-0.00195327
-0.00245663
-0.00299819
-0.00357315
-0.00417675
-0.00480439
-0.00545159
-0.00611403
-0.00678759
-0.00746833
-0.00815251
-0.00883656
-0.00951711
-0.010191
-0.0108552
-0.0115068
-0.0121434
-0.0127622
-0.0133611
-0.0139378
-0.0144903
-0.0150167
-0.0155151
-0.015984
-0.0164219
-0.0168273
-0.0171989
-0.0175356
-0.0178362
-0.0180999
-0.0183257
-0.0185128
-0.0186604
-0.0187681
-0.0188352
-0.0188612
-0.0188459
-0.0187888
-0.0186897
-0.0185484
-0.0183648
-0.0181388
-0.0178704
-0.0175597
-0.0172068
-0.0168118
-0.016375
-0.0158966
-0.0153769
-0.0148163
-0.0142152
-0.013574
-0.0128932
-0.0121732
-0.0114148
-0.0106184
-0.00978477
-0.00891445
-0.0080082
-0.00706673
-0.00609081
-0.00508123
-0.00403883
-0.00296443
-0.00185893
-0.000723228
0.000441756
0.00163507
0.00285572
0.00410273
0.00537507
0.00667169
0.00799154
0.00933352
0.0106965
0.0120795
0.0134812
0.0149006
0.0163364
0.0177875
0.0192527
0.0207308
0.0222204
0.0237206
0.0252298
0.026747
0.0282708
0.0298
0.0313333
0.0328694
0.034407
0.0359448
0.0374816
0.0390159
0.0405465
0.0420721
0.0435914
0.0451031
0.0466058
0.0480983
0.0495793
0.0510474
0.0525014
0.0539401
0.0553621
0.0567661
0.058151
0.0595156
0.0608584
0.0621785
0.0634746
0.0647454
0.0659899
0.067207
0.0683954
0.0695542
0.0706823
0.0717786
0.0728422
0.073872
0.0748671
0.0758267
0.0767497
0.0776355
0.0784831
0.0792918
0.080061
0.0807899
0.0814778
0.0821243
0.0827287
0.0832907
0.0838096
0.0842852
0.0847172
0.0851052
0.085449
0.0857486
0.0860038
0.0862146
0.0863811
0.0865033
0.0865816
0.086616
0.0866071
0.0865551
0.0864607
0.0863244
0.0861469
0.0859289
0.0856713
0.0853751
0.0850413
0.084671
0.0842655
0.0838263
0.0833547
0.0828523
0.0823209
0.0817622
0.0811783
0.0805712
0.0799431
0.0792965
0.0786337
0.0779575
0.0772706
0.076576
0.0758769
0.0751765
0.0744783
0.0737859
0.0731031
0.0724338
0.0717822
0.0711525
0.0705492
0.0699767
0.0694397
0.0689428
0.0684905
0.0680874
0.0677377
0.0674455
0.0672142
0.0670471
0.0669456
0.0669111
0.0669624
0.0671144
0.000172659
0.000310986
0.000347726
0.000298542
0.000183206
4.72749e-06
-0.00023441
-0.000530477
-0.000879512
-0.00127743
-0.00171998
-0.00220276
-0.00272135
-0.00327132
-0.00384828
-0.00444796
-0.0050662
-0.00569897
-0.00634239
-0.00699274
-0.00764646
-0.00830018
-0.00895067
-0.00959489
-0.01023
-0.0108532
-0.0114619
-0.0120539
-0.0126267
-0.0131783
-0.0137066
-0.0142099
-0.0146863
-0.0151343
-0.0155524
-0.0159392
-0.0162933
-0.0166138
-0.0168994
-0.0171493
-0.0173625
-0.0175382
-0.0176757
-0.0177744
-0.0178338
-0.0178534
-0.0178327
-0.0177715
-0.0176695
-0.0175265
-0.0173424
-0.017117
-0.0168503
-0.0165425
-0.0161936
-0.0158037
-0.015373
-0.0149018
-0.0143904
-0.0138391
-0.0132483
-0.0126183
-0.0119497
-0.011243
-0.0104987
-0.00971733
-0.00889956
-0.008046
-0.00715734
-0.00623428
-0.00527757
-0.00428797
-0.0032663
-0.00221336
-0.00113002
-1.71549e-05
0.00112433
0.00229352
0.00348944
0.00471113
0.00595758
0.00722779
0.0085207
0.00983527
0.0111704
0.0125251
0.0138981
0.0152883
0.0166947
0.018116
0.019551
0.0209987
0.0224577
0.023927
0.0254052
0.0268911
0.0283835
0.0298812
0.0313828
0.0328872
0.0343931
0.0358992
0.0374041
0.0389068
0.0404058
0.0418999
0.0433878
0.0448682
0.0463398
0.0478015
0.0492518
0.0506896
0.0521136
0.0535226
0.0549152
0.0562903
0.0576466
0.058983
0.0602982
0.0615911
0.0628606
0.0641054
0.0653244
0.0665166
0.0676808
0.068816
0.0699213
0.0709954
0.0720376
0.0730468
0.0740221
0.0749627
0.0758677
0.0767362
0.0775675
0.0783609
0.0791156
0.0798311
0.0805066
0.0811417
0.0817358
0.0822884
0.0827992
0.0832677
0.0836938
0.084077
0.0844172
0.0847144
0.0849683
0.0851791
0.0853468
0.0854714
0.0855533
0.0855927
0.0855899
0.0855454
0.0854597
0.0853334
0.0851671
0.0849616
0.0847177
0.0844365
0.0841189
0.0837661
0.0833792
0.0829598
0.0825091
0.0820289
0.0815206
0.0809862
0.0804274
0.0798465
0.0792454
0.0786266
0.0779924
0.0773454
0.0766883
0.076024
0.0753554
0.0746857
0.0740182
0.0733564
0.0727037
0.072064
0.0714412
0.0708392
0.0702621
0.0697141
0.0691995
0.0687226
0.0682875
0.0678984
0.0675594
0.0672741
0.0670463
0.0668793
0.0667752
0.0667366
0.0667835
0.066932
0.000465236
0.000584681
0.000607765
0.000548787
0.000426434
0.000244193
4.87779e-06
-0.000287734
-0.000629768
-0.00101734
-0.00144648
-0.00191313
-0.00241318
-0.00294254
-0.00349718
-0.00407311
-0.00466645
-0.00527346
-0.00589049
-0.00651403
-0.00714072
-0.00776735
-0.00839087
-0.00900836
-0.00961707
-0.0102144
-0.0107979
-0.0113652
-0.0119141
-0.0124426
-0.0129487
-0.0134306
-0.0138867
-0.0143153
-0.014715
-0.0150844
-0.0154224
-0.0157277
-0.0159993
-0.0162362
-0.0164376
-0.0166027
-0.0167307
-0.0168211
-0.0168732
-0.0168867
-0.0168611
-0.0167961
-0.0166914
-0.0165469
-0.0163622
-0.0161374
-0.0158725
-0.0155675
-0.0152224
-0.0148374
-0.0144126
-0.0139484
-0.0134449
-0.0129024
-0.0123215
-0.0117023
-0.0110455
-0.0103514
-0.00962058
-0.00885361
-0.00805107
-0.00721358
-0.00634179
-0.00543639
-0.0044981
-0.00352767
-0.00252588
-0.00149353
-0.000431446
0.000659506
0.00177845
0.00292448
0.00409666
0.00529405
0.00651566
0.00776051
0.00902758
0.0103158
0.0116242
0.0129517
0.0142971
0.0156594
0.0170375
0.0184302
0.0198364
0.0212549
0.0226845
0.0241241
0.0255724
0.0270284
0.0284907
0.0299581
0.0314294
0.0329034
0.0343788
0.0358544
0.037329
0.0388012
0.0402699
0.0417338
0.0431916
0.044642
0.0460839
0.047516
0.0489371
0.0503458
0.051741
0.0531215
0.054486
0.0558334
0.0571624
0.0584719
0.0597606
0.0610276
0.0622715
0.0634914
0.0646861
0.0658545
0.0669956
0.0681083
0.0691917
0.0702447
0.0712664
0.072256
0.0732124
0.0741349
0.0750226
0.0758746
0.0766904
0.0774691
0.0782101
0.0789128
0.0795765
0.0802007
0.0807849
0.0813287
0.0818316
0.0822934
0.0827138
0.0830924
0.0834292
0.0837239
0.0839767
0.0841874
0.0843561
0.084483
0.0845683
0.0846122
0.0846152
0.0845776
0.0845
0.0843829
0.0842271
0.0840332
0.0838022
0.0835349
0.0832323
0.0828957
0.0825262
0.0821251
0.0816938
0.0812339
0.080747
0.0802349
0.0796993
0.0791423
0.078566
0.0779726
0.0773644
0.0767439
0.0761137
0.0754765
0.0748353
0.074193
0.0735527
0.0729178
0.0722915
0.0716776
0.0710795
0.070501
0.0699459
0.0694182
0.0689218
0.0684606
0.0680385
0.0676595
0.0673272
0.0670454
0.0668175
0.0666472
0.066537
0.0664899
0.0665254
0.0666583
0.000844831
0.000935345
0.000937882
0.000864249
0.000730673
0.00054076
0.000297467
4.48287e-06
-0.000334472
-0.00071571
-0.00113551
-0.00159011
-0.0020757
-0.00258852
-0.00312481
-0.00368088
-0.00425312
-0.00483802
-0.00543218
-0.00603229
-0.00663518
-0.00723781
-0.00783727
-0.00843082
-0.00901582
-0.00958977
-0.0101503
-0.0106952
-0.0112223
-0.0117296
-0.0122153
-0.0126776
-0.0131149
-0.0135256
-0.0139083
-0.0142617
-0.0145846
-0.0148758
-0.0151344
-0.0153593
-0.0155497
-0.0157048
-0.015824
-0.0159065
-0.015952
-0.0159598
-0.0159296
-0.0158611
-0.0157539
-0.0156079
-0.0154229
-0.0151988
-0.0149355
-0.0146332
-0.0142918
-0.0139115
-0.0134924
-0.0130348
-0.0125389
-0.012005
-0.0114335
-0.0108247
-0.0101791
-0.00949713
-0.00877929
-0.00802612
-0.00723819
-0.0064161
-0.00556049
-0.00467201
-0.00375139
-0.00279933
-0.00181661
-0.000803999
0.000237689
0.00130762
0.00240494
0.00352876
0.00467817
0.00585224
0.00705002
0.00827054
0.00951281
0.0107758
0.0120585
0.0133599
0.0146789
0.0160144
0.0173653
0.0187306
0.020109
0.0214995
0.0229009
0.0243121
0.0257319
0.027159
0.0285924
0.0300308
0.031473
0.0329179
0.0343641
0.0358105
0.0372559
0.038699
0.0401387
0.0415736
0.0430025
0.0444243
0.0458377
0.0472415
0.0486345
0.0500154
0.0513831
0.0527363
0.054074
0.0553948
0.0566976
0.0579814
0.0592449
0.060487
0.0617066
0.0629026
0.064074
0.0652197
0.0663387
0.0674299
0.0684924
0.0695253
0.0705275
0.0714983
0.0724367
0.0733419
0.0742131
0.0750495
0.0758504
0.0766152
0.0773431
0.0780335
0.0786859
0.0792997
0.0798745
0.0804099
0.0809054
0.0813607
0.0817756
0.0821499
0.0824833
0.0827757
0.0830272
0.0832377
0.0834074
0.0835363
0.0836247
0.0836729
0.0836812
0.08365
0.0835799
0.0834715
0.0833253
0.0831422
0.0829231
0.0826687
0.0823801
0.0820584
0.0817049
0.0813207
0.0809073
0.0804661
0.0799989
0.0795071
0.0789927
0.0784576
0.0779038
0.0773334
0.0767487
0.0761521
0.0755461
0.0749332
0.0743163
0.0736982
0.0730819
0.0724705
0.0718672
0.0712752
0.0706981
0.0701393
0.0696024
0.0690911
0.0686088
0.0681594
0.0677465
0.0673737
0.0670446
0.0667626
0.0665312
0.066354
0.0662336
0.0661733
0.0661905
0.0662979
0.00130434
0.00135799
0.00133401
0.00124109
0.00109214
0.000890684
0.000639697
0.000342674
3.11035e-06
-0.000375525
-0.000789757
-0.00123608
-0.00171099
-0.00221099
-0.00273261
-0.00327243
-0.00382708
-0.00439329
-0.00496786
-0.00554769
-0.00612982
-0.00671136
-0.00728956
-0.00786181
-0.0084256
-0.00897855
-0.0095184
-0.010043
-0.0105503
-0.0110384
-0.0115054
-0.0119497
-0.0123697
-0.012764
-0.013131
-0.0134696
-0.0137786
-0.0140568
-0.0143033
-0.014517
-0.0146972
-0.0148431
-0.014954
-0.0150293
-0.0150685
-0.0150711
-0.0150367
-0.0149649
-0.0148554
-0.0147081
-0.0145229
-0.0142994
-0.0140379
-0.0137382
-0.0134004
-0.0130246
-0.012611
-0.0121598
-0.0116712
-0.0111455
-0.0105831
-0.00998423
-0.0093494
-0.00867905
-0.00797364
-0.00723369
-0.00645976
-0.00565243
-0.00481232
-0.00394009
-0.0030364
-0.00210196
-0.00113752
-0.000143843
0.000878292
0.00192807
0.00300464
0.00410715
0.00523472
0.00638643
0.00756135
0.00875853
0.00997701
0.0112158
0.0124739
0.0137503
0.0150439
0.0163537
0.0176786
0.0190175
0.0203693
0.021733
0.0231073
0.0244913
0.0258836
0.0272831
0.0286888
0.0300994
0.0315137
0.0329306
0.0343489
0.0357674
0.0371848
0.0386
0.0400118
0.041419
0.0428204
0.0442147
0.0456008
0.0469775
0.0483436
0.0496979
0.0510392
0.0523664
0.0536783
0.0549738
0.0562516
0.0575108
0.0587501
0.0599685
0.0611648
0.0623381
0.0634873
0.0646113
0.0657091
0.0667798
0.0678225
0.0688361
0.0698197
0.0707726
0.0716938
0.0725825
0.073438
0.0742595
0.0750462
0.0757976
0.076513
0.0771918
0.0778334
0.0784374
0.0790032
0.0795305
0.0800188
0.080468
0.0808777
0.0812477
0.0815778
0.081868
0.0821183
0.0823286
0.082499
0.0826297
0.0827209
0.082773
0.0827862
0.0827609
0.0826978
0.0825973
0.0824601
0.082287
0.0820788
0.0818363
0.0815606
0.0812527
0.0809138
0.0805452
0.0801482
0.0797242
0.0792749
0.0788018
0.0783067
0.0777914
0.0772579
0.0767083
0.0761448
0.0755696
0.0749851
0.0743939
0.0737984
0.0732016
0.0726062
0.0720151
0.0714313
0.070858
0.0702984
0.0697558
0.0692334
0.0687347
0.068263
0.0678218
0.0674145
0.0670444
0.0667149
0.0664292
0.0661908
0.0660029
0.0658684
0.0657905
0.0657835
0.0658573
0.00183612
0.00184677
0.00179131
0.00167497
0.0015068
0.00129014
0.00102793
0.000723388
0.000379755
2.49696e-07
-0.000411903
-0.000853464
-0.00132118
-0.00181183
-0.0023222
-0.00284913
-0.00338947
-0.00394017
-0.00449824
-0.00506079
-0.00562502
-0.00618822
-0.00674781
-0.00730128
-0.00784627
-0.0083805
-0.00890182
-0.00940816
-0.00989756
-0.0103682
-0.0108183
-0.0112462
-0.0116505
-0.0120297
-0.0123824
-0.0127074
-0.0130035
-0.0132697
-0.013505
-0.0137085
-0.0138793
-0.0140166
-0.0141199
-0.0141886
-0.014222
-0.0142197
-0.0141814
-0.0141066
-0.0139951
-0.0138468
-0.0136613
-0.0134387
-0.0131788
-0.0128817
-0.0125474
-0.012176
-0.0117677
-0.0113226
-0.010841
-0.0103232
-0.00976946
-0.00918014
-0.00855565
-0.00789643
-0.00720293
-0.00647565
-0.00571514
-0.00492196
-0.0040967
-0.00324002
-0.00235255
-0.001435
-0.000488085
0.000487459
0.00149086
0.00252131
0.00357801
0.00466011
0.00576674
0.00689702
0.00805003
0.00922485
0.0104205
0.0116361
0.0128706
0.014123
0.0153923
0.0166774
0.0179774
0.0192911
0.0206175
0.0219554
0.0233038
0.0246616
0.0260277
0.0274008
0.02878
0.0301639
0.0315516
0.0329417
0.0343332
0.0357249
0.0371156
0.0385041
0.0398893
0.0412699
0.0426449
0.0440129
0.0453729
0.0467237
0.0480641
0.049393
0.0507091
0.0520114
0.0532987
0.0545699
0.0558239
0.0570596
0.0582758
0.0594715
0.0606457
0.0617973
0.0629252
0.0640285
0.0651062
0.0661574
0.067181
0.0681763
0.0691422
0.070078
0.0709828
0.0718558
0.0726963
0.0735036
0.0742769
0.0750156
0.075719
0.0763867
0.0770181
0.0776126
0.0781698
0.0786894
0.079171
0.0796142
0.0800189
0.0803848
0.0807118
0.0809998
0.0812488
0.0814588
0.0816298
0.0817621
0.0818559
0.0819115
0.0819291
0.0819093
0.0818526
0.0817594
0.0816305
0.0814665
0.0812683
0.0810368
0.0807729
0.0804777
0.0801522
0.0797978
0.0794158
0.0790075
0.0785744
0.0781182
0.0776405
0.0771431
0.076628
0.076097
0.0755524
0.0749962
0.0744307
0.0738585
0.0732819
0.0727035
0.072126
0.0715522
0.0709849
0.0704271
0.0698817
0.0693519
0.0688407
0.0683513
0.0678868
0.0674504
0.0670452
0.0666745
0.0663412
0.0660486
0.0657997
0.0655977
0.0654453
0.0653457
0.0653096
0.0653434
0.00243257
0.00239552
0.00230455
0.00216121
0.00197038
0.00173518
0.00145847
0.00114318
0.00079226
0.000408662
-4.64265e-06
-0.000444676
-0.000908442
-0.00139295
-0.00189525
-0.0024124
-0.00294148
-0.00347966
-0.00402414
-0.00457222
-0.00512126
-0.00566874
-0.0062122
-0.0067493
-0.00727778
-0.00779547
-0.00830033
-0.00879038
-0.00926375
-0.00971869
-0.0101535
-0.0105666
-0.0109566
-0.0113221
-0.0116617
-0.0119743
-0.0122587
-0.0125139
-0.012739
-0.0129329
-0.0130951
-0.0132246
-0.0133209
-0.0133834
-0.0134115
-0.0134049
-0.013363
-0.0132855
-0.0131722
-0.0130229
-0.0128374
-0.0126156
-0.0123574
-0.0120628
-0.0117319
-0.0113648
-0.0109616
-0.0105225
-0.0100476
-0.00953735
-0.00899195
-0.00841177
-0.00779718
-0.00714862
-0.00646653
-0.00575139
-0.00500373
-0.00422409
-0.00341306
-0.00257125
-0.00169932
-0.000797937
0.000132208
0.00109039
0.00207585
0.00308781
0.00412548
0.00518803
0.00627462
0.00738438
0.00851641
0.00966982
0.0108437
0.012037
0.0132489
0.0144784
0.0157244
0.016986
0.018262
0.0195516
0.0208536
0.0221669
0.0234905
0.0248233
0.0261642
0.0275121
0.0288658
0.0302243
0.0315864
0.032951
0.0343169
0.0356829
0.037048
0.038411
0.0397708
0.041126
0.0424757
0.0438187
0.0451538
0.0464798
0.0477957
0.0491003
0.0503924
0.0516709
0.0529348
0.0541828
0.055414
0.0566273
0.0578215
0.0589956
0.0601486
0.0612795
0.0623872
0.0634708
0.0645294
0.0655619
0.0665674
0.0675452
0.0684943
0.0694138
0.070303
0.0711611
0.0719874
0.0727811
0.0735415
0.0742682
0.0749603
0.0756174
0.076239
0.0768245
0.0773736
0.0778858
0.0783609
0.0787985
0.0791983
0.0795603
0.0798842
0.0801701
0.0804177
0.0806273
0.0807989
0.0809326
0.0810286
0.0810874
0.0811091
0.0810942
0.0810433
0.0809568
0.0808354
0.0806798
0.0804908
0.0802693
0.0800162
0.0797325
0.0794193
0.0790778
0.0787093
0.0783152
0.0778968
0.0774558
0.0769938
0.0765125
0.0760137
0.0754993
0.0749713
0.0744318
0.0738831
0.0733273
0.0727669
0.0722043
0.071642
0.0710827
0.0705289
0.0699836
0.0694495
0.0689294
0.0684262
0.0679429
0.0674824
0.0670477
0.0666416
0.0662671
0.065927
0.0656243
0.0653618
0.0651424
0.0649688
0.0648439
0.0647744
0.0647636
0.0030863
0.00299802
0.00286832
0.00269496
0.00247846
0.00222175
0.00192759
0.0015986
0.00123743
0.000846773
0.000429335
-1.21569e-05
-0.000474954
-0.000956303
-0.00145347
-0.00196374
-0.00248441
-0.00301285
-0.00354646
-0.0040827
-0.00461911
-0.00515333
-0.00568304
-0.00620604
-0.00672018
-0.00722342
-0.00771379
-0.00818944
-0.00864856
-0.00908949
-0.00951061
-0.00991043
-0.0102875
-0.0106406
-0.0109684
-0.0112697
-0.0115434
-0.0117886
-0.0120043
-0.0121897
-0.0123439
-0.0124663
-0.0125562
-0.0126131
-0.0126364
-0.0126257
-0.0125806
-0.0125008
-0.0123859
-0.0122359
-0.0120504
-0.0118295
-0.011573
-0.0112809
-0.0109534
-0.0105904
-0.0101921
-0.00975863
-0.00929027
-0.00878725
-0.00824986
-0.00767844
-0.00707334
-0.00643499
-0.00576382
-0.00506029
-0.00432492
-0.00355824
-0.00276081
-0.00193325
-0.00107618
-0.000190253
0.000723849
0.00166542
0.00263372
0.003628
0.00464747
0.00569132
0.00675874
0.00784887
0.00896084
0.0100938
0.0112468
0.0124189
0.0136091
0.0148167
0.0160404
0.0172794
0.0185327
0.0197991
0.0210778
0.0223676
0.0236675
0.0249764
0.0262932
0.027617
0.0289464
0.0302806
0.0316183
0.0329584
0.0342998
0.0356414
0.0369821
0.0383207
0.0396561
0.0409872
0.0423128
0.0436319
0.0449431
0.0462456
0.0475381
0.0488194
0.0500886
0.0513445
0.052586
0.053812
0.0550215
0.0562134
0.0573867
0.0585402
0.0596731
0.0607843
0.0618727
0.0629376
0.0639779
0.0649926
0.065981
0.0669422
0.0678752
0.0687793
0.0696536
0.0704976
0.0713103
0.0720911
0.0728394
0.0735545
0.0742359
0.0748829
0.0754952
0.0760722
0.0766135
0.0771187
0.0775876
0.0780197
0.078415
0.0787732
0.0790941
0.0793778
0.0796242
0.0798332
0.0800051
0.08014
0.0802381
0.0802997
0.080325
0.0803147
0.080269
0.0801886
0.080074
0.0799261
0.0797454
0.079533
0.0792896
0.0790163
0.0787142
0.0783844
0.0780281
0.0776467
0.0772416
0.0768142
0.0763661
0.075899
0.0754146
0.0749148
0.0744015
0.0738766
0.0733423
0.0728007
0.072254
0.0717047
0.071155
0.0706074
0.0700645
0.0695289
0.0690031
0.0684899
0.0679918
0.0675118
0.0670524
0.0666163
0.0662064
0.0658252
0.0654755
0.0651598
0.0648808
0.0646411
0.0644432
0.06429
0.064184
0.0641248
0.00379032
0.00364819
0.00347723
0.00327135
0.00302661
0.00274577
0.00243153
0.00208619
0.00171209
0.00131165
0.000887343
0.00044165
-2.29249e-05
-0.000503851
-0.000998607
-0.00150468
-0.0020196
-0.00254089
-0.00306616
-0.00359303
-0.00411922
-0.0046425
-0.00516071
-0.00567176
-0.00617364
-0.00666439
-0.00714217
-0.0076052
-0.00805179
-0.00848032
-0.00888928
-0.00927723
-0.00964281
-0.00998475
-0.0103019
-0.010593
-0.0108571
-0.0110932
-0.0113005
-0.011478
-0.0116251
-0.011741
-0.0118251
-0.0118769
-0.0118959
-0.0118816
-0.0118336
-0.0117517
-0.0116355
-0.0114848
-0.0112996
-0.0110796
-0.0108248
-0.0105352
-0.0102109
-0.00985194
-0.00945839
-0.00903045
-0.00856832
-0.00807226
-0.00754255
-0.00697952
-0.00638351
-0.00575493
-0.0050942
-0.00440178
-0.00367816
-0.00292386
-0.00213945
-0.0013255
-0.000482625
0.00038853
0.0012873
0.002213
0.00316491
0.00414228
0.00514436
0.00617036
0.00721946
0.00829084
0.00938364
0.010497
0.01163
0.0127818
0.0139515
0.015138
0.0163405
0.017558
0.0187894
0.0200338
0.0212902
0.0225575
0.0238348
0.0251209
0.0264148
0.0277155
0.0290218
0.0303327
0.0316471
0.0329638
0.0342819
0.0356002
0.0369176
0.038233
0.0395452
0.0408532
0.0421559
0.0434521
0.0447407
0.0460207
0.0472908
0.0485501
0.0497975
0.0510318
0.052252
0.0534571
0.0546459
0.0558175
0.0569708
0.0581048
0.0592185
0.060311
0.0613812
0.0624282
0.0634511
0.0644491
0.0654211
0.0663664
0.0672842
0.0681737
0.069034
0.0698644
0.0706643
0.0714329
0.0721696
0.0728738
0.0735449
0.0741825
0.0747859
0.0753547
0.0758886
0.0763872
0.0768501
0.0772771
0.077668
0.0780225
0.0783405
0.0786221
0.0788671
0.0790756
0.0792477
0.0793836
0.0794834
0.0795475
0.0795761
0.0795697
0.0795288
0.0794538
0.0793455
0.0792044
0.0790313
0.078827
0.0785924
0.0783285
0.0780363
0.077717
0.0773716
0.0770016
0.0766082
0.0761928
0.0757571
0.0753025
0.0748308
0.0743437
0.073843
0.0733306
0.0728086
0.0722789
0.0717437
0.0712053
0.0706657
0.0701275
0.0695928
0.0690642
0.0685442
0.0680351
0.0675395
0.0670599
0.0665989
0.0661589
0.0657424
0.0653519
0.0649899
0.0646586
0.0643605
0.0640979
0.0638732
0.0636891
0.063544
0.0634337
0.004538
0.00434018
0.00412602
0.00388559
0.00361045
0.00330322
0.00296659
0.00260251
0.00221305
0.00180037
0.00136671
0.000914299
0.000445429
-3.75933e-05
-0.000532448
-0.00103682
-0.00154843
-0.002065
-0.00258429
-0.00310412
-0.00362234
-0.00413687
-0.00464568
-0.00514682
-0.00563838
-0.00611854
-0.00658552
-0.00703764
-0.00747332
-0.00789101
-0.00828928
-0.00866674
-0.00902211
-0.00935416
-0.00966175
-0.00994379
-0.0101993
-0.0104273
-0.0106269
-0.0107974
-0.010938
-0.0110481
-0.011127
-0.0111742
-0.0111893
-0.0111718
-0.0111213
-0.0110375
-0.0109202
-0.0107692
-0.0105842
-0.0103653
-0.0101122
-0.00982513
-0.009504
-0.00914889
-0.00875994
-0.00833729
-0.00788116
-0.00739178
-0.00686943
-0.00631443
-0.00572712
-0.00510788
-0.00445713
-0.00377532
-0.00306292
-0.00232046
-0.00154846
-0.00074751
8.18065e-05
0.00093886
0.001823
0.00273355
0.00366981
0.00463106
0.00561654
0.00662548
0.00765711
0.00871059
0.00978511
0.0108798
0.0119938
0.0131262
0.0142762
0.0154427
0.0166249
0.0178218
0.0190324
0.0202558
0.021491
0.0227369
0.0239925
0.0252569
0.0265289
0.0278076
0.0290918
0.0303806
0.0316728
0.0329673
0.0342632
0.0355593
0.0368545
0.0381477
0.0394379
0.0407239
0.0420047
0.0432792
0.0445462
0.0458048
0.0470537
0.0482921
0.0495187
0.0507325
0.0519325
0.0531176
0.0542868
0.0554391
0.0565734
0.0576889
0.0587844
0.059859
0.0609119
0.061942
0.0629485
0.0639305
0.064887
0.0658174
0.0667208
0.0675963
0.0684432
0.0692609
0.0700486
0.0708056
0.0715314
0.0722253
0.0728867
0.0735152
0.0741102
0.0746714
0.0751982
0.0756904
0.0761477
0.0765697
0.0769563
0.0773073
0.0776226
0.077902
0.0781457
0.0783535
0.0785257
0.0786623
0.0787636
0.0788299
0.0788614
0.0788586
0.0788219
0.0787518
0.078649
0.078514
0.0783477
0.0781507
0.077924
0.0776684
0.0773851
0.077075
0.0767394
0.0763794
0.0759963
0.0755915
0.0751666
0.0747229
0.0742621
0.0737858
0.0732959
0.0727941
0.0722823
0.0717625
0.0712366
0.0707067
0.0701751
0.0696437
0.069115
0.068591
0.0680742
0.0675668
0.0670711
0.0665896