/*--------------------------------*- C++ -*----------------------------------*\
  =========                 |
  \\      /  F ield         | OpenFOAM: The Open Source CFD Toolbox
   \\    /   O peration     | Website:  https://openfoam.org
    \\  /    A nd           | Version:  7
     \\/     M anipulation  |
\*---------------------------------------------------------------------------*/
FoamFile
{
    version     2.0;
    format      ascii;
    class       volScalarField;
    location    "12.5";
    object      T;
}
// * * * * * * * * * * * * * * * * * * * * * * * * * * * * * * * * * * * * * //

dimensions      [0 0 0 1 0 0 0];

internalField   nonuniform List<scalar> 
2413
(
1.05968
1.05901
1.05823
1.05738
1.05655
1.05609
1.05685
1.06297
1.08685
1.12743
1.16217
1.17839
1.18034
1.17913
1.1765
1.17442
1.17296
1.17122
1.16968
1.16883
1.16792
1.16688
1.1658
1.16459
1.16323
1.1618
1.1605
1.15931
1.15819
1.15711
1.15606
1.15503
1.154
1.15295
1.15203
1.15134
1.15075
1.15032
1.14995
1.1496
1.1492
1.1487
1.14814
1.14759
1.14694
1.14633
1.14599
1.14574
1.14558
1.14562
1.14573
1.14602
1.14648
1.14702
1.1477
1.14841
1.14909
1.15008
1.02864
1.02879
1.02928
1.03066
1.03387
1.04087
1.05183
1.06521
1.07652
1.08277
1.08605
1.08756
1.08774
1.08756
1.08709
1.0864
1.08561
1.08511
1.08466
1.08428
1.08401
1.08373
1.08337
1.08292
1.08246
1.08197
1.0814
1.08097
1.08071
1.08038
1.07991
1.07948
1.07911
1.07863
1.07811
1.07769
1.07726
1.0768
1.07631
1.0758
1.07526
1.07465
1.07402
1.07339
1.07279
1.07221
1.07171
1.07124
1.07079
1.07037
1.06996
1.06955
1.06914
1.06878
1.06844
1.06812
1.0678
1.06749
1.06713
1.06672
1.06624
1.06579
1.06532
1.06485
1.06436
1.06386
1.06329
1.06266
1.06199
1.06143
1.0609
1.06036
1.05978
1.05916
1.05853
1.05786
1.05714
1.05633
1.05549
1.0547
1.05428
1.05489
1.06007
1.08067
1.11813
1.1589
1.17703
1.17795
1.17657
1.1751
1.17326
1.17091
1.16914
1.16801
1.16684
1.16565
1.16442
1.16307
1.16158
1.16021
1.15914
1.15814
1.1571
1.15609
1.1551
1.15418
1.15338
1.15262
1.152
1.15146
1.15091
1.15048
1.15009
1.14973
1.14937
1.1489
1.14851
1.14812
1.14802
1.14806
1.14825
1.14868
1.14928
1.14995
1.15068
1.15141
1.15204
1.15271
1.15329
1.15396
1.15437
1.15433
1.02929
1.02998
1.0318
1.03637
1.04452
1.05648
1.06927
1.07898
1.08461
1.0873
1.08804
1.08801
1.08765
1.087
1.08624
1.08538
1.08461
1.08424
1.08394
1.08362
1.08333
1.08303
1.08264
1.0822
1.08175
1.08124
1.08069
1.08023
1.07993
1.07962
1.0792
1.07883
1.07848
1.07805
1.07753
1.07703
1.0765
1.07595
1.07539
1.07483
1.07424
1.07362
1.07299
1.07238
1.07181
1.07126
1.07076
1.07028
1.06982
1.06936
1.06893
1.0685
1.06807
1.06768
1.06733
1.06699
1.06663
1.06629
1.06591
1.06548
1.06499
1.06455
1.0641
1.06363
1.06313
1.0626
1.062
1.06139
1.06074
1.06014
1.05964
1.05911
1.05855
1.05794
1.05732
1.05668
1.05601
1.05533
1.05459
1.05381
1.05305
1.05262
1.05308
1.05758
1.07435
1.11361
1.15389
1.17083
1.17489
1.17458
1.17267
1.17044
1.16889
1.16734
1.16583
1.16449
1.16304
1.16152
1.1601
1.15897
1.15803
1.15708
1.15614
1.15528
1.1545
1.15381
1.15322
1.15271
1.15222
1.15173
1.15123
1.15082
1.15046
1.15019
1.15016
1.15028
1.15068
1.15114
1.15166
1.15238
1.15319
1.15406
1.15486
1.15556
1.15622
1.15674
1.15727
1.15754
1.15751
1.15748
1.15738
1.15698
1.03081
1.03337
1.03866
1.04867
1.06104
1.07327
1.08216
1.08577
1.08745
1.08783
1.08772
1.08732
1.08668
1.08591
1.0852
1.08453
1.08393
1.08352
1.0832
1.08291
1.08265
1.08233
1.08195
1.08154
1.08109
1.08061
1.08014
1.0797
1.07936
1.079
1.07855
1.07812
1.07771
1.07723
1.07669
1.07617
1.07561
1.07504
1.07444
1.07383
1.07322
1.0726
1.07197
1.0714
1.07086
1.07032
1.06981
1.0693
1.06881
1.06832
1.06787
1.06742
1.067
1.06661
1.06624
1.06588
1.06551
1.06512
1.06471
1.06427
1.06381
1.06333
1.06289
1.0624
1.06188
1.0613
1.0607
1.06008
1.05947
1.05888
1.05839
1.05789
1.05738
1.05682
1.05625
1.05565
1.05502
1.05435
1.05366
1.05296
1.05221
1.05144
1.05103
1.05143
1.05493
1.06972
1.10792
1.14727
1.16698
1.17218
1.17159
1.17007
1.1682
1.16597
1.16444
1.16307
1.16152
1.16011
1.15898
1.15807
1.15715
1.15628
1.15558
1.15493
1.15434
1.15393
1.15358
1.15322
1.15278
1.1524
1.15201
1.15208
1.15234
1.15291
1.15365
1.1545
1.15544
1.15636
1.1573
1.15802
1.15862
1.1592
1.15967
1.16013
1.16064
1.16069
1.16068
1.16033
1.15981
1.15932
1.15887
1.15785
1.03497
1.0418
1.05242
1.0661
1.07635
1.08311
1.0864
1.08774
1.08783
1.08759
1.08706
1.08637
1.08552
1.0847
1.08418
1.0838
1.08347
1.08308
1.08265
1.08229
1.08197
1.0816
1.08126
1.08094
1.08056
1.08009
1.0796
1.07911
1.07869
1.0783
1.07786
1.07743
1.07697
1.07646
1.07589
1.07532
1.07472
1.0741
1.07346
1.07282
1.07218
1.07158
1.071
1.07047
1.06995
1.06943
1.06889
1.06835
1.06781
1.06728
1.06678
1.06631
1.06588
1.06546
1.06507
1.0647
1.06432
1.06388
1.06346
1.06303
1.06258
1.06211
1.06168
1.0612
1.06068
1.0601
1.05952
1.05892
1.05835
1.05776
1.05722
1.05672
1.05621
1.05566
1.05508
1.05452
1.05394
1.05333
1.05269
1.05207
1.05142
1.05067
1.04989
1.04942
1.04969
1.05235
1.066
1.1001
1.13691
1.16391
1.17088
1.17071
1.16839
1.1656
1.16396
1.16216
1.16034
1.15915
1.1584
1.15758
1.15668
1.15597
1.15546
1.155
1.15468
1.15449
1.15437
1.15425
1.15442
1.15474
1.15521
1.15596
1.15697
1.15808
1.15922
1.16028
1.1613
1.16206
1.16255
1.16275
1.16296
1.16286
1.16256
1.16229
1.16201
1.16167
1.16153
1.16124
1.16064
1.16002
1.1594
1.15824
1.04509
1.05669
1.06923
1.07968
1.08524
1.08732
1.08769
1.08759
1.08726
1.08668
1.08595
1.08519
1.08443
1.08388
1.0835
1.08312
1.08273
1.08231
1.08184
1.08153
1.08124
1.08087
1.0806
1.08037
1.08002
1.07959
1.07918
1.07868
1.07812
1.07765
1.07716
1.07667
1.07618
1.07565
1.0751
1.07453
1.07387
1.07317
1.07242
1.07172
1.0711
1.07054
1.06998
1.06949
1.069
1.06847
1.06791
1.06735
1.06676
1.06619
1.06564
1.06515
1.06471
1.06429
1.06391
1.06355
1.06318
1.06276
1.06232
1.06187
1.06142
1.06093
1.06045
1.05997
1.05945
1.05887
1.05827
1.05771
1.05716
1.0566
1.05604
1.05555
1.05504
1.05451
1.05395
1.05343
1.05291
1.05234
1.05174
1.05114
1.0505
1.04981
1.04902
1.04821
1.04763
1.04773
1.04989
1.06164
1.08924
1.13104
1.15966
1.16648
1.16648
1.16515
1.1634
1.1612
1.15949
1.15868
1.15805
1.15714
1.15644
1.15602
1.15559
1.15547
1.15566
1.15604
1.15678
1.15768
1.15865
1.15967
1.16079
1.16201
1.16302
1.16409
1.1648
1.16532
1.16578
1.16585
1.16568
1.16542
1.16502
1.16452
1.16403
1.16354
1.16304
1.16259
1.16214
1.16151
1.1608
1.16001
1.15922
1.15795
1.06141
1.07291
1.08151
1.08558
1.08725
1.08748
1.08732
1.08681
1.08612
1.08544
1.08479
1.08414
1.08355
1.08319
1.0829
1.08259
1.08224
1.08175
1.08124
1.08101
1.08072
1.08038
1.08012
1.0798
1.07933
1.07886
1.07845
1.07796
1.07743
1.07696
1.07646
1.07594
1.07541
1.07486
1.07427
1.07359
1.07282
1.07204
1.07125
1.07057
1.07
1.0695
1.06901
1.06855
1.06806
1.06752
1.06694
1.06633
1.06569
1.06508
1.06449
1.06398
1.06354
1.06314
1.06275
1.06239
1.06202
1.06159
1.0611
1.06063
1.06015
1.05965
1.05914
1.05868
1.05817
1.05764
1.05708
1.05659
1.05607
1.05555
1.05499
1.05445
1.05393
1.05341
1.05284
1.05232
1.05182
1.05128
1.05068
1.05006
1.04942
1.04874
1.048
1.04718
1.04632
1.04569
1.04573
1.04756
1.05662
1.08198
1.12559
1.15457
1.16363
1.16399
1.163
1.16112
1.1597
1.15893
1.15801
1.15756
1.15734
1.15728
1.15745
1.15801
1.15903
1.16028
1.16168
1.16317
1.1645
1.16569
1.16689
1.16754
1.16806
1.16841
1.16868
1.16865
1.1685
1.16822
1.16765
1.16692
1.16611
1.16527
1.16454
1.16382
1.16314
1.16253
1.16182
1.16107
1.16032
1.15954
1.15879
1.15754
1.07601
1.08303
1.08694
1.08756
1.08756
1.0873
1.08666
1.08584
1.08501
1.08436
1.08384
1.0834
1.08303
1.0827
1.08237
1.08204
1.08165
1.08117
1.08082
1.08058
1.08022
1.07984
1.07957
1.07922
1.0787
1.07817
1.07777
1.07731
1.07683
1.0764
1.07592
1.07536
1.07473
1.07404
1.0733
1.07248
1.07164
1.07086
1.07015
1.06953
1.06903
1.06855
1.06806
1.06757
1.06703
1.06645
1.06581
1.06517
1.06452
1.06391
1.0633
1.06279
1.06235
1.06195
1.06155
1.0612
1.06082
1.0604
1.05992
1.05944
1.05893
1.05843
1.0579
1.05742
1.05694
1.05644
1.0559
1.05541
1.05493
1.05443
1.05387
1.05331
1.05281
1.0523
1.05173
1.05117
1.05066
1.05011
1.04952
1.04888
1.04822
1.04755
1.04685
1.04611
1.04534
1.04456
1.04398
1.04403
1.04553
1.05292
1.07688
1.11745
1.14698
1.16082
1.16316
1.1625
1.1613
1.15996
1.15936
1.15952
1.16018
1.16089
1.16197
1.16332
1.1647
1.16624
1.16763
1.16885
1.16997
1.17082
1.17132
1.1715
1.17146
1.17107
1.17055
1.16976
1.16896
1.16821
1.16752
1.16672
1.16586
1.1651
1.16438
1.16367
1.163
1.16227
1.16147
1.16066
1.15992
1.15921
1.15852
1.1573
1.08438
1.08693
1.0871
1.08702
1.08663
1.08604
1.08542
1.08477
1.08401
1.08345
1.08317
1.08293
1.08268
1.08237
1.08204
1.08166
1.08113
1.08061
1.08042
1.08023
1.07987
1.07949
1.07915
1.07869
1.0781
1.07759
1.07712
1.07657
1.07601
1.0755
1.07496
1.07435
1.0737
1.07296
1.07215
1.07126
1.07046
1.06977
1.06917
1.06863
1.06813
1.06762
1.06707
1.06649
1.06589
1.06526
1.06462
1.064
1.0634
1.06281
1.06222
1.06167
1.06119
1.06077
1.06036
1.05999
1.05962
1.0592
1.0587
1.05818
1.05767
1.05717
1.05662
1.05612
1.05569
1.05523
1.05472
1.05424
1.05382
1.05335
1.05284
1.05226
1.05176
1.05124
1.05067
1.05005
1.04948
1.0489
1.04829
1.04763
1.04695
1.04631
1.0457
1.04506
1.04446
1.04388
1.04331
1.04293
1.04303
1.04415
1.05024
1.07203
1.10662
1.1425
1.15999
1.16172
1.16302
1.16289
1.16287
1.16346
1.16468
1.16614
1.16787
1.16934
1.17079
1.17206
1.17263
1.17315
1.17363
1.17366
1.17355
1.17324
1.17264
1.17182
1.17103
1.17015
1.16921
1.16827
1.16742
1.16665
1.16585
1.16506
1.16428
1.16349
1.16271
1.1619
1.16109
1.16029
1.15938
1.15845
1.15759
1.15618
1.08728
1.08735
1.08715
1.08666
1.08585
1.08509
1.08447
1.08395
1.08345
1.08305
1.08276
1.08248
1.08215
1.0818
1.0815
1.08116
1.08071
1.08031
1.0801
1.07983
1.07938
1.07895
1.07855
1.07803
1.07743
1.07696
1.07648
1.07594
1.07538
1.07481
1.07418
1.07345
1.07265
1.07181
1.07097
1.07013
1.06944
1.06884
1.06829
1.06774
1.06718
1.06659
1.06596
1.06529
1.06466
1.06406
1.06347
1.06289
1.06232
1.06173
1.06113
1.06051
1.06
1.05955
1.05912
1.05873
1.05837
1.05795
1.05747
1.05695
1.05645
1.05597
1.05546
1.05496
1.05455
1.05413
1.05367
1.05316
1.05272
1.05228
1.05176
1.05116
1.05064
1.05011
1.04953
1.04887
1.04822
1.04761
1.04701
1.04635
1.04572
1.04524
1.04481
1.04436
1.04392
1.04352
1.04307
1.04261
1.04235
1.04242
1.04338
1.04897
1.06604
1.09974
1.14132
1.15839
1.16593
1.169
1.16976
1.17067
1.17127
1.17199
1.17311
1.17422
1.1751
1.17545
1.17571
1.17559
1.17526
1.17486
1.17429
1.17353
1.17266
1.1717
1.1708
1.1699
1.16895
1.16798
1.16709
1.16629
1.16547
1.16461
1.16377
1.16288
1.16191
1.16093
1.15998
1.15904
1.15812
1.15726
1.15644
1.15522
1.08696
1.08663
1.08619
1.08559
1.08492
1.08427
1.0837
1.08324
1.08287
1.08259
1.08238
1.08212
1.08173
1.08129
1.08105
1.08075
1.0803
1.07996
1.07973
1.07937
1.07887
1.07846
1.07805
1.07751
1.0769
1.07633
1.07575
1.07512
1.07451
1.07388
1.07319
1.0724
1.07155
1.07069
1.06989
1.06912
1.0685
1.06793
1.06737
1.06678
1.06616
1.06549
1.06479
1.06408
1.06347
1.06291
1.06237
1.06182
1.06125
1.06065
1.06003
1.05938
1.05884
1.05836
1.05793
1.0575
1.05712
1.0567
1.05624
1.0557
1.05524
1.05481
1.05436
1.05385
1.05345
1.05304
1.05259
1.05204
1.05157
1.05111
1.0506
1.05
1.04945
1.04891
1.04833
1.04769
1.04701
1.04645
1.04593
1.04534
1.0448
1.0445
1.04418
1.04384
1.04353
1.04323
1.04292
1.04253
1.04236
1.04251
1.04295
1.04407
1.04896
1.06421
1.10101
1.14047
1.16245
1.17196
1.17613
1.17799
1.17792
1.17734
1.17728
1.17712
1.17642
1.17627
1.17608
1.17562
1.17523
1.17489
1.17417
1.17324
1.17229
1.17129
1.17031
1.16935
1.16828
1.16719
1.1662
1.16528
1.16437
1.16347
1.16266
1.16181
1.16088
1.15992
1.15897
1.15797
1.15704
1.15613
1.15535
1.15432
1.0865
1.08576
1.08511
1.08458
1.08402
1.08349
1.08309
1.08281
1.08257
1.08241
1.08224
1.08193
1.0814
1.08096
1.08076
1.08046
1.08001
1.07966
1.07935
1.07891
1.07839
1.07792
1.0774
1.07677
1.07612
1.07552
1.07491
1.07426
1.0736
1.07292
1.07218
1.07135
1.07049
1.06965
1.06889
1.06818
1.06757
1.06698
1.06638
1.06575
1.06509
1.06437
1.06366
1.06294
1.06232
1.06178
1.06125
1.06068
1.06012
1.05953
1.05892
1.05828
1.05773
1.05723
1.05676
1.05627
1.05584
1.05543
1.05499
1.05449
1.05408
1.05372
1.05332
1.05285
1.05242
1.05201
1.05154
1.05095
1.05039
1.04989
1.04935
1.04875
1.04818
1.04768
1.04717
1.0466
1.04601
1.04556
1.0451
1.0446
1.04421
1.04403
1.04379
1.04354
1.04334
1.04322
1.04325
1.04345
1.04396
1.04495
1.04656
1.0487
1.05195
1.05672
1.07034
1.10446
1.13987
1.165
1.17792
1.18047
1.18126
1.18107
1.18045
1.17922
1.17728
1.17624
1.17563
1.175
1.17453
1.17403
1.17322
1.17223
1.17129
1.17042
1.16946
1.16833
1.1672
1.16616
1.16515
1.16413
1.16315
1.16226
1.16144
1.16063
1.15978
1.1589
1.15801
1.15703
1.15609
1.15515
1.15442
1.15344
1.08574
1.08487
1.08424
1.08377
1.08329
1.08286
1.08268
1.08253
1.08235
1.08218
1.08199
1.08163
1.08103
1.08059
1.0804
1.0801
1.0797
1.07937
1.07901
1.07853
1.07801
1.07748
1.07686
1.07613
1.07535
1.07464
1.07397
1.0733
1.07262
1.07193
1.07117
1.07034
1.06948
1.06866
1.0679
1.06719
1.06656
1.06594
1.06531
1.06466
1.06397
1.06325
1.06254
1.06182
1.06118
1.06062
1.06008
1.05952
1.05898
1.05843
1.05786
1.05725
1.05667
1.05612
1.0556
1.05506
1.05459
1.05421
1.05383
1.05338
1.05298
1.05265
1.05228
1.0518
1.05132
1.05088
1.05039
1.04978
1.04914
1.04858
1.04805
1.04747
1.0469
1.04656
1.04619
1.04575
1.04535
1.04502
1.04464
1.04425
1.04397
1.04381
1.04368
1.04364
1.04387
1.04448
1.04548
1.04697
1.04863
1.05072
1.05302
1.05537
1.05699
1.05909
1.06276
1.07475
1.10092
1.13669
1.16761
1.17763
1.18146
1.18188
1.18171
1.18034
1.17837
1.17691
1.17545
1.17398
1.17315
1.1724
1.17154
1.17054
1.1696
1.1687
1.16783
1.16693
1.16595
1.16497
1.16399
1.16302
1.16212
1.16127
1.16045
1.15964
1.1588
1.15796
1.15713
1.15617
1.15529
1.15443
1.1537
1.15265
1.08462
1.08406
1.08364
1.08325
1.08281
1.08239
1.08231
1.08225
1.08212
1.08196
1.08176
1.08143
1.0809
1.08034
1.08003
1.07964
1.07918
1.07876
1.07831
1.07777
1.0772
1.07664
1.07599
1.07522
1.0744
1.07365
1.07295
1.07227
1.07159
1.07091
1.07017
1.06935
1.06851
1.06768
1.06689
1.06616
1.0655
1.06485
1.0642
1.06354
1.06284
1.06213
1.06142
1.0607
1.06003
1.05946
1.05893
1.05838
1.05785
1.05733
1.05677
1.05616
1.05554
1.05497
1.05445
1.05392
1.05346
1.0531
1.05274
1.05231
1.05185
1.05149
1.05111
1.05064
1.05013
1.04969
1.04918
1.04857
1.04788
1.04731
1.04683
1.0463
1.04585
1.04572
1.04551
1.04522
1.04495
1.0447
1.04436
1.04403
1.04401
1.04418
1.04468
1.04564
1.04713
1.04892
1.05106
1.0532
1.05544
1.0576
1.05898
1.06026
1.06153
1.06256
1.06348
1.06564
1.07401
1.09508
1.1319
1.16329
1.1764
1.18007
1.18035
1.1801
1.17902
1.17724
1.17489
1.17286
1.17165
1.17066
1.16966
1.16867
1.1678
1.16677
1.16602
1.16532
1.16455
1.1638
1.16294
1.16213
1.16143
1.16066
1.15981
1.15893
1.15798
1.15714
1.15631
1.1554
1.15458
1.15374
1.15294
1.15182
1.0841
1.08372
1.08336
1.08298
1.08256
1.08215
1.08206
1.08199
1.08184
1.08167
1.08146
1.08112
1.08055
1.07991
1.07952
1.07909
1.07864
1.07822
1.07773
1.07717
1.07656
1.07591
1.07516
1.0743
1.07342
1.07263
1.07193
1.07125
1.07058
1.06992
1.06919
1.06839
1.06754
1.06669
1.06586
1.06508
1.06435
1.06368
1.06301
1.06234
1.06165
1.06096
1.06028
1.05958
1.05892
1.05835
1.05781
1.05726
1.05672
1.05621
1.05566
1.05506
1.05444
1.0539
1.05341
1.05293
1.05244
1.05204
1.05164
1.05119
1.05065
1.05022
1.04983
1.04938
1.04885
1.04841
1.04794
1.04738
1.04671
1.04626
1.0459
1.04551
1.04525
1.04517
1.04508
1.04495
1.04477
1.04459
1.04465
1.04493
1.04566
1.04699
1.04875
1.05095
1.05325
1.05558
1.058
1.0595
1.06079
1.06195
1.06304
1.06384
1.06445
1.06435
1.0642
1.0644
1.06578
1.07197
1.08975
1.12552
1.15547
1.17188
1.17802
1.17868
1.17797
1.17631
1.17388
1.17201
1.17038
1.16894
1.16783
1.16706
1.16613
1.16506
1.1644
1.16366
1.16299
1.16239
1.16163
1.16101
1.1605
1.15982
1.15902
1.15814
1.15717
1.15632
1.15544
1.15451
1.15376
1.15295
1.15221
1.15109
1.08373
1.08342
1.08314
1.08278
1.08235
1.08194
1.08187
1.08178
1.08157
1.08136
1.08113
1.08079
1.08031
1.07973
1.07916
1.07855
1.07797
1.07746
1.07692
1.07632
1.07567
1.07498
1.0742
1.07331
1.07241
1.07161
1.0709
1.07022
1.06955
1.0689
1.06818
1.06739
1.06655
1.06569
1.06481
1.06397
1.06319
1.06248
1.06179
1.06113
1.06047
1.05983
1.05918
1.05853
1.05786
1.05729
1.05673
1.05616
1.05559
1.05506
1.0545
1.05392
1.0533
1.0528
1.05236
1.0519
1.05142
1.05097
1.05051
1.05001
1.04936
1.04883
1.04845
1.04804
1.04754
1.04719
1.04685
1.0464
1.04591
1.04557
1.04529
1.04504
1.04494
1.04491
1.04488
1.04497
1.04528
1.04587
1.047
1.04861
1.05063
1.05298
1.0553
1.0579
1.05972
1.06112
1.06245
1.06358
1.06441
1.065
1.06512
1.06499
1.06499
1.06518
1.06518
1.06509
1.06516
1.06587
1.06969
1.08454
1.11391
1.14407
1.1681
1.17581
1.17581
1.17476
1.17326
1.17138
1.16914
1.16722
1.16608
1.16541
1.16448
1.1637
1.16302
1.16219
1.16151
1.16087
1.16003
1.15956
1.15923
1.15873
1.15806
1.15728
1.15637
1.15553
1.15461
1.15369
1.15297
1.15217
1.15143
1.15027
1.08357
1.08335
1.08313
1.08282
1.08238
1.08201
1.0818
1.08156
1.08126
1.08099
1.08069
1.08025
1.07966
1.07906
1.07847
1.07783
1.07721
1.07664
1.07605
1.0754
1.07471
1.07397
1.07317
1.07228
1.0714
1.07061
1.06989
1.06921
1.06854
1.06787
1.06715
1.06637
1.06552
1.06464
1.06373
1.06285
1.06202
1.06128
1.06058
1.05993
1.05928
1.05866
1.05805
1.05742
1.05677
1.05623
1.05568
1.05512
1.05453
1.05394
1.05334
1.05276
1.05217
1.05172
1.05132
1.05089
1.0504
1.04987
1.04932
1.04874
1.04803
1.0474
1.0471
1.0468
1.04641
1.04618
1.046
1.04573
1.04542
1.04519
1.04501
1.04485
1.04487
1.04512
1.04574
1.04685
1.04842
1.05034
1.05274
1.05512
1.05762
1.05978
1.06125
1.0626
1.06378
1.06476
1.06551
1.06587
1.06572
1.06554
1.06561
1.06574
1.06572
1.06564
1.06552
1.06531
1.06497
1.06466
1.06483
1.06717
1.07808
1.10057
1.13465
1.16167
1.17097
1.17301
1.17246
1.17044
1.16814
1.1661
1.16451
1.16351
1.16267
1.16201
1.16144
1.16078
1.16018
1.15946
1.1586
1.1581
1.15777
1.15736
1.15687
1.15622
1.1554
1.1546
1.1537
1.15275
1.15204
1.15125
1.15052
1.14932
1.08367
1.08342
1.08309
1.08266
1.0822
1.08186
1.08158
1.08125
1.0809
1.08059
1.08023
1.07972
1.07911
1.07848
1.0778
1.07708
1.0764
1.07577
1.07512
1.07442
1.07368
1.07291
1.0721
1.07123
1.07038
1.06961
1.06889
1.06819
1.0675
1.06681
1.06607
1.06527
1.06441
1.06353
1.06263
1.06175
1.0609
1.06015
1.05943
1.05877
1.05811
1.05751
1.05693
1.05635
1.05577
1.05526
1.05472
1.05414
1.0535
1.05281
1.05215
1.05158
1.05104
1.05056
1.05016
1.04972
1.04921
1.04862
1.04807
1.0475
1.04682
1.04621
1.04606
1.04585
1.04563
1.04556
1.04551
1.0454
1.04523
1.04505
1.04511
1.04541
1.04619
1.04767
1.0496
1.05208
1.05465
1.05729
1.05989
1.06151
1.06296
1.06414
1.06517
1.06582
1.06627
1.06619
1.06613
1.06624
1.06635
1.06632
1.06624
1.06612
1.06594
1.06568
1.0653
1.06484
1.06432
1.06376
1.06315
1.06309
1.06456
1.07143
1.09078
1.12474
1.15134
1.1657
1.17036
1.17027
1.16868
1.16659
1.16407
1.16241
1.16133
1.16034
1.15964
1.15911
1.15863
1.15797
1.15721
1.15662
1.1562
1.15574
1.15526
1.15476
1.15409
1.15338
1.15253
1.15158
1.15087
1.15006
1.14936
1.1482
1.0837
1.08338
1.08294
1.08238
1.08204
1.0818
1.08147
1.08108
1.08061
1.08014
1.07963
1.07901
1.07835
1.07767
1.07696
1.07622
1.07549
1.0748
1.0741
1.07336
1.07259
1.07183
1.07103
1.0702
1.0694
1.06865
1.06791
1.06717
1.06644
1.06571
1.06493
1.06412
1.06326
1.06241
1.06154
1.06069
1.05984
1.05907
1.05834
1.05766
1.05699
1.0564
1.05584
1.05529
1.05474
1.05422
1.05368
1.05308
1.05241
1.05166
1.05098
1.05038
1.04985
1.04932
1.04889
1.04846
1.04799
1.04744
1.04698
1.04649
1.04594
1.0455
1.04534
1.04525
1.04518
1.04524
1.04525
1.04527
1.04543
1.04591
1.04701
1.04864
1.05089
1.05356
1.05627
1.05926
1.06134
1.0631
1.06457
1.06577
1.0666
1.06705
1.06698
1.06667
1.06666
1.06681
1.06682
1.06679
1.06672
1.06661
1.06641
1.06607
1.06556
1.06494
1.06431
1.06372
1.06311
1.06246
1.0618
1.06115
1.061
1.06179
1.06672
1.08239
1.11258
1.14007
1.15962
1.1676
1.16815
1.16689
1.16434
)
;

boundaryField
{
    inlet
    {
        type            fixedValue;
        value           nonuniform 0();
    }
    outlet
    {
        type            inletOutlet;
        inletValue      uniform 1;
        value           nonuniform List<scalar> 
18
(
1.15006
1.1543
1.15697
1.15784
1.15823
1.15794
1.15754
1.1573
1.15618
1.15522
1.15433
1.15345
1.15265
1.15182
1.1511
1.15027
1.14932
1.1482
)
;
    }
    bottom
    {
        type            symmetryPlane;
    }
    top
    {
        type            symmetryPlane;
    }
    obstacle
    {
        type            zeroGradient;
    }
    front
    {
        type            empty;
    }
    back
    {
        type            empty;
    }
    procBoundary23to15
    {
        type            processor;
        value           nonuniform List<scalar> 
133
(
1.06097
1.06018
1.05931
1.05843
1.05798
1.05904
1.06594
1.09216
1.13669
1.16789
1.18122
1.18291
1.18202
1.17998
1.17704
1.17468
1.17329
1.17188
1.17065
1.16983
1.16898
1.16792
1.16682
1.16566
1.16444
1.16315
1.16188
1.16071
1.15957
1.15843
1.1573
1.15614
1.15495
1.1537
1.15251
1.15161
1.15095
1.15045
1.15003
1.14963
1.14921
1.14871
1.14808
1.14746
1.14677
1.14615
1.14562
1.14512
1.14467
1.14419
1.14368
1.14322
1.14291
1.14273
1.14283
1.14314
1.1436
1.14451
1.02824
1.02823
1.02834
1.02866
1.02956
1.0321
1.03749
1.0473
1.06021
1.07235
1.08134
1.08605
1.08781
1.08799
1.08778
1.08735
1.08676
1.08619
1.08565
1.08517
1.08486
1.08454
1.08415
1.08365
1.08311
1.08264
1.08213
1.08176
1.0815
1.08117
1.08072
1.08026
1.07987
1.07942
1.07889
1.07848
1.07808
1.0776
1.07711
1.07664
1.07613
1.07558
1.07501
1.07442
1.07382
1.07325
1.07274
1.07227
1.07179
1.07136
1.07096
1.07055
1.07014
1.06979
1.06947
1.06915
1.06887
1.06859
1.06826
1.06788
1.06747
1.06704
1.06659
1.06616
1.06572
1.06524
1.06469
1.06405
1.06335
1.06273
1.06215
1.06155
1.06093
1.06031
1.06031
)
;
    }
    procBoundary23to22
    {
        type            processor;
        value           nonuniform List<scalar> 
17
(
1.02861
1.02899
1.02975
1.03167
1.03709
1.04889
1.06544
1.07926
1.08589
1.08711
1.08699
1.08654
1.08533
1.08464
1.0841
1.08381
1.08389
)
;
    }
    procBoundary23to30
    {
        type            processor;
        value           uniform 1.08399;
    }
    procBoundary23to31
    {
        type            processor;
        value           nonuniform List<scalar> 
133
(
1.16229
1.16061
1.15901
1.15801
1.15751
1.15698
1.1563
1.15563
1.15489
1.15434
1.15384
1.15331
1.15292
1.15245
1.15181
1.15098
1.15023
1.14945
1.14858
1.148
1.14694
1.08357
1.08325
1.08291
1.08238
1.08183
1.08145
1.08102
1.08051
1.07999
1.07948
1.07891
1.07823
1.07751
1.07679
1.07604
1.07526
1.0745
1.07379
1.07307
1.07231
1.07155
1.0708
1.07002
1.06921
1.06841
1.06764
1.06686
1.06608
1.06529
1.06453
1.06373
1.06292
1.06208
1.06126
1.06045
1.05963
1.0588
1.05804
1.05732
1.05663
1.05597
1.05537
1.05481
1.05424
1.05368
1.05313
1.05259
1.05201
1.05137
1.05062
1.04987
1.04919
1.04861
1.04799
1.04756
1.04722
1.04683
1.0464
1.04611
1.04577
1.0454
1.04512
1.04502
1.04501
1.04505
1.04523
1.0457
1.0466
1.04798
1.04991
1.05246
1.05512
1.05804
1.06051
1.06247
1.0642
1.06564
1.06694
1.0677
1.06788
1.06767
1.06745
1.06747
1.06745
1.06738
1.06727
1.06714
1.06695
1.06668
1.0663
1.0658
1.06516
1.06445
1.06377
1.06307
1.0624
1.06183
1.06127
1.06067
1.05998
1.05938
1.05932
1.05989
1.06301
1.07491
1.09976
1.12919
1.15462
1.16487
1.16505
1.16229
1.16433
)
;
    }
}


// ************************************************************************* //
