/*--------------------------------*- C++ -*----------------------------------*\
  =========                 |
  \\      /  F ield         | OpenFOAM: The Open Source CFD Toolbox
   \\    /   O peration     | Website:  https://openfoam.org
    \\  /    A nd           | Version:  7
     \\/     M anipulation  |
\*---------------------------------------------------------------------------*/
FoamFile
{
    version     2.0;
    format      ascii;
    class       volScalarField;
    location    "2.3";
    object      p;
}
// * * * * * * * * * * * * * * * * * * * * * * * * * * * * * * * * * * * * * //

dimensions      [1 -1 -2 0 0 0 0];

internalField   nonuniform List<scalar> 
1008
(
1.33525
1.32541
1.30046
1.29833
1.41234
2.04016
4.4893
6.86486
6.91861
6.51858
6.25128
6.16181
5.95167
5.76273
5.5745
5.43688
5.33979
5.24906
5.14128
5.02461
4.90201
4.79636
4.70704
4.6336
4.56274
4.48206
4.39713
4.30306
4.20132
4.09308
3.98521
3.90391
3.84495
3.79139
3.74861
3.71451
3.66903
3.61388
3.54897
3.44191
3.28832
3.18337
3.13431
3.09761
3.07163
3.06132
3.04098
3.00177
2.95345
2.87076
2.74059
2.65783
2.62284
2.59335
2.5702
2.5617
2.54629
2.51534
2.48123
2.4296
2.33388
2.25507
2.20684
1.30691
1.30533
1.3146
1.40963
1.97577
2.63279
3.40958
5.21693
6.15315
6.20049
6.16113
6.04213
5.83632
5.68329
5.54602
5.42735
5.33275
5.24691
5.14318
5.03167
4.91404
4.79168
4.68168
4.5962
4.52292
4.45889
4.38491
4.30453
4.21957
4.12712
4.02063
3.91273
3.83762
3.78161
3.73044
3.68504
3.64444
3.59866
3.53925
3.45354
3.33438
3.21201
3.14227
3.10399
3.07336
3.04831
3.0242
2.99267
2.94829
2.87746
2.77026
2.67256
2.6274
2.59804
2.57257
2.55347
2.53211
2.50429
2.47234
2.4296
2.35641
2.27485
2.21071
1.27831
1.29739
1.41313
1.92599
2.8483
3.10783
3.06608
3.56072
4.8553
5.89953
6.24383
6.08104
5.923
5.78515
5.61982
5.46264
5.31514
5.20033
5.10182
5.00913
4.91688
4.82045
4.70974
4.5832
4.47212
4.39348
4.32505
4.26069
4.1964
4.13221
4.05907
3.95698
3.84568
3.77193
3.71526
3.66104
3.60744
3.54952
3.48754
3.42589
3.35665
3.26773
3.17021
3.10892
3.0728
3.039
3.00495
2.96476
2.91415
2.85584
2.78866
2.71041
2.64136
2.60271
2.57372
2.548
2.52025
2.48945
2.4536
2.41013
2.35905
2.30532
2.22799
1.28316
1.42529
1.88867
2.79137
3.19962
3.22446
3.12678
3.09308
3.41963
4.44432
5.39591
5.70332
5.89904
5.82615
5.65419
5.48013
5.29708
5.15614
5.06408
4.98692
4.91344
4.8327
4.73947
4.61281
4.46323
4.36049
4.29349
4.23511
4.18166
4.12653
4.06655
3.98632
3.86782
3.7523
3.68481
3.63324
3.57909
3.52013
3.46239
3.41187
3.36308
3.3053
3.22318
3.12411
3.05614
3.01595
2.97666
2.93033
2.87843
2.83131
2.78908
2.74272
2.68113
2.6128
2.56959
2.53935
2.50863
2.47461
2.43398
2.39066
2.35221
2.32043
2.25357
1.42966
2.02635
2.72225
3.23843
3.25119
3.20488
3.161
3.1015
3.04604
3.21599
3.88544
4.75497
5.46651
5.61513
5.65508
5.53533
5.34114
5.16943
5.04916
4.96556
4.8982
4.82811
4.74917
4.63889
4.48188
4.34266
4.267
4.21152
4.16493
4.11874
4.06412
3.99815
3.90385
3.77425
3.65316
3.58131
3.5295
3.48158
3.44035
3.40339
3.3656
3.32464
3.27021
3.18145
3.06966
2.98965
2.93559
2.88619
2.84447
2.81271
2.78283
2.7514
2.71159
2.65186
2.5822
2.53
2.49056
2.45145
2.41057
2.37543
2.34864
2.32534
2.2676
2.04152
2.88192
3.18447
3.23562
3.24525
3.20014
3.15576
3.09719
3.01101
2.95331
3.0148
3.39606
4.27145
5.02171
5.4087
5.42981
5.3208
5.1812
5.05023
4.94944
4.87776
4.8113
4.743
4.65088
4.51439
4.35867
4.2468
4.18264
4.1307
4.08572
4.03811
3.97876
3.9065
3.80943
3.67816
3.55805
3.49177
3.44892
3.41245
3.38216
3.35434
3.32006
3.27914
3.21544
3.10273
2.97589
2.90076
2.85903
2.82841
2.80197
2.77992
2.75252
2.72025
2.6754
2.60157
2.52044
2.46344
2.42159
2.39132
2.36932
2.34871
2.32928
2.27663
2.9086
3.17925
3.24788
3.24568
3.24126
3.20223
3.15219
3.08692
2.99603
2.92779
2.8899
2.90111
3.10814
3.71302
4.51203
5.08871
5.15479
5.12853
5.04641
4.95371
4.88057
4.79644
4.71746
4.63122
4.52478
4.4011
4.26753
4.15686
4.08876
4.03532
3.99301
3.94154
3.87973
3.80894
3.7131
3.58057
3.47359
3.42365
3.38613
3.35415
3.32839
3.29709
3.2575
3.20354
3.11262
2.9799
2.888
2.85186
2.82354
2.79821
2.78096
2.7566
2.7242
2.68154
2.60216
2.4994
2.43517
2.40401
2.3821
2.36289
2.34514
2.32802
2.27868
3.20117
3.24562
3.2402
3.22105
3.20178
3.16241
3.11183
3.05124
2.97738
2.91266
2.86732
2.83914
2.81455
2.88643
3.2061
3.93294
4.54685
4.90006
4.92236
4.90748
4.87033
4.78021
4.68349
4.59409
4.50917
4.4172
4.30291
4.16844
4.05643
3.98464
3.92684
3.88228
3.83837
3.78599
3.7266
3.63752
3.50811
3.40259
3.35231
3.3155
3.28673
3.25636
3.2179
3.17317
3.11095
3.01513
2.91417
2.86323
2.8339
2.80779
2.78433
2.75705
2.72501
2.67187
2.58132
2.48037
2.42366
2.39713
2.37664
2.35849
2.3397
2.3226
2.27544
3.00213
3.02984
3.03188
3.06415
3.10381
3.11005
3.05607
3.00782
2.97009
2.92514
2.86785
2.802
2.75335
2.73413
2.73887
2.88312
3.34002
3.99208
4.49771
4.70109
4.75083
4.74073
4.67082
4.58104
4.50072
4.40642
4.30872
4.18778
4.04583
3.941
3.88066
3.83167
3.79446
3.76107
3.71585
3.66005
3.56438
3.42286
3.32619
3.28184
3.24807
3.21761
3.18192
3.14036
3.0962
3.04157
2.96333
2.88423
2.8397
2.80789
2.77603
2.73827
2.68845
2.6281
2.55573
2.48319
2.42654
2.39159
2.37051
2.3532
2.33777
2.32566
2.2785
2.60184
2.63171
2.69106
2.77721
2.84567
2.90471
2.90963
2.90253
2.91836
2.90032
2.84649
2.76571
2.70922
2.67901
2.66604
2.66801
2.68697
2.88398
3.40238
3.93348
4.33707
4.5054
4.53751
4.56168
4.50184
4.41315
4.31069
4.18758
4.0551
3.92586
3.84601
3.79671
3.7589
3.7311
3.69434
3.65021
3.58776
3.47727
3.337
3.25165
3.20905
3.17625
3.15179
3.12244
3.08766
3.04897
2.9921
2.90479
2.83037
2.7915
2.75325
2.70459
2.64898
2.59165
2.54185
2.4983
2.45219
2.40502
2.36849
2.34326
2.32088
2.29868
2.23694
2.39304
2.37
2.36625
2.3804
2.426
2.49059
2.56666
2.64098
2.73304
2.7696
2.75036
2.69528
2.66678
2.64887
2.64135
2.6102
2.58246
2.54625
2.60571
2.83063
3.30031
3.83922
4.17971
4.36342
4.41264
4.40142
4.31858
4.18884
4.06634
3.93788
3.83153
3.7731
3.73189
3.69582
3.65893
3.62094
3.57527
3.50385
3.38883
3.25603
3.17756
3.14067
3.11311
3.09737
3.07847
3.04569
3.00219
2.9286
2.82347
2.73988
2.69095
2.65133
2.60774
2.56836
2.53958
2.5115
2.47548
2.42576
2.37442
2.33821
2.3051
2.26548
2.19702
2.40511
2.37164
2.34845
2.31069
2.26941
2.23193
2.23349
2.26052
2.31011
2.38266
2.44413
2.49594
2.53265
2.53709
2.51611
2.51449
2.52012
2.50153
2.45506
2.41623
2.48882
2.77924
3.25523
3.74604
4.06724
4.20932
4.22888
4.17646
4.07492
3.97016
3.86678
3.7693
3.70967
3.66253
3.61356
3.5702
3.53178
3.48489
3.41441
3.31103
3.19235
3.11425
3.07723
3.05339
3.04466
3.0215
2.98532
2.93199
2.83506
2.71513
2.6439
2.60448
2.57643
2.55571
2.53753
2.5168
2.49
2.44724
2.38285
2.31415
2.26008
2.21973
2.16142
2.50881
2.43052
2.36367
2.30335
2.24793
2.19667
2.16837
2.14771
2.13195
2.10784
2.10472
2.12693
2.15908
2.21101
2.26727
2.31527
2.36012
2.3713
2.36821
2.34248
2.31854
2.32797
2.41823
2.71225
3.16879
3.64084
3.98468
4.02033
3.99927
3.98725
3.90143
3.78161
3.69246
3.63395
3.57844
3.5226
3.47391
3.43651
3.39514
3.33444
3.24665
3.14108
3.05532
3.00839
2.97654
2.95698
2.9352
2.89828
2.83536
2.73683
2.63719
2.58859
2.56515
2.54566
2.52849
2.50882
2.48734
2.45648
2.38894
2.2894
2.21546
2.17697
2.14278
2.66612
2.55232
2.45255
2.3692
2.29792
2.24569
2.19895
2.15184
2.10749
2.07064
2.0397
1.99168
1.93043
1.91409
1.93144
1.97096
2.03189
2.12128
2.1796
2.19764
2.18843
2.17663
2.15474
2.17081
2.29401
2.60218
3.11502
3.54254
3.7476
3.8412
3.8398
3.76699
3.67295
3.61111
3.55694
3.50591
3.44488
3.38541
3.34498
3.30399
3.25074
3.17862
3.08137
2.98414
2.92623
2.89328
2.86338
2.83176
2.79705
2.74737
2.68094
2.61297
2.56427
2.53574
2.51558
2.50196
2.48832
2.45892
2.38322
2.25986
2.17802
2.15953
2.13951
2.8092
2.68622
2.57168
2.48255
2.40618
2.33783
2.2749
2.21587
2.16059
2.10269
2.03963
1.96748
1.89657
1.86696
1.8507
1.82897
1.82095
1.83687
1.87283
1.90981
1.91277
1.91552
1.94046
1.95211
1.96712
2.03075
2.20824
2.57197
3.00429
3.36645
3.63197
3.63623
3.56977
3.55631
3.54873
3.508
3.44843
3.37215
3.29047
3.23983
3.20181
3.16092
3.10303
3.01854
2.9187
2.84774
2.80785
2.77542
2.74734
2.72248
2.69212
2.64983
2.59738
2.54644
2.50465
2.4679
2.42861
2.38916
2.3343
2.24757
2.17988
2.16169
2.13623
2.95405
2.82566
2.68936
2.58003
2.49988
2.43125
2.3658
2.29904
2.22707
2.1526
2.07677
1.99862
1.93066
1.87584
1.83388
1.79717
1.78202
1.76861
1.74986
1.7239
1.68823
1.67194
1.67558
1.69829
1.73573
1.77878
1.81946
1.89089
2.0867
2.40202
2.82455
3.21059
3.33508
3.38475
3.43941
3.46431
3.44631
3.36499
3.26686
3.19516
3.14356
3.10638
3.0726
3.02435
2.95106
2.86192
2.78725
2.7405
2.70789
2.68463
2.66775
2.64727
2.61202
2.56167
2.50326
2.44296
2.38606
2.32989
2.27397
2.23006
2.1977
2.17376
2.13251
)
;

boundaryField
{
    inlet
    {
        type            fixedValue;
        value           nonuniform 0();
    }
    outlet
    {
        type            zeroGradient;
    }
    bottom
    {
        type            symmetryPlane;
    }
    top
    {
        type            symmetryPlane;
    }
    obstacle
    {
        type            zeroGradient;
    }
    defaultFaces
    {
        type            empty;
    }
    procBoundary1to0
    {
        type            processor;
        value           nonuniform List<scalar> 
14
(
1.32939
1.29799
1.28534
1.27519
1.31224
1.44152
1.98466
2.72981
2.86534
2.59327
2.44149
2.45701
2.60416
2.77214
)
;
    }
    procBoundary1to2
    {
        type            processor;
        value           nonuniform List<scalar> 2(2.9184 3.06181);
    }
    procBoundary1to3
    {
        type            processor;
        value           nonuniform List<scalar> 
63
(
3.08238
2.96071
2.82013
2.69411
2.60285
2.52881
2.46072
2.39364
2.32372
2.24945
2.16673
2.07656
1.99205
1.92484
1.86728
1.83092
1.79974
1.76378
1.72334
1.68511
1.65243
1.61261
1.56236
1.53132
1.53416
1.54883
1.57666
1.59167
1.6146
1.68921
1.85838
2.16845
2.58621
2.91803
3.13384
3.2815
3.32307
3.3128
3.27069
3.18922
3.12101
3.06097
3.01666
2.9839
2.94242
2.88491
2.81488
2.74945
2.6975
2.65435
2.61862
2.59516
2.57451
2.54344
2.49457
2.42825
2.35533
2.28781
2.23913
2.21346
2.19176
2.17008
2.12338
)
;
    }
}


// ************************************************************************* //
