/*--------------------------------*- C++ -*----------------------------------*\
  =========                 |
  \\      /  F ield         | OpenFOAM: The Open Source CFD Toolbox
   \\    /   O peration     | Website:  https://openfoam.org
    \\  /    A nd           | Version:  7
     \\/     M anipulation  |
\*---------------------------------------------------------------------------*/
FoamFile
{
    version     2.0;
    format      ascii;
    class       volVectorField;
    location    "5";
    object      U;
}
// * * * * * * * * * * * * * * * * * * * * * * * * * * * * * * * * * * * * * //

dimensions      [0 1 -1 0 0 0 0];

internalField   nonuniform List<vector> 
2413
(
(1.32454 0.122214 0)
(1.32649 0.120313 0)
(1.32869 0.11752 0)
(1.33064 0.114544 0)
(1.33221 0.112261 0)
(1.33373 0.110193 0)
(1.33532 0.10795 0)
(1.33731 0.105325 0)
(1.32034 0.125184 0)
(1.32238 0.122658 0)
(1.32409 0.120285 0)
(1.3259 0.117825 0)
(1.32745 0.115604 0)
(1.32912 0.113198 0)
(1.33111 0.110383 0)
(1.33316 0.107656 0)
(1.31554 0.129297 0)
(1.31795 0.126581 0)
(1.31976 0.123983 0)
(1.32136 0.121712 0)
(1.32333 0.119113 0)
(1.32505 0.116564 0)
(1.3265 0.114314 0)
(1.3283 0.111915 0)
(1.31115 0.133545 0)
(1.31292 0.13144 0)
(1.31519 0.128692 0)
(1.31727 0.125869 0)
(1.31878 0.123761 0)
(1.32032 0.121543 0)
(1.32203 0.119022 0)
(1.32391 0.116461 0)
(1.30639 0.138479 0)
(1.30905 0.135373 0)
(1.31085 0.133212 0)
(1.31245 0.131261 0)
(1.31426 0.128928 0)
(1.31585 0.126613 0)
(1.3175 0.124233 0)
(1.31949 0.121674 0)
(1.30193 0.142707 0)
(1.30415 0.140487 0)
(1.3065 0.137957 0)
(1.30823 0.135873 0)
(1.30981 0.133811 0)
(1.3117 0.131405 0)
(1.31347 0.129046 0)
(1.31518 0.126897 0)
(1.29777 0.146509 0)
(1.30017 0.144175 0)
(1.30206 0.14234 0)
(1.30408 0.14011 0)
(1.30606 0.137718 0)
(1.30759 0.135826 0)
(1.30907 0.134097 0)
(1.31077 0.132136 0)
(1.29328 0.150204 0)
(1.2956 0.148216 0)
(1.29825 0.145714 0)
(1.30014 0.143746 0)
(1.30165 0.142083 0)
(1.30345 0.140156 0)
(1.30531 0.138143 0)
(1.30705 0.136243 0)
(1.28923 0.153467 0)
(1.29184 0.151241 0)
(1.29379 0.149736 0)
(1.29584 0.147762 0)
(1.29822 0.145345 0)
(1.30016 0.14327 0)
(1.30184 0.141673 0)
(1.30359 0.140016 0)
(1.28457 0.157672 0)
(1.28729 0.155539 0)
(1.29048 0.152734 0)
(1.29274 0.150596 0)
(1.29444 0.149001 0)
(1.29651 0.1471 0)
(1.29876 0.144972 0)
(1.30051 0.143208 0)
(1.28129 0.160774 0)
(1.28404 0.158588 0)
(1.28601 0.157323 0)
(1.28837 0.155263 0)
(1.2912 0.152674 0)
(1.29323 0.150684 0)
(1.29495 0.149241 0)
(1.29668 0.147658 0)
(1.27595 0.167268 0)
(1.2786 0.164934 0)
(1.28214 0.161788 0)
(1.28466 0.159517 0)
(1.28655 0.158024 0)
(1.28893 0.156066 0)
(1.29134 0.153873 0)
(1.29318 0.15205 0)
(1.27099 0.1737 0)
(1.27426 0.170608 0)
(1.27657 0.1688 0)
(1.2794 0.166516 0)
(1.28264 0.163708 0)
(1.28508 0.16153 0)
(1.2873 0.159639 0)
(1.28965 0.157324 0)
(1.26469 0.182469 0)
(1.26769 0.179807 0)
(1.27145 0.176597 0)
(1.27482 0.173638 0)
(1.27768 0.171239 0)
(1.28097 0.168361 0)
(1.2841 0.16524 0)
(1.28634 0.162953 0)
(1.25848 0.192202 0)
(1.26232 0.18877 0)
(1.26583 0.185691 0)
(1.26958 0.182508 0)
(1.27341 0.179125 0)
(1.2765 0.176308 0)
(1.2791 0.173824 0)
(1.28152 0.171319 0)
(1.25265 0.201888 0)
(1.25656 0.198682 0)
(1.2604 0.195328 0)
(1.26406 0.192187 0)
(1.26745 0.189333 0)
(1.27072 0.186382 0)
(1.27375 0.183378 0)
(1.27641 0.18063 0)
(1.24854 0.207574 0)
(1.25162 0.20596 0)
(1.25489 0.204034 0)
(1.25843 0.201678 0)
(1.26189 0.199061 0)
(1.26494 0.196433 0)
(1.26775 0.193809 0)
(1.27066 0.191091 0)
(1.24692 0.208478 0)
(1.24917 0.207831 0)
(1.25168 0.206994 0)
(1.25441 0.205999 0)
(1.25714 0.204836 0)
(1.26004 0.203329 0)
(1.26304 0.201383 0)
(1.26606 0.199201 0)
(1.24523 0.206588 0)
(1.24798 0.205842 0)
(1.25043 0.205606 0)
(1.25292 0.205486 0)
(1.25532 0.204881 0)
(1.25772 0.203848 0)
(1.26053 0.202746 0)
(1.26332 0.201674 0)
(1.37737 0.0562362 0)
(1.37776 0.0553693 0)
(1.37804 0.0545538 0)
(1.37814 0.0540565 0)
(1.37844 0.0533463 0)
(1.37882 0.0524355 0)
(1.37892 0.0519505 0)
(1.37908 0.0513044 0)
(1.37936 0.050395 0)
(1.37938 0.049908 0)
(1.37946 0.0493196 0)
(1.37976 0.048524 0)
(1.37982 0.0479891 0)
(1.37996 0.0473866 0)
(1.38035 0.0466334 0)
(1.38053 0.0460491 0)
(1.38079 0.045444 0)
(1.38087 0.0447879 0)
(1.38083 0.0440301 0)
(1.38095 0.0432675 0)
(1.38109 0.0426571 0)
(1.3814 0.04198 0)
(1.38155 0.0413599 0)
(1.38158 0.0407215 0)
(1.38196 0.0398543 0)
(1.38224 0.0391811 0)
(1.38264 0.0385906 0)
(1.38335 0.0377272 0)
(1.38397 0.0368959 0)
(1.38456 0.0362255 0)
(1.38515 0.0352 0)
(1.38591 0.0340869 0)
(1.3868 0.0332642 0)
(1.38761 0.0325888 0)
(1.3884 0.0316654 0)
(1.38885 0.0308709 0)
(1.38886 0.0301702 0)
(1.3887 0.0296702 0)
(1.38815 0.0294436 0)
(1.38738 0.0294963 0)
(1.38647 0.0295368 0)
(1.38526 0.0295841 0)
(1.38389 0.0296611 0)
(1.38238 0.029547 0)
(1.38072 0.0295909 0)
(1.37841 0.0303685 0)
(1.37503 0.0317249 0)
(1.37045 0.033229 0)
(1.36456 0.0355404 0)
(1.35744 0.039123 0)
(1.34993 0.0422321 0)
(1.34254 0.045128 0)
(1.33437 0.0497243 0)
(1.33872 0.103578 0)
(1.33914 0.102915 0)
(1.33968 0.102198 0)
(1.34043 0.101415 0)
(1.34109 0.10069 0)
(1.34155 0.100193 0)
(1.34203 0.0995079 0)
(1.34279 0.0987564 0)
(1.34333 0.0981898 0)
(1.34387 0.0976666 0)
(1.34462 0.0970208 0)
(1.3452 0.0964694 0)
(1.34569 0.0959924 0)
(1.3464 0.09537 0)
(1.34703 0.0947611 0)
(1.34751 0.0943291 0)
(1.34815 0.0936963 0)
(1.34886 0.0929681 0)
(1.34937 0.0925368 0)
(1.34994 0.0919415 0)
(1.35072 0.0911503 0)
(1.3513 0.0905695 0)
(1.35178 0.0900159 0)
(1.3525 0.0892355 0)
(1.35318 0.0884274 0)
(1.35365 0.087967 0)
(1.35423 0.0872156 0)
(1.35491 0.0862952 0)
(1.35537 0.0857429 0)
(1.35584 0.0850822 0)
(1.35656 0.084217 0)
(1.35708 0.0835399 0)
(1.35743 0.0830272 0)
(1.35801 0.0821762 0)
(1.35853 0.0813762 0)
(1.35888 0.0808764 0)
(1.35942 0.0801534 0)
(1.36 0.0793116 0)
(1.36037 0.078827 0)
(1.36071 0.078195 0)
(1.36132 0.0773688 0)
(1.36176 0.0768156 0)
(1.36213 0.0763342 0)
(1.3627 0.0755816 0)
(1.36315 0.0748924 0)
(1.36342 0.0744394 0)
(1.36382 0.0737586 0)
(1.36435 0.0729433 0)
(1.36464 0.0724334 0)
(1.3649 0.0717965 0)
(1.36541 0.0709445 0)
(1.36574 0.0702812 0)
(1.36596 0.0697063 0)
(1.36646 0.0689246 0)
(1.3669 0.0681307 0)
(1.36716 0.0675577 0)
(1.36765 0.0668093 0)
(1.36827 0.0659418 0)
(1.36862 0.0654371 0)
(1.36902 0.064759 0)
(1.36966 0.0639138 0)
(1.37006 0.063327 0)
(1.37043 0.0627186 0)
(1.37104 0.0619728 0)
(1.37154 0.0612166 0)
(1.37178 0.0607642 0)
(1.37214 0.0600516 0)
(1.37256 0.0592145 0)
(1.37269 0.058656 0)
(1.37293 0.0579945 0)
(1.37333 0.0572516 0)
(1.37351 0.0566256 0)
(1.37374 0.0559762 0)
(1.37412 0.0552216 0)
(1.37437 0.0545621 0)
(1.37451 0.0540982 0)
(1.37466 0.0534255 0)
(1.37466 0.0527299 0)
(1.3747 0.0521203 0)
(1.375 0.0515532 0)
(1.37532 0.0510012 0)
(1.37557 0.0505688 0)
(1.37576 0.0501066 0)
(1.37574 0.0495273 0)
(1.37552 0.0488043 0)
(1.37556 0.04813 0)
(1.37574 0.0476058 0)
(1.37585 0.0471076 0)
(1.37582 0.0465642 0)
(1.37558 0.0458468 0)
(1.37555 0.0451299 0)
(1.37579 0.0445682 0)
(1.37615 0.0439082 0)
(1.37644 0.043275 0)
(1.37663 0.0427473 0)
(1.37662 0.0419833 0)
(1.37691 0.0410041 0)
(1.37759 0.0401443 0)
(1.37844 0.0393104 0)
(1.37941 0.0384451 0)
(1.38037 0.0375449 0)
(1.38116 0.0366034 0)
(1.38187 0.0354836 0)
(1.3829 0.0344514 0)
(1.38403 0.0336024 0)
(1.38495 0.0328328 0)
(1.38558 0.0322389 0)
(1.38555 0.0317453 0)
(1.38484 0.0311911 0)
(1.38435 0.0309793 0)
(1.38373 0.0309064 0)
(1.3832 0.0309065 0)
(1.38248 0.0309761 0)
(1.38126 0.0310811 0)
(1.37957 0.0312054 0)
(1.37749 0.0314675 0)
(1.3749 0.0320945 0)
(1.37166 0.0331345 0)
(1.36767 0.0342941 0)
(1.3623 0.03684 0)
(1.33443 0.106031 0)
(1.33497 0.105418 0)
(1.33543 0.104976 0)
(1.3358 0.104544 0)
(1.33635 0.103919 0)
(1.33703 0.103183 0)
(1.33751 0.102804 0)
(1.33797 0.102369 0)
(1.33863 0.101697 0)
(1.33914 0.101134 0)
(1.33958 0.100583 0)
(1.34032 0.0999267 0)
(1.34099 0.0992845 0)
(1.34152 0.0987753 0)
(1.34224 0.0980778 0)
(1.34289 0.0973722 0)
(1.34336 0.0968174 0)
(1.34399 0.0961219 0)
(1.34483 0.095316 0)
(1.34541 0.0947651 0)
(1.34599 0.0941261 0)
(1.34676 0.0932921 0)
(1.34731 0.092665 0)
(1.34778 0.0920744 0)
(1.34849 0.0913112 0)
(1.34915 0.0905026 0)
(1.34957 0.0900372 0)
(1.35004 0.0893358 0)
(1.35065 0.0884588 0)
(1.35106 0.087985 0)
(1.35148 0.0874668 0)
(1.35207 0.0866564 0)
(1.35251 0.0860348 0)
(1.35283 0.0856342 0)
(1.35331 0.0849273 0)
(1.35383 0.0841464 0)
(1.35419 0.0837516 0)
(1.35453 0.0831467 0)
(1.35513 0.0822591 0)
(1.35556 0.0817219 0)
(1.35594 0.0812375 0)
(1.35654 0.0804566 0)
(1.35701 0.0797297 0)
(1.3573 0.0791899 0)
(1.35779 0.0784235 0)
(1.35838 0.0775755 0)
(1.35868 0.0770087 0)
(1.35909 0.0762662 0)
(1.35963 0.0754274 0)
(1.35991 0.0747454 0)
(1.36031 0.0739972 0)
(1.36096 0.073194 0)
(1.36141 0.0725086 0)
(1.36169 0.0719337 0)
(1.36224 0.0711639 0)
(1.36272 0.0704511 0)
(1.3631 0.0699506 0)
(1.36363 0.0693641 0)
(1.36421 0.0686255 0)
(1.3646 0.0681343 0)
(1.36484 0.0677109 0)
(1.36521 0.0670196 0)
(1.36556 0.0663532 0)
(1.36583 0.0658882 0)
(1.36618 0.0653888 0)
(1.36652 0.0647867 0)
(1.36672 0.0642447 0)
(1.36678 0.0637186 0)
(1.3668 0.063029 0)
(1.36697 0.0623449 0)
(1.36731 0.0617475 0)
(1.36777 0.0611072 0)
(1.36822 0.0604354 0)
(1.36855 0.0598587 0)
(1.36876 0.0592993 0)
(1.36872 0.058589 0)
(1.36861 0.0577351 0)
(1.36893 0.0570728 0)
(1.36945 0.0564946 0)
(1.37006 0.055835 0)
(1.37055 0.0552244 0)
(1.37091 0.0547023 0)
(1.37106 0.0541651 0)
(1.37085 0.0534426 0)
(1.37081 0.0526906 0)
(1.37108 0.0521505 0)
(1.37148 0.0514743 0)
(1.37172 0.0507722 0)
(1.37176 0.0501963 0)
(1.37157 0.0495899 0)
(1.37129 0.0488984 0)
(1.37135 0.048363 0)
(1.37161 0.0477781 0)
(1.37182 0.0471332 0)
(1.37195 0.0465948 0)
(1.37188 0.0460454 0)
(1.37169 0.0453338 0)
(1.37206 0.0447191 0)
(1.37273 0.0439765 0)
(1.37341 0.0432146 0)
(1.37406 0.0425447 0)
(1.37462 0.0416269 0)
(1.37527 0.0405652 0)
(1.37627 0.0396425 0)
(1.3775 0.0387661 0)
(1.37879 0.0378245 0)
(1.37996 0.0369024 0)
(1.38081 0.0360907 0)
(1.38111 0.0352064 0)
(1.38136 0.0343224 0)
(1.38187 0.033775 0)
(1.38221 0.0333414 0)
(1.38239 0.0327154 0)
(1.38197 0.0323213 0)
(1.38123 0.032317 0)
(1.38022 0.0324113 0)
(1.37904 0.0324898 0)
(1.37757 0.0326582 0)
(1.37588 0.0328288 0)
(1.37409 0.0332806 0)
(1.32956 0.11035 0)
(1.33006 0.109729 0)
(1.33074 0.109052 0)
(1.33135 0.108404 0)
(1.33178 0.107915 0)
(1.33223 0.107224 0)
(1.333 0.106489 0)
(1.33356 0.105901 0)
(1.33411 0.105348 0)
(1.33485 0.104633 0)
(1.33542 0.104067 0)
(1.3359 0.103594 0)
(1.3366 0.102945 0)
(1.33724 0.102299 0)
(1.33771 0.101888 0)
(1.33832 0.101255 0)
(1.33898 0.100509 0)
(1.33944 0.100117 0)
(1.33995 0.0995549 0)
(1.34064 0.0987331 0)
(1.34114 0.0981757 0)
(1.34157 0.0976874 0)
(1.3422 0.0969525 0)
(1.3428 0.0961855 0)
(1.34321 0.0957749 0)
(1.34364 0.0950801 0)
(1.34425 0.0941512 0)
(1.34466 0.093618 0)
(1.34507 0.093021 0)
(1.34573 0.0921897 0)
(1.34622 0.091522 0)
(1.34656 0.0909527 0)
(1.34718 0.0901525 0)
(1.3478 0.089355 0)
(1.34821 0.0888722 0)
(1.34878 0.0881383 0)
(1.34937 0.0872942 0)
(1.34976 0.0867473 0)
(1.35018 0.0860958 0)
(1.35087 0.0852862 0)
(1.35139 0.0846379 0)
(1.35175 0.0841973 0)
(1.35225 0.0833837 0)
(1.35262 0.0826281 0)
(1.35285 0.0821351 0)
(1.35325 0.0814991 0)
(1.35374 0.080732 0)
(1.35405 0.080197 0)
(1.35422 0.0797085 0)
(1.35465 0.0789462 0)
(1.35508 0.0782702 0)
(1.35546 0.0778451 0)
(1.35603 0.0772347 0)
(1.35649 0.0765646 0)
(1.35678 0.0760745 0)
(1.35705 0.0754482 0)
(1.35763 0.0748298 0)
(1.35825 0.0742086 0)
(1.35873 0.0737373 0)
(1.35909 0.0732028 0)
(1.35938 0.0724339 0)
(1.35974 0.071705 0)
(1.36019 0.0710979 0)
(1.36065 0.0704958 0)
(1.36106 0.0698605 0)
(1.36136 0.0692151 0)
(1.36156 0.0685312 0)
(1.36169 0.0677779 0)
(1.36191 0.0670571 0)
(1.3623 0.06644 0)
(1.36281 0.0658211 0)
(1.36341 0.0651353 0)
(1.36392 0.0644676 0)
(1.36432 0.063869 0)
(1.36452 0.0632729 0)
(1.36433 0.0625422 0)
(1.36427 0.0618099 0)
(1.36471 0.0613772 0)
(1.3653 0.0608663 0)
(1.36586 0.0602948 0)
(1.36628 0.0597752 0)
(1.36655 0.0592177 0)
(1.36662 0.0585959 0)
(1.36655 0.0579574 0)
(1.36651 0.0573305 0)
(1.3666 0.0566904 0)
(1.3668 0.0560356 0)
(1.3671 0.0553155 0)
(1.3674 0.0545271 0)
(1.36752 0.0538386 0)
(1.36749 0.0532641 0)
(1.36726 0.0525818 0)
(1.36716 0.0518055 0)
(1.36743 0.0511999 0)
(1.36789 0.0504548 0)
(1.36811 0.0499087 0)
(1.36822 0.0495174 0)
(1.36822 0.0489734 0)
(1.36848 0.0483748 0)
(1.36891 0.0477588 0)
(1.36935 0.0471138 0)
(1.36977 0.0464982 0)
(1.37019 0.0458515 0)
(1.37068 0.0451422 0)
(1.37136 0.0444032 0)
(1.37221 0.0436237 0)
(1.37314 0.0427808 0)
(1.37406 0.0419291 0)
(1.37487 0.0411069 0)
(1.37542 0.0402806 0)
(1.37589 0.0393162 0)
(1.37668 0.0384834 0)
(1.37759 0.0377844 0)
(1.37839 0.0370624 0)
(1.37894 0.0365417 0)
(1.37901 0.0360961 0)
(1.3784 0.0357159 0)
(1.37769 0.0354869 0)
(1.37693 0.035422 0)
(1.37619 0.035306 0)
(1.32516 0.114876 0)
(1.3256 0.114348 0)
(1.32598 0.113827 0)
(1.32655 0.113188 0)
(1.32727 0.112449 0)
(1.32781 0.112013 0)
(1.32824 0.111591 0)
(1.32888 0.110876 0)
(1.32943 0.110226 0)
(1.32987 0.109739 0)
(1.33056 0.109112 0)
(1.33129 0.1084 0)
(1.33179 0.107958 0)
(1.33238 0.107315 0)
(1.3331 0.106503 0)
(1.33359 0.106005 0)
(1.3341 0.10542 0)
(1.33485 0.104622 0)
(1.33541 0.103997 0)
(1.33581 0.103487 0)
(1.33644 0.102713 0)
(1.33706 0.101916 0)
(1.33747 0.101474 0)
(1.338 0.100815 0)
(1.33862 0.0999032 0)
(1.33901 0.0993936 0)
(1.33933 0.0988818 0)
(1.3399 0.0980402 0)
(1.34035 0.0973751 0)
(1.34067 0.0969814 0)
(1.34119 0.0962651 0)
(1.34173 0.0954334 0)
(1.34208 0.0950739 0)
(1.34253 0.0945123 0)
(1.34312 0.0936371 0)
(1.34347 0.0931877 0)
(1.34382 0.0926546 0)
(1.34437 0.0918709 0)
(1.34474 0.0913327 0)
(1.34511 0.0907387 0)
(1.34562 0.0900297 0)
(1.34619 0.0892881 0)
(1.3466 0.0887107 0)
(1.34679 0.0881187 0)
(1.34721 0.0872908 0)
(1.34769 0.0865762 0)
(1.34805 0.0860617 0)
(1.34864 0.0853889 0)
(1.34913 0.0846534 0)
(1.34948 0.0840678 0)
(1.34999 0.0834443 0)
(1.35068 0.0827733 0)
(1.35133 0.0821044 0)
(1.35187 0.0816129 0)
(1.35224 0.081038 0)
(1.35249 0.0802721 0)
(1.353 0.0796428 0)
(1.35362 0.0790877 0)
(1.35417 0.0785106 0)
(1.35454 0.0779704 0)
(1.35469 0.0772908 0)
(1.35495 0.0765545 0)
(1.35544 0.0759394 0)
(1.35591 0.0753326 0)
(1.35626 0.074822 0)
(1.35642 0.0742222 0)
(1.35653 0.0734653 0)
(1.35689 0.0728479 0)
(1.35734 0.0723335 0)
(1.35778 0.0717893 0)
(1.35822 0.0711543 0)
(1.35869 0.070454 0)
(1.35917 0.0697617 0)
(1.35957 0.0691253 0)
(1.3598 0.0684822 0)
(1.3598 0.0676998 0)
(1.36005 0.0670196 0)
(1.36058 0.0665255 0)
(1.36124 0.0658871 0)
(1.36175 0.0652533 0)
(1.36205 0.0647279 0)
(1.36208 0.0639967 0)
(1.3622 0.0631653 0)
(1.36254 0.0624944 0)
(1.36283 0.0618758 0)
(1.36296 0.0613627 0)
(1.36292 0.0607609 0)
(1.3629 0.0600262 0)
(1.36312 0.059378 0)
(1.36343 0.0586809 0)
(1.36363 0.0580444 0)
(1.36369 0.057519 0)
(1.36351 0.0569466 0)
(1.36341 0.0563137 0)
(1.36368 0.0558525 0)
(1.36412 0.0552541 0)
(1.36443 0.0546808 0)
(1.36463 0.0542936 0)
(1.36465 0.0538987 0)
(1.36455 0.0533289 0)
(1.36477 0.0528206 0)
(1.36517 0.0522716 0)
(1.36555 0.0516894 0)
(1.36585 0.0511935 0)
(1.36608 0.0506181 0)
(1.36632 0.0498673 0)
(1.36678 0.0490968 0)
(1.36743 0.0483245 0)
(1.36815 0.0475152 0)
(1.36885 0.0467402 0)
(1.3695 0.0459613 0)
(1.37007 0.0451265 0)
(1.37082 0.0442226 0)
(1.37186 0.0433671 0)
(1.37297 0.0425171 0)
(1.37393 0.0417368 0)
(1.37459 0.0411355 0)
(1.3749 0.0405075 0)
(1.37497 0.039779 0)
(1.37514 0.0393204 0)
(1.32074 0.120053 0)
(1.32131 0.119389 0)
(1.32184 0.118775 0)
(1.32224 0.118294 0)
(1.32271 0.117668 0)
(1.3234 0.116973 0)
(1.32395 0.116448 0)
(1.32439 0.11608 0)
(1.32496 0.115476 0)
(1.32557 0.114793 0)
(1.32602 0.114446 0)
(1.32648 0.113966 0)
(1.32716 0.113216 0)
(1.32768 0.112655 0)
(1.3281 0.112261 0)
(1.32872 0.111578 0)
(1.32931 0.110827 0)
(1.32972 0.110437 0)
(1.33015 0.109833 0)
(1.33077 0.108964 0)
(1.33121 0.108388 0)
(1.33157 0.107888 0)
(1.33221 0.107065 0)
(1.33273 0.106308 0)
(1.3331 0.105863 0)
(1.33366 0.105138 0)
(1.33419 0.104308 0)
(1.33455 0.103813 0)
(1.33485 0.103198 0)
(1.33546 0.102373 0)
(1.33604 0.101679 0)
(1.33648 0.101271 0)
(1.33708 0.100594 0)
(1.33762 0.099749 0)
(1.33798 0.0992768 0)
(1.33832 0.0987656 0)
(1.33883 0.0980215 0)
(1.33934 0.0972967 0)
(1.33967 0.0969218 0)
(1.34007 0.096309 0)
(1.3405 0.0955853 0)
(1.34083 0.0950339 0)
(1.34139 0.0943463 0)
(1.34182 0.0936889 0)
(1.34204 0.093195 0)
(1.3425 0.0924825 0)
(1.34299 0.0918299 0)
(1.34351 0.0912743 0)
(1.34417 0.0906409 0)
(1.3447 0.0900419 0)
(1.34516 0.0894076 0)
(1.34576 0.0887196 0)
(1.34648 0.0880376 0)
(1.34713 0.0873695 0)
(1.34761 0.0867634 0)
(1.34787 0.0860501 0)
(1.34823 0.0853092 0)
(1.34882 0.0847038 0)
(1.34945 0.0839887 0)
(1.34987 0.0833871 0)
(1.35008 0.0827192 0)
(1.35034 0.081972 0)
(1.35085 0.081366 0)
(1.35141 0.0807345 0)
(1.35185 0.0801782 0)
(1.3521 0.0795729 0)
(1.35226 0.0788081 0)
(1.35273 0.0782013 0)
(1.35334 0.0776451 0)
(1.35391 0.0770892 0)
(1.35438 0.0766033 0)
(1.35466 0.0760213 0)
(1.35489 0.0752489 0)
(1.35531 0.0745441 0)
(1.35575 0.0739755 0)
(1.35608 0.0734813 0)
(1.35625 0.0728771 0)
(1.35653 0.0721868 0)
(1.35701 0.0715545 0)
(1.35747 0.0708662 0)
(1.35775 0.070249 0)
(1.35777 0.069589 0)
(1.35768 0.0687888 0)
(1.35793 0.0681596 0)
(1.35838 0.0674695 0)
(1.35874 0.0667378 0)
(1.35892 0.0661969 0)
(1.35889 0.0656377 0)
(1.3588 0.0649286 0)
(1.35907 0.0643444 0)
(1.3595 0.0637142 0)
(1.35984 0.06312 0)
(1.36007 0.0626657 0)
(1.36011 0.0622086 0)
(1.3601 0.0616472 0)
(1.36033 0.0611675 0)
(1.36067 0.0606646 0)
(1.36096 0.060136 0)
(1.3611 0.0597228 0)
(1.36109 0.059359 0)
(1.36094 0.0589171 0)
(1.36097 0.0584865 0)
(1.36116 0.0580598 0)
(1.36137 0.0575357 0)
(1.36149 0.0570697 0)
(1.36152 0.0566528 0)
(1.36139 0.056071 0)
(1.36153 0.0553883 0)
(1.36198 0.0547397 0)
(1.36252 0.0540362 0)
(1.36307 0.0533622 0)
(1.36359 0.0526777 0)
(1.36403 0.0518692 0)
(1.36466 0.0509757 0)
(1.36565 0.0501582 0)
(1.36682 0.0493319 0)
(1.36799 0.0485082 0)
(1.36904 0.0477101 0)
(1.36977 0.0468494 0)
(1.37027 0.0457358 0)
(1.31627 0.125589 0)
(1.31663 0.125155 0)
(1.31697 0.124642 0)
(1.31753 0.124003 0)
(1.31811 0.123418 0)
(1.31855 0.123085 0)
(1.31898 0.122592 0)
(1.31959 0.121872 0)
(1.32011 0.121288 0)
(1.32051 0.12088 0)
(1.32106 0.120236 0)
(1.32173 0.119489 0)
(1.32218 0.119054 0)
(1.32264 0.118519 0)
(1.32331 0.117752 0)
(1.32386 0.11709 0)
(1.32425 0.116643 0)
(1.32481 0.115914 0)
(1.32538 0.1151 0)
(1.32575 0.114668 0)
(1.32626 0.114038 0)
(1.32683 0.11321 0)
(1.32722 0.112723 0)
(1.32759 0.11222 0)
(1.32815 0.111465 0)
(1.32867 0.11076 0)
(1.32906 0.11044 0)
(1.32953 0.109829 0)
(1.32999 0.108994 0)
(1.33031 0.108565 0)
(1.33075 0.108064 0)
(1.33139 0.107342 0)
(1.33193 0.106668 0)
(1.33233 0.106251 0)
(1.33263 0.105583 0)
(1.33321 0.104737 0)
(1.33368 0.104171 0)
(1.33404 0.103677 0)
(1.33465 0.102872 0)
(1.33511 0.10216 0)
(1.33549 0.10156 0)
(1.33616 0.100802 0)
(1.33657 0.100176 0)
(1.3371 0.0994721 0)
(1.33778 0.0986386 0)
(1.33822 0.0980697 0)
(1.33872 0.0974266 0)
(1.33946 0.0966891 0)
(1.34006 0.0961103 0)
(1.34056 0.0956091 0)
(1.34117 0.0948969 0)
(1.34176 0.0942382 0)
(1.3422 0.0938465 0)
(1.34263 0.0933105 0)
(1.34315 0.0925437 0)
(1.34359 0.0918354 0)
(1.34388 0.0914194 0)
(1.34411 0.0908633 0)
(1.34457 0.0901534 0)
(1.34506 0.0894164 0)
(1.34538 0.0889704 0)
(1.34568 0.0883871 0)
(1.34619 0.0876847 0)
(1.34662 0.0871357 0)
(1.34711 0.0865866 0)
(1.34759 0.0858804 0)
(1.34795 0.08518 0)
(1.34841 0.084495 0)
(1.34905 0.0838456 0)
(1.3497 0.0831448 0)
(1.35021 0.0825195 0)
(1.3505 0.0818806 0)
(1.35065 0.0810729 0)
(1.35113 0.0804012 0)
(1.35172 0.0797559 0)
(1.35221 0.0791314 0)
(1.35251 0.0785872 0)
(1.35264 0.0779289 0)
(1.35284 0.0771958 0)
(1.35316 0.0765342 0)
(1.35345 0.0759268 0)
(1.35365 0.0753728 0)
(1.35373 0.0748197 0)
(1.35377 0.0742095 0)
(1.35391 0.0735896 0)
(1.35417 0.0730183 0)
(1.35444 0.0724861 0)
(1.35463 0.072002 0)
(1.35471 0.0715309 0)
(1.35473 0.0709987 0)
(1.35501 0.070525 0)
(1.35542 0.0700803 0)
(1.35582 0.0695992 0)
(1.35611 0.0691531 0)
(1.35622 0.0686991 0)
(1.35617 0.0681102 0)
(1.35632 0.0675474 0)
(1.35663 0.0670451 0)
(1.35703 0.0664286 0)
(1.35726 0.0658669 0)
(1.35734 0.0654298 0)
(1.35722 0.064972 0)
(1.35703 0.0643923 0)
(1.35711 0.0639223 0)
(1.35741 0.0633695 0)
(1.35763 0.062769 0)
(1.35767 0.0623179 0)
(1.35762 0.0617618 0)
(1.35774 0.0611357 0)
(1.3581 0.0605078 0)
(1.35848 0.0598701 0)
(1.35885 0.0593153 0)
(1.35917 0.058692 0)
(1.35944 0.0579689 0)
(1.35996 0.0572657 0)
(1.36074 0.0566382 0)
(1.36166 0.0559833 0)
(1.36265 0.0552522 0)
(1.36356 0.0545077 0)
(1.36429 0.0537542 0)
(1.31184 0.130855 0)
(1.31225 0.130303 0)
(1.31281 0.129704 0)
(1.3133 0.129231 0)
(1.31367 0.128832 0)
(1.31413 0.128208 0)
(1.31469 0.127543 0)
(1.3151 0.127151 0)
(1.31554 0.126687 0)
(1.31614 0.12603 0)
(1.31666 0.12545 0)
(1.31703 0.125096 0)
(1.31746 0.124509 0)
(1.31807 0.123765 0)
(1.31849 0.123314 0)
(1.31895 0.122802 0)
(1.31956 0.122038 0)
(1.31999 0.121449 0)
(1.32032 0.12092 0)
(1.3209 0.120177 0)
(1.32145 0.119461 0)
(1.32185 0.119048 0)
(1.3224 0.118362 0)
(1.32293 0.117578 0)
(1.3233 0.117144 0)
(1.32377 0.116561 0)
(1.32444 0.115768 0)
(1.32495 0.115233 0)
(1.32536 0.114804 0)
(1.32591 0.114055 0)
(1.32643 0.113348 0)
(1.32682 0.112958 0)
(1.32726 0.112359 0)
(1.32785 0.111518 0)
(1.32828 0.110978 0)
(1.3286 0.110543 0)
(1.32912 0.109812 0)
(1.32962 0.109085 0)
(1.32996 0.10865 0)
(1.33041 0.108042 0)
(1.33104 0.107301 0)
(1.33154 0.106769 0)
(1.33199 0.106289 0)
(1.33243 0.105614 0)
(1.33301 0.104935 0)
(1.3337 0.104293 0)
(1.3343 0.103761 0)
(1.33472 0.103245 0)
(1.3352 0.102496 0)
(1.33595 0.101745 0)
(1.33647 0.101273 0)
(1.33694 0.100748 0)
(1.33754 0.100004 0)
(1.33798 0.0993626 0)
(1.3383 0.0987877 0)
(1.3388 0.0981476 0)
(1.33945 0.0973607 0)
(1.33988 0.0967219 0)
(1.34016 0.0960969 0)
(1.34063 0.0953377 0)
(1.3413 0.0945193 0)
(1.34177 0.0939751 0)
(1.34226 0.0934103 0)
(1.34279 0.092659 0)
(1.3432 0.0920425 0)
(1.34362 0.0914861 0)
(1.34417 0.0908609 0)
(1.34475 0.0902048 0)
(1.34523 0.0896824 0)
(1.34561 0.0892026 0)
(1.34588 0.0885686 0)
(1.34616 0.0878492 0)
(1.34651 0.0872697 0)
(1.34683 0.0868409 0)
(1.34703 0.0863803 0)
(1.34713 0.0856996 0)
(1.34739 0.0849731 0)
(1.34774 0.0843525 0)
(1.34802 0.0838742 0)
(1.3482 0.0834319 0)
(1.34825 0.0827844 0)
(1.34849 0.0820671 0)
(1.34888 0.0814227 0)
(1.34924 0.0808685 0)
(1.34951 0.080419 0)
(1.34961 0.0798578 0)
(1.34978 0.0791381 0)
(1.35024 0.0785274 0)
(1.35075 0.0779505 0)
(1.35117 0.0775233 0)
(1.3515 0.0771883 0)
(1.3517 0.076716 0)
(1.35197 0.0761217 0)
(1.35235 0.0755696 0)
(1.35266 0.0750382 0)
(1.35283 0.0744959 0)
(1.35289 0.0738621 0)
(1.35305 0.0732531 0)
(1.35332 0.072676 0)
(1.35366 0.0720161 0)
(1.35385 0.0713939 0)
(1.3539 0.0709068 0)
(1.35377 0.0704589 0)
(1.3535 0.0699312 0)
(1.35347 0.0694332 0)
(1.3537 0.0690027 0)
(1.35413 0.0683994 0)
(1.35438 0.0679172 0)
(1.35448 0.0676097 0)
(1.35444 0.0670895 0)
(1.35454 0.0663995 0)
(1.3548 0.0658141 0)
(1.35511 0.0652727 0)
(1.3554 0.0647744 0)
(1.35561 0.0643207 0)
(1.3559 0.0637449 0)
(1.35637 0.0632046 0)
(1.35696 0.0627064 0)
(1.35765 0.062122 0)
(1.35832 0.0614959 0)
(1.30811 0.135094 0)
(1.30849 0.1347 0)
(1.30882 0.134297 0)
(1.30928 0.133796 0)
(1.30985 0.133227 0)
(1.31028 0.132854 0)
(1.31059 0.132471 0)
(1.31106 0.13186 0)
(1.31157 0.131259 0)
(1.31194 0.130871 0)
(1.3124 0.130325 0)
(1.31298 0.129614 0)
(1.31337 0.129128 0)
(1.31366 0.128638 0)
(1.3142 0.127964 0)
(1.31471 0.127322 0)
(1.31508 0.126897 0)
(1.31561 0.12626 0)
(1.3161 0.125567 0)
(1.31642 0.125147 0)
(1.31685 0.124552 0)
(1.31746 0.123806 0)
(1.3179 0.123383 0)
(1.31836 0.12291 0)
(1.31892 0.122193 0)
(1.31935 0.12168 0)
(1.3197 0.121244 0)
(1.32025 0.120595 0)
(1.32085 0.119897 0)
(1.32128 0.119565 0)
(1.32169 0.11905 0)
(1.3222 0.118289 0)
(1.32255 0.117828 0)
(1.3229 0.117355 0)
(1.32346 0.116707 0)
(1.32398 0.116069 0)
(1.32432 0.115611 0)
(1.32471 0.114966 0)
(1.32538 0.114252 0)
(1.32595 0.113693 0)
(1.3264 0.113246 0)
(1.32697 0.112544 0)
(1.32766 0.11179 0)
(1.32824 0.111284 0)
(1.32874 0.110774 0)
(1.3293 0.110083 0)
(1.33007 0.109332 0)
(1.33072 0.108663 0)
(1.33115 0.108141 0)
(1.3316 0.107409 0)
(1.3323 0.106575 0)
(1.33281 0.105909 0)
(1.33314 0.105374 0)
(1.33366 0.104645 0)
(1.33419 0.103925 0)
(1.33454 0.103475 0)
(1.33503 0.102899 0)
(1.33563 0.102178 0)
(1.33608 0.101605 0)
(1.33644 0.101076 0)
(1.33695 0.10043 0)
(1.33756 0.0997225 0)
(1.3381 0.0991588 0)
(1.33855 0.0987471 0)
(1.33891 0.0982255 0)
(1.33925 0.097571 0)
(1.33968 0.0969855 0)
(1.34018 0.0964777 0)
(1.34068 0.0959681 0)
(1.34107 0.0954473 0)
(1.34129 0.094866 0)
(1.34147 0.09419 0)
(1.34183 0.0935837 0)
(1.3422 0.0930354 0)
(1.34247 0.0925248 0)
(1.34247 0.0919269 0)
(1.34245 0.0911879 0)
(1.34284 0.0906243 0)
(1.34336 0.0899935 0)
(1.34376 0.0894416 0)
(1.34399 0.0889488 0)
(1.34405 0.0882764 0)
(1.34444 0.0876594 0)
(1.34503 0.0870415 0)
(1.34556 0.0864045 0)
(1.34594 0.0858873 0)
(1.3461 0.0852961 0)
(1.34634 0.0846531 0)
(1.34687 0.0841526 0)
(1.34751 0.0835481 0)
(1.34803 0.0829876 0)
(1.34837 0.0825967 0)
(1.34848 0.0821536 0)
(1.34851 0.0815556 0)
(1.34883 0.0810633 0)
(1.34924 0.080462 0)
(1.34949 0.079897 0)
(1.34956 0.0793749 0)
(1.34957 0.078716 0)
(1.34973 0.0780919 0)
(1.35001 0.0774618 0)
(1.35021 0.0768768 0)
(1.3503 0.0764271 0)
(1.35025 0.0760008 0)
(1.35012 0.0755167 0)
(1.35024 0.0751282 0)
(1.35053 0.0747461 0)
(1.35095 0.0741918 0)
(1.35123 0.0736876 0)
(1.3514 0.0732951 0)
(1.35134 0.0728204 0)
(1.35125 0.0721714 0)
(1.35151 0.0716292 0)
(1.35188 0.0710641 0)
(1.35216 0.0705728 0)
(1.35233 0.0701834 0)
(1.3524 0.069673 0)
(1.35255 0.0691342 0)
(1.35292 0.0686781 0)
(1.3534 0.0681667 0)
(1.3047 0.138922 0)
(1.30517 0.138439 0)
(1.30559 0.137991 0)
(1.3059 0.137597 0)
(1.30627 0.137085 0)
(1.30681 0.136516 0)
(1.30723 0.136076 0)
(1.30752 0.135707 0)
(1.30793 0.135178 0)
(1.30835 0.134654 0)
(1.30869 0.134251 0)
(1.30907 0.133793 0)
(1.30953 0.133235 0)
(1.30989 0.132773 0)
(1.31008 0.132342 0)
(1.31047 0.131752 0)
(1.31097 0.13116 0)
(1.31135 0.130776 0)
(1.3118 0.130265 0)
(1.31221 0.129658 0)
(1.31249 0.129183 0)
(1.31282 0.128657 0)
(1.31343 0.128085 0)
(1.31399 0.127549 0)
(1.31441 0.127241 0)
(1.31488 0.126622 0)
(1.31528 0.126018 0)
(1.31561 0.125576 0)
(1.31615 0.125073 0)
(1.31677 0.124466 0)
(1.31721 0.124027 0)
(1.31752 0.123541 0)
(1.31807 0.122905 0)
(1.31861 0.122355 0)
(1.319 0.121946 0)
(1.31957 0.121298 0)
(1.32019 0.12059 0)
(1.32066 0.12005 0)
(1.32131 0.119413 0)
(1.32202 0.118657 0)
(1.32256 0.117985 0)
(1.32299 0.117253 0)
(1.32365 0.116542 0)
(1.32443 0.115824 0)
(1.32506 0.115228 0)
(1.3255 0.11472 0)
(1.32586 0.114066 0)
(1.32645 0.113442 0)
(1.32712 0.112759 0)
(1.32758 0.112256 0)
(1.32796 0.11174 0)
(1.32842 0.11103 0)
(1.32879 0.110414 0)
(1.3291 0.109959 0)
(1.32957 0.109479 0)
(1.33012 0.108938 0)
(1.3306 0.108501 0)
(1.33105 0.108136 0)
(1.33147 0.107653 0)
(1.33184 0.107077 0)
(1.33219 0.1065 0)
(1.33268 0.105936 0)
(1.33331 0.105387 0)
(1.33394 0.104817 0)
(1.33446 0.10432 0)
(1.33477 0.103835 0)
(1.33488 0.103148 0)
(1.33532 0.102502 0)
(1.3359 0.101904 0)
(1.33638 0.101312 0)
(1.33666 0.100697 0)
(1.33678 0.0998761 0)
(1.33715 0.0991293 0)
(1.33765 0.0984525 0)
(1.33806 0.0978293 0)
(1.3383 0.0972631 0)
(1.33827 0.0965571 0)
(1.33852 0.095877 0)
(1.33909 0.0953167 0)
(1.33971 0.0946747 0)
(1.34017 0.0941828 0)
(1.34046 0.0937143 0)
(1.34062 0.0931055 0)
(1.3411 0.0925844 0)
(1.34173 0.0920292 0)
(1.3423 0.0914376 0)
(1.34271 0.0909742 0)
(1.34293 0.0904792 0)
(1.34313 0.0898932 0)
(1.34356 0.0894102 0)
(1.34409 0.0888601 0)
(1.34453 0.0882916 0)
(1.34479 0.087866 0)
(1.34485 0.0874186 0)
(1.34485 0.0868547 0)
(1.34511 0.0863814 0)
(1.34552 0.0857807 0)
(1.34579 0.0851737 0)
(1.3459 0.0846863 0)
(1.34584 0.0840518 0)
(1.34597 0.0833937 0)
(1.34633 0.0828017 0)
(1.34668 0.0822072 0)
(1.34693 0.0817535 0)
(1.34704 0.0813332 0)
(1.34701 0.0807981 0)
(1.34721 0.0803069 0)
(1.3476 0.0798628 0)
(1.34804 0.0793144 0)
(1.34834 0.0788347 0)
(1.34848 0.0784148 0)
(1.34834 0.0778959 0)
(1.34828 0.0773186 0)
(1.3485 0.0768627 0)
(1.34881 0.0763109 0)
(1.34899 0.075811 0)
(1.34905 0.0754571 0)
(1.34895 0.0751051 0)
(1.3488 0.0746526 0)
(1.34893 0.074242 0)
(1.30142 0.142337 0)
(1.30178 0.142022 0)
(1.30219 0.141653 0)
(1.30253 0.141303 0)
(1.30279 0.141005 0)
(1.30308 0.140597 0)
(1.30345 0.140132 0)
(1.30378 0.139749 0)
(1.30405 0.139383 0)
(1.30427 0.1389 0)
(1.30455 0.138375 0)
(1.30492 0.13792 0)
(1.3053 0.137512 0)
(1.30565 0.137106 0)
(1.30588 0.13664 0)
(1.30605 0.136085 0)
(1.30647 0.1356 0)
(1.30706 0.135077 0)
(1.30753 0.134661 0)
(1.30788 0.134251 0)
(1.3083 0.133606 0)
(1.30868 0.133104 0)
(1.3092 0.132662 0)
(1.30986 0.132154 0)
(1.31048 0.13158 0)
(1.31088 0.131154 0)
(1.3112 0.130545 0)
(1.31184 0.12991 0)
(1.31232 0.129388 0)
(1.31275 0.128828 0)
(1.31337 0.12809 0)
(1.3138 0.12747 0)
(1.31428 0.126893 0)
(1.31493 0.126262 0)
(1.31548 0.12568 0)
(1.31589 0.125179 0)
(1.31644 0.124607 0)
(1.31714 0.123986 0)
(1.31773 0.123482 0)
(1.31822 0.123053 0)
(1.31866 0.122405 0)
(1.31911 0.12173 0)
(1.31958 0.121221 0)
(1.32013 0.120771 0)
(1.32067 0.120274 0)
(1.32111 0.119803 0)
(1.32138 0.119381 0)
(1.32158 0.118887 0)
(1.32203 0.118423 0)
(1.32258 0.117919 0)
(1.32305 0.11742 0)
(1.32341 0.116913 0)
(1.32384 0.1163 0)
(1.32442 0.115715 0)
(1.32498 0.115238 0)
(1.32549 0.114777 0)
(1.326 0.114163 0)
(1.32658 0.113482 0)
(1.32717 0.112884 0)
(1.32769 0.112362 0)
(1.32806 0.111736 0)
(1.32846 0.110979 0)
(1.32911 0.110326 0)
(1.32983 0.109657 0)
(1.33044 0.109025 0)
(1.33085 0.108474 0)
(1.33094 0.107797 0)
(1.33113 0.107079 0)
(1.33166 0.106525 0)
(1.33221 0.105881 0)
(1.3326 0.105329 0)
(1.33277 0.104777 0)
(1.33285 0.104066 0)
(1.33324 0.103441 0)
(1.33373 0.102853 0)
(1.33416 0.102334 0)
(1.33447 0.101887 0)
(1.33457 0.101351 0)
(1.33487 0.100782 0)
(1.33545 0.100317 0)
(1.33607 0.0998093 0)
(1.3366 0.0993741 0)
(1.33697 0.0989659 0)
(1.33714 0.0984037 0)
(1.33754 0.097838 0)
(1.33816 0.097299 0)
(1.3388 0.0966319 0)