/*--------------------------------*- C++ -*----------------------------------*\
  =========                 |
  \\      /  F ield         | OpenFOAM: The Open Source CFD Toolbox
   \\    /   O peration     | Website:  https://openfoam.org
    \\  /    A nd           | Version:  7
     \\/     M anipulation  |
\*---------------------------------------------------------------------------*/
FoamFile
{
    version     2.0;
    format      ascii;
    class       volScalarField;
    location    "5.5";
    object      rho;
}
// * * * * * * * * * * * * * * * * * * * * * * * * * * * * * * * * * * * * * //

dimensions      [1 -3 0 0 0 0 0];

internalField   nonuniform List<scalar> 
2413
(
1.56164
1.56049
1.55962
1.55871
1.55764
1.55629
1.55464
1.553
1.55163
1.55036
1.54901
1.54741
1.54535
1.54266
1.54036
1.53886
1.53761
1.53643
1.5351
1.53349
1.53128
1.52844
1.52669
1.52561
1.52474
1.52376
1.52254
1.52085
1.5188
1.51763
1.51678
1.51585
1.51467
1.51301
1.5116
1.51076
1.51003
1.50919
1.50814
1.50676
1.50473
1.50316
1.50226
1.50145
1.50058
1.49959
1.49834
1.4964
1.49465
1.49383
1.49326
1.49272
1.49199
1.49108
1.48969
1.48769
1.48652
1.48588
1.48546
1.48519
1.48461
1.48381
1.48271
1.48086
1.47885
1.47796
1.47739
1.47716
1.47695
1.47632
1.47551
1.47433
1.47233
1.47066
1.4699
1.4694
1.46911
1.46859
1.46789
1.46711
1.46619
1.465
1.4634
1.46195
1.46108
1.46045
1.45997
1.45956
1.45903
1.45835
1.4575
1.45622
1.45404
1.45224
1.45146
1.45093
1.4507
1.45039
1.44977
1.44899
1.4478
1.44588
1.44461
1.44399
1.44352
1.44301
1.44231
1.44143
1.44009
1.43817
1.43697
1.4363
1.43582
1.43548
1.43495
1.43427
1.43344
1.43215
1.43018
1.42875
1.5533
1.55578
1.5587
1.56076
1.56177
1.56216
1.56258
1.56328
1.56417
1.56486
1.56523
1.56547
1.56572
1.56602
1.56606
1.56592
1.56552
1.56499
1.56452
1.56409
1.56363
1.56289
1.56183
1.56041
1.55837
1.55584
1.55406
1.55273
1.5515
1.55021
1.54872
1.5469
1.54438
1.54158
1.53991
1.53872
1.53767
1.53647
1.53501
1.53322
1.53147
1.53014
1.52888
1.52735
1.52526
1.52344
1.52237
1.5216
1.52095
1.52001
1.51882
1.51721
1.51483
1.51306
1.51209
1.5112
1.51025
1.50916
1.50768
1.50554
1.50413
1.5034
1.50283
1.50216
1.50129
1.5001
1.49813
1.49637
1.49558
1.49503
1.49479
1.49437
1.4936
1.49261
1.49102
1.48893
1.48784
1.4872
1.48687
1.48663
1.48599
1.48515
1.48393
1.48206
1.48073
1.47996
1.4792
1.47834
1.47744
1.47669
1.47607
1.47544
1.4747
1.47382
1.47267
1.47096
1.46932
1.46848
1.46791
1.46757
1.46719
1.46656
1.46575
1.46461
1.46261
1.46065
1.45982
1.45926
1.45892
1.45838
1.45764
1.45666
1.45509
1.45362
1.45288
1.45235
1.45189
1.45129
1.45052
1.44953
1.44789
1.4458
1.44469
1.44398
1.44347
1.4431
1.44254
1.44185
1.44101
1.43966
1.43774
1.43633
1.53679
1.54038
1.54418
1.54844
1.55255
1.55524
1.5572
1.55876
1.5599
1.5608
1.56183
1.56297
1.56451
1.56654
1.5675
1.56796
1.568
1.56794
1.56812
1.56828
1.56878
1.5692
1.56897
1.56843
1.56727
1.56571
1.56474
1.56398
1.56329
1.56247
1.5613
1.5598
1.55761
1.55503
1.55342
1.5522
1.55099
1.54967
1.54819
1.54665
1.54516
1.54365
1.54194
1.53963
1.53673
1.53485
1.53365
1.53278
1.5321
1.53108
1.52977
1.52803
1.52544
1.52349
1.52244
1.52151
1.52051
1.51934
1.51771
1.5156
1.51439
1.51366
1.513
1.51219
1.51116
1.50959
1.50725
1.5058
1.50505
1.5046
1.50417
1.50338
1.50235
1.5008
1.49878
1.49763
1.49696
1.49663
1.49644
1.49581
1.49496
1.49375
1.49212
1.49104
1.49031
1.48954
1.48858
1.48712
1.48549
1.48463
1.48409
1.48372
1.4832
1.48247
1.48151
1.47999
1.47784
1.47663
1.47597
1.47554
1.4751
1.47441
1.47353
1.47221
1.47009
1.4686
1.46788
1.46737
1.46681
1.46605
1.46512
1.46374
1.46206
1.46112
1.46048
1.46002
1.45954
1.45885
1.45799
1.45683
1.45483
1.45261
1.45157
1.45085
1.45031
1.44986
1.44922
1.44848
1.44746
1.44578
1.4445
1.4436
1.51466
1.51839
1.52243
1.52703
1.53231
1.53795
1.54265
1.54601
1.54865
1.55081
1.55295
1.55527
1.55791
1.56144
1.56445
1.56568
1.56621
1.56625
1.56678
1.56745
1.56851
1.56983
1.57027
1.57039
1.56998
1.56924
1.56898
1.56882
1.56899
1.5694
1.56917
1.56868
1.56777
1.56622
1.56457
1.56332
1.5623
1.56147
1.5608
1.55991
1.55875
1.55735
1.55558
1.55302
1.54963
1.54733
1.54591
1.54475
1.54377
1.54261
1.54117
1.5393
1.53662
1.53461
1.5335
1.53248
1.53134
1.52992
1.52794
1.52612
1.52515
1.52447
1.52383
1.52294
1.52179
1.52007
1.51755
1.51605
1.51522
1.51457
1.51374
1.51266
1.51117
1.50902
1.50755
1.50677
1.50639
1.50612
1.50536
1.50434
1.5031
1.50211
1.5014
1.50073
1.49996
1.499
1.49752
1.49507
1.49332
1.49257
1.4921
1.49197
1.49151
1.49071
1.4897
1.48803
1.48563
1.48433
1.4836
1.48306
1.48242
1.48159
1.48053
1.47881
1.47683
1.47587
1.47521
1.47456
1.47375
1.4728
1.4715
1.4697
1.46848
1.46777
1.46727
1.46704
1.4667
1.46606
1.46525
1.46404
1.46191
1.46026
1.45958
1.45912
1.45886
1.45853
1.45801
1.45722
1.45606
1.45521
1.45497
1.45513
1.49866
1.50065
1.50325
1.50662
1.51097
1.51593
1.52035
1.52436
1.5284
1.53221
1.53569
1.53919
1.54291
1.5471
1.55224
1.55648
1.55857
1.55988
1.56094
1.56229
1.56394
1.56606
1.56753
1.56819
1.56842
1.56824
1.56844
1.56883
1.56945
1.5707
1.57159
1.57178
1.5718
1.57133
1.57036
1.56985
1.56959
1.5693
1.56919
1.56966
1.5694
1.56851
1.56715
1.5649
1.56197
1.56014
1.55887
1.55771
1.55654
1.55522
1.55364
1.55151
1.54866
1.54674
1.54557
1.54443
1.54313
1.54148
1.53924
1.53739
1.53629
1.53554
1.535
1.53413
1.53294
1.53138
1.52896
1.5266
1.52541
1.52447
1.52349
1.52236
1.52107
1.51966
1.51813
1.51636
1.51459
1.51332
1.51239
1.51169
1.51129
1.51108
1.51059
1.50984
1.50894
1.50773
1.50553
1.50228
1.50065
1.49986
1.49943
1.49941
1.49887
1.49797
1.49686
1.49498
1.49257
1.4914
1.49065
1.49
1.48922
1.48827
1.48696
1.48517
1.48414
1.48352
1.48295
1.48233
1.48158
1.48057
1.47889
1.4774
1.47678
1.4764
1.47636
1.47691
1.47725
1.47702
1.47644
1.4754
1.47472
1.47477
1.47538
1.4769
1.47827
1.47954
1.48115
1.48349
1.48659
1.49052
1.49609
1.50643
1.49487
1.49571
1.49678
1.49814
1.5
1.50222
1.50433
1.50656
1.50912
1.51196
1.51501
1.51836
1.52207
1.52625
1.53112
1.53629
1.54075
1.54404
1.54673
1.54931
1.55203
1.555
1.55835
1.5612
1.56276
1.56379
1.56471
1.56583
1.56712
1.56891
1.57029
1.57086
1.57117
1.57092
1.57047
1.57071
1.57102
1.5715
1.57282
1.57402
1.57396
1.57359
1.57274
1.57125
1.57023
1.56966
1.56917
1.5688
1.56806
1.56703
1.56561
1.56326
1.56061
1.55915
1.55805
1.55694
1.55568
1.55416
1.55215
1.54975
1.54808
1.54693
1.54611
1.54532
1.54412
1.54266
1.54076
1.53791
1.53521
1.53378
1.53272
1.53189
1.53099
1.52989
1.52862
1.527
1.52449
1.52167
1.52032
1.51947
1.51896
1.51898
1.51871
1.51788
1.51687
1.51551
1.51299
1.50942
1.50774
1.5069
1.5065
1.50652
1.50603
1.50522
1.50415
1.50229
1.50056
1.49986
1.49948
1.49923
1.49871
1.49791
1.49679
1.49613
1.4959
1.49604
1.4965
1.49683
1.49696
1.49668
1.49645
1.49732
1.49903
1.50201
1.50671
1.51096
1.51557
1.5206
1.52605
1.53335
1.54104
1.5501
1.56018
1.56969
1.58144
1.59281
1.60408
1.61813
1.63176
1.64779
1.66526
1.68962
1.49544
1.49637
1.4971
1.49779
1.49855
1.49929
1.50005
1.50084
1.50175
1.50289
1.50427
1.50578
1.50762
1.50997
1.5127
1.51569
1.51881
1.52206
1.52559
1.5295
1.53363
1.53765
1.54148
1.54492
1.54794
1.55076
1.55355
1.55654
1.56014
1.56357
1.56538
1.56648
1.56702
1.56699
1.5673
1.56799
1.56881
1.57043
1.57279
1.57364
1.57386
1.57366
1.57282
1.57249
1.57248
1.5726
1.57339
1.57418
1.57409
1.57379
1.57293
1.57108
1.56978
1.56914
1.56855
1.56791
1.567
1.5658
1.56414
1.5618
1.55986
1.55855
1.55749
1.55654
1.5553
1.5538
1.55198
1.54934
1.54613
1.54424
1.54297
1.54195
1.54105
1.53998
1.5387
1.53711
1.53454
1.53143
1.52995
1.52907
1.52856
1.52853
1.52839
1.52773
1.52685
1.52561
1.52322
1.52004
1.51876
1.51826
1.5183
1.51906
1.51928
1.519
1.51848
1.51797
1.51835
1.51984
1.52204
1.52417
1.52679
1.5297
1.53331
1.53823
1.5442
1.55263
1.56091
1.56864
1.57781
1.58583
1.59578
1.60819
1.62085
1.63724
1.65212
1.66484
1.68068
1.69456
1.71055
1.73109
1.74645
1.76284
1.77829
1.78922
1.80414
1.81775
1.82897
1.84376
1.85796
1.87365
1.88996
1.90384
1.49883
1.4993
1.49954
1.49965
1.49978
1.49958
1.49941
1.49984
1.5004
1.50124
1.50257
1.50378
1.5046
1.50533
1.50592
1.50659
1.50763
1.50897
1.51086
1.51356
1.51666
1.51959
1.52244
1.52535
1.52838
1.53167
1.53537
1.53975
1.54481
1.54906
1.552
1.55426
1.55596
1.55732
1.55876
1.56041
1.56253
1.56582
1.56846
1.56941
1.56987
1.56965
1.56948
1.56996
1.57054
1.57163
1.57361
1.57445
1.57458
1.57438
1.57343
1.5728
1.57279
1.57289
1.57331
1.57334
1.57297
1.5723
1.57105
1.56985
1.56906
1.56831
1.56784
1.56729
1.56624
1.56495
1.5632
1.56059
1.55838
1.55716
1.55618
1.55546
1.55484
1.55406
1.55303
1.55153
1.54907
1.54704
1.54627
1.54592
1.54615
1.54727
1.54866
1.5498
1.55059
1.55099
1.55071
1.55147
1.5545
1.55886
1.56471
1.57286
1.57914
1.58643
1.595
1.60384
1.61565
1.62691
1.64005
1.65388
1.66628
1.68187
1.69654
1.71198
1.73164
1.74877
1.76605
1.78397
1.79618
1.80931
1.82359
1.83638
1.85265
1.87409
1.88921
1.89989
1.90875
1.91554
1.92475
1.93717
1.95173
1.96191
1.9665
1.9688
1.97026
1.97244
1.976
1.98096
1.98839
1.99937
2.00662
2.0072
1.50608
1.50576
1.50552
1.50502
1.50441
1.50348
1.50259
1.50242
1.50247
1.50299
1.504
1.50459
1.50498
1.50527
1.5051
1.5051
1.50573
1.50655
1.50779
1.50935
1.51043
1.51144
1.51258
1.51388
1.51536
1.5172
1.51973
1.52343
1.52754
1.53053
1.53311
1.53563
1.53805
1.54047
1.54301
1.54588
1.54947
1.55377
1.55685
1.55864
1.55985
1.5606
1.56151
1.56271
1.56424
1.56677
1.56909
1.57004
1.57053
1.57044
1.57071
1.57139
1.57237
1.57376
1.57439
1.57469
1.57471
1.57451
1.57459
1.57472
1.57515
1.57643
1.57745
1.57743
1.57715
1.57656
1.57558
1.57514
1.57529
1.57602
1.57754
1.5797
1.58209
1.58397
1.5854
1.5878
1.5914
1.59557
1.60158
1.60865
1.61806
1.62956
1.64038
1.65285
1.66357
1.67566
1.68713
1.69926
1.7135
1.7288
1.74895
1.76785
1.78597
1.80354
1.81734
1.83482
1.85171
1.86519
1.88087
1.89312
1.90435
1.91749
1.93036
1.94469
1.95952
1.97319
1.98491
1.99173
1.99466
1.99517
1.99632
2.00001
2.00642
2.01881
2.03185
2.03544
2.03574
2.03174
2.02928
2.0305
2.03445
2.04011
2.04165
2.04111
2.03776
2.03368
2.03288
2.0329
2.03531
2.041
2.04267
2.03999
1.51654
1.51569
1.51501
1.51418
1.51316
1.51187
1.51018
1.5091
1.50858
1.50839
1.50827
1.50799
1.50761
1.50708
1.50685
1.50697
1.5073
1.50773
1.50811
1.50838
1.50856
1.50906
1.5097
1.51052
1.5116
1.51302
1.51504
1.51714
1.51847
1.51951
1.52045
1.52117
1.52225
1.52393
1.52609
1.52888
1.53267
1.53671
1.53969
1.54222
1.54451
1.54659
1.54871
1.55111
1.55414
1.55859
1.56262
1.56451
1.56602
1.56756
1.56933
1.57151
1.57398
1.57563
1.57688
1.57832
1.57993
1.58182
1.58434
1.5882
1.59404
1.59971
1.60426
1.60934
1.6151
1.6219
1.62959
1.63874
1.65003
1.6633
1.67814
1.69175
1.70704
1.72113
1.7353
1.75168
1.76559
1.78286
1.80311
1.82329
1.84575
1.86147
1.87709
1.89562
1.91308
1.9299
1.94119
1.95083
1.96102
1.97225
1.98518
1.99932
2.0138
2.02425
2.032
2.03946
2.04483
2.04757
2.04777
2.04715
2.04865
2.05181
2.05692
2.06595
2.07633
2.08005
2.08054
2.07949
2.07552
2.06768
2.06323
2.06276
2.06311
2.06733
2.07665
2.07998
2.07913
2.07651
2.06928
2.06376
2.06277
2.06318
2.06594
2.06599
2.0643
2.06101
2.05703
2.05473
2.05302
2.05293
2.05225
2.048
1.52813
1.52713
1.52625
1.52533
1.52427
1.52307
1.52172
1.52009
1.51805
1.51623
1.51497
1.51395
1.51317
1.51266
1.51237
1.51211
1.51176
1.51142
1.51093
1.5097
1.50853
1.50854
1.50886
1.50945
1.5105
1.51249
1.51443
1.51535
1.51603
1.51668
1.51717
1.51708
1.51719
1.51821
1.51945
1.52118
1.52402
1.52705
1.52934
1.53176
1.53449
1.53758
1.54116
1.54519
1.54979
1.55533
1.56229
1.57006
1.57699
1.58331
1.58994
1.59738
1.60576
1.615
1.62527
1.63631
1.64872
1.66317
1.68035
1.70051
1.71893
1.73668
1.75587
1.77323
1.79287
1.81301
1.8326
1.85642
1.87791
1.89934
1.91984
1.93613
1.95457
1.97111
1.98671
2.00024
2.01129
2.02394
2.03878
2.05607
2.06759
2.07295
2.07791
2.08437
2.09364
2.10137
2.10398
2.10371
2.10273
2.10374
2.1057
2.10971
2.11838
2.12509
2.12581
2.12446
2.11952
2.11211
2.10902
2.10812
2.10782
2.10905
2.11321
2.11793
2.11792
2.11634
2.11302
2.10591
2.09846
2.09544
2.09363
2.09185
2.09049
2.09119
2.09444
2.094
2.09164
2.08846
2.08197
2.07371
2.07032
2.06849
2.06732
2.06767
2.067
2.06505
2.06256
2.059
2.05646
2.05451
2.05263
2.0487
1.53804
1.53715
1.5364
1.53574
1.53492
1.53392
1.53276
1.53134
1.52935
1.52661
1.52462
1.52346
1.52253
1.52177
1.52111
1.52041
1.51968
1.51887
1.51774
1.51559
1.51386
1.51358
1.51357
1.51385
1.51468
1.51641
1.51847
1.51972
1.5207
1.52172
1.52261
1.52343
1.52528
1.52793
1.53151
1.53647
1.54277
1.54945
1.55615
1.56374
1.57233
1.58204
1.59318
1.60523
1.61967
1.63633
1.6544
1.6755
1.69433
1.71332
1.73457
1.75424
1.77608
1.79786
1.8197
1.84369
1.86706
1.8904
1.91408
1.93699
1.95977
1.98043
1.9952
2.00746
2.02044
2.03388
2.05042
2.07113
2.0851
2.09201
2.09572
2.09985
2.10577
2.11413
2.12597
2.13223
2.13462
2.13625
2.13846
2.14208
2.14672
2.14808
2.14756
2.14651
2.14652
2.14702
2.14763
2.14755
2.14724
2.1468
2.14645
2.14677
2.14856
2.14904
2.14767
2.14528
2.14062
2.13568
2.13338
2.13161
2.13078
2.13263
2.13281
2.13049
2.12737
2.122
2.11421
2.10925
2.10671
2.10475
2.10431
2.10467
2.10273
2.10008
2.09721
2.09389
2.09008
2.08547
2.08016
2.07617
2.07368
2.07158
2.06981
2.06852
2.06745
2.06577
2.0639
2.06179
2.05884
2.05593
2.05412
2.05115
1.54617
1.54566
1.54545
1.54536
1.54493
1.5443
1.54353
1.54239
1.54052
1.53875
1.53792
1.53734
1.537
1.53689
1.53688
1.5369
1.53678
1.53651
1.53587
1.53536
1.53613
1.53801
1.54081
1.5446
1.54977
1.55664
1.56474
1.57198
1.58002
1.58833
1.59826
1.60939
1.62199
1.63759
1.65415
1.67377
1.6916
1.70974
1.72902
1.74682
1.76726
1.78737
1.80866
1.82983
1.84953
1.86938
1.89026
1.91359
1.9347
1.95141
1.96425
1.97582
1.98932
2.00481
2.02526
2.04687
2.05825
2.06543
2.07251
2.08098
2.09243
2.10401
2.10994
2.11378
2.11736
2.12149
2.1271
2.13622
2.14259
2.14553
2.14711
2.14717
2.14869
2.15107
2.15596
2.16177
2.16351
2.164
2.16275
2.1618
2.16195
2.1628
2.16435
2.16462
2.16411
2.16241
2.16119
2.16062
2.16049
2.1608
2.15995
2.15837
2.1563
2.15381
2.15118
2.14821
2.1448
2.14221
2.14034
2.13873
2.13805
2.13786
2.13597
2.13344
2.12936
2.12265
2.118
2.11561
2.1137
2.11342
2.1145
2.113
2.11053
2.10725
2.10126
2.09419
2.09064
2.08808
2.08592
2.0845
2.08259
2.08014
2.07753
2.07449
2.07158
2.06933
2.06731
2.06527
2.06282
2.06009
2.05861
2.05643
1.55761
1.55811
1.55924
1.56043
1.56126
1.56198
1.56231
1.56279
1.56418
1.56641
1.56973
1.57396
1.58043
1.58717
1.59473
1.60244
1.61025
1.62014
1.6295
1.64212
1.65533
1.66972
1.68766
1.70361
1.72252
1.74098
1.7573
1.77701
1.79469
1.81215
1.83025
1.84485
1.86171
1.88138
1.90352
1.9271
1.94353
1.95454
1.96326
1.97265
1.98438
2.0006
2.02068
2.03083
2.03547
2.03966
2.04653
2.05704
2.06734
2.07204
2.07387
2.07605
2.07965
2.08452
2.09427
2.10313
2.10612
2.10733
2.10561
2.10623
2.10877
2.11319
2.11926
2.12205
2.12357
2.12356
2.12463
2.12676
2.13038
2.13466
2.13676
2.13777
2.1383
2.13998
2.14272
2.14685
2.14924
2.14986
2.14885
2.14766
2.14782
2.14872
2.15074
2.15131
2.15041
2.14848
2.14774
2.14779
2.14889
2.14932
2.14823
2.14632
2.14375
2.14144
2.13954
2.13778
2.13633
2.1353
2.135
2.13511
2.13404
2.13223
2.12978
2.12598
2.12119
2.11834
2.11646
2.11502
2.11509
2.11635
2.11524
2.11333
2.11056
2.1048
2.09827
2.0954
2.09336
2.09179
2.09214
2.09306
2.09127
2.08889
2.08573
2.0807
2.07623
2.07375
2.07166
2.06981
2.06845
2.0674
2.06625
2.06394
1.60429
1.61282
1.62354
1.63303
1.64357
1.65461
1.66556
1.68
1.69343
1.71041
1.72856
1.74648
1.76763
1.78393
1.80372
1.82216
1.84025
1.85897
1.87399
1.8912
1.90882
1.92927
1.95133
1.96853
1.98044
1.98808
1.99543
2.0054
2.01898
2.03294
2.03944
2.04281
2.04703
2.0534
2.06429
2.07686
2.08148
2.08217
2.07896
2.07832
2.08043
2.08503
2.09351
2.09724
2.09802
2.09546
2.09184
2.09214
2.09369
2.09768
2.09979
2.10026
2.10041
2.10074
2.1015
2.10362
2.10496
2.1052
2.10432
2.10251
2.10273
2.1041
2.10706
2.10979
2.11072
2.11048
2.10942
2.10973
2.11094
2.11354
2.11502
2.11504
2.11415
2.11427
2.11554
2.11788
2.11969
2.12017
2.11923
2.11744
2.11723
2.11811
2.12057
2.12272
2.12309
2.12222
2.1214
2.12191
2.12331
2.12507
2.12553
2.12517
2.12394
2.12223
2.12124
2.12088
2.12095
2.12181
2.12357
2.12429
2.12375
2.12247
2.11981
2.11571
2.11296
2.11159
2.11052
2.11047
2.11233
2.11272
2.11157
2.11012
2.10742
2.10212
2.09763
2.09583
2.09436
2.09383
2.09532
2.09533
2.0935
2.09139
2.08828
2.08357
2.08002
2.07782
2.07576
2.07377
2.07208
2.07079
2.06949
2.06688
1.80202
1.82049
1.84191
1.85879
1.87927
1.89877
1.91617
1.93384
1.94914
1.96732
1.98733
2.00645
2.0192
2.02744
2.03671
2.04771
2.06085
2.07
2.07539
2.08078
2.0877
2.09836
2.1093
2.11332
2.11375
2.10976
2.10673
2.10784
2.11074
2.11755
2.12142
2.1215
2.11929
2.11595
2.11545
2.11689
2.11902
2.11865
2.11689
2.11282
2.11046
2.10958
2.11004
2.11116
2.11016
2.1083
2.104
2.10033
2.09888
2.09828
2.09973
2.10005
2.09891
2.09655
2.09272
2.09083
2.09001
2.08959
2.08887
2.08749
2.08563
2.08478
2.08483
2.08527
2.08506
2.08423
2.08268
2.08191
2.08222
2.08351
2.08442
2.08443
2.08358
2.08312
2.08393
2.08577
2.08784
2.08881
2.08885
2.08795
2.08793
2.08893
2.09106
2.09428
2.09602
2.09666
2.0962
2.09581
2.09675
2.09861
2.10123
2.10261
2.10295
2.10232
2.10185
2.10233
2.10347
2.10587
2.1086
2.10947
2.1095
2.10816
2.10516
2.10347
2.10282
2.10273
2.10432
2.10565
2.10498
2.10398
2.10277
2.10108
2.09863
2.09638
2.09535
2.09467
2.09438
2.09524
2.0959
2.09469
2.09297
2.09048
2.08649
2.08281
2.08066
2.07879
2.07704
2.07561
2.07438
2.0729
2.07147
2.06862
2.04948
2.05668
2.06336
2.0718
2.08399
2.10002
2.1092
2.11269
2.1155
2.12037
2.1281
2.13502
2.13733
2.13709
2.1373
2.13916
2.14298
2.1467
2.1474
2.14684
2.14693
2.14795
2.1494
2.14942
2.14841
2.14534
2.14233
2.14112
2.14039
2.14165
2.1445
2.14348
2.14101
2.13638
2.12953
2.12582
2.12374
2.12249
2.1214
2.11881
2.11559
2.11088
2.10616
2.10316
2.10084
2.09869
2.09633
2.0932
2.09051
2.08895
2.0879
2.08681
2.08534
2.08345
2.0801
2.07573
2.07358
2.07248
2.0721
2.07161
2.07076
2.06928
2.0675
2.06674
2.06638
2.06586
2.06498
2.06398
2.06345
2.06316
2.0629
2.06262
2.06219
2.06195
2.06224
2.06302
2.06405
2.06486
2.06529
2.06524
2.06525
2.06583
2.06695
2.06865
2.07023
2.07123
2.07172
2.07148
2.07159
2.07273
2.07476
2.07729
2.0787
2.07921
2.07925
2.07989
2.08123
2.08354
2.08612
2.08732
2.08776
2.08706
2.08577
2.08557
2.08592
2.08725
2.08938
2.08963
2.08876
2.08753
2.08735
2.08748
2.08723
2.08635
2.08534
2.08503
2.08519
2.0861
2.08719
2.08681
2.08576
2.08354
2.08075
2.07927
2.07819
2.07689
2.07513
2.07311
2.07141
2.06991
2.06873
2.06632
2.16108
2.15849
2.15619
2.15737
2.15981
2.1664
2.17203
2.17316
2.1722
2.16871
2.168
2.16854
2.16982
2.16983
2.16931
2.16843
2.16779
2.1677
2.16758
2.166
2.16357
2.15978
2.15582
2.15369
2.1518
2.14977
2.14741
2.14455
2.14152
2.13883
2.13629
2.13404
2.13188
2.12933
2.12493
2.11945
2.11664
2.1147
2.11343
2.1127
2.11088
2.10848
2.10469
2.09944
2.09636
2.09437
2.09282
2.09119
2.08928
2.08699
2.08376
2.08067
2.07859
2.07667
2.07441
2.07126
2.06838
2.06669
2.06542
2.06431
2.06315
2.06202
2.06062
2.0583
2.05635
2.05547
2.0549
2.05446
2.05377
2.05273
2.05106
2.05005
2.04984
2.04971
2.04937
2.04875
2.04824
2.04819
2.04848
2.04871
2.04861
2.04807
2.04747
2.04753
2.04803
2.04883
2.04953
2.04982
2.04962
2.04938
2.04996
2.05126
2.05281
2.05366
2.05399
2.0543
2.05513
2.05656
2.05851
2.05988
2.06053
2.06065
2.06065
2.0612
2.06233
2.06447
2.06658
2.06705
2.06663
2.06599
2.0662
2.06713
2.06827
2.06838
2.06776
2.06715
2.06728
2.0681
2.06981
2.07072
2.07055
2.06951
2.06839
2.06799
2.06801
2.0684
2.06775
2.0664
2.06444
2.0628
2.06175
2.06053
2.18736
2.18594
2.18272
2.18072
2.18
2.18004
2.18213
2.18221
2.18077
2.17782
2.17279
2.16949
2.16771
2.16656
2.1655
2.1636
2.16097
2.15747
2.15483
2.15296
2.15111
2.14891
2.14587
2.14222
2.13995
2.13837
2.13719
2.13549
2.13321
2.13032
2.12639
2.12264
2.12023
2.11814
2.11596
2.11314
2.10983
2.10767
2.10608
2.10484
2.10347
2.10179
2.09984
2.09694
2.09346
2.09148
2.08993
2.08854
2.08688
)
;

boundaryField
{
    inlet
    {
        type            calculated;
        value           nonuniform 0();
    }
    outlet
    {
        type            calculated;
        value           nonuniform List<scalar> 
18
(
1.42873
1.4363
1.44356
1.45509
1.50664
1.69028
1.90442
2.00752
2.04009
2.04796
2.04867
2.05107
2.0563
2.06384
2.0668
2.06855
2.06623
2.0604
)
;
    }
    bottom
    {
        type            symmetryPlane;
    }
    top
    {
        type            symmetryPlane;
    }
    obstacle
    {
        type            calculated;
        value           nonuniform 0();
    }
    front
    {
        type            empty;
    }
    back
    {
        type            empty;
    }
    procBoundary39to31
    {
        type            processor;
        value           nonuniform List<scalar> 
133
(
1.55184
1.55019
1.5485
1.54665
1.54453
1.54225
1.54033
1.53892
1.53778
1.53671
1.53545
1.5339
1.53175
1.52876
1.52665
1.52547
1.52461
1.52375
1.52256
1.52108
1.51894
1.51626
1.51474
1.5138
1.51314
1.51228
1.51115
1.50962
1.50755
1.50632
1.50563
1.505
1.50418
1.50306
1.5015
1.50041
1.4997
1.49899
1.49811
1.49695
1.49528
1.49385
1.493
1.49226
1.4915
1.49063
1.48958
1.48802
1.48598
1.48487
1.48423
1.48374
1.48313
1.48237
1.48141
1.47985
1.47796
1.47703
1.47644
1.47604
1.47562
1.47497
1.47412
1.47286
1.47075
1.46912
1.46844
1.46801
1.46793
1.46748
1.46672
1.46573
1.46408
1.46251
1.46177
1.46128
1.46066
1.45987
1.45894
1.45794
1.45714
1.4564
1.45555
1.45448
1.45335
1.45253
1.45189
1.4513
1.45068
1.44998
1.44911
1.44775
1.44558
1.44409
1.44339
1.44291
1.44265
1.44223
1.44161
1.44085
1.43978
1.43784
1.43605
1.43533
1.43485
1.43442
1.43375
1.43288
1.43166
1.42985
1.42858
1.42792
1.42749
1.42724
1.42675
1.42606
1.4252
1.42382
1.42182
1.4205
1.56054
1.5621
1.56369
1.56431
1.56453
1.56409
1.5636
1.56345
1.56343
1.56344
1.56314
1.56263
1.56263
)
;
    }
    procBoundary39to38
    {
        type            processor;
        value           nonuniform List<scalar> 
17
(
1.55106
1.53337
1.51106
1.49724
1.4942
1.49471
1.49877
1.50675
1.51781
1.52963
1.53928
1.54682
1.55756
1.59694
1.78136
2.03876
2.15996
)
;
    }
    procBoundary39to46
    {
        type            processor;
        value           uniform 2.18765;
    }
    procBoundary39to47
    {
        type            processor;
        value           nonuniform List<scalar> 
133
(
2.08509
2.0828
2.07942
2.07666
2.07484
2.07309
2.07127
2.06936
2.06702
2.06428
2.06217
2.0605
2.05894
2.05741
2.05563
2.05322
2.05131
2.05015
2.04909
2.04798
2.0468
2.04547
2.04358
2.04189
2.04101
2.04037
2.0399
2.03932
2.03849
2.03742
2.03657
2.03598
2.03536
2.03453
2.03353
2.03301
2.0328
2.03282
2.03296
2.03281
2.0323
2.03151
2.03123
2.0315
2.03199
2.03212
2.03202
2.03206
2.03248
2.03339
2.03454
2.03516
2.03535
2.03544
2.03595
2.03707
2.03902
2.04125
2.04227
2.04259
2.04265
2.04306
2.04396
2.04547
2.04637
2.04632
2.04582
2.0457
2.04631
2.04785
2.0496
2.05007
2.04997
2.04999
2.05047
2.05144
2.05259
2.05284
2.05244
2.05151
2.05042
2.04978
2.04948
2.18579
2.18384
2.18143
2.17839
2.17389
2.17083
2.16935
2.16808
2.16674
2.16518
2.16296
2.15963
2.15741
2.15617
2.15477
2.1531
2.15099
2.14785
2.14468
2.14292
2.1415
2.13995
2.13819
2.13578
2.13303
2.13134
2.1299
2.12832
2.12656
2.12454
2.12167
2.11805
2.11582
2.11415
2.11249
2.11075
2.10875
2.10617
2.10388
2.10222
2.10064
2.09906
2.09738
2.09517
2.0924
2.09051
2.08904
2.08769
2.08509
2.08618
)
;
    }
}


// ************************************************************************* //
