/*--------------------------------*- C++ -*----------------------------------*\
  =========                 |
  \\      /  F ield         | OpenFOAM: The Open Source CFD Toolbox
   \\    /   O peration     | Website:  https://openfoam.org
    \\  /    A nd           | Version:  7
     \\/     M anipulation  |
\*---------------------------------------------------------------------------*/
FoamFile
{
    version     2.0;
    format      ascii;
    class       volScalarField;
    location    "1.407";
    object      p;
}
// * * * * * * * * * * * * * * * * * * * * * * * * * * * * * * * * * * * * * //

dimensions      [0 2 -2 0 0 0 0];

internalField   nonuniform List<scalar> 
12359
(
0.067584
0.076582
0.0521408
0.109329
0.070957
0.155843
0.187389
0.170079
0.227884
0.144062
0.208173
0.278282
0.485094
0.116518
0.104024
0.396387
0.43997
0.0561872
0.0558354
0.0896083
0.124868
0.252834
0.0828083
0.0948193
0.0793929
0.0857668
0.0531381
0.0530252
0.0551753
0.0535964
0.0539873
0.0525845
0.052272
0.0534077
0.0521624
0.0541474
0.0609894
0.0658785
0.0694021
0.0634327
0.0745541
0.0645471
0.058742
0.058116
0.0546197
0.0548798
0.0543841
0.0538221
0.0554935
0.053267
0.0529135
0.0527953
0.0525192
0.0565609
0.0524542
0.0523002
0.0575332
0.0522719
0.0522594
0.0522008
0.0523403
0.0521678
0.0528384
0.515018
0.0570022
0.133672
0.0603338
0.0527252
0.0616868
0.350535
0.534099
0.0726597
0.0521328
0.0625318
0.0997064
0.0521782
0.0525146
0.0521492
0.0596534
0.319333
0.12647
0.0477164
0.0513097
0.0525059
-0.055228
0.0241433
0.0475461
0.0501514
-0.0679684
-0.0494916
0.0519559
0.477545
0.0518916
0.0514676
0.0513301
0.00326613
0.0509901
0.0515758
0.0596231
0.0563156
0.108761
0.0520357
0.025136
-0.121242
0.0471494
0.0134954
0.0510445
-0.0537779
0.0290613
0.0138668
0.0511044
0.0478091
0.111427
0.0922511
0.0516533
0.0486587
0.0941936
0.0468372
-0.0729333
0.0513375
0.0512453
0.175861
0.0499726
0.00488408
0.0465315
0.0485881
0.0391122
0.0523463
0.0521349
0.0464291
0.049098
-0.00228581
-0.00382737
-0.00253399
0.0510997
0.00577866
0.0488848
0.00560427
0.0520655
0.0396604
0.0514544
0.0689283
0.0146176
0.0510471
0.00899293
0.148365
0.0513242
-0.0439459
0.0468952
0.128176
0.0022829
0.0520499
0.0147644
0.0499017
0.0518555
-0.176253
0.109782
-0.00146195
0.0511057
0.0526506
0.0469638
0.0526975
0.00339864
0.0114408
0.051293
0.0487083
0.0480674
0.175383
0.0131627
-0.0696606
0.0521438
0.0521732
0.0116552
0.0792703
0.0475163
0.0433186
0.0551983
0.05499
0.112645
0.0436704
0.116661
0.0518354
0.0521356
0.047471
0.0585542
0.20686
0.0463262
0.0505033
0.00121963
0.0460561
0.0508091
0.00341957
0.00628058
0.0498412
0.0124341
-0.131668
0.0335772
0.0473022
0.0153998
0.046932
0.152447
0.000884009
0.0574485
0.0133983
0.0124071
0.051815
0.011337
0.0580541
0.00188536
0.045318
0.0515927
0.000215406
0.000293472
-0.523303
0.201994
0.0520727
0.0468121
0.0516552
0.0466075
0.0696115
0.102518
0.0454309
0.00458924
0.469671
0.0462607
0.0515707
0.0703569
0.0300027
0.0465633
0.0481096
0.0478726
0.0513034
0.00985621
0.0574851
0.0499383
0.0566421
0.0513321
0.0141663
0.0500721
0.293513
0.0512608
0.0222015
0.0505864
0.0569463
0.045767
-0.0445342
0.0522413
0.00168451
0.048245
0.00724238
0.00149274
0.065261
0.0546293
0.0484006
0.325229
-0.575477
0.0513442
0.0455033
0.402197
-0.0535463
0.0570163
0.0468566
0.0465127
0.0122423
0.0776213
-0.446769
-0.0676254
0.045528
0.0457974
0.00624107
0.0118154
0.0625207
0.0132183
0.0485238
0.0453508
0.0513234
0.0455304
-0.114325
0.044286
0.0509942
0.0520243
0.0116033
0.042673
0.0604186
0.0229171
0.0513974
0.0487935
0.0520425
0.0520256
0.0526192
0.00326603
0.0475026
-0.447735
0.0510784
0.0509803
0.0253224
0.0481727
0.102349
0.0515669
0.0529702
0.0519762
-0.102419
0.0459703
0.0519729
0.0470424
0.0511978
0.0483832
0.0483106
0.0490481
0.0480989
0.0561744
0.205081
0.0480553
0.0540545
0.065859
0.022794
-0.0559956
0.0480667
0.0604788
0.372468
0.0520176
0.0190222
0.0509278
0.0339196
0.051018
0.04774
0.231071
0.0183581
0.206914
0.0599584
0.050286
0.00499818
0.000861626
0.0501566
0.00521435
0.0055346
0.0508304
0.0524051
0.0524006
0.0524591
0.0524386
0.291974
0.0513739
0.106478
0.000844628
0.0574754
0.012927
0.0185167
0.0258594
0.0347123
0.0175289
0.0352982
0.0593481
0.0206651
0.0221069
0.0943155
0.0696989
0.0160983
0.0680378
0.0678779
0.0160477
0.106359
0.0482572
0.0525101
0.0320614
0.0524701
0.0479545
-0.178671
0.499683
0.0481432
0.0521062
0.0511246
0.0517316
0.0172626
0.0518603
0.0518459
-0.0739737
0.011911
-0.0451623
0.0498818
0.00987803
0.042976
0.0508297
0.0161803
0.031747
0.112788
0.032057
0.0484758
0.0509756
0.0114099
0.0093192
0.0459368
0.298034
0.0158938
0.00222017
0.0515991
0.0484224
0.0520864
0.385882
0.0143605
0.0499944
0.0645954
0.0669245
0.0514734
0.0514431
0.0516735
-0.053819
0.100581
0.0615255
0.0179267
-0.00012548
0.0514537
0.116497
0.0510067
-0.000111403
-0.0601096
0.304012
0.0561734
0.0938695
0.029081
0.0229936
0.0368427
0.0316926
0.0536439
0.0367204
0.0149968
0.0518653
-0.0566371
0.0609575
-0.00717997
0.0080216
0.0579313
0.0980304
-0.141872
0.0170581
0.0408951
0.000745512
0.00776541
0.0193897
0.046868
0.0516259
0.0542588
0.05104
-0.00304836
0.0491061
0.085539
0.0876022
0.0373299
-0.0529795
0.106347
0.0560833
0.0502978
0.393578
0.0509323
0.0498729
0.00567788
0.052112
0.0501881
0.049864
0.237386
0.204863
0.0521142
0.0501151
0.111807
0.0498284
0.0181441
0.014721
0.0125497
0.0507845
0.0517164
0.0495717
0.0519819
0.0870687
0.0188262
0.0226656
0.0548204
0.0530855
0.0031054
0.0537324
0.0489468
0.0456494
0.122059
0.00501938
0.0520498
0.0492666
0.0109155
0.0310209
0.0502424
0.0487002
0.114242
0.017735
0.00650927
0.021284
0.0507998
0.0492291
-0.00457846
-0.00446965
0.0519771
0.0380388
0.0516904
0.00258899
0.284087
0.0516566
0.0492636
0.0508796
0.0141565
0.0559342
0.0551981
0.0488399
0.0509779
0.0306145
0.0781996
0.0397298
-0.0337174
0.0512206
-0.0388667
0.0502893
-0.115304
0.0167215
-0.00163593
0.0522499
0.0546176
0.0221933
0.0475938
0.0528926
0.0591227
0.0561217
0.0564456
0.0730116
0.0144417
0.01396
0.0513292
0.0472876
0.0187019
-0.00355224
0.0513237
0.0508626
0.0110599
0.0508345
0.225341
-0.147331
-0.122251
0.0513218
0.043061
0.00108271
0.0554934
0.0477939
0.454624
0.0510536
0.115608
0.0904876
0.0429499
0.0483185
0.0530263
0.03769
0.000517237
0.0308326
0.0538918
0.0513485
0.0521348
0.0558262
0.0551614
0.0570084
0.0135547
0.0526636
0.0510185
0.020937
-0.0858263
0.0539413
-5.03223e-06
0.0511506
0.0544317
0.0963344
0.00127499
0.00153703
0.0982049
0.047544
0.00119756
0.0515077
0.0521978
0.00204235
0.0382435
0.0469405
0.0381991
0.0517793
0.0509619
0.0482486
0.0507825
0.00137241
0.105326
0.0612854
0.120254
0.0153603
0.0408694
0.114145
0.0648407
-0.00576852
0.0127115
0.0657823
0.0557037
0.052215
0.0392117
0.02128
0.0513273
0.0521183
0.0508308
0.0522443
-0.0146674
0.0385338
0.0348651
0.106795
0.0594222
0.234888
0.00243033
0.00138444
0.0481243
-0.0011717
0.0517623
0.0517852
0.0507943
0.107169
0.116082
0.0480846
0.0310037
0.228823
0.0152947
0.00670625
0.039763
0.0672701
-0.123293
0.0505542
0.0531003
0.0518009
-0.00894964
0.0529865
0.0318032
-0.0525092
0.0509259
0.0795521
0.0587052
0.0427813
0.0541789
0.0484126
0.0525095
0.0555894
0.0525549
0.0524482
0.0550711
0.00519804
0.00889976
0.042791
0.339173
0.000718493
0.410769
0.0166955
0.0232082
0.055326
0.0179182
0.0584344
0.00346968
0.320741
0.100099
0.0576072
0.0450463
0.0564488
0.0551414
0.0218383
0.0516231
-0.00992308
0.0525703
0.101402
0.0499333
-0.0132113
0.00790346
0.0108962
0.057523
0.040238
0.00848085
0.0791676
0.00628239
0.0416236
0.00361081
0.0443729
0.0513562
0.0515223
-0.195527
0.0721423
0.043774
0.0512758
0.0527579
0.0566388
0.0849564
0.00887907
0.0153947
0.0508278
0.0453561
0.0569081
0.0437315
0.0402036
0.00234903
0.0579471
0.0589511
0.00886195
0.0451999
0.041831
0.105519
0.0513304
0.0578893
-0.252136
0.0522467
0.00776891
0.0527439
0.0422541
0.0907824
0.0093857
0.0524452
0.0193318
0.0516918
0.113163
0.046709
0.00854142
0.0106302
0.114317
0.051553
0.000738002
-0.00580188
0.0579071
0.0438199
0.0467523
0.0376824
0.238735
0.0558944
0.0520887
0.056508
0.0518781
-0.12134
0.0431005
0.0116797
0.0320594
0.0157867
0.518637
0.0433296
-0.0523563
0.00916757
-0.0923367
0.0179338
0.0538105
0.0433227
0.0315685
-0.0457669
-0.0342643
0.0503325
0.0500415
0.119785
0.0498148
0.210566
0.0203145
0.0718854
0.0471003
0.407266
-0.0986481
0.0437024
0.0513601
0.0514637
0.0952129
0.056705
0.0614043
0.053923
0.0142241
0.0786919
-0.0327647
0.356899
0.0509225
0.0843673
0.0144022
0.121765
0.0452857
0.116018
0.00695076
0.0964609
0.0543901
0.0512714
0.00951284
0.00668282
0.0159047
0.119228
0.0140934
0.0233875
0.0527383
0.0508216
0.0396707
0.245022
0.0396521
0.0117468
0.0680481
0.0193398
0.0362846
0.0545036
-0.0049213
0.0329349
0.0447993
-0.0182805
0.0595465
0.0261457
0.197607
0.0513486
0.0326859
0.0515915
0.0587643
0.0487091
0.0521926
0.0513302
0.00346147
0.0459273
0.0795071
0.0127497
0.0965064
0.0312031
0.0317652
0.0103074
-0.179889
0.0522303
0.0584214
0.0240243
-0.0656545
0.00714826
0.0514912
0.505445
0.0512961
0.0468718
-0.154423
0.0567323
0.0517773
0.0518267
0.0668042
0.0911257
0.0522523
0.0577744
0.110439
0.0522002
0.0547603
0.0543971
0.050548
0.0921662
-0.0161211
0.0558412
0.118005
0.00891924
0.0033196
0.00741273
0.0155236
0.0543153
0.0466548
-0.038405
0.00384744
0.0745783
0.050505
0.0522699
0.119233
-0.00100138
0.0338648
0.0385841
0.0335383
0.0538602
0.0451588
0.0855124
-0.216511
0.367177
0.083993
0.0515207
0.0451313
0.0813486
0.350033
0.1127
0.0515357
0.000482938
-0.0111911
-0.234415
0.0365403
-0.149395
0.0522416
0.0542167
0.0522815
0.00809841
0.0763128
-0.152798
0.0475605
-0.0805795
0.0496063
0.0520565
0.0100861
0.0559682
0.00141093
-0.0416939
0.0575363
0.0357071
0.0238862
0.036953
0.0573781
0.0772496
0.0741968
0.0311335
0.0803835
0.0575755
0.0523146
0.0544865
0.0528058
0.106274
0.0217449
-0.00616408
0.00408812
0.0873843
0.0248993
0.0229976
0.0438132
-0.00761172
0.0347065
0.0568958
0.0518133
6.74976e-05
0.110147
0.0477393
0.0409529
0.0584853
0.0236766
0.104049
0.117489
0.0235375
0.242661
0.0221347
0.0884557
-0.0391912
0.0556441
0.0207635
0.0111253
0.0498127
0.0344451
0.0391596
0.0453502
0.0515046
0.0478143
-0.0128628
-0.000777122
0.0471546
-0.129186
0.101781
0.0526898
0.052627
0.00199792
0.0526098
0.0796493
0.0138685
0.00623018
0.0525592
0.0547777
0.0511002
0.0526168
0.119855
-0.130935
0.0526803
0.0584022
0.051329
-0.139153
0.0220256
0.013893
0.0510944
0.0525899
0.0541368
0.024942
0.0862831
0.0286075
0.0496957
0.0546753
0.0525062
0.0213831
0.0861561
0.0393906
0.052113
0.0309245
0.0255323
0.0766969
0.0483038
-0.0156539
0.146715
0.0499653
0.0332892
0.0544131
0.0447748
-0.170574
0.0574196
0.0527478
0.0102687
0.106207
0.0838587
-0.132679
0.0780142
0.0355763
0.0279929
0.0585068
0.0408953
0.035272
0.0576638
0.147943
0.0517819
-0.322484
0.0848876
0.181944
0.0408865
-0.00570705
0.0970663
-0.00174737
0.263794
0.00614593
0.0256623
0.0342061
0.0395568
0.0512901
0.0451892
0.0894552
0.00106739
0.0578946
0.0499692
0.00515482
0.0166721
0.00588408
0.0816953
0.00077224
0.00551469
0.0506333
0.072234
-0.0497324
0.088698
0.0512811
0.0352584
0.0552508
0.0512874
0.0708718
0.0522322
0.0452445
0.244733
0.0932793
-0.0163839
0.0522662
0.051708
0.0518897
0.0580526
0.0555631
-0.00196316
0.0557036
0.0516147
-0.0142656
0.0216214
0.00299485
0.0704979
0.0513774
0.0431139
0.0929068
0.0347191
0.0522897
-0.039735
0.00919916
0.112926
0.0519908
-0.227588
0.0988
0.0515306
0.00219352
0.0391215
-0.0276673
0.0363097
0.00123951
0.096005
0.0506918
0.0538308
0.0211212
0.0415838
0.0563715
-0.00635181
0.0568721
0.0570865
0.0982819
0.0494633
0.0552753
0.0360861
0.00830734
0.0517493
0.0569574
0.0549615
0.0512014
0.097837
-0.0395512
0.0262261
0.058107
0.0551959
0.0429254
0.0512885
-0.183425
0.0808561
0.0520375
0.0725462
0.0430618
0.100729
0.154018
0.000408412
0.0569677
0.00589712
-0.000993721
0.0510237
0.0415568
8.93426e-05
0.0482297
0.0520852
0.0744718
0.0272788
0.0555395
0.0521112
0.0423287
0.0856537
0.052641
0.0325615
0.0522433
0.0387045
0.0686943
0.133196
0.0517035
-0.192131
0.0817491
0.0160924
-0.11504
0.0939971
0.0320159
-0.0268642
0.0585635
0.143007
0.210499
0.0550935
0.0455431
0.0454877
0.0537614
0.0556874
0.00663156
-0.0747524
-0.138671
0.00833011
0.149553
-0.00688984
0.00984504
-0.0585284
0.0515804
0.0540143
0.048878
0.024765
0.0513738
0.00773329
0.037114
-0.012811
0.0513712
0.0545227
0.049649
-0.142861
0.120642
0.0797113
0.0633764
0.122768
0.0458455
0.0526265
-0.0143137
0.0368256
-0.00994473
0.00710455
0.0212356
0.00503593
0.0141025
0.0590825
0.0509761
0.0513503
-0.117607
0.043053
0.0406594
0.054561
-8.47735e-05
0.0185472
0.0517396
0.0189408
-0.0113428
-0.000120292
0.0956991
0.0548489
0.0517785
0.00471888
0.0581834
0.0515505
0.000913573
0.00777593
0.0552533
0.139764
0.000506205
0.0518484
0.0517379
0.0511695
0.108699
-0.129271
0.0421369
0.0104399
0.0545836
0.0547625
0.00960918
0.0520079
0.180978
0.0139252
-0.0534802
0.154842
0.0301951
0.0509304
0.0514237
0.0331343
0.0583419
0.0508887
-0.170257
0.00556047
0.044964
0.223588
0.102937
0.046974
0.0513226
0.0517644
0.0538012
-0.0719287
0.162273
0.033732
0.0790259
0.0687323
0.00617103
-0.0737953
0.0259101
0.0563604
0.0546654
0.0165598
0.0423199
0.0508652
0.0540057
0.00408397
0.0556051
0.0329524
0.0573054
0.0831356
-0.0100944
0.0487064
0.0540941
-0.00283014
0.00328067
0.0608026
0.0538916
0.078137
-0.000657734
0.0396288
0.0176243
0.0756949
0.0146695
-0.0328069
0.05515
0.159998
0.0510395
0.106734
0.000943995
0.0519788
0.0515042
0.376596
0.0520035
0.0579059
0.0265689
0.0567924
0.0569196
0.0597993
0.051907
0.0518838
0.000213654
-0.0241
0.0499315
0.333559
0.0378551
0.0538266
0.238068
0.100419
0.0560786
0.046947
0.0534688
0.0897998
-0.252507
0.0566268
0.0498791
0.0511819
0.053933
0.0654475
0.0162973
0.0561896
0.0664259
0.0550303
-0.14638
-0.00470319
0.00649628
0.111646
0.0376392
0.0539037
0.00436745
-0.112243
0.0547732
0.0513716
0.0538446
0.0479697
0.0567267
0.050715
-0.00339237
0.0466136
0.0460965
0.312188
-0.000903733
-0.00991417
0.00370787
0.0565695
0.000797394
0.0882079
-0.0850732
0.0494195
0.00975558
0.0519945
0.238547
0.0513645
0.0512465
0.0311187
0.051205
0.0257588
0.0611668
0.0568284
0.0493258
-0.0900826
0.0886213
0.00959563
0.0540725
0.0363763
-0.0585989
-0.00668489
0.0803103
0.0764161
0.0519098
0.0573833
0.0486234
0.053843
0.0499056
0.054032
0.0913312
0.0762065
0.00723597
-0.101242
0.0266505
-0.00666614
0.0332859
-0.104602
0.0506791
-0.0279422
0.0539196
-0.00885298
-0.00543471
0.0251976
0.0515076
0.0296381
0.0104078
0.0320203
-0.0179884
0.234607
-0.0988427
0.0538846
-0.000593574
0.0478573
-0.00428179
0.0921355
0.00534357
0.0472266
0.0597492
0.00839901
0.0546821
0.0370616
0.0517697
0.0459176
0.0514086
0.0574725
0.00608762
0.000956884
0.0515738
0.0860059
-0.0806593
0.499355
0.0510215
0.0748553
0.0261309
0.194822
0.0319288
-0.173417
-0.0318229
0.0491075
0.0243862
0.0689459
0.177307
0.0507722
0.0691192
0.0797459
0.0496285
-0.0839022
-0.00437214
0.0539121
0.0272428
-0.0347196
0.0777245
-0.0863285
0.0385367
0.0808286
0.0559464
0.0510258
0.0574498
0.0458674
-0.0713451
-0.000501732
-0.0612684
0.0525292
-0.0835552
0.0301442
0.0044198
0.112181
0.0246453
0.0276204
-0.0526999
0.0383074
0.036656
0.00482707
0.0715771
0.0260394
0.00887958
0.0713654
-0.0859665
0.0865207
0.0349984
0.0899221
0.052535
0.11495
3.29136e-05
0.102537
0.054996
-0.0346831
0.0516335
0.034129
0.00663858
-0.000979283
0.0589245
0.00563458
0.046831
0.505851
0.0575954
0.00401509
0.093037
-9.27373e-05
0.00703044
0.0515403
0.0316435
0.0513783
0.466206
0.051805
0.0515118
0.0511741
-0.0134303
0.046182
0.0449057
-0.0129164
0.0276569
0.0657363
0.045917
0.051461
0.108299
0.0500298
0.105534
0.00907675
0.0874576
0.0411096
0.0430927
0.0257254
-0.011597
0.00942014
0.0443093
0.52586
0.0517837
0.0515197
0.0575683
-0.128437
0.0550678
0.0303791
0.0807441
0.0555872
0.0426484
0.0030382
-0.0214277
0.0338096
-0.0447977
0.0564897
0.0465852
0.0131297
0.0183095
-0.000715944
0.0538572
0.0243087
0.0734886
0.195675
0.0375599
0.0515242
0.0458017
0.179467
0.052104
0.0521103
-0.0332027
0.0324992
-0.0376005
0.0426358
0.0513741
0.190229
-0.0134799
0.0473168
0.0568225
0.0499017
-0.107014
0.0521099
0.0342228
-0.0261922
0.0521086
0.051447
0.00933316
0.0510506
0.0521213
0.0120163
0.0523763
0.0513917
0.022079
0.0511232
-0.0110345
0.0513647
0.0601031
0.120493
0.00801838
0.0521252
0.00538559
-0.164994
0.0428726
0.0753973
0.0498442
0.0355338
0.0502517
-0.0163684
-0.00511026
0.046974
0.0514503
0.133149
0.0308249
0.0142345
0.00970548
0.13091
0.0510612
0.00612511
0.0514357
-0.0191464
-0.00377492
-0.0044537
0.00776107
0.157022
-0.0865092
0.00493103
0.00844449
0.0491558
0.0539617
0.000949675
0.137117
0.100081
0.0333189
-0.0700862
0.0509654
-0.0606592
0.202069
0.0508499
-0.0072917
-0.0257296
0.0815879
0.00650291
0.00714523
0.0741385
0.05149
-0.0105011
-0.0617141
0.25896
0.056591
0.00232256
-0.0297461
0.143328
0.0532852
0.0514247
0.00541344
-0.0512438
0.0421408
0.0699365
0.051678
0.0510442
0.0578101
0.056363
0.0251353
0.0571176
0.0513995
-0.0138917
0.035798
-0.0255077
0.0144451
0.0516718
0.0514605
0.14408
0.056117
0.0810854
0.0621501
-0.0464601
0.0826345
0.0507455
-0.0206302
0.0605626
0.0514084
0.0271885
0.0399609
0.042478
0.0957559
0.0251808
-0.134956
0.0416565
0.0511851
-0.0260617
0.0511288
-0.00464147
0.0312289
-0.0234358
-0.0459912
0.0977397
-0.0295916
0.0517061
-0.00786936
0.0553694
0.0733225
-0.0223196
0.0202271
-0.0222841
-0.0608426
0.173567
-0.0108512
0.0656111
0.0507349
0.051304
0.0511095
-0.0300548
0.141501
0.0507465
-0.0131048
-0.0187208
0.013747
0.00238583
0.027366
0.110901
-0.0287503
0.0557833
0.011395
0.0253035
0.0519839
0.0520048
0.0532986
0.0564442
0.00953068
0.0516053
0.0537224
0.0577534
0.0755986
0.000444894
0.0511297
-0.0175086
0.0513621
0.00530904
0.0164675
0.0536465
0.0433851
0.00166115
-0.0190815
0.0368836
0.0787789
0.0562429
0.0266962
0.0323088
0.0514732
0.0554689
0.0555826
0.0537132
0.0515116
0.0708965
0.0514958
0.127072
0.0128278
-0.0875148
0.0515315
0.0608076
0.0516358
0.0514271
0.123443
0.060095
0.0508889
0.319246
0.135205
0.0381466
0.0661607
0.0398192
0.121614
0.0186499
0.00889637
0.0570527
0.0576314
0.0514452
0.0518842
-0.0110481
0.0510835
0.0533519
0.123957
0.053669
0.0553652
0.0269551
0.0514405
-0.034265
0.051561
0.053297
0.00763294
0.00947948
-0.0700636
0.111244
0.0719995
0.0535199
0.00726678
0.0534681
0.0257075
0.00292293
0.0575648
-0.0252624
0.0521889
0.0267206
0.0713873
0.0536395
0.102993
0.0515306
0.057495
0.0514337
0.0297943
0.051001
0.0545004
0.0239457
0.0469549
0.0720137
0.0272316
0.0514805
0.0275625
0.0122727
0.0573446
0.00817396
-0.0122355
0.0514448
0.031109
0.110917
0.00285432
0.0578448
0.0447552
0.0447913
0.0248743
0.0584365
0.152291
0.0558588
0.0516108
0.0516514
-0.0220531
-0.00657249
-0.0212806
0.283874
0.10202
0.0516282
0.0258766
0.0110616
0.0519519
-0.0589488
0.0557257
0.105386
-0.000374616
0.0533492
0.145516
-0.00659101
-0.0160155
0.0227021
0.0297776
0.0518786
0.0510464
0.0619548
0.0514695
0.0514308
0.137766
0.0537515
0.0654584
0.0507857
0.0390183
0.0459469
0.369717
0.0425157
0.0457251
-0.00833719
0.105045
0.095286
0.0348309
0.110323
0.0513797
0.0470946
0.00441936
0.0739648
0.125515
0.0530117
-0.000660246
0.0409824
0.0515826
0.0536303
0.0514605
0.0657794
0.0424669
0.0519254
0.0307585
0.258671
0.0520214
0.0117367
0.0319961
0.0510443
0.0646574
0.0540051
0.0279258
0.0515079
0.0514065
0.013365
0.0298478
0.0925919
0.143111
-0.222132
0.0574117
0.0658012
-0.0387682
0.0334476
0.0539497
0.0410609
-0.000855033
0.0515104
0.0550104
0.0514401
0.0305814
0.0660956
0.0173944
0.0515026
0.0627623
0.0344518
0.0558948
0.11987
0.0471983
0.0512579
0.0515036
0.0298735
0.0223656
0.30941
0.0620621
0.0838965
0.00466958
0.00462378
0.0512726
0.100763
0.0514972
0.0514724
0.0519912
-0.000963344
0.056598
0.035677
0.00624285
0.0200848
0.00606227
0.0305069
0.0654376
0.114834
0.0486996
0.0108193
0.0932782
0.0330914
0.129253
0.0553472
-0.149751
0.144013
0.13586
0.0509686
-0.108979
0.00566575
0.00770963
0.138468
-0.000305429
0.0601106
0.0579072
0.0392414
0.0352844
0.0324263
0.214336
0.0750849
0.0557576
0.0141598
0.0558377
0.0362474
0.023356
0.0951176
0.0362119
0.0695401
0.0849504
0.00513698
0.0976014
0.0318473
0.052256
0.0617351
0.0507927
0.0460542
0.0502037
0.056142
0.019302
-0.0489372
0.0511427
0.165733
0.0505889
0.0423196
0.00773995
0.0305667
0.0337982
0.0499889
0.00695597
0.0120049
0.252713
0.051496
0.00832921
0.0367748
0.0093116
0.052
0.0516915
0.151802
0.0235092
0.032697
-0.119205
0.0271241
0.0399239
0.138364
0.0132448
0.121221
0.0573295
0.0172011
0.0377856
0.0469233
-0.0274555
0.0063487
0.0202856
0.0335339
0.0509234
0.00581418
0.00550284
-0.000995919
0.0404622
0.0375599
0.417905
-0.0361541
0.05055
-0.0132358
0.0193775
-0.103168
0.0514167
0.0324391
0.0328345
0.0514025
0.00355811
0.0274388
0.0546313
-9.52495e-05
-0.0227164
-0.00152453
0.0573017
0.0238273
0.0520334
0.046389
-0.0231207
0.0833916
0.0273294
0.00664809
0.147186
0.0247983
0.0194394
0.0210567
0.00668204
-0.027303
0.0499901
0.021311
0.0147853
0.0936253
0.278769
0.0130426
0.035404
0.0190428
0.0514118
0.0936586
0.0316986
0.00867103
0.0512
0.0360259
0.00559209
0.0136825
0.150075
0.0105494
0.0297174
0.029937
0.056346
0.003233
0.0263326
0.0751191
0.0607647
0.0573187
0.00992529
0.036671
0.042825
0.0392233
0.0515343
0.00516598
0.0639389
0.0295072
-0.00478065
-0.0437277
0.0458114
0.0270561
0.0160608
0.0237996
0.0515253
0.100739
0.100346
0.0735686
0.0519772
0.229934
0.00651905
0.053969
0.0907189
0.0510421
0.059381
0.0330098
0.0267302
0.0555559
-0.0998642
0.0527054
0.0608899
0.0438321
-0.0112464
-0.0292655
-0.000521183
0.0639703
0.00890173
0.0520104
0.0296002
0.0764121
0.0527235
0.150476
0.0164583
0.0279767
0.00780669
0.0684989
0.021607
0.0385528
0.0511909
0.0513255
0.0477631
0.0648556
0.124012
0.0144721
0.147908
0.0842801
0.0913078
0.053355
0.0712389
0.0067854
0.0514243
-0.0250262
-0.019617
0.0543693
0.0514656
0.0414352
0.0497478
0.0513025
0.0665067
0.0347647
0.133341
0.0156573
0.0359357
0.0907049
-0.0107597
0.00517464
0.0877924
0.0117739
0.0235761
0.0717111
0.0511052
0.0644807
0.0276331
0.123466
0.131494
0.220271
0.0513399
0.128224
0.0332962
0.0321083
0.105393
0.108818
0.100969
-0.0243713
0.0207607
0.0681959
0.0205539
0.040644
0.0468896
0.0923994
0.0508534
0.0158169
-0.0293909
0.061286
-0.0248717
0.050454
0.0850788
0.0567098
0.030703
0.103529
0.164836
0.0218911
0.0443174
0.0161247
0.0340514
0.0728095
3.95328e-05
0.0838539
-0.00234865
0.0513521
0.0210958
-0.13753
0.0999667
0.0365001
-0.0415145
0.0102482
0.0428356
0.0505112
0.104723
0.0947134
0.0343571
0.0581172
0.0530375
0.00541005
0.045125
0.0044064
0.0823352
0.0362662
0.143203
0.051354
0.0474685
8.53438e-05
0.0382703
0.0390251
0.0675423
0.0582514
0.0297593
0.168718
0.108497
0.0511861
0.00555402
0.0460593
0.0511361
0.134773
0.0508314
0.0214134
0.0245498
0.0508318
0.050935
0.0540994
0.00690437
0.0628517
0.0989073
0.028605
0.131279
0.033099
0.0339381
0.0378778
0.0797621
0.0515564
0.0402461
0.0379643
0.0267132
-0.0224066
0.00873393
0.0683242
0.0456923
0.0568407
0.031678
0.0438212
0.0626293
0.0208865
0.107758
0.032606
0.0511578
0.00776426
0.0887801
0.00685708
0.0513079
0.136624
-0.0223321
0.0476126
0.0996348
0.00568268
0.0554031
0.0976056
0.00365629
0.0906124
0.115409
0.00417394
0.0489543
0.0807839
0.0774477
0.0139154
0.0485057
0.0314907
0.0513157
0.0505444
0.0510824
0.0121392
0.0169341
0.0209344
0.0839865
-0.0648994
0.170054
-0.0647208
0.0280796
0.0436564
-0.0437127
0.050946
-0.0969851
0.0335238
0.0228773
0.017591
0.0288107
0.0661005
0.0428848
0.033086
0.0560978
0.0512832
0.0796568
-0.039063
0.0125999
0.00594741
0.0164851
0.0541164
0.0281194
0.0160201
0.0568186
0.0240761
0.0393428
0.120368
0.0870523
0.0824236
0.0948213
-0.00188576
-0.00017665
0.00550198
0.0226721
-0.00570346
0.0134726
0.0597222
0.0438379
0.132348
0.0757418
0.00702229
0.051558
0.0970198
0.128121
0.0754072
0.08103
0.0586414
0.0162978
0.115727
0.0286351
0.0243003
0.0345358
0.0335958
0.0504475
0.0284734
0.0300227
0.0555641
0.0196487
0.0301079
0.0461931
0.105793
0.0451106
0.0417515
0.0771124
0.0571451
0.0507613
0.0530493
0.0022454
0.0155332
0.05214
0.0733868
-0.0528982
0.00602958
0.05774
0.018698
-0.0194681
-0.0404019
-0.00634877
0.0345954
0.0347643
0.0573052
0.0339199
0.0261212
-0.000259686
-0.00129229
0.00369806
0.000738776
0.0352858
0.0504323
0.0501932
0.130486
0.0641228
0.0353892
0.0392664
-0.000399507
0.0462615
0.0274387
0.150183
0.0886896
0.0114468
0.0563922
0.0157171
0.0510055
0.00870304
0.000618505
0.0274361
0.0510725
0.0607293
0.168017
0.043619
0.0903364
-0.0171567
0.0514045
0.0353624
0.0955293
0.10267
0.07148
0.0519829
0.0474792
0.0485231
0.0519313
0.0511061
0.0421702
0.00642622
0.0510761
0.0583183
0.0559198
-0.331546
0.120709
0.048508
0.0513342
0.0105402
0.0158261
0.0244943
0.0782881
0.0169324
0.0506376
0.0439974
0.00473816
0.0518583
0.0128847
0.0938617
0.0728011
0.0499111
0.0112324
0.0516314
0.040268
0.0382752
0.0434609
-0.00308241
0.061012
0.0357126
0.0338528
0.112104
0.0832448
0.0510003
0.0514559
0.0368416
0.0327446
0.012916
0.0200467
0.0409613
0.00782589
0.0819067
0.0519564
0.0385478
0.00544592
0.0405678
0.0865561
0.0655936
0.0537483
0.151854
0.0221435
0.126835
0.141564
0.0277072
-0.0026115
8.74104e-05
0.126168
0.0411831
0.00710709
0.0758817
0.0370272
0.0199465
0.0909024
0.0737443
0.0529047
0.00262372
0.032229
0.0276646
0.0416754
0.00522557
0.0529673
0.0817547
0.0527827
0.0586738
0.0872608
0.0570469
0.0450162
0.107705
0.00737575
0.0929245
0.0282541
0.0738245
0.00848762
0.063155
0.0116691
0.0525239
0.0304309
0.0095108
0.0690495
0.0281053
0.0524823
0.0432964
0.0136435
0.0467859
0.0355664
0.0580214
0.0373255
0.0220815
-0.00113848
0.0969872
0.105809
0.10189
0.0423428
0.042659
0.0356295
0.0183194
0.0289018
0.0517129
0.0564046
0.0717158
0.0242538
0.0599566
0.00475117
0.0313201
0.0587553
0.0335532
0.0327281
0.0448769
0.0297713
0.0384998
0.135591
0.259926
0.0225591
0.0241404
0.027931
0.0311005
0.0379677
0.0358237
0.0346894
0.0240166
0.0118538
0.0502396
0.0513191
0.0504222
0.00630934
0.0512775
0.0299163
0.0444963
0.0315305
0.0613706
0.0344249
0.124416
-0.00694296
0.0509803
0.0357702
0.0924952
0.0428427
0.0623191
0.0902491
0.0557846
0.0511719
0.0307038
0.00221647
0.0878949
0.00400162
0.116516
0.0848552
0.00365401
0.0650845
0.0699324
0.00879734
0.0442909
0.0504198
0.0525382
0.0372303
0.050908
0.0326891
-0.0388706
0.0501949
0.0816811
0.0447353
0.0642375
0.0649141
0.161203
0.057045
0.0433446
0.00442746
0.0121791
0.0882869
0.0317569
0.0851503
0.0524088
0.0388225
0.0668811
0.047137
0.033343
0.0519685
0.0524399
0.0316522
0.0508811
0.0352956
0.0629736
0.0821419
0.0133568
0.0506725
0.00649863
0.0016804
0.0694764
0.0612362
0.0530013
0.0698469
0.133255
0.0513062
0.0415866
0.0485129
0.0622583
0.0398397
0.0361257
0.0404013
0.0754847
0.0847515
0.0328792
0.0807955
0.0918527
0.061839
0.109674
0.0594398
0.0796234
0.026505
0.0438674
0.0207326
0.0520447
0.0661997
0.0527471
0.0849875
0.00203095
0.0566108
-0.0123687
0.0464919
0.0270722
0.11896
0.00736552
0.0486091
0.0510313
0.00570824
0.108763
0.0278894
0.0300519
0.0142278
0.0458558
0.0820567
0.0387243
0.0498322
0.0369536
0.00815929
0.0446501
0.0415149
0.391395
0.0403771
0.0527857
0.0606979
0.066431
0.044298
0.0320894
0.0513291
0.103707
0.0434701
0.0513145
0.0118787
0.0376445
0.0291257
0.0422271
0.0651867
0.0441378
0.0462145
0.0454639
0.0344566
0.0816821
0.0513509
0.0401524
0.059137
0.0466482
0.040982
0.057105
0.0568686
0.0612386
0.0616073
0.0514113
0.0447596
0.0527957
0.0294935
-0.00166911
-0.000696759
0.147228
0.0761547
-0.00912926
0.03104
0.0508022
0.0538719
0.0600807
0.0755228
0.0516859
0.0277468
0.0772943
0.058227
0.0262609
-0.00980617
0.0213724
0.0507467
0.0384389
0.0512125
0.095637
0.233496
0.040617
0.0587942
0.0437504
0.00578261
0.051029
0.0740821
0.0284738
0.0471559
0.0518323
0.03385
0.0982507
0.039702
0.0580635
0.025896
0.0433317
0.0451235
0.0893567
0.0619906
0.0416696
0.0533053
0.0400446
0.0566879
0.0391117
0.051627
0.0403561
0.0510515
0.0565996
0.010601
0.0700587
0.0151134
0.0751498
0.0752913
0.0550607
0.0397767
0.0360601
0.0787885
0.0934687
0.0107669
0.0434959
0.0576195
0.0600004
0.0410501
0.049961
0.0455309
0.0378866
0.0286209
0.0285711
0.0465604
0.0150246
0.0406184
0.0808327
0.0417482
0.0442982
0.0400692
0.0243077
0.0855927
0.0554013
-0.000610768
0.0403952
0.0430767
0.00825307
0.0540411
0.000597981
0.0534638
0.0434504
0.0482135
0.0489647
0.052202
0.0441399
0.00335832
0.0513252
0.0203513
0.0730637
0.0536098
0.0593924
0.0335388
0.0975877
0.0622001
0.0517117
0.0355659
-0.0657295
0.0514552
0.00491106
-0.0792272
0.067158
0.08695
0.054872
0.0423681
0.030477
0.0731168
0.0603322
0.05128
0.0934946
0.0110403
0.0831332
0.0513579
0.0508367
0.0447187
0.0459396
0.0466282
0.0674629
0.0772735
0.0474404
-0.00182526
0.0485635
0.0551368
0.042844
0.0330357
0.000241102
0.0508738
0.0439389
0.0237907
0.045857
0.0478665
0.0535893
0.128966
0.0743029
0.0517785
0.0640832
0.0548797
0.0436582
0.0761765
0.0613366
0.045478
0.0644808
0.037644
0.0641726
0.0863105
0.00335449
0.0236462
0.051868
0.0713778
0.0492451
0.0536887
0.0526448
0.0433964
0.0014542
0.000373122
0.0604491
0.0341423
0.0348322
0.0286155
0.0505164
0.050224
0.0517822
0.0721749
0.0352322
0.0513923
0.0436476
0.0559611
0.02229
0.0110716
0.0514175
0.050973
0.0371448
0.0499134
0.049901
0.0438571
0.0468535
0.0410667
0.0678622
0.0632462
0.0348368
0.0493357
0.054439
0.0589754
0.0441274
0.0513401
0.0443451
0.0311096
0.00114264
0.0051609
0.03594
0.124282
0.0445095
-0.0581625
0.0895492
0.0439356
0.0423798
0.0551559
0.0503337
0.0514214
0.0545108
0.0581004
0.0434486
0.0528877
0.0506791
0.0977165
0.00544284
0.0341313
0.0515515
0.0563695
0.0645646
0.0718316
0.0329332
0.0535132
0.0512722
0.0499959
0.0449433
0.0299552
0.0270915
0.00594964
0.0630969
0.0497349
0.0400007
0.0574512
0.0552582
0.0549268
0.0489337
0.0595421
0.0514126
0.0154085
-0.00252417
0.0507144
0.0675268
0.0435043
0.0463461
0.0483346
0.0525917
-0.0478888
0.064806
-0.000217607
0.0447637
0.00647265
0.0538016
0.0704752
0.128969
0.0568183
0.051589
0.030828
0.0210279
0.112254
0.044794
0.0682247
0.0466166
0.0510053
0.0661861
0.0491981
0.122352
0.000146061
0.0802101
0.0544554
0.0497336
0.0513853
0.0494458
-0.0249687
0.0397131
0.0509237
0.0579694
0.0498624
0.0509701
0.0508285
0.0107094
0.0033695
0.0561193
0.0502491