/*--------------------------------*- C++ -*----------------------------------*\
  =========                 |
  \\      /  F ield         | OpenFOAM: The Open Source CFD Toolbox
   \\    /   O peration     | Website:  https://openfoam.org
    \\  /    A nd           | Version:  7
     \\/     M anipulation  |
\*---------------------------------------------------------------------------*/
FoamFile
{
    version     2.0;
    format      ascii;
    class       volScalarField;
    location    "4";
    object      T;
}
// * * * * * * * * * * * * * * * * * * * * * * * * * * * * * * * * * * * * * //

dimensions      [0 0 0 1 0 0 0];

internalField   nonuniform List<scalar> 
2413
(
1.11686
1.11588
1.11494
1.11405
1.11319
1.11245
1.11175
1.11105
1.11041
1.10977
1.10914
1.10859
1.10808
1.10752
1.10701
1.10652
1.10597
1.10549
1.105
1.10449
1.10404
1.10343
1.10269
1.10199
1.10127
1.10054
1.09975
1.09888
1.09804
1.09721
1.09625
1.09511
1.0939
1.09269
1.09157
1.09085
1.0907
1.09153
1.09306
1.09515
1.09765
1.10031
1.10293
1.10538
1.10757
1.10931
1.11061
1.11142
1.11176
1.11161
1.11119
1.11045
1.10956
1.10852
1.10746
1.10636
1.10517
1.10398
1.10269
1.10143
1.10017
1.09905
1.09806
1.09717
1.09642
1.15798
1.15591
1.15385
1.15176
1.14966
1.14757
1.14553
1.14357
1.14164
1.13972
1.1378
1.13589
1.13403
1.13224
1.13054
1.1289
1.12732
1.12579
1.12433
1.12295
1.12166
1.12044
1.11931
1.1182
1.11712
1.11608
1.11509
1.11414
1.11329
1.11246
1.11165
1.1109
1.11014
1.10943
1.10878
1.10818
1.10755
1.107
1.10647
1.10586
1.10535
1.10483
1.10426
1.1038
1.10318
1.10248
1.10188
1.10122
1.10049
1.09968
1.09878
1.09789
1.09699
1.09594
1.09469
1.09336
1.09201
1.09058
1.0891
1.08762
1.08629
1.08543
1.08521
1.08579
1.08695
1.08866
1.0908
1.09316
1.09553
1.09775
1.09971
1.10128
1.10242
1.10322
1.10363
1.10372
1.10355
1.10321
1.10267
1.10202
1.10124
1.10025
1.09928
1.09815
1.09697
1.09587
1.09478
1.09376
1.15928
1.15735
1.15542
1.15346
1.15148
1.14949
1.14754
1.14563
1.14374
1.14186
1.13997
1.13808
1.13623
1.13443
1.13269
1.131
1.12936
1.12776
1.12624
1.12478
1.1234
1.12209
1.12084
1.11962
1.11844
1.1173
1.11621
1.11518
1.11423
1.11329
1.11239
1.11152
1.11066
1.10984
1.10909
1.10839
1.1077
1.10709
1.10653
1.10589
1.10532
1.10472
1.10404
1.1035
1.10284
1.1022
1.10171
1.10113
1.10045
1.09968
1.0988
1.0979
1.09693
1.0958
1.09449
1.09314
1.09181
1.09046
1.08897
1.08727
1.08554
1.08391
1.08246
1.08125
1.08032
1.07977
1.07987
1.08042
1.0816
1.08317
1.08501
1.08694
1.08877
1.09042
1.09186
1.09303
1.09391
1.09455
1.09496
1.09516
1.09519
1.09499
1.09464
1.09414
1.09349
1.09275
1.09191
1.09112
1.1603
1.15854
1.15674
1.15492
1.15309
1.15124
1.14939
1.14755
1.14572
1.14389
1.14206
1.14023
1.1384
1.1366
1.13481
1.13305
1.13133
1.12968
1.12811
1.12661
1.12518
1.1238
1.12245
1.12113
1.11984
1.1186
1.11741
1.1163
1.11525
1.11422
1.11324
1.11228
1.11133
1.11043
1.10957
1.10876
1.10798
1.1073
1.10666
1.10598
1.10537
1.10474
1.104
1.10334
1.10261
1.10195
1.10147
1.10094
1.10033
1.09963
1.09883
1.09796
1.09698
1.09582
1.09452
1.09318
1.09188
1.09056
1.08913
1.08747
1.08566
1.08383
1.08211
1.08056
1.07915
1.07777
1.07645
1.07529
1.07442
1.0739
1.07388
1.07422
1.07502
1.07609
1.07736
1.07871
1.08006
1.08133
1.08245
1.08344
1.08427
1.08492
1.08543
1.0858
1.08594
1.08598
1.08587
1.08561
1.16102
1.15946
1.15784
1.15617
1.15448
1.15276
1.15102
1.14926
1.1475
1.14575
1.144
1.14225
1.14048
1.13869
1.13689
1.13508
1.13331
1.1316
1.12997
1.12843
1.12695
1.12552
1.12413
1.12275
1.1214
1.12007
1.11877
1.11754
1.11636
1.11523
1.11415
1.11312
1.11212
1.11116
1.11022
1.10931
1.10843
1.10762
1.10687
1.10612
1.10545
1.10478
1.10406
1.10338
1.1026
1.10187
1.10126
1.10067
1.10006
1.09942
1.09872
1.09793
1.097
1.09588
1.09464
1.09335
1.0921
1.09086
1.08951
1.08795
1.08615
1.08423
1.08238
1.08066
1.07905
1.0775
1.07598
1.07452
1.07312
1.07175
1.07039
1.06912
1.06808
1.06732
1.06689
1.06678
1.06698
1.06745
1.06811
1.06891
1.06979
1.07071
1.07162
1.07247
1.0733
1.07401
1.07456
1.07508
1.16151
1.16015
1.15875
1.15728
1.15575
1.15416
1.15251
1.15082
1.14912
1.14744
1.14576
1.14408
1.14239
1.14067
1.13892
1.13713
1.13534
1.13358
1.13187
1.13025
1.12871
1.12723
1.1258
1.12441
1.12303
1.12165
1.12029
1.11894
1.11763
1.11637
1.11518
1.11407
1.11302
1.11203
1.11105
1.11007
1.10911
1.10816
1.10725
1.10639
1.10563
1.10492
1.10422
1.10352
1.10276
1.10201
1.10126
1.1005
1.09976
1.0991
1.09846
1.09776
1.09692
1.09591
1.09479
1.09357
1.09232
1.09113
1.08985
1.08842
1.08677
1.08495
1.08308
1.08124
1.07948
1.07779
1.07615
1.07458
1.07306
1.07158
1.07013
1.06865
1.06713
1.06562
1.06413
1.06269
1.06137
1.06021
1.05924
1.05851
1.05802
1.05778
1.0578
1.05798
1.05839
1.05891
1.05945
1.06003
1.16231
1.16108
1.1598
1.15845
1.15701
1.1555
1.15392
1.1523
1.15066
1.14902
1.14741
1.14581
1.1442
1.14256
1.14088
1.13917
1.13742
1.13564
1.13387
1.13216
1.13054
1.12901
1.12755
1.12615
1.12476
1.12337
1.12197
1.12055
1.11912
1.11774
1.11642
1.1152
1.11408
1.11302
1.112
1.11097
1.10993
1.10888
1.10784
1.10685
1.10597
1.10519
1.10445
1.10372
1.10298
1.1022
1.10137
1.10048
1.09961
1.09887
1.0982
1.09749
1.09671
1.09579
1.09479
1.0937
1.09248
1.0913
1.09003
1.08868
1.08723
1.08557
1.08382
1.08206
1.08027
1.07852
1.07682
1.07515
1.07353
1.07196
1.07042
1.06887
1.06731
1.06572
1.06413
1.06252
1.06091
1.05922
1.05752
1.05584
1.05419
1.05264
1.05124
1.05001
1.04895
1.04809
1.04738
1.04681
1.16269
1.16156
1.16037
1.15911
1.15778
1.15637
1.15492
1.15343
1.1519
1.15034
1.14874
1.14713
1.14556
1.14404
1.14252
1.14098
1.13937
1.13767
1.1359
1.13411
1.1324
1.1308
1.12931
1.12788
1.12647
1.12507
1.12365
1.12219
1.12071
1.11924
1.11782
1.1165
1.11529
1.11415
1.11305
1.11196
1.11086
1.10975
1.10864
1.10756
1.10656
1.10566
1.10484
1.10406
1.10328
1.10246
1.10159
1.10066
1.09973
1.0989
1.09812
1.09734
1.09655
1.09569
1.09478
1.09377
1.09261
1.0914
1.09012
1.08878
1.0874
1.08589
1.0843
1.08264
1.08096
1.07924
1.07758
1.07594
1.07433
1.07275
1.07118
1.06961
1.06802
1.0664
1.06475
1.06304
1.06137
1.05961
1.05784
1.0561
1.05429
1.05251
1.05081
1.04899
1.04715
1.04545
1.04365
1.04185
1.16328
1.16213
1.16097
1.15978
1.15852
1.15721
1.15585
1.15444
1.153
1.15153
1.15003
1.14852
1.14702
1.14553
1.14403
1.14251
1.14095
1.13934
1.13765
1.13591
1.1342
1.13257
1.13103
1.12955
1.1281
1.12668
1.12524
1.12379
1.12231
1.12083
1.11937
1.11798
1.11667
1.11543
1.11423
1.11304
1.11186
1.11069
1.10954
1.10842
1.10737
1.10641
1.10551
1.10464
1.10377
1.10288
1.10194
1.10096
1.09997
1.09907
1.09824
1.09741
1.09657
1.0957
1.09478
1.09375
1.0926
1.09142
1.09017
1.08885
1.08749
1.08605
1.08455
1.08298
1.08137
1.07975
1.07812
1.07654
1.07499
1.07346
1.07195
1.07044
1.06892
1.06736
1.06576
1.06407
1.06239
1.06061
1.05884
1.05702
1.05519
1.05333
1.05149
1.04968
1.04773
1.04593
1.04409
1.04208
1.16364
1.1625
1.16138
1.16026
1.15909
1.15785
1.15654
1.1552
1.15383
1.15244
1.15103
1.1496
1.14818
1.14678
1.14537
1.14395
1.14249
1.14096
1.13935
1.13765
1.13594
1.13432
1.13278
1.13129
1.12982
1.12838
1.12693
1.12549
1.12401
1.12253
1.12106
1.11963
1.11827
1.11695
1.11565
1.11438
1.11311
1.11187
1.11065
1.10948
1.10838
1.10736
1.10641
1.10547
1.10452
1.10352
1.10248
1.10139
1.10031
1.09936
1.09848
1.09762
1.09677
1.09588
1.09493
1.09384
1.09262
1.09142
1.09024
1.08898
1.08763
1.08621
1.08473
1.08319
1.08161
1.08004
1.07848
1.07694
1.07542
1.07397
1.07252
1.07107
1.06962
1.06815
1.06664
1.06505
1.06344
1.06174
1.06007
1.0583
1.05653
1.05471
1.05282
1.05102
1.04903
1.04715
1.04521
1.04322
1.16381
1.16276
1.16171
1.1606
1.15944
1.15821
1.15695
1.15569
1.15441
1.15309
1.15175
1.15039
1.14906
1.14775
1.14647
1.14516
1.1438
1.14236
1.1408
1.13913
1.13746
1.1359
1.13441
1.13294
1.13147
1.13001
1.12855
1.12708
1.1256
1.12411
1.12266
1.12125
1.11988
1.11852
1.11716
1.1158
1.11444
1.11311
1.11181
1.11057
1.10942
1.10836
1.10738
1.10642
1.10543
1.10439
1.10328
1.10209
1.1009
1.09984
1.09892
1.09806
1.0972
1.09631
1.09531
1.09419
1.0929
1.09158
1.09038
1.08914
1.08783
1.08643
1.08497
1.08345
1.08188
1.08031
1.07877
1.07725
1.07577
1.07435
1.07295
1.07154
1.07013
1.06872
1.06727
1.06578
1.06426
1.06267
1.0611
1.05943
1.05775
1.05602
1.0542
1.05245
1.05053
1.0487
1.04675
1.04484
1.16456
1.16342
1.16212
1.16082
1.15958
1.15842
1.15727
1.15613
1.15495
1.15368
1.1523
1.1509
1.14957
1.14835
1.1472
1.14603
1.14481
1.14347
1.14196
1.14031
1.13865
1.13718
1.13581
1.13443
1.133
1.13156
1.13009
1.12857
1.12704
1.12553
1.1241
1.12277
1.12147
1.12014
1.11877
1.11736
1.11592
1.11448
1.11308
1.11175
1.11054
1.10946
1.10846
1.10748
1.10647
1.10539
1.10421
1.10295
1.10164
1.10043
1.09944
1.09856
1.09769
1.09678
1.09578
1.09466
1.09339
1.09199
1.09069
1.08945
1.08816
1.0868
1.08537
1.08385
1.08229
1.08071
1.07914
1.07761
1.07613
1.07472
1.07334
1.07194
1.07055
1.06916
1.06776
1.06634
1.0649
1.0634
1.06192
1.06034
1.05876
1.0571
1.05539
1.0537
1.05187
1.05014
1.04825
1.04642
1.16572
1.16429
1.16258
1.16087
1.1596
1.15851
1.15745
1.1564
1.15531
1.15411
1.15273
1.15121
1.14978
1.14857
1.1475
1.14643
1.14533
1.14412
1.14273
1.14116
1.13953
1.1381
1.13686
1.1356
1.13426
1.13287
1.13141
1.12986
1.12824
1.1267
1.12531
1.12407
1.12287
1.12163
1.1203
1.11888
1.11738
1.11586
1.11436
1.11295
1.11168
1.11056
1.10954
1.10855
1.10753
1.10643
1.10525
1.10397
1.10262
1.10129
1.10018
1.09924
1.09834
1.09741
1.0964
1.09531
1.09409
1.09271
1.09128
1.08998
1.08867
1.08731
1.08589
1.0844
1.08286
1.08128
1.07971
1.07815
1.07664
1.07521
1.07382
1.07242
1.07102
1.06964
1.06826
1.06688
1.06549
1.06406
1.06265
1.06114
1.05964
1.05805
1.05644
1.05481
1.05309
1.05144
1.04963
1.04789
1.16694
1.16521
1.1632
1.1613
1.15989
1.15871
1.15765
1.1566
1.15553
1.1544
1.15312
1.1516
1.15001
1.14868
1.14757
1.14651
1.14545
1.14433
1.14312
1.14176
1.14029
1.13886
1.13763
1.13645
1.1352
1.13387
1.13244
1.13086
1.1292
1.12766
1.12635
1.12519
1.12409
1.12294
1.12169
1.1203
1.11878
1.11718
1.1156
1.11414
1.11285
1.11173
1.11069
1.10966
1.10859
1.10746
1.10625
1.10498
1.10365
1.10232
1.10112
1.10008
1.09909
1.09809
1.09706
1.09597
1.0948
1.0935
1.09208
1.09071
1.0894
1.08804
1.08663
1.08516
1.08362
1.08206
1.08047
1.0789
1.07737
1.0759
1.07448
1.07304
1.07163
1.07024
1.06886
1.0675
1.06614
1.06477
1.06339
1.06194
1.06052
1.059
1.05748
1.05591
1.0543
1.05271
1.051
1.04935
1.16755
1.16579
1.16395
1.16223
1.16082
1.15955
1.15832
1.15708
1.15582
1.15453
1.15323
1.15185
1.15036
1.149
1.14781
1.14668
1.14555
1.1444
1.14323
1.142
1.14071
1.13941
1.13821
1.13707
1.13588
1.13459
1.13318
1.13157
1.12987
1.12838
1.12713
1.12603
1.12501
1.12396
1.1228
1.12147
1.11994
1.11828
1.11666
1.11522
1.11397
1.11287
1.11183
1.11077
1.10966
1.10846
1.10722
1.10593
1.10465
1.10339
1.10221
1.1011
1.10002
1.09893
1.09783
1.0967
1.09554
1.0943
1.09296
1.09157
1.09024
1.0889
1.0875
1.08604
1.08452
1.08296
1.08138
1.07981
1.07827
1.07678
1.07534
1.07386
1.07242
1.07102
1.06963
1.06828
1.06692
1.06558
1.06423
1.06283
1.06146
1.05999
1.05855
1.05704
1.05552
1.05399
1.05238
1.05082
1.1683
1.16631
1.16459
1.16318
1.16188
1.16061
1.15932
1.15801
1.15664
1.15516
1.15349
1.1518
1.15047
1.14937
1.14828
1.14711
1.14594
1.14474
1.14346
1.14203
1.14068
1.13958
1.13858
1.13756
1.13647
1.13525
1.13386
1.1322
1.13041
1.12889
1.12768
1.12661
1.12563
1.12468
1.12365
1.12242
1.12089
1.11917
1.11756
1.11619
1.11499
1.1139
1.11287
1.11181
1.11068
1.10945
1.10814
1.10681
1.10553
1.10432
1.10319
1.10208
1.10097
1.09983
1.09866
1.09747
1.09627
1.09504
1.09376
1.09241
1.09108
1.08976
1.0884
1.08697
1.08546
1.0839
1.08233
1.08077
1.07924
1.07776
1.0763
1.07479
1.07332
1.07189
1.07049
1.06913
1.06778
1.06646
1.06512
1.06376
1.06242
1.06099
1.05961
1.05814
1.0567
1.05523
1.05373
1.05223
1.16925
1.16749
1.16577
1.16448
1.1632
1.16187
1.16054
1.15914
1.15761
1.15589
1.15403
1.15235
1.15111
1.14998
1.1489
1.14779
1.14654
1.14526
1.14387
1.1423
1.1408
1.13971
1.13879
1.13788
1.13691
1.13582
1.13453
1.13293
1.13107
1.12939
1.12811
1.12702
1.12603
1.12512
1.12417
1.12304
1.12159
1.11988
1.11834
1.11704
1.11585
1.11474
1.1137
1.11265
1.11154
1.11029
1.10893
1.10756
1.10629
1.10513
1.10404
1.10295
1.10185
1.1007
1.09949
1.09825
1.09699
1.09574
1.09446
1.09314
1.09182
1.09053
1.08919
1.08777
1.08628
1.08473
1.08318
1.08164
1.08013
1.07866
1.07719
1.07566
1.07416
1.07269
1.07127
1.06991
1.06854
1.06723
1.06589
1.06455
1.06321
1.06182
1.06049
1.05905
1.05769
1.05626
1.05485
1.0534
1.15988
1.16922
1.16743
1.16594
1.16464
1.16327
1.16187
1.16037
1.15866
1.15676
1.15488
1.15333
1.15208
1.1509
1.14975
1.14862
1.14734
1.14596
1.14444
1.14275
1.14112
1.13991
1.13896
1.13807
1.1372
1.13622
1.13507
1.13362
1.13184
1.13001
1.12858
1.1274
1.12637
1.12542
1.12448
1.12342
1.12208
1.12047
1.11899
1.11775
1.11656
1.11544
1.11438
1.11332
1.11219
1.11091
1.1095
1.10812
1.10691
1.1058
1.10471
1.10363
1.10253
1.10138
1.10015
1.09886
1.09755
1.09626
1.09499
1.09369
1.09239
1.09111
1.08978
1.08838
1.08689
1.08536
1.08382
1.08231
1.08082
1.07935
1.07783
1.07626
1.07474
1.07322
1.0718
1.0704
1.06903
1.06771
1.06635
1.06503
1.06369
1.06234
1.06102
1.05963
1.05832
1.05692
1.05558
1.05415
1.10811
1.16085
1.16974
1.16803
1.16634
1.16477
1.16308
1.16126
1.15938
1.15762
1.1561
1.15474
1.15343
1.15209
1.15071
1.14937
1.14808
1.14668
1.14512
1.14346
1.14184
1.14044
1.13933
1.13838
1.13746
1.13653
1.1355
1.13421
1.1326
1.13078
1.12919
1.12792
1.12678
1.12577
1.12479
1.12373
1.12244
1.12092
1.11953
1.11832
1.11715
1.11603
1.11494
1.11386
1.11268
1.11134
1.10988
1.10856
1.10742
1.10633
1.10526
1.10418
1.10308
1.10191
1.10065
1.0993
1.09793
1.09662
1.09536
1.09408
1.09279
1.0915
1.09015
1.08875
1.08727
1.08574
1.08425
1.08275
1.08127
1.07977
1.07819
1.0766
1.07503
1.07349
1.07206
1.07063
1.06926
1.06791
1.06654
1.06522
1.06386
1.06254
1.06123
1.05989
1.05861
1.05723
1.05594
1.05452
1.0327
1.11569
1.1632
1.17027
1.16825
1.16623
1.16419
1.16201
1.16003
1.15861
1.15743
1.15627
1.15499
1.15364
1.15213
1.15041
1.14861
1.14705
1.14561
1.14415
1.14278
1.14151
1.14026
1.13899
1.13783
1.1368
1.13577
1.13456
1.13313
1.13153
1.12996
1.12854
1.12731
1.12622
1.12518
1.12407
1.12279
1.12134
1.11997
1.11877
1.11762
1.1165
1.11541
1.11429
1.11306
1.11164
1.11018
1.10895
1.10785
1.10678
1.1057
1.10461
1.10349
1.10227
1.10094
1.09953
1.09813
1.09685
1.0956
1.09432
1.09305
1.09173
1.09036
1.08894
1.08744
1.08595
1.08449
1.08301
1.08154
1.07999
1.07838
1.07677
1.07514
1.0736
1.07214
1.07068
1.06929
1.0679
1.06652
1.06519
1.06383
1.06254
1.06122
1.05993
1.05864
1.0573
1.05603
1.05462
1.00353
1.03909
1.12142
1.16479
1.17005
1.16789
1.16568
1.16344
1.1613
1.15972
1.15845
1.15739
1.15635
1.15503
1.15356
1.1518
1.14968
1.14768
1.14617
1.14493
1.14377
1.14257
1.14138
1.14004
1.13852
1.13719
1.13607
1.1349
1.13358
1.13218
1.13075
1.12932
1.12796
1.12676
1.12563
1.12448
1.12321
1.12184
1.12048
1.11923
1.11808
1.11696
1.11585
1.11468
1.11338
1.11194
1.11053
1.10936
1.10827
1.10719
1.10611
1.10498
1.1038
1.10252
1.1011
1.09966
1.09829
1.09706
1.09582
1.09454
1.09325
1.09188
1.09048
1.08903
1.08753
1.08609
1.08464
1.08317
1.0817
1.08011
1.07848
1.07684
1.07517
1.07365
1.07213
1.07065
1.06923
1.06778
1.0664
1.06504
1.06367
1.0624
1.06106
1.0598
1.05851
1.05723
1.05597
1.05458
1.00015
1.00469
1.04401
1.12488
1.1645
1.16962
1.16752
1.16548
1.16336
1.16129
1.15966
1.15832
1.15727
1.15616
1.15477
1.15316
1.15109
1.14884
1.1472
1.14589
1.14481
1.14366
1.14246
1.14115
1.13954
1.13785
1.13653
1.13536
1.13413
1.13283
1.13151
1.13013
1.12871
1.12738
1.12616
1.12496
1.12372
1.12243
1.12109
1.11977
1.11856
1.11741
1.11627
1.11506
1.11373
1.11231
1.11096
1.10981
1.10872
1.10762
1.10651
1.10533
1.10407
1.10269
1.10121
1.09983
1.09855
1.09735
1.09608
1.09477
1.09343
1.09199
1.09057
1.08911
1.08763
1.08622
1.08475
1.0833
1.08181
1.08017
1.07855
1.07685
1.0752
1.07367
1.07209
1.07059
1.06909
1.06755
1.06615
1.06474
1.0634
1.06211
1.06077
1.05954
1.05823
1.05698
1.05569
1.05431
1
1.00021
1.00563
1.04703
1.12587
1.1633
1.16971
1.16774
1.1658
1.1635
1.16112
1.15938
1.1581
1.15711
1.15591
1.15447
1.15263
1.15037
1.14846
1.14707
1.14593
1.14481
1.14359
1.14228
1.14063
1.13875
1.13728
1.13606
1.13487
1.13361
1.13234
1.13098
1.12948
1.12802
1.12678
1.12558
1.12436
1.1231
1.1218
1.12046
1.11914
1.1179
1.1167
1.11547
1.11417
1.11283
1.11153
1.11035
1.10923
1.1081
1.10694
1.10569
1.10433
1.10282
1.10136
1.10011
1.09887
1.09767
1.09638
1.09503
1.09364
1.09213
1.09071
1.08926
1.08781
1.08641
1.08491
1.08347
1.08193
1.08028
1.07863
1.07688
1.07528
1.0737
1.0721
1.0706
1.06901
1.06747
1.06601
1.0645
1.06317
1.06182
1.06048
1.05924
1.0579
1.05666
1.05534
1.05398
1
1
1.00026
1.00624
1.04818
1.12446
1.16246
1.16976
1.16811
1.16603
1.16319
1.16072
1.15922
1.15809
1.15717
1.15587
1.15424
1.15215
1.14991
1.14828
1.14702
1.14596
1.14477
1.14345
1.14182
1.13989
1.1383
1.13703
1.13581
1.13456
1.1333
1.13191
1.13031
1.1288
1.12758
1.12639
1.12515
1.12389
1.12258
1.1212
1.11979
1.11846
1.11722
1.11599
1.11475
1.11349
1.11222
1.111
1.10982
1.10864
1.10741
1.10607
1.10461
1.10307
1.10172
1.10055
1.09932
1.09811
1.09681
1.0954
1.09394
1.09239
1.09101
1.08956
1.08815
1.08674
1.08521
1.08373
1.08212
1.08045
1.07877
1.07701
1.07546
1.07384
1.07223
1.07066
1.06898
1.06743
1.0659
1.06442
1.0631
1.06169
1.06037
1.05905
1.05766
1.05638
1.05498
1.0536
1
1
1
1.00029
1.00643
1.04723
1.1213
1.16175
1.16977
1.16844
1.16577
1.16253
1.16062
1.15933
1.15849
1.15743
1.15591
1.15401
1.15164
1.14966
1.14829
1.14717
1.14602
1.14468
1.14307
1.14114
1.13948
1.13818
1.13694
1.13569
1.13441
1.13296
1.13129
1.12978
1.12855
1.12733
1.12608
1.12481
1.12346
1.12201
1.12052
1.11917
1.11793
1.11672
1.11549
1.11424
1.11296
1.11169
1.11045
1.10922
1.10794
1.10655
1.10505
1.10358
1.1023
1.10114
1.0999
1.09864
1.0973
1.09584
1.09434
1.0928
1.09147
1.09004
1.08864
1.0872
1.08564
1.08411
1.08245
1.08079
1.07911
1.07738
1.07585
1.0742
1.0726
1.07097
1.06923
1.06767
1.06604
1.06455
1.06313
1.06167
1.06034
1.05891
1.05755
1.05621
1.05475
1.05338
1
1
1
1
1.0003
1.00616
1.04443
1.11639
1.16084
1.16956
1.16827
1.16487
1.16218
1.16072
1.15982
1.15897
1.15755
1.15578
1.15344
1.1512
1.14974
1.14857
1.14745
1.14608
1.14445
1.14253
1.14076
1.13942
1.13819
1.13695
1.13564
1.13415
1.13245
1.13093
1.12966
1.12841
1.12714
1.12583
1.12443
1.12291
1.12142
1.12011
1.11889
1.11768
1.11643
1.11513
1.11378
1.11241
1.11111
1.10985
1.10856
1.10717
1.10574
1.10436
1.1031
1.10191
1.10064
1.09931
1.0979
1.09638
1.09491
1.09343
1.09214
1.09071
1.08928
1.08779
1.08619
1.08465
1.08294
1.08132
1.07965
1.07796
1.07642
1.07474
1.07317
1.07147
1.06973
1.06813
1.06645
1.06497
1.06348
1.062
1.06062
1.05911
1.0577
1.05627
1.0548
1.05342
1
1
1
1
1
1.00027
1.00552
1.04002
1.11012
1.15959
1.16867
1.16703
1.16406
1.16238
1.16145
1.16064
1.15927
1.1575
1.1551
1.15279
1.15129
1.15011
1.149
1.14759
1.14595
1.14401
1.14212
1.14075
1.13954
1.1383
1.13696
1.13546
1.13375
1.13218
1.13086
1.12959
1.1283
1.12696
1.1255
1.12392
1.12248
1.12124
1.12003
1.1188
1.11751
1.11614
1.11469
1.11324
1.1119
1.11063
1.10935
1.10801
1.10662
1.10531
1.10404
1.10281
1.1015
1.10011
1.09861
1.09705
1.09568
1.09426
1.09296
1.09152
1.09004
1.08852
1.08686
1.08532
1.08363
1.08202
1.08037
1.07871
1.07715
1.07544
1.07387
1.07214
1.07042
1.06879
1.06712
1.06568
1.0641
1.06259
1.06111
1.05954
1.05811
1.05659
1.05515
1.05372
1
1
1
1
1
1
1.00022
1.00463
1.03449
1.10268
1.15618
1.16581
1.1663
1.16449
1.16366
1.16266
1.16116
1.15927
1.15669
1.15445
1.15298
1.15183
1.1507
1.14924
1.14756
1.14554
1.14361
1.14224
1.14104
1.13978
1.13841
1.13685
1.1351
1.1335
1.13215
1.13087
1.12958
1.1282
1.12668
1.12509
1.1237
1.12247
1.12125
1.12
1.11868
1.11724
1.11571
1.11422
1.11289
1.11162
1.11037
1.10905
1.10766
1.10635
1.10504
1.10378
1.10246
1.10105
1.09953
1.09796
)
;

boundaryField
{
    inlet
    {
        type            fixedValue;
        value           nonuniform 0();
    }
    outlet
    {
        type            inletOutlet;
        inletValue      nonuniform 0();
        value           nonuniform 0();
    }
    bottom
    {
        type            symmetryPlane;
    }
    top
    {
        type            symmetryPlane;
    }
    obstacle
    {
        type            zeroGradient;
    }
    front
    {
        type            empty;
    }
    back
    {
        type            empty;
    }
    procBoundary27to10
    {
        type            processor;
        value           nonuniform List<scalar> 
14
(
1.16008
1.16122
1.16203
1.16254
1.16287
1.16353
1.16378
1.16441
1.16482
1.16485
1.16552
1.16687
1.16846
1.16924
)
;
    }
    procBoundary27to18
    {
        type            processor;
        value           nonuniform List<scalar> 
13
(
1.17011
1.15784
1.09625
1.02496
1.00237
1.00009
1
1
1
1
1
1
1
)
;
    }
    procBoundary27to19
    {
        type            processor;
        value           nonuniform List<scalar> 
89
(
1.11557
1.11467
1.11383
1.11306
1.11233
1.11172
1.11117
1.11061
1.11007
1.10953
1.10897
1.10849
1.10806
1.10759
1.10714
1.10668
1.10616
1.10568
1.10516
1.10465
1.1042
1.10362
1.1029
1.10217
1.10146
1.10076
1.10003
1.09923
1.09848
1.09783
1.09712
1.09636
1.09591
1.09606
1.09708
1.09888
1.10121
1.10397
1.1068
1.10957
1.11216
1.11425
1.11606
1.11751
1.11834
1.11876
1.11871
1.11824
1.11731
1.11621
1.11489
1.11348
1.11211
1.11074
1.10948
1.10823
1.10703
1.10594
1.10481
1.10385
1.10306
1.1025
1.10217
1.10208
1.10225
1.15641
1.15421
1.15204
1.14985
1.14767
1.14552
1.14342
1.14138
1.1394
1.13744
1.1355
1.1336
1.13176
1.13
1.12834
1.12674
1.12523
1.1238
1.12245
1.12118
1.12001
1.11891
1.11787
1.11787
)
;
    }
    procBoundary27to20
    {
        type            processor;
        value           uniform 1.09594;
    }
    procBoundary27to28
    {
        type            processor;
        value           nonuniform List<scalar> 
26
(
1.09287
1.09031
1.08531
1.07541
1.06062
1.0464
1.04027
1.0402
1.0412
1.04285
1.04451
1.04603
1.04753
1.04907
1.05058
1.05184
1.05266
1.05309
1.05323
1.05323
1.05297
1.0526
1.0522
1.05189
1.05188
1.05215
)
;
    }
    procBoundary27to35
    {
        type            processor;
        value           nonuniform List<scalar> 
89
(
1.09666
1.09524
1.0939
1.09245
1.09092
1.08937
1.08766
1.08614
1.08448
1.08292
1.0813
1.07965
1.07809
1.07634
1.07473
1.07298
1.07131
1.06967
1.06801
1.06653
1.06489
1.06336
1.06178
1.06022
1.05876
1.05718
1.05576
1.05428
1
1
1
1
1
1
1
1.00017
1.00359
1.02833
1.09297
1.14868
1.16271
1.16661
1.16648
1.16537
1.16329
1.16097
1.15814
1.15616
1.15479
1.15377
1.15257
1.15109
1.14932
1.14713
1.14523
1.14391
1.14271
1.14142
1.13999
1.13837
1.13655
1.13493
1.13359
1.1323
1.13099
1.12958
1.12804
1.12644
1.12502
1.12375
1.12249
1.1212
1.11984
1.11836
1.11683
1.11539
1.1141
1.11284
1.11159
1.11028
1.10885
1.10749
1.10612
1.10482
1.10349
1.10207
1.10061
1.09666
1.09906
)
;
    }
}


// ************************************************************************* //
