/*--------------------------------*- C++ -*----------------------------------*\
  =========                 |
  \\      /  F ield         | OpenFOAM: The Open Source CFD Toolbox
   \\    /   O peration     | Website:  https://openfoam.org
    \\  /    A nd           | Version:  7
     \\/     M anipulation  |
\*---------------------------------------------------------------------------*/
FoamFile
{
    version     2.0;
    format      ascii;
    class       volScalarField;
    location    "31";
    object      p;
}
// * * * * * * * * * * * * * * * * * * * * * * * * * * * * * * * * * * * * * //

dimensions      [0 2 -2 0 0 0 0];

internalField   nonuniform List<scalar> 
41600
(
-0.221256
-0.225622
-0.228715
-0.230074
-0.231688
-0.231456
-0.231061
-0.229521
-0.227532
-0.22471
-0.221303
-0.217082
-0.212187
-0.206315
-0.199688
-0.191845
-0.183136
-0.173034
-0.161814
-0.149531
-0.135329
-0.121375
-0.104582
-0.0892113
-0.0720998
-0.221328
-0.225658
-0.22876
-0.230107
-0.231729
-0.231502
-0.231121
-0.2296
-0.227633
-0.224834
-0.221445
-0.217228
-0.212327
-0.206422
-0.199755
-0.191848
-0.183091
-0.172947
-0.161725
-0.149523
-0.135364
-0.121645
-0.104933
-0.0898096
-0.0727704
-0.221472
-0.225731
-0.228853
-0.230175
-0.231806
-0.231582
-0.231217
-0.229715
-0.227774
-0.225001
-0.221636
-0.217431
-0.212534
-0.206606
-0.19992
-0.191963
-0.18319
-0.17306
-0.161828
-0.149767
-0.135631
-0.122247
-0.105565
-0.0907477
-0.0738137
-0.221687
-0.225841
-0.228992
-0.230275
-0.231919
-0.231694
-0.231345
-0.229864
-0.22795
-0.225206
-0.22187
-0.217681
-0.2128
-0.206853
-0.200166
-0.192169
-0.183404
-0.173276
-0.162078
-0.150192
-0.136061
-0.123034
-0.106437
-0.0918029
-0.0750886
-0.221972
-0.225985
-0.229174
-0.230405
-0.232065
-0.231835
-0.231502
-0.230042
-0.228156
-0.225443
-0.222139
-0.217969
-0.213109
-0.207148
-0.200471
-0.19244
-0.183694
-0.173578
-0.162418
-0.150699
-0.136617
-0.123828
-0.107398
-0.0928476
-0.0764324
-0.222326
-0.226164
-0.229399
-0.230564
-0.232239
-0.232001
-0.231685
-0.230244
-0.228387
-0.225704
-0.222432
-0.218281
-0.213444
-0.20747
-0.200806
-0.192741
-0.184015
-0.173912
-0.162785
-0.151196
-0.137176
-0.124522
-0.108344
-0.0937647
-0.0776943
-0.222747
-0.226373
-0.229662
-0.230747
-0.23244
-0.232189
-0.231887
-0.230464
-0.228633
-0.22598
-0.222739
-0.218603
-0.213788
-0.207795
-0.20114
-0.193038
-0.184318
-0.174222
-0.163101
-0.1516
-0.137662
-0.124998
-0.109167
-0.0944937
-0.0787619
-0.223233
-0.226612
-0.229961
-0.230951
-0.232662
-0.232392
-0.232103
-0.230695
-0.228888
-0.22626
-0.223045
-0.21892
-0.214117
-0.2081
-0.201437
-0.193294
-0.184549
-0.174451
-0.163296
-0.151826
-0.137996
-0.125191
-0.109754
-0.0950053
-0.0795777
-0.223782
-0.226876
-0.230292
-0.231172
-0.2329
-0.232606
-0.232326
-0.230928
-0.229141
-0.226533
-0.223336
-0.219213
-0.21441
-0.208357
-0.201661
-0.193467
-0.184649
-0.174541
-0.163302
-0.151799
-0.138091
-0.125077
-0.110018
-0.0952805
-0.0801382
-0.22439
-0.227163
-0.230651
-0.231405
-0.233149
-0.232824
-0.23255
-0.231158
-0.229384
-0.226788
-0.223598
-0.219465
-0.21464
-0.208536
-0.201771
-0.193515
-0.184562
-0.174426
-0.163058
-0.151462
-0.137874
-0.124654
-0.109926
-0.0953115
-0.0804761
-0.225056
-0.22747
-0.231032
-0.231645
-0.233403
-0.23304
-0.232767
-0.231373
-0.229605
-0.227012
-0.223815
-0.219654
-0.21478
-0.208606
-0.201722
-0.193386
-0.184236
-0.174041
-0.162514
-0.150775
-0.137299
-0.123931
-0.109496
-0.0951094
-0.0806373
-0.225776
-0.227793
-0.231433
-0.231888
-0.233656
-0.233247
-0.23297
-0.231567
-0.229795
-0.227191
-0.223968
-0.219758
-0.2148
-0.208528
-0.20147
-0.193029
-0.183626
-0.173328
-0.161639
-0.14973
-0.136361
-0.122935
-0.108785
-0.0947069
-0.0806639
-0.226547
-0.228129
-0.231847
-0.232128
-0.233903
-0.23344
-0.233151
-0.23173
-0.229942
-0.227311
-0.224038
-0.219752
-0.214667
-0.208264
-0.200971
-0.19239
-0.182697
-0.172251
-0.160416
-0.148345
-0.135096
-0.121708
-0.107864
-0.0941506
-0.0805871
-0.227367
-0.228473
-0.232271
-0.23236
-0.234137
-0.233611
-0.233303
-0.231854
-0.230036
-0.227357
-0.224005
-0.219608
-0.214346
-0.207771
-0.200188
-0.191424
-0.18143
-0.170803
-0.158858
-0.146666
-0.133563
-0.120307
-0.106803
-0.093489
-0.0804283
-0.228233
-0.228823
-0.232698
-0.232578
-0.234352
-0.233754
-0.23342
-0.231929
-0.230063
-0.227311
-0.223845
-0.219296
-0.213802
-0.207009
-0.199091
-0.190107
-0.179823
-0.16901
-0.157002
-0.144756
-0.131835
-0.11879
-0.105657
-0.0927621
-0.0802028
-0.229142
-0.229175
-0.233124
-0.232779
-0.234544
-0.233863
-0.233492
-0.231945
-0.230011
-0.227155
-0.223532
-0.218783
-0.213001
-0.205944
-0.197664
-0.188434
-0.177895
-0.166921
-0.154903
-0.142682
-0.12998
-0.117208
-0.104469
-0.0919981
-0.0799222
-0.230092
-0.229525
-0.233545
-0.232957
-0.234706
-0.233932
-0.233514
-0.231893
-0.229864
-0.226868
-0.223039
-0.218038
-0.211918
-0.204556
-0.19591
-0.186426
-0.175686
-0.164598
-0.152624
-0.140508
-0.128057
-0.115599
-0.103262
-0.0912142
-0.0795958
-0.231079
-0.22987
-0.233955
-0.233107
-0.234833
-0.233955
-0.233478
-0.23176
-0.229606
-0.226426
-0.22234
-0.217034
-0.210535
-0.202839
-0.193847
-0.184126
-0.173246
-0.162108
-0.150227
-0.138283
-0.126106
-0.113989
-0.102054
-0.0904194
-0.079231
-0.232103
-0.230208
-0.23435
-0.233226
-0.234921
-0.233927
-0.233375
-0.231536
-0.229219
-0.225807
-0.221409
-0.215751
-0.208849
-0.200807
-0.191508
-0.181587
-0.170633
-0.159509
-0.147765
-0.136045
-0.124156
-0.112395
-0.100851
-0.089618
-0.0788335
-0.233162
-0.230535
-0.234727
-0.233312
-0.234965
-0.233842
-0.233198
-0.231205
-0.228684
-0.224989
-0.220228
-0.21418
-0.206869
-0.198491
-0.18894
-0.178867
-0.167903
-0.156853
-0.145279
-0.133819
-0.122224
-0.110823
-0.0996585
-0.0888113
-0.0784074
-0.234254
-0.230849
-0.235083
-0.233358
-0.234962
-0.233694
-0.232936
-0.230754
-0.227981
-0.223951
-0.218785
-0.212323
-0.204617
-0.195931
-0.186192
-0.176023
-0.165103
-0.154174
-0.142797
-0.13162
-0.120318
-0.109279
-0.0984755
-0.0879994
-0.0779555
-0.235378
-0.23115
-0.235415
-0.233362
-0.234907
-0.233476
-0.232578
-0.230167
-0.227093
-0.222681
-0.217078
-0.210198
-0.202128
-0.193177
-0.183312
-0.173101
-0.162274
-0.151501
-0.14034
-0.129456
-0.118442
-0.107762
-0.0973011
-0.0871821
-0.0774799
-0.236533
-0.231434
-0.235712
-0.23333
-0.234796
-0.233182
-0.232114
-0.229429
-0.226004
-0.22117
-0.215116
-0.207829
-0.199441
-0.190276
-0.180345
-0.17014
-0.159444
-0.148849
-0.137918
-0.127331
-0.116598
-0.106271
-0.0961335
-0.086359
-0.0769819
-0.23772
-0.231703
-0.235982
-0.233252
-0.234626
-0.232805
-0.231531
-0.228527
-0.224704
-0.219419
-0.212915
-0.20525
-0.196597
-0.187272
-0.177327
-0.167169
-0.156633
-0.146229
-0.135539
-0.125244
-0.114784
-0.104805
-0.09497
-0.0855299
-0.0764622
-0.23894
-0.231955
-0.236221
-0.233127
-0.234392
-0.232337
-0.230819
-0.227448
-0.223189
-0.217439
-0.210502
-0.202499
-0.193635
-0.184204
-0.174289
-0.16421
-0.153854
-0.143648
-0.133206
-0.123194
-0.113
-0.103361
-0.093808
-0.0846949
-0.0759211
-0.240193
-0.23219
-0.236429
-0.232955
-0.234087
-0.23177
-0.229968
-0.226186
-0.221461
-0.215245
-0.207906
-0.199612
-0.190592
-0.181103
-0.171252
-0.161277
-0.151115
-0.141107
-0.130918
-0.121177
-0.111245
-0.101934
-0.0926452
-0.083854
-0.0753586
-0.241482
-0.232418
-0.236597
-0.232735
-0.233709
-0.231098
-0.228971
-0.224736
-0.219528
-0.212858
-0.205158
-0.196625
-0.187497
-0.177992
-0.168232
-0.158378
-0.14842
-0.138608
-0.128676
-0.11919
-0.109516
-0.100523
-0.0914794
-0.0830074
-0.074774
-0.242808
-0.232633
-0.236732
-0.232463
-0.23325
-0.230316
-0.22782
-0.223098
-0.217403
-0.210306
-0.202289
-0.193567
-0.184375
-0.174888
-0.165238
-0.155521
-0.145769
-0.13615
-0.126477
-0.117229
-0.107814
-0.099121
-0.0903091
-0.082155
-0.0741661
-0.244174
-0.23284
-0.23683
-0.232137
-0.232709
-0.229419
-0.226513
-0.221278
-0.215104
-0.207613
-0.19933
-0.190465
-0.181246
-0.171806
-0.162278
-0.152707
-0.143163
-0.133733
-0.124317
-0.115292
-0.106136
-0.0977252
-0.0891333
-0.0812961
-0.0735329
-0.245585
-0.233045
-0.23689
-0.231754
-0.232085
-0.228403
-0.22505
-0.219285
-0.212652
-0.204808
-0.196304
-0.18734
-0.178123
-0.168753
-0.159356
-0.149938
-0.140599
-0.131357
-0.122194
-0.113376
-0.104482
-0.0963305
-0.0879519
-0.0804295
-0.0728718
-0.247044
-0.233252
-0.236907
-0.231315
-0.231377
-0.227265
-0.22343
-0.217131
-0.210069
-0.201914
-0.193235
-0.184208
-0.175017
-0.165734
-0.156474
-0.147215
-0.138076
-0.129018
-0.120104
-0.111478
-0.10285
-0.0949324
-0.0867654
-0.0795524
-0.0721795
-0.248557
-0.233467
-0.236879
-0.23082
-0.230588
-0.226002
-0.221661
-0.214831
-0.207376
-0.198953
-0.190139
-0.18108
-0.171936
-0.162752
-0.153632
-0.144535
-0.13559
-0.126717
-0.118042
-0.109599
-0.101237
-0.0935267
-0.0855748
-0.0786613
-0.0714525
-0.250128
-0.233696
-0.236799
-0.230277
-0.22972
-0.22461
-0.219749
-0.212404
-0.204594
-0.195945
-0.187032
-0.177967
-0.168884
-0.159809
-0.15083
-0.141898
-0.13314
-0.124452
-0.116006
-0.107739
-0.0996402
-0.0921101
-0.0843819
-0.0777512
-0.0706875
-0.251764
-0.233943
-0.236665
-0.229693
-0.228771
-0.22309
-0.217704
-0.209865
-0.201743
-0.192905
-0.183925
-0.174874
-0.165864
-0.156905
-0.148067
-0.139301
-0.130723
-0.122221
-0.113991
-0.105896
-0.0980558
-0.0906797
-0.0831881
-0.0768157
-0.0698813
-0.253472
-0.234207
-0.236474
-0.22908
-0.227739
-0.221444
-0.215539
-0.207233
-0.198839
-0.189846
-0.180825
-0.171805
-0.162878
-0.154039
-0.145343
-0.136741
-0.128339
-0.120021
-0.111996
-0.104072
-0.0964791
-0.0892342
-0.0819942
-0.0758448
-0.0690282
-0.255256
-0.234488
-0.236233
-0.228448
-0.226623
-0.219674
-0.213268
-0.204523
-0.195896
-0.186779
-0.177739
-0.168764
-0.159926
-0.15121
-0.142655
-0.134217
-0.125985
-0.117851
-0.110019
-0.102268
-0.0949052
-0.0877743
-0.0807985
-0.0748203
-0.0681183
-0.257125
-0.234778
-0.235951
-0.227798
-0.225418
-0.217787
-0.210901
-0.201751
-0.192927
-0.183712
-0.174671
-0.165751
-0.157009
-0.148416
-0.140002
-0.131726
-0.123659
-0.115709
-0.108058
-0.100484
-0.0933303
-0.086305
-0.0795956
-0.0737118
-0.0671392
-0.259082
-0.235064
-0.23565
-0.227127
-0.224123
-0.215792
-0.208453
-0.198928
-0.18994
-0.18065
-0.171625
-0.162768
-0.154124
-0.145657
-0.137383
-0.129266
-0.121362
-0.113592
-0.106113
-0.0987177
-0.0917524
-0.0848356
-0.0783763
-0.0724831
-0.0660891
-0.261127
-0.235334
-0.235356
-0.226424
-0.22274
-0.213697
-0.205936
-0.196067
-0.186944
-0.177599
-0.168601
-0.159813
-0.151271
-0.142929
-0.134795
-0.126836
-0.11909
-0.111498
-0.104185
-0.0969693
-0.0901722
-0.083378
-0.0771306
-0.0711217
-0.0649932
-0.263257
-0.235574
-0.235096
-0.225673
-0.221271
-0.21151
-0.203359
-0.193175
-0.183945
-0.174561
-0.165601
-0.156887
-0.148449
-0.140233
-0.132237
-0.124432
-0.116844
-0.109425
-0.102273
-0.095236
-0.0885932
-0.0819401
-0.0758554
-0.0696913
-0.0638859
-0.265469
-0.235767
-0.234898
-0.224857
-0.219718
-0.209242
-0.200733
-0.190263
-0.180948
-0.171538
-0.162624
-0.153989
-0.145656
-0.137565
-0.129707
-0.122055
-0.114621
-0.107371
-0.100377
-0.0935158
-0.0870195
-0.0805216
-0.0745586
-0.0683402
-0.0627364
-0.267744
-0.235908
-0.234776
-0.223965
-0.218086
-0.2069
-0.198066
-0.187334
-0.177956
-0.168532
-0.159671
-0.151117
-0.142891
-0.134924
-0.127203
-0.1197
-0.11242
-0.105335
-0.098497
-0.0918073
-0.0854544
-0.0791163
-0.0732572
-0.0671225
-0.0615964
-0.270058
-0.236001
-0.234732
-0.222988
-0.216379
-0.204493
-0.195365
-0.184396
-0.174971
-0.165542
-0.156741
-0.148269
-0.140152
-0.132308
-0.124724
-0.117369
-0.110239
-0.103316
-0.0966314
-0.0901098
-0.0838989
-0.0777208
-0.0719778
-0.0659721
-0.060483
-0.272374
-0.23606
-0.234751
-0.221924
-0.214598
-0.202028
-0.192635
-0.18145
-0.171995
-0.162569
-0.153832
-0.145445
-0.137437
-0.129716
-0.122268
-0.115058
-0.108078
-0.101313
-0.0947797
-0.0884225
-0.082353
-0.0763359
-0.0707159
-0.064869
-0.0594969
-0.27465
-0.23611
-0.234802
-0.220776
-0.212748
-0.199511
-0.189883
-0.178501
-0.169029
-0.159612
-0.150944
-0.142644
-0.134745
-0.127147
-0.119833
-0.112766
-0.105934
-0.0993246
-0.0929411
-0.0867449
-0.0808165
-0.0749596
-0.0694733
-0.0637991
-0.058572
-0.276834
-0.23619
-0.23484
-0.219549
-0.21083
-0.196949
-0.187111
-0.17555
-0.166072
-0.156672
-0.148074
-0.139862
-0.132074
-0.124598
-0.117418
-0.110493
-0.103808
-0.0973498
-0.0911147
-0.0850764
-0.0792885
-0.0735921
-0.068244
-0.0627463
-0.0577016
-0.278876
-0.236348
-0.234817
-0.218248
-0.208848
-0.194345
-0.184323
-0.172599
-0.163126
-0.153745
-0.145223
-0.1371
-0.129422
-0.122069
-0.115021
-0.108236
-0.101696
-0.0953876
-0.0892996
-0.0834161
-0.0777684
-0.0722317
-0.0670242
-0.0617066
-0.0568468
-0.280725
-0.236637
-0.234686
-0.216878
-0.206804
-0.191704
-0.181521
-0.169648
-0.160188
-0.150832
-0.142388
-0.134355
-0.126789
-0.119557
-0.112642
-0.105995
-0.0995987
-0.0934373
-0.0874949
-0.0817633
-0.0762553
-0.0708773
-0.0658107
-0.0606701
-0.0559967
-0.282341
-0.237115
-0.234411
-0.215439
-0.2047
-0.189029
-0.178706
-0.166696
-0.15726
-0.147932
-0.139568
-0.131627
-0.124173
-0.117062
-0.110279
-0.103769
-0.0975145
-0.0914978
-0.0856998
-0.0801173
-0.0747483
-0.0695272
-0.0646
-0.0596345
-0.0551374
-0.283689
-0.237835
-0.233969
-0.213934
-0.20254
-0.186322
-0.175881
-0.163746
-0.154338
-0.145042
-0.136762
-0.128913
-0.121572
-0.114582
-0.10793
-0.101556
-0.0954423
-0.0895682
-0.0839133
-0.0784772
-0.0732465
-0.06818
-0.0633902
-0.0585945
-0.0542647
-0.284746
-0.238838
-0.233351
-0.21236
-0.200327
-0.183584
-0.173044
-0.160794
-0.151423
-0.142162
-0.133968
-0.126213
-0.118985
-0.112117
-0.105595
-0.0993557
-0.0933812
-0.0876477
-0.0821346
-0.0768422
-0.071749
-0.0668343
-0.0621792
-0.057549
-0.0533752
-0.285501
-0.240152
-0.232563
-0.210716
-0.198062
-0.180818
-0.170197
-0.157842
-0.148513
-0.139291
-0.131185
-0.123524
-0.11641
-0.109664
-0.103271
-0.0971665
-0.0913301
-0.0857356
-0.0803628
-0.0752118
-0.070255
-0.0654889
-0.0609657
-0.0564955
-0.0524682
-0.28595
-0.241778
-0.231621
-0.208997
-0.195749
-0.178023
-0.167339
-0.154888
-0.145607
-0.136426
-0.128411
-0.120846
-0.113848
-0.107222
-0.100959
-0.0949876
-0.0892881
-0.083831
-0.078597
-0.0735849
-0.0687636
-0.0641428
-0.0597484
-0.0554335
-0.0515434
-0.286097
-0.243691
-0.230547
-0.2072
-0.19339
-0.175201
-0.16447
-0.151931
-0.142704
-0.133567
-0.125646
-0.118178
-0.111295
-0.104791
-0.0986578
-0.0928182
-0.0872543
-0.0819333
-0.0768367
-0.0719611
-0.0672741
-0.062795
-0.0585267
-0.0543622
-0.0506013
-0.285952
-0.245839
-0.229365
-0.20532
-0.190987
-0.172351
-0.161588
-0.14897
-0.139801
-0.130713
-0.122887
-0.115518
-0.108752
-0.102369
-0.0963652
-0.0906573
-0.085228
-0.0800417
-0.0750809
-0.0703396
-0.0657857
-0.0614447
-0.0573
-0.0532813
-0.0496425
-0.285531
-0.248139
-0.228098
-0.203351
-0.18854
-0.169474
-0.158693
-0.146003
-0.136898
-0.127861
-0.120134
-0.112865
-0.106217
-0.0999563
-0.0940809
-0.088504
-0.0832083
-0.0781554
-0.073329
-0.06872
-0.0642977
-0.0600914
-0.0560678
-0.0521906
-0.0486675
-0.284855
-0.250489
-0.226765
-0.201287
-0.186052
-0.166568
-0.155784
-0.143029
-0.133994
-0.125011
-0.117385
-0.110218
-0.103689
-0.0975506
-0.091804
-0.0863576
-0.0811945
-0.0762738
-0.0715804
-0.0671017
-0.0628095
-0.0587344
-0.0548299
-0.0510902
-0.0476771
-0.283951
-0.252767
-0.225382
-0.199125
-0.18352
-0.163633
-0.152859
-0.140048
-0.131086
-0.122161
-0.11464
-0.107576
-0.101167
-0.0951514
-0.0895337
-0.0842172
-0.0791858
-0.0743964
-0.0698344
-0.0654843
-0.0613208
-0.0573734
-0.0535861
-0.04998
-0.046672
-0.282855
-0.25485
-0.223959
-0.19686
-0.180947
-0.160668
-0.149916
-0.137057
-0.128174
-0.119311
-0.111896
-0.104938
-0.0986508
-0.0927579
-0.087269
-0.0820822
-0.0771818
-0.0725225
-0.0680905
-0.0638673
-0.0598309
-0.0560081
-0.0523364
-0.0488602
-0.0456527
-0.281612
-0.256616
-0.2225
-0.194489
-0.178329
-0.157674
-0.146956
-0.134055
-0.125256
-0.116459
-0.109154
-0.102302
-0.0961383
-0.0903691
-0.0850094
-0.0799519
-0.0751817
-0.0706515
-0.0663483
-0.0622504
-0.0583395
-0.0546383
-0.0510807
-0.0477308
-0.0446199
-0.280274
-0.25796
-0.221007
-0.192009
-0.175668
-0.154647
-0.143975
-0.131042
-0.122332
-0.113604
-0.106412
-0.0996689
-0.0936292
-0.0879845
-0.082754
-0.0778255
-0.0731851
-0.0687831
-0.0646072
-0.0606333
-0.0568463
-0.0532638
-0.0498191
-0.046592
-0.0435741
-0.278904
-0.258802
-0.219478
-0.189419
-0.17296
-0.151588
-0.140973
-0.128015
-0.119399
-0.110744
-0.103668
-0.0970365
-0.0911227
-0.0856031
-0.0805023
-0.0757025
-0.0711914
-0.0669168
-0.0628668
-0.0590156
-0.0553509
-0.0518846
-0.0485517
-0.045444
-0.0425159
-0.277573
-0.259087
-0.217907
-0.18672
-0.170205
-0.148496
-0.137948
-0.124973
-0.116457
-0.10788
-0.100923
-0.0944043
-0.0886179
-0.0832243
-0.0782535
-0.0735825
-0.0692
-0.0650521
-0.061127
-0.0573971
-0.0538531
-0.0505007
-0.0472785
-0.0442869
-0.041446
-0.276355
-0.258795
-0.216291
-0.183912
-0.1674
-0.145369
-0.134898
-0.121916
-0.113504
-0.105009
-0.0981746
-0.0917715
-0.0861142
-0.0808475
-0.0760072
-0.0714648
-0.0672105
-0.0631886
-0.0593872
-0.0557777
-0.0523526
-0.049112
-0.0459997
-0.0431209
-0.0403648
-0.275324
-0.257936
-0.214623
-0.180999
-0.164545
-0.142206
-0.131823
-0.118841
-0.11054
-0.102132
-0.0954226
-0.0891374
-0.0836108
-0.078472
-0.0737627
-0.0693489
-0.0652227
-0.061326
-0.0576474
-0.054157
-0.0508494
-0.0477187
-0.0447154
-0.0419462
-0.0392729
-0.274551
-0.256544
-0.212898
-0.177984
-0.161638
-0.139007
-0.128721
-0.115749
-0.107562
-0.0992462
-0.0926661
-0.0865012
-0.0811072
-0.0760973
-0.0715196
-0.0672346
-0.063236
-0.059464
-0.0559072
-0.0525351
-0.0493434
-0.0463208
-0.0434256
-0.0407631
-0.0381708
-0.274097
-0.254674
-0.211111
-0.174869
-0.158676
-0.13577
-0.12559
-0.112637
-0.104572
-0.0963519
-0.0899042
-0.0838622
-0.0786027
-0.0737229
-0.0692774
-0.0651213
-0.0612503
-0.0576023
-0.0541665
-0.0509117
-0.0478344
-0.0449185
-0.0421307
-0.0395716
-0.0370591
-0.274014
-0.252389
-0.209258
-0.17166
-0.155659
-0.132495
-0.12243
-0.109505
-0.101566
-0.0934479
-0.0871363
-0.08122
-0.0760967
-0.0713483
-0.0670357
-0.0630087
-0.0592651
-0.0557407
-0.0524251
-0.0492868
-0.0463225
-0.043512
-0.0408306
-0.0383722
-0.0359384
-0.274339
-0.249759
-0.207335
-0.168359
-0.152584
-0.129179
-0.119239
-0.106351
-0.098545
-0.0905336
-0.0843617
-0.0785738
-0.0735889
-0.068973
-0.0647941
-0.0608965
-0.0572802
-0.053879
-0.050683
-0.0476603
-0.0448077
-0.0421014
-0.0395257
-0.0371651
-0.034809
-0.275094
-0.246848
-0.205337
-0.164971
-0.14945
-0.125823
-0.116015
-0.103175
-0.0955074
-0.0876083
-0.0815798
-0.0759232
-0.0710786
-0.0665967
-0.0625524
-0.0587845
-0.0552955
-0.0520171
-0.0489401
-0.0460322
-0.0432899
-0.040687
-0.038216
-0.0359505
-0.0336718
-0.276286
-0.243716
-0.203262
-0.161499
-0.146256
-0.122425
-0.112758
-0.099976
-0.0924527
-0.0846714
-0.07879
-0.0732677
-0.0685655
-0.0642189
-0.06031
-0.0566723
-0.0533107
-0.0501548
-0.0471963
-0.0444025
-0.0417694
-0.0392689
-0.0369018
-0.0347288
-0.0325271
-0.277909
-0.240413
-0.201105
-0.157946
-0.142999
-0.118985
-0.109466
-0.0967529
-0.08938
-0.0817221
-0.0759918
-0.0706068
-0.0660492
-0.0618395
-0.058067
-0.0545598
-0.0513258
-0.0482921
-0.0454515
-0.0427712
-0.0402463
-0.0378475
-0.0355832
-0.0335003
-0.0313755
-0.279944
-0.236979
-0.198862
-0.154315
-0.139678
-0.1155
-0.106139
-0.093505
-0.0862887
-0.0787601
-0.0731847
-0.0679402
-0.0635294
-0.0594581
-0.0558229
-0.0524469
-0.0493405
-0.0464289
-0.043706
-0.0411384
-0.0387206
-0.036423
-0.0342605
-0.0322654
-0.0302176
-0.282361
-0.233445
-0.196527
-0.150606
-0.136292
-0.111971
-0.102776
-0.0902315
-0.0831781
-0.0757848
-0.0703684
-0.0652676
-0.0610058
-0.0570745
-0.0535777
-0.0503334
-0.0473548
-0.0445651
-0.0419595
-0.0395042
-0.0371926
-0.0349956
-0.0329339
-0.0310244
-0.0290538
-0.285119
-0.22983
-0.194097
-0.146822
-0.132838
-0.108396
-0.0993748
-0.0869319
-0.0800477
-0.0727958
-0.0675424
-0.0625887
-0.0584782
-0.0546885
-0.0513312
-0.0482192
-0.0453687
-0.0427009
-0.0402124
-0.0378687
-0.0356624
-0.0335656
-0.0316038
-0.029778
-0.0278851
-0.288173
-0.226148
-0.191565
-0.142962
-0.129315
-0.104774
-0.0959353
-0.0836052
-0.0768968
-0.0697925
-0.0647063
-0.0599031
-0.0559463
-0.0523
-0.0490833
-0.0461042
-0.0433821
-0.0408362
-0.0384645
-0.036232
-0.0341303
-0.0321333
-0.0302702
-0.0285267
-0.0267122
-0.29147
-0.222405
-0.188924
-0.139027
-0.125722
-0.101104
-0.0924562
-0.0802507
-0.0737248
-0.0667746
-0.0618597
-0.0572104
-0.0534099
-0.0499087
-0.0468338
-0.0439886
-0.0413951
-0.0389711
-0.0367161
-0.0345942
-0.0325965
-0.0306989
-0.0289335
-0.0272711
-0.0255361
-0.294954
-0.218602
-0.186168
-0.135015
-0.122054
-0.0973847
-0.0889362
-0.0768675
-0.0705309
-0.0637414
-0.0590024
-0.0545106
-0.0508687
-0.0475146
-0.0445827
-0.0418722
-0.0394076
-0.0371057
-0.0349673
-0.0329556
-0.0310613
-0.0292627
-0.0275939
-0.0260114
-0.024357
-0.298565
-0.214735
-0.183289
-0.130927
-0.118313
-0.0936166
-0.0853765
-0.0734567
-0.0673162
-0.0606939
-0.0561348
-0.0518042
-0.0483233
-0.045118
-0.0423303
-0.039755
-0.03742
-0.0352402
-0.0332183
-0.0313165
-0.0295251
-0.0278251
-0.0262519
-0.0247473
-0.0231733
-0.302239
-0.210796
-0.18028
-0.126761
-0.114498
-0.0897997
-0.081777
-0.0700186
-0.064081
-0.0576324
-0.0532574
-0.0490913
-0.0457738
-0.0427191
-0.0400768
-0.0376374
-0.0354324
-0.0333749
-0.0314694
-0.0296771
-0.0279881
-0.0263869
-0.0249083
-0.0234788
-0.0219808
-0.305913
-0.206777
-0.177133
-0.122514
-0.110604
-0.0859304
-0.0781346
-0.0665504
-0.060823
-0.054555
-0.0503687
-0.046371
-0.0432194
-0.0403173
-0.0378218
-0.0355194
-0.0334448
-0.0315097
-0.0297207
-0.0280375
-0.0264506
-0.0249483
-0.0235642
-0.0222064
-0.0207751
-0.309526
-0.202667
-0.173841
-0.118185
-0.10663
-0.082008
-0.0744486
-0.0630517
-0.0575421
-0.0514616
-0.0474684
-0.0436431
-0.0406601
-0.0379127
-0.0355652
-0.0334007
-0.031457
-0.0296448
-0.0279723
-0.0263979
-0.024913
-0.0235097
-0.0222198
-0.0209313
-0.0195595
-0.313013
-0.198453
-0.170395
-0.113771
-0.102574
-0.078033
-0.0707204
-0.0595236
-0.0542391
-0.0483535
-0.0445578
-0.0409085
-0.0380965
-0.0355057
-0.0333077
-0.031282
-0.0294697
-0.0277806
-0.0262246
-0.0247588
-0.0233758
-0.0220715
-0.0208744
-0.0196523
-0.0183535
-0.316314
-0.194121
-0.166787
-0.109269
-0.0984366
-0.0740041
-0.0669497
-0.0559662
-0.0509137
-0.0452307
-0.0416368
-0.0381671
-0.035529
-0.0330965
-0.0310495
-0.0291633
-0.0274831
-0.0259174
-0.0244779
-0.0231206
-0.0218397
-0.020635
-0.0195264
-0.018369
-0.0171643
-0.319368
-0.189658
-0.16301
-0.104678
-0.0942149
-0.0699204
-0.0631355
-0.05238
-0.0475653
-0.0420924
-0.0387056
-0.0354187
-0.0329577
-0.0306854
-0.0287906
-0.0270449
-0.0254973
-0.0240553
-0.0227324
-0.0214835
-0.020305
-0.0191996
-0.0181773
-0.0170867
-0.0159821
-0.322118
-0.18505
-0.159057
-0.0999942
-0.089908
-0.0657823
-0.0592763
-0.048765
-0.044196
-0.0389376
-0.0357649
-0.0326637
-0.0303827
-0.0282726
-0.0265312
-0.0249271
-0.0235126
-0.0221947
-0.0209885
-0.019848
-0.018772
-0.0177653
-0.0168284
-0.0158072
-0.014802
-0.324508
-0.180282
-0.154919
-0.095215
-0.0855153
-0.0615917
-0.0553702
-0.0451179
-0.0408104
-0.0357653
-0.0328143
-0.0299034
-0.0278037
-0.0258585
-0.0242717
-0.0228102
-0.0215294
-0.0203359
-0.0192465
-0.0182144
-0.0172412
-0.0163327
-0.0154808
-0.0145306
-0.0136229
-0.326485
-0.175341
-0.150592
-0.0903377
-0.0810355
-0.0573488
-0.0514213
-0.0414311
-0.0374121
-0.0325786
-0.0298524
-0.027138
-0.0252214
-0.0234433
-0.0220124
-0.0206944
-0.0195479
-0.0184793
-0.0175067
-0.0165832
-0.0157128
-0.0149023
-0.0141354
-0.0132567
-0.0124454
-0.328002
-0.170213
-0.146068
-0.0853604
-0.0764664
-0.0530431
-0.0474459
-0.0377014
-0.0339911
-0.0293852
-0.0268803
-0.0243674
-0.0226364
-0.0210273
-0.0197537
-0.0185801
-0.0175686
-0.0166251
-0.0157696
-0.0149547
-0.0141873
-0.0134747
-0.0127927
-0.0119859
-0.0112708
-0.329011
-0.164886
-0.141343
-0.0802826
-0.0718069
-0.0486496
-0.0434631
-0.033952
-0.0305346
-0.0261804
-0.0238994
-0.0215917
-0.0200492
-0.0186109
-0.0174961
-0.0164678
-0.0155918
-0.0147738
-0.0140355
-0.0133294
-0.012665
-0.0120505
-0.011453
-0.0107184
-0.0101006
-0.329471
-0.159348
-0.136411
-0.0751028
-0.0670624
-0.0441613
-0.0394464
-0.0301968
-0.0270542
-0.0229628
-0.0209107
-0.0188116
-0.0174603
-0.0161946
-0.0152399
-0.0143578
-0.0136179
-0.0129258
-0.0123048
-0.0117075
-0.0111466
-0.01063
-0.0101168
-0.00945496
-0.0089359
-0.329344
-0.153589
-0.131267
-0.069811
-0.0622451
-0.0396684
-0.0353298
-0.0264195
-0.0235538
-0.0197326
-0.0179146
-0.0160275
-0.01487
-0.013779
-0.0129855
-0.0122505
-0.0116473
-0.0110814
-0.0105779
-0.0100896
-0.00963225
-0.0092137
-0.00878461
-0.00819627
-0.00777769
-0.328593
-0.147597
-0.125906
-0.0643866
-0.0573576
-0.0351369
-0.0311597
-0.0226161
-0.0200355
-0.0164902
-0.0149118
-0.0132402
-0.0122791
-0.0113645
-0.0107336
-0.0101465
-0.00968056
-0.00924114
-0.00885521
-0.00847605
-0.00812257
-0.00780203
-0.00745681
-0.00694292
-0.00662629
-0.327189
-0.141364
-0.120326
-0.0588235
-0.0523935
-0.0305672
-0.0269459
-0.0187857
-0.0165001
-0.0132367
-0.0119029
-0.0104503
-0.00968797
-0.00895176
-0.00848451
-0.00804635
-0.00771804
-0.00740541
-0.00713717
-0.00686729
-0.00661792
-0.0063954
-0.00613397
-0.00569539
-0.00548158
-0.325104
-0.134883
-0.114535
-0.0531867
-0.0472969
-0.0259484
-0.0226931
-0.0149291
-0.0129485
-0.00997291
-0.00888863
-0.00765851
-0.00709741
-0.00654137
-0.00623895
-0.00595062
-0.00576026
-0.00557467
-0.0054242
-0.00526375
-0.00511873
-0.00499423
-0.0048166
-0.00445415
-0.00434369
-0.322316
-0.128151
-0.108546
-0.0474331
-0.0420952
-0.0212781
-0.0184029
-0.0110473
-0.00938144
-0.00669991
-0.00586978
-0.00486571
-0.00450808
-0.00413397
-0.0039975
-0.00385966
-0.00380774
-0.00374938
-0.00371673
-0.00366583
-0.00362536
-0.00359887
-0.00350513
-0.00321991
-0.00321413
-0.318806
-0.121159
-0.102349
-0.0415631
-0.0367997
-0.016556
-0.0140767
-0.00714171
-0.00579995
-0.00341876
-0.0028472
-0.00207267
-0.0019207
-0.00173024
-0.00176075
-0.00177397
-0.001861
-0.00193003
-0.00201521
-0.00207396
-0.00213813
-0.00220952
-0.00219992
-0.00199381
-0.00209637
-0.314557
-0.113887
-0.0958973
-0.0356261
-0.0314165
-0.011783
-0.0097159
-0.00321379
-0.00220503
-0.000130562
0.000178167
0.000719746
0.00066393
0.000669111
0.000470652
0.00030565
7.93873e-05
-0.00011712
-0.000320089
-0.000488506
-0.000657297
-0.000826295
-0.000901268
-0.000777247
-0.000994453
-0.309559
-0.106304
-0.0892526
-0.0295904
-0.0259487
-0.00696032
-0.00532173
0.000734949
0.00140215
0.00316352
0.00320532
0.00351062
0.00324498
0.00306331
0.00269599
0.00237857
0.00201288
0.00168884
0.00136816
0.00109012
0.000816876
0.000550599
0.000390406
0.0004289
9.11161e-05
-0.303803
-0.0984206
-0.0824098
-0.0234524
-0.0203986
-0.00208973
-0.00089576
0.0047029
0.00502033
0.00646226
0.00623318
0.00629899
0.00582159
0.00545158
0.00491455
0.0044442
0.0039389
0.00348732
0.00304908
0.00266154
0.00228404
0.00192073
0.00167456
0.00162544
0.00116765
-0.297286
-0.0903473
-0.0752817
-0.0172106
-0.0147688
0.00282683
0.00356034
0.00868837
0.00864811
0.00976439
0.00926063
0.00908383
0.00839283
0.00783309
0.0071256
0.00650185
0.00585684
0.00527778
0.0047222
0.00422532
0.00374376
0.00328343
0.00295073
0.00281521
0.0022488
-0.290006
-0.0820192
-0.0679255
-0.0108661
-0.00906213
0.0077872
0.00804473
0.0126896
0.012284
0.0130685
0.0122865
0.0118641
0.0109578
0.010207
0.00932834
0.00855084
0.007766
0.00705968
0.00638705
0.00578107
0.0051956
0.00463822
0.00421901
0.00400124
0.00334245
-0.281972
-0.0734237
-0.0603527
-0.00442071
-0.0032814
0.012789
0.0125554
0.0167046
0.0159265
0.0163733
0.0153095
0.0146387
0.0135154
0.0125723
0.011522
0.0105904
0.0096657
0.00883244
0.00804315
0.00732839
0.00663935
0.00598535
0.00548024
0.00518282
0.00443311
-0.273212
-0.0645407
-0.0525703
0.00212263
0.00257014
0.0178297
0.0170901
0.0207315
0.0195738
0.0196772
0.0183283
0.0174065
0.0160647
0.0149283
0.0137057
0.0126197
0.0115554
0.0105955
0.00968999
0.00886695
0.00807519
0.00732596
0.00673553
0.00635218
0.00547864
-0.263749
-0.05536
-0.0445846
0.00876044
0.008489
0.0229064
0.0216466
0.0247682
0.0232242
0.0229787
0.0213416
0.0201662
0.0186045
0.0172738
0.0158786
0.0146381
0.0134343
0.0123482
0.0113271
0.0103965
0.00950344
0.00866131
0.00798459
0.00749783
0.0064431
-0.253531
-0.0459445
-0.0364028
0.0154888
0.0144714
0.0280163
0.0262222
0.0288126
0.0268759
0.0262762
0.024348
0.0229166
0.0211339
0.019608
0.0180397
0.0166447
0.0153018
0.0140899
0.0129538
0.0119166
0.0109242
0.0099913
0.00922503
0.00861685
0.00735599
-0.24254
-0.0363372
-0.0280329
0.0223034
0.0205133
0.0331561
0.0308144
0.0328623
0.0305269
0.029568
0.0273461
0.0256565
0.0236516
0.0219297
0.0201883
0.0186388
0.017157
0.01582
0.0145697
0.0134269
0.0123368
0.0113137
0.0104544
0.00972806
0.00833551
-0.230844
-0.0265072
-0.0194827
0.0291997
0.0266103
0.0383226
0.0354204
0.036915
0.0341751
0.0328525
0.0303342
0.0283845
0.0261565
0.024238
0.0223232
0.0206193
0.0189993
0.0175377
0.0161741
0.0149269
0.01374
0.012626
0.0116749
0.0108676
0.00950094
-0.218466
-0.0164551
-0.0107611
0.0361724
0.0327579
0.0435122
0.0400371
0.0409683
0.0378186
0.0361277
0.0333108
0.0310993
0.0286473
0.0265317
0.0244436
0.0225855
0.0208277
0.0192424
0.0177665
0.0164159
0.0151331
0.0139288
0.0128952
0.0120547
0.0107985
-0.205429
-0.00618866
-0.00187718
0.0432162
0.038951
0.0487212
0.0446615
0.0450196
0.041455
0.0393919
0.0362744
0.0337994
0.0311228
0.0288097
0.0265485
0.0245365
0.0226415
0.0209333
0.0193461
0.0178936
0.0165166
0.0152273
0.0141239
0.01325
0.0119247
-0.191758
0.00428237
0.00715918
0.0503251
0.0451847
0.0539458
0.0492904
0.0490663
0.0450822
0.0426431
0.0392233
0.0364835
0.0335818
0.031071
0.0286367
0.0264712
0.0244398
0.0226096
0.0209124
0.0193595
0.0178924
0.0165271
0.0153559
0.0143626
0.0125769
-0.17748
0.0149469
0.0163376
0.0574928
0.0514534
0.059182
0.0539203
0.0531056
0.0486978
0.0458795
0.0421557
0.03915
0.0360229
0.0333144
0.0307074
0.0283889
0.0262217
0.0242704
0.0224646
0.0208135
0.0192611
0.0178256
0.0165691
0.015346
0.0129438
-0.162626
0.0257926
0.0256469
0.0647128
0.0577515
0.0644255
0.0585478
0.0571347
0.0522995
0.0490989
0.04507
0.0417974
0.0384449
0.0355386
0.0327593
0.0302884
0.0279863
0.0259151
0.0240021
0.0222549
0.0206199
0.0191118
0.0177489
0.0163097
0.013807
-0.147225
0.0368063
0.0350757
0.071978
0.0640731
0.0696721
0.0631693
0.0611507
0.0558847