/*--------------------------------*- C++ -*----------------------------------*\
  =========                 |
  \\      /  F ield         | OpenFOAM: The Open Source CFD Toolbox
   \\    /   O peration     | Website:  https://openfoam.org
    \\  /    A nd           | Version:  7
     \\/     M anipulation  |
\*---------------------------------------------------------------------------*/
FoamFile
{
    version     2.0;
    format      ascii;
    class       volVectorField;
    location    "0.984";
    object      U;
}
// * * * * * * * * * * * * * * * * * * * * * * * * * * * * * * * * * * * * * //

dimensions      [0 1 -1 0 0 0 0];

internalField   nonuniform List<vector> 
12359
(
(0.981095 -0.000232575 -1.54948e-16)
(0.969123 -0.000481836 -3.88534e-17)
(0.999962 -6.8892e-06 -2.22309e-19)
(0.930791 -0.000141018 -2.12727e-18)
(0.976064 -0.00130598 -4.14979e-17)
(0.886117 0.00280695 1.02933e-16)
(0.852566 -0.00305323 7.32988e-17)
(0.873569 -0.00119512 7.76e-17)
(0.802331 0.0143102 -6.71062e-17)
(0.896298 0.00100518 6.10459e-18)
(0.824459 0.0109174 1.04502e-16)
(0.739029 0.0252146 6.1544e-17)
(0.350524 0.04174 -2.68206e-16)
(0.925463 0.00182872 -7.75196e-17)
(0.939752 -0.00139183 -1.02804e-18)
(0.57183 0.0316401 1.67245e-17)
(0.478301 0.0331997 2.86868e-17)
(0.994648 6.24172e-05 -6.40425e-17)
(0.995202 2.25493e-05 4.51971e-17)
(0.958636 -0.000302065 5.10308e-17)
(0.91971 0.000805557 -4.12934e-17)
(0.774896 0.0190716 -1.19549e-16)
(0.962883 -0.00125713 1.47774e-16)
(0.954875 -0.000378152 6.31632e-17)
(0.966437 -0.000691888 1.3001e-16)
(0.960128 -0.000562473 2.32e-16)
(0.998662 -7.585e-05 2.30063e-17)
(0.99885 -4.21085e-05 1.09237e-17)
(0.99594 4.54764e-05 -2.2531e-17)
(0.997955 4.12663e-06 -2.61893e-17)
(0.997434 -6.77797e-05 -1.19049e-16)
(0.999386 2.70521e-05 -3.89858e-18)
(0.999784 -9.97024e-06 -5.08024e-17)
(0.998183 -2.49957e-05 -2.83215e-17)
(0.999895 5.53447e-06 1.63326e-17)
(0.997283 -2.15835e-05 -7.08727e-17)
(0.989002 -0.000132868 -3.73696e-17)
(0.982996 -0.000251205 1.70901e-16)
(0.978425 -0.000776311 6.09093e-17)
(0.985173 -0.000203302 1.56122e-17)
(0.970993 -0.00111248 -2.42417e-16)
(0.98437 0.000168298 -5.93673e-17)
(0.991524 -0.000174491 -6.17873e-17)
(0.992186 -0.000171278 7.24451e-17)
(0.996474 -0.000191433 -3.45974e-18)
(0.996283 -6.75294e-05 3.35791e-18)
(0.996948 -0.000142304 1.28578e-17)
(0.997638 -9.56923e-05 -3.64092e-17)
(0.995607 0.000139217 1.79713e-17)
(0.99842 -8.07412e-05 9.30217e-19)
(0.998981 -4.72386e-05 2.19127e-17)
(0.999145 -7.81442e-05 -5.36125e-17)
(0.999403 -2.69179e-05 3.38925e-17)
(0.994229 -1.22421e-05 1.08255e-16)
(0.999598 2.14632e-05 -4.32864e-17)
(0.999712 -1.85341e-05 -5.34088e-18)
(0.992921 -0.000155317 -5.34018e-18)
(0.999808 -5.29718e-06 -1.35504e-17)
(0.999808 -2.72275e-05 2.3895e-17)
(0.999878 1.98813e-05 -2.52677e-17)
(0.999638 -2.42008e-05 2.75847e-18)
(0.999927 9.20929e-06 3.46173e-17)
(0.999097 -6.71828e-05 -1.37699e-17)
(0.192334 0.0593211 -1.1194e-15)
(0.993522 -8.21603e-05 -3.43255e-17)
(0.909503 -0.00130757 -2.1149e-17)
(0.98971 0.000242881 -2.8961e-17)
(0.999278 -2.13587e-05 -3.64827e-17)
(0.98794 -0.000657247 6.12684e-17)
(0.63474 0.0320419 3.6917e-17)
(-0.000231999 0.00642313 5.64511e-15)
(0.972927 -0.00168062 -4.80974e-17)
(0.999963 -1.88085e-05 -9.31954e-18)
(0.986459 -0.000652187 1.59803e-16)
(0.948426 -0.00272692 5.60777e-19)
(0.999909 5.37376e-06 -3.36727e-17)
(0.999479 -2.98488e-05 4.10545e-17)
(0.999917 -1.85205e-05 3.70727e-17)
(0.989601 -0.000617402 4.02491e-17)
(0.678319 -0.00351367 -6.96647e-17)
(0.918482 0.0566336 3.38282e-17)
(1.00377 0.00282556 5.99599e-18)
(1.00003 5.51043e-06 -5.64198e-19)
(0.998303 0.0123358 -4.96513e-18)
(1.09653 0.143978 2.02851e-17)
(1.02213 0.00187774 2.87787e-18)
(1.00383 0.00260197 3.0592e-18)
(1.00157 -0.000223095 6.12742e-19)
(1.1133 0.0683951 7.33329e-18)
(1.08712 0.150729 1.19643e-17)
(0.999966 0.000168677 4.20324e-17)
(0.251171 0.162799 -4.99168e-16)
(1 4.69424e-06 -1.60211e-17)
(0.999698 0.00624585 -1.09459e-17)
(0.999469 0.0113484 8.59353e-18)
(1.03631 0.00147579 -7.47302e-19)
(1.00004 0.00522065 2.80549e-19)
(0.999348 0.00618147 -6.00173e-18)
(0.990812 0.0299695 1.60927e-17)
(0.994184 0.0188233 4.65414e-17)
(0.940216 0.0768646 -7.4511e-18)
(1 2.1669e-05 5.28497e-18)
(1.02102 0.00102113 -2.63688e-18)
(1.25764 0.0945257 -3.00151e-17)
(1.00485 0.00105473 -2.79533e-18)
(1.03367 0.0229241 8.48557e-19)
(1.00024 -7.94896e-05 -4.57939e-18)
(1.09225 0.151316 5.18301e-17)
(1.01835 0.00203327 -1.73455e-17)
(1.03361 0.0214867 3.27913e-19)
(1.0001 0.00505187 1.19911e-18)
(1.00354 0.00271282 -7.68917e-19)
(0.938503 0.0468509 1.38233e-16)
(0.957308 0.0763782 -3.65097e-18)
(0.999013 0.010634 8.44701e-18)
(1.00359 -0.000151342 6.24008e-18)
(0.953264 0.0789058 -1.9568e-17)
(1.00459 0.00247121 -3.78163e-18)
(1.13334 0.0557547 -4.27808e-18)
(1 1.51911e-05 3.11283e-20)
(1.00004 0.00497753 3.51403e-18)
(0.865269 0.0266426 9.97474e-17)
(1.00176 0.000193176 3.37276e-18)
(1.03901 0.00716337 6.25629e-18)
(1.00482 0.00232053 -1.24295e-17)
(1.00329 0.000769775 9.89068e-19)
(1.00926 0.0937833 6.66584e-18)
(0.998305 0.0125405 2.67041e-17)
(0.999994 1.04456e-05 4e-17)
(1.00484 0.00204615 2.4129e-17)
(1.00251 -0.000305696 -1.23024e-18)
(1.0501 0.0194891 2.84971e-18)
(1.05244 0.0184455 -6.65254e-18)
(1.05057 0.0175727 3.37901e-18)
(1.00023 8.335e-05 3.0701e-18)
(1.03838 0.00677772 2.58759e-18)
(1.003 0.00039934 8.46571e-18)
(1.03759 0.00772773 1.32506e-18)
(1.00001 9.97535e-05 -5.2219e-17)
(1.00778 0.0922255 2.16778e-17)
(1 2.1867e-05 1.37541e-19)
(0.982399 0.00261624 7.88109e-17)
(1.03138 0.0131887 -7.16835e-18)
(1.00025 -5.33637e-05 -4.62392e-19)
(1.03971 0.0405972 -7.77058e-18)
(0.895182 0.0285118 -5.487e-17)
(1.00002 3.13667e-06 -4.80636e-19)
(1.08793 0.123358 2.63954e-17)
(1.00506 0.0012482 3.57442e-19)
(0.920963 0.0625542 3.73029e-17)
(1.04183 0.00233132 -2.59024e-18)
(0.999994 2.80693e-05 4.56327e-17)
(1.03162 0.0142162 -7.64821e-18)
(1.00182 0.000222883 -4.57901e-19)
(1.00001 -3.99121e-06 9.9918e-19)
(0.577299 1.31402 1.4821e-18)
(0.934264 0.0872801 -9.11211e-19)
(1.04972 0.0198236 1.56796e-18)
(1.00009 0.00536564 -8.20884e-18)
(0.999292 0.000493452 -1.2904e-18)
(1.0028 0.0444813 1.97748e-17)
(0.999246 0.000685103 -1.24697e-17)
(1.04014 0.00572166 -2.81414e-18)
(1.03386 0.0115804 -7.32325e-19)
(1.00004 4.62006e-05 2.49993e-18)
(1.00331 0.000346915 1.90272e-18)
(1.00172 0.044633 1.48071e-17)
(0.875897 0.0124675 -1.15715e-16)
(1.03268 0.0115027 1.59506e-18)
(1.12295 0.06616 8.94209e-18)
(0.999995 1.92074e-05 -3.76162e-17)
(0.999958 4.69389e-05 -3.69833e-17)
(1.0334 0.00949172 4.93522e-18)
(0.973305 0.00296238 8.21473e-17)
(1.00473 0.0010221 1.12714e-17)
(1.0044 0.089747 2.24671e-17)
(0.996543 0.000506188 -2.74171e-18)
(0.996622 0.000867415 -4.22499e-17)
(0.934617 0.0470852 4.26755e-17)
(1.00454 0.0869164 2.06783e-17)
(0.93629 0.00608814 3.85524e-17)
(1.00001 3.43553e-05 3.32759e-18)
(0.999977 1.9851e-05 2.84539e-17)
(1.00409 0.00275011 2.50837e-18)
(0.991655 0.027666 4.81062e-18)
(0.853799 0.105759 3.13828e-16)
(1.00433 0.00576642 3.08447e-18)
(1.00008 0.0107214 -8.90737e-18)
(1.03826 0.00132298 2.14009e-18)
(1.00466 0.00622614 -6.81151e-18)
(0.99966 0.0101219 8.4595e-19)
(1.03587 -0.00107662 -1.75428e-18)
(1.03384 0.00218415 -1.61471e-18)
(1.0019 -0.000144283 2.51829e-19)
(1.03474 0.0204759 -4.66353e-18)
(1.12154 0.0749916 -1.57429e-17)
(1.01493 0.0125239 -4.60602e-18)
(1.00351 0.00586606 7.62413e-18)
(1.03125 0.0158247 -8.20669e-18)
(1.0046 0.00232678 -3.60674e-18)
(0.900167 0.0288928 -6.48838e-18)
(1.03916 0.000594158 -8.03317e-20)
(0.993242 0.0188726 -5.6412e-19)
(1.03376 0.021022 -2.36618e-18)
(1.03605 0.037919 -4.03089e-18)
(1.00001 3.01549e-05 -4.49515e-18)
(1.03674 0.0375066 -7.35201e-18)
(0.992228 0.0179761 1.10602e-17)
(1.04189 0.00775875 1.60372e-18)
(1.00566 0.00399735 -7.61863e-18)
(1.00001 3.17953e-05 1.12443e-18)
(1.04589 0.0159727 -4.70628e-18)
(1.04623 0.0161507 -1.15453e-18)
(1.07369 0.118532 -1.2473e-17)
(0.840067 0.0864863 2.93005e-18)
(0.999963 3.12727e-05 1.80268e-17)
(1.00381 0.00596345 -4.53183e-18)
(0.99933 0.0106693 2.44587e-18)
(1.00418 0.00588712 -4.92803e-19)
(0.981946 0.00127416 2.18265e-16)
(0.947936 0.0605697 2.27548e-17)
(1.00516 0.00361282 -1.86684e-18)
(1.03872 0.0066964 -4.54379e-19)
(0.464739 0.371115 -1.7971e-16)
(1.00517 0.00263906 -1.23919e-17)
(1.00001 3.90839e-05 -2.77794e-18)
(0.981711 0.00117757 2.67034e-16)
(1.01881 0.00105431 -1.29477e-17)
(1.00118 0.0873198 1.99576e-17)
(1.00274 0.00649776 1.1876e-17)
(1.00292 0.00635538 1.00399e-17)
(1.00003 2.7848e-06 5.02172e-19)
(1.03869 0.0406898 -5.92058e-18)
(0.993126 0.0236469 3.86464e-18)
(1.0007 0.0102374 -1.11155e-17)
(0.993849 0.0215207 3.91704e-17)
(1.00001 2.56527e-05 -4.87078e-19)
(1.03233 0.0160793 3.1179e-18)
(1.00045 0.0104348 -1.68193e-17)
(0.628551 0.255117 8.5295e-17)
(1.00007 3.33597e-05 5.35904e-19)
(1.02322 0.000773924 -8.69508e-19)
(1.00011 0.00755683 -9.7796e-18)
(0.984856 0.164841 4.79666e-17)
(1.00362 0.0491873 -1.12394e-17)
(1.08951 0.126365 3.91016e-17)
(0.999856 4.88111e-05 -7.7944e-18)
(1.04109 0.00734274 -1.48323e-18)
(1.00418 0.00103874 5.72549e-18)
(1.03402 0.00456486 -3.12572e-18)
(1.04342 0.0131546 -7.29621e-18)
(0.98529 0.000274868 1.10496e-16)
(0.996928 0.000683256 -7.48918e-18)
(1.00245 0.00635107 4.36444e-18)
(0.507621 0.434208 1.03251e-16)
(1.24762 0.143689 6.35315e-17)
(0.999989 1.06594e-05 2.32081e-18)
(1.00575 0.00311876 -5.74149e-18)
(0.357884 0.311721 1.63014e-16)
(0.475852 0.0139214 1.01515e-16)
(0.993547 0.0189306 1.03948e-17)
(1.00222 0.048271 7.67813e-18)
(1.00205 0.0802158 -8.3948e-18)
(1.03463 0.0188592 -2.99016e-18)
(0.972879 0.00115343 2.7637e-16)
(1.3469 0.368467 4.03328e-17)
(1.12157 0.0580187 -2.45099e-18)
(1.0042 0.0491187 -2.48315e-18)
(1.0054 0.00274365 -3.28393e-18)
(1.03777 0.00761511 6.70514e-18)
(1.03343 0.0106829 4.10855e-18)
(0.987974 0.0266786 1.35563e-17)
(1.03288 0.0126615 6.66579e-19)
(1.00238 0.00684261 -2.35956e-18)
(1.00563 0.00325324 -4.54271e-18)
(1.00005 1.67885e-05 -4.42884e-19)
(1.00558 0.00297638 -4.62521e-18)
(1.15861 0.105957 3.40985e-17)
(1.00515 0.0520187 -2.17734e-17)
(1.00035 0.000137796 8.56842e-19)
(0.999998 4.65715e-05 5.7893e-18)
(1.03508 0.0188877 -4.02546e-19)
(1.00708 0.00100792 9.2898e-18)
(0.991073 0.000624349 4.89844e-18)
(1.02259 -0.00121095 -2.12866e-18)
(1.00001 2.79167e-05 -1.89229e-18)
(0.999172 0.0784483 2.1303e-17)
(1 1.29553e-05 -2.26332e-17)
(1 -1.27282e-05 -1.92594e-17)
(0.999465 0.000111608 8.44531e-17)
(1.03924 0.00603425 1.5968e-18)
(1.00409 0.00224982 -2.15477e-18)
(1.41579 0.422009 3.40179e-17)
(1.00024 7.15585e-05 4.97816e-18)
(1.00036 -3.47221e-05 -2.74041e-18)
(1.02159 0.00190521 5.20815e-18)
(1.00431 -0.000467371 3.52636e-18)
(0.944462 0.0707671 7.73386e-18)
(0.998964 0.00957578 -1.77089e-17)
(0.999061 0.000262552 -1.26907e-16)
(0.999967 3.87121e-05 -1.07064e-17)
(1.15173 0.0958891 3.20543e-17)
(1.00333 0.0792692 -1.42245e-18)
(0.999969 5.10133e-05 7.54176e-19)
(1.00377 0.00590677 4.53649e-18)
(0.999771 0.00895175 4.91647e-19)
(1.00448 0.00143637 -6.23336e-18)
(1.00336 0.000828561 6.85032e-18)
(1.00282 -0.000459952 1.54557e-18)
(1.00442 0.000780484 3.46196e-18)
(0.995359 0.00138129 4.71947e-17)
(0.817438 0.0633774 -9.50626e-17)
(1.0048 -0.000758202 -6.64918e-18)
(0.997765 3.45188e-05 2.3347e-16)
(0.986187 0.00115823 9.67179e-17)
(1.02557 0.0276082 7.20089e-18)
(1.10334 0.044673 1.19961e-18)
(1.00526 9.6811e-05 -2.82869e-18)
(0.990115 0.0251138 5.12312e-18)
(0.568655 0.0599895 1.51316e-16)
(0.999995 5.64214e-06 9.22906e-18)
(1.02753 0.0127134 -4.75086e-18)
(1.00048 0.000241795 6.87647e-19)
(1.0145 0.0127799 -5.0989e-18)
(1.00025 5.08829e-05 -4.57878e-18)
(1.00572 0.00108139 3.57893e-18)
(0.795392 0.0395017 8.93881e-17)
(1.02829 0.0145466 1.16131e-17)
(0.82794 0.0892637 -1.55494e-16)
(0.991225 0.000384522 -1.67219e-16)
(1.00066 0.00801086 -6.79295e-18)
(1.03496 -0.000949052 5.62405e-19)
(1.03907 0.00127266 1.68036e-18)
(1.00056 0.00798194 4.90836e-18)
(1.0365 -0.00125216 1.75594e-18)
(1.03463 -0.000930675 3.55786e-20)
(1.00078 0.000150609 -4.91196e-18)
(0.999573 0.000440545 -1.57047e-18)
(0.999573 0.000366919 -2.35946e-18)
(0.999558 0.000401235 3.00499e-17)
(0.999543 0.000346507 5.11337e-17)
(0.686854 0.279081 1.70118e-16)
(1.00003 4.44175e-05 -7.58703e-19)
(0.940311 0.0757869 -1.22112e-17)
(1.04217 0.00469854 -7.832e-20)
(0.992928 0.0258479 -1.12012e-17)
(1.03309 0.0134325 -1.8193e-18)
(1.02828 0.0159616 9.08671e-18)
(1.02075 0.00215322 -3.93603e-19)
(1.01364 0.0124234 1.02036e-18)
(1.02898 0.0140156 9.48989e-18)
(1.01351 0.0125175 -1.21044e-18)
(0.991325 0.0268083 -2.0165e-17)
(1.02735 0.0284991 1.74147e-17)
(1.02643 0.0326994 5.35604e-19)
(0.955855 0.0507492 8.82866e-18)
(0.98109 0.00212673 1.50862e-17)
(1.03228 0.0820643 -9.16733e-18)
(0.982784 0.00175472 -5.0254e-18)
(0.982858 0.00119804 3.06613e-17)
(1.03063 0.0162892 -1.1491e-17)
(0.941716 0.0969821 -5.3113e-18)
(1.00314 0.00272684 -2.70233e-18)
(0.9996 9.09962e-05 -3.91288e-17)
(1.01632 0.0117981 4.38608e-18)
(0.999646 3.99343e-05 2.45144e-18)
(1.00339 0.00305661 -2.06133e-18)
(0.744572 0.0199867 2.50079e-17)
(0.125548 0.0965464 -2.44645e-16)
(1.00327 0.00284311 -3.47812e-18)
(0.999981 1.04488e-05 -1.154e-17)
(1.00019 -5.35748e-06 -5.04179e-19)
(0.999989 2.50577e-05 -1.07557e-17)
(1.02916 0.0132375 2.92426e-18)
(1 2.58245e-05 3.19137e-18)
(0.999996 1.93236e-05 -2.49484e-18)
(1.12024 0.0725624 1.056e-17)
(1.0338 0.0118793 -2.55578e-18)
(1.08244 0.176623 -1.67013e-17)
(1.00153 0.00325506 -6.44254e-19)
(1.03571 0.0136214 1.64095e-18)
(1.0074 0.0011425 1.30751e-17)
(1.00004 0.00883567 -7.7138e-18)
(1.03152 0.0291837 2.55896e-18)
(1.01647 0.0110438 6.64023e-18)
(0.935036 0.00445901 4.01489e-17)
(1.01612 0.010096 -4.71934e-18)
(1.00299 0.00262602 7.32894e-18)
(1.0004 -1.3654e-09 3.78637e-18)
(1.03386 0.0104874 3.58832e-18)
(1.03655 0.0134118 5.30453e-18)
(1.00574 0.000900586 -4.02644e-18)
(0.708065 0.0185836 1.49826e-16)
(1.0319 0.0285861 5.85962e-18)
(1.03954 0.00215882 -3.37724e-19)
(0.998224 0.0351794 -1.44335e-17)
(1.00079 0.0428014 -1.85454e-17)
(0.999987 0.000114009 -5.27337e-18)
(0.420803 0.555537 -1.98641e-16)
(1.03493 0.0828982 2.14984e-18)
(1.00134 0.00356073 3.09448e-18)
(0.971482 0.181209 -1.65197e-17)
(0.984806 0.00127937 -1.2867e-16)
(0.999971 6.54581e-05 4.49473e-18)
(1.00001 2.63342e-05 1.80633e-19)
(0.999988 5.40887e-05 2.30993e-19)
(1.09013 0.174128 -2.24033e-17)
(0.945162 0.0948724 1.11108e-17)
(0.988584 0.0284986 -1.54709e-17)
(1.02835 0.0108278 -6.29931e-18)
(1.04199 0.00350681 6.70106e-19)
(0.999281 0.0115994 -1.55993e-17)
(0.934931 0.00779546 -1.25483e-16)
(0.999079 0.0348039 3.5859e-18)
(1.04685 0.0176814 4.31999e-18)
(1.11691 0.0502046 -1.30367e-17)
(0.711481 0.0419937 -7.33378e-17)
(0.994293 0.0257083 -8.04101e-18)
(0.955028 0.0526117 6.7734e-18)
(1.01884 -0.00104782 -6.92441e-18)
(1.02588 0.0372066 -1.96209e-18)
(1.01189 0.0112604 -4.80647e-18)
(1.01638 0.0123718 4.74368e-18)
(0.998285 0.00022309 -1.99992e-17)
(1.01207 0.0112403 2.41525e-18)
(1.03126 0.0124418 -4.99483e-19)
(0.99999 1.61949e-05 -1.28214e-18)
(0.640974 0.00657679 7.32537e-17)
(0.990566 0.00130055 2.20308e-16)
(1.05552 0.00578743 4.19466e-18)
(1.03736 0.0109723 7.16475e-19)
(0.993492 0.00112939 1.41695e-16)
(0.950633 0.0597627 -5.828e-17)
(1.16201 0.249889 4.86024e-18)
(1.02966 0.0153343 3.21253e-18)
(1.00878 0.0161728 1.32642e-17)
(1.03682 0.00115051 3.21375e-18)
(1.03711 0.0111902 2.80471e-18)
(1.02879 0.033228 -5.18444e-18)
(1.00455 0.00273395 3.0093e-18)
(1.00001 5.097e-06 -1.00557e-18)
(0.994813 0.0704402 6.32378e-18)
(1.00028 5.96426e-05 -1.0632e-18)
(1.05087 0.0199589 3.25717e-18)
(1.00263 0.000152426 4.9342e-18)
(0.966693 0.00291117 2.37442e-16)
(0.962565 0.0410162 1.76055e-17)
(1.01133 0.000713006 -1.40577e-18)
(1.09686 0.114811 -2.60236e-17)
(0.943613 0.071284 -4.03929e-17)
(0.994432 0.0171747 -6.96685e-18)
(1.00101 0.00384494 -6.5604e-18)
(0.573057 0.108643 -3.59204e-16)
(1.00055 -0.000148258 -6.59273e-18)
(1.00151 0.00301723 3.18925e-18)
(1.04286 0.042617 -1.24394e-17)
(0.999983 2.30795e-05 -6.16435e-17)
(1.00109 0.00399464 -5.64409e-18)
(1.0016 0.00282103 4.99647e-19)
(0.730747 0.222176 -1.34912e-17)
(0.65295 0.476304 -3.43142e-17)
(0.99829 0.0118809 5.38186e-18)
(1.00153 -0.000152355 -4.75111e-18)
(0.935512 0.0331173 2.31611e-17)
(0.999761 0.0426757 -1.43509e-17)
(1.02825 0.0116999 -1.06402e-17)
(1.03176 0.0158448 -2.24163e-19)
(1.03278 0.0113862 -1.25868e-18)
(1.00077 -8.28728e-05 -6.19111e-18)
(0.999996 3.83564e-05 1.62564e-18)
(0.999938 0.0372888 -4.05467e-18)
(0.999987 7.50607e-06 -1.8825e-17)
(0.962913 0.0428173 2.09674e-17)
(1.02783 0.0121397 -8.56183e-18)
(1.02607 0.035525 -6.22577e-19)
(0.996713 0.000726978 6.62896e-17)
(0.99615 0.0683966 -1.01476e-17)
(1.04528 0.0413434 -8.08581e-18)
(0.998013 0.000109051 -9.13156e-17)
(1.00146 0.0117602 -8.72654e-18)
(1.0059 0.00119302 -1.52194e-19)
(0.931899 0.0446007 -2.41218e-18)
(1.04327 0.0435199 -1.95985e-17)
(0.999991 6.42427e-05 -3.18657e-17)
(1.0003 0.0390986 2.09176e-18)
(1.03394 0.00824457 6.94555e-18)
(1.01625 -0.00020259 -2.42624e-18)
(0.999427 0.040427 -5.51048e-18)
(1.00339 0.00085001 -3.1288e-18)
(0.928776 0.0956247 2.45888e-17)
(1.02776 -0.000753113 -2.45794e-18)
(1.03769 0.00871756 3.66636e-19)
(1.02708 0.0335337 4.38121e-18)
(1.00096 -0.000232559 8.56262e-19)
(1.00123 0.0123511 9.56648e-18)
(1.05372 0.0637397 7.68425e-18)
(1.05281 0.0179579 5.93681e-18)
(0.999996 1.81614e-05 5.72017e-18)
(1.01127 0.0164561 5.40222e-19)
(0.986229 0.178547 2.72585e-17)
(1.03862 0.002677 1.78796e-18)
(0.514135 0.461181 -9.14629e-17)
(1 2.84682e-05 7.21694e-19)
(1.00241 0.000366155 6.10997e-18)
(1.00078 -7.62948e-05 -4.14546e-18)
(1.03216 0.0143293 -1.83833e-18)
(0.994253 0.0191368 -1.8875e-19)
(0.995832 0.0134612 1.86227e-17)
(1.00292 0.000476415 -3.85708e-18)
(0.998992 0.0372415 5.54052e-18)
(1.01742 0.0128603 -3.67816e-18)
(0.972534 0.00445999 -3.18565e-17)
(1.00922 0.00129079 1.2606e-18)
(1.08215 0.0936324 -6.38995e-18)
(1.00029 -2.76242e-05 1.56721e-18)
(1.08663 0.106579 4.75802e-18)
(1.00152 7.85121e-06 5.54025e-19)
(0.624327 0.579921 4.68603e-17)
(1.02897 0.000377291 -3.92765e-18)
(1.0506 0.0658016 2.0259e-17)
(0.999873 3.08541e-05 2.39916e-17)
(0.99699 0.000708386 1.1374e-17)
(1.02599 0.0284936 1.14351e-17)
(1.00391 0.00222613 1.63635e-18)
(0.999154 0.000174502 -3.46053e-17)
(0.992257 0.00024924 -1.14801e-16)
(0.994511 0.0208829 8.37788e-18)
(0.994135 0.0201622 -1.63406e-17)
(0.96556 0.159199 2.64563e-18)
(1.03363 0.0333461 1.05643e-18)
(1.03418 0.032713 4.07954e-18)
(1.00001 9.5382e-06 4.25752e-18)
(1.00433 0.00218069 -6.59795e-18)
(1.02781 0.013413 -7.55539e-19)
(1.05169 0.0169114 -2.93719e-19)
(1 -4.41324e-06 -2.58004e-18)
(1.0003 0.000134095 -6.003e-18)
(1.03407 0.00963614 1.43055e-18)
(1.00071 3.11876e-06 3.24451e-18)
(0.803712 0.0485943 -7.82904e-17)
(1.16347 0.250682 -5.3547e-18)
(1.07084 0.00257221 1.41629e-17)
(1.00001 3.49623e-06 9.3057e-19)
(1.00658 0.00950605 1.07463e-17)
(1.04386 0.0128394 -4.22638e-18)
(0.995196 0.0146987 6.59299e-18)
(1.00445 0.000804277 -1.79501e-18)
(0.354962 0.66207 1.67991e-16)
(1.0003 2.81587e-05 -8.45393e-18)
(0.929628 0.0773568 -2.95328e-17)
(0.959569 0.0480631 -1.53854e-17)
(1.00713 0.00957353 -8.05561e-19)
(1.00468 0.00085623 -5.7791e-18)
(0.998939 0.00019587 -1.11654e-16)
(1.01089 0.000731896 4.92622e-18)
(1.04263 0.00399388 -5.53647e-19)
(1.01719 0.00883115 -6.1003e-18)
(0.99696 0.0115718 1.12395e-17)
(0.999996 6.03482e-06 1.138e-18)
(0.999984 2.33359e-05 3.1632e-18)
(0.994729 0.0176938 2.00146e-18)
(0.996458 0.00144073 -6.3755e-17)
(0.992499 0.0603074 1.30063e-17)
(1.03244 0.0141783 1.51429e-18)
(0.999364 -2.53603e-05 -9.77273e-17)
(1.00033 0.000183496 2.32284e-18)
(1.02737 0.0305263 1.11505e-17)
(0.666566 -0.0111277 9.03768e-17)
(0.997792 0.000212853 -2.76673e-16)
(1.04673 0.0173514 -1.41636e-18)
(1.00017 -2.00787e-05 3.30067e-18)
(0.996222 0.0116419 9.05213e-18)
(0.951254 0.0824364 4.13004e-17)
(1.04094 0.00164028 -9.42777e-19)
(1.04305 0.0128905 -1.76406e-18)
(0.951732 0.0541938 3.56379e-17)
(1.00255 0.0192824 1.00988e-17)
(1.0421 0.00597593 1.82069e-18)
(1.00001 3.63509e-05 1.20094e-18)
(0.999915 1.80815e-05 -1.03218e-16)
(1.04262 -0.00133927 -1.07227e-18)
(1.01082 0.00986744 2.30344e-18)
(1.0029 0.0197425 6.92131e-18)
(1.01101 0.00978486 -5.03508e-18)
(0.999997 4.35772e-05 1.87267e-18)
(1.00035 0.000193512 1.48892e-18)
(1.00362 0.000753738 4.44744e-18)
(0.999654 0.0310264 -1.19492e-17)
(1.0422 0.00771241 2.10844e-18)
(0.94347 0.0397391 -1.66566e-17)
(0.990026 0.000786258 -1.42629e-17)
(0.929506 0.0369553 8.73441e-17)
(1.03077 0.0148743 -5.00936e-18)
(1.00846 0.0177062 4.07624e-18)
(0.936598 0.0448811 1.19507e-16)
(0.98558 0.021631 -2.92793e-17)
(1.0521 0.00387583 3.14409e-18)
(1.03318 0.0132113 1.38309e-19)
(0.98491 0.0214808 3.66701e-18)
(0.993998 0.0587352 -3.29589e-18)
(0.999897 8.72387e-05 3.59224e-17)
(1.01004 0.0664951 9.9488e-18)
(1.02683 0.0278084 9.44663e-18)
(1.00002 -1.334e-05 1.82642e-18)
(0.999995 8.09668e-06 3.62633e-18)
(1.0007 6.02224e-05 2.44324e-18)
(0.999761 0.000312171 -1.65213e-17)
(1.06254 0.0720567 -1.32387e-17)
(1.01057 0.0171329 4.73836e-18)
(1.014 -0.000306447 1.69416e-18)
(0.941599 0.0435797 -8.22786e-17)
(0.992121 0.000385179 -8.54849e-17)
(0.790832 0.0184809 8.83835e-19)
(1.03953 0.00265013 1.4996e-18)
(1.04182 0.00444282 -1.61456e-18)
(1.0039 0.000825501 -1.0429e-17)
(1.0497 0.0422705 -4.93792e-18)
(1 4.0381e-05 2.00346e-19)
(0.99822 0.0305288 -8.87591e-18)
(1.00052 0.00369416 -3.09843e-18)
(0.93536 0.11413 -4.15006e-17)
(0.932475 0.0503414 -1.30522e-16)
(1.002 0.01691 -1.05149e-17)
(1.01737 0.0120802 -1.6476e-18)
(0.421177 0.674226 2.00072e-16)
(1.03095 0.0132303 -6.71194e-18)
(1.04225 0.0640161 9.17085e-18)
(1.00962 0.0130009 5.36256e-18)
(0.977293 0.14601 4.42056e-17)
(1.1515 0.207335 -2.93592e-18)
(1.00104 -1.01881e-05 1.90199e-18)
(0.998243 0.0034877 1.8071e-19)
(1 1.45161e-05 1.51741e-18)
(1.05761 0.0679432 -7.27783e-18)
(0.998442 0.00317562 -1.08596e-17)
(1.01646 0.00939355 -8.5168e-18)
(1.09778 0.112595 -3.7018e-18)
(1.00032 0.000133215 -4.06682e-18)
(0.972296 0.0034069 -5.60819e-17)
(0.991197 0.0522742 6.94238e-18)
(1.00709 0.0153811 2.73387e-18)
(0.99762 0.000225328 -3.61201e-16)
(1.00182 0.0172897 -2.07096e-17)
(0.999382 0.000843913 1.48063e-17)
(0.994937 0.0157709 3.35779e-18)
(0.99938 0.000617757 -2.45339e-19)
(0.999395 0.000962345 -1.18095e-18)
(0.995576 0.0136762 1.8364e-17)
(1.03892 0.00713528 -4.09421e-19)
(1.03512 0.00864224 3.45305e-18)
(1.00689 0.0168865 1.57859e-17)
(0.659651 0.0459952 6.08067e-17)
(1.04029 0.00398972 1.98055e-19)
(0.270939 0.261294 -1.60886e-16)
(1.03002 0.0151671 -2.71665e-18)
(1.02269 0.000876604 -5.66072e-18)
(0.995194 0.0149044 -1.41364e-17)
(1.02892 0.015609 3.54965e-18)
(0.992161 0.0268136 4.28759e-18)
(1.03672 0.00036885 -2.10244e-19)
(0.567063 0.379216 -1.47792e-16)
(0.949566 0.035364 -4.73939e-18)
(0.99284 0.0248075 -1.63398e-17)
(1.00453 0.0234117 -1.9058e-18)
(0.995101 0.00105343 5.80285e-18)
(0.996365 0.00103246 1.75885e-17)
(1.02618 0.0304709 -4.84886e-18)
(0.999997 2.58446e-05 1.56795e-18)
(1.06312 -0.0185751 -1.44057e-17)
(0.999526 2.94206e-06 3.26745e-17)
(0.946872 0.0388772 1.4654e-17)
(0.998332 0.0751159 1.29723e-17)
(1.06186 0.0648165 -8.35132e-18)
(1.03987 0.027343 -1.91818e-18)
(1.03533 0.0155402 2.99713e-19)
(0.992394 0.0507711 6.80259e-18)
(1.00922 0.0131212 1.5494e-17)
(1.03903 0.0273757 2.83178e-18)
(0.971445 0.0311997 4.38688e-19)
(1.04232 0.0641476 -5.45606e-18)
(1.00799 0.0224713 -2.07131e-18)
(1.04473 0.041758 -1.64913e-17)
(1.00534 0.0234372 -1.26143e-17)
(1.00001 2.23131e-05 -1.40898e-18)
(0.998619 0.0263732 -3.3178e-18)
(0.634088 0.0544569 8.55735e-17)
(0.972694 0.136034 -6.5219e-18)
(1.00654 0.00554223 -2.43162e-19)
(1.00005 -3.45155e-05 -3.63343e-19)
(0.99932 0.000168089 -1.09937e-16)
(0.994522 0.0077263 3.60893e-18)
(0.968134 0.00324155 -2.21595e-16)
(1.03564 0.00782148 3.04774e-18)
(1.02831 0.00191322 -3.59584e-19)
(1.00079 2.95567e-05 -9.26154e-19)
(1.00494 0.00699351 9.23657e-18)
(0.993297 0.0278426 4.86543e-18)
(1.00652 0.00541598 8.95601e-19)
(1.00922 0.00103177 4.06873e-18)
(1.04613 0.0367146 4.96017e-18)
(0.993754 0.00141104 -3.38376e-17)
(0.99134 0.0352627 2.89456e-18)
(1.03731 0.0165562 1.19204e-17)
(1.00512 0.00659778 -1.94394e-19)
(1.008 0.00684412 5.91394e-18)
(0.941314 0.063801 2.47875e-17)
(1 -1.29944e-05 3.93561e-19)
(0.993383 0.00549331 6.74545e-18)
(1.29278 0.188216 3.45186e-17)
(0.999896 3.33924e-05 1.23997e-16)
(1.04012 0.0395879 -6.04084e-18)
(0.996564 0.0733481 1.75651e-17)
(1.00776 0.00690825 1.73582e-19)
(0.959558 0.0459184 6.94269e-18)
(1.03683 0.0157246 9.36284e-18)
(0.997821 0.0262567 -1.44565e-17)
(1.02929 0.0353594 1.41605e-18)
(0.999623 0.00321728 7.09599e-18)
(0.936963 0.0373114 -3.87916e-17)
(1.00541 0.000189371 -3.28241e-18)
(1.03397 0.00254479 -5.17858e-19)
(1.0358 0.0160262 7.98784e-18)
(0.937735 0.0422324 2.81763e-17)
(0.999787 0.00321594 1.6128e-18)
(1.04287 0.00527976 4.17761e-18)
(1.05407 0.02419 -1.05475e-17)
(0.991995 0.0347124 9.81472e-18)
(1.00612 0.013571 -1.15712e-17)
(1.00469 0.00309296 -2.9886e-18)
(1.01183 0.0660293 9.48821e-18)
(0.789729 0.203399 -5.30641e-18)
(0.995561 0.000933526 -3.77399e-18)
(0.999959 3.72025e-05 -5.09095e-17)
(0.993807 0.0255686 -1.229e-18)
(0.999995 -1.79679e-06 -8.79211e-18)
(1.14886 0.209065 2.74728e-17)
(1.0064 0.023367 1.04105e-17)
(1.03658 0.089997 1.08836e-18)
(1.01616 0.00766414 -9.08545e-18)
(1.02797 0.00194708 1.11824e-18)
(0.252389 0.136648 -9.56574e-16)
(1.00649 0.0161725 -6.69106e-18)
(1.08574 0.206234 -4.28434e-17)
(1.03537 0.00795233 3.81778e-18)
(0.982704 -0.00167929 1.42174e-17)
(1.0286 0.0131031 -4.93098e-19)
(0.996926 0.0121103 1.31936e-17)
(1.00656 0.0146406 -6.55824e-19)
(1.0158 -0.000677545 -3.042e-18)
(1.09104 0.0995475 -1.83163e-17)
(1.08311 0.0945254 -1.36556e-17)
(1.0011 -0.000285731 -5.23895e-18)
(1.00158 0.000355103 -2.2514e-18)
(0.925909 0.04613 -2.23916e-16)
(1.00214 -0.000247267 1.4888e-18)
(0.685885 0.396627 2.04175e-18)
(1.02804 0.0329598 -7.82817e-18)
(0.966632 0.167531 2.48345e-17)
(1.00428 0.00308507 -4.28462e-18)
(0.0787964 0.302827 -4.68764e-16)
(1.12687 0.233947 4.35527e-18)
(1.00588 0.0228918 -1.18889e-17)
(0.999993 9.57052e-06 3.1944e-18)
(0.999899 0.00280484 7.13518e-19)
(0.953938 0.0304696 3.23509e-17)
(0.994247 0.0081316 -5.46187e-18)
(0.989433 0.000192796 -4.45552e-17)
(0.996938 0.00987009 -1.66062e-18)
(1.03152 0.0127161 1.05469e-18)
(0.971994 0.0308313 1.85699e-18)
(1.0821 -0.020985 -8.34633e-18)
(0.63135 0.0321749 -1.84328e-16)
(1.00082 3.90678e-05 -7.57575e-18)
(0.965769 0.0364916 2.56434e-17)
(1.03348 0.0306951 -2.2777e-18)
(0.927136 0.0565529 2.25763e-17)
(1.00469 0.0129964 7.49481e-18)
(0.929871 0.0779669 1.34141e-17)
(1.0375 0.00921504 1.08158e-18)
(0.952265 0.0353856 -9.64523e-18)
(0.997322 0.000641122 1.77982e-17)
(1.00006 -1.08101e-05 -6.12555e-19)
(1.0381 0.0255261 -2.09998e-18)
(1.04053 0.0267038 -1.20835e-18)
(1.02971 0.00164086 -2.7669e-18)
(0.924589 0.0391855 -1.45781e-17)
(1.03433 0.090476 -3.37454e-18)
(1.02152 0.000704634 -4.82238e-18)
(0.997304 0.0249889 -7.30702e-18)
(1.00043 0.0041054 -3.67185e-18)
(1.00974 0.00873339 2.33996e-18)
(0.789612 0.0277868 -1.72268e-16)
(1.00968 0.00899022 -9.52295e-18)
(1.03503 0.0220193 -6.378e-18)
(0.982272 0.0415649 -5.08607e-18)
(1.02698 0.0101858 -2.07403e-18)
(1.01236 0.00015319 1.49951e-17)
(0.996325 0.0116615 -8.7252e-18)
(1.05293 0.0228516 7.24941e-19)
(1.01545 0.00737783 -2.32828e-19)
(1.00515 0.0135116 1.55794e-17)
(1.07849 -0.0294593 -5.17241e-18)
(0.990936 0.0304087 -7.16798e-18)
(1.0205 0.000734852 6.16864e-18)
(0.797715 0.336131 -9.59508e-17)
(1 6.08424e-06 -7.16057e-19)
(1.01568 0.00830278 4.26153e-19)
(0.998951 0.0216293 1.70385e-18)
(0.992216 0.00725349 -7.77932e-18)
(1.00324 0.00029032 1.95431e-17)
(0.998095 0.0245009 -1.32815e-17)
(1.00002 -6.63664e-06 -1.4612e-18)
(1.04405 0.107833 -1.27888e-17)
(1.00573 0.000901391 -4.06294e-18)
(0.971912 0.00466073 3.50315e-17)
(1.0357 0.0350389 6.09649e-18)
(0.950715 0.0496444 1.1719e-17)
(1.01697 0.0102463 -1.03861e-18)
(1.01637 0.00838777 -7.95024e-18)
(1.03688 0.0250125 4.78893e-18)
(1.06135 0.115772 5.99254e-17)
(0.999853 6.62106e-05 -2.19904e-17)
(0.99284 0.00070891 1.72084e-17)
(1.02216 0.000207041 -5.19314e-18)
(1.10087 0.202393 1.21115e-17)
(1.04026 0.0262232 8.88754e-19)
(0.999867 0.00303061 1.62592e-18)
(0.240026 0.100293 -1.0279e-15)
(1.00005 1.43698e-05 -9.90166e-19)
(1.00494 0.00145505 -1.45837e-18)
(0.69049 0.00800589 -5.27713e-17)
(0.994591 0.00509642 3.50919e-18)
(0.999631 0.00334064 -1.56973e-18)
(0.999511 0.00363632 1.02935e-17)
(0.983358 0.0386356 -1.61677e-17)
(0.958447 0.0288589 5.07278e-17)
(0.999871 2.85399e-05 -8.81818e-17)
(0.993465 0.00642399 -4.99149e-19)
(0.937945 0.0674986 2.17601e-18)
(0.9982 0.0214644 -1.34947e-17)
(0.995954 0.0179019 6.40883e-18)
(0.996596 0.00962382 1.32275e-17)
(1.00107 5.30638e-05 -6.14501e-19)
(0.957675 0.0317938 -9.39597e-17)
(1.06541 0.0609354 -1.4675e-17)
(0.994987 0.0160658 1.07009e-17)
(0.927943 0.0321638 4.43421e-17)
(1.03476 0.00719932 4.47587e-18)
(1.03664 0.00494523 8.62449e-19)
(1.03935 0.106366 -1.69727e-17)
(1.03247 0.0309798 2.26777e-18)
(0.996481 0.00960428 -5.80502e-18)
(1.00512 0.00160812 -5.82561e-18)
(1.08421 0.105387 1.1413e-17)
(1.03999 0.00635578 -1.84567e-18)
(0.9752 0.0255156 3.35118e-18)
(1.00075 0.00406815 -9.28688e-18)
(0.999725 0.000215798 2.8906e-18)
(0.927262 0.0129676 -2.8634e-16)
(1.04912 0.0430193 -1.43011e-18)
(1.01456 0.00675379 2.18677e-18)
(1.01059 0.0505752 2.7226e-18)
(1.01491 0.00777948 4.95605e-18)
(0.997066 0.0100226 4.12393e-18)
(1.00565 0.00459493 -7.71475e-18)
(0.964755 0.0362485 -2.71075e-17)
(0.809801 0.020487 -3.52512e-17)
(0.305699 0.454846 1.73093e-16)
(0.966331 0.0394419 1.52197e-17)
(0.998865 0.0184209 1.83276e-19)
(1.00539 0.004623 1.00725e-19)
(0.968893 0.034083 -2.21905e-17)
(0.566976 0.31584 9.0508e-17)
(0.935527 0.0326913 -1.96256e-16)
(0.999901 0.00303819 -2.36681e-18)
(1.04726 0.0356477 3.02501e-18)
(1.05929 0.0755564 -4.27075e-20)
(1.24825 0.286536 8.20151e-18)