/*--------------------------------*- C++ -*----------------------------------*\
  =========                 |
  \\      /  F ield         | OpenFOAM: The Open Source CFD Toolbox
   \\    /   O peration     | Website:  https://openfoam.org
    \\  /    A nd           | Version:  7
     \\/     M anipulation  |
\*---------------------------------------------------------------------------*/
FoamFile
{
    version     2.0;
    format      ascii;
    class       volVectorField;
    location    "0.4";
    object      U;
}
// * * * * * * * * * * * * * * * * * * * * * * * * * * * * * * * * * * * * * //

dimensions      [0 1 -1 0 0 0 0];

internalField   nonuniform List<vector> 
20000
(
(1.37368e-06 -1.36061e-06 0)
(7.34632e-06 -3.70383e-06 0)
(1.70981e-05 -4.361e-06 0)
(2.63107e-05 -3.82263e-06 0)
(3.26501e-05 -2.67675e-06 0)
(3.50112e-05 -1.26844e-06 0)
(3.28913e-05 2.18339e-07 0)
(2.61679e-05 1.67566e-06 0)
(1.49615e-05 3.04183e-06 0)
(-4.62634e-07 4.28433e-06 0)
(-1.97577e-05 5.39068e-06 0)
(-4.25352e-05 6.35972e-06 0)
(-6.83924e-05 7.19581e-06 0)
(-9.69301e-05 7.9059e-06 0)
(-0.000127766 8.49893e-06 0)
(-0.000160544 8.98556e-06 0)
(-0.000194936 9.37782e-06 0)
(-0.00023065 9.68807e-06 0)
(-0.000267427 9.92786e-06 0)
(-0.000305043 1.01079e-05 0)
(-0.000343305 1.02382e-05 0)
(-0.000382052 1.03284e-05 0)
(-0.000421153 1.03868e-05 0)
(-0.0004605 1.04208e-05 0)
(-0.00050001 1.04367e-05 0)
(-0.000539618 1.04396e-05 0)
(-0.000579277 1.04343e-05 0)
(-0.000618956 1.04245e-05 0)
(-0.000658633 1.04134e-05 0)
(-0.000698299 1.0403e-05 0)
(-0.000737949 1.0395e-05 0)
(-0.000777588 1.03908e-05 0)
(-0.000817223 1.03914e-05 0)
(-0.000856865 1.03973e-05 0)
(-0.000896527 1.04088e-05 0)
(-0.000936223 1.04259e-05 0)
(-0.00097597 1.04487e-05 0)
(-0.00101578 1.04768e-05 0)
(-0.00105567 1.05103e-05 0)
(-0.00109566 1.05489e-05 0)
(-0.00113576 1.05923e-05 0)
(-0.00117599 1.06402e-05 0)
(-0.00121636 1.06923e-05 0)
(-0.00125687 1.07485e-05 0)
(-0.00129755 1.08083e-05 0)
(-0.00133841 1.08718e-05 0)
(-0.00137946 1.09388e-05 0)
(-0.0014207 1.10091e-05 0)
(-0.00146215 1.10828e-05 0)
(-0.00150383 1.11598e-05 0)
(-0.00154574 1.12399e-05 0)
(-0.00158788 1.13233e-05 0)
(-0.00163029 1.14099e-05 0)
(-0.00167295 1.14999e-05 0)
(-0.0017159 1.15933e-05 0)
(-0.00175913 1.16903e-05 0)
(-0.00180266 1.17908e-05 0)
(-0.0018465 1.18951e-05 0)
(-0.00189067 1.20034e-05 0)
(-0.00193517 1.21157e-05 0)
(-0.00198003 1.22323e-05 0)
(-0.00202525 1.23533e-05 0)
(-0.00207086 1.2479e-05 0)
(-0.00211687 1.26095e-05 0)
(-0.00216329 1.27452e-05 0)
(-0.00221015 1.28862e-05 0)
(-0.00225745 1.30327e-05 0)
(-0.00230523 1.3185e-05 0)
(-0.0023535 1.33435e-05 0)
(-0.00240227 1.35082e-05 0)
(-0.00245159 1.36797e-05 0)
(-0.00250145 1.38579e-05 0)
(-0.00255189 1.40433e-05 0)
(-0.00260294 1.42362e-05 0)
(-0.00265462 1.44368e-05 0)
(-0.00270695 1.46455e-05 0)
(-0.00275996 1.48625e-05 0)
(-0.00281368 1.50882e-05 0)
(-0.00286814 1.53229e-05 0)
(-0.00292337 1.55668e-05 0)
(-0.0029794 1.58204e-05 0)
(-0.00303626 1.60838e-05 0)
(-0.00309399 1.63575e-05 0)
(-0.00315262 1.66416e-05 0)
(-0.00321218 1.69366e-05 0)
(-0.00327272 1.72427e-05 0)
(-0.00333426 1.75602e-05 0)
(-0.00339685 1.78893e-05 0)
(-0.00346052 1.82304e-05 0)
(-0.00352531 1.85836e-05 0)
(-0.00359126 1.89493e-05 0)
(-0.00365842 1.93276e-05 0)
(-0.00372681 1.97186e-05 0)
(-0.0037965 2.01225e-05 0)
(-0.0038675 2.05394e-05 0)
(-0.00393987 2.09692e-05 0)
(-0.00401365 2.14119e-05 0)
(-0.00408887 2.18675e-05 0)
(-0.00416558 2.23359e-05 0)
(-0.00424381 2.28167e-05 0)
(-0.0043236 2.33097e-05 0)
(-0.00440499 2.38145e-05 0)
(-0.00448801 2.43304e-05 0)
(-0.00457269 2.48568e-05 0)
(-0.00465907 2.53932e-05 0)
(-0.00474716 2.59385e-05 0)
(-0.00483699 2.64918e-05 0)
(-0.00492858 2.70517e-05 0)
(-0.00502193 2.76168e-05 0)
(-0.00511707 2.81854e-05 0)
(-0.00521398 2.87557e-05 0)
(-0.00531266 2.93257e-05 0)
(-0.0054131 2.9893e-05 0)
(-0.00551527 3.04547e-05 0)
(-0.00561914 3.1008e-05 0)
(-0.00572467 3.15495e-05 0)
(-0.0058318 3.20756e-05 0)
(-0.00594046 3.25821e-05 0)
(-0.00605056 3.30647e-05 0)
(-0.006162 3.35183e-05 0)
(-0.00627466 3.39377e-05 0)
(-0.00638842 3.4317e-05 0)
(-0.0065031 3.46497e-05 0)
(-0.00661853 3.49291e-05 0)
(-0.0067345 3.51478e-05 0)
(-0.00685079 3.52981e-05 0)
(-0.00696714 3.53718e-05 0)
(-0.00708327 3.536e-05 0)
(-0.00719886 3.5253e-05 0)
(-0.00731356 3.50411e-05 0)
(-0.00742701 3.47143e-05 0)
(-0.00753879 3.4262e-05 0)
(-0.00764846 3.36735e-05 0)
(-0.00775554 3.29377e-05 0)
(-0.00785951 3.20434e-05 0)
(-0.00795983 3.09794e-05 0)
(-0.00805592 2.97349e-05 0)
(-0.00814717 2.82992e-05 0)
(-0.00823292 2.66624e-05 0)
(-0.00831251 2.48151e-05 0)
(-0.00838523 2.27488e-05 0)
(-0.00845037 2.04563e-05 0)
(-0.00850719 1.79317e-05 0)
(-0.00855493 1.51709e-05 0)
(-0.00859284 1.21716e-05 0)
(-0.00862017 8.93402e-06 0)
(-0.00863617 5.46108e-06 0)
(-0.0086401 1.75827e-06 0)
(-0.00863126 -2.16821e-06 0)
(-0.00860898 -6.30541e-06 0)
(-0.00857264 -1.06385e-05 0)
(-0.00852167 -1.51492e-05 0)
(-0.00845557 -1.98157e-05 0)
(-0.00837391 -2.46126e-05 0)
(-0.00827636 -2.95113e-05 0)
(-0.00816269 -3.44798e-05 0)
(-0.00803276 -3.94829e-05 0)
(-0.00788656 -4.44825e-05 0)
(-0.00772419 -4.94381e-05 0)
(-0.00754591 -5.43075e-05 0)
(-0.00735208 -5.9047e-05 0)
(-0.00714321 -6.36121e-05 0)
(-0.00691995 -6.79583e-05 0)
(-0.00668309 -7.20413e-05 0)
(-0.00643355 -7.58185e-05 0)
(-0.00617239 -7.9249e-05 0)
(-0.00590077 -8.22946e-05 0)
(-0.00561997 -8.49208e-05 0)
(-0.00533138 -8.7097e-05 0)
(-0.00503648 -8.87973e-05 0)
(-0.0047368 -9.0001e-05 0)
(-0.00443395 -9.06927e-05 0)
(-0.00412957 -9.08628e-05 0)
(-0.00382532 -9.05075e-05 0)
(-0.00352288 -8.96291e-05 0)
(-0.0032239 -8.82353e-05 0)
(-0.00293002 -8.63396e-05 0)
(-0.00264282 -8.396e-05 0)
(-0.00236382 -8.11191e-05 0)
(-0.0020945 -7.78432e-05 0)
(-0.00183622 -7.41618e-05 0)
(-0.00159027 -7.01068e-05 0)
(-0.00135783 -6.57117e-05 0)
(-0.00114 -6.10106e-05 0)
(-0.000937752 -5.60379e-05 0)
(-0.00075195 -5.08275e-05 0)
(-0.000583359 -4.54118e-05 0)
(-0.00043263 -3.98219e-05 0)
(-0.000300304 -3.40867e-05 0)
(-0.000186813 -2.82339e-05 0)
(-9.24635e-05 -2.22912e-05 0)
(-1.74191e-05 -1.62936e-05 0)
(3.83045e-05 -1.02944e-05 0)
(7.49472e-05 -4.34474e-06 0)
(9.31316e-05 1.41134e-06 0)
(9.40336e-05 6.7117e-06 0)
(7.97921e-05 1.1069e-05 0)
(5.41849e-05 1.35037e-05 0)
(2.47001e-05 1.22126e-05 0)
(5.12942e-06 5.16909e-06 0)
(3.74044e-06 -7.35895e-06 0)
(1.57432e-05 -1.56827e-05 0)
(3.22819e-05 -1.70422e-05 0)
(4.59235e-05 -1.34649e-05 0)
(5.22215e-05 -6.95437e-06 0)
(4.87364e-05 1.099e-06 0)
(3.41348e-05 9.78846e-06 0)
(7.90649e-06 1.8523e-05 0)
(-2.98577e-05 2.69292e-05 0)
(-7.86688e-05 3.47782e-05 0)
(-0.000137785 4.194e-05 0)
(-0.000206313 4.83528e-05 0)
(-0.000283285 5.40012e-05 0)
(-0.000367712 5.89002e-05 0)
(-0.00045862 6.30859e-05 0)
(-0.000555086 6.66089e-05 0)
(-0.000656247 6.95289e-05 0)
(-0.000761316 7.191e-05 0)
(-0.000869588 7.38177e-05 0)
(-0.000980444 7.53159e-05 0)
(-0.00109334 7.64659e-05 0)
(-0.00120782 7.73253e-05 0)
(-0.0013235 7.79466e-05 0)
(-0.00144007 7.83773e-05 0)
(-0.00155725 7.8659e-05 0)
(-0.00167486 7.88282e-05 0)
(-0.00179274 7.89157e-05 0)
(-0.00191077 7.8948e-05 0)
(-0.00202889 7.89466e-05 0)
(-0.00214702 7.89288e-05 0)
(-0.00226516 7.89083e-05 0)
(-0.00238328 7.88958e-05 0)
(-0.0025014 7.88994e-05 0)
(-0.00261953 7.89247e-05 0)
(-0.00273769 7.89754e-05 0)
(-0.00285591 7.90541e-05 0)
(-0.00297424 7.9162e-05 0)
(-0.00309269 7.92995e-05 0)
(-0.00321132 7.94663e-05 0)
(-0.00333014 7.96619e-05 0)
(-0.00344921 7.98851e-05 0)
(-0.00356856 8.01351e-05 0)
(-0.00368821 8.04109e-05 0)
(-0.00380821 8.07112e-05 0)
(-0.00392859 8.10353e-05 0)
(-0.00404937 8.13821e-05 0)
(-0.00417059 8.17511e-05 0)
(-0.00429228 8.21417e-05 0)
(-0.00441446 8.25536e-05 0)
(-0.00453717 8.29868e-05 0)
(-0.00466043 8.34412e-05 0)
(-0.00478428 8.39168e-05 0)
(-0.00490875 8.44139e-05 0)
(-0.00503385 8.4933e-05 0)
(-0.00515964 8.54747e-05 0)
(-0.00528612 8.60395e-05 0)
(-0.00541335 8.66284e-05 0)
(-0.00554136 8.72421e-05 0)
(-0.00567017 8.78817e-05 0)
(-0.00579983 8.85484e-05 0)
(-0.00593037 8.92431e-05 0)
(-0.00606183 8.99671e-05 0)
(-0.00619426 9.07218e-05 0)
(-0.0063277 9.15085e-05 0)
(-0.0064622 9.23286e-05 0)
(-0.0065978 9.31837e-05 0)
(-0.00673455 9.40752e-05 0)
(-0.0068725 9.50048e-05 0)
(-0.00701171 9.5974e-05 0)
(-0.00715223 9.69847e-05 0)
(-0.00729413 9.80385e-05 0)
(-0.00743746 9.91372e-05 0)
(-0.00758228 0.000100283 0)
(-0.00772867 0.000101476 0)
(-0.00787668 0.000102721 0)
(-0.0080264 0.000104017 0)
(-0.00817789 0.000105368 0)
(-0.00833124 0.000106775 0)
(-0.00848651 0.000108239 0)
(-0.00864379 0.000109764 0)
(-0.00880317 0.00011135 0)
(-0.00896472 0.000113 0)
(-0.00912855 0.000114716 0)
(-0.00929473 0.000116498 0)
(-0.00946336 0.00011835 0)
(-0.00963455 0.000120272 0)
(-0.00980837 0.000122267 0)
(-0.00998495 0.000124335 0)
(-0.0101644 0.000126478 0)
(-0.0103467 0.000128698 0)
(-0.0105321 0.000130995 0)
(-0.0107207 0.00013337 0)
(-0.0109125 0.000135824 0)
(-0.0111077 0.000138357 0)
(-0.0113064 0.000140969 0)
(-0.0115087 0.00014366 0)
(-0.0117146 0.000146429 0)
(-0.0119243 0.000149275 0)
(-0.0121379 0.000152196 0)
(-0.0123555 0.000155189 0)
(-0.0125771 0.000158253 0)
(-0.0128029 0.000161384 0)
(-0.013033 0.000164577 0)
(-0.0132673 0.000167828 0)
(-0.0135061 0.000171131 0)
(-0.0137493 0.000174478 0)
(-0.0139969 0.000177862 0)
(-0.0142491 0.000181274 0)
(-0.0145058 0.000184703 0)
(-0.0147671 0.000188137 0)
(-0.0150329 0.000191563 0)
(-0.0153031 0.000194966 0)
(-0.0155778 0.000198329 0)
(-0.0158568 0.000201634 0)
(-0.0161401 0.000204859 0)
(-0.0164274 0.000207982 0)
(-0.0167187 0.000210978 0)
(-0.0170136 0.000213818 0)
(-0.017312 0.000216473 0)
(-0.0176135 0.00021891 0)
(-0.0179177 0.000221092 0)
(-0.0182244 0.000222982 0)
(-0.0185329 0.000224538 0)
(-0.0188429 0.000225714 0)
(-0.0191537 0.000226464 0)
(-0.0194647 0.000226737 0)
(-0.0197751 0.000226479 0)
(-0.0200841 0.000225634 0)
(-0.020391 0.000224144 0)
(-0.0206946 0.000221946 0)
(-0.0209941 0.000218978 0)
(-0.0212882 0.000215174 0)
(-0.0215758 0.000210468 0)
(-0.0218555 0.000204794 0)
(-0.0221259 0.000198084 0)
(-0.0223856 0.000190274 0)
(-0.0226331 0.0001813 0)
(-0.0228665 0.000171099 0)
(-0.0230844 0.000159617 0)
(-0.0232848 0.000146801 0)
(-0.0234659 0.000132606 0)
(-0.0236259 0.000116996 0)
(-0.0237627 9.99427e-05 0)
(-0.0238745 8.143e-05 0)
(-0.0239592 6.14542e-05 0)
(-0.024015 4.00255e-05 0)
(-0.0240399 1.717e-05 0)
(-0.0240321 -7.07044e-06 0)
(-0.0239898 -3.26353e-05 0)
(-0.0239112 -5.9444e-05 0)
(-0.0237949 -8.73973e-05 0)
(-0.0236394 -0.000116375 0)
(-0.0234435 -0.000146237 0)
(-0.0232062 -0.000176823 0)
(-0.0229267 -0.000207951 0)
(-0.0226046 -0.000239423 0)
(-0.0222394 -0.000271023 0)
(-0.0218314 -0.000302519 0)
(-0.0213809 -0.000333666 0)
(-0.0208885 -0.000364209 0)
(-0.0203553 -0.000393886 0)
(-0.0197828 -0.000422433 0)
(-0.0191726 -0.000449583 0)
(-0.0185269 -0.000475076 0)
(-0.017848 -0.000498658 0)
(-0.0171387 -0.000520089 0)
(-0.0164021 -0.000539145 0)
(-0.0156414 -0.00055562 0)
(-0.0148604 -0.000569334 0)
(-0.0140627 -0.000580132 0)
(-0.0132523 -0.000587889 0)
(-0.0124335 -0.000592511 0)
(-0.0116104 -0.000593936 0)
(-0.0107873 -0.000592134 0)
(-0.00996849 -0.00058711 0)
(-0.00915837 -0.000578901 0)
(-0.00836113 -0.000567573 0)
(-0.00758091 -0.000553222 0)
(-0.00682173 -0.000535971 0)
(-0.00608742 -0.000515963 0)
(-0.00538162 -0.000493364 0)
(-0.00470776 -0.000468353 0)
(-0.00406903 -0.000441123 0)
(-0.00346835 -0.000411876 0)
(-0.00290839 -0.000380819 0)
(-0.00239152 -0.000348162 0)
(-0.00191984 -0.00031412 0)
(-0.00149513 -0.000278908 0)
(-0.00111886 -0.000242748 0)
(-0.000792169 -0.000205876 0)
(-0.000515791 -0.000168557 0)
(-0.000290011 -0.00013112 0)
(-0.000114552 -9.4003e-05 0)
(1.16383e-05 -5.77894e-05 0)
(9.06888e-05 -2.34281e-05 0)
(0.000126254 7.59224e-06 0)
(0.000124123 3.28511e-05 0)
(9.30961e-05 4.84343e-05 0)
(4.7808e-05 4.81996e-05 0)
(1.19681e-05 2.458e-05 0)
(4.42445e-06 -1.71821e-05 0)
(1.71835e-05 -3.22692e-05 0)
(3.24074e-05 -3.22814e-05 0)
(4.13336e-05 -2.17202e-05 0)
(3.86383e-05 -4.38502e-06 0)
(2.12381e-05 1.68359e-05 0)
(-1.26691e-05 3.98598e-05 0)
(-6.38535e-05 6.32357e-05 0)
(-0.000132282 8.59807e-05 0)
(-0.000217356 0.00010745 0)
(-0.000318088 0.000127247 0)
(-0.000433244 0.000145151 0)
(-0.000561456 0.000161073 0)
(-0.000701295 0.000175017 0)
(-0.000851338 0.00018705 0)
(-0.00101021 0.000197286 0)
(-0.00117661 0.000205866 0)
(-0.00134936 0.00021295 0)
(-0.00152736 0.000218705 0)
(-0.00170965 0.000223299 0)
(-0.00189539 0.000226895 0)
(-0.00208385 0.000229647 0)
(-0.0022744 0.000231698 0)
(-0.00246654 0.000233179 0)
(-0.00265984 0.000234204 0)
(-0.00285396 0.000234878 0)
(-0.00304863 0.000235287 0)
(-0.00324365 0.000235506 0)
(-0.00343887 0.000235599 0)
(-0.00363419 0.000235616 0)
(-0.00382954 0.000235599 0)
(-0.00402489 0.00023558 0)
(-0.00422024 0.000235585 0)
(-0.00441558 0.000235631 0)
(-0.00461094 0.000235733 0)
(-0.00480635 0.000235899 0)
(-0.00500186 0.000236135 0)
(-0.00519751 0.000236444 0)
(-0.00539334 0.000236826 0)
(-0.00558941 0.000237282 0)
(-0.00578577 0.000237809 0)
(-0.00598246 0.000238407 0)
(-0.00617954 0.000239073 0)
(-0.00637705 0.000239804 0)
(-0.00657505 0.0002406 0)
(-0.00677357 0.000241457 0)
(-0.00697266 0.000242375 0)
(-0.00717237 0.000243353 0)
(-0.00737275 0.000244389 0)
(-0.00757382 0.000245484 0)
(-0.00777565 0.000246637 0)
(-0.00797828 0.00024785 0)
(-0.00818175 0.000249123 0)
(-0.0083861 0.000250457 0)
(-0.00859139 0.000251853 0)
(-0.00879766 0.000253315 0)
(-0.00900497 0.000254844 0)
(-0.00921336 0.000256442 0)
(-0.0094229 0.000258113 0)
(-0.00963363 0.000259859 0)
(-0.00984563 0.000261684 0)
(-0.0100589 0.00026359 0)
(-0.0102736 0.000265582 0)
(-0.0104898 0.000267664 0)
(-0.0107074 0.000269838 0)
(-0.0109267 0.00027211 0)
(-0.0111476 0.000274484 0)
(-0.0113703 0.000276963 0)
(-0.0115948 0.000279553 0)
(-0.0118213 0.000282258 0)
(-0.0120497 0.000285084 0)
(-0.0122803 0.000288033 0)
(-0.012513 0.000291113 0)
(-0.0127481 0.000294327 0)
(-0.0129856 0.000297681 0)
(-0.0132255 0.00030118 0)
(-0.0134681 0.000304829 0)
(-0.0137135 0.000308633 0)
(-0.0139617 0.000312597 0)
(-0.0142129 0.000316726 0)
(-0.0144672 0.000321026 0)
(-0.0147248 0.000325501 0)
(-0.0149857 0.000330157 0)
(-0.0152502 0.000334997 0)
(-0.0155183 0.000340027 0)
(-0.0157902 0.00034525 0)
(-0.0160661 0.000350671 0)
(-0.0163461 0.000356293 0)
(-0.0166303 0.000362121 0)
(-0.0169189 0.000368155 0)
(-0.0172121 0.0003744 0)
(-0.01751 0.000380856 0)
(-0.0178128 0.000387525 0)
(-0.0181207 0.000394406 0)
(-0.0184337 0.0004015 0)
(-0.018752 0.000408804 0)
(-0.0190759 0.000416315 0)
(-0.0194054 0.00042403 0)
(-0.0197407 0.000431943 0)
(-0.0200819 0.000440046 0)
(-0.0204292 0.000448332 0)
(-0.0207826 0.000456789 0)
(-0.0211424 0.000465404 0)
(-0.0215085 0.000474163 0)
(-0.0218812 0.000483047 0)
(-0.0222604 0.000492036 0)
(-0.0226462 0.000501107 0)
(-0.0230387 0.000510232 0)
(-0.0234378 0.00051938 0)
(-0.0238435 0.000528518 0)
(-0.0242559 0.000537606 0)
(-0.0246747 0.0005466 0)
(-0.0251 0.000555452 0)
(-0.0255315 0.000564109 0)
(-0.025969 0.00057251 0)
(-0.0264124 0.000580591 0)
(-0.0268612 0.00058828 0)
(-0.0273151 0.000595497 0)
(-0.0277737 0.000602158 0)
(-0.0282365 0.00060817 0)
(-0.0287029 0.000613432 0)
(-0.0291723 0.000617835 0)
(-0.029644 0.000621264 0)
(-0.030117 0.000623595 0)
(-0.0305905 0.000624695 0)
(-0.0310634 0.000624425 0)
(-0.0315346 0.000622637 0)
(-0.0320028 0.000619177 0)
(-0.0324667 0.000613884 0)
(-0.0329248 0.00060659 0)
(-0.0333754 0.000597125 0)
(-0.0338167 0.000585311 0)
(-0.034247 0.000570973 0)
(-0.0346641 0.000553931 0)
(-0.035066 0.00053401 0)
(-0.0354503 0.000511037 0)
(-0.0358147 0.000484844 0)
(-0.0361567 0.000455275 0)
(-0.0364736 0.000422184 0)
(-0.0367628 0.000385442 0)
(-0.0370214 0.000344939 0)
(-0.0372466 0.000300586 0)
(-0.0374356 0.000252323 0)
(-0.0375854 0.00020012 0)
(-0.0376931 0.000143982 0)
(-0.0377558 8.39502e-05 0)
(-0.0377707 2.01102e-05 0)
(-0.0377351 -4.7407e-05 0)
(-0.0376463 -0.000118422 0)
(-0.037502 -0.000192707 0)
(-0.0372999 -0.000269979 0)
(-0.037038 -0.000349904 0)
(-0.0367146 -0.000432093 0)
(-0.0363282 -0.000516104 0)
(-0.035878 -0.000601446 0)
(-0.0353631 -0.000687579 0)
(-0.0347834 -0.000773919 0)
(-0.034139 -0.000859844 0)
(-0.0334306 -0.0009447 0)
(-0.0326594 -0.00102781 0)
(-0.031827 -0.00110847 0)
(-0.0309356 -0.00118599 0)
(-0.0299878 -0.00125967 0)
(-0.0289869 -0.0013288 0)
(-0.0279365 -0.00139274 0)
(-0.0268408 -0.00145084 0)
(-0.0257042 -0.00150252 0)
(-0.0245319 -0.00154723 0)
(-0.023329 -0.00158451 0)
(-0.0221013 -0.00161395 0)
(-0.0208547 -0.0016352 0)
(-0.0195954 -0.00164803 0)
(-0.0183295 -0.00165225 0)
(-0.0170635 -0.0016478 0)
(-0.0158038 -0.00163466 0)
(-0.0145568 -0.00161292 0)
(-0.0133288 -0.00158274 0)
(-0.012126 -0.00154437 0)
(-0.0109544 -0.0014981 0)
(-0.0098197 -0.00144431 0)
(-0.00872745 -0.00138342 0)
(-0.0076828 -0.00131588 0)
(-0.00669058 -0.00124221 0)
(-0.00575524 -0.00116294 0)
(-0.00488084 -0.00107861 0)
(-0.00407103 -0.000989808 0)
(-0.00332901 -0.000897123 0)
(-0.0026575 -0.000801175 0)
(-0.00205872 -0.00070262 0)
(-0.00153435 -0.000602181 0)
(-0.0010854 -0.00050069 0)
(-0.000712159 -0.000399165 0)
(-0.000413954 -0.000298925 0)
(-0.000188931 -0.000201756 0)
(-3.36404e-05 -0.000110224 0)
(5.7438e-05 -2.80752e-05 0)
(9.25417e-05 3.91509e-05 0)
(8.33597e-05 8.33808e-05 0)
(4.7696e-05 9.32205e-05 0)
(1.29987e-05 5.34484e-05 0)
(3.917e-06 -2.65254e-05 0)
(1.3609e-05 -4.59609e-05 0)
(2.16645e-05 -4.11887e-05 0)
(1.92769e-05 -1.95751e-05 0)
(9.4849e-07 1.31353e-05 0)
(-3.66233e-05 5.24465e-05 0)
(-9.53919e-05 9.49757e-05 0)
(-0.000176203 0.000138271 0)
(-0.000279015 0.000180599 0)
(-0.000403131 0.000220781 0)
(-0.000547383 0.000258054 0)
(-0.000710289 0.00029197 0)
(-0.000890182 0.000322319 0)
(-0.0010853 0.000349064 0)
(-0.00129388 0.000372296 0)
(-0.00151418 0.000392193 0)
(-0.00174457 0.000408995 0)
(-0.00198351 0.000422978 0)
(-0.00222961 0.00043444 0)
(-0.00248161 0.000443682 0)
(-0.00273841 0.000451001 0)
(-0.00299902 0.00045668 0)
(-0.00326264 0.000460985 0)
(-0.00352854 0.000464158 0)
(-0.00379617 0.000466419 0)
(-0.00406504 0.00046796 0)
(-0.00433477 0.000468951 0)
(-0.00460507 0.000469536 0)
(-0.00487572 0.000469835 0)
(-0.00514656 0.000469951 0)
(-0.00541748 0.000469964 0)
(-0.0056884 0.00046994 0)
(-0.00595929 0.000469931 0)
(-0.00623015 0.000469974 0)
(-0.00650098 0.000470099 0)
(-0.00677182 0.000470325 0)
(-0.0070427 0.000470665 0)
(-0.00731367 0.000471129 0)
(-0.00758478 0.00047172 0)
(-0.00785609 0.00047244 0)
(-0.00812766 0.000473287 0)
(-0.00839954 0.000474261 0)
(-0.00867179 0.000475357 0)
(-0.00894448 0.000476573 0)
(-0.00921766 0.000477906 0)
(-0.00949138 0.000479354 0)
(-0.00976571 0.000480915 0)
(-0.0100407 0.000482586 0)
(-0.0103164 0.000484368 0)
(-0.0105929 0.000486259 0)
(-0.0108702 0.000488261 0)
(-0.0111484 0.000490374 0)
(-0.0114275 0.000492601 0)
(-0.0117077 0.000494944 0)
(-0.0119889 0.000497406 0)
(-0.0122713 0.000499992 0)
(-0.0125548 0.000502705 0)
(-0.0128397 0.00050555 0)
(-0.0131258 0.000508532 0)
(-0.0134134 0.000511657 0)
(-0.0137024 0.000514931 0)
(-0.0139931 0.000518361 0)
(-0.0142854 0.000521954 0)
(-0.0145794 0.000525716 0)
(-0.0148752 0.000529654 0)
(-0.015173 0.000533778 0)
(-0.0154728 0.000538094 0)
(-0.0157748 0.00054261 0)
(-0.016079 0.000547337 0)
(-0.0163855 0.000552281 0)
(-0.0166945 0.000557452 0)
(-0.0170061 0.000562859 0)
(-0.0173204 0.000568512 0)
(-0.0176376 0.000574419 0)
(-0.0179577 0.000580589 0)
(-0.018281 0.000587034 0)
(-0.0186075 0.000593761 0)
(-0.0189375 0.00060078 0)
(-0.019271 0.000608101 0)
(-0.0196083 0.000615734 0)
(-0.0199494 0.000623687 0)
(-0.0202946 0.000631969 0)
(-0.0206441 0.000640589 0)
(-0.020998 0.000649557 0)
(-0.0213565 0.000658879 0)
(-0.0217197 0.000668563 0)
(-0.0220879 0.000678617 0)
(-0.0224613 0.000689047 0)
(-0.0228401 0.000699858 0)
(-0.0232244 0.000711055 0)
(-0.0236144 0.000722642 0)
(-0.0240104 0.000734621 0)
(-0.0244125 0.000746993 0)
(-0.024821 0.000759758 0)
(-0.0252359 0.000772912 0)
(-0.0256577 0.000786453 0)
(-0.0260863 0.000800373 0)
(-0.026522 0.000814664 0)
(-0.0269651 0.000829313 0)
(-0.0274155 0.000844306 0)
(-0.0278736 0.000859625 0)
(-0.0283394 0.000875248 0)
(-0.0288131 0.000891148 0)
(-0.0292948 0.000907296 0)
(-0.0297846 0.000923656 0)
(-0.0302826 0.000940186 0)
(-0.0307888 0.000956841 0)
(-0.0313033 0.000973566 0)
(-0.031826 0.000990302 0)
(-0.0323568 0.00100698 0)
(-0.0328958 0.00102352 0)
(-0.0334428 0.00103985 0)
(-0.0339975 0.00105586 0)
(-0.0345598 0.00107146 0)
(-0.0351294 0.00108652 0)
(-0.0357059 0.00110093 0)
(-0.0362889 0.00111454 0)
(-0.0368778 0.0011272 0)
(-0.0374721 0.00113875 0)
(-0.0380711 0.00114901 0)
(-0.038674 0.00115779 0)
(-0.0392799 0.00116489 0)
(-0.0398878 0.00117007 0)
(-0.0404966 0.00117312 0)
(-0.041105 0.00117377 0)
(-0.0417117 0.00117176 0)
(-0.0423151 0.00116683 0)
(-0.0429135 0.00115867 0)
(-0.0435052 0.00114699 0)
(-0.0440881 0.00113147 0)
(-0.0446602 0.0011118 0)
(-0.045219 0.00108765 0)
(-0.0457622 0.0010587 0)
(-0.0462871 0.00102462 0)
(-0.0467909 0.00098509 0)
(-0.0472707 0.000939791 0)
(-0.0477233 0.000888426 0)
(-0.0481457 0.000830715 0)
(-0.0485343 0.0007664 0)
(-0.0488857 0.000695255 0)
(-0.0491965 0.000617093 0)
(-0.0494628 0.000531769 0)
(-0.0496812 0.000439189 0)
(-0.0498479 0.000339318 0)
(-0.0499592 0.000232186 0)
(-0.0500116 0.000117895 0)
(-0.0500015 -3.37513e-06 0)
(-0.0499255 -0.000131359 0)
(-0.0497805 -0.000265705 0)
(-0.0495634 -0.000405968 0)
(-0.0492716 -0.000551606 0)
(-0.0489026 -0.000701983 0)
(-0.0484544 -0.000856363 0)
(-0.0479254 -0.00101392 0)
(-0.0473145 -0.00117373 0)
(-0.0466208 -0.0013348 0)
(-0.0458443 -0.00149604 0)
(-0.0449853 -0.00165631 0)
(-0.0440449 -0.0018144 0)
(-0.0430247 -0.00196906 0)
(-0.0419268 -0.00211904 0)
(-0.0407542 -0.00226304 0)
(-0.0395102 -0.00239979 0)
(-0.0381991 -0.00252804 0)
(-0.0368256 -0.00264657 0)
(-0.0353948 -0.00275425 0)
(-0.0339126 -0.00285001 0)
(-0.0323854 -0.00293286 0)
(-0.0308198 -0.00300195 0)
(-0.029223 -0.00305655 0)
(-0.0276025 -0.00309604 0)
(-0.025966 -0.00311996 0)
(-0.0243213 -0.00312801 0)
(-0.0226766 -0.00312002 0)
(-0.0210399 -0.00309599 0)
(-0.0194192 -0.00305605 0)
(-0.0178226 -0.00300048 0)
(-0.0162578 -0.00292972 0)
(-0.0147323 -0.00284428 0)
(-0.0132535 -0.00274484 0)
(-0.0118283 -0.00263213 0)
(-0.0104634 -0.00250701 0)
(-0.00916477 -0.00237037 0)
(-0.0079382 -0.00222319 0)
(-0.00678886 -0.00206649 0)
(-0.00572141 -0.00190135 0)
(-0.00473993 -0.00172889 0)
(-0.00384789 -0.0015503 0)
(-0.0030481 -0.00136688 0)
(-0.00234262 -0.00118004 0)
(-0.00173262 -0.000991463 0)
(-0.00121832 -0.000803152 0)
(-0.000798694 -0.000617666 0)
(-0.000471223 -0.000438377 0)
(-0.00023151 -0.000269887 0)
(-7.28027e-05 -0.000118592 0)
(1.45426e-05 6.59439e-06 0)
(4.367e-05 9.33247e-05 0)
(3.32996e-05 0.000124945 0)
(1.05197e-05 7.83804e-05 0)
(2.77335e-06 -3.29726e-05 0)
(6.88811e-06 -5.20797e-05 0)
(3.52564e-06 -3.80579e-05 0)
(-1.50879e-05 -9.94553e-07 0)
(-5.40855e-05 5.14424e-05 0)
(-0.000116683 0.000113181 0)
(-0.000204744 0.000179551 0)
(-0.000319023 0.000247071 0)
(-0.00045938 0.00031321 0)
(-0.000624985 0.0003762 0)
(-0.000814503 0.00043486 0)
(-0.00102625 0.000488469 0)
(-0.00125832 0.000536662 0)
(-0.0015087 0.000579336 0)
(-0.00177533 0.000616592 0)
(-0.00205622 0.000648672 0)
(-0.00234944 0.000675918 0)
(-0.00265319 0.000698735 0)
(-0.0029658 0.000717566 0)
(-0.00328579 0.000732866 0)
(-0.0036118 0.000745087 0)
(-0.00394268 0.000754667 0)
(-0.0042774 0.000762015 0)
(-0.00461511 0.000767511 0)
(-0.00495507 0.000771497 0)
(-0.0052967 0.000774279 0)
(-0.0056395 0.000776123 0)
(-0.00598309 0.000777262 0)
(-0.00632718 0.000777889 0)
(-0.00667153 0.000778169 0)
(-0.007016 0.000778235 0)
(-0.00736047 0.000778196 0)
(-0.00770488 0.000778137 0)
(-0.00804919 0.000778123 0)
(-0.0083934 0.000778205 0)
(-0.00873752 0.000778418 0)
(-0.00908159 0.000778788 0)
(-0.00942565 0.00077933 0)
(-0.00976974 0.000780055 0)
(-0.0101139 0.000780968 0)
(-0.0104583 0.000782069 0)
(-0.0108028 0.000783358 0)
(-0.0111477 0.000784833 0)
(-0.0114929 0.000786491 0)
(-0.0118385 0.000788327 0)
(-0.0121846 0.00079034 0)
(-0.0125312 0.000792527 0)
(-0.0128785 0.000794887 0)
(-0.0132264 0.000797418 0)
(-0.013575 0.000800121 0)
(-0.0139245 0.000802997 0)
(-0.0142748 0.00080605 0)
(-0.0146261 0.000809281 0)
(-0.0149784 0.000812696 0)
(-0.0153318 0.0008163 0)
(-0.0156863 0.000820099 0)
(-0.0160421 0.000824099 0)
(-0.0163992 0.000828309 0)
(-0.0167578 0.000832736 0)
(-0.0171178 0.000837391 0)
(-0.0174794 0.000842281 0)
(-0.0178428 0.000847419 0)
(-0.0182079 0.000852813 0)
(-0.0185749 0.000858477 0)
(-0.0189439 0.000864421 0)
(-0.019315 0.000870657 0)
(-0.0196884 0.000877199 0)
(-0.0200642 0.000884059 0)
(-0.0204424 0.000891249 0)
(-0.0208233 0.000898785 0)
(-0.0212069 0.00090668 0)
(-0.0215934 0.000914948 0)
(-0.0219831 0.000923603 0)
(-0.0223759 0.000932659 0)
(-0.0227721 0.000942133 0)
(-0.0231719 0.000952037 0)
(-0.0235754 0.000962387 0)
(-0.0239828 0.000973198 0)
(-0.0243943 0.000984484 0)
(-0.02481 0.000996259 0)
(-0.0252303 0.00100854 0)
(-0.0256552 0.00102133 0)
(-0.0260849 0.00103466 0)
(-0.0265198 0.00104853 0)
(-0.02696 0.00106296 0)
(-0.0274056 0.00107795 0)
(-0.0278571 0.00109352 0)
(-0.0283144 0.00110968 0)
(-0.028778 0.00112643 0)
(-0.029248 0.00114378 0)
(-0.0297246 0.00116174 0)
(-0.0302081 0.00118031 0)
(-0.0306988 0.00119948 0)
(-0.0311967 0.00121926 0)
(-0.0317022 0.00123965 0)
(-0.0322155 0.00126062 0)
(-0.0327368 0.00128218 0)
(-0.0332663 0.0013043 0)
(-0.0338043 0.00132697 0)
(-0.0343508 0.00135015 0)
(-0.0349061 0.00137383 0)
(-0.0354703 0.00139795 0)
(-0.0360436 0.00142249 0)
(-0.0366261 0.00144738 0)
(-0.037218 0.00147257 0)
(-0.0378191 0.00149799 0)
(-0.0384297 0.00152356 0)
(-0.0390497 0.00154921 0)
(-0.0396791 0.00157482 0)
(-0.0403177 0.00160029 0)
(-0.0409656 0.00162549 0)
(-0.0416223 0.00165029 0)
(-0.0422879 0.00167453 0)
(-0.0429618 0.00169805 0)
(-0.0436438 0.00172066 0)
(-0.0443333 0.00174216 0)
(-0.0450298 0.00176232 0)
(-0.0457326 0.0017809 0)
(-0.0464411 0.00179765 0)
(-0.0471543 0.00181228 0)
(-0.0478713 0.00182447 0)
(-0.0485909 0.00183392 0)
(-0.0493119 0.00184026 0)
(-0.0500328 0.00184312 0)
(-0.0507523 0.00184212 0)
(-0.0514685 0.00183683 0)
(-0.0521796 0.00182682 0)
(-0.0528836 0.00181163 0)
(-0.0535781 0.0017908 0)
(-0.0542609 0.00176385 0)
(-0.0549294 0.00173027 0)
(-0.0555806 0.00168956 0)
(-0.0562118 0.00164122 0)
(-0.0568196 0.00158476 0)
(-0.0574009 0.00151967 0)
(-0.0579519 0.00144548 0)
(-0.0584692 0.00136173 0)
(-0.0589488 0.00126801 0)
(-0.0593868 0.00116394 0)
(-0.059779 0.00104919 0)
(-0.0601213 0.000923474 0)
(-0.0604095 0.000786609 0)
(-0.0606392 0.000638473 0)
(-0.0608062 0.000479041 0)
(-0.0609062 0.000308388 0)
(-0.060935 0.000126706 0)
(-0.0608886 -6.56948e-05 0)
(-0.0607631 -0.000268373 0)
(-0.060555 -0.00048075 0)
(-0.0602607 -0.000702106 0)
(-0.0598773 -0.000931575 0)
(-0.059402 -0.00116814 0)
(-0.0588328 -0.00141065 0)
(-0.0581677 -0.0016578 0)
(-0.0574057 -0.00190815 0)
(-0.056546 -0.00216013 0)
(-0.0555887 -0.00241209 0)
(-0.0545344 -0.00266223 0)
(-0.0533845 -0.0029087 0)
(-0.0521409 -0.0031496 0)
(-0.0508064 -0.00338296 0)
(-0.0493844 -0.00360683 0)
(-0.0478793 -0.00381924 0)
(-0.0462958 -0.00401831 0)
(-0.0446396 -0.00420217 0)
(-0.0429169 -0.0043691 0)
(-0.0411344 -0.00451746 0)
(-0.0392998 -0.00464577 0)
(-0.0374207 -0.00475274 0)
(-0.0355056 -0.00483722 0)
(-0.0335632 -0.00489831 0)
(-0.0316025 -0.0049353 0)
(-0.0296327 -0.00494772 0)
(-0.0276632 -0.00493531 0)
(-0.0257032 -0.00489806 0)
(-0.0237623 -0.00483617 0)
(-0.0218497 -0.00475005 0)
(-0.0199744 -0.00464034 0)
(-0.0181453 -0.00450785 0)
(-0.0163709 -0.00435355 0)
(-0.0146592 -0.00417859 0)
(-0.013018 -0.00398424 0)
(-0.0114546 -0.00377189 0)
(-0.00997539 -0.00354304 0)
(-0.00858664 -0.00329927 0)
(-0.00729373 -0.00304227 0)
(-0.00610144 -0.00277381 0)
(-0.00501379 -0.00249581 0)
(-0.00403401 -0.00221034 0)
(-0.00316441 -0.00191972 0)
(-0.00240628 -0.00162666 0)
(-0.00175971 -0.00133438 0)
(-0.00122339 -0.00104692 0)
(-0.000794337 -0.000769437 0)
(-0.000467545 -0.000508749 0)
(-0.000235588 -0.000273945 0)
(-8.81826e-05 -7.72337e-05 0)
(-1.16871e-05 6.51117e-05 0)
(1.19599e-05 0.000131691 0)
(6.57802e-06 9.29889e-05 0)
(1.31167e-06 -3.52732e-05 0)
(-1.70762e-06 -4.78065e-05 0)
(-1.94056e-05 -1.92157e-05 0)
(-5.7762e-05 3.81204e-05 0)
(-0.00012114 0.000114742 0)
(-0.000212423 0.000203109 0)
(-0.000333193 0.000297329 0)
(-0.000483967 0.000392926 0)
(-0.000664408 0.000486582 0)
(-0.000873505 0.000575924 0)
(-0.00110974 0.000659335 0)
(-0.00137124 0.000735801 0)
(-0.0016559 0.000804778 0)
(-0.00196147 0.000866088 0)
(-0.00228571 0.000919829 0)
(-0.00262636 0.000966304 0)
(-0.00298128 0.00100596 0)
(-0.00334845 0.00103933 0)
(-0.00372599 0.00106703 0)
(-0.0041122 0.00108967 0)
(-0.00450555 0.00110788 0)
(-0.00490469 0.00112227 0)
(-0.00530845 0.0011334 0)
(-0.00571583 0.00114181 0)
(-0.00612596 0.00114799 0)
(-0.00653814 0.00115237 0)
(-0.00695178 0.00115533 0)
(-0.00736641 0.0011572 0)
(-0.00778166 0.00115826 0)
(-0.00819726 0.00115876 0)
(-0.00861297 0.00115888 0)
(-0.00902867 0.0011588 0)
(-0.00944423 0.00115863 0)
(-0.00985961 0.00115847 0)
(-0.0102748 0.00115841 0)
(-0.0106897 0.0011585 0)
(-0.0111045 0.00115877 0)
(-0.0115191 0.00115926 0)
(-0.0119335 0.00115999 0)
(-0.0123479 0.00116096 0)
(-0.0127623 0.00116218 0)
(-0.0131768 0.00116366 0)
(-0.0135914 0.00116539 0)
(-0.0140061 0.00116736 0)
(-0.0144212 0.00116959 0)
(-0.0148365 0.00117206 0)
(-0.0152523 0.00117477 0)
(-0.0156685 0.00117772 0)
(-0.0160852 0.00118091 0)
(-0.0165026 0.00118435 0)
(-0.0169207 0.00118803 0)
(-0.0173395 0.00119197 0)
(-0.0177592 0.00119615 0)
(-0.0181798 0.0012006 0)
(-0.0186014 0.00120532 0)
(-0.0190241 0.00121032 0)
(-0.019448 0.0012156 0)
(-0.0198732 0.00122118 0)
(-0.0202998 0.00122708 0)
(-0.0207278 0.0012333 0)
(-0.0211574 0.00123986 0)
(-0.0215887 0.00124677 0)
(-0.0220219 0.00125405 0)
(-0.022457 0.00126172 0)
(-0.0228941 0.00126978 0)
(-0.0233334 0.00127827 0)
(-0.023775 0.00128719 0)
(-0.0242192 0.00129657 0)
(-0.0246659 0.00130641 0)
(-0.0251154 0.00131676 0)