/*--------------------------------*- C++ -*----------------------------------*\
  =========                 |
  \\      /  F ield         | OpenFOAM: The Open Source CFD Toolbox
   \\    /   O peration     | Website:  https://openfoam.org
    \\  /    A nd           | Version:  7
     \\/     M anipulation  |
\*---------------------------------------------------------------------------*/
FoamFile
{
    version     2.0;
    format      ascii;
    class       volVectorField;
    location    "122";
    object      U;
}
// * * * * * * * * * * * * * * * * * * * * * * * * * * * * * * * * * * * * * //

dimensions      [0 1 -1 0 0 0 0];

internalField   nonuniform List<vector> 
41600
(
(-0.0722823 0.0989912 -2.95728e-20)
(-0.174873 0.250322 -4.14215e-20)
(-0.233116 0.42096 2.17432e-23)
(-0.216321 0.541074 -3.4713e-20)
(-0.14819 0.525897 4.85795e-20)
(-0.0296434 0.340362 -1.06518e-19)
(0.126787 0.0531553 -1.40325e-20)
(0.285519 -0.235451 9.21509e-20)
(0.411208 -0.450602 -1.62856e-20)
(0.487697 -0.577963 -2.05336e-20)
(0.518988 -0.630909 -6.46272e-21)
(0.519417 -0.639086 1.67716e-20)
(0.463646 -0.644362 -8.89091e-21)
(0.393396 -0.589666 -9.01275e-21)
(0.419341 -0.389854 -9.23364e-21)
(0.52817 -0.0887741 2.28536e-21)
(0.644798 0.183379 4.8397e-22)
(0.718153 0.373708 -1.25529e-20)
(0.765849 0.469578 2.23772e-21)
(0.784132 0.500135 2.81202e-21)
(0.758356 0.532443 -1.25779e-20)
(0.693527 0.552992 1.14636e-20)
(0.646086 0.472019 -3.95177e-21)
(0.664576 0.244912 1.3482e-21)
(0.727685 -0.0251208 5.14707e-21)
(-0.0700873 0.108153 -1.35767e-19)
(-0.169118 0.257694 2.082e-19)
(-0.223615 0.422877 -4.25799e-20)
(-0.201173 0.534904 1.92084e-20)
(-0.123542 0.512254 -1.43591e-19)
(0.00259497 0.319026 1.66578e-19)
(0.166714 0.0270661 -2.52234e-20)
(0.328945 -0.260609 -1.2123e-19)
(0.452295 -0.46944 2.56071e-20)
(0.524131 -0.58807 -6.88762e-20)
(0.54844 -0.633396 9.29689e-21)
(0.544978 -0.631807 2.65828e-20)
(0.492565 -0.6274 2.41549e-20)
(0.412395 -0.58194 4.86442e-20)
(0.415817 -0.407283 1.67725e-20)
(0.507423 -0.121227 1.90887e-20)
(0.615958 0.153441 2.80964e-21)
(0.691327 0.352274 3.8905e-20)
(0.747099 0.456616 2.8718e-21)
(0.77061 0.500595 -1.01249e-20)
(0.74464 0.547067 -1.17812e-20)
(0.680544 0.571217 -2.37374e-20)
(0.647618 0.476652 -1.28247e-20)
(0.68231 0.230966 -1.0661e-21)
(0.751997 -0.0469614 -1.16225e-20)
(-0.067893 0.116737 3.04076e-20)
(-0.162545 0.264511 -7.10797e-20)
(-0.212253 0.424168 -9.39085e-20)
(-0.183315 0.528012 6.15663e-20)
(-0.0961773 0.498344 1.35417e-19)
(0.0375391 0.297956 -1.99775e-19)
(0.209696 0.00195337 1.0554e-19)
(0.374908 -0.283942 6.16818e-21)
(0.495208 -0.48602 1.11587e-19)
(0.561653 -0.59585 1.21082e-19)
(0.579372 -0.633886 6.84945e-20)
(0.570628 -0.624015 2.89128e-21)
(0.522026 -0.609366 -4.92402e-22)
(0.435584 -0.570051 -4.48942e-20)
(0.418318 -0.420165 -4.62994e-20)
(0.491407 -0.151612 -2.48828e-20)
(0.590716 0.122689 3.64612e-21)
(0.668315 0.327852 -3.96596e-20)
(0.731529 0.441001 9.50538e-21)
(0.758545 0.499728 -1.32061e-20)
(0.732168 0.560873 1.37153e-20)
(0.670097 0.586432 4.53078e-20)
(0.654587 0.47707 3.7878e-20)
(0.706356 0.215575 -1.32763e-20)
(0.783716 -0.0661911 -1.27251e-20)
(-0.0657161 0.1247 -2.26389e-19)
(-0.155238 0.270728 3.03951e-20)
(-0.199205 0.424827 3.18112e-19)
(-0.163027 0.52048 -1.93403e-19)
(-0.0664904 0.484282 1.26767e-19)
(0.0749687 0.277296 5.45698e-19)
(0.255441 -0.0220482 -2.83752e-19)
(0.423009 -0.305293 3.95743e-19)
(0.53959 -0.500202 1.62058e-19)
(0.599875 -0.601318 1.47098e-19)
(0.611443 -0.632298 3.10898e-20)
(0.596396 -0.615654 -1.0449e-19)
(0.551359 -0.590814 -5.15341e-20)
(0.462239 -0.554525 3.01038e-20)
(0.426798 -0.428124 4.08163e-20)
(0.480513 -0.179319 3.18638e-21)
(0.56984 0.0913333 -2.14392e-20)
(0.649786 0.300643 2.6472e-20)
(0.719275 0.423158 -6.72236e-20)
(0.74801 0.497681 -4.36119e-20)
(0.720989 0.573591 3.45153e-20)
(0.662581 0.598174 -1.12038e-20)
(0.665684 0.473055 1.69686e-20)
(0.734654 0.198425 3.10144e-20)
(0.821337 -0.0826841 1.31555e-20)
(-0.0635756 0.131988 3.13261e-20)
(-0.147291 0.2763 -4.44826e-19)
(-0.184651 0.424846 3.59499e-19)
(-0.140597 0.512394 -4.3345e-20)
(-0.0348265 0.470076 -4.94957e-19)
(0.114683 0.257153 -4.62806e-19)
(0.303605 -0.0448126 1.29976e-19)
(0.472821 -0.324529 -3.51885e-19)
(0.585032 -0.51188 -1.85792e-19)
(0.638473 -0.604503 -2.37548e-19)
(0.644202 -0.628627 -1.70308e-20)
(0.622378 -0.606605 4.10616e-20)
(0.579986 -0.57225 7.85689e-20)
(0.491567 -0.536051 -4.53662e-20)
(0.441055 -0.431008 5.79062e-20)
(0.475359 -0.203804 -4.84987e-20)
(0.5543 0.0596208 -4.46981e-20)
(0.636383 0.271048 -2.18931e-20)
(0.710213 0.403578 -1.22974e-20)
(0.738992 0.494582 5.33494e-20)
(0.711291 0.584942 -6.00538e-20)
(0.658215 0.606284 3.04145e-20)
(0.679784 0.464722 -5.14951e-20)
(0.765714 0.179111 -4.08463e-20)
(0.863046 -0.096814 -3.69483e-21)
(-0.0614913 0.138561 1.09983e-19)
(-0.138801 0.281183 4.05264e-19)
(-0.16877 0.424219 -9.49005e-19)
(-0.116316 0.503852 5.34642e-19)
(-0.00152931 0.455768 3.04256e-19)
(0.156449 0.237569 -8.9141e-20)
(0.353809 -0.0662292 3.88912e-19)
(0.523897 -0.341545 -4.46133e-20)
(0.631087 -0.520986 8.84105e-20)
(0.677159 -0.605431 2.37305e-19)
(0.67715 -0.622943 1.09191e-19)
(0.648676 -0.596716 -5.20963e-21)
(0.607465 -0.55409 -4.26849e-20)
(0.522712 -0.515428 1.40586e-19)
(0.460573 -0.428929 -3.0521e-20)
(0.476279 -0.224661 7.07079e-20)
(0.544987 0.0280517 2.86508e-20)
(0.628498 0.239703 6.79183e-20)
(0.703958 0.382793 1.54207e-20)
(0.73143 0.490499 -5.30568e-20)
(0.703266 0.594665 4.23667e-20)
(0.657186 0.610922 -6.29833e-20)
(0.697101 0.452626 -2.25407e-20)
(0.799609 0.157493 -7.44661e-20)
(0.907323 -0.109087 -1.70639e-20)
(-0.0594848 0.144382 -2.01376e-19)
(-0.12987 0.285336 -5.47657e-19)
(-0.151744 0.422939 3.58529e-19)
(-0.0904816 0.494892 -8.60914e-19)
(0.0330315 0.441451 -3.44512e-19)
(0.200003 0.218561 1.18519e-19)
(0.405649 -0.0862022 -6.27987e-19)
(0.575786 -0.356262 3.36223e-19)
(0.677297 -0.527499 -2.07216e-19)
(0.715664 -0.604133 -8.46418e-20)
(0.709804 -0.615382 -8.96004e-20)
(0.675325 -0.585825 1.30446e-19)
(0.633548 -0.536622 -1.14085e-19)
(0.554726 -0.493514 -6.52974e-20)
(0.484572 -0.422205 -2.48847e-20)
(0.483026 -0.241682 -5.14308e-20)
(0.542327 -0.00284829 4.33081e-20)
(0.625899 0.207408 -2.12814e-20)
(0.699982 0.361328 1.02406e-20)
(0.725165 0.485418 5.50556e-20)
(0.696852 0.602477 4.20882e-20)
(0.659876 0.612279 -8.63913e-20)
(0.719556 0.437586 1.17828e-19)
(0.837841 0.134239 1.43839e-19)
(0.953093 -0.119639 -1.29409e-20)
(-0.0575789 0.149423 8.96924e-19)
(-0.120601 0.288719 5.65036e-19)
(-0.133757 0.420992 1.80705e-19)
(-0.0633601 0.485511 9.21045e-19)
(0.0685267 0.427194 5.03334e-19)
(0.245051 0.200141 1.01532e-18)
(0.458701 -0.104655 -5.1684e-19)
(0.628028 -0.368627 1.10083e-19)
(0.723217 -0.531441 2.43109e-20)
(0.753705 -0.600646 -1.32783e-19)
(0.741767 -0.606121 -3.91265e-20)
(0.702223 -0.573812 -1.39033e-19)
(0.658223 -0.519968 1.35809e-19)
(0.586583 -0.471184 1.05868e-20)
(0.512154 -0.411287 -6.70224e-20)
(0.49475 -0.254863 -4.98093e-21)
(0.545931 -0.0326447 -3.8826e-20)
(0.6276 0.174949 -2.06742e-20)
(0.697765 0.339634 6.67131e-20)
(0.719808 0.479276 5.38615e-20)
(0.69155 0.60794 8.43887e-21)
(0.6668 0.610098 1.21221e-19)
(0.749492 0.420306 2.50463e-20)
(0.881907 0.110766 8.47143e-21)
(0.999405 -0.128054 5.69629e-20)
(-0.0557979 0.15366 -7.79702e-19)
(-0.111104 0.291292 4.10899e-19)
(-0.114989 0.418342 -3.57468e-20)
(-0.0352371 0.47579 1.71816e-19)
(0.104641 0.412978 2.42126e-19)
(0.291291 0.182309 -1.47267e-18)
(0.512535 -0.121532 8.2355e-19)
(0.680168 -0.378618 -9.06235e-19)
(0.768429 -0.532869 -1.9685e-19)
(0.790977 -0.595031 -1.9781e-19)
(0.772758 -0.595346 -2.52067e-19)
(0.729111 -0.560636 2.45417e-21)
(0.681714 -0.50407 -2.3145e-20)
(0.617265 -0.449276 -8.08982e-20)
(0.542374 -0.396738 1.24304e-19)
(0.51044 -0.264244 8.2719e-20)
(0.55453 -0.0609386 -2.75281e-20)
(0.631911 0.142871 -2.66856e-20)
(0.696789 0.318017 -3.30727e-20)
(0.714628 0.472011 -9.80179e-20)
(0.686492 0.610347 -7.5032e-20)
(0.678073 0.603391 1.3318e-21)
(0.787625 0.400971 -2.17687e-19)
(0.931714 0.0887678 -3.71209e-20)
(1.04503 -0.133553 -1.56811e-19)
(-0.0541677 0.157079 8.94561e-19)
(-0.101487 0.293016 -1.16128e-18)
(-0.0956184 0.415003 -7.66578e-19)
(-0.00639373 0.465761 -1.03539e-18)
(0.141067 0.398757 2.88786e-19)
(0.338425 0.16505 2.42591e-19)
(0.566724 -0.1368 4.0038e-19)
(0.731761 -0.386245 7.61083e-20)
(0.812553 -0.531868 1.24327e-19)
(0.827171 -0.587381 -1.7741e-19)
(0.802607 -0.583227 2.48e-19)
(0.755604 -0.54636 -3.26727e-20)
(0.704389 -0.488705 1.33288e-19)
(0.645923 -0.428515 -2.54411e-20)
(0.574185 -0.379289 2.94663e-20)
(0.529402 -0.269715 -1.30118e-19)
(0.566231 -0.087373 -1.76641e-20)
(0.636841 0.111416 -7.06234e-20)
(0.696282 0.29656 -4.09067e-20)
(0.708618 0.463588 -3.92865e-20)
(0.680796 0.608805 6.0843e-20)
(0.693113 0.590687 -3.82941e-20)
(0.832333 0.379072 4.86164e-20)
(0.985214 0.0694605 1.67305e-20)
(1.08835 -0.135387 4.65166e-20)
(-0.0527147 0.159671 9.52364e-20)
(-0.0918607 0.293854 1.26208e-18)
(-0.0758337 0.410988 -8.67792e-20)
(0.0228737 0.455417 4.62085e-19)
(0.177516 0.384488 -1.73214e-18)
(0.386174 0.148338 -9.16155e-20)
(0.620857 -0.150444 -6.73605e-19)
(0.78238 -0.391548 5.29834e-19)
(0.855247 -0.52855 5.25557e-19)
(0.861988 -0.577826 4.08472e-20)
(0.831219 -0.569904 5.81699e-20)
(0.78129 -0.531144 -4.42284e-20)
(0.726617 -0.473555 -8.53182e-20)
(0.672068 -0.409398 -1.08545e-19)
(0.606349 -0.35991 -2.39926e-20)
(0.551438 -0.270978 3.89419e-20)
(0.579029 -0.111412 1.07327e-19)
(0.640551 0.0806071 6.35955e-21)
(0.694913 0.27505 3.88796e-20)
(0.700659 0.453922 5.80684e-20)
(0.674006 0.602491 -1.1753e-19)
(0.711348 0.570761 -1.80186e-20)
(0.880892 0.353986 1.01861e-19)
(1.03927 0.0533705 -1.23978e-19)
(1.12759 -0.1331 4.28049e-20)
(-0.0514664 0.161434 -2.0653e-18)
(-0.0823333 0.293768 -1.051e-18)
(-0.0558061 0.406256 9.19386e-19)
(0.0522493 0.444784 -5.18194e-19)
(0.213723 0.370114 2.30555e-18)
(0.434281 0.132142 -6.32015e-19)
(0.674546 -0.162466 1.3349e-18)
(0.831629 -0.394592 2.45454e-19)
(0.896204 -0.523047 -4.7593e-19)
(0.895171 -0.566525 4.1682e-19)
(0.858518 -0.555496 1.32136e-19)
(0.805831 -0.515211 -2.18324e-21)
(0.748599 -0.458314 -1.29162e-19)
(0.695692 -0.392103 7.1376e-20)
(0.637502 -0.339788 -9.25219e-20)
(0.576486 -0.267702 4.69902e-20)
(0.591487 -0.132292 -4.32513e-20)
(0.641671 0.0505019 1.58284e-20)
(0.690781 0.253025 -1.84792e-20)
(0.689544 0.442653 -1.33554e-20)
(0.66646 0.590757 5.97512e-20)
(0.733552 0.543377 1.89098e-20)
(0.931229 0.325804 -7.67435e-21)
(1.09067 0.040668 -5.18187e-20)
(1.16108 -0.126623 -2.30817e-20)
(-0.0504497 0.162372 1.88641e-18)
(-0.0730151 0.292723 4.26557e-19)
(-0.035706 0.400785 -2.09753e-19)
(0.0813999 0.433851 4.56519e-19)
(0.249456 0.355559 -1.94951e-18)
(0.482531 0.116428 1.49503e-18)
(0.727428 -0.172881 -4.99919e-19)
(0.879149 -0.395469 -4.9687e-19)
(0.935153 -0.515511 -1.4632e-19)
(0.926517 -0.55366 -4.31318e-19)
(0.884423 -0.540114 -2.13481e-19)
(0.829035 -0.498784 1.39666e-19)
(0.770288 -0.442786 1.94944e-19)
(0.717237 -0.376447 2.29292e-19)
(0.666392 -0.320161 -6.20915e-20)
(0.60405 -0.259842 2.75035e-20)
(0.603328 -0.148833 3.94764e-20)
(0.639439 0.0214076 7.31278e-20)
(0.681762 0.229919 4.17023e-20)
(0.673905 0.428911 7.76136e-20)
(0.659446 0.572783 2.32626e-20)
(0.761968 0.509267 9.77376e-20)
(0.982187 0.295503 -1.67458e-19)
(1.13659 0.0314108 2.51337e-19)
(1.18743 -0.116265 1.37213e-20)
(-0.0496926 0.1625 -3.15274e-19)
(-0.0640128 0.290682 -6.92521e-19)
(-0.0157033 0.394558 -7.29254e-19)
(0.109969 0.422579 4.22718e-19)
(0.284544 0.340735 1.71638e-18)
(0.530752 0.101162 -3.61633e-19)
(0.779173 -0.181716 -4.48454e-19)
(0.92462 -0.39429 -5.40555e-19)
(0.971867 -0.506111 -2.9971e-19)
(0.955879 -0.539422 -1.14476e-20)
(0.90884 -0.523882 -5.60655e-20)
(0.850862 -0.482046 -3.76188e-19)
(0.791425 -0.426946 -1.73465e-19)
(0.737392 -0.361976 2.126e-20)
(0.692203 -0.302045 5.05851e-20)
(0.632895 -0.24796 -6.399e-20)
(0.615518 -0.159511 -6.22225e-20)
(0.633838 -0.00562074 -4.28432e-20)
(0.666179 0.205477 9.99291e-21)
(0.652708 0.411244 -5.05905e-20)
(0.655269 0.547306 -5.02168e-20)
(0.798652 0.469496 -1.78019e-19)
(1.03232 0.264862 1.02431e-19)
(1.17457 0.0256295 -9.97189e-20)
(1.20562 -0.102686 1.14285e-19)
(-0.0492246 0.161846 9.17915e-19)
(-0.0554287 0.287603 6.3366e-19)
(0.00403232 0.387563 8.88483e-19)
(0.137577 0.410895 -6.76114e-19)
(0.318895 0.325545 -2.09535e-18)
(0.578824 0.086321 -1.43512e-18)
(0.829483 -0.189002 4.34383e-19)
(0.967768 -0.39118 6.22188e-20)
(1.00616 -0.495032 1.08123e-18)
(0.983161 -0.524003 3.08145e-19)
(0.931678 -0.506942 1.44132e-19)
(0.871365 -0.465115 3.8442e-19)
(0.811683 -0.410919 -8.99982e-20)
(0.756803 -0.348135 -1.02066e-19)
(0.714798 -0.285973 4.7261e-20)
(0.661288 -0.233319 4.12132e-20)
(0.629643 -0.162903 2.35867e-20)
(0.626159 -0.0284102 2.08005e-20)
(0.64378 0.180096 -1.76033e-20)
(0.626804 0.388039 1.28199e-20)
(0.657752 0.512966 3.22604e-20)
(0.8439 0.425401 1.53492e-19)
(1.07919 0.235492 6.75616e-20)
(1.20257 0.0231857 7.30604e-20)
(1.21515 -0.0868426 9.40981e-20)
(-0.0490733 0.160442 -1.35743e-18)
(-0.0473609 0.28345 8.07811e-19)
(0.0233273 0.379791 9.47785e-19)
(0.163832 0.398689 4.94867e-20)
(0.352534 0.309897 6.65327e-19)
(0.626665 0.071899 5.3598e-19)
(0.878086 -0.194775 -1.38435e-18)
(1.00836 -0.386281 7.27242e-19)
(1.0379 -0.482469 -9.39767e-19)
(1.00831 -0.507593 -2.42912e-19)
(0.952878 -0.489451 8.33481e-21)
(0.890616 -0.448065 2.24299e-19)
(0.830826 -0.394898 2.48144e-19)
(0.775817 -0.334483 -3.84496e-20)
(0.734723 -0.271898 5.72035e-20)
(0.687629 -0.217622 1.96297e-20)
(0.646804 -0.158482 1.1712e-20)
(0.619646 -0.0440866 4.62991e-21)
(0.617566 0.155046 -8.41327e-21)
(0.601518 0.358431 -9.14139e-21)
(0.672857 0.469692 -2.46738e-20)
(0.895971 0.37878 -1.06807e-19)
(1.11964 0.20862 6.97251e-20)
(1.21939 0.0237172 9.76603e-20)
(1.21621 -0.0698896 -6.44556e-20)
(-0.0492635 0.158322 7.1978e-19)
(-0.0399016 0.278196 -7.44378e-19)
(0.0419962 0.371235 -1.51274e-18)
(0.188351 0.385811 1.14003e-19)
(0.385629 0.293716 6.37835e-19)
(0.674228 0.0579138 -3.27125e-19)
(0.924739 -0.199072 2.28359e-19)
(1.04621 -0.379741 4.57392e-19)
(1.06699 -0.468621 -2.66207e-19)
(1.03129 -0.49038 1.12679e-18)
(0.972427 -0.471563 -4.11921e-20)
(0.908662 -0.430954 -1.43154e-19)
(0.848791 -0.379055 -1.64751e-19)
(0.794422 -0.320821 -4.20759e-21)
(0.752925 -0.259319 -7.45149e-20)
(0.711049 -0.202483 -3.30809e-20)
(0.666982 -0.147349 -1.49899e-20)
(0.619158 -0.0500522 -2.76267e-21)
(0.595598 0.133017 5.90421e-21)
(0.588518 0.323536 1.01217e-20)
(0.707214 0.419973 1.38705e-20)
(0.951317 0.332448 -3.33128e-20)
(1.15042 0.185425 -7.39799e-20)
(1.22485 0.0265893 -7.53321e-21)
(1.2097 -0.0530269 1.21898e-19)
(-0.0498185 0.155529 -9.74184e-19)
(-0.0331317 0.27182 3.42111e-19)
(0.0598328 0.361888 6.36643e-19)
(0.210811 0.372076 -1.59727e-19)
(0.418508 0.276963 5.80086e-19)
(0.72147 0.0444115 1.29674e-18)
(0.969221 -0.201932 1.75838e-19)
(1.08119 -0.371718 -8.95751e-19)
(1.09341 -0.453689 8.14905e-19)
(1.05213 -0.472546 -9.39374e-19)
(0.990349 -0.453425 -1.78659e-19)
(0.925519 -0.413851 -1.65208e-19)
(0.865656 -0.363484 2.58962e-20)
(0.812388 -0.307197 1.46531e-20)
(0.770311 -0.24757 1.58358e-20)
(0.731655 -0.188907 7.81814e-21)
(0.689153 -0.132194 -3.04262e-22)
(0.6294 -0.045761 -2.89365e-21)
(0.590085 0.117407 -1.17483e-20)
(0.602407 0.287192 -1.23499e-20)
(0.76296 0.368844 1.30231e-20)
(1.00415 0.2897 -1.03397e-20)
(1.16879 0.166408 -3.15693e-20)
(1.21977 0.0308961 -7.37431e-20)
(1.19718 -0.0373375 -7.45783e-20)
(-0.0507591 0.152115 6.2764e-19)
(-0.0271198 0.264307 7.1464e-19)
(0.0766016 0.351732 -3.56005e-19)
(0.231013 0.357276 5.79981e-20)
(0.451664 0.259653 8.60859e-19)
(0.768333 0.03147 6.51281e-19)
(1.01133 -0.203393 1.89181e-18)
(1.11318 -0.362375 6.89781e-19)
(1.11713 -0.437874 -1.00303e-19)
(1.07086 -0.454266 3.32773e-19)
(1.0067 -0.43517 5.28447e-19)
(0.941198 -0.39684 4.26404e-20)
(0.881543 -0.348212 2.7873e-20)
(0.829497 -0.293779 4.72166e-20)
(0.787388 -0.236153 -4.71722e-20)
(0.750339 -0.177066 2.29918e-21)
(0.711898 -0.116358 -3.06073e-21)
(0.652052 -0.0340928 1.54125e-20)
(0.611015 0.109523 1.0619e-20)
(0.649972 0.254557 -7.99512e-20)
(0.832175 0.321748 -1.31557e-20)
(1.04682 0.252777 1.43449e-20)
(1.17343 0.151185 -4.73327e-20)
(1.2061 0.0355273 8.17378e-21)
(1.18067 -0.0236463 1.64078e-20)
(-0.0521037 0.148138 -9.90672e-20)
(-0.02192 0.255658 -1.58742e-18)
(0.0920353 0.340727 3.91995e-19)
(0.248971 0.341215 4.21604e-19)
(0.48571 0.241869 -1.97763e-18)
(0.81471 0.0191973 5.70941e-19)
(1.05087 -0.203503 -2.4372e-19)
(1.14215 -0.35188 1.1975e-18)
(1.13822 -0.421368 -6.6162e-19)
(1.08755 -0.435705 -1.09323e-18)
(1.02153 -0.416914 -2.15009e-21)
(0.95573 -0.380003 -1.25841e-19)
(0.896545 -0.333244 -1.34207e-19)
(0.845683 -0.280712 -6.60616e-20)
(0.804205 -0.224915 6.96699e-21)
(0.768198 -0.166527 -8.06889e-21)
(0.734166 -0.102462 3.56375e-21)
(0.684071 -0.0204367 -1.10942e-20)
(0.657132 0.107003 -1.24586e-20)
(0.720953 0.227851 8.74388e-20)
(0.898417 0.281186 -1.24571e-21)
(1.07266 0.221848 5.66661e-21)
(1.16533 0.138544 2.19364e-20)
(1.18669 0.0394097 4.97474e-21)
(1.16228 -0.0124081 -4.17934e-20)
(-0.0538673 0.143661 -1.04387e-18)
(-0.0175719 0.245892 5.42144e-19)
(0.105845 0.328798 1.44664e-19)
(0.265003 0.323753 -4.04495e-19)
(0.52131 0.223771 1.72428e-18)
(0.860428 0.00772526 -1.47508e-18)
(1.08769 -0.202313 -1.70002e-18)
(1.16807 -0.3404 -8.95451e-19)
(1.15675 -0.404354 -5.73054e-19)
(1.1023 -0.417015 9.30505e-19)
(1.03494 -0.398764 1.21065e-19)
(0.96917 -0.363413 3.56961e-19)
(0.910704 -0.318597 2.11124e-19)
(0.861013 -0.268054 2.17129e-20)
(0.820587 -0.213963 7.74243e-21)
(0.785926 -0.156796 3.94871e-20)
(0.755755 -0.0915171 -2.80095e-21)
(0.71969 -0.00966598 -3.18988e-20)
(0.714536 0.104951 -4.3796e-20)
(0.792434 0.204768 -6.93049e-20)
(0.946238 0.245965 1.36204e-20)
(1.08003 0.195224 -8.74584e-21)
(1.14814 0.127034 1.76156e-20)
(1.1648 0.0418286 -1.25886e-20)
(1.14384 -0.00368123 3.83529e-20)
(-0.0560614 0.138753 7.04624e-19)
(-0.0141007 0.235049 1.54203e-19)
(0.117752 0.315827 9.89759e-20)
(0.279806 0.30486 -1.10687e-18)
(0.559075 0.205578 -3.08417e-18)
(0.905232 -0.00280171 -6.35193e-21)
(1.12165 -0.199889 2.37743e-18)
(1.19099 -0.328105 -6.90557e-19)
(1.17283 -0.387007 1.05339e-18)
(1.11522 -0.398332 5.89643e-20)
(1.04701 -0.380814 -3.86515e-19)
(0.981583 -0.347129 -5.06134e-19)
(0.924045 -0.304302 -1.99645e-19)
(0.875582 -0.255808 2.3635e-20)
(0.836392 -0.203458 6.3072e-20)
(0.803612 -0.147695 -1.78395e-21)
(0.776982 -0.0832306 5.38496e-21)
(0.75402 -0.0038661 2.21812e-20)
(0.767049 0.0990463 6.57908e-20)
(0.845844 0.181561 8.44748e-21)
(0.970816 0.21361 3.57177e-20)
(1.07362 0.171121 -4.72912e-21)
(1.12706 0.115747 -1.40772e-20)
(1.14324 0.0426183 -3.43975e-20)
(1.12655 0.00278698 1.91189e-21)
(-0.0586935 0.133488 -7.56718e-19)
(-0.0115177 0.223193 1.019e-18)
(0.127549 0.301653 2.53915e-19)
(0.294488 0.28468 6.45975e-19)
(0.599441 0.187553 1.46597e-18)
(0.948795 -0.0122414 -7.75677e-19)
(1.15263 -0.19631 -1.46897e-18)
(1.21098 -0.31516 9.78455e-19)
(1.18658 -0.369486 -1.16677e-18)
(1.12643 -0.379779 -4.97269e-19)
(1.05782 -0.363146 4.87193e-20)
(0.993037 -0.331198 3.83833e-19)
(0.936596 -0.29039 2.38631e-19)
(0.889449 -0.243969 -7.6817e-20)
(0.851588 -0.193482 6.56785e-21)
(0.820993 -0.139306 -2.76858e-20)
(0.797867 -0.0769369 -2.54016e-21)
(0.784608 -0.00238685 -5.61867e-21)
(0.80687 0.0885395 5.30707e-20)
(0.878227 0.156985 -3.9298e-20)
(0.978708 0.183265 -4.81774e-20)
(1.0612 0.14896 -1.99341e-20)
(1.10646 0.104577 5.11965e-21)
(1.12369 0.0420505 2.65655e-20)
(1.11097 0.00739472 -1.66583e-20)
(-0.0617673 0.12794 1.74928e-18)
(-0.00982015 0.210409 5.59056e-19)
(0.135187 0.286095 8.97105e-20)
(0.310511 0.263559 2.1407e-18)
(0.642563 0.169978 5.53268e-19)
(0.990737 -0.0204702 -1.00376e-18)
(1.18056 -0.191669 -2.16028e-18)
(1.22815 -0.301725 -2.04809e-18)
(1.19817 -0.351934 -4.51847e-19)
(1.13607 -0.361461 -3.07065e-19)
(1.06748 -0.345828 1.02374e-19)
(1.0036 -0.315659 1.96531e-19)
(0.948395 -0.276884 -7.80752e-20)
(0.902639 -0.232546 2.94212e-19)
(0.866186 -0.18404 -1.80277e-19)
(0.837789 -0.131715 1.36322e-21)
(0.817974 -0.0721348 6.78206e-21)
(0.811005 -0.00348916 -2.61897e-20)
(0.835486 0.0756676 -6.80097e-20)
(0.897211 0.132915 8.89064e-20)
(0.979525 0.155805 5.77704e-20)
(1.0486 0.129002 4.84136e-20)
(1.08852 0.093809 -2.7916e-21)
(1.10667 0.04053 -1.15396e-20)
(1.09716 0.0105348 5.33026e-21)
(-0.0652818 0.122189 -7.27809e-19)
(-0.00898666 0.196796 -2.4773e-18)
(0.140875 0.268989 -1.13365e-18)
(0.329547 0.242042 -2.48275e-18)
(0.688248 0.153126 2.68917e-19)
(1.03066 -0.0273984 -2.20652e-19)
(1.20541 -0.186077 3.04531e-18)
(1.24264 -0.287953 1.73513e-18)
(1.20776 -0.33448 8.84547e-20)
(1.14428 -0.343466 -2.98972e-19)
(1.07609 -0.328915 -1.90105e-19)
(1.01332 -0.300543 -3.77832e-19)
(0.95948 -0.263798 -3.28279e-19)
(0.915166 -0.221548 -1.44469e-19)
(0.880177 -0.175112 1.9488e-19)
(0.853834 -0.124898 1.0265e-20)
(0.836868 -0.0684921 -4.7576e-21)
(0.83382 -0.00580213 -2.4481e-20)
(0.857422 0.0628172 3.38345e-20)
(0.910414 0.111317 -5.93139e-20)
(0.979055 0.131936 -5.62591e-20)
(1.03809 0.111423 -2.12721e-20)
(1.07359 0.0836767 -1.05667e-21)
(1.09206 0.0383935 -1.23217e-22)
(1.08502 0.0125328 1.88886e-20)
(-0.0692314 0.116312 -1.63253e-19)
(-0.00896657 0.182466 -1.46917e-18)
(0.145182 0.250262 1.33607e-19)
(0.353229 0.220819 1.52224e-18)
(0.735964 0.137243 -8.4429e-19)
(1.06817 -0.0329803 2.4079e-18)
(1.22721 -0.179652 9.80617e-19)
(1.25462 -0.273985 -6.30147e-19)
(1.21554 -0.317234 9.9331e-19)
(1.1512 -0.325867 9.1458e-19)
(1.08373 -0.312451 4.35851e-20)
(1.02228 -0.285873 1.70158e-19)
(0.969888 -0.251141 8.85803e-20)
(0.927045 -0.210976 -1.68896e-19)
(0.893536 -0.166677 -1.40439e-20)
(0.869049 -0.118762 -8.98956e-21)
(0.854399 -0.0657265 4.73826e-21)
(0.853803 -0.0085986 2.0308e-20)
(0.875642 0.0510946 -4.64986e-20)
(0.92129 0.0927565 2.76326e-20)
(0.979004 0.111537 3.69592e-20)
(1.0298 0.0960745 -1.48925e-20)
(1.0613 0.0742708 2.04052e-21)
(1.07956 0.0358802 2.88577e-21)
(1.07439 0.0136512 1.12159e-22)
(-0.0736054 0.110386 2.70635e-18)
(-0.00966074 0.167526 3.48619e-18)
(0.149095 0.230007 9.44212e-19)
(0.382868 0.20061 4.63996e-19)
(0.784894 0.122539 2.1259e-18)
(1.10296 -0.0372172 -1.18439e-19)
(1.24602 -0.172523 9.01066e-19)
(1.26427 -0.25995 -1.28099e-19)
(1.22168 -0.300288 -9.70271e-19)
(1.15696 -0.308724 -2.63341e-19)
(1.09051 -0.29647 -1.85683e-19)
(1.03052 -0.271664 5.76276e-19)
(0.979653 -0.238918 1.83296e-19)
(0.938294 -0.200827 2.76754e-19)
(0.906239 -0.158704 4.25837e-20)
(0.883404 -0.1132 1.34879e-20)
(0.870598 -0.0635881 2.43422e-21)
(0.871474 -0.0115363 2.0268e-20)
(0.891336 0.0406951 2.31593e-20)
(0.930764 0.0769449 -7.06465e-21)
(0.979481 0.0941093 -6.54622e-20)
(1.02335 0.0826891 -4.18281e-21)
(1.05121 0.0656103 -5.09479e-21)
(1.0689 0.0331629 -3.84179e-21)
(1.06514 0.0141037 -1.11947e-20)
(-0.0783868 0.104486 -2.92865e-18)
(-0.0108948 0.152079 -2.8895e-18)
(0.154019 0.208559 -2.26603e-18)
(0.419171 0.182029 -3.75355e-19)
(0.834059 0.109179 -3.31144e-18)
(1.13476 -0.040156 -2.10265e-19)
(1.26197 -0.164819 -9.44233e-19)
(1.27182 -0.245962 4.23934e-20)
(1.22636 -0.283719 9.95755e-19)
(1.16169 -0.292081 3.65153e-20)
(1.0965 -0.280995 2.96039e-19)
(1.03809 -0.257926 -5.50856e-19)
(0.988805 -0.227127 -1.72377e-19)
(0.948925 -0.19109 3.00146e-19)
(0.918276 -0.151158 1.09585e-19)
(0.896896 -0.108118 -2.24816e-20)
(0.885534 -0.0618801 2.80646e-21)
(0.887183 -0.0144311 -3.8823e-20)
(0.905037 0.0315411 2.13926e-20)
(0.93912 0.0634474 -1.65064e-20)
(0.980377 0.0791724 3.82968e-20)
(1.01837 0.0710153 3.05771e-20)
(1.04294 0.0576871 1.36584e-20)
(1.05983 0.0303684 2.12088e-21)
(1.05712 0.0140631 -1.22248e-20)
(-0.0835517 0.0986799 1.81166e-18)
(-0.0123884 0.136218 1.8408e-18)
(0.161685 0.186536 1.18494e-19)
(0.462087 0.165469 -3.03385e-19)
(0.882434 0.0972819 1.67413e-18)
(1.16343 -0.04188 1.53784e-18)
(1.27521 -0.156669 1.74019e-18)
(1.27746 -0.232119 4.34722e-19)
(1.22975 -0.267587 -4.45026e-19)
(1.16552 -0.275969 4.10258e-19)
(1.10178 -0.26604 -5.86142e-20)
(1.04506 -0.244663 3.42758e-19)
(0.997374 -0.215765 1.03797e-19)
(0.958955 -0.18175 2.0635e-20)
(0.929645 -0.144005 5.27906e-21)
(0.909538 -0.103434 1.31216e-20)
(0.899286 -0.0604559 -1.65578e-20)
(0.901216 -0.0171675 2.5961e-20)
(0.917113 0.0235251 -1.53648e-20)
(0.946552 0.051898 5.79261e-20)
(0.981612 0.066339 1.42901e-20)
(1.01458 0.0608342 -2.00004e-21)
(1.0362 0.0504764 -1.05735e-21)
(1.05214 0.0275884 -2.40465e-22)
(1.05021 0.0136658 1.32449e-20)
(-0.0890668 0.0930237 7.39209e-19)
(-0.0137283 0.120036 -1.58908e-18)
(0.173953 0.16482 9.79288e-19)
(0.510802 0.151054 -4.62835e-19)
(0.929078 0.0869087 8.41052e-19)
(1.18892 -0.0424994 -2.4744e-19)
(1.28593 -0.148193 -1.32543e-18)
(1.28141 -0.218502 5.09012e-20)
(1.23204 -0.251937 -9.36458e-20)
(1.16855 -0.260412 -1.02856e-20)
(1.10644 -0.251614 2.67955e-19)
(1.05146 -0.231874 -2.92406e-19)
(1.00539 -0.204823 1.7789e-19)
(0.968399 -0.172793 3.08759e-20)
(0.940353 -0.137207 8.21646e-20)
(0.921353 -0.0990776 3.04062e-20)
(0.911936 -0.0592058 6.80745e-21)
(0.913812 -0.0196736 -2.48252e-21)
(0.927839 0.0165409 -2.76714e-20)
(0.953216 0.041999 -2.54687e-20)
(0.983117 0.055295 -1.58296e-20)
(1.01173 0.0519528 -1.1481e-20)
(1.03074 0.0439432 -7.76922e-21)
(1.04563 0.0248883 1.93678e-22)
(1.04427 0.0130201 -8.02697e-21)
(-0.0948831 0.0875528 -1.12032e-18)
(-0.0143552 0.103648 3.68956e-19)
(0.19254 0.144455 1.95097e-18)
(0.563908 0.138669 1.85359e-18)
(0.973212 0.0780647 -1.29527e-18)
(1.21125 -0.0421397 -1.24998e-18)
(1.29435 -0.139498 -9.91743e-20)
(1.28388 -0.205177 -3.08021e-19)
(1.23335 -0.236801 6.91727e-19)
(1.1709 -0.245419 5.42323e-20)
(1.11053 -0.237716 1.70666e-19)
(1.05734 -0.219554 8.5351e-20)
(1.01287 -0.194293 4.98873e-20)
(0.977274 -0.164199 -2.18813e-19)
(0.950413 -0.130731 -1.11109e-19)
(0.932372 -0.0949877 -9.78973e-20)
(0.923565 -0.0580485 -1.57459e-20)
(0.925165 -0.0219076 -3.86568e-21)
(0.937427 0.0104865 2.97689e-20)
(0.959241 0.0335057 9.66025e-21)
(0.984829 0.0457822 6.68918e-21)
(1.00962 0.0442028 1.06995e-20)
(1.02635 0.0380484 -8.59817e-22)
(1.04015 0.0223129 6.90321e-22)
(1.03919 0.012201 -2.59932e-23)
(-0.100931 0.0822754 -1.35449e-18)
(-0.0135652 0.0872185 8.4329e-19)
(0.218708 0.12647 -5.55845e-20)
(0.619686 0.128061 -9.75775e-19)
(1.01427 0.0707017 9.77017e-19)
(1.23053 -0.0409318 8.35057e-19)
(1.3007 -0.130683 -2.97231e-19)
(1.28506 -0.192196 -7.02431e-19)
(1.23385 -0.222199 -2.34102e-19)
(1.17265 -0.230996 -9.90568e-19)
(1.11411 -0.224344 -6.48295e-19)
(1.06273 -0.207696 8.92103e-20)
(1.01985 -0.184161 1.94124e-19)
(0.985599 -0.155951 1.37729e-19)
(0.959844 -0.124545 -1.0852e-19)
(0.942632 -0.0911144 5.58638e-20)
(0.934254 -0.0569241 7.41194e-21)
(0.935439 -0.0238486 -3.91866e-21)
(0.946045 0.00526776 -1.81435e-20)
(0.964732 0.0262162 3.42476e-21)
(0.98669 0.0375862 1.1308e-21)
(1.00811 0.0374383 -1.14e-20)
(1.02289 0.0327525 2.08646e-21)
(1.03552 0.019891 -1.55391e-21)
(1.03485 0.0112755 -3.37518e-21)
(-0.107151 0.0772176 5.25768e-19)
(-0.0104932 0.0709506 -1.95304e-18)
(0.253 0.111666 -1.8479e-18)
(0.676387 0.118955 -1.2233e-18)
(1.05191 0.0647321 1.45514e-18)
(1.24694 -0.0390032 -1.01045e-18)
(1.3052 -0.121829 1.38719e-18)
(1.28515 -0.179597 8.0251e-19)
(1.23366 -0.208142 -1.94021e-19)
(1.17389 -0.217139 1.59358e-19)
(1.11725 -0.211488 3.99474e-19)
(1.06767 -0.196289 -5.71718e-20)
(1.02635 -0.174415 -5.63419e-20)
(0.993392 -0.14803 -2.40283e-20)
(0.968665 -0.118621 4.27903e-20)
(0.952171 -0.0874158 -8.34912e-20)
(0.944082 -0.0557897 -2.82571e-20)
(0.944765 -0.02549 6.70782e-21)
(0.953829 0.000798901 1.99152e-21)
(0.969774 0.019963 -4.43523e-23)
(0.988645 0.0305283 -1.185e-20)
(1.00708 0.031534 3.88183e-21)
(1.02022 0.0280167 6.06292e-21)
(1.0316 0.0176377 1.56777e-21)
(1.03116 0.0102944 5.70899e-21)
(-0.113477 0.0723746 6.29459e-20)
(-0.00419506 0.055151 5.63986e-19)
(0.295116 0.100444 5.85021e-19)
(0.732463 0.111128 2.01376e-18)
(1.08598 0.0600438 -2.27264e-18)
(1.26068 -0.0364733 7.5781e-19)
(1.30808 -0.113003 -8.46091e-19)
(1.28431 -0.167404 2.07796e-19)
(1.23289 -0.194632 -4.32139e-19)
(1.17469 -0.203841 -2.64314e-19)
(1.11997 -0.199138 -3.43745e-19)
(1.07219 -0.18532 -1.34729e-19)
(1.0324 -0.165041 1.3962e-19)
(1.00067 -0.140417 -1.17613e-19)
(0.976901 -0.112932 -8.31454e-20)
(0.961029 -0.0838576 1.42878e-19)
(0.95312 -0.0546158 7.49274e-20)
(0.953257 -0.0268345 -2.87533e-21)
(0.96089 -0.0029976 2.15649e-23)
(0.974431 0.0146055 -5.02228e-21)
(0.99065 0.0244583 7.2709e-21)
(1.00645 0.0263832 -5.48953e-21)
(1.0182 0.0238027 -5.23153e-21)
(1.02828 0.0155576 -4.58936e-22)
(1.02807 0.00930054 -5.037e-21)
(-0.11979 0.0676692 6.18702e-19)
(0.00626327 0.0402979 1.14992e-18)
(0.343956 0.0927306 -1.76554e-18)
(0.78668 0.104437 -1.15037e-18)
(1.11649 0.0565141 1.11082e-18)
(1.27197 -0.0334492 9.74154e-19)
(1.30955 -0.104259 1.19684e-18)
(1.28269 -0.155635 -6.88363e-19)
(1.23164 -0.181663 3.39157e-19)
(1.17512 -0.191089 1.85581e-19)
(1.12233 -0.187279 -4.97989e-20)
(1.07632 -0.174776 -3.90652e-19)
(1.038 -0.156023 -5.08117e-19)
(1.00747 -0.133094 -1.69185e-19)
(0.984577 -0.107457 2.14318e-19)
(0.969245 -0.0804114 -2.19709e-20)
(0.961434 -0.0533827 2.62544e-21)
(0.961009 -0.027891 9.74362e-21)
(0.967322 -0.00619198 -6.97781e-23)
(0.978754 0.0100253 -1.0141e-21)
(0.99267 0.0192501 2.67778e-21)
(1.00617 0.0218943 -3.57205e-22)
(1.01672 0.0200708 -2.94907e-21)
(1.02543 0.0136509 6.60165e-22)
(1.02551 0.00833303 -1.2967e-22)
(-0.125953 0.0629981 -1.71202e-18)
(0.0217488 0.0269838 -1.05162e-18)
(0.397847 0.0880364 1.06673e-18)
(0.838151 0.0987913 -9.2945e-19)
(1.14354 0.0540188 5.91469e-19)
(1.28106 -0.030025 -1.80007e-18)
(1.30982 -0.0956416 -1.28677e-18)
(1.28044 -0.144295 -2.2635e-20)
(1.23 -0.169226 3.10054e-19)
(1.17523 -0.178867 -1.13619e-19)
(1.12437 -0.175896 3.6853e-19)
(1.08008 -0.164642 2.18972e-19)
(1.04319 -0.147346 3.22642e-19)
(1.01379 -0.126045 -1.7731e-19)
(0.991719 -0.102175 -8.99902e-20)
(0.976859 -0.0770548 1.66707e-20)